/*--------------------------------*- C++ -*----------------------------------*\
| =========                 |                                                 |
| \\      /  F ield         | OpenFOAM: The Open Source CFD Toolbox           |
|  \\    /   O peration     | Version:  v2012                                 |
|   \\  /    A nd           | Website:  www.openfoam.com                      |
|    \\/     M anipulation  |                                                 |
\*---------------------------------------------------------------------------*/
FoamFile
{
    version     2.0;
    format      ascii;
    class       volScalarField;
    location    "14";
    object      p;
}
// * * * * * * * * * * * * * * * * * * * * * * * * * * * * * * * * * * * * * //

dimensions      [0 2 -2 0 0 0 0];


internalField   nonuniform List<scalar> 
64000
(
1.24126e-21
-1.83454e-21
-1.82032e-21
-3.42407e-21
-5.52918e-21
-1.13925e-21
-1.5041e-21
-3.95614e-22
-2.47352e-21
-2.85421e-21
-2.45982e-21
-2.42744e-21
-2.11233e-21
-4.71798e-21
-2.30306e-21
-3.83098e-21
-3.56542e-22
-2.83053e-22
6.99877e-22
1.99364e-21
5.41639e-22
-4.10896e-21
-1.55216e-21
8.60383e-22
-4.78569e-21
-2.453e-21
3.58685e-22
-1.16492e-21
-1.33955e-21
-2.94836e-21
-3.07163e-21
2.15322e-22
6.36561e-22
-1.79227e-21
-7.26158e-22
-1.74549e-21
-6.0716e-22
1.86205e-21
1.69881e-21
1.61923e-21
-3.99651e-21
-5.63024e-21
-9.08681e-21
-5.68266e-21
-6.4746e-21
-7.16598e-21
-3.21813e-21
-4.89535e-22
-3.07478e-21
-5.29743e-21
-3.47247e-21
-5.56207e-21
-2.09138e-21
-1.72055e-21
-3.27869e-21
-5.61938e-21
-2.67209e-21
1.52233e-21
4.80067e-22
-8.88794e-23
2.3241e-21
-8.10456e-22
-4.47714e-21
-6.75542e-21
-6.36742e-21
-1.69761e-21
-3.28919e-23
-2.70147e-21
-1.13232e-21
6.36748e-22
2.20225e-21
6.53081e-23
-3.27485e-21
-2.2353e-21
-1.14192e-21
-1.88983e-21
1.52639e-21
1.74836e-21
7.07969e-23
3.98663e-22
-5.29618e-21
-3.39359e-21
-1.14573e-20
-7.50625e-21
-5.30335e-21
-6.87019e-21
-3.62158e-21
-3.17771e-21
-2.88995e-21
-3.96436e-21
-4.98509e-21
-7.59357e-21
-1.88413e-21
-2.13855e-21
-1.52e-21
-1.11938e-21
-5.79364e-21
-2.46411e-21
-1.27136e-21
-5.05865e-23
1.76927e-21
9.8361e-22
-5.50522e-21
-6.05544e-21
-2.11677e-21
-2.68701e-21
-3.11634e-21
-3.14029e-21
2.43869e-22
-9.79824e-23
1.06483e-21
-2.47667e-22
-1.1698e-21
-3.87915e-22
-4.26395e-22
1.78642e-21
9.3127e-22
-3.26961e-23
-9.77479e-22
-3.38367e-22
-5.98057e-21
-7.15122e-21
-7.64287e-21
-9.99516e-21
-8.47302e-21
-9.11818e-21
-3.53313e-21
-2.05486e-21
-4.98624e-21
-4.81582e-21
-5.13882e-21
-6.42406e-21
-4.735e-21
-1.7104e-21
-2.5775e-21
-4.08302e-21
-3.35402e-21
-1.9106e-21
-7.98532e-22
1.64771e-21
2.03216e-21
-9.39972e-22
-6.89683e-21
-6.95804e-21
-3.45798e-21
-3.65474e-21
-2.23574e-21
1.23133e-23
-1.27899e-21
-1.72885e-21
2.21128e-21
8.52609e-22
-2.81237e-21
8.67897e-22
2.12382e-21
8.21508e-22
2.83602e-22
-4.88899e-22
-1.5939e-21
-7.36541e-22
-1.3704e-20
-7.76404e-21
-8.59619e-21
-7.75815e-21
-9.23293e-21
-1.02052e-20
-5.36776e-21
-1.07995e-21
-3.19475e-21
-6.38299e-21
-6.08412e-21
-5.99138e-21
-3.22419e-21
-1.24219e-21
-6.82796e-21
-8.48642e-21
-3.46931e-21
1.1894e-21
1.41956e-21
1.45836e-21
2.77898e-21
-3.06538e-21
-1.04967e-20
-7.55632e-21
-3.02458e-21
-2.51802e-21
-1.05116e-21
-1.54951e-21
-3.30442e-21
3.55243e-22
2.37521e-21
3.54239e-22
-1.08178e-21
1.64374e-21
-1.44054e-21
2.32893e-22
4.83393e-22
1.05006e-21
-1.40124e-21
-4.64779e-22
-9.85795e-21
-8.95056e-21
-7.53759e-21
-9.58222e-21
-9.21342e-21
-8.65543e-21
-5.78568e-21
-6.63125e-21
-5.64186e-21
-5.51211e-21
-6.14593e-21
-6.35816e-21
-4.02537e-21
-3.44225e-21
-4.95691e-21
-5.80752e-21
-4.18639e-21
2.74388e-21
2.84896e-21
1.60618e-21
2.4759e-21
-3.33995e-21
-9.59362e-21
-8.32256e-21
-3.26438e-21
-2.14498e-21
-3.03431e-21
-7.15217e-22
-1.22564e-21
-2.22073e-21
-1.72919e-21
-1.59699e-21
-9.73417e-22
1.5723e-21
-4.22241e-22
4.167e-22
-8.18726e-23
-1.03587e-21
-1.38693e-22
3.94491e-22
-1.06621e-20
-1.17503e-20
-6.72858e-21
-8.17595e-21
-9.27311e-21
-9.4427e-21
-5.7345e-21
-6.75588e-21
-6.44616e-21
-4.54028e-21
-7.09179e-21
-6.54422e-21
-4.25546e-21
-5.05036e-21
-4.97553e-21
-4.76623e-21
-7.18689e-22
3.03708e-21
3.94919e-21
2.37985e-21
-8.53592e-22
-6.11653e-21
-1.18841e-20
-8.7968e-21
-3.51643e-21
-2.87813e-21
-2.75402e-21
1.11174e-21
3.2268e-22
-1.87062e-21
-4.24702e-21
-3.23411e-21
1.72421e-21
-2.33873e-22
-5.15621e-22
-7.73209e-23
9.9303e-23
-1.46974e-21
-3.03056e-21
-3.63414e-22
-8.40341e-21
-9.40708e-21
-1.05427e-20
-7.13616e-21
-1.02536e-20
-7.25354e-21
-5.28133e-21
-1.07321e-20
-7.64033e-21
-5.44855e-21
-7.43816e-21
-7.3907e-21
-6.54029e-21
-6.55953e-21
-4.22844e-21
-4.15218e-21
3.5108e-22
1.6464e-21
2.37686e-21
2.79545e-21
-2.3707e-21
-7.40778e-21
-9.94818e-21
-5.80691e-21
-3.90187e-21
-4.3693e-21
-1.73233e-21
1.10691e-21
7.81781e-22
-1.83844e-21
-4.96958e-21
-2.47676e-21
6.15669e-22
-5.46968e-22
-2.35226e-22
2.55641e-22
-3.95525e-22
-3.45954e-21
-1.53262e-21
1.06271e-21
-1.63435e-20
-1.1737e-20
-1.16606e-20
-9.44786e-21
-6.83967e-21
-8.54391e-21
-7.57431e-21
-6.76207e-21
-7.43701e-21
-9.14134e-21
-7.68159e-21
-9.17147e-21
-2.93648e-21
-8.03386e-21
-5.53438e-21
-4.37933e-21
-7.5175e-22
2.53418e-21
-1.32556e-21
-2.93597e-22
-1.63666e-21
-7.80245e-21
-8.35206e-21
-6.55287e-21
-2.38087e-21
-2.96307e-21
-2.88854e-21
1.13852e-23
1.20526e-21
-7.13697e-22
5.05834e-22
-1.20302e-21
-5.04996e-21
-1.32535e-21
-1.6211e-21
1.12195e-21
-4.78864e-22
-1.47555e-21
-6.26634e-24
7.8457e-22
-7.352e-21
-9.65723e-21
-1.12374e-20
-8.8493e-21
-8.6771e-21
-9.34495e-21
-6.62307e-21
-7.98372e-21
-7.44264e-21
-6.84758e-21
-8.22481e-21
-6.40712e-21
-4.37432e-21
-6.51106e-21
-7.15656e-21
-5.28181e-21
-3.91034e-21
-3.54452e-22
3.14797e-22
6.86581e-22
-9.27675e-22
-6.57841e-21
-8.8682e-21
-6.16496e-21
-2.95034e-21
-2.07404e-21
-1.39476e-21
7.32175e-22
-2.028e-21
-1.36446e-21
1.00128e-22
-4.44301e-22
-1.22384e-21
-1.17303e-21
-1.94018e-21
-2.15889e-21
3.18948e-22
-3.46319e-22
-6.29631e-22
-8.36563e-22
-6.04361e-21
-1.04668e-20
-1.09395e-20
-1.20209e-20
-7.86427e-21
-8.40537e-21
-9.09546e-21
-8.69161e-21
-7.70243e-21
-1.09695e-20
-8.11734e-21
-3.56921e-21
-3.08811e-21
-4.33254e-21
-6.3196e-21
-6.91365e-21
-4.67881e-21
5.47992e-23
3.864e-21
4.16707e-22
-5.68253e-21
-1.02978e-20
-6.07582e-21
-6.25332e-21
-4.47014e-21
-2.35833e-21
4.50873e-22
1.11761e-21
-1.37656e-21
-2.80085e-21
-2.21101e-21
-7.34944e-22
2.24545e-21
8.58592e-22
-1.87993e-21
-5.34919e-21
-9.89893e-22
6.51982e-22
-6.94119e-22
-2.4614e-22
-7.92762e-21
-1.20045e-20
-1.21139e-20
-1.07706e-20
-9.50613e-21
-1.08103e-20
-8.26914e-21
-9.43648e-21
-6.48085e-21
-9.96604e-21
-1.15747e-20
-4.35602e-21
-3.898e-21
-5.8095e-21
-4.78333e-21
-5.25009e-21
-5.11368e-21
4.32368e-22
1.72168e-21
7.97226e-22
-5.11002e-21
-8.63247e-21
-7.00511e-21
-7.09823e-21
-5.47264e-21
-1.3157e-22
2.62536e-21
-1.02394e-21
-2.88174e-21
-1.1606e-21
-1.78541e-21
-1.34827e-21
1.60939e-21
2.81323e-21
-3.64869e-21
-1.51738e-21
1.76757e-22
-1.10667e-22
1.16966e-22
-7.82642e-22
-1.25909e-20
-1.29368e-20
-1.10848e-20
-9.86029e-21
-1.09164e-20
-1.14394e-20
-1.14464e-20
-8.91316e-21
-7.66624e-21
-9.80574e-21
-1.04943e-20
-3.26319e-21
-4.4663e-21
-7.53709e-21
-4.86683e-21
-4.82923e-21
-2.77828e-21
-2.43953e-22
-1.01593e-21
-1.303e-21
-3.07317e-21
-5.10142e-21
-6.14033e-21
-6.47646e-21
-2.94477e-21
4.86939e-22
1.83e-21
-2.77207e-21
-1.44577e-21
-1.17197e-21
-3.97077e-21
-6.88835e-23
1.22886e-21
1.19932e-21
-5.46827e-22
6.9192e-22
-1.61726e-21
-2.3558e-21
-5.93689e-22
-2.1797e-22
-1.60514e-20
-1.52789e-20
-1.15231e-20
-1.17176e-20
-9.28519e-21
-1.04344e-20
-9.94116e-21
-6.50683e-21
-9.64258e-21
-1.39895e-20
-8.26968e-21
-2.41833e-21
-6.82011e-21
-1.06442e-20
-5.25568e-21
-4.83703e-21
-1.40524e-21
2.01366e-21
-5.02684e-23
-1.83543e-21
-4.83879e-21
-6.61558e-21
-6.5191e-21
-8.43744e-21
-1.15603e-21
8.8827e-22
2.17332e-21
-2.51374e-21
-2.18453e-21
9.11658e-22
-1.03193e-21
-1.10062e-22
-1.88402e-21
7.72197e-22
5.8194e-22
9.22559e-22
3.45894e-22
4.81738e-23
-1.93544e-21
-4.90348e-22
-1.07692e-20
-1.73866e-20
-1.60084e-20
-8.40718e-21
-6.47148e-21
-8.95484e-21
-1.16358e-20
-1.13531e-20
-9.58735e-21
-1.19467e-20
-8.12721e-21
-8.02788e-21
-7.29643e-21
-4.99356e-21
-2.41134e-21
-4.45092e-21
-2.52875e-21
-1.86473e-21
-2.84077e-21
-1.20208e-21
-7.11697e-21
-3.57871e-21
-4.36091e-21
-6.64769e-21
1.98516e-21
-8.1703e-22
-2.92056e-21
-2.1861e-21
-8.71307e-22
-5.95098e-22
-8.76738e-22
1.37063e-21
-6.49836e-22
-1.24732e-22
1.34611e-21
-6.26641e-22
3.79351e-23
-5.66135e-22
-1.39406e-21
5.69907e-22
-1.23042e-20
-1.31038e-20
-1.48464e-20
-9.99222e-21
-1.03586e-20
-8.22816e-21
-1.01392e-20
-1.1902e-20
-9.32345e-21
-7.11694e-21
-1.01101e-20
-9.61115e-21
-6.4165e-21
-3.99353e-21
-4.31689e-21
-5.50513e-21
-2.14985e-21
-2.28472e-21
-1.59032e-21
-3.30978e-21
-6.89797e-21
-5.11013e-21
-3.58923e-21
-1.16406e-21
1.03285e-21
-2.67764e-21
-3.69627e-21
-1.15196e-21
4.29267e-22
-2.24294e-22
-5.20194e-21
4.70864e-23
1.18755e-21
8.09104e-22
3.08677e-21
-4.19136e-22
-1.24344e-21
-1.43835e-21
-1.80698e-21
-3.84987e-24
-1.18901e-20
-1.0983e-20
-1.38196e-20
-9.87562e-21
-7.61149e-21
-9.55387e-21
-1.10255e-20
-1.27488e-20
-8.49546e-21
-8.2327e-21
-9.37525e-21
-1.02707e-20
-2.69242e-21
-5.29146e-21
-3.94918e-21
-3.70668e-21
-3.64852e-21
-1.39471e-21
-3.41317e-21
-4.76954e-21
-6.9563e-21
-4.48623e-21
-3.38544e-21
4.84924e-22
6.01932e-22
-4.90472e-22
-1.95447e-21
4.99687e-22
3.16608e-22
-3.86688e-21
-6.32368e-21
-6.98874e-22
2.04967e-21
6.75208e-22
1.83412e-21
5.38572e-22
-1.85944e-21
-2.76646e-21
-2.08921e-21
-1.68311e-21
-9.53625e-21
-1.19494e-20
-1.7153e-20
-9.4974e-21
-5.91464e-21
-8.30312e-21
-1.22151e-20
-1.14475e-20
-9.05278e-21
-8.26693e-21
-9.84492e-21
-8.81808e-21
-4.36266e-21
-5.85087e-21
-2.60502e-21
-3.78238e-21
-4.28068e-21
-7.03502e-22
3.24664e-22
-6.49029e-21
-7.65935e-21
-7.74837e-21
-9.34483e-22
1.04884e-22
2.40946e-21
-2.93313e-21
-1.29892e-21
1.67951e-21
-8.76456e-22
-1.44709e-21
-2.21936e-21
-1.67957e-21
6.17335e-22
9.66224e-22
3.0349e-22
-1.43682e-21
-1.83645e-21
-7.49627e-22
1.02526e-22
-7.24331e-22
-8.07486e-21
-8.79427e-21
-1.24104e-20
-1.09582e-20
-9.99672e-21
-9.05539e-21
-9.58961e-21
-8.81638e-21
-9.04939e-21
-9.68486e-21
-9.25732e-21
-8.65546e-21
-5.21443e-21
-5.083e-21
-3.47063e-21
-4.29936e-21
-4.36426e-21
-6.33683e-21
-6.4572e-21
-5.15608e-21
-2.89602e-21
-1.79859e-21
-2.01841e-21
-4.86527e-22
1.74114e-21
-2.11494e-23
6.54693e-22
2.97361e-21
8.90996e-22
-1.78313e-21
-6.39336e-21
-5.60199e-22
5.95163e-23
-6.43111e-22
-1.30094e-21
-2.39988e-22
-1.57164e-22
-9.66899e-22
-3.01707e-21
-2.78274e-21
-6.00813e-21
-7.3699e-21
-1.38848e-20
-1.2119e-20
-9.82575e-21
-7.15204e-21
-7.36481e-21
-1.01423e-20
-1.05226e-20
-9.36956e-21
-8.09357e-21
-8.66642e-21
-4.89767e-21
-4.01592e-21
-5.57422e-21
-5.45409e-21
-2.92207e-21
-3.34289e-21
-8.50687e-21
-4.34699e-21
-3.17307e-21
-4.24324e-21
-2.72697e-21
9.11181e-22
1.83704e-21
1.647e-21
-4.09974e-21
1.03224e-21
1.30943e-21
-2.50038e-21
-8.7497e-22
2.87892e-22
9.74192e-22
-1.21934e-21
-2.51274e-21
-1.16345e-21
-1.19218e-21
-3.98146e-22
-1.62851e-21
-2.68268e-21
-8.26385e-21
-9.21563e-21
-1.21149e-20
-1.01077e-20
-1.10684e-20
-7.4209e-21
-6.90986e-21
-6.69469e-21
-8.3754e-21
-1.17309e-20
-1.50106e-20
-7.35676e-21
-4.05053e-21
-3.00011e-21
-5.17316e-21
-4.49495e-21
-4.48459e-21
-2.39818e-21
-6.16096e-21
-3.8589e-21
-1.86508e-21
-3.74447e-21
-1.61632e-21
-1.76219e-21
-2.4966e-21
8.90232e-22
2.66525e-22
7.83787e-22
1.20977e-21
-3.21302e-22
-2.20291e-22
1.34841e-21
-1.30291e-21
-6.89809e-22
-1.20748e-21
-1.83685e-21
-2.01245e-21
-1.38612e-21
-1.18731e-21
-2.83884e-21
-1.15371e-20
-1.20883e-20
-9.2828e-21
-9.5467e-21
-1.17291e-20
-7.75872e-21
-8.43564e-21
-8.54177e-21
-7.34772e-21
-1.17737e-20
-1.28425e-20
-5.77095e-21
-3.10571e-21
-9.53472e-21
-5.24503e-21
-2.00679e-21
-2.51015e-21
-2.54475e-21
-4.84268e-21
-3.29002e-21
-4.07674e-21
-2.3341e-21
-1.64804e-21
-1.92557e-21
-1.23987e-22
-1.87849e-22
-1.30449e-21
-1.27087e-21
1.53565e-21
1.09868e-21
-2.07397e-21
1.63613e-21
-7.77405e-23
-8.34517e-22
-2.60076e-21
-5.1888e-21
-5.38013e-22
-1.11792e-21
7.8921e-22
4.99985e-22
-1.34933e-20
-1.23793e-20
-1.05257e-20
-7.15253e-21
-8.95963e-21
-1.23734e-20
-6.51179e-21
-6.73204e-21
-1.0357e-20
-1.32245e-20
-1.10277e-20
-7.58726e-21
-4.80432e-21
-4.55923e-21
-4.57809e-21
-3.96052e-21
-7.34117e-22
1.84386e-21
-1.11433e-21
-4.91037e-21
-5.16455e-21
-8.20967e-23
-4.63416e-21
-5.11285e-21
-2.1917e-21
-2.31463e-21
-4.11613e-22
3.75173e-23
1.54818e-21
2.22868e-21
-4.19604e-21
-1.4087e-21
5.41166e-22
-2.37498e-22
-1.77214e-21
-3.16208e-21
-1.52152e-21
8.74779e-22
-3.74666e-22
-1.19483e-21
-8.94518e-21
-1.02945e-20
-1.27978e-20
-8.2383e-21
-7.26865e-21
-9.81099e-21
-9.36761e-21
-1.18001e-20
-7.89295e-21
-8.82979e-21
-9.71812e-21
-9.54816e-21
-1.22833e-21
-6.04528e-21
-7.29379e-21
-2.49108e-21
2.88288e-21
-1.75546e-22
-1.53936e-21
-2.24237e-21
-4.79847e-21
-2.16637e-21
-2.94531e-21
-3.96755e-21
-4.67726e-21
-2.76889e-21
-2.14482e-22
8.5179e-22
1.48778e-21
-7.8863e-22
-2.87001e-21
-2.02571e-21
3.03743e-22
-2.09878e-21
-3.29961e-21
-3.03724e-21
-1.42692e-21
4.73059e-22
-7.58287e-22
-1.61769e-21
-4.08307e-21
-8.36429e-21
-1.17568e-20
-1.09319e-20
-7.52655e-21
-8.23312e-21
-8.97208e-21
-1.04906e-20
-6.17292e-21
-8.91419e-21
-1.17386e-20
-9.20457e-21
-4.08069e-21
-3.37988e-21
-4.781e-21
-2.33732e-21
1.91159e-21
-4.35961e-22
-6.53833e-23
1.2064e-21
-1.27396e-21
-3.71026e-21
-1.07542e-21
-6.61875e-21
-5.99384e-21
-5.95573e-21
-9.28804e-22
1.65343e-21
-1.22607e-21
1.49571e-21
5.85322e-22
-1.59635e-21
-1.27829e-21
-9.90443e-22
-3.41351e-21
-2.9495e-21
-1.97524e-21
-2.06349e-21
-1.20301e-21
-3.94347e-23
-8.59495e-21
-1.00955e-20
-1.16724e-20
-9.49607e-21
-7.17358e-21
-6.78921e-21
-8.61237e-21
-1.03047e-20
-6.16101e-21
-6.16389e-21
-1.15852e-20
-9.69834e-21
-4.24182e-21
-5.63717e-21
-1.1297e-21
-1.57697e-22
-2.07437e-22
-5.50608e-22
1.27503e-21
-1.1804e-22
1.2715e-21
-3.00517e-21
-5.44915e-21
-7.35376e-21
-6.79137e-21
-6.11685e-21
3.6635e-24
-8.42589e-22
-1.44466e-21
4.07148e-21
2.67117e-21
-1.95594e-21
-3.53426e-21
-1.28916e-21
-4.94445e-22
-1.53726e-21
-2.2642e-21
-3.85164e-21
-4.19053e-22
8.88681e-22
-4.48258e-21
-7.39697e-21
-1.04865e-20
-1.20768e-20
-8.79209e-21
-1.12772e-20
-9.18434e-21
-4.88837e-21
-5.92089e-21
-8.4413e-21
-1.15935e-20
-8.24679e-21
-2.96058e-21
-5.20079e-21
-6.15344e-21
-2.93262e-22
-1.13565e-21
-1.6262e-21
4.24782e-21
4.61243e-21
-2.39436e-21
-7.13097e-21
-4.23717e-21
-4.14969e-21
-5.44967e-21
-6.0363e-21
1.31625e-21
-6.75008e-22
-3.4296e-21
2.69591e-22
3.22e-21
5.0581e-23
-1.18433e-21
-4.05276e-22
-2.05711e-21
1.74004e-22
-2.54087e-21
-4.85628e-21
-2.47268e-21
-6.97803e-22
-5.64225e-21
-9.01473e-21
-1.0366e-20
-1.15284e-20
-6.90684e-21
-1.02975e-20
-7.36072e-21
-6.3617e-21
-6.09402e-21
-7.57847e-21
-9.86255e-21
-6.66351e-21
-3.55613e-21
-3.33667e-21
-5.89024e-21
-2.13714e-21
-1.15737e-21
-8.88702e-22
3.80826e-21
3.36853e-21
-3.83708e-21
-4.45472e-21
-3.99984e-21
-6.94256e-21
-4.34307e-21
-9.98831e-22
-5.54907e-22
-1.95336e-21
-1.61076e-21
-1.19032e-21
8.12706e-22
3.41023e-22
-9.82498e-22
-2.88199e-23
-7.80567e-22
-1.18209e-21
-4.36786e-21
-3.21227e-21
-8.70825e-22
7.94718e-22
-6.31546e-21
-1.07911e-20
-1.15257e-20
-9.01788e-21
-9.67541e-21
-1.06699e-20
-7.46955e-21
-4.58489e-21
-4.52414e-21
-8.16254e-21
-1.1452e-20
-3.79074e-21
-3.70153e-21
-4.53952e-21
-3.67267e-21
-3.31255e-21
-4.80907e-22
2.95468e-21
5.22837e-22
1.14249e-21
-5.12163e-21
-6.00098e-21
-3.42649e-21
-3.77925e-21
-2.48562e-21
-1.44421e-21
-1.30626e-21
-2.88518e-21
-4.97797e-22
-1.16061e-21
1.3531e-21
1.50642e-21
9.83396e-24
1.10318e-22
-1.24983e-21
-2.52525e-21
-1.06498e-21
-2.00825e-21
-1.05544e-21
-2.58818e-22
-4.80692e-21
-9.05791e-21
-1.10537e-20
-1.14744e-20
-1.1902e-20
-1.13914e-20
-6.40295e-21
-4.08329e-21
-4.66242e-21
-7.74307e-21
-1.05093e-20
-3.22143e-21
-3.29055e-21
-7.01955e-21
-3.6881e-21
-6.64872e-21
-2.48511e-21
4.82218e-22
4.40963e-21
3.19974e-21
-5.14588e-21
-5.03296e-21
-4.41363e-21
-3.93377e-21
-2.5805e-21
-2.00282e-21
-1.36752e-21
2.1036e-21
-3.06941e-22
-5.16932e-22
1.15294e-21
-5.82821e-23
2.88428e-22
-2.70643e-22
-2.45149e-21
-4.49217e-21
1.72081e-21
-1.16875e-21
-1.88957e-21
-5.68739e-23
-8.53571e-21
-9.47696e-21
-8.7736e-21
-9.62536e-21
-1.06753e-20
-1.01718e-20
-6.2481e-21
-4.49445e-21
-5.31281e-21
-6.81328e-21
-5.79949e-21
-4.41053e-21
-5.12046e-21
-4.55573e-21
-3.37693e-21
-6.48017e-21
-3.10323e-21
8.74674e-22
2.32441e-21
1.51605e-21
-1.62519e-21
-5.79926e-21
-4.43569e-21
-8.79764e-22
-2.63326e-21
-1.62039e-21
-2.75155e-21
5.03138e-22
-9.7841e-22
-4.06128e-22
-1.91496e-21
1.09964e-21
2.45401e-21
4.86632e-22
-2.85102e-21
-5.25407e-21
-3.15908e-21
-5.68145e-22
-5.43939e-23
7.56589e-22
-1.31464e-20
-1.17978e-20
-8.77155e-21
-8.81529e-21
-8.0703e-21
-1.00267e-20
-7.15427e-21
-5.67687e-21
-5.15734e-21
-4.3487e-21
-1.216e-21
-6.13815e-21
-7.19548e-21
-3.06586e-21
-3.40979e-21
-4.87128e-21
-2.10435e-21
1.67789e-21
2.04934e-21
6.96469e-22
4.47496e-22
-3.36271e-21
-9.4305e-21
-4.94477e-21
-1.41246e-21
-2.43013e-21
-1.65225e-21
1.15997e-21
1.20355e-21
3.17848e-22
-3.32101e-21
9.70309e-22
3.62145e-21
-8.03161e-22
-5.10217e-21
-4.5093e-21
-1.01648e-21
-1.12218e-22
1.28693e-21
-2.46663e-22
-7.72586e-21
-6.77357e-21
-7.43646e-21
-9.0796e-21
-9.84659e-21
-9.72025e-21
-6.8248e-21
-7.19938e-21
-4.73445e-21
-3.53724e-21
-9.74282e-22
-2.18939e-21
-7.69529e-21
-2.94903e-21
-5.0762e-22
-4.83312e-21
-1.9653e-21
-1.83874e-21
1.97203e-21
5.56041e-22
5.94395e-24
-3.39678e-21
-6.10455e-21
-2.58318e-22
-6.36551e-21
-5.65381e-21
1.09822e-21
1.13833e-21
2.62494e-22
1.87358e-22
-2.04234e-21
1.97855e-22
2.61714e-21
-7.0871e-22
-3.05947e-21
-1.00699e-21
-6.44405e-23
-5.21914e-21
-1.58677e-21
-2.11973e-22
-8.63531e-21
-7.49405e-21
-6.92876e-21
-1.17944e-20
-1.10328e-20
-6.48441e-21
-4.57467e-21
-3.856e-21
-4.63418e-21
-3.73404e-21
-1.56147e-21
-5.14681e-21
-7.96015e-21
-1.926e-21
-1.34082e-21
-1.86988e-21
-2.55497e-21
-1.19825e-21
4.67604e-22
2.69798e-21
1.69455e-21
-5.36414e-21
-2.89641e-21
-2.46214e-21
-4.60273e-21
-1.75802e-21
-7.75594e-22
-1.46945e-21
-7.33126e-22
3.14929e-22
-1.84371e-21
6.42831e-22
3.18786e-21
5.764e-22
-2.61006e-22
-6.74364e-22
4.43952e-23
1.5362e-21
-3.71825e-21
-3.04806e-21
-1.12773e-20
-7.16121e-21
-6.29021e-21
-7.46296e-21
-8.81339e-21
-9.00809e-21
-6.46816e-21
-3.89455e-21
-5.41138e-21
-3.72085e-21
-7.89358e-22
-5.47378e-21
-2.7374e-21
-3.64092e-22
-2.1375e-21
-3.43808e-21
-5.78105e-21
-5.37109e-24
2.01816e-21
3.48996e-21
1.26508e-21
-4.32547e-21
-3.95089e-21
-2.82763e-21
-2.94775e-21
-9.16087e-22
-1.12917e-21
-3.93723e-21
-6.21741e-22
-1.09603e-21
-4.54117e-22
-3.84297e-22
2.58345e-21
6.5365e-22
-1.64165e-21
-8.32077e-22
2.27881e-22
1.9455e-21
-1.91701e-22
-1.28651e-21
-7.75664e-21
-6.79431e-21
-7.12175e-21
-7.2896e-21
-7.7519e-21
-1.07846e-20
-4.54049e-21
-2.46232e-21
-3.16707e-21
-3.26701e-21
-3.98802e-21
-2.40339e-21
-3.38901e-21
-6.20402e-22
-3.6281e-22
-4.44371e-21
-4.85201e-21
1.8222e-22
2.69871e-21
7.15465e-22
5.23e-22
-3.62024e-21
-3.17723e-21
-2.49388e-21
-5.69093e-22
1.07503e-21
8.48332e-22
-9.90501e-22
-2.88929e-21
-2.27229e-21
-5.14544e-22
-7.19119e-22
7.70339e-22
1.79274e-21
-2.38453e-22
-7.821e-22
6.14874e-22
2.46578e-21
-6.78272e-23
-2.26225e-21
-6.4477e-21
-4.8463e-21
-4.53463e-21
-1.03626e-20
-7.65408e-21
-8.88132e-21
-4.56205e-21
-2.20738e-21
-2.42946e-21
-2.36476e-21
-4.88913e-21
-3.04896e-21
-1.53666e-21
1.66895e-22
-3.20236e-21
-2.76903e-21
-4.31341e-21
2.36016e-22
3.1248e-21
9.86544e-22
1.95981e-21
-4.1521e-21
-1.42553e-21
-1.28689e-21
-2.34067e-21
-2.2027e-21
-3.41877e-22
2.02693e-22
1.8356e-22
-1.30072e-21
-2.90074e-21
-1.38949e-21
1.12432e-21
1.04149e-21
-5.08138e-22
-8.67563e-22
3.38508e-21
3.53952e-21
-3.06783e-21
-2.36007e-21
-4.35844e-21
-4.12785e-21
-8.81842e-21
-7.33569e-21
-6.27395e-21
-8.00235e-21
-4.34743e-21
-2.88957e-21
-2.35575e-21
-2.6857e-21
-1.89767e-21
-3.57631e-21
-1.48875e-21
-1.07964e-21
-2.43868e-21
-5.86143e-22
-3.62626e-23
-6.18273e-22
2.34867e-21
4.32145e-21
9.1872e-23
-1.88398e-21
-2.84239e-21
-4.32743e-21
-6.42569e-22
5.77876e-23
-1.80201e-21
-1.36679e-23
1.00946e-21
-2.35316e-21
-4.69375e-21
-1.56639e-21
8.71153e-22
6.99872e-22
-1.46507e-21
-2.48639e-22
1.56449e-21
3.53578e-21
-2.05786e-21
-1.84629e-21
-4.33447e-21
-3.68881e-21
-6.75184e-21
-7.82592e-21
-7.34733e-21
-7.49257e-21
-5.20333e-21
-2.34567e-21
-4.20035e-22
-2.53642e-21
-1.15352e-21
-1.08448e-21
4.04717e-22
-6.26096e-22
-2.83097e-21
-1.57812e-21
-2.04858e-21
-1.13806e-22
8.40011e-22
1.76363e-21
1.76795e-21
-9.80613e-22
-2.11668e-21
-2.9323e-21
-3.27643e-21
3.20064e-22
1.10658e-21
1.71089e-21
-2.18517e-21
-4.37888e-21
-1.3181e-21
-2.31758e-21
6.00258e-22
9.2139e-22
5.77274e-22
-2.00776e-21
-1.15586e-21
1.63835e-22
8.6309e-22
7.69699e-22
-6.67519e-21
-3.10696e-21
-4.61242e-21
-2.05752e-21
-8.00701e-22
-4.14582e-21
-7.2025e-21
-3.40911e-21
-7.06219e-22
-2.73009e-21
-3.43465e-21
2.16924e-21
2.03033e-21
-9.08384e-22
-1.42682e-21
-2.3797e-21
-1.91059e-21
-2.0368e-21
2.10407e-21
2.86152e-21
1.40861e-21
-3.3044e-21
-2.22429e-21
-8.40898e-22
-1.04892e-21
3.28343e-22
4.03956e-22
2.79712e-22
7.84237e-23
4.9733e-22
-1.65227e-21
-1.08925e-21
-1.82889e-21
-2.25023e-21
4.57643e-22
-1.26262e-21
-3.67295e-21
-1.96454e-21
7.27274e-22
1.37363e-21
-3.37611e-21
-5.6113e-21
-1.00911e-20
-5.57951e-21
-3.24831e-21
-7.46687e-21
-2.80681e-21
1.46452e-21
-6.27591e-21
-6.58913e-21
-4.41421e-21
-4.26639e-21
-3.57188e-21
-2.43227e-21
-3.24566e-21
-4.41506e-21
-3.36166e-21
-2.42484e-21
3.3775e-21
2.1925e-21
-5.65809e-22
-2.71891e-21
-2.35083e-21
-1.87743e-21
-2.67711e-21
-1.65611e-21
-1.44077e-21
-2.53563e-21
-3.96587e-21
-4.07773e-21
-5.94332e-21
8.90261e-22
-1.13026e-21
-3.09427e-21
-1.80702e-21
-1.2029e-21
9.47497e-22
1.42495e-21
8.24167e-22
1.39918e-21
-7.21219e-21
-8.91238e-21
-1.33156e-20
-1.15966e-20
-5.58891e-21
-8.42507e-21
-6.7112e-21
-1.41476e-21
-5.4035e-21
-8.38869e-21
-7.60828e-21
-4.1536e-21
-6.13741e-21
-3.96008e-21
-5.38667e-21
-2.69693e-21
7.1889e-22
-3.56483e-21
8.15197e-22
6.90649e-22
7.85386e-22
-3.59602e-21
-3.39502e-21
-5.13541e-21
-3.30009e-21
-2.06796e-21
1.23268e-22
-8.01021e-22
-3.11685e-21
2.13267e-22
-1.82418e-21
-1.48421e-21
-3.64635e-21
-2.01274e-21
-4.22599e-21
8.83608e-22
1.22719e-21
1.31983e-21
-6.21492e-22
5.49023e-23
-9.64425e-21
-8.53365e-21
-9.54076e-21
-1.09651e-20
-9.39055e-21
-7.21208e-21
-6.72391e-21
-7.45902e-21
-8.00451e-21
-7.24911e-21
-6.93804e-21
-6.14834e-21
-2.65368e-21
-1.51351e-21
-3.7949e-21
-4.71988e-21
-4.19703e-21
-1.65826e-21
1.94174e-21
8.87213e-22
1.507e-22
-3.19876e-21
-3.64061e-21
-4.60031e-21
-3.40866e-21
-2.65949e-21
-1.54026e-21
-4.56214e-21
-1.38095e-21
-1.04679e-21
-2.64287e-21
-2.09926e-21
3.28362e-22
-9.80984e-23
-4.56325e-21
2.75538e-21
1.16401e-21
1.88371e-21
-8.14693e-22
-3.53642e-22
-1.01685e-20
-1.23561e-20
-1.08729e-20
-1.14206e-20
-1.04015e-20
-1.08454e-20
-7.24708e-21
-5.97549e-21
-9.11882e-21
-6.98264e-21
-5.42967e-21
-7.93664e-21
-3.53729e-21
-1.65317e-21
-5.03476e-21
-3.93967e-21
-3.00647e-21
-2.3631e-21
-1.10194e-21
2.16602e-21
-2.65238e-22
-5.03859e-21
-7.2296e-21
-6.04136e-21
-3.94765e-21
-2.15722e-21
-1.81971e-21
3.30728e-22
-3.02795e-21
-4.63419e-21
-7.93406e-22
-1.2775e-21
-4.35536e-22
7.28348e-22
-6.51821e-22
9.36791e-22
-2.26451e-23
-8.36291e-22
-1.3053e-21
-1.42846e-21
-1.41306e-20
-1.30449e-20
-1.2078e-20
-9.40512e-21
-1.41002e-20
-1.12344e-20
-7.28264e-21
-5.27389e-21
-7.09116e-21
-9.30816e-21
-7.73395e-21
-7.45549e-21
-3.45064e-21
-3.96463e-21
-5.96108e-21
-5.04788e-21
-5.98137e-21
-1.68726e-21
4.43697e-22
2.073e-21
-3.03488e-22
-3.27639e-21
-7.82822e-21
-6.61152e-21
-5.52182e-21
-2.30851e-21
-2.09241e-21
-2.89115e-21
-3.02356e-21
-1.98736e-21
4.08126e-22
-2.12188e-21
2.84846e-21
1.14289e-21
-2.16946e-21
3.04242e-22
1.11107e-21
-1.05319e-21
-1.68989e-21
-1.18096e-21
-1.38217e-20
-1.38878e-20
-1.04593e-20
-1.03196e-20
-1.35239e-20
-1.15159e-20
-8.52475e-21
-8.91165e-21
-8.81614e-21
-9.20159e-21
-9.29179e-21
-9.82681e-21
-5.02117e-21
-2.98959e-21
-5.50035e-21
-5.31912e-21
-6.09288e-21
-1.2914e-21
1.5151e-22
2.02843e-21
-6.50306e-22
-4.69789e-21
-7.01144e-21
-6.21357e-21
-5.03441e-21
-3.25611e-21
-1.01691e-21
-2.66265e-21
-4.45583e-21
-2.5062e-21
-3.80363e-21
9.11053e-23
4.96828e-21
1.2812e-21
-2.04282e-21
-1.64819e-23
-5.67404e-22
-4.19207e-22
1.60858e-21
1.35197e-21
-1.64377e-20
-1.69918e-20
-1.25504e-20
-1.10427e-20
-1.37906e-20
-1.06347e-20
-9.89588e-21
-7.79247e-21
-9.4766e-21
-1.08566e-20
-1.01207e-20
-8.79235e-21
-5.41017e-21
-5.02724e-21
-6.58137e-21
-5.42138e-21
-4.30016e-22
-3.56364e-22
-1.446e-22
-2.98656e-22
-2.30411e-21
-2.63956e-21
-6.97148e-21
-9.61238e-21
-4.97367e-21
-2.5255e-21
-2.56016e-21
-1.95526e-21
-1.44596e-21
-2.83526e-21
-3.73443e-21
1.5602e-22
2.06031e-21
-8.00452e-22
-3.2893e-21
-1.8959e-22
-1.9072e-22
-1.00669e-21
2.99207e-23
8.03126e-22
-1.31969e-20
-1.44853e-20
-1.33416e-20
-1.33216e-20
-1.39141e-20
-9.88786e-21
-1.11333e-20
-1.07327e-20
-1.14666e-20
-9.50092e-21
-8.13896e-21
-1.13792e-20
-5.62602e-21
-4.49545e-21
-6.46384e-21
-4.81782e-21
-3.14932e-23
-1.02339e-23
-7.8332e-22
-1.04475e-21
-3.05449e-21
-6.56588e-21
-8.3363e-21
-6.46746e-21
-4.58061e-21
-6.92671e-22
-1.06908e-21
-1.83636e-21
-3.06899e-21
-4.04233e-21
-5.78317e-21
5.67518e-23
1.16266e-21
-2.34677e-21
-1.38034e-21
4.97043e-22
2.13571e-21
-6.25317e-22
-2.67274e-21
-1.19937e-21
-1.49449e-20
-1.47579e-20
-1.71882e-20
-1.36619e-20
-1.24182e-20
-1.08105e-20
-1.17563e-20
-8.51898e-21
-9.33562e-21
-1.27048e-20
-8.94179e-21
-1.03401e-20
-6.02594e-21
-6.54832e-21
-7.10393e-21
-4.85195e-21
-1.77825e-21
-3.58994e-23
-3.80818e-21
-2.42476e-21
-2.38301e-21
-6.55684e-21
-8.1289e-21
-9.3688e-21
-5.1008e-21
-5.64536e-22
-3.95682e-22
-1.58777e-21
8.01179e-23
-7.5958e-22
-3.93319e-21
-1.45791e-21
-3.21865e-21
2.81582e-22
-6.39528e-22
1.5857e-21
8.96033e-22
-1.84902e-21
-1.58783e-21
-1.10104e-21
-1.58863e-20
-1.45627e-20
-1.57519e-20
-1.6614e-20
-1.29919e-20
-1.15847e-20
-1.3044e-20
-1.09743e-20
-7.48154e-21
-1.02163e-20
-9.61467e-21
-9.60998e-21
-6.24288e-21
-6.57785e-21
-8.42219e-21
-5.84728e-21
-2.66499e-21
-1.83396e-21
-2.52721e-21
-4.37733e-22
-5.32225e-21
-7.56379e-21
-7.53616e-21
-1.01075e-20
-7.10682e-21
-1.85134e-21
1.68273e-21
-1.37833e-21
-1.04614e-21
-2.08263e-21
-2.90494e-22
-9.10557e-22
-2.77142e-21
-2.94811e-22
-1.04626e-22
6.22276e-22
1.58636e-21
-8.27403e-22
-9.8042e-23
-4.46019e-22
-1.60136e-20
-1.74263e-20
-1.93889e-20
-1.57437e-20
-1.30462e-20
-1.02191e-20
-1.33087e-20
-1.40172e-20
-8.80498e-21
-9.19439e-21
-1.02547e-20
-1.11148e-20
-4.92893e-21
-5.78805e-21
-9.14994e-21
-8.39816e-21
-4.37718e-21
-1.98638e-21
5.71048e-22
-8.80337e-22
-8.08144e-21
-6.74952e-21
-6.83398e-21
-1.08178e-20
-7.2079e-21
-1.10002e-21
9.60771e-22
-5.57361e-22
1.79157e-21
-2.87796e-21
-3.26708e-21
-1.66279e-21
3.88629e-22
1.49369e-21
9.96453e-23
-2.42533e-21
-6.33458e-23
6.5465e-22
-8.94811e-22
-1.93098e-21
-1.86601e-20
-1.99054e-20
-1.77785e-20
-1.58499e-20
-1.26558e-20
-1.27867e-20
-1.37716e-20
-1.12707e-20
-8.62424e-21
-1.20474e-20
-1.07717e-20
-9.4238e-21
-8.74477e-21
-6.60328e-21
-9.17831e-21
-8.03319e-21
-7.02575e-21
-2.4445e-21
8.75898e-22
-1.57552e-21
-5.07028e-21
-7.47975e-21
-7.51271e-21
-8.57715e-21
-4.00873e-21
-3.83703e-21
-1.53624e-21
-7.47095e-22
1.40991e-21
-2.78643e-21
-2.71827e-21
-1.69635e-21
1.6725e-21
2.29702e-21
-1.50841e-21
-2.9102e-22
2.20421e-21
-2.74772e-22
-2.54869e-21
5.22655e-22
-2.05689e-20
-1.94324e-20
-1.5646e-20
-1.59705e-20
-1.60262e-20
-1.44051e-20
-1.14326e-20
-1.00696e-20
-1.15145e-20
-1.33494e-20
-9.50829e-21
-8.97589e-21
-8.25919e-21
-5.73945e-21
-1.03356e-20
-8.73475e-21
-5.305e-21
-2.81447e-21
-2.84821e-21
-1.43416e-21
-5.03576e-21
-3.69966e-21
-6.48813e-21
-6.8284e-21
-5.75141e-21
-2.24029e-21
-1.25081e-21
-2.899e-22
-5.47519e-22
-8.42382e-22
-2.05806e-21
-9.94724e-22
1.4931e-21
-2.21057e-22
-2.51006e-21
2.2611e-21
1.33114e-21
-8.00192e-22
-1.16688e-21
1.24909e-21
-2.3589e-20
-2.14272e-20
-1.68046e-20
-1.74304e-20
-1.39815e-20
-1.26943e-20
-1.23139e-20
-1.04012e-20
-1.12313e-20
-1.27419e-20
-1.15538e-20
-9.10629e-21
-1.0611e-20
-7.74426e-21
-8.79753e-21
-9.83315e-21
-6.7977e-21
-2.61248e-21
-1.23737e-21
-1.13192e-21
-4.65386e-21
-6.64746e-21
-5.33709e-21
-6.62744e-21
-6.06314e-21
-1.20454e-21
1.1258e-21
-3.92466e-22
-7.96303e-22
-1.49016e-21
-1.11944e-21
-1.36622e-22
9.22142e-22
3.87661e-22
5.63497e-23
1.61592e-21
3.22909e-21
1.50358e-21
-2.07054e-21
1.16341e-21
-2.55865e-20
-2.16225e-20
-1.67233e-20
-1.38923e-20
-1.32872e-20
-1.14651e-20
-1.40086e-20
-1.20334e-20
-1.11681e-20
-1.40858e-20
-1.12998e-20
-9.69843e-21
-1.02968e-20
-8.27449e-21
-7.73672e-21
-8.64543e-21
-2.9134e-21
-2.69483e-21
-5.01373e-21
-3.4865e-21
-4.41276e-21
-6.94619e-21
-6.63692e-21
-4.42887e-21
-2.48942e-21
-1.75066e-21
-2.7938e-22
-6.96613e-22
-8.86144e-23
-1.94793e-21
-4.21547e-21
-1.53696e-22
2.34464e-21
1.66884e-21
1.40259e-22
9.03516e-22
1.65355e-21
1.7958e-21
3.77634e-22
1.10716e-21
-2.16946e-20
-1.9508e-20
-2.08008e-20
-1.48274e-20
-1.33646e-20
-1.41576e-20
-1.34453e-20
-1.40875e-20
-1.21073e-20
-1.17814e-20
-1.21761e-20
-1.1348e-20
-1.35928e-20
-6.68534e-21
-4.47287e-21
-6.56465e-21
-4.22678e-21
-4.27979e-21
-4.47238e-21
-4.2318e-21
-5.44987e-21
-7.22976e-21
-7.44353e-21
-2.16386e-21
1.28498e-21
-3.93164e-21
-2.2981e-21
-6.12542e-23
-9.61812e-22
-4.75242e-22
-1.83124e-21
4.14689e-22
2.3874e-21
5.98144e-22
1.56896e-22
5.173e-22
1.20878e-21
1.40865e-21
-2.98742e-22
-5.72274e-22
-1.88544e-20
-1.85207e-20
-1.80638e-20
-1.44301e-20
-1.45176e-20
-1.59829e-20
-1.44448e-20
-1.38862e-20
-1.17307e-20
-1.2148e-20
-1.15707e-20
-1.20507e-20
-1.15654e-20
-9.06964e-21
-4.76876e-21
-2.98006e-21
-4.33563e-21
-4.07267e-21
-7.55936e-21
-4.75833e-21
-6.75371e-21
-4.46649e-21
-3.30692e-21
-2.46577e-21
1.19347e-21
-3.28195e-21
-9.43814e-22
2.86823e-22
-2.16619e-21
-1.50319e-21
-2.56853e-21
7.53105e-22
2.52988e-21
6.0485e-22
-2.52387e-22
-1.0168e-21
1.40834e-21
2.76409e-21
9.97392e-22
1.57812e-22
-1.88159e-20
-1.79663e-20
-2.1405e-20
-1.57191e-20
-1.30724e-20
-1.55476e-20
-1.43172e-20
-1.19149e-20
-1.40401e-20
-1.66119e-20
-1.05021e-20
-1.10678e-20