/*--------------------------------*- C++ -*----------------------------------*\
| =========                 |                                                 |
| \\      /  F ield         | OpenFOAM: The Open Source CFD Toolbox           |
|  \\    /   O peration     | Version:  v2012                                 |
|   \\  /    A nd           | Website:  www.openfoam.com                      |
|    \\/     M anipulation  |                                                 |
\*---------------------------------------------------------------------------*/
FoamFile
{
    version     2.0;
    format      ascii;
    class       surfaceScalarField;
    location    "14";
    object      phi;
}
// * * * * * * * * * * * * * * * * * * * * * * * * * * * * * * * * * * * * * //

dimensions      [0 3 -1 0 0 0 0];
oriented        oriented;


internalField   nonuniform List<scalar> 
187200
(
1.875e-06
2.11969e-22
1.81128e-22
1.875e-06
2.87901e-22
2.603e-22
1.875e-06
3.1955e-22
3.69267e-22
1.875e-06
2.10525e-22
2.34154e-22
1.875e-06
1.88917e-22
1.03311e-22
1.875e-06
3.14322e-22
2.12585e-22
1.875e-06
1.81118e-22
1.26987e-22
1.875e-06
8.548e-23
4.92854e-23
1.875e-06
1.3017e-22
1.87155e-22
1.875e-06
1.28517e-22
1.80037e-22
1.875e-06
1.4146e-22
1.8704e-22
1.875e-06
1.5055e-22
1.02415e-22
1.875e-06
7.66191e-23
1.14584e-22
1.875e-06
-1.14096e-23
3.91999e-23
1.875e-06
5.99136e-23
1.35129e-22
1.875e-06
9.4612e-23
7.63944e-23
1.875e-06
1.00858e-22
9.31381e-23
1.875e-06
5.00192e-23
8.08489e-23
1.875e-06
9.59091e-23
-1.11859e-22
1.875e-06
1.26798e-22
-9.80069e-23
1.875e-06
-8.1554e-23
-9.67e-23
1.875e-06
-5.05092e-23
-8.25301e-24
1.875e-06
1.39257e-22
4.82384e-23
1.875e-06
2.2084e-22
8.51325e-23
1.875e-06
1.16641e-22
-1.02099e-23
1.875e-06
2.90893e-23
1.53841e-23
1.875e-06
2.83056e-23
1.1127e-22
1.875e-06
6.43753e-23
9.18285e-23
1.875e-06
2.36069e-23
1.20476e-22
1.875e-06
-1.02645e-22
9.29852e-23
1.875e-06
-2.30805e-22
1.46521e-22
1.875e-06
-5.33193e-23
4.39917e-23
1.875e-06
1.54245e-22
7.97511e-23
1.875e-06
3.89662e-23
1.03244e-22
1.875e-06
-2.88226e-23
-1.87267e-23
1.875e-06
-9.89966e-23
-1.51073e-22
1.875e-06
-1.99627e-22
-1.07878e-22
1.875e-06
-7.86595e-23
-5.58573e-23
1.875e-06
6.86121e-23
-1.25071e-23
6.02557e-23
1.28757e-23
1.875e-06
1.00809e-22
1.82884e-22
1.875e-06
6.29377e-23
3.78814e-22
1.875e-06
2.82815e-22
5.30066e-22
1.875e-06
2.42206e-22
5.3355e-22
1.875e-06
1.4978e-22
3.09407e-22
1.875e-06
1.68074e-22
3.13816e-22
1.875e-06
1.89471e-22
3.25782e-22
1.875e-06
2.23037e-22
2.59975e-22
1.875e-06
1.40673e-22
2.73744e-22
1.875e-06
1.20533e-22
3.76112e-22
1.875e-06
9.24498e-23
4.20994e-22
1.875e-06
1.84384e-22
2.02383e-22
1.875e-06
1.03801e-22
2.70426e-22
1.875e-06
6.1071e-23
2.18206e-22
1.875e-06
-1.48366e-23
2.47064e-22
1.875e-06
-6.2547e-23
5.21774e-23
1.875e-06
1.47859e-22
-2.71841e-23
1.875e-06
1.95659e-22
2.0011e-22
1.875e-06
1.36776e-22
-2.18442e-23
1.875e-06
7.33706e-23
-8.5539e-23
1.875e-06
1.97125e-23
8.70044e-24
1.875e-06
-9.04892e-23
1.585e-22
1.875e-06
7.84324e-23
-5.40607e-24
1.875e-06
9.56722e-23
1.1134e-24
1.875e-06
-4.02482e-23
-1.72289e-23
1.875e-06
2.8198e-23
5.02944e-23
1.875e-06
1.00786e-22
7.76413e-23
1.875e-06
2.70567e-23
-2.05165e-24
1.875e-06
-5.23537e-23
1.64609e-22
1.875e-06
-7.5802e-24
7.13054e-23
1.875e-06
-1.30043e-23
1.99567e-22
1.875e-06
2.61208e-24
1.62245e-22
1.875e-06
-5.80989e-23
9.77836e-23
1.875e-06
-1.1505e-22
5.03769e-23
1.875e-06
-1.36221e-22
1.05567e-22
1.875e-06
-2.31564e-22
-2.01566e-22
1.875e-06
-6.73094e-23
-1.27316e-22
1.875e-06
5.36522e-23
-6.14268e-24
1.875e-06
9.63438e-23
4.48776e-23
7.10263e-23
2.02185e-23
1.875e-06
1.07898e-22
2.72861e-22
1.875e-06
2.10446e-22
4.60662e-22
1.875e-06
5.2137e-23
3.96264e-22
1.875e-06
2.10017e-22
5.93677e-22
1.875e-06
2.4765e-22
5.03643e-22
1.875e-06
2.22215e-22
3.36669e-22
1.875e-06
1.41522e-22
4.02477e-22
1.875e-06
1.28898e-22
4.79083e-22
1.875e-06
1.51733e-22
4.94143e-22
1.875e-06
1.45788e-22
4.39751e-22
1.875e-06
1.68514e-22
4.28271e-22
1.875e-06
6.04773e-23
2.22124e-22
1.875e-06
1.45941e-22
2.15767e-22
1.875e-06
4.19173e-23
1.80629e-22
1.875e-06
8.17756e-23
2.65052e-22
1.875e-06
1.18882e-22
2.34854e-22
1.875e-06
9.72853e-25
3.79379e-23
1.875e-06
-1.00239e-23
3.75268e-23
1.875e-06
-1.76199e-25
-1.06082e-22
1.875e-06
-3.81979e-23
-7.87274e-23
1.875e-06
1.85306e-24
1.03793e-22
1.875e-06
1.47887e-22
2.46351e-22
1.875e-06
6.59804e-23
-9.35129e-24
1.875e-06
1.04969e-22
1.82992e-23
1.875e-06
7.5279e-23
1.20092e-22
1.875e-06
4.73574e-23
1.14624e-22
1.875e-06
-1.28998e-23
4.78683e-23
1.875e-06
-7.92093e-23
1.21117e-22
1.875e-06
2.63621e-23
1.41458e-22
1.875e-06
5.56179e-23
1.40674e-22
1.875e-06
-3.53122e-23
2.60382e-22
1.875e-06
-5.87436e-23
1.6586e-22
1.875e-06
-3.68091e-23
9.27752e-24
1.875e-06
-8.0924e-23
3.60871e-23
1.875e-06
-1.62328e-22
1.35147e-22
1.875e-06
-8.65498e-23
-6.0035e-23
1.875e-06
-1.37043e-23
-6.35733e-23
1.875e-06
4.80937e-23
-1.06717e-22
1.875e-06
1.0431e-22
-3.30999e-23
8.19362e-23
-2.15464e-23
1.875e-06
2.59527e-22
2.68579e-22
1.875e-06
1.78656e-22
5.5212e-22
1.875e-06
1.21194e-22
5.66311e-22
1.875e-06
5.66028e-23
5.29362e-22
1.875e-06
1.57405e-22
4.96975e-22
1.875e-06
1.45321e-22
4.62664e-22
1.875e-06
1.63892e-22
5.06055e-22
1.875e-06
1.26096e-22
5.03873e-22
1.875e-06
5.25484e-23
5.14927e-22
1.875e-06
1.57484e-22
4.73999e-22
1.875e-06
1.3827e-22
3.66933e-22
1.875e-06
8.61317e-23
3.18497e-22
1.875e-06
3.49051e-23
2.53984e-22
1.875e-06
6.59295e-23
2.013e-22
1.875e-06
1.64783e-22
2.87864e-22
1.875e-06
2.08895e-22
1.44166e-22
1.875e-06
7.16055e-23
4.12728e-23
1.875e-06
-7.67708e-23
8.87249e-23
1.875e-06
-1.57064e-22
1.45618e-23
1.875e-06
-3.12732e-23
-5.16137e-23
1.875e-06
-4.21255e-23
1.71926e-22
1.875e-06
7.72878e-23
2.41119e-22
1.875e-06
1.77828e-22
1.28533e-22
1.875e-06
1.03425e-22
9.0048e-23
1.875e-06
3.11663e-23
1.43915e-22
1.875e-06
-1.12428e-23
9.39602e-23
1.875e-06
-1.82381e-23
7.75961e-23
1.875e-06
3.51577e-23
5.19426e-23
1.875e-06
5.60935e-23
1.49513e-22
1.875e-06
-3.83221e-23
1.94183e-22
1.875e-06
6.35843e-23
2.27801e-22
1.875e-06
-2.20777e-23
1.7276e-22
1.875e-06
-1.20197e-22
5.55743e-24
1.875e-06
-7.87659e-23
4.51739e-23
1.875e-06
5.55293e-23
1.06994e-22
1.875e-06
1.63856e-24
-2.37126e-24
1.875e-06
4.28251e-23
1.55376e-23
1.875e-06
-4.1994e-23
1.49108e-24
1.875e-06
6.29957e-24
-5.97355e-23
9.71183e-23
-7.24953e-24
1.875e-06
-6.29927e-23
2.07628e-22
1.875e-06
1.09577e-22
5.40093e-22
1.875e-06
6.27528e-23
5.93322e-22
1.875e-06
1.33754e-22
5.52257e-22
1.875e-06
1.08334e-22
6.04377e-22
1.875e-06
8.6072e-23
5.23029e-22
1.875e-06
1.42847e-22
5.31206e-22
1.875e-06
2.8859e-22
5.51295e-22
1.875e-06
2.40644e-22
5.80864e-22
1.875e-06
1.03177e-22
5.1787e-22
1.875e-06
9.65899e-23
4.44234e-22
1.875e-06
9.23057e-23
3.66031e-22
1.875e-06
4.36827e-23
3.0918e-22
1.875e-06
1.42129e-22
3.27955e-22
1.875e-06
5.10805e-23
2.32122e-22
1.875e-06
-8.28241e-24
5.48234e-23
1.875e-06
4.24858e-23
1.40887e-22
1.875e-06
-1.76334e-22
1.38603e-22
1.875e-06
-1.68788e-22
5.9676e-23
1.875e-06
-4.3364e-23
-9.68663e-24
1.875e-06
5.31521e-26
2.17274e-22
1.875e-06
8.21743e-23
1.6248e-22
1.875e-06
9.79868e-23
6.22552e-23
1.875e-06
1.19847e-22
1.14967e-22
1.875e-06
6.09809e-23
2.3184e-22
1.875e-06
1.80631e-23
1.61226e-22
1.875e-06
6.82075e-23
1.25728e-22
1.875e-06
-8.67543e-24
1.15278e-22
1.875e-06
-8.32308e-23
6.98767e-23
1.875e-06
4.23492e-23
1.28504e-22
1.875e-06
1.45298e-22
2.03193e-22
1.875e-06
1.43219e-22
1.85969e-22
1.875e-06
4.46323e-23
-3.58875e-23
1.875e-06
-4.20436e-23
-2.03249e-23
1.875e-06
-6.24249e-23
1.66474e-23
1.875e-06
-1.92513e-23
-2.43533e-23
1.875e-06
-1.54773e-23
-6.44146e-23
1.875e-06
7.13748e-23
6.7763e-23
1.875e-06
5.70999e-24
1.76785e-23
-6.3331e-23
-4.16311e-23
1.875e-06
4.25933e-23
2.9014e-22
1.875e-06
1.25261e-22
5.24941e-22
1.875e-06
8.67335e-23
5.94725e-22
1.875e-06
6.95713e-23
5.41937e-22
1.875e-06
6.71148e-23
6.37558e-22
1.875e-06
1.08187e-22
5.52612e-22
1.875e-06
8.96981e-23
5.91054e-22
1.875e-06
1.5776e-22
5.93557e-22
1.875e-06
1.77892e-22
5.73613e-22
1.875e-06
9.02056e-23
5.15493e-22
1.875e-06
1.19688e-22
5.23176e-22
1.875e-06
8.93268e-23
4.85804e-22
1.875e-06
9.03584e-23
3.99342e-22
1.875e-06
1.18077e-22
2.22609e-22
1.875e-06
6.30042e-23
2.36942e-22
1.875e-06
-3.81912e-23
1.90273e-22
1.875e-06
-1.70677e-22
1.44952e-22
1.875e-06
-5.59328e-23
2.97458e-22
1.875e-06
-9.4233e-23
1.53546e-22
1.875e-06
-7.60245e-23
5.94012e-23
1.875e-06
1.50496e-22
2.60385e-22
1.875e-06
1.7981e-22
2.31137e-22
1.875e-06
1.53521e-22
4.17226e-23
1.875e-06
1.12109e-22
3.26554e-23
1.875e-06
2.15448e-23
2.09462e-22
1.875e-06
7.33323e-23
1.83358e-22
1.875e-06
-2.11466e-25
6.45987e-23
1.875e-06
-7.98821e-23
1.08278e-22
1.875e-06
-8.72501e-23
1.82743e-22
1.875e-06
-3.15809e-23
1.21092e-22
1.875e-06
1.03887e-22
2.02735e-22
1.875e-06
1.19255e-22
-1.05807e-23
1.875e-06
-5.41019e-23
-2.31182e-22
1.875e-06
1.20407e-22
9.62744e-24
1.875e-06
6.7279e-23
5.54492e-23
1.875e-06
-1.27274e-23
-3.27223e-23
1.875e-06
-3.33067e-23
-1.44042e-23
1.875e-06
5.1181e-23
-4.17718e-23
1.875e-06
1.66698e-22
-1.19238e-22
6.43877e-23
-1.15655e-22
1.875e-06
-2.98275e-23
3.53125e-22
1.875e-06
-6.8465e-24
5.88587e-22
1.875e-06
1.90947e-22
6.8381e-22
1.875e-06
7.17762e-23
6.34234e-22
1.875e-06
1.33023e-22
7.16149e-22
1.875e-06
2.61122e-23
6.1305e-22
1.875e-06
9.931e-23
6.77875e-22
1.875e-06
2.24027e-22
5.92668e-22
1.875e-06
1.80799e-22
6.14904e-22
1.875e-06
1.38963e-22
5.96056e-22
1.875e-06
7.90106e-23
5.18121e-22
1.875e-06
8.91015e-23
4.40931e-22
1.875e-06
1.37607e-22
3.63993e-22
1.875e-06
9.87749e-23
3.47779e-22
1.875e-06
3.17793e-23
2.98455e-22
1.875e-06
5.86274e-24
2.08642e-22
1.875e-06
-5.54839e-23
1.1866e-22
1.875e-06
4.30838e-23
2.57906e-22
1.875e-06
2.9652e-23
2.73555e-22
1.875e-06
3.69628e-23
2.00028e-22
1.875e-06
1.05223e-22
2.18628e-22
1.875e-06
9.09853e-23
4.66557e-23
1.875e-06
-2.09504e-23
-3.75986e-23
1.875e-06
-9.08761e-23
1.11453e-22
1.875e-06
7.36772e-23
2.40665e-22
1.875e-06
9.3848e-23
1.13916e-22
1.875e-06
1.74698e-23
8.09005e-23
1.875e-06
-4.40815e-23
1.39397e-22
1.875e-06
-7.07908e-23
1.81254e-22
1.875e-06
-2.30358e-23
1.54237e-22
1.875e-06
4.61783e-24
9.0422e-23
1.875e-06
-9.8076e-24
-8.89143e-23
1.875e-06
1.61908e-22
-7.6283e-23
1.875e-06
1.43545e-22
3.60945e-23
1.875e-06
8.75683e-23
6.84084e-23
1.875e-06
-2.82162e-23
-1.73875e-23
1.875e-06
1.29085e-23
-1.11199e-22
1.875e-06
5.73047e-23
-1.52205e-22
1.875e-06
-1.04822e-22
-2.26955e-22
-9.15022e-23
-1.54553e-22
1.875e-06
2.13319e-22
3.06502e-22
1.875e-06
1.41865e-22
5.69926e-22
1.875e-06
1.64215e-22
6.1944e-22
1.875e-06
1.40402e-22
7.6918e-22
1.875e-06
3.29071e-23
7.13492e-22
1.875e-06
1.33914e-22
6.88386e-22
1.875e-06
1.75419e-22
7.70869e-22
1.875e-06
-1.2192e-23
5.92989e-22
1.875e-06
8.30578e-23
6.08302e-22
1.875e-06
1.90812e-22
6.34105e-22
1.875e-06
9.64702e-23
4.18916e-22
1.875e-06
8.46416e-23
4.46201e-22
1.875e-06
-5.13453e-23
3.38468e-22
1.875e-06
7.54216e-23
2.36676e-22
1.875e-06
9.96906e-23
3.22426e-22
1.875e-06
5.01532e-23
2.33045e-22
1.875e-06
8.15699e-23
2.40989e-22
1.875e-06
6.27208e-23
1.97707e-22
1.875e-06
1.78331e-22
2.39667e-22
1.875e-06
1.07413e-22
2.0477e-22
1.875e-06
4.79949e-23
1.77947e-22
1.875e-06
3.02452e-23
1.50024e-22
1.875e-06
-1.57777e-23
9.73294e-23
1.875e-06
-1.52804e-24
1.8969e-22
1.875e-06
3.5422e-23
1.8303e-22
1.875e-06
-4.24999e-23
1.27631e-23
1.875e-06
3.72676e-23
2.46074e-23
1.875e-06
1.36224e-23
1.4909e-22
1.875e-06
-5.38333e-23
2.26964e-22
1.875e-06
-5.60932e-23
1.98128e-22
1.875e-06
-1.90476e-22
1.37529e-22
1.875e-06
-6.80916e-23
-5.07876e-23
1.875e-06
1.83256e-22
-2.51995e-23
1.875e-06
1.69654e-22
1.05295e-22
1.875e-06
1.66261e-22
-1.56073e-23
1.875e-06
1.94902e-23
-1.47851e-22
1.875e-06
-2.01425e-23
-3.04437e-22
1.875e-06
-1.76473e-22
-2.75026e-22
1.875e-06
-1.37033e-22
-3.12698e-23
-5.2018e-23
-5.54476e-23
1.875e-06
-2.08593e-22
1.39997e-22
1.875e-06
-2.63113e-23
5.0332e-22
1.875e-06
2.90511e-23
6.76111e-22
1.875e-06
1.24083e-22
7.83503e-22
1.875e-06
1.94721e-22
7.86237e-22
1.875e-06
1.48378e-22
7.30661e-22
1.875e-06
1.35511e-22
7.79101e-22
1.875e-06
1.40026e-22
6.58204e-22
1.875e-06
5.78201e-23
5.93736e-22
1.875e-06
1.80038e-23
5.57666e-22
1.875e-06
7.63045e-23
4.36707e-22
1.875e-06
-5.71907e-23
4.2627e-22
1.875e-06
2.10056e-24
3.95045e-22
1.875e-06
-2.82298e-24
2.7719e-22
1.875e-06
7.81961e-23
3.44437e-22
1.875e-06
1.10526e-22
2.97009e-22
1.875e-06
2.13173e-22
2.71965e-22
1.875e-06
1.19692e-22
2.14504e-22
1.875e-06
-4.15055e-23
2.41916e-22
1.875e-06
2.81899e-23
2.13307e-22
1.875e-06
9.01743e-23
2.35952e-22
1.875e-06
-5.94418e-24
1.70591e-22
1.875e-06
5.53864e-23
1.68443e-22
1.875e-06
7.72205e-23
2.14243e-22
1.875e-06
2.62793e-23
2.38422e-22
1.875e-06
-9.1533e-24
5.80185e-23
1.875e-06
-8.57928e-23
-2.3874e-23
1.875e-06
2.13943e-24
8.70363e-23
1.875e-06
8.97993e-23
1.49369e-22
1.875e-06
1.7057e-24
9.24619e-23
1.875e-06
-6.09925e-23
1.78605e-22
1.875e-06
-7.49653e-23
7.48429e-23
1.875e-06
-1.55108e-22
-1.38442e-23
1.875e-06
-7.11712e-23
-9.30585e-23
1.875e-06
2.31819e-23
-1.89319e-22
1.875e-06
2.59703e-22
-1.89802e-22
1.875e-06
3.24264e-23
-2.41021e-22
1.875e-06
-1.04578e-22
-2.01613e-22
1.875e-06
-1.04925e-22
-1.04676e-22
-4.19893e-23
-5.16739e-23
1.875e-06
-1.47808e-23
4.45609e-22
1.875e-06
6.55568e-23
6.06294e-22
1.875e-06
1.23705e-22
7.70304e-22
1.875e-06
2.05879e-22
9.02916e-22
1.875e-06
3.83548e-23
7.53598e-22
1.875e-06
6.1071e-23
7.09916e-22
1.875e-06
1.88346e-22
8.37981e-22
1.875e-06
1.39976e-22
7.27414e-22
1.875e-06
7.64711e-23
5.54613e-22
1.875e-06
1.56576e-22
5.20728e-22
1.875e-06
5.52683e-23
4.48969e-22
1.875e-06
-4.46097e-23
4.78986e-22
1.875e-06
-2.17523e-24
4.26336e-22
1.875e-06
-3.64768e-23
3.6856e-22
1.875e-06
1.56719e-24
3.58535e-22
1.875e-06
9.52249e-23
3.12195e-22
1.875e-06
9.00833e-23
1.98834e-22
1.875e-06
4.41981e-23
2.69847e-22
1.875e-06
-4.54646e-23
3.04378e-22
1.875e-06
-1.44164e-23
1.69885e-22
1.875e-06
1.25026e-22
2.4303e-22
1.875e-06
2.16671e-22
3.09505e-22
1.875e-06
-1.40387e-23
1.58427e-22
1.875e-06
1.69197e-23
2.78591e-22
1.875e-06
3.85072e-23
3.53603e-22
1.875e-06
1.59262e-24
1.31353e-22
1.875e-06
-8.39451e-23
-5.71832e-23
1.875e-06
-5.51497e-23
7.32525e-23
1.875e-06
3.83131e-23
5.40943e-23
1.875e-06
3.47827e-23
1.15137e-22
1.875e-06
6.60594e-23
6.03447e-23
1.875e-06
-2.44463e-23
3.76452e-23
1.875e-06
-1.62088e-22
7.29282e-23
1.875e-06
-1.6673e-22
-4.47427e-23
1.875e-06
-6.76463e-23
-1.61674e-22
1.875e-06
1.75674e-22
-3.04862e-22
1.875e-06
1.57014e-22
-2.73864e-22
1.875e-06
-6.71753e-23
-2.37652e-22
1.875e-06
-9.81267e-23
-2.4261e-22
-1.04174e-22
-1.49649e-22
1.875e-06
1.19891e-22
5.40649e-22
1.875e-06
1.35169e-22
7.20703e-22
1.875e-06
1.27702e-22
8.79189e-22
1.875e-06
8.66753e-23
8.34104e-22
1.875e-06
1.44504e-22
8.45316e-22
1.875e-06
2.04003e-22
7.38886e-22
1.875e-06
7.99271e-23
7.82287e-22
1.875e-06
1.50075e-22
7.89747e-22
1.875e-06
1.73552e-23
5.31429e-22
1.875e-06
4.37703e-23
4.20596e-22
1.875e-06
1.57075e-22
4.70198e-22
1.875e-06
6.42019e-23
6.34765e-22
1.875e-06
5.25787e-23
4.2735e-22
1.875e-06
9.16868e-23
4.1369e-22
1.875e-06
6.37385e-24
4.67433e-22
1.875e-06
-2.44565e-23
4.15087e-22
1.875e-06
3.03853e-24
3.06649e-22
1.875e-06
-1.39762e-23
3.06601e-22
1.875e-06
7.71167e-23
2.61667e-22
1.875e-06
1.46119e-22
2.45197e-22
1.875e-06
4.91894e-23
1.97688e-22
1.875e-06
8.77747e-24
1.25993e-22
1.875e-06
4.25337e-24
2.0602e-22
1.875e-06
-1.97827e-23
3.39456e-22
1.875e-06
2.67947e-23
2.29805e-22
1.875e-06
-1.04805e-22
6.25856e-23
1.875e-06
-1.06916e-22
6.15479e-23
1.875e-06
3.36494e-23
6.30754e-23
1.875e-06
1.21644e-22
-6.92992e-23
1.875e-06
-2.5074e-23
8.45051e-23
1.875e-06
-5.64774e-23
2.4169e-23
1.875e-06
-5.1131e-23
2.95377e-23
1.875e-06
-8.85087e-23
5.1072e-23
1.875e-06
-1.7184e-22
3.15916e-23
1.875e-06
5.07009e-25
-1.32007e-22
1.875e-06
-1.1867e-22
-3.11283e-22
1.875e-06
-2.29281e-23
-3.55648e-22
1.875e-06
1.13222e-22
-2.52363e-22
1.875e-06
3.25255e-23
-7.72398e-23
4.26025e-23
-6.7354e-24
1.875e-06
1.24914e-22
5.54521e-22
1.875e-06
1.37368e-22
7.68277e-22
1.875e-06
3.23438e-23
8.45726e-22
1.875e-06
4.17486e-23
8.50844e-22
1.875e-06
1.44143e-22
8.09486e-22
1.875e-06
1.25509e-22
7.95558e-22
1.875e-06
1.85313e-22
7.86946e-22
1.875e-06
2.25165e-23
6.02556e-22
1.875e-06
8.78695e-23
6.00658e-22
1.875e-06
7.98651e-23
5.58259e-22
1.875e-06
1.91878e-23
4.12722e-22
1.875e-06
2.16086e-23
5.4752e-22
1.875e-06
1.07097e-22
5.52312e-22
1.875e-06
1.21862e-22
4.22569e-22
1.875e-06
4.73675e-23
5.15534e-22
1.875e-06
-2.58854e-23
4.60679e-22
1.875e-06
-7.1596e-23
4.08912e-22
1.875e-06
2.97951e-23
3.56749e-22
1.875e-06
1.35848e-22
2.19202e-22
1.875e-06
1.03803e-22
1.90556e-22
1.875e-06
2.5109e-23
2.03257e-22
1.875e-06
-8.57782e-23
1.8604e-22
1.875e-06
-2.67908e-23
2.0092e-22
1.875e-06
-4.12242e-23
2.45477e-22
1.875e-06
-1.51384e-22
7.76979e-23
1.875e-06
-6.93683e-23
2.01644e-22
1.875e-06
-1.45171e-23
1.83836e-22
1.875e-06
5.69818e-23
7.12983e-23
1.875e-06
-7.68777e-23
-1.61688e-22
1.875e-06
-2.68413e-23
4.40547e-23
1.875e-06
3.37247e-23
8.76941e-23
1.875e-06
-5.00507e-23
2.5379e-23
1.875e-06
-4.47731e-23
8.8241e-25
1.875e-06
-2.23608e-23
-5.35866e-24
1.875e-06
-1.48356e-22
-1.35344e-22
1.875e-06
-1.43907e-22
-2.89841e-22
1.875e-06
6.84244e-23
-3.67824e-22
1.875e-06
1.83898e-22
-2.39945e-22
1.875e-06
1.26755e-22
-3.26777e-23
4.11025e-23
-1.35627e-22
1.875e-06
2.00666e-22
5.46817e-22
1.875e-06
1.7442e-22
7.60756e-22
1.875e-06
1.53318e-22
8.19131e-22
1.875e-06
1.12324e-22
8.87653e-22
1.875e-06
-6.46287e-23
8.39883e-22
1.875e-06
-6.2227e-23
8.17962e-22
1.875e-06
-3.70862e-23
6.86351e-22
1.875e-06
1.55065e-23
6.59132e-22
1.875e-06
1.71171e-22
6.88591e-22
1.875e-06
1.74022e-22
5.40628e-22
1.875e-06
2.21262e-23
3.87536e-22
1.875e-06
7.08026e-23
5.40537e-22
1.875e-06
1.33995e-22
4.9855e-22
1.875e-06
1.26542e-22
3.67767e-22
1.875e-06
3.39572e-23
5.66604e-22
1.875e-06
-2.1984e-23
5.04483e-22
1.875e-06
-6.70641e-23
3.86915e-22
1.875e-06
-5.63646e-23
3.43465e-22
1.875e-06
1.27007e-23
2.41449e-22
1.875e-06
5.35677e-23
2.07132e-22
1.875e-06
1.02434e-22
2.52454e-22
1.875e-06
6.77247e-23
1.85916e-22
1.875e-06
-4.29951e-24
2.15322e-22
1.875e-06
3.18527e-24
1.93153e-22
1.875e-06
-9.21676e-23
2.22967e-22
1.875e-06
-6.34089e-23
1.53339e-22
1.875e-06
-4.22011e-23
1.1224e-22
1.875e-06
5.34358e-24
-5.56642e-23
1.875e-06
-3.56404e-23
-5.51328e-23
1.875e-06
-1.32588e-22
1.56993e-23
1.875e-06
-8.79025e-23
-3.98181e-23
1.875e-06
-2.62666e-23
-3.85275e-23
1.875e-06
9.42909e-23
-1.02966e-22
1.875e-06
-1.91581e-23
3.08191e-23
1.875e-06
-1.18538e-22
5.44061e-23
1.875e-06
1.65165e-23
-2.06796e-22
1.875e-06
-8.30677e-24
-3.27946e-22
1.875e-06
7.33966e-23
-2.35564e-22
1.875e-06
1.34051e-22
-8.19589e-23
1.17832e-22
-1.59586e-22
1.875e-06
-1.41776e-22
4.92816e-22
1.875e-06
6.04376e-23
7.52833e-22
1.875e-06
1.20679e-22
7.72603e-22
1.875e-06
8.84511e-24
8.87481e-22
1.875e-06
-5.2939e-23
9.0274e-22
1.875e-06
-4.24613e-23
8.18333e-22
1.875e-06
6.88645e-23
7.50825e-22
1.875e-06
1.81409e-22
6.95924e-22
1.875e-06
7.58037e-23
6.19028e-22
1.875e-06
4.22998e-24
4.84959e-22
1.875e-06
1.30136e-23
5.58719e-22
1.875e-06
2.66517e-22
5.74001e-22
1.875e-06
1.08185e-22
4.91905e-22
1.875e-06
-1.26244e-22
4.12244e-22
1.875e-06
-1.24678e-22
5.25379e-22
1.875e-06
-6.44256e-23
5.69666e-22
1.875e-06
-6.01494e-24
4.90395e-22
1.875e-06
1.38404e-22
4.10827e-22
1.875e-06
1.00224e-22
2.61692e-22
1.875e-06
1.98456e-23
1.62874e-22
1.875e-06
1.38094e-22
1.95645e-22
1.875e-06
-2.31243e-24
2.11133e-22
1.875e-06
-6.24667e-23
1.62969e-22
1.875e-06
-1.22437e-22
1.30409e-22
1.875e-06
-1.75764e-22
2.70154e-22
1.875e-06
-6.6709e-24
1.22864e-22
1.875e-06
2.03031e-22
7.38546e-23
1.875e-06
-1.80636e-23
-1.21974e-22
1.875e-06
-9.7323e-23
-1.2336e-22
1.875e-06
4.51284e-23
1.11762e-22
1.875e-06
1.21169e-23
2.86136e-23
1.875e-06
-2.62941e-23
-3.7187e-23
1.875e-06
-4.38433e-23
-1.31161e-22
1.875e-06
-6.69196e-24
-1.00364e-22
1.875e-06
-9.76923e-24
-6.32777e-23
1.875e-06
1.6153e-23
-1.59781e-22
1.875e-06
1.33989e-22
-2.52773e-22
1.875e-06
1.20224e-22
-2.09592e-22
1.875e-06
9.95907e-23
-6.59435e-23
6.7998e-23
-2.48421e-22
1.875e-06
-1.77759e-23
7.52473e-22
1.875e-06
-1.80747e-22
7.59394e-22
1.875e-06
-6.55197e-24
7.45797e-22
1.875e-06
1.28216e-23
8.2256e-22
1.875e-06
9.30746e-23
8.89419e-22
1.875e-06
-6.92801e-24
7.98921e-22
1.875e-06
-4.39053e-24
7.66424e-22
1.875e-06
6.89725e-23
6.63026e-22
1.875e-06
2.02903e-23
6.00055e-22
1.875e-06
-9.71964e-23
6.17375e-22
1.875e-06
1.08582e-22
6.49799e-22
1.875e-06
6.09749e-23
4.75644e-22
1.875e-06
5.72672e-24
5.20064e-22
1.875e-06
-3.15962e-23
5.53655e-22
1.875e-06
-2.91641e-25
5.42812e-22
1.875e-06
-2.72344e-23
5.41141e-22
1.875e-06
-2.993e-23
3.45066e-22
1.875e-06
3.33179e-23
2.80155e-22
1.875e-06
3.23005e-23
3.14265e-22
1.875e-06
1.32937e-22
2.60448e-22
1.875e-06
5.66967e-23
1.42992e-22
1.875e-06
5.6707e-23
2.7845e-22
1.875e-06
-6.11903e-23
3.08394e-22
1.875e-06
-2.11406e-22
1.21879e-22
1.875e-06
-7.19732e-23
2.47774e-22
1.875e-06
1.57714e-23
1.29955e-22
1.875e-06
2.3111e-23
-5.1928e-23
1.875e-06
-1.01179e-22
-9.90606e-23
1.875e-06
-9.18932e-23
-1.29464e-22
1.875e-06
2.1144e-24
1.06984e-23
1.875e-06
2.00482e-22
2.67991e-23
1.875e-06
1.24305e-22
-5.63957e-23
1.875e-06
-9.54385e-23
-1.62893e-22
1.875e-06
-5.99125e-23
-1.16455e-22
1.875e-06
-3.72205e-23
-3.62936e-23
1.875e-06
3.24118e-23
-7.41238e-23
1.875e-06
7.22599e-23
-1.81835e-22
1.875e-06
1.35025e-22
-2.41241e-22
1.875e-06
1.19554e-22
-2.05431e-22
1.45592e-22
-2.67218e-22
1.875e-06
-4.72233e-23
5.88682e-22
1.875e-06
-1.40592e-22
8.35303e-22
1.875e-06
-8.85297e-23
8.79828e-22
1.875e-06
-4.71825e-23
8.57566e-22
1.875e-06
-6.74906e-23
8.34739e-22
1.875e-06
4.12123e-23
8.87232e-22
1.875e-06
2.10068e-23
7.95789e-22
1.875e-06
3.94337e-23
7.21483e-22
1.875e-06
4.93821e-24
6.75706e-22
1.875e-06
2.26755e-23
6.61484e-22
1.875e-06
-3.01639e-24
6.30662e-22
1.875e-06
3.66854e-23
5.69484e-22
1.875e-06
-8.19491e-23
6.8613e-22
1.875e-06
2.59734e-23
5.60047e-22
1.875e-06
-6.96972e-24
4.24217e-22
1.875e-06
-6.86407e-23
4.22707e-22
1.875e-06
1.58245e-23
3.56321e-22
1.875e-06
-4.96387e-23
3.21075e-22
1.875e-06
5.19525e-23
3.13382e-22
1.875e-06
1.04991e-22
2.36923e-22
1.875e-06
6.54277e-23
1.47767e-22
1.875e-06
1.68802e-23
2.93086e-22
1.875e-06
-2.6487e-23
3.12852e-22
1.875e-06
-1.29544e-22
1.95751e-22
1.875e-06
-9.03673e-23
1.11787e-22
1.875e-06
-1.16015e-22
1.34616e-22
1.875e-06
-1.04351e-22
-6.0995e-23
1.875e-06
-1.0964e-22
-8.0862e-23
1.875e-06
-7.29537e-23
1.44568e-24
1.875e-06
9.38464e-23
4.67909e-24
1.875e-06
7.39387e-23
-2.13658e-22
1.875e-06
1.21598e-22
-1.85459e-22
1.875e-06
1.05407e-22
-1.44768e-22
1.875e-06
5.49151e-23
-3.15422e-23
1.875e-06
2.09352e-23
7.22205e-23
1.875e-06
3.9061e-23
-6.50653e-23
1.875e-06
1.07573e-22
-1.61345e-22
1.875e-06
3.17674e-23
-2.62211e-22
1.875e-06
7.26325e-23
-2.41271e-22
9.72656e-23
-2.63032e-22
1.875e-06
-1.18069e-22
4.76347e-22
1.875e-06
-3.37924e-23
8.36247e-22
1.875e-06
2.19589e-23
8.69751e-22
1.875e-06
-5.17126e-23
9.0413e-22
1.875e-06
-7.73853e-23
9.17967e-22
1.875e-06
-8.65412e-24
9.23144e-22
1.875e-06
3.24438e-23
8.30058e-22
1.875e-06
-7.58246e-23
6.99052e-22
1.875e-06
-1.1911e-23
6.90387e-22
1.875e-06
1.45296e-23
7.18576e-22
1.875e-06
3.60318e-23
6.58021e-22
1.875e-06
2.0467e-24
6.18005e-22
1.875e-06
6.81489e-23
7.86053e-22
1.875e-06
2.20286e-23
6.21979e-22
1.875e-06
-7.41508e-23
4.32973e-22
1.875e-06
-5.10829e-24
2.86602e-22
1.875e-06
6.54125e-23
3.07579e-22
1.875e-06
-3.87007e-23
3.36805e-22
1.875e-06
-4.82942e-23
3.48985e-22
1.875e-06
9.36385e-23
2.43358e-22
1.875e-06
2.98725e-23
2.03365e-22
1.875e-06
4.80084e-23
1.85026e-22
1.875e-06
-7.41443e-23
1.78897e-22
1.875e-06
-3.32161e-23
2.14069e-22
1.875e-06
-9.69701e-23
1.28912e-22
1.875e-06
-2.04852e-24
1.9386e-22
1.875e-06
-7.69108e-23
-3.68639e-23
1.875e-06
-1.61572e-22
-4.4151e-23
1.875e-06
-9.15944e-23
7.36229e-23
1.875e-06
-8.56973e-23
-4.00288e-23
1.875e-06
-9.1723e-23
-1.78691e-22
1.875e-06
9.46281e-23
-2.53011e-22
1.875e-06
7.03579e-23
-1.68659e-22
1.875e-06
8.48699e-23
-8.86603e-23
1.875e-06
1.37195e-22
6.87749e-23
1.875e-06
6.21465e-23
4.45729e-23
1.875e-06
-4.52508e-24
-1.78081e-22
1.875e-06
-5.80215e-23
-3.161e-22
1.875e-06
-1.22513e-22
-3.32925e-22
-6.90946e-23
-3.3248e-22
1.875e-06
-8.2929e-23
5.6498e-22
1.875e-06
-1.64328e-22
8.20589e-22
1.875e-06
-1.91714e-22
9.0101e-22
1.875e-06
1.58844e-23
9.91839e-22
1.875e-06
1.17642e-22
9.57172e-22
1.875e-06
-3.15254e-23
8.90931e-22
1.875e-06
-1.11951e-22
7.76317e-22
1.875e-06
-1.08454e-22
7.14992e-22
1.875e-06
-2.00848e-23
7.88668e-22
1.875e-06
3.09035e-23
8.51365e-22
1.875e-06
-5.06338e-24
6.36585e-22
1.875e-06
2.51892e-23
6.23921e-22
1.875e-06
5.21515e-23
7.35562e-22
1.875e-06
3.04962e-23
6.52478e-22
1.875e-06
6.3256e-23
5.6869e-22
1.875e-06
4.4696e-23
3.42746e-22
1.875e-06
-2.26428e-23
2.60983e-22
1.875e-06
2.25288e-22
2.9701e-22
1.875e-06
2.28238e-22
2.27044e-22
1.875e-06
-5.42829e-23
1.13928e-22
1.875e-06
-1.78308e-22
1.47118e-22
1.875e-06
-1.8881e-22
1.96186e-22
1.875e-06
6.92324e-24
2.57784e-22
1.875e-06
-1.79554e-23
2.15235e-22
1.875e-06
-6.28232e-24
1.83032e-22
1.875e-06
-1.22319e-22
6.50363e-23
1.875e-06
-1.12217e-22
2.8657e-23
1.875e-06
-1.30919e-22
5.45872e-24
1.875e-06
-6.91151e-23
1.17485e-22
1.875e-06
5.00711e-25
2.74833e-23
1.875e-06
7.52653e-23
-1.08066e-22
1.875e-06
-6.61073e-23
-2.24017e-22
1.875e-06
8.03829e-23
-1.5857e-22
1.875e-06
1.32105e-22
-3.53136e-23
1.875e-06
1.49004e-22
2.21706e-23
1.875e-06
5.26424e-23
-1.07377e-23
1.875e-06
-4.11447e-23
-1.086e-22
1.875e-06
-6.7025e-23
-2.82627e-22
1.875e-06
2.12462e-23
-2.61083e-22
7.82766e-23
-2.97678e-22
1.875e-06
-5.77431e-23
6.20151e-22
1.875e-06
-8.23645e-23
9.41989e-22
1.875e-06
-7.15078e-23
9.64427e-22
1.875e-06
-1.93881e-23
1.01499e-21
1.875e-06
1.90434e-23
9.01711e-22
1.875e-06
-8.96458e-23
8.75145e-22
1.875e-06
-1.97309e-22
8.12696e-22
1.875e-06
-3.39531e-23
7.90499e-22
1.875e-06
1.30997e-23
8.17136e-22
1.875e-06
8.54496e-24
8.45233e-22
1.875e-06
5.37499e-24
7.36197e-22
1.875e-06
6.6972e-23
6.70404e-22
1.875e-06
3.46932e-24
7.78488e-22
1.875e-06
-1.15149e-23
6.99768e-22
1.875e-06
1.2507e-22
4.80502e-22
1.875e-06
5.9982e-23
3.96992e-22
1.875e-06
-5.35038e-23
3.20237e-22
1.875e-06
-1.00327e-22
1.0391e-22
1.875e-06
6.18871e-23
3.1272e-23
1.875e-06
-1.33155e-23
6.38289e-23
1.875e-06
-2.11325e-23
2.44905e-22
1.875e-06
-2.03624e-24
3.09644e-22
1.875e-06
-4.32088e-23
2.8645e-22
1.875e-06
-4.74404e-23
2.25183e-22
1.875e-06
2.19852e-23
1.01386e-22
1.875e-06
-1.34275e-23
5.86075e-23
1.875e-06
1.0147e-22
1.23895e-22
1.875e-06
4.62624e-23
1.35682e-22
1.875e-06
-5.46344e-24
1.2911e-22
1.875e-06
7.6119e-24
-5.27159e-24
1.875e-06
-1.45722e-22
-1.05417e-22
1.875e-06
-1.2164e-22
-9.39426e-23
1.875e-06
-4.73917e-23
-2.00798e-22
1.875e-06
6.26524e-23
-4.62505e-23
1.875e-06
8.15073e-23
2.04001e-23
1.875e-06
7.56609e-23
-1.13573e-22
1.875e-06
5.12474e-23
-4.74243e-23
1.875e-06
-3.38959e-23
-1.48336e-22
1.875e-06
-5.49513e-23
-3.8033e-22
-1.2763e-22
-4.04023e-22
1.875e-06
9.18822e-23
7.01503e-22
1.875e-06
1.05523e-22
9.73185e-22
1.875e-06
-6.36964e-23
8.89659e-22
1.875e-06
-1.5374e-22
9.67686e-22
1.875e-06
-2.18227e-23
9.38356e-22
1.875e-06
-2.99562e-23
9.38445e-22
1.875e-06
-7.17448e-23
9.07987e-22
1.875e-06
-1.41304e-22
7.34693e-22
1.875e-06
-1.18947e-22
7.4552e-22
1.875e-06
7.56843e-23
8.93111e-22
1.875e-06
-9.11828e-23
7.08642e-22
1.875e-06
3.6004e-22
6.9536e-22
1.875e-06
2.33479e-23
7.53056e-22
1.875e-06
1.59035e-23
6.28994e-22
1.875e-06
9.1747e-24
5.76308e-22
1.875e-06
-5.02093e-23
3.90294e-22
1.875e-06
-2.1731e-23
2.31842e-22
1.875e-06
-9.80358e-23
1.11953e-22
1.875e-06
-1.35895e-22
1.14619e-22
1.875e-06
-5.47892e-23
1.48474e-22
1.875e-06
-7.49704e-23
1.42839e-22
1.875e-06
-6.92781e-23
2.97085e-22
1.875e-06
-5.69707e-23
4.20612e-22
1.875e-06
9.96686e-23
1.82195e-22
1.875e-06
2.00377e-22
1.70421e-22
1.875e-06
1.27649e-22
1.19763e-22
1.875e-06
-9.17004e-23
1.48528e-23
1.875e-06
2.14166e-23
6.14691e-23
1.875e-06
-1.88441e-22
3.97414e-23
1.875e-06
8.00224e-23
-9.70157e-23
1.875e-06
-9.20097e-23
-4.65599e-23
1.875e-06
-6.12584e-23
4.17389e-23
1.875e-06
1.33187e-22
-7.63235e-23
1.875e-06
-6.6139e-23
-6.36609e-23
1.875e-06
-1.34796e-23
-5.30729e-23
1.875e-06
4.9715e-23
1.3212e-24
1.875e-06
1.93808e-23
-9.99467e-23
1.875e-06
8.13943e-23
-1.85379e-22
1.875e-06
-9.64143e-23
-4.6183e-22
-9.60603e-23
-4.16342e-22
1.875e-06
1.15727e-22
6.10754e-22
1.875e-06
1.10319e-22
8.44175e-22
1.875e-06
-5.22667e-23
8.95512e-22
1.875e-06
-3.40782e-23
9.81028e-22
1.875e-06
-1.00341e-22
9.84288e-22
1.875e-06
-1.45426e-23
9.16147e-22
1.875e-06
5.9797e-23
9.25988e-22
1.875e-06
-2.28282e-23
7.71855e-22
1.875e-06
-4.54869e-23
7.90377e-22
1.875e-06
7.56965e-24
8.83931e-22
1.875e-06
-1.58747e-23
7.5305e-22
1.875e-06
-4.3752e-23
7.71424e-22
1.875e-06
-2.07636e-23
7.26309e-22
1.875e-06
1.58062e-22
6.11682e-22
1.875e-06
5.85522e-24
5.01892e-22
1.875e-06
-6.3986e-23
3.61823e-22
1.875e-06
-1.097e-22
1.51202e-22
1.875e-06
-9.79623e-23
1.56528e-22
1.875e-06
-1.38139e-22
1.81341e-22
1.875e-06
-6.89575e-23
1.34824e-22
1.875e-06
-3.63161e-23
2.07365e-22
1.875e-06
-8.72975e-23
2.45982e-22
1.875e-06
-3.67043e-24
3.74743e-22
1.875e-06
4.42234e-23
2.7519e-22
1.875e-06
2.81117e-23
1.02371e-22
1.875e-06
1.04545e-22
1.3639e-22
1.875e-06
9.03314e-23
5.20943e-23
1.875e-06
1.00944e-22
-2.55288e-23
1.875e-06
1.37867e-23
3.50036e-23
1.875e-06
-8.37761e-23
-1.17514e-22
1.875e-06
4.27793e-23
-1.80217e-23
1.875e-06
8.07832e-23
1.92537e-23
1.875e-06
-1.69482e-23
-1.63777e-22
1.875e-06
6.78407e-24
3.01116e-23
1.875e-06
5.34955e-23
-5.37265e-23
1.875e-06
9.63573e-23
-2.39004e-23
1.875e-06
-4.89179e-23
-6.57493e-23
1.875e-06
-3.6496e-23
-2.51702e-22
1.875e-06
-1.84398e-22
-4.67098e-22
-2.56668e-22
-4.03142e-22
1.875e-06
7.45946e-23
6.2951e-22
1.875e-06
2.57006e-23
8.59581e-22
1.875e-06
-1.97931e-23
8.52693e-22
1.875e-06
-1.36711e-22
9.55361e-22
1.875e-06
-7.11522e-23
9.96955e-22
1.875e-06
8.82439e-23
9.88287e-22
1.875e-06
-3.10107e-23
8.74572e-22
1.875e-06
-4.12575e-23
7.38209e-22
1.875e-06
2.91991e-23
8.71381e-22
1.875e-06
5.42503e-24
8.46526e-22
1.875e-06
-5.93505e-23
7.79126e-22
1.875e-06
7.63109e-24
7.00998e-22
1.875e-06