/*--------------------------------*- C++ -*----------------------------------*\
| =========                 |                                                 |
| \\      /  F ield         | OpenFOAM: The Open Source CFD Toolbox           |
|  \\    /   O peration     | Version:  v2012                                 |
|   \\  /    A nd           | Website:  www.openfoam.com                      |
|    \\/     M anipulation  |                                                 |
\*---------------------------------------------------------------------------*/
FoamFile
{
    version     2.0;
    format      ascii;
    class       volVectorField;
    location    "14";
    object      U;
}
// * * * * * * * * * * * * * * * * * * * * * * * * * * * * * * * * * * * * * //

dimensions      [0 1 -1 0 0 0 0];


internalField   nonuniform List<vector> 
64000
(
(0.003 1.81006e-19 1.75268e-19)
(0.003 2.80771e-19 2.6796e-19)
(0.003 3.23805e-19 3.53997e-19)
(0.003 3.33793e-19 3.62597e-19)
(0.003 3.86968e-19 3.20531e-19)
(0.003 3.44662e-19 2.79728e-19)
(0.003 2.2531e-19 2.14019e-19)
(0.003 7.35424e-20 1.46329e-19)
(0.003 1.91734e-19 2.48046e-19)
(0.003 3.09739e-19 2.20875e-19)
(0.003 2.41197e-19 2.00364e-19)
(0.003 2.19232e-19 2.44289e-19)
(0.003 1.58841e-19 1.90179e-19)
(0.003 1.59215e-19 1.70893e-19)
(0.003 1.59425e-19 2.31219e-19)
(0.003 1.92642e-19 1.96349e-19)
(0.003 9.89907e-20 1.25749e-19)
(0.003 2.14635e-20 1.20437e-19)
(0.003 5.40437e-20 -1.20883e-19)
(0.003 6.91352e-20 -2.68743e-19)
(0.003 -1.35047e-19 -1.76436e-19)
(0.003 3.24695e-21 3.41003e-20)
(0.003 1.40112e-19 8.19313e-20)
(0.003 2.57496e-19 5.75219e-20)
(0.003 3.10942e-19 1.15019e-19)
(0.003 1.1766e-19 1.2618e-19)
(0.003 3.36316e-22 1.34509e-19)
(0.003 1.09539e-19 1.21515e-19)
(0.003 1.06282e-19 1.41121e-19)
(0.003 -8.05656e-20 2.07198e-19)
(0.003 -2.01941e-19 2.99202e-19)
(0.003 -4.5776e-20 1.07797e-19)
(0.003 1.80792e-19 6.84961e-20)
(0.003 8.79619e-20 1.36687e-19)
(0.003 -1.06541e-20 6.91563e-21)
(0.003 -1.2306e-19 -2.3588e-19)
(0.003 -2.58699e-19 -3.20701e-19)
(0.003 -2.15789e-19 -2.1863e-19)
(0.003 -3.23403e-20 6.21467e-20)
(0.003 -2.51367e-20 8.9181e-20)
(0.003 2.18404e-19 2.91236e-19)
(0.003 2.82465e-19 5.81712e-19)
(0.003 5.08366e-19 7.92054e-19)
(0.003 4.01356e-19 7.39828e-19)
(0.003 2.89253e-19 6.08688e-19)
(0.003 4.09829e-19 6.14838e-19)
(0.003 3.33296e-19 4.92322e-19)
(0.003 2.78924e-19 3.22138e-19)
(0.003 1.90826e-19 4.28344e-19)
(0.003 1.66882e-19 5.14726e-19)
(0.003 2.72156e-19 4.90868e-19)
(0.003 3.08986e-19 4.02181e-19)
(0.003 1.12366e-19 3.39545e-19)
(0.003 -1.80692e-21 3.03138e-19)
(0.003 1.57366e-20 3.49273e-19)
(0.003 4.53154e-20 2.74016e-19)
(0.003 2.48591e-19 1.209e-19)
(0.003 2.46241e-19 2.43486e-19)
(0.003 1.92168e-19 2.76867e-20)
(0.003 1.80759e-19 -1.76751e-19)
(0.003 4.10964e-20 -1.21491e-19)
(0.003 -9.64198e-20 1.07613e-19)
(0.003 9.32577e-20 1.67956e-19)
(0.003 2.13225e-19 2.21027e-19)
(0.003 3.4715e-20 2.47454e-19)
(0.003 3.13297e-20 1.44085e-19)
(0.003 1.06638e-19 8.56261e-20)
(0.003 8.19611e-20 1.46843e-19)
(0.003 -2.79971e-20 1.92648e-19)
(0.003 -1.12659e-19 1.12817e-19)
(0.003 -1.74719e-19 1.0925e-19)
(0.003 -3.3194e-20 1.50639e-19)
(0.003 2.21091e-20 2.14149e-19)
(0.003 -9.57429e-20 8.73277e-20)
(0.003 -1.2141e-19 1.00318e-19)
(0.003 -2.9126e-19 -9.90265e-20)
(0.003 -2.7001e-19 -3.22867e-19)
(0.003 -1.95314e-20 -1.38765e-19)
(0.003 9.73366e-20 5.26087e-20)
(0.003 9.28677e-20 9.08197e-21)
(0.003 1.88879e-19 3.78111e-19)
(0.003 2.49596e-19 5.55562e-19)
(0.003 2.44627e-19 7.85777e-19)
(0.003 3.09694e-19 8.49718e-19)
(0.003 2.96417e-19 7.06987e-19)
(0.003 3.16461e-19 6.90475e-19)
(0.003 2.94435e-19 6.27868e-19)
(0.003 3.02074e-19 5.7215e-19)
(0.003 2.5244e-19 5.89946e-19)
(0.003 1.68515e-19 5.32838e-19)
(0.003 1.44559e-19 5.4693e-19)
(0.003 1.28969e-19 5.07672e-19)
(0.003 1.95925e-19 2.7656e-19)
(0.003 1.10823e-19 2.83113e-19)
(0.003 5.14171e-20 3.32715e-19)
(0.003 3.78837e-21 2.88925e-19)
(0.003 8.68456e-20 2.95116e-19)
(0.003 2.00201e-19 2.04225e-19)
(0.003 1.82348e-19 -5.61004e-20)
(0.003 6.25402e-20 -1.72481e-19)
(0.003 -1.78886e-20 2.86423e-20)
(0.003 -2.41176e-21 1.99056e-19)
(0.003 1.09852e-19 2.42685e-19)
(0.003 1.37516e-19 2.81569e-19)
(0.003 -1.48095e-20 2.35406e-19)
(0.003 4.75368e-20 1.67582e-19)
(0.003 8.55753e-20 1.71208e-19)
(0.003 -4.95317e-20 2.51733e-19)
(0.003 -3.23244e-20 2.03736e-19)
(0.003 5.49698e-20 1.75877e-19)
(0.003 -2.47061e-20 1.63752e-19)
(0.003 -3.75433e-20 2.00549e-19)
(0.003 -6.34521e-20 1.04643e-19)
(0.003 -1.94033e-19 3.77977e-20)
(0.003 -2.77995e-19 8.2494e-20)
(0.003 -2.8456e-19 -8.83203e-20)
(0.003 -7.87983e-20 -1.90601e-19)
(0.003 1.0614e-19 -2.16593e-19)
(0.003 1.82104e-19 -9.10927e-20)
(0.003 1.23286e-19 -5.09552e-20)
(0.003 3.46828e-19 4.19765e-19)
(0.003 3.68821e-19 7.63454e-19)
(0.003 1.91876e-19 8.47343e-19)
(0.003 2.54824e-19 8.80121e-19)
(0.003 3.29328e-19 8.61762e-19)
(0.003 2.88111e-19 8.5124e-19)
(0.003 2.55282e-19 6.76393e-19)
(0.003 2.10867e-19 5.75345e-19)
(0.003 1.93879e-19 6.79231e-19)
(0.003 2.4453e-19 6.21599e-19)
(0.003 1.93253e-19 5.57506e-19)
(0.003 8.01426e-20 4.86881e-19)
(0.003 1.01902e-19 3.65254e-19)
(0.003 6.53268e-20 3.08992e-19)
(0.003 2.20625e-19 3.80125e-19)
(0.003 2.8633e-19 3.38637e-19)
(0.003 9.04405e-20 2.5199e-19)
(0.003 -6.10601e-20 2.08293e-19)
(0.003 -1.28711e-19 -2.31921e-20)
(0.003 -4.97081e-20 -1.10204e-19)
(0.003 1.13743e-20 1.33278e-19)
(0.003 1.85288e-19 2.63234e-19)
(0.003 2.37467e-19 3.40077e-19)
(0.003 1.51366e-19 3.55833e-19)
(0.003 1.13535e-19 2.97982e-19)
(0.003 4.38345e-20 2.12905e-19)
(0.003 -1.82292e-20 1.33139e-19)
(0.003 -4.67323e-20 6.22398e-20)
(0.003 4.3676e-20 2.37705e-19)
(0.003 2.8697e-20 2.96613e-19)
(0.003 -2.73657e-20 1.21078e-19)
(0.003 -7.0746e-20 1.29483e-19)
(0.003 -8.31063e-20 1.34648e-19)
(0.003 -9.09598e-20 9.17433e-21)
(0.003 -8.96434e-20 -3.61136e-20)
(0.003 -4.17148e-20 -6.26198e-20)
(0.003 -1.09928e-20 -1.66899e-20)
(0.003 2.45607e-20 -3.16417e-20)
(0.003 8.00646e-20 -6.4854e-20)
(0.003 8.88098e-20 -2.89927e-20)
(0.003 1.7633e-19 5.25202e-19)
(0.003 2.59037e-19 8.75585e-19)
(0.003 1.58171e-19 9.28006e-19)
(0.003 1.44851e-19 8.80955e-19)
(0.003 2.07715e-19 9.80134e-19)
(0.003 1.62062e-19 9.19177e-19)
(0.003 2.07307e-19 7.26648e-19)
(0.003 3.04533e-19 5.79443e-19)
(0.003 2.48091e-19 6.08193e-19)
(0.003 2.02932e-19 7.1979e-19)
(0.003 2.01341e-19 6.79536e-19)
(0.003 1.38792e-19 5.23128e-19)
(0.003 4.99443e-20 3.40935e-19)
(0.003 1.15414e-19 3.39946e-19)
(0.003 1.65741e-19 4.75099e-19)
(0.003 2.09474e-19 4.7972e-19)
(0.003 6.14175e-20 3.23653e-19)
(0.003 -2.19147e-19 1.65494e-19)
(0.003 -2.4669e-19 7.24877e-20)
(0.003 -7.86919e-20 -5.73016e-20)
(0.003 1.66082e-20 5.67978e-20)
(0.003 1.76497e-19 2.55506e-19)
(0.003 2.93857e-19 4.67241e-19)
(0.003 1.86668e-19 4.23718e-19)
(0.003 9.18449e-20 3.71251e-19)
(0.003 2.10317e-20 2.52222e-19)
(0.003 1.53181e-20 1.18358e-19)
(0.003 1.01042e-20 1.54729e-19)
(0.003 1.86715e-20 2.5617e-19)
(0.003 2.51352e-20 1.60274e-19)
(0.003 1.54497e-19 9.40032e-20)
(0.003 1.13759e-19 1.55259e-19)
(0.003 -9.54291e-20 -6.18522e-21)
(0.003 -1.0706e-19 -1.54009e-19)
(0.003 1.07727e-20 -7.92302e-20)
(0.003 -2.49241e-20 -7.12839e-20)
(0.003 -3.10155e-20 1.40546e-20)
(0.003 3.83587e-20 4.71785e-20)
(0.003 3.59247e-20 2.46403e-20)
(0.003 3.11451e-20 -5.50511e-20)
(0.003 -9.21866e-21 6.08918e-19)
(0.003 1.47311e-19 9.26257e-19)
(0.003 1.28839e-19 9.39804e-19)
(0.003 1.2127e-19 9.66265e-19)
(0.003 1.40685e-19 1.00865e-18)
(0.003 1.51599e-19 8.87963e-19)
(0.003 1.71865e-19 7.7083e-19)
(0.003 3.51819e-19 7.89065e-19)
(0.003 3.16726e-19 7.21813e-19)
(0.003 1.6623e-19 6.38991e-19)
(0.003 1.95506e-19 6.61675e-19)
(0.003 1.39823e-19 6.64072e-19)
(0.003 1.44004e-19 4.50136e-19)
(0.003 2.2394e-19 3.28715e-19)
(0.003 8.24469e-20 4.72604e-19)
(0.003 -1.16077e-19 5.263e-19)
(0.003 -1.84195e-19 3.20784e-19)
(0.003 -1.8107e-19 2.02326e-19)
(0.003 -2.04361e-19 2.01542e-19)
(0.003 -1.43996e-19 5.41194e-20)
(0.003 1.40351e-19 7.46814e-20)
(0.003 2.6217e-19 2.93081e-19)
(0.003 1.79964e-19 4.33549e-19)
(0.003 1.62334e-19 4.10343e-19)
(0.003 1.44635e-19 2.80701e-19)
(0.003 1.14391e-19 2.37475e-19)
(0.003 1.03966e-19 1.87567e-19)
(0.003 -5.37269e-20 1.21669e-19)
(0.003 -1.92854e-19 2.54761e-19)
(0.003 -9.05787e-21 3.24986e-19)
(0.003 2.73454e-19 2.98875e-19)
(0.003 1.8101e-19 4.57733e-20)
(0.003 -6.11592e-20 -2.60521e-19)
(0.003 -2.08126e-20 -2.06151e-19)
(0.003 -8.24351e-20 -1.18332e-19)
(0.003 -4.21127e-20 -1.13186e-19)
(0.003 3.03675e-20 3.46747e-20)
(0.003 9.79494e-20 -2.16955e-20)
(0.003 1.47639e-19 -1.5449e-19)
(0.003 7.69516e-20 -1.619e-19)
(0.003 -5.97222e-21 7.54422e-19)
(0.003 9.61701e-20 1.12647e-18)
(0.003 1.93388e-19 1.01913e-18)
(0.003 1.34637e-19 9.63364e-19)
(0.003 1.6157e-19 1.04237e-18)
(0.003 1.00755e-19 9.71729e-19)
(0.003 1.70663e-19 8.20497e-19)
(0.003 3.15585e-19 7.46818e-19)
(0.003 2.75037e-19 7.55338e-19)
(0.003 1.91383e-19 7.65076e-19)
(0.003 1.89423e-19 7.78581e-19)
(0.003 1.92049e-19 6.51344e-19)
(0.003 1.89051e-19 4.57717e-19)
(0.003 1.71879e-19 4.48882e-19)
(0.003 6.11335e-20 5.07096e-19)
(0.003 -5.77723e-20 4.55694e-19)
(0.003 -1.173e-19 2.26493e-19)
(0.003 -4.51198e-20 1.79262e-19)
(0.003 -1.10496e-19 1.97203e-19)
(0.003 -8.7744e-20 1.30943e-19)
(0.003 1.18783e-19 1.94822e-19)
(0.003 2.1903e-19 3.29336e-19)
(0.003 1.51051e-19 4.36733e-19)
(0.003 7.68578e-20 4.87854e-19)
(0.003 7.0334e-20 3.8072e-19)
(0.003 1.18374e-19 2.31065e-19)
(0.003 -1.96722e-21 1.28431e-19)
(0.003 -1.15166e-19 1.33842e-19)
(0.003 -1.00018e-19 2.19648e-19)
(0.003 -3.11164e-20 2.17475e-19)
(0.003 1.1047e-19 2.48438e-19)
(0.003 1.0826e-19 7.2668e-20)
(0.003 1.46224e-19 -2.38609e-19)
(0.003 1.84405e-19 -8.89102e-20)
(0.003 5.14516e-20 -1.7473e-20)
(0.003 -6.14728e-21 -8.34215e-20)
(0.003 -4.14997e-21 -1.23615e-19)
(0.003 6.97625e-20 -1.68311e-19)
(0.003 5.68807e-20 -1.6601e-19)
(0.003 2.75111e-20 -1.86608e-19)
(0.003 1.68811e-19 5.9396e-19)
(0.003 1.5036e-19 9.73071e-19)
(0.003 2.49421e-19 1.07588e-18)
(0.003 2.15568e-19 1.10762e-18)
(0.003 1.30101e-19 1.14452e-18)
(0.003 1.20807e-19 9.83257e-19)
(0.003 2.31021e-19 9.11737e-19)
(0.003 2.0324e-19 9.4291e-19)
(0.003 2.13114e-19 8.75529e-19)
(0.003 2.74023e-19 7.67191e-19)
(0.003 1.37845e-19 7.56234e-19)
(0.003 1.33911e-19 7.06985e-19)
(0.003 1.01171e-19 5.26033e-19)
(0.003 1.48459e-19 4.58422e-19)
(0.003 1.11133e-19 5.1202e-19)
(0.003 5.26816e-20 4.33916e-19)
(0.003 3.49744e-20 2.0356e-19)
(0.003 7.29343e-20 1.11111e-19)
(0.003 1.51305e-19 1.41408e-19)
(0.003 9.92201e-20 1.69484e-19)
(0.003 9.08756e-20 2.36235e-19)
(0.003 1.01817e-19 4.0747e-19)
(0.003 4.48887e-21 4.97727e-19)
(0.003 -5.74954e-20 4.65172e-19)
(0.003 -1.14677e-20 3.89633e-19)
(0.003 4.67264e-20 2.48152e-19)
(0.003 4.68547e-20 1.03432e-19)
(0.003 -2.15172e-20 9.9566e-20)
(0.003 -6.62189e-20 1.72063e-19)
(0.003 -4.31032e-20 2.53248e-19)
(0.003 -1.50393e-19 3.20716e-19)
(0.003 -4.6591e-20 1.2138e-19)
(0.003 3.02805e-19 -3.70815e-20)
(0.003 3.49919e-19 3.12065e-20)
(0.003 2.14828e-19 -8.57187e-20)
(0.003 1.83471e-21 -2.6806e-19)
(0.003 -4.52611e-20 -4.00163e-19)
(0.003 -1.03354e-19 -3.16644e-19)
(0.003 -1.44409e-19 -8.0178e-20)
(0.003 -6.0045e-20 -9.63205e-20)
(0.003 -8.00265e-21 5.90005e-19)
(0.003 6.2415e-20 1.07791e-18)
(0.003 1.43114e-19 1.21106e-18)
(0.003 2.03525e-19 1.2129e-18)
(0.003 1.3793e-19 1.10632e-18)
(0.003 1.94548e-19 1.04173e-18)
(0.003 2.1297e-19 1.03672e-18)
(0.003 1.16758e-19 9.08475e-19)
(0.003 1.14431e-19 8.85636e-19)
(0.003 1.46799e-19 9.05074e-19)
(0.003 9.8027e-20 7.78084e-19)
(0.003 8.20117e-21 6.99062e-19)
(0.003 -1.90407e-20 5.19586e-19)
(0.003 4.8873e-20 5.53637e-19)
(0.003 1.20878e-19 5.57639e-19)
(0.003 1.61014e-19 4.76713e-19)
(0.003 2.33962e-19 2.71426e-19)
(0.003 1.34022e-19 1.36169e-19)
(0.003 1.1799e-19 2.18089e-19)
(0.003 9.31695e-20 2.34773e-19)
(0.003 4.24472e-20 2.39678e-19)
(0.003 4.87156e-20 4.15496e-19)
(0.003 3.249e-20 5.27811e-19)
(0.003 8.60167e-20 5.37996e-19)
(0.003 7.8715e-20 4.15668e-19)
(0.003 -4.36729e-20 2.21252e-19)
(0.003 -8.92824e-20 1.30308e-19)
(0.003 2.41681e-22 1.21421e-19)
(0.003 8.55403e-20 1.23502e-19)
(0.003 -3.33574e-20 1.27779e-19)
(0.003 -2.80518e-19 1.46489e-19)
(0.003 -1.42328e-19 1.70118e-19)
(0.003 4.87001e-20 1.90743e-19)
(0.003 8.98337e-20 -1.08956e-20)
(0.003 1.94383e-19 -2.60091e-19)
(0.003 2.03829e-19 -4.28808e-19)
(0.003 6.64163e-20 -5.20989e-19)
(0.003 -1.89598e-19 -3.5434e-19)
(0.003 -2.61827e-19 -1.89408e-19)
(0.003 -1.82343e-19 -1.45615e-19)
(0.003 -2.4773e-19 7.09591e-19)
(0.003 -2.93974e-20 1.03911e-18)
(0.003 1.39311e-19 1.25159e-18)
(0.003 2.42425e-19 1.28829e-18)
(0.003 1.82356e-19 1.21108e-18)
(0.003 1.7365e-19 1.15158e-18)
(0.003 2.74134e-19 1.10621e-18)
(0.003 2.30207e-19 9.98897e-19)
(0.003 1.18496e-19 8.54136e-19)
(0.003 1.25728e-19 8.30613e-19)
(0.003 8.09398e-20 8.03893e-19)
(0.003 -9.26805e-20 6.77728e-19)
(0.003 -3.9106e-20 5.53715e-19)
(0.003 -5.95498e-20 5.77617e-19)
(0.003 3.58923e-20 6.03556e-19)
(0.003 1.38793e-19 5.11324e-19)
(0.003 2.03214e-19 3.78483e-19)
(0.003 1.80911e-19 2.48395e-19)
(0.003 -1.38273e-20 1.43419e-19)
(0.003 2.38736e-20 1.13928e-19)
(0.003 1.4113e-19 3.01529e-19)
(0.003 1.56712e-19 4.64132e-19)
(0.003 4.07929e-20 5.18298e-19)
(0.003 3.95455e-20 6.05424e-19)
(0.003 9.54292e-20 4.95934e-19)
(0.003 1.58127e-20 2.68228e-19)
(0.003 -6.82954e-20 1.17386e-19)
(0.003 -2.15536e-22 8.33749e-20)
(0.003 7.10018e-20 1.01445e-19)
(0.003 -2.88391e-20 1.27621e-19)
(0.003 -6.06235e-20 7.97024e-20)
(0.003 -9.06172e-20 8.94362e-20)
(0.003 -2.64683e-19 1.70401e-19)
(0.003 -2.20568e-19 1.01992e-20)
(0.003 4.73204e-20 -2.31859e-19)
(0.003 3.88771e-19 -4.398e-19)
(0.003 1.59021e-19 -6.59041e-19)
(0.003 -2.23136e-19 -4.63828e-19)
(0.003 -2.00177e-19 -3.23984e-19)
(0.003 -9.3976e-20 -2.27051e-19)
(0.003 8.0917e-20 7.41456e-19)
(0.003 1.72457e-19 1.16865e-18)
(0.003 1.63203e-19 1.3952e-18)
(0.003 2.08165e-19 1.35031e-18)
(0.003 2.2397e-19 1.20716e-18)
(0.003 2.39796e-19 1.13992e-18)
(0.003 2.23291e-19 1.1571e-18)
(0.003 1.73366e-19 1.08444e-18)
(0.003 1.14679e-19 9.15815e-19)
(0.003 1.81145e-19 8.42105e-19)
(0.003 1.72855e-19 7.86596e-19)
(0.003 -1.38093e-21 6.88787e-19)
(0.003 5.55824e-20 5.04282e-19)
(0.003 6.02125e-20 4.78819e-19)
(0.003 -4.34714e-21 6.23181e-19)
(0.003 6.3784e-20 6.58644e-19)
(0.003 7.34665e-20 4.95107e-19)
(0.003 1.22229e-20 2.6777e-19)
(0.003 -1.30527e-20 1.02259e-19)
(0.003 9.03091e-20 1.44373e-19)
(0.003 2.19732e-19 3.43207e-19)
(0.003 1.61621e-19 5.26699e-19)
(0.003 -7.04349e-21 4.99872e-19)
(0.003 -1.74361e-21 6.12174e-19)
(0.003 5.86727e-20 4.95824e-19)
(0.003 -4.98522e-20 2.29347e-19)
(0.003 -1.41262e-19 1.53812e-19)
(0.003 -1.84034e-20 8.46917e-20)
(0.003 4.61295e-20 4.24408e-23)
(0.003 -3.56845e-20 1.5783e-19)
(0.003 1.14642e-21 7.24365e-20)
(0.003 -5.45614e-20 -3.65894e-20)
(0.003 -3.12792e-19 -5.74001e-21)
(0.003 -3.70653e-19 -1.9746e-20)
(0.003 -7.37478e-20 -7.74443e-20)
(0.003 8.95678e-20 -3.00004e-19)
(0.003 5.25473e-20 -5.81729e-19)
(0.003 -6.10717e-20 -4.58071e-19)
(0.003 -1.38265e-19 -1.98489e-19)
(0.003 -1.07166e-19 -1.5653e-19)
(0.003 2.38263e-19 8.13252e-19)
(0.003 2.51665e-19 1.28691e-18)
(0.003 1.76807e-19 1.39459e-18)
(0.003 1.18089e-19 1.3062e-18)
(0.003 2.16527e-19 1.26547e-18)
(0.003 2.59699e-19 1.27542e-18)
(0.003 1.73508e-19 1.12299e-18)
(0.003 9.48128e-20 9.99331e-19)
(0.003 8.99465e-20 8.56137e-19)
(0.003 1.05517e-19 9.19834e-19)
(0.003 1.38897e-19 8.90964e-19)
(0.003 9.51514e-20 7.04246e-19)
(0.003 1.27251e-19 5.9546e-19)
(0.003 1.6175e-19 5.2363e-19)
(0.003 4.48002e-20 5.68951e-19)
(0.003 -5.25858e-20 6.53025e-19)
(0.003 -4.86698e-20 5.73405e-19)
(0.003 4.3209e-20 3.35393e-19)
(0.003 2.10145e-19 1.67963e-19)
(0.003 2.08147e-19 1.96215e-19)
(0.003 7.7278e-20 3.06848e-19)
(0.003 -1.29267e-19 4.82172e-19)
(0.003 -1.04264e-19 4.9668e-19)
(0.003 -3.35489e-20 5.43325e-19)
(0.003 -1.13726e-19 5.27367e-19)
(0.003 -1.59673e-19 2.77134e-19)
(0.003 -1.00307e-19 1.39483e-19)
(0.003 5.57713e-20 1.35588e-19)
(0.003 2.40186e-20 -1.67418e-20)
(0.003 -3.40681e-20 5.52847e-20)
(0.003 -1.46083e-20 2.89086e-20)
(0.003 -1.50552e-19 -9.13738e-20)
(0.003 -1.33992e-19 -9.17202e-20)
(0.003 -8.3827e-20 -3.09352e-20)
(0.003 -9.28184e-20 -2.21093e-21)
(0.003 -2.02268e-19 -3.82606e-19)
(0.003 -2.96569e-20 -6.28405e-19)
(0.003 2.49717e-19 -4.33693e-19)
(0.003 1.45401e-19 -1.99015e-19)
(0.003 1.09815e-20 -1.83206e-19)
(0.003 2.93325e-19 8.9645e-19)
(0.003 2.91895e-19 1.31555e-18)
(0.003 1.69022e-19 1.31373e-18)
(0.003 1.11832e-19 1.32822e-18)
(0.003 8.79898e-20 1.33484e-18)
(0.003 9.93545e-20 1.27904e-18)
(0.003 9.26607e-20 1.06965e-18)
(0.003 6.02457e-20 9.77499e-19)
(0.003 2.11862e-19 9.61674e-19)
(0.003 2.04639e-19 9.63888e-19)
(0.003 4.8644e-20 8.63155e-19)
(0.003 5.34807e-20 6.92807e-19)
(0.003 1.58845e-19 6.36088e-19)
(0.003 2.1697e-19 5.93774e-19)
(0.003 7.55031e-20 6.38129e-19)
(0.003 -4.28099e-20 6.63036e-19)
(0.003 -1.0898e-19 5.3835e-19)
(0.003 -7.33199e-20 3.23251e-19)
(0.003 4.73295e-20 2.86733e-19)
(0.003 1.63965e-19 2.42703e-19)
(0.003 9.29278e-20 2.81923e-19)
(0.003 -1.01329e-20 4.0188e-19)
(0.003 2.08379e-20 4.41065e-19)
(0.003 -6.79734e-21 4.82417e-19)
(0.003 -1.98632e-19 4.77565e-19)
(0.003 -1.5616e-19 2.79129e-19)
(0.003 -6.89168e-20 1.20918e-19)
(0.003 1.24845e-20 1.10557e-19)
(0.003 -2.09034e-20 -3.5886e-20)
(0.003 1.41259e-20 -1.70984e-20)
(0.003 7.95911e-21 -6.58538e-20)
(0.003 -1.21886e-19 -1.54875e-19)
(0.003 -3.27116e-21 -9.98408e-20)
(0.003 -1.45887e-20 5.07189e-20)
(0.003 -1.325e-19 5.74852e-20)
(0.003 -9.33334e-20 -3.59568e-19)
(0.003 9.53381e-20 -4.58169e-19)
(0.003 2.46778e-19 -3.72561e-19)
(0.003 3.15551e-19 -1.99979e-19)
(0.003 1.99266e-19 -2.05981e-19)
(0.003 4.19522e-20 9.7485e-19)
(0.003 2.1309e-19 1.40626e-18)
(0.003 2.35648e-19 1.29725e-18)
(0.003 2.78114e-20 1.34518e-18)
(0.003 -1.35094e-19 1.31243e-18)
(0.003 -1.08665e-19 1.23139e-18)
(0.003 5.08929e-20 1.11942e-18)
(0.003 1.78481e-19 9.76609e-19)
(0.003 1.62364e-19 9.25339e-19)
(0.003 1.3678e-19 1.0022e-18)
(0.003 1.00582e-19 9.2135e-19)
(0.003 2.33666e-19 7.05384e-19)
(0.003 1.53433e-19 7.11738e-19)
(0.003 -1.49761e-20 6.98229e-19)
(0.003 -5.48115e-20 6.61261e-19)
(0.003 -5.88488e-20 6.46616e-19)
(0.003 -7.85616e-20 5.35675e-19)
(0.003 3.33525e-20 3.31705e-19)
(0.003 8.15063e-20 2.05772e-19)
(0.003 7.9349e-20 2.29437e-19)
(0.003 1.88603e-19 3.17732e-19)
(0.003 7.23529e-20 4.34185e-19)
(0.003 -2.02073e-20 4.55399e-19)
(0.003 -8.02867e-20 5.20869e-19)
(0.003 -2.03022e-19 4.75757e-19)
(0.003 -7.32293e-20 1.85757e-19)
(0.003 1.10615e-19 -1.10421e-20)
(0.003 3.55206e-20 4.15701e-21)
(0.003 -6.17395e-20 -1.63004e-19)
(0.003 -7.93156e-20 1.787e-20)
(0.003 -3.31977e-20 3.46638e-20)
(0.003 2.33786e-21 -7.01413e-20)
(0.003 2.53278e-20 -3.22335e-20)
(0.003 -7.79252e-21 -1.26359e-19)
(0.003 -1.52078e-19 -2.82212e-21)
(0.003 6.47296e-20 -1.78145e-19)
(0.003 2.03459e-19 -4.34317e-19)
(0.003 1.60223e-19 -3.4265e-19)
(0.003 2.27496e-19 -2.30468e-19)
(0.003 1.62432e-19 -3.45082e-19)
(0.003 -1.76505e-19 9.76574e-19)
(0.003 -1.25672e-19 1.41218e-18)
(0.003 8.27951e-20 1.41087e-18)
(0.003 3.59655e-20 1.19252e-18)
(0.003 3.42178e-21 1.18157e-18)
(0.003 -7.02657e-20 1.20817e-18)
(0.003 5.13284e-20 1.1894e-18)
(0.003 1.83404e-19 1.06405e-18)
(0.003 6.22344e-20 9.7335e-19)
(0.003 -1.08291e-19 1.05254e-18)
(0.003 6.07106e-20 9.4378e-19)
(0.003 2.56891e-19 7.85297e-19)
(0.003 8.48195e-20 7.98314e-19)
(0.003 -1.07371e-19 6.67529e-19)
(0.003 -1.13886e-19 5.5466e-19)
(0.003 -9.84132e-20 6.32147e-19)
(0.003 -1.40287e-20 4.74327e-19)
(0.003 1.6782e-19 3.47195e-19)
(0.003 1.09012e-19 3.3258e-19)
(0.003 7.90287e-20 2.395e-19)
(0.003 1.86399e-19 3.47888e-19)
(0.003 7.11121e-20 4.2884e-19)
(0.003 -1.10235e-19 4.76832e-19)
(0.003 -2.91404e-19 4.7436e-19)
(0.003 -2.3022e-19 3.22125e-19)
(0.003 4.03534e-20 1.97645e-19)
(0.003 1.81597e-19 8.28413e-20)
(0.003 -4.13597e-20 -3.54699e-20)
(0.003 -1.73786e-19 -1.98128e-19)
(0.003 1.81027e-20 4.31054e-20)
(0.003 2.08304e-19 1.05407e-19)
(0.003 1.75481e-19 -1.21719e-19)
(0.003 -2.4676e-20 -1.52074e-19)
(0.003 -1.03417e-19 -1.46232e-19)
(0.003 -1.26905e-19 2.95502e-20)
(0.003 -2.08308e-20 -1.66082e-20)
(0.003 1.83814e-19 -3.07361e-19)
(0.003 2.85425e-19 -3.76902e-19)
(0.003 2.02269e-19 -4.03726e-19)
(0.003 1.56973e-19 -4.91713e-19)
(0.003 -1.23952e-19 8.96046e-19)
(0.003 -2.94714e-19 1.34357e-18)
(0.003 -1.05513e-19 1.47535e-18)
(0.003 -1.31834e-21 1.27267e-18)
(0.003 4.88567e-20 1.23242e-18)
(0.003 3.28935e-20 1.2426e-18)
(0.003 9.09581e-21 1.18399e-18)
(0.003 8.39403e-20 1.13336e-18)
(0.003 -1.11975e-20 1.02516e-18)
(0.003 -1.04285e-19 9.26042e-19)
(0.003 3.22562e-20 9.50698e-19)
(0.003 8.76996e-20 9.32307e-19)
(0.003 -2.86556e-20 9.33715e-19)
(0.003 -1.8167e-20 6.95602e-19)
(0.003 -4.89933e-21 5.56139e-19)
(0.003 -4.2887e-20 5.95409e-19)
(0.003 -9.0494e-21 4.23862e-19)
(0.003 -4.75321e-20 3.3692e-19)
(0.003 6.47024e-20 3.149e-19)
(0.003 2.09623e-19 3.20143e-19)
(0.003 7.91794e-20 3.68873e-19)
(0.003 6.22041e-20 4.83026e-19)
(0.003 -6.06153e-20 4.97692e-19)
(0.003 -2.66427e-19 3.56509e-19)
(0.003 -1.45988e-19 1.75112e-19)
(0.003 -6.21881e-20 2.46012e-19)
(0.003 -5.88097e-20 9.57818e-20)
(0.003 -2.3067e-19 -1.49067e-19)
(0.003 -1.55168e-19 1.53246e-20)
(0.003 9.51888e-20 1.13249e-19)
(0.003 2.1067e-19 -2.56075e-20)
(0.003 2.1741e-19 -2.79131e-19)
(0.003 9.47248e-20 -2.71734e-19)
(0.003 2.55865e-20 -9.48959e-20)
(0.003 -9.32648e-21 1.38107e-19)
(0.003 -1.769e-20 7.87649e-20)
(0.003 7.92397e-20 -1.64921e-19)
(0.003 1.69513e-19 -3.63531e-19)
(0.003 1.95757e-19 -4.6368e-19)
(0.003 2.08494e-19 -4.69271e-19)
(0.003 -1.19193e-19 8.19581e-19)
(0.003 -1.53418e-19 1.24143e-18)
(0.003 -4.71089e-20 1.41213e-18)
(0.003 -5.63079e-20 1.32093e-18)
(0.003 -1.20133e-19 1.26146e-18)
(0.003 -8.90018e-21 1.27192e-18)
(0.003 2.78771e-20 1.22994e-18)
(0.003 -3.74672e-20 1.13209e-18)
(0.003 -2.09199e-20 1.04849e-18)
(0.003 5.45835e-20 1.0466e-18)
(0.003 1.19418e-20 1.01562e-18)
(0.003 -2.86243e-20 9.80241e-19)
(0.003 -5.48851e-20 9.00674e-19)
(0.003 4.04653e-20 7.82547e-19)
(0.003 -2.39315e-20 5.00445e-19)
(0.003 -7.22672e-20 4.53302e-19)
(0.003 1.25453e-20 4.15964e-19)
(0.003 -5.14763e-20 3.4551e-19)
(0.003 2.12155e-21 4.12045e-19)
(0.003 1.96383e-19 3.73132e-19)
(0.003 1.4576e-19 4.18118e-19)
(0.003 8.29703e-20 3.8261e-19)
(0.003 -8.11879e-20 3.65003e-19)
(0.003 -1.74579e-19 2.45819e-19)
(0.003 -1.16304e-19 1.42284e-19)
(0.003 -8.97636e-20 2.46827e-19)
(0.003 -1.74906e-19 7.18217e-20)
(0.003 -2.85977e-19 -2.2681e-20)
(0.003 -1.85943e-19 1.09476e-19)
(0.003 -6.43382e-20 1.38581e-19)
(0.003 -5.04904e-21 3.91465e-20)
(0.003 1.5599e-19 -2.28613e-19)
(0.003 1.85123e-19 -2.99875e-19)
(0.003 2.28577e-19 -6.57343e-20)
(0.003 2.5537e-19 1.41101e-19)
(0.003 1.18966e-19 8.21988e-20)
(0.003 5.05479e-20 -1.39879e-19)
(0.003 -4.37927e-20 -4.0523e-19)
(0.003 -1.29209e-19 -4.66654e-19)
(0.003 -2.55469e-21 -4.3531e-19)
(0.003 -1.62753e-19 7.6181e-19)
(0.003 -1.89093e-19 1.30258e-18)
(0.003 -1.68707e-19 1.58485e-18)
(0.003 -3.80745e-20 1.38157e-18)
(0.003 4.84769e-20 1.22111e-18)
(0.003 -1.69778e-20 1.22911e-18)
(0.003 -7.40943e-20 1.232e-18)
(0.003 -1.67745e-19 1.11714e-18)
(0.003 -6.75426e-20 1.09094e-18)
(0.003 1.01576e-20 1.07669e-18)
(0.003 1.60339e-20 1.03458e-18)
(0.003 6.34406e-20 9.94543e-19)
(0.003 7.9434e-20 8.90157e-19)
(0.003 2.26732e-20 7.85022e-19)
(0.003 4.34741e-20 5.56117e-19)
(0.003 2.7882e-20 5.03814e-19)
(0.003 4.51895e-20 4.49732e-19)
(0.003 1.69118e-19 2.46898e-19)
(0.003 1.95011e-19 1.83244e-19)
(0.003 1.06978e-19 3.42454e-19)
(0.003 -1.06836e-19 4.63104e-19)
(0.003 -1.42913e-19 5.77622e-19)
(0.003 -6.60333e-20 4.09688e-19)
(0.003 -1.91488e-20 2.24705e-19)
(0.003 -1.2289e-19 8.93907e-20)
(0.003 -1.74778e-19 1.56766e-19)
(0.003 -1.61037e-19 1.1976e-19)
(0.003 -2.17416e-19 2.24467e-20)
(0.003 -8.02772e-20 1.01037e-19)
(0.003 -4.67323e-20 9.17946e-20)
(0.003 -3.01308e-20 1.62723e-20)
(0.003 6.63818e-20 -1.43615e-19)
(0.003 1.49417e-19 -1.76605e-19)
(0.003 2.36801e-19 5.41942e-20)
(0.003 2.0511e-19 1.33454e-19)
(0.003 9.25963e-20 -2.00757e-20)
(0.003 -3.7011e-20 -2.1293e-19)
(0.003 -1.43148e-19 -3.50482e-19)
(0.003 -1.11344e-19 -4.84759e-19)
(0.003 -3.42074e-20 -4.8626e-19)
(0.003 -1.29507e-19 7.45899e-19)
(0.003 -2.66019e-19 1.25155e-18)
(0.003 -2.80892e-19 1.45869e-18)
(0.003 -1.4584e-20 1.43404e-18)
(0.003 1.00624e-19 1.29618e-18)
(0.003 -8.16672e-20 1.20391e-18)
(0.003 -1.91846e-19 1.20546e-18)
(0.003 -1.32224e-19 1.16663e-18)
(0.003 6.88158e-21 1.13985e-18)
(0.003 1.67815e-20 1.13689e-18)
(0.003 -2.77715e-20 1.02315e-18)
(0.003 9.70373e-20 9.70479e-19)
(0.003 1.28267e-19 9.17198e-19)
(0.003 2.09661e-20 8.18379e-19)
(0.003 1.30918e-19 5.56398e-19)
(0.003 1.08866e-19 5.22461e-19)
(0.003 -1.71276e-20 5.11543e-19)
(0.003 8.03922e-20 3.50105e-19)
(0.003 2.39807e-19 2.74363e-19)
(0.003 -1.86102e-20 2.75516e-19)
(0.003 -1.7279e-19 3.66028e-19)
(0.003 -1.54437e-19 4.98713e-19)
(0.003 -5.66941e-20 5.26767e-19)
(0.003 -8.40086e-20 2.90368e-19)
(0.003 -1.53228e-20 3.20084e-20)
(0.003 -1.04093e-19 8.40722e-20)
(0.003 -9.64448e-21 1.12515e-19)
(0.003 7.41533e-21 7.99865e-20)
(0.003 -6.2583e-20 4.51704e-20)
(0.003 2.22182e-20 2.42954e-20)
(0.003 -7.04641e-20 1.67144e-19)
(0.003 -9.67974e-20 2.59273e-20)
(0.003 1.81538e-20 -1.1285e-19)
(0.003 1.04318e-19 5.47676e-20)
(0.003 1.65453e-19 7.77426e-20)
(0.003 8.98143e-20 -1.40268e-19)
(0.003 -2.50886e-20 -1.54149e-19)
(0.003 -6.80269e-20 -2.45588e-19)
(0.003 2.9924e-20 -4.89367e-19)
(0.003 7.05187e-20 -5.39325e-19)
(0.003 2.12299e-20 7.84837e-19)
(0.003 -5.50619e-21 1.24455e-18)
(0.003 -9.19262e-20 1.38739e-18)
(0.003 -1.28201e-19 1.40715e-18)
(0.003 -2.40961e-20 1.32446e-18)
(0.003 -9.19026e-20 1.21365e-18)
(0.003 -1.96916e-19 1.15328e-18)
(0.003 -1.70159e-19 1.1589e-18)
(0.003 -1.2964e-19 1.18953e-18)
(0.003 9.5768e-20 1.14995e-18)
(0.003 2.46433e-19 1.00451e-18)
(0.003 1.25437e-19 9.98991e-19)
(0.003 7.19783e-20 8.45783e-19)
(0.003 4.85441e-20 7.63174e-19)
(0.003 6.5526e-20 7.18371e-19)
(0.003 1.21027e-20 6.01645e-19)
(0.003 -6.75387e-20 4.10314e-19)
(0.003 -1.25351e-19 2.37984e-19)
(0.003 -3.04807e-20 3.5198e-19)
(0.003 -1.12274e-19 3.09708e-19)
(0.003 -1.38004e-19 3.36723e-19)
(0.003 -7.42918e-20 5.4349e-19)
(0.003 -6.57322e-20 5.77685e-19)
(0.003 1.18961e-20 2.17944e-19)
(0.003 1.75607e-19 5.64122e-20)
(0.003 8.1691e-20 1.08801e-19)
(0.003 4.74474e-20 1.69358e-19)
(0.003 1.30165e-19 9.29164e-20)
(0.003 1.67713e-20 -1.92815e-20)
(0.003 -6.51161e-20 -7.27443e-21)
(0.003 -1.86286e-19 1.02324e-19)
(0.003 -1.8045e-19 6.85506e-20)
(0.003 -3.88695e-20 -5.91623e-20)
(0.003 4.28707e-20 3.62693e-20)
(0.003 3.03354e-20 9.44634e-20)
(0.003 1.03415e-19 2.50628e-20)
(0.003 1.65612e-19 -1.23117e-19)
(0.003 4.19582e-20 -3.57231e-19)
(0.003 -1.40761e-19 -6.7966e-19)
(0.003 -1.8448e-19 -6.64921e-19)
(0.003 1.6803e-19 7.70547e-19)
(0.003 1.47817e-19 1.18921e-18)
(0.003 -1.24318e-19 1.32281e-18)
(0.003 -2.36468e-19 1.35805e-18)
(0.003 -9.8433e-20 1.35623e-18)
(0.003 1.24086e-20 1.23089e-18)
(0.003 -3.18637e-20 1.14079e-18)
(0.003 -1.57685e-19 1.0262e-18)
(0.003 -1.45031e-19 1.07839e-18)
(0.003 1.10486e-19 1.27827e-18)
(0.003 2.91774e-19 1.28111e-18)
(0.003 1.45761e-20 1.05417e-18)
(0.003 -2.55647e-20 8.81766e-19)
(0.003 1.75392e-19 7.13333e-19)
(0.003 3.28735e-20 6.74024e-19)
(0.003 -8.21409e-20 5.62009e-19)
(0.003 -1.33223e-19 3.79202e-19)
(0.003 -1.86371e-19 2.80503e-19)
(0.003 -2.33451e-19 3.40668e-19)
(0.003 -1.70998e-19 3.19887e-19)
(0.003 -7.06274e-20 3.42519e-19)
(0.003 -1.23159e-19 4.28195e-19)
(0.003 -7.02364e-20 4.74582e-19)
(0.003 1.23887e-19 3.18838e-19)
(0.003 2.12033e-19 1.37307e-19)
(0.003 2.01179e-19 1.36554e-19)
(0.003 -1.49744e-20 1.11538e-19)
(0.003 1.02689e-19 2.32917e-20)
(0.003 3.90103e-20 -3.254e-21)
(0.003 -1.31966e-19 -6.39845e-20)
(0.003 -2.88094e-20 4.99645e-20)
(0.003 -3.96153e-20 -2.07569e-21)
(0.003 -2.51803e-20 -5.4806e-20)
(0.003 -9.52563e-21 1.01112e-19)
(0.003 9.29027e-22 5.49344e-20)
(0.003 1.68697e-19 6.99675e-20)
(0.003 9.12296e-20 2.82014e-20)
(0.003 -6.00724e-20 -3.5214e-19)
(0.003 -2.41663e-19 -7.31084e-19)
(0.003 -3.05597e-19 -6.46543e-19)
(0.003 1.68125e-19 8.32193e-19)
(0.003 1.16786e-19 1.24712e-18)
(0.003 -8.18591e-20 1.23925e-18)
(0.003 -1.65675e-19 1.26615e-18)
(0.003 -1.62029e-19 1.34075e-18)
(0.003 2.82084e-20 1.23221e-18)
(0.003 -5.42561e-21 1.16395e-18)
(0.003 -4.31701e-20 1.07361e-18)
(0.003 4.18084e-20 1.09487e-18)
(0.003 6.51793e-20 1.26777e-18)
(0.003 -4.35476e-20 1.26163e-18)
(0.003 -4.7499e-20 9.58863e-19)
(0.003 2.33951e-20 8.03148e-19)
(0.003 -9.56465e-21 8.44075e-19)
(0.003 -3.05098e-20 6.74993e-19)
(0.003 -5.1147e-20 4.79689e-19)
(0.003 -1.78112e-19 3.39918e-19)
(0.003 -2.62179e-19 2.52311e-19)
(0.003 -3.79001e-19 2.33689e-19)
(0.003 -1.7011e-19 2.54449e-19)
(0.003 -1.72817e-20 4.68526e-19)
(0.003 -1.34343e-19 4.43878e-19)
(0.003 2.19154e-20 3.882e-19)
(0.003 2.22697e-19 3.34192e-19)
(0.003 1.80527e-19 1.58161e-19)
(0.003 1.9004e-19 1.14361e-19)
(0.003 6.99563e-20 1.43996e-20)
(0.003 1.60395e-20 -7.69286e-20)
(0.003 1.03675e-20 -3.88848e-20)
(0.003 -7.0117e-20 -4.99959e-21)
(0.003 9.07002e-20 5.47915e-20)
(0.003 1.72757e-19 3.16865e-20)
(0.003 6.48487e-20 -7.27955e-21)
(0.003 1.70179e-20 6.83812e-20)
(0.003 5.25037e-20 5.50311e-20)
(0.003 3.62481e-20 4.6785e-20)
(0.003 -1.0894e-19 -6.8662e-20)
(0.003 -2.18674e-19 -2.80283e-19)
(0.003 -1.81553e-19 -4.07015e-19)
(0.003 -1.39612e-19 -2.45863e-19)
(0.003 -7.0914e-20 8.51158e-19)
(0.003 -7.50494e-20 1.28772e-18)
(0.003 5.07547e-20 1.31015e-18)
(0.003 -3.62542e-20 1.17479e-18)
(0.003 -1.85287e-19 1.23794e-18)
(0.003 -5.50131e-20 1.35214e-18)
(0.003 3.0298e-21 1.16027e-18)
(0.003 1.29473e-19 9.8985e-19)
(0.003 3.30727e-21 1.02808e-18)
(0.003 -2.03604e-19 1.17468e-18)
(0.003 -2.32797e-19 1.18317e-18)
(0.003 -4.52368e-20 1.09231e-18)
(0.003 -5.92369e-20 9.14092e-19)
(0.003 -1.11116e-19 7.05086e-19)
(0.003 -1.21994e-20 5.88717e-19)
(0.003 -5.95228e-20 5.40741e-19)
(0.003 -1.55955e-19 2.87686e-19)
(0.003 -2.38423e-19 1.31118e-19)
(0.003 -2.65443e-19 1.85554e-19)
(0.003 -2.15537e-19 2.91387e-19)