/*--------------------------------*- C++ -*----------------------------------*\
| =========                 |                                                 |
| \\      /  F ield         | OpenFOAM: The Open Source CFD Toolbox           |
|  \\    /   O peration     | Version:  v2012                                 |
|   \\  /    A nd           | Website:  www.openfoam.com                      |
|    \\/     M anipulation  |                                                 |
\*---------------------------------------------------------------------------*/
FoamFile
{
    version     2.0;
    format      ascii;
    class       volScalarField;
    location    "26";
    object      p;
}
// * * * * * * * * * * * * * * * * * * * * * * * * * * * * * * * * * * * * * //

dimensions      [0 2 -2 0 0 0 0];


internalField   nonuniform List<scalar> 
64000
(
-1.39202e-22
-3.54973e-21
-2.28534e-21
-4.53661e-21
-7.47476e-21
-2.27868e-21
-3.73907e-21
-3.2427e-21
-4.85217e-21
-3.68372e-21
-4.09271e-21
-6.38003e-21
-3.65453e-21
-5.91845e-21
-3.54441e-21
-4.82729e-21
-8.04799e-22
-4.48706e-22
-9.93952e-22
-9.6201e-22
-1.32902e-21
-2.28996e-21
-1.73327e-21
7.585e-22
-5.02113e-21
-1.30859e-21
1.20875e-21
-3.48833e-21
-3.44262e-21
-1.7201e-21
-9.84621e-22
-6.09704e-22
-1.25386e-21
-1.05493e-21
-1.06786e-21
-4.87273e-21
-2.49257e-21
-1.53069e-22
7.15729e-22
7.0655e-22
-5.51653e-21
-9.07355e-21
-8.75355e-21
-6.79989e-21
-9.39278e-21
-1.11127e-20
-7.39642e-21
-3.00889e-21
-4.32697e-21
-8.80689e-21
-7.6004e-21
-9.48705e-21
-3.92602e-21
-4.37856e-21
-6.43414e-21
-5.96819e-21
-4.08225e-21
1.90953e-21
-2.25139e-21
-1.56514e-21
1.57343e-21
-3.053e-21
-4.8882e-21
-7.07166e-21
-6.01265e-21
-1.49983e-21
-1.72108e-21
-3.79068e-21
-3.6734e-21
-1.82152e-21
1.8056e-21
5.08245e-22
-3.91283e-21
-2.72225e-21
-1.33752e-21
-1.37672e-21
-2.76546e-21
-8.30727e-22
1.65986e-21
1.51202e-21
-5.13893e-21
-7.58748e-21
-1.19767e-20
-9.60607e-21
-8.21043e-21
-1.10507e-20
-8.93316e-21
-7.96545e-21
-8.45993e-21
-9.07964e-21
-6.31206e-21
-7.60789e-21
-5.9073e-21
-4.26447e-21
-4.21203e-21
-1.49387e-21
-6.84722e-21
-2.76847e-21
-1.17241e-21
-1.84386e-23
-2.37195e-21
-4.36035e-21
-5.74786e-21
-5.22462e-21
-3.19501e-21
-3.51314e-21
-4.21333e-21
-4.04373e-21
-8.92998e-22
-2.27672e-21
-1.37934e-21
-6.88502e-22
-4.45156e-21
4.58857e-22
-1.31496e-21
-3.39188e-21
7.57623e-22
1.11238e-21
6.94933e-22
1.35086e-21
-8.49952e-21
-8.56354e-21
-9.6573e-21
-1.32943e-20
-1.21128e-20
-1.25587e-20
-9.67848e-21
-6.75717e-21
-8.99967e-21
-9.21113e-21
-7.34297e-21
-8.43739e-21
-7.34774e-21
-4.12593e-21
-4.91141e-21
-2.6918e-21
-3.87117e-21
-3.39948e-21
1.23021e-21
-1.73406e-21
-3.29272e-21
-7.1346e-21
-6.26101e-21
-4.53266e-21
-4.80015e-21
-4.0898e-21
-2.79578e-21
-3.76408e-22
-9.55261e-22
-3.22609e-21
4.00532e-22
-1.74155e-21
-3.75976e-21
-2.42096e-22
-1.26814e-21
-2.10261e-21
5.21611e-22
-1.95884e-21
6.9191e-22
6.06854e-23
-1.47992e-20
-9.40504e-21
-1.04452e-20
-1.08961e-20
-1.2449e-20
-1.38899e-20
-1.04494e-20
-4.52938e-21
-7.97763e-21
-1.0683e-20
-7.89538e-21
-7.61392e-21
-5.61759e-21
-1.60955e-21
-7.40855e-21
-1.11993e-20
-3.93532e-21
-2.43004e-22
-1.95926e-21
-2.39447e-21
-1.99332e-21
-6.56051e-21
-8.98039e-21
-4.26988e-21
-3.45039e-21
-3.15018e-21
-1.51953e-21
-2.01178e-21
-4.28143e-21
-4.00501e-22
1.76573e-21
9.62601e-23
1.02833e-22
2.41165e-22
-2.81179e-21
-1.52164e-21
5.23634e-22
-2.4189e-22
-1.162e-21
-2.24326e-21
-1.14998e-20
-1.05856e-20
-9.77453e-21
-1.30344e-20
-1.25085e-20
-1.13808e-20
-8.39832e-21
-1.12847e-20
-1.09501e-20
-9.57511e-21
-6.50401e-21
-7.53236e-21
-7.16357e-21
-1.95866e-21
-5.91924e-21
-9.24818e-21
-5.33203e-21
-1.11024e-21
-8.78095e-22
-3.80313e-21
-3.86293e-22
-4.75806e-21
-9.99817e-21
-5.72888e-21
-3.36595e-21
-2.2789e-21
-3.64508e-21
-1.46922e-21
-1.73993e-21
-2.48722e-21
-1.81499e-21
-1.38992e-21
-1.0654e-22
6.67011e-22
-5.15027e-22
-1.5582e-21
-2.21316e-21
-1.12819e-21
-5.81775e-22
2.16046e-22
-1.174e-20
-1.1904e-20
-9.88051e-21
-1.18472e-20
-1.27021e-20
-1.22121e-20
-8.97618e-21
-1.07887e-20
-1.19124e-20
-9.15548e-21
-7.12853e-21
-8.43529e-21
-6.2201e-21
-5.03798e-21
-5.9908e-21
-7.50831e-21
-4.58006e-21
3.6892e-22
1.61191e-21
-3.0189e-21
-4.21513e-21
-6.49559e-21
-1.21894e-20
-8.85681e-21
-1.87514e-21
-3.22243e-21
-2.63363e-21
-8.66255e-22
-2.34043e-22
-3.18129e-22
-3.66497e-21
-3.20145e-21
-3.59568e-22
-2.17226e-22
-8.52213e-23
-3.46561e-21
-2.66907e-21
1.28073e-22
-1.53575e-22
-1.2852e-21
-1.33413e-20
-1.27747e-20
-1.14118e-20
-1.00794e-20
-1.32595e-20
-1.00457e-20
-8.57094e-21
-1.58857e-20
-1.3352e-20
-1.06317e-20
-8.26756e-21
-6.90327e-21
-6.58261e-21
-6.76309e-21
-5.43035e-21
-8.55873e-21
-3.6796e-21
-1.31037e-21
-2.00562e-21
-2.52577e-21
-3.86836e-21
-7.13432e-21
-7.59433e-21
-6.88726e-21
-3.66935e-21
-4.96471e-21
-2.00583e-21
3.63577e-22
-2.72937e-22
-2.3943e-21
-3.3852e-21
-2.83488e-21
3.31487e-22
-1.85416e-21
-4.16475e-21
-6.43677e-21
-1.72582e-21
6.8592e-22
7.00411e-22
-8.5739e-22
-1.84744e-20
-1.38425e-20
-1.13671e-20
-1.07849e-20
-1.22481e-20
-1.31775e-20
-1.17183e-20
-1.18177e-20
-1.32985e-20
-1.32335e-20
-6.76653e-21
-7.45769e-21
-5.71867e-21
-8.36654e-21
-8.06407e-21
-8.6388e-21
-4.10553e-21
1.99342e-21
-5.41591e-21
-6.16913e-21
-1.84303e-21
-6.21009e-21
-7.26208e-21
-8.96395e-21
-1.48052e-21
-3.04055e-21
-4.95724e-21
-2.25737e-21
7.47304e-22
-2.61068e-21
-2.16903e-21
-1.27081e-21
1.48626e-22
-1.86951e-21
-5.89602e-21
-3.64271e-21
-2.96545e-21
1.20274e-21
1.70104e-21
-1.09216e-21
-9.07062e-21
-1.18605e-20
-1.21976e-20
-1.08167e-20
-1.31349e-20
-1.39267e-20
-1.14683e-20
-1.09707e-20
-1.20444e-20
-1.18559e-20
-8.41745e-21
-7.06231e-21
-6.34551e-21
-9.26819e-21
-8.80717e-21
-5.45359e-21
-5.43743e-21
-1.93889e-21
3.47517e-22
-3.67825e-21
-5.0098e-21
-4.85413e-21
-9.90092e-21
-7.82613e-21
-4.70889e-21
-2.80962e-21
-2.95489e-21
-1.67351e-21
-7.49605e-22
-7.36997e-22
-1.83546e-21
-5.79741e-22
-1.344e-21
-1.83975e-21
-5.14246e-21
-4.46766e-21
-2.62882e-21
3.24104e-23
9.04774e-22
-9.73906e-22
-9.11715e-21
-1.30073e-20
-1.28783e-20
-1.46821e-20
-1.11674e-20
-1.31141e-20
-1.57406e-20
-8.7457e-21
-1.27035e-20
-1.37737e-20
-8.4253e-21
-4.44381e-21
-5.33388e-21
-9.05509e-21
-9.54935e-21
-8.3041e-21
-5.02661e-21
-6.48134e-22
2.56887e-21
-2.06117e-21
-6.85319e-21
-1.10775e-20
-9.18708e-21
-7.98748e-21
-5.97775e-21
-1.06848e-21
4.99929e-22
-7.7613e-22
-1.17911e-21
-1.77613e-21
-3.27882e-21
1.26812e-21
-3.94667e-21
-1.67813e-21
-1.84116e-21
-4.33223e-21
-3.16469e-21
-2.13121e-21
-5.65101e-22
-2.5844e-22
-1.10288e-20
-1.44122e-20
-1.4601e-20
-1.20439e-20
-1.21114e-20
-1.67446e-20
-1.2374e-20
-1.1985e-20
-8.63292e-21
-1.15403e-20
-1.2627e-20
-7.43399e-21
-4.85256e-21
-9.19529e-21
-9.46404e-21
-1.01004e-20
-4.89276e-21
1.6436e-21
-2.80735e-22
-1.54614e-21
-6.42327e-21
-1.0308e-20
-8.75978e-21
-8.11491e-21
-7.47373e-21
1.21568e-22
-4.80308e-23
-6.04479e-22
-1.98537e-21
-8.9432e-22
1.57492e-22
-7.52698e-22
-1.88885e-21
-2.54979e-21
9.50088e-22
-3.93521e-21
-2.97289e-21
-1.819e-21
-6.59974e-22
-7.61449e-22
-1.63389e-20
-1.57258e-20
-1.4887e-20
-1.30773e-20
-1.37866e-20
-1.42463e-20
-1.41402e-20
-1.45236e-20
-1.41812e-20
-1.19045e-20
-1.07684e-20
-5.83143e-21
-6.91251e-21
-9.78617e-21
-7.42445e-21
-6.63369e-21
-4.28603e-21
-8.3699e-22
-1.56848e-21
-3.94204e-21
-5.7825e-21
-6.92e-21
-8.20842e-21
-5.97668e-21
-3.80153e-21
-4.00501e-22
-6.01998e-23
-1.68002e-21
-6.93737e-22
-2.52884e-22
-4.11274e-21
-1.71754e-21
1.35378e-21
-4.00306e-21
-1.8437e-21
-2.78618e-21
-3.43816e-21
-3.19308e-21
-7.77568e-22
-9.43897e-22
-1.92765e-20
-1.85716e-20
-1.49146e-20
-1.42252e-20
-1.19669e-20
-1.24732e-20
-1.41922e-20
-1.24539e-20
-1.10892e-20
-1.38782e-20
-9.48273e-21
-5.86872e-21
-8.97401e-21
-1.34794e-20
-8.80243e-21
-6.35034e-21
-3.24157e-21
4.09616e-22
-2.52352e-21
-3.74062e-21
-6.83928e-21
-8.37656e-21
-9.20991e-21
-7.8062e-21
-1.63279e-21
-3.36395e-22
1.51119e-22
-6.98863e-22
1.90838e-22
2.68881e-21
-2.2514e-21
-4.98977e-21
-1.26373e-21
-1.5307e-21
-1.53054e-21
-3.18457e-21
-3.87369e-21
-4.20767e-21
-1.98721e-22
-2.12688e-21
-1.2857e-20
-1.90974e-20
-1.75678e-20
-1.28733e-20
-9.81609e-21
-1.27318e-20
-1.79147e-20
-1.75733e-20
-1.19965e-20
-8.76903e-21
-6.98866e-21
-9.51703e-21
-9.38349e-21
-1.24841e-20
-5.72002e-21
-6.44734e-21
-4.65102e-21
-4.36246e-21
-4.57208e-21
-1.44602e-21
-8.59585e-21
-5.56323e-21
-5.92259e-21
-9.14199e-21
-9.87674e-22
-1.14756e-21
-1.5643e-21
-1.47842e-21
1.53314e-22
7.01212e-22
1.05696e-22
-1.95252e-21
-2.44586e-21
-9.19672e-22
-1.29129e-21
-3.22516e-21
-3.60978e-21
-3.76946e-21
-1.96584e-21
5.08527e-22
-1.40441e-20
-1.4243e-20
-1.72585e-20
-1.34031e-20
-1.38267e-20
-1.20586e-20
-1.62365e-20
-1.69334e-20
-1.04672e-20
-7.63221e-21
-1.17287e-20
-1.0526e-20
-8.11292e-21
-9.1416e-21
-9.07681e-21
-8.11227e-21
-4.84657e-21
-6.35888e-21
-3.55126e-21
-1.55359e-21
-9.22853e-21
-7.33407e-21
-4.62641e-21
-4.24922e-21
-1.14175e-21
-3.55593e-21
-5.03427e-21
-3.16953e-21
1.64373e-21
1.35294e-21
-5.26053e-22
-1.87499e-21
-2.15828e-21
-1.74063e-21
-1.832e-21
-1.61682e-21
-3.65917e-21
-2.94737e-21
-8.17323e-22
-3.63786e-22
-1.5123e-20
-1.36655e-20
-1.60303e-20
-1.13277e-20
-1.13124e-20
-1.31435e-20
-1.63309e-20
-1.81124e-20
-9.49828e-21
-9.94998e-21
-1.13412e-20
-1.35567e-20
-5.16444e-21
-8.22624e-21
-8.0072e-21
-7.50529e-21
-7.3056e-21
-4.98226e-21
-4.543e-21
-4.48451e-21
-8.26136e-21
-5.78975e-21
-4.40951e-21
-2.40169e-21
-2.1363e-21
-2.26014e-21
-3.4829e-21
-3.535e-21
1.66006e-22
-2.0816e-21
-2.87052e-22
-3.51222e-21
-1.79926e-21
-7.91746e-22
-2.50267e-22
-2.51048e-21
-3.84643e-21
-2.66729e-21
1.60759e-21
-1.88183e-21
-1.17336e-20
-1.47059e-20
-1.91651e-20
-1.16504e-20
-8.31562e-21
-1.31845e-20
-1.70203e-20
-1.61354e-20
-1.20292e-20
-9.85651e-21
-1.11356e-20
-1.16916e-20
-7.8653e-21
-6.95566e-21
-6.35739e-21
-1.03565e-20
-8.12351e-21
-4.67216e-22
-3.76651e-21
-5.79015e-21
-9.0751e-21
-8.57906e-21
-1.64492e-21
-1.60463e-21
1.02355e-21
-4.69837e-21
-3.87584e-21
-1.88411e-21
-1.9506e-21
-1.2514e-21
-1.44608e-21
-9.14288e-22
-5.18576e-22
-3.16892e-22
3.92491e-22
-2.66664e-21
-3.93343e-21
-2.7415e-21
2.64266e-22
-6.61112e-22
-1.00948e-20
-1.1546e-20
-1.43774e-20
-1.37094e-20
-1.24918e-20
-1.31299e-20
-1.41565e-20
-1.32935e-20
-1.26472e-20
-1.2547e-20
-1.06483e-20
-1.07852e-20
-8.17735e-21
-6.79772e-21
-6.39877e-21
-8.2341e-21
-8.4256e-21
-8.2429e-21
-1.04136e-20
-4.74514e-21
-6.29821e-21
-1.67941e-21
-2.26165e-21
-1.80711e-21
-1.13974e-22
-1.72946e-21
-3.03821e-21
-5.24694e-22
-7.42816e-22
-1.35682e-21
-4.66851e-21
-1.14043e-21
-1.1842e-22
-7.45688e-22
5.06772e-22
-1.29568e-21
-2.26467e-21
-2.23984e-21
-2.94323e-21
-2.53497e-21
-9.2372e-21
-1.08309e-20
-1.67876e-20
-1.51831e-20
-1.31047e-20
-1.09802e-20
-1.0639e-20
-1.6023e-20
-1.39207e-20
-1.3412e-20
-9.74308e-21
-9.78715e-21
-7.81064e-21
-7.85967e-21
-9.37633e-21
-8.82437e-21
-5.73909e-21
-4.94035e-21
-1.0803e-20
-5.52925e-21
-6.17981e-21
-4.88576e-21
-2.76627e-21
-1.41761e-21
6.31842e-22
8.92366e-22
-6.82103e-21
-3.11787e-21
-6.51437e-22
-5.27055e-22
-3.34223e-21
-7.05099e-22
-1.3312e-21
-9.34066e-22
-2.82519e-22
2.02699e-23
-2.46103e-21
-1.63005e-21
-2.76637e-21
-2.31563e-21
-1.1365e-20
-1.32735e-20
-1.5434e-20
-1.35799e-20
-1.24353e-20
-1.18069e-20
-1.08323e-20
-1.10866e-20
-1.35178e-20
-1.39288e-20
-1.61133e-20
-1.06607e-20
-7.64835e-21
-8.96003e-21
-9.87239e-21
-5.26188e-21
-7.37534e-21
-3.86734e-21
-6.74482e-21
-6.49679e-21
-5.10602e-21
-3.37565e-21
-2.08499e-21
-4.75204e-21
-4.09591e-21
2.4e-22
-2.92793e-21
-2.59778e-21
-1.89369e-21
-3.37854e-22
-2.44612e-21
-1.0178e-21
-3.48126e-21
1.90949e-21
5.24528e-22
-2.53714e-21
-2.16778e-21
-1.79806e-21
-5.46462e-22
-2.39981e-21
-1.65048e-20
-1.49816e-20
-1.36672e-20
-1.30538e-20
-1.27137e-20
-1.19609e-20
-1.18195e-20
-9.1706e-21
-1.16714e-20
-1.36863e-20
-1.5421e-20
-1.30216e-20
-9.58679e-21
-1.18271e-20
-9.18948e-21
-6.17349e-21
-3.98733e-21
-3.29059e-21
-6.94228e-21
-6.98225e-21
-5.56018e-21
-8.77265e-22
-3.63527e-21
-4.25824e-21
-1.80361e-21
-1.41768e-21
-4.61303e-21
-3.99791e-21
-2.08381e-21
-5.25311e-22
-2.30564e-21
2.44204e-22
-1.11937e-21
3.32745e-22
-1.4376e-21
-5.46493e-21
-1.45837e-21
-2.09615e-21
9.05428e-22
7.08388e-22
-1.67975e-20
-1.82596e-20
-1.28932e-20
-1.26595e-20
-1.30673e-20
-1.46141e-20
-1.09316e-20
-9.07349e-21
-1.39851e-20
-1.08696e-20
-1.37589e-20
-1.42113e-20
-1.10998e-20
-7.68222e-21
-7.33227e-21
-6.52791e-21
-4.96672e-21
-3.86272e-22
-8.31854e-22
-4.96658e-21
-6.84581e-21
-5.02848e-21
-6.39274e-21
-5.09539e-21
-2.59379e-21
-2.68314e-21
-2.73655e-21
-3.05616e-21
-1.70397e-21
-7.5831e-22
-3.69454e-21
-1.17667e-21
4.45474e-22
-1.59832e-22
-2.79235e-21
-3.83714e-21
-1.83119e-21
-3.44937e-22
-1.05967e-21
-6.42004e-22
-1.14091e-20
-1.41692e-20
-1.61086e-20
-1.18173e-20
-1.26171e-20
-1.38757e-20
-1.28933e-20
-1.3182e-20
-1.04752e-20
-1.30245e-20
-1.51072e-20
-1.45319e-20
-7.65623e-21
-1.00464e-20
-1.09748e-20
-4.37263e-21
1.54995e-23
-2.32578e-21
-3.69574e-21
-3.2945e-21
-5.26293e-21
-5.6121e-21
-6.15695e-21
-5.98195e-21
-5.26659e-21
-1.09647e-21
-1.90371e-21
-4.56811e-21
8.00765e-22
-1.62098e-21
-3.81532e-21
-5.63086e-22
-6.57031e-22
-3.31134e-21
-4.61684e-21
-3.2796e-21
-1.36293e-21
-4.75461e-22
-2.56146e-21
-2.63521e-21
-8.61269e-21
-1.39288e-20
-1.4371e-20
-1.34911e-20
-1.11047e-20
-1.41764e-20
-1.27612e-20
-1.21317e-20
-9.46339e-21
-1.40335e-20
-1.67283e-20
-1.3629e-20
-6.86774e-21
-7.98706e-21
-9.39084e-21
-3.26095e-21
-2.55155e-21
-6.5725e-21
-3.31413e-21
-6.96343e-22
-4.94034e-21
-5.03067e-21
-3.13489e-21
-4.7283e-21
-6.33495e-21
-5.12189e-21
-2.28095e-21
-1.58623e-21
-1.51085e-21
-2.18741e-21
-9.16396e-22
-2.45148e-21
-4.22824e-21
5.12255e-23
-5.63247e-21
-2.99773e-21
-1.24823e-21
-1.20796e-21
-2.3549e-21
-1.65997e-21
-1.26312e-20
-1.58957e-20
-1.55987e-20
-1.14652e-20
-1.01005e-20
-1.2606e-20
-1.25849e-20
-1.42786e-20
-8.80101e-21
-1.07169e-20
-1.74545e-20
-1.35717e-20
-7.10552e-21
-1.01705e-20
-4.09499e-21
-4.76499e-21
-5.60898e-21
-1.87054e-21
-8.50286e-22
-4.03745e-21
-3.34941e-21
-3.41061e-21
-9.23786e-21
-9.04541e-21
-6.31185e-21
-5.96462e-21
6.14822e-22
-4.58483e-21
-4.75394e-21
-1.0862e-22
-6.29033e-22
-2.44131e-21
-2.37035e-21
-1.14437e-21
-2.34183e-21
-1.69325e-21
-1.27421e-21
-3.6052e-21
-7.34541e-22
-3.06224e-23
-7.65307e-21
-1.27733e-20
-1.44583e-20
-1.7361e-20
-1.36367e-20
-1.40903e-20
-1.16576e-20
-8.32809e-21
-8.93685e-21
-1.19121e-20
-1.61875e-20
-1.30849e-20
-7.49636e-21
-8.37609e-21
-4.8583e-21
-8.98219e-21
-5.90477e-21
-3.17344e-21
1.67765e-21
-1.07752e-21
-1.7178e-21
-6.8132e-21
-6.7378e-21
-7.19069e-21
-7.7688e-21
-4.41884e-21
5.86301e-22
-8.69938e-22
-5.95872e-21
-1.35361e-21
1.54764e-21
-1.58103e-21
-2.44988e-21
-2.46812e-21
-6.26287e-21
-5.12061e-22
-5.94069e-22
-4.64836e-21
-4.336e-21
-1.96801e-21
-9.04136e-21
-1.34174e-20
-1.42548e-20
-1.53974e-20
-1.2358e-20
-1.24806e-20
-1.13924e-20
-1.10738e-20
-9.71337e-21
-1.13367e-20
-1.33098e-20
-9.45896e-21
-7.87765e-21
-7.097e-21
-8.40542e-21
-5.46438e-21
-5.91346e-21
-3.11556e-21
-6.44041e-22
-1.55656e-21
-3.20849e-21
-9.27796e-22
-4.73793e-21
-8.2019e-21
-7.56498e-21
-3.7378e-21
-9.26799e-22
-2.42243e-21
-3.41332e-21
-2.10218e-21
-1.00135e-21
-1.74024e-21
-4.02531e-21
-5.54119e-21
-4.4292e-21
-1.7573e-21
-1.89788e-21
-2.10136e-21
-1.14598e-21
1.66324e-22
-1.23016e-20
-1.77024e-20
-1.46861e-20
-1.10747e-20
-1.66696e-20
-1.2804e-20
-1.05778e-20
-8.47768e-21
-8.49585e-21
-1.18997e-20
-1.41533e-20
-5.84449e-21
-7.79917e-21
-9.14831e-21
-7.11675e-21
-7.54079e-21
-7.41427e-21
1.29467e-22
3.98756e-22
-6.94688e-23
-5.15586e-21
-4.56558e-21
-4.22663e-21
-5.07565e-21
-6.09348e-21
-4.11385e-21
-1.23055e-21
-3.01558e-21
-2.04606e-21
-3.85554e-21
-1.40082e-21
-3.97398e-22
-3.29206e-21
-2.88488e-21
-4.83111e-21
-3.44239e-21
-2.204e-21
-3.02024e-21
-9.84096e-22
1.18752e-21
-1.11449e-20
-1.52445e-20
-1.62501e-20
-1.26153e-20
-1.15393e-20
-1.57625e-20
-1.09185e-20
-5.41038e-21
-8.93215e-21
-1.47042e-20
-1.11732e-20
-8.77492e-21
-5.32074e-21
-1.01566e-20
-8.80279e-21
-8.0424e-21
-5.34046e-21
-2.94216e-21
3.21082e-22
3.64349e-21
-2.63368e-21
-6.70706e-21
-7.03339e-21
-5.47684e-21
-8.01692e-21
-5.41118e-21
-2.88092e-22
2.3971e-21
-1.60399e-21
-2.06695e-21
-2.03749e-21
-2.51198e-21
-4.66507e-21
-2.20961e-21
-3.24593e-21
-5.3458e-21
-2.09042e-21
5.88985e-22
-3.51793e-23
3.96988e-22
-1.21131e-20
-1.26735e-20
-1.22405e-20
-1.39097e-20
-1.27252e-20
-1.3046e-20
-1.04409e-20
-9.75876e-21
-9.39826e-21
-1.09218e-20
-9.36785e-21
-7.83636e-21
-7.9342e-21
-9.23822e-21
-7.03489e-21
-8.63444e-21
-4.75058e-21
-2.88774e-21
-3.48236e-22
4.37822e-23
-4.44585e-22
-8.2927e-21
-7.7746e-21
-6.52004e-21
-5.06701e-21
-3.58026e-21
-3.46395e-22
-7.6857e-22
-3.4055e-21
-2.56782e-21
-2.15035e-21
-1.85053e-21
-4.3956e-22
-1.14522e-21
-1.9995e-21
-6.15517e-21
-2.5833e-21
-8.13254e-22
-8.77224e-22
-5.3611e-22
-1.57744e-20
-1.45463e-20
-1.17188e-20
-1.22302e-20
-1.35974e-20
-1.36953e-20
-1.02123e-20
-9.14689e-21
-9.96396e-21
-8.59562e-21
-6.07702e-21
-8.96246e-21
-1.13839e-20
-1.08501e-20
-5.39662e-21
-7.02007e-21
-4.22735e-21
-1.33357e-21
1.3215e-21
-3.53373e-21
1.12534e-22
-3.75346e-21
-1.16278e-20
-6.55891e-21
-6.12849e-21
-6.5313e-21
7.82831e-22
1.30835e-21
-1.76929e-21
-3.59962e-21
-2.79579e-21
-3.59183e-21
2.13075e-21
-4.76291e-22
-2.83793e-21
-3.37868e-21
-1.98698e-21
5.7311e-22
-1.96459e-21
-1.69621e-21
-1.05719e-20
-9.99704e-21
-1.18289e-20
-9.15862e-21
-1.6914e-20
-1.47923e-20
-1.09296e-20
-1.01911e-20
-9.13003e-21
-7.89693e-21
-8.2976e-21
-7.07284e-21
-1.02587e-20
-7.54766e-21
-4.06195e-21
-6.37312e-21
-4.75723e-21
-2.19209e-21
1.85953e-21
-1.32557e-21
-1.61722e-21
-4.2566e-21
-8.95458e-21
-6.40455e-21
-7.89073e-21
-6.42824e-21
1.52042e-21
1.00332e-21
-1.96622e-21
-3.49945e-21
-2.71063e-21
-2.26255e-21
1.47734e-21
1.14447e-21
-2.32556e-21
-3.45952e-21
-2.00693e-21
-9.05462e-22
-1.31105e-21
-7.24347e-22
-1.14141e-20
-1.07156e-20
-1.18263e-20
-1.37072e-20
-1.42039e-20
-1.0946e-20
-1.12972e-20
-8.80324e-21
-1.06293e-20
-6.42931e-21
-6.4352e-21
-1.14562e-20
-8.92251e-21
-6.68523e-21
-6.50745e-21
-5.05722e-21
-4.27111e-21
-6.68643e-22
4.43781e-22
-9.18093e-22
9.66497e-22
-6.83668e-21
-6.9382e-21
-7.20503e-21
-4.6777e-21
-4.36237e-21
-2.30206e-21
-2.7739e-21
-8.00873e-22
-1.97127e-21
-2.22383e-21
-5.13778e-22
1.33114e-22
-4.15566e-22
-1.32043e-21
-1.32486e-21
-1.31107e-21
1.70999e-21
-2.0039e-21
-2.52573e-21
-1.20614e-20
-9.66543e-21
-9.6279e-21
-9.72925e-21
-1.31694e-20
-1.4479e-20
-1.24235e-20
-1.2737e-20
-1.09697e-20
-7.52421e-21
-2.56312e-21
-9.49493e-21
-3.16086e-21
-4.2864e-21
-6.20347e-21
-6.55303e-21
-5.78356e-21
-1.78746e-22
3.09597e-21
-5.4062e-22
-6.74667e-22
-8.16962e-21
-5.5114e-21
-5.59079e-21
-4.25182e-21
-3.06757e-21
-4.44828e-21
-6.42424e-21
-1.0428e-21
-2.37897e-21
-2.11042e-21
-1.72806e-21
-1.98624e-21
-1.5548e-21
-1.17641e-21
6.78854e-22
-2.1736e-22
1.61429e-21
1.16997e-21
-1.62481e-22
-8.23572e-21
-9.90105e-21
-1.08139e-20
-8.98517e-21
-8.72209e-21
-1.73885e-20
-1.07328e-20
-1.14336e-20
-1.09344e-20
-9.99023e-21
-8.52986e-21
-2.8131e-21
-5.1048e-21
-3.99501e-21
-4.86584e-21
-5.57419e-21
-6.1225e-21
-1.75763e-21
2.05988e-22
-1.46733e-22
-1.61727e-21
-3.09622e-21
-5.50127e-21
-7.3554e-21
-4.18431e-21
-1.9108e-21
-1.09679e-21
-1.18391e-21
-3.85582e-21
-2.17331e-21
-3.42786e-21
-2.14781e-21
2.44999e-22
-1.24218e-21
-2.96141e-21
-5.42928e-22
4.52593e-22
2.41714e-21
7.07666e-22
-1.10548e-21
-7.06154e-21
-9.30643e-21
-1.09435e-20
-1.01371e-20
-9.88225e-21
-1.22002e-20
-1.09422e-20
-1.02085e-20
-1.06086e-20
-8.6121e-21
-7.1573e-21
-5.03029e-21
-6.02868e-21
-3.42413e-21
-5.45667e-21
-5.92364e-21
-4.10344e-21
7.08397e-23
3.04469e-21
-2.34855e-21
-1.94929e-21
-3.52865e-21
-4.68732e-21
-6.01657e-21
-5.85297e-21
-4.08454e-21
-1.77503e-21
-9.08165e-23
-8.59235e-22
-2.08862e-21
-5.28923e-21
-1.08043e-21
-1.41745e-21
-1.7134e-21
-3.65614e-21
-2.83516e-22
1.99752e-21
9.2465e-22
-3.64719e-23
-1.08133e-22
-5.39073e-21
-8.43026e-21
-1.18249e-20
-7.38122e-21
-7.27483e-21
-1.05408e-20
-9.56764e-21
-8.90647e-21
-9.6737e-21
-8.37356e-21
-4.0843e-21
-7.49532e-21
-7.41811e-21
-6.18536e-21
-1.80827e-21
-1.80383e-21
-9.2885e-22
-3.6486e-21
-5.36803e-22
-1.10293e-21
-1.64832e-21
-2.88239e-21
-4.08522e-21
-6.09822e-21
-1.92278e-21
-6.86019e-22
-2.39472e-21
-8.42156e-22
6.53676e-22
-2.74033e-21
-6.55712e-21
-4.07774e-21
-2.12809e-21
-8.00115e-22
-5.15384e-21
-2.45015e-21
1.78163e-21
2.40018e-21
5.96905e-22
-7.94852e-22
-6.92794e-21
-8.08215e-21
-1.00787e-20
-6.7627e-21
-7.9945e-21
-9.58717e-21
-7.34364e-21
-4.56315e-21
-9.28435e-21
-8.96317e-21
-5.34435e-21
-5.5965e-21
-5.71904e-21
-5.17765e-21
-4.6592e-21
-2.30524e-21
-2.60839e-21
5.87863e-22
-4.02198e-22
1.40473e-22
1.21561e-21
-2.81956e-21
-3.36739e-21
-7.17026e-21
-7.13144e-21
-2.98654e-23
4.07828e-22
5.25278e-22
-8.63323e-22
-4.28839e-21
-1.93358e-21
-4.45987e-21
-3.22397e-21
-1.63862e-21
-1.99272e-21
-4.32556e-21
-1.31595e-21
-2.33682e-22
2.27073e-21
2.85298e-22
-5.59336e-21
-7.28139e-21
-6.57899e-21
-2.55247e-21
-1.50513e-21
-4.69846e-21
-7.52866e-21
-4.37374e-21
-6.6081e-21
-6.03656e-21
-2.19411e-21
-2.09355e-21
-5.29e-21
-3.58439e-21
-2.74097e-21
-1.33247e-21
6.51018e-22
1.4712e-21
5.78349e-22
2.14176e-21
-3.29728e-22
-5.25448e-21
-3.54126e-21
-2.54063e-21
-2.95804e-21
-3.71808e-22
-6.54132e-22
-2.16269e-22
1.66011e-22
5.48263e-22
-1.84247e-21
-8.70167e-22
-2.60034e-21
-2.91837e-21
-6.92708e-22
-5.86307e-21
-3.78507e-21
-1.85317e-21
7.6395e-22
4.69421e-22
-4.25874e-21
-8.15385e-21
-1.16667e-20
-7.9305e-21
-7.13347e-21
-9.23402e-21
-5.04864e-21
-2.18549e-21
-1.09659e-20
-8.74574e-21
-4.6909e-21
-9.28062e-21
-6.41329e-21
-2.85007e-21
-4.58646e-21
-7.24575e-21
-4.18227e-21
3.49645e-22
-4.88696e-22
-2.18356e-21
-3.25684e-21
-3.73877e-21
-3.86495e-21
-2.42461e-21
-3.4041e-21
-2.53946e-21
-2.63179e-21
-3.84989e-21
-5.9455e-21
-4.29614e-21
-3.61337e-21
-4.07046e-24
-1.55044e-21
-1.78924e-21
-2.15879e-21
-3.46836e-21
-2.05519e-21
-2.63412e-21
-2.08584e-22
1.57197e-21
-5.79867e-21
-9.83267e-21
-1.55117e-20
-1.30263e-20
-9.7616e-21
-1.26086e-20
-1.08716e-20
-4.80605e-21
-9.55012e-21
-1.48731e-20
-1.33934e-20
-1.0726e-20
-9.34279e-21
-6.94794e-21
-7.09785e-21
-5.98812e-21
-5.93221e-21
-3.88921e-21
-3.54523e-21
-3.09423e-21
-2.5957e-21
-3.60408e-21
-4.68761e-21
-5.33588e-21
-4.87057e-21
-3.22103e-21
-1.45576e-21
-1.46563e-21
-7.78007e-21
-3.13587e-21
-5.18671e-22
1.14262e-21
-3.62508e-21
-1.76406e-21
-5.18752e-21
-1.97084e-21
-1.23583e-21
-1.00853e-21
2.70841e-22
8.07407e-22
-9.68973e-21
-1.07587e-20
-1.33321e-20
-1.42338e-20
-1.2881e-20
-1.20498e-20
-1.17104e-20
-1.15165e-20
-1.36724e-20
-1.60374e-20
-1.10624e-20
-8.58224e-21
-5.19874e-21
-6.36152e-21
-9.14598e-21
-7.34559e-21
-8.70231e-21
-5.65816e-21
-4.89639e-22
-2.10401e-21
-4.68857e-21
-3.18355e-21
-1.41303e-21
-4.04566e-21
-5.73899e-21
-3.06188e-21
-2.3906e-21
-4.24703e-21
-2.7046e-21
-3.43584e-21
-5.26994e-21
-2.35639e-21
-9.50972e-22
-1.31117e-22
-5.92242e-21
-4.19387e-21
1.04336e-21
7.96849e-22
6.81807e-22
8.12031e-22
-1.56202e-20
-1.47127e-20
-1.33305e-20
-1.75004e-20
-1.5413e-20
-1.33916e-20
-1.3834e-20
-1.12271e-20
-1.30249e-20
-1.31574e-20
-1.13247e-20
-1.25402e-20
-8.5768e-21
-5.21208e-21
-7.58697e-21
-7.77383e-21
-7.1272e-21
-5.64168e-21
-2.91384e-21
-1.5788e-21
-4.81338e-21
-4.73083e-21
-4.83628e-21
-4.09174e-21
-3.71325e-21
-3.59161e-21
-2.3607e-21
-6.21321e-23
-2.17287e-21
-5.65512e-21
-4.49141e-21
-1.36336e-21
-2.35406e-21
-3.69621e-21
-2.84662e-21
-1.31495e-21
1.18427e-21
2.15567e-21
-6.84266e-22
-1.53699e-21
-1.55694e-20
-1.5201e-20
-1.40415e-20
-1.42725e-20
-1.92992e-20
-1.77389e-20
-1.42963e-20
-1.01657e-20
-1.01954e-20
-1.37922e-20
-1.22897e-20
-1.2388e-20
-7.04901e-21
-6.79225e-21
-9.51037e-21
-1.03874e-20
-8.61796e-21
-5.22385e-21
-4.70948e-21
-1.63363e-21
-3.90714e-21
-4.60486e-21
-6.3286e-21
-3.64253e-21
-5.40202e-21
-2.93436e-21
-3.23188e-21
-3.03436e-21
-1.67518e-21
-2.00795e-21
-1.81816e-21
-3.45821e-21
3.70309e-22
-2.1656e-22
-2.63037e-21
-1.26584e-21
9.46635e-22
1.04556e-21
-1.98612e-21
-3.49543e-22
-1.40284e-20
-1.50642e-20
-1.4206e-20
-1.4916e-20
-1.89346e-20
-1.90241e-20
-1.26528e-20
-1.39521e-20
-1.43981e-20
-1.26953e-20
-1.14759e-20
-1.21903e-20
-9.52115e-21
-6.1935e-21
-9.95074e-21
-9.96583e-21
-9.20348e-21
-5.97751e-21
-3.84154e-21
-2.1919e-21
-3.77361e-21
-6.74012e-21
-6.57832e-21
-4.08142e-21
-4.7764e-21
-4.10645e-21
-3.02211e-21
-1.95878e-21
-2.91858e-21
-2.697e-21
-2.86365e-21
-3.91253e-22
4.48782e-21
-1.10047e-21
-2.46412e-21
-2.34803e-21
-1.08163e-21
5.78921e-22
7.48942e-22
-2.96429e-22
-1.66932e-20
-1.95884e-20
-1.63352e-20
-1.55983e-20
-1.72389e-20
-1.75931e-20
-1.68329e-20
-1.49151e-20
-1.56332e-20
-1.35016e-20
-1.30631e-20
-1.15302e-20
-9.50046e-21
-6.89355e-21
-1.06607e-20
-8.92196e-21
-6.21819e-21
-4.47522e-21
-3.10838e-21
-2.68415e-21
-4.1683e-21
-6.98302e-21
-7.03499e-21
-5.55238e-21
-3.78106e-21
-5.33154e-21
-4.21673e-21
-2.11536e-21
8.88516e-22
-1.21579e-21
-3.98912e-21
-5.17305e-22
1.0412e-21
1.61936e-21
-4.04327e-21
-4.30694e-21
-1.49364e-22
1.87345e-21
-1.03072e-21
-3.79976e-21
-1.63478e-20
-1.83444e-20
-1.64105e-20
-1.6546e-20
-1.88421e-20
-1.60165e-20
-1.65682e-20
-1.82629e-20
-1.77409e-20
-1.57688e-20
-1.25202e-20
-1.13799e-20
-7.18195e-21
-4.95978e-21
-1.20822e-20
-1.08235e-20
-6.78451e-21
-4.55774e-21
-2.15436e-21
-3.66987e-21
-4.28795e-21
-8.11378e-21
-9.03461e-21
-4.25257e-21
-5.87158e-21
-4.13653e-21
-5.89541e-22
-9.75078e-22
-3.07582e-22
-2.70642e-21
-6.34025e-21
-1.63e-21
-8.99665e-22
-2.74968e-21
-3.19546e-21
-1.03303e-21
9.74914e-22
1.63331e-21
-8.70294e-22
-1.29887e-21
-1.86065e-20
-2.03492e-20
-1.96149e-20
-1.67091e-20
-1.79482e-20
-1.75769e-20
-1.82265e-20
-1.75241e-20
-1.6923e-20
-1.55777e-20
-1.44428e-20
-1.21679e-20
-6.04929e-21
-9.2022e-21
-9.37659e-21
-9.91223e-21
-9.8495e-21
-3.95938e-21
-4.10979e-21
-5.37353e-21
-2.08026e-21
-1.04225e-20
-8.43826e-21
-8.02343e-21
-3.45609e-21
-1.82837e-21
-2.55207e-21
-1.85517e-21
2.13128e-21
-1.92186e-21
-4.69753e-21
-3.82104e-21
-2.37283e-21
-7.64037e-22
-2.28925e-21
-8.42434e-23
-1.99148e-22
9.30726e-22
1.82568e-21
-1.83748e-21
-1.91716e-20
-1.81643e-20
-1.77588e-20
-1.97484e-20
-1.99358e-20
-1.89735e-20
-2.13016e-20
-1.68159e-20
-1.32114e-20
-1.42552e-20
-1.31862e-20
-1.29977e-20
-1.00568e-20
-1.18576e-20
-1.08688e-20
-7.15617e-21
-6.4059e-21
-5.90781e-21
-6.93731e-22
-2.67347e-21
-6.36977e-21
-1.13451e-20
-1.02232e-20
-8.30647e-21
-4.22564e-21
-2.5812e-21
-2.18557e-21
-1.8093e-21
-1.00657e-21
-2.83535e-21
-2.46328e-21
-1.97734e-21
-2.93694e-21
-1.22519e-21
-1.92901e-21
-5.29013e-22
1.27963e-21
-9.00213e-23
2.22611e-21
-9.11994e-22
-1.8628e-20
-2.22307e-20
-2.16486e-20
-2.00795e-20
-1.94115e-20
-1.80133e-20
-1.83022e-20
-1.71197e-20
-1.54117e-20
-1.51406e-20
-1.31615e-20
-1.17337e-20
-1.09464e-20
-1.10614e-20
-1.09123e-20
-1.05865e-20
-5.11716e-21
-3.10743e-21
-3.51183e-22
-4.37639e-21
-8.62078e-21
-9.02009e-21
-1.12066e-20
-1.31529e-20
-3.12049e-21
-4.04352e-22
-1.40745e-21
-2.29202e-21
-5.92716e-22
-3.13669e-21
-3.62255e-21
-1.81432e-21
-1.20059e-21
-1.65793e-21
-1.95225e-21
6.90554e-23
-1.00163e-21
-1.81337e-21
-1.96669e-21
-2.25772e-21
-2.16696e-20
-2.34295e-20
-2.06726e-20
-1.84714e-20
-1.66794e-20
-1.93006e-20
-1.90016e-20
-1.6926e-20
-1.38283e-20
-1.62893e-20
-1.38988e-20
-1.1669e-20
-1.27344e-20
-1.0132e-20
-1.14921e-20
-1.09678e-20
-8.10935e-21
-2.34725e-21
-9.22508e-22
-4.37246e-21
-7.2208e-21
-8.63663e-21
-9.91809e-21
-1.23076e-20
-3.7079e-21
-2.36579e-21
-3.10327e-21
-1.23361e-21
1.30818e-21
-4.00619e-21
-4.3682e-21
-1.92584e-21
-1.43221e-21
-1.41106e-21
-1.62929e-21
-1.24936e-21
-2.59891e-22
-1.59935e-21
-2.52085e-21
-1.41407e-21
-2.42289e-20
-2.37475e-20
-1.97114e-20
-2.04297e-20
-1.8601e-20
-2.03441e-20
-1.84791e-20
-1.75116e-20
-1.70385e-20
-1.50672e-20
-1.18099e-20
-1.2191e-20
-1.32602e-20
-9.61403e-21
-1.11824e-20
-8.03546e-21
-5.01196e-21
-3.43607e-21
-6.00449e-21
-6.19295e-21
-6.54885e-21
-6.15402e-21
-9.76749e-21
-9.38403e-21
-4.19723e-21
-1.12571e-21
-2.78315e-22
-1.09214e-21
-1.44652e-21
-1.50086e-21
-4.18354e-21
-3.20302e-21
-1.15621e-22
-2.35465e-21
-6.85727e-21
-6.20872e-23
8.36542e-22
-3.80739e-21
-1.85526e-21
1.46543e-21
-2.70875e-20
-2.50392e-20
-2.05873e-20
-2.04585e-20
-1.80099e-20
-1.86927e-20
-1.87411e-20
-1.63905e-20
-1.69749e-20
-1.69007e-20
-1.30348e-20
-9.78419e-21
-1.33421e-20
-1.11836e-20
-1.34333e-20
-8.06704e-21
-8.03201e-21
-4.74826e-21
-4.34077e-21
-2.57284e-21
-7.17632e-21
-8.67033e-21
-8.24475e-21
-8.01695e-21
-3.47913e-21
-1.02296e-21
-1.67368e-21
-9.46705e-22
2.08713e-22
-7.52502e-22
-4.44022e-21
-2.32633e-21
-9.35494e-22
-3.60265e-21
-4.95959e-21
-7.81637e-22
1.25404e-21
-2.33273e-21
-1.47026e-21
3.77462e-22
-2.81569e-20
-2.38325e-20
-2.05961e-20
-1.88328e-20
-1.71241e-20
-1.65809e-20
-2.01549e-20
-1.74807e-20
-1.62811e-20
-1.45025e-20
-1.19922e-20
-1.24302e-20
-1.41471e-20
-1.15498e-20
-1.08477e-20
-9.27527e-21
-3.62445e-21
-5.92446e-21
-7.39227e-21
-5.0224e-21
-6.93805e-21
-1.00447e-20
-9.4701e-21
-5.38751e-21
-1.58784e-21
-3.10578e-21
-1.7842e-21
-5.99738e-22
-1.31297e-21
-5.64649e-22
-4.69812e-21
-2.56387e-21
-9.02833e-22
-7.43756e-22
-3.27274e-21
-3.3118e-21
-2.2125e-22
-4.48655e-22
-4.36268e-22
1.33104e-22
-2.47021e-20
-2.45614e-20
-2.27332e-20
-1.9315e-20
-1.85237e-20
-1.89783e-20
-1.90281e-20
-1.78609e-20
-1.56349e-20
-1.199e-20
-1.35472e-20
-1.523e-20
-1.52279e-20
-1.10724e-20
-1.01766e-20
-6.6295e-21
-5.51485e-21
-7.49932e-21
-6.8312e-21
-5.51371e-21
-6.9463e-21
-1.01627e-20
-8.86878e-21
-4.40861e-21
-6.11647e-23
-5.10471e-21
-3.3827e-21
-2.18107e-21
-2.32385e-21
-1.29743e-21
-1.85764e-21
-2.49169e-21
-6.90413e-22
-4.46641e-22
-3.45952e-21
-1.33885e-21
-6.67495e-22
-2.07498e-21
2.06309e-23
-1.21299e-21
-2.24545e-20
-2.21393e-20
-2.23591e-20
-1.83621e-20
-2.19816e-20
-1.89675e-20
-1.98138e-20
-1.89472e-20
-1.65926e-20
-1.10085e-20
-1.25791e-20
-1.50855e-20
-1.4265e-20
-1.23208e-20
-9.81453e-21
-5.86507e-21
-4.23578e-21
-7.17097e-21
-1.10226e-20
-7.63671e-21
-9.13556e-21
-6.85195e-21
-4.49645e-21
-4.24801e-21
-5.4303e-22
-4.15169e-21
-2.89089e-21
-3.71492e-21
-3.77015e-21
-1.70893e-21
-1.31865e-21
-1.90339e-21
-1.2359e-21
-3.31732e-21
-3.73529e-21