/*--------------------------------*- C++ -*----------------------------------*\
| =========                 |                                                 |
| \\      /  F ield         | OpenFOAM: The Open Source CFD Toolbox           |
|  \\    /   O peration     | Version:  v2012                                 |
|   \\  /    A nd           | Website:  www.openfoam.com                      |
|    \\/     M anipulation  |                                                 |
\*---------------------------------------------------------------------------*/
FoamFile
{
    version     2.0;
    format      ascii;
    class       surfaceScalarField;
    location    "26";
    object      phi;
}
// * * * * * * * * * * * * * * * * * * * * * * * * * * * * * * * * * * * * * //

dimensions      [0 3 -1 0 0 0 0];
oriented        oriented;


internalField   nonuniform List<scalar> 
187200
(
1.875e-06
1.72099e-22
1.99299e-22
1.875e-06
2.54039e-22
3.01261e-22
1.875e-06
3.37046e-22
4.48255e-22
1.875e-06
2.86483e-22
3.16957e-22
1.875e-06
3.05227e-22
2.02593e-22
1.875e-06
4.54423e-22
3.24271e-22
1.875e-06
3.43685e-22
2.34555e-22
1.875e-06
2.06784e-22
2.08221e-22
1.875e-06
2.38968e-22
3.76616e-22
1.875e-06
3.50889e-22
3.47353e-22
1.875e-06
2.65943e-22
2.32262e-22
1.875e-06
2.52276e-22
2.63448e-22
1.875e-06
1.73552e-22
2.21746e-22
1.875e-06
1.25308e-22
7.92703e-23
1.875e-06
1.52254e-22
1.78986e-22
1.875e-06
1.08565e-22
1.99932e-22
1.875e-06
1.70971e-22
1.75811e-22
1.875e-06
4.56086e-23
5.95523e-23
1.875e-06
8.35066e-23
4.5843e-23
1.875e-06
5.78203e-23
9.68247e-23
1.875e-06
-4.74394e-24
1.20331e-22
1.875e-06
1.12388e-22
1.2188e-22
1.875e-06
1.63039e-22
1.38075e-22
1.875e-06
2.84772e-22
9.49096e-23
1.875e-06
1.43824e-22
3.41468e-23
1.875e-06
9.43407e-23
9.3253e-23
1.875e-06
1.58479e-22
2.02985e-22
1.875e-06
4.64203e-23
1.08898e-22
1.875e-06
3.11774e-23
9.74775e-23
1.875e-06
1.64249e-23
1.27594e-22
1.875e-06
-5.68932e-23
1.50972e-22
1.875e-06
-3.43756e-25
4.96953e-23
1.875e-06
9.39672e-23
4.9735e-23
1.875e-06
6.52536e-23
5.36457e-23
1.875e-06
2.4932e-23
4.19837e-23
1.875e-06
-6.35209e-23
-2.84746e-23
1.875e-06
-4.92955e-23
-1.40404e-24
1.875e-06
-9.6665e-23
1.10462e-22
1.875e-06
-1.1602e-22
1.18083e-22
-9.18514e-23
4.37127e-23
1.875e-06
9.74923e-23
2.30114e-22
1.875e-06
1.62436e-22
4.76464e-22
1.875e-06
2.96376e-22
6.92629e-22
1.875e-06
3.14453e-22
6.7088e-22
1.875e-06
2.41933e-22
5.00743e-22
1.875e-06
2.929e-22
5.05427e-22
1.875e-06
3.29351e-22
5.76976e-22
1.875e-06
3.9103e-22
5.42014e-22
1.875e-06
3.35069e-22
6.16477e-22
1.875e-06
2.45785e-22
6.97113e-22
1.875e-06
2.20904e-22
6.89808e-22
1.875e-06
1.53508e-22
4.90322e-22
1.875e-06
2.21708e-22
5.02835e-22
1.875e-06
1.40852e-22
4.21711e-22
1.875e-06
8.05957e-23
3.8032e-22
1.875e-06
2.48501e-23
3.24069e-22
1.875e-06
1.78358e-22
3.38075e-22
1.875e-06
2.73913e-22
4.05306e-22
1.875e-06
5.25151e-23
2.65905e-22
1.875e-06
2.39427e-23
2.1727e-22
1.875e-06
1.90336e-22
2.38049e-22
1.875e-06
9.91606e-23
1.63381e-22
1.875e-06
1.31267e-22
1.35013e-22
1.875e-06
8.77593e-23
5.53326e-23
1.875e-06
4.15916e-23
1.02482e-22
1.875e-06
1.15173e-22
1.61803e-22
1.875e-06
1.26602e-22
9.58835e-23
1.875e-06
5.1813e-23
9.54381e-23
1.875e-06
-1.02086e-22
2.46598e-22
1.875e-06
3.13821e-24
2.15958e-22
1.875e-06
1.00633e-22
1.95032e-22
1.875e-06
7.73918e-23
7.06046e-23
1.875e-06
5.11974e-23
5.78872e-23
1.875e-06
-6.71162e-23
5.32139e-23
1.875e-06
-2.29509e-23
1.67366e-22
1.875e-06
7.24631e-23
3.64802e-23
1.875e-06
-1.82271e-22
-4.85381e-23
1.875e-06
-2.05987e-22
-3.65605e-23
1.875e-06
2.20142e-23
7.65623e-23
1.89112e-23
1.14272e-22
1.875e-06
1.94476e-22
3.51118e-22
1.875e-06
1.8306e-22
5.42166e-22
1.875e-06
1.28029e-22
6.53244e-22
1.875e-06
2.869e-22
7.51541e-22
1.875e-06
3.19006e-22
7.07901e-22
1.875e-06
2.87284e-22
6.05926e-22
1.875e-06
2.52652e-22
7.00452e-22
1.875e-06
2.32125e-22
7.43293e-22
1.875e-06
2.25521e-22
7.85189e-22
1.875e-06
2.18653e-22
8.36931e-22
1.875e-06
2.14798e-22
7.3954e-22
1.875e-06
2.27302e-22
5.91575e-22
1.875e-06
1.8297e-22
4.36345e-22
1.875e-06
1.33003e-22
4.72828e-22
1.875e-06
1.46069e-22
5.09802e-22
1.875e-06
1.54176e-22
5.32061e-22
1.875e-06
3.73036e-23
4.60817e-22
1.875e-06
1.05515e-22
4.0152e-22
1.875e-06
3.49641e-23
2.44512e-22
1.875e-06
1.2901e-22
3.2469e-22
1.875e-06
1.09626e-22
2.40818e-22
1.875e-06
1.98798e-22
1.28242e-22
1.875e-06
1.20003e-22
2.93404e-23
1.875e-06
7.75502e-23
5.00303e-23
1.875e-06
1.14496e-22
1.9077e-22
1.875e-06
8.89075e-23
1.38017e-22
1.875e-06
2.4158e-23
8.38138e-23
1.875e-06
-6.72121e-23
1.25525e-22
1.875e-06
-3.31893e-23
2.08899e-22
1.875e-06
1.46473e-23
2.32145e-22
1.875e-06
-2.08823e-23
2.92888e-22
1.875e-06
2.8948e-23
1.92496e-22
1.875e-06
-4.51739e-23
1.36969e-24
1.875e-06
-5.53542e-24
4.28072e-23
1.875e-06
-9.17527e-24
1.47916e-22
1.875e-06
-6.96294e-23
2.60189e-23
1.875e-06
-6.6637e-23
5.62052e-23
1.875e-06
7.49237e-23
6.91534e-23
1.875e-06
2.29863e-23
8.13534e-23
9.46092e-23
6.43418e-23
1.875e-06
2.13384e-22
4.30309e-22
1.875e-06
1.66112e-22
7.04107e-22
1.875e-06
1.40765e-22
7.45306e-22
1.875e-06
1.02379e-22
8.09628e-22
1.875e-06
1.61643e-22
7.71749e-22
1.875e-06
1.9837e-22
6.66505e-22
1.875e-06
2.15574e-22
7.84485e-22
1.875e-06
1.72878e-22
8.17697e-22
1.875e-06
1.94448e-22
8.02805e-22
1.875e-06
2.40374e-22
8.08887e-22
1.875e-06
2.13385e-22
8.17633e-22
1.875e-06
1.32768e-22
7.49466e-22
1.875e-06
1.08076e-22
5.42713e-22
1.875e-06
7.29874e-23
5.06962e-22
1.875e-06
2.24012e-22
5.38701e-22
1.875e-06
4.17497e-22
5.44684e-22
1.875e-06
1.52694e-22
5.09873e-22
1.875e-06
-3.51554e-23
4.19804e-22
1.875e-06
1.2464e-22
4.01057e-22
1.875e-06
6.72496e-23
2.46018e-22
1.875e-06
6.64574e-25
2.51811e-22
1.875e-06
4.54242e-23
1.22398e-22
1.875e-06
2.00018e-22
5.27148e-23
1.875e-06
1.13409e-22
1.12734e-22
1.875e-06
2.80167e-23
1.48085e-22
1.875e-06
5.48262e-23
1.78613e-22
1.875e-06
2.73968e-23
1.3634e-22
1.875e-06
6.80634e-23
1.07145e-22
1.875e-06
8.80046e-23
1.76075e-22
1.875e-06
-6.37292e-23
2.3654e-22
1.875e-06
-2.34691e-23
2.70674e-22
1.875e-06
-6.86687e-23
1.75494e-22
1.875e-06
-1.44953e-22
1.2473e-22
1.875e-06
-9.10229e-23
1.57333e-22
1.875e-06
-3.63501e-23
5.4565e-23
1.875e-06
-2.28388e-23
-3.75314e-23
1.875e-06
8.83429e-24
5.2601e-23
1.875e-06
-1.16022e-23
-1.09606e-22
1.875e-06
1.12822e-22
5.79498e-23
1.31328e-22
1.11308e-22
1.875e-06
-3.10532e-23
2.5956e-22
1.875e-06
1.08565e-22
7.06486e-22
1.875e-06
6.96284e-23
7.55345e-22
1.875e-06
1.18665e-22
7.96949e-22
1.875e-06
1.53649e-22
9.15031e-22
1.875e-06
8.15006e-23
8.71406e-22
1.875e-06
1.05385e-22
8.85702e-22
1.875e-06
3.66709e-22
8.96332e-22
1.875e-06
3.24639e-22
8.25756e-22
1.875e-06
1.81983e-22
8.41845e-22
1.875e-06
1.26295e-22
8.37682e-22
1.875e-06
1.38983e-22
8.02041e-22
1.875e-06
1.99019e-22
5.46354e-22
1.875e-06
1.54577e-22
6.21418e-22
1.875e-06
1.26528e-22
5.47943e-22
1.875e-06
1.19999e-22
4.81065e-22
1.875e-06
1.69681e-22
5.05924e-22
1.875e-06
4.47717e-23
4.79882e-22
1.875e-06
-2.43304e-23
4.15734e-22
1.875e-06
4.96589e-23
2.36385e-22
1.875e-06
3.42305e-23
2.50173e-22
1.875e-06
2.86974e-24
1.16233e-22
1.875e-06
1.39664e-22
6.52896e-23
1.875e-06
1.3383e-22
1.33719e-22
1.875e-06
8.11385e-23
2.8939e-22
1.875e-06
4.15455e-23
2.05417e-22
1.875e-06
9.98701e-23
2.04983e-22
1.875e-06
1.61228e-23
1.69711e-22
1.875e-06
-7.06369e-23
9.19706e-23
1.875e-06
1.9059e-23
1.78428e-22
1.875e-06
6.17621e-23
2.4401e-22
1.875e-06
9.21657e-23
2.9664e-22
1.875e-06
-3.70784e-25
1.48021e-22
1.875e-06
-7.72035e-23
1.07804e-22
1.875e-06
-7.84287e-23
5.50588e-23
1.875e-06
-1.97312e-23
-4.96105e-23
1.875e-06
1.13422e-22
2.86144e-23
1.875e-06
4.55288e-23
-3.17455e-23
1.875e-06
2.99693e-23
-5.76406e-25
-3.03787e-23
1.34092e-23
1.875e-06
2.30168e-23
3.1067e-22
1.875e-06
9.38083e-23
6.55905e-22
1.875e-06
9.74047e-23
7.59234e-22
1.875e-06
6.16123e-23
7.98275e-22
1.875e-06
9.12971e-23
9.59877e-22
1.875e-06
1.33077e-22
9.9074e-22
1.875e-06
1.72404e-22
9.55609e-22
1.875e-06
2.27174e-22
9.59331e-22
1.875e-06
2.8459e-22
8.90386e-22
1.875e-06
2.13518e-22
8.11703e-22
1.875e-06
1.65163e-22
8.49342e-22
1.875e-06
1.67889e-22
8.0563e-22
1.875e-06
1.2814e-22
6.56983e-22
1.875e-06
2.39243e-22
6.30233e-22
1.875e-06
1.56107e-22
5.69389e-22
1.875e-06
6.95252e-23
5.18019e-22
1.875e-06
4.96828e-23
5.43861e-22
1.875e-06
-2.95839e-23
5.03639e-22
1.875e-06
-4.34219e-23
3.98279e-22
1.875e-06
1.70348e-24
2.13921e-22
1.875e-06
1.08182e-22
2.43751e-22
1.875e-06
1.77825e-22
2.76344e-22
1.875e-06
1.58799e-22
8.93727e-23
1.875e-06
1.66811e-22
1.52355e-22
1.875e-06
5.22962e-23
2.671e-22
1.875e-06
7.83013e-23
2.46536e-22
1.875e-06
1.86654e-23
1.80543e-22
1.875e-06
-2.60348e-23
1.36544e-22
1.875e-06
-9.02529e-23
1.55722e-22
1.875e-06
-9.03565e-23
1.63963e-22
1.875e-06
6.60266e-23
1.81034e-22
1.875e-06
5.15124e-23
1.07526e-22
1.875e-06
9.54537e-23
-3.17171e-24
1.875e-06
6.1126e-23
1.46952e-22
1.875e-06
1.81302e-23
1.50223e-22
1.875e-06
8.90969e-23
3.20555e-23
1.875e-06
5.87456e-23
-5.50643e-23
1.875e-06
-5.56867e-23
-1.39579e-22
1.875e-06
-4.40346e-23
-4.97277e-23
6.23248e-23
8.3964e-23
1.875e-06
9.34644e-23
3.68432e-22
1.875e-06
1.46781e-22
7.3611e-22
1.875e-06
1.25591e-22
8.22448e-22
1.875e-06
6.92694e-23
8.86758e-22
1.875e-06
7.98446e-23
9.32331e-22
1.875e-06
6.77587e-23
1.00194e-21
1.875e-06
1.60589e-22
1.10121e-21
1.875e-06
3.46882e-22
1.03107e-21
1.875e-06
2.77365e-22
9.8162e-22
1.875e-06
2.11878e-22
8.8969e-22
1.875e-06
1.91697e-22
9.14702e-22
1.875e-06
9.95997e-23
7.6121e-22
1.875e-06
1.00138e-22
6.45761e-22
1.875e-06
1.80236e-22
6.57246e-22
1.875e-06
1.50439e-22
6.07678e-22
1.875e-06
1.37218e-22
5.11435e-22
1.875e-06
3.14408e-23
4.88565e-22
1.875e-06
8.75424e-23
4.57254e-22
1.875e-06
1.69988e-22
4.36524e-22
1.875e-06
7.07177e-23
2.30789e-22
1.875e-06
5.22212e-23
2.65854e-22
1.875e-06
5.82619e-23
2.90912e-22
1.875e-06
-2.99315e-23
1.03992e-22
1.875e-06
4.66647e-23
9.8288e-23
1.875e-06
1.25392e-22
2.63461e-22
1.875e-06
6.48563e-23
2.70214e-22
1.875e-06
8.84128e-26
2.26562e-22
1.875e-06
-3.44098e-23
9.96325e-23
1.875e-06
-2.32995e-23
6.29684e-23
1.875e-06
4.19314e-23
1.31926e-22
1.875e-06
-1.36083e-23
1.25807e-22
1.875e-06
9.17474e-24
4.05191e-23
1.875e-06
-6.32635e-23
-5.63711e-23
1.875e-06
9.47093e-23
4.78767e-23
1.875e-06
2.41832e-22
2.21134e-22
1.875e-06
1.68524e-22
9.15315e-23
1.875e-06
5.2835e-23
-1.33085e-22
1.875e-06
-5.23969e-23
-1.71703e-22
1.875e-06
-5.78588e-23
4.45896e-23
-3.88461e-23
1.49448e-22
1.875e-06
1.46371e-22
2.89803e-22
1.875e-06
7.64734e-23
6.67596e-22
1.875e-06
7.05439e-23
8.27925e-22
1.875e-06
1.36583e-22
9.6494e-22
1.875e-06
1.4363e-22
1.08914e-21
1.875e-06
2.39238e-22
1.05694e-21
1.875e-06
2.47327e-22
1.134e-21
1.875e-06
6.58639e-23
1.04535e-21
1.875e-06
1.55162e-22
1.02821e-21
1.875e-06
1.94378e-22
9.22242e-22
1.875e-06
1.38444e-22
8.82708e-22
1.875e-06
1.14012e-22
7.68191e-22
1.875e-06
5.62489e-23
6.43606e-22
1.875e-06
1.49068e-22
5.07988e-22
1.875e-06
2.32197e-22
6.80612e-22
1.875e-06
1.08698e-22
5.65197e-22
1.875e-06
7.80167e-23
4.74985e-22
1.875e-06
-2.73204e-24
4.1065e-22
1.875e-06
1.35206e-22
2.52887e-22
1.875e-06
1.75112e-22
2.63734e-22
1.875e-06
4.26025e-23
2.75652e-22
1.875e-06
6.5796e-23
3.01739e-22
1.875e-06
4.9906e-23
2.8276e-22
1.875e-06
1.08096e-22
1.6045e-22
1.875e-06
-1.52832e-24
3.10518e-22
1.875e-06
-1.80993e-23
2.01031e-22
1.875e-06
6.21652e-23
8.14485e-23
1.875e-06
6.20775e-23
1.09416e-22
1.875e-06
-2.51591e-23
7.12621e-23
1.875e-06
-1.8218e-23
1.06667e-22
1.875e-06
-2.87485e-23
1.92218e-22
1.875e-06
-7.0885e-23
1.0546e-22
1.875e-06
-3.73359e-23
1.28891e-22
1.875e-06
4.61036e-23
1.01105e-22
1.875e-06
9.96968e-23
1.18725e-23
1.875e-06
-2.48152e-23
-2.22543e-22
1.875e-06
6.22324e-23
-3.23008e-22
1.875e-06
2.3134e-24
-9.50892e-23
1.875e-06
-4.10598e-23
6.92218e-23
-1.6407e-23
3.09974e-23
1.875e-06
-2.25562e-22
2.38165e-22
1.875e-06
-4.56743e-23
7.89505e-22
1.875e-06
9.97917e-23
9.44976e-22
1.875e-06
1.0046e-22
9.63593e-22
1.875e-06
1.53014e-22
1.09888e-21
1.875e-06
1.61346e-22
1.07765e-21
1.875e-06
1.59005e-22
1.11812e-21
1.875e-06
9.0692e-23
1.08303e-21
1.875e-06
3.28628e-23
9.88632e-22
1.875e-06
1.16827e-22
9.39896e-22
1.875e-06
1.51035e-22
9.60679e-22
1.875e-06
7.39018e-23
7.76988e-22
1.875e-06
1.36965e-22
6.27356e-22
1.875e-06
1.71782e-22
6.33412e-22
1.875e-06
1.153e-22
5.43062e-22
1.875e-06
3.24442e-23
5.28697e-22
1.875e-06
1.38369e-22
5.47031e-22
1.875e-06
1.42304e-22
4.46987e-22
1.875e-06
-1.23751e-22
2.48199e-22
1.875e-06
-3.51838e-23
2.1074e-22
1.875e-06
1.79124e-22
2.86883e-22
1.875e-06
7.77846e-23
3.73968e-22
1.875e-06
1.58257e-22
3.0041e-22
1.875e-06
8.59492e-23
2.49553e-22
1.875e-06
1.5107e-22
3.15935e-22
1.875e-06
-3.02024e-23
1.83326e-22
1.875e-06
-8.77768e-23
4.97587e-23
1.875e-06
-5.62745e-23
3.28484e-23
1.875e-06
6.26529e-23
2.99078e-23
1.875e-06
-6.63315e-23
1.02292e-22
1.875e-06
-8.79173e-23
1.43087e-22
1.875e-06
-6.11979e-23
2.09426e-22
1.875e-06
4.55743e-23
2.30026e-22
1.875e-06
1.22059e-23
7.92998e-23
1.875e-06
-4.66878e-23
-1.48038e-22
1.875e-06
7.38027e-25
-3.14067e-22
1.875e-06
8.75182e-24
-3.35197e-22
1.875e-06
1.64903e-22
-1.06451e-22
1.875e-06
1.26986e-22
-9.84851e-24
6.80425e-23
2.87027e-24
1.875e-06
1.96993e-23
5.68023e-22
1.875e-06
9.24577e-23
8.03365e-22
1.875e-06
1.69986e-22
9.79606e-22
1.875e-06
2.34769e-22
1.13044e-21
1.875e-06
6.84854e-23
1.16869e-21
1.875e-06
1.00595e-22
1.12058e-21
1.875e-06
2.22383e-22
1.19822e-21
1.875e-06
5.59635e-23
1.1204e-21
1.875e-06
7.77112e-23
9.03386e-22
1.875e-06
1.56303e-22
8.51367e-22
1.875e-06
1.35924e-22
8.8902e-22
1.875e-06
4.40229e-23
9.06075e-22
1.875e-06
6.71699e-23
7.75406e-22
1.875e-06
1.16135e-22
6.42977e-22
1.875e-06
1.02893e-22
6.11643e-22
1.875e-06
1.36829e-22
4.83156e-22
1.875e-06
6.57085e-23
3.8383e-22
1.875e-06
3.24126e-23
4.5718e-22
1.875e-06
-4.76333e-23
3.16025e-22
1.875e-06
-4.8653e-23
3.08642e-22
1.875e-06
1.39202e-22
3.21143e-22
1.875e-06
2.35564e-22
3.9072e-22
1.875e-06
8.26659e-23
2.85423e-22
1.875e-06
6.37125e-23
2.97938e-22
1.875e-06
6.32876e-23
2.48345e-22
1.875e-06
-6.28775e-23
2.31075e-22
1.875e-06
-1.47521e-22
1.23424e-22
1.875e-06
-6.77114e-23
5.14444e-23
1.875e-06
-2.74443e-23
4.94418e-23
1.875e-06
4.55804e-23
1.70025e-22
1.875e-06
2.29877e-23
1.56129e-22
1.875e-06
-7.46302e-23
1.74075e-22
1.875e-06
3.62954e-23
1.78763e-22
1.875e-06
-2.81866e-23
8.51605e-23
1.875e-06
-1.17385e-22
-1.14841e-22
1.875e-06
-5.95787e-23
-3.49745e-22
1.875e-06
4.85399e-23
-4.27047e-22
1.875e-06
1.27812e-22
-2.06576e-22
1.875e-06
2.04873e-22
-7.83211e-23
1.06741e-22
-6.93373e-24
1.875e-06
1.28819e-22
5.79623e-22
1.875e-06
1.59063e-22
9.2785e-22
1.875e-06
1.63656e-22
1.06693e-21
1.875e-06
7.38305e-23
1.09898e-21
1.875e-06
1.25109e-22
1.22526e-21
1.875e-06
1.86812e-22
1.1151e-21
1.875e-06
4.07983e-23
1.01968e-21
1.875e-06
1.78636e-22
1.13033e-21
1.875e-06
4.47725e-24
9.69107e-22
1.875e-06
-9.84369e-24
8.22456e-22
1.875e-06
1.37578e-22
8.63234e-22
1.875e-06
2.27608e-22
9.32895e-22
1.875e-06
1.04177e-22
8.64229e-22
1.875e-06
1.01704e-22
6.75128e-22
1.875e-06
6.33354e-23
6.25629e-22
1.875e-06
1.62708e-22
5.17048e-22
1.875e-06
4.37686e-23
4.69658e-22
1.875e-06
-9.76161e-25
3.7625e-22
1.875e-06
1.28163e-22
3.86827e-22
1.875e-06
8.06873e-23
4.17288e-22
1.875e-06
4.99395e-23
3.36608e-22
1.875e-06
6.23233e-23
2.50572e-22
1.875e-06
2.56468e-24
3.28242e-22
1.875e-06
-1.44008e-23
4.03223e-22
1.875e-06
8.34961e-24
1.56338e-22
1.875e-06
-4.73174e-24
1.78591e-22
1.875e-06
-2.80251e-23
1.78703e-22
1.875e-06
-2.79743e-23
9.33651e-23
1.875e-06
-4.12305e-24
6.24885e-23
1.875e-06
-8.21957e-23
1.31462e-22
1.875e-06
-1.13558e-22
1.95242e-22
1.875e-06
6.49194e-24
2.24548e-22
1.875e-06
-8.02034e-23
5.48847e-23
1.875e-06
-3.22795e-23
7.05937e-23
1.875e-06
-1.53763e-22
-4.59347e-23
1.875e-06
-1.85503e-23
-3.64571e-22
1.875e-06
2.83013e-23
-3.83646e-22
1.875e-06
8.63048e-23
-1.84639e-22
1.875e-06
1.75259e-22
-8.32774e-23
1.37987e-22
-6.63624e-23
1.875e-06
2.56892e-22
6.1328e-22
1.875e-06
1.80455e-22
9.38328e-22
1.875e-06
1.24225e-22
1.03839e-21
1.875e-06
1.37881e-22
1.07546e-21
1.875e-06
1.01857e-22
1.14176e-21
1.875e-06
1.36014e-24
1.07674e-21
1.875e-06
1.04696e-22
1.06765e-21
1.875e-06
1.58593e-22
1.03893e-21
1.875e-06
2.11573e-22
9.98666e-22
1.875e-06
1.11156e-22
9.50158e-22
1.875e-06
1.14294e-22
8.24081e-22
1.875e-06
1.59221e-23
7.80408e-22
1.875e-06
1.46643e-22
8.99203e-22
1.875e-06
1.21103e-22
7.16683e-22
1.875e-06
6.01479e-23
6.79534e-22
1.875e-06
-8.61273e-23
5.2031e-22
1.875e-06
-5.44175e-24
4.67705e-22
1.875e-06
1.25334e-22
4.70711e-22
1.875e-06
1.35242e-22
3.50727e-22
1.875e-06
1.50374e-22
4.05227e-22
1.875e-06
6.63477e-23
3.53157e-22
1.875e-06
-3.96146e-23
2.42416e-22
1.875e-06
-2.29997e-23
2.82888e-22
1.875e-06
-7.72328e-23
3.65257e-22
1.875e-06
-1.39427e-22
1.78737e-22
1.875e-06
-2.81971e-23
1.3009e-22
1.875e-06
-3.60606e-23
1.36655e-22
1.875e-06
-5.43232e-24
8.15545e-23
1.875e-06
-7.94474e-23
3.80824e-23
1.875e-06
-1.15393e-22
2.29281e-22
1.875e-06
2.92473e-23
3.00213e-22
1.875e-06
5.81542e-24
1.64177e-22
1.875e-06
-8.76624e-23
1.25231e-22
1.875e-06
5.27866e-24
4.5737e-23
1.875e-06
7.24477e-23
9.24346e-23
1.875e-06
-7.463e-23
-2.21094e-22
1.875e-06
2.30381e-23
-4.27921e-22
1.875e-06
1.61487e-22
-2.2046e-22
1.875e-06
1.20179e-22
-9.57306e-23
6.23256e-23
-1.46356e-22
1.875e-06
8.85787e-23
5.14536e-22
1.875e-06
1.67757e-22
9.09076e-22
1.875e-06
1.14107e-22
9.98917e-22
1.875e-06
5.87006e-23
1.1127e-21
1.875e-06
1.56654e-23
1.12387e-21
1.875e-06
-1.88795e-23
1.11762e-21
1.875e-06
6.84089e-23
1.07054e-21
1.875e-06
3.35396e-23
9.91675e-22
1.875e-06
1.13588e-22
9.60277e-22
1.875e-06
1.06501e-22
8.29042e-22
1.875e-06
-2.60572e-23
7.02538e-22
1.875e-06
6.08302e-23
8.76467e-22
1.875e-06
1.62751e-22
8.82501e-22
1.875e-06
1.91159e-22
6.90075e-22
1.875e-06
1.1577e-22
6.74905e-22
1.875e-06
1.1416e-23
5.4393e-22
1.875e-06
8.9045e-25
4.18611e-22
1.875e-06
3.89528e-23
4.55762e-22
1.875e-06
1.49639e-22
5.13797e-22
1.875e-06
1.1512e-22
4.30645e-22
1.875e-06
9.91584e-23
3.5943e-22
1.875e-06
9.68508e-23
2.72713e-22
1.875e-06
6.79525e-23
2.85624e-22
1.875e-06
-2.69368e-23
3.58497e-22
1.875e-06
-1.22129e-22
1.90223e-22
1.875e-06
-5.44462e-23
1.1055e-22
1.875e-06
-1.07954e-23
8.90977e-24
1.875e-06
-4.29329e-23
3.263e-23
1.875e-06
-8.62958e-23
1.409e-22
1.875e-06
-2.12136e-22
1.92966e-22
1.875e-06
-1.22538e-22
1.7041e-22
1.875e-06
4.44722e-23
1.83369e-22
1.875e-06
3.06085e-23
1.67885e-22
1.875e-06
-7.22646e-23
3.23109e-23
1.875e-06
-3.29915e-23
1.51673e-22
1.875e-06
-2.08566e-23
-1.76148e-22
1.875e-06
3.64039e-23
-4.4678e-22
1.875e-06
1.2104e-22
-1.84464e-22
1.875e-06
4.68193e-23
-1.3677e-22
8.50393e-23
-2.78998e-22
1.875e-06
-1.72719e-22
5.97438e-22
1.875e-06
-5.87846e-24
8.76968e-22
1.875e-06
8.42174e-23
9.97502e-22
1.875e-06
7.85127e-24
1.1342e-21
1.875e-06
-7.30303e-23
1.15492e-21
1.875e-06
-1.28026e-23
1.08634e-21
1.875e-06
1.46268e-22
1.06638e-21
1.875e-06
2.44816e-22
1.0591e-21
1.875e-06
5.75845e-23
9.40039e-22
1.875e-06
-1.06337e-22
8.48244e-22
1.875e-06
-4.085e-23
8.39225e-22
1.875e-06
1.7935e-22
8.14932e-22
1.875e-06
1.31244e-22
8.17407e-22
1.875e-06
5.49503e-23
6.6662e-22
1.875e-06
-2.91975e-23
7.26925e-22
1.875e-06
9.04078e-24
6.0689e-22
1.875e-06
8.59872e-23
5.11564e-22
1.875e-06
2.15313e-22
5.06434e-22
1.875e-06
1.89708e-22
4.4132e-22
1.875e-06
-1.86344e-23
3.37975e-22
1.875e-06
1.36318e-22
3.31138e-22
1.875e-06
-5.21722e-24
3.34136e-22
1.875e-06
-1.37831e-22
2.99652e-22
1.875e-06
-2.69131e-23
2.27536e-22
1.875e-06
-9.69867e-23
2.00884e-22
1.875e-06
-3.6218e-23
3.97813e-23
1.875e-06
1.06106e-22
5.14894e-23
1.875e-06
7.62746e-23
2.50931e-23
1.875e-06
-4.66475e-24
6.26708e-23
1.875e-06
-2.19912e-24
2.20393e-22
1.875e-06
-1.42093e-22
2.44789e-22
1.875e-06
-1.44561e-22
9.51575e-23
1.875e-06
-1.23024e-23
1.22327e-22
1.875e-06
-5.36591e-23
1.01513e-22
1.875e-06
-5.3303e-23
1.30036e-22
1.875e-06
-3.26911e-23
-1.84067e-22
1.875e-06
-2.6705e-23
-4.80656e-22
1.875e-06
-3.21902e-23
-2.95552e-22
1.875e-06
7.07801e-23
-1.82578e-22
-1.39802e-22
-3.13749e-22
1.875e-06
-5.78538e-23
7.57336e-22
1.875e-06
-1.93623e-22
8.67505e-22
1.875e-06
-5.15096e-23
9.5009e-22
1.875e-06
-1.75345e-23
1.1136e-21
1.875e-06
8.71903e-23
1.1717e-21
1.875e-06
5.76437e-24
1.06892e-21
1.875e-06
3.88149e-24
1.0187e-21
1.875e-06
7.894e-23
9.1801e-22
1.875e-06
-9.03404e-24
9.60265e-22
1.875e-06
-1.78498e-23
9.19388e-22
1.875e-06
1.59324e-22
8.93968e-22
1.875e-06
1.067e-22
8.80792e-22
1.875e-06
6.28102e-23
8.59668e-22
1.875e-06
-4.92414e-23
6.85798e-22
1.875e-06
7.86528e-23
7.25837e-22
1.875e-06
6.91785e-23
5.39012e-22
1.875e-06
6.7364e-23
4.35111e-22
1.875e-06
1.67343e-22
4.45726e-22
1.875e-06
4.84057e-23
4.55343e-22
1.875e-06
1.13744e-22
4.90469e-22
1.875e-06
8.68252e-23
3.11362e-22
1.875e-06
6.99762e-23
4.43215e-22
1.875e-06
-1.00518e-22
4.20549e-22
1.875e-06
-2.25433e-22
1.69666e-22
1.875e-06
-1.13225e-22
1.30034e-22
1.875e-06
5.73823e-23
9.11976e-23
1.875e-06
1.5322e-22
-3.25767e-23
1.875e-06
4.07779e-23
-4.96959e-23
1.875e-06
-1.95035e-23
8.47882e-23
1.875e-06
-1.24148e-23
1.36486e-22
1.875e-06
-2.03078e-24
2.49565e-22
1.875e-06
-2.96169e-23
1.73805e-22
1.875e-06
-4.31523e-23
9.32699e-23
1.875e-06
-3.29691e-23
1.56925e-23
1.875e-06
8.09417e-25
7.20554e-23
1.875e-06
-9.75742e-23
-8.55272e-23
1.875e-06
-9.441e-23
-3.9235e-22
1.875e-06
-3.94127e-23
-2.51997e-22
1.875e-06
-1.27538e-22
-3.11567e-22
7.61515e-24
-2.36341e-22
1.875e-06
-4.73933e-23
6.71244e-22
1.875e-06
-1.15858e-22
1.00286e-21
1.875e-06
-9.65539e-23
1.08648e-21
1.875e-06
-1.05283e-22
1.14913e-21
1.875e-06
-7.10516e-23
1.13986e-21
1.875e-06
2.46296e-23
1.16398e-21
1.875e-06
-5.02937e-24
1.0311e-21
1.875e-06
4.25785e-23
9.25652e-22
1.875e-06
2.85663e-23
1.00481e-21
1.875e-06
1.05388e-22
9.1949e-22
1.875e-06
6.4661e-23
8.64003e-22
1.875e-06
1.5556e-22
9.17358e-22
1.875e-06
-2.365e-23
9.42165e-22
1.875e-06
-1.72391e-23
7.37622e-22
1.875e-06
-3.51418e-23
6.53054e-22
1.875e-06
2.37119e-23
5.01014e-22
1.875e-06
1.18273e-22
4.33131e-22
1.875e-06
7.15167e-25
4.14051e-22
1.875e-06
6.98521e-23
4.7178e-22
1.875e-06
1.72981e-22
4.61305e-22
1.875e-06
3.07767e-23
2.90171e-22
1.875e-06
-4.12216e-23
4.15839e-22
1.875e-06
-7.24711e-23
4.21189e-22
1.875e-06
-1.68026e-22
2.4217e-22
1.875e-06
-7.14535e-23
8.96738e-23
1.875e-06
-6.20373e-23
1.2075e-22
1.875e-06
-1.93712e-23
-6.08387e-23
1.875e-06
6.00169e-23
-7.2048e-23
1.875e-06
1.36727e-23
1.12352e-22
1.875e-06
1.41281e-22
1.35731e-22
1.875e-06
-1.0809e-23
1.52998e-22
1.875e-06
4.07647e-23
1.39096e-22
1.875e-06
-6.03664e-23
5.44234e-23
1.875e-06
-1.22086e-22
3.81372e-24
1.875e-06
-1.57273e-22
-1.84786e-23
1.875e-06
5.0772e-24
-1.19262e-22
1.875e-06
2.12748e-23
-2.64526e-22
1.875e-06
-1.11039e-22
-2.01587e-22
1.875e-06
-1.5881e-22
-2.0464e-22
-3.13618e-23
-2.05072e-22
1.875e-06
-1.37037e-22
5.82683e-22
1.875e-06
-5.80884e-23
9.45984e-22
1.875e-06
2.38581e-23
1.10432e-21
1.875e-06
-3.15659e-23
1.20187e-21
1.875e-06
-9.04448e-23
1.30132e-21
1.875e-06
-2.45796e-23
1.17003e-21
1.875e-06
-3.66393e-23
1.06577e-21
1.875e-06
-8.481e-23
9.74035e-22
1.875e-06
7.47937e-23
1.10221e-21
1.875e-06
9.92538e-23
8.48638e-22
1.875e-06
7.39606e-23
8.0873e-22
1.875e-06
-6.07996e-24
8.4052e-22
1.875e-06
5.26053e-23
1.01921e-21
1.875e-06
-5.91807e-23
8.72863e-22
1.875e-06
1.64657e-24
6.6415e-22
1.875e-06
9.61962e-23
4.49989e-22
1.875e-06
6.76678e-23
3.16927e-22
1.875e-06
-3.61677e-23
4.0684e-22
1.875e-06
6.34907e-23
5.64946e-22
1.875e-06
1.15144e-22
4.59048e-22
1.875e-06
3.30539e-23
3.82522e-22
1.875e-06
5.92371e-24
3.58175e-22
1.875e-06
-1.20048e-22
2.87512e-22
1.875e-06
-1.06908e-22
2.54838e-22
1.875e-06
-1.5074e-22
1.40022e-22
1.875e-06
-1.97766e-23
1.54162e-22
1.875e-06
-3.3508e-23
-6.28162e-24
1.875e-06
-6.17173e-23
-3.52767e-23
1.875e-06
6.89384e-23
1.71661e-22
1.875e-06
-5.00116e-24
2.58875e-23
1.875e-06
8.91421e-23
1.0236e-22
1.875e-06
-7.35416e-23
2.14614e-23
1.875e-06
-1.1e-22
5.36693e-23
1.875e-06
-7.89524e-23
1.10453e-22
1.875e-06
-8.33677e-23
8.28787e-23
1.875e-06
-6.44819e-23
-1.80186e-22
1.875e-06
-1.77138e-23
-3.15e-22
1.875e-06
-7.50306e-23
-1.741e-22
1.875e-06
1.40957e-23
-2.37955e-22
-4.66689e-23
-3.6819e-22
1.875e-06
-7.89479e-23
6.57907e-22
1.875e-06
-1.7112e-22
1.01199e-21
1.875e-06
-2.0455e-22
1.06601e-21
1.875e-06
3.68173e-23
1.22559e-21
1.875e-06
1.07313e-22
1.28877e-21
1.875e-06
-2.98087e-23
1.19226e-21
1.875e-06
-1.40282e-22
1.05074e-21
1.875e-06
-1.554e-22
9.58839e-22
1.875e-06
1.79724e-23
1.03908e-21
1.875e-06
1.25844e-22
9.87551e-22
1.875e-06
3.05026e-23
8.95349e-22
1.875e-06
4.43708e-23
8.76481e-22
1.875e-06
2.86616e-23
9.54325e-22
1.875e-06
-2.19767e-23
9.74406e-22
1.875e-06
6.63302e-23
6.53178e-22
1.875e-06
-1.57812e-23
4.83341e-22
1.875e-06
1.48858e-23
4.12728e-22
1.875e-06
2.68541e-22
5.15872e-22
1.875e-06
2.00154e-22
4.3622e-22
1.875e-06
7.13937e-23
3.20244e-22
1.875e-06
-6.84505e-23
2.96485e-22
1.875e-06
-2.54225e-22
3.50717e-22
1.875e-06
-4.10292e-23
3.64819e-22
1.875e-06
-2.63131e-23
2.82543e-22
1.875e-06
-1.86752e-23
2.5303e-22
1.875e-06
-1.30308e-22
1.22055e-22
1.875e-06
-5.8503e-23
1.25492e-22
1.875e-06
-4.11648e-23
1.13972e-22
1.875e-06
-4.66802e-23
3.54748e-23
1.875e-06
9.75584e-24
2.36245e-23
1.875e-06
9.57498e-23
2.7558e-23
1.875e-06
-2.38812e-23
5.21208e-24
1.875e-06
-1.42124e-23
1.60851e-23
1.875e-06
1.10331e-23
8.30669e-23
1.875e-06
-4.32964e-23
1.14241e-22
1.875e-06
-1.23159e-22
-5.86711e-23
1.875e-06
-1.94283e-22
-2.31568e-22
1.875e-06
-6.97154e-24
-2.2437e-22
1.875e-06
4.71518e-23
-2.61376e-22
9.56888e-23
-3.15881e-22
1.875e-06
-9.54507e-24
7.25352e-22
1.875e-06
-4.34226e-23
1.09628e-21
1.875e-06
1.00889e-23
1.12052e-21
1.875e-06
1.3267e-23
1.24249e-21
1.875e-06
8.64557e-24
1.17044e-21
1.875e-06
-8.81795e-23
1.22055e-21
1.875e-06
-1.76715e-22
1.1188e-21
1.875e-06
-6.39678e-23
1.11483e-21
1.875e-06
-7.26254e-24
1.0848e-21
1.875e-06
5.09123e-23
9.56605e-22
1.875e-06
4.50589e-23
9.40321e-22
1.875e-06
2.4105e-23
9.20997e-22
1.875e-06
7.40809e-23
9.82545e-22
1.875e-06
1.29671e-22
9.71046e-22
1.875e-06
4.87237e-23
6.50466e-22
1.875e-06
4.3055e-23
5.62347e-22
1.875e-06
-4.61787e-23
4.81052e-22
1.875e-06
-1.2565e-22
3.18261e-22
1.875e-06
4.72815e-23
2.57048e-22
1.875e-06
-2.2721e-24
3.04055e-22
1.875e-06
-8.92753e-23
3.2721e-22
1.875e-06
2.40392e-23
5.41012e-22
1.875e-06
-3.50294e-23
4.15603e-22
1.875e-06
4.45481e-24
2.85935e-22
1.875e-06
7.22884e-24
2.39897e-22
1.875e-06
-4.5755e-23
1.17595e-22
1.875e-06
7.07195e-23
1.89782e-22
1.875e-06
7.03326e-23
1.53836e-22
1.875e-06
-3.26729e-24
3.62547e-23
1.875e-06
-1.56113e-23
-1.48037e-23
1.875e-06
-4.48022e-23
-1.7696e-22
1.875e-06
-2.76794e-24
-7.30486e-23
1.875e-06
2.40606e-23
4.15968e-23
1.875e-06
1.74921e-23
1.47237e-22
1.875e-06
2.54074e-23
5.97614e-23
1.875e-06
-3.95482e-23
-6.28886e-23
1.875e-06
-5.15881e-23
-5.81857e-23
1.875e-06
-1.51546e-22
-1.35823e-22
1.875e-06
-1.04612e-23
-2.19842e-22
3.04413e-23
-2.49303e-22
1.875e-06
9.00544e-23
7.82286e-22
1.875e-06
1.2366e-22
1.12485e-21
1.875e-06
-1.99954e-23
1.02287e-21
1.875e-06
-8.72434e-23
1.11308e-21
1.875e-06
-5.79826e-23
1.17302e-21
1.875e-06
3.22197e-23
1.22857e-21
1.875e-06
-5.67618e-23
1.15806e-21
1.875e-06
-2.59186e-22
1.0064e-21
1.875e-06
-1.23622e-22
1.05574e-21
1.875e-06
1.48178e-23
1.11303e-21
1.875e-06
-1.5922e-22
9.76426e-22
1.875e-06
4.71773e-22
9.65685e-22
1.875e-06
1.35901e-23
9.01395e-22
1.875e-06
1.48807e-22
9.23866e-22
1.875e-06
9.44475e-24
8.14204e-22
1.875e-06
-8.9198e-23
6.12656e-22
1.875e-06
-9.97512e-24
4.21167e-22
1.875e-06
-1.16661e-22
2.98618e-22
1.875e-06
-1.58557e-22
3.44015e-22
1.875e-06
-3.04336e-23
3.51261e-22
1.875e-06
-9.51505e-23
3.12607e-22
1.875e-06
-9.41689e-23
4.01419e-22
1.875e-06
-4.50394e-23
5.16204e-22
1.875e-06
1.02263e-22
2.49148e-22
1.875e-06
1.79659e-22
2.5563e-22
1.875e-06
7.25079e-23
1.94639e-22
1.875e-06
-7.27605e-23
4.36477e-23
1.875e-06
5.06945e-24
-2.01536e-23
1.875e-06
-1.03083e-22
8.71644e-23
1.875e-06
1.87744e-22
-3.76512e-23
1.875e-06
-1.44916e-23
-1.90201e-23
1.875e-06
-1.18962e-23
2.07832e-23
1.875e-06
1.42139e-22
-1.64928e-23
1.875e-06
-1.56635e-22
5.26474e-23
1.875e-06
-3.17235e-23
4.85403e-23
1.875e-06
1.07236e-22
3.46076e-23
1.875e-06
-2.65257e-23
-5.26567e-23
1.875e-06
-1.81131e-23
-1.43701e-22
1.875e-06
-1.40611e-22
-2.22177e-22
-7.90459e-23
-2.08422e-22
1.875e-06
2.2389e-22
6.88759e-22
1.875e-06
1.48235e-22
9.59297e-22
1.875e-06
-2.51704e-23
9.7922e-22
1.875e-06
-4.29317e-23
1.11742e-21
1.875e-06
3.21499e-24
1.20039e-21
1.875e-06
-7.54556e-24
1.29076e-21
1.875e-06
-2.13037e-23
1.16735e-21
1.875e-06
-1.16998e-22
1.08475e-21
1.875e-06
-1.37235e-22
1.06683e-21
1.875e-06
-4.33849e-23
1.13237e-21
1.875e-06
3.27016e-23
1.09071e-21
1.875e-06
8.26722e-23
1.01956e-21
1.875e-06
9.23321e-23
9.39716e-22
1.875e-06
-2.14471e-23
7.50639e-22
1.875e-06
-2.6516e-23
7.96167e-22
1.875e-06
3.41474e-23
6.7279e-22
1.875e-06
-1.44349e-22
4.37727e-22
1.875e-06
-1.16908e-22
3.45061e-22
1.875e-06
-1.46477e-22
4.08267e-22
1.875e-06
-1.07792e-22
2.73263e-22
1.875e-06
-2.21033e-23
3.21793e-22
1.875e-06
-1.05726e-22
3.84776e-22
1.875e-06
6.67837e-23
4.75462e-22
1.875e-06
2.33402e-23
3.48869e-22
1.875e-06
2.75154e-23
1.98666e-22
1.875e-06
1.12739e-22
2.271e-22
1.875e-06
7.34495e-23
7.00146e-23
1.875e-06
8.73025e-23
-3.16573e-23
1.875e-06
1.02545e-22
3.5166e-23
1.875e-06
1.23445e-23
-2.25764e-23
1.875e-06
-3.67979e-23
2.42307e-24
1.875e-06
-4.09103e-23
-5.47792e-23
1.875e-06
-4.74046e-23
-1.67789e-22
1.875e-06
5.70025e-23
1.416e-22
1.875e-06
8.95777e-23
1.30921e-22
1.875e-06
1.3511e-22
-5.76214e-23
1.875e-06
2.67934e-23
-1.36573e-22
1.875e-06
2.11641e-23
-1.13448e-22
1.875e-06
-1.0404e-22
-2.08309e-22
-1.48501e-22
-1.15677e-22
1.875e-06
-2.07015e-23
5.12337e-22
1.875e-06
6.97167e-23
8.80997e-22
1.875e-06
-1.03494e-23
9.83906e-22
1.875e-06
-1.30716e-23
1.09652e-21
1.875e-06
-4.05159e-24
1.15968e-21
1.875e-06
5.35813e-23
1.28216e-21
1.875e-06
1.62986e-23
1.13149e-21
1.875e-06
1.71476e-23
1.17711e-21
1.875e-06
-2.10347e-23
1.10535e-21
1.875e-06
-1.56343e-22
1.29505e-21
1.875e-06
-1.02014e-22
1.08672e-21
1.875e-06
-4.10279e-23
9.38194e-22
1.875e-06
-1.24185e-23
9.01473e-22
1.875e-06
-1.4407e-22
8.00805e-22
1.875e-06
-9.68406e-23
7.70836e-22
1.875e-06
-1.00603e-22
6.62287e-22