/*--------------------------------*- C++ -*----------------------------------*\
| =========                 |                                                 |
| \\      /  F ield         | OpenFOAM: The Open Source CFD Toolbox           |
|  \\    /   O peration     | Version:  v2012                                 |
|   \\  /    A nd           | Website:  www.openfoam.com                      |
|    \\/     M anipulation  |                                                 |
\*---------------------------------------------------------------------------*/
FoamFile
{
    version     2.0;
    format      ascii;
    class       volVectorField;
    location    "26";
    object      U;
}
// * * * * * * * * * * * * * * * * * * * * * * * * * * * * * * * * * * * * * //

dimensions      [0 1 -1 0 0 0 0];


internalField   nonuniform List<vector> 
64000
(
(0.003 2.33576e-19 2.23036e-19)
(0.003 4.08593e-19 3.74726e-19)
(0.003 4.18862e-19 4.56042e-19)
(0.003 4.18525e-19 5.03296e-19)
(0.003 5.19066e-19 4.75978e-19)
(0.003 5.22354e-19 3.90266e-19)
(0.003 4.38294e-19 3.40351e-19)
(0.003 2.42967e-19 3.20304e-19)
(0.003 2.95575e-19 4.52322e-19)
(0.003 4.75427e-19 3.89791e-19)
(0.003 4.61792e-19 3.25695e-19)
(0.003 4.31901e-19 4.62224e-19)
(0.003 3.54411e-19 3.75222e-19)
(0.003 3.42082e-19 2.51369e-19)
(0.003 2.964e-19 3.10378e-19)
(0.003 2.53765e-19 3.34817e-19)
(0.003 1.96866e-19 2.30149e-19)
(0.003 6.59321e-20 1.19293e-19)
(0.003 8.97469e-20 7.20007e-20)
(0.003 1.14657e-19 1.39852e-19)
(0.003 3.42325e-20 1.46989e-19)
(0.003 1.49977e-19 1.61434e-19)
(0.003 2.47138e-19 1.62627e-19)
(0.003 2.88802e-19 1.02725e-19)
(0.003 3.27548e-19 1.61223e-19)
(0.003 1.61141e-19 1.32543e-19)
(0.003 5.93256e-20 1.41793e-19)
(0.003 1.52212e-19 2.01721e-19)
(0.003 1.94317e-19 2.23686e-19)
(0.003 4.90618e-20 2.52608e-19)
(0.003 -6.51154e-20 2.42851e-19)
(0.003 -5.24185e-21 8.97353e-20)
(0.003 1.32105e-19 8.72236e-20)
(0.003 9.91685e-20 9.2781e-20)
(0.003 8.92533e-20 1.19309e-19)
(0.003 1.48837e-19 1.75897e-19)
(0.003 6.41353e-22 5.28347e-20)
(0.003 -2.36108e-19 4.28873e-20)
(0.003 -2.24352e-19 1.64309e-19)
(0.003 -1.97328e-19 9.22834e-20)
(0.003 2.59001e-19 3.3551e-19)
(0.003 3.70361e-19 7.30307e-19)
(0.003 5.5865e-19 9.35564e-19)
(0.003 5.31761e-19 9.47703e-19)
(0.003 4.60917e-19 8.81316e-19)
(0.003 6.3527e-19 8.9978e-19)
(0.003 5.82956e-19 8.24252e-19)
(0.003 5.22129e-19 6.35052e-19)
(0.003 5.20779e-19 7.37108e-19)
(0.003 4.89069e-19 9.94525e-19)
(0.003 4.18802e-19 9.71372e-19)
(0.003 3.63499e-19 8.46873e-19)
(0.003 2.90105e-19 7.15189e-19)
(0.003 2.04626e-19 5.9794e-19)
(0.003 1.76427e-19 5.56061e-19)
(0.003 1.23085e-19 4.86478e-19)
(0.003 3.06622e-19 4.92669e-19)
(0.003 2.86604e-19 4.06937e-19)
(0.003 1.58335e-19 2.98163e-19)
(0.003 4.60429e-20 2.56217e-19)
(0.003 1.71572e-19 2.22829e-19)
(0.003 2.62366e-19 2.75355e-19)
(0.003 2.43384e-19 2.7409e-19)
(0.003 2.9982e-19 3.22992e-19)
(0.003 1.45053e-19 3.43554e-19)
(0.003 1.48892e-19 2.26314e-19)
(0.003 1.97567e-19 1.40475e-19)
(0.003 8.92487e-20 2.05097e-19)
(0.003 -2.36403e-20 3.52283e-19)
(0.003 2.63106e-20 2.98553e-19)
(0.003 4.24223e-20 1.38913e-19)
(0.003 8.91403e-20 8.47747e-20)
(0.003 1.35772e-19 2.03741e-19)
(0.003 1.61155e-20 1.73665e-19)
(0.003 -2.08778e-20 2.37311e-19)
(0.003 -9.9077e-20 1.97432e-19)
(0.003 -1.66076e-19 -1.30445e-20)
(0.003 -1.67545e-19 -9.58343e-20)
(0.003 -7.19774e-20 4.88185e-21)
(0.003 -3.16383e-20 4.02241e-20)
(0.003 1.77797e-19 4.58841e-19)
(0.003 2.13918e-19 8.02704e-19)
(0.003 3.3198e-19 1.06219e-18)
(0.003 4.69338e-19 1.1399e-18)
(0.003 4.52848e-19 1.0582e-18)
(0.003 4.71019e-19 1.01354e-18)
(0.003 4.8538e-19 1.00585e-18)
(0.003 5.22097e-19 9.58742e-19)
(0.003 4.95789e-19 1.05864e-18)
(0.003 3.99015e-19 1.14662e-18)
(0.003 3.32693e-19 1.00826e-18)
(0.003 2.83795e-19 8.95307e-19)
(0.003 3.34623e-19 7.09118e-19)
(0.003 2.19975e-19 6.73417e-19)
(0.003 1.40246e-19 6.55009e-19)
(0.003 7.48086e-20 5.71514e-19)
(0.003 1.58539e-19 6.47743e-19)
(0.003 2.77425e-19 5.60323e-19)
(0.003 9.36909e-20 3.17799e-19)
(0.003 1.39294e-19 2.41075e-19)
(0.003 2.40589e-19 3.52842e-19)
(0.003 2.0812e-19 3.16088e-19)
(0.003 2.16695e-19 2.80097e-19)
(0.003 1.32797e-19 3.35603e-19)
(0.003 9.51713e-20 3.00192e-19)
(0.003 1.80867e-19 2.7778e-19)
(0.003 1.32401e-19 2.1836e-19)
(0.003 -4.64497e-20 2.35874e-19)
(0.003 -9.32726e-20 2.49868e-19)
(0.003 1.26146e-20 3.12305e-19)
(0.003 7.39354e-20 3.26871e-19)
(0.003 1.37533e-19 2.25813e-19)
(0.003 5.5397e-20 1.85474e-19)
(0.003 -6.19695e-20 1.17186e-19)
(0.003 -9.43147e-20 2.62442e-19)
(0.003 -1.06538e-19 2.27384e-19)
(0.003 -2.01289e-19 -1.11666e-20)
(0.003 -6.03371e-20 -1.47584e-19)
(0.003 1.01494e-19 -5.47221e-20)
(0.003 1.06663e-19 1.21362e-20)
(0.003 3.52572e-19 6.25069e-19)
(0.003 3.04648e-19 1.01014e-18)
(0.003 2.0448e-19 1.1381e-18)
(0.003 2.97724e-19 1.27056e-18)
(0.003 4.1389e-19 1.24808e-18)
(0.003 3.92582e-19 1.21534e-18)
(0.003 3.82649e-19 1.17606e-18)
(0.003 3.29601e-19 1.02677e-18)
(0.003 3.00005e-19 1.0605e-18)
(0.003 3.66178e-19 1.15927e-18)
(0.003 3.51878e-19 1.1302e-18)
(0.003 2.91115e-19 1.09047e-18)
(0.003 2.70638e-19 8.94318e-19)
(0.003 1.8104e-19 7.00468e-19)
(0.003 3.12259e-19 6.97268e-19)
(0.003 4.56756e-19 6.31402e-19)
(0.003 1.96423e-19 6.22772e-19)
(0.003 4.03614e-20 5.83046e-19)
(0.003 9.20799e-20 3.65091e-19)
(0.003 1.52135e-19 2.87463e-19)
(0.003 7.61331e-20 3.86869e-19)
(0.003 1.76273e-19 4.0825e-19)
(0.003 2.61107e-19 3.52702e-19)
(0.003 1.50746e-19 3.63641e-19)
(0.003 1.19305e-19 3.54424e-19)
(0.003 1.07445e-19 2.99181e-19)
(0.003 3.01702e-20 1.83866e-19)
(0.003 -1.67922e-20 1.27587e-19)
(0.003 3.58478e-20 2.25843e-19)
(0.003 -6.32227e-20 3.26063e-19)
(0.003 -6.85833e-20 3.13482e-19)
(0.003 -3.98375e-20 2.37698e-19)
(0.003 -1.53598e-19 2.46824e-19)
(0.003 -1.09274e-19 2.11551e-19)
(0.003 -2.64909e-20 1.82582e-19)
(0.003 -9.97888e-20 1.53215e-19)
(0.003 -6.22746e-20 3.79038e-20)
(0.003 5.85856e-20 -1.00151e-19)
(0.003 2.21613e-19 -6.06815e-21)
(0.003 2.25823e-19 1.69997e-19)
(0.003 1.55775e-19 6.31035e-19)
(0.003 2.55188e-19 1.11554e-18)
(0.003 1.81203e-19 1.20503e-18)
(0.003 1.62172e-19 1.25156e-18)
(0.003 2.27688e-19 1.3863e-18)
(0.003 2.20298e-19 1.4095e-18)
(0.003 2.4056e-19 1.30983e-18)
(0.003 4.15045e-19 1.05365e-18)
(0.003 4.29937e-19 1.04308e-18)
(0.003 3.40375e-19 1.25448e-18)
(0.003 2.71035e-19 1.23676e-18)
(0.003 2.32828e-19 1.08304e-18)
(0.003 2.53194e-19 9.01395e-19)
(0.003 1.90591e-19 7.86438e-19)
(0.003 3.11247e-19 8.4712e-19)
(0.003 4.80571e-19 8.99925e-19)
(0.003 2.38386e-19 6.79726e-19)
(0.003 2.23838e-20 5.03528e-19)
(0.003 5.23363e-20 4.28459e-19)
(0.003 7.88032e-20 3.1249e-19)
(0.003 -4.4447e-20 3.0704e-19)
(0.003 4.16417e-20 3.87704e-19)
(0.003 2.81513e-19 4.95293e-19)
(0.003 2.18556e-19 3.97977e-19)
(0.003 1.2936e-19 4.10929e-19)
(0.003 9.45266e-20 3.33649e-19)
(0.003 9.02863e-20 1.99007e-19)
(0.003 7.44833e-20 2.26674e-19)
(0.003 4.93083e-20 2.67017e-19)
(0.003 -1.9352e-21 1.5393e-19)
(0.003 1.73842e-20 1.87791e-19)
(0.003 -2.36867e-20 2.76837e-19)
(0.003 -1.87795e-19 1.45997e-19)
(0.003 -1.4585e-19 1.03252e-19)
(0.003 -5.605e-20 1.96574e-19)
(0.003 -3.28313e-20 1.0485e-19)
(0.003 8.2414e-20 -8.40452e-21)
(0.003 4.58362e-20 -1.41412e-20)
(0.003 4.70316e-20 6.22768e-20)
(0.003 6.60118e-20 1.10176e-19)
(0.003 -8.60807e-21 6.71859e-19)
(0.003 1.32086e-19 1.11261e-18)
(0.003 1.36028e-19 1.19556e-18)
(0.003 1.6654e-19 1.32013e-18)
(0.003 1.9069e-19 1.43673e-18)
(0.003 1.79762e-19 1.38994e-18)
(0.003 2.16908e-19 1.32946e-18)
(0.003 4.88642e-19 1.36137e-18)
(0.003 5.18812e-19 1.25598e-18)
(0.003 3.03026e-19 1.1545e-18)
(0.003 2.09234e-19 1.14476e-18)
(0.003 2.58319e-19 1.16627e-18)
(0.003 2.93824e-19 1.02847e-18)
(0.003 3.40392e-19 8.07694e-19)
(0.003 2.53484e-19 9.13231e-19)
(0.003 1.43188e-19 9.49401e-19)
(0.003 1.03899e-19 7.29396e-19)
(0.003 -2.77666e-20 5.30518e-19)
(0.003 -8.11307e-20 4.24761e-19)
(0.003 1.13361e-20 3.17641e-19)
(0.003 1.27041e-19 2.69213e-19)
(0.003 1.80831e-19 4.33372e-19)
(0.003 2.73277e-19 5.28764e-19)
(0.003 2.9929e-19 4.30848e-19)
(0.003 1.56979e-19 3.42722e-19)
(0.003 1.08453e-19 3.31604e-19)
(0.003 1.38395e-19 3.54831e-19)
(0.003 7.42239e-21 2.03839e-19)
(0.003 -1.71639e-19 1.84783e-19)
(0.003 -7.57958e-20 3.06799e-19)
(0.003 1.5e-19 2.80587e-19)
(0.003 1.55249e-19 1.40949e-19)
(0.003 8.27164e-21 1.48234e-20)
(0.003 -3.19466e-20 1.36064e-19)
(0.003 -1.71833e-20 1.69309e-19)
(0.003 1.57709e-19 7.95401e-20)
(0.003 1.59955e-19 1.31436e-20)
(0.003 1.35486e-20 -5.49388e-20)
(0.003 4.17254e-21 5.1563e-20)
(0.003 4.64756e-20 1.16535e-19)
(0.003 6.82508e-20 8.12518e-19)
(0.003 1.67439e-19 1.26318e-18)
(0.003 1.79633e-19 1.29502e-18)
(0.003 8.44763e-20 1.34107e-18)
(0.003 1.65037e-19 1.4419e-18)
(0.003 1.78127e-19 1.49711e-18)
(0.003 2.55869e-19 1.41084e-18)
(0.003 4.6247e-19 1.36318e-18)
(0.003 4.40596e-19 1.36944e-18)
(0.003 3.67104e-19 1.29022e-18)
(0.003 2.99053e-19 1.22138e-18)
(0.003 2.2844e-19 1.14818e-18)
(0.003 2.20717e-19 1.02097e-18)
(0.003 3.47993e-19 9.37341e-19)
(0.003 2.26446e-19 9.55426e-19)
(0.003 1.56843e-19 8.7194e-19)
(0.003 8.74301e-20 6.42919e-19)
(0.003 4.20853e-20 4.52169e-19)
(0.003 6.46562e-20 3.38177e-19)
(0.003 5.04116e-20 3.00989e-19)
(0.003 1.88356e-19 3.72965e-19)
(0.003 2.28502e-19 5.42032e-19)
(0.003 1.3333e-19 5.5894e-19)
(0.003 1.62625e-19 5.14291e-19)
(0.003 1.07666e-19 4.197e-19)
(0.003 1.17699e-19 3.9922e-19)
(0.003 1.91651e-20 3.45999e-19)
(0.003 -4.70263e-20 1.95926e-19)
(0.003 -9.22361e-20 1.07183e-19)
(0.003 -4.75894e-20 1.47766e-19)
(0.003 9.35582e-20 2.69082e-19)
(0.003 4.75317e-20 1.44753e-19)
(0.003 4.9863e-20 5.30471e-20)
(0.003 1.71286e-19 1.27666e-19)
(0.003 2.06362e-19 1.61006e-19)
(0.003 2.36411e-19 1.69136e-19)
(0.003 8.85989e-20 -6.65258e-20)
(0.003 -7.40829e-20 -1.84902e-19)
(0.003 -9.03611e-20 1.13017e-19)
(0.003 -3.41057e-20 2.03648e-19)
(0.003 2.11515e-19 7.13928e-19)
(0.003 1.92514e-19 1.19229e-18)
(0.003 1.32516e-19 1.31761e-18)
(0.003 1.62477e-19 1.41558e-18)
(0.003 2.05736e-19 1.53897e-18)
(0.003 2.21165e-19 1.47394e-18)
(0.003 3.30365e-19 1.45072e-18)
(0.003 3.14323e-19 1.55234e-18)
(0.003 3.26446e-19 1.51209e-18)
(0.003 3.71595e-19 1.42545e-18)
(0.003 2.70604e-19 1.25848e-18)
(0.003 1.67198e-19 1.08081e-18)
(0.003 1.43541e-19 9.67717e-19)
(0.003 2.9084e-19 8.8002e-19)
(0.003 2.66726e-19 9.49347e-19)
(0.003 1.71957e-19 9.2668e-19)
(0.003 8.0941e-20 6.5527e-19)
(0.003 1.24191e-19 4.39986e-19)
(0.003 3.12273e-19 3.04931e-19)
(0.003 2.59456e-19 3.35633e-19)
(0.003 1.70544e-19 3.87858e-19)
(0.003 6.12739e-20 5.81078e-19)
(0.003 -4.26099e-20 6.12914e-19)
(0.003 7.44177e-20 5.29508e-19)
(0.003 5.36957e-20 4.80122e-19)
(0.003 4.7602e-20 4.14568e-19)
(0.003 7.78424e-20 2.5288e-19)
(0.003 4.06687e-20 1.45463e-19)
(0.003 -3.63323e-20 1.05286e-19)
(0.003 8.8897e-21 1.81047e-19)
(0.003 -7.13585e-20 3.49611e-19)
(0.003 -5.95187e-20 2.65798e-19)
(0.003 2.86348e-20 1.80018e-19)
(0.003 1.33731e-19 2.06923e-19)
(0.003 2.82633e-19 1.7302e-19)
(0.003 7.71924e-20 -7.69529e-20)
(0.003 -9.05353e-21 -4.38814e-19)
(0.003 -4.64811e-20 -1.40889e-19)
(0.003 -1.05386e-19 1.66846e-19)
(0.003 -5.98974e-20 1.24207e-19)
(0.003 -9.11372e-20 7.15057e-19)
(0.003 -6.01143e-21 1.36178e-18)
(0.003 1.34424e-19 1.43163e-18)
(0.003 1.6949e-19 1.47417e-18)
(0.003 1.95423e-19 1.58459e-18)
(0.003 3.63799e-19 1.58063e-18)
(0.003 3.70864e-19 1.58627e-18)
(0.003 1.25036e-19 1.54885e-18)
(0.003 1.27291e-19 1.48713e-18)
(0.003 2.37682e-19 1.47004e-18)
(0.003 2.09541e-19 1.30297e-18)
(0.003 1.1114e-19 1.10967e-18)
(0.003 1.36027e-19 9.51505e-19)
(0.003 2.69269e-19 9.4755e-19)
(0.003 2.73145e-19 9.48219e-19)
(0.003 1.07694e-19 8.80123e-19)
(0.003 1.73882e-19 7.00298e-19)
(0.003 1.49987e-19 4.27952e-19)
(0.003 6.04383e-20 4.32049e-19)
(0.003 1.44442e-19 4.32658e-19)
(0.003 1.63851e-19 3.76519e-19)
(0.003 1.05321e-19 6.22633e-19)
(0.003 1.41313e-19 6.88963e-19)
(0.003 1.43934e-19 6.50743e-19)
(0.003 1.00307e-19 4.35489e-19)
(0.003 -1.69287e-20 3.12064e-19)
(0.003 -1.35714e-20 2.69956e-19)
(0.003 4.44008e-20 1.83923e-19)
(0.003 1.83119e-20 4.39555e-20)
(0.003 -7.74788e-20 1.44043e-19)
(0.003 -1.4128e-19 2.78361e-19)
(0.003 -1.36576e-19 3.26294e-19)
(0.003 3.05074e-20 2.54637e-19)
(0.003 8.4912e-20 1.6199e-19)
(0.003 7.99176e-20 -2.25205e-20)
(0.003 -2.17016e-20 -3.05746e-19)
(0.003 1.07026e-20 -3.2347e-19)
(0.003 6.43697e-20 -1.7497e-19)
(0.003 2.13496e-20 6.0866e-20)
(0.003 2.21579e-20 1.25624e-19)
(0.003 -2.20204e-19 8.38735e-19)
(0.003 3.48676e-21 1.27661e-18)
(0.003 2.49585e-19 1.48042e-18)
(0.003 3.28215e-19 1.60946e-18)
(0.003 1.72365e-19 1.72146e-18)
(0.003 1.96298e-19 1.685e-18)
(0.003 3.16005e-19 1.67638e-18)
(0.003 1.73694e-19 1.56362e-18)
(0.003 1.38924e-19 1.36024e-18)
(0.003 1.56982e-19 1.34204e-18)
(0.003 2.29025e-19 1.30608e-18)
(0.003 8.83719e-20 1.15548e-18)
(0.003 6.95876e-20 1.0535e-18)
(0.003 1.88027e-19 1.04663e-18)
(0.003 2.53421e-19 9.70299e-19)
(0.003 1.82886e-19 7.97266e-19)
(0.003 1.67253e-19 6.47634e-19)
(0.003 1.23726e-19 5.16683e-19)
(0.003 -1.40389e-19 3.15847e-19)
(0.003 -7.64937e-20 3.53176e-19)
(0.003 1.6052e-19 4.84793e-19)
(0.003 2.58987e-19 6.6661e-19)
(0.003 2.23046e-19 7.87129e-19)
(0.003 1.42158e-19 7.0804e-19)
(0.003 1.90607e-19 4.80285e-19)
(0.003 3.8133e-21 3.19042e-19)
(0.003 -1.79972e-19 2.50732e-19)
(0.003 -1.20526e-19 1.56152e-19)
(0.003 7.75698e-21 7.40036e-20)
(0.003 -3.08691e-20 1.36755e-19)
(0.003 -5.30697e-20 2.26424e-19)
(0.003 -1.00267e-19 3.10598e-19)
(0.003 3.86267e-22 2.93668e-19)
(0.003 -1.16061e-20 1.81326e-19)
(0.003 -9.10814e-20 -1.0197e-20)
(0.003 -3.2408e-21 -3.13973e-19)
(0.003 5.89709e-20 -4.60261e-19)
(0.003 2.04164e-19 -3.26627e-19)
(0.003 2.82999e-19 -7.68192e-20)
(0.003 1.5404e-19 4.18371e-20)
(0.003 1.33933e-19 8.69293e-19)
(0.003 2.33491e-19 1.44575e-18)
(0.003 2.70335e-19 1.66138e-18)
(0.003 2.40245e-19 1.69887e-18)
(0.003 1.67319e-19 1.68764e-18)
(0.003 2.32841e-19 1.65553e-18)
(0.003 1.89691e-19 1.65846e-18)
(0.003 1.73224e-19 1.54561e-18)
(0.003 1.14526e-19 1.42951e-18)
(0.003 1.63392e-19 1.33618e-18)
(0.003 2.82613e-19 1.24381e-18)
(0.003 2.08416e-19 1.18411e-18)
(0.003 1.50676e-19 1.0486e-18)
(0.003 1.3288e-19 9.83688e-19)
(0.003 1.32238e-19 1.00991e-18)
(0.003 2.35415e-19 9.27597e-19)
(0.003 1.31837e-19 6.54747e-19)
(0.003 3.55356e-21 3.71982e-19)
(0.003 1.50808e-21 2.82639e-19)
(0.003 9.97557e-21 4.14372e-19)
(0.003 1.60377e-19 5.54408e-19)
(0.003 2.66752e-19 7.22103e-19)
(0.003 1.01695e-19 8.16706e-19)
(0.003 3.94009e-20 8.17632e-19)
(0.003 7.75058e-20 4.81198e-19)
(0.003 -7.08627e-20 2.05981e-19)
(0.003 -1.61975e-19 1.76421e-19)
(0.003 -9.52341e-20 1.83999e-19)
(0.003 -5.99465e-21 4.4384e-20)
(0.003 -4.38905e-20 1.55457e-19)
(0.003 -1.09455e-19 3.24452e-19)
(0.003 -6.02832e-20 2.60587e-19)
(0.003 1.38053e-20 2.28907e-19)
(0.003 -5.141e-20 1.60272e-19)
(0.003 -2.47027e-19 2.08293e-20)
(0.003 -1.25891e-19 -2.83444e-19)
(0.003 7.64991e-20 -4.22871e-19)
(0.003 2.26012e-19 -2.72185e-19)
(0.003 3.58096e-19 -1.6555e-19)
(0.003 2.75699e-19 -1.50742e-19)
(0.003 2.84587e-19 9.71891e-19)
(0.003 2.81476e-19 1.52376e-18)
(0.003 2.16121e-19 1.64972e-18)
(0.003 1.59564e-19 1.62156e-18)
(0.003 2.01411e-19 1.65348e-18)
(0.003 1.77011e-19 1.72263e-18)
(0.003 1.28203e-19 1.62577e-18)
(0.003 2.79843e-19 1.53674e-18)
(0.003 1.99535e-19 1.347e-18)
(0.003 9.76833e-20 1.37164e-18)
(0.003 1.7844e-19 1.32742e-18)
(0.003 2.06303e-19 1.19264e-18)
(0.003 2.24103e-19 1.11261e-18)
(0.003 1.7485e-19 1.00214e-18)
(0.003 7.47281e-20 9.88672e-19)
(0.003 1.55253e-20 9.3783e-19)
(0.003 3.12181e-21 6.99435e-19)
(0.003 9.51761e-20 4.33665e-19)
(0.003 2.81022e-19 3.57512e-19)
(0.003 2.28602e-19 4.37891e-19)
(0.003 9.44547e-20 5.51477e-19)
(0.003 -5.15519e-20 6.64782e-19)
(0.003 -8.93125e-20 7.17281e-19)
(0.003 -6.31935e-20 7.61851e-19)
(0.003 -1.0216e-19 5.58751e-19)
(0.003 -1.02785e-19 2.48364e-19)
(0.003 -7.77821e-20 1.77243e-19)
(0.003 -3.88321e-20 1.61648e-19)
(0.003 -5.53955e-20 2.01327e-20)
(0.003 -1.40439e-19 1.63016e-19)
(0.003 -4.91231e-20 2.95302e-19)
(0.003 -5.67981e-22 2.89331e-19)
(0.003 -1.40142e-19 2.7174e-19)
(0.003 -5.54638e-20 1.43005e-19)
(0.003 -6.62524e-20 9.81221e-20)
(0.003 -8.44634e-20 -8.74586e-20)
(0.003 2.20932e-20 -5.1236e-19)
(0.003 2.18103e-19 -3.07199e-19)
(0.003 2.59588e-19 -2.28556e-19)
(0.003 1.81692e-19 -2.80406e-19)
(0.003 2.78392e-19 1.00925e-18)
(0.003 2.88782e-19 1.53686e-18)
(0.003 1.79163e-19 1.64587e-18)
(0.003 1.77619e-19 1.67112e-18)
(0.003 9.71603e-20 1.70914e-18)
(0.003 -3.63542e-20 1.68377e-18)
(0.003 1.28818e-19 1.62855e-18)
(0.003 1.65938e-19 1.59783e-18)
(0.003 2.05625e-19 1.48458e-18)
(0.003 1.74545e-19 1.37428e-18)
(0.003 4.34201e-20 1.26302e-18)
(0.003 8.07797e-20 1.17901e-18)
(0.003 2.40089e-19 1.12201e-18)
(0.003 2.76917e-19 1.05667e-18)
(0.003 1.20616e-19 9.90814e-19)
(0.003 -3.78471e-20 8.63638e-19)
(0.003 1.57319e-21 6.32155e-19)
(0.003 1.1017e-19 4.50474e-19)
(0.003 1.9151e-19 5.32885e-19)
(0.003 1.85161e-19 5.51206e-19)
(0.003 1.21771e-19 5.54443e-19)
(0.003 2.52349e-20 6.09173e-19)
(0.003 2.91841e-20 6.88254e-19)
(0.003 -2.94102e-20 6.63293e-19)
(0.003 -2.22374e-19 4.52545e-19)
(0.003 -1.09949e-19 1.82306e-19)
(0.003 -5.31376e-20 8.2639e-20)
(0.003 -5.86429e-20 1.52226e-19)
(0.003 -1.57124e-19 9.32217e-20)
(0.003 -2.26232e-19 1.08679e-19)
(0.003 -2.79667e-20 2.98322e-19)
(0.003 3.77847e-20 2.96398e-19)
(0.003 -9.57122e-20 1.41227e-19)
(0.003 -4.18341e-20 2.03402e-19)
(0.003 4.01668e-22 2.9873e-19)
(0.003 -4.06988e-20 -8.55181e-20)
(0.003 8.82134e-20 -5.33281e-19)
(0.003 2.16228e-19 -3.23511e-19)
(0.003 1.58419e-19 -2.90312e-19)
(0.003 1.10913e-19 -3.65859e-19)
(0.003 2.83886e-21 1.10683e-18)
(0.003 1.79326e-19 1.63755e-18)
(0.003 1.90672e-19 1.64474e-18)
(0.003 3.02234e-20 1.6709e-18)
(0.003 -1.08292e-19 1.64248e-18)
(0.003 -6.84517e-20 1.63281e-18)
(0.003 1.77351e-19 1.62795e-18)
(0.003 2.31139e-19 1.56806e-18)
(0.003 1.36241e-19 1.44074e-18)
(0.003 9.01625e-22 1.43569e-18)
(0.003 -5.84106e-20 1.30712e-18)
(0.003 1.806e-19 1.14652e-18)
(0.003 2.48528e-19 1.17604e-18)
(0.003 2.05175e-19 1.14867e-18)
(0.003 8.70967e-20 1.06222e-18)
(0.003 3.70635e-20 8.751e-19)
(0.003 5.02062e-20 6.75766e-19)
(0.003 1.99217e-19 5.20628e-19)
(0.003 2.10632e-19 4.82666e-19)
(0.003 9.03865e-20 4.78668e-19)
(0.003 1.80769e-19 5.50184e-19)
(0.003 7.27931e-20 6.62495e-19)
(0.003 -6.76126e-20 6.75725e-19)
(0.003 -5.65043e-20 5.93536e-19)
(0.003 -1.40579e-19 4.16044e-19)
(0.003 -5.23296e-20 5.2794e-20)
(0.003 3.66179e-20 -1.00329e-20)
(0.003 2.99659e-21 1.55767e-19)
(0.003 -6.99861e-20 9.94833e-21)
(0.003 -1.67072e-19 4.59848e-20)
(0.003 -2.57794e-19 4.05104e-19)
(0.003 -1.30204e-19 3.35187e-19)
(0.003 4.22689e-21 2.05997e-19)
(0.003 -1.05529e-19 1.99935e-19)
(0.003 -9.06011e-20 2.3642e-19)
(0.003 4.29158e-21 -1.05695e-19)
(0.003 7.09527e-20 -6.14572e-19)
(0.003 9.11049e-20 -3.57393e-19)
(0.003 6.70965e-20 -4.01314e-19)
(0.003 -5.08164e-20 -4.8027e-19)
(0.003 -2.14796e-19 1.08596e-18)
(0.003 -2.03068e-19 1.59129e-18)
(0.003 1.71934e-20 1.7296e-18)
(0.003 1.40059e-20 1.632e-18)
(0.003 2.40892e-20 1.57663e-18)
(0.003 3.43542e-21 1.63085e-18)
(0.003 1.21798e-19 1.69711e-18)
(0.003 2.60085e-19 1.60037e-18)
(0.003 4.69523e-20 1.47141e-18)
(0.003 -9.66392e-20 1.3958e-18)
(0.003 1.13459e-19 1.27753e-18)
(0.003 2.7463e-19 1.2256e-18)
(0.003 1.66178e-19 1.25994e-18)
(0.003 -2.87272e-21 1.1625e-18)
(0.003 1.399e-20 9.76045e-19)
(0.003 3.18732e-20 8.53689e-19)
(0.003 1.18573e-19 6.2376e-19)
(0.003 3.45532e-19 5.42398e-19)
(0.003 2.13511e-19 5.94428e-19)
(0.003 7.84099e-20 4.8806e-19)
(0.003 1.97841e-19 6.02653e-19)
(0.003 5.46896e-20 6.74033e-19)
(0.003 -1.86271e-19 6.80308e-19)
(0.003 -2.61798e-19 5.64858e-19)
(0.003 -2.08773e-19 2.99402e-19)
(0.003 1.54019e-20 8.42957e-20)
(0.003 2.60164e-19 -3.6596e-20)
(0.003 1.75177e-19 1.44217e-19)
(0.003 9.13728e-22 1.43981e-19)
(0.003 -7.86279e-20 1.20612e-19)
(0.003 -1.2046e-19 2.68383e-19)
(0.003 -1.3408e-19 2.58713e-19)
(0.003 -8.58627e-20 1.85836e-19)
(0.003 -9.32185e-20 7.99631e-20)
(0.003 -9.09026e-20 1.73406e-19)
(0.003 -1.0533e-19 -2.87023e-20)
(0.003 -3.16478e-20 -4.50754e-19)
(0.003 3.91945e-20 -3.6945e-19)
(0.003 -8.1373e-20 -4.74237e-19)
(0.003 -1.63648e-19 -5.83397e-19)
(0.003 -7.47487e-20 1.04417e-18)
(0.003 -2.61442e-19 1.61259e-18)
(0.003 -1.91622e-19 1.78207e-18)
(0.003 -1.20568e-19 1.66819e-18)
(0.003 4.18878e-20 1.65796e-18)
(0.003 6.12165e-20 1.68702e-18)
(0.003 4.54113e-21 1.68002e-18)
(0.003 5.67051e-20 1.60191e-18)
(0.003 1.12149e-20 1.47433e-18)
(0.003 5.02313e-20 1.29352e-18)
(0.003 1.92831e-19 1.32066e-18)
(0.003 2.32908e-19 1.34949e-18)
(0.003 3.07082e-20 1.32074e-18)
(0.003 -4.21044e-20 1.18634e-18)
(0.003 4.39039e-20 1.03908e-18)
(0.003 8.78332e-20 8.35164e-19)
(0.003 1.4852e-19 6.04126e-19)
(0.003 1.03596e-19 5.88684e-19)
(0.003 1.26689e-19 5.86962e-19)
(0.003 2.02391e-19 4.73002e-19)
(0.003 6.66299e-20 5.75528e-19)
(0.003 1.16956e-20 7.3329e-19)
(0.003 -1.54583e-19 6.60261e-19)
(0.003 -3.42855e-19 4.26179e-19)
(0.003 -1.89991e-19 1.55896e-19)
(0.003 -2.55043e-20 2.27088e-19)
(0.003 1.36993e-19 1.34814e-19)
(0.003 8.93525e-20 3.77211e-20)
(0.003 3.06991e-20 1.34326e-19)
(0.003 1.20475e-19 1.40816e-19)
(0.003 4.55714e-20 2.06133e-19)
(0.003 7.33463e-21 2.20853e-19)
(0.003 -8.31255e-20 1.45711e-19)
(0.003 -1.29143e-19 1.21924e-19)
(0.003 -1.20699e-19 6.62943e-20)
(0.003 -1.66923e-19 -8.47617e-20)
(0.003 -1.70886e-19 -2.88218e-19)
(0.003 -2.43234e-19 -3.25763e-19)
(0.003 -2.38882e-19 -4.46255e-19)
(0.003 -6.05515e-20 -5.22477e-19)
(0.003 -1.4616e-19 9.70726e-19)
(0.003 -1.28211e-19 1.53387e-18)
(0.003 -2.03375e-20 1.73741e-18)
(0.003 -1.15315e-19 1.69765e-18)
(0.003 -1.51078e-19 1.73254e-18)
(0.003 -1.6846e-20 1.71226e-18)
(0.003 -2.62399e-20 1.72343e-18)
(0.003 1.48709e-20 1.70141e-18)
(0.003 1.02663e-19 1.51786e-18)
(0.003 1.49061e-19 1.34728e-18)
(0.003 1.18437e-19 1.3452e-18)
(0.003 1.18956e-19 1.38312e-18)
(0.003 1.23856e-20 1.30717e-18)
(0.003 -5.6813e-20 1.22113e-18)
(0.003 -7.47811e-20 1.0048e-18)
(0.003 1.03749e-19 7.48602e-19)
(0.003 1.64615e-19 5.74367e-19)
(0.003 -6.92009e-20 6.35781e-19)
(0.003 5.8769e-20 7.05142e-19)
(0.003 2.09364e-19 5.9513e-19)
(0.003 7.88334e-20 6.45047e-19)
(0.003 -1.41858e-20 5.762e-19)
(0.003 -1.66938e-19 4.7157e-19)
(0.003 -2.72248e-19 2.9302e-19)
(0.003 -1.75441e-19 1.66233e-19)
(0.003 -6.74408e-20 2.78587e-19)
(0.003 -1.04448e-19 1.97382e-19)
(0.003 -6.91062e-20 1.64843e-19)
(0.003 8.14584e-20 1.78212e-19)
(0.003 1.66149e-19 1.46791e-19)
(0.003 1.03984e-19 1.35373e-19)
(0.003 8.30225e-21 1.79192e-19)
(0.003 -1.32056e-19 1.44214e-19)
(0.003 -1.95112e-19 1.71872e-19)
(0.003 -1.62696e-19 7.54065e-20)
(0.003 -5.98805e-20 -1.45652e-19)
(0.003 -8.26879e-20 -3.2206e-19)
(0.003 -2.22619e-19 -3.07265e-19)
(0.003 -1.79731e-19 -5.70693e-19)
(0.003 -8.24711e-20 -6.38691e-19)
(0.003 -1.84018e-19 9.19006e-19)
(0.003 -2.03578e-19 1.57127e-18)
(0.003 -1.55289e-19 1.84936e-18)
(0.003 3.11621e-21 1.75759e-18)
(0.003 3.3404e-20 1.68398e-18)
(0.003 -2.32066e-20 1.71655e-18)
(0.003 -1.37479e-19 1.72312e-18)
(0.003 -2.0731e-19 1.66247e-18)
(0.003 4.54342e-20 1.57869e-18)
(0.003 1.86475e-19 1.42195e-18)
(0.003 1.03388e-19 1.36238e-18)
(0.003 2.85368e-20 1.38342e-18)
(0.003 6.63195e-20 1.25354e-18)
(0.003 -1.79934e-20 1.19071e-18)
(0.003 -3.11198e-21 1.03793e-18)
(0.003 4.58171e-20 8.9374e-19)
(0.003 1.03313e-19 6.69722e-19)
(0.003 2.2045e-19 5.07886e-19)
(0.003 2.45621e-19 5.59039e-19)
(0.003 1.0839e-19 5.33954e-19)
(0.003 -9.91969e-20 6.34999e-19)
(0.003 -2.1231e-19 7.1764e-19)
(0.003 -1.27423e-19 4.72956e-19)
(0.003 -7.00047e-20 3.04758e-19)
(0.003 -1.21715e-19 1.93823e-19)
(0.003 -1.42984e-19 2.6656e-19)
(0.003 -6.94956e-20 3.30592e-19)
(0.003 -9.01608e-20 2.12218e-19)
(0.003 -1.67389e-20 1.68291e-19)
(0.003 3.10083e-20 1.58324e-19)
(0.003 1.37482e-19 1.25939e-19)
(0.003 -5.30323e-20 8.6633e-20)
(0.003 -1.17039e-19 4.90319e-20)
(0.003 -5.3622e-20 1.34202e-19)
(0.003 -9.4328e-20 8.91808e-20)
(0.003 -1.01507e-19 -5.27102e-20)
(0.003 -1.85336e-19 -2.2124e-19)
(0.003 -1.82589e-19 -3.39364e-19)
(0.003 3.47048e-20 -4.7339e-19)
(0.003 1.16687e-19 -4.85522e-19)
(0.003 -1.02241e-19 9.06362e-19)
(0.003 -2.09144e-19 1.5198e-18)
(0.003 -2.02663e-19 1.72196e-18)
(0.003 6.37361e-20 1.78608e-18)
(0.003 1.2486e-19 1.73107e-18)
(0.003 -1.13722e-19 1.71763e-18)
(0.003 -2.70243e-19 1.70622e-18)
(0.003 -1.58261e-19 1.69348e-18)
(0.003 5.97301e-20 1.62458e-18)
(0.003 1.25147e-19 1.51425e-18)
(0.003 3.45702e-20 1.37375e-18)
(0.003 4.28302e-20 1.35255e-18)
(0.003 2.95242e-20 1.30449e-18)
(0.003 2.67655e-20 1.21503e-18)
(0.003 1.47882e-19 1.03459e-18)
(0.003 4.54173e-20 8.87297e-19)
(0.003 -1.08456e-20 7.71943e-19)
(0.003 1.28448e-19 6.57291e-19)
(0.003 2.3383e-19 6.46778e-19)
(0.003 3.76345e-20 4.53748e-19)
(0.003 -1.55975e-19 5.37908e-19)
(0.003 -1.9749e-19 6.09675e-19)
(0.003 -5.49982e-20 5.04618e-19)
(0.003 -3.36194e-20 3.61686e-19)
(0.003 -1.57717e-20 2.34614e-19)
(0.003 -1.22864e-19 2.59768e-19)
(0.003 1.37315e-20 3.19981e-19)
(0.003 3.96416e-20 1.92977e-19)
(0.003 -4.49778e-20 7.49168e-20)
(0.003 1.23748e-20 1.02061e-19)
(0.003 4.88308e-20 1.4654e-19)
(0.003 -2.65371e-20 4.10284e-20)
(0.003 2.8439e-20 4.33749e-20)
(0.003 2.98708e-20 1.37791e-19)
(0.003 -9.99212e-21 4.57312e-20)
(0.003 -1.42863e-19 -2.48655e-20)
(0.003 -1.91544e-19 -2.84987e-20)
(0.003 -1.02207e-19 -1.38525e-19)
(0.003 5.65819e-20 -2.73206e-19)
(0.003 1.31234e-19 -2.90621e-19)
(0.003 5.32966e-20 9.7916e-19)
(0.003 7.16648e-20 1.52174e-18)
(0.003 4.5098e-20 1.67154e-18)
(0.003 -5.29772e-20 1.72436e-18)
(0.003 -4.73101e-20 1.75043e-18)
(0.003 -1.2045e-19 1.67328e-18)
(0.003 -2.67623e-19 1.60001e-18)
(0.003 -2.72753e-19 1.67381e-18)
(0.003 -1.05535e-19 1.69427e-18)
(0.003 1.20315e-19 1.57577e-18)
(0.003 2.0147e-19 1.37747e-18)
(0.003 9.55878e-20 1.37372e-18)
(0.003 5.55544e-20 1.23743e-18)
(0.003 1.18494e-19 1.23109e-18)
(0.003 1.00459e-19 1.15427e-18)
(0.003 -7.1852e-21 9.61665e-19)
(0.003 -1.00978e-19 7.03271e-19)
(0.003 -2.29406e-19 5.1726e-19)
(0.003 -1.52118e-19 6.5922e-19)
(0.003 -2.03267e-20 5.40953e-19)
(0.003 -8.19456e-20 5.08454e-19)
(0.003 -4.85084e-20 6.05106e-19)
(0.003 -1.69324e-20 6.10862e-19)
(0.003 8.22582e-20 3.6674e-19)
(0.003 1.52104e-19 1.92073e-19)
(0.003 2.23322e-20 2.05527e-19)
(0.003 3.55086e-20 3.23086e-19)
(0.003 1.1075e-19 2.21584e-19)
(0.003 8.19268e-20 1.20688e-19)
(0.003 -3.20083e-20 4.35703e-20)
(0.003 -8.49173e-20 1.67354e-19)
(0.003 -3.36437e-20 9.21645e-20)
(0.003 3.99581e-20 2.63521e-20)
(0.003 -3.14558e-20 7.58587e-20)
(0.003 -3.82221e-21 5.81225e-20)
(0.003 2.28358e-20 3.65378e-20)
(0.003 -1.53438e-20 2.32426e-20)
(0.003 -6.96453e-20 -1.53956e-19)
(0.003 -9.9384e-20 -3.09374e-19)
(0.003 -5.17212e-20 -3.50169e-19)
(0.003 2.19981e-19 9.25552e-19)
(0.003 1.84152e-19 1.47655e-18)
(0.003 -1.22246e-20 1.65885e-18)
(0.003 -1.20897e-19 1.70104e-18)
(0.003 -8.9087e-20 1.69816e-18)
(0.003 2.64746e-20 1.67509e-18)
(0.003 -7.04124e-20 1.5713e-18)
(0.003 -3.23021e-19 1.54698e-18)
(0.003 -2.60572e-19 1.61705e-18)
(0.003 -3.81761e-20 1.69125e-18)
(0.003 2.19906e-19 1.67245e-18)
(0.003 8.81422e-20 1.48021e-18)
(0.003 9.02751e-20 1.29559e-18)
(0.003 1.75532e-19 1.21517e-18)
(0.003 2.69739e-20 1.13876e-18)
(0.003 -6.54105e-20 8.93424e-19)
(0.003 -1.0797e-19 6.95707e-19)
(0.003 -1.74319e-19 5.34506e-19)
(0.003 -2.74422e-19 6.08166e-19)
(0.003 -1.44764e-19 5.23104e-19)
(0.003 -1.13812e-19 4.97234e-19)
(0.003 -1.36717e-19 5.09044e-19)
(0.003 -1.08415e-20 5.79529e-19)
(0.003 1.06646e-19 5.13593e-19)
(0.003 2.04996e-19 3.45788e-19)
(0.003 1.77137e-19 2.09384e-19)
(0.003 -6.62898e-21 2.12703e-19)
(0.003 8.40654e-20 1.90906e-19)
(0.003 1.0575e-19 1.37127e-19)
(0.003 -1.36014e-20 1.09419e-21)
(0.003 -5.10226e-20 8.43303e-20)
(0.003 -5.67719e-20 1.04617e-20)
(0.003 -1.95735e-20 -3.85304e-20)
(0.003 -3.3949e-20 7.17161e-20)
(0.003 7.49737e-20 9.17817e-20)
(0.003 2.28532e-19 8.61411e-20)
(0.003 4.5458e-20 6.81168e-21)
(0.003 -3.64542e-20 -1.64407e-19)
(0.003 -1.70632e-19 -2.77267e-19)
(0.003 -2.63231e-19 -1.34783e-19)
(0.003 2.22077e-19 9.26941e-19)
(0.003 2.41567e-19 1.48461e-18)
(0.003 -3.58878e-20 1.63985e-18)
(0.003 -4.42044e-20 1.65735e-18)
(0.003 -3.86914e-21 1.65998e-18)
(0.003 5.53826e-20 1.641e-18)
(0.003 4.19642e-20 1.58331e-18)
(0.003 -1.10525e-19 1.52186e-18)
(0.003 -1.9184e-19 1.53685e-18)
(0.003 -2.07094e-19 1.74715e-18)
(0.003 -1.14995e-19 1.70892e-18)
(0.003 2.75781e-20 1.5214e-18)
(0.003 7.59895e-20 1.35316e-18)
(0.003 -8.41963e-20 1.25942e-18)
(0.003 -1.10716e-19 1.10503e-18)
(0.003 -7.00121e-20 9.36883e-19)
(0.003 -1.66783e-19 7.2926e-19)
(0.003 -2.24981e-19 5.41719e-19)
(0.003 -3.11578e-19 5.68916e-19)
(0.003 -2.0167e-19 5.53266e-19)
(0.003 -7.67256e-20 4.6381e-19)
(0.003 -2.20053e-20 4.92149e-19)
(0.003 1.25324e-19 6.03316e-19)
(0.003 1.27522e-19 4.68024e-19)
(0.003 9.42145e-20 2.85795e-19)
(0.003 1.72856e-19 2.66112e-19)
(0.003 6.49581e-20 2.37326e-19)
(0.003 7.34343e-20 2.41069e-19)
(0.003 8.82216e-20 1.68186e-19)
(0.003 4.2181e-20 -8.68209e-20)
(0.003 9.46879e-20 -1.12061e-19)
(0.003 1.03486e-19 -7.74119e-20)
(0.003 -1.48484e-20 -7.49544e-20)
(0.003 2.01341e-20 3.17413e-20)
(0.003 1.29309e-19 2.18635e-19)
(0.003 1.40054e-19 1.38504e-19)
(0.003 8.01761e-20 -1.52264e-19)
(0.003 -1.16844e-20 -2.51631e-19)
(0.003 2.82995e-21 -1.73675e-19)
(0.003 -1.70902e-20 5.62775e-20)
(0.003 -1.11875e-19 9.53552e-19)
(0.003 -4.86253e-20 1.54304e-18)
(0.003 4.23087e-20 1.59939e-18)
(0.003 -1.8119e-20 1.58786e-18)
(0.003 -2.13577e-20 1.61916e-18)
(0.003 7.25875e-20 1.69528e-18)
(0.003 8.34675e-20 1.61081e-18)
(0.003 1.16476e-19 1.43563e-18)
(0.003 -7.67717e-20 1.48861e-18)
(0.003 -1.94912e-19 1.64413e-18)
(0.003 -1.90131e-19 1.65369e-18)
(0.003 -1.02436e-19 1.61214e-18)
(0.003 -1.83964e-19 1.45204e-18)
(0.003 -2.04875e-19 1.15254e-18)
(0.003 -1.25198e-19 9.50121e-19)
(0.003 -2.01666e-19 8.78521e-19)
(0.003 -2.22525e-19 7.90023e-19)
(0.003 -1.22616e-19 5.94083e-19)
(0.003 -1.76419e-19 4.95115e-19)
(0.003 -2.22982e-19 5.29263e-19)
(0.003 -1.37043e-19 4.93304e-19)
(0.003 2.27684e-20 5.71034e-19)
(0.003 6.01568e-20 6.45633e-19)
(0.003 1.18799e-19 4.91287e-19)