/*--------------------------------*- C++ -*----------------------------------*\
| =========                 |                                                 |
| \\      /  F ield         | OpenFOAM: The Open Source CFD Toolbox           |
|  \\    /   O peration     | Version:  v2012                                 |
|   \\  /    A nd           | Website:  www.openfoam.com                      |
|    \\/     M anipulation  |                                                 |
\*---------------------------------------------------------------------------*/
FoamFile
{
    version     2.0;
    format      ascii;
    class       volScalarField;
    location    "230/rightSolid";
    object      T;
}
// * * * * * * * * * * * * * * * * * * * * * * * * * * * * * * * * * * * * * //

dimensions      [0 0 0 1 0 0 0];


internalField   nonuniform List<scalar> 
130
(
703.99528
710.74343
717.76027
724.70712
731.33066
737.36845
742.7107
747.30325
751.11808
754.16171
756.44359
757.96695
758.73127
699.09439
707.00004
715.01791
722.7525
729.95625
736.41494
742.0536
746.85172
750.80627
753.94303
756.28311
757.84095
758.62023
689.1281
699.69897
709.88195
719.21771
727.53533
734.76571
740.93123
746.08496
750.28517
753.58371
756.02002
757.62781
758.43154
674.05843
689.66804
703.34174
714.97153
724.76296
732.94912
739.72715
745.27431
749.72976
753.19461
755.73812
757.40867
758.23711
656.07609
679.99237
697.83852
711.693
722.73157
731.64994
738.87056
744.69369
749.31573
752.89271
755.51089
757.22716
758.0754
655.95693
679.84356
697.67958
711.53151
722.56881
731.48002
738.70626
744.54793
749.2007
752.80529
755.44256
757.17282
758.03092
673.82717
689.31879
702.93601
714.54183
724.33302
732.52269
739.32298
744.91214
749.42752
752.95865
755.55558
757.26409
758.11218
688.95233
699.3988
709.48229
718.74265
727.00546
734.22204
740.40501
745.60513
749.87839
753.27124
755.78417
757.4446
758.27205
699.05911
706.85638
714.76972
722.39128
729.47198
735.87144
741.51895
746.36389
750.40409
753.64686
756.06562
757.66614
758.46209
704.09031
710.73851
717.64243
724.45374
730.9177
736.86993
742.21083
746.84939
750.7475
753.89101
756.24279
757.80484
758.58386
)
;

boundaryField
{
    maxX
    {
        type            zeroGradient;
    }
    minZ
    {
        type            zeroGradient;
    }
    maxZ
    {
        type            zeroGradient;
    }
    rightSolid_to_bottomWater
    {
        type            compressible::turbulentTemperatureCoupledBaffleMixed;
        refValue        nonuniform List<scalar> 
130
(
958.23305
961.11252
961.63778
963.6881
975.05529
976.84338
977.59516
978.44717
977.4577
977.25228
978.14198
979.18344
980.10081
962.76048
965.58663
965.79261
966.9458
976.00356
977.88279
978.49288
979.71449
978.60206
978.3123
978.88382
980.2364
980.82194
964.26153
968.53048
970.55824
971.59436
975.84615
976.85564
977.48294
978.04413
978.66437
979.54559
979.49826
978.92736
979.65023
960.98782
969.46504
970.05811
970.19504
972.423
975.30723
975.71987
975.61455
976.06416
976.70608
977.1127
977.09835
976.86578
948.26791
960.7523
964.73013
966.78303
969.68129
973.79735
974.22514
974.64807
972.08142
972.36038
972.87982
973.21782
972.52529
938.45325
953.71871
959.75739
963.24039
966.72138
968.15766
968.50923
969.86175
970.08434
971.45455
971.65421
971.96066
972.1856
948.14904
950.36828
953.57716
955.72082
961.73831
964.56209
966.04823
967.198
969.79082
972.55101
973.36746
973.79569
973.72523
953.95913
957.34726
958.04447
958.25467
960.41362
963.62298
964.74975
965.82443
967.3501
972.51917
973.84262
974.71542
975.26225
958.09966
960.7205
961.97567
961.7585
961.64642
962.18017
965.6355
966.79444
968.407
973.38925
975.50772
975.78376
975.32218
961.78769
963.15689
964.05405
964.10464
963.18908
962.47974
965.88679
967.8199
969.23978
973.52747
974.33697
974.60237
974.60035
)
;
        refGradient     uniform 0;
        valueFraction   nonuniform List<scalar> 
130
(
0.0075140686
0.0075140686
0.0075140686
0.0075140686
0.0075140686
0.0075140686
0.0075140686
0.0075140686
0.0075140686
0.0075140686
0.0075140686
0.0075140686
0.0075140686
0.0075140686
0.0075140686
0.0075140686
0.0075140686
0.0075140686
0.0075140686
0.0075140686
0.0075140686
0.0075140686
0.0075140686
0.0075140686
0.0075140686
0.0075140686
0.0075140686
0.0075140686
0.0075140686
0.0075140686
0.0075140686
0.0075140686
0.0075140686
0.0075140686
0.0075140686
0.0075140686
0.0075140686
0.0075140686
0.0075140686
0.0075140686
0.0075140686
0.0075140686
0.0075140686
0.0075140686
0.0075140686
0.0075140686
0.0075140686
0.0075140686
0.0075140686
0.0075140686
0.0075140686
0.0075140686
0.0075140686
0.0075140686
0.0075140686
0.0075140686
0.0075140686
0.0075140686
0.0075140686
0.0075140686
0.0075140686
0.0075140686
0.0075140686
0.0075140686
0.0075140686
0.0075140686
0.0075140686
0.0075140686
0.0075140686
0.0075140686
0.0075140686
0.0075140686
0.0075140686
0.0075140686
0.0075140686
0.0075140686
0.0075140686
0.0075140686
0.0075140686
0.0075140686
0.0075140686
0.0075140686
0.0075140686
0.0075140686
0.0075140686
0.0075140686
0.0075140686
0.0075140686
0.0075140686
0.0075140686
0.0075140686
0.0075140686
0.0075140686
0.0075140686
0.0075140686
0.0075140686
0.0075140686
0.0075140686
0.0075140686
0.0075140686
0.0075140686
0.0075140686
0.0075140686
0.0075140686
0.0075140686
0.0075140686
0.0075140686
0.0075140686
0.0075140686
0.0075140686
0.0075140686
0.0075140686
0.0075140686
0.0075140686
0.0075140686
0.0075140686
0.0075140686
0.0075140686
0.0075140686
0.0075140686
0.0075140686
0.0075140686
0.0075140686
0.0075140686
0.0075140686
0.0075140686
0.0075140686
0.0075140686
0.0075140686
0.0075140686
)
;
        value           nonuniform List<scalar> 
130
(
705.89723
712.61606
719.58386
726.4936
733.15246
739.1581
744.46565
749.02992
752.80851
755.82761
758.09891
759.61857
760.38399
701.06726
708.93445
716.89335
724.57817
731.79556
738.21961
743.82027
748.59133
752.50766
755.61855
757.94524
759.50146
760.27925
691.18736
701.71054
711.83196
721.10501
729.39175
736.57511
742.69878
747.81782
751.99099
755.27125
757.6888
759.28015
760.08323
676.20673
691.7623
705.3373
716.88035
726.61456
734.76058
741.49054
746.99504
751.42026
754.86378
757.39114
759.04896
759.8694
658.26442
682.09417
699.83558
713.60093
724.57792
733.45987
740.6292
746.41155
750.97943
754.53153
757.13386
758.83971
759.67636
658.07246
681.89371
699.64056
713.41411
724.39421
733.24892
740.42323
746.23095
750.85028
754.43799
757.05689
758.7764
759.62973
675.8809
691.27236
704.81096
716.3453
726.1078
734.25683
741.01692
746.57251
751.0733
754.59854
757.18202
758.88088
759.72205
690.93579
701.32892
711.34156
720.53362
728.75029
735.93648
742.08122
747.25014
751.5026
754.90869
757.4126
759.06706
759.89237
700.99761
708.75573
716.61878
724.18118
731.20759
737.56274
743.19358
748.01064
752.03244
755.28817
757.70456
759.29505
760.0815
706.01865
712.62696
719.48549
726.24576
732.65405
738.55601
743.88221
748.50026
752.37959
755.53155
757.87162
759.42385
760.19695
)
;
        Tnbr            T;
        thicknessLayers List<scalar> 0();
        kappaLayers     List<scalar> 0();
        kappaMethod     solidThermo;
        kappa           none;
        alphaAni        none;
        alpha           none;
        field           T;
    }
    rightSolid_to_topAir
    {
        type            compressible::turbulentTemperatureCoupledBaffleMixed;
        refValue        nonuniform List<scalar> 
130
(
468.16571
464.00574
459.98573
456.43841
453.51344
451.25745
449.68794
448.83137
448.74179
449.53713
451.48281
455.14532
461.24448
427.0018
422.43201
419.09248
416.71015
414.99787
413.79337
413.08359
412.94895
413.51113
414.97844
417.83073
423.14414
431.46695
431.80048
422.65471
414.80242
408.51232
403.7069
400.2658
398.14491
397.32119
397.7319
399.32338
402.26002
407.63935
419.86165
469.57246
469.45369
469.48162
469.06469
467.98912
466.27882
464.1897
461.98918
460.02886
459.56387
463.25834
470.68493
479.63676
471.75419
476.1805
480.77876
485.33442
489.64408
493.51307
496.77341
499.3223
501.21738
502.85487
505.14455
509.3717
517.36694
471.33197
475.78036
480.40628
484.99862
489.35628
493.28273
496.60255
499.20092
501.14221
502.83587
505.21455
509.57169
517.74838
468.78509
468.86515
469.07302
468.82439
467.91302
466.34257
464.33061
462.08977
460.03306
459.53
463.2709
470.77976
479.8822
431.20607
422.12811
414.40837
408.25744
403.56187
400.18519
398.06739
397.17887
397.47801
398.93911
401.74263
406.98119
419.05109
426.642
422.01154
418.65433
416.29132
414.62388
413.4761
412.81677
412.70748
413.25809
414.67523
417.43818
422.62619
430.92981
468.00432
463.79257
459.73176
456.1591
453.22455
450.97354
449.41762
448.57337
448.48607
449.26875
451.18371
454.79545
460.83864
)
;
        refGradient     uniform 0;
        valueFraction   nonuniform List<scalar> 
130
(
0.00032132529
0.00032132529
0.00032132529
0.00032132529
0.00032132529
0.00032132529
0.00032132529
0.00032132529
0.00032132529
0.00032132529
0.00032132529
0.00032132529
0.00032132529
0.00032132529
0.00032132529
0.00032132529
0.00032132529
0.00032132529
0.00032132529
0.00032132529
0.00032132529
0.00032132529
0.00032132529
0.00032132529
0.00032132529
0.00032132529
0.00032132529
0.00032132529
0.00032132529
0.00032132529
0.00032132529
0.00032132529
0.00032132529
0.00032132529
0.00032132529
0.00032132529
0.00032132529
0.00032132529
0.00032132529
0.00032132529
0.00032132529
0.00032132529
0.00032132529
0.00032132529
0.00032132529
0.00032132529
0.00032132529
0.00032132529
0.00032132529
0.00032132529
0.00032132529
0.00032132529
0.00032132529
0.00032132529
0.00032132529
0.00032132529
0.00032132529
0.00032132529
0.00032132529
0.00032132529
0.00032132529
0.00032132529
0.00032132529
0.00032132529
0.00032132529
0.00032132529
0.00032132529
0.00032132529
0.00032132529
0.00032132529
0.00032132529
0.00032132529
0.00032132529
0.00032132529
0.00032132529
0.00032132529
0.00032132529
0.00032132529
0.00032132529
0.00032132529
0.00032132529
0.00032132529
0.00032132529
0.00032132529
0.00032132529
0.00032132529
0.00032132529
0.00032132529
0.00032132529
0.00032132529
0.00032132529
0.00032132529
0.00032132529
0.00032132529
0.00032132529
0.00032132529
0.00032132529
0.00032132529
0.00032132529
0.00032132529
0.00032132529
0.00032132529
0.00032132529
0.00032132529
0.00032132529
0.00032132529
0.00032132529
0.00032132529
0.00032132529
0.00032132529
0.00032132529
0.00032132529
0.00032132529
0.00032132529
0.00032132529
0.00032132529
0.00032132529
0.00032132529
0.00032132529
0.00032132529
0.00032132529
0.00032132529
0.00032132529
0.00032132529
0.00032132529
0.00032132529
0.00032132529
0.00032132529
0.00032132529
0.00032132529
)
;
        value           nonuniform List<scalar> 
130
(
703.91103
710.65542
717.66846
724.61161
731.23176
737.26666
742.60648
747.19711
751.01054
754.05333
756.33499
757.85896
758.62494
698.99856
706.89991
714.91386
722.64488
729.84547
736.30146
741.93787
746.73421
750.68753
753.82363
756.16377
757.72274
758.50441
689.03724
699.60144
709.77834
719.10873
727.4218
734.64848
740.8111
745.96272
750.16158
753.45945
755.89582
757.50475
758.31211
673.98496
689.58906
703.25796
714.8835
724.67105
732.85373
739.62866
745.17315
749.6264
753.08987
755.63366
757.30599
758.13701
656.0096
679.91898
697.76033
711.61136
722.64735
731.56377
738.78286
744.60474
749.22576
752.80201
755.42001
757.13703
757.98755
655.89039
679.77017
697.60141
711.4499
722.48463
731.3939
738.61861
744.45902
749.11077
752.71465
755.35178
757.08283
757.94328
673.75369
689.23992
702.85242
714.45404
724.24146
732.42767
739.22486
744.81129
749.32441
752.85415
755.45138
757.16171
758.01245
688.86163
699.30152
709.37897
718.63408
726.89245
734.10534
740.2854
745.48337
749.7552
753.14732
755.66026
757.32178
758.15282
698.96357
706.75659
714.66604
722.28414
729.36178
735.75858
741.40387
746.24703
750.28594
753.52802
755.94677
757.54837
758.34668
704.00637
710.65086
717.551
724.35873
730.81945
736.76883
742.10735
746.74396
750.64063
753.78324
756.13475
757.69738
758.47804
)
;
        Tnbr            T;
        thicknessLayers List<scalar> 0();
        kappaLayers     List<scalar> 0();
        kappaMethod     solidThermo;
        kappa           none;
        alphaAni        none;
        alpha           none;
        field           T;
    }
    rightSolid_to_heater
    {
        type            compressible::turbulentTemperatureCoupledBaffleMixed;
        refValue        nonuniform List<scalar> 10(697.95247 691.87609 679.10618 657.82612 622.17662 622.12582 657.74916 679.08611 691.95331 698.1201);
        refGradient     uniform 0;
        valueFraction   nonuniform List<scalar> 10(0.50000003 0.50000003 0.50000003 0.50000003 0.50000003 0.50000003 0.50000003 0.50000003 0.50000003 0.50000003);
        value           nonuniform List<scalar> 10(700.96964 695.48104 684.11305 665.93839 639.12272 639.03777 665.78436 684.01528 695.5022 701.10117);
        Tnbr            T;
        thicknessLayers List<scalar> 0();
        kappaLayers     List<scalar> 0();
        kappaMethod     solidThermo;
        kappa           none;
        alphaAni        none;
        alpha           none;
        field           T;
    }
}


// ************************************************************************* //
