/*--------------------------------*- C++ -*----------------------------------*\
| =========                 |                                                 |
| \\      /  F ield         | OpenFOAM: The Open Source CFD Toolbox           |
|  \\    /   O peration     | Version:  v2012                                 |
|   \\  /    A nd           | Website:  www.openfoam.com                      |
|    \\/     M anipulation  |                                                 |
\*---------------------------------------------------------------------------*/
FoamFile
{
    version     2.0;
    format      ascii;
    class       volScalarField;
    location    "190/rightSolid";
    object      T;
}
// * * * * * * * * * * * * * * * * * * * * * * * * * * * * * * * * * * * * * //

dimensions      [0 0 0 1 0 0 0];


internalField   nonuniform List<scalar> 
130
(
678.20661
684.20861
690.40575
696.48036
702.17823
707.36077
711.95195
715.92017
719.25746
721.93015
723.9319
725.26434
725.93204
673.60541
680.66753
687.78977
694.61138
700.87459
706.47563
711.3644
715.53563
719.00119
721.75682
723.81375
725.18175
725.86498
664.27761
673.78349
682.9097
691.22357
698.56985
704.93753
710.37619
714.90729
718.59105
721.48575
723.62605
725.04542
725.75445
650.30056
664.45449
676.82532
687.28556
696.03898
703.33766
709.35911
714.25776
718.1745
721.22017
723.4485
724.91514
725.64706
633.89628
655.67189
671.8426
684.34212
694.26129
702.2571
708.69124
713.84769
717.92536
721.06136
723.34539
724.8449
725.59261
634.05089
655.80783
671.95412
684.42438
694.30254
702.24957
708.68809
713.86766
717.95315
721.09024
723.37788
724.88237
725.63196
650.72999
664.81322
677.10253
687.49195
696.18384
703.42153
709.43234
714.34781
718.27429
721.31183
723.53392
724.99772
725.73144
664.78878
674.21151
683.26471
691.50177
698.78915
705.11309
710.53009
715.05863
718.74266
721.62816
723.75291
725.15765
725.86031
674.07714
681.04191
688.09747
694.83628
701.05107
706.64385
711.56034
715.74477
719.1998
721.94298
723.98313
725.3374
726.00096
678.65132
684.54968
690.66485
696.66061
702.32077
707.51549
712.15458
716.14728
719.47285
722.12455
724.10913
725.43143
726.08221
)
;

boundaryField
{
    maxX
    {
        type            zeroGradient;
    }
    minZ
    {
        type            zeroGradient;
    }
    maxZ
    {
        type            zeroGradient;
    }
    rightSolid_to_bottomWater
    {
        type            compressible::turbulentTemperatureCoupledBaffleMixed;
        refValue        nonuniform List<scalar> 
130
(
976.68474
978.2582
980.1914
983.74386
983.39151
982.75086
982.06854
981.73612
985.79928
988.05068
989.70387
990.58527
991.47191
975.75163
978.25538
979.47491
984.70675
983.72323
984.11489
983.42245
983.52126
986.77714
988.49533
990.43746
992.18448
992.86176
967.70032
971.18909
975.64824
977.15858
977.2973
977.37503
984.29005
986.82173
987.78677
989.59559
990.24014
992.2755
993.42478
947.21366
961.50538
970.68106
972.96673
973.94886
980.2093
984.18761
984.80929
984.88114
988.43046
988.99741
989.60122
990.63788
946.24676
956.42057
959.95515
963.89061
968.97654
980.67762
982.86825
983.57039
984.7701
986.19381
986.57591
987.44739
988.85886
950.09262
959.29814
963.24982
967.31943
969.62564
971.40882
977.59222
984.34651
985.52552
986.65009
987.78582
989.71168
991.13256
958.92301
969.29888
973.80693
975.24572
976.45003
976.40664
981.93386
986.91496
988.80515
990.07988
990.21224
990.8656
993.01103
970.34923
975.40761
981.63945
981.45927
982.02465
980.42943
984.67692
987.88362
990.34268
992.11459
991.88767
992.45104
993.66919
971.88961
974.13561
981.41557
981.61585
980.56965
982.0141
987.25319
988.69079
989.46818
992.03111
993.32166
995.57761
992.9186
971.77966
973.55274
977.4165
978.01595
977.89406
979.88908
985.98539
987.61871
988.942
989.73259
990.96552
993.17893
991.78293
)
;
        refGradient     uniform 0;
        valueFraction   nonuniform List<scalar> 
130
(
0.0075140686
0.0075140686
0.0075140686
0.0075140686
0.0075140686
0.0075140686
0.0075140686
0.0075140686
0.0075140686
0.0075140686
0.0075140686
0.0075140686
0.0075140686
0.0075140686
0.0075140686
0.0075140686
0.0075140686
0.0075140686
0.0075140686
0.0075140686
0.0075140686
0.0075140686
0.0075140686
0.0075140686
0.0075140686
0.0075140686
0.0075140686
0.0075140686
0.0075140686
0.0075140686
0.0075140686
0.0075140686
0.0075140686
0.0075140686
0.0075140686
0.0075140686
0.0075140686
0.0075140686
0.0075140686
0.0075140686
0.0075140686
0.0075140686
0.0075140686
0.0075140686
0.0075140686
0.0075140686
0.0075140686
0.0075140686
0.0075140686
0.0075140686
0.0075140686
0.0075140686
0.0075140686
0.0075140686
0.0075140686
0.0075140686
0.0075140686
0.0075140686
0.0075140686
0.0075140686
0.0075140686
0.0075140686
0.0075140686
0.0075140686
0.0075140686
0.0075140686
0.0075140686
0.0075140686
0.0075140686
0.0075140686
0.0075140686
0.0075140686
0.0075140686
0.0075140686
0.0075140686
0.0075140686
0.0075140686
0.0075140686
0.0075140686
0.0075140686
0.0075140686
0.0075140686
0.0075140686
0.0075140686
0.0075140686
0.0075140686
0.0075140686
0.0075140686
0.0075140686
0.0075140686
0.0075140686
0.0075140686
0.0075140686
0.0075140686
0.0075140686
0.0075140686
0.0075140686
0.0075140686
0.0075140686
0.0075140686
0.0075140686
0.0075140686
0.0075140686
0.0075140686
0.0075140686
0.0075140686
0.0075140686
0.0075140686
0.0075140686
0.0075140686
0.0075140686
0.0075140686
0.0075140686
0.0075140686
0.0075140686
0.0075140686
0.0075140686
0.0075140686
0.0075140686
0.0075140686
0.0075140686
0.0075140686
0.0075140686
0.0075140686
0.0075140686
0.0075140686
0.0075140686
0.0075140686
0.0075140686
0.0075140686
)
;
        value           nonuniform List<scalar> 
130
(
680.44034
686.4088
692.57365
698.62903
704.28116
709.41968
713.97099
717.90668
721.24925
723.91862
725.91763
727.24658
727.91588
675.8669
682.89446
689.97204
696.78139
702.98987
708.55149
713.39805
717.53847
721.00227
723.74995
725.8059
727.17664
727.85978
666.549
676.00928
685.10005
693.36246
700.65428
706.97438
712.42385
716.93969
720.60282
723.48919
725.61814
727.04204
727.75432
652.52353
666.67795
679.02429
689.42273
698.1174
705.40794
711.41372
716.27997
720.16761
723.21688
725.43259
726.89266
727.62683
636.23579
657.92345
673.99865
686.43336
696.31581
704.33907
710.741
715.8637
719.91952
723.04246
725.31206
726.80677
727.55941
636.41815
658.07999
674.13407
686.54073
696.36158
704.26192
710.69821
715.88932
719.95273
723.0745
725.35335
726.86092
727.61551
653.03775
667.09254
679.3229
689.64465
698.2799
705.46255
711.46944
716.38511
720.29606
723.32017
725.52643
726.98406
727.72834
667.07629
676.46582
685.49742
693.67086
700.90739
707.17152
712.57947
717.09781
720.77241
723.64938
725.75633
727.15466
727.86116
676.30613
683.23512
690.29201
696.98136
703.14127
708.70261
713.62126
717.78482
721.21954
723.96119
725.99558
727.35655
727.9951
680.84497
686.71206
692.80999
698.76489
704.38129
709.55167
714.20145
718.1762
721.48656
724.12412
726.10293
727.43183
728.06719
)
;
        Tnbr            T;
        thicknessLayers List<scalar> 0();
        kappaLayers     List<scalar> 0();
        kappaMethod     solidThermo;
        kappa           none;
        alphaAni        none;
        alpha           none;
        field           T;
    }
    rightSolid_to_topAir
    {
        type            compressible::turbulentTemperatureCoupledBaffleMixed;
        refValue        nonuniform List<scalar> 
130
(
457.48566
454.23066
450.93964
447.95501
445.45482
443.5103
442.14795
441.39396
441.30501
442.00669
443.78277
447.22631
452.93347
420.89924
417.04619
414.11029
411.97906
410.46006
409.41321
408.79586
408.6531
409.10718
410.40218
413.10263
418.40232
426.11832
426.56581
418.50412
411.43587
405.78668
401.51851
398.44834
396.43395
395.40647
395.34386
396.29524
398.70158
404.30106
416.83806
459.67221
458.00687
456.43652
454.81481
453.03072
451.06156
449.08329
447.41977
446.40149
446.64593
450.00579
457.57948
466.04223
460.84569
464.4221
468.83078
473.15504
477.25139
480.98194
484.21892
486.87649
488.97275
490.76936
492.99586
497.01625
504.75065
460.50103
464.12258
468.58868
472.98613
477.16752
480.98321
484.28503
486.9592
489.02707
490.80084
493.11627
497.32261
505.29978
459.19457
457.68753
456.4699
455.28419
453.93698
452.3449
450.59756
448.91115
447.62006
447.58911
451.40234
459.17071
467.8576
426.32838
418.16829
411.05446
405.38565
401.08977
397.94648
395.77647
394.48438
394.00129
394.55559
396.53333
401.31209
412.93075
420.89844
416.96084
413.9678
411.81115
410.29081
409.24664
408.60554
408.37866
408.65266
409.67273
411.98849
416.74188
424.2814
457.58917
454.28181
450.93959
447.91269
445.38255
443.41702
442.0314
441.23403
441.06293
441.63861
443.24552
446.47171
451.98669
)
;
        refGradient     uniform 0;
        valueFraction   nonuniform List<scalar> 
130
(
0.00032132529
0.00032132529
0.00032132529
0.00032132529
0.00032132529
0.00032132529
0.00032132529
0.00032132529
0.00032132529
0.00032132529
0.00032132529
0.00032132529
0.00032132529
0.00032132529
0.00032132529
0.00032132529
0.00032132529
0.00032132529
0.00032132529
0.00032132529
0.00032132529
0.00032132529
0.00032132529
0.00032132529
0.00032132529
0.00032132529
0.00032132529
0.00032132529
0.00032132529
0.00032132529
0.00032132529
0.00032132529
0.00032132529
0.00032132529
0.00032132529
0.00032132529
0.00032132529
0.00032132529
0.00032132529
0.00032132529
0.00032132529
0.00032132529
0.00032132529
0.00032132529
0.00032132529
0.00032132529
0.00032132529
0.00032132529
0.00032132529
0.00032132529
0.00032132529
0.00032132529
0.00032132529
0.00032132529
0.00032132529
0.00032132529
0.00032132529
0.00032132529
0.00032132529
0.00032132529
0.00032132529
0.00032132529
0.00032132529
0.00032132529
0.00032132529
0.00032132529
0.00032132529
0.00032132529
0.00032132529
0.00032132529
0.00032132529
0.00032132529
0.00032132529
0.00032132529
0.00032132529
0.00032132529
0.00032132529
0.00032132529
0.00032132529
0.00032132529
0.00032132529
0.00032132529
0.00032132529
0.00032132529
0.00032132529
0.00032132529
0.00032132529
0.00032132529
0.00032132529
0.00032132529
0.00032132529
0.00032132529
0.00032132529
0.00032132529
0.00032132529
0.00032132529
0.00032132529
0.00032132529
0.00032132529
0.00032132529
0.00032132529
0.00032132529
0.00032132529
0.00032132529
0.00032132529
0.00032132529
0.00032132529
0.00032132529
0.00032132529
0.00032132529
0.00032132529
0.00032132529
0.00032132529
0.00032132529
0.00032132529
0.00032132529
0.00032132529
0.00032132529
0.00032132529
0.00032132529
0.00032132529
0.00032132529
0.00032132529
0.00032132529
0.00032132529
0.00032132529
0.00032132529
0.00032132529
0.00032132529
0.00032132529
)
;
        value           nonuniform List<scalar> 
130
(
678.12656
684.12533
690.31916
696.39058
702.08554
707.26552
711.85454
715.82103
719.15705
721.82895
723.8305
725.16352
725.83279
673.51529
680.57359
687.69229
694.51071
700.77114
706.36976
711.25649
715.42612
718.89052
721.64553
723.70255
725.07171
725.75715
664.19261
673.69246
682.8131
691.12213
698.46438
704.82871
710.26469
714.79377
718.47612
721.37002
723.51029
724.93091
725.64368
650.23119
664.37949
676.74536
687.20133
695.95101
703.24637
709.26493
714.16121
718.07615
721.12074
723.34929
724.81781
725.55217
633.8331
655.60209
671.76846
684.26488
694.18178
702.17582
708.60861
713.76397
717.84078
720.97616
723.26003
724.76027
725.51017
633.98757
655.73789
671.87984
684.34703
694.22295
702.16827
708.60547
713.78393
717.86853
721.00499
723.2925
724.79777
725.54964
650.66036
664.738
677.02248
687.40776
696.09605
703.33057
709.3386
714.25165
718.17622
721.2126
723.43507
724.90081
725.63704
664.70361
674.12027
683.16787
691.4001
698.68341
705.004
710.4183
714.9447
718.62717
721.51174
723.63632
725.04206
725.74819
673.98693
680.94787
687.99984
694.73546
700.94745
706.53782
711.45226
715.63505
719.08886
721.83131
723.87142
725.2267
725.89243
678.57129
684.46641
690.57822
696.57077
702.22798
707.4201
712.05699
716.04793
719.37221
722.02308
724.00742
725.33024
725.98253
)
;
        Tnbr            T;
        thicknessLayers List<scalar> 0();
        kappaLayers     List<scalar> 0();
        kappaMethod     solidThermo;
        kappa           none;
        alphaAni        none;
        alpha           none;
        field           T;
    }
    rightSolid_to_heater
    {
        type            compressible::turbulentTemperatureCoupledBaffleMixed;
        refValue        nonuniform List<scalar> 10(672.77664 667.11339 655.23522 635.58577 602.86013 603.00773 636.04841 655.85065 667.71223 673.34779);
        refGradient     uniform 0;
        valueFraction   nonuniform List<scalar> 10(0.50000003 0.50000003 0.50000003 0.50000003 0.50000003 0.50000003 0.50000003 0.50000003 0.50000003 0.50000003);
        value           nonuniform List<scalar> 10(675.48706 670.35494 659.75211 642.93911 618.37442 618.52553 643.38516 660.31544 670.89026 675.99505);
        Tnbr            T;
        thicknessLayers List<scalar> 0();
        kappaLayers     List<scalar> 0();
        kappaMethod     solidThermo;
        kappa           none;
        alphaAni        none;
        alpha           none;
        field           T;
    }
}


// ************************************************************************* //
