/*--------------------------------*- C++ -*----------------------------------*\
| =========                 |                                                 |
| \\      /  F ield         | OpenFOAM: The Open Source CFD Toolbox           |
|  \\    /   O peration     | Version:  v2012                                 |
|   \\  /    A nd           | Website:  www.openfoam.com                      |
|    \\/     M anipulation  |                                                 |
\*---------------------------------------------------------------------------*/
FoamFile
{
    version     2.0;
    format      ascii;
    class       volScalarField;
    location    "310/bottomWater";
    object      T;
}
// * * * * * * * * * * * * * * * * * * * * * * * * * * * * * * * * * * * * * //

dimensions      [0 0 0 1 0 0 0];


internalField   nonuniform List<scalar> 
1460
(
996.5439
991.02896
988.19951
986.00959
983.94531
981.62885
982.24209
984.35197
982.06656
975.75771
972.69415
970.55764
970.04236
963.48249
961.51036
956.4606
949.81151
949.7798
948.57544
948.38583
948.89171
955.91585
961.98336
960.8557
962.60679
968.35272
972.08928
974.70765
977.16202
980.03114
990.36804
986.17947
984.09123
982.38915
980.80124
980.31267
980.90821
981.69222
980.11636
975.67696
975.28105
971.15283
972.19945
964.68824
961.94192
959.55005
952.0196
952.08551
949.50859
950.02664
949.94892
957.75178
959.33652
959.01138
961.08099
967.8653
972.85519
975.49381
976.41461
978.19456
990.50421
985.93674
983.2121
979.29227
979.87682
979.9373
980.72118
980.93797
980.17879
979.43569
976.77991
975.2064
972.4875
964.16478
959.28471
959.15931
956.41313
952.42533
949.39809
950.69093
950.04765
957.08634
957.20454
957.5979
958.23556
967.58518
973.17952
975.94013
977.21908
978.12695
991.20808
986.19277
981.10084
978.49275
979.13575
979.31225
980.52917
980.60152
980.24857
979.76019
977.57245
975.32963
972.68677
962.02889
957.30666
958.31265
957.64823
951.41106
948.92823
950.32577
950.19478
956.51848
956.53064
956.5075
956.0258
966.36674
971.95498
975.05966
976.42455
976.95071
990.53044
987.26087
985.51834
978.4368
977.41856
977.78582
978.23195
978.68236
978.64808
978.46343
977.63108
976.05816
972.74604
959.01575
952.48764
953.09048
953.12735
951.08261
948.76958
949.74983
950.69253
953.97002
954.24331
953.5864
953.39138
964.64863
970.26254
970.83778
971.54715
971.55604
994.12377
989.36285
986.51593
983.90307
984.01932
980.97987
982.34679
983.3702
983.22886
978.39118
971.3048
967.45563
965.3865
961.65406
954.86818
949.63438
947.5736
948.13955
948.66002
949.1641
949.99404
953.57971
962.60248
961.54372
961.18726
968.53917
971.2724
973.60348
975.11857
976.47809
989.02882
985.44149
982.95544
981.17521
980.74566
979.84607
980.21325
981.10568
980.90708
977.16971
970.30601
968.02414
968.19854
963.56517
959.57266
951.24472
949.98128
949.89851
949.25147
950.7581
950.70129
955.78991
961.07741
960.84124
959.16009
968.11414
972.03726
973.39743
974.64223
975.62889
989.97628
987.99055
984.65716
981.13762
980.14599
979.15088
979.80111
981.02962
980.72348
978.01298
971.96305
968.58282
968.87794
964.22003
957.9861
952.37306
955.37274
950.54798
949.22423
951.07429
953.82914
956.00465
961.39941
962.06501
957.87542
967.46596
973.37536
972.95421
974.14682
974.98819
991.06978
988.8721
983.1567
981.56001
979.20732
978.89259
979.39244
980.56363
980.88212
978.70973
975.15805
973.91342
970.82904
965.39746
957.54342
952.89254
954.11605
949.93543
949.41111
951.55219
953.28994
956.04668
958.59125
959.18562
956.83127
967.65299
974.07568
973.76397
973.75031
975.09236
990.04419
988.03069
986.4773
982.68944
977.71981
977.69892
978.15671
978.7541
979.85014
978.5344
977.15021
972.1435
967.9103
954.13901
954.07311
951.55007
951.38538
949.83602
949.36082
950.74595
952.25756
954.35355
955.34598
955.74788
956.00135
966.8633
970.5821
971.02912
971.49309
972.87246
992.6996
990.06935
987.59508
986.28033
984.08443
982.81838
982.64644
979.81035
976.02588
974.57285
972.53666
972.09289
961.83501
956.39997
950.74868
947.82289
946.74859
945.44529
948.16201
949.86391
951.46134
955.84415
964.98665
964.33256
963.77844
969.01461
970.61659
970.35948
969.51938
971.25317
989.72042
987.90239
986.88033
983.21682
981.92179
980.53953
980.46519
979.43571
973.91438
974.95997
973.57401
972.35469
968.81496
958.94552
950.58967
948.48515
949.02564
945.84518
947.19733
948.42315
949.64215
956.1991
963.64445
963.60596
963.88126
967.4164
969.60606
969.82659
968.9395
968.806
990.03326
989.5063
987.21466
983.64794
981.4754
978.09677
978.7882
978.98038
975.38315
976.74866
973.72992
970.67979
968.94042
958.17
951.66379
949.74677
951.78262
947.09533
947.5827
947.0012
949.71709
956.0391
963.71445
963.92479
964.10714
965.60632
969.85168
969.83303
968.39854
968.92399
990.35137
989.91477
987.32929
985.2501
982.15445
977.87817
976.77734
978.3069
976.78802
977.2254
973.94314
971.85796
968.37453
958.13369
952.85886
951.82658
951.66911
948.44177
947.85579
949.21745
950.9227
956.04434
961.64706
962.29568
961.56071
964.68116
969.81055
969.50353
968.37767
969.24652
988.22301
987.89795
986.69582
985.73091
981.97968
975.98303
976.50675
977.23428
976.28587
976.1382
973.40241
961.65535
964.87064
954.33196
952.04752
950.60263
949.49427
948.06457
947.71632
948.99298
950.40224
954.65781
957.3555
958.83685
958.5666
962.26045
967.41178
967.84514
967.59038
968.39089
993.21725
991.36239
988.91697
986.78753
984.13262
979.97501
979.60054
973.58027
968.99663
968.71641
964.44482
964.3617
961.15999
944.73073
937.80241
937.82323
937.82418
939.54952
940.07869
942.29739
945.48925
951.68606
964.10162
966.49114
965.22076
964.73207
964.72074
964.61645
966.08883
969.0497
989.67515
987.89642
986.49167
985.47009
983.89025
979.64259
978.01595
974.75419
968.71666
969.28461
965.20166
962.39819
959.69479
948.42986
938.2977
939.38243
942.12909
939.53201
940.10829
941.57959
943.59576
950.99133
964.18772
964.46612
964.22662
964.43047
965.82638
964.61758
964.76776
967.00928
989.48361
988.38497
987.92505
986.83203
984.24692
978.47259
973.25607
974.46842
973.4575
969.26692
965.46042
960.43948
958.14639
947.58211
939.81586
942.03898
943.32505
939.99249
940.65888
941.7626
944.03511
951.98341
964.36095
964.00449
963.60894
963.62115
965.59416
966.67571
964.69017
967.67671
989.26574
988.67992
988.06225
985.90522
982.67846
977.4533
972.7373
974.20689
972.61246
965.90774
962.09584
958.20242
955.04644
946.78946
942.31027
943.90123
942.65377
939.39516
940.83526
944.24102
945.42089
952.65452
963.11627
963.80362
963.65919
962.75187
965.45103
966.8744
964.69925
967.25721
987.05926
986.29344
985.98331
984.85909
982.34886
976.10157
972.02325
973.36178
972.78541
964.85089
954.04651
954.37313
950.90302
944.05157
940.07508
938.74328
937.43375
937.18847
941.52783
945.81607
947.14603
952.51587
960.02244
960.84996
961.34906
960.79951
965.14251
965.80854
965.15307
966.89536
988.61115
988.66947
988.4961
986.22529
983.92563
980.36924
981.76648
973.94291
964.04905
962.33002
957.90341
958.91468
939.44914
925.73883
932.34266
933.94428
941.17101
958.09109
964.13431
962.27402
961.92919
962.13185
963.38376
962.89666
965.28729
966.26165
985.94793
986.3949
985.69726
983.38058
981.77989
977.05339
977.24541
972.19331
962.49649
962.21003
954.1174
953.80203
944.92471
933.47383
941.32155
941.44455
941.97212
954.55709
961.65391
960.82537
961.32687
962.32758
964.33874
963.21593
964.36039
966.02641
985.49115
986.46206
984.901
982.70931
980.88971
974.69636
970.90312
971.01662
967.91699
962.32024
950.41402
948.39925
941.10292
936.54978
944.93612
944.84016
943.09066
956.64849
962.07504
960.67512
960.63883
961.94456
964.4991
964.01912
964.26659
965.83218
985.45695
986.16213
984.95784
981.92958
979.66107
976.29909
970.65133
971.09603
967.09504
958.3581
950.18471
940.89917
936.68299
939.2561
945.8412
947.60899
946.46633
957.43124
961.96492
961.39888
961.68734
960.7641
964.14781
964.08848
964.65015
966.44148
984.53248
984.38834
983.32795
980.28104
976.51095
972.9308
968.9394
969.02489
961.86099
948.10763
944.94788
939.83925
934.42293
941.33856
945.98614
947.63262
948.81963
955.8171
958.98389
959.24973
959.77259
959.60032
963.5755
964.51576
964.57238
966.10106
984.38124
982.74192
981.83219
981.36737
976.70721
980.67453
976.25297
964.76353
958.28575
957.40585
945.84673
935.4835
927.58669
930.68258
939.95785
943.86588
947.53219
961.34971
960.47349
960.15503
959.62435
959.02799
959.54643
960.91169
962.28209
963.07215
981.16299
980.672
980.7396
980.06208
975.29445
975.10657
975.79501
963.063
958.09702
956.52158
954.08248
943.79441
938.357
927.78834
940.75791
945.15176
948.15121
960.35924
959.62906
958.58755
958.66203
959.25056
960.43108
962.25883
964.42799
965.29982
981.02067
980.76131
979.93875
978.28008
975.23639
973.2407
975.2719
963.94791
957.75246
954.55894
953.65014
947.20959
941.0795
930.13713
940.63438
946.60749
949.57513
958.89148
959.81568
958.65965
957.91492
959.05431
960.5706
962.78681
965.10252
965.8857
980.97143
980.90444
979.16326
977.26093
976.49813
974.02296
974.6491
965.36414
955.21749
950.96024
952.75083
948.64104
936.83685
939.45124
948.15618
949.27327
951.08967
954.49755
957.84342
959.27744
957.99653
958.86406
960.58825
962.90542
964.60257
965.71234
980.08164
979.69861
976.94698
973.01052
972.86621
970.38486
968.27825
965.68473
956.03403
943.42286
940.80881
937.85051
926.99352
942.87667
948.20386
949.83689
951.87736
954.62152
957.5535
958.32688
958.22749
958.17126
959.97837
962.25454
962.87095
965.07351
981.7294
979.48079
978.8774
979.19448
978.76897
978.78153
974.33373
964.14805
959.70177
956.93361
953.19892
951.10739
949.06119
947.03653
940.31503
941.24829
941.22513
939.34782
942.56648
945.01655
952.3703
961.00647
959.55788
957.57729
956.72555
956.54547
958.19404
959.89739
962.01231
964.27348
979.56695
977.93926
977.46949
977.0946
973.63941
969.97359
969.86403
960.3038
956.73355
954.16509
951.64645
948.0224
948.53226
946.76668
940.42589
938.94765
939.32413
936.50499
941.68942
943.24462
951.92475
960.06705
958.92817
957.78098
956.666
956.18392
958.2291
960.13531
961.37798
963.46096
979.40633
977.72971
976.86906
976.0831
970.95196
968.13491
967.63637
960.49217
958.95214
956.12242
950.80282
945.82545
943.98793
943.04167
938.16523
936.52084
935.59998
936.78499
945.1684
944.17055
952.68117
958.81305
958.54244
957.81518
956.65477
956.00498
958.88507
961.74207
963.31006
963.9457
978.6002
975.58066
972.68121
975.12421
972.42119
968.70111
967.3556
961.88128
959.7211
956.28618
949.41462
943.63106
939.76388
937.01222
933.66707
937.72119
937.25882
941.24492
947.54435
946.77489
953.83178
956.43898
957.23882
956.44378
956.05278
955.89312
959.63557
964.40395
964.68957
964.42877
976.18394
974.26669
970.44007
971.3445
970.71247
967.13376
965.8595
964.02787
962.48853
958.55431
950.81807
946.35455
937.54311
928.30662
936.29553
941.23638
942.88832
944.98307
947.66853
949.53826
953.97464
954.34668
954.97899
955.45721
955.64235
955.74806
960.92656
962.67151
962.38391
962.81233
979.05752
976.47356
976.2045
977.97828
974.9807
973.36695
968.95006
965.82201
962.16566
960.46838
961.0991
964.46568
954.5109
950.58404
948.16226
947.94829
944.90727
945.35531
946.33432
949.1219
952.91985
955.60287
958.48466
960.32205
961.40431
960.04808
960.83883
961.8174
963.46564
965.97912
977.52035
974.84033
974.53272
974.67784
972.24648
970.04601
967.28095
962.29766
959.02055
958.50823
960.20553
961.80852
954.41868
948.53641
947.33745
944.46635
945.34709
943.04946
944.0436
946.75989
950.65444
954.25002
958.01826
959.35384
959.68487
957.93005
958.72942
959.77136
961.3936
963.88736
977.05516
974.79866
974.61899
973.84906
971.85542
969.50923
966.77615
962.61522
959.58982
958.67315
959.59534
957.33833
954.2432
953.60672
947.12798
944.10837
945.89895
946.74203
945.32387
949.27574
952.36204
954.79786
957.46537
958.75943
958.16315
958.38266
959.03072
960.06168
962.00629
964.40354
976.24033
973.16901
972.68845
972.86964
971.20952
968.26114
964.49657
963.01449
960.00655
960.24942
960.74581
955.97448
954.29525
953.88998
945.94674
943.48629
943.46302
947.13982
947.4088
950.05537
953.99381
955.75458
957.37489
955.58308
956.55828
958.66793
960.06276
961.06041
962.89978
964.96344
975.11777
972.43938
970.56139
970.75719
969.92432
967.43557
965.31291
963.969
962.38089
962.2047
962.82511
961.01585
959.54346
955.22841
944.64918
944.1472
944.32398
946.08232
945.49636
948.70281
951.42931
953.14251
953.31049
951.98339
954.30792
954.43175
959.61895
961.47186
962.95735
964.44895
976.98926
975.5267
973.32876
976.7954
972.8864
970.6878
967.96195
970.75222
965.98299
965.16605
964.39264
965.49387
958.79861
954.97184
953.09872
951.38036
948.26851
950.21688
950.91532
950.12367
952.031
952.89219
957.61382
958.21536
957.81855
958.17437
957.80274
959.3276
962.2991
967.816
973.37359
972.25109
971.40153
972.2288
968.82991
967.61
966.87316
967.22058
962.86527
962.55239
964.13926
962.05733
956.90338
953.34582
952.6475
950.74463
950.03882
949.25732
949.40099
950.72717
952.23047
953.37183
957.52194
957.944
958.07727
959.50037
957.67537
958.33734
959.76811
964.17806
973.33834
974.23932
971.50136
971.22273
968.32763
968.03699
966.7373
965.99085
962.5617
963.55883
963.77556
959.35445
956.90993
956.07321
952.67084
950.441
949.37343
949.08225
948.29005
950.93745
953.61999
953.92298
957.28381
958.23183
957.39631
959.5625
960.13388
959.72609
960.6694
964.78733
973.55342
973.00728
970.48875
969.81769
968.36596
966.52988
965.01996
964.97231
963.12098
964.21432
964.62041
960.0978
957.06414
956.89719
950.94813
949.66204
948.54359
948.84152
948.07512
950.85248
954.10005
954.43511
956.85839
957.40125
956.04865
960.60315
961.79156
962.45801
962.44136
965.34057
972.98282
972.81646
972.31325
969.944
966.45202
965.40582
962.92861
962.72669
962.45121
963.70304
964.29487
961.37312
959.53927
956.09401
948.10708
946.77372
947.11383
947.11336
945.61451
950.12839
951.89132
952.81277
954.96923
953.04086
954.20738
958.27004
958.67562
961.98494
963.15512
964.57922
975.44028
973.03489
972.38218
974.17651
970.86203
967.8573
967.12635
970.39671
970.88036
971.46878
970.57891
966.2792
959.67583
956.92485
954.72488
952.68503
950.53732
949.42682
948.38664
949.55893
950.19329
952.44427
957.38764
956.91474
956.1407
956.93135
955.18126
958.3027
959.46524
965.28718
971.83044
971.20332
969.43984
970.35422
967.06178
965.162
966.82535
967.12322
967.61123
968.03495
968.71255
965.45356
957.68788
954.14683
953.10959
951.42557
948.87965
947.82788
947.40484
949.84514
951.19554
952.07254
956.27281
955.98953
955.33778
954.93085
955.50475
959.70707
960.17144
963.21343
972.18145
971.27283
969.57529
969.07331
964.71399
964.89945
966.7237
966.9906
967.36476
968.09308
966.00229
962.39107
957.37002
954.53577
955.10602
952.43466
949.03909
947.84081
947.33944
950.11594
952.98227
951.98429
956.07047
956.79503
955.21487
954.20143
956.09133
960.81097
962.64538
964.68352
972.79944
971.91466
970.35446
968.46427
964.29727
964.77263
966.24185
966.89583
967.30599
968.14846
968.34272
962.17205
957.79146
955.04774
954.96868
950.23137
948.93992
947.22612
946.98941
949.59378
952.42484
951.80429
955.7432
956.39936
954.55895
953.98672
956.26449
960.80519
961.63126
964.35011
971.75445
971.42509
971.33455
969.0658
964.1015
963.52313
962.98889
963.66515
964.38357
965.67856
965.66557
962.53298
958.26999
954.81911
952.22957
948.79484
947.25142
946.40246
946.8962
949.30297
950.43862
950.53046
953.51449
953.36453
952.30507
953.27373
957.09248
960.99361
961.76326
962.86646
)
;

boundaryField
{
    minX
    {
        type            zeroGradient;
    }
    maxX
    {
        type            zeroGradient;
    }
    minY
    {
        type            fixedValue;
        value           uniform 1073;
    }
    minZ
    {
        type            zeroGradient;
    }
    maxZ
    {
        type            zeroGradient;
    }
    bottomWater_to_rightSolid
    {
        type            compressible::turbulentTemperatureCoupledBaffleMixed;
        refValue        nonuniform List<scalar> 
130
(
734.31577
741.8868
749.80653
757.66938
765.17267
772.08941
778.2915
783.71893
788.35107
792.07653
794.85835
796.70943
797.6342
728.82545
737.66941
746.70101
755.45298
763.62225
771.02101
777.55742
783.20247
787.96564
791.76758
794.59905
796.48083
797.42514
717.74375
729.50249
740.91523
751.45452
760.90683
769.19135
776.31371
782.32274
787.28735
791.22714
794.14383
796.07276
797.03922
701.10569
718.38986
733.65511
746.73407
757.83533
767.18353
774.96664
781.38023
786.57206
790.65323
793.65908
795.63982
796.63302
681.50937
707.87603
727.67789
743.16721
755.61108
765.7182
773.94955
780.62956
785.97775
790.15062
793.21422
795.23001
796.23861
681.41904
707.76841
727.54476
743.00406
755.39748
765.4625
773.66089
780.31131
785.63612
789.78832
792.84767
794.8629
795.87253
700.81142
718.04731
733.23932
746.24373
757.22636
766.44589
774.12866
780.46082
785.58841
789.62672
792.61224
794.58135
795.56447
717.14978
728.8438
740.17411
750.61317
759.93118
768.06802
775.04589
780.93151
785.76784
789.61811
792.49049
794.40118
795.3595
728.04784
736.80461
745.7438
754.38011
762.40946
769.65755
776.02297
781.49159
786.0586
789.71374
792.47466
794.31991
795.24768
733.45588
740.9397
748.75553
756.49135
763.84215
770.60485
776.62714
781.84459
786.2359
789.78665
792.47956
794.28043
795.18595
)
;
        refGradient     uniform 0;
        valueFraction   uniform 0.99248593;
        value           nonuniform List<scalar> 
130
(
735.94456
743.44133
751.30892
759.11977
766.59125
773.45811
779.60868
784.99387
789.67582
793.41546
796.1807
798.02321
798.9411
730.48612
739.26009
748.23423
756.9318
765.05542
772.40605
778.89638
784.50091
789.30995
793.11123
795.92479
797.79592
798.74351
719.47438
731.14218
742.47878
752.94945
762.36271
770.60524
777.68523
783.64708
788.60213
792.55102
795.44905
797.36157
798.3268
702.87963
720.06651
735.24935
748.24
759.29825
768.63256
776.36341
782.73256
787.88125
791.96439
794.95264
796.91358
797.91241
683.46183
709.66527
729.33071
744.71255
757.11552
767.17045
775.34194
781.97569
787.2824
791.45379
794.50141
796.50248
797.515
683.38372
709.57508
729.21511
744.57359
756.89451
766.90592
775.04852
781.64822
786.93259
791.06717
794.12062
796.12533
797.14396
702.6462
719.77271
734.86458
747.80475
758.70757
767.86256
775.49119
781.77716
786.86702
790.91389
793.89012
795.84227
796.82121
718.87004
730.47178
741.74096
752.12211
761.38298
769.45993
776.37542
782.23435
787.03519
790.8955
793.76026
795.66776
796.63009
729.69392
738.37358
747.27953
755.86422
763.84018
771.04996
777.35309
782.78938
787.35258
790.98323
793.74839
795.58859
796.52009
735.05602
742.48726
750.26245
757.94868
765.24496
771.97927
777.95516
783.12544
787.49102
791.04364
793.74575
795.53887
796.44587
)
;
        Tnbr            T;
        thicknessLayers List<scalar> 0();
        kappaLayers     List<scalar> 0();
        kappaMethod     fluidThermo;
        kappa           none;
        alphaAni        none;
        alpha           none;
        field           T;
    }
    bottomWater_to_leftSolid
    {
        type            compressible::turbulentTemperatureCoupledBaffleMixed;
        refValue        nonuniform List<scalar> 
130
(
845.15669
845.08112
844.9508
844.76916
844.58961
844.41001
844.22139
844.01962
843.80431
843.58421
843.3732
843.19398
843.07947
845.09965
845.03124
844.90626
844.72882
844.52501
844.32058
844.10984
843.88733
843.65173
843.4029
843.16081
842.94752
842.81788
844.97384
844.91428
844.79405
844.61842
844.39039
844.13255
843.87842
843.61436
843.33008
843.03451
842.74271
842.48836
842.36601
844.77927
844.71774
844.5937
844.4051
844.15592
843.85708
843.54449
843.22903
842.88331
842.50291
842.14893
841.89639
841.75038
844.51466
844.44923
844.31152
844.10255
843.83497
843.52123
843.17561
842.81104
842.39661
841.95928
841.59516
841.31518
841.1486
844.19971
844.12891
843.98013
843.76643
843.50765
843.19732
842.85151
842.47306
842.0515
841.63179
841.28561
841.01725
840.83946
843.89775
843.82127
843.66969
843.47427
843.22796
842.9336
842.61908
842.28991
841.95489
841.6257
841.32574
841.09341
840.94144
843.65944
843.58494
843.44795
843.26282
843.03071
842.76555
842.4887
842.21638
841.95846
841.73
841.53746
841.38392
841.29035
843.49172
843.43123
843.30684
843.11958
842.88886
842.65062
842.41262
842.19493
842.00068
841.83608
841.69474
841.57354
841.49851
843.39792
843.3411
843.22332
843.04095
842.81444
842.59514
842.38952
842.2077
842.04928
841.91355
841.79077
841.67992
841.60315
)
;
        refGradient     uniform 0;
        valueFraction   uniform 0.99248593;
        value           nonuniform List<scalar> 
130
(
846.24907
846.14948
846.00701
845.77351
845.58772
845.41222
845.22837
845.0315
844.81754
844.59772
844.38204
844.19236
844.0538
846.1888
846.10573
845.97002
845.76536
845.52586
845.32283
845.1171
844.90074
844.67514
844.4183
844.16764
843.91836
843.75784
846.05024
845.98867
845.86029
845.67873
845.42417
845.1233
844.87503
844.61839
844.32914
844.03467
843.72441
843.38384
843.2865
845.84838
845.78156
845.65612
845.46046
845.19427
844.8507
844.50989
844.20686
843.85944
843.42219
842.98981
842.7416
842.57061
845.56678
845.50074
845.35607
845.12577
844.83188
844.49362
844.12062
843.75945
843.29438
842.75692
842.37177
842.0555
841.84951
845.22074
845.14759
844.97927
844.73761
844.47969
844.153
843.79393
843.39884
842.90788
842.39672
842.0334
841.74477
841.48691
844.89181
844.80159
844.62226
844.43506
844.18587
843.86681
843.54509
843.20465
842.86056
842.50422
842.14836
841.88427
841.66729
844.64725
844.55319
844.40311
844.22083
843.98416
843.70233
843.41162
843.13124
842.86332
842.63524
842.44884
842.28299
842.17899
844.46476
844.40349
844.27625
844.07258
843.81728
843.573
843.31821
843.10063
842.90579
842.75181
842.61601
842.47382
842.38555
844.36242
844.30355
844.18598
843.98794
843.72579
843.50381
843.29574
843.12037
842.96853
842.84354
842.72157
842.58809
842.47984
)
;
        Tnbr            T;
        thicknessLayers List<scalar> 0();
        kappaLayers     List<scalar> 0();
        kappaMethod     fluidThermo;
        kappa           none;
        alphaAni        none;
        alpha           none;
        field           T;
    }
    bottomWater_to_heater
    {
        type            compressible::turbulentTemperatureCoupledBaffleMixed;
        refValue        nonuniform List<scalar> 
92
(
716.16564
718.14329
722.02478
727.54259
707.3187
709.65689
714.23215
720.78661
688.68148
691.6891
697.7367
706.65163
344.74508
341.98919
342.04233
344.82541
419.65212
416.23908
416.50113
420.22824
483.18432
480.30867
481.07501
485.01824
536.71281
534.93637
536.87277
541.55534
658.18648
580.52739
661.95774
580.62218
670.08985
585.12557
683.2175
592.69011
344.74508
344.82541
419.65212
420.22824
483.18432
485.01824
536.71281
541.55534
580.52739
592.69011
344.70098
344.70098
341.98304
342.04708
344.84572
344.84572
419.60459
419.60459
416.22124
416.47903
420.1799
420.1799
483.14978
483.14978
480.27715
481.03123
484.94269
484.94269
536.65115
536.65115
534.88243
536.82952
541.51578
541.51578
580.40014
580.40014
580.55026
585.08829
592.67399
592.67399
657.74039
661.57229
669.76634
682.92663
688.17388
691.14663
697.18273
706.08504
706.76725
709.0473
713.57208
720.07254
715.56693
717.51599
721.32366
726.76215
)
;
        refGradient     uniform 0;
        valueFraction   nonuniform List<scalar> 
92
(
0.99248593
0.99248593
0.99248593
0.99248593
0.99248593
0.99248593
0.99248593
0.99248593
0.99248593
0.99248593
0.99248593
0.99248593
0.99248593
0.99248593
0.99248593
0.99248593
0.99248593
0.99248593
0.99248593
0.99248593
0.99248593
0.99248593
0.99248593
0.99248593
0.99248593
0.99248593
0.99248593
0.99248593
0.99248593
0.99248593
0.99248593
0.99248593
0.99248593
0.99248593
0.99248593
0.99248593
0.99248593
0.99248593
0.99248593
0.99248593
0.99248593
0.99248593
0.99248593
0.99248593
0.99248593
0.99248593
0.99248593
0.99248593
0.99248593
0.99248593
0.99248593
0.99248593
0.99248593
0.99248593
0.99248593
0.99248593
0.99248593
0.99248593
0.99248593
0.99248593
0.99248593
0.99248593
0.99248593
0.99248593
0.99248593
0.99248593
0.99248593
0.99248593
0.99248593
0.99248593
0.99248593
0.99248593
0.99248593
0.99248593
0.99248593
0.99248593
0.99248593
0.99248593
0.99248593
0.99248593
0.99248593
0.99248593
0.99248593
0.99248593
0.99248593
0.99248593
0.99248593
0.99248593
0.99248593
0.99248593
0.99248593
0.99248593
)
;
        value           nonuniform List<scalar> 
92
(
717.99036
719.90419
723.76107
729.23764
709.17334
711.49347
716.01538
722.51933
690.67767
693.64549
699.63677
708.47636
349.25329
346.46619
346.51907
349.28125
423.62537
420.16188
420.4301
424.14984
486.67384
483.76148
484.53875
488.46199
539.79417
537.99744
539.93122
544.56921
660.33452
583.25897
664.04756
583.32316
672.10852
587.78268
685.1277
595.28054
349.2136
349.19046
423.59897
424.08484
486.62507
488.41115
539.71811
544.54376
583.18663
595.30996
349.08096
349.22697
346.47892
346.54946
349.24792
349.32698
423.50264
423.56576
420.16014
420.40486
423.99415
424.08078
486.59081
486.60545
483.71773
484.45377
488.28794
488.32894
539.65831
539.65959
537.87886
539.84189
544.50596
544.48948
583.00454
583.01417
583.2232
587.76445
595.30551
595.30558
659.77328
663.63642
671.80623
684.88006
690.18063
693.0515
699.03845
707.87521
708.64077
710.84366
715.32438
721.77854
717.36469
719.2797
723.0329
728.41897
)
;
        Tnbr            T;
        thicknessLayers List<scalar> 0();
        kappaLayers     List<scalar> 0();
        kappaMethod     fluidThermo;
        kappa           none;
        alphaAni        none;
        alpha           none;
        field           T;
    }
}


// ************************************************************************* //
