/*--------------------------------*- C++ -*----------------------------------*\
| =========                 |                                                 |
| \\      /  F ield         | OpenFOAM: The Open Source CFD Toolbox           |
|  \\    /   O peration     | Version:  v2012                                 |
|   \\  /    A nd           | Website:  www.openfoam.com                      |
|    \\/     M anipulation  |                                                 |
\*---------------------------------------------------------------------------*/
FoamFile
{
    version     2.0;
    format      ascii;
    class       volVectorField;
    location    "310/bottomWater";
    object      U;
}
// * * * * * * * * * * * * * * * * * * * * * * * * * * * * * * * * * * * * * //

dimensions      [0 1 -1 0 0 0 0];


internalField   nonuniform List<vector> 
1460
(
(-0.00064851518 -0.014752714 0.00082473965)
(-0.0025600853 -0.014952885 0.00029243461)
(-0.003697741 -0.014932329 -0.00047633081)
(-0.0045245273 -0.01454458 -0.00080259519)
(-0.0044985873 -0.013872613 0.00010582764)
(-0.0020592423 -0.012309721 0.00082544606)
(0.0021820792 -0.01163923 0.00095096379)
(0.0030620036 -0.014448878 0.0011029751)
(0.00079568255 -0.01605945 0.00073862835)
(-0.0024524458 -0.017665232 0.00097773668)
(-0.0011114183 -0.013609684 0.0016065687)
(-0.002691127 -0.014275338 0.0010896693)
(-0.0025340136 -0.011172151 0.0015663081)
(0.00096765039 -0.012241486 0.0011630754)
(0.0027474603 -0.01259246 0.0017612127)
(0.0014966116 -0.018815936 0.0022109341)
(-0.0018864873 -0.01895862 0.0007601098)
(-0.0016625027 -0.011214831 -7.2300901e-05)
(0.0023249115 -0.011979465 0.00047056925)
(0.0038314745 -0.014143424 -0.00013061977)
(0.0033725394 -0.017068701 0.00053372522)
(0.00016782981 -0.017944583 0.0011568716)
(-0.0029020994 -0.015539773 0.0014924898)
(-0.0028867586 -0.012243279 0.001425502)
(-0.0013464364 -0.012726812 0.00092914856)
(0.00093191376 -0.012511806 0.0011963973)
(0.002394066 -0.012477013 0.0013742605)
(0.0029376636 -0.011482818 0.0015958999)
(0.0034248925 -0.012969812 0.00082681834)
(0.00074276752 -0.014459123 0.00023619259)
(-0.0021029278 0.016246659 -0.000646083)
(-0.0046129398 0.016822396 -0.0016155276)
(-0.0054648505 0.016668317 -0.0017586592)
(-0.0051718614 0.015514317 -0.0018682565)
(-0.0036868052 0.011415542 -0.00025037821)
(0.00070775233 0.00030903332 0.0012228944)
(0.0021626682 0.00016509701 4.6036219e-05)
(0.0076119381 0.014152841 0.0019279478)
(0.0011427623 0.018290576 0.0019311417)
(-0.0055070833 0.018159645 0.0025895612)
(-0.00050490566 0.0088259603 0.00058671111)
(-0.0024958296 0.014207711 0.0018686033)
(-2.0120873e-05 -0.00069580975 4.1380353e-05)
(0.0024025843 -0.0010970449 0.00047970171)
(0.0057349695 0.0052461502 0.00057211412)
(0.0042794102 0.018467307 0.0021229209)
(-0.0054948112 0.018727442 0.00097401361)
(-0.0021519096 0.0022100242 -0.0005464965)
(0.0022540309 -0.00097567057 0.00011496192)
(0.0052651154 0.0098919573 -0.00012102432)
(0.0074482948 0.017602639 -0.00055917136)
(-0.0049202451 0.019234185 0.00088503457)
(-0.0082347233 0.014553415 0.0011947118)
(-0.0048883116 0.0032348079 0.0011283675)
(-0.0030855113 0.0032710148 0.00052971451)
(-0.00086104761 0.00069548101 0.0006711941)
(0.0017876965 0.0052512737 0.0021833858)
(0.001532825 0.003069911 0.00098814749)
(0.0044883667 0.01358201 0.0017417464)
(0.0025679654 0.016648 0.0016906095)
(-0.00026940955 0.00077039306 0.00095247597)
(-0.001285277 -0.0011419287 0.00058926173)
(-0.0021845535 -0.0085248595 0.0016735406)
(-7.306509e-05 -0.01242288 0.0020818868)
(0.003995911 -0.014413794 0.0010342131)
(0.0028554161 -0.013474979 0.00013141182)
(-0.0028823004 -0.014990262 -0.0031493624)
(-0.0032422039 -0.012828147 -0.0010809709)
(-0.0012944597 0.0051900894 -0.0006506955)
(0.0023076091 -0.01556748 -0.0018366165)
(0.00075071605 -0.015754777 -0.0039287594)
(0.00087486913 -0.014856317 -0.00099157002)
(0.0029410624 -0.014145052 -0.0023157701)
(0.0016166678 -0.013787054 -0.0015117943)
(0.00077069689 -0.012858113 -0.0039926587)
(0.0022813283 -0.0019479451 0.0014894837)
(0.0023012715 -0.0076876519 0.0021847569)
(0.00072425955 -0.01364072 -0.00063337472)
(0.0010315652 -0.014418014 -2.4460242e-05)
(-0.0027893326 -0.014059672 0.001682001)
(0.0038230127 0.0033174312 0.00039532818)
(-0.0020880023 0.0068064727 0.0010811968)
(0.0049426638 -0.014489247 -0.00040158701)
(-0.00055726334 -0.014742689 0.00065283152)
(-0.0011832486 -0.012977603 -0.00048057718)
(-0.0013422689 -0.013930988 -0.0005633698)
(-0.00045506692 -0.013377534 0.00096073213)
(-0.002972324 -0.014578703 -0.0021585758)
(-0.004664378 -0.014086746 -0.0024831448)
(-0.00036930089 -0.0034556808 -0.0011109666)
(0.00062139612 0.0087013794 0.0014259252)
(0.00021983294 0.0082181196 0.0025845172)
(-0.001364772 0.0059898177 0.0021204479)
(-0.0026094657 -0.0014227648 0.00024707335)
(-0.0013154043 0.0043691554 0.00025810146)
(-0.0018568768 0.0058692847 -1.7734304e-05)
(-0.0010922126 0.010505407 -0.00070142076)
(-0.0041129125 0.010217886 -0.0028668421)
(7.195811e-05 0.0074999081 -0.00066644875)
(0.0041348396 0.012607643 -0.0044067638)
(-0.0010484986 0.011126977 -0.0039954759)
(0.0012644653 0.0051556442 -0.0029194493)
(0.0010709143 -0.0022907951 -0.0021571016)
(0.0022373249 -0.0030305732 -0.0030819804)
(0.0013828695 0.0025098802 -0.0036199596)
(0.0033302021 0.0067688488 -0.001226542)
(0.0024773648 0.010006611 0.0021324372)
(9.6267625e-05 -0.0014526008 -0.00099953252)
(0.00034900852 -0.0032796001 -0.00029151762)
(-0.0013398602 0.0035037536 -0.00012896623)
(-0.00030938429 0.0085709059 0.0027846719)
(0.0016460673 0.0093470674 0.0015266088)
(0.0058051239 0.011121368 0.00069452516)
(-0.0034031416 0.0077301035 0.0007772637)
(0.00015051721 -0.002765664 -0.00045669178)
(-0.0021844403 -0.0043770733 -0.0008165177)
(-0.0013160366 0.00080382169 -0.00020470161)
(-0.0021689625 0.0077523216 0.00017283345)
(-0.0036372854 0.0099670753 -0.0019294769)
(-0.0025846823 0.0067795712 -0.0014989477)
(0.001535355 0.00085770867 0.0015603642)
(0.0020980563 -0.00085229938 0.0010079173)
(0.00475804 -0.0075077688 0.00079179148)
(-0.0022548901 -0.011195549 -0.0011484157)
(-0.0060093767 -0.011012159 -0.0022849738)
(-0.006611665 -0.0098047919 -0.002546658)
(-0.0057213349 -0.008758465 -0.0020642151)
(-0.0031284641 -0.0060372246 -0.0019046437)
(-0.00090882791 -0.0026900065 -0.0018498888)
(0.0024746523 -0.0057727539 -0.0021483659)
(0.0046500718 -0.0065331506 -0.0019719781)
(0.0062142556 -0.0098429161 -0.002619688)
(0.0039539904 -0.009936811 -0.0036809341)
(0.00071834744 -0.0094823442 -0.0054342351)
(-0.00052067223 -0.0073580151 -0.0048301427)
(0.0012382886 -0.0036395408 -0.0030587907)
(0.0033980194 -0.0049057676 -0.0017322795)
(0.0047100223 -0.0077043409 -0.0021845444)
(-0.0028103433 -0.0095914317 -0.0026618248)
(-0.0046418996 -0.0088614856 -0.0031689794)
(-0.0036707321 -0.0023696252 -0.0012184579)
(-0.00013716433 0.00062258664 -9.9627507e-05)
(0.0043659992 -0.0027372725 0.00010492379)
(0.0061022652 -0.0075178716 -0.00031264219)
(0.0056867745 -0.0092161405 -0.00082906534)
(-0.0019989439 -0.0097413541 -0.0023416532)
(-0.0049092181 -0.0096312855 -0.0036872022)
(-0.0049686994 -0.0094519529 -0.0032685513)
(-0.002916768 -0.0079783353 -0.0030871843)
(-0.00040131013 -0.0074391222 -0.0034023631)
(-0.00054028085 -0.01401219 -0.0010723159)
(-0.0032455362 -0.013332581 -0.0014972573)
(-0.0045827321 -0.012249691 -0.0022028798)
(-0.0032336953 -0.010758445 -0.0013044893)
(-0.0021269529 -0.012417851 -0.0021057041)
(0.00088244225 -0.012613252 -0.00053353941)
(0.0028813531 -0.01556891 0.00044637325)
(0.0026936741 -0.015007047 0.00028005668)
(0.001526192 -0.016505412 0.00042872789)
(0.00020676901 -0.015807595 -0.00040515508)
(-0.00034388278 -0.014779509 0.00078936295)
(-0.0011816798 -0.01520564 0.00055260512)
(-0.0028313021 -0.012327669 0.0022339894)
(-0.00095962705 -0.010747652 0.0023379337)
(-0.00018281876 -0.01660096 0.0031749702)
(-0.0024560703 -0.018261689 0.0026172459)
(-0.0033806349 -0.017271408 0.0016399793)
(-0.0025174848 -0.011666915 0.0014047589)
(0.0010301403 -0.012050004 0.0022059257)
(0.0027748426 -0.011706504 0.0013045743)
(0.003641029 -0.014594591 0.0019812457)
(0.00077071616 -0.017056512 0.0024099278)
(-0.0022320815 -0.016694185 0.0028509482)
(-0.0021617311 -0.012956168 0.0026244733)
(-0.0009150586 -0.012439201 0.0015584488)
(0.0019172643 -0.011648524 0.002838948)
(0.0033127785 -0.012713493 0.0025296104)
(0.0036861032 -0.013574868 0.0022270671)
(0.0026411972 -0.014158558 0.00042254969)
(0.00048221171 -0.015486601 -0.0007878853)
(-0.0030320857 0.016173593 -0.0011036451)
(-0.0044353882 0.01534178 -0.0012734607)
(-0.0036516408 0.010577329 -0.00024941656)
(-0.0014951759 0.0017119752 0.0010806249)
(0.0011545604 0.0081392763 -0.0013801401)
(0.003936025 0.0043522947 -0.00088147191)
(0.0083725508 0.01399495 0.001746342)
(0.0078772548 0.016800015 0.0020605996)
(0.0038960334 0.018086713 0.00096945748)
(2.9270793e-05 0.01792458 0.00083963585)
(-0.00217571 0.017191922 0.0023857075)
(-0.0029046753 0.017385122 0.0030773945)
(-0.0017298259 0.013137978 0.0050789302)
(0.0020543056 0.0037915821 0.0011884543)
(0.0039655595 0.01653933 0.0037097338)
(-0.0061880428 0.019850858 0.0017638501)
(-0.0077593675 0.016453367 0.00022781434)
(-0.0039005529 0.0023765728 0.00039346254)
(0.0010014212 0.0017152748 0.00090708022)
(0.0017844348 0.0014105296 -0.0014475827)
(0.0067664066 0.014986115 -0.00065807913)
(-0.0004105284 0.019137255 0.0012565101)
(-0.007047656 0.017097761 0.002449285)
(-0.0036138332 0.0070759919 0.0014624384)
(-0.0023890374 0.0042516306 0.0024374995)
(0.0019021072 0.0018228266 0.0024405319)
(0.0031649257 0.0071376291 0.0033991774)
(0.00588197 0.014328765 0.0050330358)
(0.0046411036 0.016513434 0.0039166177)
(0.0014871569 0.017272757 0.0020293155)
(-0.00051137227 -0.00015998698 0.0018903053)
(0.0024424734 -0.012807648 0.0050496347)
(0.00067495434 -0.01395347 0.0060779489)
(0.00022757354 -0.013127999 0.0031765214)
(0.0017496998 -0.013104096 -0.00066189176)
(0.0010676506 -0.014701129 -0.0041333253)
(-0.002354411 -0.014121509 -0.0056700751)
(0.0022309533 0.0018277586 -0.00098020524)
(0.0017434703 0.0038968622 -0.0012273537)
(0.0020916983 0.0037565488 0.0010325751)
(0.00082683073 -0.00056503399 2.6014572e-05)
(0.00046607046 -0.007562463 0.0021449648)
(0.0050266469 -0.013961471 -0.002597208)
(0.00022473133 -0.014236719 -0.0029410834)
(3.2955905e-05 0.00096279172 0.0014962169)
(-0.0027220372 0.0066953586 0.0025896323)
(0.0033921657 -0.015483224 0.0047985329)
(-0.0014644964 -0.014174887 0.0010692242)
(0.0010108919 -0.01347821 -0.0013522084)
(-0.002042246 -0.015138964 -0.0027357352)
(-0.0043291558 -0.011471869 -0.00014916976)
(-0.00060043469 0.0062877418 -0.00031776419)
(0.00038078945 -0.010648719 -0.00058702719)
(0.0017568842 -0.015421523 -0.0029084499)
(-0.00063798077 -0.013374171 0.00074615513)
(0.001504676 -0.013831837 -0.00078035734)
(-0.0016421252 -0.014784669 -0.00088997689)
(-0.0033078976 -0.009760988 -0.002560379)
(-0.00058792688 0.0011833613 -0.00051895577)
(-0.00089944972 0.0032278682 -0.00051725357)
(0.0025468847 0.0077752185 0.0020297974)
(0.0030440502 0.011417018 0.00383253)
(-0.0013416395 0.0084687268 0.0035723989)
(0.0008038422 -0.0035859782 0.0014572371)
(-0.00096024155 0.0022830125 -0.0014938121)
(0.0010025911 0.0093054571 -0.0023348226)
(-0.0038419995 0.0097744616 -0.0025761242)
(-0.0020127988 0.0073614837 -0.0026164279)
(0.00060579037 0.0090695041 -0.00041197608)
(0.0024204039 0.0085065667 0.00010755732)
(0.0029069392 0.0072798896 -0.0012514975)
(0.0036796191 0.0067086317 -0.0012915579)
(0.0026106352 0.006551154 -0.0016928143)
(0.00030703 0.0076456143 0.00087156741)
(-0.0013929105 0.008046101 0.000440447)
(0.0020373302 0.0089463435 0.0031170805)
(0.0028423606 0.011876132 0.0029192585)
(-0.0012919981 -0.00024253893 0.00053005549)
(-0.00086727911 -0.0024611274 -0.00023998837)
(0.00026787831 0.0098608068 -5.2406668e-05)
(-0.0041613416 0.010777964 0.0032216615)
(-0.00021392044 0.0083871892 0.00035250109)
(0.0045354974 0.010227563 -0.0024761409)
(0.0001130345 0.010239376 0.00035976105)
(0.0019090576 -0.0017888395 -0.00073390454)
(-0.00092702383 -0.0020287226 0.0006292201)
(-0.00056068471 0.010380117 0.0003186873)
(-0.0058045754 0.0095053463 -0.0014339702)
(-0.0034515688 0.0076234185 -0.0018482841)
(-0.0016030717 0.0088080494 -0.0011326205)
(0.00076893693 -0.002540835 0.0028715113)
(0.0027125036 -0.0013815653 0.002818018)
(0.0062731113 -0.0075552875 0.0020755821)
(0.0030015968 -0.0097549342 0.00045989601)
(-0.0057400196 -0.0087956094 -0.0017186768)
(-0.0052693442 -0.0059668996 -0.0022602333)
(-0.0045864777 -0.0041238816 -0.0019810689)
(-0.0026437251 -0.0012592316 -0.0022523136)
(0.00040316977 0.0016594376 -0.00050424468)
(0.0030677477 9.5669743e-05 -0.0001614691)
(0.0043677703 -0.0035021464 0.00027838158)
(0.0032595378 -0.0096683167 -0.0025630933)
(0.0011808734 -0.0090421431 -0.0042054453)
(-0.00044811037 -0.0072062299 -0.0054029674)
(-0.00037555561 -0.00083010896 -0.0025270991)
(0.0021018779 0.00042067392 0.00062993122)
(0.0042245952 -0.0038021351 0.0010046011)
(0.0057776281 -0.007359269 -0.00023423844)
(-0.0041327691 -0.009481193 -0.0017055711)
(-0.0052876357 -0.006652339 -0.0018572198)
(-0.0035137595 -0.0024819375 0.00062601907)
(0.00062466736 5.1579441e-05 -0.0010576305)
(0.0038360854 -0.0054387118 -0.0014571282)
(0.0054114964 -0.0087801766 -0.0018848376)
(0.0056899579 -0.010481139 -0.0025687223)
(-0.0038121736 -0.0093004462 -0.0021526592)
(-0.0049020261 -0.0063994294 -0.0026853022)
(-0.0045150778 -0.0041204387 -0.0026178248)
(-0.0031118006 -0.0013475649 -0.00279443)
(-0.0014279223 0.00039271335 -0.0024253715)
(-0.0013462057 -0.014144742 0.0002439129)
(-0.0037940575 -0.013228429 0.00080510359)
(-0.0022363814 -0.011634418 0.0015344865)
(-0.0006194771 -0.013436181 0.0015004143)
(-0.00058911486 -0.012170895 -0.0016495752)
(0.0014065068 -0.014641776 -0.00099525295)
(0.0019720404 -0.017393908 -0.0018101022)
(0.0013027701 -0.018189237 -0.0019973126)
(-3.6480155e-05 -0.016191457 -0.001782664)
(-0.0011683067 -0.012696146 -0.002934334)
(0.00034957749 -0.012177081 -0.0030621099)
(0.00086085854 -0.016451948 -0.0025137442)
(-0.0013512616 -0.016437394 -0.001157773)
(-0.0015221369 -0.015882788 0.0017855666)
(-0.0021861434 -0.015702257 0.0019699131)
(-0.0037278173 -0.013966786 0.0012398654)
(-0.0032553186 -0.012457477 -0.00024390082)
(-0.00012956127 -0.011830776 0.00010084965)
(0.003042413 -0.014437656 0.0014281948)
(0.0028904343 -0.015183638 0.0025453207)
(0.0014864352 -0.015268128 0.0019147522)
(0.00017647122 -0.016687479 0.0024839159)
(-0.0018269215 -0.015174041 0.0027535857)
(-0.0029494487 -0.013819598 0.0028358387)
(-0.0011396243 -0.011098221 0.0018472058)
(0.0030279232 -0.014735689 0.0029497593)
(0.0025186285 -0.014926115 0.001648278)
(0.002291383 -0.015542884 3.6123024e-06)
(0.0018525251 -0.016642319 -0.0012804807)
(0.00044868232 -0.015868429 -0.0010413806)
(-0.0031717081 0.016113871 0.0016619289)
(-0.0042818482 0.011977127 0.0026633599)
(-0.0010274255 -0.00029266361 0.0025059803)
(0.00049536517 0.0088873052 0.0012335721)
(0.0035004915 0.0063897389 -0.00099047603)
(0.0060414411 0.010732699 -0.0017779303)
(0.0076862168 0.017453831 -0.0023858702)
(0.0046808517 0.019381438 -0.0021496885)
(-0.004036428 0.01737427 -0.0035345852)
(-0.0013627545 0.012580585 -0.0030548458)
(6.9864323e-05 0.0076220818 -0.0024060625)
(0.0045086322 0.017311101 -0.0018850425)
(0.0025728364 0.018016186 0.0011094157)
(0.00017088925 0.017324558 0.0032829627)
(-0.0029163917 0.017550917 0.00044306547)
(-0.0068906656 0.015085564 -0.00083860614)
(-0.00370002 0.0062123348 -0.0008570583)
(-0.0017462053 0.002231884 -0.001880507)
(0.0039310768 0.012318698 0.0011919288)
(0.004916429 0.016789629 0.0035268921)
(0.0055789164 0.017626297 0.0033977442)
(0.00046606016 0.018486174 0.0027882265)
(-0.0061250031 0.017195132 0.0035503963)
(-0.0061968289 0.013714449 0.003510753)
(-0.002521157 0.00098740019 0.0012476107)
(0.0041360281 0.014181154 0.0040305429)
(0.0048179945 0.016589005 0.0033334524)
(0.004995981 0.017531118 0.00079097226)
(0.0035552946 0.018212059 -0.0012013825)
(1.8649668e-05 0.017430827 -0.0040675679)
(-0.00026057499 -0.0018650584 0.00069722281)
(0.005050026 -0.014180609 0.0016157759)
(0.0018249738 -0.015119719 0.0027713323)
(-0.002109564 -0.014096404 0.00070983039)
(0.0011343753 -0.013452062 -0.000198713)
(-9.4077577e-05 -0.01413546 -0.0040008282)
(0.0013598577 -0.0053875165 -0.0030187457)
(0.0020928591 0.0065099578 -0.0019020282)
(0.00056083212 -0.00011191786 -0.0010076622)
(0.0029187029 -0.013278813 0.0027789475)
(-0.00034215275 -0.013795302 0.0031965929)
(-0.00011304208 -0.015188311 0.0033366932)
(0.0012711439 0.00094053632 0.00079020483)
(0.00035272088 -0.0032233915 -0.0021432181)
(0.00067415419 0.0016809908 0.0013734457)
(0.0013012817 -0.0047602001 0.0015135597)
(0.0030473167 -0.014583384 0.0031157615)
(-0.0036041539 -0.014323242 -0.0011652552)
(-0.0011505235 -0.015226059 -0.0022129772)
(-0.0012982558 -0.015656856 -0.0046603724)
(-0.00050784303 -0.0032324745 -0.00094456205)
(0.0011403364 0.0054129621 -0.00066117148)
(-0.0011378384 0.0019523165 -0.00030392024)
(0.0036754083 -0.012905929 -0.005401865)
(-0.0019768622 -0.014647279 -0.0010141076)
(-0.0028263411 -0.014625583 -0.001254867)
(0.0028273719 -0.0062438161 -0.00014719257)
(-7.6959787e-05 0.0014487559 -0.0010524164)
(0.0015752063 0.004220694 -0.0016623873)
(0.0006270582 0.0020342355 -0.0025776535)
(0.0031465656 0.006837942 -0.00033860831)
(0.0050081934 0.010028706 -0.0012509391)
(0.0018481015 0.010370653 0.00052699235)
(0.0015121183 0.006945615 0.00048535217)
(0.0020309456 -0.0017529499 -0.00087066801)
(0.0010574329 0.0018071526 -0.0038329004)
(-0.0017694426 0.0079015262 -0.0036006276)
(0.00024738479 0.010240488 -0.0024768139)
(0.003836956 0.0085249104 0.00073049978)
(0.0025901626 0.011351934 0.00087660198)
(0.0013424542 0.0016802454 0.00081296343)
(-0.00062698117 0.013004512 0.0022844449)
(-0.00011977169 0.0082527857 -0.00013820703)
(0.0010211807 0.0085884728 -0.0027773852)
(0.0011818089 0.0082161328 0.00072013344)
(0.0041754459 0.0075629861 0.0029975135)
(0.0029851091 0.0096131003 -0.00045696598)
(0.00094873301 0.0033201199 -0.00076878137)
(0.00068463036 -0.00042774833 -0.0019748012)
(-0.0020512074 0.010751979 -0.0033288768)
(-0.0037548368 0.0082481821 -0.0028729669)
(0.0010296419 0.0097055279 -0.0010252999)
(0.0029794213 0.0077837921 -0.0018441799)
(0.0043999325 0.010582856 -0.0018677596)
(0.00040548592 0.0059775038 0.0024891975)
(-0.0011077555 0.0005308292 0.0011069436)
(-0.0012877342 0.0075252949 -4.0550774e-05)
(-0.0025228522 0.0082459149 0.0010966283)
(-0.00051337865 0.0096344598 -0.0014950398)
(0.00023223833 0.0084318786 0.0005228177)
(-0.00059869727 -0.0078343562 0.0019339632)
(0.0025275731 -0.0047196101 0.0017062722)
(0.0045820216 -0.0060511332 0.00099227506)
(0.0063052472 -0.0090153754 -0.00014987868)
(0.0024642391 -0.010165641 2.093611e-05)
(-0.0049591715 -0.0066323832 -0.00089738251)
(-0.0042529416 -0.00083347045 -0.0015816422)
(-0.0011444163 0.0035135998 -0.0016517173)
(0.0027563249 -0.0004595296 0.00019093233)
(0.0039788009 -0.0062664457 0.0018983918)
(0.0026696061 -0.010588688 0.0011593761)
(-0.0028589671 -0.01244247 -0.002363997)
(0.00012307164 0.00071908455 -0.001553268)
(0.00092593973 7.7532649e-05 -0.0033277319)
(0.0025515997 -0.00019651366 -0.0012017864)
(0.004379889 -0.0039229352 -0.0001920243)
(0.0050437471 -0.0067580945 -8.1283931e-05)
(0.0058806522 -0.0091937456 -0.00033234308)
(-0.0023852517 -0.0099429888 -0.0017253005)
(-0.0049372166 -0.0069601584 -0.0023233043)
(-0.002984136 -0.0019626497 -0.0021154451)
(0.00078623939 0.0017418553 -0.0021483944)
(0.003337412 -0.0017295496 -0.00253547)
(0.0046317146 -0.0038979612 -0.0024722494)
(0.0057648043 -0.00831584 -0.0030317099)
(-0.00027988448 -0.0097394768 -0.0017594113)
(-0.0047986959 -0.004136791 -5.6949258e-05)
(-0.0036558517 0.00036127509 -0.00026838154)
(-0.0019519729 0.0025494485 -0.00080630557)
(0.00013004897 9.9554145e-05 -0.00066781065)
(-0.0005012689 -0.014831068 0.00017734047)
(-0.002661477 -0.015232346 0.00099101947)
(-0.0032767476 -0.015937604 0.0017529212)
(-0.0038899734 -0.01512649 8.8354654e-05)
(-0.0020460976 -0.011667837 -0.0011160308)
(0.00070609349 -0.011965167 -0.0016667051)
(0.0025428373 -0.015451018 -0.0013540765)
(4.3398415e-05 -0.018086769 -0.00071528615)
(-0.0027875113 -0.017088836 -0.00061739976)
(-0.0017498461 -0.010959107 -0.0013239617)
(0.0016085309 -0.012115098 0.00066830738)
(0.0033191101 -0.012678542 0.00015384119)
(0.0023622267 -0.015336041 -3.5401392e-05)
(0.00019812347 -0.016893261 -0.00091843757)
(-0.0010936175 -0.014705434 0.00028883264)
(-0.0033415464 -0.012684351 0.00072753385)
(-0.0020015234 -0.011714059 0.00059857456)
(0.0017887034 -0.01186817 -0.00055682147)
(0.0031960324 -0.01333553 -0.0011624271)
(0.0035770642 -0.015369562 -0.00092244241)
(0.0022398758 -0.015776943 -0.00048273486)
(0.00078298629 -0.017560365 0.0010848852)
(0.00023511265 -0.016918006 0.0018591022)
(-0.00082625939 -0.015354956 0.00068190954)
(-0.0013350646 -0.01713409 -0.00056491191)
(-0.0021276936 -0.014694144 -0.0028857603)
(0.00055724333 -0.011486345 -0.0021429152)
(0.0028643123 -0.017472503 -0.0028656335)
(0.0018482052 -0.017229472 -0.0030164698)
(0.00015084621 -0.015374018 -0.0031159477)
(-0.0024451505 0.016640544 0.0014954911)
(-0.0048524068 0.017040873 0.0030004538)
(-0.0045170555 0.016222499 0.0036915094)
(-0.0024512326 0.013374767 0.0013933995)
(0.0018204928 0.00063788659 -0.0016236615)
(0.0035143705 0.00030226764 -0.0019980081)
(0.0070386125 0.0096264256 -0.0029866495)
(0.0023594432 0.01884246 -0.0024854782)
(-0.0067014205 0.016721509 -0.0016683998)
(-0.00097647865 -0.001100277 -0.00026075226)
(0.001125609 -0.001424027 0.0018067195)
(0.004213801 0.0074889092 0.0011465928)
(0.0057079106 0.016488543 -0.00033330429)
(0.00017492648 0.018577841 0.00064412373)
(-0.0052678718 0.017006363 0.00045771531)
(-0.0067153844 0.013894308 0.00061908245)
(-0.00063971476 0.0016481459 0.0015621418)
(0.0013016102 0.0022933183 -0.00074703301)
(0.0052867309 0.0084265151 -0.00058202713)
(0.0073476429 0.016331638 -0.00011026405)
(0.0062704336 0.017643127 0.00049002038)
(0.0020795611 0.018735789 0.00066318676)
(-0.004049474 0.018295365 0.00074125635)
(-0.0058072697 0.017851699 0.00024528348)
(-0.0055762804 0.018441445 -0.0012702073)
(-0.0035171994 0.015013705 -0.0032151131)
(0.00094798884 0.0042524946 -0.0012101721)
(0.0056725905 0.017489831 -0.0043751785)
(0.0033876484 0.019071552 -0.0056834597)
(-0.0012213353 0.016234299 -0.0064176087)
(0.00013042371 0.0021196667 -0.00049702021)
(0.0010846783 -0.0035344917 0.00069400737)
(0.0043269564 -0.015332866 -0.00093981672)
(0.004584536 -0.017036622 0.00021678248)
(0.0032592682 -0.013784983 -5.7272815e-05)
(0.0014301733 -0.01387732 -0.00073262739)
(-0.001327889 -0.014297587 -0.0029175895)
(0.0010578267 0.0062720663 -0.00095999395)
(0.001864623 -0.014238839 6.0426621e-05)
(0.0013021402 -0.014272285 0.0017530519)
(1.400715e-05 -0.014293191 0.0035694775)
(-0.003567082 -0.014681061 0.0014440296)
(0.00030199447 -0.00027397802 -0.00037875093)
(9.3888957e-05 0.0065093292 0.00082119937)
(-0.00013543018 0.00058229369 0.0019714495)
(0.0055735814 -0.012902695 0.002610498)
(0.0042310846 -0.014916975 0.0027605418)
(-0.00052182099 -0.013740715 -0.0001109009)
(-2.585099e-06 -0.01446258 0.0026682678)
(6.9431843e-05 -0.0067610628 0.00072328793)
(-6.3313046e-05 0.0031655204 0.00063022535)
(0.00041006459 0.0062421032 0.00063907439)
(-0.00087133419 0.0052931828 -0.00022445357)
(-0.0011923892 0.00075051936 -0.0010945923)
(-0.0004561359 -0.01486736 -0.00073968537)
(0.0016374875 -0.014601449 0.002461572)
(0.0020386649 -0.013902899 0.001794392)
(-0.0034759387 -0.015805514 0.0014673175)
(0.003064344 0.0039432857 -0.0025823592)
(-0.0010405728 -0.013205413 0.0052848689)
(0.0016978499 0.0085906213 -0.0008914782)
(0.004688077 0.0081109037 -0.0015192455)
(0.0054137838 0.011814056 -0.0011801851)
(0.0019440881 0.012286161 -0.0019440656)
(0.00257559 0.00012758942 -0.0011241485)
(0.0027346793 -0.0033659524 -0.0015895293)
(-0.0010662442 0.0052614623 -0.0032149485)
(0.0010556396 0.0088926503 -0.0015215212)
(0.0028874054 0.012297177 -0.00031670119)
(-0.0022708562 -0.0023800229 0.00091109053)
(0.0012059429 0.0040882741 0.0026541271)
(-0.0023730706 0.0097593484 0.00059612623)
(-0.0023781005 0.0070494045 -0.00053980732)
(0.00024904874 0.009806408 0.0001286591)
(0.0028476248 0.007202463 0.0016029618)
(0.0053813092 0.0090248041 0.0024118144)
(0.0025524611 0.0098882552 0.001483065)
(0.0027599637 0.0018799279 0.00050999703)
(0.0010453356 -0.0010559543 0.0016640772)
(-0.0015281853 0.0076896354 0.00046896009)
(-0.0023157174 0.0090349767 7.1549807e-05)
(0.00047014261 0.010801725 0.00071080315)
(0.0015016048 0.010377437 0.00027661567)
(0.0039128599 0.008222154 -0.0017175821)
(0.0036669558 0.011781534 0.0013850204)
(0.00051032609 0.004211102 0.0014611652)
(0.0029188219 0.0039342723 0.0021621863)
(-0.0027851106 0.013353081 0.00328807)
(-0.00016514796 0.0085868016 0.0011459205)
(0.0037752628 0.01228379 0.0051032974)
(0.0020843108 -0.0025786646 -0.0011738523)
(0.0030396853 -0.0075506609 0.00018458245)
(0.0045139004 -0.0073556555 0.00015747009)
(0.0065508387 -0.0094356353 0.00019491205)
(0.0063327918 -0.010680952 -0.00075999771)
(0.00085117099 -0.010391448 -0.00077592086)
(-0.0041048804 -0.0080401481 0.0012361381)
(-0.0019397536 0.0032732558 0.00035414364)
(0.0032054526 -0.0035366053 0.0019398488)
(0.00031923184 -0.0090669937 0.0022659644)
(-0.0048641335 -0.0081326345 -0.00076054284)
(-0.0026584907 -0.0033796352 0.00011520918)
(-0.0024902569 -0.00069517517 8.1127919e-05)
(0.00021900789 0.0031009454 -0.00048952712)
(0.0035987321 -0.0011184848 0.00083400191)
(0.0049855563 -0.0054158779 0.0011348258)
(0.0060399042 -0.0086025879 0.0013403862)
(0.0062699274 -0.01004477 0.0017014388)
(-0.0022569974 -0.0084889104 0.0014289231)
(-0.0053588219 -0.0031249526 0.00070096458)
(-0.0034328566 0.0021975877 0.00036253862)
(-0.00034547719 0.0042429395 0.00098356725)
(0.0028871381 0.0027111063 0.00067101823)
(0.0046612513 -0.0012999155 0.00032141705)
(0.0052771152 -0.0039690665 0.00087360626)
(0.0053042168 -0.0099779611 0.0016403621)
(-0.0038760747 -0.008982217 0.0042481044)
(-0.0029463598 -0.0034526332 0.0038844811)
(-0.0022232051 -0.0021870995 0.0032911963)
(-2.5923213e-05 -0.0027516177 0.0042561013)
(-0.0004740892 -0.014769757 -0.00062878477)
(-0.0018690225 -0.014101345 6.9110782e-05)
(-0.0030214241 -0.013416867 0.00076637094)
(-0.0030801488 -0.010543887 0.0013227375)
(-0.0002404818 -0.012360345 0.00057074318)
(0.0021841683 -0.01117197 0.0021131156)
(0.0024129948 -0.015000912 0.0022447687)
(0.00028760709 -0.017512021 0.0016968407)
(-0.002849076 -0.015870037 -0.001035234)
(-0.0015510878 -0.011300882 -0.00015640941)
(0.001947741 -0.013035645 0.00045434063)
(0.0028193943 -0.017677628 -4.819544e-05)
(0.0007493009 -0.016952802 -0.0014194006)
(0.0015763674 -0.011638477 0.00099692201)
(0.003291544 -0.011657194 0.00086074445)
(0.0038016456 -0.014852881 0.00015039621)
(0.0023621112 -0.015096552 -0.00021101216)
(-1.8395402e-05 -0.01659306 0.00021709701)
(-0.0012157504 -0.015799804 -0.00068185526)
(-0.0025641587 -0.016357496 -0.0016045128)
(-0.0030610469 -0.014866777 -0.0013607327)
(-0.0017201859 -0.011083696 -0.0016565106)
(0.00078714572 -0.011476483 -0.0015706458)
(0.0019925061 -0.016428466 -0.003310026)
(-0.0011965104 -0.017764535 -0.0033585144)
(-0.0016411998 -0.011966296 -0.00098315201)
(-0.0020493605 0.016534404 -0.00058625604)
(-0.0044662315 0.016557205 0.00060511318)
(-0.0050370218 0.01505683 0.001360602)
(-0.0017084036 0.00418689 0.00027829226)
(0.0017664492 0.0011233975 0.00095565267)
(0.0034340084 0.00099643055 0.0011089998)
(0.0072173491 0.013408201 0.0026498553)
(0.0013012597 0.018715882 -9.1362233e-05)
(-0.0062480679 0.01551889 -0.00072916752)
(3.7591883e-05 -0.00088159036 -1.7990452e-05)
(0.0014473055 0.0047454689 0.0016766549)
(0.0057172581 0.01780541 0.00091893183)
(0.0044236236 0.018095962 -0.0024576604)
(0.001148379 0.0019998086 -0.00025365598)
(0.003915284 0.0035179024 0.00020067283)
(0.0066521333 0.0131749 -0.0018162533)
(0.0064911739 0.016913227 -0.0022274767)
(0.00033259074 0.018352267 -0.0028815659)
(-0.0036918004 0.017569587 -0.0039150202)
(-0.0062501426 0.017772178 -0.0035397102)
(-0.0057752083 0.011664755 -0.0015122479)
(-0.0022577962 0.00043949762 -0.00014946691)
(-0.00023339018 0.0022205186 -0.00057131053)
(0.0038954847 0.015780817 -0.003779893)
(-0.0012701789 0.018447609 -0.0052335963)
(0.0007892663 0.00017554408 0.0014328844)
(0.00040477661 0.0033318313 -0.00019129869)
(0.00064276682 0.0014216067 0.00037600186)
(0.0037715814 -0.011223436 -0.00069340612)
(0.0040004074 -0.013524687 -0.0017103815)
(0.0025664506 -0.013045647 -0.00059446315)
(-0.0016133084 -0.013469326 -0.00035193127)
(-0.0027319561 -0.013128546 -0.0017286782)
(0.00046763019 0.0023700812 -0.0021955403)
(0.002620545 -0.012777185 0.00065541187)
(0.0027130871 -0.013683224 0.00029880445)
(-0.0027146358 -0.013727903 -0.0037234182)
(-0.0029649398 -0.013156124 -0.00331991)
(0.0019458533 0.0019642232 -0.0002226642)
(-0.00048645658 -0.013494297 -0.0023002502)
(3.9666943e-05 -0.014042064 0.0017320007)
(-0.0034409183 -0.015121941 0.0018612864)
(0.00079244281 0.00060290259 -0.00046608267)
(-0.0009927105 0.004200969 -0.00069848005)
(-0.0002042397 -5.0031361e-05 0.00034082784)
(-0.0010653908 -0.001205571 -0.0027752293)
(0.0025676533 -0.015623748 -0.0012531524)
(-0.00039957857 -0.013710718 0.0022816616)
(-0.0020715326 -0.013550777 0.0017232945)
(0.00079126058 -0.013919078 -0.00064589533)
(0.0046576768 -0.013957852 -0.00020200052)
(0.0035144768 -0.014935896 0.0017433889)
(0.0011263149 0.0088492209 0.00014481109)
(0.0038083751 0.0075578246 0.00027212037)
(0.0044932028 0.010146138 -0.0015711315)
(0.0030660751 0.0050497448 -0.0019752963)
(0.0028550477 0.0045783872 -0.0016207277)
(0.0027103948 0.0022036661 -0.0007110604)
(-0.0019613492 0.0023175824 -0.0035721581)
(0.00057935916 0.0071333614 -0.00092573287)
(0.0035085295 0.0074845188 -0.0024291663)