/*--------------------------------*- C++ -*----------------------------------*\
| =========                 |                                                 |
| \\      /  F ield         | OpenFOAM: The Open Source CFD Toolbox           |
|  \\    /   O peration     | Version:  v2012                                 |
|   \\  /    A nd           | Website:  www.openfoam.com                      |
|    \\/     M anipulation  |                                                 |
\*---------------------------------------------------------------------------*/
FoamFile
{
    version     2.0;
    format      ascii;
    class       surfaceScalarField;
    location    "730/topAir";
    object      phi;
}
// * * * * * * * * * * * * * * * * * * * * * * * * * * * * * * * * * * * * * //

dimensions      [1 0 -1 0 0 0 0];
oriented        oriented;


internalField   nonuniform List<scalar> 
3140
(
9.5058284e-06
-3.090046e-07
7.2154679e-08
9.6929962e-06
-2.691142e-07
8.1942416e-08
9.8706121e-06
-2.4841042e-07
7.0785688e-08
1.001297e-05
-1.9517568e-07
5.2805278e-08
1.0114268e-05
-1.3067816e-07
2.936565e-08
1.0184767e-05
-7.1640534e-08
1.1278582e-09
1.0260079e-05
-2.4634496e-08
-5.069057e-08
1.0360901e-05
1.9106811e-08
-1.1993563e-07
1.0498407e-05
8.3256838e-08
-2.2076018e-07
1.0695573e-05
1.685906e-07
-3.6573767e-07
1.094696e-05
3.1929837e-07
-5.7065015e-07
1.1221855e-05
5.7389324e-07
-8.4874172e-07
1.1463143e-05
9.6186971e-07
-1.2031166e-06
1.1683876e-05
1.413177e-06
-1.6338795e-06
1.1852689e-05
1.9162581e-06
-2.0850765e-06
1.1951311e-05
2.405349e-06
-2.503996e-06
1.1966292e-05
2.8363317e-06
-2.8513158e-06
1.1899717e-05
3.1811604e-06
-3.1145274e-06
1.1777895e-05
3.4212694e-06
-3.299302e-06
1.1643631e-05
3.5513148e-06
-3.4168059e-06
1.1535641e-05
3.5857164e-06
-3.4773612e-06
1.1475515e-05
3.5499623e-06
-3.4893015e-06
1.1466304e-05
3.4686904e-06
-3.4586684e-06
1.1496683e-05
3.3609513e-06
-3.3900694e-06
1.1543816e-05
3.2407586e-06
-3.2859212e-06
1.1564687e-05
3.1241009e-06
-3.1419419e-06
1.147342e-05
3.0387037e-06
-2.9429434e-06
1.1101917e-05
3.039607e-06
-2.6618143e-06
1.0113124e-05
3.2538885e-06
-2.2569396e-06
4.0120636e-06
-1.6737271e-06
9.1112598e-06
-2.3087424e-07
7.9578233e-08
9.0835254e-06
-3.4502872e-07
1.0364759e-07
9.0886546e-06
-3.6330155e-07
1.097605e-07
9.1401724e-06
-3.5775555e-07
1.1106078e-07
9.2366518e-06
-3.3415528e-07
1.069968e-07
9.3724915e-06
-3.0283862e-07
9.5358661e-08
9.5513222e-06
-2.7729492e-07
7.3835897e-08
9.7908211e-06
-2.599536e-07
3.9666093e-08
1.011597e-05
-2.2969722e-07
-1.192417e-08
1.0560144e-05
-1.6904907e-07
-1.0618425e-07
1.1149127e-05
-2.4993996e-08
-2.4457778e-07
1.186566e-05
3.014646e-07
-4.4448377e-07
1.2604136e-05
9.4115761e-07
-7.1867251e-07
1.3245011e-05
1.8094224e-06
-1.038341e-06
1.3717399e-05
2.7839549e-06
-1.3412751e-06
1.3962634e-05
3.7242046e-06
-1.564958e-06
1.3974413e-05
4.5198364e-06
-1.6956803e-06
1.3801129e-05
5.1331266e-06
-1.7786026e-06
1.3527429e-05
5.5552512e-06
-1.859799e-06
1.3243553e-05
5.7935588e-06
-1.9575393e-06
1.3006027e-05
5.8751749e-06
-2.0507116e-06
1.2834213e-05
5.8380939e-06
-2.1145314e-06
1.2724164e-05
5.7162142e-06
-2.1348202e-06
1.2659418e-05
5.5340491e-06
-2.1043844e-06
1.2617156e-05
5.3040149e-06
-2.0150687e-06
1.2556126e-05
5.041867e-06
-1.84793e-06
1.2393424e-05
4.7856449e-06
-1.5713736e-06
1.1980235e-05
4.622366e-06
-1.151582e-06
1.1089537e-05
4.7289084e-06
-5.6122214e-07
5.3116988e-06
2.9795455e-07
9.1674321e-06
-2.1100235e-07
8.1655913e-08
8.9954538e-06
-2.8091781e-07
1.0786632e-07
8.8092481e-06
-2.9430232e-07
1.1720525e-07
8.6211958e-06
-2.9365376e-07
1.2394945e-07
8.4438225e-06
-2.8595042e-07
1.2916736e-07
8.2823377e-06
-2.7373357e-07
1.3237904e-07
8.1333249e-06
-2.6264561e-07
1.3436332e-07
7.9945597e-06
-2.5861177e-07
1.3742664e-07
7.8846952e-06
-2.6448323e-07
1.4465895e-07
7.8491214e-06
-2.8853895e-07
1.550719e-07
8.0119991e-06
-3.4700834e-07
1.5911516e-07
8.5465788e-06
-3.657456e-07
1.322167e-07
9.4880636e-06
-5.4758559e-08
5.3146939e-08
1.0702489e-05
6.2929212e-07
-3.6242582e-08
1.1761694e-05
1.7865122e-06
-6.3950733e-08
1.2531904e-05
2.9068716e-06
4.5086995e-08
1.2926122e-05
3.7505581e-06
3.735119e-07
1.301801e-05
4.3516613e-06
6.8867275e-07
1.2933335e-05
4.7476038e-06
8.9203293e-07
1.2799839e-05
4.9662043e-06
9.610547e-07
1.2687028e-05
5.0278514e-06
9.6071819e-07
1.260684e-05
4.9573823e-06
9.6179825e-07
1.2546755e-05
4.7905451e-06
9.8696078e-07
1.2479272e-05
4.5598158e-06
1.0432672e-06
1.2388287e-05
4.2920488e-06
1.1049329e-06
1.2254484e-05
4.0071558e-06
1.171096e-06
1.20426e-05
3.7384754e-06
1.2625769e-06
1.1705839e-05
3.5584699e-06
1.4057474e-06
1.1140381e-05
3.6307452e-06
1.6713906e-06
4.2779885e-06
2.0900791e-06
8.9781931e-06
7.9756166e-08
8.5925436e-06
1.0473055e-07
8.1853131e-06
1.1292708e-07
7.7736801e-06
1.1797805e-07
7.3664215e-06
1.2130705e-07
6.969806e-06
1.2288086e-07
6.5832549e-06
1.2390467e-07
6.1979471e-06
1.2669521e-07
5.7983709e-06
1.3509265e-07
5.3551883e-06
1.5464326e-07
4.8114314e-06
1.967466e-07
4.162476e-06
2.8318853e-07
3.6696977e-06
4.3791579e-07
3.6465902e-06
6.5136752e-07
4.424216e-06
1.007272e-06
5.629638e-06
1.6998736e-06
6.6495458e-06
2.7294669e-06
7.4436782e-06
3.5569259e-06
8.0921693e-06
4.0990774e-06
8.6639181e-06
4.3948448e-06
9.1798645e-06
4.512555e-06
9.6344681e-06
4.5035842e-06
1.0002211e-05
4.4237176e-06
1.0261244e-05
4.3018042e-06
1.0402476e-05
4.1519712e-06
1.0440689e-05
3.9702845e-06
1.0402631e-05
3.7781881e-06
1.0370154e-05
3.5932385e-06
1.0569032e-05
3.4355606e-06
3.075534e-06
9.6177363e-06
-3.0875805e-07
3.2154929e-08
9.9201963e-06
-2.7041952e-07
4.9897872e-08
1.0201124e-05
-2.6252794e-07
5.2375644e-08
1.0433984e-05
-2.2701529e-07
4.6941597e-08
1.0612323e-05
-1.8473226e-07
3.5732294e-08
1.074879e-05
-1.5272196e-07
1.734967e-08
1.0846827e-05
-1.3901715e-07
-9.7417503e-09
1.0915959e-05
-1.4699441e-07
-4.2105669e-08
1.0966037e-05
-1.825505e-07
-8.8312137e-08
1.1005808e-05
-2.5287993e-07
-1.5263194e-07
1.1045066e-05
-3.690637e-07
-2.4082771e-07
1.1096126e-05
-5.4216065e-07
-3.5764124e-07
1.117933e-05
-7.8363125e-07
-5.0279829e-07
1.1379802e-05
-1.1605791e-06
-6.7408634e-07
1.1689412e-05
-1.5561563e-06
-8.3906697e-07
1.2053667e-05
-1.8828382e-06
-9.859972e-07
1.2374043e-05
-2.0415212e-06
-1.1305956e-06
1.2578077e-05
-2.0268142e-06
-1.2918724e-06
1.265523e-05
-1.9073391e-06
-1.4689164e-06
1.2648134e-05
-1.7658697e-06
-1.6433597e-06
1.2609454e-05
-1.6448245e-06
-1.7930878e-06
1.2576837e-05
-1.5483942e-06
-1.9070897e-06
1.2564399e-05
-1.4674621e-06
-1.9768011e-06
1.2572152e-05
-1.3948113e-06
-1.9997155e-06
1.2600738e-05
-1.3299988e-06
-1.9790274e-06
1.2647885e-05
-1.2653411e-06
-1.9148096e-06
1.269149e-05
-1.1797027e-06
-1.7928842e-06
1.2667877e-05
-1.020311e-06
-1.5975145e-06
1.2452447e-05
-6.6143894e-07
-1.3533285e-06
3.2603368e-07
-1.0924384e-06
9.2361599e-06
-2.324437e-07
3.6072342e-08
9.3554873e-06
-3.4915943e-07
6.3058588e-08
9.500964e-06
-3.7275408e-07
7.450807e-08
9.6859322e-06
-3.7799622e-07
7.7070723e-08
9.9063051e-06
-3.715076e-07
7.3395625e-08
1.0149878e-05
-3.6326278e-07
6.232218e-08
1.0408309e-05
-3.6515756e-07
4.154196e-08
1.0679786e-05
-3.8750722e-07
8.7016757e-09
1.096986e-05
-4.4157963e-07
-4.2963093e-08
1.1275246e-05
-5.4669179e-07
-1.1774965e-07
1.1610183e-05
-7.2562702e-07
-2.2295373e-07
1.19938e-05
-1.0069239e-06
-3.6338739e-07
1.2455548e-05
-1.4295003e-06
-5.347062e-07
1.297913e-05
-2.0131026e-06
-7.0968872e-07
1.3542705e-05
-2.6090714e-06
-8.5224019e-07
1.4038953e-05
-2.9630468e-06
-9.8111591e-07
1.4353896e-05
-2.8970639e-06
-1.1549093e-06
1.445032e-05
-2.5173056e-06
-1.3841037e-06
1.4366313e-05
-2.0441119e-06
-1.6384202e-06
1.4193232e-05
-1.6672508e-06
-1.8823948e-06
1.4002911e-05
-1.4155816e-06
-2.0888498e-06
1.3814128e-05
-1.2362791e-06
-2.2369805e-06
1.362747e-05
-1.107704e-06
-2.3070004e-06
1.3443411e-05
-1.0231914e-06
-2.2911186e-06
1.3292342e-05
-1.0049457e-06
-2.1887702e-06
1.3230847e-05
-1.0557637e-06
-1.9970402e-06
1.3339765e-05
-1.170493e-06
-1.6933738e-06
1.3822236e-05
-1.3712029e-06
-1.2916457e-06
1.5352987e-05
-1.7265539e-06
-1.0398529e-06
-2.0206248e-06
-1.1410427e-06
9.2947995e-06
-2.1340326e-07
3.6775922e-08
9.2731942e-06
-2.8468266e-07
6.4993653e-08
9.2389381e-06
-2.9997211e-07
7.8678126e-08
9.2041395e-06
-3.0361153e-07
8.4362162e-08
9.1795557e-06
-3.0272506e-07
8.4967471e-08
9.1684965e-06
-2.9973582e-07
7.991028e-08
9.1705714e-06
-3.0072265e-07
6.7852784e-08
9.1857384e-06
-3.1293134e-07
4.7683863e-08
9.2144884e-06
-3.4514377e-07
1.9474157e-08
9.2628353e-06
-4.1376982e-07
-2.6195476e-08
9.3468693e-06
-5.4808171e-07
-1.0246512e-07
9.4808651e-06
-7.9485835e-07
-2.13863e-07
9.6869511e-06
-1.2191507e-06
-3.6333484e-07
9.9948848e-06
-1.846801e-06
-5.1048303e-07
1.0350768e-05
-2.4580318e-06
-5.7054853e-07
1.065166e-05
-2.6953057e-06
-5.2270117e-07
1.0905767e-05
-2.3588712e-06
-4.1747554e-07
1.1029735e-05
-1.6557864e-06
-2.9526925e-07
1.1047631e-05
-8.9307135e-07
-2.7530063e-07
1.097254e-05
-2.3668494e-07
-3.9306149e-07
1.0915775e-05
9.1242157e-08
-4.8737931e-07
1.0899222e-05
2.2450239e-07
-4.7974379e-07
1.0915776e-05
2.2705312e-07
-3.6066644e-07
1.0924614e-05
1.4224682e-07
-1.2643048e-07
1.0893719e-05
3.3517158e-09
1.3123654e-07
1.0809829e-05
-1.8587619e-07
3.8758921e-07
1.0709696e-05
-4.8054014e-07
6.7427484e-07
1.0682747e-05
-7.9064207e-07
8.5283799e-07
1.1154803e-05
-1.0814572e-06
5.5414279e-07
-1.3690047e-06
-2.8738767e-07
9.0995718e-06
3.5732666e-08
8.8568989e-06
6.2719618e-08
8.5943912e-06
7.5461556e-08
8.3284376e-06
8.0318991e-08
8.0669317e-06
8.008684e-08
7.815851e-06
7.4224677e-08
7.5775211e-06
6.1510943e-08
7.3503912e-06
4.0893005e-08
7.1276174e-06
1.2722268e-08
6.9049372e-06
-3.6446487e-08
6.6651931e-06
-1.1159082e-07
6.3794558e-06
-2.2593322e-07
6.0194253e-06
-4.2119413e-07
5.5695243e-06
-7.452981e-07
5.1461619e-06
-1.0261662e-06
4.947064e-06
-7.9494718e-07
5.0199749e-06
2.9880868e-07
5.1001314e-06
1.8223033e-06
5.2939508e-06
3.0139103e-06
5.7361308e-06
3.7178395e-06
6.2672747e-06
4.0739342e-06
6.788763e-06
4.2076667e-06
7.2293777e-06
4.2108301e-06
7.5554279e-06
4.1180832e-06
7.7794707e-06
3.9320483e-06
7.9483288e-06
3.6171957e-06
8.0445626e-06
3.203662e-06
8.1331467e-06
2.7174385e-06
8.6425596e-06
1.8504938e-06
5.0036366e-07
9.5950745e-06
-3.1068289e-07
1.6742e-08
9.888271e-06
-2.7104375e-07
2.7742943e-08
1.0168243e-05
-2.595814e-07
3.1978884e-08
1.0403227e-05
-2.1960732e-07
3.1556621e-08
1.0583611e-05
-1.7276532e-07
2.810328e-08
1.0714854e-05
-1.3612851e-07
2.22242e-08
1.0804689e-05
-1.1372343e-07
1.4132894e-08
1.086459e-05
-1.0522433e-07
3.2030351e-09
1.0899254e-05
-1.1337898e-07
-9.6048585e-09
1.0915322e-05
-1.4425049e-07
-2.4465146e-08
1.092257e-05
-2.0803725e-07
-4.0087745e-08
1.0938297e-05
-3.2175464e-07
-5.1765174e-08
1.0995442e-05
-5.1180821e-07
-4.8504497e-08
1.1194445e-05
-8.559694e-07
-1.7680011e-08
1.146949e-05
-1.1962858e-06
8.1782252e-08
1.1720203e-05
-1.4485484e-06
2.1207849e-07
1.1883771e-05
-1.62147e-06
3.2827256e-07
1.1960989e-05
-1.7781109e-06
4.1053187e-07
1.1973518e-05
-1.9376531e-06
4.5802445e-07
1.194778e-05
-2.0960806e-06
4.8039918e-07
1.1914742e-05
-2.2497415e-06
4.9169151e-07
1.1887128e-05
-2.3836846e-06
5.064241e-07
1.1853244e-05
-2.4750543e-06
5.3501423e-07
1.1793319e-05
-2.5135895e-06
5.7808662e-07
1.170148e-05
-2.5118455e-06
6.3136087e-07
1.1601123e-05
-2.5001395e-06
6.9606808e-07
1.1563383e-05
-2.503404e-06
7.6367946e-07
1.16949e-05
-2.4778127e-06
7.7058084e-07
1.1902884e-05
-2.0705356e-06
5.393914e-07
-6.8519014e-07
-1.1840148e-07
9.2081306e-06
-2.3229216e-07
1.8519307e-08
9.3146983e-06
-3.4829054e-07
3.3736485e-08
9.4575194e-06
-3.6977624e-07
4.1880452e-08
9.6425433e-06
-3.7138611e-07
4.3824276e-08
9.8622436e-06
-3.5972908e-07
4.0657812e-08
1.0100902e-05
-3.4451533e-07
3.2049011e-08
1.0347957e-05
-3.3592784e-07
1.6690387e-08
1.0600204e-05
-3.4154219e-07
-7.2290055e-09
1.0855875e-05
-3.7064715e-07
-4.1371164e-08
1.1119904e-05
-4.3715631e-07
-8.8894345e-08
1.1405452e-05
-5.666563e-07
-1.4994773e-07
1.1743675e-05
-8.0543208e-07
-2.1809993e-07
1.2188969e-05
-1.2214811e-06
-2.7067378e-07
1.2699999e-05
-1.8144348e-06
-2.6263367e-07
1.3131074e-05
-2.2700725e-06
-2.0948273e-07
1.3320151e-05
-2.4024095e-06
-2.1582179e-07
1.3257299e-05
-2.3820112e-06
-3.3077798e-07
1.3038646e-05
-2.3971908e-06
-5.4556329e-07
1.2717252e-05
-2.4230187e-06
-8.3086214e-07
1.2338458e-05
-2.4594633e-06
-1.1394457e-06
1.1937976e-05
-2.5244505e-06
-1.4128546e-06
1.1519763e-05
-2.5947401e-06
-1.6067727e-06
1.1064899e-05
-2.6269118e-06
-1.6992067e-06
1.055965e-05
-2.6099608e-06
-1.688635e-06
1.000414e-05
-2.5820594e-06
-1.5631932e-06
9.4527054e-06
-2.6433237e-06
-1.3049705e-06
9.1624358e-06
-2.8745251e-06
-1.0389097e-06
9.5525673e-06
-3.2190378e-06
-9.5439953e-07
1.0980874e-05
-3.2237597e-06
-1.3377172e-06
-1.7893712e-06
-2.19198e-06
9.2677804e-06
-2.1308682e-07
1.8750108e-08
9.2341963e-06
-2.8403659e-07
3.4322682e-08
9.1980429e-06
-2.9825102e-07
4.3305026e-08
9.1650654e-06
-3.0031948e-07
4.6271959e-08
9.1436587e-06
-2.9733337e-07
4.3977323e-08
9.1347811e-06
-2.9143378e-07
3.5705352e-08
9.1350808e-06
-2.880011e-07
1.9625663e-08
9.1414144e-06
-2.9323392e-07
-6.9584973e-09
9.1528578e-06
-3.147608e-07
-4.7856325e-08
9.1661096e-06
-3.6731839e-07
-1.0928757e-07
9.1762578e-06
-4.820977e-07
-1.97181e-07
9.1906249e-06
-7.209724e-07
-3.1271623e-07
9.2547544e-06
-1.2102102e-06
-4.3875597e-07
9.3903575e-06
-1.9710672e-06
-4.8890908e-07
9.2808038e-06
-2.3241185e-06
-4.0513575e-07
8.8021295e-06
-2.0419151e-06
-4.0267959e-07
8.1426253e-06
-1.5769158e-06
-5.6206145e-07
7.6587545e-06
-1.4220811e-06
-7.8596727e-07
7.19038e-06
-1.1304043e-06
-1.0992839e-06
6.666857e-06
-8.9851583e-07
-1.4303733e-06
6.1130121e-06
-8.0227395e-07
-1.6554919e-06
5.5742463e-06
-8.3074237e-07
-1.7044158e-06
5.0923687e-06
-9.345264e-07
-1.5703394e-06
4.7258054e-06
-1.0946445e-06
-1.2744645e-06
4.4281334e-06
-1.3269686e-06
-8.2677816e-07
4.2276437e-06
-1.6662851e-06
-3.92642e-07
4.494692e-06
-2.0909591e-06
-3.8526099e-07
5.2816206e-06
-2.5553458e-06
-6.1617155e-07
6.2265298e-06
-2.1688618e-06
-1.4927442e-06
1.2147679e-07
-2.9786977e-06
9.0733132e-06
1.8284203e-08
8.8187228e-06
3.3272248e-08
8.5542168e-06
4.171542e-08
8.2900303e-06
4.4184836e-08
8.0314163e-06
4.1366402e-08
7.7817759e-06
3.2430241e-08
7.5401161e-06
1.5168686e-08
7.3014785e-06
-1.3704102e-08
7.0596684e-06
-6.0229017e-08
6.7921154e-06
-1.3621208e-07
6.4582982e-06
-2.5987039e-07
5.979344e-06
-4.6793887e-07
5.1882223e-06
-8.4006615e-07
3.906882e-06
-1.4323113e-06
2.439419e-06
-1.8752083e-06
1.3817793e-06
-1.7739272e-06
1.4591856e-06
-1.3533114e-06
1.806335e-06
5.465868e-08
2.2336296e-06
1.4589088e-06
2.7535855e-06
2.3026065e-06
3.3065082e-06
2.7216162e-06
3.8032017e-06
2.8826572e-06
4.1834609e-06
2.898132e-06
4.384657e-06
2.8240744e-06
4.3184945e-06
2.6729354e-06
4.1042947e-06
2.1666034e-06
4.0220611e-06
1.1959891e-06
4.4095815e-06
-2.2358412e-07
6.4360281e-06
-2.3556955e-06
-5.0004367e-06
9.5894199e-06
-3.1093833e-07
7.2390238e-09
9.8751411e-06
-2.7067828e-07
1.2698771e-08
1.014913e-05
-2.575285e-07
1.5514292e-08
1.0379196e-05
-2.1465983e-07
1.6143459e-08
1.0555156e-05
-1.6299664e-07
1.5132251e-08
1.0683234e-05
-1.1860577e-07
1.2744538e-08
1.0772836e-05
-8.4496585e-08
9.0186071e-09
1.0831746e-05
-5.9832554e-08
4.1137637e-09
1.0868347e-05
-4.4839163e-08
-1.3970033e-09
1.0894944e-05
-4.2342577e-08
-8.785279e-09
1.0931589e-05
-6.1909623e-08
-1.4979056e-08
1.1019169e-05
-1.2474684e-07
-1.4963442e-08
1.1223325e-05
-2.5806918e-07
4.7235357e-09
1.1588796e-05
-4.4550318e-07
6.1786358e-08
1.1953626e-05
-4.2901735e-07
1.4619662e-07
1.2202766e-05
-2.7098471e-07
2.3507732e-07
1.2334066e-05
-1.2887074e-07
3.276989e-07
1.2400379e-05
-8.7284842e-08
4.3379235e-07
1.2445521e-05
-1.4358688e-07
5.5902438e-07
1.2502831e-05
-2.7958635e-07
7.0541965e-07
1.2587256e-05
-4.6484394e-07
8.7500592e-07
1.2681413e-05
-6.5594556e-07
1.0714062e-06
1.2747263e-05
-8.2134384e-07
1.2944813e-06
1.2764418e-05
-9.632357e-07
1.5298312e-06
1.2752064e-05
-1.0948432e-06
1.7473992e-06
1.2723415e-05
-1.1588872e-06
1.8982425e-06
1.2585759e-05
-9.9053111e-07
1.9148977e-06
1.2113773e-05
-4.7042679e-07
1.7457056e-06
1.0713707e-05
6.2699062e-07
1.3267147e-06
2.8996958e-06
6.1656331e-07
9.200615e-06
-2.3211456e-07
8.0488601e-09
9.2957457e-06
-3.4774399e-07
1.567036e-08
9.4276982e-06
-3.6820435e-07
2.0602629e-08
9.6020104e-06
-3.6771179e-07
2.2562997e-08
9.8101265e-06
-3.5218465e-07
2.1728659e-08
1.0035989e-05
-3.3038069e-07
1.7959914e-08
1.026869e-05
-3.1126915e-07
1.0759762e-08
1.0502647e-05
-3.0114986e-07
1.2778539e-10
1.0741195e-05
-3.074101e-07
-1.7364034e-08
1.0994937e-05
-3.4563597e-07
-3.9388078e-08
1.1295994e-05
-4.4925826e-07
-6.377668e-08
1.1715962e-05
-6.8353531e-07
-7.9569464e-08
1.2373287e-05
-1.1235628e-06
-6.302209e-08
1.3155534e-05
-1.4997321e-06
9.1581098e-09
1.3729703e-05
-1.31394e-06
1.0159287e-07
1.4067188e-05
-9.3808017e-07
1.1439244e-07
1.4207682e-05
-6.9176417e-07
9.236607e-08
1.4191878e-05
-6.6254228e-07
4.632478e-08
1.4041408e-05
-7.9381946e-07
-2.9100969e-08
1.3790707e-05
-1.0323509e-06
-1.3476141e-07
1.3463235e-05
-1.290903e-06
-2.5785965e-07
1.3045692e-05
-1.5021785e-06
-3.4113091e-07
1.2498701e-05
-1.6260696e-06
-3.4518523e-07
1.1822633e-05
-1.6988292e-06
-2.7450732e-07
1.1144741e-05
-1.8261439e-06
-1.518942e-07
1.0739878e-05
-2.0028486e-06
-5.7338907e-08
1.0705973e-05
-1.8557164e-06
-1.4545685e-07
1.0861638e-05
-1.0642981e-06
-5.2598947e-07
1.0944007e-05
4.0491896e-07
-1.1429316e-06
2.6287713e-06
-1.8689854e-06
9.2605994e-06
-2.1307485e-07
8.0708643e-09
9.2154883e-06
-2.8405671e-07
1.5745428e-08
9.167631e-06
-2.9794768e-07
2.0904397e-08
9.122253e-06
-2.9917729e-07
2.3114376e-08
9.0864246e-06
-2.9467658e-07
2.2296508e-08
9.0600162e-06
-2.8625996e-07
1.7992123e-08
9.0379787e-06
-2.7893296e-07
9.3260021e-09
9.0141434e-06
-2.7900516e-07
-5.2689119e-09
8.9836823e-06
-2.9499962e-07
-2.9807536e-08
8.940418e-06
-3.4573272e-07
-6.5931832e-08
8.8863254e-06
-4.7554014e-07
-1.1682326e-07
8.8608531e-06
-7.9471058e-07
-1.7611047e-07
9.044537e-06
-1.5424758e-06
-2.0345412e-07
9.4213143e-06
-2.2343481e-06
-1.2923011e-07
9.270169e-06
-1.5300829e-06
-3.627337e-08
8.7216444e-06
-7.6067621e-07
-3.1443117e-08
8.0267669e-06
-4.0907956e-07
-1.5091427e-07
7.2084204e-06
-2.734789e-07
-3.5808917e-07
6.3661086e-06
-4.283796e-07
-6.235929e-07
5.4880666e-06
-6.5925472e-07
-9.2636819e-07
4.6117772e-06
-8.9496066e-07
-1.1757823e-06
3.7982415e-06
-1.1191325e-06
-1.2742321e-06
3.0749399e-06
-1.3204821e-06
-1.152704e-06
2.4508058e-06
-1.5529177e-06
-7.9594848e-07
2.092742e-06
-1.893278e-06
-4.0129173e-07
2.4295885e-06
-2.4036654e-06
-3.3112038e-07
3.5102482e-06
-2.3596595e-06
-9.711559e-07
4.8663447e-06
-1.2306272e-06
-1.8231472e-06
5.8756632e-06
5.7085096e-07
-2.6881434e-06
3.2528574e-06
-3.4356581e-06
9.0663372e-06
7.8236712e-09
8.8004131e-06
1.513851e-08
8.5242757e-06
1.9903999e-08
8.2476146e-06
2.1667509e-08
7.9740212e-06
2.0282176e-08
7.7050006e-06
1.5189822e-08
7.4357842e-06
5.4511107e-09
7.1558843e-06
-1.2810218e-08
6.8447667e-06
-4.4111645e-08
6.4597928e-06
-9.6971018e-08
5.9144918e-06
-1.9010749e-07
5.0170295e-06
-3.6514722e-07
3.36768e-06
-7.3245703e-07
1.0025758e-06
-1.2927499e-06
-1.1222165e-06
-1.2685842e-06
-2.5603411e-06
-1.0962606e-06
-3.4066218e-06
-9.1713185e-07
-3.0971552e-06
-5.289174e-07
-2.2511215e-06
1.874061e-07
-1.3215966e-06
7.1764236e-07
-5.1551956e-07
1.0240985e-06
8.5058474e-08
1.1657423e-06
4.3633216e-07
1.2291463e-06
4.8185206e-07
1.2280588e-06
1.2907112e-07
1.1329879e-06
-6.1111763e-07
4.9480849e-07
-9.0583051e-07
-8.9233564e-07
2.2321813e-07
-2.620877e-06
2.5150887e-06
-4.1265222e-06
-5.4014947e-06
9.5864741e-06
-3.1132837e-07
1.0716048e-09
9.868382e-06
-2.7128716e-07
2.0777062e-09
1.0139058e-05
-2.581352e-07
2.9714039e-09
1.0366461e-05
-2.1506368e-07
3.8011456e-09
1.0539984e-05
-1.6300859e-07
4.6162324e-09
1.06654e-05
-1.1815587e-07
5.4861461e-09
1.0751631e-05
-8.3737176e-08
6.5287314e-09
1.0807129e-05
-5.920017e-08
7.820677e-09
1.0841572e-05
-4.5287944e-08
9.4395464e-09
1.0869047e-05
-4.7784669e-08
1.1466292e-08
1.0920955e-05
-8.1321596e-08
1.4243385e-08
1.1062347e-05
-1.7469273e-07
1.7861617e-08
1.138084e-05
-3.3672291e-07
2.2168908e-08
1.1819432e-05
-4.0330605e-07
2.6201403e-08
1.2183263e-05
-2.4838189e-07
3.1342197e-08
1.2430324e-05
-4.9511726e-08
3.8878704e-08
1.2595336e-05
1.1285756e-07
5.108346e-08
1.2710971e-05
2.4883692e-07
7.0516403e-08
1.2817207e-05
3.5379515e-07
1.0016022e-07
1.2950842e-05
4.3063786e-07
1.4231393e-07
1.3132781e-05
4.9910857e-07
1.9514196e-07
1.3342504e-05
6.1192534e-07
2.5097519e-07
1.3525224e-05
8.1402437e-07
2.9904416e-07
1.3630157e-05
1.0934919e-06
3.329572e-07
1.3605981e-05
1.4238775e-06
3.4978075e-07
1.3373291e-05
1.7859387e-06
3.4807001e-07
1.2779527e-05
2.1889696e-06
3.2415522e-07
1.1564933e-05
2.6952431e-06
2.7090043e-07
9.3034755e-06
3.4133203e-06
1.8103243e-07
4.7862261e-06
8.1196239e-08
9.1964818e-06
-2.3219912e-07
1.4061314e-09
9.285713e-06
-3.479465e-07
3.0974133e-09
9.4116551e-06
-3.6837184e-07
4.8962184e-09
9.5800168e-06
-3.6767283e-07
6.8099317e-09
9.7815894e-06
-3.5174433e-07
8.8916029e-09
9.9995211e-06
-3.2939725e-07
1.1269661e-08
1.02223e-05
-3.0986566e-07
1.4109011e-08
1.0445788e-05
-3.0003187e-07
1.7466379e-08
1.0671436e-05
-3.0974047e-07
2.1425187e-08
1.0917717e-05
-3.601517e-07
2.664579e-08
1.1237689e-05
-4.986986e-07
3.3478201e-08
1.1754008e-05
-8.1293284e-07
4.1994816e-08
1.2623384e-05
-1.3202604e-06
5.0643768e-08
1.3370578e-05
-1.1952981e-06
5.3968533e-08
1.3908946e-05
-7.4554787e-07
6.0712886e-08
1.4304873e-05
-3.9712824e-07
6.6598963e-08
1.461107e-05
-1.7457216e-07
7.5966652e-08
1.482411e-05
-3.8064842e-09
9.0461763e-08
1.4986652e-05
5.5193868e-08
1.1380275e-07
1.5147916e-05
-4.9454961e-09
1.5040067e-07
1.5360593e-05
-1.4293491e-07
1.8778226e-07
1.5637541e-05
-1.9230482e-07
2.0879087e-07
1.5902829e-05
2.0048615e-08
2.1265786e-07
1.6045243e-05
5.0718114e-07
2.0211122e-07
1.6026408e-05
1.1409825e-06
1.8516189e-07
1.5734012e-05
1.8997142e-06
1.5895692e-07
1.5004519e-05
2.6943388e-06
1.1542445e-07
1.3553353e-05
3.6149357e-06
4.1753329e-08
1.117598e-05
4.7773403e-06
-9.2827346e-08
6.3641874e-06
-2.4982303e-07
9.2564839e-06
-2.1308769e-07
1.4354452e-09
9.2052521e-06
-2.8413623e-07
3.1658423e-09
9.1507072e-06
-2.979931e-07
5.0693144e-09
9.0980471e-06
-2.9907877e-07
7.1792901e-09
9.0533982e-06
-2.943829e-07
9.5829002e-09
9.0153396e-06
-2.8583107e-07
1.2483641e-08
8.9774739e-06
-2.7873069e-07
1.6055957e-08
8.9316201e-06
-2.7990213e-07
2.0454301e-08
8.8669205e-06
-3.0097071e-07
2.6120555e-08
8.7744757e-06
-3.6778241e-07
3.4137366e-08
8.6602754e-06
-5.4706488e-07
4.5722495e-08
8.6316252e-06
-1.0224605e-06
6.2027277e-08
9.1932395e-06
-2.1648677e-06
7.991436e-08
9.3571603e-06
-1.5638621e-06
7.6808341e-08
9.1079385e-06
-6.1377571e-07
8.0916197e-08
8.8049134e-06
-2.1823137e-07
9.0974382e-08
8.2955237e-06
7.3385633e-08
1.0910468e-07
7.6058334e-06
1.890317e-07
1.3772897e-07
6.7819972e-06
7.1836899e-08
1.8391814e-07
5.7628492e-06
-1.4072949e-07
2.2783903e-07
4.615257e-06
-4.1643184e-07
2.4331259e-07
3.6590695e-06
-7.3491236e-07
2.2157484e-07
3.4165742e-06
-1.0420673e-06
1.4826331e-07
4.2492875e-06
-1.1645335e-06
4.2439583e-08
6.0357874e-06
-9.6413963e-07
-8.0093551e-08
7.9556715e-06
-9.0531474e-08
-2.5309157e-07
9.1187157e-06
9.6335104e-07
-3.8593195e-07
9.2681834e-06
2.205412e-06
-5.3745513e-07
8.504156e-06
3.5878315e-06
-7.0121867e-07
5.2299577e-06
-8.1775912e-07
9.0622859e-06
1.4016122e-09
8.7902069e-06
3.0801572e-09
8.5071868e-06
4.9298752e-09
8.2227813e-06
6.9930859e-09
7.9393032e-06
9.3763145e-09
7.6562889e-06
1.2372004e-08
7.3668752e-06
1.6133147e-08
7.0532841e-06
2.0877846e-08
6.6807281e-06
2.747308e-08
6.1784555e-06
3.7519191e-08
5.3875988e-06
5.3689572e-08
3.9189428e-06
8.1153744e-08
8.9417668e-07
1.2942608e-07
-2.1112249e-06
1.6859699e-07
-4.0897196e-06
9.7543167e-08
-5.4425063e-06
3.7052344e-08
-6.2931925e-06
4.8602149e-09
-6.617968e-06
-1.6572176e-08
-6.3025226e-06
-5.7419266e-08
-5.6035444e-06
-1.2133406e-07
-4.7967051e-06
-1.9811633e-07
-4.0737711e-06
-2.9108776e-07
-3.4843175e-06
-4.0128798e-07
-2.9226136e-06
-4.9725335e-07
-2.2179384e-06
-5.3538475e-07
-1.2214875e-06
-5.9452917e-07
-1.1625051e-07
-1.0418959e-06
8.0304715e-07
-1.3341773e-06
1.7228816e-06
-1.4530312e-06
-1.3596658e-06
9.5865328e-06
-3.1130306e-07
-5.1801306e-09
9.8685645e-06
-2.712676e-07
-8.6858704e-09
1.0139443e-05
-2.5813447e-07
-9.7731897e-09
1.0367167e-05
-2.1510185e-07
-8.8199518e-09
1.054119e-05
-1.6309728e-07
-6.3043905e-09
1.0667437e-05
-1.1824591e-07
-2.5023469e-09
1.0754805e-05
-8.3743598e-08
2.9241417e-09
1.0811756e-05
-5.9074414e-08
9.9769986e-09
1.0847652e-05
-4.5067139e-08
1.8665609e-08
1.0877263e-05
-4.694653e-08
2.8899807e-08
1.0931418e-05
-7.8970216e-08
3.9260691e-08
1.1074129e-05
-1.6940141e-07
4.4964583e-08
1.1389858e-05
-3.2633396e-07
3.3362662e-08
1.18308e-05
-4.022609e-07
-1.2372141e-08
1.2201998e-05
-2.5608723e-07
-8.4466741e-08
1.2465755e-05
-6.1625453e-08
-1.6460979e-07
1.2659567e-05
1.0318804e-07
-2.4720766e-07
1.2818359e-05
2.5144144e-07
-3.4095368e-07
1.2982444e-05
3.8773165e-07
-4.5287427e-07
1.3178292e-05
5.3572134e-07
-5.9051238e-07
1.3406086e-05
7.2801449e-07
-7.6204018e-07
1.3627796e-05
9.9552393e-07
-9.6781554e-07
1.3793822e-05
1.3348736e-06
-1.2036165e-06
1.3858758e-05
1.7189668e-06
-1.4528473e-06
1.3778263e-05
2.1121945e-06
-1.6837788e-06
1.3473566e-05
2.5016689e-06
-1.8504027e-06
1.2783814e-05
2.9087261e-06
-1.8954824e-06
1.1442923e-05
3.365477e-06
-1.7529791e-06
9.0046379e-06
3.9462589e-06
-1.3245581e-06
5.0414469e-06
-6.1610455e-07
9.1966097e-06
-2.3216762e-07
-5.3706771e-09
9.2861002e-06
-3.4789653e-07
-9.765247e-09
9.4124512e-06
-3.6830541e-07
-1.12845e-08
9.5814339e-06
-3.6759656e-07
-9.678222e-09
9.7840527e-06
-3.5165499e-07
-5.1689301e-09
1.0003662e-05
-3.2920695e-07
2.6226485e-09
1.0228543e-05
-3.0946329e-07
1.4950397e-08
1.0454361e-05
-2.9929552e-07
3.187599e-08
1.0684047e-05
-3.0818135e-07
5.4869955e-08
1.0935996e-05
-3.566064e-07
8.4398968e-08
1.1262986e-05
-4.9029311e-07
1.1792495e-07
1.1783628e-05
-7.9343892e-07
1.4565133e-07
1.2644842e-05
-1.2801939e-06
1.4361464e-07
1.3412759e-05
-1.1967223e-06
8.0370005e-08
1.3965264e-05
-7.6402131e-07
1.5728533e-08
1.4388892e-05
-4.1316651e-07
-6.0930595e-09
1.4730319e-05
-1.8806273e-07
2.3554951e-08
1.4983679e-05
2.8537299e-09
8.1908207e-08
1.5208714e-05
1.0659668e-07
1.6426843e-07
1.5458651e-05
1.5838132e-07
2.6999715e-07
1.5750135e-05
2.4480133e-07
3.6965839e-07
1.6005887e-05
5.1629438e-07
4.2122965e-07
1.6175137e-05
9.6420781e-07
4.0322319e-07
1.6210853e-05
1.554094e-06
3.2213345e-07
1.6072571e-05
2.2141383e-06
2.1530415e-07
1.5655256e-05
2.9188406e-06
1.5660737e-07
1.4726308e-05
3.70573e-06
2.4863742e-07
1.303052e-05
4.5544195e-06
5.5333938e-07
1.0241512e-05
5.5529121e-06
1.0958771e-06
6.9409781e-06
1.8646197e-06
9.2566262e-06
-2.1306805e-07
-5.330445e-09
9.2056983e-06
-2.8410317e-07
-9.7007272e-09
9.1516581e-06
-2.9794282e-07
-1.1254307e-08
9.0998094e-06
-2.9900912e-07
-9.5605446e-09
9.0566311e-06
-2.9428093e-07
-4.6138764e-09
9.0208234e-06
-2.8558795e-07
4.6713576e-09
8.9858868e-06
-2.7826543e-07
1.9793691e-08
8.9442221e-06
-2.7915364e-07
4.1976547e-08
8.8871883e-06
-2.9934347e-07
7.4316625e-08
8.8080631e-06
-3.6386302e-07
1.2052259e-07
8.7166045e-06
-5.3679963e-07
1.8370183e-07
8.7187701e-06
-9.920713e-07
2.5851875e-07
9.272687e-06
-2.0685455e-06
3.139996e-07
9.5163621e-06
-1.6247162e-06
2.5978934e-07
9.3122458e-06
-6.4615697e-07
1.6721605e-07
9.0747269e-06
-2.7341863e-07
1.8984857e-07
8.7052778e-06
1.3264632e-09
2.9003461e-07
8.2494267e-06
1.150058e-07
4.8134555e-07
7.790196e-06
1.9152334e-08
7.2935081e-07
7.3074476e-06
-1.444934e-07
1.0111468e-06
6.9948896e-06
-4.222038e-07
1.2197765e-06
7.1211109e-06
-6.3344802e-07
1.2423124e-06
7.8179672e-06
-6.6614588e-07
1.0799335e-06
8.949415e-06
-3.8660636e-07
8.5082846e-07
1.0207706e-05
2.1023421e-07
6.649098e-07
1.1110823e-05
1.1393675e-06
6.2333262e-07
1.12247e-05
2.233872e-06
9.7413046e-07
1.0404965e-05
3.2270731e-06
1.6150309e-06
8.487074e-06
4.4267585e-06
2.3528478e-06
5.9643931e-06
3.0998381e-06
9.0624308e-06
-5.1456696e-09
8.7906576e-06
-9.2509826e-09
8.5081596e-06
-1.0516059e-08
8.2246396e-06
-8.4971854e-09
7.9429413e-06
-3.207375e-09
7.6625079e-06
7.2163392e-09
7.3764014e-06
2.3973158e-08
7.0684702e-06
4.9654311e-08
6.706967e-06
8.9631613e-08
6.2271509e-06
1.534706e-07
5.4844037e-06
2.5963008e-07
4.1238543e-06
4.4952787e-07
1.3504746e-06
8.3247083e-07
-1.5489982e-06
1.4250341e-06
-3.5127355e-06
1.412347e-06
-4.8832355e-06
1.1332591e-06
-5.753556e-06
8.7609685e-07
-6.0689833e-06
4.1306481e-07
-5.7702102e-06
-3.3821906e-07
-5.0537012e-06
-9.8495394e-07
-4.2757365e-06
-1.4012292e-06
-3.5686052e-06
-1.6342774e-06
-2.8831534e-06
-1.7547581e-06
-1.9502332e-06
-1.8180465e-06
-5.2343267e-07
-1.7523227e-06
1.0139171e-06
-9.9597313e-07
1.9401162e-06
2.6192109e-07
1.9216907e-06
1.9106874e-06
1.6773848e-06
3.2278456e-06
4.2519093e-06
9.5896672e-06
-3.1079754e-07
-1.5071942e-08
9.8758768e-06
-2.7048114e-07
-2.4412587e-08
1.0150602e-05
-2.5728484e-07
-2.721119e-08
1.0381682e-05
-2.1439168e-07
-2.550264e-08
1.0558943e-05
-1.6272806e-07
-2.0826605e-08
1.0688563e-05
-1.1839826e-07
-1.3709642e-08
1.0779928e-05
-8.4382237e-08
-4.0370242e-09
1.0841833e-05
-5.9642681e-08
7.748615e-09
1.0882572e-05
-4.411358e-08
2.208947e-08
1.0913478e-05
-4.0913358e-08
3.8988703e-08
1.095533e-05
-5.92097e-08
5.677876e-08
1.1049595e-05
-1.1976505e-07
7.0802813e-08
1.1261646e-05
-2.4769557e-07
6.9600823e-08
1.1630243e-05
-4.1965759e-07
3.9084477e-08
1.1993662e-05
-4.0754845e-07
-4.0713611e-08
1.2254533e-05
-2.5490712e-07
-1.7180889e-07
1.2408143e-05
-1.1467448e-07
-2.8803614e-07
1.2505119e-05
-6.5157595e-08
-3.7514658e-07
1.2579944e-05
-9.5816473e-08
-4.3472648e-07
1.2653947e-05
-1.8794785e-07
-4.7988326e-07
1.2734114e-05
-3.1924127e-07
-5.266399e-07
1.2811005e-05
-4.6233273e-07
-5.8606216e-07
1.2867858e-05
-6.0311465e-07
-6.6041073e-07
1.2899187e-05
-7.4242543e-07
-7.4325037e-07
1.2912216e-05
-8.6962456e-07
-8.2594199e-07
1.2895081e-05
-9.2531663e-07
-9.0267212e-07
1.2743604e-05
-7.7444047e-07
-9.5888492e-07
1.2263829e-05
-3.2954107e-07