/*--------------------------------*- C++ -*----------------------------------*\
| =========                 |                                                 |
| \\      /  F ield         | OpenFOAM: The Open Source CFD Toolbox           |
|  \\    /   O peration     | Version:  v2012                                 |
|   \\  /    A nd           | Website:  www.openfoam.com                      |
|    \\/     M anipulation  |                                                 |
\*---------------------------------------------------------------------------*/
FoamFile
{
    version     2.0;
    format      ascii;
    class       volScalarField;
    location    "730/topAir";
    object      rho;
}
// * * * * * * * * * * * * * * * * * * * * * * * * * * * * * * * * * * * * * //

dimensions      [1 -3 0 0 0 0 0];


internalField   nonuniform List<scalar> 
1200
(
1.0678196
0.99568087
0.93830684
0.8908688
0.85029486
0.81479288
0.78338424
0.75573885
0.73178571
0.71108264
0.69340651
0.67874174
0.66749244
0.66846519
0.67279729
0.68042483
0.69044235
0.70149067
0.71228389
0.72191462
0.72988615
0.73600771
0.74026498
0.7427307
0.74351668
0.74271792
0.74033351
0.73615079
0.72951225
0.71933791
1.1565041
1.1525329
1.1471437
1.1406088
1.1331294
1.1248675
1.1159687
1.1056567
1.0918479
1.0738867
1.0493276
1.0175664
0.9794933
0.94172904
0.90780905
0.87990946
0.8584102
0.8429644
0.83301431
0.82776642
0.82598219
0.82622101
0.82717189
0.82780866
0.82737082
0.82520596
0.82056974
0.81240157
0.79877282
0.77791194
1.158573
1.1584398
1.1581928
1.1578078
1.1572644
1.1565458
1.1556384
1.1545101
1.1530772
1.1512433
1.1487156
1.140524
1.1193274
1.0847789
1.0423246
0.99785161
0.95699207
0.92221983
0.89447143
0.87372253
0.85919468
0.84960752
0.84353235
0.83965427
0.83688423
0.8343324
0.83120854
0.82662787
0.81910563
0.80641111
1.158618
1.1586136
1.1586029
1.1585821
1.158546
1.1584884
1.1584022
1.158278
1.1581024
1.1578546
1.1574834
1.1566539
1.1539497
1.1389434
1.1025791
1.0573131
1.0141134
0.97525097
0.94187163
0.91460226
0.89339273
0.87754548
0.86599995
0.85764403
0.85149032
0.84672348
0.84264525
0.83855797
0.83346548
0.82579223
1.0678501
0.99644112
0.94025405
0.89433416
0.85560683
0.8223209
0.7935027
0.76862393
0.74750658
0.73023651
0.71715337
0.7087779
0.70599882
0.7199584
0.73866041
0.75934903
0.77832216
0.79313612
0.8033368
0.80981876
0.81372848
0.81584791
0.81651919
0.815818
0.81377305
0.8103892
0.80555539
0.79878908
0.78854687
0.7719717
1.1565072
1.1526105
1.1474247
1.1412597
1.1343533
1.1269055
1.1191166
1.1112042
1.1034287
1.0961133
1.0896898
1.0846974
1.0817769
1.0817071
1.083273
1.083835
1.0809797
1.0745559
1.0659337
1.0565034
1.0467811
1.0367302
1.0261275
1.0147277
1.0023368
0.98880656
0.97414162
0.95858532
0.9418947
0.9211898
1.1585732
1.1584436
1.1582093
1.1578539
1.157366
1.1567391
1.1559724
1.1550725
1.1540556
1.1529543
1.1518248
1.1506653
1.149522
1.1479969
1.1432422
1.1320502
1.1121097
1.0867416
1.0610262
1.038989
1.0198199
1.0017441
0.98449408
0.96793018
0.95227713
0.93653763
0.92021373
0.90371476
0.88695782
0.86964363
1.158618
1.1586137
1.1586038
1.158585
1.1585535
1.1585051
1.1584353
1.1583393
1.1582122
1.1580487
1.1578406
1.1575459
1.1568686
1.1532787
1.13854
1.1096327
1.0727717
1.0306166
0.99043757
0.95629398
0.93003972
0.9107197
0.89567479
0.88342853
0.87324639
0.86538694
0.85907182
0.85361829
0.848269
0.84113197
1.0678735
0.99635224
0.94003013
0.8939624
0.85506008
0.82154998
0.79237347
0.76685941
0.74464518
0.72564427
0.71007527
0.69855834
0.69249597
0.70450253
0.72136658
0.74005824
0.75833148
0.7754656
0.79119772
0.80527176
0.81742537
0.8272437
0.83418457
0.83787354
0.83834541
0.83601103
0.83138922
0.82467955
0.81438465
0.79692085
1.1565074
1.1525986
1.1473904
1.1411962
1.1342515
1.126747
1.1188578
1.1107657
1.1026925
1.0949391
1.0879607
1.0824729
1.0794846
1.079783
1.0808575
1.0801122
1.0773517
1.0731437
1.067478
1.060307
1.0514433
1.0404452
1.0269339
1.0109811
0.99305274
0.97346171
0.95227361
0.93026829
0.90811083
0.88374329
1.1585732
1.158443
1.1582076
1.1578504
1.1573608
1.1567321
1.1559631
1.1550591
1.154035
1.1529244
1.1517961
1.1507769
1.1499465
1.1474912
1.1371866
1.1203849
1.1043789
1.0911992
1.0777356
1.0631963
1.0464704
1.0262101
1.0024294
0.9768481
0.95173518
0.92856746
0.90745895
0.88895557
0.86982332
0.84783265
1.158618
1.1586137
1.1586037
1.1585848
1.1585533
1.1585051
1.1584357
1.1583408
1.1582159
1.1580568
1.1578586
1.1575831
1.1565844
1.146834
1.108182
1.0611046
1.0357379
1.03291
1.007978
0.97794341
0.95171106
0.93095087
0.9143335
0.90062953
0.88903549
0.87927742
0.87100721
0.86297159
0.84705973
0.82660629
1.0678877
0.9963325
0.93992502
0.89371922
0.85459847
0.82073932
0.79101633
0.76468476
0.74125886
0.72048646
0.70244474
0.68773982
0.67778768
0.68422113
0.68972547
0.69198414
0.69175055
0.69089084
0.6910282
0.69321725
0.69781544
0.70439366
0.71209044
0.72018257
0.728174
0.73496103
0.73807205
0.73441068
0.72336516
0.70753102
1.1565076
1.1525945
1.1473711
1.1411455
1.1341442
1.1265412
1.1184853
1.1101211
1.1016194
1.0932421
1.0854692
1.0791906
1.0755789
1.0737556
1.0699784
1.0646145
1.0586125
1.0525751
1.0466251
1.0402641
1.0325931
1.022678
1.0100193
0.99485205
0.97758195
0.95799455
0.93769714
0.91694171
0.88588247
0.82796867
1.1585732
1.1584428
1.1582064
1.157847
1.1573526
1.1567152
1.1559307
1.1550002
1.1539342
1.1527633
1.1515668
1.1505089
1.1493379
1.1410477
1.1220346
1.1075878
1.0979392
1.0901387
1.0804107
1.0662913
1.046448
1.0204947
0.99007302
0.95907192
0.93011083
0.90257651
0.88179324
0.8657494
0.84880066
0.82294191
1.158618
1.1586137
1.1586037
1.1585846
1.1585527
1.1585037
1.1584329
1.1583352
1.1582052
1.1580372
1.1578197
1.1574202
1.1544372
1.1188632
1.0335688
0.99262001
0.98928067
0.9904348
0.99013526
0.9738338
0.95465612
0.93651758
0.91993284
0.90648143
0.89333364
0.87576693
0.85902264
0.84147686
0.82266482
0.80550867
1.0679047
0.99634749
0.93992448
0.89369553
0.85454457
0.82064654
0.79087715
0.76449721
0.74103883
0.72033078
0.70262476
0.68883683
0.6802497
0.68739422
0.69068814
0.68966761
0.68696458
0.68282873
0.6780096
0.67310135
0.66863435
0.66505112
0.66265412
0.66157976
0.66175683
0.66277397
0.66366626
0.66296837
0.65894566
0.64975474
1.156508
1.1525937
1.147365
1.1411287
1.13411
1.1264812
1.1183896
1.1099811
1.1014408
1.0930801
1.0855177
1.0798905
1.0770532
1.0727731
1.0667625
1.0599028
1.0487584
1.0331383
1.0152091
0.99648455
0.97803735
0.95841732
0.93540569
0.90951768
0.88167864
0.85320672
0.82468335
0.79574518
0.76453887
0.72768621
1.1585732
1.1584427
1.158206
1.1578455
1.1573491
1.1567082
1.155918
1.1549793
1.1539035
1.1527282
1.1515578
1.1505741
1.1483581
1.1290196
1.1142218
1.1053948
1.0999704
1.0939314
1.0864819
1.074867
1.0547406
1.0249548
0.98900137
0.95437105
0.92773007
0.90642921
0.88298239
0.85513928
0.82082774
0.77836
1.158618
1.1586137
1.1586036
1.1585845
1.1585524
1.158503
1.1584314
1.1583322
1.1581996
1.1580263
1.1577899
1.1571369
1.1492067
1.0427916
0.9781862
0.96616738
0.96053175
0.95468877
0.94687391
0.93937774
0.92968385
0.91861689
0.90749619
0.8971868
0.88753857
0.87812588
0.87073244
0.85007236
0.8215136
0.78757147
1.0679171
0.99636935
0.93995516
0.89373628
0.85459775
0.82071344
0.79095802
0.76459181
0.74114838
0.72044634
0.70273063
0.68890538
0.68020775
0.68733771
0.69065643
0.68962957
0.68672475
0.68236571
0.67725988
0.67194098
0.66688272
0.66251073
0.65917514
0.65710567
0.65632654
0.65651149
0.65680946
0.65579801
0.65166621
0.64243012
1.1565083
1.1525946
1.147367
1.1411324
1.1341161
1.1264907
1.1184036
1.1100008
1.1014667
1.0931106
1.0855452
1.0798866
1.0769417
1.072799
1.066868
1.0599994
1.0488434
1.0324945
1.0127637
0.99009344
0.96436019
0.93534773
0.90363944
0.8707869
0.83867623
0.80864991
0.78101552
0.75505955
0.72914841
0.69993398
1.1585732
1.1584428
1.158206
1.1578457
1.1573495
1.1567089
1.1559193
1.1549816
1.1539072
1.152734
1.1515655
1.1505754
1.1483937
1.130678
1.1159689
1.1069015
1.1018611
1.0960783
1.0883131
1.0760254
1.0563505
1.0295507
0.99884179
0.96778282
0.93599784
0.90237473
0.86751706
0.8312877
0.79263865
0.74953094
1.158618
1.1586137
1.1586036
1.1585845
1.1585525
1.1585031
1.1584316
1.1583325
1.1582001
1.1580273
1.15779
1.157123
1.1494906
1.0547832
0.98294266
0.97010443
0.96403017
0.9589225
0.95197647
0.94432761
0.93388084
0.92245739
0.91149722
0.90201611
0.89437576
0.88594662
0.87044998
0.84425162
0.80811865
0.7655333
1.0679216
0.99639152
0.94000648
0.89382477
0.85473264
0.82090735
0.79122134
0.76492484
0.74152455
0.72076774
0.7027255
0.68799811
0.67793653
0.68384505
0.68876058
0.6904519
0.68962413
0.688026
0.68706682
0.68767006
0.69028447
0.69484445
0.70100001
0.70831706
0.71611702
0.7230095
0.72643903
0.72338291
0.71420438
0.69927319
1.1565084
1.1525971
1.1473765
1.1411552
1.13416
1.1265654
1.1185201
1.1101688
1.1016823
1.0933201
1.0855608
1.0792872
1.075608
1.0734751
1.0696447
1.0643127
1.0583374
1.0522181
1.045961
1.0391519
1.0310539
1.0210035
1.0088084
0.99475719
0.97905019
0.96149037
0.94207019
0.9208684
0.88422987
0.82232993
1.1585732
1.1584429
1.1582067
1.1578476
1.1573537
1.1567172
1.1559341
1.1550059
1.1539431
1.1527771
1.1515876
1.1505342
1.1493018
1.1411089
1.1238004
1.1102441
1.1011253
1.0936541
1.0845131
1.0715554
1.0536444
1.0305665
1.0037326
0.97519033
0.94554128
0.91596893
0.88982187
0.86799604
0.84533616
0.81313014
1.158618
1.1586137
1.1586037
1.1585846
1.1585528
1.1585039
1.1584333
1.1583359
1.1582066
1.1580396
1.1578224
1.1574021
1.1542196
1.1191751
1.043601
0.99761262
0.99401098
0.99447291
0.99199409
0.97420999
0.95368598
0.93491186
0.91800865
0.90352331
0.88823985
0.87228274
0.85557806
0.83720138
0.8155208
0.79294816
1.0679233
0.99643971
0.94015157
0.89412021
0.85526088
0.82180143
0.79267407
0.76721249
0.74504952
0.72608558
0.71052651
0.69897984
0.69280606
0.7043219
0.72037006
0.73819087
0.7558129
0.7725095
0.78791847
0.80178369
0.81395849
0.82419001
0.83203349
0.83701438
0.83884429
0.83756193
0.83341869
0.82656154
0.81551755
0.79734226
1.1565087
1.1526024
1.1473983
1.1412105
1.1342751
1.1267832
1.1189102
1.1108376
1.1027855
1.0950464
1.0880722
1.0825705
1.0795169
1.0795549
1.0803622
1.0796252
1.0770963
1.0731965
1.0678667
1.0610697
1.0526812
1.0423117
1.0295248
1.014148
0.9963132
0.9763206
0.95454903
0.93177851
0.90834293
0.88275813
1.1585732
1.1584432
1.1582079
1.1578512
1.1573624
1.1567351
1.1559682
1.1550671
1.1540469
1.1529415
1.1518187
1.1508038
1.1499469
1.1473232
1.1376439
1.122115
1.1069838
1.0941983
1.0810668
1.0670376
1.0512867
1.0324438
1.0100625
0.9848847
0.9581731
0.93197366
0.90833028
0.88796412
0.8669718
0.84295542
1.158618
1.1586137
1.1586037
1.1585849
1.1585534
1.1585053
1.1584363
1.1583418
1.1582177
1.15806
1.1578632
1.1575809
1.1564749
1.1462323
1.1103957
1.0658501
1.0417178
1.0377235
1.0121841
0.9805173
0.95269661
0.93088048
0.91359342
0.89943935
0.88732709
0.87702653
0.86831658
0.86024239
0.84238988
0.8206513
1.0679157
0.99655379
0.9404064
0.89452603
0.85584149
0.82260283
0.79384274
0.76901998
0.74794585
0.7307008
0.71760221
0.70915106
0.70623163
0.71989445
0.73831843
0.75887976
0.77795386
0.79296105
0.80325106
0.80962567
0.81328482
0.81513174
0.81565898
0.81505877
0.81336126
0.81045202
0.80605999
0.79960407
0.78952523
0.77260386
1.1565088
1.1526154
1.1474348
1.1412776
1.1343822
1.1269492
1.1191796
1.111289
1.1035289
1.0962213
1.0897878
1.0847644
1.0817886
1.0816459
1.083209
1.0839346
1.0814097
1.0752735
1.066779
1.0573564
1.0476269
1.0375984
1.0270667
1.0157248
1.003266
0.98948397
0.97439755
0.95824194
0.94069807
0.91936428
1.1585732
1.1584437
1.1582098
1.1578549
1.1573681
1.156743
1.1559791
1.1550833
1.1540715
1.1529753
1.1518505
1.1506942
1.1495376
1.1480681
1.1436368
1.1330792
1.1140967
1.0892504
1.0633532
1.0405642
1.0207177
1.0017452
0.98352687
0.96618158
0.95015253
0.93442841
0.91796646
0.90108688
0.8838394
0.86591909
1.158618
1.1586137
1.1586038
1.158585
1.1585537
1.1585055
1.1584361
1.1583408
1.1582149
1.1580534
1.1578489
1.1575629
1.1569177
1.1535392
1.1399563
1.1130815
1.0780818
1.0362412
0.99533103
0.95992955
0.93236533
0.91217393
0.8965421
0.88395769
0.87328791
0.86469263
0.85786045
0.85199254
0.84621671
0.83857861
1.0678953
0.99581215
0.93848529
0.89109421
0.85057237
0.81512837
0.78378326
0.75619675
0.7322953
0.71163026
0.69396969
0.67928929
0.66798292
0.66878812
0.67290438
0.68029957
0.69012002
0.70102721
0.71171382
0.7212369
0.72908207
0.73507025
0.7392263
0.74166666
0.74252014
0.74185718
0.73962604
0.73555987
0.72895221
0.7186271
1.1565059
1.1525387
1.1471557
1.1406303
1.1331643
1.1249207
1.1160439
1.1057355
1.0918741
1.0737537
1.049083
1.0176118
0.98011962
0.94292728
0.90934871
0.88155644
0.86000495
0.84435534
0.83403613
0.82829517
0.82598019
0.82573157
0.82630402
0.82669893
0.82612537
0.82386701
0.81913018
0.81081986
0.79701139
0.77625825
1.158573
1.15844
1.1581933
1.157809
1.157267
1.1565505
1.1556463
1.1545213
1.1530899
1.1512543
1.1487294
1.1405331
1.1201118
1.086751
1.0453251
1.0015793
0.96090199
0.92590609
0.89764317
0.87619039
0.86088262
0.85053932
0.84380197
0.83939123
0.83621555
0.83335221
0.82996754
0.82513724
0.81734889
0.8044807
1.158618
1.1586136
1.158603
1.1585822
1.1585462
1.1584889
1.1584031
1.1582798
1.1581057
1.1578608
1.1574973
1.1567077
1.1542804
1.1412559
1.107651
1.0633872
1.0200265
0.98057624
0.94640782
0.9182278
0.89607374
0.87933778
0.86701362
0.85800803
0.85132602
0.84612823
0.84168717
0.83727015
0.83184206
0.82383803
)
;

boundaryField
{
    maxY
    {
        type            calculated;
        value           nonuniform List<scalar> 
300
(
1.1586174
1.1586174
1.1586174
1.1586174
1.1586174
1.1586174
1.1586174
1.1586174
1.1586174
1.1586174
1.158613
1.1586132
1.1586132
1.1586132
1.1586132
1.1586132
1.1586132
1.1586132
1.1586132
1.158613
1.1586024
1.1586033
1.1586032
1.1586031
1.1586031
1.1586031
1.1586032
1.1586032
1.1586033
1.1586024
1.1585816
1.1585845
1.1585843
1.1585841
1.158584
1.158584
1.1585841
1.1585843
1.1585845
1.1585816
1.1585454
1.158553
1.1585528
1.1585522
1.1585519
1.1585519
1.1585523
1.1585529
1.1585531
1.1585456
1.1584879
1.1585046
1.1585045
1.1585032
1.1585025
1.1585026
1.1585034
1.1585048
1.158505
1.1584884
1.1584017
1.1584348
1.1584352
1.1584324
1.1584309
1.158431
1.1584328
1.1584357
1.1584355
1.1584026
1.1582775
1.1583387
1.1583403
1.1583347
1.1583317
1.158332
1.1583354
1.1583413
1.1583402
1.1582793
1.1581019
1.1582116
1.1582153
1.1582047
1.158199
1.1581996
1.1582061
1.1582172
1.1582144
1.1581051
1.1578541
1.1580482
1.1580563
1.1580367
1.1580258
1.1580267
1.1580391
1.1580595
1.1580529
1.1578602
1.1574829
1.1578401
1.1578581
1.1578192
1.1577893
1.1577895
1.1578219
1.1578627
1.1578484
1.1574967
1.1566534
1.1575454
1.1575825
1.1574196
1.1571364
1.1571224
1.1574016
1.1575804
1.1575623
1.1567072
1.1539492
1.1568681
1.1565838
1.1544367
1.1492061
1.1494901
1.154219
1.1564744
1.1569172
1.1542799
1.1389429
1.1532782
1.1468335
1.1188627
1.0427911
1.0547828
1.1191746
1.1462317
1.1535386
1.1412554
1.1025787
1.1385395
1.1081815
1.0335683
0.97818582
0.98294228
1.0436006
1.1103953
1.1399558
1.1076506
1.0573126
1.1096322
1.0611041
0.99261963
0.96616701
0.97010406
0.99761223
1.0658497
1.113081
1.0633868
1.014113
1.0727712
1.0357375
0.98928028
0.96053139
0.9640298
0.9940106
1.0417174
1.0780814
1.0200261
0.97525059
1.0306161
1.0329096
0.99043441
0.95468841
0.95892214
0.99447252
1.0377231
1.0362408
0.98057586
0.94187128
0.99043719
1.0079776
0.99013487
0.94687356
0.95197611
0.9919937
1.0121837
0.99533064
0.94640746
0.91460193
0.95629362
0.97794303
0.97383343
0.93937739
0.94432726
0.97420961
0.98051692
0.95992919
0.91822747
0.89339242
0.93003938
0.95171071
0.95465576
0.92968351
0.9338805
0.95368562
0.95269625
0.93236499
0.89607342
0.87754518
0.91071938
0.93095053
0.93651724
0.91861656
0.92245706
0.93491152
0.93088014
0.9121736
0.87933748
0.86599966
0.89567447
0.91433317
0.91993251
0.90749587
0.9114969
0.91800832
0.91359309
0.89654178
0.86701332
0.85764375
0.88342822
0.90062921
0.90648111
0.89718648
0.90201579
0.90352299
0.89943903
0.88395739
0.85800775
0.85149004
0.8732461
0.88903518
0.89333332
0.88753826
0.89437545
0.88823954
0.88732678
0.87328761
0.85132574
0.8467232
0.86538664
0.87927712
0.87576663
0.87812557
0.88594632
0.87228245
0.87702623
0.86469233
0.84612795
0.84264497
0.85907153
0.87100691
0.85902235
0.87073215
0.87044969
0.85557777
0.86831628
0.85786016
0.84168689
0.8385577
0.85361801
0.8629713
0.84147658
0.85007207
0.84425134
0.8372011
0.8602421
0.85199226
0.83726988
0.8334652
0.84826872
0.84705945
0.82266456
0.82151334
0.80811839
0.81552054
0.84238961
0.84621642
0.83184179
0.82579196
0.8411317
0.82660602
0.80550841
0.78757122
0.76553307
0.79294791
0.82065104
0.83857834
0.82383776
)
;
    }
    minX
    {
        type            calculated;
        value           nonuniform List<scalar> 
40
(
1.1586222
1.1586212
1.1586201
1.1586191
1.1586222
1.1586212
1.1586201
1.1586191
1.1586222
1.1586212
1.1586201
1.1586191
1.1586222
1.1586212
1.1586201
1.1586191
1.1586222
1.1586212
1.1586201
1.1586191
1.1586222
1.1586212
1.1586201
1.1586191
1.1586222
1.1586212
1.1586201
1.1586191
1.1586222
1.1586212
1.1586201
1.1586191
1.1586222
1.1586212
1.1586201
1.1586191
1.1586222
1.1586212
1.1586201
1.1586191
)
;
    }
    maxX
    {
        type            calculated;
        value           nonuniform List<scalar> 
40
(
0.71956353
0.77834119
0.80667182
0.82594839
0.77240303
0.92155673
0.86938988
0.84067284
0.79795441
0.88302431
0.8460823
0.82268205
0.7077677
0.82991278
0.8233031
0.80472088
0.64992337
0.72856865
0.77937442
0.78816618
0.64255104
0.70021689
0.7499315
0.7661371
0.69940756
0.82350223
0.81311419
0.7928755
0.79827006
0.88175114
0.84148962
0.8204442
0.77293577
0.9195503
0.86585786
0.83796515
0.71878419
0.77653491
0.80462248
0.82390171
)
;
    }
    minZ
    {
        type            calculated;
        value           nonuniform List<scalar> 
120
(
1.0678196
1.1565041
1.158573
1.158618
0.99568087
1.1525329
1.1584398
1.1586136
0.93830684
1.1471437
1.1581928
1.1586029
0.8908688
1.1406088
1.1578078
1.1585821
0.85029486
1.1331294
1.1572644
1.158546
0.81479288
1.1248675
1.1565458
1.1584884
0.78338424
1.1159687
1.1556384
1.1584022
0.75573885
1.1056567
1.1545101
1.158278
0.73178571
1.0918479
1.1530772
1.1581024
0.71108264
1.0738867
1.1512433
1.1578546
0.69340651
1.0493276
1.1487156
1.1574834
0.67874174
1.0175664
1.140524
1.1566539
0.66749244
0.9794933
1.1193274
1.1539497
0.66846519
0.94172904
1.0847789
1.1389434
0.67279729
0.90780905
1.0423246
1.1025791
0.68042483
0.87990946
0.99785161
1.0573131
0.69044235
0.8584102
0.95699207
1.0141134
0.70149067
0.8429644
0.92221983
0.97525097
0.71228389
0.83301431
0.89447143
0.94187163
0.72191462
0.82776642
0.87372253
0.91460226
0.72988615
0.82598219
0.85919468
0.89339273
0.73600771
0.82622101
0.84960752
0.87754548
0.74026498
0.82717189
0.84353235
0.86599995
0.7427307
0.82780866
0.83965427
0.85764403
0.74351668
0.82737082
0.83688423
0.85149032
0.74271792
0.82520596
0.8343324
0.84672348
0.74033351
0.82056974
0.83120854
0.84264525
0.73615079
0.81240157
0.82662787
0.83855797
0.72951225
0.79877282
0.81910563
0.83346548
0.71933791
0.77791194
0.80641111
0.82579223
)
;
    }
    maxZ
    {
        type            calculated;
        value           nonuniform List<scalar> 
120
(
1.0678953
1.1565059
1.158573
1.158618
0.99581215
1.1525387
1.15844
1.1586136
0.93848529
1.1471557
1.1581933
1.158603
0.89109421
1.1406303
1.157809
1.1585822
0.85057237
1.1331643
1.157267
1.1585462
0.81512837
1.1249207
1.1565505
1.1584889
0.78378326
1.1160439
1.1556463
1.1584031
0.75619675
1.1057355
1.1545213
1.1582798
0.7322953
1.0918741
1.1530899
1.1581057
0.71163026
1.0737537
1.1512543
1.1578608
0.69396969
1.049083
1.1487294
1.1574973
0.67928929
1.0176118
1.1405331
1.1567077
0.66798292
0.98011962
1.1201118
1.1542804
0.66878812
0.94292728
1.086751
1.1412559
0.67290438
0.90934871
1.0453251
1.107651
0.68029957
0.88155644
1.0015793
1.0633872
0.69012002
0.86000495
0.96090199
1.0200265
0.70102721
0.84435534
0.92590609
0.98057624
0.71171382
0.83403613
0.89764317
0.94640782
0.7212369
0.82829517
0.87619039
0.9182278
0.72908207
0.82598019
0.86088262
0.89607374
0.73507025
0.82573157
0.85053932
0.87933778
0.7392263
0.82630402
0.84380197
0.86701362
0.74166666
0.82669893
0.83939123
0.85800803
0.74252014
0.82612537
0.83621555
0.85132602
0.74185718
0.82386701
0.83335221
0.84612823
0.73962604
0.81913018
0.82996754
0.84168717
0.73555987
0.81081986
0.82513724
0.83727015
0.72895221
0.79701139
0.81734889
0.83184206
0.7186271
0.77625825
0.8044807
0.82383803
)
;
    }
    topAir_to_rightSolid
    {
        type            calculated;
        value           nonuniform List<scalar> 
130
(
0.46351096
0.45864423
0.45367879
0.44886354
0.44436538
0.44027263
0.43665222
0.43354361
0.43096511
0.42891499
0.42738479
0.42636911
0.42586227
0.46719523
0.46142532
0.45569245
0.45027561
0.44532376
0.44091402
0.43708165
0.43383255
0.43116017
0.42904591
0.42747498
0.42643545
0.42591765
0.47467249
0.46678362
0.45938278
0.45275088
0.44695463
0.44198085
0.437779
0.4342897
0.43145719
0.42923546
0.42759833
0.42651971
0.42598403
0.48624371
0.47419324
0.46403091
0.45564986
0.44876518
0.44311125
0.43848368
0.43472703
0.43172532
0.42939463
0.42768721
0.42656717
0.42601179
0.50067097
0.48146414
0.46794693
0.45786488
0.45006118
0.44388689
0.43895412
0.43501047
0.431891
0.4294868
0.4277348
0.42659041
0.42602315
0.50069923
0.4814998
0.46798122
0.45788992
0.45008214
0.44390598
0.43896872
0.43501834
0.4318895
0.42948729
0.42773895
0.42659659
0.42602999
0.4862652
0.47423005
0.46406045
0.45566836
0.44877803
0.44312368
0.43849564
0.43473446
0.43172777
0.42940007
0.42769541
0.42657786
0.42602274
0.47462175
0.46676753
0.45937213
0.45273004
0.44693792
0.44197207
0.43777827
0.43429254
0.43146209
0.42924343
0.42760653
0.42652782
0.42599066
0.4670889
0.46138287
0.45566682
0.45024164
0.44528811
0.44089032
0.4370722
0.43383575
0.43116552
0.42904883
0.42747463
0.42643117
0.4259099
0.46340079
0.45859582
0.45366618
0.44884956
0.44433769
0.44024876
0.4366433
0.43354805
0.43096956
0.42891309
0.42737688
0.42635538
0.42584415
)
;
    }
    topAir_to_heater
    {
        type            calculated;
        value           nonuniform List<scalar> 
40
(
0.47566193
0.47429384
0.47165456
0.46796016
0.48188533
0.48024894
0.47706401
0.47257723
0.49535744
0.49316485
0.48874973
0.48237244
0.51898658
0.51597002
0.50950136
0.49938536
0.55783166
0.55461503
0.54638121
0.53049315
0.55775747
0.55454822
0.54634943
0.53049778
0.51873353
0.51572052
0.50936973
0.49935428
0.49503355
0.4928503
0.48851792
0.48225034
0.48149574
0.47990632
0.47678916
0.47238467
0.47532362
0.47399377
0.47141499
0.46778761
)
;
    }
    topAir_to_leftSolid
    {
        type            calculated;
        value           nonuniform List<scalar> 
130
(
0.37476348
0.37476892
0.37478506
0.37481315
0.37485327
0.37490601
0.37497752
0.37506713
0.37517158
0.37528748
0.37541128
0.37554126
0.37565484
0.3747913
0.37479534
0.37481107
0.3748386
0.37487777
0.3749306
0.3750043
0.37510011
0.3752115
0.37533161
0.3754546
0.37557339
0.37568046
0.37482974
0.37483573
0.37485297
0.37488156
0.37491985
0.37497128
0.37504907
0.37515874
0.37528317
0.3754139
0.37554369
0.37565907
0.37574323
0.3748705
0.37487875
0.37489929
0.37493306
0.37497838
0.37503857
0.37512677
0.37524666
0.37538727
0.37554062
0.37569516
0.37583246
0.37593641
0.37491465
0.37492443
0.37494956
0.37499078
0.37504759
0.37512015
0.37522185
0.37535479
0.37550992
0.37569095
0.3758625
0.37602263
0.37612487
0.37495291
0.37496516
0.37499605
0.37504729
0.37511811
0.37520431
0.37531846
0.37546016
0.37562221
0.37579209
0.37595325
0.37610966
0.37620102
0.37497654
0.37499179
0.37502905
0.37509036
0.37517517
0.37527768
0.37540144
0.37554192
0.37568965
0.37583472
0.37597379
0.37610523
0.37617865
0.37498523
0.37500375
0.37504555
0.37511175
0.37520035
0.3753059
0.37542839
0.37555972
0.37569497
0.3758245
0.37594449
0.37605353
0.37611466
0.37499672
0.37501287
0.37505189
0.37511649
0.37520496
0.37530698
0.37541875
0.37553454
0.37565408
0.37577117
0.37588286
0.37598413
0.37604864
0.37499996
0.37501593
0.37505475
0.37511805
0.37520534
0.37530237
0.37540764
0.37551601
0.37563082
0.37573955
0.37584194
0.3759358
0.37600424
)
;
    }
}


// ************************************************************************* //
