/*--------------------------------*- C++ -*----------------------------------*\
| =========                 |                                                 |
| \\      /  F ield         | OpenFOAM: The Open Source CFD Toolbox           |
|  \\    /   O peration     | Version:  v2012                                 |
|   \\  /    A nd           | Website:  www.openfoam.com                      |
|    \\/     M anipulation  |                                                 |
\*---------------------------------------------------------------------------*/
FoamFile
{
    version     2.0;
    format      ascii;
    class       volScalarField;
    location    "730/topAir";
    object      T;
}
// * * * * * * * * * * * * * * * * * * * * * * * * * * * * * * * * * * * * * //

dimensions      [0 0 0 1 0 0 0];


internalField   nonuniform List<scalar> 
1200
(
325.51067
349.09443
370.44027
390.1659
408.78363
426.59506
443.69875
459.92951
474.98412
488.81321
501.27389
512.10431
520.73483
519.97704
516.62892
510.83752
503.42585
495.497
487.98874
481.4787
476.22018
472.25933
469.54336
467.98456
467.48985
467.9926
469.49987
472.16751
476.46421
483.20335
300.54918
301.58475
303.00159
304.73758
306.74905
309.00204
311.46605
314.37096
318.34685
323.67134
331.24674
341.58589
354.8634
369.09377
382.88483
395.02507
404.91864
412.33804
417.26328
419.90865
420.8157
420.69406
420.21045
419.88721
420.10941
421.21152
423.59137
427.8503
435.15033
446.81954
300.0122
300.04669
300.1107
300.2105
300.35144
300.53807
300.77406
301.068
301.44213
301.92231
302.58667
304.75995
310.53117
320.42108
333.47196
348.33438
363.20679
376.90148
388.59376
397.82197
404.54862
409.11363
412.0601
413.96326
415.33346
416.60376
418.16945
420.4867
424.34822
431.02831
300.00029
300.00143
300.00418
300.00958
300.01893
300.03383
300.05617
300.08834
300.13385
300.19806
300.29435
300.50971
301.21392
305.18262
315.24788
328.74439
342.74839
356.40647
369.03731
380.04037
389.0627
396.08863
401.3693
405.27979
408.20875
410.50687
412.49364
414.5042
417.03683
420.91192
325.50136
348.82809
369.67311
388.65409
406.24573
422.68975
438.04087
452.21934
464.9947
475.9918
484.67538
490.40268
492.33308
482.78702
470.56342
457.74281
446.58442
438.24325
432.67847
429.21522
427.15297
426.04329
425.69302
426.0589
427.12954
428.91305
431.48678
435.14176
440.79368
450.25805
300.54837
301.56445
302.92738
304.56377
306.41808
308.44321
310.58994
312.8015
315.0057
317.10804
318.97732
320.44544
321.31055
321.33128
320.86678
320.7004
321.54749
323.46972
326.0862
328.99684
332.05251
335.27167
338.73594
342.5414
346.77592
351.52098
356.81285
362.60334
369.02876
377.32312
300.01216
300.04572
300.1064
300.19852
300.32508
300.48785
300.68715
300.9214
301.18655
301.47426
301.76989
302.07398
302.37442
302.77611
304.03532
307.04117
312.5465
319.84235
327.59416
334.5425
340.83076
346.98081
353.06052
359.10234
365.00508
371.13938
377.72311
384.61914
391.8856
399.68784
300.00029
300.00139
300.00395
300.00883
300.01698
300.02951
300.04759
300.07247
300.1054
300.14776
300.20171
300.27814
300.45393
301.38917
305.29073
313.24395
324.00717
337.25998
350.94158
363.47163
373.73215
381.66051
388.07138
393.45091
398.03859
401.65359
404.60619
407.19111
409.75891
413.23573
325.49421
348.8592
369.76117
388.81572
406.5055
423.08639
438.66513
453.25988
466.7815
479.00411
489.50668
497.57703
501.93299
493.37874
481.84456
469.67461
458.35702
448.22949
439.31692
431.63881
425.22113
420.17429
416.6782
414.84366
414.61015
415.76785
418.07915
421.48067
426.80873
436.16185
300.54831
301.56755
302.93645
304.58073
306.44556
308.4866
310.66178
312.92498
315.21604
317.44809
319.48427
321.10396
321.99287
321.90389
321.58386
321.80574
322.63031
323.89538
325.61449
327.81667
330.58014
334.07457
338.46998
343.81084
350.01793
357.06208
365.00671
373.64087
382.75751
393.31129
300.01216
300.04586
300.10687
300.19943
300.32644
300.48967
300.68956
300.9249
301.19193
301.48207
301.77741
302.04467
302.2628
302.90954
305.65435
310.23803
314.73438
318.53579
322.51512
326.92552
332.15083
338.70844
346.74364
355.82401
365.21294
374.32499
383.03221
391.00493
399.6053
409.97006
300.00029
300.00139
300.00398
300.00887
300.01703
300.02952
300.04748
300.07207
300.10444
300.14566
300.19704
300.26849
300.52778
303.08285
313.65402
327.56972
335.59236
336.51115
344.83464
355.4252
365.22192
373.36637
380.15205
385.93644
390.9695
395.30842
399.06189
402.77779
410.34391
420.49745
325.48989
348.86611
369.80252
388.92151
406.72507
423.50428
439.41774
454.54889
468.91392
482.4332
494.8241
505.40418
512.82516
508.00326
503.94915
502.30422
502.47383
503.09908
502.99907
501.41068
498.10668
493.45493
488.12131
482.63666
477.3399
472.93187
470.93842
473.28626
480.51316
491.26677
300.54826
301.56863
302.94153
304.59424
306.47457
308.54295
310.76523
313.1067
315.52309
317.94087
320.21762
322.0806
323.16209
323.71086
324.8536
326.49032
328.34141
330.2247
332.10201
334.13274
336.61496
339.87851
344.13825
349.38489
355.55717
362.82697
370.68073
379.07126
392.36158
419.80603
300.01216
300.04592
300.10716
300.20031
300.32855
300.49405
300.69799
300.94023
301.21826
301.52422
301.83748
302.11504
302.42284
304.62006
309.78192
313.82252
316.58038
318.84568
321.71655
325.97662
332.15796
340.60542
351.07109
362.41913
373.70386
385.10421
394.18085
401.48571
409.50252
422.37005
300.00029
300.0014
300.00399
300.00892
300.01718
300.02987
300.04821
300.07352
300.10719
300.15073
300.20712
300.31076
301.08673
310.65972
336.29667
350.16998
351.35198
350.94256
351.04874
356.92511
364.09524
371.14707
377.83819
383.44499
389.08842
396.89302
404.62937
413.06637
422.51206
431.51097
325.48471
348.86087
369.80273
388.93182
406.75073
423.55216
439.49507
454.66039
469.05315
482.53747
494.69732
504.5993
510.9691
505.65826
503.24675
503.99141
505.97448
509.03913
512.65724
516.39553
519.84545
522.64631
524.53685
525.38866
525.24806
524.44197
523.73686
524.28818
527.48885
534.95031
300.54816
301.56886
302.94314
304.59872
306.4838
308.55938
310.79182
313.14619
315.57423
317.988
320.2033
321.87183
322.71974
324.00732
325.83289
327.94168
331.42647
336.43736
342.37903
348.81253
355.39164
362.66696
371.5888
382.1655
394.23238
407.3881
421.47846
436.806
454.63519
477.65957
300.01216
300.04594
300.10728
300.2007
300.32946
300.49588
300.7013
300.9457
301.22627
301.53338
301.83985
302.09792
302.68088
307.86535
311.95407
314.44514
315.99578
317.74022
319.91882
323.37582
329.54644
339.12327
351.4515
364.20427
374.66287
383.46736
393.65
406.46715
423.45796
446.56206
300.00029
300.0014
300.004
300.00895
300.01726
300.03005
300.0486
300.07429
300.10866
300.15357
300.21486
300.38428
302.45711
333.32235
355.33698
359.75726
361.86803
364.08277
367.08767
370.01701
373.87522
378.37945
383.01622
387.41739
391.62892
395.82683
399.18782
408.88966
423.10415
441.33878
325.48092
348.85321
369.79066
388.91409
406.72542
423.51764
439.45014
454.60414
468.98382
482.46007
494.62279
504.54909
511.00061
505.69984
503.26985
504.01922
506.15119
509.38453
513.22476
517.28729
521.21087
524.65039
527.30524
528.96591
529.59383
529.44463
529.20443
530.02064
533.38117
541.04951
300.54808
301.56861
302.94261
304.59774
306.48215
308.55679
310.78794
313.14063
315.56683
317.97911
320.19519
321.87299
322.75315
323.9995
325.80068
327.91179
331.39961
336.64713
343.20573
351.06413
360.43202
371.61184
384.65152
399.16342
414.44631
429.83529
445.04399
460.34286
476.70169
496.59868
300.01216
300.04593
300.10726
300.20065
300.32936
300.49569
300.70095
300.9451
301.22531
301.53188
301.83784
302.09758
302.67149
307.41381
311.46568
314.01712
315.45356
317.11787
319.38053
323.0277
329.04422
337.60942
347.98906
359.15704
371.35344
385.19033
400.66765
418.12965
438.51766
463.73811
300.00029
300.0014
300.004
300.00895
300.01725
300.03003
300.04856
300.07422
300.10852
300.15332
300.21483
300.38789
302.38239
329.53286
353.6175
358.29723
360.55482
362.47531
365.12009
368.07749
372.19497
376.80413
381.33496
385.34319
388.63505
392.33264
399.31736
411.70878
430.11732
454.04407
325.47958
348.84545
369.77047
388.87559
406.66123
423.4176
439.30389
454.40622
468.74591
482.24494
494.62641
505.21444
512.71256
508.28265
504.65513
503.41893
504.02318
505.19391
505.89917
505.45538
503.54099
500.23645
495.84381
490.72164
485.37668
480.74955
478.47992
480.50138
486.67649
497.06823
300.54805
301.56796
302.9401
304.59166
306.47031
308.53633
310.75556
313.09323
315.50506
317.91818
320.19058
322.05177
323.15336
323.79543
324.95493
326.58288
328.42675
330.33673
332.31288
334.49036
337.11748
340.43592
344.55132
349.41821
355.02396
361.5078
368.96004
377.45486
393.0949
422.68466
300.01216
300.0459
300.1071
300.20018
300.32827
300.49353
300.6971
300.93876
301.21592
301.5206
301.83203
302.1084
302.43235
304.60373
309.29515
313.0717
315.66435
317.8208
320.49961
324.37521
329.88931
337.27666
346.29344
356.4289
367.60533
379.47358
390.62426
400.44654
411.18082
427.46665
300.00029
300.00139
300.00399
300.00892
300.01716
300.02982
300.04812
300.07333
300.10684
300.15011
300.20643
300.31544
301.1435
310.57315
333.06382
348.41753
349.67996
349.51754
350.39093
356.78728
364.46561
371.78451
378.63015
384.70038
391.31972
398.47834
406.25841
415.17585
426.21329
438.34622
325.47903
348.82858
369.7134
388.74709
406.41006
422.95694
438.49878
453.05128
466.52818
478.71298
489.1958
497.27698
501.70833
493.50527
482.51113
470.86272
459.88439
449.9447
441.14532
433.5166
427.03226
421.73107
417.75546
415.26948
414.36357
414.99798
417.06108
420.52101
426.21582
435.93133
300.54799
301.56656
302.93434
304.5769
306.4392
308.47668
310.64724
312.90473
315.18943
317.41701
319.45154
321.07502
321.98323
321.97188
321.73128
321.95091
322.7068
323.87946
325.49595
327.58102
330.19139
333.47632
337.61816
342.73724
348.87249
356.01652
364.13662
373.03527
382.65971
393.75023
300.01215
300.04583
300.10678
300.19922
300.32603
300.48889
300.68823
300.9228
301.18883
301.4776
301.77148
302.03762
302.26267
302.95389
305.53149
309.75971
313.99376
317.66272
321.52132
325.74859
330.62913
336.66338
344.12326
352.92051
362.7591
372.9569
382.66478
391.4415
400.91963
412.3421
300.00029
300.00139
300.00397
300.00886
300.017
300.02946
300.04734
300.0718
300.10395
300.14483
300.19583
300.26904
300.55622
303.24197
313.02869
326.11125
333.6659
334.95021
343.40169
354.4922
364.8441
373.3946
380.46
386.44713
391.72225
396.32298
400.29845
404.05564
412.61867
423.54872
325.48137
348.78865
369.61322
388.57073
406.13435
422.54489
437.85323
451.98644
464.72161
475.68935
484.37223
490.14463
492.17078
482.82991
470.78137
458.02587
446.79585
438.34
432.72466
429.31758
427.38598
426.41761
426.14197
426.45577
427.34579
428.8798
431.21666
434.69825
440.24746
449.88964
300.54795
301.56318
302.92472
304.559
306.41027
308.43124
310.57245
312.77764
314.97712
317.07681
318.94866
320.42565
321.30706
321.34946
320.88574
320.67092
321.41961
323.25384
325.82783
328.73143
331.7844
334.99116
338.4262
342.20517
346.45474
351.28033
356.71913
362.73328
369.49819
378.07235
300.01215
300.04568
300.10629
300.19826
300.32453
300.48684
300.6854
300.91859
301.1824
301.46877
301.76316
302.06639
302.37029
302.75733
303.93044
306.76234
311.98909
319.10569
326.87728
334.03609
340.53097
346.98046
353.40772
359.75224
365.82126
371.97712
378.64781
385.74082
393.26827
401.407
300.00029
300.00139
300.00395
300.00881
300.01694
300.02941
300.04739
300.07208
300.10469
300.14654
300.19955
300.27373
300.44117
301.32112
304.91143
312.27338
322.41126
335.42937
349.21621
362.09504
372.79994
381.05205
387.69596
393.21538
398.01967
401.9761
405.17752
407.9681
410.75268
414.49397
325.48757
349.04841
370.36983
390.06721
408.65027
426.41948
443.47287
459.65101
474.65359
488.43705
500.86709
511.69152
520.35246
519.72596
516.54671
510.93158
503.66098
495.82458
488.37961
481.93113
476.74538
472.86162
470.20311
468.65596
468.11727
468.53559
469.94896
472.54683
476.83027
483.68129
300.5487
301.58324
302.9984
304.73183
306.73958
308.98743
311.44506
314.34854
318.3392
323.71143
331.32395
341.57067
354.63664
368.62474
382.23655
394.28707
404.16778
411.65878
416.75207
419.6406
420.81672
420.94342
420.6518
420.45085
420.74275
421.89608
424.3358
428.68493
436.11203
447.77142
300.01219
300.04664
300.11057
300.21018
300.35079
300.53686
300.772
301.06508
301.43879
301.91941
302.58303
304.75752
310.31371
319.83964
332.51475
347.03796
361.7289
375.40094
387.2207
396.70147
403.75541
408.66543
411.92843
414.09299
415.66558
417.09377
418.79472
421.24631
425.26029
432.0626
300.00029
300.00143
300.00417
300.00956
300.01888
300.03372
300.05592
300.08787
300.133
300.19648
300.29075
300.49573
301.12762
304.56424
313.80436
326.86657
340.76147
354.47091
367.26849
378.53981
387.89864
395.28131
400.90004
405.10786
408.28753
410.79566
412.96317
415.14176
417.85072
421.91036
)
;

boundaryField
{
    maxY
    {
        type            zeroGradient;
    }
    minX
    {
        type            fixedValue;
        value           uniform 300;
    }
    maxX
    {
        type            inletOutlet;
        inletValue      uniform 300;
        value           nonuniform List<scalar> 
40
(
483.05186
446.57313
430.88901
420.83232
450.00662
377.17284
399.80447
413.46139
435.5969
393.63151
410.81817
422.50319
491.10253
418.8226
422.18474
431.93338
534.81156
477.08105
445.98083
441.00576
540.94774
496.39808
463.49044
453.68623
496.97276
422.08293
427.47503
438.38638
435.42466
394.19988
413.06034
423.65561
449.69646
377.99582
401.43537
414.7974
483.57561
447.6119
431.98647
421.87773
)
;
    }
    minZ
    {
        type            zeroGradient;
    }
    maxZ
    {
        type            zeroGradient;
    }
    topAir_to_rightSolid
    {
        type            compressible::turbulentTemperatureCoupledBaffleMixed;
        refValue        nonuniform List<scalar> 
130
(
749.98123
757.94348
766.24284
774.46617
782.30865
789.58323
796.13165
801.84132
806.63953
810.49532
813.39689
815.33351
816.30191
744.08416
753.39213
762.87309
772.05279
780.63964
788.44857
795.36284
801.32022
806.28717
810.26025
813.23723
815.21821
816.20636
732.35758
744.74009
756.74287
767.83174
777.79262
786.54804
794.0993
800.48063
805.73626
809.90672
813.007
815.06164
816.08378
714.90845
733.08024
749.13883
762.92221
774.63044
784.51816
792.80105
799.655
805.21736
809.58945
812.82139
814.9536
816.01275
694.30118
722.00397
742.86347
759.22363
772.38994
783.13528
791.93742
799.11839
804.89175
809.39857
812.71439
814.89406
815.97695
694.26186
721.95028
742.80871
759.18164
772.35329
783.10068
791.90989
799.10251
804.89291
809.39586
812.70463
814.88033
815.96189
714.87615
733.02237
749.08979
762.88945
774.60604
784.49363
792.77678
799.6387
805.21024
809.57671
812.8034
814.93118
815.9899
732.43532
744.76516
756.7598
767.8665
777.82119
786.56332
794.10047
800.47545
805.72735
809.89199
812.99168
815.04629
816.07114
744.25355
753.46143
762.91596
772.11098
780.70203
788.49081
795.37989
801.31423
806.27717
810.2548
813.238
815.22653
816.22132
750.15947
758.02337
766.264
774.49013
782.35722
789.62582
796.14768
801.8329
806.63103
810.49876
813.41181
815.35964
816.33649
)
;
        refGradient     uniform 0;
        valueFraction   uniform 0.99967867;
        value           nonuniform List<scalar> 
130
(
749.89946
757.85673
766.15134
774.37034
782.20902
789.48039
796.0262
801.73388
806.5307
810.38573
813.28721
815.22458
816.19483
743.98588
753.28908
762.76587
771.94197
780.5257
788.332
795.24416
801.19996
806.16587
810.13848
813.11565
815.09778
816.08869
732.26628
744.64194
756.6384
767.72165
777.6777
786.42918
793.97742
800.35661
805.61091
809.78076
812.8811
814.93676
815.96152
714.84038
733.0063
749.05921
762.83711
774.54007
784.4229
792.70136
799.55139
805.11051
809.48052
812.71212
814.84606
815.90835
694.24164
721.93669
742.79069
759.14671
772.30968
783.05218
791.85176
799.03038
804.80161
809.30675
812.62168
814.80167
815.88661
694.20246
721.88322
742.73625
759.10519
772.2737
783.0185
791.82541
799.01592
804.80441
809.30584
812.6138
814.78987
815.87352
714.80879
732.9494
749.01152
762.80613
774.5179
784.40089
792.67973
799.53771
805.10595
809.47027
812.69655
814.82564
815.88739
732.34455
744.6676
756.65593
767.75699
777.70677
786.44481
793.97873
800.35137
805.60178
809.76573
812.86552
814.92127
815.94883
744.15525
753.35837
762.80877
772.00021
780.58819
788.37437
795.26134
801.19405
806.15588
810.13297
813.11631
815.10597
816.10355
750.07774
757.93673
766.17264
774.39446
782.25777
789.52318
796.04245
801.72566
806.52238
810.38931
813.30226
815.25083
816.22956
)
;
        Tnbr            T;
        thicknessLayers List<scalar> 0();
        kappaLayers     List<scalar> 0();
        kappaMethod     fluidThermo;
        kappa           none;
        alphaAni        none;
        alpha           none;
        field           T;
    }
    topAir_to_heater
    {
        type            compressible::turbulentTemperatureCoupledBaffleMixed;
        refValue        nonuniform List<scalar> 
40
(
730.81077
732.92033
737.02438
742.84662
721.38243
723.84491
728.6825
735.60579
701.75556
704.87993
711.25278
720.66165
669.79312
673.71125
682.26729
696.09112
623.14089
626.75667
636.20392
655.26218
623.2238
626.83218
636.2409
655.25638
670.11986
674.03702
682.44328
696.13395
702.21476
705.32969
711.58997
720.84365
721.96623
724.36173
729.10255
735.90563
731.33113
733.38445
737.39898
743.12061
)
;
        refGradient     uniform 0;
        valueFraction   uniform 0.99967867;
        value           nonuniform List<scalar> 
40
(
730.74303
732.85083
736.9517
742.76969
721.30576
723.76352
728.59544
735.51292
701.6886
704.80827
711.17515
720.57736
669.74114
673.6567
682.20946
696.0289
623.10314
626.71698
636.16142
655.2142
623.18603
626.79248
636.19843
655.20848
670.06786
673.98259
682.38576
696.07223
702.1477
705.25809
711.51262
720.7598
721.88939
724.28025
729.01545
735.81274
731.26313
733.31477
737.32621
743.04367
)
;
        Tnbr            T;
        thicknessLayers List<scalar> 0();
        kappaLayers     List<scalar> 0();
        kappaMethod     fluidThermo;
        kappa           none;
        alphaAni        none;
        alpha           none;
        field           T;
    }
    topAir_to_leftSolid
    {
        type            compressible::turbulentTemperatureCoupledBaffleMixed;
        refValue        nonuniform List<scalar> 
130
(
927.67661
927.65553
927.60865
927.53275
927.42744
927.2912
927.10881
926.88202
926.61908
926.32839
926.01881
925.69474
925.41199
927.60773
927.59021
927.54451
927.47025
927.36765
927.23164
927.04441
926.803
926.5237
926.22358
925.91733
925.62255
925.35807
927.51262
927.49023
927.4408
927.3639
927.26345
927.13091
926.93354
926.65781
926.34615
926.01956
925.69607
925.40909
925.20037
927.41176
927.38376
927.32618
927.23647
927.11863
926.9644
926.74128
926.44024
926.08854
925.70594
925.32108
924.97957
924.72134
927.30252
927.27078
927.20184
927.09373
926.94751
926.76276
926.50638
926.17328
925.78596
925.33544
924.90908
924.51193
924.25853
927.2079
927.17005
927.08688
926.95402
926.77324
926.55485
926.26786
925.91334
925.50917
925.08637
924.68582
924.298
924.07139
927.14946
927.1042
927.00529
926.84758
926.63228
926.37371
926.06314
925.71178
925.34308
924.9815
924.63528
924.30868
924.12582
927.12797
927.07463
926.96452
926.79477
926.57016
926.30419
925.99691
925.66835
925.33069
925.00778
924.70911
924.43833
924.28661
927.09956
927.05209
926.94889
926.78311
926.55887
926.30166
926.02089
925.73077
925.43201
925.14004
924.8623
924.61128
924.45196
927.09155
927.04443
926.94158
926.77877
926.55713
926.31179
926.04649
925.77396
925.48611
925.2138
924.95767
924.72319
924.55203
)
;
        refGradient     uniform 0;
        valueFraction   uniform 0.99967867;
        value           nonuniform List<scalar> 
130
(
927.48311
927.46962
927.42962
927.36008
927.26079
927.13031
926.95348
926.73197
926.47396
926.1878
925.88233
925.56184
925.28196
927.41426
927.40424
927.36525
927.29711
927.2002
927.06952
926.88728
926.6505
926.3754
926.07891
925.77555
925.4827
925.21893
927.31917
927.3043
927.2616
927.19085
927.09612
926.96895
926.77665
926.50569
926.19848
925.87592
925.55591
925.27162
925.06437
927.21834
927.19787
927.14703
927.06349
926.95142
926.80263
926.58469
926.28861
925.94164
925.56351
925.18275
924.84475
924.58899
927.10914
927.08492
927.02274
926.9208
926.78035
926.60107
926.34989
926.02177
925.6392
925.19316
924.77084
924.37701
924.12574
927.01455
926.98422
926.9078
926.78114
926.60614
926.39321
926.11143
925.7619
925.36247
924.94414
924.54763
924.16312
923.93866
926.95613
926.91839
926.82623
926.67471
926.4652
926.21209
925.90673
925.56034
925.19637
924.83924
924.4971
924.17401
923.99362
926.93464
926.88882
926.78546
926.62188
926.40302
926.14245
925.84027
925.51649
925.18327
924.86438
924.56917
924.30107
924.15083
926.90624
926.86628
926.7698
926.61017
926.39164
926.13979
925.86403
925.57854
925.28397
924.99562
924.72076
924.47168
924.31306
926.89824
926.85871
926.76274
926.60631
926.39071
926.15116
925.89143
925.62419
925.34125
925.07345
924.8214
924.59047
924.42215
)
;
        Tnbr            T;
        thicknessLayers List<scalar> 0();
        kappaLayers     List<scalar> 0();
        kappaMethod     fluidThermo;
        kappa           none;
        alphaAni        none;
        alpha           none;
        field           T;
    }
}


// ************************************************************************* //
