/*--------------------------------*- C++ -*----------------------------------*\
| =========                 |                                                 |
| \\      /  F ield         | OpenFOAM: The Open Source CFD Toolbox           |
|  \\    /   O peration     | Version:  v2012                                 |
|   \\  /    A nd           | Website:  www.openfoam.com                      |
|    \\/     M anipulation  |                                                 |
\*---------------------------------------------------------------------------*/
FoamFile
{
    version     2.0;
    format      ascii;
    class       volVectorField;
    location    "730/topAir";
    object      U;
}
// * * * * * * * * * * * * * * * * * * * * * * * * * * * * * * * * * * * * * //

dimensions      [0 1 -1 0 0 0 0];


internalField   nonuniform List<vector> 
1200
(
(0.10471882 -0.0024860052 0.00088067502)
(0.1186722 -0.0025555014 0.0013227695)
(0.13064502 -0.0023232593 0.0014029663)
(0.13998789 -0.0017501451 0.0012611736)
(0.14814635 -0.00090084866 0.00091068097)
(0.15577221 4.8747231e-05 0.00030948376)
(0.16313291 0.00099247655 -0.00057673447)
(0.17048745 0.0018671978 -0.0019081116)
(0.1780402 0.0027738831 -0.003958748)
(0.1861176 0.0038976372 -0.0070569555)
(0.19489282 0.0055814993 -0.011624601)
(0.20401495 0.0082210296 -0.0180894)
(0.21187332 0.012232293 -0.026705108)
(0.21680877 0.016960484 -0.037251964)
(0.2189082 0.022230137 -0.048839519)
(0.21882115 0.027298468 -0.060191081)
(0.21678293 0.031571618 -0.07012607)
(0.21302264 0.034755951 -0.077973693)
(0.20811632 0.036740776 -0.083597705)
(0.20296169 0.037540687 -0.087197251)
(0.19847284 0.037341353 -0.089101005)
(0.19525662 0.036440995 -0.089642247)
(0.19350072 0.035128391 -0.089100765)
(0.19305747 0.033629213 -0.087695907)
(0.19356689 0.032116619 -0.085574284)
(0.19446416 0.030809104 -0.082739069)
(0.19474423 0.030088742 -0.078960385)
(0.19250176 0.030730758 -0.073696455)
(0.18432593 0.034580276 -0.066045028)
(0.144104 0.047478686 -0.054170347)
(0.098686394 -0.0039308748 0.00085271633)
(0.098457565 -0.0047415105 0.001288726)
(0.098895027 -0.0047807777 0.0014734415)
(0.099801795 -0.0042996732 0.0015578252)
(0.10125502 -0.0034917375 0.0015681785)
(0.10328537 -0.0026109654 0.0014885978)
(0.10587355 -0.0018293159 0.0012923252)
(0.10919507 -0.0011961881 0.00091883697)
(0.11374373 -0.00039415751 0.00023932169)
(0.12004156 0.00095554721 -0.00092455166)
(0.12909682 0.003720314 -0.0028967947)
(0.14123756 0.0089869156 -0.0060741966)
(0.15611306 0.017618986 -0.010976142)
(0.17175565 0.028452468 -0.017661965)
(0.1860039 0.040836341 -0.025597121)
(0.19711655 0.053387421 -0.033775951)
(0.20402618 0.065018741 -0.041284344)
(0.20654712 0.074800078 -0.04767297)
(0.20546831 0.081964674 -0.052822227)
(0.20227124 0.086134027 -0.056733523)
(0.19851437 0.087593312 -0.059424217)
(0.19524423 0.087073106 -0.060914251)
(0.19288922 0.085325485 -0.061285324)
(0.1914745 0.082904623 -0.060672576)
(0.19083978 0.080129879 -0.059175883)
(0.19066999 0.077337861 -0.056708473)
(0.19028959 0.075211511 -0.05285505)
(0.18839862 0.075202165 -0.046750304)
(0.18369169 0.080416556 -0.03653902)
(0.15716769 0.095771426 -0.01780582)
(0.09881151 -0.002932421 0.0008798982)
(0.097938772 -0.0042427213 0.0013370815)
(0.096271202 -0.0046520128 0.0015434351)
(0.094184169 -0.0047429005 0.0016693301)
(0.092144389 -0.0047072682 0.0017669157)
(0.090332007 -0.0046341094 0.0018480155)
(0.088731571 -0.0046309472 0.001930323)
(0.087277675 -0.0047353013 0.0020561905)
(0.086030039 -0.0047862606 0.0022922736)
(0.085316366 -0.0046948803 0.0026716921)
(0.085694645 -0.0042005278 0.0031224299)
(0.089360526 -0.0017015839 0.0032049201)
(0.099850054 0.0059971644 0.0022075593)
(0.11609743 0.019799606 1.0620283e-05)
(0.13496697 0.037506502 -0.0030798854)
(0.15296707 0.056164764 -0.0061598689)
(0.16728516 0.072945247 -0.0087065407)
(0.17681083 0.086759086 -0.010653175)
(0.18201713 0.097087246 -0.012295486)
(0.18435446 0.1037642 -0.013907968)
(0.1853505 0.10698617 -0.015579862)
(0.1858914 0.10728836 -0.01697851)
(0.18621306 0.10539176 -0.017751212)
(0.18621497 0.1019676 -0.017825297)
(0.18575134 0.097518049 -0.017264121)
(0.18474043 0.092467288 -0.015961934)
(0.18298694 0.087517938 -0.013526498)
(0.18006891 0.084196165 -0.0093936334)
(0.17615496 0.085881213 -0.002649789)
(0.15935607 0.098196068 0.0097018165)
(0.096856283 -0.0015610847 0.00084521227)
(0.094620312 -0.0023059425 0.0012639601)
(0.090873307 -0.0025324225 0.0014312799)
(0.0862847 -0.002563468 0.0015160739)
(0.081674921 -0.0025018435 0.0015743698)
(0.077286782 -0.0023796482 0.0016222346)
(0.073079605 -0.0022383842 0.001683596)
(0.068951321 -0.0021176601 0.0018043533)
(0.06476619 -0.0020625789 0.0020618297)
(0.060297906 -0.0022638889 0.0025731583)
(0.055104795 -0.0032643495 0.0035662937)
(0.048741118 -0.0051105087 0.0054972256)
(0.040492103 -0.0056878922 0.0090793943)
(0.036519709 0.0017254032 0.014012826)
(0.044397974 0.018238525 0.019641863)
(0.060188689 0.035963134 0.025696262)
(0.076809867 0.050774286 0.031521393)
(0.091457052 0.062688369 0.03682858)
(0.10394235 0.071789329 0.041088678)
(0.11497134 0.078046267 0.043966471)
(0.12502794 0.081436182 0.045673163)
(0.1340927 0.082127411 0.046426752)
(0.14183752 0.080581093 0.046460387)
(0.14786578 0.077352837 0.046030318)
(0.1519429 0.072981774 0.045365224)
(0.15414504 0.067934973 0.044730277)
(0.15484083 0.062842748 0.044450708)
(0.15483994 0.05888626 0.044613876)
(0.15718701 0.058602255 0.04483473)
(0.17367189 0.067141986 0.045027072)
(0.10598058 -0.0024874301 0.0010145304)
(0.12078734 -0.0025678872 0.0014193397)
(0.13400887 -0.002427592 0.0014214832)
(0.14468535 -0.002043542 0.0011899114)
(0.15398115 -0.0014865517 0.00074292757)
(0.16248074 -0.00093961078 3.6400958e-05)
(0.17020692 -0.00054985875 -0.00099155563)
(0.17707235 -0.00039209888 -0.0025146511)
(0.18304381 -0.00053265755 -0.0047925305)
(0.18809892 -0.0010516476 -0.008123435)
(0.19217206 -0.0020854042 -0.012864174)
(0.19516962 -0.0037839634 -0.019289949)
(0.19648161 -0.0062912577 -0.027357393)
(0.19583606 -0.010300554 -0.036292552)
(0.19498587 -0.014923467 -0.044804035)
(0.19523181 -0.01915839 -0.051853865)
(0.19626472 -0.022005386 -0.057237332)
(0.19702166 -0.023221792 -0.061301127)
(0.19679719 -0.023338991 -0.064352713)
(0.19564907 -0.0231175 -0.066499473)
(0.1941589 -0.022985893 -0.067798202)
(0.19294877 -0.022961255 -0.068294061)
(0.1923724 -0.022942081 -0.068024756)
(0.19249121 -0.022863892 -0.067041276)
(0.1932505 -0.022702393 -0.065383133)
(0.19460891 -0.022328224 -0.062979742)
(0.19643927 -0.021326011 -0.059508427)
(0.19837539 -0.018640136 -0.054334728)
(0.19970301 -0.010972532 -0.046656075)
(0.19095868 0.011546356 -0.036571282)
(0.099975302 -0.0039427113 0.001071992)
(0.10068555 -0.0047899839 0.0016335052)
(0.10250276 -0.0049696353 0.0018453206)
(0.1049592 -0.0047486674 0.0019014318)
(0.10786825 -0.0043237587 0.0018427857)
(0.11116817 -0.0039486402 0.0016454857)
(0.11476724 -0.0038208767 0.0012631542)
(0.11858846 -0.0040601374 0.00061655704)
(0.12262416 -0.0047938227 -0.00042165434)
(0.12684235 -0.0062059504 -0.0020093726)
(0.13126428 -0.0085628333 -0.0043137857)
(0.13599302 -0.01215014 -0.0075153087)
(0.14119912 -0.017285292 -0.011660422)
(0.14684888 -0.024591538 -0.016107596)
(0.15287688 -0.032373068 -0.019714222)
(0.15892536 -0.038285934 -0.021716756)
(0.16431444 -0.040385837 -0.022476814)
(0.16802166 -0.038694109 -0.023225843)
(0.16957809 -0.034843842 -0.02468282)
(0.16942498 -0.030768458 -0.026793454)
(0.16854062 -0.027543932 -0.029091584)
(0.1677006 -0.025136513 -0.031100451)
(0.16710822 -0.023220146 -0.032389248)
(0.16672911 -0.021697482 -0.032637356)
(0.16667262 -0.020826266 -0.031560031)
(0.16742232 -0.020821698 -0.02880386)
(0.16992281 -0.021565233 -0.023781578)
(0.17625202 -0.022455947 -0.015530029)
(0.19187365 -0.021939714 -0.0025929524)
(0.24757111 -0.014555333 0.013467068)
(0.10011127 -0.0029605444 0.001092922)
(0.10019374 -0.0042957763 0.001682091)
(0.099972682 -0.0047485335 0.0019428585)
(0.099589855 -0.0049169496 0.0020782882)
(0.099259791 -0.0049972646 0.0021477175)
(0.099097852 -0.0050773512 0.0021508915)
(0.099117699 -0.0052460598 0.0020837414)
(0.099300224 -0.0056045028 0.0019548337)
(0.099638715 -0.0062953895 0.001781549)
(0.10016517 -0.0075799609 0.001535659)
(0.10099241 -0.0098170076 0.0010611893)
(0.10232942 -0.01351467 0.00010845792)
(0.10440217 -0.019426138 -0.00124354)
(0.10728627 -0.027996276 -0.0020951107)
(0.11094268 -0.037150898 -0.00081573298)
(0.11502476 -0.043468287 0.004480123)
(0.12058065 -0.043490862 0.013435214)
(0.12625581 -0.038504246 0.021990122)
(0.13064384 -0.031781398 0.02804603)
(0.1333496 -0.02652363 0.031026504)
(0.13460781 -0.022871433 0.032697515)
(0.13592238 -0.02039179 0.034452135)
(0.13808273 -0.019128398 0.036476003)
(0.14096936 -0.018708452 0.03908736)
(0.14359914 -0.019323463 0.041611888)
(0.14517566 -0.020817617 0.04377575)
(0.1462365 -0.022967443 0.045637107)
(0.14768038 -0.026100542 0.047829743)
(0.15364138 -0.030351311 0.05240252)
(0.17799214 -0.036634626 0.056332147)
(0.098099878 -0.0015880683 0.0010676501)
(0.096761043 -0.0023624462 0.0016376575)
(0.094389091 -0.0026221409 0.001883917)
(0.091425566 -0.0026993341 0.0020015755)
(0.08844617 -0.0027000548 0.0020497105)
(0.085641219 -0.0026587185 0.0020319466)
(0.08300858 -0.0026192565 0.0019501172)
(0.080515475 -0.0026400116 0.0018161153)
(0.078115662 -0.002806206 0.0016582531)
(0.075753985 -0.0032733151 0.001520497)
(0.073335831 -0.0043263939 0.0014555787)
(0.070654128 -0.0064850441 0.0015454231)
(0.067316545 -0.010485364 0.0017031223)
(0.063083079 -0.016471674 0.0018956875)
(0.058101475 -0.021315681 0.0049679663)
(0.054704798 -0.019562126 0.017826619)
(0.057644835 -0.0094195808 0.043947491)
(0.061433453 0.004586465 0.067814457)
(0.065756256 0.018004815 0.08532316)
(0.072010951 0.02832519 0.097279888)
(0.0805713 0.0347517 0.10428488)
(0.089815743 0.037029733 0.10731027)
(0.098145752 0.036309669 0.10802211)
(0.10497252 0.033630377 0.10711431)
(0.11004947 0.029781944 0.10474279)
(0.11386085 0.024641661 0.10023356)
(0.11653363 0.018780832 0.094199634)
(0.1183321 0.012505747 0.088080979)
(0.12326754 0.0063674609 0.085311308)
(0.13710656 0.00047545429 0.083095109)
(0.10585361 -0.0025079373 0.00036831045)
(0.12045871 -0.0025865084 0.00060815814)
(0.13358768 -0.0024195255 0.00070921328)
(0.1442816 -0.0019870388 0.00071410032)
(0.15364087 -0.0013705774 0.00064776656)
(0.16216463 -0.00076194393 0.00051172463)
(0.16986791 -0.00027484664 0.00027510508)
(0.17673195 5.9222483e-05 -8.3297909e-05)
(0.18277237 0.00021204569 -0.00058049489)
(0.187966 0.00013256865 -0.0012397781)
(0.1922524 -0.00026794722 -0.0020692883)
(0.19553964 -0.0011449552 -0.0030178116)
(0.19717607 -0.0027477413 -0.0038757337)
(0.19686426 -0.0059422786 -0.0042327876)
(0.19621408 -0.009688868 -0.0037176733)
(0.1958163 -0.013213465 -0.0027261084)
(0.19481117 -0.016488139 -0.0023025591)
(0.192592 -0.019842686 -0.0032055343)
(0.18941729 -0.023280437 -0.0054665008)
(0.18588166 -0.026702679 -0.0086116206)
(0.18255156 -0.030003212 -0.012027145)
(0.17984969 -0.032967338 -0.015135919)
(0.1778865 -0.035319356 -0.017518215)
(0.17645227 -0.03689973 -0.019014385)
(0.17526608 -0.037769461 -0.019598702)
(0.17425316 -0.038237652 -0.019086352)
(0.17382856 -0.03865901 -0.017198327)
(0.17530503 -0.038600086 -0.014774102)
(0.17997382 -0.034431686 -0.015309757)
(0.18500217 -0.01726988 -0.020820077)
(0.099852821 -0.00395543 0.00036848945)
(0.10033123 -0.0047903126 0.0006341763)
(0.10202126 -0.0049273393 0.00076278881)
(0.10446466 -0.004637021 0.00078939787)
(0.10739132 -0.004126036 0.00072657443)
(0.11067742 -0.003651925 0.00055667277)
(0.11420025 -0.0033628241 0.00024503078)
(0.11786528 -0.0033189158 -0.00025146331)
(0.12162194 -0.0036063447 -0.00098910448)
(0.12545978 -0.0043695874 -0.0020529302)
(0.12942553 -0.0058624785 -0.0035078432)
(0.13367374 -0.0085292269 -0.0053500378)
(0.13852568 -0.013023771 -0.0073629406)
(0.14394579 -0.019983291 -0.0089771137)
(0.14931625 -0.026431968 -0.010034017)
(0.15336497 -0.030336479 -0.011870449)
(0.15479462 -0.03240631 -0.015786723)
(0.15368717 -0.034251963 -0.021531253)
(0.15113777 -0.035933809 -0.028178649)
(0.14793538 -0.037438851 -0.034692779)
(0.14446565 -0.038961245 -0.040185991)
(0.14098112 -0.040450345 -0.044070117)
(0.13749804 -0.041582999 -0.046077484)
(0.13378057 -0.042172097 -0.046246698)
(0.12959462 -0.04254628 -0.044513533)
(0.1249619 -0.043759778 -0.040276254)
(0.12137202 -0.046721562 -0.032862133)
(0.12388288 -0.050401528 -0.025243051)
(0.13903624 -0.047517226 -0.029633505)
(0.18023881 -0.026579564 -0.050188009)
(0.099993377 -0.0029555265 0.00037355623)
(0.099855617 -0.0042842047 0.00064617549)
(0.099515428 -0.0047164132 0.00079072342)
(0.09913107 -0.0048520345 0.00083870241)
(0.098845435 -0.0048867821 0.00079979983)
(0.0987237 -0.0049009996 0.00065461454)
(0.098751255 -0.0049661827 0.00036656009)
(0.098882528 -0.0051641164 -0.00011774943)
(0.09908687 -0.0056224333 -0.00087660119)
(0.099349426 -0.0065513219 -0.0020084325)
(0.099644268 -0.0083551418 -0.0036410481)
(0.10001616 -0.01178405 -0.0059157471)
(0.10076107 -0.0180531 -0.0087655156)
(0.10181991 -0.027255832 -0.011519053)
(0.10217625 -0.033951881 -0.013610734)
(0.10065199 -0.035011257 -0.016441561)
(0.096164527 -0.032769213 -0.020974019)
(0.090921624 -0.031544877 -0.02472803)
(0.086200429 -0.031307062 -0.029273996)
(0.081667717 -0.032155619 -0.034649087)
(0.076534711 -0.034163314 -0.038912721)
(0.071127339 -0.036737938 -0.040755945)
(0.066183782 -0.03907145 -0.03983662)
(0.062146814 -0.040976712 -0.036167108)
(0.059416337 -0.04292858 -0.029069705)
(0.058217008 -0.045969161 -0.017911015)
(0.059695161 -0.05075623 -0.0040262724)
(0.068940614 -0.056420122 0.0041049994)
(0.082143089 -0.053530794 -0.015080222)
(0.093584291 -0.019974183 -0.058896086)
(0.097984532 -0.0015831035 0.00036399807)
(0.096429387 -0.0023522832 0.00062477464)
(0.093940554 -0.0026036734 0.00075893938)
(0.090974927 -0.0026704359 0.00079748488)
(0.088037997 -0.002657915 0.00074984348)
(0.085268503 -0.0025981739 0.00059595095)
(0.082632942 -0.0025315197 0.00029620509)
(0.080067477 -0.0025106569 -0.00021217001)
(0.077506395 -0.0026104345 -0.0010250271)
(0.074819921 -0.0029651036 -0.0022819246)
(0.071715164 -0.003879389 -0.004253632)
(0.067639676 -0.0060626091 -0.0074744764)
(0.06166033 -0.011226223 -0.013068775)
(0.051718915 -0.020187658 -0.022383254)
(0.035709442 -0.023589179 -0.033055635)
(0.01984755 -0.017612969 -0.038018596)
(0.0093519707 -0.010031774 -0.028275369)
(0.022569051 -0.0066134481 0.012118548)
(0.025900831 0.0021772017 0.045752795)
(0.031977409 0.010570806 0.065923997)
(0.039908845 0.016226471 0.076987819)
(0.048001901 0.018597052 0.082185151)
(0.054998784 0.018221573 0.0837222)
(0.060012408 0.015574199 0.082609405)
(0.06197887 0.010761058 0.07911655)
(0.06078002 0.0033828147 0.072861776)
(0.059022968 -0.006191268 0.064215104)
(0.063378479 -0.017729634 0.049993394)
(0.076630358 -0.017161799 0.0014256852)
(0.15565718 0.021360114 -0.059697056)
(0.10582295 -0.0025091745 0.0002072034)
(0.12034729 -0.0025831066 0.00037582117)
(0.13338876 -0.0024018424 0.00048073623)
(0.14401581 -0.0019393269 0.00052400491)
(0.15333684 -0.0012669906 0.0005123477)
(0.1618649 -0.00056327099 0.00044740633)
(0.16965281 7.2779341e-05 0.00032987934)
(0.1767017 0.00061930908 0.00016696689)
(0.18306753 0.0010758461 -4.3493488e-05)
(0.18885143 0.0014360448 -0.00028482615)
(0.19419396 0.0016490237 -0.00049295078)
(0.19932362 0.0015920839 -0.00048091045)
(0.20402088 0.0011098485 0.00021982712)
(0.20830668 4.6284995e-05 0.0023391132)
(0.21332795 0.0003469902 0.0058988649)
(0.21841231 0.0015697139 0.010196082)
(0.22215348 0.0025939564 0.014645915)
(0.22416501 0.0028252564 0.01909654)
(0.22491696 0.0021181078 0.023542493)
(0.22495479 0.00052878424 0.027925326)
(0.22466093 -0.0017234143 0.032175055)
(0.22417129 -0.0042958991 0.036309268)
(0.22327288 -0.0068861013 0.040364317)
(0.22161808 -0.0094065235 0.044188965)
(0.21921701 -0.011797023 0.04741266)
(0.21659047 -0.013349275 0.049531519)
(0.21420834 -0.012478373 0.049822088)
(0.211065 -0.0075886136 0.04741222)
(0.20152641 0.0032732739 0.039204923)
(0.13925301 0.032272474 0.019401804)
(0.099822804 -0.0039567105 0.00021188321)
(0.10020183 -0.0047853455 0.00039828127)
(0.10176243 -0.0049013859 0.0005185163)
(0.10408179 -0.0045669641 0.00056738031)
(0.10688912 -0.0039755535 0.00054688786)
(0.11004903 -0.003366554 0.00045064053)
(0.11343395 -0.0028669771 0.0002633889)
(0.11694075 -0.0025208461 -3.6685227e-05)
(0.12053701 -0.0023754536 -0.00047845567)
(0.1242762 -0.0025507165 -0.0010841665)
(0.12834718 -0.0033419934 -0.0018260883)
(0.13321367 -0.0053308543 -0.002518095)
(0.13966871 -0.009185242 -0.0026068525)
(0.14789873 -0.013357 -0.0011959458)
(0.15678418 -0.012573348 0.00093941173)
(0.16375394 -0.0089952742 0.0021873696)
(0.16782539 -0.0060573629 0.0018411168)
(0.16943066 -0.0052797377 6.3824526e-05)
(0.16920279 -0.0067453217 -0.0029955103)
(0.16762235 -0.0096927567 -0.007079595)
(0.16518851 -0.013326588 -0.011507524)
(0.16213818 -0.01693527 -0.015223275)
(0.15830314 -0.019905491 -0.01740136)
(0.15328928 -0.022280288 -0.017664843)
(0.14715357 -0.024818045 -0.015948775)
(0.14134379 -0.02722941 -0.013620879)
(0.14004995 -0.025914442 -0.015567567)
(0.14563743 -0.015109783 -0.023284299)
(0.15927602 0.0092431172 -0.036554503)
(0.16351448 0.050879959 -0.052642016)
(0.099964527 -0.0029527965 0.00021324376)
(0.09973039 -0.0042784245 0.00040043493)
(0.0992581 -0.0047016251 0.00052497062)
(0.098737012 -0.0048190257 0.00057849731)
(0.098307636 -0.004822431 0.00055836748)
(0.098017943 -0.0047847751 0.0004521)
(0.097835432 -0.0047673375 0.00023498777)
(0.09768977 -0.004842791 -0.00012967968)
(0.097518499 -0.0051286592 -0.00069533445)
(0.097273893 -0.0058804615 -0.0015447843)
(0.096975932 -0.0076613432 -0.0027627653)
(0.096977011 -0.011653113 -0.0043144597)
(0.098117371 -0.019738107 -0.0056749413)
(0.099783777 -0.02788868 -0.0052559806)
(0.10261155 -0.025806569 -0.0028311125)
(0.102694 -0.019799432 -0.0011037277)
(0.097117824 -0.01441798 -0.0026492841)
(0.088731242 -0.011541224 -0.0072211531)
(0.078954113 -0.012881186 -0.013728531)
(0.06929027 -0.017137766 -0.020197138)
(0.060038953 -0.02247023 -0.02473003)
(0.051087535 -0.027393359 -0.026088719)
(0.042716499 -0.030911267 -0.023437227)
(0.035787372 -0.033766969 -0.016372724)
(0.03086885 -0.037842009 -0.0058024512)
(0.028678085 -0.043084656 -0.0014221629)
(0.037302494 -0.040364852 -0.018464902)
(0.058200098 -0.024302589 -0.040996857)
(0.081922581 0.0035484188 -0.063728765)
(0.084980043 0.053126771 -0.087635936)
(0.097956201 -0.0015847471 0.000207551)
(0.096307121 -0.0023560475 0.00038688176)
(0.093688813 -0.0026072384 0.00050319432)
(0.09058682 -0.0026702341 0.00054783503)
(0.087503109 -0.0026491572 0.00051692948)
(0.084554322 -0.0025737346 0.00039545876)
(0.081674467 -0.002482011 0.00015221293)
(0.078750394 -0.0024289078 -0.00026476981)
(0.075621781 -0.0024989574 -0.00094929059)
(0.071985011 -0.0028767942 -0.0020892834)
(0.067235615 -0.0040295905 -0.0040310167)
(0.060108467 -0.0072686301 -0.0074733911)
(0.048883019 -0.015999843 -0.014025487)
(0.027429739 -0.02446506 -0.024541656)
(-0.0040467501 -0.011320205 -0.030933134)
(-0.027168977 0.0023244638 -0.026984613)
(-0.041617904 0.0043221406 -0.020800804)
(-0.045260674 0.0027062924 -0.0094944933)
(-0.031402622 -0.00029954135 0.012086041)
(-0.022076737 1.7869936e-05 0.0287017)
(-0.011328048 0.00052760112 0.038234418)
(-0.0022067574 3.0721763e-05 0.042985348)
(0.0044257049 -0.0020838777 0.044748407)
(0.0073137286 -0.0061628635 0.044551294)
(0.0068355765 -0.012798641 0.042898941)
(-0.0027568771 -0.024628732 0.02691486)
(-0.015321727 -0.025813404 -0.014807871)
(-0.014313564 -0.0051462564 -0.061888406)
(0.01974379 0.025727863 -0.09798653)
(0.083990808 0.06623947 -0.13281174)
(0.10580533 -0.0025126254 7.014882e-05)
(0.12028663 -0.0025894331 0.00012882887)
(0.1332776 -0.0024099357 0.00016668052)
(0.14385896 -0.0019474318 0.00018404949)
(0.15314094 -0.0012726228 0.00018379786)
(0.16163155 -0.00056472232 0.0001676379)
(0.16937561 7.4716718e-05 0.00013551539)
(0.17637224 0.00062057567 8.4921827e-05)
(0.18268641 0.0010689752 1.5778941e-05)
(0.18842503 0.001384726 -6.6186008e-05)
(0.19378176 0.001479431 -0.00014163389)
(0.19919642 0.0011875599 -0.00013543292)
(0.20484209 0.00052790757 0.00016347293)
(0.21090282 0.00027010826 0.001045065)
(0.21741187 0.0012515047 0.0023472257)
(0.22345988 0.0025598166 0.003703024)
(0.2281773 0.003877885 0.0050813096)
(0.23193755 0.0054683254 0.0068167013)
(0.23542753 0.0072865426 0.0092763281)
(0.23920792 0.0090809254 0.012730225)
(0.24364659 0.010689749 0.017331841)
(0.24864139 0.012380413 0.023079011)
(0.25339879 0.014388727 0.029757841)
(0.25675455 0.016632143 0.036950759)
(0.25765959 0.018974305 0.043978169)
(0.25511503 0.021621604 0.049744525)
(0.2475984 0.025291823 0.052690253)
(0.23224557 0.03148489 0.050979129)
(0.20541096 0.04258925 0.042180636)
(0.113109 0.067957984 0.024751656)
(0.099805211 -0.0039602929 7.332958e-05)
(0.10013257 -0.0047916739 0.00014065474)
(0.10162427 -0.0049080392 0.0001869573)
(0.10387468 -0.0045705408 0.00020975073)
(0.10661359 -0.0039721065 0.00021016995)
(0.10969615 -0.0033535573 0.00018766812)
(0.11298509 -0.0028459623 0.00013870678)
(0.1163796 -0.0024999377 5.6726064e-05)
(0.11984612 -0.002382093 -6.1260405e-05)
(0.1234643 -0.0026779619 -0.00021598733)
(0.12755612 -0.003809022 -0.00037802461)
(0.13292982 -0.0065357023 -0.00043472088)
(0.14065262 -0.010978186 -0.00010995065)
(0.15068029 -0.010958791 0.0010373105)
(0.16006356 -0.006845799 0.002085662)
(0.16706153 -0.0026766467 0.0023388963)
(0.17282572 0.00018257419 0.0020793245)
(0.17845393 0.0019424684 0.001836945)
(0.18376314 0.0028826368 0.00177347)
(0.18928669 0.00345459 0.0019190888)
(0.19490675 0.0043452815 0.002218924)
(0.20154441 0.006601685 0.0029263996)
(0.21076254 0.011744056 0.0045407957)
(0.21984097 0.019766277 0.0070775232)
(0.22785 0.029664133 0.010396431)
(0.23344396 0.040544627 0.013505)
(0.23440017 0.052721532 0.014535259)
(0.22698175 0.067431384 0.011353403)
(0.20963689 0.087125958 0.0017206044)
(0.14500132 0.1185848 -0.016228147)
(0.099946849 -0.0029530121 7.3346526e-05)
(0.099660994 -0.0042796123 0.00014022793)
(0.099116466 -0.0047023221 0.00018713762)
(0.098516805 -0.0048171642 0.00021052171)
(0.09800111 -0.0048164822 0.00020966113)
(0.097604288 -0.004774494 0.00018167561)
(0.097277868 -0.0047559661 0.00011896733)
(0.096934928 -0.0048411762 8.720987e-06)
(0.096475237 -0.0051851471 -0.00016658889)
(0.095815227 -0.0061344318 -0.00043388572)
(0.095047755 -0.0084976302 -0.00081547119)
(0.095047395 -0.01404619 -0.00129432)
(0.096418439 -0.025145931 -0.001799718)
(0.099595498 -0.024404836 -0.00085587378)
(0.10404906 -0.017477779 0.0010026997)
(0.10290036 -0.01094637 0.00080975254)
(0.098836819 -0.0052527873 -0.0007099327)
(0.091565434 -0.00096503849 -0.0028454614)
(0.083876237 0.00050052325 -0.0053806989)
(0.073899419 -0.0014791318 -0.0086771262)
(0.061789458 -0.0057013498 -0.012140071)
(0.049554722 -0.009696598 -0.014553652)
(0.03997462 -0.010731928 -0.015169038)
(0.045485373 -0.0070622794 -0.014007016)
(0.066160691 0.0012082702 -0.013113117)
(0.098278439 0.016024028 -0.013965661)
(0.12328562 0.033422066 -0.016922806)
(0.13746246 0.054006891 -0.024104554)
(0.14256711 0.080688 -0.036370573)
(0.11478067 0.11819966 -0.052223942)
(0.0979386 -0.0015846104 7.1253114e-05)
(0.096238157 -0.002355869 0.0001350899)
(0.093547195 -0.0026063614 0.00017852892)
(0.090363433 -0.0026679644 0.00019769671)
(0.087185555 -0.0026452518 0.00019104968)
(0.084112624 -0.0025687879 0.00015450717)
(0.081054887 -0.0024789698 7.6657356e-05)
(0.077854242 -0.0024353477 -6.2649485e-05)
(0.074244132 -0.0025477099 -0.0003033172)
(0.0697111 -0.003072505 -0.00072751842)
(0.063179815 -0.0047197475 -0.001509679)
(0.05219056 -0.0097188472 -0.0031058982)
(0.034931601 -0.023416127 -0.0070487813)
(-0.013204891 -0.012933817 -0.015704533)
(-0.04454586 0.0045675999 -0.014138825)
(-0.064415117 0.0074237406 -0.012426072)
(-0.078513668 0.0072959973 -0.01040876)
(-0.085622752 0.0043914379 -0.0068673395)
(-0.086739924 -0.00021598615 -0.0022362029)
(-0.07916637 -0.0050855039 0.0029131388)
(-0.069383338 -0.0092913008 0.0057639329)
(-0.059988003 -0.013206341 0.0065387039)
(-0.051805211 -0.017699726 0.0059574145)
(-0.044198109 -0.022054855 0.004430255)
(-0.036277659 -0.022892862 0.00096425849)
(-0.030569708 -0.014769677 -0.010254096)
(-0.010103033 0.0097109152 -0.0291754)
(0.0062637596 0.036506596 -0.04930068)
(0.023141143 0.064907084 -0.071937712)
(0.038373481 0.098901845 -0.10169765)
(0.10580459 -0.0025124135 -3.1966726e-05)
(0.1202851 -0.0025892701 -4.9621061e-05)
(0.13327662 -0.0024100059 -4.657361e-05)
(0.14385974 -0.0019480872 -2.2425745e-05)
(0.15314502 -0.001274208 2.1296917e-05)
(0.16164233 -0.00056697265 8.4970354e-05)
(0.16939842 7.2626919e-05 0.00017172923)
(0.17641302 0.00061915164 0.00028774865)
(0.18274901 0.001066757 0.0004418291)
(0.18851752 0.0013857756 0.00063775204)
(0.19391636 0.0014898667 0.00086473239)
(0.1993778 0.0012119109 0.0010577274)
(0.20504663 0.0005590913 0.0010163226)
(0.21110427 0.00020159619 0.00043952833)
(0.21768298 0.0011081493 -0.00052588063)
(0.22393891 0.0023754005 -0.0015055735)
(0.229115 0.0036984365 -0.0023548412)
(0.23360753 0.0053779594 -0.0032535393)
(0.23814778 0.0074358738 -0.004421099)
(0.24324366 0.0098547217 -0.0060481723)
(0.24901251 0.012682269 -0.0083714382)
(0.25497378 0.016045477 -0.011682824)
(0.26012067 0.019851047 -0.016182101)
(0.26333653 0.023854018 -0.021752051)
(0.26368888 0.027824797 -0.027859401)
(0.26023561 0.031854859 -0.033522509)
(0.25132448 0.036543562 -0.037369344)
(0.23390954 0.04289794 -0.03775181)
(0.20435656 0.05291916 -0.032143558)
(0.10653921 0.075039727 -0.018642244)
(0.099805732 -0.0039598547 -2.715555e-05)
(0.10013498 -0.0047911144 -3.9036697e-05)
(0.10163015 -0.0049075302 -2.5594528e-05)
(0.103886 -0.004570387 1.5936146e-05)
(0.10663366 -0.0039725113 8.5834114e-05)
(0.10973057 -0.0033536209 0.00018689244)
(0.1130402 -0.0028441788 0.00032610998)
(0.11645979 -0.0024950583 0.00051538385)
(0.11996073 -0.0023719231 0.00076794074)
(0.12363111 -0.0026501995 0.001094783)
(0.12779266 -0.0037384803 0.0014802798)
(0.13323271 -0.0063746202 0.0018294419)
(0.14097976 -0.010654614 0.0018705047)
(0.15105472 -0.010945033 0.0010400546)
(0.16060901 -0.0070251663 0.00016580142)
(0.16784974 -0.0028801518 6.6949883e-05)
(0.17398968 5.6498246e-05 0.00057325116)
(0.18025573 0.0021376368 0.0012711688)
(0.18651877 0.003895491 0.0021051749)
(0.19362033 0.0061139186 0.0030477284)
(0.2022044 0.00983831 0.0038544835)
(0.21218845 0.015959062 0.0039091249)
(0.2227557 0.024664152 0.002696064)
(0.23280464 0.035233871 0.00011122635)
(0.24112997 0.046651898 -0.0034599885)
(0.24610322 0.058741897 -0.007140634)
(0.24480108 0.071996104 -0.0095269479)
(0.23289101 0.086836809 -0.0092243898)
(0.20839551 0.10476305 -0.003927378)
(0.12257581 0.132106 0.0099896888)
(0.09994741 -0.0029526663 -2.6134475e-05)
(0.099663741 -0.0042790192 -3.666829e-05)
(0.099123495 -0.0047014519 -2.1365286e-05)
(0.0985308 -0.0048159427 2.4226462e-05)
(0.098026887 -0.0048146598 0.00010286846)
(0.097649472 -0.00477074 0.00022043948)
(0.097350923 -0.004748952 0.00038957479)
(0.097045975 -0.0048295449 0.00063148786)
(0.096646765 -0.0051613051 0.0009781833)
(0.096092149 -0.0060795336 0.001477209)
(0.095497231 -0.0083622607 0.0021837325)
(0.095730086 -0.013694023 0.0031331537)
(0.097304215 -0.02421461 0.0042892964)
(0.10094803 -0.024248068 0.0038643342)
(0.10594389 -0.017556138 0.0020337223)
(0.10515423 -0.011147063 0.0022709952)
(0.10233757 -0.0055587235 0.0040513725)
(0.097016389 -0.0010810073 0.0068648329)
(0.092594766 0.0011939227 0.010535763)
(0.088049194 0.00089262569 0.014852171)
(0.083495714 -0.00047539369 0.018463745)
(0.083450376 -0.00059909003 0.019937254)
(0.090866617 0.002618287 0.018610697)
(0.1071812 0.010486054 0.015564812)
(0.12900716 0.023181319 0.011665156)
(0.14884132 0.039009798 0.0076651951)
(0.16298115 0.056223936 0.0057878908)
(0.16599483 0.075942609 0.007487807)
(0.15792568 0.10062421 0.013869087)
(0.098750351 0.13591901 0.02594556)
(0.097939116 -0.0015844511 -2.5057108e-05)
(0.096240851 -0.002355569 -3.4114687e-05)
(0.093554338 -0.002605904 -1.6961596e-05)
(0.090378038 -0.002667355 3.1462842e-05)
(0.087213734 -0.0026444513 0.00011505642)
(0.084163596 -0.0025670715 0.00024152685)
(0.081137955 -0.0024756302 0.00042872842)
(0.077984575 -0.0024299553 0.00070830387)
(0.074459609 -0.0025365841 0.0011391147)
(0.07009669 -0.0030457492 0.0018344904)
(0.06391876 -0.0046461815 0.0030275383)
(0.053695162 -0.0094686688 0.0052894734)
(0.037394683 -0.022475794 0.010362041)
(-0.0048807141 -0.014531018 0.02024071)
(-0.037343398 0.0035791823 0.017381619)
(-0.056623179 0.0061117383 0.013484388)
(-0.071515438 0.0059151894 0.010337725)
(-0.078401076 0.0027776973 0.0055712192)
(-0.079038497 -0.0021107153 -0.0011449883)
(-0.071426509 -0.0070523115 -0.0091042013)
(-0.061988919 -0.011241292 -0.015269857)
(-0.052815884 -0.014904966 -0.019799662)
(-0.04404498 -0.017453517 -0.023067658)
(-0.034601378 -0.017329477 -0.024756237)
(-0.021656972 -0.01199303 -0.0229841)
(0.0031298444 0.0070599166 -0.011418823)
(0.024722008 0.031667024 -0.0044418438)
(0.029850801 0.052313104 0.0063509582)
(0.035190896 0.079812286 0.024582458)
(0.028144777 0.11725384 0.049619448)
(0.10582153 -0.0025080062 -0.00017335743)
(0.12034534 -0.0025813818 -0.00030541498)
(0.13339072 -0.0023997093 -0.0003739863)
(0.14402562 -0.0019371691 -0.00038061539)
(0.15335786 -0.0012653296 -0.00033093142)
(0.16190032 -0.00056304473 -0.00022549792)
(0.16970604 7.0743946e-05 -6.6331069e-05)
(0.17678443 0.00061634345 0.00014773253)
(0.18320259 0.0010774422 0.00042089814)
(0.18905793 0.0014438893 0.00074088994)
(0.19448854 0.0016671822 0.001048849)
(0.19973504 0.001626319 0.0011666934)
(0.20460827 0.0011753421 0.00064464082)
(0.20914523 0.00019397779 -0.0012145422)
(0.21438426 0.00044753334 -0.0045187478)