/*--------------------------------*- C++ -*----------------------------------*\
| =========                 |                                                 |
| \\      /  F ield         | OpenFOAM: The Open Source CFD Toolbox           |
|  \\    /   O peration     | Version:  v2012                                 |
|   \\  /    A nd           | Website:  www.openfoam.com                      |
|    \\/     M anipulation  |                                                 |
\*---------------------------------------------------------------------------*/
FoamFile
{
    version     2.0;
    format      ascii;
    class       surfaceScalarField;
    location    "280/topAir";
    object      phi;
}
// * * * * * * * * * * * * * * * * * * * * * * * * * * * * * * * * * * * * * //

dimensions      [1 0 -1 0 0 0 0];
oriented        oriented;


internalField   nonuniform List<scalar> 
3140
(
9.4749227e-06
-2.7905055e-07
7.3146898e-08
9.6446443e-06
-2.5386745e-07
8.4221203e-08
9.8115815e-06
-2.4162641e-07
7.4798268e-08
9.9491874e-06
-1.9575935e-07
5.8294247e-08
1.0050403e-05
-1.3751233e-07
3.6463289e-08
1.0122647e-05
-8.1979965e-08
9.924359e-09
1.0191559e-05
-3.4147651e-08
-3.4560006e-08
1.0283967e-05
4.1536553e-09
-9.6363577e-08
1.0405768e-05
6.2908421e-08
-1.8451877e-07
1.0577959e-05
1.3894552e-07
-3.1095621e-07
1.0801475e-05
2.6641904e-07
-4.8976312e-07
1.1051132e-05
4.8555034e-07
-7.3504749e-07
1.1274134e-05
8.3140437e-07
-1.0542576e-06
1.1463338e-05
1.2615619e-06
-1.4506338e-06
1.1596229e-05
1.756401e-06
-1.8891741e-06
1.1678059e-05
2.2432202e-06
-2.3249459e-06
1.1714127e-05
2.6744304e-06
-2.7104141e-06
1.1702021e-05
3.0279377e-06
-3.0157771e-06
1.1645047e-05
3.2938102e-06
-3.2368183e-06
1.1563814e-05
3.4653152e-06
-3.3841027e-06
1.1489834e-05
3.5451401e-06
-3.471221e-06
1.1449664e-05
3.5484573e-06
-3.5084115e-06
1.1456161e-05
3.4950525e-06
-3.5017909e-06
1.1506228e-05
3.4035841e-06
-3.4541131e-06
1.1580399e-05
3.2903802e-06
-3.3653744e-06
1.1635818e-05
3.1738368e-06
-3.2306139e-06
1.1584939e-05
3.0843908e-06
-3.0355983e-06
1.1250712e-05
3.0842848e-06
-2.7531099e-06
1.0271217e-05
3.3118461e-06
-2.3366487e-06
4.1219003e-06
-1.7182501e-06
9.1217565e-06
-2.1176063e-07
7.9924387e-08
9.0840619e-06
-3.200598e-07
1.0389209e-07
9.0727819e-06
-3.407199e-07
1.1038291e-07
9.1023707e-06
-3.3815775e-07
1.1282325e-07
9.1719921e-06
-3.1801837e-07
1.1090233e-07
9.2758897e-06
-2.8873113e-07
1.0287478e-07
9.4156997e-06
-2.6103001e-07
8.7099645e-08
9.6041574e-06
-2.4491861e-07
6.0724583e-08
9.8667007e-06
-2.1938903e-07
1.9948881e-08
1.0226612e-05
-1.7023728e-07
-5.0553822e-08
1.0713702e-05
-5.6161902e-08
-1.644813e-07
1.1325093e-05
2.0809211e-07
-3.3409939e-07
1.1988175e-05
7.4573815e-07
-5.7774402e-07
1.2588093e-05
1.5528581e-06
-8.9163631e-07
1.3060714e-05
2.5215645e-06
-1.2382354e-06
1.3374457e-05
3.4775755e-06
-1.5485404e-06
1.3514828e-05
4.301179e-06
-1.7675393e-06
1.3495897e-05
4.9432636e-06
-1.8967937e-06
1.3359396e-05
5.4073984e-06
-1.9774608e-06
1.3170598e-05
5.7034719e-06
-2.0497082e-06
1.2990607e-05
5.8449127e-06
-2.1201415e-06
1.2852563e-05
5.8585824e-06
-2.1725379e-06
1.276568e-05
5.7734844e-06
-2.1922525e-06
1.2721379e-05
5.6147731e-06
-2.1680434e-06
1.2697389e-05
5.400737e-06
-2.0882108e-06
1.2651654e-05
5.150553e-06
-1.9337349e-06
1.2499712e-05
4.905833e-06
-1.6734307e-06
1.2080302e-05
4.7618022e-06
-1.2636653e-06
1.1132991e-05
4.9113284e-06
-6.5996886e-07
5.5945955e-06
1.8899964e-07
9.1789624e-06
-2.0362996e-07
8.1868281e-08
9.0205993e-06
-2.6943587e-07
1.0774065e-07
8.8452743e-06
-2.8240128e-07
1.1700792e-07
8.6656008e-06
-2.824053e-07
1.2392283e-07
8.4932102e-06
-2.7526206e-07
1.2963622e-07
8.3336254e-06
-2.6292337e-07
1.337792e-07
8.1857992e-06
-2.5028486e-07
1.3708309e-07
8.0424927e-06
-2.4279975e-07
1.4119122e-07
7.916392e-06
-2.4292144e-07
1.4963716e-07
7.8384553e-06
-2.555325e-07
1.6323214e-07
7.897158e-06
-2.9056627e-07
1.7569045e-07
8.2401799e-06
-3.0333679e-07
1.6834933e-07
8.9388949e-06
-7.3815298e-08
1.2069378e-07
9.9679704e-06
5.0242867e-07
2.1069325e-08
1.0965943e-05
1.5832289e-06
-6.0087727e-08
1.1770186e-05
2.7379213e-06
-6.5170117e-08
1.2337234e-05
3.6377137e-06
9.5808541e-08
1.2626707e-05
4.2463841e-06
4.0681096e-07
1.2702298e-05
4.6445972e-06
6.8665785e-07
1.2657891e-05
4.8810004e-06
8.6639729e-07
1.2586378e-05
4.980842e-06
9.3518307e-07
1.252562e-05
4.9564257e-06
9.6257247e-07
1.2480941e-05
4.8317645e-06
9.8605862e-07
1.243568e-05
4.6340973e-06
1.0255091e-06
1.2365801e-05
4.3878918e-06
1.0821011e-06
1.2248785e-05
4.1163614e-06
1.1502702e-06
1.2046486e-05
3.8544798e-06
1.2522274e-06
1.1703402e-05
3.6816624e-06
1.4209789e-06
1.1102478e-05
3.7860941e-06
1.7224386e-06
4.5674601e-06
2.2355372e-06
8.9853552e-06
7.9967997e-08
8.6112788e-06
1.04642e-07
8.2161092e-06
1.1276983e-07
7.8156888e-06
1.1801644e-07
7.418591e-06
1.2183728e-07
7.0314251e-06
1.242439e-07
6.6547184e-06
1.2642329e-07
6.2813397e-06
1.3058013e-07
5.8980377e-06
1.4038151e-07
5.4805329e-06
1.6197228e-07
4.9837171e-06
2.0624811e-07
4.387377e-06
2.9299669e-07
3.8603359e-06
4.5319609e-07
3.6532985e-06
7.0927038e-07
4.1233842e-06
1.1125637e-06
5.1300794e-06
1.7304033e-06
6.2343095e-06
2.5326125e-06
7.1784293e-06
3.3014294e-06
7.9193622e-06
3.9028969e-06
8.5128532e-06
4.286841e-06
9.0098342e-06
4.4833237e-06
9.441279e-06
4.5245871e-06
9.799997e-06
4.4727816e-06
1.0065884e-05
4.3680321e-06
1.0221813e-05
4.2318169e-06
1.0269416e-05
4.0685736e-06
1.0236606e-05
3.8869799e-06
1.0212729e-05
3.7049404e-06
1.0473597e-05
3.523961e-06
3.3029143e-06
9.5881443e-06
-2.7845395e-07
3.2475645e-08
9.8755954e-06
-2.5449822e-07
5.1338138e-08
1.0149332e-05
-2.5383824e-07
5.4994372e-08
1.0381526e-05
-2.2464779e-07
5.0864898e-08
1.0564435e-05
-1.8780114e-07
4.1496592e-08
1.0707421e-05
-1.5899331e-07
2.6092983e-08
1.081745e-05
-1.4465687e-07
2.4351422e-10
1.0897457e-05
-1.4903611e-07
-2.7156551e-08
1.0956295e-05
-1.7623363e-07
-6.6951927e-08
1.1000881e-05
-2.3291174e-07
-1.2246848e-07
1.1036421e-05
-3.2552957e-07
-1.9962242e-07
1.1068248e-05
-4.6189793e-07
-3.0483837e-07
1.1103173e-05
-6.4548296e-07
-4.4357103e-07
1.1200565e-05
-9.232233e-07
-6.2469308e-07
1.1380413e-05
-1.230204e-06
-8.3873068e-07
1.1647193e-05
-1.5246032e-06
-1.0670631e-06
1.1952025e-05
-1.7279412e-06
-1.2873007e-06
1.2213656e-05
-1.783911e-06
-1.4935656e-06
1.2381494e-05
-1.7173969e-06
-1.6873907e-06
1.2455363e-05
-1.5989791e-06
-1.8591562e-06
1.2475694e-05
-1.4917445e-06
-1.9999956e-06
1.2486365e-05
-1.416405e-06
-2.1029583e-06
1.25161e-05
-1.3701961e-06
-2.1618754e-06
1.2575578e-05
-1.3421439e-06
-2.1725248e-06
1.2666798e-05
-1.3236092e-06
-2.1349395e-06
1.2787091e-05
-1.3033256e-06
-2.0507834e-06
1.291775e-05
-1.2529553e-06
-1.9181964e-06
1.2995622e-05
-1.0988674e-06
-1.7392753e-06
1.2876227e-05
-6.8521783e-07
-1.5418718e-06
4.7228137e-07
-1.3154208e-06
9.247717e-06
-2.1317267e-07
3.5896884e-08
9.3580524e-06
-3.2391188e-07
6.2974811e-08
9.4893151e-06
-3.4958729e-07
7.4877057e-08
9.6556992e-06
-3.5674168e-07
7.854439e-08
9.8542726e-06
-3.5243172e-07
7.6974595e-08
1.0073903e-05
-3.451481e-07
6.9417735e-08
1.0307339e-05
-3.4500765e-07
5.403683e-08
1.055158e-05
-3.6092286e-07
2.8394815e-08
1.0808276e-05
-4.01702e-07
-1.1251751e-08
1.1076817e-05
-4.7966174e-07
-7.2317585e-08
1.1359861e-05
-6.1198116e-07
-1.6105076e-07
1.1669066e-05
-8.1711826e-07
-2.8806659e-07
1.2022312e-05
-1.1130925e-06
-4.6337074e-07
1.2420137e-05
-1.5228685e-06
-6.8981347e-07
1.2901874e-05
-1.9953362e-06
-9.5485153e-07
1.3427156e-05
-2.3843193e-06
-1.2141437e-06
1.3895211e-05
-2.531483e-06
-1.4321515e-06
1.4203316e-05
-2.3631458e-06
-1.6258284e-06
1.4318875e-05
-2.0017243e-06
-1.8088925e-06
1.4280116e-05
-1.6264113e-06
-1.9837209e-06
1.4169672e-05
-1.3608674e-06
-2.1407837e-06
1.4031847e-05
-1.181637e-06
-2.2697241e-06
1.3886998e-05
-1.0669755e-06
-2.3509082e-06
1.3746278e-05
-1.0059836e-06
-2.3637528e-06
1.3636927e-05
-1.0056012e-06
-2.2969057e-06
1.3615261e-05
-1.0693599e-06
-2.1454302e-06
1.3793632e-05
-1.1883691e-06
-1.9145967e-06
1.4424245e-05
-1.3518938e-06
-1.6378209e-06
1.6168745e-05
-1.6035328e-06
-1.4808942e-06
-1.7102593e-06
-1.6795357e-06
9.3070653e-06
-2.0600235e-07
3.6593967e-08
9.2991375e-06
-2.7305963e-07
6.4817716e-08
9.2755625e-06
-2.8776781e-07
7.8764889e-08
9.2491877e-06
-2.9172471e-07
8.5282354e-08
9.2297188e-06
-2.9095898e-07
8.7634282e-08
9.2200744e-06
-2.8738872e-07
8.5666393e-08
9.2197191e-06
-2.8609168e-07
7.8524509e-08
9.2277437e-06
-2.9304759e-07
6.5293385e-08
9.244776e-06
-3.144661e-07
4.5370318e-08
9.2707636e-06
-3.6085056e-07
1.8433576e-08
9.3139291e-06
-4.5080192e-07
-2.8656248e-08
9.3926453e-06
-6.1609188e-07
-1.1140047e-07
9.5282507e-06
-8.9230547e-07
-2.3571742e-07
9.744678e-06
-1.3078976e-06
-4.1036551e-07
1.0087337e-05
-1.7861526e-06
-6.119926e-07
1.0514242e-05
-2.1227609e-06
-7.5378362e-07
1.0911226e-05
-2.0977995e-06
-7.3522431e-07
1.1222521e-05
-1.6929244e-06
-5.7525252e-07
1.1374763e-05
-1.0993097e-06
-3.6855749e-07
1.1379407e-05
-4.9795742e-07
-2.6710927e-07
1.1304774e-05
-5.1176603e-08
-3.0012253e-07
1.1246537e-05
1.6498461e-07
-3.2613945e-07
1.1216424e-05
2.3473621e-07
-2.8611724e-07
1.1199029e-05
1.9042739e-07
-1.5444456e-07
1.1192184e-05
7.0649382e-08
1.1378388e-08
1.1136895e-05
-1.1608443e-07
2.5176948e-07
1.1122456e-05
-3.8982896e-07
4.6852395e-07
1.1260306e-05
-7.0149138e-07
6.3314613e-07
1.1904606e-05
-9.7417091e-07
4.4849415e-07
-1.1543315e-06
-3.8893692e-07
9.1073475e-06
3.5571285e-08
8.8763414e-06
6.2589913e-08
8.6257235e-06
7.5621409e-08
8.3706579e-06
8.1358721e-08
8.1185466e-06
8.2991058e-08
7.8749243e-06
8.0478967e-08
7.6420198e-06
7.3237546e-08
7.4187343e-06
6.0819348e-08
7.20144e-06
4.3210849e-08
6.9811214e-06
2.1440825e-08
6.7400505e-06
-3.4829794e-09
6.4644927e-06
-4.753959e-08
6.1273007e-06
-1.0192681e-07
5.7104645e-06
-1.8184421e-07
5.2984261e-06
-2.6177228e-07
5.074805e-06
-1.6932356e-07
5.1817516e-06
3.2686962e-07
5.443011e-06
1.3460516e-06
5.6436131e-06
2.6017747e-06
5.9219802e-06
3.5094601e-06
6.3182057e-06
4.035141e-06
6.7447349e-06
4.2626699e-06
7.1360309e-06
4.3162053e-06
7.4384616e-06
4.2563341e-06
7.6456386e-06
4.0960006e-06
7.794571e-06
3.8036853e-06
7.9281065e-06
3.3633533e-06
8.1112144e-06
2.8196733e-06
8.836836e-06
1.8229565e-06
2.5953519e-07
9.5650158e-06
-2.8004462e-07
1.6523527e-08
9.8434081e-06
-2.5470272e-07
2.7721788e-08
1.0116629e-05
-2.5046401e-07
3.2340366e-08
1.0351865e-05
-2.1667032e-07
3.2430814e-08
1.0538768e-05
-1.7494158e-07
2.9690148e-08
1.0681544e-05
-1.4128272e-07
2.4772329e-08
1.0784003e-05
-1.1989497e-07
1.7866684e-08
1.0857305e-05
-1.0962273e-07
9.3627136e-09
1.0905169e-05
-1.1199497e-07
-2.6130424e-09
1.0928945e-05
-1.3118443e-07
-1.483705e-08
1.0931555e-05
-1.7222023e-07
-2.9765219e-08
1.091442e-05
-2.4161455e-07
-4.5807797e-08
1.0880543e-05
-3.4935538e-07
-6.0013741e-08
1.0898009e-05
-5.7146397e-07
-7.0313799e-08
1.0995692e-05
-8.6944622e-07
-6.6477164e-08
1.1190077e-05
-1.2253128e-06
-3.5420197e-08
1.1422101e-05
-1.5536563e-06
3.5207269e-08
1.1626612e-05
-1.8155965e-06
1.1847779e-07
1.1773757e-05
-2.0150027e-06
1.8142786e-07
1.1863929e-05
-2.1692971e-06
2.2085938e-07
1.1916673e-05
-2.3057795e-06
2.5375678e-07
1.195721e-05
-2.4383168e-06
2.9516937e-07
1.199685e-05
-2.5576515e-06
3.5580965e-07
1.2031322e-05
-2.6466106e-06
4.3823295e-07
1.2057096e-05
-2.6980325e-06
5.3456386e-07
1.2090088e-05
-2.7210521e-06
6.3304056e-07
1.2171467e-05
-2.7198304e-06
7.1462505e-07
1.2345734e-05
-2.6305644e-06
7.10038e-07
1.2498453e-05
-2.1203817e-06
4.1717948e-07
-6.7875403e-07
-3.4097682e-07
9.2197238e-06
-2.1287059e-07
1.7969812e-08
9.3180784e-06
-3.2281767e-07
3.2739999e-08
9.4480907e-06
-3.4634861e-07
4.0758013e-08
9.6168275e-06
-3.4994069e-07
4.3090474e-08
9.8183803e-06
-3.4054592e-07
4.1042273e-08
1.0038438e-05
-3.2642396e-07
3.4521049e-08
1.0266438e-05
-3.1637271e-07
2.2537499e-08
1.0498178e-05
-3.1606943e-07
3.128347e-09
1.0730314e-05
-3.3112657e-07
-2.4226114e-08
1.0961008e-05
-3.7002006e-07
-6.4140026e-08
1.1191949e-05
-4.4435178e-07
-1.1981318e-07
1.1430209e-05
-5.7343666e-07
-1.9444472e-07
1.1697335e-05
-7.9192947e-07
-2.8784186e-07
1.1989489e-05
-1.1626371e-06
-3.9068724e-07
1.2349198e-05
-1.711711e-06
-4.7212867e-07
1.2700335e-05
-2.2781337e-06
-5.122042e-07
1.2898391e-05
-2.6121328e-06
-5.7149982e-07
1.2922444e-05
-2.7535433e-06
-7.1180287e-07
1.2793332e-05
-2.7625859e-06
-9.3220657e-07
1.2545477e-05
-2.7125798e-06
-1.1927461e-06
1.2228102e-05
-2.6823718e-06
-1.4471506e-06
1.1880953e-05
-2.7055954e-06
-1.6558361e-06
1.1515261e-05
-2.7539071e-06
-1.7896941e-06
1.1130387e-05
-2.7916549e-06
-1.8345373e-06
1.0734609e-05
-2.8135114e-06
-1.7856698e-06
1.0371494e-05
-2.8704047e-06
-1.6311856e-06
1.020801e-05
-3.0419383e-06
-1.4245095e-06
1.063898e-05
-3.3155332e-06
-1.3762516e-06
1.2149065e-05
-3.3431042e-06
-1.7591122e-06
-2.4577179e-06
-2.6980856e-06
9.2800827e-06
-2.0561993e-07
1.8221995e-08
9.2610071e-06
-2.7227876e-07
3.3355754e-08
9.2370901e-06
-2.8585619e-07
4.2190993e-08
9.2150381e-06
-2.8819578e-07
4.5591286e-08
9.2027223e-06
-2.8526109e-07
4.4667159e-08
9.2014359e-06
-2.7863503e-07
3.9166053e-08
9.2083946e-06
-2.7271703e-07
2.7912412e-08
9.2205491e-06
-2.7197116e-07
9.0430461e-09
9.235018e-06
-2.8048174e-07
-1.9741275e-08
9.2511316e-06
-3.0510289e-07
-6.2595043e-08
9.2639456e-06
-3.5958457e-07
-1.262357e-07
9.2637146e-06
-4.6637306e-07
-2.1823077e-07
9.2488612e-06
-6.6923054e-07
-3.4356004e-07
9.2275222e-06
-1.0548552e-06
-4.9680045e-07
9.2426997e-06
-1.7058248e-06
-6.330274e-07
9.198555e-06
-2.3193842e-06
-6.6838874e-07
8.8903451e-06
-2.3793929e-06
-6.6013662e-07
8.5100391e-06
-2.2162009e-06
-7.3295997e-07
8.0974967e-06
-1.820321e-06
-8.9922326e-07
7.6113714e-06
-1.357379e-06
-1.1373302e-06
7.0523742e-06
-1.0355762e-06
-1.3893179e-06
6.4763069e-06
-9.0185803e-07
-1.5555662e-06
5.9154352e-06
-9.191742e-07
-1.5620076e-06
5.4154122e-06
-1.0374581e-06
-1.410344e-06
5.0196913e-06
-1.2504815e-06
-1.1558912e-06
4.7653778e-06
-1.5851295e-06
-7.7537552e-07
4.8166453e-06
-2.0661572e-06
-5.5067165e-07
5.4258029e-06
-2.640666e-06
-6.3948038e-07
6.7924816e-06
-2.9206801e-06
-1.3229351e-06
-2.0121181e-06
-3.0480726e-06
9.081114e-06
1.7790446e-08
8.8390378e-06
3.2388814e-08
8.588059e-06
4.0745503e-08
8.3374837e-06
4.3739746e-08
8.0927365e-06
4.2478612e-08
7.8578375e-06
3.6744399e-08
7.632994e-06
2.5365499e-08
7.4156083e-06
6.235237e-09
7.2007985e-06
-2.2459813e-08
6.9830081e-06
-6.5870592e-08
6.7519716e-06
-1.3203038e-07
6.4733139e-06
-2.3525487e-07
6.1005578e-06
-3.9840059e-07
5.5355039e-06
-6.7163215e-07
4.6854854e-06
-1.1175631e-06
3.7988524e-06
-1.602061e-06
3.3289794e-06
-1.5842828e-06
3.1556419e-06
-6.9832445e-07
3.1787163e-06
7.5629039e-07
3.3183919e-06
2.0104943e-06
3.6089928e-06
2.7077026e-06
3.9551866e-06
3.0141053e-06
4.2591872e-06
3.0930619e-06
4.4333079e-06
3.0451909e-06
4.3916034e-06
2.8879778e-06
4.1572996e-06
2.4538134e-06
3.9888456e-06
1.4665895e-06
3.7459496e-06
4.2313659e-07
3.5282748e-06
-8.5982208e-07
-3.4457967e-06
9.5594936e-06
-2.8018517e-07
6.2336964e-09
9.8305042e-06
-2.5417046e-07
1.0953886e-08
1.0097963e-05
-2.4824316e-07
1.3225663e-08
1.0328748e-05
-2.1166364e-07
1.3437839e-08
1.0511836e-05
-1.6537565e-07
1.2129939e-08
1.0651597e-05
-1.2439755e-07
9.5787833e-09
1.0755401e-05
-9.1583224e-08
5.8297562e-09
1.0829543e-05
-6.5770262e-08
1.1849104e-09
1.0878207e-05
-4.6026669e-08
-5.0425953e-09
1.0907991e-05
-3.1781149e-08
-1.2614406e-08
1.0924751e-05
-2.4741742e-08
-2.1531852e-08
1.0939414e-05
-2.9152094e-08
-3.102948e-08
1.09746e-05
-5.6498864e-08
-3.8360024e-08
1.112048e-05
-1.7413678e-07
-4.1649433e-08
1.1404711e-05
-3.2549176e-07
-2.4697052e-08
1.1732354e-05
-3.8537682e-07
2.3008607e-08
1.1989429e-05
-3.1028085e-07
8.9266963e-08
1.2158971e-05
-2.1831078e-07
1.6824835e-07
1.2284019e-05
-2.0145421e-07
2.5903145e-07
1.2396826e-05
-2.5293762e-07
3.6246106e-07
1.2519215e-05
-3.5054479e-07
4.8369691e-07
1.2661248e-05
-4.6848389e-07
6.2361063e-07
1.2810392e-05
-5.7584754e-07
7.8430571e-07
1.2943521e-05
-6.5929165e-07
9.6524438e-07
1.3050533e-05
-7.2511598e-07
1.1518016e-06
1.3113766e-05
-7.4319396e-07
1.3102579e-06
1.2997939e-05
-5.5949719e-07
1.3858194e-06
1.2434258e-05
-4.3177619e-08
1.312079e-06
1.075921e-05
1.1474211e-06
9.4224737e-07
3.3433567e-06
3.0153971e-07
9.2125457e-06
-2.1262978e-07
6.8394547e-09
9.3000564e-06
-3.2214162e-07
1.320533e-08
9.4201012e-06
-3.4459628e-07
1.7074887e-08
9.5794112e-06
-3.4611788e-07
1.8247123e-08
9.7711163e-06
-3.330126e-07
1.6990274e-08
9.9806024e-06
-3.126056e-07
1.3262803e-08
1.0197284e-05
-2.9238532e-07
6.6815885e-09
1.0414513e-05
-2.7643071e-07
-3.4120393e-09
1.0630788e-05
-2.6749937e-07
-1.8996048e-08
1.0846028e-05
-2.7049674e-07
-4.0625539e-08
1.1067133e-05
-2.9531167e-07
-7.0297519e-08
1.1315184e-05
-3.6331194e-07
-1.0826878e-07
1.1638675e-05
-5.1883865e-07
-1.4890694e-07
1.2089446e-05
-8.3902828e-07
-1.7645124e-07
1.2713184e-05
-1.2510403e-06
-1.7014852e-07
1.3276713e-05
-1.3249727e-06
-1.3590885e-07
1.360084e-05
-1.0735389e-06
-1.3215668e-07
1.3743206e-05
-9.0150942e-07
-1.7079064e-07
1.3763321e-05
-9.1608482e-07
-2.3753054e-07
1.3681207e-05
-1.0160678e-06
-3.4734346e-07
1.3534923e-05
-1.1670428e-06
-4.8420472e-07
1.3347847e-05
-1.3266855e-06
-6.1043031e-07
1.310282e-05
-1.4395099e-06
-6.8102113e-07
1.2774709e-05
-1.5017486e-06
-6.6413954e-07
1.2407221e-05
-1.5701401e-06
-5.7304756e-07
1.2168882e-05
-1.6719021e-06
-4.6254278e-07
1.2134277e-05
-1.4569643e-06
-4.8890442e-07
1.1985774e-05
-5.0541729e-07
-7.5956691e-07
1.1271829e-05
1.274868e-06
-1.1752377e-06
3.4889763e-06
-1.8260126e-06
9.2732514e-06
-2.0557777e-07
6.8799895e-09
9.2433842e-06
-2.7223144e-07
1.3314169e-08
9.2090217e-06
-2.8544183e-07
1.7400512e-08
9.1765529e-06
-2.8689917e-07
1.8843252e-08
9.1528515e-06
-2.8239194e-07
1.774984e-08
9.1386245e-06
-2.7311155e-07
1.3901299e-08
9.1302687e-06
-2.6287141e-07
6.7568188e-09
9.1231716e-06
-2.5541779e-07
-4.8698226e-09
9.1136657e-06
-2.5385544e-07
-2.3876444e-08
9.0960239e-06
-2.63749e-07
-5.1697813e-08
9.0648638e-06
-2.975582e-07
-9.282572e-08
9.019074e-06
-3.8361933e-07
-1.5212944e-07
8.9784771e-06
-5.9166682e-07
-2.3012961e-07
9.0218864e-06
-1.0814278e-06
-2.977989e-07
9.2659367e-06
-1.8123911e-06
-3.1582834e-07
9.310755e-06
-1.7989251e-06
-2.3966165e-07
8.7747037e-06
-9.633978e-07
-2.3482587e-07
8.0408205e-06
-5.8404489e-07
-3.1733478e-07
7.3344519e-06
-6.3988131e-07
-4.7006706e-07
6.6005809e-06
-6.9140183e-07
-7.2949316e-07
5.8493447e-06
-7.8764878e-07
-1.0194306e-06
5.0862233e-06
-9.2505278e-07
-1.1967428e-06
4.3271095e-06
-1.1114112e-06
-1.1345696e-06
3.5492941e-06
-1.304188e-06
-8.3418113e-07
2.8390406e-06
-1.5600444e-06
-4.5780651e-07
2.5866768e-06
-1.9960841e-06
-1.9297223e-07
3.108219e-06
-2.1059612e-06
-4.1244535e-07
4.1506655e-06
-1.1524574e-06
-1.0198566e-06
4.8147256e-06
9.8348129e-07
-1.682276e-06
3.1346783e-06
-2.302142e-06
9.0744858e-06
6.6799725e-09
8.8218281e-06
1.2816588e-08
8.5605471e-06
1.6586101e-08
8.2996963e-06
1.7692781e-08
8.043563e-06
1.622157e-08
7.7952485e-06
1.1948795e-08
7.5533115e-06
4.4325887e-09
7.3127429e-06
-8.6125011e-09
7.0659652e-06
-2.9536125e-08
6.7979443e-06
-6.1597481e-08
6.4806844e-06
-1.1232767e-07
6.0572714e-06
-1.9546048e-07
5.4056931e-06
-3.384856e-07
4.2595208e-06
-6.0689087e-07
2.4650309e-06
-1.1364384e-06
4.867722e-07
-1.4234289e-06
-9.6905333e-07
-1.0974676e-06
-1.5344048e-06
-7.1921178e-07
-1.4343358e-06
1.3344902e-08
-8.6234759e-07
7.4445856e-07
-1.9823973e-07
1.2543972e-06
3.5795536e-07
1.5324832e-06
6.6291474e-07
1.6769589e-06
6.3418158e-07
1.7710207e-06
9.4860277e-08
1.8705889e-06
-1.1483944e-06
1.723157e-06
-2.4414795e-06
6.8473017e-07
-2.5640128e-06
-5.5851741e-07
-1.2107218e-06
-1.1620514e-06
5.5937752e-07
9.55653e-06
-2.8050238e-07
-7.7576167e-10
9.8236389e-06
-2.5463585e-07
-1.4479232e-09
1.0087747e-05
-2.4868051e-07
-2.1016331e-09
1.0315916e-05
-2.1183091e-07
-2.7738842e-09
1.0496736e-05
-1.6505502e-07
-3.4843887e-09
1.0634161e-05
-1.2342975e-07
-4.247791e-09
1.0735129e-05
-8.9890992e-08
-5.0635923e-09
1.0805729e-05
-6.3312699e-08
-5.9065677e-09
1.0850451e-05
-4.2735821e-08
-6.8256966e-09
1.0874569e-05
-2.8722882e-08
-7.7975969e-09
1.0886353e-05
-2.4127231e-08
-8.9594568e-09
1.0902779e-05
-3.6371248e-08
-1.0818955e-08
1.0964238e-05
-8.3901893e-08
-1.5578039e-08
1.1199394e-05
-2.4768728e-07
-2.8680437e-08
1.1579579e-05
-3.4671277e-07
-5.7793291e-08
1.1937062e-05
-2.404886e-07
-9.3816935e-08
1.2199159e-05
-4.589279e-08
-1.2701256e-07
1.2392768e-05
1.3566866e-07
-1.610348e-07
1.2560064e-05
2.9612325e-07
-2.0431791e-07
1.2742314e-05
4.4179862e-07
-2.6142821e-07
1.2972711e-05
5.8973094e-07
-3.361683e-07
1.325341e-05
7.7269565e-07
-4.2942061e-07
1.3545967e-05
1.0272885e-06
-5.3511153e-07
1.3781068e-05
1.3713009e-06
-6.4073708e-07
1.3878657e-05
1.7790535e-06
-7.2451211e-07
1.372155e-05
2.2343912e-06
-7.6681313e-07
1.3103195e-05
2.7573381e-06
-7.5298254e-07
1.1681039e-05
3.4024701e-06
-6.6797075e-07
8.9073938e-06
4.2152457e-06
-4.9891566e-07
5.5780162e-06
-2.8142591e-07
9.2085109e-06
-2.1266858e-07
-5.3450734e-10
9.2902638e-06
-3.2223843e-07
-9.4013946e-10
9.404521e-06
-3.4459134e-07
-1.2630514e-09
9.5582701e-06
-3.4578793e-07
-1.5324579e-09
9.7440701e-06
-3.3209746e-07
-1.7510047e-09
9.9466117e-06
-3.1076943e-07
-1.9191581e-09
1.0154727e-05
-2.8926481e-07
-2.0365598e-09
1.0361745e-05
-2.7160291e-07
-2.1142643e-09
1.0563139e-05
-2.6095299e-07
-2.1415565e-09
1.0759378e-05
-2.6337376e-07
-2.1749947e-09
1.09602e-05
-2.9265722e-07
-2.5351545e-09
1.1199994e-05
-3.7991155e-07
-4.4406189e-09
1.157048e-05
-5.894099e-07
-1.3743294e-08
1.217699e-05
-9.8887977e-07
-4.1548227e-08
1.2918713e-05
-1.1613521e-06
-9.7188831e-08
1.3465238e-05
-7.8795814e-07
-1.3505456e-07
1.3870777e-05
-4.4014224e-07
-1.4362222e-07
1.4200859e-05
-2.1941009e-07
-1.4665466e-07
1.4468542e-05
-5.0140016e-08
-1.6036628e-07
1.471756e-05
2.5240294e-08
-1.8092823e-07
1.501023e-05
1.9091615e-08
-2.064109e-07
1.5363326e-05
4.0211188e-08
-2.2938597e-07
1.5726445e-05
2.3587946e-07
-2.4867884e-07
1.5966445e-05
7.3863625e-07
-2.6541117e-07
1.6021947e-05
1.4249191e-06
-2.6736789e-07
1.576491e-05
2.2849475e-06
-2.4909205e-07
1.4931564e-05
3.3158502e-06
-2.0808071e-07
1.3081019e-05
4.6133167e-06
-1.1522913e-07
9.8076999e-06
6.2280959e-06
8.7418651e-08
8.2103952e-06
3.7975357e-07
9.269259e-06
-2.0556976e-07
-5.1647372e-10
9.2334936e-06
-2.7225929e-07
-8.9816733e-10
9.1928717e-06
-2.8538797e-07
-1.1793622e-09
9.1539177e-06
-2.8661765e-07
-1.3712543e-09
9.1227811e-06
-2.8175279e-07
-1.4562431e-09
9.0993002e-06
-2.7197434e-07
-1.4104945e-09
9.0790871e-06
-2.6108583e-07
-1.2063934e-09
9.0561297e-06
-2.5268506e-07
-8.272047e-10
9.0215978e-06
-2.504769e-07
1.8288454e-10
8.965851e-06
-2.6146204e-07
2.1417216e-09
8.8776943e-06
-3.0245826e-07
5.137906e-09
8.7535289e-06
-4.1655723e-07
8.6916134e-09
8.6489645e-06
-7.2247945e-07
7.5240352e-09
8.8739634e-06
-1.4907082e-06
-2.0998366e-08
9.3910919e-06
-1.8799162e-06
-1.1585365e-07
9.2030429e-06
-6.7388954e-07
-1.669924e-07
8.9346501e-06
-2.6506821e-07
-1.4245099e-07
8.4628598e-06
1.3110531e-08
-7.9176755e-08
7.8481753e-06
1.1427619e-07
-2.102956e-08
7.1270309e-06
-2.3778036e-08
3.996693e-08
6.2622995e-06
-2.2725507e-07
9.1255524e-08
5.5459791e-06
-5.5821083e-07
1.1835922e-07
5.4090741e-06
-8.439586e-07
8.0410948e-08
6.1639708e-06
-8.9285907e-07
3.6606051e-08
7.7041561e-06
-6.0488935e-07
2.3892353e-08
9.3553898e-06
2.3194944e-07
2.016718e-07
1.0169098e-05
1.5340538e-06
5.5048358e-07
9.5719593e-06
3.4342278e-06
7.5316363e-07
7.2308446e-06
6.0438799e-06
8.4071294e-07
1.1922542e-05
8.1607326e-07
9.0705678e-06
-5.0451866e-10
8.8120017e-06
-8.7512648e-10
8.5443472e-06
-1.1458712e-09
8.2767447e-06
-1.3209245e-09
8.0125883e-06
-1.3732978e-09
7.7538285e-06
-1.2643092e-09
7.4981186e-06
-9.4171748e-10
7.237093e-06
-2.7043557e-10
6.9552572e-06
1.8242876e-09
6.6263529e-06
5.8463073e-09
6.197456e-06
1.4112307e-08
5.5542378e-06
3.1201555e-08
4.4271776e-06
6.6090586e-08
2.1996187e-06
1.2959903e-07
-9.1248806e-07
8.6083385e-08
-3.0327486e-06
1.877007e-08
-4.4841487e-06
8.5529371e-08
-5.3812775e-06
1.8828257e-07
-5.5569958e-06
2.9975941e-07
-5.169289e-06
3.2776011e-07
-4.4431848e-06
2.9565454e-07
-3.7327562e-06
2.5878362e-07
-3.1838425e-06
2.7929777e-07
-2.6944009e-06
3.8448824e-07
-2.0065407e-06
5.7520109e-07
-8.3318665e-07
7.8459932e-07
3.779068e-07
1.016119e-06
1.9847263e-06
1.288413e-06
6.0572541e-06
8.4832827e-07
-2.0546501e-06
9.5564263e-06
-2.8047603e-07
-7.7081464e-09
9.8234334e-06
-2.546719e-07
-1.3712538e-08
1.0087441e-05
-2.4877066e-07
-1.7239559e-08
1.0315529e-05
-2.1197587e-07
-1.8760222e-08
1.0496332e-05
-1.6526002e-07
-1.8877845e-08
1.0633868e-05
-1.2368159e-07
-1.7933537e-08
1.0735148e-05
-9.0150556e-08
-1.6009315e-08
1.0806005e-05
-6.3461746e-08
-1.3104997e-08
1.0850993e-05
-4.2314365e-08
-9.2921967e-09
1.0874997e-05
-2.6725633e-08
-4.8545718e-09
1.0885491e-05
-1.8503124e-08
-7.0345957e-10
1.0893498e-05
-2.2615469e-08
4.0720404e-09
1.0927238e-05
-5.3039784e-08
4.0271656e-09
1.1100482e-05
-1.9840646e-07
-3.2784664e-09
1.1454556e-05
-3.8514222e-07
-2.6696903e-08
1.1815907e-05
-3.6850405e-07
-8.6719025e-08
1.2061816e-05
-1.989702e-07
-1.7399616e-07
1.2201246e-05
-3.3698219e-08
-2.6686959e-07
1.2290171e-05
6.6946349e-08
-3.6037749e-07
1.2371207e-05
1.1324181e-07
-4.5601271e-07
1.2490057e-05
1.006846e-07
-5.5618791e-07
1.2679895e-05
4.7089727e-08
-6.6708617e-07
1.293296e-05
9.1162766e-09
-7.983422e-07
1.3221942e-05
2.3951579e-08
-9.5503912e-07
1.3466749e-05
1.6470089e-07
-1.1356591e-06
1.3537404e-05
4.7485556e-07
-1.3141609e-06
1.3220483e-05
9.84593e-07
-1.4226861e-06
1.2179931e-05
1.7419589e-06
-1.3715835e-06
9.8899783e-06
2.8700035e-06
-1.0812261e-06
4.832366e-06
-4.0799986e-07
9.2085117e-06
-2.1265666e-07
-7.8947905e-09
9.290217e-06
-3.2223498e-07
-1.5077579e-08
9.4044375e-06
-3.4461031e-07
-1.9635419e-08
9.5582082e-06
-3.4581779e-07
-2.1448678e-08
9.7441633e-06
-3.3211529e-07
-2.0834123e-08
9.9470977e-06
-3.1070546e-07
-1.7808489e-08
1.0155894e-05
-2.8896407e-07
-1.1993188e-08
1.0364008e-05
-2.707689e-07
-2.8880827e-09
1.0567262e-05
-2.5864863e-07
1.0980327e-08
1.0765641e-05
-2.5750631e-07
3.027824e-08
1.0966115e-05
-2.7789354e-07
5.6445413e-08
1.1193246e-05
-3.4382546e-07
8.9714187e-08
1.1509199e-05
-5.0870692e-07
1.260413e-07
1.1991807e-05
-8.7339843e-07
1.5084828e-07
1.2740069e-05
-1.3639599e-06
1.332192e-07
1.3280902e-05
-1.1019424e-06
5.7498463e-08
1.3624485e-05
-7.091974e-07
2.3065213e-08
1.3836994e-05
-4.5163967e-07
5.8862154e-08
1.395189e-05
-3.6089055e-07
1.5232406e-07
1.3969221e-05
-3.7596595e-07
2.9019192e-07
1.3932846e-05
-5.3766138e-07
4.6717238e-07
1.3868495e-05
-7.6647209e-07
6.4750837e-07
1.3806314e-05
-9.5042615e-07
7.732173e-07
1.3800016e-05
-1.0251674e-06
7.9048633e-07
1.3938384e-05
-9.160346e-07
6.7177768e-07
1.4165332e-05
-4.8347241e-07
4.7085016e-07
1.4072371e-05
4.5336037e-07
3.9277272e-07
1.3033399e-05
1.9728625e-06
6.5970878e-07
1.0882078e-05
3.8270421e-06
1.24621e-06
6.0335417e-06
1.9156221e-06
9.2692569e-06
-2.0556689e-07
-7.9017959e-09
9.2334943e-06
-2.7225733e-07
-1.5111735e-08
9.1929189e-06
-2.8539007e-07
-1.9822715e-08
9.1541414e-06
-2.8661383e-07
-2.179583e-08
9.1234474e-06
-2.8171165e-07
-2.1163809e-08
9.1008823e-06
-2.7181768e-07
-1.7730612e-08
9.0822351e-06
-2.6063862e-07
-1.0881693e-08
9.0624554e-06
-2.5162665e-07
-1.8584459e-10
9.0338426e-06
-2.4805636e-07
1.8208116e-08
8.9891446e-06
-2.5508937e-07
4.4428895e-08
8.9193072e-06
-2.8558741e-07
8.267707e-08
8.8175348e-06
-3.7052465e-07
1.3717393e-07
8.6964571e-06
-5.905975e-07
2.1050427e-07
8.6692483e-06
-1.1608982e-06
2.9370672e-07
9.2147665e-06
-2.3550309e-06
3.2960291e-07
8.9197142e-06
-1.1567949e-06
1.8395186e-07
8.4815166e-06
-5.5551472e-07
1.4321742e-07
7.9000126e-06
-1.9617133e-07
2.4777905e-07
7.1292554e-06
-6.6817673e-08
4.5671883e-07
6.2081883e-06
-1.5178789e-07
7.3854379e-07
5.1102247e-06
-3.9755736e-07
1.0521383e-06
3.9277531e-06
-7.3703309e-07
1.276748e-06
2.8835426e-06
-1.1010509e-06
1.2836412e-06
2.2605424e-06
-1.3992263e-06
1.0444917e-06
2.456331e-06
-1.6473753e-06
5.7100861e-07
3.6804124e-06
-1.6625812e-06
1.68052e-07
5.2939114e-06
-8.0550061e-07
2.1036715e-07
6.284287e-06
8.2024051e-07
9.1737018e-07
6.0344336e-06
2.740383e-06
2.1669468e-06
5.0427274e-06
3.2090858e-06
9.0705601e-06
-7.6783733e-09
8.812001e-06
-1.457194e-08
8.5444212e-06
-1.8954644e-08
8.2770693e-06
-2.0581357e-08
8.0135411e-06
-1.9555242e-08
7.7561136e-06
-1.5652967e-08
7.5027839e-06
-8.2491367e-09
7.24681e-06
4.0785225e-09
6.9763023e-06
2.4277312e-08
6.6721592e-06
5.4901964e-08
6.2979124e-06
1.0277387e-07
5.7784822e-06
1.8010962e-07
4.9427059e-06
3.1127018e-07
3.3599822e-06
5.5136105e-07
7.8243989e-08
1.0120488e-06
-2.5480688e-06
1.4993926e-06
-4.3034739e-06
1.289725e-06
-5.3712669e-06
1.0640246e-06
-5.753613e-06
6.1979169e-07
-5.3111924e-06
-2.6121127e-07
-4.5240732e-06
-8.8268419e-07
-3.7666082e-06
-1.2286855e-06
-3.2399962e-06
-1.3410454e-06
-2.9029535e-06
-1.3447669e-06
-2.7041445e-06
-1.2645263e-06
-2.5430938e-06
-1.0311083e-06
-2.4084223e-06
9.1306092e-08
-1.67805e-06
1.41412e-06
-6.8842028e-07
2.6468732e-06
3.8633742e-06
9.5591607e-06
-2.800878e-07
-1.7763405e-08
9.8297988e-06
-2.5422497e-07
-3.0055294e-08
1.0096823e-05
-2.484393e-07
-3.5725718e-08
1.0327098e-05
-2.1202117e-07
-3.6889169e-08
1.0509613e-05
-1.6596336e-07
-3.5282489e-08
1.0648699e-05
-1.2525868e-07
-3.1597996e-08
1.0751665e-05
-9.2734196e-08
-2.606663e-08
1.0825113e-05
-6.7129184e-08
-1.9242997e-08
1.0873614e-05
-4.7476624e-08
-1.0134257e-08
1.0900111e-05
-3.3556537e-08
2.3809067e-09
1.0911434e-05
-2.5906075e-08
1.4036518e-08
1.0916127e-05
-2.7900699e-08
2.7401605e-08
1.0930503e-05
-4.9779915e-08
3.9488961e-08
1.1037597e-05
-1.603254e-07
4.9866518e-08
1.129261e-05
-3.349355e-07
5.2884622e-08
1.1629632e-05
-4.562744e-07
3.1935796e-08
1.1915888e-05
-4.3216859e-07
-2.8793806e-08
1.2097175e-05
-3.5346048e-07
-9.5523578e-08
1.2213439e-05
-3.3118997e-07
-1.4658494e-07
1.230541e-05
-3.9224842e-07
-1.574577e-07
1.2402001e-05
-5.1533438e-07
-1.4003918e-07
1.2517493e-05
-6.7273577e-07
-1.1349067e-07
1.2651972e-05
-8.4150825e-07
-9.597661e-08
1.2783111e-05
-1.00147e-06
-9.0297797e-08
1.2892239e-05
-1.1477882e-06