/*--------------------------------*- C++ -*----------------------------------*\
| =========                 |                                                 |
| \\      /  F ield         | OpenFOAM: The Open Source CFD Toolbox           |
|  \\    /   O peration     | Version:  v2012                                 |
|   \\  /    A nd           | Website:  www.openfoam.com                      |
|    \\/     M anipulation  |                                                 |
\*---------------------------------------------------------------------------*/
FoamFile
{
    version     2.0;
    format      ascii;
    class       volScalarField;
    location    "280/topAir";
    object      rho;
}
// * * * * * * * * * * * * * * * * * * * * * * * * * * * * * * * * * * * * * //

dimensions      [1 -3 0 0 0 0 0];


internalField   nonuniform List<scalar> 
1200
(
1.0813696
1.0184219
0.96744835
0.92475906
0.88790068
0.85538166
0.82632207
0.80033239
0.77762854
0.75782641
0.74071553
0.72623941
0.71463866
0.71193402
0.71205315
0.71517957
0.72090906
0.72825757
0.7360745
0.74343966
0.74980951
0.75494058
0.75875476
0.76122911
0.76234037
0.76203138
0.760145
0.75629084
0.74959488
0.73892652
1.1568385
1.1534852
1.148919
1.1433643
1.1369881
1.1299208
1.1222828
1.1140018
1.1028118
1.0881543
1.0682539
1.0418243
1.00903
0.97433075
0.94147787
0.91360381
0.89175859
0.87554455
0.86417876
0.85692691
0.85294392
0.85118017
0.85056694
0.85014726
0.84910477
0.84667866
0.84197667
0.83365372
0.81934081
0.79669996
1.1585803
1.158468
1.1582596
1.1579347
1.1574759
1.1568684
1.1561004
1.1551579
1.15397
1.1524529
1.1503973
1.1448323
1.1295917
1.101707
1.0645888
1.0241469
0.98535606
0.95187955
0.92460426
0.90346028
0.88786997
0.87688942
0.86939034
0.86424518
0.86043865
0.85707907
0.85331081
0.84808763
0.83960785
0.82518911
1.158618
1.1586143
1.1586054
1.1585878
1.1585575
1.1585093
1.158437
1.1583335
1.158188
1.1579843
1.1576869
1.1570938
1.1552917
1.1455038
1.117309
1.0771139
1.036536
1.000142
0.96878037
0.94259223
0.92148875
0.90507654
0.89264573
0.88332698
0.87625802
0.8706619
0.86582783
0.86097589
0.85489316
0.84562152
1.0813821
1.0190727
0.96916249
0.92785511
0.89269866
0.86225158
0.83567773
0.81252239
0.79260147
0.77596554
0.76282195
0.75349678
0.74847498
0.75532262
0.7661234
0.7797695
0.7940653
0.80658187
0.81606877
0.82261795
0.82701243
0.82995194
0.83178975
0.83254968
0.83209812
0.83024221
0.82663823
0.82045893
0.80971506
0.79252772
1.1568408
1.1535502
1.1491562
1.1439158
1.1380279
1.1316575
1.1249635
1.1181205
1.1113159
1.1047903
1.0988241
1.0937661
1.089997
1.0881516
1.088075
1.0885971
1.0878075
1.0843494
1.0784948
1.0712295
1.0632829
1.0547734
1.045591
1.0355203
1.0243634
1.0120233
0.99854823
0.98417906
0.96865751
0.94599268
1.1585804
1.1584712
1.1582735
1.1579735
1.1575614
1.1570311
1.1563808
1.1556142
1.1547405
1.1537785
1.1527579
1.1516612
1.1504297
1.1491625
1.1468355
1.1409783
1.1288056
1.1095224
1.087075
1.0653585
1.0464683
1.0285663
1.011479
0.99507861
0.97939756
0.96395976
0.94790584
0.93120009
0.91382702
0.89519608
1.158618
1.1586144
1.1586061
1.1585903
1.1585638
1.1585232
1.1584646
1.1583839
1.1582768
1.1581385
1.1579616
1.1577189
1.1572545
1.155433
1.1480507
1.1285391
1.0955289
1.0567302
1.0191708
0.98601681
0.95872986
0.93839465
0.92275936
0.91007572
0.89934047
0.89044302
0.88320944
0.8769139
0.87073133
0.86400784
1.0813861
1.0189622
0.96891997
0.92747004
0.89214544
0.86148831
0.83461035
0.81091773
0.79006122
0.77189775
0.75646006
0.74396247
0.73504536
0.73896311
0.74795425
0.76202039
0.77921762
0.79702637
0.81371461
0.82831616
0.84053605
0.85033609
0.85756121
0.86193823
0.86330605
0.86177183
0.8575567
0.85050838
0.83855523
0.81509666
1.1568405
1.1535388
1.1491248
1.1438592
1.1379396
1.1315249
1.1247561
1.1177714
1.1107222
1.1038002
1.0972572
1.0914456
1.0868992
1.0846791
1.0852409
1.0873356
1.0883739
1.087262
1.0837166
1.0779279
1.0702516
1.0607308
1.049063
1.0350067
1.0186904
1.000523
0.98090342
0.96039753
0.93729809
0.90785438
1.1585804
1.1584707
1.158272
1.1579705
1.157557
1.1570257
1.1563747
1.1556062
1.1547282
1.153757
1.1527248
1.1516879
1.1507437
1.1500132
1.1488954
1.1436857
1.1320588
1.1183176
1.103355
1.0877141
1.0718887
1.0548449
1.0351165
1.0124853
0.98803454
0.96346095
0.94040921
0.92016369
0.90068165
0.87499059
1.158618
1.1586144
1.158606
1.1585901
1.1585637
1.1585233
1.1584652
1.1583858
1.1582813
1.158148
1.1579828
1.157782
1.1575265
1.1569598
1.1530773
1.1340567
1.1003217
1.0771123
1.0498224
1.0164177
0.98578582
0.96164261
0.94302291
0.92817092
0.91579259
0.9052369
0.89619226
0.88834556
0.8755056
0.84835153
1.0813863
1.0189248
0.96880114
0.92722475
0.89170463
0.86073722
0.8333671
0.80893613
0.78697688
0.76715027
0.74925768
0.73327417
0.7197178
0.71885245
0.72089042
0.72345711
0.7239243
0.72239129
0.72047109
0.71934983
0.71968445
0.72162624
0.72480007
0.72864223
0.73268039
0.73608457
0.73646795
0.73044374
0.72043098
0.7065321
1.1568404
1.1535345
1.1491072
1.1438148
1.1378479
1.1313521
1.1244464
1.1172347
1.1098174
1.1023122
1.0948905
1.0878581
1.0818177
1.0780975
1.0766492
1.0746663
1.0709762
1.0663441
1.0611993
1.0553377
1.0482214
1.0391263
1.0274528
1.0132187
0.99690078
0.97867829
0.95850184
0.93660932
0.8933123
0.82658726
1.1585804
1.1584705
1.158271
1.1579676
1.1575503
1.1570121
1.1563488
1.1555592
1.1546456
1.1536164
1.1524936
1.151331
1.1502499
1.1493124
1.1458551
1.1335774
1.1199174
1.109936
1.1003124
1.0891754
1.074831
1.0557441
1.0312745
1.003196
0.97396382
0.94378051
0.91474874
0.89212815
0.87101741
0.83121306
1.158618
1.1586144
1.158606
1.15859
1.1585632
1.1585222
1.1584631
1.1583817
1.1582738
1.1581346
1.1579593
1.1577406
1.1574219
1.1560534
1.1411927
1.0877409
1.0298274
1.0203669
1.024456
1.0097483
0.98812875
0.96661387
0.949485
0.93521307
0.92197203
0.90394076
0.88054973
0.85895019
0.8379362
0.80752595
1.0813986
1.0189337
0.96879467
0.92719533
0.89164495
0.86063719
0.83321371
0.80871283
0.78666114
0.76673405
0.74876892
0.73284287
0.71976584
0.72237271
0.7263351
0.72736707
0.72389837
0.71815745
0.71170257
0.7050124
0.698482
0.69245614
0.68720619
0.6829043
0.6795899
0.67708426
0.67477903
0.67149893
0.66560957
0.6550341
1.1568406
1.1535336
1.1491016
1.1437996
1.1378171
1.1312975
1.1243564
1.1170939
1.1096069
1.1020135
1.0945093
1.0874854
1.0817493
1.07875
1.0762322
1.0717377
1.0659759
1.0550866
1.0391213
1.0198743
0.99836974
0.97470938
0.94853225
0.91976303
0.88921443
0.85800275
0.82665189
0.79463036
0.76090933
0.72195716
1.1585804
1.1584704
1.1582706
1.1579664
1.1575474
1.1570061
1.1563379
1.1555405
1.1546151
1.1535695
1.1524278
1.1512591
1.150219
1.1489526
1.1384719
1.1247331
1.1160296
1.1108478
1.1050059
1.0974983
1.0848038
1.0636841
1.0336232
0.9991501
0.96661416
0.93630346
0.90352338
0.8664111
0.82253565
0.76966805
1.158618
1.1586144
1.1586059
1.1585899
1.158563
1.1585217
1.158462
1.1583795
1.1582696
1.158127
1.1579455
1.1577112
1.1572638
1.1535989
1.1023407
1.0063391
0.98938759
0.98284342
0.97755869
0.97043933
0.96059998
0.94842961
0.93611157
0.92441266
0.91347248
0.90262589
0.89068128
0.8654294
0.82530754
0.78279671
1.08142
1.0189706
0.96884497
0.92725943
0.89172479
0.86073476
0.83333095
0.808844
0.78678993
0.76682721
0.74875473
0.73256181
0.71889025
0.72064619
0.72556389
0.72903316
0.72808784
0.7225832
0.71585303
0.70900977
0.70242756
0.69643445
0.69131382
0.68726976
0.68439745
0.68257572
0.68118703
0.67890955
0.67389507
0.66425798
1.1568412
1.1535351
1.1491045
1.1438044
1.1378243
1.1313076
1.1243699
1.1171099
1.1096202
1.1020077
1.094437
1.0872249
1.0810499
1.0775386
1.0766778
1.0733802
1.0683697
1.0624839
1.0540441
1.0441592
1.0350087
1.0273333
1.0194602
1.0088659
0.99242051
0.96861018
0.93607126
0.8935177
0.83962824
0.7749658
1.1585804
1.1584704
1.1582707
1.1579666
1.1575477
1.1570068
1.1563389
1.1555418
1.1546165
1.1535691
1.1524189
1.1512198
1.1501069
1.149217
1.1457234
1.127057
1.1143774
1.1066973
1.1004924
1.0920126
1.0779137
1.0556122
1.0249414
0.99010525
0.9576493
0.93446063
0.92233491
0.90600659
0.8709264
0.81575449
1.158618
1.1586144
1.1586059
1.1585899
1.158563
1.1585217
1.1584621
1.1583797
1.15827
1.1581279
1.1579476
1.1577208
1.1573965
1.1561566
1.1422853
1.0207811
0.99252398
0.98363615
0.97764209
0.97192541
0.96392807
0.95183548
0.93843563
0.92441275
0.91028299
0.89630988
0.88266794
0.87050917
0.84892565
0.8079741
1.0814445
1.0190263
0.9689391
0.92739887
0.89192027
0.86099645
0.83366952
0.8092768
0.78734615
0.76754225
0.74964629
0.73359228
0.71983243
0.7186419
0.72086627
0.72478256
0.72731407
0.72769761
0.72721867
0.72721391
0.72842268
0.73106969
0.73504246
0.73988351
0.74509662
0.74999496
0.75243818
0.74828118
0.73417682
0.71946027
1.1568418
1.1535386
1.1491151
1.1438275
1.1378669
1.1313788
1.1244821
1.1172799
1.1098704
1.1023653
1.0949204
1.0878028
1.0815474
1.0774995
1.0764031
1.075529
1.0726556
1.0684649
1.0636816
1.0584196
1.0523553
1.0449992
1.0357589
1.0241066
1.0096445
0.99195004
0.9712367
0.9508321
0.92292891
0.85863733
1.1585804
1.1584706
1.1582713
1.1579682
1.1575513
1.1570136
1.156351
1.1555623
1.1546495
1.1536201
1.1524932
1.151314
1.150188
1.1492969
1.1478379
1.1369523
1.1204471
1.1076503
1.0972505
1.0861163
1.0716959
1.052628
1.0283577
1.0006103
0.97221004
0.94407458
0.91557859
0.8974273
0.88360697
0.85564487
1.158618
1.1586144
1.158606
1.15859
1.1585633
1.1585223
1.1584633
1.158382
1.1582742
1.1581354
1.1579608
1.1577448
1.1574668
1.156828
1.1513762
1.1022133
1.0381985
1.0156687
1.017283
1.015244
0.99463508
0.97162441
0.95491804
0.94027076
0.92667657
0.91173569
0.88828027
0.86857731
0.85153779
0.82539208
1.0814711
1.0191104
0.96912022
0.9277201
0.8924449
0.86183368
0.83499694
0.81134436
0.7905182
0.77236014
0.75690538
0.74434723
0.73528266
0.73897389
0.74775207
0.76200417
0.77991214
0.79843558
0.81553268
0.83016139
0.84200523
0.85112068
0.85758952
0.86138594
0.86250165
0.86107019
0.85727968
0.85102738
0.84055313
0.81824602
1.1568426
1.1535448
1.1491362
1.1438773
1.137966
1.1315606
1.1248022
1.1178282
1.1107878
1.103868
1.0973129
1.091456
1.0867993
1.0843844
1.0848606
1.0873541
1.0890173
1.0882296
1.0848284
1.079128
1.0716031
1.0624764
1.051604
1.0387495
1.0238578
1.0070925
0.98863006
0.9691155
0.94867347
0.92366082
1.1585805
1.1584708
1.1582724
1.1579713
1.1575583
1.1570277
1.1563776
1.1556102
1.1547332
1.1537624
1.1527282
1.1516839
1.1507191
1.149976
1.1492942
1.1453292
1.1341238
1.1194511
1.103994
1.0881311
1.072225
1.0554602
1.0364591
1.0149072
0.99180497
0.96881767
0.94700083
0.92734801
0.90933819
0.88906408
1.158618
1.1586144
1.158606
1.1585902
1.1585638
1.1585234
1.1584654
1.1583861
1.1582818
1.1581489
1.1579841
1.1577843
1.1575387
1.157135
1.1552222
1.1402515
1.1065664
1.0777908
1.0523128
1.0205086
0.99034645
0.96592561
0.94697017
0.93191007
0.91944056
0.90877191
0.89954144
0.89150454
0.88062392
0.86036443
1.0814895
1.0192585
0.96941113
0.92816089
0.89305721
0.86265943
0.83612664
0.81299438
0.79308032
0.77643607
0.76326205
0.75387814
0.74874923
0.75543671
0.76595899
0.77929646
0.79348271
0.80613497
0.81588199
0.82265982
0.82714075
0.82999938
0.83163857
0.8321677
0.83152399
0.82955397
0.82592551
0.81979289
0.8092686
0.79325324
1.1568434
1.1535577
1.1491703
1.143938
1.1380594
1.1316994
1.1250161
1.1181831
1.1113856
1.1048641
1.0988922
1.0938114
1.0899853
1.0880252
1.087786
1.0882149
1.0875846
1.0844487
1.0789199
1.0719274
1.0642427
1.0560675
1.0473591
1.0379456
1.0276121
1.0161817
1.0035917
0.99002607
0.97544415
0.95178627
1.1585805
1.1584714
1.1582741
1.1579745
1.1575629
1.1570334
1.156384
1.1556184
1.1547458
1.1537844
1.1527635
1.1516621
1.1504113
1.1491018
1.146746
1.1409794
1.1293938
1.1107795
1.0887492
1.0672073
1.0484507
1.0309749
1.0143557
0.99836555
0.98293212
0.96787736
0.9522077
0.93555185
0.9179119
0.89888931
1.158618
1.1586144
1.1586061
1.1585903
1.1585639
1.1585234
1.1584648
1.1583842
1.1582773
1.1581392
1.1579627
1.1577195
1.1572475
1.1553491
1.1476786
1.1276984
1.094669
1.056364
1.019703
0.98732989
0.96048695
0.94017566
0.92467144
0.91217148
0.90164584
0.89271268
0.88543876
0.87910707
0.8728933
0.86611667
1.0814886
1.0186283
0.96772492
0.92509663
0.8882913
0.85581607
0.82678602
0.80079304
0.77807458
0.75824704
0.74109954
0.72657923
0.71492849
0.71219563
0.71227061
0.71534626
0.72106057
0.72845995
0.73638645
0.74388968
0.75039096
0.75562019
0.75949512
0.76201143
0.76317446
0.76295077
0.76119789
0.75753105
0.75110943
0.74093233
1.1568414
1.1534936
1.1489349
1.1433895
1.137024
1.1299681
1.1223423
1.1141193
1.1029975
1.0884017
1.0685589
1.0421153
1.0091911
0.9742827
0.94124214
0.91333385
0.89167171
0.87576874
0.86471338
0.85771355
0.85394676
0.85241302
0.85208552
0.8520247
0.85138931
0.84935826
0.84496285
0.83676016
0.82230105
0.79944371
1.1585804
1.1584683
1.1582602
1.1579358
1.1574777
1.1568712
1.1561043
1.1551641
1.1539801
1.1524682
1.1504193
1.1448677
1.1295019
1.1013348
1.0638575
1.0232606
0.98443126
0.9511978
0.92431093
0.90356105
0.88831146
0.87762141
0.87039232
0.86552568
0.86201679
0.8589637
0.85548322
0.85048998
0.842151
0.82782908
1.158618
1.1586143
1.1586054
1.1585879
1.1585576
1.1585094
1.1584373
1.158334
1.1581888
1.1579858
1.1576894
1.1570967
1.1552741
1.145188
1.1164279
1.0759153
1.0352907
0.99920077
0.96834204
0.94265847
0.92196093
0.90584491
0.89363739
0.88451179
0.87763162
0.87222544
0.86757975
0.86291003
0.85700935
0.84794361
)
;

boundaryField
{
    maxY
    {
        type            calculated;
        value           nonuniform List<scalar> 
300
(
1.1586175
1.1586175
1.1586175
1.1586175
1.1586175
1.1586175
1.1586175
1.1586175
1.1586175
1.1586175
1.1586138
1.1586139
1.1586139
1.1586139
1.1586139
1.1586139
1.1586139
1.1586139
1.1586139
1.1586138
1.1586048
1.1586056
1.1586055
1.1586054
1.1586054
1.1586054
1.1586055
1.1586055
1.1586056
1.1586049
1.1585873
1.1585897
1.1585896
1.1585894
1.1585894
1.1585894
1.1585895
1.1585896
1.1585898
1.1585874
1.158557
1.1585633
1.1585632
1.1585627
1.1585625
1.1585625
1.1585628
1.1585632
1.1585634
1.1585571
1.1585087
1.1585227
1.1585227
1.1585217
1.1585212
1.1585212
1.1585218
1.1585228
1.1585228
1.1585089
1.1584365
1.1584641
1.1584647
1.1584626
1.1584614
1.1584615
1.1584627
1.1584649
1.1584643
1.1584368
1.158333
1.1583833
1.1583853
1.1583812
1.158379
1.1583792
1.1583815
1.1583856
1.1583837
1.1583334
1.1581874
1.1582762
1.1582807
1.1582732
1.1582691
1.1582695
1.1582737
1.1582813
1.1582768
1.1581883
1.1579838
1.1581379
1.1581475
1.1581341
1.1581265
1.1581274
1.1581349
1.1581483
1.1581387
1.1579853
1.1576864
1.1579611
1.1579823
1.1579588
1.157945
1.1579471
1.1579602
1.1579836
1.1579621
1.1576888
1.1570933
1.1577184
1.1577814
1.15774
1.1577107
1.1577203
1.1577442
1.1577838
1.157719
1.1570962
1.1552912
1.157254
1.157526
1.1574213
1.1572633
1.1573959
1.1574663
1.1575382
1.157247
1.1552736
1.1455033
1.1554324
1.1569593
1.1560529
1.1535984
1.1561561
1.1568275
1.1571345
1.1553486
1.1451875
1.1173085
1.1480502
1.1530768
1.1411922
1.1023402
1.1422848
1.1513756
1.1552217
1.1476781
1.1164274
1.0771134
1.1285386
1.1340561
1.0877405
1.0063388
1.0207807
1.1022128
1.140251
1.1276979
1.0759148
1.0365356
1.0955284
1.1003213
1.0298269
0.98938721
0.99252359
1.0381981
1.1065659
1.0946685
1.0352903
1.0001416
1.0567297
1.0771119
1.0203665
0.98284305
0.98363577
1.0156683
1.0777904
1.0563636
0.99920038
0.96878
1.0191704
1.0498219
1.0244556
0.97755832
0.97764172
1.0172826
1.0523123
1.0197026
0.96834167
0.94259188
0.98601643
1.0164173
1.0097479
0.97043896
0.97192504
1.0152436
1.0205082
0.98732951
0.94265812
0.92148842
0.9587295
0.98578544
0.98812836
0.96059962
0.96392771
0.99463469
0.99034607
0.96048659
0.9219606
0.90507622
0.9383943
0.96164225
0.9666135
0.94842926
0.95183513
0.97162404
0.96592525
0.94017531
0.90584459
0.89264542
0.92275902
0.94302257
0.94948465
0.93611123
0.93843529
0.95491768
0.94696981
0.92467111
0.89363708
0.88332667
0.91007539
0.92817058
0.93521273
0.92441233
0.92441242
0.94027041
0.93190973
0.91217115
0.88451148
0.87625772
0.89934015
0.91579226
0.92197169
0.91347216
0.91028266
0.92667623
0.91944023
0.90164552
0.87763131
0.8706616
0.89044271
0.90523658
0.90394044
0.90262557
0.89630956
0.91173536
0.90877158
0.89271237
0.87222514
0.86582754
0.88320913
0.89619194
0.88054943
0.89068096
0.88266763
0.88827996
0.89954113
0.88543845
0.86757945
0.8609756
0.8769136
0.88834525
0.8589499
0.8654291
0.87050887
0.86857702
0.89150423
0.87910677
0.86290974
0.85489287
0.87073104
0.8755053
0.83793593
0.82530727
0.84892537
0.8515375
0.88062362
0.872893
0.85700906
0.84562124
0.86400754
0.84835125
0.80752569
0.78279647
0.80797384
0.82539182
0.86036414
0.86611638
0.84794333
)
;
    }
    minX
    {
        type            calculated;
        value           nonuniform List<scalar> 
40
(
1.1586221
1.1586211
1.15862
1.158619
1.1586221
1.1586211
1.15862
1.158619
1.1586221
1.1586211
1.15862
1.158619
1.1586221
1.1586211
1.15862
1.158619
1.1586221
1.1586211
1.15862
1.158619
1.1586221
1.1586211
1.15862
1.158619
1.1586221
1.1586211
1.15862
1.158619
1.1586221
1.1586211
1.15862
1.158619
1.1586221
1.1586211
1.15862
1.158619
1.1586221
1.1586211
1.15862
1.158619
)
;
    }
    maxX
    {
        type            calculated;
        value           nonuniform List<scalar> 
40
(
0.73878199
0.79647656
0.82504108
0.84555361
0.79229658
0.94584493
0.89518136
0.86395252
0.81480669
0.90806723
0.87568612
0.849991
0.70651307
0.82630873
0.8314072
0.80835316
0.65503901
0.72190346
0.7695663
1.1586179
0.66418811
0.77414357
0.81518815
0.8082737
0.71929944
0.85817533
0.85560066
0.8264467
0.81811098
0.923686
0.88932884
0.86111562
0.79309976
0.95162762
0.8987402
0.86603322
0.7408142
0.79923275
0.82767944
0.84785903
)
;
    }
    minZ
    {
        type            calculated;
        value           nonuniform List<scalar> 
120
(
1.0813696
1.1568385
1.1585803
1.158618
1.0184219
1.1534852
1.158468
1.1586143
0.96744835
1.148919
1.1582596
1.1586054
0.92475906
1.1433643
1.1579347
1.1585878
0.88790068
1.1369881
1.1574759
1.1585575
0.85538166
1.1299208
1.1568684
1.1585093
0.82632207
1.1222828
1.1561004
1.158437
0.80033239
1.1140018
1.1551579
1.1583335
0.77762854
1.1028118
1.15397
1.158188
0.75782641
1.0881543
1.1524529
1.1579843
0.74071553
1.0682539
1.1503973
1.1576869
0.72623941
1.0418243
1.1448323
1.1570938
0.71463866
1.00903
1.1295917
1.1552917
0.71193402
0.97433075
1.101707
1.1455038
0.71205315
0.94147787
1.0645888
1.117309
0.71517957
0.91360381
1.0241469
1.0771139
0.72090906
0.89175859
0.98535606
1.036536
0.72825757
0.87554455
0.95187955
1.000142
0.7360745
0.86417876
0.92460426
0.96878037
0.74343966
0.85692691
0.90346028
0.94259223
0.74980951
0.85294392
0.88786997
0.92148875
0.75494058
0.85118017
0.87688942
0.90507654
0.75875476
0.85056694
0.86939034
0.89264573
0.76122911
0.85014726
0.86424518
0.88332698
0.76234037
0.84910477
0.86043865
0.87625802
0.76203138
0.84667866
0.85707907
0.8706619
0.760145
0.84197667
0.85331081
0.86582783
0.75629084
0.83365372
0.84808763
0.86097589
0.74959488
0.81934081
0.83960785
0.85489316
0.73892652
0.79669996
0.82518911
0.84562152
)
;
    }
    maxZ
    {
        type            calculated;
        value           nonuniform List<scalar> 
120
(
1.0814886
1.1568414
1.1585804
1.158618
1.0186283
1.1534936
1.1584683
1.1586143
0.96772492
1.1489349
1.1582602
1.1586054
0.92509663
1.1433895
1.1579358
1.1585879
0.8882913
1.137024
1.1574777
1.1585576
0.85581607
1.1299681
1.1568712
1.1585094
0.82678602
1.1223423
1.1561043
1.1584373
0.80079304
1.1141193
1.1551641
1.158334
0.77807458
1.1029975
1.1539801
1.1581888
0.75824704
1.0884017
1.1524682
1.1579858
0.74109954
1.0685589
1.1504193
1.1576894
0.72657923
1.0421153
1.1448677
1.1570967
0.71492849
1.0091911
1.1295019
1.1552741
0.71219563
0.9742827
1.1013348
1.145188
0.71227061
0.94124214
1.0638575
1.1164279
0.71534626
0.91333385
1.0232606
1.0759153
0.72106057
0.89167171
0.98443126
1.0352907
0.72845995
0.87576874
0.9511978
0.99920077
0.73638645
0.86471338
0.92431093
0.96834204
0.74388968
0.85771355
0.90356105
0.94265847
0.75039096
0.85394676
0.88831146
0.92196093
0.75562019
0.85241302
0.87762141
0.90584491
0.75949512
0.85208552
0.87039232
0.89363739
0.76201143
0.8520247
0.86552568
0.88451179
0.76317446
0.85138931
0.86201679
0.87763162
0.76295077
0.84935826
0.8589637
0.87222544
0.76119789
0.84496285
0.85548322
0.86757975
0.75753105
0.83676016
0.85048998
0.86291003
0.75110943
0.82230105
0.842151
0.85700935
0.74093233
0.79944371
0.82782908
0.84794361
)
;
    }
    topAir_to_rightSolid
    {
        type            calculated;
        value           nonuniform List<scalar> 
130
(
0.47897018
0.4741537
0.46924241
0.46448539
0.46007074
0.45609557
0.45260613
0.44961505
0.44713772
0.44517908
0.44372334
0.4427569
0.44227411
0.48253399
0.47683721
0.47117759
0.46583798
0.46099838
0.45672775
0.45304164
0.44992609
0.44736374
0.44534838
0.44385687
0.4428691
0.44237567
0.48987708
0.48210271
0.47481279
0.4682934
0.46263423
0.45781637
0.45377578
0.45044292
0.44774693
0.44563952
0.44409248
0.4430758
0.44256732
0.50130377
0.48942733
0.47942106
0.47117803
0.4644627
0.45899402
0.45455136
0.45097244
0.44813105
0.44593635
0.44433391
0.44328307
0.44275855
0.51556487
0.49663604
0.4833373
0.47344702
0.46584305
0.45987426
0.45514311
0.45139369
0.44845313
0.44619904
0.44455725
0.4434835
0.44295017
0.51571478
0.49678641
0.48349003
0.47361407
0.46601642
0.46005219
0.4553245
0.45157535
0.44863487
0.44638231
0.44473787
0.4436599
0.44312436
0.50175669
0.4898579
0.47986466
0.47166276
0.46496558
0.4595042
0.45506666
0.45148753
0.4486542
0.44647184
0.44486914
0.44381259
0.44328684
0.49047832
0.48275659
0.47551801
0.46905006
0.46342238
0.45861324
0.45457964
0.45125492
0.44857615
0.44649314
0.44496405
0.44395677
0.44345181
0.48320832
0.4776041
0.4720317
0.46677418
0.46198625
0.45773745
0.45406559
0.45096837
0.44843386
0.44644538
0.44497772
0.44401127
0.4435306
0.47968045
0.47496754
0.47015385
0.46548747
0.46113723
0.45720344
0.45373955
0.4507776
0.44832966
0.44639825
0.44496756
0.44402451
0.44355663
)
;
    }
    topAir_to_heater
    {
        type            calculated;
        value           nonuniform List<scalar> 
40
(
0.49092697
0.48959341
0.48701258
0.48337416
0.49697656
0.49537526
0.49225666
0.48784525
0.51022489
0.50804772
0.50371889
0.49745859
0.53347003
0.53049146
0.52416663
0.51423916
0.57171387
0.56864403
0.56058674
0.5449285
0.57187228
0.56879774
0.56073662
0.54507542
0.53389812
0.53094563
0.52463133
0.51470324
0.51065671
0.5085367
0.50424507
0.49801454
0.49736692
0.49582746
0.49278172
0.48843855
0.49130285
0.49004443
0.48754597
0.48398762
)
;
    }
    topAir_to_leftSolid
    {
        type            calculated;
        value           nonuniform List<scalar> 
130
(
0.42097096
0.42097635
0.4209957
0.42103552
0.42109975
0.4211907
0.42131186
0.42145918
0.42162817
0.42181133
0.42199889
0.42214347
0.42223056
0.42095565
0.42096417
0.42099016
0.42103802
0.42111156
0.42121172
0.42133883
0.42149741
0.42167539
0.42186455
0.42205069
0.42219249
0.42228685
0.42094526
0.42095659
0.42099162
0.42105276
0.42114396
0.42126357
0.42140673
0.42158045
0.42177968
0.42197857
0.42214701
0.42228313
0.42238494
0.4209463
0.42096619
0.42101258
0.42108947
0.42119847
0.42133805
0.42150807
0.42170812
0.42193387
0.42213899
0.42230968
0.422442
0.42252485
0.42098603
0.42101242
0.42106972
0.42116033
0.42128892
0.42145157
0.42164791
0.42187292
0.42211304
0.42232319
0.4224997
0.42263718
0.42272452
0.42106633
0.4210949
0.42116012
0.42126664
0.42141796
0.42160596
0.42183493
0.42205484
0.42226898
0.42246544
0.42263689
0.42277231
0.42285892
0.42116578
0.42119706
0.42126705
0.42138182
0.42155081
0.42172887
0.42191594
0.42210339
0.42228564
0.42245924
0.42261834
0.42274478
0.42281411
0.42126565
0.42129617
0.42136395
0.42147585
0.42161739
0.4217655
0.42192113
0.42207581
0.42222379
0.42236589
0.42248602
0.42257472
0.42262422
0.42136064
0.42138644
0.42144595
0.42154078
0.42164694
0.42176799
0.42189709
0.42202238
0.42214456
0.42226259
0.42236105
0.42243202
0.42247175
0.42141954
0.42144369
0.42149736
0.42157315
0.4216602
0.42175808
0.42186226
0.42196874
0.42207655
0.42218156
0.42226881
0.42233315
0.42236892
)
;
    }
}


// ************************************************************************* //
