/*--------------------------------*- C++ -*----------------------------------*\
| =========                 |                                                 |
| \\      /  F ield         | OpenFOAM: The Open Source CFD Toolbox           |
|  \\    /   O peration     | Version:  v2012                                 |
|   \\  /    A nd           | Website:  www.openfoam.com                      |
|    \\/     M anipulation  |                                                 |
\*---------------------------------------------------------------------------*/
FoamFile
{
    version     2.0;
    format      ascii;
    class       volScalarField;
    location    "650/leftSolid";
    object      T;
}
// * * * * * * * * * * * * * * * * * * * * * * * * * * * * * * * * * * * * * //

dimensions      [0 0 0 1 0 0 0];


internalField   nonuniform List<scalar> 
130
(
922.95548
922.88564
922.77243
922.6321
922.46318
922.26258
922.02744
921.75193
921.47247
921.20081
920.94571
920.71786
920.55974
923.08704
923.01481
922.87958
922.71274
922.51517
922.28431
922.02307
921.73492
921.44303
921.16606
920.90946
920.67711
920.496
923.28509
923.2179
923.0777
922.88608
922.66825
922.41117
922.12545
921.81598
921.50276
921.21128
920.93426
920.66238
920.48872
923.4845
923.42914
923.31486
923.1439
922.91263
922.61411
922.31184
921.99903
921.66656
921.35516
921.07252
920.82082
920.63756
923.62176
923.57753
923.47798
923.32515
923.11553
922.84283
922.52824
922.19593
921.85627
921.52428
921.22959
920.98586
920.79514
923.71735
923.68019
923.59475
923.45679
923.26455
923.01772
922.72436
922.39535
922.05866
921.72067
921.41772
921.19074
921.01924
923.78955
923.75505
923.6761
923.54617
923.35877
923.12674
922.87075
922.57993
922.27634
921.96497
921.68403
921.46637
921.27342
923.85514
923.81887
923.73773
923.61077
923.44883
923.25262
923.02757
922.77571
922.50458
922.25496
922.03786
921.85785
921.70445
923.91422
923.87602
923.79927
923.6922
923.55701
923.38964
923.19969
922.9878
922.76142
922.54036
922.35501
922.21349
922.12744
923.94649
923.90798
923.83994
923.7442
923.62898
923.48305
923.31326
923.11948
922.90923
922.70968
922.53571
922.40755
922.33556
)
;

boundaryField
{
    minX
    {
        type            zeroGradient;
    }
    minZ
    {
        type            zeroGradient;
    }
    maxZ
    {
        type            zeroGradient;
    }
    leftSolid_to_bottomWater
    {
        type            compressible::turbulentTemperatureCoupledBaffleMixed;
        refValue        nonuniform List<scalar> 
130
(
961.96676
958.19714
955.86778
955.68033
956.1197
956.45016
956.79255
952.36525
950.69677
949.58199
948.83151
945.99677
939.29054
964.88664
962.82341
957.27935
954.95676
953.82175
952.36818
951.00113
947.81973
945.31499
944.54175
944.62373
943.14093
929.706
967.36954
966.72818
962.82344
956.03078
954.99903
953.63014
951.88714
948.33285
944.98354
945.10245
944.56195
932.16523
925.71003
968.62627
967.94273
967.1816
966.34669
964.25382
953.7414
952.4387
952.5714
947.37194
945.76128
945.34432
942.23143
931.75215
966.61149
966.73285
965.35893
964.75519
964.44656
961.24673
955.79427
952.09395
949.08241
945.70382
943.8883
943.49508
931.50416
965.54511
965.72374
965.32237
964.79466
964.32978
963.0653
960.50886
954.89011
951.66802
946.6997
940.25714
942.40402
934.5623
965.22756
965.26642
965.09828
964.78398
961.59748
957.92016
958.4845
955.39852
954.33511
948.97241
943.33389
944.81679
926.19739
966.41096
966.08075
964.44917
961.15598
959.84566
958.83121
957.95641
956.71962
951.82054
951.91068
952.52777
953.08848
939.70506
968.0678
966.9687
964.64364
963.35366
962.77991
961.16434
961.0173
960.83586
960.05798
957.30273
957.56399
957.82116
958.17164
968.57938
966.88531
966.07938
964.69077
965.54075
964.61528
964.48783
963.97015
962.05295
961.59698
960.29617
960.05591
960.01487
)
;
        refGradient     uniform 0;
        valueFraction   nonuniform List<scalar> 
130
(
0.0075140686
0.0075140686
0.0075140686
0.0075140686
0.0075140686
0.0075140686
0.0075140686
0.0075140686
0.0075140686
0.0075140686
0.0075140686
0.0075140686
0.0075140686
0.0075140686
0.0075140686
0.0075140686
0.0075140686
0.0075140686
0.0075140686
0.0075140686
0.0075140686
0.0075140686
0.0075140686
0.0075140686
0.0075140686
0.0075140686
0.0075140686
0.0075140686
0.0075140686
0.0075140686
0.0075140686
0.0075140686
0.0075140686
0.0075140686
0.0075140686
0.0075140686
0.0075140686
0.0075140686
0.0075140686
0.0075140686
0.0075140686
0.0075140686
0.0075140686
0.0075140686
0.0075140686
0.0075140686
0.0075140686
0.0075140686
0.0075140686
0.0075140686
0.0075140686
0.0075140686
0.0075140686
0.0075140686
0.0075140686
0.0075140686
0.0075140686
0.0075140686
0.0075140686
0.0075140686
0.0075140686
0.0075140686
0.0075140686
0.0075140686
0.0075140686
0.0075140686
0.0075140686
0.0075140686
0.0075140686
0.0075140686
0.0075140686
0.0075140686
0.0075140686
0.0075140686
0.0075140686
0.0075140686
0.0075140686
0.0075140686
0.0075140686
0.0075140686
0.0075140686
0.0075140686
0.0075140686
0.0075140686
0.0075140686
0.0075140686
0.0075140686
0.0075140686
0.0075140686
0.0075140686
0.0075140686
0.0075140686
0.0075140686
0.0075140686
0.0075140686
0.0075140686
0.0075140686
0.0075140686
0.0075140686
0.0075140686
0.0075140686
0.0075140686
0.0075140686
0.0075140686
0.0075140686
0.0075140686
0.0075140686
0.0075140686
0.0075140686
0.0075140686
0.0075140686
0.0075140686
0.0075140686
0.0075140686
0.0075140686
0.0075140686
0.0075140686
0.0075140686
0.0075140686
0.0075140686
0.0075140686
0.0075140686
0.0075140686
0.0075140686
0.0075140686
0.0075140686
0.0075140686
0.0075140686
0.0075140686
0.0075140686
)
;
        value           nonuniform List<scalar> 
130
(
923.24776
923.15013
923.02032
922.87967
922.71533
922.51873
922.28796
921.98128
921.6914
921.41338
921.15449
920.90693
920.69957
923.40029
923.31308
923.13726
922.9543
922.7497
922.50965
922.24011
921.93025
921.62174
921.34104
921.08696
920.84521
920.56452
923.6155
923.54399
923.37547
923.13435
922.91046
922.64503
922.34837
922.01451
921.67847
921.39008
921.11107
920.74811
920.52728
923.82289
923.76281
923.64367
923.46774
923.2225
922.84728
922.53755
922.22811
921.85906
921.53789
921.25423
920.98098
920.72035
923.944
923.90102
923.79191
923.6357
923.42535
923.13066
922.77751
922.41994
922.06021
921.70527
921.39911
921.1542
920.87471
924.03084
923.99531
923.90749
923.76661
923.57233
923.31785
923.00747
922.63875
922.2804
921.90757
921.55851
921.34933
921.12014
924.10007
924.06612
923.98652
923.85522
923.64529
923.38736
923.13752
922.8257
922.51638
922.16701
921.8458
921.64094
921.30955
924.174
924.13552
924.04276
923.89206
923.72151
923.51913
923.28918
923.02989
922.72396
922.47685
922.266
922.09154
921.83878
924.24504
924.19887
924.10525
923.98934
923.85087
923.67263
923.48299
923.2713
923.04073
922.80059
922.61854
922.47997
922.39718
924.2809
924.22994
924.15635
924.0509
923.94294
923.79118
923.62171
923.42548
923.20234
923.00081
922.81831
922.68926
922.61745
)
;
        Tnbr            T;
        thicknessLayers List<scalar> 0();
        kappaLayers     List<scalar> 0();
        kappaMethod     solidThermo;
        kappa           none;
        alphaAni        none;
        alpha           none;
        field           T;
    }
    leftSolid_to_heater
    {
        type            compressible::turbulentTemperatureCoupledBaffleMixed;
        refValue        nonuniform List<scalar> 10(732.78171 723.45523 703.93493 672.14026 625.33583 625.34832 672.19699 704.2582 723.96688 733.33702);
        refGradient     uniform 0;
        valueFraction   nonuniform List<scalar> 10(2.08329e-05 2.08329e-05 2.08329e-05 2.08329e-05 2.08329e-05 2.08329e-05 2.08329e-05 2.08329e-05 2.08329e-05 2.08329e-05);
        value           nonuniform List<scalar> 10(920.55491 920.49121 920.48353 920.63165 920.78808 921.01221 921.26736 921.69898 922.1222 922.33038);
        Tnbr            T;
        thicknessLayers List<scalar> 1(0.001);
        kappaLayers     List<scalar> 1(0.0005);
        kappaMethod     solidThermo;
        kappa           none;
        alphaAni        none;
        alpha           none;
        field           T;
    }
    leftSolid_to_topAir
    {
        type            compressible::turbulentTemperatureCoupledBaffleMixed;
        refValue        nonuniform List<scalar> 
130
(
325.32079
348.72849
369.90924
389.4746
407.93229
425.58284
442.53
458.6206
473.54483
487.2587
499.626
510.39203
518.99656
325.31974
348.47986
369.17037
388.00278
405.44742
421.74376
436.94732
450.98436
463.62941
474.51675
483.12296
488.80199
490.69011
325.32441
348.5342
369.29264
388.20905
405.76217
422.2055
437.64671
452.10555
465.49248
477.58356
487.95103
495.86124
500.03631
325.33222
348.56549
369.37168
388.36749
406.05031
422.7082
438.50037
453.50901
467.75545
481.14997
493.3895
503.75453
510.95921
325.33681
348.57959
369.40111
388.41785
406.1285
422.82307
438.66136
453.72566
468.01495
481.38753
493.40023
503.08445
509.32358
325.34059
348.58702
369.41229
388.43306
406.1484
422.84927
438.69636
453.77555
468.09667
481.54559
493.74836
503.83991
510.46768
325.34429
348.5892
369.4071
388.41523
406.11142
422.78516
438.59679
453.63177
467.9197
481.39248
493.80407
504.54247
512.31071
325.34717
348.57923
369.3607
388.30193
405.88202
422.35535
437.83118
452.33013
465.76593
477.92792
488.42296
496.59011
501.21705
325.35283
348.54505
369.2682
388.13521
405.61773
421.9558
437.20424
451.28722
463.97805
474.90872
483.56369
489.33351
491.42866
325.36054
348.8072
370.02736
389.63421
408.13706
425.8358
442.82877
458.95632
473.91475
487.65807
500.04947
510.83725
519.47154
)
;
        refGradient     uniform 0;
        valueFraction   nonuniform List<scalar> 
130
(
0.00032132529
0.00032132529
0.00032132529
0.00032132529
0.00032132529
0.00032132529
0.00032132529
0.00032132529
0.00032132529
0.00032132529
0.00032132529
0.00032132529
0.00032132529
0.00032132529
0.00032132529
0.00032132529
0.00032132529
0.00032132529
0.00032132529
0.00032132529
0.00032132529
0.00032132529
0.00032132529
0.00032132529
0.00032132529
0.00032132529
0.00032132529
0.00032132529
0.00032132529
0.00032132529
0.00032132529
0.00032132529
0.00032132529
0.00032132529
0.00032132529
0.00032132529
0.00032132529
0.00032132529
0.00032132529
0.00032132529
0.00032132529
0.00032132529
0.00032132529
0.00032132529
0.00032132529
0.00032132529
0.00032132529
0.00032132529
0.00032132529
0.00032132529
0.00032132529
0.00032132529
0.00032132529
0.00032132529
0.00032132529
0.00032132529
0.00032132529
0.00032132529
0.00032132529
0.00032132529
0.00032132529
0.00032132529
0.00032132529
0.00032132529
0.00032132529
0.00032132529
0.00032132529
0.00032132529
0.00032132529
0.00032132529
0.00032132529
0.00032132529
0.00032132529
0.00032132529
0.00032132529
0.00032132529
0.00032132529
0.00032132529
0.00032132529
0.00032132529
0.00032132529
0.00032132529
0.00032132529
0.00032132529
0.00032132529
0.00032132529
0.00032132529
0.00032132529
0.00032132529
0.00032132529
0.00032132529
0.00032132529
0.00032132529
0.00032132529
0.00032132529
0.00032132529
0.00032132529
0.00032132529
0.00032132529
0.00032132529
0.00032132529
0.00032132529
0.00032132529
0.00032132529
0.00032132529
0.00032132529
0.00032132529
0.00032132529
0.00032132529
0.00032132529
0.00032132529
0.00032132529
0.00032132529
0.00032132529
0.00032132529
0.00032132529
0.00032132529
0.00032132529
0.00032132529
0.00032132529
0.00032132529
0.00032132529
0.00032132529
0.00032132529
0.00032132529
0.00032132529
0.00032132529
0.00032132529
0.00032132529
0.00032132529
)
;
        value           nonuniform List<scalar> 
130
(
922.76259
922.7003
922.59399
922.46002
922.29709
922.10224
921.87265
921.60243
921.32787
921.06068
920.80957
920.58513
920.42979
922.89412
922.82934
922.70085
922.5402
922.3483
922.12276
921.8665
921.58298
921.29525
921.02187
920.76809
920.53763
920.35721
923.0921
923.03239
922.89886
922.71349
922.50143
922.24972
921.96906
921.66432
921.3555
921.068
920.7944
920.52517
920.35294
923.29149
923.24361
923.13606
922.97127
922.74578
922.45275
922.15571
921.84785
921.52005
921.21305
920.93442
920.68608
920.50519
923.42872
923.39198
923.29917
923.15251
922.94865
922.68141
922.37206
922.04475
921.7098
921.38215
921.09138
920.85078
920.66202
923.52426
923.49459
923.41587
923.28407
923.09759
922.8562
922.56802
922.244
921.91204
921.57843
921.27952
921.05582
920.88644
923.5964
923.56938
923.49716
923.3734
923.19175
922.96514
922.7143
922.42841
922.12949
921.8225
921.54562
921.3315
921.14114
923.66191
923.63312
923.55871
923.43792
923.28171
923.09084
922.87081
922.62366
922.35691
922.11124
921.89756
921.72022
921.5684
923.72092
923.6902
923.62015
923.51922
923.38971
923.22766
923.04266
922.83533
922.61306
922.39554
922.21298
922.07331
921.98793
923.75318
923.7222
923.661
923.5716
923.46237
923.32219
923.15793
922.96937
922.76394
922.56881
922.39882
922.27411
922.20487
)
;
        Tnbr            T;
        thicknessLayers List<scalar> 0();
        kappaLayers     List<scalar> 0();
        kappaMethod     solidThermo;
        kappa           none;
        alphaAni        none;
        alpha           none;
        field           T;
    }
}


// ************************************************************************* //
