/*--------------------------------*- C++ -*----------------------------------*\
| =========                 |                                                 |
| \\      /  F ield         | OpenFOAM: The Open Source CFD Toolbox           |
|  \\    /   O peration     | Version:  v2012                                 |
|   \\  /    A nd           | Website:  www.openfoam.com                      |
|    \\/     M anipulation  |                                                 |
\*---------------------------------------------------------------------------*/
FoamFile
{
    version     2.0;
    format      ascii;
    class       volScalarField;
    location    "150/bottomWater";
    object      p;
}
// * * * * * * * * * * * * * * * * * * * * * * * * * * * * * * * * * * * * * //

dimensions      [1 -1 -2 0 0 0 0];


internalField   nonuniform List<scalar> 
1460
(
353.40719
353.40926
353.41099
353.41355
353.4176
353.4178
353.41743
353.41482
353.41543
353.42498
353.41867
353.41735
353.41486
353.42625
353.42754
353.42958
353.43328
353.42661
353.43284
353.4214
353.43145
353.42956
353.42592
353.43171
353.43114
353.43602
353.42888
353.43532
353.42021
353.4262
274.48152
274.50334
274.51936
274.51722
274.52066
274.51191
274.49185
274.44776
274.44803
274.48658
274.45324
274.45663
274.45141
274.49124
274.51039
274.51091
274.50752
274.49772
274.49406
274.44909
274.44376
274.4344
274.45347
274.49562
274.51584
274.52276
274.51308
274.50377
274.45186
274.44998
196.26054
196.24062
196.25979
196.24636
196.246
196.2458
196.22458
196.2533
196.28431
196.25851
196.28802
196.29193
196.27297
196.25846
196.26977
196.27024
196.26104
196.25313
196.23889
196.24941
196.27685
196.26873
196.23674
196.24121
196.25773
196.24869
196.26404
196.22934
196.24267
196.27101
117.67089
117.6697
117.67901
117.69881
117.69928
117.67782
117.65657
117.66207
117.6761
117.6422
117.6697
117.68159
117.6761
117.67536
117.67837
117.68892
117.68791
117.66072
117.65663
117.64517
117.69234
117.68702
117.63701
117.66286
117.6733
117.70692
117.68633
117.6712
117.66736
117.69035
39.238736
39.233372
39.223532
39.232777
39.228748
39.218361
39.23881
39.23521
39.245872
39.245121
39.234482
39.226112
39.23357
39.228502
39.226036
39.231122
39.226813
39.224299
39.247046
39.252954
39.256887
39.261596
39.256321
39.240286
39.229385
39.240408
39.229626
39.247748
39.251994
39.251565
353.40689
353.40293
353.41277
353.40131
353.40276
353.41667
353.41413
353.41427
353.41735
353.41799
353.41752
353.41975
353.42236
353.42257
353.43395
353.43336
353.42676
353.4246
353.42708
353.42823
353.43121
353.43171
353.42086
353.42797
353.42689
353.42827
353.42711
353.41952
353.42322
353.42635
274.4631
274.47009
274.49649
274.47519
274.48276
274.49783
274.47383
274.44497
274.43964
274.46631
274.45808
274.44328
274.43808
274.4438
274.4941
274.49314
274.45561
274.45268
274.43789
274.42852
274.43247
274.43017
274.43748
274.47526
274.50407
274.49245
274.4745
274.4479
274.43781
274.44403
196.26673
196.24677
196.23666
196.2599
196.26157
196.22781
196.23291
196.25515
196.27326
196.28502
196.27755
196.28475
196.26722
196.24202
196.22823
196.23615
196.26311
196.25691
196.26672
196.27418
196.2978
196.27998
196.24062
196.22914
196.24613
196.24953
196.24447
196.24829
196.26706
196.30076
117.6735
117.64337
117.65098
117.66257
117.67329
117.66302
117.65214
117.65843
117.68696
117.62243
117.6481
117.67337
117.66924
117.63113
117.64732
117.64943
117.65673
117.65222
117.65894
117.67106
117.69025
117.69012
117.64526
117.66146
117.66998
117.67982
117.67422
117.65461
117.67294
117.68479
39.245716
39.249514
39.244413
39.233048
39.225181
39.228488
39.242013
39.245981
39.254756
39.270551
39.251963
39.237008
39.244783
39.242739
39.239419
39.230668
39.230841
39.238577
39.242546
39.251618
39.269639
39.268928
39.261463
39.250945
39.238178
39.23392
39.238538
39.252457
39.251718
39.259345
353.40608
353.40403
353.40464
353.40935
353.39689
353.42383
353.4146
353.41946
353.41854
353.40842
353.4347
353.42169
353.43485
353.42954
353.42907
353.43174
353.4333
353.44073
353.42347
353.42559
353.42482
353.42911
353.42135
353.41811
353.43059
353.41987
353.42699
353.42721
353.42846
353.4259
274.46106
274.44889
274.47477
274.46744
274.47141
274.48205
274.45387
274.44106
274.44584
274.45894
274.47705
274.44468
274.43235
274.432
274.43607
274.45034
274.46902
274.48378
274.45563
274.45224
274.44592
274.43535
274.4399
274.4507
274.47307
274.45371
274.43837
274.43982
274.44224
274.43728
196.31241
196.27922
196.27799
196.26932
196.26504
196.2252
196.24807
196.2701
196.27844
196.2757
196.25175
196.27231
196.30141
196.3071
196.288
196.28471
196.29892
196.26438
196.30381
196.29069
196.28007
196.30991
196.27584
196.26426
196.2374
196.26539
196.26667
196.28919
196.2991
196.31728
117.68873
117.68595
117.64767
117.69376
117.6656
117.66625
117.64179
117.68601
117.69644
117.65101
117.67995
117.64133
117.6947
117.67008
117.62987
117.63377
117.62763
117.63322
117.65371
117.66661
117.65078
117.69199
117.68795
117.65684
117.66228
117.65262
117.68874
117.69235
117.67341
117.68704
39.264914
39.258913
39.26315
39.259809
39.239096
39.251007
39.257386
39.259044
39.26546
39.246831
39.255746
39.265491
39.265992
39.264532
39.259832
39.276989
39.269106
39.237774
39.233873
39.238625
39.244547
39.245353
39.239178
39.253387
39.26352
39.253193
39.24044
39.250092
39.263513
39.264456
353.40581
353.4046
353.40229
353.39483
353.41561
353.42083
353.41766
353.4225
353.41965
353.41331
353.4313
353.42568
353.4302
353.4294
353.42795
353.42979
353.43788
353.42608
353.44209
353.43908
353.43698
353.43411
353.41988
353.42529
353.42319
353.42349
353.42283
353.41992
353.42084
353.42019
274.45883
274.45342
274.46774
274.46517
274.49481
274.48618
274.43667
274.44078
274.44504
274.4559
274.49026
274.47279
274.43293
274.43709
274.42322
274.46196
274.48867
274.45219
274.49551
274.49352
274.47527
274.4732
274.45046
274.43198
274.43393
274.43744
274.44619
274.45946
274.45234
274.44437
196.29817
196.27955
196.25043
196.26054
196.229
196.23462
196.24531
196.29918
196.27126
196.27141
196.25272
196.25097
196.28156
196.31273
196.26356
196.26505
196.25429
196.29241
196.24965
196.2461
196.23643
196.23214
196.25355
196.26842
196.29016
196.27713
196.27222
196.26625
196.26362
196.27889
117.6866
117.67937
117.66838
117.66816
117.66748
117.65394
117.66566
117.68749
117.68784
117.66438
117.67492
117.6502
117.67873
117.68278
117.66424
117.6248
117.63915
117.65465
117.69133
117.6894
117.65389
117.66151
117.64852
117.68775
117.68017
117.68432
117.6611
117.65617
117.66043
117.66688
39.258372
39.253809
39.246969
39.238597
39.243329
39.24968
39.253345
39.266285
39.25516
39.247424
39.246135
39.257784
39.257613
39.271416
39.250364
39.258213
39.240829
39.22165
39.224851
39.223145
39.239476
39.249491
39.248341
39.249823
39.254165
39.252978
39.250254
39.253362
39.239024
39.244994
353.40622
353.39968
353.40987
353.41662
353.41418
353.42628
353.41281
353.42211
353.41994
353.41303
353.43518
353.42898
353.43183
353.43402
353.43208
353.4352
353.42626
353.42221
353.41877
353.42045
353.42212
353.41744
353.43261
353.42659
353.43208
353.42378
274.46218
274.46485
274.49419
274.5109
274.51551
274.49926
274.4485
274.44367
274.44708
274.45764
274.49433
274.47708
274.44316
274.44302
274.47676
274.49802
274.47601
274.46313
274.45195
274.44416
274.4403
274.4524
274.49372
274.5051
274.49223
274.46847
196.26926
196.25019
196.2381
196.24276
196.24807
196.22661
196.2341
196.26648
196.27275
196.25369
196.25526
196.24561
196.27877
196.28421
196.26628
196.27004
196.26591
196.30135
196.29242
196.30065
196.2727
196.24598
196.22389
196.25158
196.25816
196.28566
117.68173
117.66442
117.67763
117.69035
117.67242
117.66096
117.64658
117.6904
117.69512
117.66141
117.69045
117.64981
117.68293
117.69643
117.66924
117.67177
117.64472
117.64067
117.64802
117.67673
117.68407
117.64608
117.66084
117.66788
117.68505
117.67511
39.252418
39.25439
39.239419
39.232872
39.233761
39.247871
39.25438
39.259283
39.255963
39.246678
39.236648
39.239157
39.244205
39.259775
39.23907
39.232566
39.251535
39.282272
39.233069
39.252994
39.253136
39.253173
39.248261
39.225254
39.226119
39.234604
353.4157
353.41803
353.42465
353.42416
353.42648
353.42407
353.42395
353.42716
353.42018
353.4302
353.43291
353.43494
353.43609
353.4364
353.43792
353.43965
353.4426
353.429
353.42541
353.43332
353.42659
353.42506
353.4362
353.43531
353.43939
353.44229
274.46486
274.47606
274.51106
274.51989
274.50264
274.46985
274.44488
274.43757
274.45544
274.49478
274.51373
274.49384
274.47298
274.43708
274.43888
274.49005
274.50051
274.45781
274.43185
274.43484
274.43439
274.45906
274.51141
274.51142
274.52269
274.51136
196.25718
196.23271
196.24223
196.2382
196.23764
196.21541
196.25362
196.25725
196.2429
196.22966
196.2663
196.25908
196.27881
196.30463
196.28599
196.24987
196.22916
196.23443
196.25086
196.292
196.25409
196.23123
196.22385
196.25604
196.25833
196.26037
117.67793
117.66541
117.69118
117.69805
117.68352
117.64714
117.67675
117.69087
117.64587
117.65737
117.67515
117.67376
117.66462
117.68574
117.67652
117.67341
117.66103
117.65103
117.66939
117.68748
117.68048
117.66262
117.67325
117.69075
117.70902
117.7034
39.249011
39.245593
39.227018
39.23263
39.225368
39.237221
39.245979
39.260153
39.26016
39.250498
39.232236
39.226732
39.241295
39.245228
39.235017
39.227806
39.245756
39.244531
39.244679
39.264647
39.247615
39.251495
39.239319
39.224384
39.231213
39.232821
353.41553
353.41371
353.41699
353.4244
353.42686
353.42187
353.42055
353.42359
353.41271
353.41293
353.42459
353.41928
353.42909
353.42352
353.42367
353.42697
353.41231
353.43272
353.43141
353.42978
353.42208
353.42001
353.42243
353.42432
353.42252
353.41583
353.41408
353.41302
353.42209
353.41434
274.44737
274.43921
274.46301
274.497
274.4933
274.45279
274.44323
274.44344
274.45165
274.46524
274.50262
274.50508
274.50448
274.4865
274.44025
274.45241
274.45898
274.48098
274.50493
274.48454
274.45518
274.44574
274.43748
274.4338
274.43451
274.45002
274.4617
274.45819
274.48571
274.47708
196.28402
196.2584
196.23777
196.24136
196.23504
196.2358
196.27483
196.28203
196.25647
196.23763
196.24764
196.25436
196.23812
196.23768
196.25766
196.27519
196.24748
196.22159
196.26108
196.24791
196.24457
196.27405
196.29332
196.3053
196.28795
196.27894
196.24967
196.27941
196.25714
196.26972
117.67993
117.67696
117.64612
117.67898
117.6702
117.64859
117.67934
117.6975
117.67401
117.673
117.69968
117.67403
117.66613
117.64168
117.68358
117.69047
117.65546
117.66082
117.6747
117.68373
117.64655
117.66184
117.6813
117.69049
117.6738
117.64687
117.64621
117.65107
117.64661
117.62843
39.251649
39.246069
39.24542
39.229958
39.233276
39.238621
39.252566
39.254535
39.251843
39.242403
39.239372
39.228729
39.235273
39.249272
39.252534
39.261828
39.260852
39.253172
39.234544
39.236166
39.247849
39.254295
39.259285
39.267285
39.256309
39.259517
39.252891
39.234123
39.234541
39.250429
353.42126
353.42019
353.41814
353.41468
353.4364
353.41981
353.41792
353.41934
353.41684
353.41024
353.40574
353.41285
353.42056
353.41972
353.4207
353.42113
353.42003
353.41378
353.42389
353.41629
353.42901
353.42598
353.4258
353.42822
353.43308
353.40548
353.41956
353.41353
353.41784
353.41729
274.4495
274.43951
274.4421
274.46416
274.49375
274.45608
274.43104
274.4388
274.44641
274.44868
274.4599
274.48258
274.49625
274.46699
274.43314
274.44301
274.44348
274.46376
274.47026
274.44486
274.43903
274.4425
274.4412
274.47258
274.49541
274.46338
274.46332
274.44345
274.4444
274.44493
196.31468
196.29517
196.24627
196.24754
196.21742
196.24033
196.24817
196.30047
196.28794
196.25791
196.24816
196.25069
196.24583
196.26
196.26187
196.29475
196.28125
196.28021
196.25565
196.27432
196.28185
196.28055
196.25083
196.25449
196.2272
196.27321
196.2645
196.27572
196.27967
196.29241
117.69741
117.6888
117.68418
117.65824
117.68125
117.65365
117.68801
117.70336
117.70329
117.6794
117.66887
117.66862
117.66548
117.64379
117.67372
117.68978
117.69347
117.65262
117.66205
117.67096
117.70509
117.69496
117.66674
117.66386
117.6705
117.67162
117.68441
117.69303
117.68893
117.699
39.268818
39.261994
39.250712
39.244994
39.248616
39.248247
39.24213
39.246252
39.24368
39.246894
39.247676
39.232381
39.245401
39.252979
39.250379
39.266406
39.258218
39.266801
39.249401
39.244116
39.244697
39.250136
39.247057
39.263591
39.256127
39.247775
39.255385
39.254745
39.25609
39.260172
353.42074
353.41603
353.42079
353.42254
353.42826
353.43111
353.41837
353.41816
353.41795
353.41938
353.41446
353.41042
353.4129
353.41172
353.42711
353.41989
353.41686
353.42256
353.41891
353.42369
353.42094
353.42215
353.42627
353.42688
353.41133
353.41693
353.41773
353.42349
353.42335
353.42308
274.44751
274.44958
274.47632
274.47958
274.51013
274.49986
274.45015
274.44017
274.43706
274.44302
274.44608
274.45105
274.46198
274.46043
274.48329
274.45812
274.44349
274.44506
274.4425
274.43926
274.44297
274.45416
274.48874
274.48722
274.45482
274.45087
274.44854
274.47796
274.45749
274.44814
196.28599
196.25392
196.25137
196.25304
196.24933
196.20842
196.23286
196.24861
196.27901
196.29535
196.27464
196.26925
196.2545
196.26686
196.23085
196.25429
196.25519
196.2708
196.27013
196.28257
196.26974
196.23661
196.2474
196.24213
196.25789
196.28246
196.28741
196.2543
196.27291
196.28402
117.67564
117.64551
117.6358
117.6647
117.67431
117.65384
117.65639
117.66684
117.68461
117.6883
117.68132
117.66458
117.66921
117.66113
117.6571
117.64172
117.66591
117.67543
117.681
117.6892
117.6798
117.66393
117.68127
117.6845
117.67472
117.69245
117.67188
117.65891
117.64694
117.68845
39.251842
39.249388
39.248193
39.22973
39.225076
39.239535
39.24369
39.246462
39.25269
39.259764
39.252057
39.246321
39.24297
39.234042
39.244191
39.251667
39.236658
39.241993
39.243897
39.254355
39.245554
39.247293
39.229452
39.236564
39.234697
39.235711
39.236255
39.258613
39.269671
39.265833
353.4198
353.42056
353.42322
353.42328
353.43041
353.42495
353.41726
353.41974
353.41564
353.41563
353.4117
353.40943
353.42022
353.42171
353.42169
353.42613
353.41512
353.42028
353.41894
353.41869
353.42032
353.42519
353.42441
353.40755
353.41767
353.41576
353.41513
353.41985
353.43114
353.42166
274.46128
274.48245
274.50322
274.51152
274.52708
274.50877
274.47218
274.46664
274.45888
274.44889
274.4509
274.46725
274.5014
274.50835
274.5164
274.51603
274.47371
274.48284
274.47529
274.44878
274.45773
274.49914
274.49957
274.45951
274.45927
274.45332
274.45936
274.48835
274.51014
274.48834
196.26646
196.23774
196.24647
196.25113
196.25023
196.24438
196.25736
196.25595
196.27413
196.27733
196.26364
196.24664
196.23069
196.25588
196.26094
196.24131
196.26464
196.26873
196.25336
196.26631
196.26304
196.2321
196.24286
196.26383
196.28051
196.29284
196.28747
196.25915
196.24574
196.26321
117.67391
117.66128
117.67109
117.68786
117.70876
117.68585
117.66899
117.65066
117.64587
117.68573
117.68045
117.64963
117.66489
117.67524
117.68726
117.65863
117.67859
117.68403
117.65136
117.68854
117.66744
117.67005
117.68234
117.69059
117.70444
117.72122
117.68899
117.677
117.6648
117.65382
39.24097
39.243909
39.232002
39.226531
39.232392
39.217717
39.223965
39.25544
39.261256
39.250362
39.24935
39.25025
39.240032
39.226647
39.233542
39.236821
39.230161
39.227274
39.24035
39.241432
39.243764
39.24969
39.233123
39.239766
39.237815
39.247331
39.236915
39.233483
39.240459
39.254052
)
;

boundaryField
{
    minX
    {
        type            calculated;
        value           nonuniform List<scalar> 
50
(
353.40719
274.48152
196.26054
117.67089
39.238736
353.40689
274.4631
196.26673
117.6735
39.245716
353.40608
274.46106
196.31241
117.68873
39.264914
353.40581
274.45883
196.29817
117.6866
39.258372
353.40622
274.46218
196.26926
117.68173
39.252418
353.4157
274.46486
196.25718
117.67793
39.249011
353.41553
274.44737
196.28402
117.67993
39.251649
353.42126
274.4495
196.31468
117.69741
39.268818
353.42074
274.44751
196.28599
117.67564
39.251842
353.4198
274.46128
196.26646
117.67391
39.24097
)
;
    }
    maxX
    {
        type            calculated;
        value           nonuniform List<scalar> 
50
(
353.4262
274.44998
196.27101
117.69035
39.251565
353.42635
274.44403
196.30076
117.68479
39.259345
353.4259
274.43728
196.31728
117.68704
39.264456
353.42019
274.44437
196.27889
117.66688
39.244994
353.42378
274.46847
196.28566
117.67511
39.234604
353.44229
274.51136
196.26037
117.7034
39.232821
353.41434
274.47708
196.26972
117.62843
39.250429
353.41729
274.44493
196.29241
117.699
39.260172
353.42308
274.44814
196.28402
117.68845
39.265833
353.42166
274.48834
196.26321
117.65382
39.254052
)
;
    }
    minY
    {
        type            calculated;
        value           nonuniform List<scalar> 
292
(
392.4
392.4
392.4
392.4
392.4
392.4
392.4
392.4
392.4
392.4
392.4
392.4
392.4
392.4
392.4
392.4
392.4
392.4
392.4
392.4
392.4
392.4
392.4
392.4
392.4
392.4
392.4
392.4
392.4
392.4
392.4
392.4
392.4
392.4
392.4
392.4
392.4
392.4
392.4
392.4
392.4
392.4
392.4
392.4
392.4
392.4
392.4
392.4
392.4
392.4
392.4
392.4
392.4
392.4
392.4
392.4
392.4
392.4
392.4
392.4
392.4
392.4
392.4
392.4
392.4
392.4
392.4
392.4
392.4
392.4
392.4
392.4
392.4
392.4
392.4
392.4
392.4
392.4
392.4
392.4
392.4
392.4
392.4
392.4
392.4
392.4
392.4
392.4
392.4
392.4
392.4
392.4
392.4
392.4
392.4
392.4
392.4
392.4
392.4
392.4
392.4
392.4
392.4
392.4
392.4
392.4
392.4
392.4
392.4
392.4
392.4
392.4
392.4
392.4
392.4
392.4
392.4
392.4
392.4
392.4
392.4
392.4
392.4
392.4
392.4
392.4
392.4
392.4
392.4
392.4
392.4
392.4
392.4
392.4
392.4
392.4
392.4
392.4
392.4
392.4
392.4
392.4
392.4
392.4
392.4
392.4
392.4
392.4
392.4
392.4
392.4
392.4
392.4
392.4
392.4
392.4
392.4
392.4
392.4
392.4
392.4
392.4
392.4
392.4
392.4
392.4
392.4
392.4
392.4
392.4
392.4
392.4
392.4
392.4
392.4
392.4
392.4
392.4
392.4
392.4
392.4
392.4
392.4
392.4
392.4
392.4
392.4
392.4
392.4
392.4
392.4
392.4
392.4
392.4
392.4
392.4
392.4
392.4
392.4
392.4
392.4
392.4
392.4
392.4
392.4
392.4
392.4
392.4
392.4
392.4
392.4
392.4
392.4
392.4
392.4
392.4
392.4
392.4
392.4
392.4
392.4
392.4
392.4
392.4
392.4
392.4
392.4
392.4
392.4
392.4
392.4
392.4
392.4
392.4
392.4
392.4
392.4
392.4
392.4
392.4
392.4
392.4
392.4
392.4
392.4
392.4
392.4
392.4
392.4
392.4
392.4
392.4
392.4
392.4
392.4
392.4
392.4
392.4
392.4
392.4
392.4
392.4
392.4
392.4
392.4
392.4
392.4
392.4
392.4
392.4
392.4
392.4
392.4
392.4
392.4
392.4
392.4
392.4
392.4
392.4
392.4
392.4
392.4
392.4
392.4
392.4
392.4
392.4
392.4
392.4
392.4
392.4
)
;
    }
    minZ
    {
        type            calculated;
        value           nonuniform List<scalar> 
150
(
353.40719
274.48152
196.26054
117.67089
39.238736
353.40926
274.50334
196.24062
117.6697
39.233372
353.41099
274.51936
196.25979
117.67901
39.223532
353.41355
274.51722
196.24636
117.69881
39.232777
353.4176
274.52066
196.246
117.69928
39.228748
353.4178
274.51191
196.2458
117.67782
39.218361
353.41743
274.49185
196.22458
117.65657
39.23881
353.41482
274.44776
196.2533
117.66207
39.23521
353.41543
274.44803
196.28431
117.6761
39.245872
353.42498
274.48658
196.25851
117.6422
39.245121
353.41867
274.45324
196.28802
117.6697
39.234482
353.41735
274.45663
196.29193
117.68159
39.226112
353.41486
274.45141
196.27297
117.6761
39.23357
353.42625
274.49124
196.25846
117.67536
39.228502
353.42754
274.51039
196.26977
117.67837
39.226036
353.42958
274.51091
196.27024
117.68892
39.231122
353.43328
274.50752
196.26104
117.68791
39.226813
353.42661
274.49772
196.25313
117.66072
39.224299
353.43284
274.49406
196.23889
117.65663
39.247046
353.4214
274.44909
196.24941
117.64517
39.252954
353.43145
274.44376
196.27685
117.69234
39.256887
353.42956
274.4344
196.26873
117.68702
39.261596
353.42592
274.45347
196.23674
117.63701
39.256321
353.43171
274.49562
196.24121
117.66286
39.240286
353.43114
274.51584
196.25773
117.6733
39.229385
353.43602
274.52276
196.24869
117.70692
39.240408
353.42888
274.51308
196.26404
117.68633
39.229626
353.43532
274.50377
196.22934
117.6712
39.247748
353.42021
274.45186
196.24267
117.66736
39.251994
353.4262
274.44998
196.27101
117.69035
39.251565
)
;
    }
    maxZ
    {
        type            calculated;
        value           nonuniform List<scalar> 
150
(
353.4198
274.46128
196.26646
117.67391
39.24097
353.42056
274.48245
196.23774
117.66128
39.243909
353.42322
274.50322
196.24647
117.67109
39.232002
353.42328
274.51152
196.25113
117.68786
39.226531
353.43041
274.52708
196.25023
117.70876
39.232392
353.42495
274.50877
196.24438
117.68585
39.217717
353.41726
274.47218
196.25736
117.66899
39.223965
353.41974
274.46664
196.25595
117.65066
39.25544
353.41564
274.45888
196.27413
117.64587
39.261256
353.41563
274.44889
196.27733
117.68573
39.250362
353.4117
274.4509
196.26364
117.68045
39.24935
353.40943
274.46725
196.24664
117.64963
39.25025
353.42022
274.5014
196.23069
117.66489
39.240032
353.42171
274.50835
196.25588
117.67524
39.226647
353.42169
274.5164
196.26094
117.68726
39.233542
353.42613
274.51603
196.24131
117.65863
39.236821
353.41512
274.47371
196.26464
117.67859
39.230161
353.42028
274.48284
196.26873
117.68403
39.227274
353.41894
274.47529
196.25336
117.65136
39.24035
353.41869
274.44878
196.26631
117.68854
39.241432
353.42032
274.45773
196.26304
117.66744
39.243764
353.42519
274.49914
196.2321
117.67005
39.24969
353.42441
274.49957
196.24286
117.68234
39.233123
353.40755
274.45951
196.26383
117.69059
39.239766
353.41767
274.45927
196.28051
117.70444
39.237815
353.41576
274.45332
196.29284
117.72122
39.247331
353.41513
274.45936
196.28747
117.68899
39.236915
353.41985
274.48835
196.25915
117.677
39.233483
353.43114
274.51014
196.24574
117.6648
39.240459
353.42166
274.48834
196.26321
117.65382
39.254052
)
;
    }
    bottomWater_to_rightSolid
    {
        type            calculated;
        value           nonuniform List<scalar> 
130
(
-0.015701474
0.0070463131
0.012953764
0.016886868
0.021596408
0.016321498
0.00028571453
-0.010615149
0.00040753995
-0.010373571
0.0077480919
0.011993625
0.011565448
-0.0014226302
0.0025459881
0.011617919
0.029638758
0.028927686
0.021463468
0.010945488
-0.0018218245
-0.0060798013
-0.0014615241
0.012457082
0.011717529
0.019345418
-0.0022261693
-0.0061269334
-0.0013753397
0.0045474952
0.005352837
-0.00082153267
0.013386574
0.023519754
0.013193057
0.00043964056
0.010091683
0.02351294
0.024455681
-0.018349656
-0.015148734
-0.016854553
-0.00052408466
0.0094913542
0.0083414041
0.0098230186
0.014164674
0.012977783
0.010254106
0.013362218
-0.00097646801
0.0049937564
0.019774945
-0.00092950151
-0.0074338464
0.011534724
0.042271997
-0.0069308491
0.012994484
0.013136387
0.013172943
0.0082605886
-0.014746058
-0.013881056
-0.0053956727
0.0052283039
-0.0049826889
-0.012193976
0.0057563545
0.0045311577
0.0046791967
0.024647404
0.0076153655
0.011494925
-0.00068110459
-0.015615973
-0.0087874381
-0.0071786111
0.013172225
-0.0054563841
-0.0038343071
0.007849263
0.014294923
0.019284617
0.0272849
0.016308571
0.019516713
0.012891397
-0.0058772672
-0.0054588976
0.010428629
0.026801193
0.0094008898
0.0041155884
0.0046969249
0.010135845
0.0070572373
0.023590899
0.016127063
0.0077751376
0.015385069
0.014745383
0.016089791
0.020171755
0.0019927144
0.0038971883
0.014355288
0.005553593
0.0072927976
-0.010547619
-0.0034357335
-0.005302839
-0.0042890196
-0.0037451935
0.018612695
0.029670585
0.025832553
-0.012725741
0.00034969146
0.0014318979
0.0037643986
0.0096895036
-0.00687722
-0.00023418937
-0.0021853267
0.0073308725
-0.0030847051
-0.0065166909
0.00045884857
0.014051829
)
;
    }
    bottomWater_to_leftSolid
    {
        type            calculated;
        value           nonuniform List<scalar> 
130
(
-0.001264229
-0.0066275465
-0.016467594
-0.007223434
-0.011251917
-0.021639305
-0.0011902572
-0.0047899534
0.0058718782
0.0051210617
-0.0055183968
-0.01388819
-0.0064298589
0.0057160889
0.0095140298
0.0044133751
-0.0069519959
-0.014818843
-0.011512124
0.0020130309
0.0059814282
0.014755716
0.030551188
0.011963374
-0.0029924989
0.0047834261
0.024914323
0.018913315
0.023149718
0.019808667
-0.00090406886
0.011006903
0.017386247
0.019044251
0.02545963
0.0068309002
0.015745737
0.025491023
0.025992046
0.018371788
0.01380915
0.006969313
-0.0014033413
0.0033293364
0.0096799369
0.013344708
0.026284968
0.015160332
0.0074238651
0.0061351476
0.017784088
0.0176125
0.012418492
0.014390208
-0.00058075434
-0.0071276033
-0.0062390572
0.0078710288
0.014379907
0.019283292
0.015962947
0.0066781489
-0.0033524072
-0.00084278485
0.0042052066
0.0090105735
0.0055931377
-0.012981616
-0.0073704753
-0.014631587
-0.0027786195
0.0059794127
0.020153475
0.020160413
0.010497789
-0.0077642076
-0.013268065
0.0012954136
0.011649444
0.0060686659
0.0054202797
-0.010042249
-0.0067242395
-0.0013792517
0.012565731
0.014535309
0.01184274
0.0024032042
-0.00062829211
-0.011270765
-0.0047272434
0.028817723
0.021993868
0.010711876
0.0049936908
0.0086162923
0.0082467294
0.0021302553
0.0062520434
0.0036797403
0.006894384
0.007675739
-0.0076186671
0.0054009005
0.011842255
0.0093883457
0.0081928423
-0.010269836
-0.014924019
-0.00046487073
0.0036903831
0.0064619944
0.012690465
0.019764055
0.012057129
0.0063209707
0.00296957
0.00097044988
0.003908998
-0.0079975014
-0.013469319
-0.0076075991
-0.022282733
-0.016035149
0.015440167
0.021256425
0.010361609
0.0093503015
0.010250144
3.2279604e-05
)
;
    }
    bottomWater_to_heater
    {
        type            calculated;
        value           nonuniform List<scalar> 
92
(
-0.01149841
-0.013964159
-0.0088777224
-0.013186712
0.0027393658
-0.00058128153
-0.0093316051
-0.0091590405
0.024531713
0.019831965
0.036989057
0.02910611
353.4294
353.42795
353.42979
353.43788
274.43709
274.42322
274.46196
274.48867
196.31273
196.26356
196.26505
196.25429
117.68278
117.66424
117.6248
117.63915
0.031416307
39.271416
0.01036366
39.250364
0.018212737
39.258213
0.00082862883
39.240829
353.43183
353.43402
274.44316
274.44302
196.27877
196.28421
117.68293
117.69643
39.244205
39.259775
353.43609
353.42352
353.42367
353.42697
353.4364
353.41231
274.47298
274.4865
274.44025
274.45241
274.43708
274.45898
196.27881
196.23768
196.25766
196.27519
196.30463
196.24748
117.66462
117.64168
117.68358
117.69047
117.68574
117.65546
39.241295
39.249272
39.252534
39.261828
39.245228
39.260852
0.0092719825
0.012533739
0.021827552
0.020852167
0.012979086
0.010378904
0.026406219
0.018217711
-0.0059580951
0.0041905768
0.011667347
-0.0033421546
-0.013352993
-0.0064577476
-0.0031789043
-0.0098385762
)
;
    }
}


// ************************************************************************* //
