/*--------------------------------*- C++ -*----------------------------------*\
| =========                 |                                                 |
| \\      /  F ield         | OpenFOAM: The Open Source CFD Toolbox           |
|  \\    /   O peration     | Version:  v2012                                 |
|   \\  /    A nd           | Website:  www.openfoam.com                      |
|    \\/     M anipulation  |                                                 |
\*---------------------------------------------------------------------------*/
FoamFile
{
    version     2.0;
    format      ascii;
    class       surfaceScalarField;
    location    "150/bottomWater";
    object      phi;
}
// * * * * * * * * * * * * * * * * * * * * * * * * * * * * * * * * * * * * * //

dimensions      [1 0 -1 0 0 0 0];
oriented        oriented;


internalField   nonuniform List<scalar> 
3858
(
-0.0001990381
8.2696428e-05
0.00012008205
-0.00019809274
-0.00012501297
0.00012748501
-0.00011716251
-0.00016862889
9.0606057e-05
-3.2121389e-05
-0.00020837981
0.00012551134
9.7708654e-05
-0.00025461699
0.00012595512
0.00023329697
-0.00016934112
3.4893768e-05
0.00027788043
-0.0001012219
5.7999801e-05
0.00012948611
9.5322944e-05
5.4989698e-05
-5.7838438e-05
0.00014428524
4.4633619e-05
-4.8439111e-05
-7.5423193e-05
6.5058287e-05
-0.00011266368
0.00012802045
-6.3049827e-05
-0.00022212412
0.00013328343
-2.2610089e-05
-0.0002564266
2.3446921e-05
1.2724767e-05
-0.00014192987
-0.00020816873
9.2820718e-05
-3.911033e-05
-0.00017116547
6.6895446e-05
6.5551192e-05
-0.0001833758
7.6689551e-05
0.00016512189
-0.00021825287
0.00011591358
0.00019599421
-0.00012102625
8.9086569e-05
0.00027197798
-0.00017787918
9.9417196e-05
0.00016297181
7.6300229e-05
3.2939395e-05
-3.1732835e-05
0.00012977999
6.2445351e-05
-0.00022920851
0.00012625833
6.9286571e-05
-0.00031980498
2.9207315e-06
8.6849272e-05
-0.00022579591
-0.0001743214
7.8171257e-05
-8.8930344e-05
-0.00020698487
6.7920149e-05
7.2834451e-05
-0.0002785849
0.00011334197
0.00016451694
-0.0002041031
0.00011075854
0.00029328622
-0.00024535123
0.00011354436
0.00020570425
2.4501713e-05
6.3655612e-05
0.00014128291
6.3325133e-05
-0.00030252151
0.00020784777
0.00017737019
-0.00022104053
-0.00035894902
0.00015245508
-8.1465068e-05
-0.00038170665
7.35023e-05
2.3748515e-05
-0.00046907647
0.00015548307
0.0001788127
-0.00054114051
0.00013145933
0.00036484711
-0.00039113809
3.5762552e-05
0.00054665205
-0.00032797288
4.4946027e-05
0.00033511491
0.00026847191
3.838817e-05
1.2738873e-06
0.00041139692
6.6729335e-05
0.00010400762
-0.00027470795
9.6551016e-05
1.8928525e-05
0.00020979585
3.3036803e-06
-0.00020751846
0.00025137656
0.00010835385
-0.000210933
-0.00012602847
0.00015288993
-9.5389733e-05
-0.00051455837
0.00019084636
1.6232322e-05
-0.0003793057
9.6518168e-05
0.00012766623
-0.00040321126
0.00010840155
0.00020857556
-0.0004811894
0.00018202721
0.00021972862
-0.00030631801
0.00017413872
0.00039632618
-0.00047888466
0.00012440794
0.0004316313
-1.6652175e-05
5.7647292e-05
-2.9407385e-05
0.00055844145
3.2377221e-05
-0.00053923972
0.00057456761
6.1523043e-05
-0.00050489317
-0.0001144177
8.2991863e-05
-0.00028171014
-0.00044107844
4.3573987e-05
-0.00012011902
-0.00041709574
4.8519743e-05
6.3298345e-05
-0.00055190634
8.9904073e-05
0.00017322266
-0.00043626969
0.00012224227
0.00037242018
-0.00057798149
0.00013343273
0.00037413893
-7.5545418e-05
9.8328382e-05
0.0004279127
8.7509137e-05
4.3149394e-05
0.00010446908
6.0229321e-05
-1.6446083e-05
-0.00018847288
-0.00011088065
-4.16792e-05
-0.00031407109
-4.2402449e-05
7.76465e-06
-0.00043990857
-7.8611764e-05
9.6060609e-05
-0.00048705052
-0.00014238597
6.0567955e-05
-0.00033713429
-1.851116e-05
-7.1884744e-05
-0.00012109713
-7.442306e-05
1.2214344e-05
0.00018326352
1.1092881e-06
-8.2843047e-06
0.00033450435
9.7391196e-05
-0.00014292235
-8.3550304e-05
-5.6519617e-05
-6.8420704e-05
-3.9470666e-06
0.00013924126
0.00019521539
-0.00010549682
9.3237267e-05
0.00030388152
-0.00026286035
2.8165736e-05
0.00014912013
-0.00028425051
-7.5546488e-05
9.1674056e-05
-0.00030133997
-2.0519664e-05
0.00010592636
-0.00042208336
4.6198019e-06
0.00013412354
-0.00047028554
-3.9101028e-05
5.5539788e-05
-0.00023691517
9.1809392e-06
-0.00023914175
-7.7747121e-05
-0.00010645599
-5.6967678e-05
-6.7354272e-05
-0.00013147198
3.8380391e-05
0.00047703668
-1.3943314e-05
9.17212e-05
0.00052702091
-5.7941272e-06
0.00011750462
-9.7066946e-05
-4.3134197e-05
-6.2785908e-05
-0.00020026639
-6.0521537e-05
-3.809427e-05
-0.00040411474
-3.7672661e-05
-1.4748924e-05
-0.00053297021
-4.2281497e-05
-1.1510417e-05
-0.00035868373
-8.0824479e-05
-0.00026328862
-0.00011938514
-0.00020681815
-0.00015103937
-9.0253172e-05
-9.7541501e-05
0.00030859594
-3.1722608e-05
6.4855605e-05
3.0000436e-05
9.6130769e-06
-1.4691467e-05
-0.00011168327
2.7574839e-06
-5.8695735e-05
-0.00027650815
6.4413317e-06
-3.9093197e-05
-0.00039377675
-6.5734379e-05
7.5311877e-06
-0.00045227015
-8.1404769e-05
9.8340725e-06
-0.00029976717
-3.967002e-05
-0.00013057001
3.2749416e-05
-1.344249e-05
3.1438428e-06
5.6908222e-05
-7.3585751e-06
0.00013660929
0.00015937109
4.1667797e-05
-0.00013007616
8.9971352e-05
9.3163779e-05
-5.7777325e-05
-0.00012493894
4.8693015e-05
0.00017115679
-0.00034758111
1.3150162e-05
0.00017295602
-0.00021039096
-5.4268637e-05
0.00012949413
-0.0002205384
-2.0250241e-05
6.4843129e-05
-0.00028702089
5.0331914e-05
2.55354e-05
-0.00043605735
5.3281729e-05
-4.4802485e-06
-0.000461843
2.1573126e-05
-7.5405833e-05
-0.00019585167
2.9862106e-05
-0.00021461815
0.00012682989
-6.5364669e-05
-0.00023307625
7.9799571e-05
-0.00012869574
4.503734e-05
0.00017232896
2.6594114e-05
0.00028458577
0.00028745199
2.0467351e-08
5.7979358e-05
0.0002119522
-8.2412764e-05
-6.7593784e-05
-2.534799e-05
-4.9345289e-05
-8.8808143e-06
-0.00039784909
-6.4978646e-05
-4.1359318e-05
-0.00049191083
-8.5808905e-06
2.2101496e-05
-0.00034762526
-7.4519295e-05
-0.00011745228
4.1048611e-05
-2.0879982e-05
-0.00024360781
7.3919201e-05
-3.801685e-05
6.9254299e-05
-4.2661751e-06
0.00016774054
-0.00013774008
0.00024621615
-0.00019015887
0.00018145123
-0.00021174322
-4.6991164e-06
-0.00020762642
-0.00027185154
-0.00018511775
-0.00038778837
-0.00018383036
-0.00023533058
-0.00011970839
-6.9503076e-05
-0.00010891929
0.00013245719
-4.2589184e-05
0.00026828245
-4.5853925e-05
0.00026545197
-0.00012210847
0.000115973
-0.00019810216
0.00012617552
-0.0002205935
0.00016559537
-0.00025995825
0.00013327351
-0.00025469904
-3.3221131e-05
-0.0002695627
-0.00031672081
-0.0001783433
-0.00044647184
-6.6100625e-05
-0.00031122762
-8.4143173e-06
-0.00019743229
-3.3995762e-05
-1.1536463e-05
-1.3566874e-05
0.00025070397
2.5211535e-05
0.00045314767
9.5084782e-06
0.00047102604
-4.3226375e-05
0.00019481108
-0.00012163415
-0.00016213966
-0.00013496011
-0.00039406616
-0.00011569877
-0.00028336148
-6.9656078e-05
-0.00014321228
-6.6229997e-05
-7.3957983e-05
-0.00014014266
0.00014484185
0.00011929941
-0.000180153
5.8166684e-05
0.00011431893
-4.3331493e-05
-0.00015464484
0.00011087996
-8.9660442e-05
0.00010400201
7.3077423e-05
-0.00010719612
9.7181806e-05
5.1211941e-05
0.00010459857
-0.00018629853
1.0731519e-05
0.0001728027
-5.2729125e-05
4.4494456e-05
6.9651976e-05
0.0001421102
1.7987628e-05
-7.179922e-05
0.00016095174
2.6226395e-05
-0.00011370871
7.2457969e-05
3.5425865e-05
-9.7097732e-05
6.3465416e-06
-8.4967749e-05
-0.00017167
0.00014327528
-9.0689085e-05
-0.00024167777
0.00013731048
-5.4529082e-05
-0.00024430941
4.8263758e-05
4.7238099e-05
-5.3409843e-05
-0.00021491282
8.8062329e-05
0.00014154215
-0.00019330456
7.2214608e-05
0.0001895107
5.2288158e-05
1.4487407e-05
0.00016857602
0.00010761393
1.8270286e-06
0.00015071102
0.00013648973
-2.0400329e-05
8.8834424e-05
0.00016429347
-7.1028476e-05
2.7559051e-05
0.00014043296
-1.9190117e-05
-8.5966317e-05
0.00014248548
3.7747261e-05
-0.0002187441
0.00013309081
8.6959609e-05
-0.00012835521
-0.00012591957
0.00011236968
2.1572988e-05
-0.00016516069
8.1901217e-05
0.00015974178
-0.00018505113
0.00015879107
0.00024647883
-0.00010368975
0.00012667888
0.00020161309
8.9839574e-05
6.9437443e-05
0.00011280571
0.00015999572
-7.7715084e-06
0.00014672382
2.8205389e-05
-0.00032240804
0.00046497693
0.00017964316
-0.00029073742
-2.5083485e-05
0.00020403464
-4.6264345e-05
-0.00045190766
0.00012629206
-0.00011042391
0.0001511778
0.00017246685
-4.2078686e-05
4.0758698e-05
0.0001195372
0.00025143287
-0.0004899688
4.5921254e-05
0.00037334333
-0.00023523856
0.000105545
0.00020877436
0.00026081492
8.4252401e-05
-0.0001588377
0.00053645073
5.8842398e-05
-4.5695546e-05
-4.8132576e-05
0.0001039994
8.3304505e-05
-0.00014684606
2.749622e-05
-0.0001633271
0.00052018405
-2.1923321e-05
-0.00036604003
0.00044966973
4.3243605e-05
-0.00032479303
-6.8110535e-06
0.00020467416
-8.182992e-05
-0.00053901739
0.00017765963
0.00018503454
-0.0004862406
0.00013447314
0.00033910062
7.5424047e-06
7.2706899e-05
0.00040127079
0.00015127034
6.8312162e-05
0.00036804084
0.00035251963
-5.8392007e-05
0.00024197321
0.00052164499
-0.00017363661
-5.8786415e-05
0.00065469844
-0.00018112865
-0.00038010494
0.00058651022
-6.1183183e-05
-0.00035478267
0.00010243925
8.8321142e-05
-0.00014258091
-0.00041109647
0.00011654912
6.0277501e-05
-0.00040032662
8.0827259e-05
0.0002086685
-0.00046202579
0.00021848774
0.00035300492
-0.00033915553
0.00021337162
0.00039173182
2.9604946e-05
0.00015494046
0.00027301399
0.00037828285
-1.2409178e-06
0.00052091228
-1.3665342e-05
9.8898632e-05
0.00038398616
4.2321476e-05
9.5798063e-05
-6.1642579e-05
-7.1220966e-05
-0.00022457798
-9.707868e-05
-7.685539e-05
-6.6306255e-05
-0.00010862756
2.2921864e-05
0.00018044219
-0.00035087602
2.500284e-06
-0.00010638381
-0.00021337514
-8.2788219e-06
-0.00023733518
-8.9058405e-05
-8.9651854e-05
-0.00012727573
0.00015380001
-1.9352691e-06
-1.9801277e-06
0.00043885945
6.9686856e-05
6.0020066e-06
-9.4334721e-05
-1.8299619e-05
-6.9572624e-05
-8.1103151e-05
0.00014907297
2.20326e-05
0.00040059887
0.00012121721
0.0001655487
0.00036108624
-2.676689e-05
0.00022467808
-3.4337626e-05
-0.00010714931
-9.999093e-05
-9.4293461e-05
-0.00014057459
-0.00030013042
-0.00019285168
-8.8629628e-05
-4.9162921e-05
-0.00029175883
9.2327361e-06
0.00014584875
-4.5742639e-05
1.1182278e-05
0.00017520661
0.00019915104
1.7554752e-05
0.00013029725
0.00041869462
1.6387746e-05
0.00010285795
0.00063092443
3.7269977e-05
0.00020304206
0.00052660761
-4.6075637e-05
0.00030229991
1.0781744e-05
-5.073456e-05
0.00014502826
-0.00012928064
-0.00018506574
4.3701155e-05
-0.00024861669
-8.8055502e-05
-2.410015e-05
-0.00040036331
-3.6142691e-05
-0.00014805487
-0.00028404713
-1.1978171e-05
-0.00014219306
-3.8887744e-05
-0.00014418728
-3.9429029e-05
0.00025611128
-7.8133967e-05
0.00048652161
-3.6760961e-05
0.00023120863
0.00016192326
4.6738666e-07
8.3621168e-05
0.00016234591
-7.3643525e-05
-0.00013411626
0.00014134123
-1.4241151e-05
-0.00012215397
-0.00013079458
-5.5529658e-05
-8.2970805e-05
-0.00038992788
-8.1536098e-05
-0.00016850549
-0.00013812682
-2.9383684e-05
-0.00028756178
6.6949467e-05
-5.0394086e-05
-0.0001486798
7.1338371e-05
-6.3778932e-05
9.1732579e-05
0.00019597264
4.4142213e-05
-0.00022780655
0.00033441412
-1.6045946e-05
-0.00028380832
6.1779621e-05
-3.8188001e-05
7.1641295e-05
-8.0475278e-05
0.00013877467
0.00033704604
0.00010315121
-6.1738381e-05
0.00024031312
0.00012738252
-8.523749e-05
9.8962173e-05
7.7520237e-05
1.9869158e-05
-5.1775889e-05
-9.8611017e-05
0.00010977914
-0.00013713017
-0.00025371212
6.8880725e-05
-0.00014807284
-5.1801294e-05
4.6863455e-05
-9.6302057e-05
9.296876e-05
-1.0953147e-05
-2.2000728e-05
0.000221344
-5.6464586e-06
0.00014259447
0.00037790169
0.00011502164
0.00037918097
0.00026736354
2.2678006e-05
0.0002779352
0.00012436209
-9.474737e-05
0.00017281058
5.7855155e-06
-7.9286843e-05
0.00010765452
-0.00019251717
-5.5922128e-05
2.4273356e-05
-0.00036980061
4.4237562e-05
-0.00010494799
-0.00021778766
-1.1557424e-05
-0.00025542519
0.00014482549
-5.4116031e-05
-0.00017405395
0.00013373943
2.9837575e-06
0.00028747117
2.0730314e-05
0.00011480751
-9.0624316e-05
0.0001982987
-0.00011130413
0.00026534057
-0.00013744387
9.2166417e-05
-0.00016524685
-0.00028017399
-0.00020270523
-0.00039968791
-0.00020244327
-0.0002984041
-0.00015404274
-0.00020695554
-0.0001290295
-4.6736389e-05
-6.8357019e-06
0.00017121871
7.0605083e-05
0.00015944355
-4.8553708e-05
2.0814713e-05
-0.00013994861
8.4268347e-05
-0.00018089593
0.00018139694
-0.00022970434
0.0002142548
-0.00021003667
8.0144414e-05
-0.00023406332
-0.00019661019
-0.0001553008
-0.00030250451
-1.2007572e-05
-0.00027589214
5.794208e-05
-0.00018501834
9.6474443e-05
7.3201066e-05
0.00010611539
0.00030844879
5.7327331e-05
0.0004334506
8.8687439e-06
0.00044661698
-5.0607266e-05
0.00027758833
-0.00014512269
-8.2222713e-05
-0.0001449497
-0.00032242111
-9.3288042e-05
-0.0002555172
8.2654976e-06
-0.00019534688
7.3391089e-06
1.8166307e-05
-9.0980477e-05
0.00013050096
8.3813765e-05
-0.00014920112
0.000154935
2.2234608e-05
-0.00011586068
0.00010223505
-2.0250331e-05
-0.00012032405
0.00013010685
-4.9327554e-05
-0.00014817353
0.00017272999
-8.7179605e-05
6.8355956e-05
-0.0001860205
-2.0278837e-05
6.4641459e-05
4.5603714e-05
4.2638503e-06
-3.4728586e-05
0.00013743418
-1.9615521e-05
-0.00015244378
0.00014680826
-2.0875962e-06
-0.00020228706
9.3667591e-05
-4.924048e-06
3.1606602e-05
-0.00030988076
-1.2045821e-05
1.6058637e-05
3.2001698e-05
-0.00010724778
-6.8651753e-05
8.7966498e-05
-6.1241838e-05
-0.00012431225
0.00011097249
-1.0102783e-05
-0.00016337695
8.8853712e-05
3.6501774e-05
-0.00016825664
6.012687e-05
1.4494406e-05
-0.00010457557
-7.5601928e-06
-4.4643544e-05
0.00010518251
-0.00020055244
-1.2196941e-05
0.00014120577
3.464748e-05
-9.15209e-05
0.00011481179
5.841224e-05
-0.00010394199
4.0669257e-05
0.00011403553
-5.9920266e-05
-3.1659304e-05
0.00010446721
3.5480655e-06
-0.00014427762
0.00016157911
3.8156948e-05
-0.00014919702
9.6730145e-05
2.1598987e-05
4.7710678e-05
-0.00018552403
6.8392172e-05
9.4352259e-05
5.0215666e-05
6.2421503e-05
8.4225945e-05
0.00011702476
1.8480139e-05
6.5264563e-05
0.00012151146
-3.4533945e-05
4.2388035e-05
0.00011087617
-9.7559231e-05
0.00012181101
-5.2408163e-05
-0.00023717462
0.00047514197
7.2176777e-05
-0.00035140905
0.000456568
1.6636066e-05
-0.00019093725
7.8406633e-05
-1.0351324e-05
-0.00019268207
0.00035928167
-5.4963156e-05
-1.9119304e-05
0.00012996593
-1.1261503e-05
0.00037888394
-0.00053336597
-4.7365159e-06
0.00042331888
3.3529842e-05
7.3183925e-05
4.1251276e-05
0.0005549177
4.8836469e-05
-0.00032683564
0.00054787318
2.5864385e-05
-0.0001678266
-6.5722768e-06
4.5230218e-05
0.0002586071
-0.00071790275
9.0845013e-06
0.00035837641
2.1490057e-05
-0.000111181
-2.9372328e-06
0.00060215904
-0.0001096353
-0.00034639593
0.00056410114
9.5004198e-05
-0.00039064364
0.00016997432
0.00014078672
-0.00035090041
0.00010413475
5.0722043e-05
-0.00022208907
-4.1378401e-05
-2.2286201e-05
8.930604e-05
-0.00051553914
7.1903782e-05
0.00021960136
-9.6024315e-06
-0.00014443741
0.00023099512
5.2846332e-05
-0.00017946447
0.00016578938
0.00014871357
-0.00015060097
-0.00015547439
0.00046235594
-9.7808148e-05
-0.00033207326
0.00041418588
1.2313235e-05
-0.00020528026
3.066557e-06
8.3419702e-05
0.00016128252
-0.00053587818
6.4618631e-05
0.00032264138
9.55918e-06
9.7785362e-05
0.00020962492
0.00044588399
-2.4711387e-06
8.0658739e-05
0.00047575687
-7.0338769e-05
8.4438593e-05
0.00026337778
-0.00015752239
0.00040254776
-0.0002099635
-2.7123451e-05
0.00046065407
8.3932839e-05
-2.0055263e-05
0.00035872964
1.9549226e-05
2.892809e-05
-4.0578564e-05
-6.8535441e-06
0.00013167346
0.00018872797
9.0730189e-05
0.0002503546
-0.00012103197
0.00013481704
-0.000155607
-0.00014076425
5.0810454e-06
-0.00014950288
-4.2645979e-05
-1.958016e-05
-7.286037e-05
0.00048265329
-6.3133794e-06
4.353526e-05
0.00046282547
3.8338933e-05
0.00020906612
-0.00023638398
4.5981216e-05
-0.00020855925
-0.00020941505
5.8210632e-05
-0.00016944724
1.0531299e-05
9.3063943e-05
-6.6772036e-05
0.00054342103
-7.0704099e-05
-0.00012129469
0.00051211877
-6.4431797e-07
-0.00013479427
4.6780482e-05
-3.8811646e-06
-7.7748777e-05
-3.6033161e-05
-5.5071886e-06
-7.3209868e-05
-0.00010344484
6.6760297e-05
-0.00030870687
-0.00014287331
-0.00012598653
-8.2738353e-05
-0.00030676715
8.8750964e-05
4.3786923e-05
-0.00019919683
0.00014190562
3.3101972e-05
1.4783467e-05
0.000181885
6.904775e-05
0.0003331249
4.7209609e-05
0.00015842206
0.00027324857
8.2842509e-07
0.00017577188
-4.8181454e-05
-0.00015116755
-0.00023053119
-0.00010137119
-0.00011625944
-0.00014673924
-9.0722586e-05
-1.9652886e-05
-5.5253178e-05
0.00024682249
9.5597263e-05
-0.00015269378
0.00030199858
0.0001270116
-0.00012569877
0.00014081378
1.743503e-05
0.00029954216
-5.9454133e-05
0.00011317044
0.00028349823
6.4452814e-05
0.00024408314
0.00014571921
8.4542113e-06
6.5870013e-05
0.00021960047
-9.6207053e-05
7.421481e-05
0.00010852704
1.6326473e-05
0.0001087758
-0.00020042293
-3.6706133e-05
-0.00010901178
5.4348859e-05
-6.7092241e-06
-0.00031147428
0.00017693725
-6.751483e-05
-0.00011107357
0.00025233795
-3.3864319e-05
0.00012194143
0.00023156931
4.2383355e-05
0.00011924154
-0.00022892147
-2.0808591e-05
-4.2832712e-05
-5.0507741e-05
-3.5021072e-05
-0.00019969908
0.00028131024
2.4862082e-05
3.0932934e-05
0.00030809731
-5.7046704e-05
0.0002906905
0.00023931345
-7.2189748e-05
0.00030168032
0.0001374697
-8.1809885e-05
7.9342813e-05
0.00028144874
1.4634768e-05
-0.00022851294
0.00034921262
-7.5920938e-05
-0.0002408253
2.1588471e-05
-0.00010528593
-0.00019792449
-0.00034636332
-1.4257765e-05
-0.00022823115
-0.00023816636
6.3629728e-05
-0.00026108735
-6.6549586e-06
0.00016931624
2.505172e-05
-6.7786775e-05
0.00013745058
0.00028011605
-7.1490826e-05
-5.0723298e-06
0.00016182283
0.00013768519
-0.00014686029
-0.00012053842
0.00021627005
-9.1202137e-05
-0.00030947482
0.00011500752
2.7443845e-05
-6.3967251e-05
-0.0001455692
0.00013532668
7.7538495e-05
5.1153456e-06
0.00010126146
-7.2232395e-05
0.00027324965
2.031878e-05
0.00025572791
-7.6878307e-06
0.00014558079
4.7293136e-05
0.00015951605
2.0479838e-05
0.00020879688
3.2875768e-05
0.00010365765
4.8419411e-05
-0.00023489353
-6.4576977e-05
-0.00031558205
-6.7405904e-05
-0.00023234249
-6.0345068e-05
-4.3800884e-05
-6.5233157e-05
0.00012450691
5.6425805e-05
-0.00011547883
8.1669342e-05
-0.00027614571
6.1605427e-05
-0.00015948944
2.470533e-05
3.0016946e-06
-3.5289778e-05
0.00012541181
-0.00011280102
0.00011969436
-6.6849518e-05
0.00017964889
-1.2569094e-05
0.00032641669
4.714404e-05
0.00031138861
2.4608995e-05
-1.69636e-05
3.9930985e-05
-0.00025406101
9.5405485e-05
-0.00019356765
3.8967062e-05
-0.00017799868
-2.6028442e-05
-0.00019705029
-4.3570488e-05
-4.0169806e-05
-6.980258e-05
8.5963205e-05
-5.4985665e-05
8.5489434e-05
-2.9468419e-05
-0.000141763
-1.1604816e-05
-0.00024010049
0.00011171833
-0.00013921905
0.00017970732
0.00013467516
-4.3468345e-05
0.00014460902
-1.334916e-05
-9.8783304e-05
0.00016192961
-8.0006248e-05
-0.00013115941
0.00014932847
-0.00013212995
-0.00015492334
0.00012476563
-0.00014329574
4.7251438e-05
-0.00021770214
-6.9925291e-05
0.00016025623
-9.5120597e-05
-3.7970341e-05
6.3290453e-05
0.00011995827
-1.7720848e-05
-5.380888e-05
0.00012525311
-2.8069176e-05
-0.00017955599
0.00015059263
-2.6390224e-05
-0.0002185813
6.8113988e-05
-3.1769467e-05
1.5873704e-05
-0.00026333874
1.452349e-05
0.00010289169
-0.00010559762
-8.9652821e-05
2.5756686e-05
9.9185622e-05
-8.5476555e-05
-0.0001154029
0.00012899473
-0.00024133688
0.00016101192
-0.00026547989
3.6749115e-05
-0.00018485138
-0.00012915167
-0.00021156928
3.4866868e-05
-2.1391334e-05
-2.7058464e-05
-0.00030039193
1.9427509e-05
0.00016129547
-0.000273911
-2.2612368e-05
0.00018185309
-6.8090406e-05
-1.6190919e-05
0.00023362852
-9.6500502e-05
4.5279593e-05
0.00014005992
0.00013661403
-4.2710675e-06
4.3997881e-05
0.00016054842
-4.3783798e-05
-4.2369413e-05
0.0001585312
-4.2229865e-06
-9.6487068e-05
0.00015250086
-3.6418978e-05
-8.92556e-05
0.00010836583
-9.7385302e-05
-2.7218242e-05
2.3118429e-05
-0.00011932795
3.5723047e-05
-6.2958438e-06
-0.00015405166
0.00012964868
-0.00014595214
-0.00016040842
0.00045617487
-7.8980651e-05
-0.00027461182
0.00043289537
-0.00014012629
-0.00025125885
0.00023102269
-0.00011539851
-4.5358572e-05
-5.5436899e-06
-0.00013055411
0.0002803563
-0.00054858763
-6.0908809e-06
0.00046224289
-0.00027086874
-1.0874955e-05
0.00029666331
0.00037102738
-1.2305618e-05
-0.00012727692
0.00061282155
-1.4791739e-05
-0.00039127621
0.00048303235
-4.2576054e-05
-0.00021803224
-3.1276936e-05
-2.8622839e-05
0.00010535055
-0.00060579057
2.8153539e-05
0.00030364847
-0.00033058158
-8.4494962e-05
0.00010053386
0.00036916531
-0.00017650039
-0.00031080732
0.00063534009
-0.00056216204
0.00055315337
-0.00039652275
-7.816812e-05
-0.00017089014
-0.00037707045
-0.00018742558
1.7577505e-05
0.00010572862
-4.3814477e-05
-0.00063911732
5.0676883e-05
0.0001088193
-0.00059767788
-8.3313765e-06
0.00012508102
-0.00024529588
1.0342757e-05
0.00023358553
-0.00035409375
5.128058e-05
0.00035308836
5.2572697e-05
-2.3148259e-05
0.0001406975
0.00048602773
-2.9668747e-05
-0.00010904839
0.00045283239
2.0063331e-05
-0.00027378441
0.00047487774
-5.9855496e-05
-0.00024639741
0.00021379694
-0.00013528925
-5.1460004e-05
-9.0477705e-05
-0.00015168005
0.00010946346
-0.0001751667
-0.00014957499
0.00031402458
-0.00028487594
6.5688197e-05
0.00042180892
5.2610599e-05
8.584095e-05
0.00037469948
5.7592372e-05
0.00013749357
0.00010997723
6.2539303e-05
0.00034260491
-0.00023842929
0.00011850444
3.5323119e-05
-0.00017194671
6.5457925e-05
-0.00013769571
-9.9904528e-05
7.1356634e-06
-5.619028e-05
0.00027453074
-4.588951e-06
-9.1929906e-05
0.00060343927
3.8808512e-05
5.4076719e-05
0.00037590588
-5.4122915e-07
0.00023374014
-0.00030376292
0.00013880377
-0.00010621416
-0.00028368055
7.6054905e-05
-0.00024199137
-6.3019694e-05
-3.8720746e-05
-0.00011636728
0.00029274992
-0.00011991282
-0.00012912715
0.00064745563
-4.0148421e-05
0.00046029348
-3.1148108e-05
-9.2675601e-05
-0.00022982625
-0.00011163197
-1.7473794e-05
-0.00026023202
-6.0529418e-05
1.1876226e-05
-0.0005388837
-4.0832662e-05
-2.7029271e-05
-0.00044355057
2.6683786e-05
-0.00013407574
-0.00011485778
0.00015849336
-0.00032233054
-0.0001158667
-2.7626687e-06
-0.00010971825
-6.0029142e-05
-9.9182037e-05
1.5573718e-05
0.00034804342
-0.00013847522
-5.7225529e-05
0.00039553307
1.3839118e-05
-8.7109657e-05
0.00036047002
0.00012463896
-2.9783615e-05
8.3528455e-05
0.0001685397
-8.2529455e-05
-8.5364871e-05
0.00017464461
-0.00010854904
-0.00020957727
7.7865184e-05
0.00017901224
-3.299084e-05
0.00014555429
0.00026448288
7.6224572e-05
0.00023910228
0.00019680242
9.2803288e-05
0.00020208009
3.2089333e-05
1.8703049e-05
0.00017410279
-0.00025248397
5.835845e-05
-2.8263218e-05
-2.0689702e-05
1.4402872e-05
-0.00029053265
0.00016825689
-1.2601208e-05
-0.00022785211
0.00016211604
-1.7780692e-05
-5.1660311e-05
0.00038002397
1.3359172e-05
0.00016105693
0.00015419366
5.1378322e-05
6.8916036e-05
-0.00029394105
6.1510411e-05
-0.00012600845
-0.00019652056
7.2743408e-05
-0.00027788232
0.00017332887
-5.9612634e-05
-0.00015002101
0.00018646104
-7.8619158e-05
5.8435481e-05
0.00036680937
0.00026763035
0.00016928872
2.1485804e-05
0.00016810373
-0.00019789031
3.1823239e-05
-0.00014398049
-0.00029191296
-0.00012751477
-0.00014035857
-0.0005299335
-2.682987e-05
-8.1005875e-05
-0.00043915383
-1.1971828e-07
-0.00015148331
-4.3392726e-06
0.00012927516
-0.00028208092
9.2781372e-05
5.9400083e-05
-0.00032051317
5.6490015e-05
-8.3159255e-05
-8.5661008e-05
7.4449901e-05
-0.00010811896
1.0977678e-05
0.00023188599
-2.419376e-05
0.00011572439
0.00018846263
9.4704503e-05
0.00012568242
0.00010553898
0.00010335811
7.8577583e-06
4.1192631e-05
9.2528607e-05
-8.1518027e-05
-0.00012355438
2.3671674e-05
0.00012527759
-3.5471208e-05
0.00018486028
0.00012691574
0.00029096196
0.00011118059
0.00019461269
0.00016131438
-0.00017614993
0.00016669806
-0.00035492158
9.3504972e-05
-0.00030164286
4.7572262e-05
-0.00023401386
3.4141957e-05
4.6743365e-05
3.4033587e-05
0.00021377805
4.3584775e-05
-5.6183929e-05
5.7690261e-05
-0.00033094407
0.000139845
-0.00026083756
0.00012792767
-0.00014174892
3.2082604e-05
0.00011225942
0.00021469864
0.00037023329
0.00044920059
0.00024427272
-6.2376064e-05
-0.00018488898
-6.084081e-05
-0.00048381176
-4.4825559e-05
-0.00038864883
-6.0535155e-05
-0.00023992834
-8.1967577e-05
-0.00018118879
-4.5820045e-05
-0.00010486106
-7.1680428e-05
4.1403775e-05
3.0635473e-05
0.00013747374
6.2924234e-05
0.00013796779
9.344011e-05
9.5987763e-05
0.00019489099
-7.8859719e-05
0.00023100041
0.00018109303
-0.00010158034
0.0001544037
-6.2258557e-05
-0.00021968682
0.00010719498
-6.3321893e-05
-0.00012369057
-0.00018606649
-3.8761909e-05
2.0212882e-05
-0.00024573892
-3.9995322e-05
0.00013212953
-0.00016129631
-1.8616996e-05
0.00025410012
-0.00018594668
2.5075687e-05
0.0001468759
8.7494949e-05
4.3859526e-06
-3.0240917e-05
0.00014215878
6.7498344e-06
-0.00019643008
0.00013418239
6.0672368e-06
-0.00022258412
2.017617e-05
-2.3485227e-05
4.123918e-05
-0.00029638343
4.3874346e-05
8.5017712e-05
-8.4598876e-05
-5.0728388e-05
7.1092782e-05
-7.4187331e-05
-7.1585713e-05
6.1364713e-05
-1.45111e-05
-2.5544132e-06
-8.579049e-05
3.3363292e-05
0.00023560783
-0.00027458576
1.0524283e-05
0.00022900543
-2.8458058e-05
1.7839102e-05
0.00014927038
6.4564644e-05
6.0470337e-05
6.43442e-05
4.7395075e-05
3.391944e-05
-0.0001000068
0.00010714904
1.3678991e-05
-0.00024782173
0.00013194417
1.1640698e-05
-0.00030484526
2.6434485e-05
-4.5299809e-06
-0.00016701228
-0.00022205565
-1.5533193e-05
-3.5375556e-05
-0.00022176213
-3.0272113e-05
8.0390534e-05
-0.00022512277
-4.7191872e-05
1.4636971e-05
-8.0772313e-05
-0.00021917427
0.00032587471
-3.1277399e-05
-0.00019335639
-2.669281e-05
-3.2056375e-05
-2.5966344e-05
-0.00048910572
2.0250679e-05
0.0001065362
-0.00054296469
3.416911e-05
0.00025171345
-0.00036779989
5.5235455e-05
0.0004587865
-0.00049215819
8.82635e-05
0.00047081881
1.0766353e-05
5.2390663e-05
5.0502496e-05
0.0005473656
3.1774704e-07
-0.00032032657
0.00051933509
-5.6899698e-05
-0.00017309013
-0.00010281583
-5.2867282e-05
0.00017423231
-0.00063942721
2.387488e-05
0.00035374931
-0.0002418733
-0.00010673754
0.0004918743
-0.0002435326
-0.00032969402
0.0005652219
-6.8434515e-05
-9.9416632e-05
-0.00023738123
-2.8009759e-05
0.00021139757
-0.00058023429
-1.3497059e-05
0.00031682493
-0.00015904656
3.5503882e-05
0.00030366654
1.0696987e-05
0.00011830662
0.00027819141
-5.6582383e-05
0.00010630432
-9.6626388e-05
0.00040756451
4.4733573e-05
-0.00048290475
0.0005564767
-1.8190837e-05
-0.00043029608
-3.5120675e-05
-5.0909014e-05
-0.00020812994
-0.00055031743
-2.9193614e-05
-5.0977359e-05
-0.00050558855
-2.5006211e-05
0.00015289676
-0.0005308067
-4.7765178e-05
4.8979606e-05
-0.00016632181
0.00022671641
0.00018440464
-3.2635728e-05
0.00032302722
-7.8618837e-05
1.320759e-05
0.0001690057
-0.00032438556
5.1840669e-05
0.00013910431
-0.00048717016
9.261132e-05
4.0248946e-05
-0.00025706447
5.3577872e-05
-0.00026810806
-0.00012500511
-5.1660402e-05
-0.00013831865
-7.6865755e-05
-4.6746252e-05
-4.1547914e-05
0.00046440145
2.500192e-05
4.3527077e-05
0.00042384905
9.8698121e-06
0.00020377755
-0.00023187974
0.00010761719
-1.9895914e-05
-0.00040252587
6.2827021e-05
-4.4718061e-05
-0.00017600892
-7.9762993e-05
0.00039142697
-6.4183564e-05
2.4020746e-05
0.00047600911
4.6626595e-06
0.000159078
-0.00032655967
-8.6711459e-05
-1.9509748e-05
-0.00034007684
-3.4885917e-05
-2.1237472e-05
-0.00013090888
0.00013208338
2.4334539e-05
-9.7173722e-05
5.9536011e-05
6.5482492e-05
-0.00017661303
-2.0299362e-05
5.229523e-05
0.0002924587
-1.0182169e-05
0.00011945505
0.0005053767
-2.220713e-06
0.00020249366
-4.4530098e-05
5.1009757e-05
-0.00010992595
-9.7258555e-05
2.7900434e-05
-0.00016117325
-0.00027132842
-8.3682297e-06
-0.00020644107
-0.00044206644
3.4392751e-05
-0.00022620449
3.5752177e-05
0.00024351464
4.1951716e-05
-2.4837141e-05
0.00016588266
0.00010725479
-1.5438345e-05
7.7907264e-05
-0.00027323283
5.552573e-05
4.6635074e-05
-0.00046888202
7.1342516e-05
-3.1708362e-05
-0.00018493738
2.0619225e-05
-0.00022383385
0.00011222022
-5.7701055e-05
-0.00031247624
9.8483581e-05
-0.00010448764
-7.438525e-05
0.00024132092
-1.6512955e-06
0.00012447378
0.00021935578
5.7012549e-05
0.00010525089
-0.00012518595
-2.5960498e-05
5.2570201e-05
-0.0003533171
7.6215313e-05
-7.9678629e-05
-5.8920653e-05
-4.4452086e-05
0.00021889335
1.4235822e-05
9.1393365e-05
0.00022546063
3.1640387e-05
7.1609263e-05
-0.00029227001
-4.1335408e-05
0.00010948826
-0.00029967595
-7.8399595e-05
-7.2441088e-07
0.00014928228
-4.0703349e-05
-0.00026487294
0.00032320619
-9.6831319e-05
-0.00026079269
-0.00015163498
-0.00011221758
-7.9481285e-05
2.7889991e-05
-2.4861672e-05
0.00019555637
0.00018717987
1.8965398e-05
9.7524484e-05
0.0001079212
4.0285069e-05
8.91894e-06
7.8680061e-05
1.6025027e-05
7.9569638e-05
-0.00024612326
-3.3272607e-06
7.6872041e-05
-0.00043659982
2.0902643e-05
-0.0001837515
-1.0521555e-06
0.00017377023
-4.9027692e-06
0.00035067377
4.1531848e-05
0.00017660114
6.2154183e-05
-0.00023018889
0.00010460608
-0.00041460329
9.2982e-05
-0.00032167768
6.6866871e-05
-0.00022587745
3.6825304e-05
8.1232644e-06
4.135378e-05
0.00024790267
2.316114e-05
0.00016029603
2.011094e-05
-0.00014240501
8.9228934e-05
-0.00020935858
0.00013596058
4.1617376e-05
0.00016669172
-3.6071257e-06
-0.00013046743
-5.5951649e-05
-0.00040358245
-7.1386491e-05
-0.00027582779
-3.9007551e-05
-2.637286e-05
-8.2163315e-06
-0.0001133439
-0.000110484
-8.6334369e-05
-7.0799987e-05
0.0001163714
1.5109554e-05
0.00026138773
2.5829098e-05
0.00039077911
4.2728773e-05
0.00027436977
6.5177067e-05
2.482576e-05
4.39446e-05
2.2167288e-05
-0.00016368178
0.00013697518
-3.3994276e-05
-0.00021249986
-6.4981326e-05
5.1567904e-05
-5.674041e-05
-0.00029836576
0.00010340079
0.00011521267
-0.00030459263
9.2226914e-05
0.00025241329
-0.00020068924
4.3886463e-05
0.00024160936
-3.7569057e-05
7.3073653e-05
4.9122532e-05
0.00012183545
7.4561613e-05
-0.00017390807
0.00014001964
8.8433721e-05
-0.00028574669
3.00172e-05
8.8460082e-05
-0.00016089003
-0.000240423