/*--------------------------------*- C++ -*----------------------------------*\
| =========                 |                                                 |
| \\      /  F ield         | OpenFOAM: The Open Source CFD Toolbox           |
|  \\    /   O peration     | Version:  v2012                                 |
|   \\  /    A nd           | Website:  www.openfoam.com                      |
|    \\/     M anipulation  |                                                 |
\*---------------------------------------------------------------------------*/
FoamFile
{
    version     2.0;
    format      ascii;
    class       volVectorField;
    location    "150/bottomWater";
    object      U;
}
// * * * * * * * * * * * * * * * * * * * * * * * * * * * * * * * * * * * * * //

dimensions      [0 1 -1 0 0 0 0];


internalField   nonuniform List<vector> 
1460
(
(-0.002126423 -0.014071484 0.00215095)
(-0.0027528175 -0.011225414 0.0020475223)
(-0.0022589594 -0.011351684 0.0014219239)
(-0.00069517096 -0.011005807 0.0017369682)
(-4.4570403e-05 -0.011142476 0.0015036891)
(0.0024176556 -0.011404595 0.00090880022)
(0.0034554901 -0.01189738 0.0010108951)
(0.0033192012 -0.013068229 0.0011601951)
(-0.00021366053 -0.014476227 0.0010571226)
(-0.0010333909 -0.013399265 0.0013113144)
(-0.00034461066 -0.015601274 -0.00038405416)
(-0.0023410507 -0.014419138 0.00059247975)
(-0.0034969587 -0.012148359 0.0011807579)
(-0.0025273496 -0.010692399 0.0020085813)
(-0.0012128322 -0.012232189 0.001194895)
(0.00020092193 -0.012242034 0.0010023344)
(0.0015822144 -0.011831193 0.0021074152)
(0.0022331485 -0.012240695 0.0023179468)
(0.0030562177 -0.011608846 0.0020191848)
(0.0032233092 -0.013113988 0.0014691834)
(0.0012317815 -0.015874084 0.0015260456)
(-0.0021162695 -0.015552378 0.0012110457)
(-0.0038637033 -0.013952089 0.0013145878)
(-0.0037940183 -0.011652481 0.00099581674)
(-0.0020937689 -0.012131664 0.00070651978)
(6.9256929e-05 -0.012302807 0.0011580421)
(0.0015280125 -0.01192124 0.0016368843)
(0.002969602 -0.011495121 0.0015274837)
(0.0038047823 -0.013207567 0.0013297875)
(0.0017153288 -0.014384994 0.0013580072)
(-0.0044046465 0.014584241 0.0025981761)
(-0.0027208327 0.0051223045 0.0015323532)
(-0.0025692036 0.0035797852 0.0012241332)
(0.00031258584 0.0017370276 0.00023867242)
(0.00038441398 0.00017329333 -0.00032596978)
(0.0041103054 0.0035773696 0.00029118213)
(0.0052976005 0.0067105617 0.0002998521)
(0.0074574361 0.013742142 0.00037862407)
(0.0011332567 0.016089797 0.0009097278)
(-0.00097563561 0.0092209842 0.00073137258)
(0.0030179128 0.016874836 -0.00094314807)
(-0.0023909667 0.015812719 0.0021898997)
(-0.0033338826 0.011158422 0.0021600384)
(-0.001346778 0.0013081033 0.002264415)
(-0.0010750758 0.0042681878 0.0020964984)
(0.0014004891 0.0038083014 0.0013249899)
(0.0018716997 0.0020837006 0.0016706583)
(0.003109751 0.0062188958 0.0021557133)
(0.0028813287 0.0033718333 0.0007551717)
(0.0061526256 0.013432953 0.0017773697)
(0.0052981605 0.01714426 0.0021962765)
(-0.0061912786 0.01674596 0.001357614)
(-0.0070637853 0.012351554 0.0012870321)
(-0.0048816978 0.0035595968 0.00075136477)
(-0.0023009223 0.0028356991 -0.00024615454)
(-0.00063960287 0.00038598255 0.00035626582)
(0.0020574328 0.0027283299 0.0013910193)
(0.0026953539 0.00077237346 -0.0002511887)
(0.0057047923 0.012262223 0.00031293928)
(0.0042967719 0.015920127 0.00095374515)
(-0.00066090611 -0.0058425527 0.001425639)
(0.001473448 -0.012831972 -0.00067228361)
(-0.0017024195 -0.011867685 -9.971836e-05)
(0.00043332608 -0.012419116 -0.0021383071)
(-0.0001858996 -0.012812064 -0.0025587727)
(0.0028050946 -0.012142739 -0.00036063628)
(-0.0016340341 -0.013619631 -0.001039392)
(0.00014053667 -0.0027299355 1.8421306e-05)
(0.00030901375 1.1971759e-05 0.0016212746)
(-0.00067827911 -0.014549968 -0.00075140592)
(-0.0023338853 -0.0078528016 0.0012342768)
(0.00054378457 -0.0053138693 0.0012349783)
(0.0039803421 -0.012871654 -0.00033448131)
(0.0032471497 -0.012940873 -0.00013920135)
(0.00084493163 -0.012370043 0.001059566)
(0.0014281706 -0.012551276 6.0103216e-05)
(0.0010572079 -0.012916493 -0.0010748047)
(0.0024487746 -0.012451832 -0.001254152)
(-0.0012740708 -0.014132843 -0.0031796999)
(-0.0045062461 -0.012814699 -0.002844414)
(0.003366789 0.0039236318 0.00098103008)
(-0.0025126771 0.0048705936 0.0007768291)
(0.0044216583 -0.013872591 0.00040088276)
(-0.0012073596 -0.01333565 0.00020315574)
(-0.00011580245 -0.012003811 -0.001113851)
(-0.0010625379 -0.01328703 -0.0011108197)
(0.00086943571 -0.012375177 -0.00071946803)
(-0.0013356205 -0.014328137 -0.0033685039)
(-0.0047986166 -0.012978465 -0.0024969595)
(0.0014312297 0.00066516208 -0.00071678497)
(0.00064116904 0.0077255484 0.00081282106)
(0.00083324466 0.0056536693 0.0014995082)
(-0.0011862406 0.00048910807 -0.0013976976)
(-6.5958601e-05 -0.0028108279 -0.0016038727)
(-0.00087729301 -0.0038886065 -0.001575107)
(0.00099679449 9.4043127e-05 -0.0010851191)
(-0.00083579389 0.0087463781 -0.00035594581)
(-0.0021591045 0.0065178122 0.00055953942)
(0.0023115761 0.0076349452 0.00088913986)
(0.00046616201 0.010843739 0.0021340753)
(-0.0031957106 0.0071276131 0.00025886484)
(0.0017710614 0.00081636109 -0.0023832324)
(0.0022027343 0.002957203 -0.0022979902)
(0.002188811 0.002487024 -0.00081095015)
(0.00094961911 0.0013295898 -0.0015482816)
(0.00084774853 -0.0023896224 -0.0023551856)
(-0.0001094854 -0.003512963 -0.0012744588)
(-8.1609509e-05 0.0035245577 -0.0010569186)
(-0.0015562471 0.010755953 -0.0017187956)
(-0.0044169208 0.0097088902 -0.0018402135)
(-0.00058551215 0.0077137273 0.00088746269)
(0.0016325728 0.0081282323 0.0007122361)
(0.0045351451 0.009676577 -0.00025913757)
(-0.0027018038 0.0056917812 -0.00059640553)
(0.00074730866 -0.0023653094 -0.0017416441)
(-0.00082966891 -0.0048646062 -0.001031359)
(-0.00046304433 -0.00046827683 -0.0013387739)
(0.00095790894 0.0095692923 0.00030194082)
(-0.004114381 0.0091149779 -0.0010329845)
(-0.0014126438 0.0064502367 -0.00027677215)
(0.0010661803 -0.0064073119 -0.0026605463)
(0.0031380664 -0.0082619478 -0.0037261886)
(0.0026472129 -0.0077412458 -0.0043893872)
(0.0022702909 -0.0080380538 -0.0040049876)
(-0.0024186383 -0.0087173856 -0.0029888908)
(-0.0048633605 -0.0080940813 -0.0026974989)
(-0.0041216792 -0.0073180219 -0.0016199248)
(-0.0022398324 -0.0042150136 -0.0013670579)
(0.00071916199 -0.0018516733 -0.00053583223)
(0.0025134275 -0.0072753431 -0.0019348943)
(0.0039278197 -0.0099849961 -0.002790625)
(0.0024363187 -0.0099692538 -0.0036337035)
(0.00075077581 -0.0082292016 -0.0042531158)
(0.0021884234 -0.0081052279 -0.0049745834)
(0.0018261024 -0.0088208924 -0.0050631688)
(0.0017362136 -0.0094282724 -0.0050527906)
(-0.0026615882 -0.0091202273 -0.002985117)
(-0.0056605014 -0.0083718773 -0.0019159084)
(-0.0048485938 -0.0060295795 -0.0012144493)
(-0.0032445378 -0.0064975019 -0.0012608679)
(-0.001822341 -0.0015941379 -0.0012511963)
(0.0015932488 0.0017607119 2.77046e-05)
(0.0046557826 -0.0019635365 -0.00044448297)
(0.0062701748 -0.0060547199 -0.0012149697)
(0.0051827096 -0.0082397305 -0.0021581354)
(0.00013536851 -0.0088739523 -0.0023225644)
(-0.0046470109 -0.0088289147 -0.0021439659)
(-0.0045731744 -0.0078664307 -0.0014521591)
(-0.0027486808 -0.0062144737 -0.0013343287)
(-0.00096530821 -0.0037760784 -0.0016124234)
(-0.0011496901 -0.013931262 0.0023277245)
(-0.0026052199 -0.012948846 0.0025283766)
(-0.0014924872 -0.011025595 0.0021306877)
(0.00020758379 -0.014689671 0.0026403626)
(-0.002515201 -0.013768151 0.0029270062)
(0.00013390142 -0.010456237 0.00030290741)
(0.0022504973 -0.011548616 0.0010649082)
(0.0020147615 -0.013008967 0.0008083436)
(-0.00017280152 -0.015214522 0.00067065055)
(-0.0016850967 -0.016543968 0.0010461026)
(-0.0011559037 -0.013785462 -0.0021557572)
(-0.0012790554 -0.015484169 -0.0013953694)
(-0.002905696 -0.014606704 -0.00067400535)
(-0.0034145838 -0.012708215 0.0012966916)
(-0.0023224303 -0.011360192 0.0014864852)
(0.00089875487 -0.011549459 0.0020057767)
(0.0024484365 -0.015118764 0.0020033124)
(0.0022921147 -0.016291959 0.00081125023)
(0.0020738706 -0.015538067 0.0015797322)
(0.0015922076 -0.015463648 -0.00011455281)
(0.00072514359 -0.016850573 0.00091277484)
(4.5788008e-05 -0.015896993 0.0014897085)
(-0.0024551271 -0.012515166 0.0017948578)
(-0.0026355628 -0.010866203 0.0019863333)
(-0.00075645108 -0.011911427 0.0016955688)
(0.0013501582 -0.011222706 0.0029573171)
(0.0027492225 -0.011594573 0.0024210563)
(0.0030969579 -0.01308342 0.0023991164)
(0.0021786267 -0.014291672 0.0010881708)
(0.0007211489 -0.015040798 0.0010422036)
(-0.0038742607 0.015638251 0.0036864314)
(-0.0044614283 0.013041838 0.0037863194)
(-0.0021150109 0.0037464837 0.0013274475)
(0.00065137332 0.015606286 0.005039452)
(-0.0032742553 0.014560071 0.0047427011)
(0.0024777465 0.001966205 0.00093932257)
(0.0033401624 0.0083787951 0.0012590524)
(0.0055065708 0.01459927 0.001072387)
(-0.00046178076 0.017161919 0.001405386)
(-0.0029815963 0.016807491 0.0026076431)
(0.0016495259 0.012280401 0.0010384334)
(0.00023963079 0.017056192 0.0016046239)
(-0.0042714292 0.016054726 0.0033158109)
(-0.0053975615 0.012447432 0.0042804433)
(-0.0018534304 0.0017338731 0.0017580657)
(-0.00035695925 0.0027172425 0.0028660794)
(0.0044026889 0.014971021 0.0044258936)
(0.0046828808 0.017180428 0.0036520897)
(0.0049959805 0.016956622 0.0032768245)
(0.0039965464 0.017428074 7.8632672e-05)
(0.0023674433 0.018297417 -0.0011557398)
(-0.0039882141 0.017392022 0.00081693832)
(-0.0058972581 0.013897547 0.0015685445)
(-0.0024230391 0.0046173431 0.00075696621)
(-0.00080906097 0.0041851179 0.0021544373)
(0.0020826012 0.0027116286 0.002805436)
(0.0031629603 0.0062354052 0.0028511401)
(0.0052410271 0.013647416 0.0046738476)
(0.0045494253 0.016205602 0.0031026732)
(0.0026328117 0.01665033 0.0022325084)
(-0.0018203947 0.0021018093 0.00060747957)
(0.0040163921 -0.012759972 -0.0037174962)
(-0.0018634588 -0.013835453 -0.0018060476)
(-0.0032095475 -0.0089170994 -0.00061371031)
(0.0017664814 -0.012115025 -0.0023985547)
(0.0021048223 -0.013117167 -0.00045590548)
(-0.0045136555 -0.012828452 -0.0017479589)
(-0.0010649374 -0.0038462485 5.3650579e-06)
(-0.0021199834 0.0031468801 0.0017711559)
(0.002094055 -0.016938746 -0.0010572839)
(-0.0020245862 -0.01440904 0.0038932736)
(0.00055959814 0.002781882 0.0022687388)
(-0.00010741949 0.0013258769 0.0012064212)
(0.0039724716 -0.011527575 -0.0031346538)
(0.0014323438 -0.014139455 -0.0021139539)
(-0.0039126051 -0.013664034 -1.0621404e-05)
(-0.0029724943 -0.013611765 -0.00056950422)
(0.0014843898 -0.010400261 0.0016098633)
(0.0024148011 -0.0029082844 -0.00060335912)
(0.0017031161 0.002462795 -0.0017715447)
(0.0019830924 0.0061575153 -0.001354607)
(0.00037195244 0.0046961251 -0.0010266895)
(0.0042093283 -0.0089782278 -0.0021883725)
(0.0033818446 -0.01356943 -0.0027727071)
(0.00063275642 -0.012910233 -0.00040954916)
(0.00038889143 -0.013005578 -0.00059420398)
(-0.0010979336 -0.013277513 -0.0026681403)
(-0.0027287203 -0.011654728 -0.0045032433)
(-0.00087388762 -0.0012803516 -0.00096738967)
(0.00011389869 0.0032856888 -0.00028401892)
(0.0011438364 0.0070059836 -0.00050361485)
(0.0039975842 0.0098943903 -0.0014852397)
(-0.001631884 0.0097510886 0.0015411165)
(-0.0015911919 0.0043603813 -0.00128414)
(-0.0012065709 -0.00063547505 -0.0017616878)
(-0.0010833526 0.0051367003 -0.00058192291)
(-0.0034020699 0.0090270537 -0.00011387471)
(-0.0039564319 0.0068700224 -0.00091837091)
(0.00091750505 0.0074387735 0.00078747108)
(0.00069740213 0.012652869 0.00095214809)
(-0.0056576183 0.010724963 0.0012520474)
(-0.0010059914 0.006645689 0.0029505527)
(0.0028869678 0.0070897845 3.1146144e-05)
(0.004671588 0.0097114473 -0.00021614409)
(0.0019918896 0.010177746 0.003192224)
(0.00025615787 0.0062571002 0.00405306)
(-0.0013983793 0.0026738638 0.0019454068)
(-0.0023121694 0.0081407479 0.0022129786)
(-0.0012573572 0.0070216037 -0.00060582214)
(-0.0011574415 0.0074444838 -0.0025615895)
(0.00073108644 0.0095081547 0.00026491257)
(0.0031254409 0.0082267756 -0.00070819296)
(0.0053583393 0.0087221647 -0.0030576771)
(0.00228824 0.0083820815 -0.0012099324)
(0.0018463415 0.0036813797 -0.00071577781)
(0.00105075 -0.0011954385 0.00063076585)
(-0.00046686587 0.0028395397 -0.0017272497)
(-0.0025391893 0.0096856912 -0.0012872863)
(-0.0033136286 0.0069183678 -0.00028741365)
(-0.00090073342 0.0083775101 7.8099234e-05)
(0.00059466539 -0.0011654843 -0.0026204312)
(0.0024640257 -0.0038749616 -0.0030939016)
(0.0024142318 -0.0045197211 -0.0032285649)
(0.0039923284 -0.0074001506 -0.0041266495)
(-0.0018103937 -0.00976075 -0.0042291247)
(-0.0051394505 -0.0084731344 -0.00427122)
(-0.0044635839 -0.0063519787 -0.0030187006)
(-0.003288764 -0.0040237335 -0.0025808655)
(-0.0019809977 -0.00052689026 -0.00097601308)
(0.0010412696 -0.00062667335 0.00052070994)
(0.0028281705 -0.0081318868 -0.0014868585)
(0.00088593487 -0.0083631566 -0.0039613762)
(-0.00022890199 -0.0031900268 -0.0039734982)
(0.0022037132 -0.0048426341 -0.0046182238)
(0.0024506431 -0.0071250941 -0.0043295335)
(0.0026495205 -0.0084287676 -0.0055891376)
(-0.00063749127 -0.0090246804 -0.0040513434)
(-0.00405715 -0.0090787633 -0.00034290502)
(-0.0037355505 -0.003420459 0.00090221842)
(-0.0032899162 0.00040037548 7.922386e-05)
(-0.00098355857 0.0033770578 0.00088205)
(0.002667632 0.0010544095 0.0010802971)
(0.0049278286 -0.0039666694 0.00089349664)
(0.0057739171 -0.0079932059 -0.00026237864)
(0.0051553828 -0.0084653915 -0.0025338761)
(0.0017142558 -0.0086812853 -0.0030545744)
(-0.0037745721 -0.0083523087 -0.001991826)
(-0.0038642201 -0.0043047627 -0.0010221636)
(-0.0029003149 -0.00198488 -0.0012929297)
(-0.0017075087 0.0016183401 -0.0010260739)
(-0.00047855623 -0.01438313 0.0021136953)
(-0.0018969127 -0.014508527 0.0019065848)
(-0.0019020775 -0.016407658 0.0018253145)
(-0.00073918177 -0.016662656 0.00039271775)
(-0.0026991209 -0.012784092 -0.0011345414)
(-0.00045217028 -0.010135719 0.0001754848)
(0.0018520776 -0.013867615 0.00060659058)
(-4.8123347e-05 -0.015331182 -7.037067e-05)
(-0.00076374239 -0.015243856 0.00029200357)
(-0.0034803577 -0.01321512 0.00015587211)
(-0.00093636068 -0.010427421 -0.00074012109)
(0.001484793 -0.013944471 -0.0020979578)
(-0.00093974209 -0.017782541 -0.0011943358)
(-0.000985195 -0.017259829 0.00062219601)
(-0.0020615132 -0.017722275 0.0016363536)
(-0.0018989244 -0.019760399 0.00061965379)
(-0.0024764342 -0.019400926 -0.0013826497)
(0.00015681653 -0.011628035 -0.00069246876)
(0.002117039 -0.015155424 -0.0024507727)
(0.00169907 -0.015955826 -0.0027678442)
(0.0010145744 -0.016658723 -0.0017371232)
(0.00014327575 -0.016884997 -0.00018764655)
(-0.0010576826 -0.014239717 0.0015862927)
(-0.0027485848 -0.012904364 0.0019755529)
(-0.00058976884 -0.010213374 0.0015758037)
(0.0015497753 -0.014388058 0.0027921692)
(0.0010590689 -0.015237027 0.0024631713)
(0.00091666421 -0.017033786 0.0004680071)
(0.00080268061 -0.017410659 -0.0013216439)
(0.00017296097 -0.016636662 7.4049455e-05)
(-0.0021885913 0.015752944 0.0032861867)
(-0.0042699267 0.016395496 0.0036565845)
(-0.0037431197 0.017270533 0.0032218598)
(-0.0014872911 0.01806124 0.0017809301)
(-0.0032949693 0.015134371 -0.000109023)
(0.0029708439 0.0015911701 0.00063962769)
(0.0058097554 0.013573376 0.0025975967)
(0.0047640785 0.016788761 0.0019977312)
(-0.0036386758 0.016901233 0.00097159626)
(-0.0044360568 0.013875957 0.0014145637)
(0.00072380875 -0.002760941 0.00010982315)
(0.005072305 0.013163856 -0.0025093775)
(0.004117621 0.018215218 -0.0016742854)
(-0.0041678158 0.018124866 0.0036637042)
(-0.0046701084 0.01820137 0.0043024017)
(-0.0049049572 0.019778661 0.001664581)
(-0.0036564468 0.017433243 -0.00136543)
(-0.0014337559 0.0024414052 -0.00059097936)
(0.0032651343 0.014447574 -0.0051918336)
(0.0025953471 0.015959342 -0.0063093017)
(0.0033218156 0.017636765 -0.0055763588)
(0.00053512163 0.017628575 -0.0032906354)
(-0.0042570623 0.016187233 0.0018685201)
(-0.0041996133 0.013590609 0.0034641815)
(-0.00041302679 0.0016324745 0.00073955715)
(0.0040145475 0.014195645 0.0050088628)
(0.0037770329 0.016265393 0.0047242113)
(0.0017244091 0.018134489 0.0013894859)
(0.0004177004 0.0182952 -0.0031241697)
(0.0015298619 0.017717753 -0.0028172161)
(0.00016167088 0.0025546247 0.0013138914)
(-0.0010604335 0.0011667423 0.0013778287)
(0.00070790036 -0.013305572 -0.0005479084)
(-8.1518141e-05 -0.0039603215 0.0015550928)
(0.0037477128 -0.0092198207 0.0025254987)
(0.0017103801 -0.013830923 0.00013759852)
(-0.0050919935 -0.01147088 -0.0013768883)
(0.0015638611 0.0041182298 -7.5879223e-05)
(-0.0034423856 0.0037779937 0.0010644622)
(0.0046355339 -0.012923882 0.0002261663)
(7.4883754e-06 -0.014292316 0.0013389655)
(-0.0048040056 -0.011318097 0.0023346529)
(0.00092916457 0.0045049267 -0.0019500452)
(-0.0025537793 0.0033741611 -0.00025435049)
(-0.0008323176 -0.010562807 -0.0023261278)
(-0.0025955702 -0.014698297 -0.0027124406)
(0.0010294756 -0.017437552 0.0010895464)
(-0.0033573707 -0.013910097 -0.0012631231)
(-0.003361758 -0.013484525 0.0014831279)
(0.00094873039 -0.012969391 0.0025418959)
(-7.2207454e-05 -0.010861803 0.0026437486)
(0.0012126718 0.00039100296 -0.00030672672)
(0.00011090869 -1.0240023e-05 0.00063178277)
(0.0042445368 -0.012356776 -0.0035764089)
(-0.00041541253 -0.013809322 -0.0032505096)
(-0.0046494157 -0.012765853 -0.00062740206)
(0.00054856904 0.00096205737 0.0023590034)
(-0.0017030066 0.00020644725 -0.00034324148)
(-0.0024011864 -0.0072745747 -0.0015730028)
(-0.0004494448 -0.0017279295 -0.00089672213)
(0.00056339806 0.0083793066 0.00054388458)
(0.0025702744 0.0072027957 -0.0007946246)
(0.0026529358 0.011200367 -0.0020595498)
(-0.00046106866 0.0079767951 -0.00036642106)
(0.0018573481 0.0042011646 -0.0011974496)
(0.001253972 0.0082888586 -0.00036196543)
(-0.0045104122 0.0093227032 -0.0020099383)
(-0.0023759923 0.0076805123 -0.0011682168)
(-0.00016014574 0.0074775943 0.0010005716)
(0.0025526391 0.0037463776 -0.0013874014)
(0.0011123434 0.0063333544 -0.0023766661)
(-0.0026210719 0.010954582 0.0017768307)
(-0.0014187611 0.0087636616 -0.0020041492)
(0.001963405 0.0088256854 -0.0024867534)
(0.0046571581 0.01093489 -0.0025896293)
(0.0035164812 0.012721216 0.0002763163)
(-0.0017417737 0.012791021 0.00037969735)
(-0.0040428497 0.0080237548 -0.00070833487)
(-0.0016299561 0.001810081 7.263248e-05)
(-0.0030019072 0.0050776011 0.0022542927)
(-0.003418045 0.010651002 0.0035692368)
(-0.0022767987 0.0071511617 0.0016957019)
(0.002793844 0.0061536175 4.5977384e-05)
(0.0035273063 0.0099882059 -0.0020406013)
(0.00099081469 0.00956388 -0.0015856413)
(-0.0044478356 0.0087689444 0.0007628938)
(-0.0024956191 0.0045376181 0.001442644)
(0.00076405251 0.0066382411 -0.00030823376)
(0.00082651896 0.0098461338 0.00042174229)
(-0.0023330886 0.0082865361 0.00082861006)
(0.0012851016 0.0015208284 -0.00048039744)
(0.0021113059 -0.0018988311 -0.00094393565)
(0.0021362968 -0.0031821815 -0.0016030015)
(0.0033159955 -0.0039651677 -0.0015110134)
(-0.0010967999 -0.0091056619 -0.003033001)
(-0.0043058269 -0.0060949874 -0.0029186338)
(-0.0036865772 -0.0027775362 -0.0024261376)
(-0.0023209473 0.0010688857 -0.0021086609)
(0.0014130717 0.00058540286 0.00078521592)
(0.0012798426 -0.0092557152 0.00175677)
(-0.003889832 -0.0073085551 -0.00030118594)
(-0.0027598216 -0.00086131752 -0.00085262955)
(-0.0013925907 0.001836508 -0.0023938307)
(0.0014773869 -0.00024841206 -0.0036587344)
(0.0013747011 -0.0055797995 -0.0031249085)
(0.0020013935 -0.0024905073 -0.0023805513)
(0.0024259005 -0.00030180602 -0.0011438592)
(0.005099829 -0.0069319553 -9.2487675e-05)
(0.0030479279 -0.010575036 0.0012043175)
(-0.0034154969 -0.010959988 0.0033986077)
(-0.002774438 -0.010568477 0.0027026002)
(-0.0019788248 -0.0085628743 0.00076995336)
(-0.002827845 -0.0077188536 -0.00068087407)
(-0.0017502526 -0.0048226382 -0.0016824627)
(0.00088044838 -0.0018407373 -0.0024784346)
(0.0010645395 -0.0043412874 -0.001977444)
(0.00083310954 -0.0081086439 -0.0016839299)
(-0.0041271154 -0.0063015263 0.0012774737)
(-0.0015628856 -0.00019005816 0.001668345)
(-0.0021178065 0.00074762489 0.0018114449)
(0.00018808775 -0.013922359 0.0010215821)
(-0.001280729 -0.013380424 -0.0010204032)
(-0.0010875897 -0.012658629 -0.0026306604)
(-0.0025323246 -0.011437701 -0.0025235361)
(-0.00091628341 -0.010083527 -0.001817027)
(0.0020026741 -0.012383572 -0.001037074)
(0.0017415931 -0.013654448 -0.00041019316)
(4.8165769e-06 -0.016246695 -0.00064095161)
(-0.0014253888 -0.014648983 -0.00036482643)
(-0.0034243999 -0.012861261 -0.00028908488)
(-0.0015151237 -0.010597895 0.00019306097)
(0.0017899398 -0.011225363 -0.0018234287)
(0.00098527621 -0.014995306 -0.001297767)
(-0.00039904107 -0.016564368 -0.0010462771)
(-0.0025653158 -0.015670313 -0.00022345954)
(-0.0036349034 -0.016192269 -0.00011183302)
(-0.0025740613 -0.013719283 -0.00025385535)
(-0.0025337266 -0.01513283 9.9819034e-05)
(-0.0022428393 -0.011593113 -0.00063029846)
(0.001456972 -0.011323675 -0.00083579437)
(0.0023355991 -0.013891322 -0.00030387735)
(0.0025698181 -0.012851611 0.00037057117)
(0.0027987986 -0.014672741 -0.00020307805)
(0.0010179539 -0.015713032 -0.0010358793)
(-2.5014777e-05 -0.014326008 0.00081260102)
(-0.00097464809 -0.015393507 -0.00026477173)
(-0.0013873798 -0.015212062 -0.0018652328)
(-0.00096181904 -0.015425274 -0.0019295166)
(0.00034556053 -0.01243561 -0.0026219365)
(0.00050092003 -0.015267323 -0.0021796919)
(-0.0010254822 0.015584393 -0.00067612361)
(-0.0032926702 0.015419543 -0.0029445524)
(-0.0030928955 0.014494842 -0.0036823567)
(-0.003743448 0.012766813 -0.0040903287)
(0.0029052391 0.00041574113 -0.00021141377)
(0.0041309062 0.0074111422 -0.00078161767)
(0.0064094584 0.01477621 -6.6225522e-05)
(0.0016130211 0.017428956 -0.00016825667)
(-0.0049259867 0.016386905 -7.8148326e-05)
(-0.0052271123 0.013056445 0.00029152663)
(0.00042162518 -0.000850497 0.00025801274)
(0.0019393564 0.0057729319 -0.0012841613)
(0.0049499521 0.015654752 -0.0025052733)
(-0.0020343141 0.017785025 0.00010971991)
(-0.0064325066 0.017566684 0.0012939964)
(-0.0067779864 0.015586868 0.00053360388)
(-0.0024438509 0.0073234469 0.00065297169)
(-0.0026401279 0.014423974 0.0028899201)
(-0.0012623357 -0.0012237694 0.00032064288)
(-2.4949589e-05 -0.00052865068 8.8031905e-05)
(0.0025767127 0.010172861 0.00043080742)
(0.00073816838 0.0077269229 6.6379074e-05)
(0.004829373 0.016144878 -0.0013337185)
(0.0036464247 0.017615232 -0.00055393931)
(0.0001188137 0.016172695 0.0013875525)
(-0.0029266202 0.017136371 -0.0014651399)
(-0.0039143845 0.016092284 -0.0048011786)
(-0.0018615777 0.014431372 -0.0039962881)
(0.00041081838 0.010538436 -0.0030853848)
(0.0021733341 0.016565166 -0.0051580875)
(0.00047899113 0.0020292727 0.0015304064)
(0.0010549631 0.0013340583 -0.00067105736)
(0.00075274652 -0.0049240651 0.00016277509)
(0.0032312666 -0.011874912 0.001722053)
(0.0045201946 -0.013139542 0.0019764041)
(-0.0034647489 -0.012781887 0.00011626855)
(-0.00035093356 -0.00018570037 0.00057028487)
(-0.00061564898 0.0055875509 -4.4612711e-05)
(-0.0022011516 0.0020838055 0.00023164838)
(0.0038148933 -0.012859003 0.0016453433)
(0.0015879071 -0.013229575 0.0010218182)
(-0.0044419144 -0.012506373 0.00091715538)
(-0.0011801648 -0.00096626358 -0.0010549221)
(-0.0012384773 0.0060913867 0.00018962293)
(-0.0026550438 0.0033702913 0.0020689287)
(0.0019178813 -0.016303862 0.0023859116)
(-0.0029254288 -0.015268121 0.00093270052)
(-0.0019284689 -0.012666319 -0.0030380171)
(0.0012473733 -0.013823112 0.0012286667)
(-0.00083046751 -0.013404414 0.0020868916)
(8.4546403e-05 -0.014852319 0.0035191238)
(-0.003722938 -0.015153242 0.0014991227)
(-0.0038361878 -0.013244297 -0.00069090903)
(0.00091607966 0.0010064404 -0.0025567603)
(-0.00039286653 0.001448974 -0.00048308131)
(-0.0012907079 0.00113781 3.2580789e-05)
(-0.00075344801 -0.0069553109 0.0015219332)
(-4.8071627e-05 -0.015398362 0.0046234102)
(-0.0021914363 -0.013359359 0.0020088699)
(-0.00021389655 -0.0038376288 -0.0017301626)
(0.0011099241 0.0079477665 0.0017267968)
(0.0024283929 0.0074462268 0.0010144688)
(0.0032834601 0.0069483185 -0.0012559731)
(0.0019742432 0.0028279892 0.00076345924)
(0.0026110085 0.0065525365 -0.00010769205)
(-0.0034922079 0.0085921384 2.9251099e-05)
(-0.0034463773 0.0063799991 -0.00015009928)
(-0.0018500288 0.0093078927 -0.00025402942)
(0.00059011175 0.0068123838 0.00039598831)
(0.0029463682 0.0014908129 0.00063701021)
(-0.00086383616 0.0027882368 0.00083072859)
(-0.0028330943 0.0095937738 -0.00065865987)
(-0.0033760972 0.0075161511 -0.0004351697)
(-0.00036033011 0.0098623947 -0.00036802035)
(0.001776351 0.0076749493 -5.1577225e-05)
(0.0041983231 0.012152817 0.00024259822)
(-0.0034808828 0.010550132 -0.002905715)
(-0.0017745442 0.0026506713 -0.0030193298)
(-0.001361003 -0.004690605 -0.00040734215)
(-0.0022029093 -0.0020473489 0.0004643888)
(-0.00023173445 0.0101247 0.0032609967)
(-0.003050877 0.010425309 0.0030852664)
(-0.0047241151 0.010424661 -0.00036815422)
(-0.0023925698 0.0071579597 -0.0029350201)
(-0.00011296288 0.007778762 -0.0015354561)
(0.00049693537 0.007270324 0.00057955336)
(0.0020231401 0.0082341886 0.003142764)
(0.0012847311 0.011607881 0.0035305913)
(-0.0010482954 0.0051999894 0.00017449332)
(-0.00086213169 0.0074221816 -0.0012232011)
(0.0015387355 0.001275441 0.0020736676)
(0.0029985355 -0.0004437117 0.0016072706)
(0.0042101383 -0.0055420677 0.0026399367)
(0.00039779043 -0.0092081806 0.0030380837)
(-0.004579604 -0.0068400111 0.00068728371)
(-0.0041677779 -0.002467721 0.00019406031)
(-0.0036489882 -0.00050235421 -2.84183e-05)
(-0.0017630133 0.0036556895 -0.00022604799)
(0.0027444348 -0.0012735668 0.0011121267)
(0.0025866086 -0.0089013807 0.0015325626)
(-0.0040861445 -0.0076529675 0.0024681757)
(-0.0037543762 -0.0032114148 0.0016511091)
(-0.0031661482 -0.00082307368 0.00092013045)
(4.8536421e-05 0.0027966735 -0.00071413735)
(0.0023213511 -0.0015188748 0.00035576483)
(0.0035923704 -0.0057681642 0.001738184)
(0.005235071 -0.0090755768 0.002567026)
(0.0055167259 -0.010027956 0.0008001798)
(0.00097415063 -0.010070199 0.00013881434)
(-0.0058939215 -0.010081723 -6.2092022e-05)
(-0.0057527203 -0.010032696 -0.0011879528)
(-0.0037434704 -0.0068791841 -0.0017210322)
(-0.0025295479 -0.0080533469 -0.00069293941)
(-0.0020862323 -0.0043076724 -0.0010827951)
(-0.00038219572 0.00040419807 0.00016464265)
(0.001350134 -0.00057486163 0.00074759687)
(0.0019278742 -0.0041751774 0.0013284612)
(0.0018136441 -0.0097972404 0.0032354887)
(0.00027219175 -0.0079932598 0.004606148)
(-0.0020073613 -0.0027313304 0.0028982363)
(6.9987051e-05 -0.014028371 -0.0015747378)
(-0.0028598072 -0.012364652 -0.0022191745)
(-0.0023032737 -0.0098751679 -0.0022337301)
(-0.00066307509 -0.010882845 -0.0024193465)
(0.0010522822 -0.011853247 -0.0010557734)
(0.0026273462 -0.011412257 -0.00026155036)
(0.0031606528 -0.01251077 -0.00036111746)
(0.00087798223 -0.015118031 -0.0004923612)
(-0.0017076934 -0.01530532 -0.00063547149)
(-0.0036205361 -0.013261421 -0.001040377)
(-0.0013638449 -0.011058684 0.00042434665)
(0.0021882736 -0.013050596 -0.0016315026)
(0.00010139835 -0.016869891 -0.0018190534)
(4.6241822e-05 -0.017378879 -0.00077230409)
(-0.0019542171 -0.012910276 0.0012052724)
(0.0019235254 -0.011312551 -0.00013296627)
(0.0036221291 -0.016072747 -0.00043296094)
(0.0023001555 -0.019012716 0.0011182022)
(0.0013434412 -0.015504546 1.7747447e-05)
(0.00030931233 -0.017082164 -0.00079174431)
(-0.0026804341 -0.015359658 -0.0009581691)
(-0.0039183017 -0.013550724 -0.0012500465)
(-0.0031463843 -0.011176163 -0.001565817)
(-0.0014023008 -0.011341563 -0.0023664902)
(0.00067423765 -0.011059009 -0.0028652142)
(0.0011177541 -0.016093364 -0.0034351937)
(-0.0017946408 0.015924778 -0.0021793613)
(-0.0040414258 0.013336425 -0.0021743973)
(-0.00035762736 0.0014026291 -0.00029818494)
(-0.00030651532 0.00021408936 -0.00027281562)
(0.0031143877 0.0043463669 5.5061741e-05)
(0.003434182 0.0029170698 0.00049760343)
(0.0071130099 0.013055916 -0.00027292236)
(0.0052783053 0.016673549 -0.00031812809)
(-0.0040163055 0.016706312 -0.0015730275)
(-0.0043578255 0.012215709 -0.001517631)
(0.0006285421 -0.0015941964 0.00066672161)
(0.0033335787 0.0084708783 -0.0021596992)
(0.0048737547 0.017053706 -0.0042828288)
(-0.0046705548 0.017400817 0.0012605011)
(-0.0029716492 0.0082495527 0.0013514576)
(0.00076287079 -0.00055831032 -0.00047837355)
(0.0039971567 0.01355943 -0.00018221819)
(0.0041561306 0.019129379 0.0015910375)
(0.0035644449 0.015199004 0.00056134181)
(0.0031952144 0.017925809 -0.00035489669)
(-0.0057570258 0.016698333 -0.00045879811)
(-0.0066481261 0.012673952 -0.00053820028)
(-0.0033546194 0.0012996271 0.00020259144)
(-0.001994797 0.0014923461 -0.0011994259)
(0.00059192392 0.0010181954 -0.0021541343)
(0.0028668182 0.014838852 -0.00559954)
(0.00086373241 -0.0029326709 0.0002386107)
(0.0044314759 -0.013099397 0.0025836287)
(0.0033926127 -0.012519578 0.0021821216)
(0.0010711872 -0.012861286 0.0024870632)
(0.002704492 -0.01230313 0.00085772602)
(-0.0019443602 -0.014154729 0.0001003236)
(-0.0046320719 -0.011667786 -0.00081447199)
(0.0016008527 0.0039470214 0.0012072987)
(-0.0026736559 0.0029881352 -0.0002216356)
(0.0035297157 -0.013479802 0.0034163468)
(0.0019531933 -0.013430933 0.0017309327)
(-0.0026236205 -0.013025502 -0.0023859493)
(0.0018114056 0.0017836255 -0.0032589239)
(-0.0032116597 0.0039404422 0.00044558581)
(0.003651376 -0.012630559 -0.0024942518)
(0.0006716856 -0.012753563 -0.00080100623)
(-0.0013182811 -0.016076587 0.0031678505)
(0.00099611506 -0.01757391 -0.0013869966)
(-0.00061272775 -0.015416616 -0.0024256901)
(0.002565018 -0.001868236 -0.0021559054)
(-0.0014841962 0.0042918455 0.00083943782)
(0.0045083505 -0.012634876 0.0042113208)
(7.6233354e-05 -0.014071432 0.004141151)
(-0.0023735189 -0.012983533 0.0017991613)
(-0.0020592652 -0.01309928 0.0011234712)
(-0.0026033475 -0.012074174 0.00075620628)
(0.0029253711 0.0067838438 0.0010439625)
(0.0026155909 0.0096403767 0.0022332518)
(0.0018934188 0.00087442995 0.0018690529)
(0.00029678443 -0.0039146501 0.001729486)
(0.0006539777 0.0028216128 0.0006153595)
(-0.0013547425 0.009160434 -0.00038226281)
(-0.0048388632 0.0082524034 -0.00072956404)
(-0.0020955136 0.0074095785 0.00078669621)
(0.00020195886 0.0072504298 0.0018443287)