/*--------------------------------*- C++ -*----------------------------------*\
| =========                 |                                                 |
| \\      /  F ield         | OpenFOAM: The Open Source CFD Toolbox           |
|  \\    /   O peration     | Version:  v2012                                 |
|   \\  /    A nd           | Website:  www.openfoam.com                      |
|    \\/     M anipulation  |                                                 |
\*---------------------------------------------------------------------------*/
FoamFile
{
    version     2.0;
    format      ascii;
    class       volScalarField;
    location    "790/heater";
    object      T;
}
// * * * * * * * * * * * * * * * * * * * * * * * * * * * * * * * * * * * * * //

dimensions      [0 0 0 1 0 0 0];


internalField   nonuniform List<scalar> 
80
(
729.43363
731.4576
735.39966
741.01574
720.14765
722.51939
727.16785
733.84491
700.48866
703.54616
709.68775
718.86105
668.48064
672.36405
680.75297
694.31696
345.30377
342.51698
342.46846
345.11039
421.39623
417.9312
418.00008
421.42869
486.32231
483.41519
483.96129
487.52156
541.57179
539.76137
541.50107
545.7618
587.30904
587.38758
591.82511
599.1471
622.09298
625.61325
634.88887
653.67823
345.20196
342.45021
342.43268
345.08514
421.26518
417.86844
417.9757
421.41278
486.26996
483.40304
483.95522
487.47619
541.62659
539.81302
541.51991
545.76028
587.4301
587.48992
591.87251
599.17097
622.21473
625.72097
634.96811
653.73992
668.87899
672.72847
681.00703
694.48751
700.72553
703.81484
710.01247
719.13739
720.34242
722.73626
727.41868
734.11526
729.68897
731.7182
735.68239
741.31499
)
;

boundaryField
{
    minY
    {
        type            fixedValue;
        value           uniform 300;
    }
    minZ
    {
        type            zeroGradient;
    }
    maxZ
    {
        type            zeroGradient;
    }
    heater_to_topAir
    {
        type            compressible::turbulentTemperatureCoupledBaffleMixed;
        refValue        nonuniform List<scalar> 
40
(
520.87523
517.42757
511.54907
504.06498
483.50646
471.09466
458.16881
446.97957
494.10666
482.64487
470.70853
459.60203
508.932
505.25315
504.07294
504.61807
506.57494
504.49671
505.51247
507.40633
506.69554
503.77156
504.07508
506.13567
509.40333
505.31948
503.56807
503.69656
494.28663
482.93162
470.84934
459.50901
483.4781
471.26713
458.30564
446.84177
520.42908
517.12013
511.34556
503.88571
)
;
        refGradient     uniform 0;
        valueFraction   nonuniform List<scalar> 
40
(
0.00032132529
0.00032132529
0.00032132529
0.00032132529
0.00032132529
0.00032132529
0.00032132529
0.00032132529
0.00032132529
0.00032132529
0.00032132529
0.00032132529
0.00032132529
0.00032132529
0.00032132529
0.00032132529
0.00032132529
0.00032132529
0.00032132529
0.00032132529
0.00032132529
0.00032132529
0.00032132529
0.00032132529
0.00032132529
0.00032132529
0.00032132529
0.00032132529
0.00032132529
0.00032132529
0.00032132529
0.00032132529
0.00032132529
0.00032132529
0.00032132529
0.00032132529
0.00032132529
0.00032132529
0.00032132529
0.00032132529
)
;
        value           nonuniform List<scalar> 
40
(
729.36661
731.38883
735.32773
740.9396
720.07161
722.4386
727.08141
733.75274
700.42235
703.47518
709.61096
718.77774
668.42938
672.31035
680.6962
694.25601
622.05586
625.57433
634.8473
653.63123
622.17761
625.68178
634.92605
653.69249
668.82774
672.67468
680.95002
694.4262
700.6592
703.74386
709.93562
719.05396
720.2663
722.65546
727.33221
734.02295
729.62173
731.64924
735.61031
741.2387
)
;
        Tnbr            T;
        thicknessLayers List<scalar> 0();
        kappaLayers     List<scalar> 0();
        kappaMethod     solidThermo;
        kappa           none;
        alphaAni        none;
        alpha           none;
        field           T;
    }
    heater_to_rightSolid
    {
        type            compressible::turbulentTemperatureCoupledBaffleMixed;
        refValue        nonuniform List<scalar> 10(747.90545 742.04146 730.29677 712.81097 692.27379 692.34655 712.95812 730.49414 742.33612 748.23898);
        refGradient     uniform 0;
        valueFraction   nonuniform List<scalar> 10(0.49999997 0.49999997 0.49999997 0.49999997 0.49999997 0.49999997 0.49999997 0.49999997 0.49999997 0.49999997);
        value           nonuniform List<scalar> 10(744.4606 737.94319 724.57891 703.56396 672.97601 673.04323 703.72281 724.81576 738.22569 744.77699);
        Tnbr            T;
        thicknessLayers List<scalar> 0();
        kappaLayers     List<scalar> 0();
        kappaMethod     solidThermo;
        kappa           none;
        alphaAni        none;
        alpha           none;
        field           T;
    }
    heater_to_leftSolid
    {
        type            compressible::turbulentTemperatureCoupledBaffleMixed;
        refValue        nonuniform List<scalar> 10(928.38583 928.35308 928.22704 927.92338 927.62455 927.29971 926.95664 926.65441 926.55512 926.58453);
        refGradient     uniform 0;
        valueFraction   nonuniform List<scalar> 10(2.0832898e-05 2.0832898e-05 2.0832898e-05 2.0832898e-05 2.0832898e-05 2.0832898e-05 2.0832898e-05 2.0832898e-05 2.0832898e-05 2.0832898e-05);
        value           nonuniform List<scalar> 10(729.43777 720.15199 700.49341 668.48605 622.09935 622.22109 668.88436 700.73024 720.34671 729.69308);
        Tnbr            T;
        thicknessLayers List<scalar> 1(0.001);
        kappaLayers     List<scalar> 1(0.0005);
        kappaMethod     solidThermo;
        kappa           none;
        alphaAni        none;
        alpha           none;
        field           T;
    }
    heater_to_bottomWater
    {
        type            compressible::turbulentTemperatureCoupledBaffleMixed;
        refValue        nonuniform List<scalar> 
92
(
933.87117
932.59216
930.2537
929.13521
939.09081
937.63391
932.85441
927.92257
940.23648
934.405
913.19805
916.26526
948.85394
940.72891
922.69039
923.62086
942.2367
931.97003
914.62003
916.60219
932.08969
923.79422
910.72859
913.46709
915.30307
916.34123
913.41891
913.3888
910.52636
910.52636
906.80094
906.80094
909.7353
909.7353
911.25775
911.25775
937.75287
907.89545
942.85202
902.56993
934.10156
898.92985
938.72032
889.12634
945.36697
892.56581
936.41569
914.15434
916.61804
910.23182
908.85919
910.957
935.58231
921.33264
920.90088
912.97468
905.00463
911.926
931.04193
924.14082
924.01291
914.09687
890.95863
909.55389
937.85753
928.70189
928.25329
912.85044
889.98291
912.03742
944.60179
935.00272
930.35275
910.21345
895.26128
904.00496
935.00272
930.35275
910.21345
904.00496
929.58599
928.6514
927.53427
920.88571
931.5289
930.70045
927.75997
923.34217
934.79013
930.86376
930.33761
926.16034
)
;
        refGradient     uniform 0;
        valueFraction   nonuniform List<scalar> 
92
(
0.0075140686
0.0075140686
0.0075140686
0.0075140686
0.0075140686
0.0075140686
0.0075140686
0.0075140686
0.0075140686
0.0075140686
0.0075140686
0.0075140686
0.0075140686
0.0075140686
0.0075140686
0.0075140686
0.0075140686
0.0075140686
0.0075140686
0.0075140686
0.0075140686
0.0075140686
0.0075140686
0.0075140686
0.0075140686
0.0075140686
0.0075140686
0.0075140686
0.0075140686
0.0075140686
0.0075140686
0.0075140686
0.0075140686
0.0075140686
0.0075140686
0.0075140686
0.0075140679
0.0075140679
0.0075140679
0.0075140679
0.0075140679
0.0075140679
0.0075140679
0.0075140679
0.0075140679
0.0075140679
0.0075140679
0.0075140686
0.0075140686
0.0075140686
0.0075140679
0.0075140686
0.0075140679
0.0075140686
0.0075140686
0.0075140686
0.0075140679
0.0075140686
0.0075140679
0.0075140686
0.0075140686
0.0075140686
0.0075140679
0.0075140686
0.0075140679
0.0075140686
0.0075140686
0.0075140686
0.0075140679
0.0075140686
0.0075140679
0.0075140686
0.0075140686
0.0075140686
0.0075140679
0.0075140686
0.0075140686
0.0075140686
0.0075140686
0.0075140686
0.0075140686
0.0075140686
0.0075140686
0.0075140686
0.0075140686
0.0075140686
0.0075140686
0.0075140686
0.0075140686
0.0075140686
0.0075140686
0.0075140686
)
;
        value           nonuniform List<scalar> 
92
(
730.96978
732.96894
736.8638
742.42928
721.7928
724.13577
728.71339
735.30323
702.29014
705.28085
711.21694
720.34436
349.83889
347.01198
346.82829
349.45736
425.30986
421.79373
421.73172
425.14946
489.67183
486.72423
487.16805
490.72214
544.38003
542.59102
544.29568
548.52417
670.29939
589.73771
674.12562
589.78768
682.47356
594.21391
695.94707
601.49232
349.75547
349.33919
425.31448
425.04402
489.68695
490.61291
544.55599
548.34186
589.99951
601.35187
349.64438
349.4771
346.76455
346.69916
349.32137
349.33714
425.12979
425.02272
421.64826
421.69515
425.04652
425.09853
489.612
489.56015
486.71381
487.18733
490.50798
490.64771
544.6039
544.5351
542.73178
544.31011
548.3468
548.51252
590.11391
590.04178
590.06622
594.26455
601.39581
601.46151
670.87866
674.66428
682.7293
696.06184
702.44521
705.50428
711.64694
720.65334
721.92928
724.29892
728.92406
735.53712
731.23012
733.21459
737.14505
742.70393
)
;
        Tnbr            T;
        thicknessLayers List<scalar> 0();
        kappaLayers     List<scalar> 0();
        kappaMethod     solidThermo;
        kappa           none;
        alphaAni        none;
        alpha           none;
        field           T;
    }
}


// ************************************************************************* //
