/*--------------------------------*- C++ -*----------------------------------*\
| =========                 |                                                 |
| \\      /  F ield         | OpenFOAM: The Open Source CFD Toolbox           |
|  \\    /   O peration     | Version:  v2012                                 |
|   \\  /    A nd           | Website:  www.openfoam.com                      |
|    \\/     M anipulation  |                                                 |
\*---------------------------------------------------------------------------*/
FoamFile
{
    version     2.0;
    format      ascii;
    class       volScalarField;
    location    "160/leftSolid";
    object      T;
}
// * * * * * * * * * * * * * * * * * * * * * * * * * * * * * * * * * * * * * //

dimensions      [0 0 0 1 0 0 0];


internalField   nonuniform List<scalar> 
130
(
702.39897
702.35256
702.25803
702.11103
701.91226
701.70406
701.47601
701.22095
700.93697
700.63184
700.35092
700.12603
699.99257
702.44878
702.40713
702.31162
702.1603
701.95713
701.74141
701.4988
701.21542
700.90011
700.56398
700.24952
700.00784
699.87159
702.51897
702.46914
702.37011
702.20992
701.99752
701.77158
701.51201
701.1916
700.80136
700.38093
700.0384
699.79057
699.64868
702.55699
702.50248
702.39282
702.2198
702.00056
701.76759
701.48662
701.13533
700.68546
700.19847
699.79066
699.49098
699.32595
702.5365
702.48532
702.37702
702.2094
701.99816
701.76814
701.49147
701.14268
700.69485
700.21676
699.72674
699.33378
699.10333
702.53625
702.48095
702.37426
702.21364
702.00891
701.78767
701.53001
701.21265
700.82601
700.41333
699.97403
699.53697
699.19328
702.55903
702.50594
702.40262
702.2471
702.04725
701.82565
701.58002
701.295
700.95737
700.59581
700.22061
699.85704
699.54873
702.55629
702.50343
702.39886
702.24312
702.03862
701.79992
701.56094
701.3051
701.01686
700.70704
700.39937
700.11931
699.91246
702.51293
702.46123
702.35809
702.19709
701.98333
701.74296
701.5121
701.27565
701.02342
700.76136
700.50707
700.29855
700.17088
702.45386
702.40655
702.30387
702.14031
701.91438
701.67571
701.44612
701.21498
700.97712
700.73826
700.51386
700.33977
700.23863
)
;

boundaryField
{
    minX
    {
        type            zeroGradient;
    }
    minZ
    {
        type            zeroGradient;
    }
    maxZ
    {
        type            zeroGradient;
    }
    leftSolid_to_bottomWater
    {
        type            compressible::turbulentTemperatureCoupledBaffleMixed;
        refValue        nonuniform List<scalar> 
130
(
999.40834
998.54261
998.01167
997.00596
991.88095
991.91858
991.83302
991.79112
991.13948
986.86602
984.39167
981.23074
977.2849
999.90944
1000.9456
1000.3225
999.08685
994.3505
994.63246
994.72508
992.90045
992.49279
989.87348
983.89534
979.72366
976.71928
1003.3189
1002.2878
1002.7251
1000.8985
995.77383
996.27271
997.69281
996.74462
990.75452
978.77369
978.23795
978.4663
975.59374
1005.2295
1004.0859
1003.4199
999.76636
994.25866
995.60359
995.16697
994.92153
984.83121
969.6122
967.2931
966.21663
965.22468
1001.6453
1001.6288
1000.8212
997.97599
993.9203
994.88802
995.38047
995.39949
984.98103
979.49427
962.79718
955.0961
950.96427
1001.88
1000.4217
999.61242
997.72177
993.65212
994.8437
996.44045
996.36477
991.54908
991.7844
988.82119
976.20419
945.19872
1002.9249
1001.9846
1001.588
1000.2015
997.46166
997.44068
998.80907
999.83416
996.68758
995.85391
994.19782
991.34992
966.87074
1002.9819
1002.1351
1001.3049
1000.7054
999.14339
995.21523
996.73603
998.25363
997.42307
995.13485
993.59929
990.46501
979.03067
1001.4533
1000.5984
1000.6229
999.5817
997.01897
993.62151
995.16366
996.09396
995.83396
994.77319
991.87101
990.02441
987.97786
997.76406
997.97282
997.86342
997.43628
991.90549
989.54382
990.11891
990.38859
990.06185
989.24233
986.86549
985.86494
984.28639
)
;
        refGradient     uniform 0;
        valueFraction   nonuniform List<scalar> 
130
(
0.0075140686
0.0075140686
0.0075140686
0.0075140686
0.0075140686
0.0075140686
0.0075140686
0.0075140686
0.0075140686
0.0075140686
0.0075140686
0.0075140686
0.0075140686
0.0075140686
0.0075140686
0.0075140686
0.0075140686
0.0075140686
0.0075140686
0.0075140686
0.0075140686
0.0075140686
0.0075140686
0.0075140686
0.0075140686
0.0075140686
0.0075140686
0.0075140686
0.0075140686
0.0075140686
0.0075140686
0.0075140686
0.0075140686
0.0075140686
0.0075140686
0.0075140686
0.0075140686
0.0075140686
0.0075140686
0.0075140686
0.0075140686
0.0075140686
0.0075140686
0.0075140686
0.0075140686
0.0075140686
0.0075140686
0.0075140686
0.0075140686
0.0075140686
0.0075140686
0.0075140686
0.0075140686
0.0075140686
0.0075140686
0.0075140686
0.0075140686
0.0075140686
0.0075140686
0.0075140686
0.0075140686
0.0075140686
0.0075140686
0.0075140686
0.0075140686
0.0075140686
0.0075140686
0.0075140686
0.0075140686
0.0075140686
0.0075140686
0.0075140686
0.0075140686
0.0075140686
0.0075140686
0.0075140686
0.0075140686
0.0075140686
0.0075140686
0.0075140686
0.0075140686
0.0075140686
0.0075140686
0.0075140686
0.0075140686
0.0075140686
0.0075140686
0.0075140686
0.0075140686
0.0075140686
0.0075140686
0.0075140686
0.0075140686
0.0075140686
0.0075140686
0.0075140686
0.0075140686
0.0075140686
0.0075140686
0.0075140686
0.0075140686
0.0075140686
0.0075140686
0.0075140686
0.0075140686
0.0075140686
0.0075140686
0.0075140686
0.0075140686
0.0075140686
0.0075140686
0.0075140686
0.0075140686
0.0075140686
0.0075140686
0.0075140686
0.0075140686
0.0075140686
0.0075140686
0.0075140686
0.0075140686
0.0075140686
0.0075140686
0.0075140686
0.0075140686
0.0075140686
0.0075140686
0.0075140686
0.0075140686
0.0075140686
)
;
        value           nonuniform List<scalar> 
130
(
704.60772
704.55517
704.45738
704.30397
704.06823
703.86192
703.635
703.3816
703.0949
702.76
702.46262
702.21565
702.05354
704.66096
704.62741
704.52795
704.36851
704.13131
703.91938
703.67935
703.38444
703.06847
702.71521
702.3582
702.08701
701.92922
704.75621
704.69902
704.60405
704.43137
704.18211
703.96167
703.71477
703.38971
702.95745
702.45017
702.10617
701.86193
701.69953
704.80827
704.7456
704.63178
704.43264
704.17375
703.95271
703.67063
703.3202
702.79795
702.20026
701.77805
701.4725
701.30124
704.761
704.7101
704.59657
704.40888
704.16883
703.94788
703.67703
703.33105
702.80834
702.29265
701.68082
701.23284
700.97304
704.76252
704.69668
704.58474
704.41115
704.17744
703.96685
703.72314
703.40762
702.98774
702.57989
702.12152
701.59278
701.01875
704.79305
704.7333
704.62778
704.46303
704.24412
704.02404
703.79051
703.51531
703.15654
702.79135
702.40639
702.02395
701.53379
704.7908
704.73198
704.62195
704.46287
704.24814
703.98166
703.75585
703.51332
703.22097
702.89624
702.57928
702.27766
701.9864
704.73631
704.67857
704.57639
704.40875
704.1773
703.91314
703.69555
703.46788
703.21559
702.94751
702.6733
702.45245
702.31033
704.64996
704.60458
704.50185
704.33629
704.07046
703.8158
703.59224
703.36484
703.12629
702.88304
702.64244
702.46212
702.34987
)
;
        Tnbr            T;
        thicknessLayers List<scalar> 0();
        kappaLayers     List<scalar> 0();
        kappaMethod     solidThermo;
        kappa           none;
        alphaAni        none;
        alpha           none;
        field           T;
    }
    leftSolid_to_heater
    {
        type            compressible::turbulentTemperatureCoupledBaffleMixed;
        refValue        nonuniform List<scalar> 10(639.37226 632.71163 618.52648 595.13038 560.50912 560.52692 595.22324 618.72663 632.91337 639.56605);
        refGradient     uniform 0;
        valueFraction   nonuniform List<scalar> 10(2.08329e-05 2.08329e-05 2.08329e-05 2.08329e-05 2.08329e-05 2.08329e-05 2.08329e-05 2.08329e-05 2.08329e-05 2.08329e-05);
        value           nonuniform List<scalar> 10(699.96851 699.8474 699.6242 699.30091 699.07748 699.16718 699.52276 699.88722 700.14616 700.21407);
        Tnbr            T;
        thicknessLayers List<scalar> 1(0.001);
        kappaLayers     List<scalar> 1(0.0005);
        kappaMethod     solidThermo;
        kappa           none;
        alphaAni        none;
        alpha           none;
        field           T;
    }
    leftSolid_to_topAir
    {
        type            compressible::turbulentTemperatureCoupledBaffleMixed;
        refValue        nonuniform List<scalar> 
130
(
316.47487
331.83707
345.76921
358.60371
370.63404
382.05961
393.00196
403.48052
413.31446
422.40688
430.72096
438.17494
444.58093
316.47356
331.66912
345.28057
357.64185
369.02871
379.60218
389.44091
398.54938
406.86141
414.24004
420.49076
425.38669
428.65942
316.47549
331.70467
345.35941
357.77373
369.22943
379.89572
389.86277
399.16941
407.82741
415.79876
423.00422
429.31701
434.49817
316.47718
331.71776
345.39761
357.85384
369.37723
380.15437
390.30348
399.90665
409.02529
417.70838
425.99878
433.93158
441.42453
316.47604
331.71909
345.40538
357.87176
369.4099
380.20813
390.38755
400.0337
409.21211
417.97864
426.3773
434.44055
441.95191
316.47601
331.71884
345.40491
357.87125
369.4095
380.20805
390.38838
400.03657
409.21934
417.99269
426.39985
434.46891
441.98133
316.47725
331.7179
345.39794
357.85494
369.37974
380.15861
390.31078
399.91969
409.04887
417.7485
426.05757
434.00637
441.50466
316.477
331.70751
345.3633
357.77888
369.23621
379.90374
389.873
399.18441
407.85106
415.83541
423.05561
429.38323
434.57846
316.47615
331.67379
345.28699
357.64972
369.03776
379.61158
389.45132
398.56307
406.8813
414.26906
420.53043
425.43681
428.71808
316.47709
331.84139
345.77523
358.61079
370.64121
382.06579
393.00736
403.48621
413.32434
422.4238
430.74725
438.21248
444.63044
)
;
        refGradient     uniform 0;
        valueFraction   nonuniform List<scalar> 
130
(
0.00032132529
0.00032132529
0.00032132529
0.00032132529
0.00032132529
0.00032132529
0.00032132529
0.00032132529
0.00032132529
0.00032132529
0.00032132529
0.00032132529
0.00032132529
0.00032132529
0.00032132529
0.00032132529
0.00032132529
0.00032132529
0.00032132529
0.00032132529
0.00032132529
0.00032132529
0.00032132529
0.00032132529
0.00032132529
0.00032132529
0.00032132529
0.00032132529
0.00032132529
0.00032132529
0.00032132529
0.00032132529
0.00032132529
0.00032132529
0.00032132529
0.00032132529
0.00032132529
0.00032132529
0.00032132529
0.00032132529
0.00032132529
0.00032132529
0.00032132529
0.00032132529
0.00032132529
0.00032132529
0.00032132529
0.00032132529
0.00032132529
0.00032132529
0.00032132529
0.00032132529
0.00032132529
0.00032132529
0.00032132529
0.00032132529
0.00032132529
0.00032132529
0.00032132529
0.00032132529
0.00032132529
0.00032132529
0.00032132529
0.00032132529
0.00032132529
0.00032132529
0.00032132529
0.00032132529
0.00032132529
0.00032132529
0.00032132529
0.00032132529
0.00032132529
0.00032132529
0.00032132529
0.00032132529
0.00032132529
0.00032132529
0.00032132529
0.00032132529
0.00032132529
0.00032132529
0.00032132529
0.00032132529
0.00032132529
0.00032132529
0.00032132529
0.00032132529
0.00032132529
0.00032132529
0.00032132529
0.00032132529
0.00032132529
0.00032132529
0.00032132529
0.00032132529
0.00032132529
0.00032132529
0.00032132529
0.00032132529
0.00032132529
0.00032132529
0.00032132529
0.00032132529
0.00032132529
0.00032132529
0.00032132529
0.00032132529
0.00032132529
0.00032132529
0.00032132529
0.00032132529
0.00032132529
0.00032132529
0.00032132529
0.00032132529
0.00032132529
0.00032132529
0.00032132529
0.00032132529
0.00032132529
0.00032132529
0.00032132529
0.00032132529
0.00032132529
0.00032132529
0.00032132529
0.00032132529
0.00032132529
0.00032132529
)
;
        value           nonuniform List<scalar> 
130
(
702.2518
702.21036
702.12035
701.97756
701.78277
701.57835
701.35395
701.1024
700.82171
700.51965
700.24151
700.01908
699.88771
702.30163
702.26487
702.17379
702.02651
701.82711
701.6149
701.37559
701.09528
700.78278
700.44915
700.13681
699.8968
699.76166
702.37177
702.32686
702.23227
702.07617
701.86756
701.64518
701.38894
701.07169
700.68442
700.2667
699.92658
699.68087
699.5407
702.40975
702.36017
702.25496
702.08604
701.87066
701.6413
701.36374
701.01571
700.56898
700.08493
699.67987
699.38281
699.22022
702.38926
702.34301
702.23917
702.07566
701.86828
701.64186
701.3686
701.02307
700.57837
700.10329
699.6161
699.22574
698.99775
702.38901
702.33863
702.2364
702.07987
701.87898
701.66131
701.40702
701.09289
700.70936
700.29959
699.86303
699.42855
699.08743
702.41186
702.36369
702.2648
702.11335
701.91729
701.69924
701.45693
701.17506
700.84044
700.48171
700.10916
699.74806
699.44203
702.40916
702.36121
702.26106
702.10935
701.90857
701.67331
701.43757
701.18478
700.89939
700.59219
700.28687
700.00882
699.80366
702.36585
702.31904
702.2203
702.06331
701.85323
701.61626
701.38859
701.15516
700.90568
700.64606
700.39384
700.18694
700.06034
702.30679
702.26444
702.16626
702.00686
701.78483
701.54988
701.32386
701.09614
700.86149
700.6256
700.40393
700.23227
700.13321
)
;
        Tnbr            T;
        thicknessLayers List<scalar> 0();
        kappaLayers     List<scalar> 0();
        kappaMethod     solidThermo;
        kappa           none;
        alphaAni        none;
        alpha           none;
        field           T;
    }
}


// ************************************************************************* //
