/*--------------------------------*- C++ -*----------------------------------*\
| =========                 |                                                 |
| \\      /  F ield         | OpenFOAM: The Open Source CFD Toolbox           |
|  \\    /   O peration     | Version:  v2012                                 |
|   \\  /    A nd           | Website:  www.openfoam.com                      |
|    \\/     M anipulation  |                                                 |
\*---------------------------------------------------------------------------*/
FoamFile
{
    version     2.0;
    format      ascii;
    class       volScalarField;
    location    "390/leftSolid";
    object      T;
}
// * * * * * * * * * * * * * * * * * * * * * * * * * * * * * * * * * * * * * //

dimensions      [0 0 0 1 0 0 0];


internalField   nonuniform List<scalar> 
130
(
879.91427
879.85748
879.73137
879.53503
879.32133
879.09584
878.85692
878.60698
878.35996
878.12495
877.91421
877.73637
877.64426
879.83641
879.78117
879.66409
879.47711
879.26191
879.02793
878.77054
878.50675
878.24243
877.98373
877.73802
877.53918
877.43709
879.66602
879.61097
879.49906
879.33541
879.12971
878.88353
878.60123
878.30998
878.01406
877.71802
877.43415
877.19679
877.0753
879.45461
879.39966
879.29126
879.13138
878.92185
878.66233
878.34494
878.01765
877.6788
877.32699
876.97983
876.70005
876.54714
879.24551
879.18522
879.06498
878.88581
878.65499
878.37606
878.05517
877.70388
877.33723
876.94878
876.57234
876.26076
876.04321
879.10428
879.03761
878.89644
878.68086
878.42595
878.13351
877.80563
877.44975
877.07657
876.67791
876.30388
876.00396
875.79933
878.96987
878.90392
878.77036
878.56487
878.27935
877.95533
877.62358
877.27827
876.91644
876.5299
876.17733
875.90929
875.74814
878.80153
878.74184
878.62094
878.43488
878.17935
877.85512
877.50825
877.1727
876.83044
876.48689
876.17718
875.94212
875.80499
878.613
878.56171
878.45423
878.28541
878.05304
877.75715
877.40869
877.07363
876.7403
876.43019
876.15298
875.9498
875.83343
878.47918
878.43232
878.33337
878.17521
877.95749
877.68033
877.34489
876.98978
876.666
876.38249
876.1505
875.97993
875.87954
)
;

boundaryField
{
    minX
    {
        type            zeroGradient;
    }
    minZ
    {
        type            zeroGradient;
    }
    maxZ
    {
        type            zeroGradient;
    }
    leftSolid_to_bottomWater
    {
        type            compressible::turbulentTemperatureCoupledBaffleMixed;
        refValue        nonuniform List<scalar> 
130
(
969.16977
968.99918
967.0964
961.16881
960.28879
960.11135
959.59021
957.37251
956.30642
954.90937
953.99648
949.44443
949.73588
969.93983
969.47539
969.35607
963.86787
962.14644
962.12548
959.76921
958.65738
957.76192
956.5468
951.96532
948.26748
948.99467
968.44198
967.84361
966.61396
965.58952
965.36812
964.39854
961.32342
960.20774
959.18383
957.69141
954.41037
947.81138
948.28042
967.29058
966.51722
966.12479
966.14746
966.19889
966.55835
959.92268
958.64037
957.32687
954.12418
946.47639
938.99594
937.92552
966.05069
965.07261
964.39889
963.70279
963.0587
962.05835
960.82461
957.41481
956.70977
951.91231
945.1275
938.04749
921.94215
971.0753
970.38714
968.06976
962.02203
961.48282
961.34585
959.92419
958.58099
958.37838
951.98212
944.88421
940.30358
927.05912
974.77956
973.55003
972.59991
972.04057
964.92903
960.02043
960.78026
960.92039
960.62169
952.46036
945.40588
941.98482
937.07068
975.68375
974.59816
973.77828
973.13652
972.34867
965.98011
961.81498
963.41925
962.3722
957.8879
952.99307
949.5307
945.3819
973.59774
973.13924
972.70897
972.01307
971.11299
969.29129
961.42358
962.93774
959.27032
957.41268
951.03311
947.90349
945.42588
970.78941
970.42745
970.32938
969.65185
968.85564
968.19442
963.95953
957.03593
954.98639
953.27914
952.28503
951.50702
949.19314
)
;
        refGradient     uniform 0;
        valueFraction   nonuniform List<scalar> 
130
(
0.0075140686
0.0075140686
0.0075140686
0.0075140686
0.0075140686
0.0075140686
0.0075140686
0.0075140686
0.0075140686
0.0075140686
0.0075140686
0.0075140686
0.0075140686
0.0075140686
0.0075140686
0.0075140686
0.0075140686
0.0075140686
0.0075140686
0.0075140686
0.0075140686
0.0075140686
0.0075140686
0.0075140686
0.0075140686
0.0075140686
0.0075140686
0.0075140686
0.0075140686
0.0075140686
0.0075140686
0.0075140686
0.0075140686
0.0075140686
0.0075140686
0.0075140686
0.0075140686
0.0075140686
0.0075140686
0.0075140686
0.0075140686
0.0075140686
0.0075140686
0.0075140686
0.0075140686
0.0075140686
0.0075140686
0.0075140686
0.0075140686
0.0075140686
0.0075140686
0.0075140686
0.0075140686
0.0075140686
0.0075140686
0.0075140686
0.0075140686
0.0075140686
0.0075140686
0.0075140686
0.0075140686
0.0075140686
0.0075140686
0.0075140686
0.0075140686
0.0075140686
0.0075140686
0.0075140686
0.0075140686
0.0075140686
0.0075140686
0.0075140686
0.0075140686
0.0075140686
0.0075140686
0.0075140686
0.0075140686
0.0075140686
0.0075140686
0.0075140686
0.0075140686
0.0075140686
0.0075140686
0.0075140686
0.0075140686
0.0075140686
0.0075140686
0.0075140686
0.0075140686
0.0075140686
0.0075140686
0.0075140686
0.0075140686
0.0075140686
0.0075140686
0.0075140686
0.0075140686
0.0075140686
0.0075140686
0.0075140686
0.0075140686
0.0075140686
0.0075140686
0.0075140686
0.0075140686
0.0075140686
0.0075140686
0.0075140686
0.0075140686
0.0075140686
0.0075140686
0.0075140686
0.0075140686
0.0075140686
0.0075140686
0.0075140686
0.0075140686
0.0075140686
0.0075140686
0.0075140686
0.0075140686
0.0075140686
0.0075140686
0.0075140686
0.0075140686
0.0075140686
0.0075140686
0.0075140686
0.0075140686
0.0075140686
)
;
        value           nonuniform List<scalar> 
130
(
880.58098
880.52335
880.38393
880.14449
879.92575
879.7006
879.45957
879.19489
878.94171
878.698
878.48205
878.27133
878.18208
880.50946
880.45116
880.33407
880.10725
879.8807
879.64829
879.37514
879.105
878.83595
878.57009
878.29186
878.06666
877.97078
880.32903
880.26989
880.14957
879.97945
879.77361
879.52197
879.21868
878.92125
878.61988
878.31487
878.00851
877.72331
877.60625
880.11049
880.05013
879.93959
879.78108
879.57349
879.31861
878.95372
878.61926
878.27308
877.89983
877.49776
877.16392
877.00413
879.89356
879.82637
879.70197
879.5189
879.28494
879.00054
878.67274
878.29848
877.92925
877.50764
877.083
876.72069
876.38385
879.79101
879.71968
879.56216
879.30274
879.04567
878.75438
878.41826
878.05487
877.68292
877.23917
876.81466
876.48264
876.18016
879.68529
879.61061
879.47092
879.26277
878.92593
878.56744
878.24384
877.90213
877.54076
877.09581
876.69291
876.40121
876.20441
879.52485
879.45746
879.33133
879.14185
878.88233
878.51266
878.13706
877.81605
877.4685
877.09389
876.74977
876.49051
876.32329
879.32191
879.26757
879.15768
878.98492
878.74756
878.44022
878.03525
877.71406
877.35573
877.03402
876.71104
876.48597
876.35188
879.16792
879.1187
879.01977
878.85772
878.63568
878.35567
877.99092
877.58647
877.24977
876.95563
876.718
876.54292
876.42591
)
;
        Tnbr            T;
        thicknessLayers List<scalar> 0();
        kappaLayers     List<scalar> 0();
        kappaMethod     solidThermo;
        kappa           none;
        alphaAni        none;
        alpha           none;
        field           T;
    }
    leftSolid_to_heater
    {
        type            compressible::turbulentTemperatureCoupledBaffleMixed;
        refValue        nonuniform List<scalar> 10(730.17335 720.85811 701.27827 669.36986 622.72642 622.47293 668.36357 699.62829 718.78338 727.88152);
        refGradient     uniform 0;
        valueFraction   nonuniform List<scalar> 10(2.08329e-05 2.08329e-05 2.08329e-05 2.08329e-05 2.08329e-05 2.08329e-05 2.08329e-05 2.08329e-05 2.08329e-05 2.08329e-05);
        value           nonuniform List<scalar> 10(877.63727 877.4298 877.06751 876.53858 876.03366 875.78968 875.73927 875.79678 875.82565 875.87191);
        Tnbr            T;
        thicknessLayers List<scalar> 1(0.001);
        kappaLayers     List<scalar> 1(0.0005);
        kappaMethod     solidThermo;
        kappa           none;
        alphaAni        none;
        alpha           none;
        field           T;
    }
    leftSolid_to_topAir
    {
        type            compressible::turbulentTemperatureCoupledBaffleMixed;
        refValue        nonuniform List<scalar> 
130
(
323.59843
345.43696
365.19826
383.43738
400.62208
417.03762
432.80372
447.8132
461.74135
474.5564
486.14608
496.30032
504.56613
323.58953
345.18924
364.48784
382.04145
398.28383
413.44426
427.58694
440.65855
452.47581
462.73482
470.99812
476.73962
479.29463
323.57994
345.21317
364.56293
382.18426
398.51769
413.80273
428.14595
441.58162
454.05337
465.39203
475.28466
483.21254
488.20761
323.57121
345.21047
364.58809
382.26479
398.6977
414.15737
428.79781
442.71177
455.93694
468.44662
480.08954
490.46129
498.56994
323.56208
345.19734
364.57636
382.25887
398.70269
414.18011
428.84661
442.7921
456.04918
468.55594
480.06726
489.97724
497.16962
323.55646
345.18653
364.56023
382.23648
398.67356
414.14468
428.80834
442.76032
456.04509
468.63687
480.37943
490.83609
498.89269
323.55187
345.17336
364.53436
382.19436
398.60919
414.05023
428.67393
442.57541
455.80745
468.36559
480.15422
490.88526
499.70166
323.54519
345.14639
364.46646
382.05885
398.36228
413.61492
427.92464
441.33127
453.78279
465.12934
475.0992
483.25676
488.76891
323.5403
345.09489
364.3523
381.86754
398.07224
413.19421
427.29706
440.32908
452.10912
462.34442
470.61862
476.4489
479.24454
323.54056
345.32526
365.03669
383.22854
400.36551
416.73076
432.44516
447.41076
461.29605
474.07341
485.63733
495.78971
504.09821
)
;
        refGradient     uniform 0;
        valueFraction   nonuniform List<scalar> 
130
(
0.00032132529
0.00032132529
0.00032132529
0.00032132529
0.00032132529
0.00032132529
0.00032132529
0.00032132529
0.00032132529
0.00032132529
0.00032132529
0.00032132529
0.00032132529
0.00032132529
0.00032132529
0.00032132529
0.00032132529
0.00032132529
0.00032132529
0.00032132529
0.00032132529
0.00032132529
0.00032132529
0.00032132529
0.00032132529
0.00032132529
0.00032132529
0.00032132529
0.00032132529
0.00032132529
0.00032132529
0.00032132529
0.00032132529
0.00032132529
0.00032132529
0.00032132529
0.00032132529
0.00032132529
0.00032132529
0.00032132529
0.00032132529
0.00032132529
0.00032132529
0.00032132529
0.00032132529
0.00032132529
0.00032132529
0.00032132529
0.00032132529
0.00032132529
0.00032132529
0.00032132529
0.00032132529
0.00032132529
0.00032132529
0.00032132529
0.00032132529
0.00032132529
0.00032132529
0.00032132529
0.00032132529
0.00032132529
0.00032132529
0.00032132529
0.00032132529
0.00032132529
0.00032132529
0.00032132529
0.00032132529
0.00032132529
0.00032132529
0.00032132529
0.00032132529
0.00032132529
0.00032132529
0.00032132529
0.00032132529
0.00032132529
0.00032132529
0.00032132529
0.00032132529
0.00032132529
0.00032132529
0.00032132529
0.00032132529
0.00032132529
0.00032132529
0.00032132529
0.00032132529
0.00032132529
0.00032132529
0.00032132529
0.00032132529
0.00032132529
0.00032132529
0.00032132529
0.00032132529
0.00032132529
0.00032132529
0.00032132529
0.00032132529
0.00032132529
0.00032132529
0.00032132529
0.00032132529
0.00032132529
0.00032132529
0.00032132529
0.00032132529
0.00032132529
0.00032132529
0.00032132529
0.00032132529
0.00032132529
0.00032132529
0.00032132529
0.00032132529
0.00032132529
0.00032132529
0.00032132529
0.00032132529
0.00032132529
0.00032132529
0.00032132529
0.00032132529
0.00032132529
0.00032132529
0.00032132529
0.00032132529
0.00032132529
)
;
        value           nonuniform List<scalar> 
130
(
879.73152
879.68178
879.56211
879.37165
879.16351
878.94334
878.70958
878.46458
878.22212
877.99133
877.78445
877.60991
877.52047
879.65365
879.60538
879.49455
879.31326
879.10332
878.87426
878.62151
878.36202
878.10159
877.8463
877.60339
877.40639
877.30513
879.48325
879.43516
879.32949
879.17155
878.97114
878.72994
878.45233
878.16551
877.8737
877.58142
877.30086
877.06608
876.94622
879.27184
879.22385
879.1217
878.96755
878.76335
878.50886
878.19626
877.87355
877.53905
877.19135
876.848
876.57168
876.42145
879.06271
879.0094
878.89542
878.72197
878.49648
878.22255
877.90643
877.55975
877.19743
876.8131
876.44043
876.13226
875.91719
878.92139
878.8617
878.7268
878.51696
878.26739
877.97999
877.65691
877.30553
876.93669
876.54218
876.17209
875.87569
875.67385
878.78686
878.72789
878.60061
878.40086
878.12067
877.8017
877.4747
877.13392
876.77644
876.39408
876.04544
875.78096
875.62276
878.61842
878.5657
878.45107
878.27072
878.02052
877.70128
877.35907
877.02791
876.68976
876.35002
876.04366
875.81134
875.67609
878.4298
878.38546
878.28422
878.1211
877.89403
877.60312
877.25929
876.9285
876.59912
876.29242
876.01805
875.8169
875.70149
878.29594
878.2561
878.16353
878.01128
877.79917
877.52739
877.1971
876.84693
876.52776
876.24852
876.02041
875.85321
875.75553
)
;
        Tnbr            T;
        thicknessLayers List<scalar> 0();
        kappaLayers     List<scalar> 0();
        kappaMethod     solidThermo;
        kappa           none;
        alphaAni        none;
        alpha           none;
        field           T;
    }
}


// ************************************************************************* //
