/*--------------------------------*- C++ -*----------------------------------*\
| =========                 |                                                 |
| \\      /  F ield         | OpenFOAM: The Open Source CFD Toolbox           |
|  \\    /   O peration     | Version:  v2012                                 |
|   \\  /    A nd           | Website:  www.openfoam.com                      |
|    \\/     M anipulation  |                                                 |
\*---------------------------------------------------------------------------*/
FoamFile
{
    version     2.0;
    format      ascii;
    class       surfaceScalarField;
    location    "160/topAir";
    object      phi;
}
// * * * * * * * * * * * * * * * * * * * * * * * * * * * * * * * * * * * * * //

dimensions      [1 0 -1 0 0 0 0];
oriented        oriented;


internalField   nonuniform List<scalar> 
3140
(
9.4245151e-06
-2.3069967e-07
7.5251619e-08
9.5577489e-06
-2.2155746e-07
8.8505185e-08
9.6971203e-06
-2.2103493e-07
8.191441e-08
9.815254e-06
-1.8601639e-07
6.8182056e-08
9.9041327e-06
-1.3778774e-07
4.925292e-08
9.9696915e-06
-8.971975e-08
2.4545827e-08
1.0022152e-05
-4.6066465e-08
-5.9751035e-09
1.0094387e-05
-1.066859e-08
-6.1115877e-08
1.0188229e-05
3.9744354e-08
-1.3313435e-07
1.0319566e-05
1.0430503e-07
-2.3519537e-07
1.0496451e-05
2.024111e-07
-3.7885742e-07
1.0705738e-05
3.6797895e-07
-5.7683921e-07
1.0909617e-05
6.3568306e-07
-8.3915337e-07
1.1085772e-05
9.9679608e-07
-1.1725854e-06
1.1194467e-05
1.4516287e-06
-1.5600155e-06
1.1226851e-05
1.9397469e-06
-1.9718915e-06
1.1203566e-05
2.394586e-06
-2.371137e-06
1.1158876e-05
2.7696241e-06
-2.7248481e-06
1.1119161e-05
3.0510635e-06
-3.0113367e-06
1.1095717e-05
3.2461055e-06
-3.2227175e-06
1.1094584e-05
3.3648042e-06
-3.3637922e-06
1.1122241e-05
3.41775e-06
-3.4455892e-06
1.1182827e-05
3.4174692e-06
-3.4782965e-06
1.1272511e-05
3.3774447e-06
-3.4674344e-06
1.1372208e-05
3.3125393e-06
-3.4126245e-06
1.1436656e-05
3.2419095e-06
-3.3068645e-06
1.137342e-05
3.1970581e-06
-3.1344995e-06
1.099462e-05
3.2441463e-06
-2.8662212e-06
9.9128119e-06
3.5303573e-06
-2.4495671e-06
4.4404142e-06
-1.8031031e-06
9.1402173e-06
-1.8327597e-07
8.1328658e-08
9.0945642e-06
-2.8165789e-07
1.0576119e-07
9.065244e-06
-3.0497545e-07
1.1327551e-07
9.0678474e-06
-3.0623794e-07
1.1764086e-07
9.1029703e-06
-2.9162167e-07
1.1874297e-07
9.165363e-06
-2.6736073e-07
1.1529041e-07
9.2547596e-06
-2.4188285e-07
1.0647292e-07
9.3773045e-06
-2.2352299e-07
9.0375201e-08
9.5550293e-06
-2.0152747e-07
6.3696899e-08
9.8035309e-06
-1.6505977e-07
2.1108784e-08
1.0148859e-05
-8.9514001e-08
-5.3044609e-08
1.0609103e-05
8.0317293e-08
-1.72115e-07
1.1155345e-05
4.3777889e-07
-3.4777092e-07
1.1696142e-05
1.0486598e-06
-5.9205586e-07
1.2145504e-05
1.9009581e-06
-8.9812222e-07
1.2439027e-05
2.8799446e-06
-1.2332454e-06
1.2586068e-05
3.8000779e-06
-1.5521759e-06
1.2637291e-05
4.5410417e-06
-1.8224015e-06
1.2633561e-05
5.0840966e-06
-2.0291791e-06
1.2598835e-05
5.4559204e-06
-2.1750775e-06
1.255756e-05
5.6793777e-06
-2.2733983e-06
1.2528554e-05
5.7787248e-06
-2.3321989e-06
1.2521166e-05
5.7786497e-06
-2.3541814e-06
1.2532491e-05
5.7014522e-06
-2.3359135e-06
1.2541829e-05
5.5676654e-06
-2.2652902e-06
1.2502966e-05
5.4002699e-06
-2.1206363e-06
1.2323249e-05
5.2413083e-06
-1.8660765e-06
1.1821303e-05
5.1849146e-06
-1.4408548e-06
1.0703804e-05
5.421147e-06
-7.7577402e-07
6.1865914e-06
1.4931744e-07
9.1953426e-06
-1.9270661e-07
8.3046881e-08
9.0566371e-06
-2.5202503e-07
1.0907256e-07
8.8969016e-06
-2.6410317e-07
1.1886338e-07
8.7291876e-06
-2.6513089e-07
1.2660764e-07
8.5634758e-06
-2.59372e-07
1.3346352e-07
8.404976e-06
-2.4808241e-07
1.3922374e-07
8.2536505e-06
-2.352923e-07
1.4473828e-07
8.1035317e-06
-2.2493271e-07
1.5153336e-07
7.9584331e-06
-2.1910647e-07
1.6268519e-07
7.8329238e-06
-2.199101e-07
1.8037163e-07
7.7738157e-06
-2.3402293e-07
2.0363611e-07
7.8831582e-06
-2.5279652e-07
2.238586e-07
8.2727767e-06
-1.7561277e-07
2.2398871e-07
8.9679634e-06
1.6310075e-07
1.907293e-07
9.8188769e-06
9.2447901e-07
1.2600644e-07
1.0554775e-05
2.0980708e-06
4.6422146e-08
1.1114432e-05
3.1933913e-06
4.7423284e-08
1.1537365e-05
3.9988469e-06
1.1957133e-07
1.183917e-05
4.5229452e-06
2.5956553e-07
1.2018996e-05
4.8246231e-06
4.5160605e-07
1.2120431e-05
4.9681246e-06
6.0989508e-07
1.2178985e-05
4.989711e-06
7.305009e-07
1.2213141e-05
4.9132157e-06
8.3130202e-07
1.2223061e-05
4.7648738e-06
9.2668538e-07
1.2187957e-05
4.5691865e-06
1.0336247e-06
1.2073976e-05
4.3515674e-06
1.162749e-06
1.1825961e-05
4.146715e-06
1.3426879e-06
1.1353589e-05
4.027316e-06
1.6300376e-06
1.0479984e-05
4.1823201e-06
2.1124303e-06
5.0425543e-06
2.9355214e-06
8.9951278e-06
8.1116104e-08
8.6371138e-06
1.0598866e-07
8.2583795e-06
1.1463091e-07
7.8725511e-06
1.2069734e-07
7.4875339e-06
1.2564509e-07
7.1098954e-06
1.29556e-07
6.7409789e-06
1.3362431e-07
6.3761752e-06
1.3987105e-07
6.0057377e-06
1.5133151e-07
5.613035e-06
1.7279329e-07
5.1668241e-06
2.1218929e-07
4.6300795e-06
2.839511e-07
4.0428307e-06
4.1164405e-07
3.5797649e-06
6.2621284e-07
3.5316315e-06
9.7271811e-07
4.1211846e-06
1.5086531e-06
5.1077429e-06
2.2069432e-06
6.1786346e-06
2.9280406e-06
7.1610902e-06
3.540559e-06
7.9833394e-06
4.0024183e-06
8.6401638e-06
4.3113331e-06
9.157447e-06
4.4724744e-06
9.5649069e-06
4.5058381e-06
9.8651868e-06
4.4647306e-06
1.0045567e-05
4.3890146e-06
1.0085756e-05
4.3116746e-06
9.972316e-06
4.2605537e-06
9.7453245e-06
4.2548187e-06
9.6284811e-06
4.2997911e-06
4.2719791e-06
9.5399528e-06
-2.2973423e-07
3.4099999e-08
9.7946435e-06
-2.2162565e-07
5.5609396e-08
1.0045523e-05
-2.3050433e-07
6.1769115e-08
1.0264656e-05
-2.1091106e-07
6.0233714e-08
1.0442521e-05
-1.8241602e-07
5.4110868e-08
1.0583761e-05
-1.5957379e-07
4.3209745e-08
1.0698515e-05
-1.4654158e-07
2.6151025e-08
1.0786997e-05
-1.4774979e-07
-1.5172454e-09
1.0851708e-05
-1.671615e-07
-3.0372221e-08
1.0899191e-05
-2.0995613e-07
-7.2442631e-08
1.093304e-05
-2.8118634e-07
-1.3128265e-07
1.0954479e-05
-3.8556842e-07
-2.1252948e-07
1.0963351e-05
-5.254482e-07
-3.2246727e-07
1.0993942e-05
-7.3128659e-07
-4.7187597e-07
1.1054904e-05
-9.5636513e-07
-6.6469734e-07
1.1157997e-05
-1.1734371e-06
-9.0173048e-07
1.130377e-05
-1.3386844e-06
-1.1784957e-06
1.1481744e-05
-1.4238864e-06
-1.4792836e-06
1.1669035e-05
-1.4274653e-06
-1.7715811e-06
1.1837874e-05
-1.3698105e-06
-2.0222244e-06
1.1977843e-05
-1.2884072e-06
-2.2158826e-06
1.2100326e-05
-1.2124971e-06
-2.3561548e-06
1.2224727e-05
-1.1541488e-06
-2.4491737e-06
1.2366649e-05
-1.1131854e-06
-2.4968573e-06
1.2531673e-05
-1.0813282e-06
-2.4971306e-06
1.2711379e-05
-1.0400536e-06
-2.4475713e-06
1.2872149e-05
-9.494726e-07
-2.3473455e-06
1.2923948e-05
-7.2710709e-07
-2.1931965e-06
1.2714876e-05
-2.5370234e-07
-1.9897044e-06
1.495888e-06
-1.7317482e-06
9.2679458e-06
-1.8450187e-07
3.7120014e-08
9.3712806e-06
-2.8510204e-07
6.5909572e-08
9.4871193e-06
-3.1285171e-07
7.9797062e-08
9.6303669e-06
-3.2260135e-07
8.6103428e-08
9.8001986e-06
-3.217901e-07
8.831305e-08
9.9867888e-06
-3.1707819e-07
8.624015e-08
1.0184515e-05
-3.1663392e-07
7.8881619e-08
1.0390191e-05
-3.2756377e-07
6.4562442e-08
1.0603143e-05
-3.570731e-07
4.0710723e-08
1.0824378e-05
-4.1390274e-07
3.8747748e-09
1.1053718e-05
-5.0920874e-07
-5.4309543e-08
1.1292858e-05
-6.556595e-07
-1.411211e-07
1.1552203e-05
-8.6399007e-07
-2.6854465e-07
1.1822444e-05
-1.1435834e-06
-4.4999184e-07
1.2130028e-05
-1.4616613e-06
-7.0043201e-07
1.2478597e-05
-1.7322655e-06
-1.0230446e-06
1.2849528e-05
-1.864963e-06
-1.3969105e-06
1.3213291e-05
-1.8408611e-06
-1.7692721e-06
1.3523988e-05
-1.6983436e-06
-2.0690733e-06
1.3738985e-05
-1.4885801e-06
-2.2713551e-06
1.3862964e-05
-1.2846462e-06
-2.4011481e-06
1.3925237e-05
-1.114946e-06
-2.4920143e-06
1.3950831e-05
-9.7492516e-07
-2.5589699e-06
1.3965458e-05
-8.7149357e-07
-2.592181e-06
1.39987e-05
-8.0920093e-07
-2.5705827e-06
1.4104274e-05
-7.8839317e-07
-2.4777542e-06
1.4410678e-05
-8.0500934e-07
-2.3167046e-06
1.5182083e-05
-8.3393723e-07
-2.1049675e-06
1.6904974e-05
-8.8000591e-07
-1.8716904e-06
-6.0054387e-07
-1.7465534e-06
9.3247782e-06
-1.950555e-07
3.7781146e-08
9.3366235e-06
-2.5545995e-07
6.7584992e-08
9.3284089e-06
-2.6904465e-07
8.3270984e-08
9.3138492e-06
-2.7356637e-07
9.2132988e-08
9.3011482e-06
-2.7347922e-07
9.7854712e-08
9.2925632e-06
-2.7007078e-07
1.0080331e-07
9.2873762e-06
-2.6755723e-07
1.0085128e-07
9.283932e-06
-2.7047409e-07
9.7891557e-08
9.2812313e-06
-2.8343216e-07
9.1749572e-08
9.2790518e-06
-3.1314323e-07
8.1797444e-08
9.2792852e-06
-3.7154717e-07
6.5748008e-08
9.2882318e-06
-4.7912856e-07
3.8390759e-08
9.3169896e-06
-6.6038009e-07
-8.3638877e-09
9.411947e-06
-9.3069109e-07
-1.1709884e-07
9.6153655e-06
-1.2617247e-06
-2.7732737e-07
9.9390536e-06
-1.5078114e-06
-5.0169482e-07
1.0365063e-05
-1.4889201e-06
-7.545695e-07
1.0825234e-05
-1.2365521e-06
-9.4476352e-07
1.1227328e-05
-8.8692749e-07
-9.5384482e-07
1.1499557e-05
-5.0282387e-07
-8.0619054e-07
1.1604392e-05
-1.5263094e-07
-6.2664527e-07
1.1634201e-05
5.9266354e-08
-4.7346744e-07
1.1643534e-05
1.904186e-07
-3.4357193e-07
1.1655581e-05
2.3908909e-07
-1.962858e-07
1.1705965e-05
2.25663e-07
-5.2046693e-08
1.1755999e-05
1.5568518e-07
1.6840433e-07
1.1857583e-05
4.8615744e-08
3.8721573e-07
1.2060691e-05
-7.3251622e-08
6.6608206e-07
1.2511388e-05
-1.7349339e-07
9.5480913e-07
-2.4728893e-07
1.1690088e-06
9.118283e-06
3.6728132e-08
8.9035238e-06
6.5287598e-08
8.6690961e-06
8.0013722e-08
8.4281724e-06
8.8054485e-08
8.1872855e-06
9.3052599e-08
7.9512433e-06
9.5527253e-08
7.7216662e-06
9.5644262e-08
7.4972101e-06
9.3853143e-08
7.2742511e-06
9.0858691e-08
7.0460796e-06
8.7821993e-08
6.7998801e-06
8.6842294e-08
6.5128919e-06
9.1811802e-08
6.1548285e-06
1.0932916e-07
5.7019457e-06
1.4840982e-07
5.1780061e-06
2.3495406e-07
4.7429963e-06
4.3591676e-07
4.6437406e-06
8.1738506e-07
4.952532e-06
1.38278e-06
5.4651065e-06
2.1410679e-06
5.9941318e-06
2.9705075e-06
6.4882507e-06
3.6644882e-06
6.9227093e-06
4.0974497e-06
7.3177804e-06
4.3014593e-06
7.651777e-06
4.3700924e-06
7.902643e-06
4.3641008e-06
8.053539e-06
4.3168041e-06
8.1176389e-06
4.245431e-06
8.1569317e-06
4.1424045e-06
8.2769786e-06
4.006424e-06
3.8041954e-06
9.5159823e-06
-2.3090749e-07
1.8092968e-08
9.7619286e-06
-2.2140717e-07
3.1247553e-08
1.0013207e-05
-2.2708448e-07
3.7817844e-08
1.0236489e-05
-2.0269512e-07
3.9935068e-08
1.0420473e-05
-1.6901079e-07
3.9464273e-08
1.0567512e-05
-1.4067553e-07
3.720558e-08
1.0682182e-05
-1.216219e-07
3.3489423e-08
1.0765085e-05
-1.126389e-07
2.8627388e-08
1.0824426e-05
-1.1270547e-07
2.3417552e-08
1.0859871e-05
-1.2434934e-07
1.6901301e-08
1.0870955e-05
-1.5032538e-07
8.4126197e-09
1.0854594e-05
-1.939226e-07
-1.7814916e-09
1.08005e-05
-2.5788385e-07
-1.0018748e-08
1.0743001e-05
-3.9169001e-07
-2.2228543e-08
1.0687905e-05
-5.6495441e-07
-4.4209487e-08
1.0664798e-05
-7.9865133e-07
-7.956028e-08
1.0716326e-05
-1.0968569e-06
-1.3278528e-07
1.0873081e-05
-1.4307101e-06
-2.0499053e-07
1.1104813e-05
-1.7231514e-06
-2.7986492e-07
1.1346721e-05
-1.9226049e-06
-3.4125655e-07
1.1557619e-05
-2.0401112e-06
-3.8639064e-07
1.1734441e-05
-2.1160584e-06
-4.1659517e-07
1.1896927e-05
-2.180164e-06
-4.3110119e-07
1.2065346e-05
-2.2381907e-06
-4.2663677e-07
1.2248836e-05
-2.2793359e-06
-4.0083661e-07
1.2448876e-05
-2.2879246e-06
-3.5930666e-07
1.2665593e-05
-2.2405251e-06
-3.2326216e-07
1.2848232e-05
-2.0428441e-06
-3.3282488e-07
1.270223e-05
-1.3806219e-06
-4.6306095e-07
2.233545e-07
-9.1757159e-07
9.2398526e-06
-1.8405383e-07
1.9383338e-08
9.3323868e-06
-2.838323e-07
3.5807747e-08
9.4488756e-06
-3.0952134e-07
4.5758904e-08
9.5976404e-06
-3.1588874e-07
5.0553223e-08
9.7754562e-06
-3.1031067e-07
5.1826315e-08
9.9703877e-06
-2.9919692e-07
4.9867865e-08
1.0173462e-05
-2.8995867e-07
4.4190969e-08
1.03788e-05
-2.8735082e-07
3.3992534e-08
1.0583565e-05
-2.9480074e-07
1.8106423e-08
1.0785536e-05
-3.1662194e-07
-5.7502421e-09
1.0980305e-05
-3.6005338e-07
-3.9267738e-08
1.1166958e-05
-4.3390759e-07
-8.7699791e-08
1.1348298e-05
-5.5067109e-07
-1.5700011e-07
1.1497313e-05
-7.3371775e-07
-2.5687344e-07
1.163559e-05
-1.0048933e-06
-3.9865822e-07
1.1784748e-05
-1.3731145e-06
-5.9761862e-07
1.1975727e-05
-1.8215968e-06
-8.6302517e-07
1.221886e-05
-2.2706636e-06
-1.1723431e-06
1.2431238e-05
-2.5559807e-06
-1.4485367e-06
1.252558e-05
-2.6299199e-06
-1.6583032e-06
1.2479794e-05
-2.5788061e-06
-1.8165771e-06
1.2329039e-05
-2.514721e-06
-1.9424813e-06
1.2127098e-05
-2.4950271e-06
-2.0420266e-06
1.1919559e-05
-2.5148975e-06
-2.107764e-06
1.173904e-05
-2.5383757e-06
-2.1307783e-06
1.1629867e-05
-2.5444355e-06
-2.1116405e-06
1.1700001e-05
-2.5525968e-06
-2.0739559e-06
1.2270231e-05
-2.621393e-06
-2.0950788e-06
1.4079424e-05
-2.6510867e-06
-2.4085092e-06
-2.2335874e-06
-2.9478339e-06
9.2976677e-06
-1.9461229e-07
1.9630686e-08
9.2995727e-06
-2.5455261e-07
3.6400205e-08
9.2931734e-06
-2.6698056e-07
4.7129646e-08
9.2862851e-06
-2.6991006e-07
5.304317e-08
9.2858652e-06
-2.6772805e-07
5.5693178e-08
9.2935313e-06
-2.6142826e-07
5.5370555e-08
9.3075101e-06
-2.5473048e-07
5.1647166e-08
9.3252444e-06
-2.5102324e-07
4.3833712e-08
9.3441565e-06
-2.5289125e-07
3.0933006e-08
9.3613337e-06
-2.6334452e-07
1.1349247e-08
9.3726001e-06
-2.8759046e-07
-1.7973626e-08
9.3732196e-06
-3.3437414e-07
-6.1752978e-08
9.3608847e-06
-4.1812387e-07
-1.2856548e-07
9.3073686e-06
-5.6726107e-07
-2.3002702e-07
9.2160208e-06
-8.1064033e-07
-3.8021901e-07
9.1172262e-06
-1.1751067e-06
-6.0089538e-07
9.0695254e-06
-1.6296182e-06
-8.988467e-07
9.1101148e-06
-2.0354238e-06
-1.2206341e-06
9.1408918e-06
-2.1304293e-06
-1.410232e-06
9.0168458e-06
-1.8912485e-06
-1.4208212e-06
8.6859732e-06
-1.5110591e-06
-1.3634499e-06
8.2298402e-06
-1.1823719e-06
-1.3495321e-06
7.7565518e-06
-9.9615715e-07
-1.3689418e-06
7.3637205e-06
-9.5180533e-07
-1.3663246e-06
7.1097711e-06
-1.0234555e-06
-1.3127744e-06
7.0883529e-06
-1.1688167e-06
-1.185524e-06
7.274313e-06
-1.3948365e-06
-9.5583931e-07
7.805016e-06
-1.7122498e-06
-7.7202466e-07
9.4776543e-06
-2.1284732e-06
-1.2370674e-06
-2.4928398e-06
-2.1506502e-06
9.0919028e-06
1.9163555e-08
8.8672674e-06
3.5370134e-08
8.6347074e-06
4.5592828e-08
8.4017718e-06
5.1079823e-08
8.1736903e-06
5.3405913e-08
7.9548206e-06
5.2968642e-08
7.746231e-06
4.9503367e-08
7.546502e-06
4.2559008e-08
7.3529746e-06
3.1495204e-08
7.1620649e-06
1.5387696e-08
6.9679749e-06
-6.6574727e-09
6.7629745e-06
-3.7561022e-08
6.5331389e-06
-7.8957999e-08
6.2485419e-06
-1.3425312e-07
5.8772711e-06
-2.0441645e-07
5.4212928e-06
-2.8322986e-07
4.9518212e-06
-3.4286129e-07
4.6413415e-06
-3.4248926e-07
4.697519e-06
-4.6047322e-08
4.7987466e-06
9.7753493e-07
4.8425164e-06
2.1092033e-06
4.9620536e-06
2.7952659e-06
5.1759197e-06
3.091298e-06
5.4372931e-06
3.1568343e-06
5.6819989e-06
3.0958751e-06
5.8725054e-06
2.9573921e-06
5.9858624e-06
2.7370784e-06
6.0797087e-06
2.3360655e-06
6.7090473e-06
1.2484314e-06
-1.0085799e-06
9.5106818e-06
-2.3098749e-07
7.466288e-09
9.7494889e-06
-2.2085577e-07
1.3473293e-08
9.9955621e-06
-2.2509438e-07
1.7080749e-08
1.0215229e-05
-1.9817206e-07
1.8728255e-08
1.0396522e-05
-1.6057202e-07
1.9070189e-08
1.0541644e-05
-1.2608578e-07
1.8527869e-08
1.0655697e-05
-9.7485441e-08
1.7308008e-08
1.0743144e-05
-7.3952511e-08
1.5539939e-08
1.0807816e-05
-5.4202011e-08
1.3373335e-08
1.0851447e-05
-3.739724e-08
1.1108645e-08
1.0874097e-05
-2.2956602e-08
9.1740945e-09
1.0874268e-05
-1.0234822e-08
8.7479402e-09
1.0843579e-05
9.6578105e-09
1.1491965e-08
1.0815093e-05
-5.7401752e-09
1.2483656e-08
1.0789319e-05
-2.8100475e-08
1.0160793e-08
1.0781479e-05
-7.7939317e-08
6.7429169e-09
1.082937e-05
-1.8624653e-07
6.1212146e-09
1.0984928e-05
-3.7600304e-07
1.5992169e-08
1.1208447e-05
-5.5610189e-07
5.3214431e-08
1.1433951e-05
-6.8059309e-07
1.1428142e-07
1.1642673e-05
-7.6602002e-07
1.7127261e-07
1.1841726e-05
-8.4001504e-07
2.2458304e-07
1.204392e-05
-9.1855917e-07
2.8523977e-07
1.2246539e-05
-9.9675457e-07
3.6707241e-07
1.2422577e-05
-1.0549272e-06
4.7698097e-07
1.2530087e-05
-1.0751152e-06
6.0626866e-07
1.2508613e-05
-1.0165451e-06
7.1140555e-07
1.218248e-05
-7.1382699e-07
7.0214707e-07
1.0971541e-05
3.1907172e-07
4.254942e-07
3.0846651e-06
-1.9191181e-07
9.2332158e-06
-1.8379339e-07
7.9429978e-09
9.3159103e-06
-2.8313692e-07
1.5401616e-08
9.4238904e-06
-3.0782578e-07
2.0524079e-08
9.5653335e-06
-3.1231048e-07
2.3269561e-08
9.7360607e-06
-3.0353097e-07
2.4087364e-08
9.9238117e-06
-2.8711223e-07
2.3181401e-08
1.0119526e-05
-2.6937104e-07
2.040938e-08
1.0317624e-05
-2.534298e-07
1.5429129e-08
1.0514477e-05
-2.4062044e-07
7.7385169e-09
1.0706964e-05
-2.3212887e-07
-3.4292494e-09
1.0893625e-05
-2.2979523e-07
-1.9003177e-08
1.1072848e-05
-2.3650245e-07
-4.0558433e-08
1.1246833e-05
-2.5173121e-07
-6.9447734e-08
1.139389e-05
-3.0184823e-07
-1.0766346e-07
1.1533052e-05
-4.0400145e-07
-1.6176515e-07
1.1682794e-05
-5.886689e-07
-2.3648514e-07
1.1881531e-05
-9.1737819e-07
-3.3049871e-07
1.2175159e-05
-1.4172244e-06
-4.2465702e-07
1.2392559e-05
-1.7306385e-06
-4.9131063e-07
1.2470813e-05
-1.8363096e-06
-5.8071877e-07
1.242369e-05
-1.8206549e-06
-7.1468946e-07
1.2291466e-05
-1.774602e-06
-8.7554192e-07
1.2111647e-05
-1.758933e-06
-1.0217092e-06
1.1893571e-05
-1.7749133e-06
-1.1113373e-06
1.1616024e-05
-1.7959089e-06
-1.111828e-06
1.127539e-05
-1.810984e-06
-1.0341507e-06
1.1001571e-05
-1.8454233e-06
-9.6917631e-07
1.1116435e-05
-1.851591e-06
-1.067932e-06
1.1329458e-05
-7.1005274e-07
-1.5929387e-06
2.295066e-06
-2.3126012e-06
9.2913745e-06
-1.9456248e-07
7.9840908e-09
9.2836189e-06
-2.5449091e-07
1.5509675e-08
9.2686313e-06
-2.6656392e-07
2.0855493e-08
9.2541022e-06
-2.6867065e-07
2.393305e-08
9.2462238e-06
-2.6507167e-07
2.5113534e-08
9.2464079e-06
-2.5643539e-07
2.4511633e-08
9.2527471e-06
-2.4596585e-07
2.1905622e-08
9.2625585e-06
-2.3626985e-07
1.6866486e-08
9.2728549e-06
-2.2877653e-07
8.7980583e-09
9.2800098e-06
-2.247093e-07
-3.2183364e-09
9.2799639e-06
-2.2609284e-07
-2.162169e-08
9.2665749e-06
-2.3629905e-07
-4.855721e-08
9.2373078e-06
-2.6180438e-07
-8.9212108e-08
9.1710161e-06
-3.1773865e-07
-1.4782933e-07
9.0487809e-06
-4.3133521e-07
-2.3063201e-07
8.857249e-06
-6.5314585e-07
-3.4486618e-07
8.624069e-06
-1.0953365e-06
-4.8769075e-07
8.4942555e-06
-1.885951e-06
-6.2213375e-07
8.0619968e-06
-2.0751544e-06
-6.332951e-07
7.4682468e-06
-2.0039079e-06
-6.5913376e-07
6.8010044e-06
-1.7580832e-06
-7.5849682e-07
6.0957542e-06
-1.4829252e-06
-9.3573386e-07
5.3974999e-06
-1.3568814e-06
-1.0725796e-06
4.7477422e-06
-1.3723709e-06
-1.1190797e-06
4.163649e-06
-1.4801041e-06
-1.0445642e-06
3.620608e-06
-1.6620149e-06
-7.9125863e-07
3.1982601e-06
-1.9768124e-06
-4.0140156e-07
3.4417155e-06
-2.4793436e-06
-3.8604774e-07
5.1116176e-06
-2.1334734e-06
-1.4760246e-06
8.844426e-07
-3.0124903e-06
9.085787e-06
7.764598e-09
8.8516901e-06
1.4975835e-08
8.6107221e-06
1.999658e-08
8.370383e-06
2.2748133e-08
8.1351174e-06
2.3599618e-08
7.9089609e-06
2.2689743e-08
7.6926675e-06
1.9830952e-08
7.4843092e-06
1.4647579e-08
7.2803223e-06
6.7059132e-09
7.0761451e-06
-5.1438664e-09
6.8665563e-06
-2.3160665e-08
6.6414838e-06
-4.8786511e-08
6.3866514e-06
-8.5928476e-08
6.0744601e-06
-1.3979855e-07
5.6569361e-06
-2.1822538e-07
5.0584466e-06
-3.3788404e-07
4.1650549e-06
-5.448171e-07
2.8967472e-06
-9.6038596e-07
2.0576626e-06
-1.2811951e-06
1.5741534e-06
-5.4164951e-07
1.4679213e-06
4.5725438e-07
1.6347868e-06
1.1450647e-06
1.9392954e-06
1.4295294e-06
2.2451944e-06
1.4783069e-06
2.44197e-06
1.4188254e-06
2.39502e-06
1.342182e-06
1.9193154e-06
1.235787e-06
8.7363694e-07
9.0221055e-07
8.9742496e-07
-9.0521644e-07
-3.3860478e-06
9.5079582e-06
-2.3128867e-07
-1.3557109e-10
9.7431334e-06
-2.2127229e-07
-2.5287142e-10
9.9862954e-06
-2.254795e-07
-3.6008949e-10
1.0204059e-05
-1.9828448e-07
-4.6274518e-10
1.0384159e-05
-1.601403e-07
-5.6380105e-10
1.0528581e-05
-1.2486959e-07
-6.6589683e-10
1.0642296e-05
-9.5253181e-08
-7.6857082e-10
1.0729594e-05
-7.0485525e-08
-8.6615586e-10
1.0793642e-05
-4.9306172e-08
-9.44714e-10
1.0836887e-05
-3.0708305e-08
-9.8883388e-10
1.086187e-05
-1.4373571e-08
-9.8508588e-10
1.0869532e-05
2.4684438e-09
-9.2096742e-10
1.0839507e-05
4.2778591e-08
-7.8915539e-10
1.0816029e-05
3.7067624e-08
-6.4125565e-10
1.0799256e-05
2.795455e-08
-5.5961975e-10
1.0823242e-05
-1.5878844e-08
-8.6205733e-10
1.0937482e-05
-1.0539626e-07
-2.1470672e-09
1.1190481e-05
-2.2954712e-07
-6.8843761e-09
1.144691e-05
-1.893826e-07
-1.336917e-08
1.1650247e-05
-7.0067502e-08
-1.864944e-08
1.1843271e-05
1.9488619e-09
-2.3232346e-08
1.2062628e-05
3.4507138e-08
-2.8689754e-08
1.2341155e-05
4.3789305e-08
-3.6340237e-08
1.2666196e-05
9.0772609e-08
-4.7813534e-08
1.2964721e-05
2.4041215e-07
-6.0762375e-08
1.3089631e-05
5.5678194e-07
-7.3869345e-08
1.2812306e-05
1.0730344e-06
-8.227337e-08
1.17194e-05
1.8786588e-06
-8.1018597e-08
9.0797955e-06
3.1347888e-06
-6.695931e-08
5.4484612e-06
-4.2635123e-08
9.2295843e-06
-1.8380835e-07
-1.5206894e-10
9.3071909e-06
-2.8316454e-07
-3.0547231e-10
9.4104116e-06
-3.0769992e-07
-4.6243489e-10
9.5478195e-06
-3.1177114e-07
-6.3053739e-10
9.7148995e-06
-3.0229067e-07
-8.1295734e-10
9.8989954e-06
-2.8473456e-07
-1.0113031e-09
1.0090724e-05
-2.6529585e-07
-1.2287204e-09
1.0284114e-05
-2.4691923e-07
-1.470062e-09
1.0475045e-05
-2.3069139e-07
-1.7403208e-09
1.0660444e-05
-2.1742147e-07
-2.0377018e-09
1.0838115e-05
-2.086142e-07
-2.344737e-09
1.1008478e-05
-2.0568201e-07
-2.658162e-09
1.1177684e-05
-1.927545e-07
-2.9616172e-09
1.1314733e-05
-2.0412373e-07
-3.320243e-09
1.1449427e-05
-2.6417047e-07
-4.0236471e-09
1.1623795e-05
-4.2035236e-07
-6.0504354e-09
1.1941881e-05
-7.4099951e-07
-1.2643877e-08
1.24659e-05
-1.1524564e-06
-2.5530198e-08
1.280723e-05
-9.8533133e-07
-3.6548112e-08
1.2989719e-05
-7.9382367e-07
-3.9369225e-08
1.306448e-05
-7.5020725e-07
-3.7645282e-08
1.30662e-05
-8.0827251e-07
-3.5186581e-08
1.3047686e-05
-9.2769306e-07
-3.3177204e-08
1.3069164e-05
-1.0114942e-06
-3.2585052e-08
1.3184428e-05
-9.5257817e-07
-3.6901164e-08
1.3317741e-05
-5.7480136e-07
-3.9827381e-08
1.3222096e-05
2.3127541e-07
-3.8628591e-08
1.2128174e-05
1.9214051e-06
-2.7866258e-08
9.5375037e-06
4.1188342e-06
-1.9691325e-09
6.9609705e-06
3.7428803e-08
9.2878284e-06
-1.9453778e-07
-1.5602788e-10
9.274958e-06
-2.5447092e-07
-3.1372958e-10
9.2550031e-06
-2.6641168e-07
-4.7768968e-10
9.2360365e-06
-2.6821498e-07
-6.5594689e-10
9.2238502e-06
-2.6413727e-07
-8.5236232e-10
9.2194773e-06
-2.547785e-07
-1.0694998e-09
9.2206464e-06
-2.432454e-07
-1.3109594e-09
9.2241931e-06
-2.3201205e-07
-1.5831744e-09
9.2264847e-06
-2.222831e-07
-1.8964227e-09
9.2228798e-06
-2.147604e-07
-2.2673854e-09
9.2059542e-06
-2.1066068e-07
-2.6408693e-09
9.1665743e-06
-2.1178501e-07
-3.0630734e-09
9.1087102e-06
-2.2054785e-07
-3.5399963e-09
9.0095283e-06
-2.4862754e-07
-4.1238552e-09
8.8473439e-06
-3.2750826e-07
-5.0815216e-09
8.6163303e-06
-5.2671525e-07
-7.4517731e-09
8.4370936e-06
-1.0327249e-06
-1.6700989e-08
8.7202644e-06
-2.017222e-06
-4.0896178e-08
8.0922973e-06
-9.3484211e-07
-5.6059962e-08
7.2460519e-06
-5.6111754e-07
-4.5581285e-08
6.2827889e-06
-5.2026173e-07
-2.4937157e-08
5.1893166e-06
-6.4261572e-07
-7.4983881e-09
4.0576822e-06
-8.7211001e-07
3.9519426e-09
3.064937e-06
-1.1369339e-06
-7.7241036e-10
2.4353858e-06
-1.3464858e-06
-2.1539461e-08
2.6349414e-06
-1.5099178e-06
-5.6230876e-08
3.9447351e-06
-1.4287254e-06
-5.0479507e-08
5.4839305e-06
-6.1428249e-10
-6.9576626e-09
5.3786461e-06
2.6889752e-06
5.3415986e-08
5.7609216e-06
8.3424036e-08
9.0823311e-06
-1.5378524e-10
8.8431439e-06
-3.0815365e-10
8.5971975e-06
-4.6899019e-10
8.3523747e-06
-6.4424496e-10
8.1126746e-06
-8.3768861e-10
7.8816376e-06
-1.0518114e-09
7.6595134e-06
-1.2902252e-09
7.4437091e-06
-1.5600738e-09
7.2300095e-06
-1.8771805e-09
7.0123969e-06
-2.2911091e-09
6.7811615e-06
-2.5850994e-09
6.5235114e-06
-2.9201036e-09
6.220215e-06
-3.1782907e-09
5.8349978e-06
-3.206716e-09
5.2920204e-06
-2.7535043e-09
4.4289917e-06
-1.5706923e-09
2.8495129e-06
1.8368849e-09
-1.2331205e-07
-6.7852454e-09
-2.3599272e-06
1.9987338e-08
-3.5208989e-06
5.769052e-08
-3.6690322e-06
8.4752032e-08
-3.2491108e-06
8.1561614e-08
-2.7240982e-06
3.1081461e-08
-2.3523813e-06
-3.196633e-08
-2.196527e-06
-8.5577001e-08
-2.2617975e-06
-1.0493596e-07
-2.377082e-06
-7.8524618e-08
-1.4370988e-06
-2.804182e-08
3.4041789e-07
4.9497706e-09
-5.1572119e-09
9.5079456e-06
-2.312965e-07
-7.7169892e-09
9.7431033e-06
-2.2129802e-07
-1.3935814e-08
9.9862399e-06
-2.2552616e-07
-1.7728727e-08
1.0203966e-05
-1.9834949e-07
-1.9551202e-08
1.0384018e-05
-1.6022213e-07
-2.0066657e-08
1.0528384e-05
-1.2496779e-07
-1.9705266e-08
1.064204e-05
-9.5361164e-08
-1.8678808e-08
1.0729287e-05
-7.0590549e-08
-1.7115265e-08
1.0793307e-05
-4.9381637e-08
-1.5158056e-08
1.0836595e-05
-3.0734979e-08
-1.3100187e-08
1.0861779e-05
-1.4340901e-08
-1.1372915e-08
1.0869902e-05
2.5779617e-09
-1.115301e-08
1.0840844e-05
4.3016653e-08
-1.426642e-08
1.0818641e-05
3.7890023e-08
-1.5856152e-08
1.0800497e-05
3.2198522e-08
-1.415157e-08
1.0820677e-05
-8.8536875e-09
-1.1816055e-08
1.0924082e-05
-9.1846665e-08
-1.347665e-08
1.1169203e-05
-2.2602553e-07
-2.5912555e-08
1.1427614e-05
-2.0390133e-07
-6.780799e-08
1.1631343e-05
-8.9144165e-08
-1.33071e-07
1.1821161e-05
-1.8216734e-08
-1.9458246e-07
1.2031529e-05
1.3496878e-08
-2.5207559e-07
1.2294006e-05
1.7708727e-08
-3.1590103e-07
1.2608883e-05
3.8467005e-08
-4.0042243e-07
1.290104e-05
1.6488808e-07
-5.1695714e-07
1.303644e-05
4.4735895e-07
-6.5562322e-07
1.2786056e-05
9.4109761e-07
-7.7175306e-07
1.1734557e-05
1.7401744e-06
-7.6816857e-07
9.142952e-06
3.0179419e-06
-4.9180006e-07
5.3769288e-06
1.3123465e-07
9.2295733e-06
-1.8381461e-07
-8.2377606e-09
9.3071536e-06
-2.8317954e-07
-1.5996899e-08
9.4103327e-06
-3.0772747e-07
-2.1426427e-08
9.5476841e-06
-3.1181228e-07
-2.4498071e-08
9.7146926e-06
-3.0234688e-07
-2.5667352e-08
9.8987002e-06
-2.8480609e-07
-2.5142417e-08
1.0090327e-05
-2.6538005e-07
-2.2789499e-08
1.0283613e-05
-2.4700933e-07
-1.8279823e-08
1.0474461e-05
-2.3077829e-07
-1.1123895e-08
1.0659884e-05
-2.1751398e-07
-6.0332769e-10
1.0837762e-05
-2.0864146e-07
1.4167074e-08
1.1008609e-05
-2.0553498e-07
3.4724934e-08
1.1178675e-05
-1.9217525e-07
6.2315872e-08
1.1316631e-05
-2.0204992e-07
9.8785072e-08
1.1450615e-05
-2.5632249e-07
1.5051573e-07
1.1616529e-05
-4.0317988e-07
2.2230253e-07
1.1910636e-05
-7.1235934e-07
3.1360708e-07
1.2422536e-05
-1.1686952e-06
4.05027e-07
1.2759592e-05
-1.0430333e-06
4.6543931e-07
1.2926584e-05
-8.4436807e-07
5.4886847e-07
1.2979192e-05
-7.8789419e-07
6.7947425e-07
1.2954781e-05
-8.3833842e-07
8.4094209e-07
1.2901319e-05
-9.5219484e-07
9.8997826e-07
1.2870288e-05
-1.0458249e-06
1.0821374e-06
1.2934536e-05
-1.0167783e-06
1.0796127e-06
1.3059052e-05
-7.003692e-07
9.8182454e-07
1.3047994e-05
1.8342945e-08
8.9003459e-07
1.2060159e-05
1.7241605e-06
9.6512901e-07
9.5794679e-06
3.9288629e-06
1.5510863e-06
6.7779051e-06
2.3106558e-06
9.2878146e-06
-1.945412e-07
-8.2852668e-09
9.2749166e-06
-2.544781e-07
-1.6117291e-08
9.2549183e-06
-2.6642422e-07
-2.1782442e-08
9.2358917e-06
-2.6823375e-07
-2.5207315e-08
9.2236277e-06
-2.641624e-07
-2.6771597e-08
9.2191596e-06
-2.5480946e-07
-2.6595959e-08
9.2202182e-06
-2.4328044e-07
-2.4466224e-08
9.2236419e-06
-2.3204797e-07
-1.9964031e-08
9.2257834e-06
-2.2232494e-07
-1.2485809e-08
9.2222951e-06
-2.1486182e-07
-1.4240606e-09
9.205636e-06
-2.1065382e-07
1.60396e-08
9.1669327e-06
-2.1154877e-07
4.1665331e-08
9.1103997e-06
-2.1972502e-07
8.0556388e-08
9.013476e-06
-2.4607996e-07
1.3684413e-07
8.8551142e-06
-3.1959674e-07
2.1656482e-07
8.6213046e-06
-5.036673e-07
3.2684728e-07
8.3993331e-06
-9.7543785e-07
4.6833851e-07
8.6293101e-06
-2.044315e-06
6.0489013e-07
7.9928214e-06
-1.0781489e-06
6.1584994e-07
7.0864915e-06
-6.2539895e-07
6.4188973e-07
6.083785e-06
-5.5563039e-07
7.4553709e-07
4.9826741e-06
-6.7276088e-07
9.2822698e-07
3.8651296e-06
-8.9729096e-07
1.067346e-06
2.8810293e-06
-1.1612757e-06
1.1003747e-06
2.2279506e-06
-1.3712802e-06
9.884076e-07
2.3213817e-06
-1.5244815e-06
6.7719304e-07
3.5315592e-06
-1.4803359e-06
2.4167486e-07
5.1090252e-06
-8.0922355e-08
2.2002048e-07
5.1257314e-06
2.4824349e-06
1.4769196e-06
5.5301399e-06
3.0697e-06
9.0823159e-06
-8.0604018e-09
8.8430998e-06
-1.5570468e-08
8.5971089e-06
-2.0902503e-08
8.352224e-06
-2.39933e-08
8.1124443e-06
-2.5220592e-08
7.8813122e-06
-2.472919e-08
7.6590797e-06
-2.2338168e-08
7.4431469e-06
-1.7675102e-08
7.2291974e-06
-1.0252246e-08
7.0121158e-06
-7.0670695e-11
6.7814506e-06
1.7427201e-08
6.5253121e-06
4.1671054e-08
6.2255044e-06
7.6906315e-08
5.8481364e-06
1.2808383e-07
5.3232013e-06
2.0258827e-07
4.5018326e-06
3.1613736e-07
3.015499e-06
5.1278575e-07
5.0386556e-08
9.1483666e-07
-2.317547e-06
1.3173047e-06
-3.5516183e-06
6.6830093e-07
-3.6955022e-06
-3.2578289e-07
-3.24186e-06
-1.0431008e-06
-2.7033981e-06
-1.4025795e-06
-2.3714865e-06
-1.5230071e-06
-2.3166893e-06
-1.510016e-06
-2.5024651e-06
-1.4431863e-06
-2.7312494e-06
-1.3299357e-06
-1.8969326e-06
-9.3756735e-07
-5.8172041e-07
1.1737144e-06
3.5385302e-06
9.5106516e-06
-2.3101642e-07
-1.8284827e-08
9.749405e-06
-2.2091618e-07
-3.159641e-08
9.9954016e-06
-2.2518452e-07
-3.8299511e-08
1.0214963e-05
-1.9827938e-07
-4.0546254e-08
1.0396121e-05
-1.6068468e-07
-4.0214178e-08
1.054109e-05
-1.2620219e-07
-3.8113671e-08
1.0654966e-05
-9.7589627e-08
-3.4581253e-08
1.0742191e-05
-7.4011275e-08
-2.9923855e-08
1.0806574e-05
-5.414376e-08
-2.4973227e-08
1.0849843e-05
-3.7099242e-08
-1.8830212e-08
1.0872381e-05
-2.2434167e-08
-1.102098e-08
1.0872369e-05
-9.6679735e-09
-1.0029589e-09
1.0840278e-05
1.0919243e-08
7.3910606e-09
1.0809899e-05
-3.6577921e-09
1.8660869e-08
1.0781818e-05
-2.5204729e-08
3.9604419e-08
1.0769589e-05
-7.2899175e-08
7.3756362e-08
1.0809439e-05
-1.7884274e-07
1.2589552e-07
1.0957427e-05
-3.7181083e-07
1.9817339e-07
1.1179925e-05
-5.6484512e-07
2.7477077e-07
1.1405655e-05
-6.9632525e-07
3.3780335e-07
1.1611198e-05
-7.8357243e-07
3.8377679e-07
1.1803144e-05
-8.5852856e-07
4.1481423e-07
1.1993544e-05
-9.3709118e-07
4.309256e-07
1.2180639e-05
-1.0174602e-06
4.2969321e-07
1.2339497e-05
-1.0859249e-06
4.0917493e-07