/*--------------------------------*- C++ -*----------------------------------*\
| =========                 |                                                 |
| \\      /  F ield         | OpenFOAM: The Open Source CFD Toolbox           |
|  \\    /   O peration     | Version:  v2012                                 |
|   \\  /    A nd           | Website:  www.openfoam.com                      |
|    \\/     M anipulation  |                                                 |
\*---------------------------------------------------------------------------*/
FoamFile
{
    version     2.0;
    format      ascii;
    class       volScalarField;
    location    "160/topAir";
    object      rho;
}
// * * * * * * * * * * * * * * * * * * * * * * * * * * * * * * * * * * * * * //

dimensions      [1 -3 0 0 0 0 0];


internalField   nonuniform List<scalar> 
1200
(
1.0983071
1.0474616
1.005256
0.96927768
0.9378161
0.90977049
0.88443974
0.86147047
0.84097358
0.82287139
0.80698774
0.7932597
0.78182958
0.77657715
0.77353608
0.77286395
0.77442767
0.77775869
0.78216134
0.78689685
0.79137067
0.79521075
0.79823747
0.8003796
0.80158985
0.80176649
0.80066441
0.79775157
0.79199243
0.78259318
1.1572462
1.1546477
1.1510904
1.1467418
1.1417293
1.1361511
1.1300938
1.1236182
1.1154075
1.1046277
1.0902542
1.0708602
1.0460865
1.0177891
0.98842083
0.96127059
0.9387609
0.92182545
0.91010867
0.90256896
0.89806399
0.89555441
0.89415766
0.89312897
0.8917817
0.88938479
0.88497675
0.87694436
0.86236783
0.83835298
1.1585892
1.1585024
1.158341
1.1580892
1.1577333
1.1572616
1.1566639
1.1559313
1.1550216
1.1538714
1.152367
1.1495088
1.1414322
1.1240555
1.0965665
1.0622749
1.0267238
0.99451451
0.96792068
0.94727754
0.93194073
0.92091724
0.91314619
0.9076366
0.90349948
0.89991862
0.89604259
0.89069897
0.8817284
0.86582665
1.1586181
1.1586152
1.1586083
1.1585949
1.1585715
1.1585345
1.1584791
1.1583998
1.1582891
1.1581358
1.1579199
1.1575633
1.1566977
1.1531597
1.1383053
1.1073211
1.0701655
1.0353964
1.0056605
0.98123985
0.96167123
0.94631249
0.93446274
0.92539154
0.91838143
0.91275196
0.90782806
0.90278977
0.89621656
0.88563568
1.0983116
1.047992
1.0066786
0.97188449
0.94189572
0.91566008
0.89252706
0.8721292
0.85431191
0.83909451
0.8266211
0.81710721
0.81086876
0.81274583
0.81749665
0.82434254
0.83208858
0.83960654
0.84613685
0.8512947
0.85508656
0.85773322
0.85948012
0.86047589
0.86070663
0.85994099
0.85759503
0.85237488
0.84183693
0.82768522
1.1572478
1.1546981
1.1512754
1.1471731
1.1425432
1.1375113
1.1321924
1.1267091
1.1211852
1.1157943
1.1107321
1.1061953
1.1024137
1.0997275
1.0980772
1.0970159
1.0957931
1.0938905
1.0910991
1.087387
1.0829067
1.0777305
1.0718514
1.0652278
1.0577598
1.0493585
1.0400022
1.0297424
1.018242
0.99048418
1.1585894
1.1585048
1.1583518
1.1581193
1.1577993
1.1573869
1.1568795
1.1562783
1.1555872
1.154815
1.1539763
1.1530663
1.1519815
1.1505736
1.1486237
1.1453341
1.1390477
1.1294827
1.1172726
1.1033351
1.0891868
1.0746195
1.0592795
1.0437082
1.0281741
1.0129376
0.99774909
0.9816845
0.96366454
0.94244048
1.1586181
1.1586153
1.1586089
1.1585967
1.1585764
1.1585451
1.1585
1.1584379
1.1583551
1.1582479
1.1581108
1.1579303
1.1576425
1.1568442
1.1533374
1.1417049
1.117814
1.0854279
1.0523314
1.0228987
0.99822931
0.97867076
0.9638655
0.95212525
0.94239367
0.93390281
0.9261365
0.91894866
0.91174533
0.90344275
1.0983049
1.0478797
1.0064488
0.97152626
0.9413837
0.91495257
0.89156129
0.87077451
0.85228834
0.83594896
0.82170939
0.80962675
0.79997236
0.79881652
0.80060768
0.80583661
0.81477308
0.82685774
0.8402404
0.85279052
0.86326028
0.87140825
0.87749679
0.88181082
0.88444967
0.88531608
0.88405947
0.87944992
0.8676406
0.84322495
1.1572474
1.1546885
1.1512499
1.1471284
1.1424766
1.1374165
1.1320543
1.1264908
1.1208285
1.1151831
1.1096993
1.1045577
1.0999872
1.0964848
1.094339
1.0937379
1.0945591
1.0960587
1.096638
1.0951994
1.0916422
1.0862734
1.0792903
1.0706541
1.0602505
1.0481187
1.0345127
1.0194374
1.0013432
0.97395567
1.1585893
1.1585044
1.1583506
1.158117
1.1577963
1.1573838
1.1568776
1.1562783
1.1555899
1.1548204
1.153984
1.1531034
1.1522138
1.1513727
1.1506295
1.1498954
1.1484999
1.1446579
1.1358627
1.1230432
1.1085364
1.0936519
1.0783141
1.0618079
1.0437902
1.0247485
1.0059879
0.98797883
0.96942997
0.94938159
1.1586181
1.1586153
1.1586089
1.1585966
1.1585763
1.1585453
1.1585008
1.15844
1.1583601
1.1582582
1.1581316
1.1579777
1.1577911
1.1575447
1.1570528
1.1553816
1.1495647
1.1345867
1.1067742
1.0732173
1.0406553
1.0129304
0.99130588
0.97470813
0.96164256
0.95086476
0.94152026
0.93312609
0.92512913
0.91584795
1.098299
1.0478383
1.0063375
0.97130877
0.94100701
0.91433003
0.8905546
0.86916922
0.84979231
0.83212729
0.81593318
0.80101691
0.78742006
0.78169048
0.7766595
0.77264388
0.77049958
0.77135345
0.77462811
0.77896523
0.78349967
0.78794939
0.79229281
0.79638875
0.79981373
0.80199466
0.80198732
0.79718258
0.78387278
0.76900406
1.1572471
1.1546849
1.1512361
1.1470948
1.1424091
1.1372924
1.1318364
1.1261176
1.120202
1.11415
1.1080245
1.1018871
1.0954865
1.0899407
1.0851384
1.081527
1.0798066
1.0804496
1.0811963
1.0805059
1.0778295
1.0731033
1.0664495
1.057755
1.0467399
1.0332879
1.0172988
0.99772136
0.96633018
0.89717932
1.1585893
1.1585043
1.1583499
1.1581149
1.1577916
1.1573745
1.1568603
1.1562476
1.1555366
1.1547291
1.1538294
1.1528453
1.1517837
1.1506897
1.1496269
1.1487057
1.1480413
1.1466621
1.1379069
1.125237
1.1099784
1.0926394
1.0735276
1.0522373
1.0292627
1.0065014
0.98563323
0.96559885
0.94250667
0.906156
1.1586181
1.1586153
1.1586088
1.1585965
1.158576
1.1585446
1.1584995
1.1584376
1.1583558
1.1582509
1.1581193
1.1579578
1.1577622
1.1575282
1.1572454
1.1568643
1.1559843
1.1503682
1.1148878
1.0880705
1.0603616
1.0305295
1.0066761
0.98857217
0.97430906
0.96240904
0.95184588
0.94147927
0.92513804
0.88897622
1.098303
1.0478341
1.0063149
0.97126013
0.94092381
0.91420076
0.89036282
0.86889317
0.84940435
0.83158924
0.81520883
0.80007848
0.78648043
0.78269361
0.77891975
0.77523576
0.77258181
0.7706548
0.76705044
0.76102743
0.75401594
0.74749485
0.74160914
0.73650799
0.73229821
0.72895105
0.72611019
0.72277909
0.7168975
0.70642359
1.1572472
1.1546838
1.1512312
1.1470823
1.1423844
1.1372492
1.1317656
1.1260057
1.1200296
1.1138891
1.1076316
1.1011903
1.0932834
1.0861318
1.0800507
1.076101
1.0741335
1.0741012
1.0721496
1.0687924
1.0645801
1.0587626
1.0517126
1.0417474
1.0260809
1.0024176
0.96943824
0.9259859
0.87076881
0.80247492
1.1585893
1.1585042
1.1583495
1.1581139
1.1577894
1.1573703
1.1568528
1.1562348
1.1555155
1.1546952
1.1537753
1.1527555
1.151609
1.1503732
1.1491219
1.1480162
1.1471955
1.1440808
1.1303315
1.1190466
1.1074804
1.0928463
1.0727278
1.0466626
1.0174999
0.99017873
0.97080993
0.95232925
0.91340875
0.84918587
1.1586181
1.1586153
1.1586088
1.1585964
1.1585758
1.1585443
1.1584988
1.1584363
1.1583535
1.1582469
1.1581126
1.1579465
1.1577425
1.157494
1.1571916
1.1567823
1.1554488
1.1409406
1.0443945
1.024742
1.0163859
1.0051003
0.99070862
0.97629474
0.96259944
0.95005822
0.93920171
0.92929582
0.91034481
0.86315927
1.0983031
1.0478349
1.0063163
0.9712615
0.94092482
0.91420096
0.89036092
0.86888693
0.84938934
0.8315613
0.81516571
0.80002625
0.78642808
0.78264275
0.77886298
0.7750304
0.77211205
0.77012989
0.76681444
0.76115999
0.75446938
0.74798322
0.74216593
0.73716127
0.73309555
0.72995816
0.72740814
0.72440857
0.71875607
0.70814861
1.1572472
1.1546838
1.1512312
1.1470824
1.1423845
1.1372494
1.1317657
1.1260056
1.1200291
1.1138876
1.1076284
1.1011812
1.0932599
1.0860576
1.079768
1.0757103
1.0735856
1.0737444
1.0720503
1.0688291
1.0647722
1.0595726
1.0532156
1.0445199
1.0303552
1.0084245
0.97700764
0.93395517
0.8777959
0.8075077
1.1585893
1.1585042
1.1583495
1.1581139
1.1577894
1.1573703
1.1568527
1.1562347
1.1555154
1.1546951
1.1537751
1.1527549
1.1516072
1.1503672
1.1491014
1.1479682
1.1471628
1.145079
1.1305273
1.1184964
1.1063953
1.0914027
1.0711607
1.0452101
1.0161717
0.98861137
0.96856306
0.95339595
0.91639198
0.85220546
1.1586181
1.1586153
1.1586088
1.1585964
1.1585758
1.1585442
1.1584988
1.1584363
1.1583535
1.1582468
1.1581126
1.1579465
1.1577425
1.1574942
1.1571926
1.1568014
1.1558005
1.1461667
1.0496309
1.0257161
1.0166564
1.0064666
0.99244126
0.9775751
0.96278405
0.94869142
0.9360251
0.92449528
0.9085356
0.86013493
1.0982988
1.0478379
1.0063366
0.97130577
0.94100062
0.91431983
0.89053794
0.86914089
0.84974332
0.83204737
0.81582059
0.80087887
0.78727715
0.7815096
0.77642357
0.77231056
0.77002761
0.77082223
0.77429864
0.77895668
0.78381325
0.78856051
0.79315917
0.79750384
0.80127633
0.80402904
0.80491427
0.80126029
0.78751697
0.77267139
1.1572471
1.1546848
1.1512361
1.1470946
1.1424086
1.1372916
1.1318349
1.1261149
1.1201972
1.1141417
1.1080109
1.1018658
1.0954098
1.0898516
1.0850225
1.081362
1.0795716
1.0802616
1.0812394
1.0806862
1.0780688
1.0733695
1.066751
1.0581846
1.0474031
1.0342283
1.018411
0.99885509
0.97070446
0.90222779
1.1585893
1.1585043
1.1583499
1.1581149
1.1577915
1.1573744
1.1568602
1.1562474
1.1555362
1.1547283
1.1538281
1.1528432
1.1517793
1.1506821
1.1496136
1.1486816
1.1480188
1.1469406
1.1384166
1.1252929
1.1097434
1.0921717
1.072985
1.0518275
1.0290825
1.006424
0.98518156
0.96409152
0.94045998
0.90570312
1.1586181
1.1586153
1.1586088
1.1585965
1.158576
1.1585446
1.1584995
1.1584376
1.1583558
1.1582508
1.1581192
1.1579575
1.1577618
1.1575275
1.1572445
1.1568685
1.1560887
1.1516602
1.1171522
1.087501
1.0608962
1.0316999
1.0079795
0.9897022
0.97514674
0.96290379
0.95190302
0.94057699
0.91877581
0.88100104
1.0982997
1.0478707
1.0064375
0.97151227
0.9413664
0.91493324
0.8915379
0.87074181
0.85223892
0.83587529
0.82160957
0.80950189
0.79982457
0.79865336
0.80043521
0.80566435
0.81460748
0.8267158
0.84017776
0.85284068
0.86342013
0.87163892
0.87773577
0.88200399
0.88457816
0.88540292
0.88416967
0.87973837
0.8684661
0.84436501
1.1572473
1.1546881
1.1512492
1.1471272
1.1424748
1.1374138
1.1320504
1.1264853
1.1208206
1.1151719
1.1096837
1.1045369
1.09996
1.0964518
1.0943003
1.0936895
1.0944888
1.095973
1.0965859
1.0951933
1.0916711
1.0863211
1.0793574
1.0707726
1.0604667
1.0484495
1.0349097
1.0197982
1.0019831
0.97603095
1.1585893
1.1585044
1.1583506
1.1581169
1.1577962
1.1573836
1.1568772
1.1562778
1.155589
1.1548191
1.1539821
1.1531009
1.1522104
1.1513681
1.1506229
1.1498822
1.1484704
1.1446464
1.1359106
1.1230646
1.1084972
1.09354
1.0781841
1.0617585
1.043878
1.0249104
1.006068
0.98778347
0.96861758
0.94819335
1.1586181
1.1586153
1.1586089
1.1585966
1.1585763
1.1585453
1.1585008
1.15844
1.15836
1.158258
1.1581313
1.1579773
1.1577904
1.1575431
1.1570456
1.1553471
1.1494481
1.1344019
1.1066666
1.0732029
1.0408521
1.0132479
0.99165521
0.97503484
0.96192618
0.95110011
0.94170572
0.93332511
0.92529375
0.91433197
1.0983026
1.0479772
1.0066599
0.97186311
0.94187264
0.91563741
0.89250322
0.87209924
0.85427014
0.83903572
0.82654313
0.81701095
0.81075781
0.81263132
0.81737811
0.82421359
0.83194037
0.83944147
0.84598706
0.85119826
0.85506414
0.85778192
0.85957308
0.8605794
0.86080068
0.86002999
0.8577048
0.85255961
0.84219565
0.82812755
1.1572476
1.1546975
1.1512743
1.1471712
1.1425404
1.1375074
1.1321871
1.1267019
1.1211755
1.115781
1.1107162
1.1061771
1.1023932
1.0997043
1.0980472
1.0969696
1.0957208
1.093799
1.0910203
1.0873445
1.0829056
1.0777701
1.0719291
1.0653485
1.0579359
1.0495971
1.0402873
1.0300277
1.0185123
0.99099988
1.1585893
1.1585048
1.1583518
1.1581192
1.1577991
1.1573866
1.156879
1.1562775
1.155586
1.1548132
1.1539739
1.1530633
1.1519767
1.1505629
1.1485964
1.1452754
1.1389527
1.1294018
1.1173014
1.1034798
1.0894009
1.0749116
1.0596287
1.0441071
1.0286289
1.0134658
0.99835874
0.98217165
0.96404573
0.94278083
1.1586181
1.1586153
1.1586089
1.1585967
1.1585764
1.1585451
1.1585
1.1584378
1.158355
1.1582476
1.1581104
1.1579296
1.1576412
1.1568396
1.1533107
1.1415995
1.117578
1.0850949
1.0519933
1.0226393
0.99807567
0.97856236
0.9637978
0.9521004
0.94240288
0.93392293
0.92614008
0.91910335
0.91204231
0.90390463
1.0982994
1.0474479
1.0052385
0.96925853
0.93779796
0.90975578
0.8844276
0.86145831
0.84095348
0.82283843
0.80693849
0.79319176
0.78174252
0.7764768
0.77342541
0.7727461
0.77430596
0.77763745
0.78205165
0.78681517
0.79133242
0.79522465
0.79829992
0.80047849
0.80171346
0.80191105
0.80083689
0.79796748
0.7922805
0.78296959
1.157246
1.1546471
1.1510893
1.14674
1.1417267
1.1361476
1.1300892
1.1236127
1.1154122
1.1046474
1.0902901
1.070897
1.0461049
1.017766
0.98833848
0.96112512
0.93856468
0.9216092
0.90991616
0.9024331
0.89799554
0.89555031
0.89420974
0.89323296
0.89194333
0.88961729
0.8852883
0.87732124
0.86277468
0.83882211
1.1585892
1.1585024
1.158341
1.1580891
1.1577332
1.1572612
1.1566634
1.1559305
1.1550206
1.1538705
1.1523667
1.1495222
1.1414536
1.1240526
1.0965001
1.0621193
1.0264813
0.9942154
0.96761369
0.94700914
0.93173837
0.92079012
0.91309185
0.90764875
0.90357463
0.90005889
0.896254
0.89098688
0.88210163
0.86632539
1.1586181
1.1586152
1.1586083
1.1585948
1.1585715
1.1585345
1.158479
1.1583997
1.1582889
1.1581355
1.1579194
1.1575629
1.1566965
1.153154
1.138239
1.1071204
1.069852
1.0350257
1.0052857
0.98090848
0.96141233
0.94613459
0.93436208
0.92536038
0.91841338
0.91284474
0.90798448
0.90302019
0.89654363
0.88611144
)
;

boundaryField
{
    maxY
    {
        type            calculated;
        value           nonuniform List<scalar> 
300
(
1.1586176
1.1586176
1.1586176
1.1586176
1.1586176
1.1586176
1.1586176
1.1586176
1.1586176
1.1586176
1.1586147
1.1586148
1.1586148
1.1586148
1.1586148
1.1586148
1.1586148
1.1586148
1.1586148
1.1586147
1.1586078
1.1586084
1.1586083
1.1586083
1.1586083
1.1586083
1.1586083
1.1586083
1.1586084
1.1586078
1.1585943
1.1585962
1.1585961
1.158596
1.1585959
1.1585959
1.158596
1.1585961
1.1585962
1.1585943
1.158571
1.1585759
1.1585758
1.1585755
1.1585753
1.1585753
1.1585755
1.1585758
1.1585758
1.158571
1.158534
1.1585446
1.1585448
1.1585441
1.1585437
1.1585437
1.1585441
1.1585447
1.1585446
1.1585339
1.1584785
1.1584995
1.1585003
1.158499
1.1584983
1.1584982
1.158499
1.1585003
1.1584995
1.1584785
1.1583993
1.1584373
1.1584395
1.1584371
1.1584358
1.1584358
1.1584371
1.1584394
1.1584372
1.1583992
1.1582885
1.1583546
1.1583596
1.1583553
1.158353
1.1583529
1.1583553
1.1583595
1.1583544
1.1582884
1.1581353
1.1582474
1.1582576
1.1582503
1.1582463
1.1582463
1.1582502
1.1582575
1.1582471
1.158135
1.1579193
1.1581103
1.1581311
1.1581188
1.1581121
1.1581121
1.1581187
1.1581308
1.1581098
1.1579189
1.1575628
1.1579298
1.1579772
1.1579572
1.157946
1.157946
1.157957
1.1579767
1.1579291
1.1575624
1.1566971
1.157642
1.1577906
1.1577617
1.157742
1.157742
1.1577613
1.1577899
1.1576407
1.1566959
1.1531592
1.1568437
1.1575442
1.1575276
1.1574935
1.1574936
1.1575269
1.1575425
1.1568391
1.1531535
1.1383047
1.1533369
1.1570522
1.1572449
1.1571911
1.1571921
1.157244
1.157045
1.1533102
1.1382385
1.1073206
1.1417044
1.155381
1.1568638
1.1567818
1.1568009
1.156868
1.1553465
1.141599
1.1071199
1.0701651
1.1178136
1.1495641
1.1559838
1.1554483
1.1558
1.1560882
1.1494476
1.1175775
1.0698515
1.035396
1.0854275
1.1345862
1.1503676
1.1409401
1.1461662
1.1516597
1.1344014
1.0850944
1.0350253
1.0056601
1.052331
1.1067737
1.1148873
1.0443941
1.0496305
1.1171517
1.1066661
1.0519928
1.0052853
0.98123948
1.0228982
1.0732169
1.0880701
1.0247416
1.0257157
1.0875005
1.0732024
1.0226389
0.9809081
0.96167086
0.99822891
1.0406549
1.0603611
1.0163855
1.016656
1.0608957
1.0408516
0.99807528
0.96141197
0.94631214
0.97867038
1.01293
1.0305291
1.0050999
1.0064662
1.0316994
1.0132475
0.97856199
0.94613424
0.93446239
0.96386514
0.9913055
1.0066757
0.99070824
0.99244087
1.0079791
0.99165483
0.96379743
0.93436174
0.9253912
0.9521249
0.97470775
0.98857179
0.97629437
0.97757472
0.98970182
0.97503447
0.95210005
0.92536004
0.9183811
0.94239333
0.9616422
0.97430869
0.96259908
0.96278369
0.97514637
0.96192582
0.94240254
0.91841305
0.91275163
0.93390246
0.95086441
0.96240867
0.95005787
0.94869106
0.96290342
0.95109976
0.93392258
0.91284442
0.90782773
0.92613616
0.94151992
0.95184553
0.93920136
0.93602475
0.95190266
0.94170537
0.92613974
0.90798416
0.90278945
0.91894833
0.93312575
0.94147892
0.92929548
0.92449495
0.94057664
0.93332476
0.91910301
0.90301987
0.89621624
0.91174501
0.9251288
0.92513771
0.91034448
0.90853528
0.91877548
0.92529341
0.91204199
0.89654332
0.88563538
0.90344242
0.91584762
0.88897591
0.86315897
0.86013464
0.88100074
0.91433164
0.90390431
0.88611113
)
;
    }
    minX
    {
        type            calculated;
        value           nonuniform List<scalar> 
40
(
1.158622
1.1586209
1.1586199
1.1586189
1.158622
1.1586209
1.1586199
1.1586188
1.158622
1.1586209
1.1586199
1.1586188
1.158622
1.1586209
1.1586199
1.1586188
1.158622
1.1586209
1.1586199
1.1586188
1.158622
1.1586209
1.1586199
1.1586188
1.158622
1.1586209
1.1586199
1.1586188
1.158622
1.1586209
1.1586199
1.1586188
1.158622
1.1586209
1.1586199
1.1586188
1.158622
1.1586209
1.1586199
1.1586189
)
;
    }
    maxX
    {
        type            calculated;
        value           nonuniform List<scalar> 
40
(
0.78256471
0.83830858
0.86582836
0.8856572
0.82762527
0.99038423
0.94241831
0.90345123
0.84325004
0.97397621
0.94960652
0.91608297
0.76901001
0.8970753
0.90678498
0.88981588
0.70643525
0.80184004
0.84923936
0.86459682
0.70812769
0.80681426
0.85207169
0.86115112
0.77262299
0.90206983
0.90621909
0.88223323
0.84436181
0.97605754
0.94848381
0.91476836
0.82805212
0.99092285
0.94279485
0.90391558
0.78293366
0.83877919
0.86633101
0.88613604
)
;
    }
    minZ
    {
        type            calculated;
        value           nonuniform List<scalar> 
120
(
1.0983071
1.1572462
1.1585892
1.1586181
1.0474616
1.1546477
1.1585024
1.1586152
1.005256
1.1510904
1.158341
1.1586083
0.96927768
1.1467418
1.1580892
1.1585949
0.9378161
1.1417293
1.1577333
1.1585715
0.90977049
1.1361511
1.1572616
1.1585345
0.88443974
1.1300938
1.1566639
1.1584791
0.86147047
1.1236182
1.1559313
1.1583998
0.84097358
1.1154075
1.1550216
1.1582891
0.82287139
1.1046277
1.1538714
1.1581358
0.80698774
1.0902542
1.152367
1.1579199
0.7932597
1.0708602
1.1495088
1.1575633
0.78182958
1.0460865
1.1414322
1.1566977
0.77657715
1.0177891
1.1240555
1.1531597
0.77353608
0.98842083
1.0965665
1.1383053
0.77286395
0.96127059
1.0622749
1.1073211
0.77442767
0.9387609
1.0267238
1.0701655
0.77775869
0.92182545
0.99451451
1.0353964
0.78216134
0.91010867
0.96792068
1.0056605
0.78689685
0.90256896
0.94727754
0.98123985
0.79137067
0.89806399
0.93194073
0.96167123
0.79521075
0.89555441
0.92091724
0.94631249
0.79823747
0.89415766
0.91314619
0.93446274
0.8003796
0.89312897
0.9076366
0.92539154
0.80158985
0.8917817
0.90349948
0.91838143
0.80176649
0.88938479
0.89991862
0.91275196
0.80066441
0.88497675
0.89604259
0.90782806
0.79775157
0.87694436
0.89069897
0.90278977
0.79199243
0.86236783
0.8817284
0.89621656
0.78259318
0.83835298
0.86582665
0.88563568
)
;
    }
    maxZ
    {
        type            calculated;
        value           nonuniform List<scalar> 
120
(
1.0982994
1.157246
1.1585892
1.1586181
1.0474479
1.1546471
1.1585024
1.1586152
1.0052385
1.1510893
1.158341
1.1586083
0.96925853
1.14674
1.1580891
1.1585948
0.93779796
1.1417267
1.1577332
1.1585715
0.90975578
1.1361476
1.1572612
1.1585345
0.8844276
1.1300892
1.1566634
1.158479
0.86145831
1.1236127
1.1559305
1.1583997
0.84095348
1.1154122
1.1550206
1.1582889
0.82283843
1.1046474
1.1538705
1.1581355
0.80693849
1.0902901
1.1523667
1.1579194
0.79319176
1.070897
1.1495222
1.1575629
0.78174252
1.0461049
1.1414536
1.1566965
0.7764768
1.017766
1.1240526
1.153154
0.77342541
0.98833848
1.0965001
1.138239
0.7727461
0.96112512
1.0621193
1.1071204
0.77430596
0.93856468
1.0264813
1.069852
0.77763745
0.9216092
0.9942154
1.0350257
0.78205165
0.90991616
0.96761369
1.0052857
0.78681517
0.9024331
0.94700914
0.98090848
0.79133242
0.89799554
0.93173837
0.96141233
0.79522465
0.89555031
0.92079012
0.94613459
0.79829992
0.89420974
0.91309185
0.93436208
0.80047849
0.89323296
0.90764875
0.92536038
0.80171346
0.89194333
0.90357463
0.91841338
0.80191105
0.88961729
0.90005889
0.91284474
0.80083689
0.8852883
0.896254
0.90798448
0.79796748
0.87732124
0.89098688
0.90302019
0.7922805
0.86277468
0.88210163
0.89654363
0.78296959
0.83882211
0.86632539
0.88611144
)
;
    }
    topAir_to_rightSolid
    {
        type            calculated;
        value           nonuniform List<scalar> 
130
(
0.53317935
0.5289956
0.52475718
0.52067369
0.51689377
0.5135317
0.51061161
0.50814001
0.50609448
0.50444944
0.50323642
0.50243666
0.50203819
0.53658849
0.53155569
0.52658614
0.52193282
0.5177368
0.51408241
0.51096392
0.50835678
0.50622571
0.50453729
0.50329639
0.50248159
0.50207475
0.54365085
0.53659214
0.53001537
0.52420773
0.51922473
0.51503104
0.51154257
0.50869892
0.50643768
0.50468519
0.50340511
0.50256789
0.50215189
0.55468589
0.54372203
0.53446048
0.52694568
0.52089913
0.51604073
0.51214834
0.50905577
0.50665475
0.50482907
0.50350366
0.50264482
0.50222493
0.56830666
0.55065122
0.53826787
0.52907356
0.52212039
0.5167564
0.51257472
0.50931076
0.50680469
0.50492515
0.50357622
0.50270439
0.50227873
0.56829823
0.55065293
0.53829936
0.52912311
0.52216699
0.51680478
0.51262342
0.50936286
0.50685118
0.50496373
0.50360988
0.50273166
0.50229678
0.55457812
0.5436724
0.53452793
0.52704254
0.52100287
0.51614985
0.51225472
0.50915947
0.50674235
0.50490264
0.50356998
0.50269677
0.50226244
0.54353633
0.53656204
0.53006819
0.52432078
0.51935942
0.51514855
0.51165422
0.50881147
0.50653922
0.50476752
0.50346624
0.50261459
0.50218992
0.53653224
0.53153658
0.52659983
0.52200225
0.51786376
0.51421806
0.51107973
0.50845029
0.50629893
0.50459977
0.5033422
0.50251282
0.50209927
0.53316107
0.52900488
0.52479756
0.52075826
0.51702979
0.51367893
0.51073439
0.50822614
0.50614992
0.50449968
0.50327368
0.50246344
0.50205943
)
;
    }
    topAir_to_heater
    {
        type            calculated;
        value           nonuniform List<scalar> 
40
(
0.54369079
0.54251911
0.54023668
0.53703175
0.5494187
0.54800073
0.54522545
0.54130299
0.56201426
0.56005988
0.55615692
0.55051429
0.58410082
0.58144648
0.57570689
0.56662063
0.62017122
0.61760585
0.61029636
0.59574429
0.62015151
0.61757529
0.610262
0.59571609
0.58400969
0.58132583
0.57557827
0.56649399
0.56183247
0.55987465
0.55598392
0.55035671
0.5492436
0.54783236
0.54507718
0.54120001
0.54352608
0.5423772
0.54013059
0.53697605
)
;
    }
    topAir_to_leftSolid
    {
        type            calculated;
        value           nonuniform List<scalar> 
130
(
0.49496027
0.49498946
0.4950529
0.49515358
0.49529101
0.4954353
0.49559381
0.49577161
0.49597017
0.49618402
0.49638109
0.4965388
0.49663199
0.49492515
0.49495104
0.49501522
0.49511906
0.49525972
0.4954095
0.49557852
0.49577665
0.49599772
0.49623396
0.49645533
0.49662556
0.49672147
0.49487573
0.49490735
0.494974
0.49508404
0.49523117
0.49538812
0.49556909
0.49579333
0.49606735
0.49636325
0.49660444
0.49677883
0.49687837
0.49484897
0.49488388
0.494958
0.49507708
0.49522899
0.49539086
0.4955869
0.49583292
0.49614909
0.49649213
0.49677955
0.49699054
0.4971061
0.4948634
0.49489597
0.49496914
0.4950844
0.49523067
0.49539046
0.49558346
0.49582772
0.49614244
0.49647911
0.49682483
0.49710219
0.49726432
0.49486357
0.49489906
0.49497109
0.49508143
0.49522312
0.49537673
0.49555631
0.49577834
0.4960497
0.49633994
0.49664954
0.49695804
0.49720053
0.49484748
0.4948814
0.49495107
0.49505782
0.49519609
0.49534995
0.49552106
0.49572024
0.49595692
0.4962109
0.49647493
0.49673113
0.49694846
0.49484938
0.49488314
0.49495371
0.49506064
0.49520224
0.49536826
0.49553473
0.49571337
0.4959152
0.49613265
0.49634895
0.4965461
0.49669166
0.4948799
0.49491286
0.49498243
0.49509311
0.49524128
0.49540854
0.49556933
0.49573431
0.49591075
0.4960945
0.49627314
0.49641978
0.49650954
0.49492151
0.49495134
0.49502053
0.49513291
0.49528955
0.49545541
0.49561508
0.49577604
0.49594201
0.49610898
0.49626598
0.49638763
0.49645785
)
;
    }
}


// ************************************************************************* //
