/*--------------------------------*- C++ -*----------------------------------*\
| =========                 |                                                 |
| \\      /  F ield         | OpenFOAM: The Open Source CFD Toolbox           |
|  \\    /   O peration     | Version:  v2012                                 |
|   \\  /    A nd           | Website:  www.openfoam.com                      |
|    \\/     M anipulation  |                                                 |
\*---------------------------------------------------------------------------*/
FoamFile
{
    version     2.0;
    format      ascii;
    class       volScalarField;
    location    "41";
    object      p;
}
// * * * * * * * * * * * * * * * * * * * * * * * * * * * * * * * * * * * * * //

dimensions      [0 2 -2 0 0 0 0];


internalField   nonuniform List<scalar> 
64000
(
-7.16698e-22
-4.76651e-21
-3.42377e-21
-5.38922e-21
-9.17336e-21
-3.3624e-21
-5.17547e-21
-4.91809e-21
-5.68447e-21
-6.06072e-21
-4.3493e-21
-7.60379e-21
-5.18444e-21
-7.35984e-21
-4.8009e-21
-5.96602e-21
-1.63715e-21
-1.26443e-21
-1.86385e-21
-2.69205e-21
-1.74295e-21
-2.63209e-21
-3.07321e-21
-3.37914e-21
-2.75428e-21
-1.3962e-21
9.16377e-22
-5.37e-21
-2.60751e-21
-1.839e-21
-1.77882e-21
-1.253e-21
-1.77051e-21
-1.26001e-21
-1.76614e-21
-5.48356e-21
-3.22151e-22
1.64883e-22
-9.91777e-22
-5.2921e-22
-8.24282e-21
-1.1498e-20
-1.13363e-20
-8.79278e-21
-1.15058e-20
-1.16002e-20
-9.25898e-21
-6.99633e-21
-4.53151e-21
-1.07948e-20
-1.23715e-20
-1.21295e-20
-6.42177e-21
-6.70552e-21
-7.78809e-21
-7.04034e-21
-4.39938e-21
1.13531e-21
-1.49906e-21
-6.44551e-21
5.13239e-22
-3.7181e-21
-6.39045e-21
-9.99395e-21
-5.01307e-21
-3.01408e-21
-3.41176e-21
-5.74746e-21
-3.11444e-21
-2.69102e-21
5.04203e-22
-9.52389e-22
-5.39109e-21
-3.39112e-21
-8.75948e-22
-1.70309e-21
-5.96131e-22
4.34827e-22
-1.95677e-21
-2.27537e-21
-6.36588e-21
-9.80438e-21
-1.34933e-20
-1.14744e-20
-1.01572e-20
-1.15567e-20
-1.13391e-20
-8.48692e-21
-8.65969e-21
-1.05055e-20
-9.37133e-21
-1.05955e-20
-9.10475e-21
-6.60083e-21
-5.32868e-21
-2.78344e-21
-9.52039e-21
-3.94156e-21
-8.50067e-22
-1.95252e-21
-3.48511e-21
-7.05247e-21
-7.03982e-21
-7.29596e-21
-4.02248e-21
-4.54775e-21
-4.28258e-21
-6.26062e-21
-3.8906e-21
-4.19739e-21
-1.90648e-21
-1.59588e-21
-3.72552e-21
-1.07762e-21
-1.75368e-21
-2.01712e-21
4.77952e-24
1.31635e-21
-5.14223e-22
1.60709e-23
-9.92886e-21
-1.02806e-20
-1.16237e-20
-1.51029e-20
-1.25573e-20
-1.56108e-20
-1.53389e-20
-8.04813e-21
-9.47625e-21
-1.15227e-20
-1.08674e-20
-1.06308e-20
-9.81506e-21
-6.25372e-21
-6.89876e-21
-6.82109e-21
-5.29671e-21
-4.79166e-21
7.20574e-22
-2.00033e-21
-5.33553e-21
-5.98477e-21
-1.04272e-20
-8.3404e-21
-8.74583e-21
-1.18213e-21
-4.61848e-21
-3.71948e-21
-4.41006e-21
-5.21103e-21
-1.41683e-21
-1.47391e-21
-2.65135e-21
-2.21012e-21
-2.50721e-21
-1.68926e-21
-1.44629e-21
6.2924e-22
-1.63363e-21
-1.11817e-22
-1.70957e-20
-1.15412e-20
-1.13407e-20
-1.3838e-20
-1.2879e-20
-1.60878e-20
-1.32898e-20
-8.98194e-21
-7.43389e-21
-1.36261e-20
-1.37072e-20
-8.06108e-21
-8.45518e-21
-6.40236e-21
-1.09869e-20
-1.26399e-20
-5.36145e-21
-2.07204e-21
-4.35867e-21
-1.03565e-21
-3.26846e-21
-5.83794e-21
-9.2842e-21
-9.00053e-21
-5.94468e-21
-2.7967e-21
-3.63845e-21
-4.66761e-21
-7.02299e-21
-2.42584e-21
-1.31365e-21
5.07413e-22
-1.35438e-21
-2.0998e-21
-5.04396e-21
-2.72724e-21
-7.28793e-22
-7.96952e-22
8.70312e-22
-9.72518e-22
-1.41046e-20
-1.15608e-20
-1.02962e-20
-1.51515e-20
-1.35014e-20
-1.34761e-20
-1.05254e-20
-1.36204e-20
-1.28679e-20
-1.30744e-20
-1.16664e-20
-8.79348e-21
-1.00836e-20
-6.97293e-21
-9.66513e-21
-1.12311e-20
-5.19391e-21
-3.20575e-21
-2.26211e-21
-4.20313e-21
-2.42562e-21
-3.32011e-21
-9.95226e-21
-9.99802e-21
-9.45095e-21
-1.88268e-21
-4.38744e-21
-2.81562e-21
-5.71139e-21
-3.76792e-21
-4.01447e-21
-3.04328e-21
-1.5738e-21
-1.29075e-21
-3.40346e-21
-8.09119e-22
-1.3946e-21
-8.2776e-22
5.36053e-23
9.21426e-22
-1.53142e-20
-1.63892e-20
-1.02277e-20
-1.2423e-20
-1.45153e-20
-1.44567e-20
-1.13048e-20
-1.27986e-20
-1.41073e-20
-1.3083e-20
-1.1328e-20
-1.10726e-20
-7.95081e-21
-9.00745e-21
-9.22375e-21
-9.74732e-21
-6.46243e-21
-6.46143e-22
-1.7241e-21
-3.32288e-21
-4.607e-21
-9.1451e-21
-1.08714e-20
-1.09346e-20
-5.10943e-21
-5.95406e-21
-6.71308e-21
-1.26615e-21
-4.03051e-21
-2.73372e-21
-6.04219e-21
-4.84845e-21
9.1511e-22
-9.69939e-22
-3.02951e-21
-2.91662e-21
-5.74115e-22
-3.0558e-22
-1.68511e-21
-6.0016e-22
-1.53014e-20
-1.55261e-20
-1.26647e-20
-1.14533e-20
-1.36333e-20
-1.31756e-20
-1.258e-20
-1.8607e-20
-1.60321e-20
-1.34864e-20
-1.04685e-20
-9.74996e-21
-9.18185e-21
-1.04968e-20
-8.21903e-21
-9.56321e-21
-5.74515e-21
-2.23533e-21
-4.3514e-21
-2.31568e-21
-4.30083e-21
-8.45361e-21
-9.39107e-21
-9.80883e-21
-6.25344e-21
-7.89777e-21
-5.09009e-21
-1.80918e-21
-4.56533e-21
-4.57847e-21
-4.71686e-21
-3.872e-21
-4.29475e-22
-2.71921e-21
-5.29718e-21
-4.99396e-21
-6.74585e-22
1.55673e-22
-2.4169e-22
-1.45565e-21
-2.02777e-20
-1.68986e-20
-1.22414e-20
-1.35935e-20
-1.48285e-20
-1.64936e-20
-1.45226e-20
-1.366e-20
-1.45249e-20
-1.6893e-20
-8.9345e-21
-8.91883e-21
-1.11297e-20
-1.02992e-20
-1.05189e-20
-9.46699e-21
-4.49878e-21
-5.67784e-23
-5.82908e-21
-7.82803e-21
-2.83796e-21
-8.1493e-21
-1.19641e-20
-8.36125e-21
-4.49044e-21
-6.56471e-21
-7.99447e-21
-5.77271e-21
-3.51595e-21
-5.31126e-21
-2.91597e-21
-2.0544e-21
-6.9295e-22
-2.77238e-21
-5.9924e-21
-2.75917e-21
-1.961e-22
-3.54447e-22
-7.07852e-22
-1.98956e-21
-1.32909e-20
-1.36375e-20
-1.31603e-20
-1.28937e-20
-1.6709e-20
-1.7091e-20
-1.45148e-20
-1.40401e-20
-1.45848e-20
-1.5127e-20
-1.3622e-20
-7.03432e-21
-9.03272e-21
-1.13198e-20
-1.14365e-20
-8.43358e-21
-6.27189e-21
-3.86767e-21
-1.34032e-21
-3.66133e-21
-7.14232e-21
-7.14359e-21
-1.09924e-20
-9.52989e-21
-8.09652e-21
-5.76859e-21
-4.3623e-21
-3.84012e-21
-5.68376e-21
-4.84134e-21
-1.48836e-21
-1.4767e-21
-2.3137e-21
-2.20272e-21
-4.98383e-21
-5.16548e-21
-2.13119e-21
-3.77443e-22
-7.65751e-22
-4.36642e-23
-1.15938e-20
-1.47801e-20
-1.46646e-20
-1.72243e-20
-1.44485e-20
-1.64265e-20
-1.95138e-20
-1.27738e-20
-1.57826e-20
-1.64018e-20
-1.11544e-20
-7.07173e-21
-9.07586e-21
-1.08211e-20
-1.13075e-20
-1.17378e-20
-9.04318e-21
-1.19739e-21
1.29313e-21
-3.28276e-21
-9.72804e-21
-1.2521e-20
-9.95206e-21
-1.04943e-20
-1.01189e-20
-5.45805e-21
-7.863e-22
-2.59224e-21
-5.03006e-21
-7.98402e-21
-2.48354e-21
8.03922e-22
-4.78897e-21
-1.55919e-21
-3.12388e-21
-6.25472e-21
-1.45174e-21
-1.08431e-21
-1.31804e-21
-7.38814e-22
-1.26814e-20
-1.64305e-20
-1.57187e-20
-1.5151e-20
-1.58748e-20
-1.99692e-20
-1.5232e-20
-1.56955e-20
-1.23696e-20
-1.50363e-20
-1.69632e-20
-8.99847e-21
-6.81773e-21
-1.14136e-20
-1.24856e-20
-1.21087e-20
-8.28919e-21
-2.59972e-21
-2.68038e-21
-2.96939e-21
-7.46779e-21
-1.20398e-20
-1.08883e-20
-1.08452e-20
-1.07531e-20
-3.37796e-21
-3.50343e-21
-4.73267e-21
-5.71511e-21
-3.72444e-21
-1.02839e-21
-1.32813e-21
-3.33875e-21
-3.11795e-21
-3.63152e-21
-3.31728e-21
-5.87002e-22
-1.08129e-21
-2.42712e-21
-3.20379e-21
-1.86638e-20
-1.63697e-20
-1.52699e-20
-1.53241e-20
-1.80865e-20
-1.75921e-20
-1.68786e-20
-1.72636e-20
-1.53226e-20
-1.43398e-20
-1.45364e-20
-8.27452e-21
-8.70936e-21
-1.17522e-20
-1.07218e-20
-1.08222e-20
-7.52457e-21
-3.45618e-21
-2.47363e-21
-5.51995e-21
-7.25102e-21
-1.1249e-20
-9.99662e-21
-1.12834e-20
-5.92819e-21
-3.46226e-21
-5.07852e-21
-8.09978e-21
-4.56118e-21
-1.47937e-21
-5.64738e-21
-3.07328e-21
4.93966e-22
-5.13302e-21
-6.60808e-21
-1.91156e-21
-3.46815e-22
-1.88392e-21
-9.5322e-22
-1.56397e-21
-2.02824e-20
-1.99013e-20
-1.58185e-20
-1.79331e-20
-1.47302e-20
-1.44335e-20
-1.70541e-20
-1.6467e-20
-1.30097e-20
-1.66769e-20
-1.27231e-20
-1.02384e-20
-1.15021e-20
-1.1683e-20
-1.12242e-20
-1.07524e-20
-7.45323e-21
-1.9733e-21
-3.20641e-21
-5.95772e-21
-9.16017e-21
-1.1087e-20
-1.16651e-20
-9.35206e-21
-6.45628e-21
-1.23575e-21
-1.28663e-21
-6.93712e-21
-7.10801e-21
6.40483e-22
-3.07069e-21
-7.10579e-21
-2.27687e-21
-2.88604e-21
-5.89971e-21
-2.67455e-21
-2.35967e-21
-8.70029e-22
-6.56649e-23
-1.56971e-21
-1.37712e-20
-2.06876e-20
-1.96752e-20
-1.64041e-20
-1.36732e-20
-1.63257e-20
-1.9453e-20
-2.089e-20
-1.49139e-20
-1.21021e-20
-1.02625e-20
-1.40638e-20
-1.29496e-20
-9.89892e-21
-8.57152e-21
-1.04234e-20
-8.91218e-21
-6.02409e-21
-5.89759e-21
-7.51598e-21
-1.15296e-20
-7.05476e-21
-8.91939e-21
-9.84577e-21
-6.13623e-21
-4.00298e-21
-3.82109e-21
-5.22173e-21
-4.01485e-21
-1.88381e-21
-1.27659e-21
-3.45683e-21
-3.21954e-21
-2.02921e-21
-4.65341e-21
-2.66524e-21
-4.97368e-22
-2.05437e-21
-1.86139e-21
4.76947e-22
-1.47279e-20
-1.59843e-20
-1.95735e-20
-1.62275e-20
-1.69578e-20
-1.53193e-20
-1.74707e-20
-1.95164e-20
-1.41727e-20
-1.07636e-20
-1.43391e-20
-1.24477e-20
-1.26115e-20
-1.05592e-20
-1.18031e-20
-1.20148e-20
-7.92351e-21
-6.89208e-21
-4.84064e-21
-6.49234e-21
-1.10204e-20
-1.02383e-20
-9.52256e-21
-5.99235e-21
-3.62763e-21
-5.54303e-21
-6.01766e-21
-3.4966e-21
-3.53523e-21
-1.36401e-21
-1.82328e-21
-2.69303e-21
-4.09336e-21
-3.13825e-21
-6.11577e-21
-4.16866e-21
1.25837e-21
1.83257e-22
-1.8219e-21
3.97422e-22
-1.58476e-20
-1.50619e-20
-1.80851e-20
-1.40587e-20
-1.43941e-20
-1.64056e-20
-1.85844e-20
-1.9691e-20
-1.52731e-20
-1.35173e-20
-1.13291e-20
-1.54203e-20
-7.89467e-21
-1.17382e-20
-1.27888e-20
-9.55171e-21
-9.04966e-21
-7.6098e-21
-7.81068e-21
-4.84776e-21
-1.14465e-20
-8.93685e-21
-1.05972e-20
-5.67292e-21
-5.24676e-21
-8.81711e-22
-4.95574e-21
-7.57055e-21
-2.33706e-21
-3.04632e-21
-4.87564e-22
-3.76607e-21
-5.27238e-21
-1.21113e-21
-1.14428e-21
-2.51902e-21
-1.67635e-21
-1.02178e-21
-5.64634e-22
-1.10492e-21
-1.18969e-20
-1.62011e-20
-2.0219e-20
-1.45708e-20
-1.26735e-20
-1.84059e-20
-1.58155e-20
-1.62095e-20
-1.61029e-20
-1.50264e-20
-1.37829e-20
-1.2855e-20
-9.51437e-21
-1.02424e-20
-1.67203e-20
-1.13435e-20
-8.84632e-21
-2.65864e-21
-6.73537e-21
-7.67642e-21
-1.52271e-20
-8.7658e-21
-6.0679e-21
-4.9686e-21
-4.28999e-21
-5.66147e-21
-5.86091e-21
-5.48469e-21
-3.55949e-21
-3.18133e-21
-2.11564e-21
-7.91078e-22
-2.51664e-21
-5.90181e-22
-9.19019e-23
-3.25492e-21
-2.2743e-21
-2.71273e-21
1.1713e-21
2.16517e-22
-1.00193e-20
-1.30304e-20
-1.68852e-20
-1.65355e-20
-1.53386e-20
-1.5298e-20
-1.57343e-20
-1.50665e-20
-1.58735e-20
-1.51035e-20
-1.36739e-20
-1.29874e-20
-1.05712e-20
-7.66408e-21
-1.38682e-20
-1.40275e-20
-9.62326e-21
-7.94045e-21
-1.0719e-20
-1.04069e-20
-1.11301e-20
-2.40139e-21
-5.37357e-21
-5.74023e-21
-3.57656e-21
-4.85507e-21
-6.83962e-21
-4.07361e-21
-2.7746e-21
-3.84446e-21
-5.45656e-21
-8.38929e-22
-1.22659e-21
-1.54218e-21
3.34182e-22
-1.99344e-21
-1.036e-21
-1.54373e-21
-2.67412e-21
-2.50642e-21
-7.90844e-21
-1.47009e-20
-1.91668e-20
-1.73678e-20
-1.49303e-20
-1.2709e-20
-1.20381e-20
-1.51398e-20
-1.92183e-20
-1.59713e-20
-1.16879e-20
-1.13666e-20
-1.21239e-20
-1.09796e-20
-1.27493e-20
-1.17498e-20
-8.00218e-21
-7.18445e-21
-1.37235e-20
-9.04599e-21
-9.30376e-21
-7.1403e-21
-5.12957e-21
-5.93278e-21
-2.38664e-21
-2.33978e-21
-1.04596e-20
-8.87123e-21
-5.42459e-21
-3.81555e-22
-1.65183e-21
-8.74252e-22
-1.83979e-21
-1.34747e-21
-1.6039e-21
-2.25839e-21
-2.50757e-21
-1.55475e-21
-2.83836e-21
-2.13351e-21
-1.24041e-20
-1.59911e-20
-1.72029e-20
-1.54571e-20
-1.09283e-20
-1.37674e-20
-1.44918e-20
-1.35032e-20
-1.60917e-20
-1.58369e-20
-1.61407e-20
-1.40713e-20
-1.01528e-20
-1.36109e-20
-1.3091e-20
-6.60413e-21
-7.33559e-21
-5.6914e-21
-1.2588e-20
-9.57946e-21
-8.5632e-21
-5.10239e-21
-5.43206e-21
-8.25568e-21
-7.64087e-21
-3.80317e-21
-6.15738e-21
-5.65723e-21
-4.8864e-21
-2.37385e-21
-3.30482e-21
-2.46352e-22
-2.8545e-21
-8.65377e-22
-1.75742e-21
-3.74083e-21
-1.2884e-21
-2.38499e-21
-2.02864e-21
-2.11911e-21
-1.9347e-20
-1.75444e-20
-1.53566e-20
-1.57982e-20
-1.5306e-20
-1.43227e-20
-1.4289e-20
-1.07551e-20
-1.4682e-20
-1.54858e-20
-1.58414e-20
-1.59836e-20
-1.22305e-20
-1.54188e-20
-1.13954e-20
-8.51944e-21
-7.26881e-21
-6.07684e-21
-8.8153e-21
-9.42878e-21
-9.00007e-21
-2.95372e-21
-6.64221e-21
-7.48824e-21
-7.40019e-21
-5.43523e-21
-6.06882e-21
-8.22214e-21
-4.40253e-21
-9.00317e-22
-3.07707e-21
1.38523e-22
7.20746e-23
-2.19785e-21
-4.92423e-21
-4.65032e-21
-6.63377e-22
-2.13799e-21
7.97434e-22
6.80101e-22
-1.8644e-20
-2.01081e-20
-1.48194e-20
-1.52037e-20
-1.5925e-20
-1.71849e-20
-1.3749e-20
-1.1181e-20
-1.6385e-20
-1.19369e-20
-1.53841e-20
-1.63382e-20
-1.3134e-20
-1.0367e-20
-1.02759e-20
-9.02978e-21
-5.53184e-21
-3.45111e-21
-5.25152e-21
-9.34789e-21
-1.07581e-20
-6.36701e-21
-9.21756e-21
-8.44887e-21
-7.83152e-21
-8.29354e-21
-5.87946e-21
-5.4857e-21
-3.28221e-21
-1.35157e-21
-2.53538e-21
-2.74876e-21
-1.31985e-22
-6.03937e-22
-8.48498e-21
-4.34658e-21
-1.27606e-21
-4.88608e-24
-9.07902e-22
-9.1145e-22
-1.40882e-20
-1.55885e-20
-1.83692e-20
-1.42815e-20
-1.49843e-20
-1.63754e-20
-1.56213e-20
-1.55694e-20
-1.23549e-20
-1.32367e-20
-1.59099e-20
-1.59462e-20
-8.61531e-21
-1.34988e-20
-1.39816e-20
-8.47052e-21
-3.78347e-21
-3.6686e-21
-7.44948e-21
-5.89188e-21
-6.96869e-21
-9.1577e-21
-1.29079e-20
-9.2488e-21
-8.85853e-21
-3.28977e-21
-5.95027e-21
-7.73501e-21
-1.14465e-21
-2.18928e-21
-5.76481e-21
-4.06722e-21
7.50801e-22
-5.05573e-21
-8.71323e-21
-4.93832e-21
-2.68986e-21
6.9519e-22
-2.37966e-21
-1.72299e-21
-1.11941e-20
-1.36622e-20
-1.78601e-20
-1.62816e-20
-1.35838e-20
-1.66639e-20
-1.54094e-20
-1.46185e-20
-1.11841e-20
-1.48576e-20
-1.81793e-20
-1.42997e-20
-7.13703e-21
-1.04976e-20
-1.16963e-20
-7.62455e-21
-6.29717e-21
-8.68638e-21
-6.32941e-21
-5.87545e-21
-6.84248e-21
-9.12687e-21
-7.99153e-21
-8.60029e-21
-1.25332e-20
-5.97405e-21
-4.24693e-21
-4.60757e-21
-4.37106e-21
-4.31182e-21
-2.92447e-21
-3.26413e-21
-1.83514e-21
-3.75445e-21
-8.86754e-21
-5.38214e-21
-1.85783e-21
1.19934e-23
-2.20678e-22
-1.017e-21
-1.38338e-20
-1.64288e-20
-1.82467e-20
-1.36963e-20
-1.2615e-20
-1.49291e-20
-1.54068e-20
-1.77593e-20
-9.82571e-21
-1.23182e-20
-1.92606e-20
-1.56733e-20
-9.63003e-21
-1.09042e-20
-7.12329e-21
-9.2084e-21
-8.2501e-21
-5.07852e-21
-3.33324e-21
-6.94907e-21
-6.53607e-21
-1.08768e-20
-1.06122e-20
-1.16546e-20
-9.32799e-21
-9.02787e-21
-5.27968e-21
-6.04078e-21
-4.53206e-21
-1.70968e-21
-2.41853e-21
-2.59513e-21
-7.10358e-22
-2.14417e-21
-5.79153e-21
-7.63377e-21
-3.20151e-21
-9.65461e-22
-3.4837e-23
-5.96452e-22
-1.17785e-20
-1.44436e-20
-1.61598e-20
-1.88185e-20
-1.52824e-20
-1.58327e-20
-1.49487e-20
-1.2196e-20
-1.13333e-20
-1.395e-20
-1.81383e-20
-1.40064e-20
-7.26242e-21
-9.89675e-21
-9.42165e-21
-1.22193e-20
-7.91656e-21
-5.64389e-21
-1.55082e-21
-4.74734e-21
-3.7194e-21
-1.07945e-20
-1.06162e-20
-9.69136e-21
-1.04806e-20
-8.23686e-21
-4.38375e-21
-2.04609e-21
-5.05854e-21
-2.9178e-21
-1.52105e-21
-3.27238e-21
-3.61446e-21
-2.52939e-21
-8.12111e-21
-4.44618e-21
-3.68629e-21
-2.23781e-21
-6.49996e-22
-1.56558e-21
-1.02102e-20
-1.45394e-20
-1.54465e-20
-1.69255e-20
-1.44434e-20
-1.53149e-20
-1.41553e-20
-1.26875e-20
-1.25784e-20
-1.35168e-20
-1.80173e-20
-8.53504e-21
-9.30959e-21
-1.10191e-20
-8.07992e-21
-7.60402e-21
-8.90698e-21
-6.69668e-21
-5.57908e-21
-5.35147e-21
-5.59498e-21
-5.28774e-21
-9.76757e-21
-1.04711e-20
-7.95143e-21
-6.17934e-21
-5.15596e-21
-3.8795e-21
-4.50704e-21
-2.94921e-21
-3.19076e-21
-3.88279e-21
-6.07145e-21
-6.3297e-21
-4.7626e-21
-4.22641e-21
-2.70514e-21
-2.44347e-21
-1.4947e-21
-1.50949e-21
-1.31442e-20
-1.89288e-20
-1.55246e-20
-1.13717e-20
-1.79316e-20
-1.69563e-20
-1.44605e-20
-1.172e-20
-1.20345e-20
-1.31764e-20
-1.41914e-20
-9.75679e-21
-9.60647e-21
-1.10252e-20
-1.02312e-20
-8.06028e-21
-6.51425e-21
-3.45776e-21
-5.77942e-21
-3.93053e-21
-7.28006e-21
-6.9678e-21
-7.42771e-21
-8.80082e-21
-9.96899e-21
-4.94526e-21
-4.40379e-21
-5.73342e-21
-2.95029e-21
-4.83583e-21
-2.72897e-21
-4.25389e-21
-6.70724e-21
-3.97617e-21
-6.37059e-21
-4.64849e-21
-2.50946e-21
-4.57092e-21
-1.16443e-21
-6.93521e-22
-1.17e-20
-1.59402e-20
-1.82777e-20
-1.29592e-20
-1.27586e-20
-1.85402e-20
-1.49977e-20
-7.81399e-21
-1.07236e-20
-1.6565e-20
-1.19194e-20
-1.17357e-20
-1.26623e-20
-1.04591e-20
-9.50725e-21
-9.68056e-21
-6.77931e-21
-5.28471e-21
-2.08045e-21
-2.61136e-21
-4.34355e-21
-8.70217e-21
-1.02399e-20
-9.67726e-21
-1.19333e-20
-7.62594e-21
-2.43677e-21
7.02396e-23
-2.97214e-21
-3.19653e-21
-4.0206e-21
-6.10763e-21
-4.29009e-21
-2.54385e-21
-5.0723e-21
-7.84383e-21
-2.99231e-21
-1.76848e-21
-9.26503e-22
1.31653e-22
-1.31097e-20
-1.34556e-20
-1.43143e-20
-1.40582e-20
-1.47933e-20
-1.45679e-20
-1.47023e-20
-1.21914e-20
-9.71768e-21
-1.20789e-20
-1.08696e-20
-1.0066e-20
-1.11134e-20
-1.19013e-20
-9.60526e-21
-1.0265e-20
-5.69838e-21
-5.20162e-21
-1.47594e-21
-3.97879e-21
-5.00556e-21
-6.06181e-21
-1.01072e-20
-1.26682e-20
-9.75364e-21
-5.8394e-21
-2.4439e-21
-4.35592e-21
-4.62222e-21
-2.52999e-21
-3.57074e-21
-3.55802e-21
-1.99076e-21
-1.90514e-21
-3.08934e-21
-6.65029e-21
-2.91786e-21
-1.87572e-21
-2.25062e-21
-2.6947e-21
-1.66577e-20
-1.50478e-20
-1.18745e-20
-1.3338e-20
-1.73092e-20
-1.51685e-20
-1.33958e-20
-1.16873e-20
-1.1979e-20
-1.00777e-20
-8.22931e-21
-1.15086e-20
-1.47093e-20
-1.34055e-20
-7.54655e-21
-9.29103e-21
-5.92211e-21
-3.61673e-21
-1.60225e-21
-4.60542e-21
-4.54061e-21
-7.78886e-21
-1.47051e-20
-9.82149e-21
-8.27392e-21
-7.54909e-21
-2.42022e-21
-1.31814e-21
-1.96495e-21
-5.28396e-21
-4.39425e-21
-6.19031e-21
1.10103e-21
-1.94825e-21
-5.18497e-21
-2.24485e-21
-2.09214e-21
-8.1579e-23
-1.8546e-21
-3.36533e-21
-1.02208e-20
-1.11177e-20
-1.32258e-20
-1.1787e-20
-1.83516e-20
-1.46228e-20
-1.31916e-20
-1.36806e-20
-1.21399e-20
-1.06402e-20
-1.11559e-20
-8.94268e-21
-1.2015e-20
-1.04496e-20
-6.81022e-21
-9.36056e-21
-8.17993e-21
-5.30393e-21
-3.58377e-21
-4.9434e-22
-5.35915e-21
-9.63484e-21
-9.96263e-21
-9.47922e-21
-9.80348e-21
-7.90482e-21
4.50751e-22
-6.20608e-22
-4.21476e-21
-3.99209e-21
-3.94404e-21
-4.7335e-21
-1.77494e-22
-8.20027e-22
-7.54431e-22
-4.91065e-21
-1.92783e-21
-2.68905e-21
-1.14403e-21
-1.17117e-21
-1.16272e-20
-1.263e-20
-1.3185e-20
-1.43104e-20
-1.54873e-20
-1.05277e-20
-1.28008e-20
-1.24937e-20
-1.16734e-20
-9.95922e-21
-8.75203e-21
-1.32784e-20
-1.11586e-20
-8.68152e-21
-8.37216e-21
-1.05831e-20
-8.84448e-21
-3.72574e-21
-4.08828e-21
-3.8707e-21
-3.33886e-21
-5.59409e-21
-1.08886e-20
-1.00178e-20
-7.19583e-21
-6.2984e-21
-3.34531e-21
-2.523e-21
-1.82778e-21
-4.66256e-21
-4.55801e-21
-4.06593e-21
-5.4181e-22
1.32642e-21
2.51148e-21
-5.00246e-21
-2.51294e-21
1.08773e-21
-3.71788e-21
-3.57101e-21
-1.24332e-20
-1.04698e-20
-1.06027e-20
-1.07969e-20
-1.41762e-20
-1.45332e-20
-1.34805e-20
-1.53262e-20
-1.21758e-20
-9.64621e-21
-5.74087e-21
-1.16798e-20
-6.17525e-21
-6.30078e-21
-8.80365e-21
-1.08727e-20
-1.21944e-20
-6.00401e-21
-2.40472e-21
-3.06181e-21
-3.38523e-21
-8.18879e-21
-9.10323e-21
-8.07003e-21
-8.67539e-21
-4.81474e-21
-4.25217e-21
-7.62929e-21
-1.77607e-21
-3.6162e-21
-5.569e-21
-3.63296e-21
-2.47549e-21
-1.07273e-21
1.38819e-21
2.33527e-21
-1.62808e-21
1.29804e-21
1.11845e-22
-8.69718e-22
-8.09517e-21
-1.05816e-20
-1.27409e-20
-1.05099e-20
-1.14821e-20
-1.38672e-20
-1.09738e-20
-1.20733e-20
-1.23067e-20
-1.2542e-20
-1.17795e-20
-4.96716e-21
-7.86143e-21
-7.77342e-21
-8.60762e-21
-8.45459e-21
-7.68317e-21
-5.41623e-21
-5.21811e-21
-5.46442e-21
-4.16248e-21
-5.65483e-21
-8.98534e-21
-9.94489e-21
-7.72734e-21
-4.30481e-21
-2.23611e-21
-2.78028e-21
-3.50866e-21
-1.59617e-21
-5.81919e-21
-4.08092e-21
-1.56085e-21
-1.651e-21
-2.43548e-21
-4.52403e-23
1.11494e-21
1.00302e-21
1.30958e-21
-6.89465e-22
-6.95556e-21
-9.21443e-21
-1.15024e-20
-1.25994e-20
-9.73442e-21
-1.18848e-20
-1.18758e-20
-9.82391e-21
-8.93065e-21
-1.08235e-20
-1.01031e-20
-7.57357e-21
-1.02995e-20
-5.54667e-21
-7.95972e-21
-8.7978e-21
-6.0539e-21
-9.94626e-22
-2.64635e-21
-8.90545e-21
-3.17587e-21
-9.26639e-21
-1.08214e-20
-7.95994e-21
-6.75262e-21
-5.63584e-21
-5.97656e-21
1.15176e-21
-1.48216e-21
-1.85706e-21
-5.08743e-21
-3.41552e-21
-3.6217e-21
-1.52156e-21
-6.65885e-22
-2.62633e-22
1.19291e-21
-1.81992e-21
-8.07568e-22
-2.27008e-22
-4.74761e-21
-9.01151e-21
-1.21976e-20
-7.98423e-21
-7.90656e-21
-1.16065e-20
-9.67619e-21
-9.5238e-21
-9.20028e-21
-9.91493e-21
-6.23862e-21
-8.88631e-21
-9.14101e-21
-9.21951e-21
-5.66748e-21
-3.79629e-21
-3.7608e-21
-4.48475e-21
-3.81968e-21
-8.81821e-21
-6.4898e-21
-8.06549e-21
-1.07733e-20
-1.11435e-20
-2.92119e-21
-2.89696e-21
-4.46582e-21
-2.95344e-21
8.10745e-22
-2.52219e-21
-4.58747e-21
-3.86061e-21
-6.01919e-21
-1.78157e-21
-1.49806e-21
-2.25703e-21
2.42436e-21
2.97182e-21
-8.82715e-22
-8.86091e-22
-5.41413e-21
-7.56759e-21
-1.01151e-20
-6.63917e-21
-5.51573e-21
-1.34761e-20
-9.76021e-21
-5.8715e-21
-9.50661e-21
-9.45325e-21
-6.20125e-21
-6.23937e-21
-6.88445e-21
-7.50859e-21
-7.88457e-21
-6.39534e-21
-2.84016e-21
-1.5258e-21
-5.14469e-21
-5.709e-21
-3.02102e-21
-6.22948e-21
-7.95786e-21
-1.2453e-20
-8.46059e-21
-4.65474e-21
-4.19002e-21
-3.0301e-22
-2.04881e-21
-2.21005e-21
-1.97209e-21
-3.33567e-21
-3.88616e-21
-1.22654e-21
-8.4077e-22
-4.3697e-21
1.02712e-21
2.33853e-21
-2.38541e-22
2.8153e-22
-5.9989e-21
-5.15976e-21
-6.41478e-21
-3.43996e-21
-4.23336e-21
-2.69068e-21
-8.02309e-21
-4.58016e-21
-6.59797e-21
-6.15101e-21
-2.34872e-21
-2.36769e-21
-5.90739e-21
-5.40831e-21
-2.96093e-21
-4.53329e-21
-1.47179e-21
8.12805e-22
-5.69667e-21
-2.11248e-21
-4.68493e-21
-7.6013e-21
-6.01304e-21
-6.32366e-21
-3.12695e-21
-3.2446e-21
-2.83294e-21
-9.85269e-22
-5.42659e-22
6.73294e-22
-7.38984e-22
-1.20268e-21
-2.39727e-21
-2.04306e-21
5.31972e-22
-3.42238e-21
-1.18912e-21
-1.40309e-21
-1.86005e-21
3.58667e-22
-6.96254e-21
-9.95161e-21
-1.36483e-20
-1.02542e-20
-1.00895e-20
-1.21229e-20
-8.41165e-21
-5.12285e-21
-1.20571e-20
-1.06608e-20
-6.13305e-21
-1.1178e-20
-9.9084e-21
-5.63358e-21
-7.34696e-21
-9.58619e-21
-5.96065e-21
-1.97349e-24
-2.70419e-21
-5.86284e-21
-3.30929e-21
-3.70067e-21
-5.10262e-21
-4.57922e-21
-2.15669e-21
-2.14294e-21
-2.97244e-21
-3.04371e-21
-5.82312e-21
-4.20227e-21
-4.59477e-21
-2.34362e-21
-3.11614e-21
-1.14956e-21
-3.85626e-21
-4.25252e-21
-2.39295e-22
-3.57813e-21
-1.35753e-21
-4.72094e-22
-1.13918e-20
-1.42357e-20
-1.87941e-20
-1.56597e-20
-1.33814e-20
-1.62115e-20
-1.48381e-20
-1.05431e-20
-9.86605e-21
-1.698e-20
-1.4389e-20
-1.3753e-20
-1.20608e-20
-9.44614e-21
-1.08628e-20
-9.88971e-21
-7.3289e-21
-5.32964e-21
-7.21601e-21
-6.32126e-21
-5.62452e-21
-6.05145e-21
-6.89202e-21
-9.9481e-21
-3.173e-21
-3.73652e-21
-4.88149e-21
-4.08873e-21
-8.76297e-21
-3.8329e-21
-3.16888e-21
-2.64321e-21
-3.78536e-21
-2.43161e-21
-6.14759e-21
-3.08246e-21
7.97337e-22
1.47485e-21
2.39749e-22
5.32942e-22
-1.28032e-20
-1.53043e-20
-1.46938e-20
-1.73079e-20
-1.60104e-20
-1.84434e-20
-1.55082e-20
-1.38972e-20
-1.41166e-20
-1.39097e-20
-1.3377e-20
-1.37532e-20
-1.10265e-20
-8.87414e-21
-1.03698e-20
-1.02994e-20
-8.70501e-21
-6.23519e-21
-5.07915e-21
-6.12142e-21
-6.37992e-21
-4.52143e-21
-5.14053e-21
-7.56965e-21
-7.33468e-21
-4.71581e-21
-6.6554e-21
-6.06477e-21
-5.87827e-21
-7.0973e-21
-6.43546e-21
-2.63695e-21
-2.17808e-21
-2.25586e-21
-3.78636e-21
-2.38997e-21
4.59325e-22
-1.13799e-21
-1.96091e-22
7.51773e-22
-1.75712e-20
-1.65624e-20
-1.75199e-20
-1.90419e-20
-1.62475e-20
-1.70912e-20
-1.69406e-20
-1.47012e-20
-1.40903e-20
-1.41477e-20
-1.55477e-20
-1.7015e-20
-9.67086e-21
-9.35019e-21
-1.25838e-20
-1.08613e-20
-8.10841e-21
-7.03076e-21
-5.15093e-21
-4.0429e-21
-8.18898e-21
-8.53256e-21
-7.99501e-21
-8.19266e-21
-6.68736e-21
-5.77975e-21
-6.41557e-21
-5.47716e-21
-5.12303e-21
-7.30132e-21
-5.05145e-21
-4.5134e-22
-5.3552e-21
-3.46938e-21
-3.78201e-21
-1.39015e-21
2.06837e-22
-9.10777e-22
-7.87418e-22
-3.54648e-22
-1.95892e-20
-1.74601e-20
-1.58805e-20
-1.87283e-20
-1.96946e-20
-2.04284e-20
-1.64083e-20
-1.38556e-20
-1.1836e-20
-1.60834e-20
-1.56844e-20
-1.57541e-20
-1.01996e-20
-1.16601e-20
-1.55497e-20
-1.45159e-20
-9.33815e-21
-7.90033e-21
-5.78442e-21
-4.34882e-21
-7.08027e-21
-7.63691e-21
-8.26797e-21
-9.10494e-21
-8.57381e-21
-5.10875e-21
-5.91355e-21
-6.35278e-21
-5.25209e-21
-5.17035e-21
-5.39359e-21
-4.08234e-21
-2.41823e-21
-2.266e-21
-3.70832e-21
-1.78309e-21
4.82633e-22
-3.98773e-22
7.21066e-23
-1.40466e-21
-1.75235e-20
-1.81732e-20
-1.70225e-20
-1.8152e-20
-2.05106e-20
-2.14138e-20
-1.51034e-20
-1.72455e-20
-1.71927e-20
-1.65374e-20
-1.48002e-20
-1.54348e-20
-1.40052e-20
-1.27399e-20
-1.53525e-20
-1.18108e-20
-1.13477e-20
-7.39374e-21
-5.54897e-21
-4.1375e-21
-5.96729e-21
-8.53206e-21
-8.63497e-21
-8.80587e-21
-8.74446e-21
-6.07075e-21
-6.06417e-21
-5.80955e-21
-7.06096e-21
-6.29699e-21
-5.56503e-21
-3.68471e-21
-7.31807e-23
-2.71422e-21
-4.1591e-21
-2.52129e-21
3.52309e-22
1.48324e-21
2.7866e-21
-1.8854e-21
-2.10771e-20
-2.27377e-20
-1.88561e-20
-1.91312e-20
-2.15583e-20
-2.02125e-20
-1.81741e-20
-1.71339e-20
-1.83613e-20
-1.7382e-20
-1.65045e-20
-1.52964e-20
-1.31533e-20
-1.41541e-20
-1.5358e-20
-1.27182e-20
-8.00604e-21
-4.40853e-21
-5.83268e-21
-4.57772e-21
-7.04882e-21
-9.78762e-21
-1.03151e-20
-9.15572e-21
-8.00028e-21
-6.80311e-21
-7.67591e-21
-6.04734e-21
-5.93328e-21
-4.08031e-21
-6.4185e-21
-4.30847e-21
1.47862e-21
-1.07599e-21
-5.34561e-21
-3.80655e-21
-5.03853e-22
-3.87795e-22
7.20571e-22
-1.98822e-21
-1.98913e-20
-2.09052e-20
-1.90597e-20
-2.05939e-20
-2.30152e-20
-2.26195e-20
-1.77741e-20
-1.86667e-20
-1.9795e-20
-2.00374e-20
-1.65263e-20
-1.60354e-20
-1.30771e-20
-1.23461e-20
-1.61281e-20
-1.48039e-20
-1.02518e-20
-5.40821e-21
-1.50923e-21
-2.28641e-21
-6.28285e-21
-1.13219e-20
-1.03936e-20
-1.13832e-20
-1.01578e-20
-6.31406e-21
-6.7217e-21
-7.70741e-21
-4.34615e-21
-5.16752e-21
-7.89474e-21
-2.76251e-21
-2.67375e-21
-3.54772e-21
-3.70362e-21
-6.49282e-22
3.32809e-22
6.76019e-22
-4.38676e-22
-1.89479e-22
-2.1232e-20
-2.38044e-20
-2.23587e-20
-2.28796e-20
-2.15248e-20
-2.14451e-20
-1.9796e-20
-1.97374e-20
-2.05783e-20
-1.91567e-20
-1.61006e-20
-1.78558e-20
-1.32128e-20
-1.33964e-20
-1.45084e-20
-1.27524e-20
-1.08682e-20
-5.80311e-21
-5.93715e-21
-6.73168e-21
-4.58901e-21
-9.56057e-21
-1.07163e-20
-1.20674e-20
-8.93871e-21
-7.93759e-21
-6.84511e-21
-7.09668e-21
-3.34579e-21
-6.70821e-21
-5.97677e-21
-3.42813e-21
-2.0635e-21
-1.73704e-21
-1.98172e-21
-5.33226e-22
-2.7488e-22
2.02899e-22
1.20723e-22
-3.77662e-22
-1.9262e-20
-2.0684e-20
-1.96511e-20
-2.37687e-20
-2.4697e-20
-2.28251e-20
-2.40323e-20
-2.08616e-20
-1.71508e-20
-1.84172e-20
-1.78705e-20
-1.53598e-20
-1.46269e-20
-1.54212e-20
-1.58282e-20
-1.26377e-20
-9.55988e-21
-6.06531e-21
-5.2268e-21
-3.77497e-21
-8.76692e-21
-1.16968e-20
-1.16739e-20
-1.30276e-20
-9.58759e-21
-7.28516e-21
-5.90656e-21
-5.74595e-21
-6.15194e-21
-6.58733e-21
-2.98138e-21
-2.68861e-21
-3.53629e-21
-2.48125e-21
-2.90111e-21
-8.80018e-22
1.19308e-21
-2.12652e-22
-1.47903e-21
-5.34175e-22
-2.44398e-20
-2.53849e-20
-2.06879e-20
-2.25503e-20
-2.35966e-20
-2.31773e-20
-2.53633e-20
-2.53638e-20
-2.02495e-20
-1.83854e-20
-1.4505e-20
-1.1939e-20
-1.40816e-20
-1.26348e-20
-1.55214e-20
-1.47282e-20
-1.0482e-20
-6.77021e-21
-5.15563e-21
-7.29799e-21
-1.13407e-20
-1.15823e-20
-1.32003e-20
-1.46033e-20
-8.9702e-21
-5.81301e-21
-5.92699e-21
-7.69846e-21
-5.62908e-21
-5.12088e-21
-3.88955e-21
-2.28217e-21
-1.73819e-21
-2.86529e-21
-2.81331e-21
-9.82137e-22
-5.57348e-22
-1.72445e-21
-2.16939e-21
-2.50651e-21
-2.46638e-20
-2.59517e-20
-2.11002e-20
-2.14564e-20
-2.29151e-20
-2.46031e-20
-2.39148e-20
-2.42629e-20
-1.88648e-20
-2.03468e-20
-1.53961e-20
-1.28714e-20
-1.5791e-20
-1.43625e-20
-1.55315e-20
-1.72566e-20
-1.08159e-20
-5.46233e-21
-5.83508e-21
-8.41369e-21
-1.11452e-20
-1.33031e-20
-1.16921e-20
-1.16433e-20
-8.41303e-21
-9.10875e-21
-7.75193e-21
-7.11171e-21
-4.20544e-21
-5.70714e-21
-4.84478e-21
-3.14975e-21
-1.32641e-21
-2.04783e-21
-2.83989e-21
-2.61282e-21
6.85947e-22
-1.59051e-21
-2.9391e-21
-9.89919e-22
-2.65049e-20
-2.60556e-20
-2.17577e-20
-2.27661e-20
-2.37371e-20
-2.62277e-20
-2.31676e-20
-2.19257e-20
-2.08346e-20
-1.9596e-20
-1.49513e-20
-1.58895e-20
-1.61312e-20
-1.44385e-20
-1.50582e-20
-1.41944e-20
-9.18861e-21
-6.87888e-21
-9.19472e-21
-1.11338e-20
-8.83466e-21
-1.02085e-20
-1.15737e-20
-1.31455e-20
-9.78466e-21
-7.09935e-21
-8.62984e-21
-6.98268e-21
-5.61544e-21
-3.78763e-21
-5.7968e-21
-4.40643e-21
-1.45298e-21
-1.22223e-21
-8.31011e-21
-1.00403e-21
1.62709e-21
-3.23559e-21
-2.54206e-21
1.39046e-22
-2.86143e-20
-2.80224e-20
-2.39404e-20
-2.49067e-20
-2.37044e-20
-2.26756e-20
-2.35045e-20
-2.02882e-20
-1.98746e-20
-2.13505e-20
-1.70486e-20
-1.39068e-20
-1.76287e-20
-1.27966e-20
-1.48376e-20
-1.51472e-20
-1.44252e-20
-9.44967e-21
-7.57485e-21
-7.98449e-21
-9.97009e-21
-1.19433e-20
-1.16562e-20
-1.44492e-20
-8.2176e-21
-5.78183e-21
-6.09768e-21
-6.81213e-21
-6.44999e-21
-3.33024e-21
-5.94023e-21
-4.42479e-21
-1.46119e-21
-3.09077e-21
-5.63574e-21
-1.89861e-21
-1.07727e-21
2.43206e-21
-1.01786e-21
8.66214e-23
-3.08819e-20
-2.76534e-20
-2.37799e-20
-2.18009e-20
-2.35403e-20
-2.17942e-20
-2.31436e-20
-2.03658e-20
-2.0683e-20
-1.85601e-20
-1.71391e-20
-1.67944e-20
-1.79304e-20
-1.51815e-20
-1.39584e-20
-1.31559e-20
-1.20871e-20
-9.98662e-21
-1.08527e-20
-1.16796e-20
-8.04869e-21
-1.16984e-20
-1.32942e-20
-1.04966e-20
-7.63556e-21
-8.02416e-21
-6.38781e-21
-6.0594e-21
-5.8619e-21
-3.06689e-21
-5.24853e-21
-3.86296e-21
-3.00177e-21
-1.29977e-21
-4.91871e-21
-2.70781e-21
2.26757e-21
2.89743e-23
-1.74582e-21
-1.50564e-21
-2.63045e-20
-2.81441e-20
-2.61541e-20
-2.38799e-20
-2.32911e-20
-2.1994e-20
-2.18223e-20
-2.11184e-20
-2.01785e-20
-1.70467e-20
-1.89449e-20
-1.88363e-20
-1.89164e-20
-1.54675e-20
-1.43529e-20
-1.28419e-20
-1.13973e-20
-1.04644e-20
-1.01502e-20
-7.43568e-21
-1.05183e-20
-1.31502e-20
-1.28306e-20
-8.63853e-21
-7.62713e-21
-8.04196e-21
-6.30886e-21
-5.56914e-21
-6.60511e-21
-4.07748e-21
-3.40324e-21
-4.12406e-21
-3.62608e-21
-1.5855e-21
-3.24024e-21
-1.80269e-21
5.49821e-22
-1.75173e-21
-1.43577e-21
-6.59951e-22
-2.52364e-20
-2.54052e-20
-2.56892e-20
-2.28182e-20
-2.59276e-20
-2.29971e-20
-2.18646e-20
-2.30092e-20
-2.06987e-20
-1.65498e-20
-1.82461e-20
-1.97909e-20
-1.79139e-20
-1.74267e-20
-1.45992e-20
-1.17742e-20
-1.16042e-20
-9.51306e-21
-1.19199e-20
-9.93511e-21
-1.22377e-20
-9.70404e-21
-9.64536e-21
-8.28017e-21
-8.224e-21
-6.50929e-21
-5.85867e-21