/*--------------------------------*- C++ -*----------------------------------*\
| =========                 |                                                 |
| \\      /  F ield         | OpenFOAM: The Open Source CFD Toolbox           |
|  \\    /   O peration     | Version:  v2012                                 |
|   \\  /    A nd           | Website:  www.openfoam.com                      |
|    \\/     M anipulation  |                                                 |
\*---------------------------------------------------------------------------*/
FoamFile
{
    version     2.0;
    format      ascii;
    class       surfaceScalarField;
    location    "41";
    object      phi;
}
// * * * * * * * * * * * * * * * * * * * * * * * * * * * * * * * * * * * * * //

dimensions      [0 3 -1 0 0 0 0];
oriented        oriented;


internalField   nonuniform List<scalar> 
187200
(
1.875e-06
3.06057e-22
2.82506e-22
1.875e-06
3.14978e-22
3.59383e-22
1.875e-06
4.00615e-22
5.02781e-22
1.875e-06
3.41889e-22
3.97448e-22
1.875e-06
3.57431e-22
2.9805e-22
1.875e-06
4.72589e-22
4.28451e-22
1.875e-06
3.86868e-22
3.51137e-22
1.875e-06
3.19218e-22
2.90994e-22
1.875e-06
2.38351e-22
4.05514e-22
1.875e-06
3.71417e-22
3.64901e-22
1.875e-06
4.65622e-22
3.0114e-22
1.875e-06
3.67377e-22
3.34711e-22
1.875e-06
2.63507e-22
3.10275e-22
1.875e-06
2.06011e-22
1.78159e-22
1.875e-06
2.27786e-22
2.80462e-22
1.875e-06
1.76701e-22
2.93914e-22
1.875e-06
2.08366e-22
2.63212e-22
1.875e-06
1.00137e-22
1.29717e-22
1.875e-06
9.68707e-23
1.30409e-22
1.875e-06
1.66934e-22
1.76226e-22
1.875e-06
5.29591e-23
1.63015e-22
1.875e-06
1.64153e-22
1.71932e-22
1.875e-06
2.33948e-22
1.82782e-22
1.875e-06
3.24307e-22
1.43007e-22
1.875e-06
2.27044e-22
1.05437e-22
1.875e-06
1.53289e-22
1.13732e-22
1.875e-06
1.85379e-22
1.93179e-22
1.875e-06
1.14575e-22
3.06094e-23
1.875e-06
1.31205e-22
1.80735e-22
1.875e-06
9.40841e-23
1.56673e-22
1.875e-06
9.41225e-25
1.3539e-22
1.875e-06
3.11487e-23
9.85363e-23
1.875e-06
1.289e-22
1.15803e-22
1.875e-06
8.63878e-23
7.06556e-23
1.875e-06
4.14976e-24
9.29009e-23
1.875e-06
-9.94837e-23
-1.3005e-23
1.875e-06
-4.04342e-23
3.32648e-23
1.875e-06
-3.91299e-24
1.5029e-22
1.875e-06
-2.05653e-23
1.19618e-22
-1.14776e-23
9.82755e-23
1.875e-06
8.88032e-24
2.50719e-22
1.875e-06
1.59746e-22
5.75218e-22
1.875e-06
3.18987e-22
8.10419e-22
1.875e-06
3.51644e-22
7.79537e-22
1.875e-06
2.67854e-22
6.506e-22
1.875e-06
3.18758e-22
7.22645e-22
1.875e-06
4.13786e-22
7.95663e-22
1.875e-06
3.86918e-22
7.34196e-22
1.875e-06
4.05097e-22
7.58151e-22
1.875e-06
3.13802e-22
7.81378e-22
1.875e-06
2.12185e-22
6.82056e-22
1.875e-06
2.42861e-22
5.84502e-22
1.875e-06
2.45376e-22
6.42944e-22
1.875e-06
1.8432e-22
5.70912e-22
1.875e-06
1.1415e-22
5.90545e-22
1.875e-06
7.58721e-23
5.51961e-22
1.875e-06
2.96584e-22
4.94002e-22
1.875e-06
3.22325e-22
5.61542e-22
1.875e-06
1.32871e-22
5.14118e-22
1.875e-06
6.16174e-24
3.2183e-22
1.875e-06
2.28772e-22
4.64423e-22
1.875e-06
2.3197e-22
3.80704e-22
1.875e-06
1.76339e-22
2.8066e-22
1.875e-06
1.2696e-22
2.78586e-22
1.875e-06
1.45634e-22
2.18239e-22
1.875e-06
1.98824e-22
2.47785e-22
1.875e-06
1.63335e-22
3.16673e-22
1.875e-06
1.40797e-22
2.30366e-22
1.875e-06
1.05108e-22
3.59247e-22
1.875e-06
1.13643e-22
2.48682e-22
1.875e-06
1.22299e-22
2.56623e-22
1.875e-06
8.16764e-23
1.96493e-22
1.875e-06
-9.06833e-24
6.88676e-23
1.875e-06
-4.10208e-23
7.07845e-23
1.875e-06
2.73719e-23
2.09256e-22
1.875e-06
-2.01936e-23
1.03765e-22
1.875e-06
-2.2302e-23
2.93868e-23
1.875e-06
-2.94172e-23
4.68293e-23
1.875e-06
-7.61345e-23
5.14902e-23
-1.02529e-22
6.99772e-24
1.875e-06
1.76885e-22
4.19389e-22
1.875e-06
1.65076e-22
6.91394e-22
1.875e-06
1.40573e-22
7.44961e-22
1.875e-06
2.96593e-22
8.91254e-22
1.875e-06
3.06622e-22
8.94827e-22
1.875e-06
3.837e-22
9.35644e-22
1.875e-06
4.0868e-22
8.77352e-22
1.875e-06
2.94243e-22
9.67508e-22
1.875e-06
3.00551e-22
9.44197e-22
1.875e-06
2.97085e-22
8.46135e-22
1.875e-06
2.64076e-22
8.30493e-22
1.875e-06
2.29556e-22
7.35745e-22
1.875e-06
2.18275e-22
6.97722e-22
1.875e-06
1.64325e-22
6.65844e-22
1.875e-06
2.42843e-22
7.42611e-22
1.875e-06
3.40199e-22
7.22214e-22
1.875e-06
1.16877e-22
4.91869e-22
1.875e-06
1.9926e-22
5.51424e-22
1.875e-06
9.70591e-23
5.71016e-22
1.875e-06
1.33264e-22
4.84098e-22
1.875e-06
1.50074e-22
4.63685e-22
1.875e-06
1.13086e-22
3.15046e-22
1.875e-06
2.34699e-22
2.47488e-22
1.875e-06
1.70307e-22
3.08943e-22
1.875e-06
2.67894e-22
3.91734e-22
1.875e-06
7.8101e-23
3.48222e-22
1.875e-06
1.09972e-22
4.17158e-22
1.875e-06
6.49494e-24
3.08812e-22
1.875e-06
3.38879e-23
3.31585e-22
1.875e-06
7.38393e-23
3.2506e-22
1.875e-06
5.34819e-23
3.47288e-22
1.875e-06
2.8898e-23
1.90398e-22
1.875e-06
-2.48025e-23
1.24035e-22
1.875e-06
2.55956e-23
1.55984e-22
1.875e-06
3.77421e-23
1.41846e-22
1.875e-06
6.12894e-24
8.92899e-23
1.875e-06
3.71101e-23
2.96648e-23
1.875e-06
-6.93065e-25
1.51213e-22
1.875e-06
-3.29677e-24
6.99138e-23
-1.5631e-23
2.03202e-23
1.875e-06
2.72898e-22
4.67182e-22
1.875e-06
1.83301e-22
7.83787e-22
1.875e-06
1.07654e-22
9.30997e-22
1.875e-06
1.35266e-22
9.17735e-22
1.875e-06
2.06099e-22
9.27626e-22
1.875e-06
2.05281e-22
8.6592e-22
1.875e-06
1.36369e-22
8.66669e-22
1.875e-06
2.49895e-22
1.03526e-21
1.875e-06
2.34742e-22
1.01233e-21
1.875e-06
3.24513e-22
9.3562e-22
1.875e-06
3.21997e-22
9.45966e-22
1.875e-06
1.15585e-22
8.93084e-22
1.875e-06
1.59741e-22
7.17037e-22
1.875e-06
2.01744e-22
7.42043e-22
1.875e-06
2.9127e-22
8.07681e-22
1.875e-06
3.97141e-22
7.06422e-22
1.875e-06
2.34572e-22
6.10593e-22
1.875e-06
8.46842e-23
5.73304e-22
1.875e-06
2.83219e-22
6.37295e-22
1.875e-06
9.95356e-23
5.08203e-22
1.875e-06
4.37816e-23
4.8857e-22
1.875e-06
1.16228e-22
4.57192e-22
1.875e-06
1.11897e-22
2.81791e-22
1.875e-06
1.31177e-22
3.29715e-22
1.875e-06
7.89377e-23
3.29102e-22
1.875e-06
1.50146e-22
4.54625e-22
1.875e-06
6.08837e-23
4.11485e-22
1.875e-06
8.05905e-23
3.48088e-22
1.875e-06
8.36254e-23
3.05691e-22
1.875e-06
-4.09684e-23
2.90104e-22
1.875e-06
1.62735e-23
3.31803e-22
1.875e-06
2.50839e-24
1.75049e-22
1.875e-06
-1.36852e-23
2.60177e-22
1.875e-06
-1.27912e-24
1.99285e-22
1.875e-06
7.89481e-23
1.30873e-22
1.875e-06
7.31953e-24
4.38121e-23
1.875e-06
-7.69294e-24
1.77463e-24
1.875e-06
3.49674e-23
8.75089e-23
1.875e-06
-1.0483e-22
4.24568e-23
2.37958e-23
3.70306e-23
1.875e-06
-4.65862e-23
3.50709e-22
1.875e-06
1.08581e-22
8.34599e-22
1.875e-06
8.50594e-23
9.14343e-22
1.875e-06
1.52289e-22
9.979e-22
1.875e-06
1.36908e-22
1.05822e-21
1.875e-06
8.44635e-23
1.02743e-21
1.875e-06
7.4634e-23
1.0076e-21
1.875e-06
2.97783e-22
1.01947e-21
1.875e-06
4.13089e-22
1.0329e-21
1.875e-06
2.59971e-22
9.85633e-22
1.875e-06
1.66821e-22
9.33626e-22
1.875e-06
2.08179e-22
9.87155e-22
1.875e-06
2.14017e-22
8.27276e-22
1.875e-06
2.02688e-22
8.47668e-22
1.875e-06
2.09175e-22
8.45539e-22
1.875e-06
1.75971e-22
6.62547e-22
1.875e-06
1.43411e-22
6.44707e-22
1.875e-06
1.26888e-22
6.98265e-22
1.875e-06
5.3494e-23
5.53094e-22
1.875e-06
2.21611e-22
5.51567e-22
1.875e-06
1.23586e-22
5.40328e-22
1.875e-06
1.59486e-23
4.56348e-22
1.875e-06
1.61629e-22
3.27324e-22
1.875e-06
1.88547e-22
3.8586e-22
1.875e-06
2.00794e-22
4.55438e-22
1.875e-06
8.97974e-23
4.36438e-22
1.875e-06
1.36114e-22
4.02894e-22
1.875e-06
2.07697e-23
3.35569e-22
1.875e-06
-2.91626e-23
2.5524e-22
1.875e-06
2.22136e-23
3.00164e-22
1.875e-06
9.69005e-23
3.21925e-22
1.875e-06
1.36228e-22
3.29291e-22
1.875e-06
-4.2503e-25
2.2612e-22
1.875e-06
-4.33957e-23
1.87018e-22
1.875e-06
-1.99525e-23
5.63891e-23
1.875e-06
-7.25508e-24
5.19775e-23
1.875e-06
7.16795e-24
5.85852e-24
1.875e-06
4.36638e-23
3.08076e-23
1.875e-06
6.24075e-23
7.02708e-23
-5.72064e-23
8.8025e-24
1.875e-06
7.71131e-23
4.05154e-22
1.875e-06
2.15254e-22
8.10276e-22
1.875e-06
1.22916e-22
1.00392e-21
1.875e-06
6.16655e-24
1.00089e-21
1.875e-06
1.4369e-22
1.14352e-21
1.875e-06
1.61235e-22
1.17931e-21
1.875e-06
1.79218e-22
1.12565e-21
1.875e-06
2.2473e-22
1.08945e-21
1.875e-06
3.14013e-22
1.0326e-21
1.875e-06
2.50191e-22
1.00269e-21
1.875e-06
1.91224e-22
9.72766e-22
1.875e-06
2.15213e-22
1.02225e-21
1.875e-06
1.25069e-22
8.90032e-22
1.875e-06
2.17682e-22
8.98614e-22
1.875e-06
1.74886e-22
8.48421e-22
1.875e-06
1.20645e-22
6.70249e-22
1.875e-06
1.55304e-22
7.59608e-22
1.875e-06
1.8992e-23
6.95665e-22
1.875e-06
7.64337e-23
6.14318e-22
1.875e-06
8.23986e-23
4.79867e-22
1.875e-06
1.74327e-22
5.38477e-22
1.875e-06
3.07788e-22
5.59865e-22
1.875e-06
1.60974e-22
3.18959e-22
1.875e-06
1.39785e-22
3.43977e-22
1.875e-06
-6.49799e-24
3.93791e-22
1.875e-06
2.07684e-22
4.87191e-22
1.875e-06
1.92049e-22
3.87059e-22
1.875e-06
2.65055e-23
3.83094e-22
1.875e-06
-3.9009e-23
2.82601e-22
1.875e-06
-1.35835e-23
3.1721e-22
1.875e-06
1.11282e-22
2.93587e-22
1.875e-06
1.13073e-22
2.34562e-22
1.875e-06
-3.91017e-23
1.60521e-22
1.875e-06
7.66333e-24
2.24432e-22
1.875e-06
1.50364e-23
1.52128e-22
1.875e-06
8.02501e-23
7.89698e-23
1.875e-06
3.8856e-24
-9.57814e-24
1.875e-06
-2.36816e-23
-6.89738e-23
1.875e-06
8.88814e-23
-6.86709e-23
6.08537e-23
6.86054e-23
1.875e-06
3.24091e-23
4.34637e-22
1.875e-06
7.39794e-23
8.44095e-22
1.875e-06
1.57154e-22
1.05297e-21
1.875e-06
7.49662e-23
1.13006e-21
1.875e-06
9.40145e-23
1.1976e-21
1.875e-06
9.8502e-23
1.21326e-21
1.875e-06
2.51628e-22
1.22208e-21
1.875e-06
3.70714e-22
1.14876e-21
1.875e-06
2.84674e-22
1.1265e-21
1.875e-06
2.16733e-22
1.11202e-21
1.875e-06
1.48998e-22
1.02151e-21
1.875e-06
1.02926e-22
9.65161e-22
1.875e-06
1.81809e-22
9.51338e-22
1.875e-06
2.06304e-22
9.27479e-22
1.875e-06
1.3947e-22
8.56193e-22
1.875e-06
1.18082e-22
7.49545e-22
1.875e-06
8.12545e-23
6.66715e-22
1.875e-06
1.51658e-22
6.48012e-22
1.875e-06
1.67687e-22
5.75265e-22
1.875e-06
5.34918e-23
5.23818e-22
1.875e-06
1.03692e-22
5.18385e-22
1.875e-06
1.12064e-22
4.27744e-22
1.875e-06
8.45192e-23
3.80537e-22
1.875e-06
8.84063e-23
3.0797e-22
1.875e-06
1.23571e-22
4.71502e-22
1.875e-06
1.42967e-22
3.98598e-22
1.875e-06
4.46746e-23
3.2926e-22
1.875e-06
5.86276e-23
4.38199e-22
1.875e-06
6.6877e-23
3.06682e-22
1.875e-06
6.00332e-23
3.2175e-22
1.875e-06
-7.69239e-24
2.45983e-22
1.875e-06
-2.97377e-23
1.15088e-22
1.875e-06
6.49009e-23
1.75771e-22
1.875e-06
8.96681e-23
1.98522e-22
1.875e-06
8.88606e-23
1.89057e-22
1.875e-06
1.0505e-22
3.21538e-23
1.875e-06
2.24333e-23
-1.20294e-23
1.875e-06
-2.19087e-23
-4.89234e-24
1.875e-06
-1.27709e-23
-5.35052e-23
2.98072e-23
3.58828e-23
1.875e-06
1.17487e-22
3.85783e-22
1.875e-06
4.00482e-23
7.82123e-22
1.875e-06
7.23023e-23
1.01263e-21
1.875e-06
1.76319e-22
1.236e-21
1.875e-06
1.65182e-22
1.34851e-21
1.875e-06
2.92462e-22
1.39889e-21
1.875e-06
2.42914e-22
1.18147e-21
1.875e-06
7.91131e-23
1.10134e-21
1.875e-06
1.22013e-22
1.15308e-21
1.875e-06
2.3519e-22
1.15221e-21
1.875e-06
8.54302e-23
1.07549e-21
1.875e-06
7.21945e-23
1.01729e-21
1.875e-06
2.00131e-22
8.89749e-22
1.875e-06
1.40185e-22
8.1754e-22
1.875e-06
1.75301e-22
9.42118e-22
1.875e-06
1.17887e-22
8.53074e-22
1.875e-06
7.78559e-23
7.87914e-22
1.875e-06
6.90925e-23
6.69666e-22
1.875e-06
1.33098e-22
4.05731e-22
1.875e-06
2.50068e-22
4.73108e-22
1.875e-06
7.72533e-23
4.96032e-22
1.875e-06
1.17023e-22
4.74662e-22
1.875e-06
1.56647e-22
4.35474e-22
1.875e-06
8.45278e-23
5.00136e-22
1.875e-06
7.51117e-23
5.31715e-22
1.875e-06
7.7072e-23
3.63865e-22
1.875e-06
1.01103e-22
3.22656e-22
1.875e-06
1.39494e-22
4.01695e-22
1.875e-06
3.84641e-23
2.08877e-22
1.875e-06
2.89531e-23
2.72606e-22
1.875e-06
-7.22103e-23
2.99674e-22
1.875e-06
-7.66714e-23
1.74838e-22
1.875e-06
4.89118e-23
2.2703e-22
1.875e-06
4.58605e-23
2.05248e-22
1.875e-06
6.34034e-23
2.82026e-23
1.875e-06
-3.31627e-23
-1.78911e-22
1.875e-06
1.02599e-23
-7.44563e-23
1.875e-06
-7.7008e-25
9.8111e-24
1.875e-06
-1.06924e-23
-2.71458e-23
4.32402e-24
-5.09858e-23
1.875e-06
-1.66651e-22
3.06987e-22
1.875e-06
-5.52708e-23
8.64252e-22
1.875e-06
4.67624e-23
1.16291e-21
1.875e-06
8.48726e-23
1.2334e-21
1.875e-06
1.89957e-22
1.28794e-21
1.875e-06
2.08837e-22
1.29037e-21
1.875e-06
2.11072e-22
1.29192e-21
1.875e-06
1.84761e-22
1.28936e-21
1.875e-06
9.96438e-23
1.24851e-21
1.875e-06
8.25079e-23
1.08176e-21
1.875e-06
2.60976e-22
1.11633e-21
1.875e-06
4.55204e-23
1.09068e-21
1.875e-06
-5.93968e-24
8.49069e-22
1.875e-06
1.14144e-22
8.49236e-22
1.875e-06
1.80251e-22
8.7363e-22
1.875e-06
1.28674e-22
8.16964e-22
1.875e-06
1.79383e-22
8.29114e-22
1.875e-06
1.86503e-22
7.58602e-22
1.875e-06
-3.03464e-23
5.39467e-22
1.875e-06
-5.16766e-23
4.46725e-22
1.875e-06
2.24178e-22
4.90224e-22
1.875e-06
1.52409e-22
4.77807e-22
1.875e-06
1.11444e-22
3.93254e-22
1.875e-06
1.36011e-22
5.58813e-22
1.875e-06
1.90159e-22
5.07095e-22
1.875e-06
3.85259e-23
4.54126e-22
1.875e-06
-1.00281e-22
3.04829e-22
1.875e-06
-3.70126e-23
2.7435e-22
1.875e-06
6.88941e-23
2.15487e-22
1.875e-06
5.16529e-23
2.44622e-22
1.875e-06
-2.44178e-23
3.36123e-22
1.875e-06
-4.43292e-23
2.32697e-22
1.875e-06
2.15755e-24
2.01702e-22
1.875e-06
2.94394e-24
1.15602e-22
1.875e-06
-2.757e-23
-1.49682e-22
1.875e-06
7.85829e-23
-2.4472e-22
1.875e-06
9.40513e-23
-1.11827e-22
1.875e-06
6.03171e-23
-6.40272e-23
1.875e-06
4.41735e-23
-8.00149e-23
4.61606e-25
-1.03709e-22
1.875e-06
-2.62539e-23
4.67551e-22
1.875e-06
7.70569e-23
8.56076e-22
1.875e-06
1.49937e-22
1.09107e-21
1.875e-06
2.28168e-22
1.32009e-21
1.875e-06
9.16069e-23
1.37447e-21
1.875e-06
1.19783e-22
1.35037e-21
1.875e-06
2.63939e-22
1.42387e-21
1.875e-06
1.31229e-22
1.3554e-21
1.875e-06
1.78062e-22
1.19757e-21
1.875e-06
1.23502e-22
1.04387e-21
1.875e-06
1.15316e-23
9.84882e-22
1.875e-06
8.99293e-23
1.0813e-21
1.875e-06
8.96429e-23
9.84915e-22
1.875e-06
9.29358e-23
9.40048e-22
1.875e-06
1.42111e-22
8.84004e-22
1.875e-06
2.22257e-22
8.18681e-22
1.875e-06
1.74556e-22
7.29325e-22
1.875e-06
6.73226e-23
6.6879e-22
1.875e-06
-1.70339e-23
6.20675e-22
1.875e-06
7.24845e-23
5.27806e-22
1.875e-06
1.61697e-22
5.58763e-22
1.875e-06
2.56217e-22
5.8888e-22
1.875e-06
1.27068e-22
4.85429e-22
1.875e-06
1.34562e-22
5.81059e-22
1.875e-06
1.54206e-22
5.03615e-22
1.875e-06
7.82884e-24
4.24607e-22
1.875e-06
-1.05956e-22
3.63252e-22
1.875e-06
-4.43012e-23
2.88871e-22
1.875e-06
-4.41077e-24
2.67541e-22
1.875e-06
9.01173e-23
2.66953e-22
1.875e-06
1.62488e-23
2.82224e-22
1.875e-06
-6.79062e-23
2.55685e-22
1.875e-06
4.85608e-23
2.19004e-22
1.875e-06
-5.31609e-23
9.67953e-23
1.875e-06
-5.78306e-23
-1.10689e-22
1.875e-06
6.07432e-23
-3.37155e-22
1.875e-06
-8.79497e-25
-3.61141e-22
1.875e-06
6.29149e-23
-2.61025e-22
1.875e-06
9.31997e-23
-1.27996e-22
1.05432e-22
-1.24248e-22
1.875e-06
9.65873e-23
6.85059e-22
1.875e-06
1.61078e-22
1.00506e-21
1.875e-06
1.23291e-22
1.06385e-21
1.875e-06
7.71391e-23
1.23685e-21
1.875e-06
1.55552e-22
1.40714e-21
1.875e-06
1.90824e-22
1.36816e-21
1.875e-06
3.44972e-24
1.372e-21
1.875e-06
1.76543e-22
1.47869e-21
1.875e-06
1.91774e-23
1.26085e-21
1.875e-06
6.93614e-23
1.03802e-21
1.875e-06
2.40478e-22
9.55969e-22
1.875e-06
1.42193e-22
9.45999e-22
1.875e-06
2.95189e-23
9.63756e-22
1.875e-06
1.24316e-22
8.68089e-22
1.875e-06
1.0144e-22
8.76831e-22
1.875e-06
9.39719e-23
7.94173e-22
1.875e-06
1.17647e-22
6.77966e-22
1.875e-06
1.69335e-22
7.69555e-22
1.875e-06
1.9025e-22
7.28557e-22
1.875e-06
9.56482e-23
6.68853e-22
1.875e-06
8.60951e-23
6.39411e-22
1.875e-06
9.86096e-23
5.21324e-22
1.875e-06
1.02104e-22
5.54605e-22
1.875e-06
5.1211e-23
5.4949e-22
1.875e-06
2.43617e-23
3.93411e-22
1.875e-06
-4.35473e-23
3.55223e-22
1.875e-06
5.19423e-23
4.34236e-22
1.875e-06
5.53081e-23
4.38026e-22
1.875e-06
2.83118e-23
2.80571e-22
1.875e-06
-1.21814e-22
1.94894e-22
1.875e-06
-3.94019e-23
3.07184e-22
1.875e-06
2.09486e-23
2.92912e-22
1.875e-06
2.49916e-23
7.55216e-23
1.875e-06
5.82731e-23
1.21393e-22
1.875e-06
2.74558e-23
-1.16429e-22
1.875e-06
-1.46623e-22
-4.2354e-22
1.875e-06
-8.3601e-23
-3.2717e-22
1.875e-06
1.37044e-23
-1.93906e-22
1.875e-06
1.05028e-22
-1.87273e-22
1.4953e-22
-1.7143e-22
1.875e-06
2.60928e-22
6.52934e-22
1.875e-06
1.37341e-22
9.95145e-22
1.875e-06
9.95627e-23
1.08669e-21
1.875e-06
1.23432e-22
1.24796e-21
1.875e-06
1.32375e-22
1.40071e-21
1.875e-06
3.3947e-24
1.34712e-21
1.875e-06
1.22149e-22
1.39552e-21
1.875e-06
1.47091e-22
1.38575e-21
1.875e-06
1.54116e-22
1.23492e-21
1.875e-06
6.15953e-23
1.10589e-21
1.875e-06
3.14069e-23
8.68227e-22
1.875e-06
6.44845e-23
9.20107e-22
1.875e-06
1.63141e-22
1.05886e-21
1.875e-06
1.2391e-22
8.96987e-22
1.875e-06
5.21956e-23
8.74184e-22
1.875e-06
6.39112e-23
8.79499e-22
1.875e-06
4.16879e-23
7.05434e-22
1.875e-06
1.03792e-22
6.43412e-22
1.875e-06
1.74135e-22
7.04937e-22
1.875e-06
1.53679e-22
7.54054e-22
1.875e-06
1.0156e-22
6.67911e-22
1.875e-06
8.07108e-23
5.50673e-22
1.875e-06
1.5153e-23
4.88032e-22
1.875e-06
2.99032e-23
4.72555e-22
1.875e-06
-1.39685e-22
3.87953e-22
1.875e-06
-3.65985e-23
4.60448e-22
1.875e-06
1.31063e-23
4.07889e-22
1.875e-06
1.06029e-22
3.62223e-22
1.875e-06
-1.77329e-23
2.72519e-22
1.875e-06
-1.28588e-22
3.18629e-22
1.875e-06
7.53211e-23
3.6841e-22
1.875e-06
1.10005e-22
3.37877e-22
1.875e-06
-9.73848e-23
7.48761e-23
1.875e-06
6.1709e-23
-2.20669e-23
1.875e-06
8.15905e-23
-1.53728e-22
1.875e-06
-6.67696e-23
-2.47738e-22
1.875e-06
-7.22228e-23
-3.02729e-22
1.875e-06
1.73118e-24
-2.1823e-22
1.875e-06
-8.19448e-23
-2.39095e-22
-1.2978e-22
-3.08299e-22
1.875e-06
3.18738e-23
5.00869e-22
1.875e-06
1.60315e-22
9.83389e-22
1.875e-06
1.57898e-22
1.16237e-21
1.875e-06
1.55277e-22
1.31508e-21
1.875e-06
-3.2814e-23
1.36393e-21
1.875e-06
-9.70029e-23
1.41814e-21
1.875e-06
5.9831e-23
1.34984e-21
1.875e-06
1.26332e-22
1.22972e-21
1.875e-06
4.1724e-23
1.19387e-21
1.875e-06
8.04768e-23
1.08147e-21
1.875e-06
-1.40199e-23
8.79011e-22
1.875e-06
1.75903e-22
1.05044e-21
1.875e-06
1.98442e-22
1.08389e-21
1.875e-06
1.20076e-22
9.23632e-22
1.875e-06
9.01544e-23
9.2257e-22
1.875e-06
3.35739e-23
7.92138e-22
1.875e-06
9.67982e-23
7.05065e-22
1.875e-06
4.54407e-23
6.72601e-22
1.875e-06
1.33996e-22
7.69894e-22
1.875e-06
2.01093e-22
8.04698e-22
1.875e-06
1.56995e-22
5.73481e-22
1.875e-06
5.20653e-23
4.89108e-22
1.875e-06
5.49725e-23
5.36777e-22
1.875e-06
-5.82258e-23
5.09788e-22
1.875e-06
1.61343e-24
5.61333e-22
1.875e-06
-4.24348e-23
4.48136e-22
1.875e-06
-1.4959e-22
4.12328e-22
1.875e-06
-8.95291e-23
2.86289e-22
1.875e-06
8.29822e-24
3.39382e-22
1.875e-06
-6.99315e-23
3.85757e-22
1.875e-06
-1.06055e-22
3.01839e-22
1.875e-06
7.10616e-23
2.98067e-22
1.875e-06
5.00645e-23
1.85249e-22
1.875e-06
-2.95705e-23
-8.64448e-23
1.875e-06
-2.67001e-23
-9.12044e-23
1.875e-06
1.0852e-23
-2.70176e-22
1.875e-06
-2.96717e-23
-3.19527e-22
1.875e-06
-8.31642e-23
-1.91101e-22
1.875e-06
-8.52238e-23
-1.66365e-22
-1.40917e-22
-2.46358e-22
1.875e-06
-1.64285e-22
5.67608e-22
1.875e-06
1.4101e-23
9.79645e-22
1.875e-06
1.54237e-22
1.20957e-21
1.875e-06
2.07136e-23
1.32832e-21
1.875e-06
1.53431e-23
1.42062e-21
1.875e-06
5.22613e-23
1.44488e-21
1.875e-06
6.10648e-23
1.36899e-21
1.875e-06
8.88812e-23
1.09839e-21
1.875e-06
1.13153e-22
1.18263e-21
1.875e-06
-5.93613e-23
1.07371e-21
1.875e-06
-1.26482e-23
1.00281e-21
1.875e-06
2.15017e-22
9.25768e-22
1.875e-06
1.86466e-22
1.03173e-21
1.875e-06
7.58198e-23
8.87791e-22
1.875e-06
1.597e-23
8.99569e-22
1.875e-06
4.68519e-23
8.72683e-22
1.875e-06
1.25157e-22
8.84054e-22
1.875e-06
2.41904e-22
8.46286e-22
1.875e-06
1.98571e-22
7.56377e-22
1.875e-06
1.90469e-22
6.34248e-22
1.875e-06
1.6937e-22
5.1807e-22
1.875e-06
-1.25229e-23
5.63893e-22
1.875e-06
-2.2866e-23
5.8003e-22
1.875e-06
-3.74216e-23
6.14782e-22
1.875e-06
-1.02939e-22
4.44486e-22
1.875e-06
7.72184e-24
4.16152e-22
1.875e-06
1.01973e-22
5.07677e-22
1.875e-06
-7.551e-23
3.58118e-22
1.875e-06
-1.19328e-22
3.14727e-22
1.875e-06
-5.03067e-25
3.82202e-22
1.875e-06
-1.02365e-22
3.57932e-22
1.875e-06
-1.16607e-22
1.92225e-22
1.875e-06
-1.91166e-23
1.27244e-22
1.875e-06
-2.99634e-23
3.46308e-23
1.875e-06
-5.91944e-23
-1.73365e-22
1.875e-06
-1.11616e-22
-3.6587e-22
1.875e-06
-6.55481e-23
-3.05653e-22
1.875e-06
-5.69999e-25
-3.05915e-22
1.875e-06
-9.34118e-23
-2.16312e-22
-1.56857e-22
-2.51289e-22
1.875e-06
-4.75844e-23
8.0751e-22
1.875e-06
-1.86315e-22
1.02995e-21
1.875e-06
-4.40896e-23
1.16057e-21
1.875e-06
-1.66888e-23
1.29872e-21
1.875e-06
6.18619e-23
1.41034e-21
1.875e-06
-2.2578e-24
1.35796e-21
1.875e-06
-3.01037e-23
1.269e-21
1.875e-06
3.13017e-23
1.1019e-21
1.875e-06
2.56563e-23
1.1284e-21
1.875e-06
-4.28517e-23
1.14209e-21
1.875e-06
1.4776e-22
1.12376e-21
1.875e-06
8.16971e-23
9.66331e-22
1.875e-06
1.16467e-22
1.00007e-21
1.875e-06
9.14785e-23
9.74779e-22
1.875e-06
1.63136e-22
9.16249e-22
1.875e-06
1.03622e-22
8.2888e-22
1.875e-06
6.08713e-23
7.80047e-22
1.875e-06
1.28176e-22
7.35904e-22
1.875e-06
1.2791e-22
7.48936e-22
1.875e-06
8.06935e-23
6.40465e-22
1.875e-06
5.71094e-23
4.6852e-22
1.875e-06
1.33646e-22
6.44529e-22
1.875e-06
1.09989e-23
6.88433e-22
1.875e-06
-1.44108e-22
5.13151e-22
1.875e-06
-1.39961e-22
4.33227e-22
1.875e-06
-4.27568e-24
4.47213e-22
1.875e-06
5.03054e-23
3.81999e-22
1.875e-06
-2.10468e-23
3.80062e-22
1.875e-06
-3.03073e-23
3.38468e-22
1.875e-06
-3.53966e-23
2.87536e-22
1.875e-06
-2.2783e-23
3.57732e-22
1.875e-06
-7.53262e-23
2.55051e-22
1.875e-06
1.23169e-23
1.69536e-22
1.875e-06
-2.73122e-23
2.71115e-23
1.875e-06
-6.43301e-23
-1.1755e-22
1.875e-06
1.41448e-25
-2.77658e-22
1.875e-06
-1.10641e-22
-3.21692e-22
1.875e-06
-1.58538e-22
-3.14244e-22
1.875e-06
-8.16669e-23
-2.05362e-22
-9.18521e-23
-1.21086e-22
1.875e-06
-4.18227e-23
7.27313e-22
1.875e-06
-1.0466e-22
1.14305e-21
1.875e-06
-9.84138e-23
1.2635e-21
1.875e-06
-1.09445e-22
1.38002e-21
1.875e-06
-8.19121e-23
1.4104e-21
1.875e-06
2.84385e-23
1.37185e-21
1.875e-06
2.42301e-23
1.27893e-21
1.875e-06
-3.93397e-23
1.15342e-21
1.875e-06
1.15512e-23
1.17214e-21
1.875e-06
1.28084e-22
1.12742e-21
1.875e-06
1.82328e-23
1.09839e-21
1.875e-06
1.232e-22
1.07693e-21
1.875e-06
-7.35833e-23
1.04583e-21
1.875e-06
9.17907e-23
9.76712e-22
1.875e-06
1.30507e-22
8.62191e-22
1.875e-06
5.95914e-23
7.24313e-22
1.875e-06
8.76331e-23
7.65821e-22
1.875e-06
8.15069e-23
7.295e-22
1.875e-06
1.10493e-22
7.32416e-22
1.875e-06
6.43437e-23
5.31064e-22
1.875e-06
1.22118e-22
5.60421e-22
1.875e-06
1.3906e-23
5.9912e-22
1.875e-06
2.5088e-24
6.19562e-22
1.875e-06
-7.27787e-23
5.36856e-22
1.875e-06
-1.90533e-23
4.97149e-22
1.875e-06
-1.49719e-22
4.55291e-22
1.875e-06
-2.45889e-23
3.29713e-22
1.875e-06
1.05718e-22
3.37258e-22
1.875e-06
-3.26252e-23
3.59174e-22
1.875e-06
2.73638e-23
3.40435e-22
1.875e-06
-1.00921e-23
2.88349e-22
1.875e-06
-3.89912e-23
2.78256e-22
1.875e-06
-6.393e-24
1.7623e-22
1.875e-06
-1.37033e-22
-2.62547e-24
1.875e-06
-2.56679e-22
-2.05769e-22
1.875e-06
-1.7199e-22
-3.62615e-22
1.875e-06
7.30191e-23
-1.77701e-22
1.875e-06
5.64205e-24
-9.00065e-23
1.875e-06
-7.99083e-23
-1.59517e-22
-1.34635e-23
-1.65439e-22
1.875e-06
-1.5109e-22
6.66586e-22
1.875e-06
-6.323e-23
1.1237e-21
1.875e-06
-2.26124e-24
1.28727e-21
1.875e-06
-3.57684e-23
1.439e-21
1.875e-06
-7.00543e-23
1.53109e-21
1.875e-06
7.81398e-24
1.37873e-21
1.875e-06
-1.33817e-22
1.25096e-21
1.875e-06
-1.3385e-22
1.21525e-21
1.875e-06
1.26126e-23
1.18948e-21
1.875e-06
1.59212e-22
1.07957e-21
1.875e-06
1.31428e-22
1.14683e-21
1.875e-06
-3.44036e-23
1.07671e-21
1.875e-06
5.26113e-23
1.18154e-21
1.875e-06
-4.33317e-24
1.08378e-21
1.875e-06
1.66521e-22
8.60875e-22
1.875e-06
1.32689e-22
7.47071e-22
1.875e-06
5.18457e-23
7.04776e-22
1.875e-06
-3.81058e-23
6.85226e-22
1.875e-06
7.57573e-23
6.91018e-22
1.875e-06
1.58175e-22
6.53557e-22
1.875e-06
1.55711e-22
5.85935e-22
1.875e-06
-1.56884e-23
5.72361e-22
1.875e-06
-1.7534e-22
4.68808e-22
1.875e-06
-8.49221e-23
4.93511e-22
1.875e-06
-4.15379e-23
4.89147e-22
1.875e-06
1.02554e-22
5.18213e-22
1.875e-06
5.07981e-23
3.23637e-22
1.875e-06
-3.06516e-24
2.66042e-22
1.875e-06
6.03265e-23
4.14679e-22
1.875e-06
2.55453e-23
3.12027e-22
1.875e-06
-1.59567e-24
2.04292e-22
1.875e-06
-9.36012e-23
2.39806e-22
1.875e-06
-1.7016e-22
1.16314e-22
1.875e-06
-1.07588e-22
1.37436e-22
1.875e-06
-1.17408e-22
2.95391e-23
1.875e-06
-8.11391e-23
-2.34206e-22
1.875e-06
9.51681e-24
-2.65779e-22
1.875e-06
4.70855e-23
-1.26433e-22
1.875e-06
-6.72474e-23
-1.84496e-22
-6.10269e-23
-3.44783e-22
1.875e-06
-7.76963e-23
7.20162e-22
1.875e-06
-1.42617e-22
1.14165e-21
1.875e-06
-1.41871e-22
1.26467e-21
1.875e-06
2.82005e-23
1.45828e-21
1.875e-06
3.53569e-23
1.4704e-21
1.875e-06
-1.39112e-22
1.38329e-21
1.875e-06
-1.01426e-22
1.30089e-21
1.875e-06
-1.20081e-22
1.22093e-21
1.875e-06
8.15316e-24
1.25858e-21
1.875e-06
3.84811e-23
1.17837e-21
1.875e-06
8.21309e-24
1.1497e-21
1.875e-06
8.65069e-23
1.09629e-21
1.875e-06
5.91256e-23
1.14819e-21
1.875e-06
1.45417e-24
1.13017e-21
1.875e-06
-1.91344e-23
8.18276e-22
1.875e-06
8.72855e-23
7.92268e-22
1.875e-06
6.3207e-23
7.44677e-22
1.875e-06
1.87495e-22
8.19445e-22
1.875e-06
1.91863e-22
6.93377e-22
1.875e-06
1.5884e-22
5.83127e-22
1.875e-06
-7.55773e-23
4.56571e-22
1.875e-06
-2.1435e-22
6.36863e-22
1.875e-06
-9.10505e-23
5.72894e-22
1.875e-06
-1.69646e-23
4.55379e-22
1.875e-06
-5.30249e-23
5.21906e-22
1.875e-06
-2.80968e-23
4.31388e-22
1.875e-06
8.13492e-23
3.94017e-22
1.875e-06
3.82699e-23
2.93189e-22
1.875e-06
3.49403e-25
3.20374e-22
1.875e-06
6.38136e-23
2.4948e-22
1.875e-06
7.58338e-23
1.36136e-22
1.875e-06
-4.63011e-23
2.39584e-22
1.875e-06
-1.13236e-22
1.56136e-22
1.875e-06
-1.60419e-23
1.34975e-22
1.875e-06
-1.56e-23
8.16943e-23
1.875e-06
-7.82451e-23
-1.38699e-23
1.875e-06
-8.05167e-23
-1.47857e-22
1.875e-06
-3.38173e-23
-1.88473e-22
1.875e-06
1.3212e-22
-1.79673e-22
1.3295e-22
-2.72112e-22
1.875e-06
-2.48103e-23
7.89672e-22
1.875e-06
5.81822e-23
1.18615e-21
1.875e-06
3.23919e-23
1.32088e-21
1.875e-06
-1.3287e-23
1.45664e-21
1.875e-06
-6.55102e-23
1.47562e-21
1.875e-06
-1.51387e-22
1.43354e-21
1.875e-06
-1.85645e-22
1.34438e-21
1.875e-06
-9.40905e-23
1.3667e-21
1.875e-06
4.0426e-23
1.29994e-21
1.875e-06
1.99572e-23
1.14522e-21
1.875e-06
1.17058e-23
1.16638e-21
1.875e-06
2.33723e-23
1.13592e-21
1.875e-06
1.14707e-22
1.15575e-21
1.875e-06
1.34637e-22
1.1432e-21
1.875e-06
3.30437e-24
8.66579e-22
1.875e-06
-7.46665e-23
8.20326e-22
1.875e-06
-5.02482e-23
7.86578e-22
1.875e-06
-1.28071e-23
6.81911e-22
1.875e-06
1.17872e-22
5.17481e-22
1.875e-06
2.3626e-23
4.98907e-22
1.875e-06
-6.73278e-23
4.85457e-22
1.875e-06
3.5743e-23
6.95336e-22
1.875e-06
-3.68253e-23
6.58252e-22
1.875e-06
-1.32975e-23
6.17074e-22
1.875e-06
-9.88499e-24
5.3929e-22
1.875e-06
-4.12404e-23
4.49089e-22
1.875e-06
9.65372e-23
3.49565e-22
1.875e-06
1.49714e-22
3.73722e-22
1.875e-06
9.51802e-23
3.29496e-22
1.875e-06
-7.7818e-23
2.27166e-22
1.875e-06
-6.16927e-23
1.21838e-22
1.875e-06
-4.3327e-23
6.38983e-23
1.875e-06
-3.08788e-23
1.44461e-22
1.875e-06
-3.34116e-24
2.61623e-22
1.875e-06
5.43753e-23
1.539e-22
1.875e-06
2.58218e-23
4.12353e-23
1.875e-06
1.65023e-23
-7.51171e-23
1.875e-06
-3.56395e-23
-1.44632e-22
1.875e-06
-3.22922e-23
-2.93458e-22
6.72047e-24
-3.18267e-22
1.875e-06
1.8168e-22
9.2358e-22
1.875e-06
1.18817e-22
1.2022e-21
1.875e-06
-3.95629e-24
1.16286e-21
1.875e-06
-8.07024e-23
1.257e-21
1.875e-06
-1.53292e-22
1.48984e-21
1.875e-06
-2.6574e-23
1.43244e-21
1.875e-06
1.66984e-23
1.43533e-21
1.875e-06
-1.03152e-22
1.38408e-21
1.875e-06
-1.6142e-22
1.22907e-21
1.875e-06
-1.90275e-23
1.33786e-21
1.875e-06
-1.87055e-22
1.16869e-21
1.875e-06
4.62372e-22
1.18151e-21
1.875e-06
3.82459e-23
1.07797e-21
1.875e-06
9.5406e-23
1.10712e-21
1.875e-06
2.75773e-23
1.02258e-21
1.875e-06
-1.53926e-22
8.81755e-22
1.875e-06
-8.68769e-23
7.33345e-22
1.875e-06
-9.89714e-23
5.56743e-22
1.875e-06
-6.3486e-23
5.22816e-22
1.875e-06
-2.78069e-23
5.34199e-22
1.875e-06
-5.86217e-23
4.85609e-22
1.875e-06
-9.13837e-23
6.06106e-22
1.875e-06
-2.05644e-23
7.57279e-22
1.875e-06
4.17161e-23
6.24251e-22
1.875e-06
1.7209e-22
5.3839e-22
1.875e-06
9.23068e-23
4.70345e-22
1.875e-06
-5.03072e-23
3.02018e-22
1.875e-06
-4.62629e-23
2.80428e-22
1.875e-06
-1.59203e-22
2.94446e-22
1.875e-06
2.31633e-22
2.97707e-22
1.875e-06
-3.81598e-24
2.26833e-22
1.875e-06
-4.69567e-23
8.96287e-23
1.875e-06
7.1222e-23
1.2091e-22
1.875e-06
-5.92188e-23
2.20839e-22
1.875e-06
6.4811e-23
8.95028e-23
1.875e-06
9.20959e-23
6.72507e-23
1.875e-06
-8.18394e-23
-5.75963e-23
1.875e-06
2.19137e-23
-1.97229e-22
1.875e-06
-7.58023e-23
-4.06605e-22
-6.84414e-23
-3.38199e-22
1.875e-06
2.55447e-22
8.06151e-22
1.875e-06
1.57995e-22
1.09182e-21
1.875e-06
-1.1918e-23
1.11479e-21
1.875e-06
-5.88939e-24
1.33947e-21
1.875e-06
1.14862e-22
1.47915e-21
1.875e-06
6.8027e-23
1.45365e-21
1.875e-06
1.65478e-24
1.40736e-21
1.875e-06
-1.34314e-22
1.33659e-21
1.875e-06
-1.48795e-22
1.27403e-21
1.875e-06
-7.22263e-23
1.37945e-21
1.875e-06
2.76005e-23
1.22103e-21
1.875e-06
9.57149e-23
1.18767e-21
1.875e-06
4.28605e-23
1.14831e-21
1.875e-06
7.91481e-23
1.01935e-21
1.875e-06
-1.00639e-22
9.30318e-22
1.875e-06
-2.56084e-23
9.46675e-22
1.875e-06
-7.13541e-23
8.06078e-22
1.875e-06
-7.09477e-23
6.31784e-22
1.875e-06
-1.96832e-22
5.82045e-22
1.875e-06
-1.07806e-22
5.42349e-22
1.875e-06
-2.64767e-23
5.09477e-22
1.875e-06
-7.2184e-23
6.38547e-22
1.875e-06
4.39977e-23
6.96585e-22
1.875e-06
1.80466e-23
5.27817e-22
1.875e-06
5.68187e-23
5.17272e-22
1.875e-06
1.07932e-22
5.79367e-22
1.875e-06
7.19342e-24
2.96089e-22
1.875e-06
7.28691e-23
3.08026e-22
1.875e-06
7.32971e-24
4.07507e-22
1.875e-06
-5.26296e-23
2.72956e-22
1.875e-06
-1.7046e-23
1.41306e-22
1.875e-06
3.61884e-23
6.04037e-23
1.875e-06
-4.44258e-23
4.87452e-23
1.875e-06
1.65288e-23
1.88418e-22
1.875e-06
1.72233e-22
1.4163e-22
1.875e-06
7.54508e-23
7.63008e-24
1.875e-06
2.65215e-23
-6.14676e-23
1.875e-06
-4.26199e-23
-2.48121e-22
1.875e-06
-8.11307e-23
-4.02793e-22
-1.24624e-22
-3.16852e-22
1.875e-06
-8.04715e-24
6.1622e-22
1.875e-06
6.70342e-23
1.01275e-21
1.875e-06
-5.79713e-24
1.14053e-21
1.875e-06
-2.92685e-24
1.32567e-21
1.875e-06
4.74743e-23
1.3836e-21
1.875e-06
1.24503e-22
1.37109e-21
1.875e-06
3.80354e-23
1.32913e-21
1.875e-06
9.84096e-24
1.35817e-21
1.875e-06
-3.52492e-23
1.32355e-21
1.875e-06
-1.79724e-22
1.46866e-21
1.875e-06
-1.05023e-22
1.27326e-21
1.875e-06
-2.09831e-23
1.06836e-21
1.875e-06
2.37083e-23
1.13772e-21
1.875e-06
-1.83306e-22
1.00582e-21
1.875e-06
-1.10523e-22
1.00924e-21
1.875e-06
-9.85554e-23
9.47598e-22
1.875e-06
-1.41192e-22
8.69448e-22
1.875e-06