/*--------------------------------*- C++ -*----------------------------------*\
| =========                 |                                                 |
| \\      /  F ield         | OpenFOAM: The Open Source CFD Toolbox           |
|  \\    /   O peration     | Version:  v2012                                 |
|   \\  /    A nd           | Website:  www.openfoam.com                      |
|    \\/     M anipulation  |                                                 |
\*---------------------------------------------------------------------------*/
FoamFile
{
    version     2.0;
    format      ascii;
    class       volVectorField;
    location    "41";
    object      U;
}
// * * * * * * * * * * * * * * * * * * * * * * * * * * * * * * * * * * * * * //

dimensions      [0 1 -1 0 0 0 0];


internalField   nonuniform List<vector> 
64000
(
(0.003 3.00994e-19 2.60691e-19)
(0.003 5.03631e-19 4.22913e-19)
(0.003 5.1728e-19 5.37858e-19)
(0.003 5.13722e-19 6.0622e-19)
(0.003 6.29209e-19 6.17825e-19)
(0.003 6.1189e-19 5.5114e-19)
(0.003 5.65553e-19 5.25305e-19)
(0.003 4.18963e-19 4.78066e-19)
(0.003 3.91677e-19 5.52415e-19)
(0.003 5.96655e-19 4.95603e-19)
(0.003 6.30818e-19 3.99173e-19)
(0.003 5.65631e-19 5.67265e-19)
(0.003 4.87738e-19 5.23036e-19)
(0.003 4.64361e-19 4.03334e-19)
(0.003 3.89313e-19 4.58978e-19)
(0.003 3.25749e-19 4.69097e-19)
(0.003 2.59582e-19 3.39008e-19)
(0.003 1.23717e-19 1.73749e-19)
(0.003 1.33783e-19 1.64047e-19)
(0.003 2.41008e-19 2.73716e-19)
(0.003 1.27142e-19 2.31837e-19)
(0.003 2.25197e-19 2.45764e-19)
(0.003 3.63988e-19 2.88414e-19)
(0.003 4.45868e-19 2.3661e-19)
(0.003 3.50488e-19 1.51045e-19)
(0.003 2.24933e-19 1.52051e-19)
(0.003 1.67345e-19 1.95932e-19)
(0.003 2.7122e-19 2.31548e-19)
(0.003 2.86733e-19 2.65577e-19)
(0.003 1.3566e-19 2.7428e-19)
(0.003 1.00554e-20 2.26209e-19)
(0.003 4.1323e-20 1.58462e-19)
(0.003 1.77753e-19 1.50555e-19)
(0.003 1.25182e-19 1.12002e-19)
(0.003 7.57504e-20 1.39938e-19)
(0.003 5.76935e-20 1.73264e-19)
(0.003 -3.18795e-20 5.48442e-20)
(0.003 -5.66312e-20 1.39509e-19)
(0.003 -6.43863e-20 2.29711e-19)
(0.003 -5.18772e-20 1.37701e-19)
(0.003 2.46055e-19 4.50039e-19)
(0.003 4.05644e-19 8.90955e-19)
(0.003 6.52436e-19 1.13701e-18)
(0.003 6.23008e-19 1.13198e-18)
(0.003 5.35294e-19 1.11973e-18)
(0.003 6.89616e-19 1.1841e-18)
(0.003 7.10322e-19 1.1819e-18)
(0.003 6.46992e-19 9.65204e-19)
(0.003 5.84973e-19 8.75532e-19)
(0.003 5.7943e-19 1.15936e-18)
(0.003 5.68173e-19 1.14855e-18)
(0.003 5.00644e-19 1.03043e-18)
(0.003 4.22019e-19 9.09405e-19)
(0.003 3.17845e-19 8.38614e-19)
(0.003 2.55479e-19 8.45864e-19)
(0.003 2.12143e-19 8.08577e-19)
(0.003 4.30508e-19 7.13001e-19)
(0.003 3.87348e-19 5.63896e-19)
(0.003 2.02948e-19 5.02387e-19)
(0.003 1.26452e-19 5.10145e-19)
(0.003 2.588e-19 4.47816e-19)
(0.003 3.69887e-19 5.09436e-19)
(0.003 3.38569e-19 5.51599e-19)
(0.003 3.97685e-19 6.26163e-19)
(0.003 3.19135e-19 4.92818e-19)
(0.003 2.97401e-19 3.99343e-19)
(0.003 3.40664e-19 3.88413e-19)
(0.003 2.37024e-19 4.24482e-19)
(0.003 1.83866e-19 5.14649e-19)
(0.003 1.79646e-19 3.98636e-19)
(0.003 1.02866e-19 2.43698e-19)
(0.003 8.97509e-20 2.16836e-19)
(0.003 1.20889e-19 2.82081e-19)
(0.003 6.84802e-20 2.13578e-19)
(0.003 6.67094e-21 2.37865e-19)
(0.003 -1.16882e-19 2.12143e-19)
(0.003 -5.32156e-20 1.54517e-20)
(0.003 -3.41683e-20 4.0395e-20)
(0.003 -8.64626e-20 1.22751e-19)
(0.003 -9.7994e-20 9.44653e-20)
(0.003 1.63646e-19 5.61678e-19)
(0.003 1.9767e-19 9.85518e-19)
(0.003 3.20928e-19 1.22015e-18)
(0.003 5.09671e-19 1.3396e-18)
(0.003 4.50339e-19 1.31028e-18)
(0.003 5.62862e-19 1.34652e-18)
(0.003 6.3339e-19 1.41201e-18)
(0.003 5.74398e-19 1.34233e-18)
(0.003 5.95105e-19 1.26884e-18)
(0.003 4.80547e-19 1.25264e-18)
(0.003 4.06772e-19 1.1807e-18)
(0.003 3.55415e-19 1.14228e-18)
(0.003 3.59534e-19 1.03077e-18)
(0.003 2.60367e-19 9.31121e-19)
(0.003 2.7711e-19 9.09553e-19)
(0.003 2.69507e-19 8.80747e-19)
(0.003 3.24634e-19 8.79918e-19)
(0.003 4.54274e-19 7.75132e-19)
(0.003 2.05518e-19 5.80735e-19)
(0.003 1.17528e-19 5.07081e-19)
(0.003 2.9588e-19 5.86721e-19)
(0.003 2.66168e-19 6.22441e-19)
(0.003 3.33642e-19 6.07417e-19)
(0.003 2.65403e-19 6.38796e-19)
(0.003 3.26483e-19 5.67447e-19)
(0.003 2.57885e-19 5.476e-19)
(0.003 2.07044e-19 5.44308e-19)
(0.003 7.96581e-20 5.60969e-19)
(0.003 8.80446e-20 5.41569e-19)
(0.003 1.71692e-19 4.83179e-19)
(0.003 1.74292e-19 4.13703e-19)
(0.003 9.0685e-20 2.87461e-19)
(0.003 -6.06346e-20 2.52876e-19)
(0.003 -3.2447e-20 2.01592e-19)
(0.003 5.20023e-20 1.95542e-19)
(0.003 1.21988e-20 1.40901e-19)
(0.003 -5.10843e-21 6.17577e-20)
(0.003 -1.68956e-20 5.96696e-20)
(0.003 -5.77212e-20 1.06045e-19)
(0.003 -9.8986e-20 5.95414e-20)
(0.003 3.85938e-19 7.13131e-19)
(0.003 3.01675e-19 1.1516e-18)
(0.003 2.18275e-19 1.33239e-18)
(0.003 3.55915e-19 1.49169e-18)
(0.003 4.22996e-19 1.44088e-18)
(0.003 4.69764e-19 1.51155e-18)
(0.003 4.5224e-19 1.53041e-18)
(0.003 4.2361e-19 1.37435e-18)
(0.003 3.7113e-19 1.30562e-18)
(0.003 4.5355e-19 1.34006e-18)
(0.003 4.54982e-19 1.34989e-18)
(0.003 3.19313e-19 1.33211e-18)
(0.003 2.83683e-19 1.11085e-18)
(0.003 3.06431e-19 9.78635e-19)
(0.003 4.94162e-19 1.02662e-18)
(0.003 6.11195e-19 9.68022e-19)
(0.003 2.85771e-19 8.62706e-19)
(0.003 2.12673e-19 8.38324e-19)
(0.003 2.90117e-19 6.43522e-19)
(0.003 1.96204e-19 5.90465e-19)
(0.003 1.3754e-19 6.63391e-19)
(0.003 1.88676e-19 6.96552e-19)
(0.003 2.96425e-19 7.18299e-19)
(0.003 2.64526e-19 7.49551e-19)
(0.003 3.21639e-19 7.25446e-19)
(0.003 1.87034e-19 5.81823e-19)
(0.003 1.05213e-19 5.17676e-19)
(0.003 5.62737e-20 4.94005e-19)
(0.003 9.67797e-20 5.53524e-19)
(0.003 2.98543e-20 5.3374e-19)
(0.003 3.21001e-20 4.03604e-19)
(0.003 2.308e-20 2.91662e-19)
(0.003 -4.66981e-20 3.19286e-19)
(0.003 -2.19936e-20 2.30239e-19)
(0.003 8.33944e-20 1.89546e-19)
(0.003 3.26426e-20 1.4837e-19)
(0.003 6.26905e-20 9.43892e-20)
(0.003 6.42827e-20 7.76846e-20)
(0.003 -3.02479e-20 9.74005e-20)
(0.003 4.36003e-21 7.87548e-20)
(0.003 2.05348e-19 7.77338e-19)
(0.003 2.81702e-19 1.2542e-18)
(0.003 1.725e-19 1.38004e-18)
(0.003 2.03919e-19 1.5541e-18)
(0.003 2.65706e-19 1.59377e-18)
(0.003 1.89632e-19 1.65732e-18)
(0.003 1.11778e-19 1.57477e-18)
(0.003 3.86763e-19 1.40011e-18)
(0.003 5.27756e-19 1.29876e-18)
(0.003 4.78122e-19 1.45496e-18)
(0.003 3.54428e-19 1.4455e-18)
(0.003 2.62009e-19 1.27996e-18)
(0.003 2.97944e-19 1.12674e-18)
(0.003 3.07584e-19 1.12953e-18)
(0.003 4.13566e-19 1.263e-18)
(0.003 5.19242e-19 1.15672e-18)
(0.003 3.12719e-19 9.24241e-19)
(0.003 1.99953e-19 7.78071e-19)
(0.003 3.10912e-19 7.50506e-19)
(0.003 2.95926e-19 5.98488e-19)
(0.003 1.58903e-19 5.9081e-19)
(0.003 1.26166e-19 7.0524e-19)
(0.003 1.55926e-19 7.75091e-19)
(0.003 2.10733e-19 8.08663e-19)
(0.003 1.92877e-19 7.77836e-19)
(0.003 1.73051e-19 6.48953e-19)
(0.003 1.38808e-19 5.22574e-19)
(0.003 7.58298e-20 5.33269e-19)
(0.003 7.55128e-20 5.63194e-19)
(0.003 -7.96223e-21 4.58115e-19)
(0.003 6.90298e-20 3.75717e-19)
(0.003 1.04094e-19 3.41119e-19)
(0.003 -1.18611e-20 2.48882e-19)
(0.003 -1.63822e-20 2.01155e-19)
(0.003 2.8109e-20 2.13298e-19)
(0.003 -1.2097e-20 1.78707e-19)
(0.003 5.90583e-20 1.20023e-19)
(0.003 5.87608e-20 1.68896e-20)
(0.003 -8.74479e-20 4.26784e-20)
(0.003 -6.25712e-20 1.25955e-19)
(0.003 4.90302e-20 7.87927e-19)
(0.003 2.32847e-19 1.31877e-18)
(0.003 1.47099e-19 1.44056e-18)
(0.003 1.02547e-19 1.60651e-18)
(0.003 1.87249e-19 1.70311e-18)
(0.003 1.90018e-19 1.65626e-18)
(0.003 1.92316e-19 1.58859e-18)
(0.003 3.98956e-19 1.63006e-18)
(0.003 5.59365e-19 1.52126e-18)
(0.003 4.06647e-19 1.41792e-18)
(0.003 3.27872e-19 1.37778e-18)
(0.003 3.57853e-19 1.3757e-18)
(0.003 2.60763e-19 1.28395e-18)
(0.003 3.13826e-19 1.15667e-18)
(0.003 2.88968e-19 1.27353e-18)
(0.003 2.6173e-19 1.21838e-18)
(0.003 2.55555e-19 9.97722e-19)
(0.003 5.85569e-20 8.17467e-19)
(0.003 9.84128e-20 6.97147e-19)
(0.003 2.6891e-19 6.04068e-19)
(0.003 2.73297e-19 6.0336e-19)
(0.003 2.97571e-19 7.30516e-19)
(0.003 2.86931e-19 8.03246e-19)
(0.003 2.60687e-19 7.97655e-19)
(0.003 1.64546e-19 7.62205e-19)
(0.003 2.38882e-19 6.25142e-19)
(0.003 2.25251e-19 5.83156e-19)
(0.003 -1.64434e-21 5.0484e-19)
(0.003 -1.31793e-19 5.12856e-19)
(0.003 -4.17492e-20 5.41397e-19)
(0.003 1.8025e-19 4.746e-19)
(0.003 2.24753e-19 3.65059e-19)
(0.003 1.5031e-20 1.90149e-19)
(0.003 -2.13742e-20 2.25423e-19)
(0.003 -1.787e-20 2.83716e-19)
(0.003 4.45621e-20 1.19839e-19)
(0.003 -2.99658e-20 5.61148e-20)
(0.003 7.2172e-21 -2.14433e-20)
(0.003 1.34911e-19 -3.75935e-20)
(0.003 6.2779e-20 8.76508e-20)
(0.003 6.84209e-20 9.69952e-19)
(0.003 2.26248e-19 1.53581e-18)
(0.003 2.08895e-19 1.51539e-18)
(0.003 6.53409e-20 1.57558e-18)
(0.003 1.67784e-19 1.73123e-18)
(0.003 2.13913e-19 1.7906e-18)
(0.003 3.04996e-19 1.6886e-18)
(0.003 5.06605e-19 1.60583e-18)
(0.003 5.01948e-19 1.60408e-18)
(0.003 3.88987e-19 1.56594e-18)
(0.003 2.67848e-19 1.50436e-18)
(0.003 2.40174e-19 1.39625e-18)
(0.003 2.61976e-19 1.27612e-18)
(0.003 3.69329e-19 1.26244e-18)
(0.003 2.41117e-19 1.27217e-18)
(0.003 1.70913e-19 1.20066e-18)
(0.003 1.9356e-19 9.73729e-19)
(0.003 1.86552e-19 7.32611e-19)
(0.003 1.9555e-19 6.26875e-19)
(0.003 9.65975e-20 6.37956e-19)
(0.003 2.02614e-19 7.0385e-19)
(0.003 3.47399e-19 8.20222e-19)
(0.003 2.75248e-19 8.45448e-19)
(0.003 1.64654e-19 8.18355e-19)
(0.003 6.82782e-20 7.16809e-19)
(0.003 2.38292e-19 6.64175e-19)
(0.003 1.71435e-19 6.08743e-19)
(0.003 4.66223e-20 4.49523e-19)
(0.003 5.4154e-21 4.35998e-19)
(0.003 5.00678e-20 4.3458e-19)
(0.003 1.38202e-19 4.57209e-19)
(0.003 8.04158e-20 3.74582e-19)
(0.003 1.98604e-20 1.58443e-19)
(0.003 6.77414e-20 1.27875e-19)
(0.003 9.05698e-20 1.93517e-19)
(0.003 1.84225e-19 1.88654e-19)
(0.003 2.84991e-20 1.13446e-19)
(0.003 -4.13683e-20 2.50205e-20)
(0.003 6.43251e-20 2.32131e-20)
(0.003 6.73833e-20 6.42837e-20)
(0.003 1.71675e-19 8.6325e-19)
(0.003 1.57175e-19 1.42591e-18)
(0.003 1.69027e-19 1.55476e-18)
(0.003 1.97577e-19 1.6779e-18)
(0.003 2.06474e-19 1.85947e-18)
(0.003 2.90374e-19 1.84399e-18)
(0.003 3.99267e-19 1.72772e-18)
(0.003 3.55155e-19 1.74654e-18)
(0.003 3.23058e-19 1.73565e-18)
(0.003 3.55923e-19 1.70272e-18)
(0.003 2.14102e-19 1.55767e-18)
(0.003 1.80342e-19 1.41733e-18)
(0.003 2.74957e-19 1.27731e-18)
(0.003 3.11129e-19 1.22438e-18)
(0.003 2.78841e-19 1.30672e-18)
(0.003 1.85392e-19 1.30199e-18)
(0.003 9.03404e-20 1.03556e-18)
(0.003 1.84751e-19 7.41031e-19)
(0.003 3.28758e-19 5.8825e-19)
(0.003 2.92961e-19 5.02221e-19)
(0.003 1.49783e-19 6.13702e-19)
(0.003 1.21806e-19 8.4477e-19)
(0.003 1.19154e-19 8.97787e-19)
(0.003 8.81441e-20 8.80778e-19)
(0.003 1.49768e-19 7.95925e-19)
(0.003 1.83062e-19 6.75915e-19)
(0.003 1.71267e-19 5.5432e-19)
(0.003 1.78032e-19 4.48304e-19)
(0.003 8.25905e-20 3.69058e-19)
(0.003 1.19158e-19 4.45712e-19)
(0.003 -3.28689e-20 5.09962e-19)
(0.003 -7.13426e-20 3.74613e-19)
(0.003 5.23849e-20 2.42563e-19)
(0.003 1.10735e-19 2.31001e-19)
(0.003 1.84943e-19 1.85953e-19)
(0.003 2.40489e-20 -3.80633e-20)
(0.003 -4.73856e-20 -6.00529e-20)
(0.003 -4.66748e-21 9.26292e-20)
(0.003 -8.30974e-21 5.42601e-20)
(0.003 2.7984e-20 3.4924e-20)
(0.003 -7.3385e-20 8.79209e-19)
(0.003 -5.88549e-20 1.58637e-18)
(0.003 8.47526e-20 1.66504e-18)
(0.003 1.50155e-19 1.74593e-18)
(0.003 2.85324e-19 1.83542e-18)
(0.003 4.43182e-19 1.91544e-18)
(0.003 4.13419e-19 1.85618e-18)
(0.003 1.79005e-19 1.75814e-18)
(0.003 1.58464e-19 1.76276e-18)
(0.003 2.60916e-19 1.76044e-18)
(0.003 2.33739e-19 1.5578e-18)
(0.003 9.51223e-20 1.43121e-18)
(0.003 1.72324e-19 1.34905e-18)
(0.003 2.49275e-19 1.25154e-18)
(0.003 2.93584e-19 1.29096e-18)
(0.003 1.94827e-19 1.25257e-18)
(0.003 2.45416e-19 1.04166e-18)
(0.003 2.14023e-19 7.36137e-19)
(0.003 5.77144e-20 7.16556e-19)
(0.003 1.40185e-19 6.9242e-19)
(0.003 2.37693e-19 6.33018e-19)
(0.003 1.47317e-19 7.94977e-19)
(0.003 1.71193e-19 8.70571e-19)
(0.003 1.91562e-19 9.23817e-19)
(0.003 2.01276e-19 7.58861e-19)
(0.003 8.86958e-20 6.55297e-19)
(0.003 1.77168e-20 6.16399e-19)
(0.003 1.23303e-19 5.00625e-19)
(0.003 1.15774e-19 3.59923e-19)
(0.003 6.26048e-20 4.5721e-19)
(0.003 -1.20486e-19 4.7534e-19)
(0.003 -1.26504e-19 3.57017e-19)
(0.003 6.07873e-20 2.403e-19)
(0.003 7.56756e-20 1.72169e-19)
(0.003 3.23989e-20 -4.27402e-20)
(0.003 1.68354e-20 -2.70864e-19)
(0.003 8.52992e-20 -4.48057e-20)
(0.003 2.74923e-20 8.75634e-20)
(0.003 -8.17546e-21 3.56941e-20)
(0.003 -9.82438e-21 -1.05164e-20)
(0.003 -2.03159e-19 9.30291e-19)
(0.003 -4.89007e-20 1.44392e-18)
(0.003 1.28895e-19 1.59253e-18)
(0.003 2.94679e-19 1.80999e-18)
(0.003 2.40549e-19 1.98853e-18)
(0.003 2.32214e-19 1.99049e-18)
(0.003 3.83499e-19 1.96015e-18)
(0.003 2.86694e-19 1.88345e-18)
(0.003 1.97672e-19 1.7234e-18)
(0.003 1.53169e-19 1.65763e-18)
(0.003 2.40199e-19 1.56089e-18)
(0.003 8.34651e-20 1.361e-18)
(0.003 3.45866e-20 1.31203e-18)
(0.003 1.62348e-19 1.33742e-18)
(0.003 2.27406e-19 1.35159e-18)
(0.003 2.91551e-19 1.26999e-18)
(0.003 3.22955e-19 1.04144e-18)
(0.003 1.84437e-19 7.77051e-19)
(0.003 -9.35169e-20 6.34717e-19)
(0.003 -1.43979e-20 6.15556e-19)
(0.003 2.66075e-19 7.62708e-19)
(0.003 3.28371e-19 9.12654e-19)
(0.003 2.14136e-19 9.71944e-19)
(0.003 2.41724e-19 9.68585e-19)
(0.003 3.16153e-19 8.61009e-19)
(0.003 8.25119e-20 6.93601e-19)
(0.003 -1.8087e-19 5.442e-19)
(0.003 -1.10045e-19 4.7296e-19)
(0.003 7.4454e-20 4.8443e-19)
(0.003 9.11972e-20 4.43322e-19)
(0.003 -1.84587e-20 3.23315e-19)
(0.003 -6.34562e-20 3.63573e-19)
(0.003 4.40122e-20 3.34827e-19)
(0.003 2.8054e-21 1.94221e-19)
(0.003 -4.68183e-20 -6.37493e-21)
(0.003 7.05886e-20 -3.12479e-19)
(0.003 1.18683e-19 -4.35489e-19)
(0.003 1.0554e-19 -2.75473e-19)
(0.003 1.02139e-19 -1.0076e-19)
(0.003 9.75681e-20 -1.19663e-19)
(0.003 5.3645e-20 1.06687e-18)
(0.003 1.74573e-19 1.60808e-18)
(0.003 2.54838e-19 1.68745e-18)
(0.003 2.76927e-19 1.86914e-18)
(0.003 2.05788e-19 1.96882e-18)
(0.003 2.44204e-19 2.00962e-18)
(0.003 2.02984e-19 2.06742e-18)
(0.003 2.13478e-19 1.98647e-18)
(0.003 1.46576e-19 1.86874e-18)
(0.003 1.56589e-19 1.63191e-18)
(0.003 2.08218e-19 1.37883e-18)
(0.003 1.69046e-19 1.25692e-18)
(0.003 1.01619e-19 1.26814e-18)
(0.003 1.01556e-19 1.19661e-18)
(0.003 1.89719e-19 1.32615e-18)
(0.003 3.02078e-19 1.35385e-18)
(0.003 2.50577e-19 1.12187e-18)
(0.003 1.47735e-19 7.69101e-19)
(0.003 9.49622e-20 6.1349e-19)
(0.003 1.19002e-19 6.87611e-19)
(0.003 2.3601e-19 8.90209e-19)
(0.003 3.57877e-19 1.04127e-18)
(0.003 2.29897e-19 1.06104e-18)
(0.003 1.46626e-19 1.03586e-18)
(0.003 1.02284e-19 8.23758e-19)
(0.003 -3.47119e-20 5.65523e-19)
(0.003 -2.97499e-20 5.29079e-19)
(0.003 3.46259e-20 5.31298e-19)
(0.003 1.29236e-20 4.62829e-19)
(0.003 -1.44287e-20 5.36714e-19)
(0.003 -2.6147e-20 4.92541e-19)
(0.003 -2.20775e-20 3.36226e-19)
(0.003 6.45291e-20 2.65461e-19)
(0.003 -5.57962e-21 8.0029e-20)
(0.003 -1.15702e-19 -7.54457e-20)
(0.003 -9.20892e-20 -2.54352e-19)
(0.003 -4.56825e-20 -4.26753e-19)
(0.003 1.02566e-19 -2.42346e-19)
(0.003 2.07836e-19 -1.61001e-19)
(0.003 2.16829e-19 -1.68235e-19)
(0.003 2.47007e-19 1.09118e-18)
(0.003 2.33484e-19 1.67301e-18)
(0.003 1.73243e-19 1.74792e-18)
(0.003 1.46949e-19 1.80248e-18)
(0.003 2.31427e-19 1.97732e-18)
(0.003 1.95277e-19 2.09675e-18)
(0.003 1.14055e-19 2.00922e-18)
(0.003 2.27937e-19 1.98412e-18)
(0.003 1.44178e-19 1.75937e-18)
(0.003 5.91367e-20 1.64184e-18)
(0.003 1.67552e-19 1.49307e-18)
(0.003 1.9101e-19 1.29297e-18)
(0.003 2.01438e-19 1.32936e-18)
(0.003 1.92505e-19 1.26855e-18)
(0.003 1.32291e-19 1.30371e-18)
(0.003 7.49091e-20 1.35561e-18)
(0.003 6.32945e-20 1.06184e-18)
(0.003 1.75015e-19 7.53972e-19)
(0.003 3.36039e-19 7.16552e-19)
(0.003 2.70251e-19 7.85531e-19)
(0.003 1.53128e-19 9.20888e-19)
(0.003 1.07054e-19 1.01388e-18)
(0.003 5.82197e-20 9.60181e-19)
(0.003 7.87035e-20 9.59598e-19)
(0.003 -7.81109e-20 8.92196e-19)
(0.003 -1.14725e-19 6.80484e-19)
(0.003 3.30136e-20 6.00572e-19)
(0.003 9.32731e-20 5.84098e-19)
(0.003 1.28295e-20 4.52278e-19)
(0.003 -1.74978e-19 4.91121e-19)
(0.003 3.23156e-20 5.10272e-19)
(0.003 1.24406e-19 3.79395e-19)
(0.003 -7.57036e-20 2.31414e-19)
(0.003 3.10919e-20 3.74018e-21)
(0.003 1.14288e-19 -9.35851e-20)
(0.003 -1.14962e-19 -2.17618e-19)
(0.003 -1.594e-19 -4.11061e-19)
(0.003 8.94656e-21 -2.46314e-19)
(0.003 7.78688e-20 -2.1146e-19)
(0.003 7.66439e-20 -2.72495e-19)
(0.003 2.53403e-19 1.09958e-18)
(0.003 2.91039e-19 1.69861e-18)
(0.003 2.3026e-19 1.80024e-18)
(0.003 2.49024e-19 1.91002e-18)
(0.003 8.22665e-20 2.00815e-18)
(0.003 -7.48479e-20 2.04665e-18)
(0.003 1.10566e-19 2.01843e-18)
(0.003 1.66383e-19 1.95501e-18)
(0.003 1.49568e-19 1.7746e-18)
(0.003 1.15267e-19 1.6226e-18)
(0.003 2.25623e-20 1.49396e-18)
(0.003 1.97746e-19 1.40746e-18)
(0.003 2.95961e-19 1.38053e-18)
(0.003 2.10824e-19 1.34425e-18)
(0.003 9.19537e-20 1.31645e-18)
(0.003 2.9812e-20 1.24954e-18)
(0.003 7.74635e-20 9.69071e-19)
(0.003 1.37579e-19 7.73727e-19)
(0.003 2.08726e-19 8.19193e-19)
(0.003 2.69779e-19 8.94309e-19)
(0.003 2.08041e-19 8.76611e-19)
(0.003 8.69261e-20 9.92976e-19)
(0.003 8.99178e-20 9.70043e-19)
(0.003 -9.41821e-21 9.82264e-19)
(0.003 -1.61676e-19 8.47711e-19)
(0.003 -1.76603e-19 6.40971e-19)
(0.003 -1.56066e-19 6.27344e-19)
(0.003 4.88593e-20 6.47718e-19)
(0.003 1.25283e-20 4.96751e-19)
(0.003 -1.93837e-19 4.00632e-19)
(0.003 -6.40589e-21 5.05417e-19)
(0.003 1.3588e-19 4.30151e-19)
(0.003 -8.51882e-21 1.94188e-19)
(0.003 5.0097e-20 9.90479e-20)
(0.003 5.88643e-20 2.5024e-20)
(0.003 -7.54096e-20 -3.51593e-19)
(0.003 -3.04424e-20 -4.35068e-19)
(0.003 -6.22503e-20 -2.14323e-19)
(0.003 -2.46644e-19 -1.52487e-19)
(0.003 -2.94469e-19 -2.35286e-19)
(0.003 -2.99563e-20 1.18487e-18)
(0.003 1.72047e-19 1.8133e-18)
(0.003 2.53232e-19 1.866e-18)
(0.003 1.10943e-19 1.9625e-18)
(0.003 -5.05484e-20 1.99102e-18)
(0.003 -4.67368e-20 2.00879e-18)
(0.003 1.29165e-19 1.96456e-18)
(0.003 2.28775e-19 1.83164e-18)
(0.003 1.67693e-19 1.73899e-18)
(0.003 1.4559e-20 1.6883e-18)
(0.003 -3.68308e-20 1.52815e-18)
(0.003 2.70757e-19 1.40716e-18)
(0.003 3.18519e-19 1.43966e-18)
(0.003 1.62762e-19 1.34722e-18)
(0.003 7.66049e-20 1.30949e-18)
(0.003 7.27139e-20 1.23609e-18)
(0.003 1.48359e-19 1.07126e-18)
(0.003 2.35897e-19 8.83276e-19)
(0.003 2.29954e-19 8.26469e-19)
(0.003 2.09529e-19 8.61366e-19)
(0.003 2.27097e-19 8.82523e-19)
(0.003 7.1494e-20 9.86359e-19)
(0.003 3.5064e-20 1.00779e-18)
(0.003 -8.38206e-20 9.47731e-19)
(0.003 -1.05093e-19 8.36862e-19)
(0.003 2.31773e-21 5.96507e-19)
(0.003 -2.22598e-20 4.99561e-19)
(0.003 -1.23894e-19 6.00729e-19)
(0.003 -9.9699e-20 5.34623e-19)
(0.003 -8.11669e-20 4.01834e-19)
(0.003 -2.13431e-19 5.40871e-19)
(0.003 -1.00676e-19 5.00322e-19)
(0.003 6.9017e-20 2.74601e-19)
(0.003 -3.8484e-20 1.20034e-19)
(0.003 -1.04665e-19 -3.77512e-20)
(0.003 -5.71693e-20 -3.90767e-19)
(0.003 -8.04519e-20 -4.97383e-19)
(0.003 -1.22957e-19 -4.35642e-19)
(0.003 -1.999e-19 -3.40565e-19)
(0.003 -2.74401e-19 -3.67914e-19)
(0.003 -2.32395e-19 1.20889e-18)
(0.003 -1.94309e-19 1.78085e-18)
(0.003 7.49421e-20 1.91365e-18)
(0.003 2.67706e-20 1.88669e-18)
(0.003 5.46669e-20 1.95855e-18)
(0.003 3.95198e-20 1.98959e-18)
(0.003 5.64061e-20 1.9608e-18)
(0.003 1.81239e-19 1.89321e-18)
(0.003 9.71863e-20 1.76253e-18)
(0.003 -9.4168e-20 1.63887e-18)
(0.003 1.07797e-19 1.54361e-18)
(0.003 2.74075e-19 1.52235e-18)
(0.003 2.27476e-19 1.51933e-18)
(0.003 1.13905e-19 1.36859e-18)
(0.003 1.11144e-19 1.19398e-18)
(0.003 9.22393e-20 1.19525e-18)
(0.003 1.47982e-19 1.05878e-18)
(0.003 2.98497e-19 9.14177e-19)
(0.003 2.26076e-19 9.19988e-19)
(0.003 1.5821e-19 8.99007e-19)
(0.003 1.9809e-19 9.06354e-19)
(0.003 8.32342e-20 9.22249e-19)
(0.003 -7.70536e-20 1.01406e-18)
(0.003 -1.84431e-19 9.19062e-19)
(0.003 -1.52662e-19 7.93893e-19)
(0.003 7.59362e-20 6.76661e-19)
(0.003 1.56021e-19 4.87719e-19)
(0.003 -7.28474e-20 5.84032e-19)
(0.003 -1.27649e-19 5.47561e-19)
(0.003 -3.9693e-20 3.72766e-19)
(0.003 -1.13418e-19 4.19804e-19)
(0.003 -1.51197e-19 4.61479e-19)
(0.003 -2.88186e-20 3.71253e-19)
(0.003 -3.85763e-20 1.15597e-19)
(0.003 -7.86022e-20 -2.4888e-20)
(0.003 -6.51599e-20 -3.34333e-19)
(0.003 -1.63611e-19 -5.36055e-19)
(0.003 -1.11226e-19 -4.23013e-19)
(0.003 -1.03692e-19 -3.08466e-19)
(0.003 -2.0475e-19 -3.40142e-19)
(0.003 -8.04954e-20 1.11605e-18)
(0.003 -2.60566e-19 1.79196e-18)
(0.003 -1.84756e-19 2.01398e-18)
(0.003 -1.39848e-19 1.97757e-18)
(0.003 1.91528e-20 2.01314e-18)
(0.003 3.98579e-20 1.97371e-18)
(0.003 -3.42871e-20 1.92843e-18)
(0.003 -4.05879e-21 1.89046e-18)
(0.003 2.59375e-20 1.7684e-18)
(0.003 6.69989e-20 1.56217e-18)
(0.003 1.45008e-19 1.58673e-18)
(0.003 1.49331e-19 1.61911e-18)
(0.003 3.41114e-20 1.5994e-18)
(0.003 1.59007e-19 1.40368e-18)
(0.003 2.68254e-19 1.26779e-18)
(0.003 1.52141e-19 1.18274e-18)
(0.003 1.24219e-19 1.01156e-18)
(0.003 1.5635e-19 8.89768e-19)
(0.003 1.68403e-19 8.56681e-19)
(0.003 8.54756e-20 8.06566e-19)
(0.003 1.0419e-19 9.33919e-19)
(0.003 9.6023e-20 1.0231e-18)
(0.003 2.02201e-20 1.01791e-18)
(0.003 -1.59197e-19 8.25503e-19)
(0.003 -1.42955e-19 6.73841e-19)
(0.003 -9.02443e-20 6.96693e-19)
(0.003 3.45975e-20 5.66468e-19)
(0.003 7.94005e-20 4.85213e-19)
(0.003 -4.62862e-22 5.29138e-19)
(0.003 2.77908e-20 4.09893e-19)
(0.003 -5.76465e-20 3.90695e-19)
(0.003 -6.67319e-20 4.22889e-19)
(0.003 -1.40963e-20 3.81022e-19)
(0.003 -1.17131e-19 1.60041e-19)
(0.003 -1.84781e-19 -5.22972e-20)
(0.003 -1.32593e-19 -3.68383e-19)
(0.003 -8.34018e-20 -3.73621e-19)
(0.003 -1.58975e-19 -2.03537e-19)
(0.003 -1.03547e-19 -2.80465e-19)
(0.003 -5.52795e-20 -3.55155e-19)
(0.003 -1.51233e-19 1.05907e-18)
(0.003 -1.24896e-19 1.70619e-18)
(0.003 -4.70784e-20 1.96318e-18)
(0.003 -1.27792e-19 1.98786e-18)
(0.003 -1.54706e-19 2.0432e-18)
(0.003 -1.28584e-20 2.01416e-18)
(0.003 -8.09711e-20 1.99275e-18)
(0.003 -1.68903e-19 1.99344e-18)
(0.003 3.84421e-20 1.85155e-18)
(0.003 2.56402e-19 1.63626e-18)
(0.003 1.38623e-19 1.58247e-18)
(0.003 6.273e-20 1.63276e-18)
(0.003 -4.64037e-20 1.55119e-18)
(0.003 6.93755e-20 1.47151e-18)
(0.003 2.53691e-19 1.28133e-18)
(0.003 1.99858e-19 1.12499e-18)
(0.003 1.07741e-19 9.75468e-19)
(0.003 -1.77464e-20 9.13234e-19)
(0.003 1.57905e-19 9.35859e-19)
(0.003 2.09132e-19 8.60003e-19)
(0.003 2.06677e-19 9.64694e-19)
(0.003 9.51245e-21 9.01689e-19)
(0.003 -1.45038e-19 9.17999e-19)
(0.003 -1.49449e-19 7.65826e-19)
(0.003 -7.93324e-20 6.82673e-19)
(0.003 -4.25945e-20 6.40377e-19)
(0.003 3.55347e-20 5.37882e-19)
(0.003 1.21104e-19 6.12466e-19)
(0.003 2.93983e-20 5.39087e-19)
(0.003 2.73642e-20 4.24471e-19)
(0.003 3.11598e-20 3.51351e-19)
(0.003 -6.73934e-20 3.48441e-19)
(0.003 -1.92052e-19 3.22263e-19)
(0.003 -2.64231e-19 2.5325e-19)
(0.003 -3.13101e-19 5.83704e-20)
(0.003 -1.98816e-19 -2.71644e-19)
(0.003 1.12883e-19 -3.5758e-19)
(0.003 7.57609e-20 -1.89021e-19)
(0.003 -1.19301e-19 -2.98877e-19)
(0.003 -9.76339e-20 -4.21517e-19)
(0.003 -1.86402e-19 9.87363e-19)
(0.003 -1.75969e-19 1.74154e-18)
(0.003 -1.25043e-19 2.0714e-18)
(0.003 6.19087e-21 2.03482e-18)
(0.003 -4.42755e-21 1.95751e-18)
(0.003 -1.00066e-19 2.02125e-18)
(0.003 -1.95173e-19 1.97032e-18)
(0.003 -2.13455e-19 1.90843e-18)
(0.003 -2.32054e-21 1.92535e-18)
(0.003 1.1217e-19 1.75769e-18)
(0.003 1.2783e-19 1.58879e-18)
(0.003 5.27804e-20 1.5801e-18)
(0.003 8.24011e-20 1.52819e-18)
(0.003 -1.80729e-20 1.42764e-18)
(0.003 8.30136e-20 1.3816e-18)
(0.003 1.36032e-19 1.23441e-18)
(0.003 1.03772e-19 1.03835e-18)
(0.003 1.75467e-19 8.29834e-19)
(0.003 2.55001e-19 8.5662e-19)
(0.003 2.88225e-19 8.7771e-19)
(0.003 7.40519e-20 9.76259e-19)
(0.003 -2.07268e-19 1.017e-18)
(0.003 -2.46686e-19 8.7817e-19)
(0.003 -9.00054e-20 6.91258e-19)
(0.003 -6.26278e-20 6.59868e-19)
(0.003 3.69287e-20 6.72144e-19)
(0.003 9.165e-20 6.5209e-19)
(0.003 -1.36375e-20 5.68316e-19)
(0.003 9.75187e-21 4.83314e-19)
(0.003 5.8314e-20 4.09742e-19)
(0.003 7.50973e-20 3.03064e-19)
(0.003 -1.3588e-19 2.95351e-19)
(0.003 -2.11897e-19 2.56963e-19)
(0.003 -1.00324e-19 1.94267e-19)
(0.003 -1.37957e-19 1.22001e-19)
(0.003 -1.24376e-19 1.24284e-20)
(0.003 -1.07926e-19 -1.65777e-19)
(0.003 -6.91148e-20 -1.83403e-19)
(0.003 5.58985e-20 -3.33319e-19)
(0.003 9.38327e-20 -3.83679e-19)
(0.003 -7.64903e-20 1.03762e-18)
(0.003 -1.22648e-19 1.68754e-18)
(0.003 -1.36028e-19 1.91785e-18)
(0.003 3.98206e-20 2.06189e-18)
(0.003 1.45903e-21 2.06326e-18)
(0.003 -2.38238e-19 2.00107e-18)
(0.003 -2.4876e-19 1.96198e-18)
(0.003 -1.82728e-19 1.98839e-18)
(0.003 5.02326e-20 1.93149e-18)
(0.003 7.58654e-20 1.76263e-18)
(0.003 6.23909e-22 1.60445e-18)
(0.003 6.22214e-20 1.57647e-18)
(0.003 1.20813e-19 1.52762e-18)
(0.003 8.98566e-20 1.42184e-18)
(0.003 -1.61136e-20 1.35901e-18)
(0.003 -8.91204e-21 1.2721e-18)
(0.003 4.85338e-20 1.13569e-18)
(0.003 1.75813e-19 9.42806e-19)
(0.003 3.05083e-19 8.87426e-19)
(0.003 1.66542e-19 9.03738e-19)
(0.003 -1.40309e-19 9.05274e-19)
(0.003 -1.76934e-19 8.27919e-19)
(0.003 -8.88539e-20 8.87545e-19)
(0.003 -1.21575e-20 8.07127e-19)
(0.003 -5.97406e-20 6.37804e-19)
(0.003 -8.25054e-20 6.28157e-19)
(0.003 1.31371e-19 6.55833e-19)
(0.003 1.46094e-19 5.60499e-19)
(0.003 3.16139e-20 4.25311e-19)
(0.003 -3.82513e-21 3.99426e-19)
(0.003 1.01879e-20 3.45623e-19)
(0.003 -9.24833e-20 1.94263e-19)
(0.003 -9.6301e-20 2.29185e-19)
(0.003 -3.40398e-21 3.07813e-19)
(0.003 5.52761e-21 1.5084e-19)
(0.003 -7.0552e-20 6.27881e-20)
(0.003 -2.81062e-20 -1.95628e-20)
(0.003 -8.87626e-21 -7.85411e-20)
(0.003 6.19409e-20 -2.66258e-19)
(0.003 1.33145e-19 -3.19389e-19)
(0.003 1.19478e-19 1.04404e-18)
(0.003 1.71945e-19 1.75048e-18)
(0.003 6.91222e-20 1.88315e-18)
(0.003 -8.95959e-20 1.95527e-18)
(0.003 -2.14423e-19 2.05049e-18)
(0.003 -1.80246e-19 1.93325e-18)
(0.003 -1.61279e-19 1.86695e-18)
(0.003 -1.78082e-19 1.93332e-18)
(0.003 -1.12897e-19 2.00809e-18)
(0.003 3.40546e-20 1.87946e-18)
(0.003 1.08462e-19 1.60868e-18)
(0.003 1.12947e-19 1.61509e-18)
(0.003 1.81905e-19 1.48349e-18)
(0.003 2.21946e-19 1.47757e-18)
(0.003 9.31448e-21 1.43658e-18)
(0.003 -1.64899e-19 1.29601e-18)
(0.003 -1.60274e-19 1.05871e-18)
(0.003 -1.33241e-19 8.63203e-19)
(0.003 7.62439e-21 9.60369e-19)
(0.003 2.12311e-20 8.61337e-19)
(0.003 -8.63194e-20 8.05616e-19)
(0.003 -1.28041e-20 8.89581e-19)
(0.003 -2.99013e-20 9.66489e-19)
(0.003 7.3736e-21 8.34245e-19)
(0.003 1.57655e-19 6.16617e-19)
(0.003 5.20416e-20 6.03921e-19)
(0.003 -2.48315e-21 7.23238e-19)
(0.003 6.68185e-20 6.44327e-19)
(0.003 7.30868e-20 4.61529e-19)
(0.003 -2.18146e-21 3.41059e-19)
(0.003 -5.259e-20 3.46395e-19)
(0.003 -6.11774e-20 1.99215e-19)
(0.003 -2.88898e-20 2.00919e-19)
(0.003 -1.18247e-21 2.50609e-19)
(0.003 8.38154e-20 1.8544e-19)
(0.003 1.09647e-19 1.69289e-19)
(0.003 5.54098e-20 4.7315e-20)
(0.003 2.43649e-20 -1.71207e-19)
(0.003 -6.35874e-20 -4.20629e-19)
(0.003 -6.35665e-20 -4.99983e-19)
(0.003 3.22975e-19 1.07583e-18)
(0.003 2.34899e-19 1.67025e-18)
(0.003 9.40591e-21 1.80993e-18)
(0.003 -9.46409e-20 1.9309e-18)
(0.003 -5.17066e-20 1.93095e-18)
(0.003 5.13708e-20 1.93729e-18)
(0.003 3.82499e-21 1.89477e-18)
(0.003 -2.15504e-19 1.83925e-18)
(0.003 -2.77667e-19 1.88845e-18)
(0.003 -7.62909e-20 1.95082e-18)
(0.003 1.84641e-19 1.82052e-18)
(0.003 1.69518e-19 1.73711e-18)
(0.003 1.33967e-19 1.56047e-18)
(0.003 1.70671e-19 1.50306e-18)
(0.003 -3.46263e-20 1.43467e-18)
(0.003 -1.36212e-19 1.23253e-18)
(0.003 -1.11158e-19 1.00597e-18)
(0.003 -1.30575e-19 8.37155e-19)
(0.003 -2.21883e-19 9.95908e-19)
(0.003 -1.38569e-19 9.53416e-19)
(0.003 -9.89759e-20 8.391e-19)
(0.003 -1.14563e-19 7.98858e-19)
(0.003 -2.49823e-20 9.01138e-19)
(0.003 2.84088e-20 8.34358e-19)
(0.003 1.89226e-19 8.19709e-19)
(0.003 1.94153e-19 7.04874e-19)
(0.003 -2.8237e-20 5.82552e-19)
(0.003 -2.20369e-20 5.75616e-19)
(0.003 4.16438e-20 5.09412e-19)
(0.003 -1.06746e-21 3.88296e-19)
(0.003 -2.25214e-20 3.39406e-19)
(0.003 -1.95502e-20 1.51989e-19)
(0.003 -6.28534e-20 1.32801e-19)
(0.003 2.30447e-20 2.19877e-19)
(0.003 1.92702e-19 2.16479e-19)
(0.003 2.04692e-19 2.01374e-19)
(0.003 1.95934e-20 2.90463e-20)
(0.003 -4.94188e-20 -2.42956e-19)
(0.003 -1.40775e-19 -4.62091e-19)
(0.003 -2.06739e-19 -4.50862e-19)
(0.003 2.42943e-19 1.07687e-18)
(0.003 2.14496e-19 1.66077e-18)
(0.003 -3.21364e-20 1.79788e-18)
(0.003 5.74353e-21 1.88632e-18)
(0.003 1.81924e-19 1.95578e-18)
(0.003 1.7638e-19 1.90188e-18)
(0.003 4.67431e-20 1.85363e-18)
(0.003 -1.09697e-19 1.75507e-18)
(0.003 -1.78388e-19 1.79608e-18)
(0.003 -2.06062e-19 1.98156e-18)
(0.003 -6.10746e-20 1.92119e-18)
(0.003 7.6687e-20 1.72854e-18)
(0.003 4.38485e-20 1.60547e-18)
(0.003 -1.53281e-19 1.57032e-18)
(0.003 -1.76831e-19 1.46089e-18)
(0.003 -7.18255e-20 1.29276e-18)
(0.003 -1.5218e-19 1.09575e-18)
(0.003 -1.76044e-19 8.71583e-19)
(0.003 -2.85608e-19 8.61486e-19)
(0.003 -1.67464e-19 8.94385e-19)
(0.003 -4.05582e-20 8.59422e-19)
(0.003 -2.40549e-20 8.34246e-19)
(0.003 1.11155e-19 9.33787e-19)
(0.003 1.08532e-19 8.03522e-19)
(0.003 8.69015e-20 7.62353e-19)
(0.003 1.82675e-19 7.30699e-19)
(0.003 6.42501e-20 6.65077e-19)
(0.003 3.33753e-20 6.37903e-19)
(0.003 -1.22519e-20 5.31828e-19)
(0.003 -7.14432e-20 2.99791e-19)
(0.003 -7.36452e-21 2.4726e-19)
(0.003 9.59859e-20 1.54265e-19)
(0.003 -4.46587e-21 4.86471e-20)
(0.003 5.0038e-20 1.8141e-19)
(0.003 2.90334e-19 3.8207e-19)
(0.003 1.98658e-19 2.03169e-19)
(0.003 8.99497e-20 -2.32987e-19)
(0.003 -5.39796e-20 -3.93028e-19)
(0.003 -3.49547e-20 -4.41538e-19)
(0.003 -1.03183e-20 -3.28106e-19)
(0.003 -1.26566e-19 1.0955e-18)
(0.003 -6.52921e-20 1.73588e-18)
(0.003 6.39613e-20 1.80696e-18)
(0.003 6.41636e-21 1.81589e-18)
(0.003 1.2146e-20 1.88518e-18)
(0.003 1.08332e-19 1.98599e-18)
(0.003 1.1474e-19 1.88468e-18)
(0.003 1.48752e-19 1.70827e-18)
(0.003 -6.67357e-20 1.75974e-18)
(0.003 -1.96339e-19 1.88046e-18)
(0.003 -1.47622e-19 1.91662e-18)
(0.003 -1.42611e-19 1.81009e-18)
(0.003 -2.2825e-19 1.67827e-18)
(0.003 -2.06985e-19 1.42701e-18)
(0.003 -1.28566e-19 1.30548e-18)
(0.003 -1.63108e-19 1.22218e-18)
(0.003 -2.08764e-19 1.07817e-18)
(0.003 -1.78682e-19 9.50186e-19)
(0.003 -1.68008e-19 9.33704e-19)
(0.003 -2.23987e-19 9.68577e-19)
(0.003 -1.60321e-19 8.85754e-19)
(0.003 6.1666e-20 8.39943e-19)
(0.003 1.93182e-19 9.30584e-19)
(0.003 1.84443e-19 8.62422e-19)
(0.003 1.47253e-19 8.53463e-19)