/*--------------------------------*- C++ -*----------------------------------*\
| =========                 |                                                 |
| \\      /  F ield         | OpenFOAM: The Open Source CFD Toolbox           |
|  \\    /   O peration     | Version:  v2012                                 |
|   \\  /    A nd           | Website:  www.openfoam.com                      |
|    \\/     M anipulation  |                                                 |
\*---------------------------------------------------------------------------*/
FoamFile
{
    version     2.0;
    format      ascii;
    class       volScalarField;
    location    "390/topAir";
    object      rho;
}
// * * * * * * * * * * * * * * * * * * * * * * * * * * * * * * * * * * * * * //

dimensions      [1 -3 0 0 0 0 0];


internalField   nonuniform List<scalar> 
1200
(
1.0741296
1.0062231
0.95177517
0.90650168
0.86761724
0.83346584
0.80310447
0.77618658
0.75277336
0.73244526
0.7149838
0.70035532
0.68888207
0.68772644
0.68975702
0.69504119
0.70285766
0.71196112
0.72109847
0.7293585
0.73624048
0.74153893
0.74520225
0.74723615
0.74766582
0.74650226
0.74366339
0.73881835
0.73112281
0.7195639
1.1566608
1.1529791
1.1479751
1.1418991
1.1349361
1.1272329
1.1189232
1.1096168
1.0970186
1.0805861
1.0581966
1.0289352
0.99337025
0.95700047
0.92351833
0.89545583
0.87341831
0.85710542
0.84598882
0.83939408
0.83628413
0.83534847
0.83531326
0.8351233
0.8339745
0.83117662
0.82589684
0.81677953
0.80138717
0.77788277
1.1585765
1.1584531
1.1582241
1.1578673
1.1573635
1.1566968
1.1558544
1.1548139
1.1534954
1.1518082
1.1495034
1.1426808
1.124629
1.093427
1.0537138
1.0109747
0.97098505
0.93643632
0.90836833
0.88687875
0.87137335
0.86073999
0.85365135
0.84882849
0.84517837
0.84178853
0.83780701
0.83216137
0.82293884
0.80746476
1.158618
1.1586139
1.1586041
1.1585848
1.1585514
1.1584982
1.1584184
1.1583038
1.158142
1.1579144
1.1575777
1.1568692
1.1546518
1.1426751
1.1106692
1.0677863
1.0258304
0.98780648
0.95482099
0.9274574
0.90577342
0.88924628
0.87694611
0.86782516
0.86091516
0.85538811
0.85050504
0.84545319
0.83892784
0.8288489
1.0741591
1.0069452
0.95363026
0.90981391
0.87271085
0.84070972
0.81290277
0.78878896
0.76818823
0.75115719
0.73797871
0.72909102
0.72520439
0.73547299
0.75045716
0.76811369
0.78507792
0.79872316
0.8082469
0.81430397
0.81800032
0.82011013
0.82093392
0.82044299
0.81852426
0.81506934
0.80983578
0.80204131
0.78969323
0.77178414
1.1566637
1.1530513
1.1482366
1.1425049
1.1360757
1.1291321
1.1218544
1.1144392
1.107112
1.1001505
1.0939199
1.0888718
1.0855404
1.084719
1.0857903
1.0866121
1.0846445
1.0792331
1.0714231
1.0625491
1.0532541
1.0435288
1.0331714
1.0219692
1.0098269
0.99674498
0.98281339
0.96828242
0.95289255
0.92773576
1.1585766
1.1584565
1.1582395
1.1579101
1.1574577
1.1568759
1.1561634
1.1553253
1.1543739
1.1533347
1.1522507
1.1511139
1.1499249
1.1486786
1.1453556
1.1367641
1.1196387
1.0962262
1.0713908
1.0493158
1.0305774
1.0128814
0.99593136
0.97937618
0.96325019
0.94698805
0.93035898
0.91336518
0.89581089
0.87711275
1.158618
1.1586141
1.1586049
1.1585875
1.1585584
1.1585136
1.158449
1.15836
1.1582419
1.1580896
1.1578952
1.1576259
1.1570809
1.1546962
1.1443997
1.1195752
1.0844212
1.0432548
1.0035487
0.96922324
0.9420954
0.92218087
0.90663056
0.89389009
0.88315807
0.87457995
0.86746637
0.86111318
0.85468473
0.84751335
1.074191
1.0068754
0.95343383
0.90947395
0.87219871
0.83998144
0.81184139
0.78714011
0.76551924
0.74686838
0.73132295
0.71932441
0.71196468
0.72011309
0.73368143
0.75021043
0.76718261
0.78338107
0.79823508
0.81145256
0.82287833
0.8322045
0.83889592
0.84248815
0.84288477
0.84039945
0.8354028
0.82770713
0.81505722
0.79110216
1.1566641
1.1530408
1.1482059
1.1424479
1.1359848
1.1289918
1.121628
1.114054
1.1064588
1.099093
1.0923116
1.0866682
1.0829984
1.0824352
1.0837623
1.0839795
1.0821442
1.0785955
1.0733849
1.0665715
1.0580997
1.0475919
1.0346176
1.0191802
1.0018235
0.98327248
0.96383433
0.94392392
0.92203244
0.89428418
1.1585766
1.1584561
1.1582379
1.157907
1.1574531
1.1568701
1.1561564
1.1553157
1.1543594
1.1533124
1.1522262
1.151196
1.1503526
1.1491912
1.1433583
1.1294727
1.1139475
1.1003626
1.0867507
1.0725514
1.0569327
1.0382576
1.0158317
0.99085897
0.96559626
0.94222649
0.92124691
0.90292437
0.88577416
0.86391338
1.158618
1.1586141
1.1586048
1.1585873
1.1585582
1.1585136
1.1584496
1.1583618
1.1582463
1.1580989
1.157916
1.1576832
1.1571822
1.1534032
1.1308265
1.0845754
1.0550749
1.0463788
1.0215053
0.99092374
0.96370484
0.94225427
0.92516796
0.91109945
0.8991673
0.88906091
0.88031286
0.8726451
0.86176464
0.84073621
1.07422
1.0068832
0.95336803
0.90928234
0.87180493
0.83926216
0.81060723
0.7851307
0.76235672
0.74199829
0.72400366
0.70869319
0.69716713
0.70056683
0.70465284
0.70609148
0.70465103
0.70204501
0.69987723
0.69919866
0.70052764
0.70364949
0.70776512
0.71214123
0.71641832
0.72009655
0.72100135
0.71530887
0.70492906
0.69055816
1.1566647
1.1530382
1.1481903
1.1424048
1.1358915
1.1288109
1.1212976
1.1134761
1.1054833
1.0975121
1.0898954
1.0832628
1.0786365
1.0766165
1.0739346
1.0693612
1.0637996
1.0578943
1.0517232
1.044947
1.0368439
1.0265319
1.0135038
0.99810904
0.98112678
0.96278479
0.94252395
0.92081005
0.87889106
0.81239983
1.1585766
1.1584559
1.1582369
1.157904
1.157446
1.1568554
1.1561281
1.1552638
1.1542688
1.1531628
1.1519973
1.1508914
1.1499107
1.1463526
1.1320702
1.1174328
1.1073517
1.0995722
1.0903902
1.0778529
1.0605433
1.0373988
1.0087844
0.97791291
0.94844796
0.92136112
0.89603824
0.87614134
0.8568172
0.82034829
1.158618
1.1586141
1.1586048
1.1585872
1.1585577
1.1585125
1.1584472
1.1583571
1.1582374
1.1580828
1.1578858
1.1575962
1.1563208
1.1414887
1.079832
1.0080326
1.0014057
1.0016598
1.0003479
0.9845984
0.96547152
0.94744712
0.9305235
0.91724113
0.90504823
0.8916238
0.87233457
0.8536383
0.83358464
0.8037216
1.0742502
1.0069215
0.95339871
0.90929642
0.87179401
0.8392161
0.81051499
0.78498826
0.7621691
0.74182517
0.72403727
0.70939332
0.69913076
0.70454851
0.70716039
0.70540487
0.70176478
0.69662518
0.69070313
0.68451754
0.67850213
0.67301972
0.66833436
0.66459603
0.66182971
0.65985411
0.65804002
0.6551367
0.64955817
0.63934015
1.1566654
1.1530384
1.1481865
1.1423922
1.1358638
1.12876
1.1212133
1.1133481
1.1053075
1.0973138
1.0897968
1.0835967
1.0797557
1.0764185
1.07118
1.0647754
1.0536952
1.0372421
1.0172951
0.99505227
0.97151589
0.94690112
0.92075033
0.89296823
0.86430241
0.83563712
0.80719338
0.77824924
0.74697583
0.70960626
1.1585766
1.1584559
1.1582366
1.1579028
1.157443
1.1568493
1.1561169
1.1552449
1.1542397
1.1531244
1.1519667
1.1509182
1.14956
1.1379202
1.1234219
1.1142897
1.1089281
1.1026381
1.0942102
1.0838812
1.0681179
1.0432166
1.0088649
0.97153398
0.93859037
0.91016896
0.88104812
0.84851813
0.809354
0.76090148
1.158618
1.1586141
1.1586048
1.1585871
1.1585575
1.1585119
1.1584459
1.1583546
1.1582325
1.1580734
1.1578639
1.1574474
1.1536955
1.0979381
0.99751378
0.9806709
0.97494214
0.96966634
0.96157367
0.95155474
0.94117863
0.9297333
0.91802171
0.90716986
0.8972972
0.88838019
0.87885838
0.8568588
0.82212418
0.77979861
1.0742689
1.0069531
0.95344091
0.90934969
0.87185772
0.83928789
0.81058733
0.7850446
0.76217594
0.74169706
0.72356676
0.70815205
0.69671611
0.70275254
0.70808568
0.70934362
0.70641604
0.70083729
0.69457985
0.68814691
0.68196284
0.67640817
0.67180958
0.66840576
0.66627328
0.66515976
0.66429623
0.66231228
0.65738103
0.64748797
1.1566659
1.1530397
1.148189
1.1423963
1.1358698
1.1287679
1.1212211
1.1133491
1.1052819
1.0972065
1.089463
1.0827246
1.078125
1.0763714
1.0726568
1.067218
1.0608774
1.0519481
1.0405166
1.0290938
1.0191102
1.0094721
0.99645869
0.97630218
0.9478041
0.91260539
0.8732331
0.83112875
0.78606289
0.73590477
1.1585766
1.1584559
1.1582367
1.157903
1.1574434
1.15685
1.1561179
1.155246
1.1542392
1.1531156
1.1519269
1.150801
1.14984
1.1462565
1.127579
1.1139845
1.1056997
1.100555
1.0948148
1.0851664
1.0688403
1.044112
1.0123489
0.97965833
0.9528337
0.93280986
0.91291028
0.88250143
0.84020653
0.78566915
1.158618
1.1586141
1.1586048
1.1585871
1.1585575
1.158512
1.1584461
1.158355
1.1582336
1.158076
1.157874
1.1575775
1.1563504
1.1423701
1.0350708
0.98788578
0.97727946
0.97114261
0.96556582
0.95985448
0.95076391
0.9383577
0.92529507
0.91241447
0.90021417
0.88942445
0.88230299
0.86828337
0.83422267
0.79200371
1.0742841
1.0069915
0.95350857
0.90944991
0.87199852
0.83947933
0.81084148
0.7853726
0.76257331
0.74212666
0.72390614
0.70808111
0.69558818
0.69805564
0.70266404
0.70602727
0.7067393
0.70569428
0.70458066
0.70450743
0.70607955
0.70944399
0.7143291
0.72024047
0.72656626
0.73212558
0.73460385
0.73051322
0.71830742
0.70294378
1.1566663
1.1530427
1.1481989
1.1424184
1.1359109
1.1288365
1.1213283
1.1135072
1.1055
1.097472
1.0896954
1.0826815
1.0773623
1.0750929
1.0736662
1.0704025
1.0656899
1.0604424
1.0549853
1.0492168
1.0427218
1.0348451
1.024793
1.0119909
0.99626649
0.97764085
0.95723777
0.93633747
0.90352305
0.8381295
1.1585766
1.158456
1.1582373
1.1579047
1.1574473
1.1568575
1.1561311
1.155268
1.1542732
1.1531626
1.1519767
1.1508118
1.1498283
1.1483634
1.1388675
1.1220471
1.1088801
1.0993782
1.0902302
1.079122
1.064038
1.0436072
1.0179226
0.9892931
0.95973338
0.92899171
0.90287887
0.88473013
0.86718053
0.83494926
1.158618
1.1586141
1.1586048
1.1585872
1.1585578
1.1585127
1.1584476
1.1583579
1.158239
1.1580858
1.1578927
1.1576407
1.1570558
1.1521206
1.1101302
1.0433979
1.0068321
1.0058514
1.00909
0.99791849
0.97677715
0.95415525
0.93679739
0.92142103
0.90650895
0.88838058
0.87065312
0.85516511
0.8351274
0.8093403
1.0743063
1.0070702
0.9536862
0.90977247
0.87253899
0.84036285
0.81226125
0.78758661
0.7659757
0.74729018
0.73160843
0.7192586
0.71114706
0.71810861
0.7306233
0.74740659
0.76575133
0.78356578
0.799694
0.81359377
0.82515283
0.8344047
0.84126726
0.84552554
0.84700231
0.84575989
0.84200761
0.83567044
0.82503663
0.80445704
1.156667
1.153049
1.1482214
1.1424725
1.1360202
1.1290396
1.1216887
1.1141244
1.1065269
1.0991252
1.0922366
1.0863368
1.0821558
1.0809476
1.0823777
1.0839447
1.0835533
1.0810402
1.0765333
1.0702396
1.0624008
1.0529719
1.0415965
1.0279362
1.0119512
0.99382982
0.97375641
0.95210786
0.92890597
0.90148401
1.1585767
1.1584563
1.1582385
1.1579082
1.1574552
1.1568737
1.156162
1.1553236
1.1543693
1.1533214
1.1522242
1.1511582
1.1502557
1.1494754
1.1463001
1.1361396
1.1210576
1.1065253
1.092269
1.0776562
1.0624905
1.0455291
1.025489
1.0024498
0.97763309
0.95284071
0.92944586
0.908067
0.88752425
0.86340351
1.158618
1.1586141
1.1586049
1.1585874
1.1585584
1.1585139
1.1584502
1.1583631
1.1582485
1.1581029
1.1579229
1.1577015
1.1573613
1.1558023
1.1432689
1.1094032
1.0732859
1.056332
1.0340346
1.0033301
0.97383215
0.94986169
0.93092696
0.91559415
0.90262627
0.89131936
0.88155564
0.87288753
0.86051219
0.83500995
1.0743226
1.0072205
0.95398502
0.91022825
0.87317473
0.84121849
0.81345424
0.78937916
0.76881128
0.75179146
0.7385738
0.72953591
0.7252802
0.73486992
0.7489242
0.7659068
0.78291885
0.79718838
0.80748878
0.8140998
0.81801141
0.8200885
0.82083764
0.82043238
0.81887453
0.81607307
0.81173545
0.80507042
0.79423845
0.77747976
1.1566677
1.1530628
1.1482584
1.1425394
1.1361251
1.1291985
1.1219393
1.1145432
1.1072302
1.1002683
1.0940009
1.0888408
1.0852609
1.084035
1.0847884
1.0858182
1.0847262
1.080348
1.0733651
1.0650572
1.0562804
1.0471762
1.0376275
1.0273843
1.0161553
1.0036983
0.98992728
0.97496289
0.95861557
0.93436614
1.1585767
1.1584569
1.1582403
1.1579117
1.1574607
1.1568809
1.1561714
1.1553373
1.154391
1.1533567
1.1522746
1.1511261
1.1498972
1.1486589
1.1458507
1.1386137
1.1237332
1.1016982
1.0771696
1.054238
1.0348966
1.0167695
0.99933197
0.98221437
0.9657732
0.94983001
0.93328158
0.91592227
0.89782724
0.87892589
1.158618
1.1586141
1.1586049
1.1585876
1.1585586
1.158514
1.1584499
1.1583617
1.1582451
1.1580951
1.1579045
1.1576418
1.1571225
1.1549483
1.1461519
1.1241828
1.0897293
1.0493722
1.0103755
0.97597
0.94773442
0.92676732
0.91064537
0.8976568
0.88666214
0.87730022
0.86965629
0.8629665
0.85640489
0.84942688
1.0743217
1.0065486
0.95219643
0.90699566
0.86817323
0.83407957
0.80377036
0.77688475
0.75350004
0.73319147
0.71573283
0.7010766
0.68952151
0.68823831
0.69002805
0.69504235
0.70270196
0.71182533
0.72112273
0.72959693
0.7366774
0.74213524
0.74594646
0.74817195
0.74888505
0.74811868
0.74578734
0.74155332
0.7346004
0.72384926
1.1566655
1.1529929
1.1480015
1.1419413
1.1349973
1.1273161
1.1190314
1.1097986
1.0972798
1.0809415
1.058634
1.0294924
0.9939264
0.95744751
0.92388578
0.89600642
0.87444379
0.85865753
0.84787697
0.84136233
0.83819055
0.83719579
0.83720751
0.83720011
0.83631782
0.83378815
0.82872793
0.81982376
0.80479393
0.7820595
1.1585766
1.1584535
1.1582251
1.1578693
1.1573673
1.1567032
1.1558645
1.1548302
1.1535206
1.1518453
1.1495485
1.1425631
1.1241975
1.0928634
1.0531069
1.0108205
0.97118733
0.93726283
0.90979715
0.88868839
0.87331803
0.86266632
0.85551783
0.85067043
0.84705734
0.84375596
0.83989346
0.83442378
0.82557746
0.81096031
1.158618
1.1586139
1.1586041
1.1585849
1.1585517
1.1584987
1.1584196
1.1583061
1.1581463
1.1579226
1.1575928
1.1568984
1.154742
1.1426206
1.11111
1.068796
1.0271064
0.98966084
0.95732402
0.93037
0.90876125
0.89207074
0.87951277
0.87014117
0.86303075
0.85736162
0.85239879
0.84735076
0.84101301
0.83154566
)
;

boundaryField
{
    maxY
    {
        type            calculated;
        value           nonuniform List<scalar> 
300
(
1.1586175
1.1586175
1.1586175
1.1586175
1.1586175
1.1586175
1.1586175
1.1586175
1.1586175
1.1586175
1.1586134
1.1586136
1.1586135
1.1586135
1.1586135
1.1586135
1.1586135
1.1586135
1.1586136
1.1586134
1.1586036
1.1586044
1.1586043
1.1586043
1.1586042
1.1586042
1.1586043
1.1586043
1.1586044
1.1586036
1.1585843
1.158587
1.1585868
1.1585866
1.1585865
1.1585866
1.1585867
1.1585869
1.1585871
1.1585844
1.1585509
1.1585578
1.1585577
1.1585572
1.1585569
1.158557
1.1585573
1.1585578
1.158558
1.1585511
1.1584977
1.1585131
1.1585131
1.158512
1.1585114
1.1585114
1.1585122
1.1585134
1.1585135
1.1584982
1.1584179
1.1584484
1.158449
1.1584466
1.1584454
1.1584456
1.1584471
1.1584497
1.1584493
1.1584191
1.1583033
1.1583594
1.1583613
1.1583566
1.1583541
1.1583545
1.1583574
1.1583625
1.1583611
1.1583055
1.1581415
1.1582414
1.1582457
1.1582369
1.158232
1.1582331
1.1582385
1.158248
1.1582445
1.1581458
1.1579139
1.1580891
1.1580984
1.1580822
1.1580729
1.1580754
1.1580853
1.1581024
1.1580946
1.157922
1.1575772
1.1578947
1.1579155
1.1578853
1.1578634
1.1578734
1.1578922
1.1579223
1.157904
1.1575923
1.1568687
1.1576254
1.1576827
1.1575957
1.1574469
1.157577
1.1576402
1.157701
1.1576413
1.1568979
1.1546513
1.1570803
1.1571816
1.1563203
1.153695
1.1563499
1.1570553
1.1573608
1.157122
1.1547415
1.1426746
1.1546957
1.1534027
1.1414882
1.0979376
1.1423696
1.1521201
1.1558018
1.1549478
1.1426201
1.1106687
1.1443992
1.130826
1.0798316
0.99751339
1.0350704
1.1101297
1.1432684
1.1461514
1.1111095
1.0677859
1.1195747
1.0845749
1.0080322
0.98067052
0.98788539
1.0433974
1.1094027
1.1241823
1.0687956
1.02583
1.0844207
1.0550745
1.0014053
0.97494177
0.97727908
1.0068317
1.0732855
1.0897289
1.027106
0.9878061
1.0432544
1.0463784
1.0016594
0.96966597
0.97114224
1.005851
1.0563315
1.0493717
0.98966045
0.95482063
1.0035483
1.0215048
1.0003475
0.96157331
0.96556546
1.0090896
1.0340342
1.0103751
0.95732366
0.92745706
0.96922287
0.99092335
0.98459802
0.95155439
0.95985411
0.9979181
1.0033297
0.97596963
0.93036966
0.9057731
0.94209505
0.96370448
0.96547116
0.94117828
0.95076356
0.97677678
0.97383178
0.94773407
0.90876093
0.88924597
0.92218054
0.94225392
0.94744677
0.92973297
0.93835735
0.95415489
0.94986133
0.92676698
0.89207043
0.87694581
0.90663024
0.92516763
0.93052316
0.91802138
0.92529474
0.93679705
0.93092662
0.91064504
0.87951247
0.86782487
0.89388978
0.91109912
0.9172408
0.90716954
0.91241415
0.92142069
0.91559382
0.89765649
0.87014087
0.86091487
0.88315776
0.89916699
0.90504791
0.89729688
0.90021385
0.90650863
0.90262595
0.88666183
0.86303045
0.85538782
0.87457965
0.8890606
0.89162349
0.88837988
0.88942414
0.88838027
0.89131905
0.87729992
0.85736133
0.85050476
0.86746607
0.88031256
0.87233427
0.87885807
0.88230268
0.87065282
0.88155533
0.86965599
0.85239851
0.84545291
0.86111289
0.87264481
0.85363801
0.85685851
0.86828307
0.85516482
0.87288723
0.86296621
0.84735048
0.83892756
0.85468444
0.86176435
0.83358437
0.82212392
0.8342224
0.83512712
0.8605119
0.8564046
0.84101274
0.82884863
0.84751307
0.84073593
0.80372134
0.77979837
0.79200346
0.80934004
0.83500968
0.84942659
0.83154539
)
;
    }
    minX
    {
        type            calculated;
        value           nonuniform List<scalar> 
40
(
1.1586222
1.1586212
1.1586201
1.1586191
1.1586222
1.1586212
1.1586201
1.1586191
1.1586222
1.1586212
1.1586201
1.1586191
1.1586222
1.1586212
1.1586201
1.1586191
1.1586222
1.1586212
1.1586201
1.1586191
1.1586222
1.1586212
1.1586201
1.1586191
1.1586222
1.1586212
1.1586201
1.1586191
1.1586222
1.1586212
1.1586201
1.1586191
1.1586222
1.1586212
1.1586201
1.1586191
1.1586222
1.1586212
1.1586201
1.1586191
)
;
    }
    maxX
    {
        type            calculated;
        value           nonuniform List<scalar> 
40
(
0.71943727
0.77770631
0.80733218
0.82876744
0.77155998
0.92766095
0.87702648
0.84745548
0.79083177
0.89466031
0.86454743
0.84159343
0.69059326
0.81277065
0.82112019
0.80508411
0.63942712
0.71038432
0.76188708
0.78137416
0.64729769
0.73442108
0.78429478
0.79175489
0.70268548
0.83726034
0.83439821
0.8099226
0.80441078
0.90113691
0.86312064
0.83511028
0.77739166
0.93412599
0.87870231
0.84931599
0.72374551
0.78187152
0.81080799
0.83143389
)
;
    }
    minZ
    {
        type            calculated;
        value           nonuniform List<scalar> 
120
(
1.0741296
1.1566608
1.1585765
1.158618
1.0062231
1.1529791
1.1584531
1.1586139
0.95177517
1.1479751
1.1582241
1.1586041
0.90650168
1.1418991
1.1578673
1.1585848
0.86761724
1.1349361
1.1573635
1.1585514
0.83346584
1.1272329
1.1566968
1.1584982
0.80310447
1.1189232
1.1558544
1.1584184
0.77618658
1.1096168
1.1548139
1.1583038
0.75277336
1.0970186
1.1534954
1.158142
0.73244526
1.0805861
1.1518082
1.1579144
0.7149838
1.0581966
1.1495034
1.1575777
0.70035532
1.0289352
1.1426808
1.1568692
0.68888207
0.99337025
1.124629
1.1546518
0.68772644
0.95700047
1.093427
1.1426751
0.68975702
0.92351833
1.0537138
1.1106692
0.69504119
0.89545583
1.0109747
1.0677863
0.70285766
0.87341831
0.97098505
1.0258304
0.71196112
0.85710542
0.93643632
0.98780648
0.72109847
0.84598882
0.90836833
0.95482099
0.7293585
0.83939408
0.88687875
0.9274574
0.73624048
0.83628413
0.87137335
0.90577342
0.74153893
0.83534847
0.86073999
0.88924628
0.74520225
0.83531326
0.85365135
0.87694611
0.74723615
0.8351233
0.84882849
0.86782516
0.74766582
0.8339745
0.84517837
0.86091516
0.74650226
0.83117662
0.84178853
0.85538811
0.74366339
0.82589684
0.83780701
0.85050504
0.73881835
0.81677953
0.83216137
0.84545319
0.73112281
0.80138717
0.82293884
0.83892784
0.7195639
0.77788277
0.80746476
0.8288489
)
;
    }
    maxZ
    {
        type            calculated;
        value           nonuniform List<scalar> 
120
(
1.0743217
1.1566655
1.1585766
1.158618
1.0065486
1.1529929
1.1584535
1.1586139
0.95219643
1.1480015
1.1582251
1.1586041
0.90699566
1.1419413
1.1578693
1.1585849
0.86817323
1.1349973
1.1573673
1.1585517
0.83407957
1.1273161
1.1567032
1.1584987
0.80377036
1.1190314
1.1558645
1.1584196
0.77688475
1.1097986
1.1548302
1.1583061
0.75350004
1.0972798
1.1535206
1.1581463
0.73319147
1.0809415
1.1518453
1.1579226
0.71573283
1.058634
1.1495485
1.1575928
0.7010766
1.0294924
1.1425631
1.1568984
0.68952151
0.9939264
1.1241975
1.154742
0.68823831
0.95744751
1.0928634
1.1426206
0.69002805
0.92388578
1.0531069
1.11111
0.69504235
0.89600642
1.0108205
1.068796
0.70270196
0.87444379
0.97118733
1.0271064
0.71182533
0.85865753
0.93726283
0.98966084
0.72112273
0.84787697
0.90979715
0.95732402
0.72959693
0.84136233
0.88868839
0.93037
0.7366774
0.83819055
0.87331803
0.90876125
0.74213524
0.83719579
0.86266632
0.89207074
0.74594646
0.83720751
0.85551783
0.87951277
0.74817195
0.83720011
0.85067043
0.87014117
0.74888505
0.83631782
0.84705734
0.86303075
0.74811868
0.83378815
0.84375596
0.85736162
0.74578734
0.82872793
0.83989346
0.85239879
0.74155332
0.81982376
0.83442378
0.84735076
0.7346004
0.80479393
0.82557746
0.84101301
0.72384926
0.7820595
0.81096031
0.83154566
)
;
    }
    topAir_to_rightSolid
    {
        type            calculated;
        value           nonuniform List<scalar> 
130
(
0.4638615
0.45898463
0.45401627
0.44920951
0.4447366
0.44070265
0.43716245
0.43413419
0.43161715
0.42961312
0.42811823
0.42712591
0.42662941
0.46751174
0.46173633
0.45600836
0.45061339
0.44571048
0.44137321
0.43762402
0.43445623
0.43185045
0.42978621
0.42825276
0.42723673
0.42672929
0.47499377
0.46711323
0.45973522
0.45314472
0.44741287
0.44251478
0.43839252
0.43497973
0.43221649
0.43005225
0.42845158
0.42739596
0.42686933
0.48664275
0.47461914
0.46449735
0.45617054
0.44934921
0.44376506
0.43920964
0.43552086
0.43258155
0.4303051
0.42862986
0.42753027
0.42698429
0.50118833
0.48205289
0.46859615
0.45857001
0.45082073
0.44470337
0.4398226
0.43592271
0.43284989
0.43048754
0.42875823
0.42762992
0.42707186
0.50144894
0.48231735
0.46884645
0.4587957
0.45101761
0.44487239
0.43996273
0.43603858
0.43294552
0.43056821
0.42882994
0.42769523
0.42713396
0.48738696
0.47535299
0.46519313
0.4568042
0.44990839
0.44424839
0.43961948
0.43586206
0.43286732
0.43055108
0.4288473
0.42773005
0.42717544
0.47608252
0.46816004
0.4607138
0.45403557
0.44820449
0.44320484
0.43899305
0.43550381
0.43267798
0.4304619
0.42882223
0.42774088
0.42720054
0.46882817
0.46298855
0.45717294
0.45167433
0.44666403
0.44221917
0.4383731
0.43511959
0.43244079
0.4303184
0.42874326
0.42769984
0.42717777
0.46529741
0.4603512
0.45528822
0.45036956
0.44578364
0.44164077
0.4379967
0.43487269
0.43227308
0.4302088
0.42867095
0.4276517
0.42714317
)
;
    }
    topAir_to_heater
    {
        type            calculated;
        value           nonuniform List<scalar> 
40
(
0.47608214
0.47469846
0.4720401
0.4683269
0.48224013
0.48058806
0.47739138
0.47289756
0.49569952
0.49346359
0.48904439
0.48267872
0.51932097
0.51625342
0.50980126
0.49973372
0.55821112
0.55497449
0.54673092
0.53087244
0.55843802
0.55520698
0.54696694
0.53111462
0.52010224
0.51703007
0.51056529
0.50048631
0.496868
0.49462504
0.49018971
0.48380116
0.48363172
0.48197795
0.47877427
0.47425776
0.4775809
0.47619962
0.4735413
0.46980905
)
;
    }
    topAir_to_leftSolid
    {
        type            calculated;
        value           nonuniform List<scalar> 
130
(
0.39510554
0.39512786
0.3951816
0.39526718
0.39536074
0.39545976
0.39556495
0.39567526
0.39578449
0.39588851
0.39598181
0.39606055
0.39610091
0.39514051
0.39516218
0.39521196
0.39529342
0.39538781
0.39549085
0.39560461
0.39572147
0.39583882
0.39595393
0.39606352
0.39615243
0.39619815
0.39521707
0.39523867
0.39528614
0.39535714
0.39544727
0.3955558
0.39568079
0.39581002
0.39594158
0.39607344
0.3962001
0.39630614
0.3963603
0.3953121
0.39533366
0.39537957
0.3954489
0.39554078
0.39565534
0.39579617
0.39594166
0.39609257
0.39624956
0.39640472
0.39652967
0.39659763
0.39540614
0.39543011
0.39548137
0.39555942
0.39566094
0.39578433
0.39592684
0.39608324
0.39624683
0.3964205
0.39658905
0.39672854
0.39682594
0.39546972
0.39549656
0.39555725
0.39565172
0.39576414
0.39589368
0.3960394
0.39619801
0.39636464
0.39654303
0.39671052
0.39684476
0.39693622
0.39553026
0.39555678
0.39561407
0.39570402
0.39583026
0.39597409
0.39612164
0.39627553
0.39643709
0.39661004
0.39676787
0.39688768
0.39695938
0.39560608
0.39562981
0.39568142
0.39576265
0.39587541
0.39601939
0.39617384
0.39632343
0.39647628
0.39662998
0.39676868
0.39687391
0.39693521
0.39569103
0.39571099
0.39575659
0.39583009
0.39593245
0.39606369
0.3962189
0.39636836
0.39651728
0.39665605
0.39678028
0.3968714
0.3969237
0.39575134
0.39576927
0.39581097
0.39587959
0.39597524
0.39609786
0.39624699
0.39640522
0.39654955
0.39667592
0.3967792
0.39685493
0.39689918
)
;
    }
}


// ************************************************************************* //
