/*--------------------------------*- C++ -*----------------------------------*\
| =========                 |                                                 |
| \\      /  F ield         | OpenFOAM: The Open Source CFD Toolbox           |
|  \\    /   O peration     | Version:  v2012                                 |
|   \\  /    A nd           | Website:  www.openfoam.com                      |
|    \\/     M anipulation  |                                                 |
\*---------------------------------------------------------------------------*/
FoamFile
{
    version     2.0;
    format      ascii;
    class       volVectorField;
    location    "390/topAir";
    object      U;
}
// * * * * * * * * * * * * * * * * * * * * * * * * * * * * * * * * * * * * * //

dimensions      [0 1 -1 0 0 0 0];


internalField   nonuniform List<vector> 
1200
(
(0.1042286 -0.00236516 0.00087400484)
(0.11726744 -0.0024709228 0.0013110787)
(0.12847753 -0.0022862246 0.0013932051)
(0.13720716 -0.0017713481 0.0012618139)
(0.14481686 -0.00098619464 0.00093212695)
(0.15191878 -9.5551237e-05 0.00036471238)
(0.15874845 0.00080883437 -0.00046782822)
(0.16557382 0.001652168 -0.0016972653)
(0.17256987 0.0025173079 -0.0035788251)
(0.18002846 0.0035749817 -0.0064110158)
(0.18813682 0.005132328 -0.010579518)
(0.19663092 0.0075595973 -0.016492688)
(0.20418354 0.011264925 -0.024428215)
(0.20935408 0.015782203 -0.03428893)
(0.21205631 0.020920388 -0.045386386)
(0.21275118 0.025953642 -0.056564358)
(0.21165541 0.030271202 -0.06662317)
(0.2089581 0.033573207 -0.074787337)
(0.20509657 0.035742115 -0.080816305)
(0.2008155 0.036757921 -0.084844287)
(0.19697408 0.036742516 -0.087169191)
(0.19423993 0.035958561 -0.088101127)
(0.19289833 0.034698205 -0.087893376)
(0.19285904 0.033214129 -0.086737309)
(0.19375818 0.031710377 -0.084762903)
(0.19499508 0.030410791 -0.081984046)
(0.19554683 0.029717052 -0.078190978)
(0.19345578 0.0305206 -0.072830603)
(0.18527463 0.034903039 -0.064911959)
(0.14141083 0.049186804 -0.052162445)
(0.098694912 -0.0037565774 0.00085081399)
(0.09844477 -0.0045805495 0.0012862903)
(0.098788268 -0.0046584772 0.0014723165)
(0.099549549 -0.0042263096 0.0015612437)
(0.10082286 -0.003468259 0.0015811373)
(0.10264158 -0.0026232049 0.001518466)
(0.10498312 -0.0018422065 0.0013508706)
(0.1079562 -0.001226448 0.0010268978)
(0.11204534 -0.00047122111 0.00042902832)
(0.11772464 0.00077481014 -0.00060534707)
(0.12587727 0.0032805425 -0.0023732103)
(0.13691881 0.0080743792 -0.0052514207)
(0.15063627 0.016045746 -0.0097380409)
(0.16539984 0.026358822 -0.016014631)
(0.17922046 0.038327903 -0.023696194)
(0.19041419 0.050550171 -0.031816106)
(0.19789584 0.06191773 -0.03937816)
(0.20135374 0.071631853 -0.045851503)
(0.20133227 0.079007193 -0.051099839)
(0.19907286 0.083597568 -0.055151803)
(0.1960374 0.085496502 -0.05804992)
(0.19332564 0.085315895 -0.059797399)
(0.19144412 0.083788252 -0.060429028)
(0.19044697 0.081530597 -0.060028245)
(0.19013474 0.078967705 -0.058669841)
(0.19013626 0.076473203 -0.056277916)
(0.18977111 0.074750596 -0.052443076)
(0.18770336 0.075441287 -0.046134152)
(0.18259454 0.082002699 -0.035115464)
(0.15234026 0.099547234 -0.01445385)
(0.098833278 -0.0028606164 0.00087742931)
(0.098018493 -0.0041458123 0.0013337504)
(0.096415315 -0.004550294 0.0015404672)
(0.094376377 -0.0046390562 0.0016671727)
(0.092363415 -0.0045987174 0.0017661216)
(0.090557764 -0.0045131127 0.0018491824)
(0.088951355 -0.0044789935 0.001932536)
(0.087472341 -0.0045727388 0.0020524143)
(0.086150687 -0.0046229183 0.0022748905)
(0.085259597 -0.0045333186 0.002644608)
(0.085302247 -0.0040701322 0.0030944847)
(0.088108825 -0.0019086568 0.0032627021)
(0.096882293 0.0048356668 0.0024994372)
(0.1115773 0.017652855 0.00051125727)
(0.12936069 0.03463502 -0.0025772722)
(0.14688477 0.052984664 -0.0058272447)
(0.16134106 0.069637437 -0.0084994735)
(0.17147524 0.083431435 -0.01046536)
(0.17741946 0.093919915 -0.012029218)
(0.1803382 0.10094666 -0.013565999)
(0.18171975 0.10462742 -0.015214718)
(0.18258236 0.1053871 -0.016707104)
(0.18326496 0.10388764 -0.017630871)
(0.18370582 0.10080233 -0.017786961)
(0.18366438 0.096686555 -0.017196885)
(0.18289207 0.092031204 -0.01578067)
(0.18116083 0.08760333 -0.01318515)
(0.17805509 0.085102911 -0.0085976906)
(0.17398368 0.088370399 -0.00066207554)
(0.15245784 0.10403554 0.01376181)
(0.096869323 -0.0015395174 0.00084300513)
(0.094675285 -0.002272564 0.0012610236)
(0.090988676 -0.0024969938 0.001428669)
(0.086459696 -0.0025305294 0.0015142475)
(0.081900361 -0.0024729407 0.0015735622)
(0.077554118 -0.0023537621 0.0016221451)
(0.073384998 -0.0022112738 0.0016820527)
(0.069298049 -0.0020862879 0.0017953632)
(0.065168115 -0.0020089031 0.0020340573)
(0.060788567 -0.0021271407 0.0025126051)
(0.055769892 -0.0028906248 0.0034148028)
(0.049687507 -0.0044414457 0.0051408579)
(0.041902041 -0.005107338 0.0083243208)
(0.036830557 0.00091621621 0.012927094)
(0.042459019 0.016122511 0.0182203)
(0.056792034 0.033667987 0.023858887)
(0.072856879 0.048521179 0.029491605)
(0.087511291 0.060371352 0.034822175)
(0.10011653 0.06946033 0.039356775)
(0.11110347 0.07586752 0.042551914)
(0.12100407 0.079593305 0.044483851)
(0.12996266 0.080716294 0.045425987)
(0.13773993 0.079622373 0.045639929)
(0.14391239 0.076820363 0.045411954)
(0.14813553 0.072816636 0.044986512)
(0.15034491 0.068129188 0.044615458)
(0.15084983 0.06347357 0.044601451)
(0.1505251 0.060188115 0.045240321)
(0.15339287 0.061326417 0.046426485)
(0.168555 0.073198969 0.047419881)
(0.10548949 -0.0023648138 0.0010123297)
(0.11938155 -0.0024794447 0.0014207929)
(0.13184068 -0.0023801222 0.0014315361)
(0.1419118 -0.0020438239 0.001216582)
(0.15067696 -0.0015370216 0.00079768849)
(0.15868784 -0.0010309606 0.00013526185)
(0.16597923 -0.00066289978 -0.00082257354)
(0.17247084 -0.00050533536 -0.0022258126)
(0.17813196 -0.00061885435 -0.0043174009)
(0.182948 -0.0010724834 -0.007370592)
(0.1868614 -0.0019866347 -0.011720516)
(0.18978062 -0.0034892134 -0.017657616)
(0.19120571 -0.0056894414 -0.025232927)
(0.1909076 -0.0091838752 -0.033921251)
(0.19035711 -0.01336574 -0.042634162)
(0.19082274 -0.017436937 -0.050158656)
(0.19219831 -0.020401201 -0.056012349)
(0.19352355 -0.021855142 -0.060408294)
(0.19399201 -0.022192444 -0.063664274)
(0.19348164 -0.022156971 -0.065939742)
(0.19248574 -0.022256419 -0.067308782)
(0.19168865 -0.022540063 -0.067817094)
(0.19156112 -0.022876242 -0.067490482)
(0.19224103 -0.023137013 -0.066372546)
(0.19366832 -0.023246919 -0.064526)
(0.19577191 -0.023073222 -0.061944625)
(0.1984723 -0.022188357 -0.058400688)
(0.20149435 -0.01929514 -0.053429429)
(0.20409524 -0.010708472 -0.046566051)
(0.1927109 0.013904025 -0.037201109)
(0.099986428 -0.0037664234 0.0010713201)
(0.1006796 -0.00462473 0.0016341941)
(0.10240925 -0.0048355426 0.0018515687)
(0.10473239 -0.0046523126 0.0019194635)
(0.10748159 -0.0042632636 0.0018814295)
(0.11060274 -0.0039085098 0.0017172121)
(0.11400832 -0.0037727945 0.0013863791)
(0.11761935 -0.0039708542 0.00081630898)
(0.12143276 -0.0046175633 -0.00010792213)
(0.1254085 -0.0058672891 -0.0015419584)
(0.12954659 -0.0079611838 -0.0036574761)
(0.13392635 -0.011135904 -0.006650228)
(0.13869138 -0.01563424 -0.010652859)
(0.14384528 -0.022077626 -0.015271381)
(0.14946763 -0.029365516 -0.019479162)
(0.15541034 -0.035473176 -0.022186449)
(0.16103742 -0.03826546 -0.023419717)
(0.16527463 -0.037328429 -0.024258964)
(0.16745807 -0.03398769 -0.025525874)
(0.16779056 -0.030189486 -0.02736311)
(0.16717882 -0.027244739 -0.029421493)
(0.16652925 -0.025262445 -0.031256181)
(0.16622295 -0.023881486 -0.032438429)
(0.16630333 -0.022813508 -0.032668925)
(0.16686112 -0.022114337 -0.031743403)
(0.16830177 -0.021932505 -0.029377612)
(0.17167091 -0.022209616 -0.025010804)
(0.17937113 -0.022043663 -0.017734855)
(0.19751006 -0.019163976 -0.0060958086)
(0.25612187 -0.0061973327 0.0077575523)
(0.10013478 -0.0028884564 0.0010918591)
(0.10027736 -0.0041981938 0.0016811612)
(0.10012027 -0.0046448832 0.00194508)
(0.099784118 -0.0048094214 0.002087619)
(0.099480048 -0.0048831013 0.0021697854)
(0.099322831 -0.0049504364 0.0021932926)
(0.099325482 -0.0050943226 0.0021553637)
(0.099467232 -0.0054068436 0.0020619293)
(0.099742521 -0.0060079089 0.0019335337)
(0.10015203 -0.0071163923 0.0017543324)
(0.10078248 -0.0090484325 0.0014005503)
(0.10183608 -0.012216943 0.00063086579)
(0.10355256 -0.017220543 -0.00058989421)
(0.10600423 -0.024745186 -0.0016779011)
(0.10932267 -0.033542598 -0.0012476245)
(0.11328387 -0.040669117 0.002965812)
(0.11866055 -0.04218923 0.011069641)
(0.12437549 -0.038452639 0.019546632)
(0.12897296 -0.032267788 0.02613802)
(0.13175424 -0.026879108 0.029841429)
(0.1329533 -0.023385989 0.031540969)
(0.13371917 -0.021068892 0.033072678)
(0.13533487 -0.020061843 0.034649834)
(0.13783482 -0.019932648 0.036651124)
(0.14108553 -0.020337531 0.039275586)
(0.14378566 -0.021183417 0.042041508)
(0.14641553 -0.022539063 0.044649105)
(0.15044093 -0.024327966 0.047495597)
(0.15922652 -0.026405698 0.052416724)
(0.18807568 -0.028050993 0.0611923)
(0.098114558 -0.0015664319 0.0010664759)
(0.096819697 -0.0023286704 0.0016366577)
(0.09450775 -0.0025857545 0.0018859917)
(0.091601787 -0.0026641646 0.0020109176)
(0.088669145 -0.0026669889 0.0020721874)
(0.085898353 -0.0026263538 0.0020752933)
(0.083287094 -0.0025827404 0.0020236787)
(0.080804522 -0.0025885412 0.00192948)
(0.078415604 -0.0027154692 0.0018232014)
(0.076042085 -0.0030923572 0.0017578197)
(0.073593855 -0.0039553211 0.0018138288)
(0.070926211 -0.0057252578 0.0021130113)
(0.06769576 -0.0089769464 0.0027082847)
(0.063605194 -0.01393432 0.0036995271)
(0.058943393 -0.018758567 0.0069394378)
(0.055312339 -0.018342663 0.017944646)
(0.05701565 -0.0098451431 0.041330161)
(0.060487142 0.0030067896 0.064195364)
(0.064675828 0.016021956 0.08187251)
(0.070213679 0.026552446 0.094219306)
(0.077829983 0.033634117 0.10186223)
(0.086685009 0.036547263 0.10526523)
(0.094872528 0.036467207 0.10630479)
(0.10167422 0.034289258 0.10576263)
(0.1067676 0.030803379 0.10394689)
(0.11050373 0.026058037 0.10039167)
(0.11337276 0.020647443 0.095165886)
(0.11619849 0.015127643 0.089168603)
(0.12229726 0.010429383 0.084467607)
(0.15083227 0.0082718409 0.080714427)
(0.10536242 -0.0023838299 0.00036297259)
(0.11905208 -0.0024965777 0.00059792158)
(0.13141916 -0.0023715467 0.00069642325)
(0.14151005 -0.0019875002 0.00070201516)
(0.15034455 -0.0014209699 0.00064071972)
(0.15839395 -0.00085370537 0.00051600358)
(0.16566935 -0.00039606345 0.00030112644)
(0.17215422 -7.625439e-05 -2.6386786e-05)
(0.17787055 8.268648e-05 -0.00048411633)
(0.18279672 3.7002008e-05 -0.0010959852)
(0.18687172 -0.00028183153 -0.0018818713)
(0.18999235 -0.00098958645 -0.0028286166)
(0.19157194 -0.0022771349 -0.0038277226)
(0.19128285 -0.0049820304 -0.0046554497)
(0.19063197 -0.0085266785 -0.0049164661)
(0.19055518 -0.012148575 -0.0046168192)
(0.190304 -0.015613157 -0.0045278922)
(0.18912148 -0.01908427 -0.0054319911)
(0.18703617 -0.022556459 -0.0074779833)
(0.18446825 -0.026010329 -0.010296642)
(0.18194905 -0.029428375 -0.013368027)
(0.17999475 -0.032648816 -0.016182914)
(0.17886079 -0.035382623 -0.018321013)
(0.17844117 -0.037417089 -0.019609581)
(0.1784881 -0.03872028 -0.02015404)
(0.17898218 -0.039441137 -0.020089977)
(0.18023553 -0.039686839 -0.019476408)
(0.18292618 -0.038725294 -0.019051128)
(0.18794273 -0.032501466 -0.021226464)
(0.18808446 -0.010244308 -0.026845679)
(0.099864062 -0.0037773866 0.00036690216)
(0.10032706 -0.0046231586 0.00063212833)
(0.10193386 -0.0047923575 0.00076460989)
(0.10425203 -0.0045404904 0.00080132317)
(0.10703206 -0.0040652799 0.00075694495)
(0.11015887 -0.003612806 0.00061645839)
(0.11351181 -0.0033262788 0.00034817407)
(0.11699834 -0.003257437 -8.8482735e-05)
(0.1205619 -0.0034768989 -0.00075020648)
(0.12417632 -0.0041080508 -0.0017214856)
(0.12785974 -0.0053335317 -0.0030825031)
(0.13170319 -0.0074902073 -0.004886566)
(0.13594266 -0.011116443 -0.0070616117)
(0.14065002 -0.01721478 -0.0092514815)
(0.14557409 -0.024057514 -0.011048861)
(0.14990725 -0.028900432 -0.013039456)
(0.15216311 -0.031752383 -0.016593371)
(0.15206062 -0.033888574 -0.021779987)
(0.15043197 -0.035526515 -0.027858876)
(0.14794753 -0.036904386 -0.033998506)
(0.14506868 -0.038374322 -0.039443717)
(0.14220607 -0.039971339 -0.043631428)
(0.13956202 -0.041332171 -0.04620194)
(0.13705183 -0.042161612 -0.047176255)
(0.13453483 -0.042553552 -0.046808229)
(0.13239211 -0.043220471 -0.044874484)
(0.13166302 -0.044945942 -0.041169943)
(0.13642171 -0.046650832 -0.037566357)
(0.15422993 -0.041862246 -0.042119756)
(0.20644106 -0.019473995 -0.060501666)
(0.10001688 -0.002883 0.00037234093)
(0.099941048 -0.004185911 0.00064487317)
(0.099670185 -0.0046120411 0.00079392778)
(0.099342076 -0.0047438866 0.00085383305)
(0.099097648 -0.0047722662 0.00083747073)
(0.099003931 -0.0047745912 0.00072969384)
(0.099047767 -0.0048167376 0.00049987441)
(0.099184689 -0.0049683969 0.00010296104)
(0.099375457 -0.0053333185 -0.00053386055)
(0.099616487 -0.006080052 -0.0015073279)
(0.099876303 -0.0074972024 -0.002922785)
(0.10012489 -0.010145396 -0.004945979)
(0.10051618 -0.014991736 -0.0076551065)
(0.10122632 -0.023023936 -0.010747028)
(0.10155534 -0.031443577 -0.013559948)
(0.10078964 -0.034576811 -0.01619836)
(0.097252274 -0.033814409 -0.02019757)
(0.092634565 -0.032910355 -0.023434192)
(0.088410904 -0.032178382 -0.027092143)
(0.084090423 -0.032298154 -0.032114575)
(0.079038292 -0.033693377 -0.037024042)
(0.073523964 -0.036012577 -0.040106753)
(0.068308683 -0.038397859 -0.040650833)
(0.06402526 -0.040377947 -0.038856996)
(0.06081693 -0.042345238 -0.034843548)
(0.060726954 -0.04528056 -0.02685664)
(0.063542051 -0.050337746 -0.016105819)
(0.073241372 -0.05662452 -0.0076243708)
(0.091256831 -0.058924665 -0.017561712)
(0.13985502 -0.048712456 -0.053606731)
(0.097999226 -0.0015612722 0.00036296032)
(0.096489794 -0.0023180791 0.000623801)
(0.094066463 -0.0025666526 0.00076260858)
(0.0911687 -0.0026344073 0.00081346706)
(0.088295392 -0.0026236644 0.00078959772)
(0.085586644 -0.0025640885 0.00067638039)
(0.083012087 -0.0024922849 0.00044277186)
(0.080518059 -0.0024543081 4.0042219e-05)
(0.07804144 -0.0025080392 -0.00061356404)
(0.075507161 -0.0027544645 -0.0016344148)
(0.07271271 -0.00340617 -0.0031946448)
(0.069236614 -0.0049381125 -0.0056887675)
(0.064367917 -0.0084779674 -0.0099193337)
(0.056733074 -0.01584743 -0.017131534)
(0.043899611 -0.023127422 -0.02732141)
(0.028170341 -0.019615435 -0.034248601)
(0.01742332 -0.013571441 -0.028066033)
(0.024191868 -0.0097524163 0.0057571113)
(0.027203433 -0.0004651444 0.0406951)
(0.03156698 0.0087454764 0.062689056)
(0.038322794 0.015260993 0.074976618)
(0.045948713 0.018338139 0.08083091)
(0.052941141 0.018612986 0.082795706)
(0.05848063 0.016711212 0.082093153)
(0.061807503 0.012886597 0.079236392)
(0.062041252 0.0066912191 0.073937008)
(0.060468232 -0.0023551681 0.065853572)
(0.063603644 -0.013364259 0.054320612)
(0.063111418 -0.020389993 0.021009155)
(0.099334644 -0.0078268467 -0.044975715)
(0.10533118 -0.0023848481 0.00019682259)
(0.11893879 -0.0024935289 0.00035518549)
(0.13121748 -0.0023555131 0.00045165682)
(0.14124114 -0.0019438037 0.00048883508)
(0.15003648 -0.0013255887 0.00047386355)
(0.15808549 -0.00067000991 0.00040853162)
(0.16543817 -7.1936873e-05 0.0002923657)
(0.17209285 0.00044889817 0.00013344214)
(0.17809984 0.00089344605 -7.2985789e-05)
(0.18354546 0.0012655403 -0.00032322447)
(0.18853498 0.0015426571 -0.00058008847)
(0.1932213 0.0016550058 -0.00072105665)
(0.19734526 0.0014674739 -0.00041906379)
(0.20097371 0.00044350754 0.00087341513)
(0.20560973 0.00022260112 0.0036144167)
(0.21110149 0.0012221433 0.0074009166)
(0.21591034 0.002375153 0.011618993)
(0.21924506 0.0029424551 0.016007904)
(0.22139881 0.0027388666 0.020536731)
(0.22287473 0.0017545547 0.025196522)
(0.22407568 0.00013108994 0.029948601)
(0.22529097 -0.0018323396 0.034776719)
(0.22648642 -0.0037955593 0.039711848)
(0.22725183 -0.0056574115 0.044618685)
(0.22720681 -0.0074913609 0.048991612)
(0.22638653 -0.0089918687 0.052034355)
(0.2249438 -0.0086690157 0.052968808)
(0.22183529 -0.0044739565 0.051067876)
(0.20987483 0.0066123422 0.041552565)
(0.13872879 0.037042059 0.018834885)
(0.099834649 -0.0037783698 0.00020474042)
(0.10020017 -0.004618486 0.00038548456)
(0.10168055 -0.004768115 0.0005043957)
(0.10387926 -0.0044746682 0.00055714182)
(0.1065468 -0.0039233917 0.00054661096)
(0.1095574 -0.0033428787 0.00046728064)
(0.11278773 -0.0028538232 0.00030454506)
(0.1161283 -0.0024911504 3.7293409e-05)
(0.11953655 -0.0022861351 -0.00036774419)
(0.12303841 -0.0023120429 -0.00094474179)
(0.12674752 -0.0027582792 -0.0017041571)
(0.130974 -0.0040248188 -0.0025515134)
(0.13634175 -0.006739926 -0.0031097209)
(0.14330215 -0.011078963 -0.0025978199)
(0.15157361 -0.012275994 -0.00099102707)
(0.15936573 -0.0093314227 0.00025889117)
(0.16454815 -0.0062232051 0.00011076571)
(0.16728439 -0.0048958547 -0.0015108983)
(0.16830874 -0.0055731766 -0.0043788212)
(0.16812243 -0.0076419765 -0.0081705725)
(0.16720753 -0.010428722 -0.012384552)
(0.16600325 -0.013194253 -0.016250452)
(0.16465904 -0.015181935 -0.018879391)
(0.16271326 -0.016279872 -0.019831074)
(0.15966748 -0.01710636 -0.019349374)
(0.15576832 -0.018293029 -0.01817483)
(0.15378548 -0.016896478 -0.019666452)
(0.15817174 -0.0058784342 -0.027157212)
(0.16966307 0.019171027 -0.038808243)
(0.16273375 0.061957286 -0.05547299)
(0.099988665 -0.0028801601 0.00020640855)
(0.099818811 -0.004180009 0.00038843309)
(0.09942056 -0.0045971844 0.00051253632)
(0.098963699 -0.004710842 0.00057214228)
(0.098588461 -0.0047078044 0.00056666522)
(0.098347588 -0.0046577467 0.00048608504)
(0.098215266 -0.0046149766 0.00030859169)
(0.098121406 -0.0046358273 5.7828493e-07)
(0.098007581 -0.004804127 -0.00048548954)
(0.097832841 -0.005293869 -0.0012262438)
(0.09757525 -0.0064828684 -0.0023304581)
(0.097390716 -0.0091891626 -0.0038270005)
(0.097905509 -0.014916339 -0.0053942411)
(0.099272437 -0.023525346 -0.0057211856)
(0.10122439 -0.026072111 -0.0040607424)
(0.10437442 -0.020529981 -0.0016439241)
(0.10084067 -0.01516256 -0.0020687047)
(0.093846558 -0.011862578 -0.0055760917)
(0.085002037 -0.012072876 -0.011395024)
(0.076142012 -0.015066827 -0.018181018)
(0.067361809 -0.019480093 -0.024189115)
(0.058432626 -0.024036922 -0.027468639)
(0.049958346 -0.02740586 -0.026941815)
(0.042526802 -0.029651615 -0.022737331)
(0.035725841 -0.032371943 -0.015867626)
(0.03066304 -0.038181324 -0.0085859934)
(0.030234016 -0.041030005 -0.017255776)
(0.043931168 -0.02781149 -0.039959338)
(0.076653883 0.0024528956 -0.062670557)
(0.095403142 0.047999978 -0.087762675)
(0.097971494 -0.0015628638 0.0002009702)
(0.096370439 -0.0023217376 0.00037537328)
(0.09382252 -0.0025700547 0.00049152655)
(0.090797179 -0.0026339666 0.00054280407)
(0.087792321 -0.0026144837 0.00052791977)
(0.084930989 -0.0025386152 0.00043541347)
(0.082160776 -0.0024393202 0.00023945463)
(0.079380156 -0.0023604422 -0.00010355498)
(0.076468754 -0.0023644176 -0.00066985495)
(0.073222245 -0.0025742804 -0.0016053911)
(0.069205881 -0.003286974 -0.0032037602)
(0.063522563 -0.0053111016 -0.0059878156)
(0.054653586 -0.010847306 -0.011005114)
(0.039017089 -0.020834169 -0.019136913)
(0.01248208 -0.018954623 -0.028206011)
(-0.015769346 0.0013836265 -0.026763923)
(-0.030579343 0.0041689287 -0.019971441)
(-0.038451019 0.0030288196 -0.0094127687)
(-0.029481069 5.0715986e-05 0.0099375431)
(-0.021551531 0.0005497844 0.026968439)
(-0.01192333 0.0014086054 0.036898351)
(-0.0031853993 0.0011774058 0.041623154)
(0.0037918991 -0.00037409533 0.04318972)
(0.0073021231 -0.0034649266 0.042524986)
(0.0073672424 -0.0082432561 0.04069202)
(0.0018778378 -0.017428506 0.034773789)
(-0.021645044 -0.027671448 0.00024101576)
(-0.037160583 -0.011729564 -0.04782709)
(-0.02961154 0.019251764 -0.081720994)
(0.035660598 0.059067999 -0.11535872)
(0.10531266 -0.0023879913 5.506593e-05)
(0.11887524 -0.002499711 9.8783274e-05)
(0.13110152 -0.0023637923 0.00012317624)
(0.14107783 -0.0019526856 0.00012861592)
(0.14983216 -0.0013328809 0.00011795712)
(0.15784056 -0.00067423431 9.2971466e-05)
(0.16514419 -7.3851821e-05 5.3485095e-05)
(0.17173994 0.00044454408 -2.7461803e-06)
(0.17767661 0.00088008945 -7.5060833e-05)
(0.18303253 0.0012144808 -0.00016765614)
(0.18794414 0.0013909276 -0.00028580011)
(0.19270944 0.0012921917 -0.00042922061)
(0.19735059 0.00085226716 -0.00058337223)
(0.20228768 0.00019821014 -0.00075019702)
(0.20857185 0.00090114924 -0.00077212664)
(0.21530015 0.0021686627 -0.00065906795)
(0.22103748 0.00354601 -0.00054292654)
(0.22582834 0.0052393635 -0.00039748322)
(0.2303011 0.0073734445 -0.00013824242)
(0.235002 0.0098808723 0.0003011068)
(0.24035815 0.012602834 0.0010389792)
(0.24649705 0.015508957 0.0022774279)
(0.25288808 0.018761528 0.0043190882)
(0.25832841 0.022367965 0.0074849926)
(0.26138469 0.026113151 0.011855379)
(0.26057471 0.030031977 0.016893022)
(0.25383948 0.034822587 0.021264144)
(0.23766691 0.041931409 0.023067232)
(0.20792967 0.053527128 0.019603072)
(0.10262003 0.079647356 0.0091545733)
(0.099817239 -0.0037814949 6.0681865e-05)
(0.10013152 -0.0046243779 0.00011633909)
(0.10154346 -0.0047744916 0.00015449871)
(0.10367372 -0.0044782494 0.00017307734)
(0.10627328 -0.0039202063 0.00017351135)
(0.10920596 -0.0033301009 0.00015528202)
(0.11233629 -0.0028319488 0.00011490898)
(0.11555716 -0.002467714 4.5494404e-05)
(0.11881364 -0.002277714 -5.7017846e-05)
(0.12212915 -0.0023850292 -0.00020866098)
(0.12570159 -0.0030805128 -0.00042540318)
(0.13011701 -0.0049333544 -0.0007152175)
(0.13643616 -0.0084230291 -0.0010622879)
(0.14502674 -0.010379011 -0.0013436488)
(0.15463668 -0.0070130681 -0.0012453791)
(0.1624495 -0.0026638282 -0.0013546022)
(0.16898463 0.00074366637 -0.0018088918)
(0.17523362 0.003391926 -0.0025159972)
(0.18126225 0.0057100741 -0.0033894176)
(0.18766676 0.0077858832 -0.0044660372)
(0.19506815 0.010035454 -0.0057001533)
(0.20397313 0.013510514 -0.0067763385)
(0.21402979 0.019378365 -0.007138055)
(0.22391269 0.027774396 -0.0061700928)
(0.23225124 0.037957915 -0.003685004)
(0.23774843 0.049290507 -0.00035785853)
(0.2379107 0.062336231 0.0023879964)
(0.22792002 0.078650433 0.0025120619)
(0.20553258 0.099857899 -0.0019335218)
(0.12292559 0.13242575 -0.013551919)
(0.099971222 -0.0028801629 6.1037552e-05)
(0.099750425 -0.0041807772 0.00011680315)
(0.099281422 -0.0045971817 0.00015637914)
(0.098748452 -0.0047077511 0.00017721577)
(0.098290346 -0.0046996253 0.00017978168)
(0.097946145 -0.0046434116 0.00016234957)
(0.09767156 -0.0045959008 0.0001203379)
(0.0973868 -0.004619248 4.4435452e-05)
(0.096990564 -0.0048204903 -7.4090452e-05)
(0.096375301 -0.0054389317 -0.00026028428)
(0.095526322 -0.007037317 -0.00054895422)
(0.094907886 -0.010894417 -0.00098896247)
(0.095865553 -0.019123086 -0.0016879576)
(0.097455566 -0.024118582 -0.0029880739)
(0.10421998 -0.018094666 -0.0025440264)
(0.1051606 -0.011795794 -0.0024468598)
(0.10283456 -0.0061447717 -0.002813206)
(0.097426228 -0.0010466196 -0.003629075)
(0.091567899 0.0022322116 -0.0052468743)
(0.085398244 0.0025948929 -0.008036501)
(0.076291491 -4.0993668e-05 -0.011245395)
(0.065076651 -0.0035940459 -0.013595718)
(0.058473828 -0.0042940526 -0.013880709)
(0.064216384 0.00025316131 -0.011353071)
(0.081364882 0.0094223873 -0.0065838635)
(0.10854703 0.024275023 -0.0018169241)
(0.13003731 0.043063674 0.00041708517)
(0.14026202 0.065976817 -0.0033894259)
(0.13811699 0.095701561 -0.012953721)
(0.087422495 0.13718075 -0.02755057)
(0.097954124 -0.0015626618 5.9352259e-05)
(0.096302509 -0.0023213928 0.00011253002)
(0.093683634 -0.0025688402 0.00014917465)
(0.090579571 -0.0026310286 0.00016668383)
(0.087485217 -0.0026092931 0.0001651946)
(0.084506048 -0.0025311662 0.00014256898)
(0.081564276 -0.0024313006 9.4227672e-05)
(0.078528236 -0.0023569179 9.1315881e-06)
(0.07518124 -0.0023862503 -0.00012496855)
(0.071108569 -0.0026901097 -0.00034187908)
(0.065471508 -0.0037352346 -0.00070033491)
(0.056454078 -0.0069526076 -0.001324389)
(0.042078717 -0.016102831 -0.0026891783)
(0.0093731975 -0.020526523 -0.0087074924)
(-0.033882041 0.0035476775 -0.013850162)
(-0.05134366 0.007416033 -0.009648545)
(-0.067117689 0.0079352989 -0.0058396501)
(-0.075761519 0.0056872823 -0.00060728235)
(-0.079191182 0.0015836366 0.0051913614)
(-0.076368998 -0.0028278828 0.010953492)
(-0.068360414 -0.006989878 0.014391444)
(-0.060095511 -0.011138727 0.016083945)
(-0.052918553 -0.015583205 0.017210811)
(-0.046413811 -0.019570493 0.018303607)
(-0.039136355 -0.020800397 0.019130803)
(-0.030801057 -0.014883642 0.017496717)
(-0.01523236 0.010181849 0.0066422827)
(0.004255879 0.046027751 -0.0057148409)
(0.018143214 0.079956177 -0.026212347)
(0.039945455 0.12040235 -0.044890487)
(0.10531125 -0.0023872477 -5.2448635e-05)
(0.11887155 -0.0024986204 -9.0842389e-05)
(0.13109681 -0.0023623919 -0.00010784643)
(0.14107403 -0.0019511773 -0.00010363118)
(0.1498324 -0.001331362 -8.0377925e-05)
(0.1578506 -0.00067229649 -3.8254913e-05)
(0.16517404 -6.936578e-05 2.592657e-05)
(0.17180349 0.00045621567 0.00011858144)
(0.17778889 0.00090602143 0.00024462636)
(0.18320807 0.0012763584 0.00040949883)
(0.18817181 0.001536609 0.00060450889)
(0.19285388 0.0016035759 0.00076661795)
(0.19695234 0.0013237139 0.00068665258)
(0.20064905 9.6339024e-05 -1.5422116e-05)
(0.20575146 9.785571e-05 -0.0015302682)
(0.21173752 0.0011615237 -0.0033683737)
(0.21710358 0.0023683116 -0.0050933533)
(0.22126767 0.0034724005 -0.0067843019)
(0.22462771 0.0046039415 -0.0087855865)
(0.22799737 0.005627977 -0.01138891)
(0.23217283 0.0063599395 -0.014785962)
(0.23770854 0.0069522014 -0.019120721)
(0.24449444 0.0078969614 -0.024438274)
(0.25150311 0.0096787396 -0.030517496)
(0.25702553 0.012357962 -0.036774844)
(0.25910193 0.015792874 -0.042240001)
(0.25539886 0.020677902 -0.04550401)
(0.24257055 0.02827873 -0.044668714)
(0.21675301 0.041240373 -0.037031938)
(0.12096289 0.069541354 -0.020372838)
(0.099817489 -0.0037803893 -4.5953156e-05)
(0.10013272 -0.0046226011 -7.6640604e-05)
(0.10154679 -0.0047719959 -8.0348574e-05)
(0.10368141 -0.0044749813 -5.4798955e-05)
(0.10628942 -0.0039156326 -2.4474931e-07)
(0.10923843 -0.0033221979 8.5900526e-05)
(0.11239718 -0.0028142166 0.00021002882)
(0.11565825 -0.0024269322 0.00038240593)
(0.11896766 -0.0021891889 0.00061459542)
(0.12233969 -0.0021827604 0.00091652401)
(0.1259058 -0.0026147165 0.0012700996)
(0.13003398 -0.0039284238 0.0015652565)
(0.13554143 -0.0068361592 0.0014587175)
(0.14289544 -0.01151354 0.0003442333)
(0.15191888 -0.010766356 -0.0016151224)
(0.15973689 -0.0068386881 -0.0028171005)
(0.16520881 -0.0031993174 -0.0028034393)
(0.16930509 -0.0010227244 -0.0021390202)
(0.17281453 -0.00041418927 -0.0013080407)
(0.17557302 -0.00097216581 -0.00030824074)
(0.17762354 -0.0022119628 0.00098004363)
(0.17963789 -0.0034692002 0.0023074184)
(0.18281821 -0.0035675759 0.0028417928)
(0.18873304 -0.0010497618 0.0018218515)
(0.19923046 0.0056591875 -0.00075466504)
(0.21149223 0.017221824 -0.0038837471)
(0.21894139 0.032462768 -0.0058601813)
(0.21740794 0.051736393 -0.0046446727)
(0.20496521 0.077547233 0.0025897675)
(0.14193542 0.11581163 0.018586867)
(0.099971536 -0.0028796285 -4.4874753e-05)
(0.099752125 -0.0041797495 -7.399557e-05)
(0.099286391 -0.0045954725 -7.5686134e-05)
(0.098760038 -0.0047048786 -4.5880742e-05)
(0.09831507 -0.0046944462 1.7865195e-05)
(0.097997665 -0.0046329746 0.000121862)
(0.0977724 -0.0045718568 0.000277594)
(0.097565419 -0.004565621 0.00050586682)
(0.09729915 -0.0046985779 0.00083561214)
(0.096901799 -0.0051479182 0.0013133315)
(0.096339976 -0.0063161347 0.0019874701)
(0.095799331 -0.0091049682 0.002846543)
(0.096192613 -0.015298094 0.0035955484)
(0.097112388 -0.025919827 0.0033057424)
(0.10043431 -0.023683721 0.00029662002)
(0.1024674 -0.017152787 -0.0015264433)
(0.099633564 -0.011073436 2.9235926e-05)
(0.094607947 -0.0061380951 0.0032974475)
(0.08759284 -0.0035250743 0.0074439902)
(0.078692429 -0.0046696822 0.012737488)
(0.067960082 -0.0091694719 0.018278985)
(0.055975106 -0.015068271 0.021768928)
(0.044723975 -0.019981122 0.021069585)
(0.03832673 -0.022684023 0.016547349)
(0.04069183 -0.021701815 0.01172837)
(0.061517503 -0.011745179 0.011107959)
(0.096844773 0.0089303916 0.014071668)
(0.11684428 0.035596095 0.018996999)
(0.12624963 0.070248329 0.029606121)
(0.098731501 0.11538931 0.045618574)
(0.097954439 -0.0015624748 -4.338439e-05)
(0.09630431 -0.0023209869 -7.0559968e-05)
(0.093689134 -0.0025681168 -6.9965819e-05)
(0.090592881 -0.0026297852 -3.6855447e-05)
(0.087514887 -0.0026071022 3.2580293e-05)
(0.084571779 -0.0025267509 0.0001471526)
(0.081699003 -0.0024202789 0.00032274628)
(0.078785127 -0.0023311291 0.00059173691)
(0.075679846 -0.0023216497 0.0010114403)
(0.072122649 -0.0025174976 0.0016956259)
(0.067606646 -0.0032339836 0.0028661946)
(0.061056719 -0.0053534674 0.0049767956)
(0.05015325 -0.011477421 0.0089817767)
(0.031743831 -0.0249769 0.015403699)
(-0.014944069 -0.0093634936 0.020861673)
(-0.041315994 0.0040255763 0.016532133)
(-0.060634753 0.0062742342 0.015264788)
(-0.072607642 0.0054876375 0.013965169)
(-0.07602082 0.0020550182 0.010025025)
(-0.070010692 -0.0027755672 0.0027170303)
(-0.059521657 -0.0067926531 -0.0057277057)
(-0.049211334 -0.0099976824 -0.012249159)
(-0.041304061 -0.013583773 -0.015985878)
(-0.035948089 -0.018266601 -0.017351061)
(-0.033046731 -0.023250045 -0.015594731)
(-0.033112194 -0.023623402 -0.0075770897)
(-0.03262683 -0.0070103705 0.0066165191)
(-0.012530746 0.028847931 0.022768875)
(0.0050584274 0.065779005 0.046716416)
(0.03510745 0.10456557 0.066558042)
(0.10532653 -0.0023829572 -0.00019638741)
(0.11892623 -0.0024912109 -0.00035308062)
(0.13120021 -0.0023527124 -0.00044723417)
(0.14122284 -0.0019406082 -0.00048141132)
(0.15002035 -0.0013222934 -0.00046308499)
(0.1580751 -0.00066687159 -0.0003947667)
(0.1654378 -6.9366643e-05 -0.00027676502)
(0.17211017 0.00045058458 -0.00011969149)
(0.17814801 0.00090411877 7.9570612e-05)
(0.18363131 0.0012981556 0.00031707189)
(0.18864796 0.0016228234 0.00055732235)