/*--------------------------------*- C++ -*----------------------------------*\
| =========                 |                                                 |
| \\      /  F ield         | OpenFOAM: The Open Source CFD Toolbox           |
|  \\    /   O peration     | Version:  v2012                                 |
|   \\  /    A nd           | Website:  www.openfoam.com                      |
|    \\/     M anipulation  |                                                 |
\*---------------------------------------------------------------------------*/
FoamFile
{
    version     2.0;
    format      ascii;
    class       volScalarField;
    location    "770/rightSolid";
    object      T;
}
// * * * * * * * * * * * * * * * * * * * * * * * * * * * * * * * * * * * * * //

dimensions      [0 0 0 1 0 0 0];


internalField   nonuniform List<scalar> 
130
(
748.43876
756.27975
764.45635
772.56095
780.32716
787.51215
793.95359
799.55243
804.2495
808.01481
810.83825
812.71733
813.65406
742.56894
751.74524
761.09675
770.16307
778.65371
786.36392
793.17438
799.02603
803.89364
807.77304
810.66841
812.59047
813.55077
730.80747
743.04318
754.90715
765.88907
775.75696
784.42523
791.88879
798.17928
803.33589
807.40321
810.41701
812.40886
813.40393
713.3271
731.30781
747.20938
760.88204
772.51769
782.33827
790.54523
797.31901
802.78721
807.05392
810.19394
812.26137
813.29168
692.76014
720.23452
740.93655
757.20356
770.30564
780.97578
789.69734
796.78751
802.45641
806.85053
810.07101
812.18618
813.23754
692.88845
720.36352
741.06715
757.32284
770.39095
781.03692
789.7477
796.82517
802.48112
806.86511
810.08123
812.19567
813.24637
713.55183
731.50816
747.41114
761.08555
772.68881
782.47084
790.65868
797.40484
802.84504
807.0928
810.22705
812.29414
813.32222
731.06763
743.24674
755.10082
766.08118
775.93237
784.57966
792.02171
798.28457
803.40947
807.46241
810.47354
812.46568
813.45916
742.83489
751.97567
761.32308
770.39371
778.85774
786.53955
793.32398
799.14808
803.98716
807.85669
810.75212
812.6753
813.63698
748.71118
756.52529
764.70493
772.83114
780.57554
787.70813
794.10507
799.6717
804.34738
808.10765
810.93368
812.819
813.76337
)
;

boundaryField
{
    maxX
    {
        type            zeroGradient;
    }
    minZ
    {
        type            zeroGradient;
    }
    maxZ
    {
        type            zeroGradient;
    }
    rightSolid_to_bottomWater
    {
        type            compressible::turbulentTemperatureCoupledBaffleMixed;
        refValue        nonuniform List<scalar> 
130
(
920.26483
918.67392
916.08123
909.21277
909.58843
910.00525
910.20273
910.67371
910.96261
910.74442
910.53916
910.10126
909.0502
918.76785
917.18097
913.44879
909.68612
909.98951
910.61727
910.8487
911.01467
911.13025
911.30993
910.96614
910.26605
909.97187
912.60725
912.28426
908.08644
908.3712
909.90794
910.86055
911.42166
911.94245
911.76809
911.76843
911.21281
910.16847
910.37933
906.99977
904.61363
901.83317
900.72029
903.51969
907.31384
908.20173
909.86578
910.23119
910.45213
910.19557
909.56498
910.0439
888.03365
893.60916
894.09196
898.85947
905.35432
906.87405
907.49861
908.17737
908.76674
909.22502
909.38616
909.31023
909.72943
896.74137
902.28636
904.7751
909.4371
909.73311
908.76652
909.87107
909.86516
909.46547
908.86932
908.70396
908.83257
909.16256
906.00824
906.03849
906.58527
909.79936
909.39634
908.88924
911.62185
911.6289
910.16022
908.92091
908.93002
908.93174
908.87403
915.31705
909.18609
907.72324
909.62781
910.84359
912.05442
912.71842
912.56393
909.58365
909.68844
909.69121
908.9933
908.84131
923.0062
917.93702
916.19799
915.20376
911.4954
911.73237
912.33278
912.14573
909.53514
910.0783
910.30689
909.36705
909.19796
927.09125
921.17205
919.45844
918.36516
916.94182
911.70103
909.88663
909.65275
909.06563
909.42913
909.43307
909.28972
909.40509
)
;
        refGradient     uniform 0;
        valueFraction   nonuniform List<scalar> 
130
(
0.0075140686
0.0075140686
0.0075140686
0.0075140686
0.0075140686
0.0075140686
0.0075140686
0.0075140686
0.0075140686
0.0075140686
0.0075140686
0.0075140686
0.0075140686
0.0075140686
0.0075140686
0.0075140686
0.0075140686
0.0075140686
0.0075140686
0.0075140686
0.0075140686
0.0075140686
0.0075140686
0.0075140686
0.0075140686
0.0075140686
0.0075140686
0.0075140686
0.0075140686
0.0075140686
0.0075140686
0.0075140686
0.0075140686
0.0075140686
0.0075140686
0.0075140686
0.0075140686
0.0075140686
0.0075140686
0.0075140686
0.0075140686
0.0075140686
0.0075140686
0.0075140686
0.0075140686
0.0075140686
0.0075140686
0.0075140686
0.0075140686
0.0075140686
0.0075140686
0.0075140686
0.0075140686
0.0075140686
0.0075140686
0.0075140686
0.0075140686
0.0075140686
0.0075140686
0.0075140686
0.0075140686
0.0075140686
0.0075140686
0.0075140686
0.0075140686
0.0075140686
0.0075140686
0.0075140686
0.0075140686
0.0075140686
0.0075140686
0.0075140686
0.0075140686
0.0075140686
0.0075140686
0.0075140686
0.0075140686
0.0075140686
0.0075140686
0.0075140686
0.0075140686
0.0075140686
0.0075140686
0.0075140686
0.0075140686
0.0075140686
0.0075140686
0.0075140686
0.0075140686
0.0075140686
0.0075140686
0.0075140686
0.0075140686
0.0075140686
0.0075140686
0.0075140686
0.0075140686
0.0075140686
0.0075140686
0.0075140686
0.0075140686
0.0075140686
0.0075140686
0.0075140686
0.0075140686
0.0075140686
0.0075140686
0.0075140686
0.0075140686
0.0075140686
0.0075140686
0.0075140686
0.0075140686
0.0075140686
0.0075140686
0.0075140686
0.0075140686
0.0075140686
0.0075140686
0.0075140686
0.0075140686
0.0075140686
0.0075140686
0.0075140686
0.0075140686
0.0075140686
0.0075140686
0.0075140686
0.0075140686
0.0075140686
)
;
        value           nonuniform List<scalar> 
130
(
749.73054
757.50069
765.59641
773.58851
781.2992
788.43336
794.82791
800.38823
805.0522
808.7876
811.58829
813.44998
814.37178
743.89349
752.98896
762.24221
771.21217
779.64132
787.29834
794.0594
799.86835
804.70027
808.55189
811.42293
813.32531
814.2762
732.17408
744.31546
756.0588
766.9604
776.76572
785.37605
792.78777
799.03493
804.15152
808.18829
811.17528
813.14433
814.13352
714.78285
732.61055
748.37183
761.93348
773.5028
783.27812
791.43011
798.16553
803.5954
807.83173
810.94624
812.99342
814.01959
694.2279
721.53778
742.08797
758.26868
771.32116
781.92257
790.58331
797.62534
803.2561
807.62067
810.81818
812.9169
813.96351
694.42062
721.73097
742.2978
758.46642
771.43862
781.99741
790.65109
797.67539
803.28588
807.63249
810.82323
812.92278
813.96807
714.99837
732.82006
748.60772
762.2036
773.71671
783.42147
791.56839
798.26396
803.6523
807.85888
810.96968
813.02127
814.0412
732.45247
744.49407
756.24816
767.16039
776.94675
785.53823
792.92941
799.14411
804.20816
808.23148
811.22003
813.19199
814.17687
744.18905
753.22314
762.4873
771.48238
779.85501
787.48096
794.21899
799.99799
804.78115
808.62574
811.50116
813.40285
814.35605
750.05188
757.76285
765.86822
773.92523
781.60081
788.64052
794.97584
800.49895
805.13513
808.86994
811.67479
813.5449
814.48304
)
;
        Tnbr            T;
        thicknessLayers List<scalar> 0();
        kappaLayers     List<scalar> 0();
        kappaMethod     solidThermo;
        kappa           none;
        alphaAni        none;
        alpha           none;
        field           T;
    }
    rightSolid_to_topAir
    {
        type            compressible::turbulentTemperatureCoupledBaffleMixed;
        refValue        nonuniform List<scalar> 
130
(
495.97853
488.52706
482.08362
476.88614
472.96334
470.24657
468.64378
468.07523
468.50293
469.96641
472.65454
477.08115
484.11698
438.6254
433.17373
429.82639
427.84955
426.75627
426.32697
426.51724
427.35023
428.89617
431.28981
434.8666
440.60907
450.58947
450.4826
441.71038
434.05305
427.47656
422.06909
418.04668
415.61826
414.85765
415.65759
417.83146
421.32804
427.0226
436.74951
506.97811
507.82479
507.46381
505.50507
502.02619
497.40867
492.10493
486.66183
482.00358
479.70708
481.64813
487.95668
498.08331
510.43877
514.18611
518.17733
522.04696
525.43957
528.04738
529.6637
530.2569
530.08334
529.81264
530.55508
533.74012
541.01794
508.72318
512.32371
516.04829
519.4994
522.31823
524.22691
525.06451
524.84696
523.88154
522.91262
523.12541
526.02329
533.16767
502.78971
502.64636
501.10505
497.90158
493.33121
487.97356
482.30199
476.67228
471.80449
469.12964
470.65502
478.39908
489.04131
447.96302
439.02897
431.38881
425.01903
419.97017
416.3668
414.29766
413.72881
414.50902
416.45821
419.54073
424.52355
433.32182
437.68406
431.94307
428.40272
426.33597
425.25499
424.922
425.25552
426.21817
427.81257
430.13002
433.48678
438.80074
448.26766
495.23251
487.57978
480.95118
475.6059
471.58373
468.81598
467.19711
466.61894
467.00764
468.37239
470.87953
475.00711
481.60707
)
;
        refGradient     uniform 0;
        valueFraction   nonuniform List<scalar> 
130
(
0.00032132529
0.00032132529
0.00032132529
0.00032132529
0.00032132529
0.00032132529
0.00032132529
0.00032132529
0.00032132529
0.00032132529
0.00032132529
0.00032132529
0.00032132529
0.00032132529
0.00032132529
0.00032132529
0.00032132529
0.00032132529
0.00032132529
0.00032132529
0.00032132529
0.00032132529
0.00032132529
0.00032132529
0.00032132529
0.00032132529
0.00032132529
0.00032132529
0.00032132529
0.00032132529
0.00032132529
0.00032132529
0.00032132529
0.00032132529
0.00032132529
0.00032132529
0.00032132529
0.00032132529
0.00032132529
0.00032132529
0.00032132529
0.00032132529
0.00032132529
0.00032132529
0.00032132529
0.00032132529
0.00032132529
0.00032132529
0.00032132529
0.00032132529
0.00032132529
0.00032132529
0.00032132529
0.00032132529
0.00032132529
0.00032132529
0.00032132529
0.00032132529
0.00032132529
0.00032132529
0.00032132529
0.00032132529
0.00032132529
0.00032132529
0.00032132529
0.00032132529
0.00032132529
0.00032132529
0.00032132529
0.00032132529
0.00032132529
0.00032132529
0.00032132529
0.00032132529
0.00032132529
0.00032132529
0.00032132529
0.00032132529
0.00032132529
0.00032132529
0.00032132529
0.00032132529
0.00032132529
0.00032132529
0.00032132529
0.00032132529
0.00032132529
0.00032132529
0.00032132529
0.00032132529
0.00032132529
0.00032132529
0.00032132529
0.00032132529
0.00032132529
0.00032132529
0.00032132529
0.00032132529
0.00032132529
0.00032132529
0.00032132529
0.00032132529
0.00032132529
0.00032132529
0.00032132529
0.00032132529
0.00032132529
0.00032132529
0.00032132529
0.00032132529
0.00032132529
0.00032132529
0.00032132529
0.00032132529
0.00032132529
0.00032132529
0.00032132529
0.00032132529
0.00032132529
0.00032132529
0.00032132529
0.00032132529
0.00032132529
0.00032132529
0.00032132529
0.00032132529
0.00032132529
0.00032132529
0.00032132529
0.00032132529
)
;
        value           nonuniform List<scalar> 
130
(
748.35831
756.19442
764.36636
772.46669
780.22916
787.411
793.84988
799.44676
804.14247
807.90706
810.73047
812.61038
813.54909
742.47186
751.64351
760.99099
770.0538
778.54139
786.24901
793.05738
798.90744
803.774
807.65294
810.54854
812.47185
813.43507
730.71795
742.94695
754.80471
765.78104
775.64406
784.30828
791.7687
798.05695
803.21218
807.2789
810.29287
812.28593
813.28382
713.26128
731.23651
747.13294
760.80067
772.43153
782.24749
790.45014
797.22003
802.68499
806.94961
810.08926
812.15808
813.19131
692.70202
720.16883
740.86558
757.12871
770.22772
780.89529
789.6146
796.70271
802.36976
806.7624
809.98211
812.09764
813.151
692.82968
720.29714
740.99538
757.24701
770.31188
780.95513
789.66344
796.73861
802.39248
806.77479
809.98998
812.10469
813.15736
713.48452
731.43509
747.33254
761.00159
772.59972
782.37693
790.56039
797.30262
802.73956
806.98515
810.11892
812.18785
813.21903
730.97704
743.14944
754.99733
765.97218
775.81864
784.46206
791.90112
798.16185
803.2854
807.33771
810.3489
812.34203
813.33803
742.73718
751.87326
761.21659
770.28371
778.74475
786.42406
793.20648
799.02909
803.86719
807.73627
810.63188
812.55618
813.5206
748.63007
756.43926
764.61422
772.73617
780.47686
787.60636
794.00081
799.56553
804.23988
807.99944
810.8254
812.71147
813.65766
)
;
        Tnbr            T;
        thicknessLayers List<scalar> 0();
        kappaLayers     List<scalar> 0();
        kappaMethod     solidThermo;
        kappa           none;
        alphaAni        none;
        alpha           none;
        field           T;
    }
    rightSolid_to_heater
    {
        type            compressible::turbulentTemperatureCoupledBaffleMixed;
        refValue        nonuniform List<scalar> 10(741.42756 734.22287 719.26019 694.71867 654.06268 654.1803 695.0186 719.59112 734.51795 741.71033);
        refGradient     uniform 0;
        valueFraction   nonuniform List<scalar> 10(0.50000003 0.50000003 0.50000003 0.50000003 0.50000003 0.50000003 0.50000003 0.50000003 0.50000003 0.50000003);
        value           nonuniform List<scalar> 10(744.93349 738.3962 725.03411 704.02312 673.41164 673.53458 704.28542 725.32956 738.67659 745.21092);
        Tnbr            T;
        thicknessLayers List<scalar> 0();
        kappaLayers     List<scalar> 0();
        kappaMethod     solidThermo;
        kappa           none;
        alphaAni        none;
        alpha           none;
        field           T;
    }
}


// ************************************************************************* //
