/*--------------------------------*- C++ -*----------------------------------*\
| =========                 |                                                 |
| \\      /  F ield         | OpenFOAM: The Open Source CFD Toolbox           |
|  \\    /   O peration     | Version:  v2012                                 |
|   \\  /    A nd           | Website:  www.openfoam.com                      |
|    \\/     M anipulation  |                                                 |
\*---------------------------------------------------------------------------*/
FoamFile
{
    version     2.0;
    format      ascii;
    class       volScalarField;
    location    "15";
    object      p;
}
// * * * * * * * * * * * * * * * * * * * * * * * * * * * * * * * * * * * * * //

dimensions      [0 2 -2 0 0 0 0];


internalField   nonuniform List<scalar> 
64000
(
1.2633e-21
-2.23425e-21
-1.86014e-21
-3.4999e-21
-5.6986e-21
-9.7992e-22
-1.66011e-21
-7.78909e-22
-2.72931e-21
-2.87584e-21
-2.47241e-21
-2.46047e-21
-2.30643e-21
-4.86245e-21
-2.38548e-21
-3.84934e-21
-2.94245e-22
-1.30587e-22
1.02638e-21
2.41914e-21
2.52089e-22
-4.89281e-21
-1.80078e-21
5.39471e-22
-5.0673e-21
-2.36234e-21
5.4813e-22
-1.16559e-21
-1.35699e-21
-2.43889e-21
-3.05287e-21
-4.62144e-22
3.5897e-23
-1.56652e-21
-7.37877e-22
-1.83371e-21
-1.3535e-21
1.77623e-21
1.69897e-21
1.65733e-21
-3.62216e-21
-5.34465e-21
-8.84285e-21
-5.55588e-21
-6.5898e-21
-7.54e-21
-3.71886e-21
-1.05356e-21
-3.51749e-21
-4.82054e-21
-3.168e-21
-5.07707e-21
-2.44995e-21
-1.94139e-21
-3.36231e-21
-5.71262e-21
-2.96471e-21
2.02857e-21
1.37365e-21
-4.26374e-22
2.44529e-21
-1.38389e-21
-4.86153e-21
-7.70826e-21
-7.46076e-21
-9.29966e-22
2.91023e-22
-2.73164e-21
-1.29767e-21
3.60168e-22
2.19851e-21
4.24922e-23
-3.82569e-21
-2.33772e-21
-4.59547e-22
-1.25979e-21
2.11666e-22
1.3514e-21
-1.87602e-22
2.9846e-22
-4.52308e-21
-4.11237e-21
-1.1101e-20
-7.68445e-21
-5.62237e-21
-7.22026e-21
-4.24094e-21
-4.0742e-21
-4.45974e-21
-3.61555e-21
-3.75524e-21
-6.76372e-21
-2.91454e-21
-2.46753e-21
-1.21316e-21
-1.0905e-21
-5.93633e-21
-2.52509e-21
-1.08458e-21
3.50172e-23
1.77633e-21
9.33634e-23
-6.06827e-21
-6.30122e-21
-2.39589e-21
-2.45585e-21
-2.953e-21
-3.0154e-21
2.00061e-22
-4.29752e-22
9.96983e-22
-4.84533e-22
-1.83426e-21
-5.4945e-22
-3.48998e-22
1.04987e-21
4.09147e-22
-7.87003e-24
-1.24809e-21
-4.3815e-22
-6.18656e-21
-7.08477e-21
-7.88833e-21
-1.04995e-20
-9.09992e-21
-9.68738e-21
-3.87187e-21
-2.63512e-21
-5.83014e-21
-4.99902e-21
-4.87517e-21
-6.52758e-21
-5.61228e-21
-2.13413e-21
-2.71568e-21
-4.12475e-21
-3.3847e-21
-1.50434e-21
-3.23418e-22
1.7657e-21
2.81464e-21
-1.93153e-21
-8.51412e-21
-7.08265e-21
-3.40676e-21
-3.59914e-21
-1.8521e-21
3.18513e-22
-1.24604e-21
-2.12664e-21
2.08697e-21
5.30736e-22
-3.36634e-21
4.1417e-22
2.0322e-21
6.7107e-22
-1.03807e-22
-9.55374e-22
-2.26758e-21
-1.00772e-21
-1.37005e-20
-7.88667e-21
-8.8035e-21
-8.20863e-21
-9.81728e-21
-1.05854e-20
-5.45363e-21
-1.44794e-21
-3.6968e-21
-6.57448e-21
-5.76381e-21
-6.42098e-21
-4.24494e-21
-1.77294e-21
-6.97605e-21
-8.36245e-21
-3.77321e-21
8.35784e-22
1.51523e-21
1.65173e-21
3.28679e-21
-3.2043e-21
-1.08459e-20
-7.33337e-21
-2.71303e-21
-2.33587e-21
-6.30268e-22
-1.14011e-21
-3.3213e-21
1.94902e-22
2.40508e-21
-4.02189e-22
-2.13183e-21
1.5912e-21
-1.12754e-21
5.07658e-22
-2.20923e-23
-4.0736e-22
-2.04466e-21
-1.44434e-21
-9.92659e-21
-9.33828e-21
-8.11618e-21
-1.01619e-20
-9.25824e-21
-8.6834e-21
-5.52485e-21
-6.98009e-21
-6.07709e-21
-5.68034e-21
-5.90106e-21
-6.96794e-21
-5.0059e-21
-3.8022e-21
-5.37563e-21
-6.35452e-21
-5.52657e-21
2.80171e-21
2.78614e-21
1.30314e-21
3.21204e-21
-2.79719e-21
-9.4758e-21
-7.80119e-21
-3.35611e-21
-2.25984e-21
-2.75928e-21
-1.84765e-22
-1.12817e-21
-2.32745e-21
-1.96832e-21
-1.93927e-21
-2.00316e-21
1.23364e-21
-7.28756e-22
7.41352e-22
-8.29871e-22
-1.47114e-21
-8.75578e-22
-4.16658e-22
-1.10477e-20
-1.21391e-20
-6.89811e-21
-8.80347e-21
-9.48852e-21
-9.8637e-21
-5.73037e-21
-7.18024e-21
-7.02323e-21
-4.58415e-21
-6.22184e-21
-7.2518e-21
-5.31246e-21
-5.7441e-21
-5.52676e-21
-5.62288e-21
-1.79631e-21
2.11268e-21
3.89631e-21
2.55771e-21
-4.80183e-22
-5.23946e-21
-1.16439e-20
-8.05357e-21
-3.28902e-21
-2.65832e-21
-2.33093e-21
1.10987e-21
1.10729e-22
-1.84155e-21
-4.07956e-21
-2.43749e-21
4.35362e-22
-1.09274e-21
-1.52828e-21
-5.97384e-22
-5.29198e-22
-1.78073e-21
-3.7371e-21
-7.35169e-22
-9.20459e-21
-9.87561e-21
-1.02293e-20
-7.38077e-21
-1.09004e-20
-7.63332e-21
-5.27661e-21
-1.14054e-20
-8.53628e-21
-5.63167e-21
-7.35991e-21
-7.51288e-21
-7.25924e-21
-7.26863e-21
-4.67967e-21
-5.09203e-21
-6.43051e-23
1.23706e-21
2.21081e-21
1.94253e-21
-2.55337e-21
-7.02689e-21
-9.39882e-21
-5.24681e-21
-3.3036e-21
-4.18771e-21
-1.56241e-21
1.00246e-21
8.09887e-22
-1.83628e-21
-4.95121e-21
-2.46173e-21
-4.93042e-23
-1.34377e-21
-2.00366e-21
-3.66749e-22
-1.36999e-21
-3.96002e-21
-1.39937e-21
7.67373e-22
-1.67697e-20
-1.20032e-20
-1.12133e-20
-9.78324e-21
-8.24124e-21
-8.91417e-21
-7.7998e-21
-7.49092e-21
-8.314e-21
-9.26352e-21
-8.11818e-21
-9.63906e-21
-3.4188e-21
-8.56083e-21
-6.01697e-21
-4.85954e-21
-7.62998e-22
1.85435e-21
-2.09014e-21
-1.2587e-21
-2.31817e-21
-7.26564e-21
-7.48949e-21
-6.33513e-21
-1.30749e-21
-2.21992e-21
-2.9268e-21
-9.09124e-23
1.67075e-21
-8.06718e-22
1.94783e-22
-1.43148e-21
-5.69292e-21
-2.99016e-21
-3.64365e-21
4.1851e-22
-7.06466e-22
-1.3941e-21
-1.93367e-22
2.18621e-22
-7.57267e-21
-1.00127e-20
-1.18077e-20
-9.00876e-21
-8.94374e-21
-1.01943e-20
-7.17356e-21
-8.45099e-21
-8.16025e-21
-7.6243e-21
-9.12252e-21
-6.89662e-21
-5.00269e-21
-6.67411e-21
-7.25017e-21
-5.44184e-21
-3.68913e-21
-9.54225e-22
5.39566e-22
-2.51389e-22
-2.07445e-21
-5.59547e-21
-8.38148e-21
-5.80337e-21
-2.08321e-21
-1.41999e-21
-1.13974e-21
3.49175e-22
-1.74924e-21
-1.76553e-21
-5.80987e-22
-9.0873e-22
-1.49267e-21
-1.88138e-21
-3.09286e-21
-2.87999e-21
-2.87193e-22
2.29452e-23
-9.97285e-22
-7.50498e-22
-6.32516e-21
-1.08909e-20
-1.1776e-20
-1.24902e-20
-7.92054e-21
-8.79e-21
-9.51902e-21
-9.23681e-21
-8.62173e-21
-1.19116e-20
-8.99866e-21
-4.12379e-21
-3.90044e-21
-4.50115e-21
-5.74729e-21
-6.7744e-21
-5.00883e-21
-4.28376e-24
3.80186e-21
1.21197e-22
-5.68465e-21
-1.01045e-20
-5.88073e-21
-6.13335e-21
-3.55044e-21
-1.73603e-21
8.59552e-22
1.1348e-21
-2.2469e-21
-3.8892e-21
-2.72641e-21
-1.53367e-21
6.94965e-22
3.05434e-22
-3.31776e-21
-5.64288e-21
-1.41932e-21
-2.24911e-22
-1.32242e-21
-4.88446e-22
-8.93636e-21
-1.25971e-20
-1.33339e-20
-1.15256e-20
-9.51147e-21
-1.12023e-20
-8.53884e-21
-1.08488e-20
-7.05304e-21
-1.0713e-20
-1.27181e-20
-5.06005e-21
-4.05094e-21
-5.98299e-21
-4.51766e-21
-4.97397e-21
-5.12406e-21
8.41892e-22
1.94427e-21
-2.14604e-22
-5.087e-21
-8.59545e-21
-6.8348e-21
-6.83136e-21
-5.1717e-21
5.58704e-22
3.06078e-21
-7.85988e-22
-4.08564e-21
-2.19203e-21
-2.72681e-21
-2.2881e-21
-1.07461e-22
1.68523e-21
-5.2041e-21
-1.84316e-21
-6.0166e-22
-9.25416e-22
-1.09686e-21
-1.5477e-21
-1.4643e-20
-1.38924e-20
-1.29762e-20
-1.05142e-20
-1.09072e-20
-1.12353e-20
-1.14521e-20
-1.03136e-20
-8.96702e-21
-1.06911e-20
-1.14367e-20
-3.7898e-21
-5.0355e-21
-8.0857e-21
-4.74323e-21
-4.61579e-21
-2.7382e-21
7.88892e-23
-1.22247e-21
-1.81154e-21
-3.10505e-21
-4.95376e-21
-6.07133e-21
-6.28253e-21
-2.48924e-21
6.68879e-22
2.09749e-21
-2.29865e-21
-2.04523e-21
-1.71061e-21
-5.1273e-21
-2.09952e-21
-5.37011e-22
-3.95698e-22
-2.00413e-21
2.11291e-22
-2.1235e-21
-3.29468e-21
-1.20438e-21
-7.39388e-22
-1.72857e-20
-1.58986e-20
-1.2164e-20
-1.22857e-20
-9.2107e-21
-1.03893e-20
-1.04102e-20
-7.37066e-21
-1.04183e-20
-1.42486e-20
-8.92567e-21
-3.26978e-21
-7.67199e-21
-1.14747e-20
-5.53764e-21
-4.78995e-21
-1.26568e-21
2.29872e-21
-1.23657e-22
-1.81583e-21
-4.87043e-21
-6.50053e-21
-6.31066e-21
-8.2676e-21
-1.16328e-21
5.31286e-22
1.92043e-21
-1.6316e-21
-1.83529e-21
1.3425e-21
-1.75859e-21
-2.39851e-21
-3.40762e-21
-1.20249e-21
-7.34871e-22
-1.05845e-22
-9.09978e-22
-1.65302e-21
-2.18916e-21
-1.09218e-21
-1.13913e-20
-1.82788e-20
-1.67093e-20
-8.78098e-21
-6.87451e-21
-9.47204e-21
-1.23856e-20
-1.21904e-20
-1.02404e-20
-1.16652e-20
-8.73951e-21
-8.38435e-21
-8.26208e-21
-7.15374e-21
-2.78341e-21
-4.35029e-21
-2.50977e-21
-1.86723e-21
-2.79568e-21
-1.08217e-21
-7.17767e-21
-3.57229e-21
-4.34813e-21
-6.66207e-21
2.0019e-21
-1.73601e-21
-2.60861e-21
-1.41431e-21
-3.63909e-22
-4.13502e-22
-1.30237e-21
1.63281e-23
-3.17948e-21
-2.20965e-21
-3.98565e-22
-1.26761e-21
-8.08025e-22
-2.09398e-21
-1.90146e-21
3.01715e-22
-1.26126e-20
-1.32013e-20
-1.55688e-20
-1.07323e-20
-1.10627e-20
-9.03768e-21
-1.10759e-20
-1.28381e-20
-1.01929e-20
-7.27381e-21
-1.06517e-20
-9.9444e-21
-7.45105e-21
-5.38003e-21
-4.76361e-21
-5.577e-21
-1.9669e-21
-2.35996e-21
-1.91074e-21
-3.66825e-21
-6.87214e-21
-4.86985e-21
-3.50385e-21
-1.76343e-21
5.83592e-22
-2.71676e-21
-3.13519e-21
-1.56433e-21
1.22394e-21
-3.72119e-23
-6.20424e-21
-1.86873e-21
-3.60191e-22
-8.94064e-22
1.74014e-21
-1.31943e-21
-2.79418e-21
-2.46167e-21
-2.049e-21
-1.53123e-22
-1.22644e-20
-1.16636e-20
-1.48972e-20
-1.01667e-20
-8.36186e-21
-1.053e-20
-1.21447e-20
-1.32663e-20
-9.31945e-21
-8.8028e-21
-9.94721e-21
-1.12661e-20
-3.55464e-21
-6.14876e-21
-4.58397e-21
-3.98138e-21
-3.41366e-21
-1.26006e-21
-3.61043e-21
-5.18325e-21
-7.00025e-21
-4.31618e-21
-3.12298e-21
6.9306e-22
5.04296e-22
-5.90005e-22
-1.63208e-21
4.35173e-22
8.09908e-22
-3.58658e-21
-7.06764e-21
-1.84941e-21
3.8917e-22
-1.2283e-21
4.63029e-22
-9.57653e-22
-3.11115e-21
-3.3564e-21
-2.11944e-21
-2.0062e-21
-1.00713e-20
-1.26555e-20
-1.81185e-20
-1.0002e-20
-6.3639e-21
-9.51646e-21
-1.32182e-20
-1.2114e-20
-9.84433e-21
-8.8143e-21
-1.05527e-20
-9.88894e-21
-5.47192e-21
-6.74607e-21
-2.56265e-21
-4.80069e-21
-3.93689e-21
2.45955e-23
3.32639e-22
-6.89273e-21
-7.93414e-21
-7.54164e-21
-2.91316e-22
1.21745e-21
1.85345e-21
-2.93254e-21
-1.1739e-21
1.80636e-21
-2.76817e-22
-1.39215e-21
-3.06788e-21
-2.08706e-21
-7.7054e-22
-4.75431e-22
-5.36037e-22
-2.51188e-21
-2.97688e-21
-1.80138e-21
-5.80568e-22
-9.26452e-22
-8.58799e-21
-9.52172e-21
-1.36228e-20
-1.18398e-20
-1.11226e-20
-1.00022e-20
-1.01164e-20
-9.67494e-21
-9.68862e-21
-9.80535e-21
-1.02182e-20
-9.258e-21
-5.91754e-21
-5.99121e-21
-3.35707e-21
-4.6661e-21
-4.24653e-21
-6.65673e-21
-6.76898e-21
-5.24629e-21
-4.16908e-21
-1.34594e-21
-6.75418e-22
3.73534e-22
1.8404e-21
2.93241e-22
1.06084e-21
3.41751e-21
1.29367e-21
-1.60949e-21
-6.79754e-21
-8.76266e-22
-7.89105e-22
-1.42635e-21
-1.90545e-21
-1.41939e-21
-1.35806e-21
-2.71308e-21
-3.2903e-21
-2.20642e-21
-6.63105e-21
-8.11554e-21
-1.50302e-20
-1.31834e-20
-1.09752e-20
-8.10719e-21
-7.59889e-21
-1.13792e-20
-1.10405e-20
-9.82197e-21
-8.60609e-21
-9.2126e-21
-4.97894e-21
-4.49124e-21
-5.93794e-21
-5.81982e-21
-2.81484e-21
-3.21164e-21
-8.62344e-21
-4.80199e-21
-3.4917e-21
-4.05627e-21
-1.90582e-21
1.75022e-21
2.21763e-21
2.17648e-21
-4.03623e-21
1.32831e-21
1.33627e-21
-2.33991e-21
-1.03348e-21
-2.08809e-22
6.51951e-22
-1.21828e-21
-3.055e-21
-2.0564e-21
-2.20746e-21
-1.37648e-21
-2.33333e-21
-2.49054e-21
-9.02402e-21
-9.79072e-21
-1.38519e-20
-1.14846e-20
-1.22668e-20
-8.36324e-21
-7.84044e-21
-6.7868e-21
-8.82841e-21
-1.2122e-20
-1.56805e-20
-7.70811e-21
-4.82609e-21
-2.93828e-21
-5.44046e-21
-4.58887e-21
-4.4401e-21
-2.10911e-21
-5.38709e-21
-4.35231e-21
-2.91092e-21
-3.50096e-21
-1.24385e-21
-8.08267e-22
-2.13155e-21
1.30854e-21
-1.71287e-22
3.80027e-22
9.49567e-22
2.90342e-22
1.78029e-22
8.91055e-22
-1.07287e-21
-3.76285e-22
-1.57803e-21
-2.70896e-21
-2.33753e-21
-1.97808e-21
-1.46381e-21
-2.65967e-21
-1.26439e-20
-1.34218e-20
-1.11206e-20
-1.10576e-20
-1.21891e-20
-8.70727e-21
-8.98401e-21
-9.05699e-21
-7.08635e-21
-1.19991e-20
-1.41078e-20
-6.12526e-21
-3.54619e-21
-9.95447e-21
-5.70252e-21
-3.01821e-21
-2.01501e-21
-2.62424e-21
-4.99698e-21
-4.50015e-21
-4.99954e-21
-1.0278e-21
-7.44674e-22
-1.5424e-21
4.10204e-22
2.75804e-23
-1.13377e-21
-1.38186e-21
9.70325e-22
1.06293e-21
-1.96208e-21
1.55498e-21
1.02226e-21
-6.00223e-22
-3.41894e-21
-5.86715e-21
-1.25695e-21
-1.27834e-21
9.90878e-22
5.97917e-22
-1.37908e-20
-1.35484e-20
-1.29211e-20
-9.45148e-21
-1.03707e-20
-1.26097e-20
-6.44372e-21
-7.2836e-21
-1.03488e-20
-1.37101e-20
-1.18352e-20
-7.87813e-21
-5.1179e-21
-4.87744e-21
-4.93664e-21
-4.3035e-21
-1.32052e-21
1.21052e-21
-8.99457e-22
-5.55707e-21
-5.51875e-21
4.76542e-22
-4.25278e-21
-4.59835e-21
-2.10423e-21
-1.99345e-21
-4.43747e-22
-3.52525e-22
7.46025e-22
1.6878e-21
-3.57183e-21
-8.04133e-22
1.09574e-21
6.35484e-22
-2.05723e-21
-4.62507e-21
-2.18935e-21
7.1164e-22
-1.02816e-22
-1.14684e-21
-9.68197e-21
-1.14412e-20
-1.45261e-20
-9.65539e-21
-9.01386e-21
-1.07118e-20
-9.56178e-21
-1.22053e-20
-7.99891e-21
-9.9362e-21
-1.09166e-20
-9.76187e-21
-1.33439e-21
-6.47036e-21
-7.55847e-21
-2.32498e-21
2.8296e-21
-2.55048e-22
-1.97874e-21
-2.99109e-21
-5.04755e-21
-2.01048e-21
-2.48115e-21
-3.46994e-21
-4.20847e-21
-2.25931e-21
-8.51498e-23
2.23727e-22
6.2302e-22
-6.13055e-22
-2.95481e-21
-4.97076e-22
6.51504e-22
-2.05188e-21
-3.93915e-21
-3.75e-21
-2.23923e-21
2.50553e-22
-6.40951e-22
-1.37349e-21
-5.2612e-21
-9.62682e-21
-1.33375e-20
-1.2023e-20
-8.56789e-21
-9.37309e-21
-9.95526e-21
-1.13753e-20
-6.90849e-21
-1.01604e-20
-1.22725e-20
-8.77383e-21
-4.0417e-21
-4.24402e-21
-4.74217e-21
-1.32313e-21
1.60702e-21
-1.37112e-21
-5.93866e-22
7.29212e-22
-1.10976e-21
-4.15067e-21
-9.07727e-22
-6.29153e-21
-5.70083e-21
-6.36343e-21
-1.18192e-21
2.40022e-21
-7.12185e-22
6.0094e-22
1.68648e-21
-1.1895e-21
-1.04092e-21
-9.37574e-22
-3.61675e-21
-3.509e-21
-2.46032e-21
-2.37688e-21
-1.79311e-21
-4.00501e-22
-1.00201e-20
-1.15947e-20
-1.3373e-20
-9.9017e-21
-8.1645e-21
-8.05064e-21
-1.03242e-20
-1.1041e-20
-7.39587e-21
-7.61875e-21
-1.20368e-20
-9.80114e-21
-3.51368e-21
-6.32422e-21
-9.56838e-22
-6.82736e-22
-5.38509e-22
-5.66306e-22
1.77604e-21
-2.33147e-22
6.55273e-22
-3.4978e-21
-5.42602e-21
-7.17375e-21
-6.75668e-21
-6.08463e-21
4.53278e-22
-1.07529e-21
-8.57269e-22
3.84523e-21
2.85659e-21
-1.75333e-21
-2.62542e-21
-5.57468e-22
-9.59372e-22
-2.47778e-21
-2.77456e-21
-4.19983e-21
-6.87579e-22
2.69491e-22
-5.5786e-21
-8.44543e-21
-1.15859e-20
-1.29356e-20
-1.00514e-20
-1.25679e-20
-1.06135e-20
-5.45384e-21
-7.0787e-21
-9.88872e-21
-1.24761e-20
-8.8256e-21
-2.9732e-21
-5.19233e-21
-5.85794e-21
-1.41162e-21
-1.23192e-21
-1.39474e-21
4.50607e-21
4.81761e-21
-2.97117e-21
-7.34377e-21
-4.12541e-21
-3.92563e-21
-5.22335e-21
-5.93817e-21
1.62756e-21
-5.31199e-22
-2.62097e-21
9.4043e-23
2.36101e-21
-1.03808e-22
-9.15664e-22
2.38806e-22
-1.78295e-21
-1.49435e-22
-3.16532e-21
-5.25404e-21
-2.95771e-21
-1.23112e-21
-6.29256e-21
-9.74943e-21
-1.1319e-20
-1.2525e-20
-8.44195e-21
-1.10537e-20
-8.63349e-21
-7.79081e-21
-6.83914e-21
-7.91082e-21
-1.03541e-20
-7.00677e-21
-3.85018e-21
-3.46943e-21
-6.14482e-21
-2.74932e-21
-9.70592e-22
-1.22751e-21
3.55441e-21
3.32075e-21
-4.14176e-21
-4.47567e-21
-3.80774e-21
-6.77453e-21
-4.57614e-21
-1.84405e-22
-3.57747e-22
-2.05807e-21
-1.49383e-21
-1.8213e-21
1.12201e-22
-9.66626e-23
-1.1578e-21
-5.18905e-22
4.29447e-22
-1.64784e-21
-4.59575e-21
-2.98167e-21
-5.68263e-22
1.11179e-21
-6.17106e-21
-1.11724e-20
-1.23446e-20
-9.92073e-21
-1.122e-20
-1.13086e-20
-8.07251e-21
-5.15215e-21
-4.94414e-21
-8.57125e-21
-1.20233e-20
-3.9221e-21
-3.4194e-21
-4.84295e-21
-3.51846e-21
-3.45559e-21
-1.0429e-21
2.63499e-21
3.29843e-22
4.7941e-22
-5.50431e-21
-5.80072e-21
-3.11074e-21
-3.56012e-21
-2.32752e-21
-1.10246e-21
-1.22313e-21
-2.80113e-21
-1.20479e-21
-2.31283e-21
1.29103e-21
8.05516e-22
-1.01548e-21
9.79194e-22
-9.6429e-22
-3.08581e-21
-1.44885e-21
-9.5632e-22
-4.63392e-22
1.45403e-22
-4.19933e-21
-9.444e-21
-1.23467e-20
-1.1928e-20
-1.22925e-20
-1.28937e-20
-7.27785e-21
-3.54952e-21
-4.78844e-21
-8.4419e-21
-1.05538e-20
-4.0357e-21
-2.7182e-21
-7.04554e-21
-3.02115e-21
-6.54227e-21
-2.99552e-21
-2.83688e-22
3.47768e-21
2.78269e-21
-4.23784e-21
-5.0715e-21
-4.53676e-21
-3.55819e-21
-2.34569e-21
-1.80722e-21
-1.37425e-21
1.60232e-21
-9.28928e-22
-1.05659e-21
-2.16707e-22
2.08008e-22
-6.27971e-22
-2.72565e-22
-2.04121e-21
-3.44138e-21
1.02384e-21
2.61097e-22
-7.81777e-22
4.41464e-22
-8.1377e-21
-9.47107e-21
-9.03161e-21
-9.78507e-21
-1.08258e-20
-1.03316e-20
-7.0053e-21
-5.10317e-21
-5.68204e-21
-7.31458e-21
-5.84691e-21
-4.49854e-21
-4.83404e-21
-5.08281e-21
-3.82652e-21
-5.10138e-21
-3.42024e-21
-2.15567e-22
1.14924e-21
1.66818e-21
-1.55807e-21
-5.6492e-21
-4.44819e-21
-1.54906e-21
-2.24434e-21
-1.05976e-21
-2.86115e-21
2.01088e-22
-1.39654e-21
-7.00083e-22
-2.48188e-21
6.30168e-22
2.24396e-21
6.55293e-22
-2.64136e-21
-5.03704e-21
-3.10808e-21
-1.50721e-22
3.05229e-22
6.2359e-22
-1.27527e-20
-1.16138e-20
-8.56387e-21
-8.61565e-21
-8.28268e-21
-1.01907e-20
-7.50203e-21
-6.11835e-21
-5.42241e-21
-5.10561e-21
-1.62181e-21
-5.77672e-21
-6.74112e-21
-3.30401e-21
-3.72332e-21
-4.80547e-21
-1.86746e-21
1.01564e-21
1.00136e-21
1.12524e-21
4.58353e-22
-3.4675e-21
-9.73407e-21
-5.58024e-21
-1.92365e-21
-2.1084e-21
-1.59477e-21
1.0561e-21
5.24054e-22
3.40988e-22
-3.47139e-21
4.24165e-22
3.45004e-21
-8.50374e-22
-5.08772e-21
-4.4448e-21
-7.31928e-22
1.04458e-24
1.12647e-21
1.38233e-23
-7.19405e-21
-6.59866e-21
-7.29299e-21
-8.07971e-21
-1.05938e-20
-1.04688e-20
-7.72406e-21
-7.44239e-21
-5.03671e-21
-4.47128e-21
-1.70458e-21
-1.46803e-21
-7.32177e-21
-3.06269e-21
-9.99806e-22
-5.49111e-21
-2.09934e-21
-1.72292e-21
1.77394e-21
2.58912e-22
-2.39399e-22
-3.21691e-21
-6.43162e-21
-5.07013e-22
-6.83844e-21
-5.72455e-21
3.21368e-22
1.2719e-21
2.02198e-22
3.49757e-22
-2.58228e-21
-2.6475e-22
2.3101e-21
-8.38612e-22
-3.02688e-21
-7.23195e-22
1.79723e-22
-5.06465e-21
-1.23612e-21
-3.36383e-23
-8.17804e-21
-7.36514e-21
-7.19236e-21
-1.17999e-20
-1.13228e-20
-7.18988e-21
-5.5491e-21
-4.19986e-21
-4.95707e-21
-4.14794e-21
-2.34926e-21
-5.02196e-21
-7.11989e-21
-2.48336e-21
-1.97549e-21
-1.99357e-21
-2.58702e-21
-1.24045e-21
4.07452e-23
1.74922e-21
1.77696e-21
-4.43108e-21
-4.00228e-21
-2.67534e-21
-5.19946e-21
-2.77809e-21
-1.3721e-21
-1.64526e-21
-6.73063e-22
6.97415e-22
-1.87358e-21
6.32284e-23
2.70584e-21
4.15208e-22
-3.31646e-22
-2.45699e-22
-1.33829e-22
1.47881e-21
-2.79445e-21
-2.70395e-21
-1.08667e-20
-7.00888e-21
-6.45635e-21
-7.45797e-21
-8.93961e-21
-9.40651e-21
-7.2677e-21
-4.25031e-21
-5.84824e-21
-4.1124e-21
-1.33793e-21
-5.1886e-21
-3.11484e-21
-5.64012e-22
-2.81527e-21
-3.79098e-21
-5.31732e-21
7.02833e-23
1.33258e-21
3.30802e-21
1.09546e-21
-4.19087e-21
-4.55973e-21
-3.0986e-21
-3.86105e-21
-1.97309e-21
-1.77035e-21
-4.24665e-21
-8.93017e-22
-1.24449e-21
-1.07405e-21
-6.92669e-22
2.82261e-21
6.08782e-22
-1.53119e-21
-1.34209e-22
2.24871e-23
2.25236e-21
4.70025e-22
-1.11716e-21
-7.3917e-21
-6.36715e-21
-7.17418e-21
-7.19923e-21
-7.66764e-21
-1.16541e-20
-5.11666e-21
-3.23729e-21
-4.08877e-21
-4.77861e-21
-3.67287e-21
-2.2513e-21
-3.89687e-21
-8.95953e-22
-1.12902e-21
-4.05954e-21
-4.65059e-21
6.13686e-22
2.90387e-21
-4.23481e-22
-1.30532e-22
-3.63668e-21
-3.66596e-21
-3.10166e-21
-1.29785e-21
3.11506e-22
5.10204e-22
-1.32564e-21
-3.41463e-21
-2.20655e-21
-1.18408e-21
-7.24619e-22
8.85676e-22
1.25791e-21
-2.07991e-22
-3.08347e-22
8.17558e-22
2.76014e-21
-7.75359e-22
-1.86343e-21
-6.21556e-21
-4.89102e-21
-4.8392e-21
-1.06792e-20
-8.58657e-21
-8.96883e-21
-5.72974e-21
-3.91897e-21
-4.05105e-21
-3.73243e-21
-4.99764e-21
-2.6872e-21
-1.96682e-21
1.23513e-22
-3.11427e-21
-3.15127e-21
-4.35704e-21
1.62567e-21
3.88338e-21
1.37524e-22
5.87501e-22
-4.71174e-21
-2.01473e-21
-2.00811e-21
-2.94429e-21
-3.28852e-21
-7.11141e-22
9.18652e-23
-2.21358e-22
-1.48255e-21
-3.47103e-21
-1.28699e-21
1.26653e-21
1.03045e-21
-3.54889e-22
-9.33534e-22
3.12377e-21
3.64847e-21
-2.76681e-21
-1.88033e-21
-4.15387e-21
-4.45682e-21
-8.72346e-21
-6.95778e-21
-6.40496e-21
-8.3983e-21
-5.74499e-21
-3.73654e-21
-3.29428e-21
-3.2477e-21
-2.58475e-21
-4.40266e-21
-1.71712e-21
-1.10891e-21
-2.21037e-21
-1.19739e-21
-8.38028e-22
-3.92244e-22
2.60217e-21
4.3301e-21
-2.42816e-22
-2.30795e-21
-3.37692e-21
-4.93595e-21
-1.56466e-21
-7.78991e-22
-2.00882e-21
-9.86639e-23
9.10348e-22
-2.24775e-21
-4.95995e-21
-1.70629e-21
1.14633e-21
5.95867e-22
-1.6555e-21
-2.31774e-22
1.13037e-21
2.98522e-21
-1.25203e-21
-1.28797e-21
-4.89894e-21
-4.25929e-21
-7.15078e-21
-6.6329e-21
-6.92064e-21
-8.18636e-21
-5.5119e-21
-2.34801e-21
-1.46212e-21
-3.40193e-21
-1.75232e-21
-2.03866e-21
-2.11937e-22
-5.95083e-22
-3.11637e-21
-2.50718e-21
-2.27245e-21
3.54249e-22
9.22374e-22
2.10413e-21
1.93458e-21
-1.1726e-21
-2.41085e-21
-4.07678e-21
-4.35744e-21
2.9191e-22
9.06075e-22
1.4731e-21
-1.74716e-21
-4.10594e-21
-9.83449e-22
-2.24388e-21
4.56293e-22
2.80867e-22
4.59554e-22
-1.65192e-21
-1.16076e-21
-2.7939e-22
1.54171e-21
1.0105e-21
-6.7404e-21
-3.31365e-21
-5.10517e-21
-1.9858e-21
-7.41613e-22
-4.23745e-21
-7.33498e-21
-3.4723e-21
-9.76218e-22
-2.88052e-21
-2.76156e-21
1.59897e-21
1.11482e-21
-9.15974e-22
-2.11424e-21
-3.28561e-21
-9.59355e-22
-2.14658e-21
2.29339e-21
2.65658e-21
1.33604e-21
-2.74897e-21
-2.29031e-21
-1.04887e-21
-1.42857e-21
4.76382e-23
-1.98981e-22
4.78816e-22
5.70463e-22
4.12378e-22
-1.6484e-21
-6.77685e-22
-1.9313e-21
-2.50224e-21
7.38861e-22
-1.14717e-21
-3.7615e-21
-1.74739e-21
8.90072e-22
1.4032e-21
-4.26442e-21
-6.59217e-21
-1.04397e-20
-5.84104e-21
-3.65676e-21
-7.14804e-21
-2.60535e-21
1.24585e-21
-6.71661e-21
-6.58493e-21
-4.59558e-21
-4.41012e-21
-4.03218e-21
-2.58995e-21
-3.58621e-21
-4.36158e-21
-3.37405e-21
-2.46179e-21
3.51327e-21
2.19495e-21
-6.18413e-22
-3.02278e-21
-2.39092e-21
-2.15144e-21
-2.79276e-21
-1.46655e-21
-1.11501e-21
-2.61768e-21
-4.16132e-21
-4.10683e-21
-6.22829e-21
7.46715e-22
-8.83578e-22
-3.04869e-21
-2.43805e-21
-1.61773e-21
-2.01277e-23
9.56033e-22
1.39291e-21
1.61617e-21
-5.84159e-21
-8.28202e-21
-1.38647e-20
-1.18632e-20
-5.7136e-21
-9.22708e-21
-7.47514e-21
-2.31986e-21
-6.38683e-21
-9.12649e-21
-7.14466e-21
-4.06153e-21
-6.72268e-21
-4.07123e-21
-5.80915e-21
-2.79524e-21
4.53225e-22
-3.27394e-21
1.29569e-21
5.09042e-22
1.14478e-22
-3.49215e-21
-2.73992e-21
-5.55973e-21
-3.44145e-21
-1.46303e-21
1.06772e-21
-7.92753e-22
-3.5226e-21
4.14803e-22
-2.09917e-21
-1.75485e-21
-4.18698e-21
-2.40729e-21
-4.32162e-21
4.95482e-22
5.77996e-22
3.33277e-22
-1.01842e-21
3.37976e-25
-8.20469e-21
-8.48929e-21
-9.96331e-21
-1.22069e-20
-1.04199e-20
-7.32601e-21
-7.58448e-21
-8.92797e-21
-1.03862e-20
-7.5815e-21
-5.77196e-21
-6.08781e-21
-3.48235e-21
-1.60024e-21
-4.30084e-21
-4.63334e-21
-4.67834e-21
-1.56351e-21
2.60412e-21
9.24214e-22
-2.58302e-22
-4.06508e-21
-4.11943e-21
-4.23019e-21
-3.40352e-21
-1.83209e-21
-8.68024e-22
-3.90386e-21
-1.28444e-21
-1.08896e-21
-2.90424e-21
-2.1735e-21
-9.90758e-23
-6.03023e-22
-5.2993e-21
2.07888e-21
5.00911e-22
1.32099e-21
-1.38659e-21
-5.23511e-22
-9.4209e-21
-1.21425e-20
-1.14923e-20
-1.26222e-20
-1.1622e-20
-1.19042e-20
-8.31049e-21
-6.78678e-21
-1.00682e-20
-7.96356e-21
-6.3275e-21
-8.20274e-21
-4.89241e-21
-2.34397e-21
-5.22845e-21
-4.13035e-21
-3.19586e-21
-1.94692e-21
-7.71759e-22
3.0265e-21
-4.55328e-22
-6.18823e-21
-8.00072e-21
-5.36098e-21
-2.99979e-21
-1.42847e-21
-9.7629e-22
9.75486e-22
-2.31935e-21
-4.73563e-21
-1.6247e-21
-1.27204e-21
-9.37629e-22
-5.25097e-22
-1.96128e-21
7.36025e-22
-5.38876e-22
-1.55518e-21
-2.00537e-21
-1.7859e-21
-1.37842e-20
-1.29983e-20
-1.22805e-20
-1.1018e-20
-1.55943e-20
-1.24756e-20
-8.15191e-21
-5.33662e-21
-7.69628e-21
-9.81262e-21
-7.86208e-21
-8.08884e-21
-4.35959e-21
-4.71341e-21
-6.56998e-21
-5.3405e-21
-6.64461e-21
-1.84879e-21
8.80634e-22
2.49944e-21
-3.22896e-22
-3.63319e-21
-7.92337e-21
-5.53718e-21
-4.67503e-21
-1.54691e-21
-1.32916e-21
-1.99287e-21
-1.99114e-21
-1.97637e-21
-3.84701e-22
-2.20284e-21
2.27452e-21
3.08762e-22
-3.13583e-21
-3.12583e-22
5.71892e-22
-2.18362e-21
-2.91761e-21
-1.45052e-21
-1.43791e-20
-1.45837e-20
-1.07911e-20
-1.15783e-20
-1.45847e-20
-1.315e-20
-8.8546e-21
-9.18189e-21
-9.37205e-21
-9.76494e-21
-9.34338e-21
-1.10304e-20
-5.88891e-21
-3.29159e-21
-5.81816e-21
-6.12434e-21
-7.93154e-21
-1.18908e-21
1.50554e-21
1.80269e-21
-5.87893e-22
-4.08935e-21
-6.64751e-21
-5.5681e-21
-4.66191e-21
-2.6915e-21
-6.47454e-22
-2.27447e-21
-3.83395e-21
-2.24886e-21
-3.72905e-21
-8.92092e-23
4.44942e-21
4.31246e-22
-2.95974e-21
-7.77441e-22
-1.40908e-21
-1.01947e-21
7.97928e-22
6.413e-22
-1.7203e-20
-1.67902e-20
-1.3023e-20
-1.19139e-20
-1.48522e-20
-1.17255e-20
-1.06988e-20
-8.51152e-21
-1.1232e-20
-1.10998e-20
-1.04381e-20
-8.86182e-21
-5.7715e-21
-6.06847e-21
-6.9534e-21
-5.99318e-21
-2.45935e-21
-8.58105e-22
6.19688e-22
-2.32707e-22
-2.12562e-21
-1.56374e-21
-5.96947e-21
-8.59049e-21
-4.40634e-21
-2.08308e-21
-2.50844e-21
-2.41958e-21
-1.52648e-21
-2.40403e-21
-3.54623e-21
2.44833e-22
1.65443e-21
-1.86656e-21
-4.91866e-21
-1.38095e-21
-9.52359e-22
-1.3919e-21
-1.89048e-22
4.69375e-22
-1.39299e-20
-1.49265e-20
-1.37123e-20
-1.35081e-20
-1.46279e-20
-1.04744e-20
-1.14285e-20
-1.1514e-20
-1.29333e-20
-1.11162e-20
-8.79083e-21
-9.89704e-21
-6.82803e-21
-5.09307e-21
-6.93681e-21
-5.70468e-21
-2.06408e-21
-4.50881e-22
-9.84823e-22
-1.39584e-21
-2.75387e-21
-5.77415e-21
-7.29029e-21
-5.53574e-21
-3.78544e-21
-2.3798e-22
-8.97927e-22
-2.56619e-21
-3.202e-21
-3.97272e-21
-5.68833e-21
6.44523e-22
7.59429e-22
-3.90354e-21
-3.20819e-21
-5.68873e-22
6.39068e-22
-1.14809e-21
-2.27839e-21
-7.7148e-22
-1.5731e-20
-1.55971e-20
-1.79691e-20
-1.42161e-20
-1.30818e-20
-1.20998e-20
-1.19789e-20
-9.23706e-21
-1.06963e-20
-1.37997e-20
-9.80701e-21
-1.09239e-20
-6.47398e-21
-6.8442e-21
-7.65727e-21
-5.76146e-21
-2.90634e-21
-5.42132e-22
-4.65992e-21
-3.63734e-21
-2.15479e-21
-5.99221e-21
-7.49504e-21
-7.48796e-21
-4.27005e-21
1.77702e-22
2.62978e-22
-1.50639e-21
1.02257e-22
-1.39918e-21
-3.63285e-21
-1.49829e-21
-3.89674e-21
-7.47334e-22
-2.12956e-21
4.1639e-22
-5.49196e-22
-2.41174e-21
-2.07659e-21
-1.76737e-21
-1.61262e-20
-1.51921e-20
-1.65092e-20
-1.71792e-20
-1.34007e-20
-1.23914e-20
-1.37942e-20
-1.24509e-20
-8.06541e-21
-1.1634e-20
-1.12569e-20
-9.83501e-21
-6.86976e-21
-7.18044e-21
-8.10418e-21
-6.32782e-21
-4.14795e-21
-2.57309e-21
-2.40218e-21
-6.68788e-22
-5.64322e-21
-7.43627e-21
-6.88661e-21
-8.23321e-21
-6.45359e-21
-7.11855e-22
3.17826e-21
-1.62749e-21
-1.2649e-21
-3.05279e-21
-1.14031e-21
-1.60858e-21
-3.0766e-21
-9.9557e-22
-1.51532e-21
-1.81462e-22
1.20277e-21
-1.62016e-21
-1.3167e-21
-8.85764e-22
-1.61103e-20
-1.79856e-20
-1.99007e-20
-1.65859e-20
-1.31448e-20
-1.09603e-20
-1.36887e-20
-1.50451e-20
-1.00652e-20
-1.1013e-20
-1.14864e-20
-1.19202e-20
-5.24054e-21
-5.9011e-21
-8.35747e-21
-7.59575e-21
-4.95779e-21
-2.33269e-21
4.60123e-22
-1.82782e-22
-7.75619e-21
-6.81247e-21
-6.84812e-21
-1.07264e-20
-5.3492e-21
3.50646e-22
1.87301e-21
-3.4613e-22
5.44696e-22
-3.70636e-21
-4.45382e-21
-3.36592e-21
-8.63673e-22
-1.32764e-23
-1.86641e-21
-2.31665e-21
-7.83282e-22
-9.30678e-22
-2.58928e-21
-2.4183e-21
-1.92973e-20
-2.0455e-20
-1.89915e-20
-1.67305e-20
-1.26158e-20
-1.31967e-20
-1.48555e-20
-1.23913e-20
-9.30059e-21
-1.35429e-20
-1.21535e-20
-1.06881e-20
-9.70183e-21
-6.3773e-21
-7.95013e-21
-6.73949e-21
-7.1169e-21
-2.0735e-21
1.08897e-21
-1.55596e-21
-4.86389e-21
-7.22541e-21
-7.10644e-21
-8.76663e-21
-2.38232e-21
-2.91927e-21
-7.00319e-22
-7.39431e-22
7.12498e-22
-4.15893e-21
-4.65626e-21
-3.79395e-21
-4.30139e-22
3.30799e-22
-3.10774e-21
-1.06889e-21
4.08857e-22
-1.98939e-21
-4.00661e-21
-1.2691e-21
-2.22008e-20
-2.05113e-20
-1.68968e-20
-1.68224e-20
-1.64734e-20
-1.43713e-20
-1.25946e-20
-1.16005e-20
-1.29496e-20
-1.46874e-20
-1.08257e-20
-9.26602e-21
-9.10831e-21
-6.72033e-21
-9.23428e-21
-7.78566e-21
-4.80372e-21
-1.67181e-21
-3.18266e-21
-1.58142e-21
-4.98229e-21
-3.32802e-21
-5.84701e-21
-7.20708e-21
-5.10769e-21
-1.75207e-21
-2.72462e-22
2.00837e-22
-5.84548e-22
-2.73776e-21
-4.41356e-21
-3.49862e-21
-9.25545e-22
-2.41094e-21
-5.35421e-21
9.42074e-22
-1.69662e-22
-2.47051e-21
-2.07503e-21
7.22812e-22
-2.49654e-20
-2.22951e-20
-1.78115e-20
-1.84292e-20
-1.46244e-20
-1.33472e-20
-1.31995e-20
-1.14218e-20
-1.30479e-20
-1.49486e-20
-1.23665e-20
-8.96133e-21
-1.1772e-20
-8.00851e-21
-8.37209e-21
-9.46832e-21
-6.1692e-21
-2.25188e-21
-9.51652e-22
1.76559e-22
-4.91661e-21
-6.52782e-21
-5.09535e-21
-6.45358e-21
-5.96242e-21
-9.9636e-22
9.24973e-22
5.58568e-22
-7.11879e-22
-2.47738e-21
-2.96092e-21
-1.9385e-21
-7.55928e-22
-3.58441e-21
-2.65858e-21
-6.56046e-22
1.34612e-21
2.71264e-22
-2.9625e-21
1.15995e-21
-2.5523e-20
-2.24946e-20
-1.77762e-20
-1.50811e-20
-1.41249e-20
-1.25504e-20
-1.53163e-20
-1.34951e-20
-1.25787e-20
-1.56086e-20
-1.25446e-20
-1.03892e-20
-1.18905e-20
-9.30829e-21
-7.53348e-21
-7.55821e-21
-3.01461e-21
-2.4791e-21
-4.71678e-21
-2.60694e-21
-4.39018e-21
-6.89451e-21
-7.21213e-21
-4.58318e-21
-2.02521e-21
-1.7665e-21
1.4904e-22
1.41738e-22
-4.06267e-23
-2.50629e-21
-5.17695e-21
-1.9511e-21
7.38805e-23
-2.00319e-21
-3.82037e-21
-8.53441e-22
5.81524e-22
-1.43298e-22
-3.87705e-22
1.00825e-21
-2.20482e-20
-1.98754e-20
-2.13348e-20
-1.59465e-20
-1.47189e-20
-1.56436e-20
-1.49758e-20
-1.61793e-20
-1.28387e-20
-1.25576e-20
-1.37421e-20
-1.26122e-20
-1.4982e-20
-7.71043e-21
-4.69881e-21
-6.29523e-21
-3.54202e-21
-4.16355e-21
-5.12962e-21
-4.21628e-21
-5.29589e-21
-7.60577e-21
-7.45357e-21
-2.68512e-21
5.90218e-22
-3.30655e-21
-7.88479e-22
7.59594e-22
-1.03008e-21
-1.00422e-21
-2.96072e-21
-2.2232e-21
1.05133e-22
-2.31707e-21
-2.60081e-21
-9.03319e-22
-6.59902e-22
-1.10511e-21
-1.04753e-21
-5.21637e-22
-1.9857e-20
-1.96204e-20
-1.92369e-20
-1.57258e-20
-1.60331e-20
-1.76872e-20
-1.56042e-20
-1.55708e-20
-1.29806e-20
-1.32852e-20
-1.28184e-20
-1.35392e-20
-1.29518e-20
-1.01188e-20
-5.39461e-21
-2.67529e-21
-3.99967e-21
-3.84017e-21
-8.3518e-21
-6.03982e-21
-6.67702e-21
-4.31985e-21
-2.91565e-21
-2.0549e-21
1.29369e-21
-2.96285e-21
1.62211e-22
1.83748e-21
-2.13567e-21
-1.89784e-21
-3.82142e-21
-9.14102e-22
-3.80159e-22
-2.26752e-21
-3.11652e-21
-2.91237e-21
-5.51469e-22
6.60966e-22
4.57558e-22
3.78231e-22
-1.9757e-20
-1.90998e-20
-2.29751e-20
-1.67949e-20
-1.43982e-20
-1.69824e-20
-1.56149e-20
-1.33671e-20
-1.54828e-20