/*--------------------------------*- C++ -*----------------------------------*\
| =========                 |                                                 |
| \\      /  F ield         | OpenFOAM: The Open Source CFD Toolbox           |
|  \\    /   O peration     | Version:  v2012                                 |
|   \\  /    A nd           | Website:  www.openfoam.com                      |
|    \\/     M anipulation  |                                                 |
\*---------------------------------------------------------------------------*/
FoamFile
{
    version     2.0;
    format      ascii;
    class       surfaceScalarField;
    location    "15";
    object      phi;
}
// * * * * * * * * * * * * * * * * * * * * * * * * * * * * * * * * * * * * * //

dimensions      [0 3 -1 0 0 0 0];
oriented        oriented;


internalField   nonuniform List<scalar> 
187200
(
1.875e-06
1.62266e-22
2.47171e-22
1.875e-06
1.69399e-22
2.8705e-22
1.875e-06
3.0184e-22
3.95438e-22
1.875e-06
2.20979e-22
2.51681e-22
1.875e-06
2.07787e-22
1.17102e-22
1.875e-06
3.36117e-22
2.27094e-22
1.875e-06
2.10099e-22
1.13072e-22
1.875e-06
1.17267e-22
7.22328e-23
1.875e-06
1.39591e-22
2.19827e-22
1.875e-06
1.39969e-22
2.03897e-22
1.875e-06
1.30609e-22
1.54853e-22
1.875e-06
1.45155e-22
1.45282e-22
1.875e-06
9.39674e-23
1.35451e-22
1.875e-06
9.781e-25
4.40613e-23
1.875e-06
6.37337e-23
1.42705e-22
1.875e-06
1.01916e-22
8.07072e-23
1.875e-06
1.30211e-22
9.95708e-23
1.875e-06
-1.59205e-24
8.97373e-23
1.875e-06
3.01572e-23
-9.26954e-23
1.875e-06
2.06284e-22
-9.08942e-23
1.875e-06
-9.69093e-23
-7.82324e-23
1.875e-06
-7.38351e-23
-4.09558e-23
1.875e-06
1.13609e-22
3.61485e-23
1.875e-06
3.27939e-22
8.93442e-23
1.875e-06
1.93431e-22
-1.95182e-24
1.875e-06
-1.52301e-23
1.83234e-23
1.875e-06
2.23007e-23
9.49795e-23
1.875e-06
7.44951e-23
1.10782e-22
1.875e-06
3.69674e-23
1.35745e-22
1.875e-06
-4.45005e-23
1.33799e-22
1.875e-06
-1.73114e-22
1.55911e-22
1.875e-06
-8.21161e-23
7.08187e-24
1.875e-06
1.02656e-22
1.27085e-23
1.875e-06
1.03135e-23
5.58665e-23
1.875e-06
-1.08712e-22
6.05419e-23
1.875e-06
-1.60111e-22
-1.10307e-22
1.875e-06
-1.25168e-22
-1.52052e-22
1.875e-06
-3.43664e-23
-1.78431e-23
1.875e-06
5.97153e-23
-2.53898e-23
6.99838e-23
2.88214e-24
1.875e-06
8.20941e-23
1.40328e-22
1.875e-06
1.78082e-22
4.11347e-22
1.875e-06
2.32269e-22
5.99885e-22
1.875e-06
2.49268e-22
5.63772e-22
1.875e-06
1.76061e-22
3.26477e-22
1.875e-06
1.86054e-22
3.60754e-22
1.875e-06
2.09278e-22
3.9047e-22
1.875e-06
2.42858e-22
3.33424e-22
1.875e-06
2.19594e-22
4.03193e-22
1.875e-06
1.01295e-22
4.72821e-22
1.875e-06
8.99806e-23
3.49236e-22
1.875e-06
1.38311e-22
2.39726e-22
1.875e-06
1.40599e-22
3.09475e-22
1.875e-06
7.51075e-23
2.39218e-22
1.875e-06
-3.67073e-23
2.65006e-22
1.875e-06
-6.96772e-23
5.978e-23
1.875e-06
1.2722e-22
-1.46721e-23
1.875e-06
2.25721e-22
1.91931e-22
1.875e-06
1.76941e-22
3.89574e-23
1.875e-06
1.53791e-23
-1.22712e-22
1.875e-06
4.31414e-23
8.73009e-23
1.875e-06
7.16342e-24
7.8659e-23
1.875e-06
8.73475e-23
-2.55009e-23
1.875e-06
2.05888e-23
-1.85825e-23
1.875e-06
-9.85087e-23
-7.06683e-23
1.875e-06
8.87372e-23
1.02068e-22
1.875e-06
1.22176e-22
2.23326e-23
1.875e-06
1.69095e-23
6.0019e-23
1.875e-06
-4.82638e-23
1.80313e-22
1.875e-06
1.53691e-24
9.81165e-23
1.875e-06
5.83176e-25
2.08889e-22
1.875e-06
9.74824e-24
1.51611e-22
1.875e-06
-5.88775e-23
7.96526e-23
1.875e-06
-9.65218e-23
5.89047e-23
1.875e-06
-6.40559e-23
1.18646e-22
1.875e-06
-1.16343e-22
-5.82159e-23
1.875e-06
-1.74576e-22
-2.04811e-22
1.875e-06
9.38266e-24
1.81337e-23
1.875e-06
9.28922e-23
7.26989e-23
8.31147e-23
3.55621e-23
1.875e-06
1.8831e-22
2.2887e-22
1.875e-06
1.7999e-22
4.30652e-22
1.875e-06
1.13645e-22
5.11079e-22
1.875e-06
2.27906e-22
6.54433e-22
1.875e-06
2.61464e-22
5.77569e-22
1.875e-06
2.40135e-22
3.72181e-22
1.875e-06
1.55144e-22
4.64517e-22
1.875e-06
1.22796e-22
5.66008e-22
1.875e-06
1.27642e-22
6.10773e-22
1.875e-06
1.87916e-22
4.97515e-22
1.875e-06
1.88429e-22
3.70261e-22
1.875e-06
1.33835e-22
3.26084e-22
1.875e-06
1.37712e-22
2.39265e-22
1.875e-06
7.28506e-23
1.92245e-22
1.875e-06
1.24709e-22
3.38433e-22
1.875e-06
1.34604e-22
2.2653e-22
1.875e-06
1.12104e-23
8.45494e-23
1.875e-06
-5.71826e-24
4.3078e-23
1.875e-06
-2.22355e-23
-1.29797e-22
1.875e-06
-4.01519e-23
-8.24836e-23
1.875e-06
-6.84334e-23
1.28731e-22
1.875e-06
9.30414e-23
2.06603e-22
1.875e-06
2.0025e-22
5.62895e-23
1.875e-06
1.03058e-22
-1.03227e-23
1.875e-06
6.34778e-23
1.29683e-22
1.875e-06
6.56191e-23
8.64148e-23
1.875e-06
-2.72559e-24
3.56095e-23
1.875e-06
-8.39622e-23
1.03666e-22
1.875e-06
1.42141e-23
1.639e-22
1.875e-06
5.59256e-23
1.61566e-22
1.875e-06
-2.65875e-23
2.51791e-22
1.875e-06
-3.08898e-23
1.66763e-22
1.875e-06
-1.88457e-23
2.09373e-23
1.875e-06
-7.43927e-23
5.37389e-23
1.875e-06
-1.44589e-22
1.49953e-22
1.875e-06
-1.2026e-22
-7.44712e-23
1.875e-06
-5.15891e-23
-4.60101e-23
1.875e-06
9.54967e-23
-2.66517e-23
1.875e-06
1.17413e-22
1.42722e-23
7.85978e-23
8.57746e-24
1.875e-06
2.40614e-22
2.09345e-22
1.875e-06
1.73003e-22
5.34148e-22
1.875e-06
1.40154e-22
6.20916e-22
1.875e-06
6.54956e-23
6.03462e-22
1.875e-06
1.61009e-22
5.72204e-22
1.875e-06
1.53124e-22
5.19443e-22
1.875e-06
1.69574e-22
5.73935e-22
1.875e-06
1.22573e-22
5.71128e-22
1.875e-06
7.15777e-23
5.79913e-22
1.875e-06
1.65939e-22
5.36095e-22
1.875e-06
1.42662e-22
4.7364e-22
1.875e-06
1.09697e-22
3.84773e-22
1.875e-06
4.60884e-23
2.9395e-22
1.875e-06
6.57688e-23
2.86631e-22
1.875e-06
1.83055e-22
3.00971e-22
1.875e-06
2.04058e-22
1.74677e-22
1.875e-06
8.93948e-23
9.81094e-23
1.875e-06
-5.41598e-23
8.76569e-23
1.875e-06
-1.19281e-22
2.04834e-23
1.875e-06
-4.62102e-23
-1.06765e-22
1.875e-06
3.35757e-23
2.35158e-22
1.875e-06
5.0716e-23
2.48864e-22
1.875e-06
1.19974e-22
6.8373e-23
1.875e-06
8.78615e-23
3.8232e-23
1.875e-06
4.03344e-23
1.08063e-22
1.875e-06
-7.20527e-25
8.76834e-23
1.875e-06
-2.14108e-23
6.64935e-23
1.875e-06
2.54324e-23
3.60914e-23
1.875e-06
5.54396e-23
1.16959e-22
1.875e-06
-3.87643e-23
2.15e-22
1.875e-06
1.03022e-23
2.80147e-22
1.875e-06
5.73858e-23
1.53014e-22
1.875e-06
-4.59281e-23
1.22605e-23
1.875e-06
-1.07173e-22
1.05756e-22
1.875e-06
1.12716e-23
1.859e-22
1.875e-06
-4.64859e-23
6.37222e-24
1.875e-06
-6.5203e-24
4.19973e-23
1.875e-06
7.50205e-23
4.02148e-23
1.875e-06
2.1353e-23
-1.21117e-23
6.95426e-23
9.66792e-24
1.875e-06
-3.36591e-23
1.80206e-22
1.875e-06
1.36298e-22
5.62751e-22
1.875e-06
1.02889e-22
6.10395e-22
1.875e-06
1.2877e-22
6.54315e-22
1.875e-06
7.32032e-23
6.92413e-22
1.875e-06
5.97768e-23
5.9233e-22
1.875e-06
1.06073e-22
6.20265e-22
1.875e-06
2.84269e-22
5.80682e-22
1.875e-06
2.16065e-22
5.75514e-22
1.875e-06
1.10184e-22
5.52636e-22
1.875e-06
1.27165e-22
4.95222e-22
1.875e-06
1.19871e-22
4.21359e-22
1.875e-06
9.46361e-23
3.18574e-22
1.875e-06
1.25384e-22
3.7304e-22
1.875e-06
6.72012e-23
2.6716e-22
1.875e-06
4.59049e-23
1.30935e-22
1.875e-06
7.67608e-23
1.99703e-22
1.875e-06
-1.53236e-22
1.65887e-22
1.875e-06
-1.41513e-22
8.79091e-23
1.875e-06
-3.15668e-23
1.50267e-23
1.875e-06
1.80029e-23
2.26717e-22
1.875e-06
6.55983e-23
1.64135e-22
1.875e-06
8.23644e-23
4.13883e-23
1.875e-06
8.92458e-23
5.37765e-23
1.875e-06
1.03717e-22
2.13406e-22
1.875e-06
5.79147e-23
1.52968e-22
1.875e-06
6.61532e-23
1.11355e-22
1.875e-06
-3.1941e-23
7.50419e-23
1.875e-06
-7.59174e-23
4.32525e-23
1.875e-06
4.73731e-23
1.87588e-22
1.875e-06
1.90195e-22
2.752e-22
1.875e-06
7.54431e-23
1.1394e-22
1.875e-06
-1.21783e-23
-9.61263e-23
1.875e-06
4.25009e-24
4.9809e-23
1.875e-06
2.04748e-23
1.11329e-22
1.875e-06
-2.58297e-23
6.75718e-23
1.875e-06
3.29162e-23
1.38639e-23
1.875e-06
-8.922e-24
1.75837e-23
1.875e-06
1.1614e-23
5.76527e-23
-1.12313e-23
-6.30304e-23
1.875e-06
5.88149e-23
3.67566e-22
1.875e-06
1.16957e-22
6.00142e-22
1.875e-06
4.3659e-23
5.72565e-22
1.875e-06
6.04131e-23
6.25551e-22
1.875e-06
1.06404e-22
7.21351e-22
1.875e-06
1.44293e-22
7.17791e-22
1.875e-06
1.29869e-22
6.61934e-22
1.875e-06
1.76498e-22
6.31245e-22
1.875e-06
2.06145e-22
6.12246e-22
1.875e-06
1.01768e-22
5.55054e-22
1.875e-06
8.57859e-23
5.27174e-22
1.875e-06
1.16261e-22
5.41771e-22
1.875e-06
1.02687e-22
3.61029e-22
1.875e-06
1.59842e-22
2.83448e-22
1.875e-06
8.4816e-23
2.7728e-22
1.875e-06
-2.12736e-23
2.4549e-22
1.875e-06
-1.42258e-22
2.36921e-22
1.875e-06
2.7345e-23
2.58733e-22
1.875e-06
-9.78551e-23
1.33737e-22
1.875e-06
-8.60696e-23
1.23291e-22
1.875e-06
1.60172e-22
2.69674e-22
1.875e-06
1.54518e-22
1.71717e-22
1.875e-06
1.33025e-22
4.60435e-23
1.875e-06
6.48197e-23
8.38642e-23
1.875e-06
4.03814e-23
1.63103e-22
1.875e-06
4.55514e-23
1.35803e-22
1.875e-06
1.28945e-23
4.65468e-23
1.875e-06
-2.85504e-23
1.33431e-22
1.875e-06
-7.76425e-23
1.64238e-22
1.875e-06
-4.02066e-23
1.61831e-22
1.875e-06
9.92728e-23
1.94366e-22
1.875e-06
1.55492e-23
1.24968e-23
1.875e-06
1.69734e-23
-2.4169e-22
1.875e-06
1.47934e-22
2.20496e-23
1.875e-06
8.61442e-23
6.65765e-23
1.875e-06
8.82448e-23
7.72355e-23
1.875e-06
-1.34681e-23
2.60638e-24
1.875e-06
2.90822e-23
-5.6121e-23
1.875e-06
1.19838e-22
-1.08335e-22
2.41658e-23
-1.07427e-22
1.875e-06
7.13458e-24
4.07042e-22
1.875e-06
2.38399e-23
5.60738e-22
1.875e-06
1.38826e-22
7.10129e-22
1.875e-06
7.25406e-23
6.87622e-22
1.875e-06
1.46261e-22
7.78074e-22
1.875e-06
3.26835e-23
6.83085e-22
1.875e-06
1.09092e-22
7.31813e-22
1.875e-06
2.48575e-22
6.3507e-22
1.875e-06
2.01679e-22
7.17643e-22
1.875e-06
1.63027e-22
6.58249e-22
1.875e-06
1.63296e-22
6.15032e-22
1.875e-06
6.30255e-23
4.07942e-22
1.875e-06
1.14339e-22
3.20573e-22
1.875e-06
1.16245e-22
3.54272e-22
1.875e-06
4.40609e-23
3.46848e-22
1.875e-06
1.45083e-24
2.63441e-22
1.875e-06
-7.66201e-23
2.39286e-22
1.875e-06
-5.64186e-24
2.15823e-22
1.875e-06
6.75003e-23
2.38559e-22
1.875e-06
1.07683e-22
2.4752e-22
1.875e-06
1.5005e-22
2.3419e-22
1.875e-06
1.34316e-22
5.81397e-23
1.875e-06
-2.7436e-23
-3.18956e-23
1.875e-06
-2.50813e-23
1.49702e-22
1.875e-06
9.12268e-25
1.59803e-22
1.875e-06
7.28941e-23
9.42755e-23
1.875e-06
2.41771e-23
8.46564e-23
1.875e-06
-2.0644e-23
1.74154e-22
1.875e-06
-6.47375e-23
1.77788e-22
1.875e-06
-1.63935e-23
1.37472e-22
1.875e-06
5.6026e-24
1.09344e-22
1.875e-06
5.44147e-23
3.26378e-23
1.875e-06
6.55086e-23
-1.38793e-22
1.875e-06
1.2701e-22
3.94463e-23
1.875e-06
1.18971e-22
1.01395e-22
1.875e-06
2.05619e-23
1.86604e-23
1.875e-06
3.32844e-23
-7.54573e-23
1.875e-06
5.2099e-23
-1.30233e-22
1.875e-06
-1.30397e-22
-2.05243e-22
-6.08599e-23
-1.73534e-22
1.875e-06
1.728e-22
3.13023e-22
1.875e-06
9.87957e-23
5.56383e-22
1.875e-06
1.04636e-22
6.84041e-22
1.875e-06
1.84773e-22
7.82176e-22
1.875e-06
8.17857e-23
7.81036e-22
1.875e-06
1.20925e-22
7.35664e-22
1.875e-06
1.90273e-22
7.85305e-22
1.875e-06
3.4661e-23
6.53083e-22
1.875e-06
9.89669e-23
6.97523e-22
1.875e-06
1.85502e-22
6.88134e-22
1.875e-06
1.23132e-22
5.18538e-22
1.875e-06
1.05641e-22
3.72921e-22
1.875e-06
-4.582e-23
3.78727e-22
1.875e-06
7.58326e-23
2.86362e-22
1.875e-06
9.50478e-23
3.71514e-22
1.875e-06
5.15607e-23
2.85102e-22
1.875e-06
5.83929e-23
3.42737e-22
1.875e-06
5.67822e-23
2.17938e-22
1.875e-06
1.87537e-22
2.39591e-22
1.875e-06
1.38024e-22
2.28367e-22
1.875e-06
8.85874e-23
1.68133e-22
1.875e-06
5.10652e-23
1.38403e-22
1.875e-06
-3.92033e-23
1.01183e-22
1.875e-06
6.06792e-23
1.56006e-22
1.875e-06
-3.58766e-23
1.7179e-22
1.875e-06
-6.05884e-23
4.74923e-24
1.875e-06
2.34057e-23
3.49958e-23
1.875e-06
9.21146e-24
1.95591e-22
1.875e-06
-3.50825e-23
2.26064e-22
1.875e-06
-3.35826e-23
1.79263e-22
1.875e-06
-1.88969e-22
1.40358e-22
1.875e-06
-5.97351e-23
-2.80038e-23
1.875e-06
1.80038e-22
-2.77573e-24
1.875e-06
1.74586e-22
1.16019e-22
1.875e-06
1.3813e-22
-2.4891e-23
1.875e-06
3.64038e-23
-1.10273e-22
1.875e-06
-4.64508e-23
-2.26271e-22
1.875e-06
-1.71918e-22
-2.77207e-22
1.875e-06
-1.16021e-22
-1.43043e-22
-4.13219e-23
-1.31418e-22
1.875e-06
-2.22975e-22
1.78092e-22
1.875e-06
-1.85636e-23
5.74177e-22
1.875e-06
1.51887e-22
8.20964e-22
1.875e-06
9.26713e-23
7.91648e-22
1.875e-06
6.76848e-23
7.69758e-22
1.875e-06
1.57731e-22
8.33366e-22
1.875e-06
1.42868e-22
8.0771e-22
1.875e-06
1.27546e-22
6.90858e-22
1.875e-06
6.53167e-23
6.6976e-22
1.875e-06
7.50423e-23
6.58454e-22
1.875e-06
1.11148e-22
4.99693e-22
1.875e-06
-4.25123e-23
4.41035e-22
1.875e-06
3.87135e-23
4.33684e-22
1.875e-06
-3.73802e-23
3.18609e-22
1.875e-06
4.57475e-23
3.89952e-22
1.875e-06
9.8474e-23
3.52408e-22
1.875e-06
1.6417e-22
3.45216e-22
1.875e-06
1.39114e-22
2.51537e-22
1.875e-06
-6.08204e-23
2.57244e-22
1.875e-06
1.18208e-23
2.55323e-22
1.875e-06
5.86436e-23
1.52919e-22
1.875e-06
1.95964e-24
1.69389e-22
1.875e-06
8.91475e-23
1.84982e-22
1.875e-06
1.6655e-23
1.3543e-22
1.875e-06
7.88726e-23
2.76998e-22
1.875e-06
-1.23328e-23
6.39696e-23
1.875e-06
-9.19307e-23
-3.52329e-23
1.875e-06
1.12026e-24
9.6579e-23
1.875e-06
9.46321e-23
1.41095e-22
1.875e-06
1.27896e-23
1.56602e-22
1.875e-06
-2.87098e-23
1.52388e-22
1.875e-06
-5.35974e-23
7.99648e-23
1.875e-06
-1.55713e-22
2.31686e-23
1.875e-06
-1.27517e-22
-1.21304e-22
1.875e-06
-3.62677e-23
-2.19224e-22
1.875e-06
2.0631e-22
-1.95193e-22
1.875e-06
9.45733e-23
-1.9425e-22
1.875e-06
-1.27878e-22
-1.89211e-22
1.875e-06
-7.93495e-23
-1.08849e-22
-1.08268e-22
-6.87767e-23
1.875e-06
-1.88848e-23
4.60408e-22
1.875e-06
6.75663e-23
6.30724e-22
1.875e-06
1.11766e-22
7.63792e-22
1.875e-06
2.05921e-22
9.36144e-22
1.875e-06
8.91466e-23
8.64793e-22
1.875e-06
6.47407e-23
7.86508e-22
1.875e-06
1.83785e-22
8.97094e-22
1.875e-06
1.32062e-22
8.38539e-22
1.875e-06
1.06558e-22
5.74816e-22
1.875e-06
1.82707e-22
6.13592e-22
1.875e-06
6.8752e-23
5.34173e-22
1.875e-06
-3.42145e-23
4.717e-22
1.875e-06
-7.87838e-24
4.357e-22
1.875e-06
-2.58398e-23
4.39461e-22
1.875e-06
-3.89704e-23
3.78875e-22
1.875e-06
7.46782e-23
3.58507e-22
1.875e-06
1.36283e-22
3.72375e-22
1.875e-06
1.42059e-23
2.7956e-22
1.875e-06
-4.62583e-23
2.53674e-22
1.875e-06
-8.71111e-24
1.61381e-22
1.875e-06
8.63442e-23
2.71378e-22
1.875e-06
2.11661e-22
2.97772e-22
1.875e-06
8.02404e-24
1.50832e-22
1.875e-06
2.55622e-23
1.98155e-22
1.875e-06
4.59646e-23
3.35926e-22
1.875e-06
4.316e-24
1.06744e-22
1.875e-06
-8.40052e-23
-7.73413e-23
1.875e-06
-4.47942e-23
7.70127e-23
1.875e-06
7.52484e-23
6.2836e-23
1.875e-06
6.38431e-23
1.39514e-22
1.875e-06
2.75394e-23
1.01931e-22
1.875e-06
4.33031e-24
7.73236e-23
1.875e-06
-1.00517e-22
7.73465e-23
1.875e-06
-2.03273e-22
-3.64916e-23
1.875e-06
-1.4608e-23
-1.5352e-22
1.875e-06
1.39373e-22
-3.12934e-22
1.875e-06
7.83654e-23
-3.91249e-22
1.875e-06
5.04636e-23
-1.67658e-22
1.875e-06
-4.1184e-23
-1.5855e-22
-3.28759e-23
-1.26279e-22
1.875e-06
1.60924e-22
5.16522e-22
1.875e-06
1.57605e-22
7.43073e-22
1.875e-06
1.57024e-22
8.66625e-22
1.875e-06
9.54043e-23
8.74974e-22
1.875e-06
1.47311e-22
8.81016e-22
1.875e-06
1.86574e-22
8.15714e-22
1.875e-06
7.35792e-23
8.16185e-22
1.875e-06
1.63134e-22
8.3101e-22
1.875e-06
3.17031e-23
6.46587e-22
1.875e-06
4.31701e-23
5.2174e-22
1.875e-06
1.66461e-22
5.29905e-22
1.875e-06
7.72082e-23
6.28627e-22
1.875e-06
2.38164e-23
4.1906e-22
1.875e-06
8.77243e-23
4.41714e-22
1.875e-06
2.93159e-23
4.80833e-22
1.875e-06
-3.10361e-23
3.76673e-22
1.875e-06
8.83686e-24
3.42516e-22
1.875e-06
-1.42941e-23
3.14803e-22
1.875e-06
7.94105e-23
2.72325e-22
1.875e-06
1.13976e-22
1.36528e-22
1.875e-06
6.22402e-23
2.65687e-22
1.875e-06
3.01666e-24
1.60334e-22
1.875e-06
1.84435e-24
2.3319e-22
1.875e-06
-9.43479e-24
3.21042e-22
1.875e-06
3.38509e-23
1.87163e-22
1.875e-06
-9.79544e-23
3.85186e-23
1.875e-06
-1.0687e-22
5.16143e-23
1.875e-06
1.39129e-23
6.95142e-23
1.875e-06
7.35603e-23
-4.49378e-23
1.875e-06
-4.66873e-23
2.85939e-23
1.875e-06
9.01111e-24
1.28512e-22
1.875e-06
-1.39036e-23
9.85896e-23
1.875e-06
-8.49964e-23
4.82899e-23
1.875e-06
-1.08603e-22
8.40821e-23
1.875e-06
-2.15429e-23
-1.08106e-22
1.875e-06
-1.31284e-22
-3.63076e-22
1.875e-06
-2.3015e-23
-3.48269e-22
1.875e-06
5.75208e-23
-2.25684e-22
1.875e-06
6.59196e-23
-6.51984e-23
7.53056e-23
-5.03486e-23
1.875e-06
2.63355e-22
5.46928e-22
1.875e-06
1.80481e-22
7.7463e-22
1.875e-06
1.30894e-22
8.53026e-22
1.875e-06
5.55962e-23
8.92807e-22
1.875e-06
1.12365e-22
8.5866e-22
1.875e-06
6.86306e-23
8.25346e-22
1.875e-06
1.13181e-22
8.83415e-22
1.875e-06
5.89694e-23
6.6634e-22
1.875e-06
1.61716e-22
6.24883e-22
1.875e-06
8.92559e-23
6.19942e-22
1.875e-06
2.46987e-23
4.84503e-22
1.875e-06
2.46144e-23
5.96425e-22
1.875e-06
1.17526e-22
5.9279e-22
1.875e-06
1.4825e-22
4.1854e-22
1.875e-06
6.2839e-23
4.53632e-22
1.875e-06
-1.60108e-23
4.03274e-22
1.875e-06
-6.73915e-23
4.195e-22
1.875e-06
2.64883e-23
3.63016e-22
1.875e-06
1.46326e-22
2.28347e-22
1.875e-06
9.61516e-23
1.79081e-22
1.875e-06
1.59311e-23
2.18945e-22
1.875e-06
-9.159e-23
1.83506e-22
1.875e-06
-3.58e-23
1.87135e-22
1.875e-06
-3.30294e-23
2.555e-22
1.875e-06
-1.39092e-22
6.45096e-23
1.875e-06
-6.06823e-23
1.58899e-22
1.875e-06
-9.55047e-24
1.64026e-22
1.875e-06
9.99008e-24
9.06049e-23
1.875e-06
-7.07878e-23
-1.19497e-22
1.875e-06
-4.77558e-23
8.48164e-23
1.875e-06
4.77111e-23
1.07554e-22
1.875e-06
7.41688e-24
6.42279e-23
1.875e-06
-5.02056e-23
3.0327e-23
1.875e-06
5.60899e-23
1.11259e-22
1.875e-06
-1.48416e-22
-1.15105e-22
1.875e-06
-1.44069e-22
-2.59254e-22
1.875e-06
-1.34416e-25
-2.92806e-22
1.875e-06
1.78281e-22
-1.68702e-22
1.875e-06
8.2481e-23
-8.50033e-23
2.81625e-23
-7.18435e-23
1.875e-06
8.96048e-23
4.81838e-22
1.875e-06
1.45066e-22
7.55005e-22
1.875e-06
2.52966e-23
7.50015e-22
1.875e-06
8.23402e-23
9.32462e-22
1.875e-06
-2.41482e-23
9.60107e-22
1.875e-06
-3.69608e-24
8.51238e-22
1.875e-06
3.81212e-23
8.16761e-22
1.875e-06
-1.4018e-23
6.93308e-22
1.875e-06
8.96726e-23
6.73729e-22
1.875e-06
1.28911e-22
6.10376e-22
1.875e-06
1.52422e-23
4.7137e-22
1.875e-06
8.24418e-23
5.56833e-22
1.875e-06
1.52785e-22
5.50589e-22
1.875e-06
1.50787e-22
4.38895e-22
1.875e-06
6.01092e-23
4.84337e-22
1.875e-06
-1.09945e-23
4.65017e-22
1.875e-06
-6.77423e-23
4.0738e-22
1.875e-06
-4.52065e-23
3.05956e-22
1.875e-06
-1.19323e-24
3.05209e-22
1.875e-06
3.44967e-23
2.04686e-22
1.875e-06
1.0014e-22
2.54827e-22
1.875e-06
6.96578e-23
1.718e-22
1.875e-06
1.9326e-24
1.57909e-22
1.875e-06
-3.88213e-24
2.48875e-22
1.875e-06
-8.47635e-23
2.2072e-22
1.875e-06
-4.46555e-23
1.46618e-22
1.875e-06
1.53043e-23
7.02217e-23
1.875e-06
-2.17462e-23
-1.45522e-23
1.875e-06
-8.70603e-23
-5.91282e-23
1.875e-06
-1.68431e-22
1.01713e-22
1.875e-06
-1.12056e-22
1.91888e-23
1.875e-06
-1.18846e-23
-4.47469e-24
1.875e-06
4.605e-23
4.57551e-23
1.875e-06
4.69472e-23
7.27164e-23
1.875e-06
-1.22251e-22
7.07441e-23
1.875e-06
-1.75773e-23
-1.65467e-22
1.875e-06
8.27019e-23
-2.30867e-22
1.875e-06
1.02386e-22
-1.94023e-22
1.875e-06
1.24797e-22
-1.09233e-22
1.2485e-22
-1.8973e-22
1.875e-06
-1.62438e-22
5.23232e-22
1.875e-06
9.4971e-23
7.74229e-22
1.875e-06
1.66242e-22
8.43302e-22
1.875e-06
-6.05549e-23
9.46118e-22
1.875e-06
-5.04081e-23
9.63171e-22
1.875e-06
-2.16011e-23
8.74233e-22
1.875e-06
9.2353e-23
7.98623e-22
1.875e-06
1.80334e-22
7.52982e-22
1.875e-06
5.52844e-23
7.02049e-22
1.875e-06
-4.46905e-23
6.59692e-22
1.875e-06
5.85817e-23
5.81043e-22
1.875e-06
1.79998e-22
5.23129e-22
1.875e-06
9.35206e-23
5.76791e-22
1.875e-06
-4.20899e-24
3.7033e-22
1.875e-06
-9.04657e-23
4.92361e-22
1.875e-06
-6.45767e-23
5.56144e-22
1.875e-06
4.46467e-24
4.77122e-22
1.875e-06
1.47366e-22
4.15046e-22
1.875e-06
1.0821e-22
2.45935e-22
1.875e-06
2.54999e-23
9.09146e-23
1.875e-06
1.33523e-22
2.1231e-22
1.875e-06
-3.6678e-24
2.10887e-22
1.875e-06
-6.28554e-23
1.57758e-22
1.875e-06
-1.20064e-22
1.43794e-22
1.875e-06
-1.74012e-22
2.81257e-22
1.875e-06
4.53301e-23
9.60097e-23
1.875e-06
1.09484e-22
1.91561e-23
1.875e-06
1.71336e-23
-7.16719e-23
1.875e-06
-1.18568e-22
-6.97853e-23
1.875e-06
2.69756e-23
1.95387e-22
1.875e-06
-1.03486e-23
1.25311e-22
1.875e-06
-7.97345e-23
-5.52028e-23
1.875e-06
6.34581e-23
-9.98495e-23
1.875e-06
-4.81087e-24
8.70927e-23
1.875e-06
-5.63849e-23
2.57174e-23
1.875e-06
-3.26519e-24
-6.43093e-23
1.875e-06
7.8005e-23
-2.29733e-22
1.875e-06
1.01041e-22
-2.38294e-22
1.875e-06
1.02445e-22
-1.17693e-22
7.94756e-24
-3.14977e-22
1.875e-06
-6.13571e-23
6.08561e-22
1.875e-06
-2.26386e-22
7.41977e-22
1.875e-06
-4.79626e-23
7.66298e-22
1.875e-06
6.40316e-23
9.68421e-22
1.875e-06
1.06429e-22
9.72808e-22
1.875e-06
6.60469e-24
8.66857e-22
1.875e-06
6.65245e-24
8.28557e-22
1.875e-06
6.86955e-23
7.36016e-22
1.875e-06
4.452e-23
6.74487e-22
1.875e-06
-7.45936e-23
7.58777e-22
1.875e-06
5.31775e-23
6.43555e-22
1.875e-06
1.03462e-22
5.60608e-22
1.875e-06
4.11427e-23
6.19373e-22
1.875e-06
-7.59846e-23
4.76701e-22
1.875e-06
4.50697e-24
5.39295e-22
1.875e-06
-1.25945e-23
4.66048e-22
1.875e-06
-3.78023e-23
3.93017e-22
1.875e-06
3.70478e-23
2.8924e-22
1.875e-06
5.06318e-23
2.94013e-22
1.875e-06
1.48677e-22
2.10583e-22
1.875e-06
6.10745e-23
1.3029e-22
1.875e-06
5.38055e-23
2.83208e-22
1.875e-06
-6.74234e-23
3.25077e-22
1.875e-06
-1.84859e-22
1.56223e-22
1.875e-06
-6.68954e-23
2.11548e-22
1.875e-06
-4.91854e-23
6.54634e-23
1.875e-06
1.37234e-23
-4.91008e-23
1.875e-06
1.83959e-23
-1.15552e-22
1.875e-06
-1.48183e-22
-8.23722e-23
1.875e-06
-2.06393e-23
1.08452e-22
1.875e-06
1.96062e-22
1.15936e-22
1.875e-06
1.86717e-22
1.07136e-23
1.875e-06
-8.60897e-23
-1.65403e-22
1.875e-06
-9.31428e-23
-3.24349e-23
1.875e-06
-1.0238e-22
1.74159e-22
1.875e-06
8.9188e-24
-1.72911e-23
1.875e-06
1.69032e-22
-2.01185e-22
1.875e-06
8.78911e-23
-2.13282e-22
1.875e-06
7.49812e-23
-2.56924e-22
7.80388e-23
-3.03969e-22
1.875e-06
-7.382e-23
5.72823e-22
1.875e-06
-1.03964e-22
8.07183e-22
1.875e-06
-4.80406e-23
8.78882e-22
1.875e-06
-5.82118e-23
9.38731e-22
1.875e-06
-5.94221e-23
9.17123e-22
1.875e-06
4.49232e-23
9.6058e-22
1.875e-06
3.91901e-23
8.58802e-22
1.875e-06
1.6402e-24
8.1659e-22
1.875e-06
-1.69914e-23
6.56973e-22
1.875e-06
6.20881e-23
7.37866e-22
1.875e-06
-3.33554e-24
7.10993e-22
1.875e-06
9.36393e-23
6.53132e-22
1.875e-06
-6.97352e-23
7.26738e-22
1.875e-06
-1.80963e-23
5.53591e-22
1.875e-06
-7.87918e-24
4.49997e-22
1.875e-06
-4.82144e-23
4.13475e-22
1.875e-06
6.36484e-24
3.46257e-22
1.875e-06
-5.56102e-23
3.32537e-22
1.875e-06
5.43762e-23
3.56434e-22
1.875e-06
1.22009e-22
2.1466e-22
1.875e-06
6.88373e-23
1.42273e-22
1.875e-06
1.05026e-23
3.00492e-22
1.875e-06
-4.79559e-23
3.07821e-22
1.875e-06
-1.90068e-22
2.08283e-22
1.875e-06
-1.01507e-22
1.65769e-22
1.875e-06
-9.47438e-23
9.48189e-23
1.875e-06
-7.61047e-23
-1.1792e-22
1.875e-06
-1.84156e-22
-2.45674e-22
1.875e-06
-6.01387e-23
1.08803e-22
1.875e-06
6.17885e-23
7.17188e-23
1.875e-06
4.99409e-23
-1.52826e-22
1.875e-06
1.75946e-23
-1.17388e-22
1.875e-06
5.47467e-23
-8.52933e-23
1.875e-06
7.80734e-23
7.05326e-23
1.875e-06
9.33108e-23
1.82396e-22
1.875e-06
6.4232e-23
-3.28256e-23
1.875e-06
2.20674e-23
-2.11045e-22
1.875e-06
4.83532e-23
-1.5103e-22
1.875e-06
1.54013e-23
-2.6129e-22
1.10047e-22
-2.97539e-22
1.875e-06
-9.77114e-23
5.47704e-22
1.875e-06
-7.21995e-23
8.50489e-22
1.875e-06
6.67474e-24
8.94313e-22
1.875e-06
-2.03531e-23
9.91589e-22
1.875e-06
-6.43782e-23
1.00915e-21
1.875e-06
-1.83991e-23
9.97407e-22
1.875e-06
-2.15764e-24
8.37655e-22
1.875e-06
-5.01653e-23
7.95135e-22
1.875e-06
-1.28974e-23
7.47583e-22
1.875e-06
1.16413e-23
7.63861e-22
1.875e-06
3.73677e-23
7.05716e-22
1.875e-06
5.6192e-24
6.67028e-22
1.875e-06
6.87618e-23
8.22573e-22
1.875e-06
2.38899e-23
6.68762e-22
1.875e-06
-6.2786e-23
4.69505e-22
1.875e-06
5.49728e-23
2.92998e-22
1.875e-06
1.09854e-23
3.13334e-22
1.875e-06
-4.09111e-23
3.26303e-22
1.875e-06
-5.77961e-23
4.02711e-22
1.875e-06
9.15787e-23
3.006e-22
1.875e-06
5.30481e-23
1.88016e-22
1.875e-06
4.56301e-23
1.92488e-22
1.875e-06
-1.07385e-22
1.6798e-22
1.875e-06
-1.11894e-22
2.14702e-22
1.875e-06
-6.93459e-23
1.37112e-22
1.875e-06
-3.59426e-23
1.39875e-22
1.875e-06
-7.87352e-23
-5.6645e-23
1.875e-06
-1.49035e-22
-1.26591e-22
1.875e-06
-5.88557e-23
1.3236e-22
1.875e-06
-5.70132e-23
1.90385e-23
1.875e-06
-7.89625e-23
-1.39516e-22
1.875e-06
-4.7626e-24
-1.67936e-22
1.875e-06
7.88242e-23
-5.2832e-23
1.875e-06
5.18292e-23
3.18373e-23
1.875e-06
9.42531e-23
1.48971e-22
1.875e-06
9.07341e-23
1.98163e-23
1.875e-06
7.62351e-24
-1.55457e-22
1.875e-06
-4.56981e-23
-2.64459e-22
1.875e-06
-3.90022e-23
-3.23193e-22
-6.24273e-23
-3.99436e-22
1.875e-06
-8.18898e-23
5.92171e-22
1.875e-06
-1.71589e-22
8.62318e-22
1.875e-06
-1.95066e-22
9.7489e-22
1.875e-06
2.86407e-23
1.02028e-21
1.875e-06
1.54408e-22
1.02098e-21
1.875e-06
-2.49984e-23
9.56523e-22
1.875e-06
-1.47246e-22
8.3602e-22
1.875e-06
-1.10383e-22
7.82735e-22
1.875e-06
-2.76586e-23
8.48139e-22
1.875e-06
4.04361e-24
8.70152e-22
1.875e-06
1.38471e-23
6.6498e-22
1.875e-06
1.09782e-23
6.61232e-22
1.875e-06
2.507e-23
7.76841e-22
1.875e-06
1.07514e-23
7.58813e-22
1.875e-06
5.93495e-23
6.05112e-22
1.875e-06
-4.48423e-24
2.69061e-22
1.875e-06
4.55616e-23
2.94463e-22
1.875e-06
2.39656e-22
3.04249e-22
1.875e-06
2.32512e-22
2.57503e-22
1.875e-06
-2.66211e-23
1.51367e-22
1.875e-06
-8.24665e-23
1.58279e-22
1.875e-06
-2.0954e-22
2.22095e-22
1.875e-06
-6.58574e-23
2.57092e-22
1.875e-06
5.95093e-24
2.5131e-22
1.875e-06
-8.90345e-23
1.35006e-22
1.875e-06
-1.451e-22
5.71719e-23
1.875e-06
-1.19111e-22
2.45693e-23
1.875e-06
-1.17988e-22
-1.40862e-23
1.875e-06
-7.05738e-23
6.60579e-23
1.875e-06
-1.32347e-23
1.84858e-23
1.875e-06
2.74799e-23
-9.54203e-23
1.875e-06
-3.7305e-23
-1.13348e-22
1.875e-06
-1.2751e-23
-1.74008e-22
1.875e-06
7.89171e-23
1.08548e-23
1.875e-06
1.02222e-22
1.25991e-22
1.875e-06
4.47315e-23
7.19487e-23
1.875e-06
-2.89559e-23
-1.69168e-22
1.875e-06
3.81594e-23
-3.57373e-22
1.875e-06
1.98153e-23
-3.0506e-22
-3.415e-23
-3.3544e-22
1.875e-06
-5.0555e-23
6.20161e-22
1.875e-06
-8.06411e-23
9.88714e-22
1.875e-06
-6.46067e-23
1.02055e-21
1.875e-06
-1.24685e-23
1.03762e-21
1.875e-06
-4.21809e-24
9.43443e-22
1.875e-06
-7.83742e-23
9.52498e-22
1.875e-06
-1.52418e-22
9.11986e-22
1.875e-06
-3.0417e-23
8.83897e-22
1.875e-06
-7.69607e-24
8.56213e-22
1.875e-06
4.29981e-23
8.85058e-22
1.875e-06
-1.48878e-23
7.0691e-22
1.875e-06
5.73206e-23
6.84897e-22
1.875e-06
-1.08258e-23
7.78878e-22
1.875e-06
-1.9742e-23
7.33728e-22
1.875e-06
1.17559e-22
5.64406e-22
1.875e-06
4.97988e-23
4.04915e-22
1.875e-06
-4.75567e-23
2.99985e-22
1.875e-06
-1.14744e-22
1.22482e-22
1.875e-06
4.54243e-23
6.17139e-23
1.875e-06
5.1602e-24
1.24464e-22
1.875e-06
-1.31064e-22
1.83785e-22
1.875e-06
1.23709e-23
4.10099e-22
1.875e-06
1.98622e-23
3.12013e-22
1.875e-06
-4.76168e-23
1.64795e-22
1.875e-06
-1.08901e-23
1.43865e-22
1.875e-06
-2.9687e-23
2.99212e-23
1.875e-06
1.18782e-22
7.74942e-23
1.875e-06
7.21885e-23
1.05773e-22
1.875e-06
3.62963e-24
1.0006e-22
1.875e-06
-1.2514e-23
-1.80589e-23
1.875e-06
-1.87756e-22
-9.3534e-23
1.875e-06
-9.24533e-23
-7.42315e-23
1.875e-06
-1.14154e-22
-1.25901e-22
1.875e-06
4.00348e-25
5.86586e-23
1.875e-06
8.36537e-23
-6.95563e-24
1.875e-06
5.97928e-23
2.1741e-24
1.875e-06
5.17127e-23
-1.46179e-22
1.875e-06
-7.55488e-23
-3.03869e-22
1.875e-06
-2.82201e-23
-3.33461e-22
-1.16147e-23
-3.38138e-22
1.875e-06
9.07532e-23
7.41072e-22
1.875e-06
5.35465e-23
1.04272e-21
1.875e-06
-2.91382e-23
9.46998e-22
1.875e-06
-1.00029e-22
9.70781e-22
1.875e-06
-1.45218e-23
1.02928e-21
1.875e-06
-1.6482e-23
1.02177e-21
1.875e-06
-1.14923e-23
9.50558e-22
1.875e-06
-2.38771e-22
7.68914e-22
1.875e-06
-1.2688e-22
8.45549e-22
1.875e-06
7.75795e-23
9.48723e-22
1.875e-06
-8.31813e-23
7.41259e-22
1.875e-06
3.54063e-22
7.35905e-22
1.875e-06
4.11421e-23
7.52766e-22
1.875e-06
-2.10715e-23
7.13711e-22
1.875e-06
5.87067e-24
6.18286e-22
1.875e-06
-4.05639e-23
4.02839e-22
1.875e-06
-2.42213e-23
1.87695e-22
1.875e-06
-1.10085e-22
1.03047e-22
1.875e-06
-1.81785e-22
1.25497e-22
1.875e-06
-7.74595e-23
1.33857e-22
1.875e-06
-3.44105e-23
2.34109e-22
1.875e-06
-7.23042e-23
3.27273e-22
1.875e-06
-2.4755e-23
3.3651e-22
1.875e-06
7.02902e-23
9.65347e-23
1.875e-06
2.00934e-22
1.46476e-22
1.875e-06
9.63345e-23
9.23669e-23
1.875e-06
-4.10197e-23
-3.17238e-24
1.875e-06
1.03172e-22
4.88768e-23
1.875e-06
-1.35736e-22
3.56503e-23
1.875e-06
3.62387e-23
-1.0551e-22
1.875e-06
-1.06037e-22
4.66569e-24
1.875e-06
-1.08453e-22
-3.93506e-23
1.875e-06
6.13375e-23
-3.19366e-23
1.875e-06
-1.05587e-22
4.4946e-23
1.875e-06
-1.40379e-23
2.42413e-24
1.875e-06
7.19501e-23
9.70944e-24
1.875e-06
-2.57639e-23
-7.81362e-23
1.875e-06
2.77752e-23
-2.58169e-22
1.875e-06
-1.07261e-22
-5.00914e-22
-9.10044e-23
-4.01759e-22
1.875e-06
1.52633e-22
6.61349e-22
1.875e-06
1.67004e-22
9.80687e-22
1.875e-06
-7.1727e-23
9.43618e-22
1.875e-06
-7.67e-23
9.89151e-22
1.875e-06
-1.12099e-22
1.04968e-21
1.875e-06
-3.22679e-24
1.01688e-21
1.875e-06
-1.16965e-23
9.11619e-22
1.875e-06
2.54352e-23
8.3675e-22
1.875e-06
-1.16939e-22
8.62643e-22
1.875e-06
4.67876e-24
9.37215e-22
1.875e-06
6.04906e-23
7.77905e-22
1.875e-06
-4.20962e-23
7.81246e-22
1.875e-06
-5.2101e-23
7.32336e-22
1.875e-06
1.84281e-22
6.87433e-22
1.875e-06
2.01978e-23
5.42308e-22
1.875e-06
-4.523e-24
3.50914e-22
1.875e-06
-1.50937e-22
1.3281e-22
1.875e-06
-7.9164e-23
1.21729e-22
1.875e-06
-1.0255e-22
2.16071e-22
1.875e-06
-7.533e-23
2.03e-22
1.875e-06
-1.22636e-23
1.8007e-22
1.875e-06
-1.5923e-22
2.38598e-22
1.875e-06
-7.7205e-23
2.97467e-22
1.875e-06
1.14873e-22
1.74423e-22
1.875e-06
4.88506e-23
1.32373e-22
1.875e-06
1.23883e-22
1.74302e-22
1.875e-06
2.43268e-23
6.62799e-23
1.875e-06
5.96498e-23
-1.2678e-22
1.875e-06
3.37174e-23
-8.78256e-24
1.875e-06
-3.7176e-24
-3.3827e-23
1.875e-06
4.55481e-23
4.89755e-23
1.875e-06
-4.31978e-24
-5.76558e-23
1.875e-06
-5.51317e-23
-1.29204e-22
1.875e-06
1.41086e-23
8.288e-23
1.875e-06
7.41373e-23
-4.46701e-23
1.875e-06
9.3395e-23
-8.14181e-23
1.875e-06
6.37445e-24
-1.06482e-23
1.875e-06
-1.0859e-22
-1.59454e-22
1.875e-06
-1.77203e-22
-4.37843e-22
-1.78388e-22
-4.09603e-22
1.875e-06
3.90282e-24
6.25776e-22
1.875e-06
1.94054e-24
9.25226e-22
1.875e-06
4.84697e-23
9.10047e-22
1.875e-06
-3.83543e-23
1.03468e-21
1.875e-06
-6.85336e-23
1.01283e-21
1.875e-06
1.9512e-23
1.02332e-21
1.875e-06
-9.91761e-23
9.31366e-22
1.875e-06
-2.87001e-23
8.0247e-22
1.875e-06
8.55928e-23
9.62333e-22
1.875e-06
5.55201e-24
9.09148e-22
1.875e-06
-1.29791e-22
8.04588e-22
1.875e-06
-2.00949e-23
7.16115e-22
1.875e-06
1.8723e-23
7.042e-22
1.875e-06
-1.47763e-22
5.77031e-22
1.875e-06