/*--------------------------------*- C++ -*----------------------------------*\
| =========                 |                                                 |
| \\      /  F ield         | OpenFOAM: The Open Source CFD Toolbox           |
|  \\    /   O peration     | Version:  v2012                                 |
|   \\  /    A nd           | Website:  www.openfoam.com                      |
|    \\/     M anipulation  |                                                 |
\*---------------------------------------------------------------------------*/
FoamFile
{
    version     2.0;
    format      ascii;
    class       volVectorField;
    location    "15";
    object      U;
}
// * * * * * * * * * * * * * * * * * * * * * * * * * * * * * * * * * * * * * //

dimensions      [0 1 -1 0 0 0 0];


internalField   nonuniform List<vector> 
64000
(
(0.003 1.88883e-19 1.99635e-19)
(0.003 2.66349e-19 2.75516e-19)
(0.003 3.39201e-19 3.70008e-19)
(0.003 3.37688e-19 3.88791e-19)
(0.003 3.95899e-19 3.34054e-19)
(0.003 3.5456e-19 2.76349e-19)
(0.003 2.36517e-19 1.97883e-19)
(0.003 1.12843e-19 1.45565e-19)
(0.003 2.04152e-19 2.5903e-19)
(0.003 2.92001e-19 2.52867e-19)
(0.003 2.35194e-19 2.01057e-19)
(0.003 2.15517e-19 2.44815e-19)
(0.003 1.67431e-19 1.97919e-19)
(0.003 1.64443e-19 1.73049e-19)
(0.003 1.68093e-19 2.32773e-19)
(0.003 1.92617e-19 1.94566e-19)
(0.003 9.84038e-20 1.25552e-19)
(0.003 -6.59684e-21 1.24549e-19)
(0.003 4.02906e-20 -1.16707e-19)
(0.003 8.48585e-20 -3.00775e-19)
(0.003 -1.38889e-19 -1.78011e-19)
(0.003 2.01557e-20 5.37233e-20)
(0.003 1.67525e-19 9.48245e-20)
(0.003 3.4536e-19 9.78651e-20)
(0.003 3.45098e-19 1.33396e-19)
(0.003 1.15661e-19 1.30981e-19)
(0.003 5.88313e-21 1.26727e-19)
(0.003 1.15725e-19 1.21799e-19)
(0.003 1.16376e-19 1.46043e-19)
(0.003 -2.55713e-20 2.08487e-19)
(0.003 -1.63153e-19 2.59999e-19)
(0.003 -7.14747e-20 1.21902e-19)
(0.003 1.37057e-19 4.97237e-20)
(0.003 2.82771e-20 9.51843e-20)
(0.003 -4.40602e-20 4.46886e-20)
(0.003 -6.44913e-20 -1.8689e-19)
(0.003 -1.67249e-19 -2.60678e-19)
(0.003 -1.98686e-19 -2.01642e-19)
(0.003 -9.2418e-20 -3.29285e-20)
(0.003 -1.72102e-20 1.31008e-20)
(0.003 2.20081e-19 2.74177e-19)
(0.003 2.91953e-19 5.94354e-19)
(0.003 5.07761e-19 8.43733e-19)
(0.003 4.24619e-19 7.56263e-19)
(0.003 3.19952e-19 6.37276e-19)
(0.003 4.30783e-19 6.44202e-19)
(0.003 3.49324e-19 5.21239e-19)
(0.003 2.90449e-19 3.439e-19)
(0.003 2.46656e-19 4.63831e-19)
(0.003 1.92374e-19 5.69841e-19)
(0.003 2.5766e-19 5.00655e-19)
(0.003 3.10377e-19 4.16104e-19)
(0.003 1.47242e-19 3.60657e-19)
(0.003 8.88812e-21 3.08107e-19)
(0.003 2.90691e-21 3.54664e-19)
(0.003 3.93276e-20 2.72393e-19)
(0.003 2.3152e-19 1.06908e-19)
(0.003 2.0962e-19 1.52198e-19)
(0.003 1.90969e-19 2.75907e-20)
(0.003 1.73123e-19 -1.69172e-19)
(0.003 4.56814e-20 -1.20395e-19)
(0.003 -5.70072e-20 1.20279e-19)
(0.003 1.22852e-19 2.11694e-19)
(0.003 2.4916e-19 2.61202e-19)
(0.003 5.94185e-20 2.67892e-19)
(0.003 5.14438e-20 1.57689e-19)
(0.003 1.25265e-19 5.37954e-20)
(0.003 8.93723e-20 1.4924e-19)
(0.003 -2.40332e-20 1.94733e-19)
(0.003 -9.36932e-20 1.36438e-19)
(0.003 -1.51477e-19 1.07273e-19)
(0.003 -3.94864e-20 1.27609e-19)
(0.003 3.56975e-20 2.13518e-19)
(0.003 -7.84576e-20 1.38534e-19)
(0.003 -1.26855e-19 1.11872e-19)
(0.003 -2.60826e-19 -8.67181e-20)
(0.003 -2.55682e-19 -3.39279e-19)
(0.003 -2.39323e-20 -1.39836e-19)
(0.003 1.15827e-19 6.13964e-20)
(0.003 1.3115e-19 1.05255e-20)
(0.003 1.89428e-19 3.71915e-19)
(0.003 2.63424e-19 5.95539e-19)
(0.003 2.4081e-19 8.50547e-19)
(0.003 3.33921e-19 9.19103e-19)
(0.003 3.20562e-19 7.61207e-19)
(0.003 3.3788e-19 6.99095e-19)
(0.003 3.12277e-19 6.5782e-19)
(0.003 3.06072e-19 6.22751e-19)
(0.003 2.76531e-19 6.98918e-19)
(0.003 2.11366e-19 6.051e-19)
(0.003 1.92841e-19 5.4702e-19)
(0.003 1.71217e-19 5.21814e-19)
(0.003 2.2631e-19 3.16576e-19)
(0.003 1.38313e-19 2.88841e-19)
(0.003 6.2238e-20 3.43119e-19)
(0.003 5.46105e-21 2.83e-19)
(0.003 9.80515e-20 2.91282e-19)
(0.003 2.04635e-19 1.82041e-19)
(0.003 1.54093e-19 -8.19864e-20)
(0.003 1.46181e-20 -1.75985e-19)
(0.003 -3.80148e-20 2.87559e-20)
(0.003 5.38847e-20 2.03597e-19)
(0.003 1.8164e-19 2.98699e-19)
(0.003 1.39863e-19 3.10939e-19)
(0.003 -4.35592e-21 2.61469e-19)
(0.003 8.62458e-20 1.73315e-19)
(0.003 1.10973e-19 1.71915e-19)
(0.003 -5.08246e-20 2.41761e-19)
(0.003 -3.37521e-20 1.79005e-19)
(0.003 4.2593e-20 1.75509e-19)
(0.003 -1.03552e-20 1.91892e-19)
(0.003 -9.42308e-21 1.99769e-19)
(0.003 -7.83946e-20 1.17595e-19)
(0.003 -1.80783e-19 6.25669e-20)
(0.003 -2.19782e-19 9.70326e-20)
(0.003 -2.78161e-19 -1.0127e-19)
(0.003 -1.46987e-19 -1.56636e-19)
(0.003 1.13899e-19 -1.45129e-19)
(0.003 1.92638e-19 -3.90283e-20)
(0.003 1.42716e-19 -1.15166e-20)
(0.003 3.42951e-19 4.24659e-19)
(0.003 3.29254e-19 7.6756e-19)
(0.003 1.92615e-19 9.06594e-19)
(0.003 2.40549e-19 9.44596e-19)
(0.003 3.39529e-19 9.14967e-19)
(0.003 3.18394e-19 8.95003e-19)
(0.003 2.79872e-19 7.29667e-19)
(0.003 2.21143e-19 6.45176e-19)
(0.003 1.81737e-19 7.40538e-19)
(0.003 2.60974e-19 6.84438e-19)
(0.003 2.38739e-19 6.19716e-19)
(0.003 1.4038e-19 5.73146e-19)
(0.003 1.29056e-19 4.28306e-19)
(0.003 9.38852e-20 3.16807e-19)
(0.003 2.48393e-19 3.76364e-19)
(0.003 3.0066e-19 3.50126e-19)
(0.003 1.04432e-19 2.58693e-19)
(0.003 -7.19686e-20 1.89298e-19)
(0.003 -1.39057e-19 -4.92246e-20)
(0.003 -6.40535e-20 -1.84503e-19)
(0.003 1.55915e-20 1.16803e-19)
(0.003 1.5274e-19 3.2998e-19)
(0.003 2.63046e-19 4.01152e-19)
(0.003 1.62094e-19 3.87441e-19)
(0.003 1.25182e-19 3.15774e-19)
(0.003 5.95627e-20 2.32382e-19)
(0.003 -9.65683e-21 1.30527e-19)
(0.003 -4.0844e-20 5.72404e-20)
(0.003 5.12323e-20 2.19988e-19)
(0.003 3.92725e-20 2.95869e-19)
(0.003 -3.02838e-20 1.52902e-19)
(0.003 -4.21673e-20 1.26109e-19)
(0.003 -7.40547e-20 1.36182e-19)
(0.003 -1.23245e-19 3.50295e-20)
(0.003 -1.06971e-19 1.78472e-20)
(0.003 -4.72826e-20 -3.57975e-20)
(0.003 -1.93943e-20 1.1056e-20)
(0.003 6.05053e-20 5.98447e-20)
(0.003 8.57777e-20 1.91283e-20)
(0.003 7.27546e-20 1.20128e-21)
(0.003 1.63816e-19 5.3247e-19)
(0.003 2.4285e-19 9.09386e-19)
(0.003 1.61714e-19 9.62543e-19)
(0.003 1.41676e-19 9.36161e-19)
(0.003 2.08657e-19 1.02814e-18)
(0.003 1.80942e-19 9.6918e-19)
(0.003 2.43468e-19 8.203e-19)
(0.003 3.19125e-19 6.46674e-19)
(0.003 2.43692e-19 6.41957e-19)
(0.003 2.2204e-19 7.85139e-19)
(0.003 2.17931e-19 7.47366e-19)
(0.003 1.66506e-19 6.12686e-19)
(0.003 1.03481e-19 4.4296e-19)
(0.003 1.41446e-19 3.78791e-19)
(0.003 1.84751e-19 4.57745e-19)
(0.003 2.48905e-19 4.84166e-19)
(0.003 1.09347e-19 3.34251e-19)
(0.003 -1.95935e-19 1.60041e-19)
(0.003 -2.86522e-19 7.17123e-20)
(0.003 -1.04794e-19 -7.70014e-20)
(0.003 4.24683e-20 1.73163e-20)
(0.003 1.32729e-19 2.92152e-19)
(0.003 2.65375e-19 5.1154e-19)
(0.003 1.89001e-19 4.46046e-19)
(0.003 9.97533e-20 3.9284e-19)
(0.003 2.1794e-20 2.75401e-19)
(0.003 8.06454e-21 1.24705e-19)
(0.003 1.28347e-20 1.47172e-19)
(0.003 3.22141e-20 2.42991e-19)
(0.003 3.07933e-20 1.84807e-19)
(0.003 1.57142e-19 1.01296e-19)
(0.003 1.31188e-19 1.19573e-19)
(0.003 -8.61894e-20 -2.36786e-20)
(0.003 -1.04333e-19 -1.11769e-19)
(0.003 1.98671e-20 4.97025e-21)
(0.003 -1.38447e-20 -5.97211e-21)
(0.003 5.22466e-21 2.64982e-20)
(0.003 3.74452e-20 2.88154e-20)
(0.003 -7.30826e-21 6.55751e-20)
(0.003 -8.62037e-21 3.14332e-20)
(0.003 -2.66629e-21 6.40958e-19)
(0.003 1.62207e-19 9.39282e-19)
(0.003 1.25591e-19 9.36556e-19)
(0.003 1.16877e-19 1.01011e-18)
(0.003 1.5002e-19 1.0312e-18)
(0.003 1.71012e-19 9.47537e-19)
(0.003 1.81483e-19 8.33694e-19)
(0.003 3.82508e-19 8.62909e-19)
(0.003 3.5443e-19 7.97577e-19)
(0.003 1.74085e-19 7.13698e-19)
(0.003 1.93039e-19 7.41516e-19)
(0.003 1.71554e-19 7.72775e-19)
(0.003 1.60678e-19 5.11954e-19)
(0.003 2.44301e-19 3.61428e-19)
(0.003 1.19416e-19 4.77641e-19)
(0.003 -7.99397e-20 5.44188e-19)
(0.003 -1.53173e-19 3.50357e-19)
(0.003 -1.61468e-19 2.08715e-19)
(0.003 -2.09967e-19 2.55755e-19)
(0.003 -1.23935e-19 6.68811e-20)
(0.003 1.35506e-19 3.41799e-20)
(0.003 2.68023e-19 2.77057e-19)
(0.003 2.0143e-19 4.83717e-19)
(0.003 1.3781e-19 4.37399e-19)
(0.003 1.30326e-19 2.95642e-19)
(0.003 1.02475e-19 2.49173e-19)
(0.003 7.62523e-20 1.87789e-19)
(0.003 -5.88971e-20 1.28737e-19)
(0.003 -1.64942e-19 2.50726e-19)
(0.003 -8.01201e-21 3.38241e-19)
(0.003 2.85654e-19 2.80766e-19)
(0.003 1.49169e-19 -8.73831e-21)
(0.003 -2.1756e-20 -2.73541e-19)
(0.003 6.61878e-20 -1.30326e-19)
(0.003 2.19255e-20 -2.57139e-20)
(0.003 -1.24612e-20 -7.13044e-21)
(0.003 2.5441e-20 3.87119e-20)
(0.003 1.00014e-19 -6.48428e-20)
(0.003 1.36584e-19 -1.00893e-19)
(0.003 7.63134e-20 -8.31999e-20)
(0.003 3.35575e-21 7.665e-19)
(0.003 9.95099e-20 1.11238e-18)
(0.003 1.70021e-19 1.03583e-18)
(0.003 1.25511e-19 9.95551e-19)
(0.003 1.69447e-19 1.06846e-18)
(0.003 1.12685e-19 1.02697e-18)
(0.003 1.78214e-19 8.92618e-19)
(0.003 3.33886e-19 8.46319e-19)
(0.003 3.17102e-19 8.55257e-19)
(0.003 2.13013e-19 8.27366e-19)
(0.003 1.94804e-19 8.26353e-19)
(0.003 1.88696e-19 7.13533e-19)
(0.003 1.92118e-19 5.32508e-19)
(0.003 2.06827e-19 5.01364e-19)
(0.003 8.21455e-20 5.4023e-19)
(0.003 -5.76189e-20 4.56651e-19)
(0.003 -1.28021e-19 2.47095e-19)
(0.003 -2.02814e-20 2.13022e-19)
(0.003 -4.00523e-20 2.33853e-19)
(0.003 -1.19929e-20 1.40105e-19)
(0.003 1.9614e-19 1.77317e-19)
(0.003 2.19707e-19 3.15959e-19)
(0.003 1.04936e-19 4.66894e-19)
(0.003 5.60667e-20 5.18659e-19)
(0.003 6.4958e-20 3.69318e-19)
(0.003 1.0952e-19 2.35604e-19)
(0.003 2.80715e-20 1.40396e-19)
(0.003 -8.90061e-20 1.27943e-19)
(0.003 -1.41377e-19 2.08991e-19)
(0.003 -3.73104e-20 2.20471e-19)
(0.003 1.16426e-19 2.39149e-19)
(0.003 9.67347e-20 4.19458e-20)
(0.003 1.41205e-19 -2.45907e-19)
(0.003 2.01268e-19 1.07381e-20)
(0.003 8.6335e-20 8.63908e-20)
(0.003 3.97077e-20 -4.87424e-20)
(0.003 -2.85286e-23 -9.88794e-20)
(0.003 8.06059e-20 -1.1604e-19)
(0.003 6.82873e-20 -1.07006e-19)
(0.003 2.67506e-20 -2.26605e-19)
(0.003 1.66709e-19 6.24558e-19)
(0.003 1.29407e-19 9.50975e-19)
(0.003 2.32373e-19 1.09e-18)
(0.003 2.37386e-19 1.11975e-18)
(0.003 1.36016e-19 1.16412e-18)
(0.003 1.19927e-19 1.02114e-18)
(0.003 2.34687e-19 9.61042e-19)
(0.003 2.07697e-19 1.00459e-18)
(0.003 2.35783e-19 9.72271e-19)
(0.003 2.93623e-19 8.54263e-19)
(0.003 1.77297e-19 8.07474e-19)
(0.003 1.41797e-19 7.23081e-19)
(0.003 9.89104e-20 5.97293e-19)
(0.003 1.65887e-19 5.2911e-19)
(0.003 1.30966e-19 5.32672e-19)
(0.003 5.03647e-20 4.6059e-19)
(0.003 -1.28908e-21 2.5208e-19)
(0.003 6.94857e-20 1.23848e-19)
(0.003 2.15715e-19 1.27226e-19)
(0.003 2.0056e-19 2.01445e-19)
(0.003 1.81005e-19 2.44311e-19)
(0.003 1.13303e-19 3.83327e-19)
(0.003 -5.89571e-20 5.08276e-19)
(0.003 -4.44256e-20 4.6405e-19)
(0.003 -3.80495e-20 3.83063e-19)
(0.003 3.63981e-20 2.47755e-19)
(0.003 5.12257e-20 9.83107e-20)
(0.003 -1.12049e-21 1.11805e-19)
(0.003 -3.8816e-20 1.96912e-19)
(0.003 -4.59201e-20 2.49908e-19)
(0.003 -2.06598e-19 2.90364e-19)
(0.003 -6.05971e-20 9.12498e-20)
(0.003 2.54897e-19 -2.67593e-21)
(0.003 2.89415e-19 1.15848e-19)
(0.003 1.96862e-19 5.54477e-21)
(0.003 2.74717e-20 -2.68249e-19)
(0.003 -2.94046e-20 -3.72601e-19)
(0.003 -1.07883e-19 -2.89615e-19)
(0.003 -2.08916e-19 -1.09508e-19)
(0.003 -9.5132e-20 -9.52786e-20)
(0.003 -6.7255e-21 5.97633e-19)
(0.003 7.07442e-20 1.09442e-18)
(0.003 1.58643e-19 1.25324e-18)
(0.003 2.16356e-19 1.22203e-18)
(0.003 1.32495e-19 1.10398e-18)
(0.003 2.07055e-19 1.08276e-18)
(0.003 2.29198e-19 1.07482e-18)
(0.003 1.22165e-19 9.54294e-19)
(0.003 1.15621e-19 9.40966e-19)
(0.003 1.72308e-19 9.72964e-19)
(0.003 1.43499e-19 8.31016e-19)
(0.003 2.17838e-20 7.55692e-19)
(0.003 -1.03949e-20 5.87259e-19)
(0.003 5.49341e-20 5.97756e-19)
(0.003 1.27962e-19 5.83777e-19)
(0.003 1.98845e-19 5.17626e-19)
(0.003 2.50675e-19 3.14137e-19)
(0.003 1.54165e-19 1.48086e-19)
(0.003 1.19262e-19 2.41427e-19)
(0.003 1.0372e-19 2.73389e-19)
(0.003 6.11942e-20 2.6649e-19)
(0.003 6.92918e-20 4.19034e-19)
(0.003 2.79281e-20 5.01521e-19)
(0.003 8.59767e-20 5.23421e-19)
(0.003 8.47368e-20 4.2251e-19)
(0.003 -5.67075e-20 2.07169e-19)
(0.003 -1.02962e-19 1.1643e-19)
(0.003 -1.31951e-20 1.19348e-19)
(0.003 7.59182e-20 1.01334e-19)
(0.003 -2.43224e-20 1.38688e-19)
(0.003 -2.42778e-19 1.25552e-19)
(0.003 -1.43004e-19 1.49355e-19)
(0.003 3.35459e-20 1.99287e-19)
(0.003 5.45882e-20 -4.7345e-21)
(0.003 1.25834e-19 -2.11287e-19)
(0.003 1.78849e-19 -3.66796e-19)
(0.003 8.25271e-20 -4.33351e-19)
(0.003 -1.80185e-19 -3.50419e-19)
(0.003 -2.11218e-19 -2.10366e-19)
(0.003 -1.51648e-19 -1.40321e-19)
(0.003 -2.45182e-19 7.11332e-19)
(0.003 -2.23433e-20 1.05108e-18)
(0.003 1.56855e-19 1.25307e-18)
(0.003 2.39197e-19 1.30234e-18)
(0.003 1.80556e-19 1.24098e-18)
(0.003 1.72307e-19 1.18612e-18)
(0.003 2.82082e-19 1.16148e-18)
(0.003 2.40295e-19 1.05867e-18)
(0.003 1.29035e-19 8.81688e-19)
(0.003 1.56985e-19 8.89215e-19)
(0.003 1.12687e-19 8.61474e-19)
(0.003 -7.66334e-20 7.41651e-19)
(0.003 -3.17143e-20 5.8669e-19)
(0.003 -6.43549e-20 6.30548e-19)
(0.003 3.59242e-20 6.79398e-19)
(0.003 1.67503e-19 5.71469e-19)
(0.003 2.45507e-19 4.17039e-19)
(0.003 1.78212e-19 2.49757e-19)
(0.003 -4.17449e-20 1.49211e-19)
(0.003 2.3404e-20 1.66183e-19)
(0.003 1.18055e-19 3.43487e-19)
(0.003 1.51652e-19 4.36028e-19)
(0.003 8.73514e-20 5.18196e-19)
(0.003 3.43306e-20 6.06121e-19)
(0.003 9.74759e-20 5.05095e-19)
(0.003 1.76174e-21 2.43498e-19)
(0.003 -9.17558e-20 6.99749e-20)
(0.003 -8.31018e-21 7.32789e-20)
(0.003 7.01583e-20 1.06758e-19)
(0.003 4.44985e-22 1.51204e-19)
(0.003 1.06286e-20 1.06677e-19)
(0.003 -5.58797e-20 9.93362e-20)
(0.003 -2.62903e-19 1.66128e-19)
(0.003 -2.76841e-19 8.26334e-21)
(0.003 1.46232e-20 -1.90482e-19)
(0.003 3.70635e-19 -3.7581e-19)
(0.003 1.68601e-19 -6.15506e-19)
(0.003 -1.54924e-19 -4.43284e-19)
(0.003 -1.39284e-19 -2.85711e-19)
(0.003 -7.26167e-20 -2.11794e-19)
(0.003 1.03987e-19 7.42827e-19)
(0.003 1.91588e-19 1.19822e-18)
(0.003 1.96079e-19 1.41578e-18)
(0.003 2.16617e-19 1.37051e-18)
(0.003 2.15156e-19 1.22088e-18)
(0.003 2.24776e-19 1.17687e-18)
(0.003 2.16451e-19 1.19553e-18)
(0.003 1.87089e-19 1.123e-18)
(0.003 1.32616e-19 9.60435e-19)
(0.003 2.00678e-19 8.92678e-19)
(0.003 1.97108e-19 8.43695e-19)
(0.003 2.20257e-20 7.73855e-19)
(0.003 4.54363e-20 5.76434e-19)
(0.003 4.98122e-20 5.30924e-19)
(0.003 9.98191e-22 6.64945e-19)
(0.003 5.23673e-20 6.82039e-19)
(0.003 1.07499e-19 5.20121e-19)
(0.003 2.33404e-20 2.98541e-19)
(0.003 -3.11653e-20 1.36688e-19)
(0.003 5.50751e-20 1.18493e-19)
(0.003 2.04183e-19 3.87822e-19)
(0.003 1.82816e-19 5.49144e-19)
(0.003 1.06114e-20 5.32996e-19)
(0.003 -6.94715e-22 6.18012e-19)
(0.003 4.87914e-20 4.67877e-19)
(0.003 -5.84394e-20 1.79946e-19)
(0.003 -1.51752e-19 1.21193e-19)
(0.003 -1.61125e-20 7.13764e-20)
(0.003 5.74204e-20 -1.357e-21)
(0.003 4.10156e-21 1.95432e-19)
(0.003 4.30148e-20 1.65416e-19)
(0.003 -1.08111e-20 -3.33209e-22)
(0.003 -2.68022e-19 7.60786e-20)
(0.003 -3.15226e-19 -1.22277e-20)
(0.003 -1.0246e-19 -8.32102e-20)
(0.003 2.82014e-20 -2.5975e-19)
(0.003 3.93175e-20 -5.47014e-19)
(0.003 1.92196e-20 -4.67471e-19)
(0.003 -5.04616e-20 -2.22943e-19)
(0.003 -4.67047e-20 -1.33801e-19)
(0.003 2.80084e-19 8.60851e-19)
(0.003 2.63479e-19 1.30723e-18)
(0.003 1.82278e-19 1.41521e-18)
(0.003 1.19027e-19 1.3257e-18)
(0.003 2.15344e-19 1.27417e-18)
(0.003 2.62501e-19 1.2973e-18)
(0.003 1.70653e-19 1.18146e-18)
(0.003 1.41036e-19 1.05689e-18)
(0.003 1.22192e-19 8.78334e-19)
(0.003 8.61069e-20 9.54211e-19)
(0.003 1.37748e-19 9.46829e-19)
(0.003 9.69516e-20 7.86513e-19)
(0.003 1.31272e-19 6.7335e-19)
(0.003 1.76949e-19 5.86116e-19)
(0.003 6.33776e-20 6.11008e-19)
(0.003 -4.91323e-20 6.74054e-19)
(0.003 -4.96689e-20 5.9667e-19)
(0.003 3.39286e-20 3.33025e-19)
(0.003 2.43772e-19 1.40566e-19)
(0.003 2.02191e-19 2.167e-19)
(0.003 4.85687e-20 3.43222e-19)
(0.003 -1.30642e-19 4.98998e-19)
(0.003 -9.93886e-20 5.08973e-19)
(0.003 -3.37684e-20 5.656e-19)
(0.003 -1.19764e-19 5.03272e-19)
(0.003 -1.59879e-19 1.869e-19)
(0.003 -1.08392e-19 1.19648e-19)
(0.003 4.21644e-20 1.75465e-19)
(0.003 3.19579e-20 5.28109e-20)
(0.003 -5.59448e-20 1.27671e-19)
(0.003 -4.20728e-21 9.40707e-20)
(0.003 -8.89726e-20 -5.32238e-20)
(0.003 -1.17717e-19 -5.70668e-20)
(0.003 -7.54407e-20 8.13321e-21)
(0.003 -1.16351e-19 1.73578e-20)
(0.003 -2.62995e-19 -3.23363e-19)
(0.003 -8.90842e-20 -5.6192e-19)
(0.003 2.06409e-19 -4.01587e-19)
(0.003 1.55396e-19 -2.27087e-19)
(0.003 6.53436e-20 -2.41214e-19)
(0.003 2.87071e-19 9.38747e-19)
(0.003 2.74351e-19 1.32007e-18)
(0.003 1.52378e-19 1.33142e-18)
(0.003 1.25e-19 1.34938e-18)
(0.003 9.58372e-20 1.3939e-18)
(0.003 8.08751e-20 1.30857e-18)
(0.003 9.71639e-20 1.15648e-18)
(0.003 4.50386e-20 1.04415e-18)
(0.003 2.07022e-19 9.83676e-19)
(0.003 2.18973e-19 9.87684e-19)
(0.003 4.02224e-20 8.97216e-19)
(0.003 6.26334e-20 7.40418e-19)
(0.003 1.91071e-19 7.13112e-19)
(0.003 2.47764e-19 6.90639e-19)
(0.003 9.8942e-20 6.79075e-19)
(0.003 -2.82959e-20 6.86436e-19)
(0.003 -9.79068e-20 5.52635e-19)
(0.003 -4.38004e-20 3.13873e-19)
(0.003 5.66152e-20 2.92978e-19)
(0.003 1.37797e-19 2.51547e-19)
(0.003 8.33464e-20 3.13902e-19)
(0.003 -1.60757e-20 4.15233e-19)
(0.003 1.59263e-20 4.60119e-19)
(0.003 -1.76116e-20 5.14633e-19)
(0.003 -2.00874e-19 4.29914e-19)
(0.003 -1.5137e-19 2.16863e-19)
(0.003 -4.98569e-20 9.34723e-20)
(0.003 -2.72939e-21 1.21757e-19)
(0.003 -5.95919e-20 2.05344e-20)
(0.003 -8.26461e-20 8.20907e-20)
(0.003 -2.14347e-20 2.07578e-20)
(0.003 -8.97725e-20 -9.16723e-20)
(0.003 1.15852e-20 7.2664e-21)
(0.003 6.39052e-20 3.5598e-20)
(0.003 -2.06169e-19 9.9717e-21)
(0.003 -2.16975e-19 -2.97719e-19)
(0.003 3.0005e-20 -4.36615e-19)
(0.003 2.05855e-19 -3.60348e-19)
(0.003 2.51396e-19 -2.29266e-19)
(0.003 1.70909e-19 -2.77078e-19)
(0.003 3.71087e-20 1.00881e-18)
(0.003 2.38893e-19 1.43969e-18)
(0.003 2.34888e-19 1.36898e-18)
(0.003 1.13054e-20 1.38897e-18)
(0.003 -1.19459e-19 1.33097e-18)
(0.003 -1.04557e-19 1.2544e-18)
(0.003 7.12413e-20 1.13633e-18)
(0.003 1.76068e-19 1.00864e-18)
(0.003 1.45363e-19 9.97175e-19)
(0.003 1.25642e-19 1.08432e-18)
(0.003 1.1768e-19 9.57616e-19)
(0.003 2.3364e-19 7.48914e-19)
(0.003 1.86811e-19 8.02515e-19)
(0.003 3.10282e-20 7.4672e-19)
(0.003 -4.50576e-20 7.11776e-19)
(0.003 -5.41747e-20 6.91057e-19)
(0.003 -7.1002e-20 5.6108e-19)
(0.003 5.71126e-20 3.52635e-19)
(0.003 1.02151e-19 2.21157e-19)
(0.003 7.39351e-20 2.23847e-19)
(0.003 1.80976e-19 3.38299e-19)
(0.003 6.4328e-20 4.50204e-19)
(0.003 -4.30908e-20 4.64913e-19)
(0.003 -1.0606e-19 5.14034e-19)
(0.003 -2.02041e-19 4.47215e-19)
(0.003 -4.66857e-20 1.48809e-19)
(0.003 1.0534e-19 -5.36691e-20)
(0.003 4.60537e-20 -2.67099e-21)
(0.003 -1.00243e-19 -1.08728e-19)
(0.003 -1.16031e-19 1.14047e-19)
(0.003 -1.14732e-19 1.82905e-19)
(0.003 -5.6013e-20 1.13238e-20)
(0.003 7.09674e-20 -6.28176e-20)
(0.003 4.12425e-20 -1.68126e-19)
(0.003 -1.77779e-19 -5.65672e-20)
(0.003 7.08891e-21 -1.60132e-19)
(0.003 1.61758e-19 -4.55233e-19)
(0.003 9.81442e-20 -3.67322e-19)
(0.003 1.75305e-19 -3.13229e-19)
(0.003 1.27796e-19 -4.25966e-19)
(0.003 -1.86537e-19 9.9524e-19)
(0.003 -1.16771e-19 1.42352e-18)
(0.003 9.38076e-20 1.4374e-18)
(0.003 1.47406e-20 1.28018e-18)
(0.003 5.586e-21 1.23152e-18)
(0.003 -4.68038e-20 1.2512e-18)
(0.003 6.79329e-20 1.23625e-18)
(0.003 1.96217e-19 1.11768e-18)
(0.003 8.24339e-20 1.0327e-18)
(0.003 -1.04312e-19 1.11499e-18)
(0.003 7.29573e-20 9.85135e-19)
(0.003 2.62291e-19 8.62398e-19)
(0.003 1.05155e-19 8.80487e-19)
(0.003 -8.22219e-20 7.39534e-19)
(0.003 -1.14037e-19 6.01649e-19)
(0.003 -1.03761e-19 6.59761e-19)
(0.003 -1.33403e-20 5.18657e-19)
(0.003 1.91185e-19 3.79931e-19)
(0.003 1.35102e-19 3.61218e-19)
(0.003 9.5167e-20 2.43313e-19)
(0.003 1.86272e-19 3.60925e-19)
(0.003 5.86224e-20 4.48847e-19)
(0.003 -1.31868e-19 4.96782e-19)
(0.003 -3.03057e-19 4.68121e-19)
(0.003 -2.38338e-19 2.87443e-19)
(0.003 3.99788e-20 1.95903e-19)
(0.003 1.81359e-19 7.40486e-20)
(0.003 -1.07159e-20 -8.35254e-20)
(0.003 -2.18524e-19 -1.89038e-19)
(0.003 -1.21012e-20 1.47759e-19)
(0.003 1.73694e-19 1.52682e-19)
(0.003 1.2517e-19 -6.74483e-20)
(0.003 -2.35299e-20 -1.02112e-19)
(0.003 -1.38828e-19 -2.39715e-19)
(0.003 -1.58356e-19 7.96481e-21)
(0.003 2.09087e-20 -5.30197e-20)
(0.003 1.98985e-19 -3.50775e-19)
(0.003 2.12742e-19 -3.74077e-19)
(0.003 1.3725e-19 -4.59791e-19)
(0.003 8.2535e-20 -5.45322e-19)
(0.003 -1.09595e-19 9.31776e-19)
(0.003 -2.85011e-19 1.37763e-18)
(0.003 -1.42966e-19 1.5134e-18)
(0.003 -9.43465e-21 1.33124e-18)
(0.003 5.07318e-20 1.28252e-18)
(0.003 4.54333e-20 1.29789e-18)
(0.003 2.20369e-20 1.24605e-18)
(0.003 7.67061e-20 1.21549e-18)
(0.003 7.88193e-21 1.08194e-18)
(0.003 -7.06689e-20 9.83906e-19)
(0.003 2.61543e-20 1.04222e-18)
(0.003 1.3069e-19 9.99692e-19)
(0.003 -1.42761e-20 9.77649e-19)
(0.003 -3.44897e-20 7.61224e-19)
(0.003 -4.54539e-21 6.07487e-19)
(0.003 -4.34014e-20 6.30276e-19)
(0.003 -1.4641e-20 4.48392e-19)
(0.003 -4.80707e-20 3.73677e-19)
(0.003 7.47567e-20 3.76861e-19)
(0.003 2.25434e-19 3.41248e-19)
(0.003 7.66944e-20 3.80022e-19)
(0.003 4.53199e-20 5.06049e-19)
(0.003 -8.34869e-20 4.96367e-19)
(0.003 -2.83666e-19 3.38527e-19)
(0.003 -1.55705e-19 1.65114e-19)
(0.003 -8.53921e-20 2.19662e-19)
(0.003 -6.21401e-20 4.32142e-20)
(0.003 -2.11293e-19 -2.11663e-19)
(0.003 -1.44601e-19 3.98194e-20)
(0.003 6.52209e-20 1.27148e-19)
(0.003 1.94758e-19 -1.69644e-20)
(0.003 2.07484e-19 -2.29766e-19)
(0.003 2.76591e-20 -2.14271e-19)
(0.003 1.51437e-20 -1.35654e-20)
(0.003 7.82811e-21 9.6852e-20)
(0.003 -2.31383e-20 -2.91122e-20)
(0.003 1.02758e-19 -2.67936e-19)
(0.003 1.91364e-19 -3.56559e-19)
(0.003 1.4815e-19 -4.71856e-19)
(0.003 1.85362e-19 -5.29311e-19)
(0.003 -1.42072e-19 8.50852e-19)
(0.003 -1.60742e-19 1.27391e-18)
(0.003 -8.86744e-21 1.46611e-18)
(0.003 -5.22925e-20 1.37274e-18)
(0.003 -1.15429e-19 1.31171e-18)
(0.003 -6.59617e-21 1.33657e-18)
(0.003 3.19262e-20 1.30256e-18)
(0.003 -2.68314e-20 1.21337e-18)
(0.003 -1.58451e-20 1.11868e-18)
(0.003 7.14504e-20 1.11118e-18)
(0.003 2.70121e-20 1.08169e-18)
(0.003 1.75566e-20 1.05322e-18)
(0.003 -2.47693e-20 9.64374e-19)
(0.003 1.55713e-20 8.53277e-19)
(0.003 -4.58494e-20 5.46538e-19)
(0.003 -5.22879e-20 4.70355e-19)
(0.003 -7.54519e-21 4.36753e-19)
(0.003 -7.08901e-20 3.84622e-19)
(0.003 -2.47698e-20 4.6961e-19)
(0.003 1.78136e-19 4.2101e-19)
(0.003 1.38694e-19 4.37492e-19)
(0.003 7.54555e-20 3.95261e-19)
(0.003 -9.2076e-20 3.46779e-19)
(0.003 -2.01436e-19 2.16017e-19)
(0.003 -1.13181e-19 1.28339e-19)
(0.003 -9.49104e-20 2.22519e-19)
(0.003 -1.66555e-19 7.90711e-20)
(0.003 -2.51249e-19 -2.78419e-20)
(0.003 -1.39565e-19 7.00695e-20)
(0.003 -2.16747e-20 1.26435e-19)
(0.003 -7.14723e-21 3.74399e-20)
(0.003 6.41132e-20 -2.55733e-19)
(0.003 1.19456e-19 -2.76888e-19)
(0.003 1.2809e-19 5.89467e-21)
(0.003 2.22045e-19 1.42026e-19)
(0.003 1.72044e-19 3.17477e-20)
(0.003 5.53177e-20 -1.91932e-19)
(0.003 -1.19198e-20 -4.51078e-19)
(0.003 -8.85815e-20 -5.25182e-19)
(0.003 2.72288e-21 -5.41634e-19)
(0.003 -1.52324e-19 7.97853e-19)
(0.003 -1.91078e-19 1.35068e-18)
(0.003 -1.54874e-19 1.65447e-18)
(0.003 -1.96891e-20 1.42185e-18)
(0.003 6.47312e-20 1.25755e-18)
(0.003 -2.08913e-20 1.31233e-18)
(0.003 -9.30753e-20 1.30239e-18)
(0.003 -1.52943e-19 1.19597e-18)
(0.003 -5.6548e-20 1.17293e-18)
(0.003 1.32712e-20 1.14376e-18)
(0.003 3.09383e-20 1.09742e-18)
(0.003 4.84512e-20 1.07893e-18)
(0.003 7.67574e-20 9.65181e-19)
(0.003 3.39924e-20 8.52638e-19)
(0.003 3.72771e-20 5.96752e-19)
(0.003 4.75677e-20 5.15824e-19)
(0.003 7.29509e-20 4.6308e-19)
(0.003 1.79836e-19 2.62652e-19)
(0.003 1.65776e-19 2.10845e-19)
(0.003 5.45513e-20 3.71738e-19)
(0.003 -1.03141e-19 4.85976e-19)
(0.003 -1.54728e-19 5.78681e-19)
(0.003 -9.00095e-20 3.84545e-19)
(0.003 -1.85984e-20 1.91741e-19)
(0.003 -1.39154e-19 9.76356e-20)
(0.003 -1.79606e-19 1.65835e-19)
(0.003 -1.67113e-19 1.50509e-19)
(0.003 -2.0958e-19 3.17684e-20)
(0.003 -8.97276e-20 7.09179e-20)
(0.003 -5.47258e-20 8.77487e-20)
(0.003 -4.19907e-20 -1.11125e-21)
(0.003 4.16594e-20 -1.73071e-19)
(0.003 1.21079e-19 -2.34692e-19)
(0.003 2.02093e-19 4.04792e-20)
(0.003 1.77855e-19 1.52547e-19)
(0.003 1.07236e-19 -2.14433e-21)
(0.003 -3.62532e-20 -2.49089e-19)
(0.003 -1.20284e-19 -4.24508e-19)
(0.003 -4.16748e-20 -5.20097e-19)
(0.003 -2.55201e-20 -5.31015e-19)
(0.003 -1.26692e-19 7.81338e-19)
(0.003 -2.5893e-19 1.31032e-18)
(0.003 -2.71062e-19 1.52487e-18)
(0.003 5.93272e-21 1.49407e-18)
(0.003 1.14373e-19 1.36562e-18)
(0.003 -8.3491e-20 1.27215e-18)
(0.003 -2.16823e-19 1.27179e-18)
(0.003 -1.36536e-19 1.24582e-18)
(0.003 3.12907e-20 1.22535e-18)
(0.003 3.524e-20 1.20612e-18)
(0.003 -3.39406e-20 1.08263e-18)
(0.003 6.04515e-20 1.03558e-18)
(0.003 7.14179e-20 9.81999e-19)
(0.003 8.92007e-21 8.82864e-19)
(0.003 1.4625e-19 6.28068e-19)
(0.003 8.39234e-20 5.43331e-19)
(0.003 9.11031e-21 5.20084e-19)
(0.003 9.86751e-20 3.79698e-19)
(0.003 2.40512e-19 2.73219e-19)
(0.003 -8.81627e-21 2.96624e-19)
(0.003 -1.87569e-19 3.7535e-19)
(0.003 -1.54465e-19 5.1034e-19)
(0.003 -4.78049e-20 4.95026e-19)
(0.003 -6.65349e-20 2.60888e-19)
(0.003 -4.47876e-20 3.62692e-20)
(0.003 -1.1231e-19 7.18751e-20)
(0.003 -8.47515e-21 9.78318e-20)
(0.003 -1.799e-20 6.90654e-20)
(0.003 -9.15689e-20 2.18732e-20)
(0.003 -1.48229e-21 8.68223e-21)
(0.003 -9.91837e-20 1.44576e-19)
(0.003 -1.00649e-19 -9.21266e-21)
(0.003 -5.27877e-20 -1.71332e-19)
(0.003 1.26398e-19 2.47163e-20)
(0.003 1.77347e-19 6.83861e-20)
(0.003 1.025e-19 -7.03165e-20)
(0.003 2.20032e-20 -1.26428e-19)
(0.003 -1.66888e-20 -2.573e-19)
(0.003 1.04454e-20 -5.04455e-19)
(0.003 2.39899e-20 -5.70757e-19)
(0.003 3.0768e-20 8.33313e-19)
(0.003 2.16239e-20 1.31887e-18)
(0.003 -7.34649e-20 1.46751e-18)
(0.003 -1.20359e-19 1.46394e-18)
(0.003 -2.05559e-20 1.42165e-18)
(0.003 -8.92777e-20 1.28141e-18)
(0.003 -1.8495e-19 1.18463e-18)
(0.003 -2.05599e-19 1.23765e-18)
(0.003 -1.24949e-19 1.29354e-18)
(0.003 1.05156e-19 1.2258e-18)
(0.003 2.34206e-19 1.06274e-18)
(0.003 9.63649e-20 1.05802e-18)
(0.003 3.36535e-20 8.77621e-19)
(0.003 1.0825e-20 8.27241e-19)
(0.003 6.66483e-20 7.48869e-19)
(0.003 1.12415e-20 6.13471e-19)
(0.003 -7.89362e-20 4.17037e-19)
(0.003 -1.73605e-19 2.59887e-19)
(0.003 -6.04901e-20 3.65979e-19)
(0.003 -5.54823e-20 3.40671e-19)
(0.003 -1.2816e-19 3.69528e-19)
(0.003 -6.26628e-20 5.45138e-19)
(0.003 -2.19608e-20 5.5397e-19)
(0.003 1.85811e-20 2.02978e-19)
(0.003 1.89098e-19 3.41416e-20)
(0.003 7.7168e-20 8.04355e-20)
(0.003 4.70521e-20 1.6826e-19)
(0.003 1.15324e-19 6.48452e-20)
(0.003 -3.40857e-21 -3.64295e-20)
(0.003 -1.08591e-19 -4.95059e-20)
(0.003 -2.15348e-19 6.79393e-20)
(0.003 -2.49004e-19 5.76595e-21)
(0.003 -9.17872e-20 -8.92771e-20)
(0.003 3.94174e-20 2.93451e-20)
(0.003 5.83562e-20 8.00181e-20)
(0.003 1.03444e-19 6.16881e-20)
(0.003 1.0898e-19 -3.77974e-20)
(0.003 3.76403e-20 -3.47181e-19)
(0.003 -1.07094e-19 -6.79844e-19)
(0.003 -1.35698e-19 -7.00135e-19)
(0.003 1.83299e-19 8.24762e-19)
(0.003 1.57897e-19 1.2827e-18)
(0.003 -9.84334e-20 1.435e-18)
(0.003 -1.75272e-19 1.42758e-18)
(0.003 -8.31133e-20 1.44558e-18)
(0.003 2.48249e-21 1.31288e-18)
(0.003 1.73583e-21 1.17132e-18)
(0.003 -1.40683e-19 1.10998e-18)
(0.003 -1.9976e-19 1.16346e-18)
(0.003 7.06685e-20 1.34135e-18)
(0.003 2.80397e-19 1.33199e-18)
(0.003 -1.7532e-20 1.09886e-18)
(0.003 -4.90537e-20 9.26685e-19)
(0.003 1.60661e-19 7.49036e-19)
(0.003 3.51496e-20 6.92493e-19)
(0.003 -6.0766e-20 5.59428e-19)
(0.003 -1.33362e-19 3.73081e-19)
(0.003 -1.6556e-19 2.62322e-19)
(0.003 -2.36536e-19 3.58069e-19)
(0.003 -1.88107e-19 3.61713e-19)
(0.003 -5.57984e-20 3.64061e-19)
(0.003 -1.35847e-19 4.34332e-19)
(0.003 -9.46204e-20 4.67202e-19)
(0.003 1.2422e-19 3.03542e-19)
(0.003 2.20835e-19 1.92989e-19)
(0.003 1.71953e-19 1.25433e-19)
(0.003 -1.8686e-20 7.96385e-20)
(0.003 1.20849e-19 -1.57032e-20)
(0.003 4.28079e-20 -4.70347e-20)
(0.003 -1.43074e-19 -1.34926e-19)
(0.003 -5.3952e-20 -5.01348e-21)
(0.003 -6.94555e-20 -9.98785e-20)
(0.003 -2.48808e-20 -1.18384e-19)
(0.003 -1.8859e-20 7.49213e-20)
(0.003 2.89567e-20 3.91272e-20)
(0.003 1.73833e-19 6.24849e-20)
(0.003 5.1616e-20 5.42844e-20)
(0.003 -7.90531e-20 -2.68652e-19)
(0.003 -1.82341e-19 -6.98543e-19)
(0.003 -2.50116e-19 -6.64289e-19)
(0.003 1.84909e-19 9.05001e-19)
(0.003 1.56817e-19 1.37005e-18)
(0.003 -4.09519e-20 1.39077e-18)
(0.003 -1.35005e-19 1.39299e-18)
(0.003 -1.61376e-19 1.38985e-18)
(0.003 4.69855e-20 1.27538e-18)
(0.003 -5.70108e-20 1.22734e-18)
(0.003 -3.82087e-20 1.16449e-18)
(0.003 2.18328e-20 1.17443e-18)
(0.003 4.59722e-20 1.31933e-18)
(0.003 -4.49533e-20 1.29559e-18)
(0.003 -5.78416e-20 1.00662e-18)
(0.003 6.83918e-21 8.52898e-19)
(0.003 -1.17507e-20 8.57762e-19)
(0.003 -3.29371e-20 6.9025e-19)
(0.003 -4.77558e-20 4.85958e-19)
(0.003 -1.74648e-19 3.49412e-19)
(0.003 -2.52597e-19 2.608e-19)
(0.003 -3.58242e-19 2.61566e-19)
(0.003 -1.64698e-19 2.91739e-19)
(0.003 -3.7595e-20 4.84006e-19)
(0.003 -1.4931e-19 4.3248e-19)
(0.003 1.74478e-21 3.7438e-19)
(0.003 2.22682e-19 3.09322e-19)
(0.003 1.72479e-19 1.81366e-19)
(0.003 1.97027e-19 1.13085e-19)
(0.003 8.25077e-20 -1.36175e-21)
(0.003 4.98458e-20 -1.33123e-19)
(0.003 1.4289e-20 -8.73342e-20)
(0.003 -4.82099e-20 -6.28286e-20)
(0.003 8.48481e-20 -2.08107e-20)
(0.003 1.96747e-19 -4.01359e-20)
(0.003 9.30804e-20 -4.74931e-20)
(0.003 6.79799e-21 4.30307e-20)
(0.003 2.08319e-20 6.71265e-20)
(0.003 3.57166e-20 5.2953e-20)
(0.003 -3.81602e-20 -6.73443e-20)
(0.003 -1.74977e-19 -2.69258e-19)
(0.003 -1.62645e-19 -4.10295e-19)
(0.003 -1.09332e-19 -2.36624e-19)
(0.003 -8.97271e-20 9.07261e-19)
(0.003 -1.01444e-19 1.38623e-18)
(0.003 2.20312e-20 1.40452e-18)
(0.003 -6.42339e-20 1.27325e-18)
(0.003 -1.74857e-19 1.32183e-18)
(0.003 -3.20573e-20 1.43183e-18)
(0.003 4.14344e-21 1.21432e-18)
(0.003 1.28584e-19 1.06121e-18)
(0.003 2.46397e-20 1.1061e-18)
(0.003 -1.98991e-19 1.22869e-18)
(0.003 -2.59516e-19 1.24176e-18)
(0.003 -5.2241e-20 1.12774e-18)
(0.003 -6.99694e-20 9.476e-19)
(0.003 -1.15727e-19 7.24203e-19)
(0.003 -2.62174e-20 5.99087e-19)
(0.003 -1.08027e-19 5.57721e-19)
(0.003 -1.80872e-19 3.21529e-19)
(0.003 -2.2481e-19 1.42464e-19)
(0.003 -2.60956e-19 2.38537e-19)
(0.003 -2.16787e-19 3.36268e-19)