/*--------------------------------*- C++ -*----------------------------------*\
| =========                 |                                                 |
| \\      /  F ield         | OpenFOAM: The Open Source CFD Toolbox           |
|  \\    /   O peration     | Version:  v2012                                 |
|   \\  /    A nd           | Website:  www.openfoam.com                      |
|    \\/     M anipulation  |                                                 |
\*---------------------------------------------------------------------------*/
FoamFile
{
    version     2.0;
    format      ascii;
    class       volScalarField;
    location    "50/leftSolid";
    object      T;
}
// * * * * * * * * * * * * * * * * * * * * * * * * * * * * * * * * * * * * * //

dimensions      [0 0 0 1 0 0 0];


internalField   nonuniform List<scalar> 
130
(
471.16516
471.22724
471.29574
471.341
471.36769
471.32956
471.26238
471.19236
471.15387
471.12055
471.07351
471.01489
470.97792
471.30235
471.36378
471.4197
471.44013
471.43016
471.37596
471.29718
471.22015
471.17453
471.12595
471.0661
470.99128
470.93573
471.36844
471.41729
471.46326
471.49264
471.47752
471.41146
471.30952
471.19364
471.10945
471.03266
470.93727
470.8343
470.73702
471.36276
471.40136
471.44437
471.47543
471.47746
471.42025
471.30299
471.14074
470.9806
470.84022
470.69346
470.51551
470.32766
471.3607
471.40536
471.45754
471.48774
471.48208
471.42076
471.29182
471.1106
470.89696
470.6679
470.44465
470.18351
469.89424
471.36069
471.40536
471.45754
471.48774
471.48208
471.42077
471.29182
471.1106
470.89696
470.66795
470.4448
470.18375
469.89443
471.36275
471.40135
471.44436
471.47544
471.47747
471.42026
471.30299
471.14073
470.98062
470.84026
470.69352
470.51559
470.3278
471.36843
471.41728
471.46326
471.49264
471.47753
471.41147
471.30953
471.19365
471.10947
471.03269
470.93731
470.83434
470.7371
471.30234
471.36378
471.4197
471.44013
471.43016
471.37598
471.2972
471.22016
471.17454
471.12596
471.06612
470.99129
470.93576
471.16515
471.22723
471.29574
471.341
471.3677
471.32958
471.2624
471.19238
471.1539
471.12058
471.07353
471.0149
470.97793
)
;

boundaryField
{
    minX
    {
        type            zeroGradient;
    }
    minZ
    {
        type            zeroGradient;
    }
    maxZ
    {
        type            zeroGradient;
    }
    leftSolid_to_bottomWater
    {
        type            compressible::turbulentTemperatureCoupledBaffleMixed;
        refValue        nonuniform List<scalar> 
130
(
1025.4504
1030.9622
1034.3493
1034.9006
1040.2422
1037.0805
1034.6125
1030.9222
1033.1481
1035.1044
1034.6508
1031.247
1029.9915
1034.2071
1041.2767
1043.9788
1042.1009
1041.7782
1039.4384
1036.9492
1034.7801
1038.6212
1039.224
1039.8429
1036.5916
1033.7852
1035.8826
1040.732
1041.7058
1044.74
1044.1907
1041.848
1039.009
1034.194
1036.9219
1040.1633
1039.0896
1038.7369
1031.5659
1033.9732
1036.4339
1037.443
1039.1903
1042.9836
1043.9552
1042.1121
1035.884
1032.1548
1034.4416
1036.2985
1032.6083
1013.0849
1033.8613
1037.4925
1040.5125
1041.4454
1042.903
1044.1434
1042.0686
1039.0301
1034.3523
1026.9677
1025.196
1017.3773
980.10207
1033.8613
1037.493
1040.5133
1041.4464
1042.9034
1044.1448
1042.0674
1039.0292
1034.3489
1026.9707
1025.2211
1017.425
980.12073
1033.9726
1036.4334
1037.4426
1039.1915
1042.9842
1043.9557
1042.1126
1035.8824
1032.1546
1034.444
1036.2986
1032.5999
1013.0942
1035.8823
1040.7317
1041.7053
1044.7397
1044.1913
1041.8485
1039.0095
1034.1941
1036.9239
1040.1639
1039.091
1038.7344
1031.5704
1034.2076
1041.2771
1043.979
1042.1007
1041.7785
1039.4387
1036.9499
1034.7794
1038.6202
1039.2228
1039.8413
1036.5895
1033.7867
1025.4499
1030.9617
1034.349
1034.9005
1040.2431
1037.081
1034.6135
1030.9233
1033.149
1035.1052
1034.6522
1031.246
1029.9915
)
;
        refGradient     uniform 0;
        valueFraction   nonuniform List<scalar> 
130
(
0.0075140686
0.0075140686
0.0075140686
0.0075140686
0.0075140686
0.0075140686
0.0075140686
0.0075140686
0.0075140686
0.0075140686
0.0075140686
0.0075140686
0.0075140686
0.0075140686
0.0075140686
0.0075140686
0.0075140686
0.0075140686
0.0075140686
0.0075140686
0.0075140686
0.0075140686
0.0075140686
0.0075140686
0.0075140686
0.0075140686
0.0075140686
0.0075140686
0.0075140686
0.0075140686
0.0075140686
0.0075140686
0.0075140686
0.0075140686
0.0075140686
0.0075140686
0.0075140686
0.0075140686
0.0075140686
0.0075140686
0.0075140686
0.0075140686
0.0075140686
0.0075140686
0.0075140686
0.0075140686
0.0075140686
0.0075140686
0.0075140686
0.0075140686
0.0075140686
0.0075140686
0.0075140686
0.0075140686
0.0075140686
0.0075140686
0.0075140686
0.0075140686
0.0075140686
0.0075140686
0.0075140686
0.0075140686
0.0075140686
0.0075140686
0.0075140686
0.0075140686
0.0075140686
0.0075140686
0.0075140686
0.0075140686
0.0075140686
0.0075140686
0.0075140686
0.0075140686
0.0075140686
0.0075140686
0.0075140686
0.0075140686
0.0075140686
0.0075140686
0.0075140686
0.0075140686
0.0075140686
0.0075140686
0.0075140686
0.0075140686
0.0075140686
0.0075140686
0.0075140686
0.0075140686
0.0075140686
0.0075140686
0.0075140686
0.0075140686
0.0075140686
0.0075140686
0.0075140686
0.0075140686
0.0075140686
0.0075140686
0.0075140686
0.0075140686
0.0075140686
0.0075140686
0.0075140686
0.0075140686
0.0075140686
0.0075140686
0.0075140686
0.0075140686
0.0075140686
0.0075140686
0.0075140686
0.0075140686
0.0075140686
0.0075140686
0.0075140686
0.0075140686
0.0075140686
0.0075140686
0.0075140686
0.0075140686
0.0075140686
0.0075140686
0.0075140686
0.0075140686
0.0075140686
0.0075140686
0.0075140686
0.0075140686
)
;
        value           nonuniform List<scalar> 
130
(
475.27871
475.3817
475.47512
475.52417
475.59083
475.52925
475.44404
475.34686
475.32542
475.30708
475.25703
475.17334
475.12726
475.48069
475.59475
475.67054
475.67667
475.66436
475.593
475.49612
475.4034
475.38704
475.3434
475.28871
475.19004
475.11384
475.55884
475.64374
475.69667
475.7486
475.72946
475.64628
475.52377
475.37263
475.30966
475.25785
475.15515
475.05038
474.89998
475.53882
475.59561
475.64586
475.6898
475.72032
475.67078
475.54054
475.33273
475.14585
475.02379
474.8922
474.68802
474.35495
475.5359
475.6075
475.68198
475.71898
475.7243
475.67272
475.52914
475.32644
475.07929
474.79658
474.5619
474.24424
473.67726
475.53589
475.60751
475.68199
475.71899
475.72431
475.67274
475.52913
475.32643
475.07926
474.79665
474.56224
474.24484
473.67759
475.53881
475.5956
475.64586
475.68982
475.72033
475.67079
475.54055
475.33272
475.14586
475.02384
474.89227
474.68803
474.35516
475.55883
475.64373
475.69666
475.7486
475.72948
475.64629
475.52379
475.37264
475.30969
475.25788
475.1552
475.0504
474.90009
475.48069
475.59475
475.67054
475.67667
475.66437
475.59301
475.49614
475.40341
475.38705
475.34341
475.28871
475.19004
475.11388
475.27869
475.38169
475.47511
475.52417
475.59085
475.52927
475.44407
475.34689
475.32546
475.30711
475.25706
475.17334
475.12726
)
;
        Tnbr            T;
        thicknessLayers List<scalar> 0();
        kappaLayers     List<scalar> 0();
        kappaMethod     solidThermo;
        kappa           none;
        alphaAni        none;
        alpha           none;
        field           T;
    }
    leftSolid_to_heater
    {
        type            compressible::turbulentTemperatureCoupledBaffleMixed;
        refValue        nonuniform List<scalar> 10(463.39639 461.39503 456.84651 448.73435 436.12335 436.12343 448.73446 456.84647 461.39487 463.39609);
        refGradient     uniform 0;
        valueFraction   nonuniform List<scalar> 10(2.08329e-05 2.08329e-05 2.08329e-05 2.08329e-05 2.08329e-05 2.08329e-05 2.08329e-05 2.08329e-05 2.08329e-05 2.08329e-05);
        value           nonuniform List<scalar> 10(470.92624 470.88396 470.6852 470.2758 469.84244 469.84263 470.27595 470.68528 470.884 470.92625);
        Tnbr            T;
        thicknessLayers List<scalar> 1(0.001);
        kappaLayers     List<scalar> 1(0.0005);
        kappaMethod     solidThermo;
        kappa           none;
        alphaAni        none;
        alpha           none;
        field           T;
    }
    leftSolid_to_topAir
    {
        type            compressible::turbulentTemperatureCoupledBaffleMixed;
        refValue        nonuniform List<scalar> 
130
(
307.10301
313.88693
320.14636
325.95719
331.40331
336.5456
341.43204
346.09238
350.50467
354.62438
358.45545
361.99395
365.21854
307.10748
313.81949
319.937
325.54205
330.71619
335.5116
339.96307
344.09234
347.90651
351.3968
354.53687
357.29086
359.59933
307.1103
313.83973
319.97636
325.60051
330.79593
335.61805
340.1058
344.28571
348.17349
351.77248
355.08243
358.09123
360.76764
307.11026
313.84378
319.99029
325.63045
330.85025
335.70847
340.24926
344.50763
348.51334
352.2919
355.86574
359.25563
362.46082
307.11015
313.84564
319.99668
325.64315
330.87102
335.74002
340.29543
344.57394
348.60655
352.42065
356.04201
359.49025
362.71214
307.11015
313.84564
319.99668
325.64316
330.87102
335.74002
340.29543
344.57394
348.60655
352.42065
356.04202
359.49027
362.71216
307.11026
313.84378
319.99029
325.63045
330.85025
335.70847
340.24926
344.50763
348.51334
352.2919
355.86575
359.25564
362.46083
307.1103
313.83973
319.97636
325.60051
330.79593
335.61805
340.1058
344.28571
348.17349
351.77248
355.08244
358.09124
360.76765
307.10748
313.81949
319.937
325.54205
330.71619
335.5116
339.96308
344.09234
347.90652
351.3968
354.53688
357.29086
359.59934
307.10301
313.88693
320.14635
325.95718
331.40331
336.5456
341.43204
346.09238
350.50467
354.62438
358.45546
361.99395
365.21854
)
;
        refGradient     uniform 0;
        valueFraction   nonuniform List<scalar> 
130
(
0.00032132529
0.00032132529
0.00032132529
0.00032132529
0.00032132529
0.00032132529
0.00032132529
0.00032132529
0.00032132529
0.00032132529
0.00032132529
0.00032132529
0.00032132529
0.00032132529
0.00032132529
0.00032132529
0.00032132529
0.00032132529
0.00032132529
0.00032132529
0.00032132529
0.00032132529
0.00032132529
0.00032132529
0.00032132529
0.00032132529
0.00032132529
0.00032132529
0.00032132529
0.00032132529
0.00032132529
0.00032132529
0.00032132529
0.00032132529
0.00032132529
0.00032132529
0.00032132529
0.00032132529
0.00032132529
0.00032132529
0.00032132529
0.00032132529
0.00032132529
0.00032132529
0.00032132529
0.00032132529
0.00032132529
0.00032132529
0.00032132529
0.00032132529
0.00032132529
0.00032132529
0.00032132529
0.00032132529
0.00032132529
0.00032132529
0.00032132529
0.00032132529
0.00032132529
0.00032132529
0.00032132529
0.00032132529
0.00032132529
0.00032132529
0.00032132529
0.00032132529
0.00032132529
0.00032132529
0.00032132529
0.00032132529
0.00032132529
0.00032132529
0.00032132529
0.00032132529
0.00032132529
0.00032132529
0.00032132529
0.00032132529
0.00032132529
0.00032132529
0.00032132529
0.00032132529
0.00032132529
0.00032132529
0.00032132529
0.00032132529
0.00032132529
0.00032132529
0.00032132529
0.00032132529
0.00032132529
0.00032132529
0.00032132529
0.00032132529
0.00032132529
0.00032132529
0.00032132529
0.00032132529
0.00032132529
0.00032132529
0.00032132529
0.00032132529
0.00032132529
0.00032132529
0.00032132529
0.00032132529
0.00032132529
0.00032132529
0.00032132529
0.00032132529
0.00032132529
0.00032132529
0.00032132529
0.00032132529
0.00032132529
0.00032132529
0.00032132529
0.00032132529
0.00032132529
0.00032132529
0.00032132529
0.00032132529
0.00032132529
0.00032132529
0.00032132529
0.00032132529
0.00032132529
0.00032132529
0.00032132529
0.00032132529
)
;
        value           nonuniform List<scalar> 
130
(
471.06068
471.12488
471.19536
471.24246
471.27093
471.23447
471.1689
471.10044
471.06342
471.03146
470.98571
470.92832
470.89243
471.19785
471.26139
471.31924
471.34144
471.33314
471.28051
471.2032
471.12755
471.08323
471.03583
470.97707
470.90317
470.8484
471.26389
471.31486
471.36278
471.39393
471.38048
471.31597
471.21551
471.10105
471.01823
470.94267
470.84841
470.74652
470.65017
471.25818
471.29892
471.34387
471.37672
471.38042
471.32473
471.20896
471.04815
470.88942
470.75038
470.60494
470.4283
470.24161
471.25608
471.30288
471.35703
471.38904
471.38505
471.32527
471.19782
471.01802
470.80578
470.57813
470.35633
470.09665
469.80871
471.25608
471.30288
471.35703
471.38905
471.38506
471.32528
471.19782
471.01802
470.80578
470.57818
470.35648
470.09689
469.80891
471.25817
471.29891
471.34387
471.37672
471.38043
471.32474
471.20896
471.04814
470.88943
470.75042
470.605
470.42837
470.24175
471.26388
471.31486
471.36277
471.39393
471.38049
471.31598
471.21552
471.10106
471.01825
470.9427
470.84845
470.74656
470.65025
471.19785
471.26138
471.31924
471.34144
471.33315
471.28052
471.20321
471.12757
471.08324
471.03585
470.97708
470.90319
470.84843
471.06067
471.12487
471.19535
471.24246
471.27094
471.23449
471.16892
471.10046
471.06345
471.03149
470.98574
470.92832
470.89244
)
;
        Tnbr            T;
        thicknessLayers List<scalar> 0();
        kappaLayers     List<scalar> 0();
        kappaMethod     solidThermo;
        kappa           none;
        alphaAni        none;
        alpha           none;
        field           T;
    }
}


// ************************************************************************* //
