/*--------------------------------*- C++ -*----------------------------------*\
| =========                 |                                                 |
| \\      /  F ield         | OpenFOAM: The Open Source CFD Toolbox           |
|  \\    /   O peration     | Version:  v2012                                 |
|   \\  /    A nd           | Website:  www.openfoam.com                      |
|    \\/     M anipulation  |                                                 |
\*---------------------------------------------------------------------------*/
FoamFile
{
    version     2.0;
    format      ascii;
    class       volScalarField;
    location    "760/bottomWater";
    object      p_rgh;
}
// * * * * * * * * * * * * * * * * * * * * * * * * * * * * * * * * * * * * * //

dimensions      [1 -1 -2 0 0 0 0];


internalField   nonuniform List<scalar> 
1460
(
0.27783262
0.27004598
0.29001212
0.2965248
0.2980509
0.294569
0.29422
0.29233992
0.2891359
0.27733268
0.27855132
0.28108959
0.27852923
0.28052623
0.28190002
0.2839487
0.28451753
0.29409973
0.29685254
0.30607676
0.30573044
0.30488769
0.31226638
0.30953668
0.30557746
0.30388354
0.30669616
0.31180117
0.3178289
0.30899634
-0.23375882
-0.23294398
-0.20647799
-0.20137235
-0.22941955
-0.25790778
-0.20860675
-0.19892953
-0.20226465
-0.2385008
-0.24437852
-0.23554303
-0.24775923
-0.25490666
-0.25381981
-0.25775495
-0.24305489
-0.20973726
-0.19160551
-0.17759263
-0.18677778
-0.1986542
-0.20780714
-0.25872196
-0.27983341
-0.23493507
-0.22143214
-0.19538483
-0.21474183
-0.24151659
0.098608771
0.087470792
0.063716011
0.068900108
0.076320443
0.072839758
0.050122855
0.072620758
0.071304389
0.099594493
0.097440276
0.10714531
0.11058827
0.11057622
0.10282045
0.068061699
0.060474222
0.02997492
0.060723752
0.064666256
0.062861799
0.075740851
0.037305798
0.072872748
0.054256827
0.057189978
0.051995193
0.066660432
0.061215566
0.084824662
-0.010708642
-0.032454385
-0.037861739
-0.055600931
-0.091130722
-0.051333816
-0.081691486
-0.049751656
-0.044151053
-0.079976898
-0.079748339
-0.091414969
-0.069608757
-0.057233006
-0.053588434
-0.052168339
-0.076172876
-0.066583936
-0.070614861
-0.025694846
-0.03328038
-0.070369886
-0.077964236
-0.092685372
-0.049209886
-0.095027435
-0.069210841
-0.043144196
-0.040823481
-0.061113834
0.011414869
0.0015885047
-0.0063040267
-0.0170097
0.0099221539
0.0098593565
0.0082704007
-0.016301333
-0.014227837
-0.010458649
0.0048966678
0.037243719
0.024289261
0.014691321
0.016126566
0.0069729327
0.0095037272
0.0014540641
-0.02610578
-0.0059488247
-0.017962727
-0.016066434
0.012632136
0.019028892
0.015089783
0.013694903
-0.0098302481
-0.012416738
-0.01114364
-0.0026953617
0.27917247
0.27361489
0.2855087
0.29580056
0.29990096
0.29363537
0.28930539
0.28022824
0.27422791
0.28270904
0.28215254
0.28054944
0.28010673
0.29624804
0.30600823
0.29928285
0.30192247
0.29555687
0.29711027
0.3031015
0.29613095
0.31696247
0.30821473
0.30827576
0.3114468
0.3041133
0.30514429
0.31622784
0.30298142
0.30985636
-0.23903374
-0.24317221
-0.22580673
-0.20711288
-0.23888553
-0.27304494
-0.26408305
-0.26212467
-0.24648136
-0.26389057
-0.2572581
-0.25311684
-0.24068498
-0.2047919
-0.20445734
-0.24121779
-0.26902523
-0.26620719
-0.23392514
-0.21778644
-0.2262614
-0.21052402
-0.26687257
-0.29360573
-0.28350761
-0.28744962
-0.24626954
-0.22972189
-0.27724152
-0.28090559
0.11336419
0.089777043
0.059758384
0.046670059
0.059581345
0.073713673
0.086337092
0.078902256
0.067676725
0.088685977
0.10757145
0.082348634
0.072507542
0.034988742
0.078134323
0.061837506
0.088245897
0.077238611
0.059734926
0.067216163
0.074870577
0.032433917
0.046755393
0.068641176
0.11820516
0.058166863
0.044714467
0.044269552
0.058315131
0.077219878
-0.03015999
-0.064316647
-0.088103698
-0.085579017
-0.10339484
-0.043632729
-0.048652522
-0.052224581
-0.069625851
-0.048573087
-0.043724766
-0.061692002
-0.070965613
-0.062480006
-0.053808476
-0.085624797
-0.042974103
-0.060832777
-0.11751686
-0.065990619
-0.068681933
-0.080525057
-0.098540557
-0.064888114
-0.046972269
-0.064350165
-0.10974063
-0.061719632
-0.088456133
-0.054260444
0.003245706
-0.009475553
-0.0056785772
0.013236904
0.026328171
0.012116862
0.011623132
0.0038537989
0.016956891
0.0069508949
0.0086006864
-0.0033557477
0.016456444
0.0051436216
-0.0074403618
0.0085345975
0.020478003
0.011489525
0.0068265532
-0.0059898423
-0.023175373
-0.00012792374
0.0111364
0.013614907
0.035264683
0.014790355
0.013232416
-0.0069777359
-0.004253039
0.0029957818
0.27499245
0.2917451
0.28878981
0.29786629
0.29947945
0.29118499
0.28298635
0.28156118
0.29665598
0.26947477
0.2882451
0.27678063
0.28962936
0.27103077
0.29903797
0.29860576
0.29736893
0.29636072
0.2915243
0.2877994
0.28493351
0.28564732
0.29383695
0.30125888
0.30128387
0.30091638
0.2947761
0.30499067
0.30278367
0.30824747
-0.23315975
-0.21207209
-0.21656482
-0.26630783
-0.26765097
-0.26572231
-0.26619612
-0.2290944
-0.21416936
-0.2551892
-0.25836924
-0.24968899
-0.24399219
-0.25011482
-0.20492847
-0.21245067
-0.26841408
-0.2679673
-0.25307785
-0.25123879
-0.25754711
-0.26187619
-0.27759021
-0.28790244
-0.28626222
-0.28348792
-0.2702814
-0.26815441
-0.28947356
-0.28177662
0.087657518
0.040155153
0.080734387
0.075301012
0.11097223
0.098039362
0.064675222
0.06377205
0.027772691
0.05773515
0.084308133
0.11004401
0.10064129
0.086955287
0.043885465
0.050766644
0.093629173
0.11318298
0.10795288
0.10506327
0.11558961
0.10411601
0.091595796
0.12916603
0.13336689
0.095284081
0.085934734
0.07998627
0.080132608
0.13436839
-0.050820841
-0.076868369
-0.078213369
-0.054338168
-0.035461962
-0.036029684
-0.052090061
-0.061256616
-0.05498275
-0.067046288
-0.038770239
-0.034556839
-0.049324029
-0.058028231
-0.06909397
-0.072019451
-0.063869363
-0.062125812
-0.1126279
-0.091928095
-0.077310764
-0.07161404
-0.087155535
-0.051851245
-0.038611869
-0.046871581
-0.074569889
-0.066623082
-0.052478103
-0.040144452
0.0085619981
0.021402036
0.029891383
0.025789246
0.039876015
0.029050843
0.017126213
0.025410132
0.022847133
0.0046370453
-0.0051437388
-0.007943397
-0.010285428
-0.01036117
0.0046083417
0.020358282
0.014945918
0.019228306
0.045440816
0.023989456
-0.0072510746
0.0076540154
0.015459804
0.02587332
0.037151957
0.022507547
0.037255609
0.023950562
0.02556992
0.029230677
0.2775175
0.29272767
0.29489499
0.29406366
0.29048728
0.28938555
0.30260952
0.30204691
0.2968545
0.283188
0.27325611
0.27346658
0.28395785
0.28068658
0.28267333
0.27992133
0.28327102
0.28394143
0.30752236
0.30096857
0.30697278
0.30922151
0.30552561
0.30822989
0.30797388
0.30069282
0.30243367
0.31434078
0.30975013
0.31271966
-0.23881567
-0.23214303
-0.26061469
-0.26140799
-0.26774098
-0.24987775
-0.21854
-0.17861546
-0.1697857
-0.22485945
-0.24884501
-0.24795499
-0.24977995
-0.24695793
-0.2450547
-0.2415396
-0.25560304
-0.25785627
-0.21280464
-0.20615732
-0.21246344
-0.22909409
-0.26605697
-0.28276025
-0.28328246
-0.27580055
-0.2442913
-0.23416698
-0.25710739
-0.27753792
0.0956384
0.053173742
0.11609021
0.097316818
0.064117207
0.044751222
0.024779269
0.0278758
0.034978324
0.05250176
0.079565197
0.093579286
0.10838229
0.11443176
0.097717539
0.097277111
0.082649717
0.067849254
0.04136986
0.074106717
0.066131083
0.075343238
0.072165028
0.10099138
0.084352795
0.050730692
0.041122575
0.052375767
0.051098933
0.08978588
-0.065019601
-0.093282887
-0.057648848
-0.045914062
-0.048968739
-0.072756409
-0.0579156
-0.057077822
-0.062337224
-0.054645759
-0.041618447
-0.03303838
-0.023798297
-0.03018433
-0.048639409
-0.060605873
-0.062559919
-0.10159978
-0.094332337
-0.082973272
-0.065340033
-0.055279637
-0.089601222
-0.052662198
-0.047258534
-0.087941091
-0.078187488
-0.064552126
-0.12024973
-0.053200962
0.0086292503
0.018262496
0.019432412
0.030764495
0.016466182
0.021307974
0.012193016
0.010263087
-0.00024174412
-0.015348807
-0.0084771415
-0.0082302387
-0.0069318644
-0.0066479551
-0.0097953598
-3.5977092e-05
-0.0023916924
0.01267047
0.012553582
-0.0036712309
-0.020491179
-0.0089403142
0.0039691312
0.015879029
0.016565803
0.0096297241
-0.0010043035
-0.0080353797
0.01081847
0.012193859
0.28440918
0.2828806
0.28147404
0.27847044
0.2944409
0.30435742
0.30575806
0.30673122
0.30962537
0.3040492
0.29753532
0.28704271
0.29069779
0.30202646
0.30047239
0.30097941
0.30603526
0.31523036
0.30323805
0.30358696
0.29588499
0.30829732
0.30538014
0.31608522
0.31746519
0.31719184
-0.25322358
-0.2538892
-0.25333409
-0.25757779
-0.21470778
-0.20701611
-0.2650229
-0.23673707
-0.20841834
-0.19044221
-0.20177204
-0.23632824
-0.25391722
-0.26854445
-0.257689
-0.250517
-0.22030068
-0.21894927
-0.25782815
-0.27649739
-0.25778142
-0.22878635
-0.20017528
-0.20335678
-0.23811449
-0.26615164
0.11901649
0.093894927
0.081987852
0.051193144
0.040897904
0.041624244
0.087548161
0.074560601
0.062069868
0.067279974
0.053053458
0.048891808
0.076366304
0.094001919
0.076783009
0.073803551
0.057606709
0.031282782
0.080872589
0.059131644
0.059014516
0.040380431
0.05000595
0.060130923
0.033696701
0.073855263
-0.041329082
-0.063619699
-0.062891933
-0.079625913
-0.069969552
-0.071011112
-0.039154314
-0.083490396
-0.040619656
-0.036505128
-0.052185141
-0.069652597
-0.04889594
-0.045745372
-0.086165851
-0.064447568
-0.063501763
-0.073838835
-0.072879864
-0.029596659
-0.075135111
-0.053997935
-0.045206528
-0.046875678
-0.08115302
-0.071463666
-0.0050695938
-0.0040386819
0.0020667877
0.0043594084
0.014437138
0.011535514
0.0045506331
-0.0023174765
-0.015610055
-0.010025637
-0.01077179
-0.002386258
-0.0020926031
8.882153e-05
-0.0053084854
-0.019181999
-0.0077905156
0.001598234
-0.0030318908
0.0098225471
0.0081822463
-0.012239938
-0.01402352
-0.014055896
-0.0077849071
-0.00098324277
0.28378846
0.28446413
0.27301123
0.28278584
0.2986955
0.29762372
0.30890223
0.30232242
0.30624623
0.29599836
0.31117074
0.28624212
0.29344285
0.28790156
0.29843822
0.2988233
0.30466173
0.30197603
0.30107101
0.29823433
0.29389916
0.31152083
0.31579629
0.32443709
0.32768814
0.32614321
-0.24198984
-0.25120897
-0.25666396
-0.24210699
-0.19087603
-0.22859801
-0.2527033
-0.27208183
-0.25775067
-0.22981186
-0.20656909
-0.25504686
-0.25684338
-0.26379095
-0.27260243
-0.28314647
-0.28407974
-0.26681141
-0.25137142
-0.27129605
-0.2638919
-0.22110011
-0.19607892
-0.20570033
-0.24141256
-0.27710266
0.10906646
0.10633665
0.08106789
0.037546863
0.054237154
0.049726764
0.086379408
0.079028517
0.085895101
0.058849116
0.041375075
0.066627266
0.090159428
0.11616215
0.090710274
0.10859994
0.090565008
0.08967952
0.088017369
0.077137021
0.063979407
0.051967736
0.048457099
0.059992687
0.033073961
0.083067948
-0.079028797
-0.05297708
-0.051851474
-0.064228306
-0.050911802
-0.051400131
-0.046585734
-0.012617842
-0.043170469
-0.058466692
-0.056904614
-0.072954959
-0.026713075
-0.058963899
-0.053547944
-0.059449485
-0.08593312
-0.093257678
-0.095535797
-0.050661078
-0.080070317
-0.037032503
-0.028672853
-0.041061785
-0.080013007
-0.053650611
0.01874539
-0.0093904626
-0.016210337
0.0037063577
-0.011427569
-0.011680352
-0.00031529699
0.013991856
0.0065630634
-0.0040008612
0.015264516
0.020757876
0.012814087
-0.0094799959
-0.0059939637
0.002072795
0.010341795
0.037318799
0.024954378
-0.0042035972
-0.012052947
-0.018408228
-0.014820435
-0.020232843
-0.0070587039
-0.00075514326
0.28344537
0.2786205
0.26847673
0.29824931
0.28929026
0.30404346
0.30312884
0.29840947
0.29580515
0.29264696
0.29290875
0.29496462
0.28970366
0.28256431
0.30702189
0.29986541
0.30675294
0.30886154
0.30583478
0.3055171
0.3105938
0.30205228
0.30610445
0.30382635
0.30259978
0.2983255
0.30984573
0.32498566
0.32234478
0.3226103
-0.24789545
-0.2545224
-0.25281516
-0.18394417
-0.18974896
-0.18742368
-0.21700944
-0.25496803
-0.25985877
-0.24488806
-0.25511398
-0.26925869
-0.25982388
-0.25935439
-0.19534369
-0.19808114
-0.20842837
-0.22875485
-0.25984795
-0.28359844
-0.28139682
-0.27842659
-0.25576086
-0.25282973
-0.28065672
-0.26110232
-0.23530532
-0.22784781
-0.27687913
-0.29089106
0.10216046
0.069087859
0.04422296
0.019289106
0.075431539
0.052190579
0.067258453
0.074274448
0.095871705
0.098549745
0.092993672
0.10687653
0.083576363
0.054572163
0.030362433
0.072756342
0.067037187
0.073889931
0.067159012
0.09545884
0.10856456
0.075895988
0.029853952
0.092177317
0.043290632
0.062279969
0.046538083
0.052007214
0.049888911
0.086586506
-0.057186171
-0.056107091
-0.063302766
-0.065429762
-0.049782567
-0.026673181
-0.045309183
-0.08252101
-0.05859981
-0.081975316
-0.088324118
-0.053318578
-0.049326928
-0.079622727
-0.076121766
-0.050898938
-0.04996528
-0.070370004
-0.094977748
-0.053128294
-0.041650569
-0.04832762
-0.062515691
-0.069539806
-0.036734282
-0.057962964
-0.067309853
-0.079332992
-0.11223158
-0.049957775
0.0085959833
0.0016819125
0.0026212267
-0.00012963039
-0.022076191
-0.01526343
-0.017772564
-0.0048640403
0.0055764932
0.029185428
0.028987815
0.026180974
0.012614079
0.012303878
0.0028445439
-0.01543374
-0.012063034
-0.0068705856
0.017439076
0.0095475564
0.029134345
0.024051372
0.01846871
0.026822687
0.0063980799
-0.0043059874
-0.015183262
-0.011600003
0.012187946
0.016629882
0.2876335
0.28471662
0.27726134
0.29733029
0.29261398
0.30202921
0.28902032
0.29999706
0.30718411
0.29673626
0.29836529
0.30052811
0.29813382
0.29012137
0.2916259
0.30520844
0.30508442
0.31150312
0.3123395
0.31064768
0.31258121
0.30790143
0.3257094
0.29943004
0.31404956
0.30490439
0.29500138
0.33103147
0.3232662
0.32620207
-0.25691178
-0.25986208
-0.24790502
-0.19594301
-0.18536935
-0.18746793
-0.22981236
-0.19746391
-0.21490401
-0.26192048
-0.28133833
-0.27914122
-0.27066939
-0.26998933
-0.25712993
-0.21719126
-0.20157245
-0.19494781
-0.23050646
-0.25713217
-0.27478738
-0.2241336
-0.21007326
-0.26909651
-0.28497959
-0.26860675
-0.26730684
-0.23086857
-0.29455664
-0.28996966
0.098544195
0.073412971
0.04904982
0.032982182
0.076571393
0.059902326
0.11163769
0.060722455
0.045371478
0.057427108
0.081375488
0.11183739
0.090611944
0.079828701
0.045761071
0.057811081
0.072510331
0.059960234
0.035910988
0.084577283
0.057981297
0.040278253
0.026676761
0.055012778
0.076256346
0.074666618
0.049749731
0.038117426
0.065451129
0.12393552
-0.043103611
-0.050252613
-0.078346959
-0.064664246
-0.049141257
-0.039375485
-0.070068377
-0.080099465
-0.062683136
-0.079746184
-0.048440834
-0.038492867
-0.04358465
-0.061982605
-0.087405672
-0.051637851
-0.055208242
-0.056992421
-0.060491559
-0.060605113
-0.037438953
-0.077582027
-0.054533026
-0.090933305
-0.031207336
-0.033699343
-0.07986848
-0.052769855
-0.073250418
-0.023237809
0.018103374
0.010347429
0.013467515
0.0068290442
-0.0066200054
-0.0071301235
-0.0022419121
0.020019201
0.031261224
0.029652822
0.028283429
0.037177147
0.020951105
0.011835353
0.0048130274
-0.0074502812
-0.017695481
-0.013338372
-0.019401764
-0.0051950694
-0.0055116071
0.0068184741
0.022812986
0.024814932
0.032178159
-0.0031985564
0.0048126806
0.022648317
0.033361678
0.047888837
0.28846032
0.29091449
0.28697412
0.28971017
0.2965451
0.29919208
0.30030257
0.29060703
0.28426115
0.28523522
0.29224834
0.28891793
0.29161629
0.29344106
0.2965038
0.29136748
0.3137883
0.30962342
0.31487134
0.30997445
0.31196574
0.31257785
0.3130272
0.30209343
0.30820098
0.31259783
0.29160559
0.32884841
0.32375407
0.32518096
-0.24299296
-0.26285113
-0.26523955
-0.25340062
-0.21775504
-0.19996715
-0.20866695
-0.23795946
-0.25323541
-0.26889014
-0.27508116
-0.26888461
-0.25203732
-0.27616889
-0.26440417
-0.26463861
-0.22962277
-0.25362882
-0.28599862
-0.27263797
-0.25092014
-0.20621349
-0.22222172
-0.27736784
-0.28699822
-0.27087113
-0.2692344
-0.24142703
-0.28367064
-0.29738527
0.088549038
0.085904345
0.070432075
0.050847959
0.035899592
0.056250205
0.058132099
0.052759799
0.067599348
0.083664507
0.10704421
0.10816668
0.095442224
0.099588229
0.08887278
0.090732719
0.042663993
0.078249243
0.089192371
0.097957002
0.055578734
0.067864495
0.031943343
0.061899175
0.083389912
0.096659682
0.054326961
0.035165573
0.061123232
0.090047376
-0.080674172
-0.044413685
-0.041297503
-0.063595588
-0.071368635
-0.055164852
-0.050122814
-0.066459325
-0.073702528
-0.072810253
-0.060054619
-0.076056599
-0.098070974
-0.069203316
-0.062623304
-0.07234572
-0.10231268
-0.11119631
-0.050611621
-0.052069673
-0.05669796
-0.043751229
-0.067760577
-0.079722005
-0.033729274
-0.015237134
-0.10373911
-0.076130128
-0.099506941
-0.039053523
0.031902532
0.0050895792
-0.0020929551
-0.00092535537
-0.0004654992
-0.015933672
-0.020142694
-0.0079628
0.0066784375
0.00098370573
0.014524052
0.03066254
0.03862414
-0.00046940723
-0.0014244765
-0.010738809
0.0013458028
0.021586198
0.018178045
0.012922922
-0.0049642
-0.0069222098
0.0025876352
0.011089855
0.0099501189
-0.0023389232
-0.0092462074
0.014477605
0.032537236
0.035949529
0.29515943
0.2951235
0.28801783
0.29123648
0.29298795
0.28799034
0.2843559
0.28496394
0.28928965
0.29220322
0.289873
0.30803426
0.31773597
0.30123545
0.29844949
0.30019274
0.3019898
0.302959
0.30643989
0.2975072
0.30836756
0.30550106
0.30938237
0.29841462
0.30610909
0.30686102
0.29420593
0.31621967
0.32396306
0.32014701
-0.19824917
-0.2140509
-0.23671837
-0.26409069
-0.25599693
-0.24241299
-0.2469932
-0.26246125
-0.25997809
-0.25399848
-0.26004768
-0.20918049
-0.17714933
-0.23349908
-0.25633987
-0.26005142
-0.26295231
-0.26923474
-0.27267805
-0.26472906
-0.22692361
-0.20006596
-0.23073875
-0.26497016
-0.27729236
-0.26613354
-0.26613463
-0.22845217
-0.22715192
-0.27008937
0.075787095
0.048708912
0.075944789
0.067275363
0.10290951
0.078832579
0.092789806
0.088411457
0.1112759
0.11008763
0.086530195
0.041798678
0.042385885
0.068475595
0.11586664
0.10749719
0.10049859
0.11565576
0.10188514
0.075944937
0.055009029
0.075338471
0.051980124
0.066180274
0.093447413
0.10764856
0.081605023
0.056973763
0.030085427
0.068965071
-0.053788358
-0.06683466
-0.086469811
-0.039808976
-0.040599547
-0.093193363
-0.084909021
-0.045950851
-0.030940615
-0.040993419
-0.061826369
-0.066030483
-0.072022701
-0.057169443
-0.057385799
-0.081940734
-0.095456591
-0.063378033
-0.050752594
-0.080069524
-0.071455118
-0.057402058
-0.036336226
-0.049331773
-0.023272195
-0.0072020943
-0.04567426
-0.059792863
-0.084222704
-0.075484411
0.00076737758
0.0053372157
0.025176373
0.021011552
0.022480165
0.030296591
0.013416863
0.0003041353
0.00090720488
-0.0033102118
0.0024679176
0.013900964
0.010653079
-0.01133123
-0.010351018
-0.0053455469
0.029285985
0.014123165
0.025161168
0.025793675
0.0051885667
-0.0051342642
-0.0053598777
-0.0038070175
-0.00061315332
0.0024651098
-0.014668176
-0.018472939
0.012594175
0.018921545
)
;

boundaryField
{
    minX
    {
        type            fixedFluxPressure;
        gradient        uniform 0;
        value           nonuniform List<scalar> 
50
(
0.27783262
-0.23375882
0.098608771
-0.010708642
0.011414869
0.27917247
-0.23903374
0.11336419
-0.03015999
0.003245706
0.27499245
-0.23315975
0.087657518
-0.050820841
0.0085619981
0.2775175
-0.23881567
0.0956384
-0.065019601
0.0086292503
0.28440918
-0.25322358
0.11901649
-0.041329082
-0.0050695938
0.28378846
-0.24198984
0.10906646
-0.079028797
0.01874539
0.28344537
-0.24789545
0.10216046
-0.057186171
0.0085959833
0.2876335
-0.25691178
0.098544195
-0.043103611
0.018103374
0.28846032
-0.24299296
0.088549038
-0.080674172
0.031902532
0.29515943
-0.19824917
0.075787095
-0.053788358
0.00076737758
)
;
    }
    maxX
    {
        type            fixedFluxPressure;
        gradient        uniform 0;
        value           nonuniform List<scalar> 
50
(
0.30899634
-0.24151659
0.084824662
-0.061113834
-0.0026953617
0.30985636
-0.28090559
0.077219878
-0.054260444
0.0029957818
0.30824747
-0.28177662
0.13436839
-0.040144452
0.029230677
0.31271966
-0.27753792
0.08978588
-0.053200962
0.012193859
0.31719184
-0.26615164
0.073855263
-0.071463666
-0.00098324277
0.32614321
-0.27710266
0.083067948
-0.053650611
-0.00075514326
0.3226103
-0.29089106
0.086586506
-0.049957775
0.016629882
0.32620207
-0.28996966
0.12393552
-0.023237809
0.047888837
0.32518096
-0.29738527
0.090047376
-0.039053523
0.035949529
0.32014701
-0.27008937
0.068965071
-0.075484411
0.018921545
)
;
    }
    minY
    {
        type            fixedValue;
        value           uniform 0;
    }
    minZ
    {
        type            fixedFluxPressure;
        gradient        uniform 0;
        value           nonuniform List<scalar> 
150
(
0.27783262
-0.23375882
0.098608771
-0.010708642
0.011414869
0.27004598
-0.23294398
0.087470792
-0.032454385
0.0015885047
0.29001212
-0.20647799
0.063716011
-0.037861739
-0.0063040267
0.2965248
-0.20137235
0.068900108
-0.055600931
-0.0170097
0.2980509
-0.22941955
0.076320443
-0.091130722
0.0099221539
0.294569
-0.25790778
0.072839758
-0.051333816
0.0098593565
0.29422
-0.20860675
0.050122855
-0.081691486
0.0082704007
0.29233992
-0.19892953
0.072620758
-0.049751656
-0.016301333
0.2891359
-0.20226465
0.071304389
-0.044151053
-0.014227837
0.27733268
-0.2385008
0.099594493
-0.079976898
-0.010458649
0.27855132
-0.24437852
0.097440276
-0.079748339
0.0048966678
0.28108959
-0.23554303
0.10714531
-0.091414969
0.037243719
0.27852923
-0.24775923
0.11058827
-0.069608757
0.024289261
0.28052623
-0.25490666
0.11057622
-0.057233006
0.014691321
0.28190002
-0.25381981
0.10282045
-0.053588434
0.016126566
0.2839487
-0.25775495
0.068061699
-0.052168339
0.0069729327
0.28451753
-0.24305489
0.060474222
-0.076172876
0.0095037272
0.29409973
-0.20973726
0.02997492
-0.066583936
0.0014540641
0.29685254
-0.19160551
0.060723752
-0.070614861
-0.02610578
0.30607676
-0.17759263
0.064666256
-0.025694846
-0.0059488247
0.30573044
-0.18677778
0.062861799
-0.03328038
-0.017962727
0.30488769
-0.1986542
0.075740851
-0.070369886
-0.016066434
0.31226638
-0.20780714
0.037305798
-0.077964236
0.012632136
0.30953668
-0.25872196
0.072872748
-0.092685372
0.019028892
0.30557746
-0.27983341
0.054256827
-0.049209886
0.015089783
0.30388354
-0.23493507
0.057189978
-0.095027435
0.013694903
0.30669616
-0.22143214
0.051995193
-0.069210841
-0.0098302481
0.31180117
-0.19538483
0.066660432
-0.043144196
-0.012416738
0.3178289
-0.21474183
0.061215566
-0.040823481
-0.01114364
0.30899634
-0.24151659
0.084824662
-0.061113834
-0.0026953617
)
;
    }
    maxZ
    {
        type            fixedFluxPressure;
        gradient        uniform 0;
        value           nonuniform List<scalar> 
150
(
0.29515943
-0.19824917
0.075787095
-0.053788358
0.00076737758
0.2951235
-0.2140509
0.048708912
-0.06683466
0.0053372157
0.28801783
-0.23671837
0.075944789
-0.086469811
0.025176373
0.29123648
-0.26409069
0.067275363
-0.039808976
0.021011552
0.29298795
-0.25599693
0.10290951
-0.040599547
0.022480165
0.28799034
-0.24241299
0.078832579
-0.093193363
0.030296591
0.2843559
-0.2469932
0.092789806
-0.084909021
0.013416863
0.28496394
-0.26246125
0.088411457
-0.045950851
0.0003041353
0.28928965
-0.25997809
0.1112759
-0.030940615
0.00090720488
0.29220322
-0.25399848
0.11008763
-0.040993419
-0.0033102118
0.289873
-0.26004768
0.086530195
-0.061826369
0.0024679176
0.30803426
-0.20918049
0.041798678
-0.066030483
0.013900964
0.31773597
-0.17714933
0.042385885
-0.072022701
0.010653079
0.30123545
-0.23349908
0.068475595
-0.057169443
-0.01133123
0.29844949
-0.25633987
0.11586664
-0.057385799
-0.010351018
0.30019274
-0.26005142
0.10749719
-0.081940734
-0.0053455469
0.3019898
-0.26295231
0.10049859
-0.095456591
0.029285985
0.302959
-0.26923474
0.11565576
-0.063378033
0.014123165
0.30643989
-0.27267805
0.10188514
-0.050752594
0.025161168
0.2975072
-0.26472906
0.075944937
-0.080069524
0.025793675
0.30836756
-0.22692361
0.055009029
-0.071455118
0.0051885667
0.30550106
-0.20006596
0.075338471
-0.057402058
-0.0051342642
0.30938237
-0.23073875
0.051980124
-0.036336226
-0.0053598777
0.29841462
-0.26497016
0.066180274
-0.049331773
-0.0038070175
0.30610909
-0.27729236
0.093447413
-0.023272195
-0.00061315332
0.30686102
-0.26613354
0.10764856
-0.0072020943
0.0024651098
0.29420593
-0.26613463
0.081605023
-0.04567426
-0.014668176
0.31621967
-0.22845217
0.056973763
-0.059792863
-0.018472939
0.32396306
-0.22715192
0.030085427
-0.084222704
0.012594175
0.32014701
-0.27008937
0.068965071
-0.075484411
0.018921545
)
;
    }
    bottomWater_to_rightSolid
    {
        type            fixedFluxPressure;
        gradient        uniform 0;
        value           nonuniform List<scalar> 
130
(
0.0014540641
-0.02610578
-0.0059488247
-0.017962727
-0.016066434
0.012632136
0.019028892
0.015089783
0.013694903
-0.0098302481
-0.012416738
-0.01114364
-0.0026953617
0.011489525
0.0068265532
-0.0059898423
-0.023175373
-0.00012792374
0.0111364
0.013614907
0.035264683
0.014790355
0.013232416
-0.0069777359
-0.004253039
0.0029957818
0.019228306
0.045440816
0.023989456
-0.0072510746
0.0076540154
0.015459804
0.02587332
0.037151957
0.022507547
0.037255609
0.023950562
0.02556992
0.029230677
0.01267047
0.012553582
-0.0036712309
-0.020491179
-0.0089403142
0.0039691312
0.015879029
0.016565803
0.0096297241
-0.0010043035
-0.0080353797
0.01081847
0.012193859
8.882153e-05
-0.0053084854
-0.019181999
-0.0077905156
0.001598234
-0.0030318908
0.0098225471
0.0081822463
-0.012239938
-0.01402352
-0.014055896
-0.0077849071
-0.00098324277
-0.0094799959
-0.0059939637
0.002072795
0.010341795
0.037318799
0.024954378
-0.0042035972
-0.012052947
-0.018408228
-0.014820435
-0.020232843
-0.0070587039
-0.00075514326
-0.0068705856
0.017439076
0.0095475564
0.029134345
0.024051372
0.01846871
0.026822687
0.0063980799
-0.0043059874
-0.015183262
-0.011600003
0.012187946
0.016629882
-0.013338372
-0.019401764
-0.0051950694
-0.0055116071
0.0068184741
0.022812986
0.024814932
0.032178159
-0.0031985564
0.0048126806
0.022648317
0.033361678
0.047888837
0.021586198
0.018178045
0.012922922
-0.0049642
-0.0069222098
0.0025876352
0.011089855
0.0099501189
-0.0023389232
-0.0092462074
0.014477605
0.032537236
0.035949529
0.014123165
0.025161168
0.025793675
0.0051885667
-0.0051342642
-0.0053598777
-0.0038070175
-0.00061315332
0.0024651098
-0.014668176
-0.018472939
0.012594175
0.018921545
)
;
    }
    bottomWater_to_leftSolid
    {
        type            fixedFluxPressure;
        gradient        uniform 0;
        value           nonuniform List<scalar> 
130
(
0.011414869
0.0015885047
-0.0063040267
-0.0170097
0.0099221539
0.0098593565
0.0082704007
-0.016301333
-0.014227837
-0.010458649
0.0048966678
0.037243719
0.024289261
0.003245706
-0.009475553
-0.0056785772
0.013236904
0.026328171
0.012116862
0.011623132
0.0038537989
0.016956891
0.0069508949
0.0086006864
-0.0033557477
0.016456444
0.0085619981
0.021402036
0.029891383
0.025789246
0.039876015
0.029050843
0.017126213
0.025410132
0.022847133
0.0046370453
-0.0051437388
-0.007943397
-0.010285428
0.0086292503
0.018262496
0.019432412
0.030764495
0.016466182
0.021307974
0.012193016
0.010263087
-0.00024174412
-0.015348807
-0.0084771415
-0.0082302387
-0.0069318644
-0.0050695938
-0.0040386819
0.0020667877
0.0043594084
0.014437138
0.011535514
0.0045506331
-0.0023174765
-0.015610055
-0.010025637
-0.01077179
-0.002386258
-0.0020926031
0.01874539
-0.0093904626
-0.016210337
0.0037063577
-0.011427569
-0.011680352
-0.00031529699
0.013991856
0.0065630634
-0.0040008612
0.015264516
0.020757876
0.012814087
0.0085959833
0.0016819125
0.0026212267
-0.00012963039
-0.022076191
-0.01526343
-0.017772564
-0.0048640403
0.0055764932
0.029185428
0.028987815
0.026180974
0.012614079
0.018103374
0.010347429
0.013467515
0.0068290442
-0.0066200054
-0.0071301235
-0.0022419121
0.020019201
0.031261224
0.029652822
0.028283429
0.037177147
0.020951105
0.031902532
0.0050895792
-0.0020929551
-0.00092535537
-0.0004654992
-0.015933672
-0.020142694
-0.0079628
0.0066784375
0.00098370573
0.014524052
0.03066254
0.03862414
0.00076737758
0.0053372157
0.025176373
0.021011552
0.022480165
0.030296591
0.013416863
0.0003041353
0.00090720488
-0.0033102118
0.0024679176
0.013900964
0.010653079
)
;
    }
    bottomWater_to_heater
    {
        type            fixedFluxPressure;
        gradient        uniform 0;
        value           nonuniform List<scalar> 
92
(
0.014691321
0.016126566
0.0069729327
0.0095037272
0.0051436216
-0.0074403618
0.0085345975
0.020478003
-0.01036117
0.0046083417
0.020358282
0.014945918
0.28068658
0.28267333
0.27992133
0.28327102
-0.24695793
-0.2450547
-0.2415396
-0.25560304
0.11443176
0.097717539
0.097277111
0.082649717
-0.03018433
-0.048639409
-0.060605873
-0.062559919
-0.0066479551
-0.0066479551
-0.0097953598
-0.0097953598
-3.5977092e-05
-3.5977092e-05
-0.0023916924
-0.0023916924
0.29069779
0.30202646
-0.25391722
-0.26854445
0.076366304
0.094001919
-0.04889594
-0.045745372
-0.0020926031
8.882153e-05
0.29344285
0.28256431
0.30702189
0.29986541
0.28790156
0.30675294
-0.25684338
-0.25935439
-0.19534369
-0.19808114
-0.26379095
-0.20842837
0.090159428
0.054572163
0.030362433
0.072756342
0.11616215
0.067037187
-0.026713075
-0.079622727
-0.076121766
-0.050898938
-0.058963899
-0.04996528
0.012814087
0.012303878
0.0028445439
-0.01543374
-0.0094799959
-0.012063034
0.012303878
0.0028445439
-0.01543374
-0.012063034
0.011835353
0.0048130274
-0.0074502812
-0.017695481
-0.00046940723
-0.0014244765
-0.010738809
0.0013458028
-0.01133123
-0.010351018
-0.0053455469
0.029285985
)
;
    }
}


// ************************************************************************* //
