/*--------------------------------*- C++ -*----------------------------------*\
| =========                 |                                                 |
| \\      /  F ield         | OpenFOAM: The Open Source CFD Toolbox           |
|  \\    /   O peration     | Version:  v2012                                 |
|   \\  /    A nd           | Website:  www.openfoam.com                      |
|    \\/     M anipulation  |                                                 |
\*---------------------------------------------------------------------------*/
FoamFile
{
    version     2.0;
    format      ascii;
    class       volVectorField;
    location    "760/bottomWater";
    object      U;
}
// * * * * * * * * * * * * * * * * * * * * * * * * * * * * * * * * * * * * * //

dimensions      [0 1 -1 0 0 0 0];


internalField   nonuniform List<vector> 
1460
(
(-0.00023492979 -0.015267602 0.00062114927)
(-0.0033187843 -0.012862996 0.00060918277)
(-0.0019228441 -0.010391834 0.0012634967)
(0.0012436588 -0.011230251 0.00062861605)
(0.0022273035 -0.018377356 0.00071104439)
(0.0007562524 -0.020113772 0.0013740335)
(-0.00083729945 -0.013491527 0.0024299825)
(0.00069673532 -0.011177393 0.0017437942)
(0.003392978 -0.011293187 0.0019415664)
(0.0040743937 -0.013524632 0.0014378763)
(0.0018346651 -0.015197314 0.001118698)
(-5.2418174e-05 -0.016504457 0.001875864)
(-0.00098753826 -0.016810965 -0.00042825903)
(-0.0023710154 -0.015806167 -0.0021951886)
(-0.0024130376 -0.015917977 -0.0022123505)
(-0.0034928079 -0.015104187 -0.00098850519)
(-0.0049425001 -0.014104652 -0.00012471776)
(-0.0047226059 -0.012045542 0.00089983856)
(-0.0038102726 -0.012221842 0.0012415052)
(-0.0017929772 -0.012778697 0.0012287109)
(-2.3745146e-05 -0.012628244 0.0014837367)
(0.0011704272 -0.014523751 0.00045810864)
(0.0018932016 -0.012875119 0.0014656732)
(0.0027304353 -0.017822556 0.0019057914)
(-0.0019152817 -0.016388114 0.0011927349)
(-0.0035680103 -0.015162689 0.0012858599)
(-0.0032884144 -0.012099172 0.00089139519)
(-0.0016929338 -0.012595877 0.00038872209)
(0.001519824 -0.011915774 0.0021929981)
(0.0021969977 -0.018601106 0.0023353618)
(-0.0026216799 0.016843007 0.0012762715)
(-0.0043226309 0.014351449 0.0014118181)
(0.0015465503 -0.00056957774 0.0010877588)
(0.0025269577 0.0013143686 0.00045712191)
(0.0065152677 0.015997381 0.0013287201)
(0.00084058188 0.020719325 0.0026157248)
(-0.0030815819 0.0089609116 0.002212352)
(-0.0011829818 0.00086547262 0.00011350631)
(0.0023430733 0.0027426207 -5.7577435e-05)
(0.0059616771 0.013520321 0.0015744309)
(0.0036541261 0.01668013 0.0019003581)
(0.0022612222 0.01575833 0.0023159696)
(0.0034538499 0.017977857 0.00046534536)
(-1.5809272e-05 0.016636644 -0.0038938995)
(-0.002562732 0.017326005 -0.0034135094)
(-0.0044666183 0.017309634 -0.00032445467)
(-0.0065338721 0.014872154 0.0013519071)
(-0.003465113 0.0049667937 0.00047306869)
(-0.0037626448 0.0028210761 0.0012790914)
(-0.00090801166 0.00031847762 0.00080015213)
(0.00013280024 0.0015040983 0.00063528023)
(0.0037274468 0.0086539067 0.0017189542)
(0.0034776099 0.0037994073 0.0013258458)
(0.0081462212 0.016747058 0.0029310363)
(-0.0012274338 0.018276571 0.0024100307)
(-0.0060454617 0.012682638 0.0023672548)
(-0.0036799114 0.0045177678 0.00083848056)
(-0.00031213594 0.001836764 0.00039615248)
(0.0012559788 -0.0019621669 0.00086182165)
(0.004143928 0.017813316 0.0041103928)
(-0.0010978664 -0.0012424926 0.0001062886)
(0.0045420315 -0.012885656 0.00056148384)
(0.0037720097 -0.013498172 0.00026358732)
(0.0010958406 -0.013043438 -0.00017961611)
(0.00068244665 -0.01654823 0.0018612881)
(0.0032235114 -0.0057750209 0.002141726)
(0.0024590652 -0.013558905 -0.001942924)
(-0.00097368091 -0.013096221 -0.0033947793)
(-0.00085693135 -0.013976944 -0.0026641235)
(-0.00085690449 -0.01297193 -0.0002303891)
(0.0021957104 -0.0082484955 0.00059773893)
(0.0007040106 -0.016690638 0.0010304733)
(0.0012595178 -0.0084302155 0.0033133256)
(0.00055023276 0.001646175 0.00022459117)
(0.001541036 -0.0029807475 -0.0010183887)
(0.00035204509 -0.001762562 0.00018727298)
(0.0037500767 -0.013161515 -0.0016436848)
(0.0017039425 -0.014957242 -0.0036105821)
(-0.0022120032 -0.012758784 -0.00074132618)
(-0.00046744734 -0.013733301 -0.0010987784)
(-0.001436372 -0.013707601 -0.0013936693)
(0.0029545463 -0.013503145 0.001146946)
(-0.00113773 -0.016035745 -0.0018277338)
(-0.0021718947 -0.014121644 0.00031009204)
(-0.00037930474 0.0049240241 -0.00040428564)
(0.0013629651 -0.015279882 -0.0022183193)
(-0.001419883 -0.013835686 -0.00055662997)
(0.00022035576 -0.013591581 -0.0014549925)
(-0.0012656885 -0.014771055 -0.0015901227)
(-0.0012878023 -0.017076982 -0.00077574659)
(0.0017465792 0.0076256691 0.0011925386)
(0.0035622733 0.0034432514 0.0014154922)
(0.0015956661 -0.0015906592 -0.00029881793)
(0.0018276357 -0.00087211878 -0.0020688607)
(0.001102403 0.011023286 -0.00015918176)
(0.00093430631 0.0094564334 -0.00071453653)
(-0.00022258493 0.010702385 -0.0034643497)
(0.0010997524 -0.0021862162 -0.0035693519)
(0.0012072394 -0.0047868317 -0.0033049458)
(0.0011024527 0.0043480784 -0.003221564)
(0.002854314 0.009699735 -0.0028498669)
(0.0016691213 0.012703482 -0.0028850442)
(-0.003227297 0.010445924 0.0021222474)
(-0.00011435235 0.0087570598 0.00034464342)
(0.0011021916 0.0086336954 -0.00097581236)
(0.0011877454 0.0073066754 0.0021330642)
(0.0022524596 0.012037846 -0.0022903887)
(0.0016801576 0.012005566 -0.0019836748)
(0.00020349691 0.0022910717 0.00060945356)
(0.0001414407 -0.0047640374 -0.00087447948)
(-0.0013731651 -0.0045775294 -0.00061290332)
(0.0010223997 0.0051680404 -0.001060648)
(-2.042967e-05 0.011627864 -0.00033265373)
(-0.0041126791 0.011552993 -0.002848848)
(-0.00029327692 0.0076022564 -0.00073415767)
(0.0034911046 0.010777906 -0.0034122464)
(-0.0014992529 0.0031152 -0.00018800967)
(0.0015935325 -0.00270634 -0.0026673862)
(0.00035964068 -0.0043276373 -0.0020288871)
(0.0029457112 0.0097230193 -0.002167528)
(0.0010069309 -0.0071831921 -0.00015551666)
(0.0011909955 -0.010711647 -0.0013653726)
(-0.0018753246 -0.0099297964 -0.0046020276)
(-0.0037659287 -0.0090669738 -0.0053665567)
(-0.0037261468 -0.010117781 -0.0045888496)
(0.0016137815 -0.0020553875 -0.001696691)
(0.0043258629 -0.0092833687 -0.0025195959)
(0.0044077663 -0.010435921 -0.0041173585)
(-0.00072319571 -0.010694792 -0.0044605068)
(-0.0047544133 -0.0088563563 -0.0019159312)
(-0.0042029428 -0.0046313882 -0.00067914355)
(-0.0007349255 -0.00032085646 0.00075063969)
(-0.00019475361 -0.0034087233 0.0026745569)
(0.00080306527 -0.0011861111 0.0011526291)
(0.0017954359 -0.0016094736 0.0012798052)
(0.0031229373 -0.0054427862 0.0013361073)
(0.0036215283 -0.0089898737 -5.1889181e-05)
(0.005647225 -0.010443089 -0.00097012795)
(0.0051352625 -0.010376392 -0.00276618)
(0.0033261134 -0.0097609526 -0.0029819494)
(-0.0047853851 -0.010266815 -0.0023743868)
(-0.0068187186 -0.00979878 -0.0024786292)
(-0.0049920316 -0.0071517976 -0.001533596)
(-0.0027775439 -0.0061739505 -0.0019937342)
(0.00093418644 -0.0020800178 -0.0027771704)
(0.0042948553 -0.0063803758 -0.0027463564)
(0.0056113471 -0.0083469755 -0.003839494)
(0.0047941577 -0.0096214168 -0.0042212415)
(-0.00070947081 -0.010588817 -0.0043903527)
(-0.0025727115 -0.0095603051 -0.0030073707)
(-0.00025516139 -0.015182614 -0.00077283066)
(-0.0026213628 -0.012303257 -0.0017093826)
(-0.0026631116 -0.011088232 0.00047882735)
(0.0011028112 -0.011234746 0.0015140309)
(0.0026427143 -0.016016948 0.00087737403)
(0.0027124808 -0.016837131 6.2791715e-05)
(0.0021746001 -0.016074638 0.00075285844)
(0.0025023025 -0.014813263 0.00077206932)
(0.0015687966 -0.014999618 -0.00086782733)
(0.0003733895 -0.015218627 0.00014799895)
(-0.001213704 -0.015948027 -2.8779452e-05)
(-0.0026170429 -0.015080966 0.001137002)
(-0.0039813562 -0.014076726 -0.00013322322)
(-0.0024214769 -0.011193655 0.00059202889)
(0.00021933285 -0.011857454 -0.00045837937)
(0.0017741994 -0.016775366 -0.001641584)
(-0.00037333193 -0.018418938 -0.00058635647)
(-0.0031616164 -0.016527866 0.0022483674)
(-0.0036166801 -0.015993529 0.0031968293)
(-0.0021943667 -0.012709947 0.0036477816)
(-0.0017984831 -0.012891043 0.0035227236)
(0.0015093468 -0.012752941 0.0017372313)
(0.0027810761 -0.015316838 0.0030989929)
(0.002183885 -0.016381045 0.0031692174)
(-0.00086266022 -0.017676806 0.0023746853)
(-0.0026218636 -0.015464241 0.0021317416)
(-0.0033183141 -0.014372979 0.0022832777)
(-0.00029700039 -0.011283536 0.0016430513)
(0.0020437936 -0.013647328 0.0033227167)
(0.00038284333 -0.016898859 0.0025114561)
(-0.0010871288 0.016750901 -0.001324854)
(-0.0027667587 0.014619404 -0.0022370058)
(0.0014573448 0.0064164946 0.0012467048)
(0.0038732643 0.0022415948 0.0023041733)
(0.0063807946 0.013014879 0.0026134967)
(0.0053885364 0.018309123 0.0025354039)
(0.0010829619 0.017617027 0.0046899001)
(-0.0011055226 0.016601544 0.003065004)
(0.0009253048 0.017768992 -0.00044307351)
(0.0024461798 0.017519381 0.00041072193)
(-0.002435422 0.017751399 0.0013467152)
(-0.0039384799 0.016888998 0.0010169729)
(-0.0042859558 0.013299988 -0.00051690866)
(0.00024295959 -0.001011232 6.0231042e-05)
(0.00046412055 0.00069161572 0.0011175394)
(0.005960862 0.015313913 -0.0019620836)
(0.0032963485 0.019374697 0.0006609467)
(-0.0062935945 0.017285496 0.0048158659)
(-0.0054085538 0.013803077 0.0039667141)
(-0.0026250493 0.0059252534 0.0029106117)
(0.0003587518 0.0084380426 0.0023398195)
(0.0035291106 0.0029141476 -0.00059836627)
(0.0074128316 0.013383322 0.0020401767)
(0.0072488169 0.017859792 0.0033013209)
(0.00021072513 0.01913679 0.0032507499)
(-0.0060879898 0.017035976 0.0036203296)
(-0.0042064431 0.011320424 0.0019563976)
(-0.00060007366 -3.1126076e-05 0.0011896303)
(0.004693172 0.013803294 0.0055248249)
(0.0035355902 0.018545497 0.005592515)
(0.0016558775 -0.0037047468 -0.00052728047)
(0.005352612 -0.0096702256 0.0015474644)
(0.0054894518 -0.013235398 -0.0003955327)
(0.0040889575 -0.014636605 -0.00034833238)
(-0.0043820302 -0.015088032 -0.0030745321)
(0.0032075649 0.0028495645 0.0016721937)
(0.0014023284 0.002344067 0.0031366828)
(0.001623965 -0.0070789448 0.0036475059)
(-0.0019992264 -0.016679966 0.0052150909)
(-0.0011417442 -0.00015688448 0.002343246)
(-0.001229838 0.0018746818 0.0017671882)
(0.00027975768 -0.004410504 -0.00019252237)
(0.0048992687 -0.014790416 0.00032438013)
(0.0025635596 -0.014854682 0.00042932281)
(-0.0024968491 -0.013101598 0.0041580909)
(-0.0026906764 -0.014889121 0.003167526)
(0.0020937387 0.0072718716 -0.00025962131)
(-0.0031497384 0.001979522 0.00016005721)
(0.0010983088 -0.015536319 -0.0031342793)
(-0.0027626608 -0.013840193 -0.0015003768)
(0.0012395462 -0.013483454 -0.0032148889)
(0.0013000166 -0.015815801 -0.0046840792)
(-0.0036493039 -0.014367676 -0.0049297591)
(0.0014993032 0.0025947704 0.00037673184)
(0.00086559661 0.0074503962 0.00042924615)
(-0.00047197708 0.00327418 0.0012209476)
(0.0031934692 -0.015117046 -0.0028100877)
(-0.0026034561 -0.014682405 -0.0017408773)
(-0.0041502951 -0.012811738 -0.0011710924)
(0.0016803277 0.0026939452 0.0025629029)
(0.0019380529 0.0025476884 0.00017257908)
(0.0046818455 0.0048654443 0.00074998097)
(0.0047753594 0.0083585989 0.0019946721)
(0.0050798022 0.01011226 0.0011468135)
(-0.0027771542 0.011446821 -0.002940774)
(-0.001512896 0.0078155312 0.00030707207)
(0.0017733607 0.0079525581 0.00097544214)
(0.0033388648 0.009183243 0.0027310436)
(-0.0001631489 0.012916029 0.0032708329)
(-0.002948124 0.0081291143 0.0012623959)
(-0.00011608065 0.0088793477 -0.00039946547)
(0.0026883567 0.0075467805 -0.0029147023)
(0.0022506045 0.011229126 -0.0025593799)
(-0.0024846638 0.0085997322 0.0015199099)
(3.1315174e-06 0.0028079015 0.0020331084)
(-0.0021253779 0.011472993 0.002325113)
(0.0006785107 0.010249578 -0.00033647443)
(0.0027021417 0.0081852068 0.00011107777)
(0.0023552568 0.010277481 0.002994311)
(-0.0024742677 0.001392076 0.0020368104)
(-0.0014656832 -0.0024681517 -0.00073358102)
(0.00014291047 0.010521117 -0.0017605731)
(-0.0040121296 0.010449708 -0.0016002567)
(-0.0024842964 0.0078272807 -0.0016343572)
(0.00078342552 0.01109135 8.8239607e-05)
(0.0036307635 0.0079442801 -0.00092014398)
(0.0031883027 0.010761629 -0.00060348161)
(-0.00074243021 0.0038111413 -0.00086945158)
(-0.0023438587 0.004494985 -0.0013735381)
(-0.001411991 0.0077950709 0.00077049223)
(-0.0023956303 -0.01008998 -0.0032665753)
(-0.0032040331 -0.0088070897 -0.0048814009)
(-0.0041840373 -0.0072614164 -0.0050489558)
(-0.0021787568 -0.0034143185 -0.0037813948)
(-0.0019048729 -0.0013731613 -0.0038790558)
(0.0016533418 -0.0010965062 -0.0019252901)
(0.0024918631 -0.0044067015 -0.0018128619)
(0.0015492668 -0.0090695268 -0.004233708)
(-0.00038939503 -0.00940683 -0.0031242578)
(-0.0013504087 -0.00097401527 0.00014358282)
(0.001734557 -0.0044613909 0.00087441962)
(-0.001301171 -0.0079964951 0.0046408526)
(1.3030845e-05 -0.0031838187 0.0025317878)
(0.0024882254 -0.0086779127 0.0040943329)
(-0.0013721585 -0.010717785 0.0013979532)
(-0.0039781826 -0.009916219 -0.0014328708)
(-0.00040878309 0.001809601 -0.00084319447)
(0.0025499411 -0.00030335609 -0.0013866201)
(0.0036991371 -0.0032624841 -0.0028537669)
(0.0056837208 -0.0067389842 -0.0035468527)
(-0.0028798675 -0.011097124 -0.0028433541)
(-0.0066623635 -0.0098292808 -0.0025779555)
(-0.0046553517 -0.0051821459 -0.0016227709)
(-0.0035944869 -0.0011025517 -0.0016577899)
(0.00061311252 0.0045034022 -0.0010739296)
(0.0038369981 0.00018914075 -0.0015301925)
(0.0046380323 -0.0037530879 -0.0031314879)
(0.0044561969 -0.0085367512 -0.0042762994)
(-0.0015142603 -0.0091693749 -0.0046993461)
(-0.0020702033 -0.00069298881 -0.002535026)
(-0.0030537705 -0.013590758 -0.0006074276)
(-0.00061130032 -0.010382165 -0.00093763198)
(0.0009242686 -0.014084471 -0.00094067029)
(0.00039825964 -0.015822656 0.00032655716)
(0.00036651659 -0.01812999 -0.00057363317)
(-0.00043707093 -0.015839919 -0.0025334731)
(-0.0018838948 -0.013758733 -0.0030383897)
(-0.0028368111 -0.013612954 -0.002773278)
(0.00037131149 -0.010738148 -0.00083416074)
(0.0025384972 -0.011201556 -0.0016024342)
(3.0949305e-05 -0.015962272 8.0101122e-05)
(7.1056888e-05 -0.015705059 0.00010323395)
(-0.00069859942 -0.016406705 -0.00049386765)
(-0.0026498344 -0.011987941 0.0013917728)
(-0.0010437238 -0.011237897 7.0764934e-05)
(0.0018401237 -0.01130777 3.7068287e-05)
(0.0015857435 -0.015366005 0.0021819383)
(-0.00055668314 -0.018040537 0.0026356407)
(-0.0006346012 -0.019485858 0.00041130804)
(-0.00079739345 -0.016187744 0.002178199)
(-0.00040810378 -0.014633526 -0.00032926242)
(-4.6068493e-05 -0.015282669 0.00018565077)
(-0.00012744634 -0.015648818 0.0010321073)
(0.0001784602 -0.016477734 0.0016141397)
(-0.00020797201 -0.017169172 0.0019283281)
(-0.00061604924 -0.015530979 -0.00041036326)
(-0.0014407041 -0.016366649 -0.00058371295)
(-0.00048876297 -0.017514926 0.00052071734)
(0.00065409818 -0.014964754 -0.00019200314)
(-0.00086582681 -0.016772828 -0.00026554326)
(-0.0038531096 0.015646447 -0.00017997372)
(0.002955674 -1.0566063e-05 0.0013251541)
(0.0046717187 0.010173403 0.0011641122)
(0.0058370352 0.015988722 0.0033055965)
(0.0026027425 0.018933512 0.0020915179)
(-0.0041805329 0.017598654 -0.0032942528)
(-0.005005749 0.015724079 -0.0025464155)
(-0.0037013563 0.011233195 -0.001354089)
(-0.0011431311 -0.0010161082 0.0013441127)
(0.0047142454 0.012922423 -0.0025296043)
(0.0023840684 0.017521167 -0.0022409165)
(-0.0016256389 0.017493487 -0.00065901958)
(-0.0019711406 0.017821722 0.00061501122)
(-0.0036886973 0.012949598 0.0014149499)
(0.0028402821 -0.00089647753 -0.0024429833)
(0.0023686879 0.0022576913 -0.0028612555)
(0.0058252679 0.015304383 -0.0022906442)
(-0.0019864979 0.019413397 0.00023923971)
(-0.0034608307 0.020431145 -0.00073709839)
(-0.0006376444 0.01751999 0.00013548214)
(0.0013687457 0.016267872 -0.00051225283)
(0.0033111765 0.0171534 0.0011174769)
(0.0047967398 0.017797252 0.00091746038)
(0.0044685095 0.018184307 0.00060976523)
(-0.00054593827 0.018632242 -0.00066725276)
(-0.0029933292 0.017754258 -0.0029527433)
(-0.0018007138 0.018138518 -0.0016067346)
(0.002826044 0.016422708 -0.00064730626)
(0.003850537 0.017473015 9.6110913e-05)
(0.0019256446 0.018219558 0.0012074225)
(0.0039385273 -0.0098570349 0.00161269)
(0.0035805171 -0.014414397 0.0020125945)
(-0.003655299 -0.012737468 -0.0055237449)
(0.0014784919 -0.00091070821 -0.00072787196)
(0.00097720747 0.0066568097 0.0015399485)
(-0.00080342027 0.0040078454 -0.0012789349)
(9.7722593e-07 -0.0036902166 0.0027468647)
(0.0040431337 -0.01396451 0.0058464612)
(-0.002693264 -0.015054456 0.0044454669)
(-0.0050579688 -0.0083887156 0.0020754821)
(-0.0022440088 0.0017880452 -0.00037839799)
(-0.0029333129 -0.00065515431 -0.0010209858)
(0.0022318566 -0.008934074 -0.0024635314)
(0.0046622009 -0.0132624 -0.0049561107)
(0.0054235177 -0.014504002 -0.0043186056)
(-0.0031359901 -0.013577039 -0.0032686493)
(-0.0019189265 -0.0031600917 -0.00065931755)
(-0.0024227191 0.0033026757 0.00054282441)
(-0.0016187502 -0.014937696 0.00025138619)
(-0.003100666 -0.01651445 -0.001766063)
(-0.00010775458 -0.012334447 -0.0011094959)
(0.00070811855 -0.01530673 -0.0044464175)
(0.00079406495 -0.0072120708 -0.0020434151)
(0.0014638193 0.0022873017 -0.0011226223)
(0.0015034383 0.0048733019 0.00038825265)
(0.0014881152 -1.5595239e-05 -0.0017126061)
(0.0034803451 -0.016666966 -0.0010952841)
(-0.00070776284 -0.018957014 -0.0016726223)
(-0.00034284378 0.0018526161 0.00022889837)
(-0.0013336358 0.0039430393 0.00066041519)
(0.00020415885 0.0025817082 0.00075882463)
(0.00037284274 0.010751463 -0.00028068965)
(-0.0045489337 0.01064366 -0.0040779357)
(-0.0027127236 0.0073892822 -0.0028169976)
(-0.00038045959 0.010246043 -0.00071108631)
(0.00043498583 0.0085754666 0.00047883869)
(0.0025753434 0.00707426 0.0019544843)
(0.0021655688 0.010800907 0.0025003331)
(-0.0027247158 0.01018245 0.0012722939)
(-0.0049640762 0.0091326065 0.00092668793)
(-0.0038654214 0.0077000725 8.997041e-05)
(0.0010627566 0.0029464585 0.00065684055)
(0.0019561179 0.0046946666 -0.00088887619)
(0.0012576909 0.0051722919 -0.0014414245)
(0.0029375773 0.0096810231 -0.001783883)
(-0.0016776632 0.011311942 -0.00089735482)
(-0.0021821522 0.008220781 0.001409267)
(0.0013124892 0.009320757 0.0022515005)
(0.0039508616 0.013928496 -0.0008678723)
(-0.0044998845 0.0098610438 -0.00066109701)
(-0.0010184618 0.0020928213 -0.0015138559)
(-0.0027112648 0.0057622335 -0.0028677687)
(-0.0027300765 0.009429414 -0.0027119364)
(-0.0016420092 0.0093253297 -0.0016729666)
(0.0013146702 0.01002042 0.0003447211)
(0.0040956295 0.0081517292 0.00034805551)
(0.00414231 0.011979683 -0.0016051844)
(-0.0049841253 0.012105438 0.00018285154)
(-0.0026620997 0.007508845 0.00094479533)
(-0.0020996118 0.0096078101 0.00031413682)
(-0.0047009241 -0.0083299614 -0.0027783643)
(-0.003853828 -0.0037552384 -0.0032519363)
(-0.0038662068 -0.0023499642 -0.0038078321)
(-0.0026067578 -0.00090509352 -0.0026116991)
(-0.00085333687 0.0036405461 -0.0003982511)
(0.0023788002 0.0014447086 -0.00023353739)
(0.0026240276 -0.0041274611 0.00024541223)
(0.0015902607 -0.0041699642 0.00090356549)
(0.0012751348 -0.0029309952 0.0021355878)
(0.00097995342 -0.0033307628 0.0026601084)
(0.0025095019 -0.0062069896 0.0030051429)
(0.0007155439 -0.009371588 0.0038271999)
(-0.0012846527 -0.0092853464 0.0039102453)
(-0.0030193816 -0.0099283266 0.0027076868)
(-0.0043392025 -0.0069279549 0.0010196995)
(-0.002991207 -0.0022352225 0.0010912858)
(-0.0022187274 -0.0031813715 0.002505461)
(-0.0022547668 0.00016563961 0.0018053192)
(0.0031329473 0.0015340952 -0.00084986469)
(0.0044395634 -0.0034150372 -0.00072941996)
(0.0020954918 -0.010523384 -0.00072304441)
(-0.005436053 -0.010492063 -0.00059361348)
(-0.0041985986 -0.0042128541 -0.0010680802)
(-0.0029463849 0.00084985315 -0.001132404)
(0.0015488386 0.0020624623 0.0015431879)
(0.0022809781 -0.0026889327 0.0015111701)
(0.0025751255 -0.003809791 0.00075619762)
(0.00082993637 -0.010358709 -0.00016457676)
(-0.0026866104 -0.0025895848 -0.0012286177)
(-0.002155706 0.0026231121 -0.00055738617)
(-0.0029828057 -0.013667018 -0.00044768217)
(-0.0011073566 -0.011427133 0.0003400979)
(-0.001099552 -0.019081801 0.0015519982)
(-0.0021450281 -0.016924627 -0.00020944916)
(-0.0031233305 -0.014672553 -0.0021948745)
(-0.0035628173 -0.01455842 -0.0024562505)
(-0.0033262308 -0.01259155 -0.0010770631)
(-0.0015427539 -0.012732029 -0.00022618178)
(0.0011539734 -0.013094724 -0.00048916862)
(0.0033481317 -0.011158831 -0.0026954601)
(0.0038588265 -0.011980424 -0.0025893526)
(0.0025480873 -0.013175598 -0.0028454376)
(0.0012493467 -0.015665995 -0.0023155325)
(-0.00039584478 -0.016917228 -0.00072638007)
(-0.0012076672 -0.016196564 0.002266178)
(-0.0019780083 -0.015767481 0.001832832)
(-0.0032182859 -0.014793638 0.00094201741)
(-0.0045319948 -0.013994658 -8.0769093e-05)
(-0.0028895993 -0.012147772 -0.00014122151)
(-0.0013809615 -0.013817437 -0.00096117347)
(0.00058700843 -0.01169555 -0.002314726)
(0.0022593132 -0.013445425 -0.0035266041)
(0.0025228055 -0.016659466 -0.0031146036)
(0.00095330207 -0.017648643 -0.0021915762)
(-0.00014398682 -0.016067465 -0.0012334364)
(-0.001459972 -0.012589991 -0.0030609554)
(-0.0018091873 -0.011171915 -0.0025631088)
(0.0017414975 -0.012054401 -0.0024556116)
(0.0021822609 -0.014981353 -0.0032314245)
(0.00071917896 -0.01647431 -0.00310106)
(-0.0030718991 0.016014444 0.0014870897)
(0.0033430934 0.0045922134 -0.0018459017)
(0.0040063389 0.018006283 -0.00083226598)
(-0.003414723 0.018374066 -0.0036775891)
(-0.005082801 0.016067096 -0.0047402583)
(-0.0059921762 0.014585015 -0.0030909811)
(-0.0036854316 0.0043557568 0.00094723245)
(-0.0026434556 0.00052475844 0.00190004)
(-0.0013988457 0.0022566084 0.00053319903)
(0.0021689691 0.0050569802 -0.0014321506)
(0.0038524273 0.012744298 -0.0036804043)
(0.0034802184 0.015494883 -0.0031756821)
(0.0024114136 0.017475464 -0.0013152145)
(-0.0012868251 0.018214114 0.0010197134)
(-0.00049804144 0.017413012 0.0047742044)
(-0.0005084506 0.017671679 0.0030632592)
(-0.0029423766 0.017028105 0.00014847797)
(-0.0054507338 0.014946434 0.00098200063)
(-0.0011315408 0.0024749811 0.001579737)
(-0.0022495133 0.0081234872 0.0016155176)
(0.0016219232 0.0021670251 4.9886109e-05)
(0.0038820821 0.0082753973 -0.0011615321)
(0.0069837456 0.017209413 -0.0024381078)
(0.0048966249 0.019248659 -0.0027624547)
(-0.0029217562 0.017991555 -0.0041370105)
(-0.0035573856 0.01409428 -0.0048365975)
(0.00010432767 0.0059139187 -0.0012994815)
(0.0031356047 0.0046862929 -0.0008440182)
(0.0060189257 0.015645585 -0.0033977666)
(0.0049065299 0.018246512 -0.0033347412)
(0.0045208601 -0.009440587 -0.001387433)
(0.0019964606 -0.013970537 -0.0043648752)
(0.00024027171 -0.00042165747 -0.0019833211)
(-9.1518792e-06 0.00651969 -0.0023745228)
(-0.00064066291 0.00088946717 -0.00062331452)
(0.0037021312 -0.013095527 0.0044758097)
(0.0021897078 -0.014459031 0.0015397902)
(6.7434525e-05 -0.015332376 0.0021633606)
(-0.0049860685 -0.01415906 0.00086839043)
(-0.0052611636 -0.013258563 0.0024457044)
(-0.0044325477 -0.012973834 0.003909959)
(-0.0028333968 -0.010424019 0.0034639045)
(-0.00033370156 -0.0043322052 0.000909947)
(-8.2254852e-05 -0.0061685434 -0.0011224999)
(0.0021821211 -0.0098473863 -0.0017513547)
(0.0020511579 -0.00747731 -0.001623703)
(0.0015053963 -0.0049031042 9.9261086e-05)
(0.0048139203 -0.013019056 0.0014336875)
(0.0029614395 -0.015338212 0.0013977342)
(-0.0030238508 -0.014268265 0.0021141509)
(-0.00034547861 -0.01359028 0.002177332)
(-0.0019660346 -0.013962752 0.0022226169)
(0.0002588451 -0.010333059 -0.0014890813)
(0.0032046247 0.0039275214 -0.00012579889)
(0.0014842116 0.0032080641 -0.0002807547)
(0.0051124621 -0.010926433 0.0027549652)
(0.0035755524 -0.01401204 0.003230331)
(0.001285369 -0.014964117 0.0030705636)
(-0.0031311313 -0.012787223 0.004094478)
(0.002197306 0.0049295005 -0.0005667713)
(0.0013957266 0.0048461153 0.00065453673)
(-0.00084441475 0.010925666 -0.0026040311)
(-0.0027767342 0.0087709329 -0.0027472107)
(-0.00043076623 0.010038365 -0.0014845923)
(0.0017897783 0.0069227014 0.0012636709)
(0.0024489761 0.009673632 0.0034168983)
(-0.00047736232 0.0095339358 0.0019273391)
(0.0015728154 0.010654773 0.0022393385)
(-0.001545658 0.0088924633 -8.1394326e-05)
(-0.0012778567 0.0015407028 0.0016135685)
(-0.001850523 0.00119854 0.0029185743)
(-0.0025575588 0.0027038903 0.0021096281)
(-0.0014796702 0.0055156894 0.00090963547)
(0.0017650619 0.0060965181 -0.00064647214)
(0.0021377185 0.0066410193 -6.6264976e-05)
(0.0029473204 0.0092389162 -0.0010270118)
(0.0049477295 0.0089201662 -0.00059297422)
(0.0059531988 0.01135533 -0.0014666902)
(0.0032943005 0.01145243 -0.0032977081)
(-0.001291869 0.0078753241 -0.0027217408)
(0.00018523286 -0.0036268532 -0.00057279671)
(-0.0013694059 0.00041623845 -0.0018509285)
(-0.0022575951 0.010173996 -0.00249167)
(0.00041010981 0.0091027145 -0.0011782616)
(0.0033910606 0.008193262 0.0011201612)
(0.0056159641 0.0098452483 0.0011836035)
(0.0026424106 0.0046265587 0.0012266624)
(0.0021849652 0.0033044845 0.0016902549)
(-0.0027682126 0.010964639 0.003099896)
(-0.0020238811 0.0089749198 0.00093059511)
(-0.0040900086 -0.0088620604 0.0012221279)
(-0.0031211935 -0.0027530411 0.00014633843)
(-0.0031586239 0.00021031251 -0.0001546754)
(-0.00034249486 0.0035652766 -5.8578743e-05)
(0.0019042424 -0.00065157007 0.0024602098)
(0.0026349848 -0.0038043656 0.003089046)
(0.0032254264 -0.0073150025 0.0029362093)
(0.0035066264 -0.0072454187 0.0036822395)
(0.0043197822 -0.0084705833 0.0045683304)
(0.003488708 -0.0083776525 0.0042432876)
(0.0018088615 -0.0098743824 0.0032968963)
(-0.0014255104 -0.010923139 0.00027211964)
(-0.0019802466 -0.010460176 0.001595981)
(-0.0029032819 -0.011136999 0.0027332397)
(-0.0039056044 -0.010763309 0.0034462597)
(-0.0032368441 -0.0098141602 0.0034265673)
(-0.0023026196 -0.00740367 0.0030597252)
(0.002032366 -0.0025874103 0.0010662032)
(0.0038915387 -0.0032507803 0.0017278746)
(0.0059989265 -0.00783196 0.0034242151)
(0.0029086447 -0.010314151 0.00053387964)
(-0.0030768061 -0.011296438 -0.0021138771)
(-0.0034499615 -0.010194043 5.104454e-05)
(-0.00083802181 0.0014629169 0.00027918696)
(0.0025538261 -0.00049800641 0.0028222555)
(0.0041386414 -0.0046795139 0.003727892)
(0.0041732395 -0.0088778539 0.0052545733)
(-0.0025405953 -0.0087773471 0.0048683496)
(-0.0036469856 -0.0030193849 0.0039281338)
(-0.0018282846 0.0014845454 0.00267645)
(-0.0007499559 -0.016737243 -0.00031133787)
(-0.0026573733 -0.016277407 0.00079242682)
(-0.0036736569 -0.014873659 -0.0001690343)
(-0.0048786596 -0.012735246 -0.002121729)
(-0.0040599477 -0.012186985 -0.0030985269)
(-0.0015130857 -0.012706369 -0.0027502526)
(-0.00037622685 -0.020664176 -0.00074830456)
(-0.002358482 -0.018140432 0.0013161807)
(-0.0012245774 -0.012185097 0.0011569457)
(0.00062183438 -0.012138395 -0.00076252909)
(0.0029470322 -0.01141061 -0.0012231338)
(0.0037157906 -0.012277666 -0.0014097761)
(0.0022069604 -0.014289854 -0.0018529858)
(-0.00065937758 -0.016111645 3.9565156e-05)
(-0.0022702173 -0.014998123 0.0019538608)
(-0.0021161298 -0.011562234 0.0016866012)
(-0.00056840148 -0.011617065 0.0015462356)
(0.0016994285 -0.011697242 0.00012361677)
(0.0027760679 -0.016831407 -0.00029442141)
(-0.00010317083 -0.016704187 -0.0004087317)
(-0.0033396085 -0.014245202 -0.0012688622)
(-0.0024254444 -0.010956146 -0.0026236824)
(-0.00075727539 -0.012050402 -0.0020144581)
(0.0017701051 -0.01242175 -0.00074069871)
(0.0027472003 -0.012225688 -0.0014944434)
(0.001867421 -0.016741585 -0.0022555452)
(-0.0010444558 0.018120401 0.00046985635)
(-0.0017739804 0.018355625 0.00046372806)
(-0.0035015577 0.016968717 -0.0030869185)
(-0.0050537686 0.014108984 -0.0043684185)
(-0.0019438606 0.0051548557 -0.0038063157)
(-0.00054063522 0.0040034171 -0.0031378434)
(0.0021722835 0.020739073 0.0020423585)
(-0.0051799542 0.01548889 0.0064186314)
(-0.0020494259 0.0017689624 0.0021770202)
(-0.00086580129 -0.0015991815 8.6057634e-05)
(0.0021100712 0.00051740605 0.0022646426)
(0.0034977684 0.0089017599 0.0033287071)
(0.004081963 0.015991213 0.0016222736)
(-0.0026725676 0.017885412 0.0020511665)
(-0.0031897428 0.015586745 0.0049097965)
(-0.0016781946 0.0077040139 0.0026685876)
(0.0014994656 0.0031285118 0.0015683146)
(0.0016523308 0.00060753139 -0.00082584103)
(0.0061456426 0.016671365 -0.0018986152)
(-0.00032738245 0.018845314 -0.0021728143)
(-0.0057597837 0.014846322 -0.0027654686)
(-0.0011600682 0.00052766159 -0.0025914729)
(0.00026602818 0.00080938408 -0.0012397461)
(0.0037758794 0.00088453194 0.00059776078)
(0.0044375241 0.0053180316 0.00091870671)
(0.0056716789 0.016912767 0.00019346309)
(0.0020220433 -0.0058529404 -5.5372382e-05)
(0.0031269738 -0.0077702723 -0.0027078919)
(0.002722749 -0.0049090159 -0.0014433237)
(0.003223642 -0.0086757508 0.00035524155)
(0.0030506474 -0.014458802 0.00065907153)
(-0.0045233346 -0.013716075 -0.0020800929)
(-0.0018117599 -0.0036779613 -0.0023229059)
(-0.00034150688 -0.0099631991 -0.0016883893)
(0.0012303194 -0.014030705 -0.0016700082)
(-0.00075482442 -0.013794593 -0.00023492001)
(-0.0011492419 -0.013631557 0.0045034354)
(-0.003687896 -0.014120949 0.0044517571)
(0.00097655738 -0.0017827247 0.0021262605)
(-0.0009910321 0.0025835645 -0.00028830578)
(0.0027851646 -0.011164242 -0.0033042306)
(0.0030596995 -0.0136715 -0.0030041432)
(0.0041459538 -0.013623284 -0.0021290698)
(-0.00078385019 -0.015448226 -0.002804134)
(-0.0020550496 -0.011166934 -0.0029202181)
(0.00087090115 0.0042437936 -0.0011493021)
(0.0038012644 -0.014206206 0.00067661778)
(0.0029074037 -0.014319177 -0.00063345314)
(0.0019267567 -0.013843828 0.00087425153)
(0.0020535495 -0.013945285 0.0025685021)
(-0.0012392362 -0.013935543 0.0031819093)
(0.00017580337 -0.0048624905 0.00093884421)
(0.00070301669 0.0038936035 0.002564981)
(0.0028370429 0.009521364 -0.0029156254)
(0.0022063436 0.0084565347 -0.0022157162)
(0.0027917778 0.0086894454 6.251108e-05)
(0.0013137138 0.010114257 4.7067952e-05)
(-0.0022623556 0.010491868 -0.0032836402)
(-0.0015759567 0.0092681286 -0.0035654865)
(-0.00043261131 0.0089632914 -0.0043436577)
(0.00066779482 -0.0043204483 0.00085185996)
(-0.0012373144 -0.0037943085 -0.00090985817)
(0.00036933163 0.0029341008 0.0016281764)