/*--------------------------------*- C++ -*----------------------------------*\
| =========                 |                                                 |
| \\      /  F ield         | OpenFOAM: The Open Source CFD Toolbox           |
|  \\    /   O peration     | Version:  v2012                                 |
|   \\  /    A nd           | Website:  www.openfoam.com                      |
|    \\/     M anipulation  |                                                 |
\*---------------------------------------------------------------------------*/
FoamFile
{
    version     2.0;
    format      ascii;
    class       volScalarField;
    location    "19";
    object      p;
}
// * * * * * * * * * * * * * * * * * * * * * * * * * * * * * * * * * * * * * //

dimensions      [0 2 -2 0 0 0 0];


internalField   nonuniform List<scalar> 
64000
(
4.56966e-22
-3.49147e-21
-2.07028e-21
-3.92293e-21
-6.49011e-21
-1.35481e-21
-2.53386e-21
-1.95437e-21
-3.47636e-21
-3.29086e-21
-1.56667e-21
-4.34762e-21
-3.14468e-21
-5.61558e-21
-2.96007e-21
-4.38815e-21
-6.82516e-22
-6.00785e-23
2.36991e-21
1.22486e-21
-2.2199e-21
-4.65602e-21
-1.93711e-21
8.65641e-22
-4.73939e-21
-1.73427e-21
-4.17273e-22
-1.51006e-21
-1.6373e-21
-1.93976e-21
-3.77356e-21
-8.33074e-22
9.11421e-22
1.21293e-22
-6.20023e-22
-3.38821e-21
-1.56738e-21
1.65246e-21
1.51888e-21
1.38764e-21
-6.94907e-21
-8.24328e-21
-8.701e-21
-5.84285e-21
-7.62007e-21
-9.19247e-21
-5.41746e-21
-2.08927e-21
-3.52876e-21
-5.45468e-21
-3.47873e-21
-6.79366e-21
-3.4103e-21
-4.0317e-21
-5.33538e-21
-5.88211e-21
-4.04583e-21
1.88698e-21
4.29506e-22
7.72203e-22
9.7758e-22
-3.09751e-21
-5.76684e-21
-6.87422e-21
-5.4579e-21
-1.20646e-21
-7.9744e-22
-3.03126e-21
-1.99557e-21
-4.97853e-22
1.88239e-21
5.77844e-23
-3.5148e-21
-2.06812e-21
-5.99375e-22
-1.2245e-21
-7.3131e-22
1.9326e-21
3.99195e-22
6.51789e-22
-5.15748e-21
-5.98557e-21
-1.20626e-20
-8.29133e-21
-6.50401e-21
-8.77884e-21
-6.38202e-21
-5.77461e-21
-6.542e-21
-5.10633e-21
-3.76373e-21
-5.96047e-21
-4.95071e-21
-4.83416e-21
-2.37301e-21
-2.21668e-21
-7.09688e-21
-3.02942e-21
-1.62889e-21
-3.806e-22
2.47309e-22
-2.12877e-21
-6.3962e-21
-4.85691e-21
-2.10064e-21
-2.57158e-21
-3.3647e-21
-3.34961e-21
-5.42076e-22
-1.81647e-21
5.80865e-22
-1.18651e-21
-3.86136e-21
-8.48626e-22
-4.4306e-22
-1.16794e-21
1.39188e-21
1.81285e-21
-3.38926e-25
9.99002e-22
-8.1907e-21
-7.70851e-21
-8.74083e-21
-1.13051e-20
-1.02408e-20
-1.0776e-20
-6.46707e-21
-4.13518e-21
-7.0018e-21
-6.39944e-21
-5.90607e-21
-6.60594e-21
-6.61619e-21
-3.67908e-21
-3.419e-21
-5.39906e-21
-4.45964e-21
-1.89776e-21
-1.50033e-21
-4.09565e-22
1.6059e-21
-1.42076e-21
-9.72999e-21
-6.48746e-21
-3.25252e-21
-3.93766e-21
-1.61677e-21
1.68968e-22
-1.94186e-21
-3.5204e-21
1.46414e-21
-6.65134e-23
-4.50718e-21
-5.60124e-22
2.78757e-22
-1.45404e-22
1.40969e-21
1.22e-22
-1.96042e-21
-3.52331e-22
-1.43013e-20
-7.99461e-21
-1.01696e-20
-8.8552e-21
-1.07505e-20
-1.14879e-20
-7.02786e-21
-1.7025e-21
-5.93136e-21
-8.34762e-21
-6.43077e-21
-6.84504e-21
-5.62578e-21
-2.74018e-21
-7.23178e-21
-8.76018e-21
-3.95476e-21
1.29294e-21
-4.44707e-22
-2.64118e-21
2.05673e-21
-3.55639e-21
-1.08653e-20
-6.34899e-21
-2.31805e-21
-2.23975e-21
-3.32341e-22
-1.11326e-21
-3.99166e-21
-7.50468e-22
5.18614e-22
1.85305e-22
-2.57271e-21
1.62899e-21
-9.66414e-22
1.0366e-22
-9.79461e-22
-2.08673e-22
-2.80713e-21
-2.27759e-21
-9.74295e-21
-8.99042e-21
-9.11911e-21
-1.1069e-20
-9.72281e-21
-8.88229e-21
-5.92365e-21
-7.29703e-21
-8.24709e-21
-8.15518e-21
-5.49485e-21
-7.32379e-21
-7.52153e-21
-2.48887e-21
-4.6079e-21
-8.56528e-21
-3.94056e-21
2.06011e-21
1.74589e-21
-1.64371e-21
1.72322e-21
-3.66078e-21
-1.06513e-20
-7.10339e-21
-3.49388e-21
-1.97565e-21
-2.38481e-21
7.73208e-23
-1.3401e-21
-2.73313e-21
-2.80568e-21
-2.09707e-21
-1.65907e-21
6.05927e-22
-6.38967e-23
1.16451e-22
-2.52695e-21
-2.60141e-21
-1.23769e-21
4.44708e-23
-1.17325e-20
-1.16186e-20
-7.62235e-21
-9.83938e-21
-1.00764e-20
-9.61475e-21
-6.20995e-21
-7.68588e-21
-8.89855e-21
-6.60683e-21
-6.23743e-21
-8.06495e-21
-6.19619e-21
-5.14038e-21
-5.57236e-21
-7.35727e-21
-2.64119e-21
2.53319e-21
3.45635e-21
2.10603e-22
-2.4538e-21
-5.69438e-21
-1.15953e-20
-7.8342e-21
-3.06463e-21
-2.3252e-21
-1.58312e-21
1.5546e-21
-7.68405e-23
-1.90778e-21
-4.25272e-21
-2.25235e-21
-3.97305e-22
-1.35412e-21
-3.14535e-22
-2.05475e-21
-2.61683e-21
-1.43762e-21
-2.92254e-21
-1.47208e-21
-1.28183e-20
-1.22368e-20
-1.0253e-20
-6.71997e-21
-1.06828e-20
-7.47872e-21
-5.70934e-21
-1.21091e-20
-1.0113e-20
-8.01411e-21
-6.92669e-21
-8.62315e-21
-8.57434e-21
-8.0061e-21
-5.41382e-21
-7.20353e-21
-2.00434e-21
1.24586e-21
3.06909e-21
2.13099e-22
-4.33121e-21
-6.64923e-21
-8.9423e-21
-4.64802e-21
-2.58459e-21
-4.27036e-21
-1.42568e-21
1.36453e-21
6.04543e-22
-1.04781e-21
-4.28118e-21
-2.36313e-21
-3.68804e-22
-2.20052e-21
-3.31163e-21
-2.41388e-21
-4.49532e-21
-3.23838e-21
-8.12411e-22
-5.63007e-22
-1.84215e-20
-1.34407e-20
-1.13643e-20
-9.62748e-21
-8.33461e-21
-9.36248e-21
-8.71239e-21
-8.73551e-21
-9.97502e-21
-1.31844e-20
-5.19739e-21
-7.30597e-21
-6.16643e-21
-1.03589e-20
-7.25961e-21
-6.79298e-21
-2.5889e-21
2.53969e-21
-6.77954e-22
-1.7401e-21
-4.30226e-21
-6.10096e-21
-6.33342e-21
-6.35583e-21
6.30354e-22
-1.38646e-21
-3.57866e-21
-3.01702e-22
7.34152e-22
-4.83227e-23
1.12768e-21
-7.42113e-22
-5.39746e-21
-2.3841e-21
-5.52567e-21
-2.73111e-21
-3.11054e-21
-1.17197e-21
6.24762e-22
-1.43018e-21
-9.43321e-21
-1.09986e-20
-1.20849e-20
-9.8414e-21
-9.15762e-21
-1.10012e-20
-8.68748e-21
-9.21989e-21
-1.02666e-20
-1.07749e-20
-7.3908e-21
-5.565e-21
-5.63232e-21
-9.05275e-21
-8.96647e-21
-6.80932e-21
-4.73915e-21
-1.13286e-21
2.47458e-21
-1.0235e-21
-3.56188e-21
-3.75957e-21
-7.99567e-21
-4.91698e-21
-1.4809e-21
-1.4164e-21
-1.48144e-21
4.75402e-23
-7.57306e-22
-1.49917e-21
-7.94264e-22
-4.26681e-22
-1.34249e-21
-2.26331e-21
-5.76125e-21
-5.79372e-21
-2.46669e-21
5.40378e-22
1.02137e-21
-9.85879e-22
-6.84439e-21
-1.15971e-20
-1.26821e-20
-1.35934e-20
-9.04564e-21
-1.07682e-20
-1.30388e-20
-7.52114e-21
-9.61425e-21
-1.38463e-20
-8.93539e-21
-4.31825e-21
-4.79573e-21
-7.01701e-21
-8.41241e-21
-9.87616e-21
-8.04984e-21
2.25383e-21
4.54675e-21
5.99062e-22
-4.50335e-21
-9.68879e-21
-6.48542e-21
-5.31618e-21
-2.4997e-21
-1.82524e-21
7.45391e-22
1.00974e-21
-1.96589e-21
-3.74564e-21
-2.01989e-21
1.5703e-21
-1.35412e-21
-9.99514e-22
-4.81986e-21
-6.25581e-21
-2.6561e-21
-1.38188e-21
-1.56595e-21
-4.85092e-22
-9.52581e-21
-1.2828e-20
-1.39161e-20
-1.24604e-20
-1.08488e-20
-1.44258e-20
-1.00173e-20
-9.62207e-21
-7.36856e-21
-1.12619e-20
-1.38273e-20
-6.20009e-21
-4.93854e-21
-8.08735e-21
-9.30283e-21
-7.54404e-21
-4.91549e-21
2.17681e-21
2.16552e-21
5.57833e-22
-4.3239e-21
-8.49505e-21
-6.72523e-21
-6.23979e-21
-5.62863e-21
5.44215e-22
2.87717e-21
-2.579e-22
-4.65112e-21
-1.48902e-21
-2.47777e-24
-1.95509e-22
-5.76471e-22
-1.88806e-21
-4.38373e-21
-2.93183e-21
-1.46895e-21
-1.78038e-21
-2.86217e-21
-2.72567e-21
-1.42034e-20
-1.36647e-20
-1.35016e-20
-1.20723e-20
-1.28416e-20
-1.32376e-20
-1.30989e-20
-1.22236e-20
-1.14689e-20
-1.07994e-20
-1.01431e-20
-5.27472e-21
-6.56661e-21
-9.26261e-21
-6.51933e-21
-5.4382e-21
-3.30268e-21
-1.88166e-22
-1.99717e-21
-2.6316e-21
-3.1234e-21
-4.81668e-21
-5.73329e-21
-5.47397e-21
-3.43319e-21
-3.09711e-22
1.29423e-21
-1.68608e-21
-1.60634e-21
-2.35205e-23
-3.27417e-21
-7.58592e-22
5.86564e-22
-3.35076e-21
-4.2315e-21
-2.00321e-21
-1.68153e-21
-2.22903e-21
-2.42058e-21
-2.0554e-21
-1.71308e-20
-1.73151e-20
-1.37367e-20
-1.27863e-20
-1.01703e-20
-1.19583e-20
-1.23855e-20
-9.09015e-21
-1.152e-20
-1.35607e-20
-8.63469e-21
-4.34073e-21
-8.82409e-21
-1.35602e-20
-7.41359e-21
-5.26061e-21
-1.71881e-21
1.97958e-21
-1.25092e-21
-2.75349e-21
-5.28757e-21
-6.5785e-21
-6.3228e-21
-8.64206e-21
-1.89478e-21
-8.06919e-22
-7.22225e-22
-9.50888e-22
9.49261e-22
2.59332e-21
-3.55249e-22
-2.61525e-21
-1.42028e-21
-1.56176e-21
-2.10259e-21
-3.04095e-21
-2.67966e-21
-2.97697e-21
-2.08428e-21
-2.123e-21
-1.15383e-20
-1.91282e-20
-1.75121e-20
-1.06293e-20
-8.68645e-21
-1.18531e-20
-1.57172e-20
-1.40205e-20
-1.14994e-20
-1.01993e-20
-6.60096e-21
-6.89604e-21
-9.08509e-21
-1.0504e-20
-4.26202e-21
-5.08855e-21
-2.95546e-21
-2.48319e-21
-3.57016e-21
-1.89094e-21
-8.02176e-21
-4.02201e-21
-4.8554e-21
-8.18094e-21
-4.33247e-22
-1.75101e-21
-2.63267e-21
-5.9316e-22
1.79586e-21
1.71655e-21
3.5352e-22
-1.34025e-21
-1.60817e-21
-9.50891e-22
-1.47697e-21
-3.43219e-21
-3.13703e-21
-3.32178e-21
-2.68029e-21
-3.52737e-22
-1.34743e-20
-1.36192e-20
-1.65276e-20
-1.23354e-20
-1.29807e-20
-1.10444e-20
-1.42718e-20
-1.47085e-20
-9.52799e-21
-6.1388e-21
-9.82395e-21
-9.35255e-21
-6.96402e-21
-7.6833e-21
-7.37589e-21
-6.39272e-21
-2.47055e-21
-3.06684e-21
-2.69341e-21
-4.77738e-21
-7.39655e-21
-4.86179e-21
-3.78851e-21
-3.43957e-21
-9.10977e-22
-2.9623e-21
-4.03797e-21
-2.70056e-21
2.78267e-21
2.37513e-21
-1.84182e-21
-3.8382e-21
1.74336e-21
-4.55823e-23
-7.12372e-22
-2.01448e-21
-5.27426e-21
-4.34379e-21
-1.82329e-21
-3.50339e-22
-1.40592e-20
-1.25526e-20
-1.5283e-20
-1.04586e-20
-1.00127e-20
-1.22458e-20
-1.44622e-20
-1.4793e-20
-9.01423e-21
-8.49253e-21
-9.61461e-21
-1.19023e-20
-3.85969e-21
-7.04769e-21
-6.03689e-21
-5.36378e-21
-3.99276e-21
-1.88814e-21
-4.31038e-21
-6.12383e-21
-7.52118e-21
-4.76041e-21
-3.66648e-21
-9.95624e-22
-3.62149e-22
-1.30366e-21
-2.71414e-21
-3.75006e-21
7.31941e-22
4.69214e-22
-2.84694e-21
-1.06474e-21
1.77217e-21
-1.03348e-21
-1.75102e-21
-1.01857e-21
-3.12893e-21
-3.63878e-21
-1.31003e-21
-2.13217e-21
-1.06271e-20
-1.34246e-20
-1.85848e-20
-1.05226e-20
-7.03402e-21
-1.18422e-20
-1.54106e-20
-1.35686e-20
-1.04518e-20
-8.52477e-21
-1.06986e-20
-1.07449e-20
-6.28717e-21
-7.30653e-21
-2.36958e-21
-7.76218e-21
-5.94788e-21
1.10824e-21
-4.47389e-22
-8.21903e-21
-8.64409e-21
-8.17119e-21
-8.44924e-22
1.77688e-22
7.61533e-22
-3.95086e-21
-2.71071e-21
-7.13697e-22
9.26904e-23
2.76263e-22
-1.70833e-21
-7.44781e-22
3.05015e-22
-1.14905e-22
1.26521e-22
-2.83007e-21
-2.51467e-21
-2.95014e-21
4.33578e-22
-7.20805e-22
-8.57243e-21
-1.04973e-20
-1.34661e-20
-1.22853e-20
-1.13065e-20
-1.15728e-20
-1.26568e-20
-1.15922e-20
-1.08219e-20
-9.41896e-21
-1.11708e-20
-9.54637e-21
-6.36111e-21
-6.90181e-21
-3.26828e-21
-6.4032e-21
-6.54974e-21
-6.72969e-21
-8.28351e-21
-5.83649e-21
-4.29547e-21
-2.53544e-21
-1.89701e-21
-1.14775e-21
1.10447e-22
-1.09766e-21
-5.90145e-22
1.47255e-21
8.53128e-22
-1.05383e-21
-4.55872e-21
-1.35454e-21
-2.14533e-23
-2.44472e-22
-9.06378e-23
-7.22181e-22
-2.37201e-22
-1.44431e-21
-3.51089e-21
-2.39833e-21
-6.24818e-21
-8.23982e-21
-1.59311e-20
-1.32569e-20
-1.17603e-20
-9.12065e-21
-9.169e-21
-1.40108e-20
-1.2671e-20
-1.08105e-20
-8.9589e-21
-9.70329e-21
-4.72707e-21
-5.37482e-21
-7.14692e-21
-7.42861e-21
-4.16245e-21
-3.70181e-21
-9.58272e-21
-5.25477e-21
-5.59805e-21
-5.21934e-21
-2.98117e-21
-2.55486e-22
8.38928e-22
7.46787e-22
-3.97341e-21
-1.51296e-22
7.426e-22
-2.1346e-21
-3.50562e-21
-1.95023e-21
2.0972e-22
6.10087e-22
-2.50674e-22
1.36758e-22
-1.12849e-21
-6.29398e-22
-1.63705e-21
-2.17262e-21
-8.58026e-21
-9.43087e-21
-1.39498e-20
-1.29333e-20
-1.22984e-20
-8.63202e-21
-9.03504e-21
-9.46167e-21
-1.01548e-20
-1.25634e-20
-1.55813e-20
-8.80026e-21
-5.90734e-21
-4.30642e-21
-6.62438e-21
-5.6546e-21
-5.70019e-21
-2.70097e-21
-5.56938e-21
-5.73709e-21
-5.99537e-21
-5.15527e-21
-1.69866e-21
-1.91917e-21
-2.98064e-21
3.86559e-22
-1.40842e-21
-7.76995e-22
2.49161e-22
-8.63932e-22
-2.46552e-21
-1.75109e-21
-1.50941e-21
1.85998e-21
4.01909e-22
-1.75576e-21
-1.9217e-22
-1.61387e-21
-1.23809e-21
-2.73073e-21
-1.311e-20
-1.37912e-20
-1.20092e-20
-1.16676e-20
-1.12362e-20
-9.39635e-21
-9.97787e-21
-9.74409e-21
-7.87121e-21
-1.28864e-20
-1.52076e-20
-7.73552e-21
-5.0303e-21
-1.12405e-20
-6.7166e-21
-5.34613e-21
-2.06148e-21
-2.69572e-21
-5.58189e-21
-6.0981e-21
-7.58606e-21
-1.44675e-21
-2.16814e-21
-2.7055e-21
-3.94866e-22
-2.9782e-22
-3.01763e-21
-2.2972e-21
3.10072e-22
6.58306e-22
-2.81094e-21
-4.25144e-22
-4.41879e-22
-2.80787e-22
-1.77378e-21
-4.51754e-21
-7.2919e-22
-6.66484e-22
5.06749e-22
7.0847e-22
-1.61798e-20
-1.58538e-20
-1.13423e-20
-1.07224e-20
-1.11701e-20
-1.24565e-20
-7.02262e-21
-9.6833e-21
-1.12945e-20
-1.11464e-20
-1.23311e-20
-1.0048e-20
-7.26335e-21
-5.89866e-21
-5.70615e-21
-5.37044e-21
-3.34998e-21
5.29595e-22
-5.74507e-22
-6.81843e-21
-7.28293e-21
-2.12777e-21
-6.69867e-21
-5.38423e-21
-2.59715e-21
-2.31692e-22
-2.05561e-21
-1.27026e-21
9.04684e-22
8.64296e-22
-3.61214e-21
-2.21534e-21
-8.29014e-22
4.9927e-22
-9.26869e-22
-4.39587e-21
-1.9285e-21
1.41482e-21
-8.28729e-22
-1.15885e-21
-1.14537e-20
-1.2648e-20
-1.52371e-20
-1.04301e-20
-1.06966e-20
-1.19286e-20
-1.11495e-20
-1.33629e-20
-8.88181e-21
-9.71425e-21
-1.14285e-20
-1.09651e-20
-2.12534e-21
-7.2749e-21
-8.40636e-21
-2.84787e-21
1.77679e-21
-1.15553e-21
-2.9731e-21
-4.5205e-21
-6.5558e-21
-5.50057e-21
-4.36901e-21
-3.01786e-21
-4.53349e-21
-1.55365e-21
-1.53185e-21
-2.9489e-21
2.41636e-21
5.09117e-22
-2.67691e-21
-2.53977e-21
-1.57779e-21
-1.76411e-21
-3.12313e-21
-3.56178e-21
-2.44589e-21
3.20293e-22
-9.87932e-22
-1.31912e-21
-8.85995e-21
-1.26782e-20
-1.37189e-20
-1.22701e-20
-9.64563e-21
-1.22351e-20
-1.12606e-20
-1.08701e-20
-7.61431e-21
-1.17674e-20
-1.34091e-20
-8.73369e-21
-3.63633e-21
-5.38667e-21
-5.79852e-21
-3.17388e-22
-1.14684e-21
-5.07111e-21
-1.88881e-21
-9.00269e-22
-3.66594e-21
-6.64916e-21
-2.89413e-21
-5.10398e-21
-5.21881e-21
-4.70207e-21
-1.02275e-21
1.7417e-22
4.52513e-22
-7.7623e-22
7.58347e-23
-2.97601e-21
-3.83368e-21
6.24671e-22
-2.92368e-21
-2.9124e-21
-2.89807e-21
-1.66743e-21
-8.55459e-22
-2.88083e-22
-1.11559e-20
-1.40002e-20
-1.4808e-20
-1.02533e-20
-9.46898e-21
-1.09883e-20
-1.10444e-20
-1.0174e-20
-7.47081e-21
-8.73238e-21
-1.29619e-20
-1.03716e-20
-2.1361e-21
-7.43336e-21
-1.63082e-21
-3.53268e-21
-4.03123e-21
-1.67102e-21
1.90009e-21
-1.89608e-21
-2.65374e-21
-5.14873e-21
-7.66757e-21
-8.71211e-21
-6.80522e-21
-6.43167e-21
8.64869e-23
-2.04093e-21
-8.57514e-22
7.48114e-22
6.15756e-22
-2.67231e-21
-4.26155e-21
9.12028e-22
1.02798e-21
-2.73836e-21
-2.14341e-21
-3.5172e-21
1.40635e-22
-2.72633e-23
-6.44805e-21
-1.00134e-20
-1.28434e-20
-1.52703e-20
-1.28848e-20
-1.3172e-20
-1.03966e-20
-4.76504e-21
-7.68162e-21
-1.10052e-20
-1.37207e-20
-9.67039e-21
-1.73496e-21
-5.34525e-21
-5.42131e-21
-6.65169e-21
-5.0642e-21
-3.22897e-21
3.93987e-21
3.2348e-21
-2.72941e-21
-7.73544e-21
-5.94977e-21
-7.42272e-21
-7.28317e-21
-4.99002e-21
1.44491e-21
4.90809e-22
-3.9619e-21
-1.57132e-21
1.13963e-21
-1.25162e-21
-1.9369e-21
-5.06505e-22
-3.41096e-21
6.07048e-22
-2.15137e-21
-6.11556e-21
-2.93901e-21
-1.87803e-21
-7.44354e-21
-1.07852e-20
-1.24337e-20
-1.39841e-20
-1.1157e-20
-1.20007e-20
-9.66255e-21
-9.53898e-21
-8.04667e-21
-8.90064e-21
-1.19803e-20
-6.07239e-21
-4.47855e-21
-4.38478e-21
-7.09359e-21
-4.33652e-21
-4.8176e-21
-2.12519e-21
2.03053e-21
2.93427e-21
-3.49979e-21
-3.82908e-21
-4.92338e-21
-8.42387e-21
-7.01542e-21
-1.41549e-21
-4.35587e-23
-1.04167e-21
-2.60068e-21
-2.03979e-21
-1.37538e-21
-1.28778e-21
-2.80569e-21
-4.03733e-21
-2.21739e-21
-2.07444e-21
-3.24684e-21
-3.1455e-21
-1.65109e-21
1.14726e-23
-8.89534e-21
-1.31984e-20
-1.38508e-20
-1.00469e-20
-1.33925e-20
-1.39614e-20
-8.45084e-21
-5.90406e-21
-7.92449e-21
-1.05607e-20
-1.3105e-20
-3.98421e-21
-4.47891e-21
-6.98248e-21
-4.65981e-21
-5.07454e-21
-4.34397e-21
1.38517e-21
8.2035e-22
2.50403e-21
-5.72962e-21
-5.95885e-21
-4.0489e-21
-5.14815e-21
-4.49323e-21
-2.52496e-21
-6.30549e-22
-7.16434e-22
-7.42834e-22
-3.24409e-21
-1.40156e-21
-1.56883e-21
-3.10797e-21
-1.76168e-21
-1.59673e-21
-6.06204e-21
-3.77327e-21
-2.1042e-21
-1.56e-21
-2.71819e-22
-7.96286e-21
-1.13159e-20
-1.29752e-20
-1.27518e-20
-1.33103e-20
-1.45424e-20
-8.75255e-21
-4.18255e-21
-7.16737e-21
-1.03511e-20
-1.14793e-20
-6.29606e-21
-2.94366e-21
-8.88797e-21
-4.81515e-21
-5.2264e-21
-3.03376e-21
-1.37093e-21
1.72521e-21
4.86337e-21
-2.67783e-21
-5.79013e-21
-6.18578e-21
-4.93543e-21
-6.54057e-21
-3.82922e-21
1.79128e-21
2.34133e-21
-5.84732e-22
-1.7512e-21
-2.58648e-21
-2.51903e-21
-2.95086e-21
-2.13248e-21
-4.56211e-21
-4.25677e-21
-3.41763e-21
-1.25396e-21
-4.0318e-22
6.38746e-22
-1.01159e-20
-1.11129e-20
-1.06301e-20
-1.25362e-20
-1.16632e-20
-1.19166e-20
-8.22413e-21
-6.15712e-21
-7.11096e-21
-8.94994e-21
-7.16487e-21
-6.29049e-21
-6.18375e-21
-7.42593e-21
-4.72257e-21
-4.26562e-21
-9.89421e-22
1.36258e-21
1.06817e-21
8.09229e-22
-1.36581e-21
-6.28559e-21
-6.21602e-21
-4.18883e-21
-4.02165e-21
-2.81851e-21
-2.26962e-21
2.63416e-22
-1.57414e-21
-1.04466e-21
-2.59778e-21
-1.56531e-21
1.87158e-22
-1.58086e-21
-4.12574e-21
-7.33165e-21
-4.03024e-21
-3.10474e-22
-6.85444e-22
-4.82017e-22
-1.43174e-20
-1.32315e-20
-9.95892e-21
-1.02609e-20
-1.14793e-20
-1.29674e-20
-8.92895e-21
-7.39727e-21
-6.74164e-21
-7.54584e-21
-3.79786e-21
-6.91266e-21
-1.0557e-20
-7.78734e-21
-4.23485e-21
-2.46129e-21
2.5121e-22
1.65022e-21
1.96281e-21
-1.18632e-21
3.28287e-22
-3.55298e-21
-1.09787e-20
-7.03574e-21
-3.52718e-21
-4.0548e-21
-2.2643e-21
8.4075e-22
-4.59034e-22
5.67533e-22
-2.54421e-21
-2.5781e-21
1.9996e-21
-1.63703e-21
-6.38481e-21
-6.52879e-21
-2.34247e-21
8.47656e-22
-1.30859e-21
-1.43038e-21
-9.12586e-21
-8.11973e-21
-8.78973e-21
-8.12947e-21
-1.48789e-20
-1.31675e-20
-9.26364e-21
-8.61958e-21
-6.71971e-21
-7.24724e-21
-6.13745e-21
-6.38313e-21
-9.97065e-21
-6.74112e-21
-2.47571e-21
-3.33959e-21
-1.05157e-21
-3.17204e-22
2.58506e-21
-4.67601e-22
-1.19242e-21
-3.94637e-21
-7.81196e-21
-3.63814e-21
-7.78435e-21
-6.80987e-21
4.85438e-22
1.39596e-21
3.75979e-22
4.80217e-22
-3.39e-21
-1.6038e-21
9.01618e-22
-1.8877e-21
-4.25388e-21
-3.41846e-21
-1.23132e-21
-2.95034e-21
-1.63401e-21
-6.54899e-22
-9.6849e-21
-8.91683e-21
-8.60312e-21
-1.29955e-20
-1.38025e-20
-1.01286e-20
-8.06567e-21
-6.31639e-21
-8.132e-21
-5.48726e-21
-5.22092e-21
-8.87717e-21
-8.8966e-21
-5.25082e-21
-3.66511e-21
-2.53696e-21
-1.04462e-21
-3.22687e-22
3.90142e-22
1.96111e-22
1.42944e-21
-5.33439e-21
-4.85302e-21
-4.50004e-21
-5.14309e-21
-3.86097e-21
-1.44483e-21
-1.4795e-21
7.26007e-23
3.95417e-23
-2.05143e-21
-9.02287e-22
7.47975e-22
-9.20643e-22
-8.87029e-22
-2.09837e-21
-1.6179e-21
1.38964e-21
-3.20573e-21
-3.20137e-21
-1.16569e-20
-8.3777e-21
-7.93957e-21
-8.93208e-21
-1.13112e-20
-1.30397e-20
-9.86136e-21
-6.36983e-21
-7.29907e-21
-6.07986e-21
-3.93031e-21
-8.87921e-21
-3.73971e-21
-2.96462e-21
-3.84307e-21
-4.18597e-21
-3.99883e-21
9.54357e-22
2.90198e-21
1.89221e-21
5.06707e-22
-6.34655e-21
-3.79133e-21
-3.94649e-21
-4.1823e-21
-2.27137e-21
-2.04139e-21
-4.33121e-21
-1.25117e-21
-1.82432e-21
-1.98456e-21
-6.66576e-22
4.34832e-22
-7.44381e-22
-4.69355e-22
1.26949e-22
-9.32612e-22
1.98148e-21
6.13571e-22
-8.06984e-22
-7.82497e-21
-7.32669e-21
-9.15181e-21
-8.70179e-21
-8.87674e-21
-1.609e-20
-8.13377e-21
-6.54572e-21
-6.38094e-21
-8.13941e-21
-6.06385e-21
-3.01709e-21
-3.87557e-21
-2.37777e-21
-3.93544e-21
-4.1363e-21
-3.68834e-21
4.7676e-22
2.51895e-21
3.51e-23
-1.72221e-23
-3.04149e-21
-3.96697e-21
-4.00342e-21
-2.57807e-21
-3.36965e-22
1.2529e-22
-1.7155e-21
-3.23494e-21
-1.95743e-21
-2.53221e-21
-2.19437e-21
3.95112e-22
-5.25888e-22
-5.34072e-22
-1.12029e-22
1.12722e-21
3.23936e-21
-1.78653e-21
-2.18124e-21
-6.42869e-21
-6.90478e-21
-6.89133e-21
-1.21869e-20
-1.02139e-20
-1.12153e-20
-8.63092e-21
-7.32799e-21
-7.8034e-21
-6.22921e-21
-5.81923e-21
-3.21674e-21
-3.43154e-21
-1.27617e-21
-4.61942e-21
-4.02129e-21
-4.01679e-21
1.89375e-21
4.18401e-21
6.60515e-23
4.6133e-22
-1.03312e-21
-2.19086e-21
-4.07214e-21
-4.88585e-21
-2.9148e-21
-1.61809e-21
-9.04959e-22
-1.26347e-22
-1.95912e-21
-4.52806e-21
-2.49812e-21
-1.36503e-21
-1.74652e-22
-1.61951e-21
-6.12921e-22
3.22326e-21
3.48278e-21
-3.16e-21
-2.08765e-21
-4.48388e-21
-5.3757e-21
-1.0521e-20
-7.98602e-21
-7.41153e-21
-1.03695e-20
-9.41955e-21
-6.82404e-21
-7.27298e-21
-5.06559e-21
-3.45416e-21
-5.96493e-21
-3.03174e-21
-1.87286e-21
-2.47502e-21
-2.08467e-21
-7.49845e-22
1.92266e-23
2.16194e-21
1.13739e-21
-1.0978e-22
1.90334e-21
-2.84215e-21
-4.92449e-21
-2.357e-21
-3.57867e-22
-2.38419e-21
-7.44574e-22
1.1198e-21
-2.49245e-21
-5.97789e-21
-3.07356e-21
-1.65284e-21
-9.7149e-22
-1.62274e-21
-8.75188e-22
1.11164e-21
1.90647e-21
-8.65796e-22
-1.45056e-21
-6.23668e-21
-6.44723e-21
-9.06394e-21
-6.38043e-21
-7.48002e-21
-1.03941e-20
-6.66657e-21
-3.50584e-21
-7.27631e-21
-7.57009e-21
-4.5106e-21
-3.72342e-21
-1.60769e-21
-1.29921e-21
-3.72875e-21
-4.13029e-21
-1.20096e-21
1.92013e-21
1.0097e-21
2.08635e-21
1.65536e-21
-2.27355e-21
-1.75122e-21
-3.5243e-21
-5.18677e-21
9.37181e-22
1.24835e-21
1.3792e-21
-2.71564e-22
-4.63968e-21
-1.98467e-21
-3.91872e-21
-2.14043e-21
-1.28161e-21
3.18452e-22
-6.36643e-22
-1.58004e-21
-5.80202e-22
6.21978e-22
-1.31871e-22
-6.06311e-21
-5.19202e-21
-6.21467e-21
-2.50113e-21
-1.25682e-21
-4.72193e-21
-7.669e-21
-4.62636e-21
-4.95762e-21
-5.48873e-21
-1.91849e-21
6.48746e-22
-1.58785e-21
-1.0652e-21
-2.07579e-21
-2.99821e-21
-7.99272e-23
-5.02147e-22
2.87598e-21
3.51447e-21
-3.94258e-22
-3.24598e-21
-2.19912e-21
-7.42003e-22
-8.35239e-22
3.61103e-22
-1.04923e-21
1.20259e-21
2.72687e-21
-2.25758e-22
-3.91368e-21
-2.07054e-21
-3.02195e-21
-2.74008e-21
8.30005e-23
-9.05316e-23
-3.73037e-21
-1.96778e-21
-5.53204e-23
5.39622e-22
-5.14731e-21
-7.88534e-21
-1.09673e-20
-6.79444e-21
-5.22929e-21
-7.83131e-21
-3.32463e-21
-9.80129e-23
-8.2247e-21
-6.54318e-21
-2.91594e-21
-6.15833e-21
-4.94925e-21
-2.7872e-21
-3.71526e-21
-6.18157e-21
-4.51095e-21
-2.81445e-21
3.04353e-21
1.45471e-21
-1.54887e-21
-3.19937e-21
-2.62258e-21
-2.39282e-21
-2.94669e-21
-1.68796e-21
-1.73559e-21
-2.65726e-21
-4.62003e-21
-4.42596e-21
-5.20983e-21
3.73617e-22
-5.59972e-22
-1.42967e-21
-1.55006e-21
-1.01461e-21
4.63496e-22
7.64428e-23
4.67659e-22
1.10137e-21
-7.46301e-21
-1.00508e-20
-1.42188e-20
-1.22587e-20
-7.21261e-21
-1.17993e-20
-9.67601e-21
-4.12052e-21
-7.18864e-21
-1.10516e-20
-1.03559e-20
-7.45799e-21
-8.05549e-21
-6.40842e-21
-7.09632e-21
-4.59721e-21
-4.00547e-21
-3.54704e-21
1.09403e-21
-8.84513e-22
-6.68984e-22
-3.67897e-21
-4.1407e-21
-5.62701e-21
-3.50383e-21
-1.51739e-21
2.4789e-22
7.98076e-22
-4.80929e-21
-8.5847e-22
-1.8121e-21
-9.93079e-22
-3.7863e-21
-1.96475e-21
-3.87077e-21
-1.23512e-21
8.17319e-22
2.12723e-21
4.26584e-22
7.23373e-22
-9.50609e-21
-1.03746e-20
-1.20043e-20
-1.27336e-20
-1.13069e-20
-9.44607e-21
-1.00032e-20
-1.02429e-20
-1.16251e-20
-1.12706e-20
-8.59337e-21
-8.00461e-21
-4.56986e-21
-5.01376e-21
-7.60753e-21
-6.40248e-21
-7.04126e-21
-2.94993e-21
2.64348e-21
-5.27318e-22
-2.07588e-21
-3.49189e-21
-3.96899e-21
-3.08926e-21
-4.20237e-21
-2.47908e-21
-6.80274e-22
-2.8113e-21
-2.30363e-21
-3.5457e-21
-2.81209e-21
-2.46703e-21
-1.21452e-21
-1.44796e-21
-5.95239e-21
-1.85714e-21
2.10937e-21
4.00213e-21
2.14294e-21
1.70199e-21
-1.32454e-20
-1.29317e-20
-1.14887e-20
-1.31552e-20
-1.33148e-20
-1.32882e-20
-1.09125e-20
-8.48372e-21
-1.08803e-20
-1.00923e-20
-1.011e-20
-1.13663e-20
-7.35028e-21
-5.22751e-21
-6.63382e-21
-6.41833e-21
-5.19641e-21
-4.16749e-21
-1.71065e-21
1.28806e-21
-2.49575e-21
-3.50854e-21
-6.05174e-21
-4.7474e-21
-2.73857e-21
-1.85637e-21
-2.51837e-22
7.85869e-22
-2.59068e-21
-7.12105e-21
-2.7373e-21
-1.79036e-21
-2.64295e-21
-1.90088e-21
-3.1549e-21
-1.56505e-21
-1.42516e-22
2.29038e-21
1.69593e-21
-2.40895e-22
-1.53501e-20
-1.40796e-20
-1.38348e-20
-1.18342e-20
-1.66553e-20
-1.37095e-20
-9.83895e-21
-6.09616e-21
-1.00393e-20
-1.17378e-20
-1.09314e-20
-1.21685e-20
-8.06974e-21
-7.06921e-21
-8.20087e-21
-5.70786e-21
-7.19883e-21
-3.83309e-21
-2.22585e-21
-1.6863e-23
-2.18661e-21
-3.76213e-21
-6.70921e-21
-3.12567e-21
-3.29955e-21
-1.32696e-21
-1.62028e-21
-2.13968e-21
-1.41274e-21
-2.59573e-21
-2.48925e-21
-3.32398e-21
5.75949e-22
1.20665e-21
-2.59887e-21
-1.34499e-21
8.06638e-22
-1.94151e-21
-2.21096e-21
-6.33143e-22
-1.41712e-20
-1.39739e-20
-1.22938e-20
-1.24282e-20
-1.48351e-20
-1.48131e-20
-8.96029e-21
-9.95339e-21
-1.20953e-20
-1.28002e-20
-1.04467e-20
-1.37529e-20
-1.09394e-20
-6.0698e-21
-7.35933e-21
-7.94135e-21
-5.69412e-21
-2.75787e-21
-5.16168e-22
-1.00745e-21
-3.30165e-21
-4.77772e-21
-5.59331e-21
-3.49489e-21
-3.83802e-21
-2.50686e-21
-6.35686e-22
-2.06167e-21
-3.48263e-21
-1.62838e-21
-4.87468e-21
-1.68581e-21
3.9495e-21
-6.67268e-22
-1.8847e-21
-1.53711e-21
-1.14445e-21
-1.98849e-21
3.41185e-22
-9.67869e-23
-1.82156e-20
-1.72576e-20
-1.42119e-20
-1.31019e-20
-1.42031e-20
-1.24676e-20
-1.27788e-20
-1.12519e-20
-1.40311e-20
-1.26035e-20
-1.06635e-20
-1.12133e-20
-9.16961e-21
-7.8779e-21
-9.06828e-21
-8.16662e-21
-3.47827e-21
-1.32018e-21
5.01743e-22
-1.26495e-21
-3.98673e-21
-3.46713e-21
-4.33693e-21
-6.92429e-21
-2.97651e-21
-1.72911e-21
-3.41066e-21
-1.2387e-21
-4.83113e-22
-2.52113e-21
-4.38277e-21
-8.15677e-22
9.45476e-22
-8.27649e-22
-3.75156e-21
-1.52226e-21
-1.21541e-21
-1.10115e-21
-1.08481e-21
-1.61937e-21
-1.68212e-20
-1.68201e-20
-1.48412e-20
-1.4089e-20
-1.56543e-20
-1.19454e-20
-1.24099e-20
-1.38359e-20
-1.53627e-20
-1.46013e-20
-9.2474e-21
-1.21927e-20
-8.12541e-21
-6.70878e-21
-1.03478e-20
-8.67421e-21
-4.10108e-21
-1.525e-21
4.07661e-22
-4.54388e-22
-2.79789e-21
-6.5795e-21
-6.50327e-21
-4.36349e-21
-3.57775e-21
-5.89974e-22
-1.41683e-21
-1.04888e-21
-9.52976e-22
-2.38334e-21
-6.01739e-21
4.82457e-22
-8.13634e-22
-4.21835e-21
-3.0459e-21
-1.00761e-21
-1.06547e-21
-1.84969e-21
-2.66524e-21
-9.03392e-22
-1.80896e-20
-2.00345e-20
-1.96715e-20
-1.53335e-20
-1.37927e-20
-1.33773e-20
-1.3571e-20
-1.1968e-20
-1.44996e-20
-1.46683e-20
-1.12676e-20
-1.2469e-20
-7.49352e-21
-8.2288e-21
-8.20482e-21
-8.49479e-21
-6.32672e-21
-2.33025e-21
-2.57195e-21
-3.64291e-21
-1.77e-21
-7.11996e-21
-6.85281e-21
-4.92589e-21
7.10069e-23
1.13621e-21
-1.35562e-21
-1.35614e-21
8.9115e-22
-1.20833e-21
-3.34376e-21
-1.57183e-21
-2.58174e-21
-2.6633e-22
-3.42777e-21
-1.11911e-21
-2.55826e-21
-2.71287e-21
-2.62007e-21
-3.36976e-21
-1.83556e-20
-1.7208e-20
-1.79616e-20
-1.91476e-20
-1.50257e-20
-1.37712e-20
-1.53624e-20
-1.45104e-20
-1.16033e-20
-1.40419e-20
-1.17644e-20
-9.3397e-21
-8.57866e-21
-9.38488e-21
-8.78599e-21
-8.29091e-21
-8.51305e-21
-3.83389e-21
1.31798e-21
-2.61967e-22
-4.80049e-21
-7.99878e-21
-7.75729e-21
-6.43777e-21
-2.6494e-21
2.71152e-22
8.7429e-22
-1.04035e-21
-4.08336e-22
-2.69916e-21
-1.94355e-21
-1.51008e-21
-2.01484e-21
8.19461e-23
-4.22035e-21
-2.14717e-21
-1.85896e-21
-2.16782e-21
2.18219e-22
-1.29176e-21
-1.67516e-20
-1.93634e-20
-2.02382e-20
-1.89185e-20
-1.58636e-20
-1.3902e-20
-1.55126e-20
-1.57663e-20
-1.26494e-20
-1.31355e-20
-1.22946e-20
-1.17656e-20
-6.82738e-21
-8.37067e-21
-1.10193e-20
-1.09087e-20
-5.03391e-21
-7.2428e-22
9.70292e-22
-6.1261e-22
-6.243e-21
-6.7822e-21
-8.07514e-21
-1.0575e-20
-1.92717e-21
4.60069e-22
1.6065e-21
-2.14642e-21
4.88042e-22
-2.74319e-21
-3.23108e-21
-1.16105e-21
-1.06396e-22
-1.23952e-21
-4.61275e-21
-3.14393e-21
-2.57752e-21
-2.38731e-21
-3.03404e-21
-2.35099e-21
-1.9704e-20
-2.09571e-20
-1.9039e-20
-1.78055e-20
-1.475e-20
-1.62554e-20
-1.64043e-20
-1.52916e-20
-1.16042e-20
-1.35688e-20
-1.33903e-20
-1.14396e-20
-1.18839e-20
-7.44739e-21
-9.82912e-21
-8.74073e-21
-8.68548e-21
-5.71432e-22
2.1679e-21
-1.35008e-21
-4.34126e-21
-6.8575e-21
-7.13142e-21
-8.48772e-21
-1.29465e-21
-3.31113e-21
-1.05443e-21
-9.35623e-22
1.18593e-21
-3.96623e-21
-2.43886e-21
-5.36548e-22
-1.62389e-22
-1.48496e-21
-5.05673e-21
-2.54878e-21
-1.14703e-21
-2.49044e-21
-3.86264e-21
-8.35782e-22
-2.20094e-20
-2.11487e-20
-1.80745e-20
-1.89692e-20
-1.931e-20
-1.63902e-20
-1.4992e-20
-1.46815e-20
-1.43295e-20
-1.42368e-20
-1.13808e-20
-1.16631e-20
-1.11958e-20
-8.14095e-21
-1.02357e-20
-6.74867e-21
-4.18823e-21
-2.41389e-21
-3.83287e-21
-2.18452e-21
-4.87825e-21
-3.32282e-21
-5.84368e-21
-8.93509e-21
-4.61567e-21
-1.33808e-21
-6.4463e-22
3.5772e-22
3.59441e-23
-1.35214e-21
-2.71578e-21
-9.70582e-22
6.3871e-22
-3.13796e-21
-8.45694e-21
-1.69083e-21
5.43436e-23
-9.33909e-22
-1.50752e-21
8.91589e-22
-2.33672e-20
-2.28131e-20
-1.99127e-20
-1.94887e-20
-1.65791e-20
-1.6821e-20
-1.59047e-20
-1.34506e-20
-1.48233e-20
-1.43618e-20
-1.24027e-20
-9.01833e-21
-1.08134e-20
-1.08642e-20
-1.10193e-20
-7.88617e-21
-6.5099e-21
-2.41395e-21
-2.1363e-21
-3.67883e-22
-5.37215e-21
-6.58108e-21
-5.66168e-21
-7.8049e-21
-4.87237e-21
-1.05874e-21
-4.00451e-22
-4.69932e-23
4.49214e-22
-4.25423e-22
-2.02835e-21
-1.75399e-21
-6.26267e-22
-2.79382e-21
-4.25055e-21
-3.70212e-21
4.20907e-22
-5.2321e-23
-2.11842e-21
3.28549e-22
-2.62756e-20
-2.3961e-20
-1.97003e-20
-1.79259e-20
-1.69291e-20
-1.6825e-20
-1.81719e-20
-1.41654e-20
-1.35508e-20
-1.3431e-20
-1.09253e-20
-9.47015e-21
-1.25387e-20
-1.06174e-20
-8.67234e-21
-8.42259e-21
-2.88019e-21
-2.62593e-21
-5.73004e-21
-3.18728e-21
-5.65961e-21
-7.47941e-21
-8.92893e-21
-5.06149e-21
-2.13332e-21
-2.26429e-21
3.57889e-23
2.89052e-22
6.12206e-22
-2.98811e-22
-4.42275e-21
-1.65279e-21
1.15188e-21
-1.2937e-21
-3.99085e-21
-2.55822e-21
-1.77428e-21
-1.35168e-21
-6.50574e-22
1.08611e-21
-2.37971e-20
-2.2312e-20
-2.16834e-20
-1.86417e-20
-1.8557e-20
-1.81526e-20
-1.71948e-20
-1.73253e-20
-1.20627e-20
-1.06551e-20
-1.1762e-20
-1.26296e-20
-1.38168e-20
-9.85981e-21
-8.05431e-21
-5.66444e-21
-3.93802e-21
-4.74157e-21
-5.08855e-21
-4.51864e-21
-5.71872e-21
-8.30273e-21
-8.05255e-21
-3.41916e-21
-1.52942e-21
-3.06942e-21
-7.26796e-22
-2.1642e-22
-1.10162e-21
5.67852e-22
-7.31948e-22
-2.24853e-21
6.2413e-22
-7.47128e-22
-3.55342e-21
-1.32509e-21
-1.27793e-21
-3.53003e-21
-1.1778e-21
-1.13219e-22
-2.07125e-20
-2.09378e-20
-2.11327e-20
-1.73122e-20
-1.96882e-20
-1.9606e-20
-1.77251e-20
-1.67251e-20
-1.22376e-20
-1.18855e-20
-1.15279e-20
-1.33414e-20
-1.27615e-20
-1.03086e-20
-7.74787e-21
-4.61929e-21
-3.07013e-21
-4.95874e-21
-9.4861e-21
-7.68881e-21
-7.13355e-21
-5.13821e-21
-3.50255e-21
-2.95871e-21
4.67993e-22
-2.76638e-21
-1.51155e-21
-2.72186e-21
-2.11146e-21
-1.23183e-22
-9.47234e-22
-1.15352e-21
3.00482e-22
-2.69156e-21
-3.46161e-21
-2.20437e-21
-5.66555e-23
-2.16625e-21
1.73096e-21
2.13506e-21
-2.00465e-20
-2.06511e-20
-2.2584e-20