/*--------------------------------*- C++ -*----------------------------------*\
| =========                 |                                                 |
| \\      /  F ield         | OpenFOAM: The Open Source CFD Toolbox           |
|  \\    /   O peration     | Version:  v2012                                 |
|   \\  /    A nd           | Website:  www.openfoam.com                      |
|    \\/     M anipulation  |                                                 |
\*---------------------------------------------------------------------------*/
FoamFile
{
    version     2.0;
    format      ascii;
    class       surfaceScalarField;
    location    "19";
    object      phi;
}
// * * * * * * * * * * * * * * * * * * * * * * * * * * * * * * * * * * * * * //

dimensions      [0 3 -1 0 0 0 0];
oriented        oriented;


internalField   nonuniform List<scalar> 
187200
(
1.875e-06
2.75437e-22
2.17035e-22
1.875e-06
2.52866e-22
3.0882e-22
1.875e-06
3.09844e-22
4.28782e-22
1.875e-06
2.44658e-22
2.76467e-22
1.875e-06
2.49524e-22
1.48455e-22
1.875e-06
3.91995e-22
2.71432e-22
1.875e-06
2.74409e-22
1.68913e-22
1.875e-06
1.74083e-22
1.2973e-22
1.875e-06
1.6699e-22
2.8472e-22
1.875e-06
2.02827e-22
2.26809e-22
1.875e-06
2.12184e-22
1.56639e-22
1.875e-06
1.95788e-22
1.95762e-22
1.875e-06
1.27251e-22
1.76828e-22
1.875e-06
9.02145e-23
4.59576e-23
1.875e-06
1.36353e-22
1.3248e-22
1.875e-06
1.05046e-22
1.56074e-22
1.875e-06
1.4863e-22
1.61574e-22
1.875e-06
3.43693e-23
1.08528e-22
1.875e-06
1.55017e-22
2.55052e-23
1.875e-06
4.92727e-23
-6.69435e-23
1.875e-06
-6.8387e-23
-7.82907e-23
1.875e-06
5.04817e-23
4.31435e-23
1.875e-06
1.69449e-22
5.78304e-23
1.875e-06
2.70136e-22
8.93618e-23
1.875e-06
1.19618e-22
9.00075e-24
1.875e-06
8.23771e-23
4.16969e-23
1.875e-06
1.73325e-23
7.83503e-23
1.875e-06
6.44146e-23
9.66874e-23
1.875e-06
5.49582e-23
1.46921e-22
1.875e-06
-1.58457e-23
1.36711e-22
1.875e-06
-1.74983e-22
6.89246e-23
1.875e-06
-6.84921e-23
2.48159e-23
1.875e-06
1.49517e-22
9.48524e-23
1.875e-06
1.25802e-22
9.9185e-23
1.875e-06
4.53497e-24
5.98228e-24
1.875e-06
-1.40235e-22
-1.6413e-22
1.875e-06
-1.47464e-22
-1.57851e-22
1.875e-06
-6.9226e-23
1.04645e-22
1.875e-06
2.17014e-23
1.04869e-22
1.91799e-23
4.90956e-23
1.875e-06
-8.1611e-24
1.5434e-22
1.875e-06
1.26515e-22
4.51752e-22
1.875e-06
2.62701e-22
6.72081e-22
1.875e-06
2.74326e-22
5.78153e-22
1.875e-06
2.0329e-22
4.01662e-22
1.875e-06
2.2963e-22
4.4371e-22
1.875e-06
2.58635e-22
4.7576e-22
1.875e-06
2.87454e-22
4.46531e-22
1.875e-06
2.89616e-22
5.22654e-22
1.875e-06
1.96592e-22
5.66447e-22
1.875e-06
1.83316e-22
5.73591e-22
1.875e-06
1.21828e-22
3.95719e-22
1.875e-06
1.94631e-22
4.35057e-22
1.875e-06
1.20859e-22
3.5951e-22
1.875e-06
-7.10117e-24
2.80141e-22
1.875e-06
-5.25239e-24
1.73466e-22
1.875e-06
1.71848e-22
2.0032e-22
1.875e-06
2.02749e-22
2.50927e-22
1.875e-06
1.24492e-22
3.14641e-23
1.875e-06
1.69185e-22
7.63308e-23
1.875e-06
7.42729e-23
9.91658e-23
1.875e-06
2.89324e-23
8.93569e-23
1.875e-06
1.00578e-22
2.82077e-23
1.875e-06
5.88714e-23
1.29353e-23
1.875e-06
7.01948e-24
3.63496e-23
1.875e-06
5.43979e-23
6.19744e-23
1.875e-06
1.25629e-22
2.74291e-23
1.875e-06
3.5369e-23
1.27889e-24
1.875e-06
-3.81542e-23
2.24328e-22
1.875e-06
2.80569e-23
1.62508e-22
1.875e-06
3.29132e-23
1.58129e-22
1.875e-06
5.03897e-23
1.37083e-22
1.875e-06
5.16111e-23
1.10471e-22
1.875e-06
-6.67892e-23
6.47851e-23
1.875e-06
-5.30617e-23
1.12742e-22
1.875e-06
-6.66971e-23
-8.94568e-24
1.875e-06
-2.02235e-22
-1.68889e-22
1.875e-06
-5.35375e-23
-1.10092e-23
1.875e-06
3.93361e-23
8.86625e-23
4.61899e-23
4.09647e-23
1.875e-06
1.57734e-22
3.01896e-22
1.875e-06
1.5568e-22
4.80806e-22
1.875e-06
9.58111e-23
5.9183e-22
1.875e-06
2.4064e-22
6.75376e-22
1.875e-06
2.86966e-22
6.15776e-22
1.875e-06
2.26881e-22
5.04293e-22
1.875e-06
2.29869e-22
5.68023e-22
1.875e-06
1.63782e-22
6.34092e-22
1.875e-06
1.55212e-22
6.31299e-22
1.875e-06
2.30558e-22
7.03156e-22
1.875e-06
2.33762e-22
5.97912e-22
1.875e-06
1.87362e-22
5.06315e-22
1.875e-06
1.58638e-22
3.62253e-22
1.875e-06
6.88965e-23
3.6161e-22
1.875e-06
1.00532e-22
4.50908e-22
1.875e-06
1.61958e-22
3.34077e-22
1.875e-06
2.46277e-23
2.1433e-22
1.875e-06
4.95289e-23
1.52862e-22
1.875e-06
6.83264e-23
-7.58826e-23
1.875e-06
5.54841e-23
2.75737e-23
1.875e-06
-6.36875e-24
1.49959e-22
1.875e-06
-5.19717e-24
1.47834e-22
1.875e-06
1.86042e-22
1.66525e-23
1.875e-06
1.56938e-22
1.98674e-23
1.875e-06
9.36876e-23
1.34242e-22
1.875e-06
7.17111e-23
8.03737e-23
1.875e-06
2.61789e-24
1.63484e-23
1.875e-06
-7.99205e-23
9.63946e-23
1.875e-06
1.63168e-23
1.97908e-22
1.875e-06
6.34557e-23
2.42748e-22
1.875e-06
-1.98312e-24
2.50394e-22
1.875e-06
-2.04892e-23
1.71302e-22
1.875e-06
-2.01963e-23
3.18189e-23
1.875e-06
-2.85587e-23
9.40399e-23
1.875e-06
-7.13687e-23
1.73531e-22
1.875e-06
-8.47542e-23
1.06216e-22
1.875e-06
-5.7322e-23
-6.18931e-23
1.875e-06
7.19069e-23
-7.48121e-23
1.875e-06
1.18015e-22
-7.40604e-24
1.27937e-22
-2.14617e-23
1.875e-06
2.09486e-22
3.4466e-22
1.875e-06
1.66895e-22
5.94999e-22
1.875e-06
1.47935e-22
6.28617e-22
1.875e-06
6.83652e-23
6.43699e-22
1.875e-06
1.61164e-22
6.91451e-22
1.875e-06
1.87534e-22
6.13081e-22
1.875e-06
1.4519e-22
6.2141e-22
1.875e-06
1.12732e-22
7.01447e-22
1.875e-06
1.48634e-22
6.86288e-22
1.875e-06
2.21724e-22
6.45436e-22
1.875e-06
1.83436e-22
6.59339e-22
1.875e-06
1.65794e-22
6.60689e-22
1.875e-06
1.14216e-22
5.09425e-22
1.875e-06
8.25444e-23
4.26712e-22
1.875e-06
2.06941e-22
3.89105e-22
1.875e-06
2.11287e-22
2.79994e-22
1.875e-06
7.28625e-23
2.08202e-22
1.875e-06
-9.04383e-23
2.46181e-22
1.875e-06
-3.16281e-23
9.31595e-23
1.875e-06
8.14266e-23
1.57348e-23
1.875e-06
-1.50778e-24
2.23138e-22
1.875e-06
1.40037e-22
1.75923e-22
1.875e-06
1.36319e-22
1.78441e-23
1.875e-06
9.16619e-23
6.51591e-23
1.875e-06
4.03711e-23
9.74589e-23
1.875e-06
8.71801e-24
4.97159e-23
1.875e-06
-1.7363e-23
4.15582e-23
1.875e-06
2.38899e-23
3.27126e-23
1.875e-06
5.0733e-23
1.38424e-22
1.875e-06
-4.11225e-23
2.84507e-22
1.875e-06
6.23652e-23
2.93897e-22
1.875e-06
6.51366e-24
1.87537e-22
1.875e-06
-7.2549e-23
8.37744e-23
1.875e-06
-1.22413e-22
1.18016e-22
1.875e-06
-4.04334e-23
1.4874e-22
1.875e-06
-2.98782e-24
1.54979e-22
1.875e-06
8.57717e-23
8.32031e-23
1.875e-06
8.18282e-23
-9.1513e-23
1.875e-06
8.96102e-23
-9.04568e-23
1.01936e-22
-3.9628e-24
1.875e-06
-5.57436e-23
2.28755e-22
1.875e-06
1.0762e-22
6.30294e-22
1.875e-06
1.05334e-22
7.30203e-22
1.875e-06
1.44276e-22
7.06686e-22
1.875e-06
1.0084e-22
7.5742e-22
1.875e-06
6.35656e-23
6.74118e-22
1.875e-06
7.76615e-23
6.98385e-22
1.875e-06
3.02165e-22
7.49612e-22
1.875e-06
2.68299e-22
7.45665e-22
1.875e-06
1.85403e-22
7.02457e-22
1.875e-06
1.12204e-22
7.17378e-22
1.875e-06
1.40004e-22
7.25047e-22
1.875e-06
1.92878e-22
6.00782e-22
1.875e-06
9.36005e-23
5.1736e-22
1.875e-06
3.79883e-23
3.08918e-22
1.875e-06
1.2726e-22
1.65971e-22
1.875e-06
1.90441e-23
2.84983e-22
1.875e-06
-6.66673e-23
3.32197e-22
1.875e-06
-1.1232e-22
2.22126e-22
1.875e-06
-3.77526e-23
5.51655e-23
1.875e-06
5.77188e-23
2.55509e-22
1.875e-06
1.03221e-22
1.66194e-22
1.875e-06
9.86486e-23
1.49674e-23
1.875e-06
1.07493e-22
1.84247e-23
1.875e-06
1.03866e-22
1.78413e-22
1.875e-06
5.62249e-23
1.21132e-22
1.875e-06
5.92759e-23
1.09279e-22
1.875e-06
-3.75958e-23
6.7153e-23
1.875e-06
-8.00734e-23
3.88145e-23
1.875e-06
1.73329e-23
2.03341e-22
1.875e-06
1.02023e-22
2.53439e-22
1.875e-06
1.09262e-22
2.55893e-22
1.875e-06
-6.12287e-23
-1.12926e-23
1.875e-06
5.50694e-23
4.41042e-23
1.875e-06
5.6972e-24
9.888e-23
1.875e-06
2.75947e-23
7.6313e-23
1.875e-06
1.16295e-22
4.14446e-24
1.875e-06
1.18751e-22
2.88646e-23
1.875e-06
-7.49765e-24
7.47094e-24
-4.82926e-23
-4.22069e-23
1.875e-06
8.1556e-23
3.46339e-22
1.875e-06
9.40208e-23
5.9733e-22
1.875e-06
4.62196e-23
6.78048e-22
1.875e-06
5.11602e-23
6.87093e-22
1.875e-06
9.24241e-23
7.4971e-22
1.875e-06
1.22175e-22
8.08296e-22
1.875e-06
1.55459e-22
7.90035e-22
1.875e-06
2.21961e-22
7.99718e-22
1.875e-06
2.38845e-22
7.83093e-22
1.875e-06
1.19882e-22
7.15733e-22
1.875e-06
1.42053e-22
7.17047e-22
1.875e-06
1.38215e-22
7.52414e-22
1.875e-06
8.23215e-23
6.16781e-22
1.875e-06
1.92262e-22
5.9148e-22
1.875e-06
1.63881e-22
4.51298e-22
1.875e-06
1.73351e-23
2.25105e-22
1.875e-06
-1.25227e-23
2.86742e-22
1.875e-06
-2.85046e-23
3.5103e-22
1.875e-06
-6.39902e-23
2.2995e-22
1.875e-06
-4.83335e-23
1.42384e-22
1.875e-06
1.65177e-22
2.74261e-22
1.875e-06
1.64372e-22
2.01532e-22
1.875e-06
5.93482e-23
-1.77914e-24
1.875e-06
1.14517e-22
4.05664e-23
1.875e-06
4.75194e-23
1.14332e-22
1.875e-06
3.44392e-23
1.44384e-22
1.875e-06
1.65076e-23
2.12722e-23
1.875e-06
-3.60338e-23
1.03413e-22
1.875e-06
-8.4665e-23
1.46797e-22
1.875e-06
-5.26426e-23
1.30472e-22
1.875e-06
6.49918e-23
2.29575e-22
1.875e-06
3.41119e-23
1.10619e-22
1.875e-06
4.27674e-23
-6.69228e-23
1.875e-06
5.66929e-23
5.23467e-23
1.875e-06
7.3687e-23
1.05495e-22
1.875e-06
1.37148e-22
6.23854e-23
1.875e-06
7.79906e-23
-2.26531e-23
1.875e-06
-3.04189e-24
-8.55996e-24
1.875e-06
2.2955e-24
-1.42851e-23
2.37305e-23
4.25301e-23
1.875e-06
9.62904e-23
4.26226e-22
1.875e-06
1.57242e-22
6.49866e-22
1.875e-06
1.70467e-22
7.7524e-22
1.875e-06
2.90609e-23
7.72259e-22
1.875e-06
8.85784e-23
7.8148e-22
1.875e-06
6.01707e-23
8.13729e-22
1.875e-06
1.37717e-22
9.11727e-22
1.875e-06
2.81183e-22
8.66872e-22
1.875e-06
2.19174e-22
8.5155e-22
1.875e-06
2.17158e-22
8.31327e-22
1.875e-06
1.29874e-22
7.16162e-22
1.875e-06
1.02883e-22
6.54628e-22
1.875e-06
1.38543e-22
6.18988e-22
1.875e-06
1.79927e-22
4.99355e-22
1.875e-06
1.02004e-22
5.48118e-22
1.875e-06
5.98207e-23
3.64241e-22
1.875e-06
2.53376e-23
2.51289e-22
1.875e-06
8.36795e-23
2.7137e-22
1.875e-06
7.09247e-23
2.5696e-22
1.875e-06
8.13083e-23
1.9552e-22
1.875e-06
1.81622e-22
2.36835e-22
1.875e-06
1.0751e-22
1.48831e-22
1.875e-06
-1.06997e-23
-5.43508e-23
1.875e-06
-1.12631e-22
6.45907e-23
1.875e-06
-2.02647e-23
1.32928e-22
1.875e-06
5.95053e-23
1.02351e-22
1.875e-06
2.67193e-23
1.23081e-22
1.875e-06
-1.58291e-23
1.00617e-22
1.875e-06
-5.20511e-23
9.05969e-23
1.875e-06
-3.90452e-23
1.27769e-22
1.875e-06
-4.40564e-23
1.50834e-22
1.875e-06
-1.04871e-23
4.71084e-23
1.875e-06
1.73832e-23
3.02446e-23
1.875e-06
1.02924e-22
1.82279e-23
1.875e-06
1.90662e-22
1.43645e-22
1.875e-06
7.43856e-23
-7.94546e-24
1.875e-06
8.47647e-23
-8.97503e-23
1.875e-06
3.15791e-23
-9.35032e-23
1.875e-06
-5.18503e-23
4.08983e-23
-5.55309e-23
7.57226e-23
1.875e-06
1.31589e-22
3.14262e-22
1.875e-06
7.59117e-23
6.03178e-22
1.875e-06
1.42075e-22
7.4993e-22
1.875e-06
1.8653e-22
9.20707e-22
1.875e-06
6.55977e-23
9.17437e-22
1.875e-06
2.02255e-22
9.04668e-22
1.875e-06
2.43849e-22
9.10697e-22
1.875e-06
6.75148e-23
8.5368e-22
1.875e-06
1.42585e-22
9.09187e-22
1.875e-06
2.59498e-22
8.48492e-22
1.875e-06
7.06552e-23
6.8574e-22
1.875e-06
2.2902e-23
6.35334e-22
1.875e-06
4.79216e-23
4.24352e-22
1.875e-06
1.6663e-22
4.60239e-22
1.875e-06
1.57229e-22
5.47502e-22
1.875e-06
9.21822e-23
3.77719e-22
1.875e-06
1.03463e-22
3.53321e-22
1.875e-06
4.29611e-23
2.82903e-22
1.875e-06
2.03338e-22
2.44944e-22
1.875e-06
1.22279e-22
1.81478e-22
1.875e-06
8.59903e-23
1.33998e-22
1.875e-06
4.74761e-23
2.19342e-22
1.875e-06
-3.37787e-23
1.21264e-22
1.875e-06
3.8417e-23
1.35826e-22
1.875e-06
-7.47572e-23
1.89934e-22
1.875e-06
-8.32606e-23
3.61062e-23
1.875e-06
2.88478e-23
6.09154e-23
1.875e-06
3.56918e-23
9.14636e-23
1.875e-06
-1.10787e-23
6.59283e-23
1.875e-06
-4.44715e-23
1.04026e-22
1.875e-06
-1.79132e-22
1.87441e-22
1.875e-06
-1.06995e-22
5.75436e-23
1.875e-06
1.00261e-22
1.10722e-22
1.875e-06
4.2139e-23
6.89759e-23
1.875e-06
1.14967e-22
-2.93972e-23
1.875e-06
7.94214e-23
-9.29578e-23
1.875e-06
-8.9127e-24
-2.06959e-22
1.875e-06
-1.29321e-22
-1.56971e-22
1.875e-06
-1.16511e-22
4.9461e-23
-1.29958e-23
6.6181e-23
1.875e-06
-2.11777e-22
2.2465e-22
1.875e-06
-6.87022e-23
6.84782e-22
1.875e-06
8.46792e-23
8.89328e-22
1.875e-06
1.49721e-22
9.26667e-22
1.875e-06
1.75171e-22
9.0526e-22
1.875e-06
1.59666e-22
8.63091e-22
1.875e-06
1.73799e-22
9.34987e-22
1.875e-06
1.63695e-22
9.04343e-22
1.875e-06
1.04078e-22
9.36407e-22
1.875e-06
5.78468e-23
7.23186e-22
1.875e-06
2.0048e-22
8.31726e-22
1.875e-06
3.81056e-23
7.13869e-22
1.875e-06
-4.5187e-23
4.08817e-22
1.875e-06
3.49317e-23
3.86827e-22
1.875e-06
9.90452e-23
4.03774e-22
1.875e-06
7.60772e-23
3.78469e-22
1.875e-06
1.59882e-22
4.13681e-22
1.875e-06
2.06019e-22
4.01642e-22
1.875e-06
-1.91903e-23
3.02588e-22
1.875e-06
2.40454e-23
2.87678e-22
1.875e-06
2.2428e-23
1.31845e-22
1.875e-06
1.46817e-23
2.7993e-22
1.875e-06
1.03288e-22
1.76691e-22
1.875e-06
1.04088e-23
1.30075e-22
1.875e-06
9.95644e-23
1.73651e-22
1.875e-06
-1.35422e-23
5.57868e-23
1.875e-06
-1.03288e-22
1.99881e-23
1.875e-06
-3.27631e-23
6.14859e-23
1.875e-06
2.5841e-23
-2.55258e-23
1.875e-06
1.01728e-23
7.29251e-23
1.875e-06
9.04255e-24
2.49788e-22
1.875e-06
-1.86949e-23
1.61439e-22
1.875e-06
-1.31142e-22
2.66708e-24
1.875e-06
-2.11123e-23
-3.87754e-23
1.875e-06
5.04318e-23
-1.34391e-22
1.875e-06
1.07396e-22
-2.24172e-22
1.875e-06
3.07979e-23
-1.70788e-22
1.875e-06
-7.04854e-23
-2.42774e-23
1.875e-06
-5.34036e-23
8.2001e-23
-6.21871e-23
6.12458e-23
1.875e-06
-7.78644e-23
5.06724e-22
1.875e-06
4.32533e-23
6.94676e-22
1.875e-06
1.20616e-22
8.73125e-22
1.875e-06
2.33429e-22
1.06199e-21
1.875e-06
1.36992e-22
9.77061e-22
1.875e-06
1.46976e-22
8.98698e-22
1.875e-06
2.65068e-22
9.84968e-22
1.875e-06
9.25256e-23
9.36021e-22
1.875e-06
5.95767e-23
8.14185e-22
1.875e-06
1.80875e-22
7.3675e-22
1.875e-06
1.58948e-22
6.9282e-22
1.875e-06
5.00578e-23
6.84995e-22
1.875e-06
-1.3859e-23
5.88445e-22
1.875e-06
1.74502e-23
5.06372e-22
1.875e-06
5.99047e-23
3.64113e-22
1.875e-06
1.52486e-22
3.80583e-22
1.875e-06
1.78401e-22
4.49188e-22
1.875e-06
-3.56103e-23
3.42763e-22
1.875e-06
-2.41972e-23
2.8696e-22
1.875e-06
-7.96337e-23
1.87782e-22
1.875e-06
6.34095e-23
2.33088e-22
1.875e-06
2.09682e-22
3.36282e-22
1.875e-06
4.14137e-23
2.08226e-22
1.875e-06
3.53186e-23
2.26352e-22
1.875e-06
3.36242e-23
2.16935e-22
1.875e-06
1.38247e-23
9.26691e-23
1.875e-06
-1.12321e-22
-4.40726e-23
1.875e-06
-6.50152e-23
1.33612e-23
1.875e-06
5.12471e-23
-4.83729e-24
1.875e-06
6.76025e-23
1.06734e-22
1.875e-06
-1.43099e-23
1.46259e-22
1.875e-06
-7.8795e-23
1.35252e-22
1.875e-06
-6.78588e-23
8.06829e-23
1.875e-06
-7.88162e-23
-6.72947e-23
1.875e-06
-8.18296e-23
-1.24212e-22
1.875e-06
1.50018e-23
-2.06751e-22
1.875e-06
-2.10679e-24
-2.19298e-22
1.875e-06
1.01108e-22
-1.21216e-23
1.875e-06
1.63201e-22
-4.74248e-23
7.46429e-23
-3.78481e-23
1.875e-06
1.29123e-22
5.57014e-22
1.875e-06
1.50788e-22
7.87365e-22
1.875e-06
1.40701e-22
9.04853e-22
1.875e-06
9.6177e-23
9.75119e-22
1.875e-06
1.73125e-22
1.02936e-21
1.875e-06
2.24588e-22
9.40643e-22
1.875e-06
3.77808e-23
9.07958e-22
1.875e-06
1.73842e-22
1.00456e-21
1.875e-06
6.16528e-23
8.25565e-22
1.875e-06
2.30731e-25
6.31617e-22
1.875e-06
2.14268e-22
6.82611e-22
1.875e-06
1.32044e-22
7.45666e-22
1.875e-06
1.14561e-22
5.85201e-22
1.875e-06
8.21328e-23
5.06513e-22
1.875e-06
1.02222e-22
5.27724e-22
1.875e-06
-5.14529e-23
4.57101e-22
1.875e-06
-7.55578e-23
2.21383e-22
1.875e-06
4.64266e-23
3.33326e-22
1.875e-06
1.09723e-22
3.02757e-22
1.875e-06
8.38037e-23
3.35087e-22
1.875e-06
5.16789e-23
2.29644e-22
1.875e-06
8.30082e-24
1.34897e-22
1.875e-06
-1.92448e-23
2.4603e-22
1.875e-06
2.8972e-23
3.30426e-22
1.875e-06
6.45025e-23
1.22113e-22
1.875e-06
-7.71535e-23
2.24272e-23
1.875e-06
-1.00564e-22
-2.91761e-23
1.875e-06
-5.63326e-24
9.26389e-23
1.875e-06
4.408e-23
-6.80081e-23
1.875e-06
-8.45856e-23
4.74397e-23
1.875e-06
-4.60306e-23
1.78688e-22
1.875e-06
3.4008e-23
1.77454e-22
1.875e-06
-7.00923e-24
4.14111e-23
1.875e-06
4.87045e-24
2.51713e-23
1.875e-06
-1.0541e-22
-3.03932e-23
1.875e-06
-1.26753e-22
-1.98467e-22
1.875e-06
-1.13173e-22
-2.35097e-22
1.875e-06
5.22543e-23
-8.68426e-23
1.875e-06
1.54582e-22
-4.84824e-23
1.80696e-22
-9.60914e-23
1.875e-06
1.73504e-22
5.78385e-22
1.875e-06
1.73733e-22
8.15877e-22
1.875e-06
8.57832e-23
8.66319e-22
1.875e-06
6.49097e-23
9.5064e-22
1.875e-06
1.48393e-22
9.87181e-22
1.875e-06
4.4229e-23
9.35676e-22
1.875e-06
1.83925e-22
9.97591e-22
1.875e-06
2.21123e-22
9.31891e-22
1.875e-06
1.77224e-22
8.12369e-22
1.875e-06
6.78811e-23
7.02966e-22
1.875e-06
-4.73112e-23
6.19341e-22
1.875e-06
2.61359e-23
7.09653e-22
1.875e-06
1.38801e-22
6.90304e-22
1.875e-06
1.08252e-22
4.73318e-22
1.875e-06
-2.70805e-23
4.63567e-22
1.875e-06
-4.02498e-23
5.01771e-22
1.875e-06
-5.14298e-23
4.49325e-22
1.875e-06
7.34818e-23
3.37733e-22
1.875e-06
1.94457e-22
2.20059e-22
1.875e-06
2.22243e-22
2.78683e-22
1.875e-06
3.41519e-23
2.2326e-22
1.875e-06
-7.10892e-23
1.60603e-22
1.875e-06
-5.71315e-23
1.92304e-22
1.875e-06
-1.4565e-23
2.41307e-22
1.875e-06
-9.36881e-23
4.00237e-23
1.875e-06
-1.64935e-23
1.12198e-22
1.875e-06
4.15038e-23
1.01666e-22
1.875e-06
1.35294e-23
5.71814e-23
1.875e-06
-1.18616e-22
-1.33901e-22
1.875e-06
-1.23497e-22
1.2515e-22
1.875e-06
3.26534e-23
1.87565e-22
1.875e-06
-1.6938e-24
1.14661e-22
1.875e-06
-6.32983e-23
7.66971e-23
1.875e-06
3.22621e-23
1.54117e-23
1.875e-06
2.62679e-23
8.99625e-24
1.875e-06
-1.14858e-22
-1.51371e-22
1.875e-06
-6.98131e-23
-1.43752e-22
1.875e-06
3.7426e-23
-5.46404e-23
1.875e-06
1.79611e-23
-1.5228e-22
-2.2269e-23
-3.54629e-22
1.875e-06
1.3316e-22
5.35663e-22
1.875e-06
2.21883e-22
8.03149e-22
1.875e-06
1.35673e-22
9.00696e-22
1.875e-06
7.11056e-23
1.05986e-21
1.875e-06
-5.53109e-23
1.0506e-21
1.875e-06
-8.52381e-24
9.84989e-22
1.875e-06
2.97e-23
8.72863e-22
1.875e-06
-1.80552e-23
7.96185e-22
1.875e-06
9.46756e-23
8.00271e-22
1.875e-06
1.06927e-22
7.13618e-22
1.875e-06
3.62197e-23
6.18599e-22
1.875e-06
7.26541e-23
7.47223e-22
1.875e-06
1.50684e-22
6.75986e-22
1.875e-06
2.04924e-22
4.95943e-22
1.875e-06
8.26595e-23
5.55601e-22
1.875e-06
-7.28906e-24
4.61867e-22
1.875e-06
-5.13602e-23
4.08278e-22
1.875e-06
-1.71695e-23
3.62099e-22
1.875e-06
5.54516e-23
3.29501e-22
1.875e-06
8.986e-23
2.25599e-22
1.875e-06
1.23087e-22
2.3415e-22
1.875e-06
8.57391e-23
1.82208e-22
1.875e-06
4.1437e-23
2.1257e-22
1.875e-06
1.20078e-23
2.65209e-22
1.875e-06
-1.0063e-22
1.54e-22
1.875e-06
-1.82068e-23
6.35994e-23
1.875e-06
1.21593e-22
-1.04491e-23
1.875e-06
-1.18301e-23
-4.7604e-23
1.875e-06
-1.7965e-22
-2.01002e-23
1.875e-06
-1.65546e-22
9.42592e-23
1.875e-06
-1.42307e-22
1.12741e-22
1.875e-06
1.46782e-23
9.94547e-23
1.875e-06
6.04714e-23
6.99848e-23
1.875e-06
-7.32184e-23
5.4104e-24
1.875e-06
-1.21548e-22
6.76688e-23
1.875e-06
-2.54212e-23
-7.78976e-23
1.875e-06
1.1562e-22
-1.52893e-22
1.875e-06
9.71288e-23
-1.30393e-22
1.875e-06
6.61455e-23
-1.99398e-22
4.60657e-23
-3.63134e-22
1.875e-06
-1.24019e-22
5.06506e-22
1.875e-06
4.06331e-23
7.47115e-22
1.875e-06
1.39779e-22
9.23306e-22
1.875e-06
-1.9674e-23
1.05298e-21
1.875e-06
-3.79122e-23
1.09198e-21
1.875e-06
2.79907e-24
1.02948e-21
1.875e-06
1.41348e-22
9.10143e-22
1.875e-06
2.4045e-22
8.57216e-22
1.875e-06
4.05355e-23
8.14828e-22
1.875e-06
-1.04211e-22
6.92702e-22
1.875e-06
-4.09576e-23
7.29166e-22
1.875e-06
1.66341e-22
6.41395e-22
1.875e-06
1.03569e-22
5.88001e-22
1.875e-06
-9.03294e-24
5.13904e-22
1.875e-06
-7.55365e-23
6.20116e-22
1.875e-06
-2.44511e-23
4.96833e-22
1.875e-06
1.50652e-23
5.11288e-22
1.875e-06
1.6759e-22
4.20209e-22
1.875e-06
1.35698e-22
2.93872e-22
1.875e-06
5.19528e-23
1.74073e-22
1.875e-06
1.65759e-22
1.76843e-22
1.875e-06
1.23645e-23
2.06987e-22
1.875e-06
-5.77887e-23
2.02682e-22
1.875e-06
-8.38595e-23
1.98569e-22
1.875e-06
-1.01466e-22
1.49254e-22
1.875e-06
-2.56529e-23
9.94207e-24
1.875e-06
6.83975e-23
-2.1048e-22
1.875e-06
3.53745e-23
-7.91115e-23
1.875e-06
-9.1686e-23
9.14939e-23
1.875e-06
-9.99319e-23
1.34652e-22
1.875e-06
-6.73624e-23
2.017e-22
1.875e-06
-2.48808e-23
1.00037e-22
1.875e-06
2.82336e-24
5.21088e-23
1.875e-06
-7.18646e-23
5.95452e-23
1.875e-06
-7.33976e-23
8.34051e-23
1.875e-06
-1.20942e-23
-1.34127e-22
1.875e-06
6.09317e-23
-2.78337e-22
1.875e-06
1.08264e-22
-1.98793e-22
1.875e-06
6.48788e-23
-2.34241e-22
-6.47186e-23
-3.46913e-22
1.875e-06
1.1752e-23
7.06365e-22
1.875e-06
-2.1152e-22
8.20548e-22
1.875e-06
-7.54775e-23
8.80578e-22
1.875e-06
5.14476e-23
1.10145e-21
1.875e-06
1.03436e-22
1.13123e-21
1.875e-06
-4.92178e-24
1.05845e-21
1.875e-06
-6.39244e-25
9.12248e-22
1.875e-06
5.05336e-23
6.64927e-22
1.875e-06
-3.393e-23
7.98817e-22
1.875e-06
-4.67317e-23
8.25276e-22
1.875e-06
1.30837e-22
7.64075e-22
1.875e-06
1.17367e-22
6.39643e-22
1.875e-06
1.51204e-23
6.85111e-22
1.875e-06
-6.6793e-23
5.60613e-22
1.875e-06
5.04767e-23
6.04433e-22
1.875e-06
1.61139e-24
5.29987e-22
1.875e-06
-7.20636e-24
3.50971e-22
1.875e-06
5.74512e-23
2.6635e-22
1.875e-06
5.72848e-23
3.35223e-22
1.875e-06
1.61994e-22
2.73219e-22
1.875e-06
7.50362e-23
1.74806e-22
1.875e-06
5.3554e-23
3.23284e-22
1.875e-06
-8.50035e-23
3.67062e-22
1.875e-06
-2.25835e-22
1.10484e-22
1.875e-06
-1.1859e-22
1.37239e-22
1.875e-06
-8.52496e-24
2.015e-23
1.875e-06
6.87541e-23
-2.72981e-22
1.875e-06
8.41524e-23
-1.41612e-22
1.875e-06
-2.57083e-23
9.29068e-23
1.875e-06
-3.95378e-23
1.29282e-22
1.875e-06
2.60749e-23
2.45554e-22
1.875e-06
8.23231e-23
8.53483e-23
1.875e-06
-1.15895e-22
-4.51006e-23
1.875e-06
-8.50519e-23
4.45349e-23
1.875e-06
-5.86998e-23
1.22915e-22
1.875e-06
-4.57441e-23
-5.72543e-23
1.875e-06
8.30855e-23
-1.92013e-22
1.875e-06
1.12374e-22
-2.46219e-22
1.875e-06
2.87458e-24
-3.05957e-22
2.45453e-23
-3.36878e-22
1.875e-06
-4.92806e-23
6.62142e-22
1.875e-06
-1.1821e-22
9.67844e-22
1.875e-06
-8.56656e-23
9.58839e-22
1.875e-06
-9.09303e-23
1.07276e-21
1.875e-06
-7.62955e-23
1.09778e-21
1.875e-06
2.27998e-23
1.07123e-21
1.875e-06
-6.74167e-24
9.45502e-22
1.875e-06
2.38538e-23
8.59119e-22
1.875e-06
5.52167e-24
8.13465e-22
1.875e-06
8.16682e-23
7.90045e-22
1.875e-06
3.90948e-23
7.1185e-22
1.875e-06
1.16716e-22
7.26452e-22
1.875e-06
-2.95814e-23
8.02958e-22
1.875e-06
-3.10319e-23
6.82057e-22
1.875e-06
-6.13871e-23
5.54968e-22
1.875e-06
-1.84052e-23
3.78641e-22
1.875e-06
3.94373e-23
3.83922e-22
1.875e-06
-4.14556e-23
3.43282e-22
1.875e-06
6.36604e-23
3.44515e-22
1.875e-06
1.29332e-22
2.57727e-22
1.875e-06
8.1723e-23
1.82286e-22
1.875e-06
1.97564e-23
3.37594e-22
1.875e-06
-4.97041e-23
3.4943e-22
1.875e-06
-1.75183e-22
1.80266e-22
1.875e-06
-1.12568e-22
1.41364e-22
1.875e-06
-9.26061e-23
9.28121e-23
1.875e-06
-7.54519e-23
-2.08781e-22
1.875e-06
2.07265e-24
-2.79547e-22
1.875e-06
5.57322e-23
1.10613e-22
1.875e-06
6.52529e-23
1.19143e-22
1.875e-06
9.3167e-24
5.38843e-23
1.875e-06
-1.1845e-22
-5.39172e-23
1.875e-06
-1.15271e-23
5.62933e-23
1.875e-06
-1.85785e-23
1.04925e-22
1.875e-06
-3.10846e-23
1.10944e-22
1.875e-06
-7.18445e-24
-8.51415e-24
1.875e-06
-6.56583e-23
-2.28605e-22
1.875e-06
-3.09727e-23
-2.1457e-22
1.875e-06
-2.2201e-23
-2.60428e-22
8.62323e-23
-3.02058e-22
1.875e-06
-1.45912e-22
5.20262e-22
1.875e-06
-7.61151e-23
9.44743e-22
1.875e-06
1.50004e-23
1.04203e-21
1.875e-06
-3.90825e-23
1.1027e-21
1.875e-06
-9.62163e-23
1.22447e-21
1.875e-06
-3.09381e-23
1.09257e-21
1.875e-06
-3.61747e-23
9.8602e-22
1.875e-06
-8.19782e-23
8.31321e-22
1.875e-06
8.50813e-23
8.91268e-22
1.875e-06
3.197e-23
8.05567e-22
1.875e-06
6.23476e-23
7.32938e-22
1.875e-06
2.5632e-23
7.16668e-22
1.875e-06
7.89055e-23
8.71875e-22
1.875e-06
2.08515e-24
7.29411e-22
1.875e-06
-9.53315e-23
5.7408e-22
1.875e-06
6.54299e-23
3.71795e-22
1.875e-06
7.92999e-23
3.03945e-22
1.875e-06
-3.16051e-23
3.9643e-22
1.875e-06
-4.03356e-23
4.4163e-22
1.875e-06
1.0333e-22
3.29935e-22
1.875e-06
3.8755e-23
2.69841e-22
1.875e-06
4.79683e-23
2.67783e-22
1.875e-06
-9.60904e-23
2.1244e-22
1.875e-06
-1.3042e-22
1.82821e-22
1.875e-06
-5.0404e-23
1.0353e-22
1.875e-06
-2.22864e-23
1.31814e-22
1.875e-06
-1.00511e-22
-6.22689e-23
1.875e-06
-1.97776e-22
-1.2388e-22
1.875e-06
-9.59526e-23
6.93216e-23
1.875e-06
1.39095e-23
4.18451e-23
1.875e-06
3.12258e-23
-4.58379e-23
1.875e-06
-6.37768e-23
-3.74077e-23
1.875e-06
-4.9754e-23
5.03247e-23
1.875e-06
1.09165e-23
1.35552e-22
1.875e-06
-3.743e-23
9.91856e-23
1.875e-06
2.69397e-23
-2.6595e-23
1.875e-06
-3.33853e-24
-2.08827e-22
1.875e-06
-5.07895e-23
-2.16743e-22
1.875e-06
-8.25129e-23
-3.53201e-22
-4.27107e-23
-3.96093e-22
1.875e-06
-1.04774e-22
6.01624e-22
1.875e-06
-1.6799e-22
9.57876e-22
1.875e-06
-2.15916e-22
1.0001e-21
1.875e-06
1.6835e-23
1.12258e-21
1.875e-06
9.66076e-23
1.19039e-21
1.875e-06
-4.78282e-23
1.13309e-21
1.875e-06
-1.37425e-22
9.61376e-22
1.875e-06
-1.39513e-22
8.62676e-22
1.875e-06
1.56795e-23
9.32014e-22
1.875e-06
6.64437e-23
9.8223e-22
1.875e-06
3.93922e-23
7.00287e-22
1.875e-06
5.02823e-24
7.29354e-22
1.875e-06
9.29416e-24
8.35605e-22
1.875e-06
7.5185e-26
7.73611e-22
1.875e-06
5.32235e-23
6.92274e-22
1.875e-06
-2.43036e-23
4.05883e-22
1.875e-06
1.29793e-23
3.67799e-22
1.875e-06
2.62606e-22
4.2998e-22
1.875e-06
2.42954e-22
3.58071e-22
1.875e-06
-9.03323e-24
2.4443e-22
1.875e-06
-1.40285e-22
2.38841e-22
1.875e-06
-1.73795e-22
2.5862e-22
1.875e-06
-4.03204e-24
3.03627e-22
1.875e-06
3.63992e-23
2.83168e-22
1.875e-06
-4.69226e-23
1.56499e-22
1.875e-06
-1.14753e-22
8.14768e-23
1.875e-06
-1.12188e-22
3.51041e-23
1.875e-06
-1.29671e-22
-1.24025e-23
1.875e-06
-1.16715e-22
7.01024e-23
1.875e-06
6.68739e-24
-6.62853e-25
1.875e-06
5.45411e-23
-1.43007e-22
1.875e-06
9.32921e-23
-1.1911e-23
1.875e-06
-4.05269e-23
1.60056e-23
1.875e-06
-3.21214e-23
9.98374e-24
1.875e-06
5.39127e-24
3.37047e-23
1.875e-06
-8.84559e-23
-1.36421e-23
1.875e-06
-1.38488e-22
-1.75887e-22
1.875e-06
-9.79928e-23
-2.58825e-22
1.875e-06
1.08321e-22
-2.34201e-22
6.62401e-23
-3.44265e-22
1.875e-06
-6.89154e-23
6.33905e-22
1.875e-06
-1.11177e-22
9.90169e-22
1.875e-06
-7.64282e-24
1.07333e-21
1.875e-06
-1.28092e-23
1.11355e-21
1.875e-06
1.40882e-23
1.07052e-21
1.875e-06
-1.12471e-22
1.12507e-21
1.875e-06
-1.69777e-22
1.04766e-21
1.875e-06
-2.65041e-23
1.01937e-21
1.875e-06
-8.01343e-24
9.96645e-22
1.875e-06
8.70846e-23
9.5094e-22
1.875e-06
-2.50671e-24
7.7351e-22
1.875e-06
4.05608e-23
7.66412e-22
1.875e-06
-2.85328e-23
8.5739e-22
1.875e-06
-2.41899e-23
7.84527e-22
1.875e-06
1.24428e-22
6.67679e-22
1.875e-06
4.34455e-23
4.94463e-22
1.875e-06
-6.07343e-23
4.03146e-22
1.875e-06
-1.00786e-22
2.66242e-22
1.875e-06
4.6602e-23
1.49768e-22
1.875e-06
-1.8699e-23
1.48001e-22
1.875e-06
6.08997e-24
2.52671e-22
1.875e-06
1.70021e-23
3.67961e-22
1.875e-06
-6.85058e-24
3.59478e-22
1.875e-06
-3.63605e-23
2.87384e-22
1.875e-06
-1.2071e-23
1.74974e-22
1.875e-06
-7.63716e-23
2.05399e-22
1.875e-06
6.28682e-23
3.91174e-23
1.875e-06
2.81011e-23
7.74041e-23
1.875e-06
-2.92908e-23
1.3514e-23
1.875e-06
-1.8176e-23
-2.38935e-23
1.875e-06
2.86887e-23
-1.00722e-22
1.875e-06
-2.57532e-23
-7.80401e-23
1.875e-06
2.69792e-23
2.86996e-23
1.875e-06
-5.06251e-23
1.05992e-22
1.875e-06
-1.18615e-23
-1.77371e-23
1.875e-06
-2.76342e-23
-1.00629e-22
1.875e-06
1.61363e-23
-9.84729e-23
1.875e-06
-9.95505e-23
-1.98464e-22
1.875e-06
-1.69418e-22
-2.83284e-22
-5.06427e-23
-3.09527e-22
1.875e-06
8.91046e-23
7.41186e-22
1.875e-06
6.13279e-23
1.04311e-21
1.875e-06
-8.01352e-23
9.3556e-22
1.875e-06
-1.36517e-23
1.02208e-21
1.875e-06
-4.74091e-23
1.14435e-21
1.875e-06
-5.09127e-23
1.08598e-21
1.875e-06
-5.51904e-23
1.0767e-21
1.875e-06
-1.9184e-22
9.69105e-22
1.875e-06
-1.43454e-22
9.48948e-22
1.875e-06
2.18079e-23
1.01234e-21
1.875e-06
-1.08046e-22
8.25231e-22
1.875e-06
3.54962e-22
8.13537e-22
1.875e-06
1.58196e-23
8.62936e-22
1.875e-06
5.41428e-24
7.78437e-22
1.875e-06
6.1983e-24
7.50438e-22
1.875e-06
-5.15177e-23
4.90704e-22
1.875e-06
-2.39467e-23
2.69933e-22
1.875e-06
-1.16786e-22
1.74277e-22
1.875e-06
-1.78116e-22
2.22005e-22
1.875e-06
-3.41903e-23
2.44589e-22
1.875e-06
-4.51772e-24
2.35125e-22
1.875e-06
-4.53745e-23
3.28866e-22
1.875e-06
-2.2676e-23
4.33449e-22
1.875e-06
6.88129e-23
2.1251e-22
1.875e-06
1.36425e-22
2.02924e-22
1.875e-06
4.78257e-23
2.12913e-22
1.875e-06
-3.22435e-23
-4.4173e-23
1.875e-06
8.48897e-23
-9.85525e-24
1.875e-06
-1.21455e-22
3.60741e-24
1.875e-06
1.23907e-22
-7.57441e-23
1.875e-06
-6.50754e-23
-1.63511e-23
1.875e-06
-4.4593e-23
-1.6732e-23
1.875e-06
1.05736e-22
-2.84401e-23
1.875e-06
-1.69049e-22
9.20497e-23
1.875e-06
-1.84111e-23
2.26361e-23
1.875e-06
9.08619e-23
-9.44242e-24
1.875e-06
-7.03074e-23
-1.28681e-22
1.875e-06
3.41593e-23
-2.30689e-22
1.875e-06
-5.6993e-23
-3.11375e-22
-8.96982e-23
-3.17246e-22
1.875e-06
1.87249e-22
6.2663e-22
1.875e-06
1.95006e-22
9.74652e-22
1.875e-06
2.00506e-23
1.00106e-21
1.875e-06
-1.10195e-22
9.33992e-22
1.875e-06
-5.89062e-23
1.05619e-21
1.875e-06
3.1902e-23
1.1776e-21
1.875e-06
-2.28092e-23
1.07677e-21
1.875e-06
-5.69793e-23
9.94711e-22
1.875e-06
-1.58611e-22
9.6217e-22
1.875e-06
-5.02443e-23
1.02468e-21
1.875e-06
-6.99915e-24
8.73172e-22
1.875e-06
1.63177e-23
9.06663e-22
1.875e-06
-1.47044e-23
8.7721e-22
1.875e-06
1.44621e-22
7.75589e-22
1.875e-06
-9.57582e-24
6.49448e-22
1.875e-06
-3.02623e-23
4.33793e-22
1.875e-06
-1.59039e-22
2.20652e-22
1.875e-06
-1.14198e-22
2.16658e-22
1.875e-06
-1.07956e-22
3.50068e-22
1.875e-06
-1.00211e-22
2.86605e-22
1.875e-06
-2.32857e-23
3.08505e-22
1.875e-06
-1.17981e-22
3.0384e-22
1.875e-06
-2.70214e-23
3.3748e-22
1.875e-06
8.10953e-23
3.1652e-22
1.875e-06
1.9949e-23
1.3664e-22
1.875e-06
1.19988e-22
1.77409e-22
1.875e-06
8.93534e-23
-1.52366e-23
1.875e-06
9.9604e-23
-1.3338e-22
1.875e-06
2.52596e-23
-6.14119e-23
1.875e-06
-1.06577e-23
-1.1912e-22
1.875e-06
-3.38599e-23
-4.84804e-24
1.875e-06
-3.11115e-23
-5.92068e-23
1.875e-06
-2.28217e-23
-5.06946e-23
1.875e-06
8.11939e-23
1.43147e-22
1.875e-06
8.40698e-23
3.63329e-23
1.875e-06
1.09448e-22
-3.85703e-23
1.875e-06
4.82211e-23
-2.83754e-23
1.875e-06
-7.99313e-23
-1.32918e-22
1.875e-06
-1.24557e-22
-3.5981e-22
-2.5298e-22
-3.74652e-22
1.875e-06
1.62199e-22
5.15383e-22
1.875e-06
1.09833e-22
9.14599e-22
1.875e-06
-2.65877e-23
1.02708e-21
1.875e-06
-2.67695e-23
9.83015e-22
1.875e-06
-2.76901e-23
1.00679e-21
1.875e-06
5.2276e-23
1.11644e-21
1.875e-06
-6.79754e-23
1.08236e-21
1.875e-06
-1.86049e-23
9.38383e-22
1.875e-06
7.95108e-23
1.06167e-21
1.875e-06
-1.5036e-22
1.10056e-21
1.875e-06
-1.45949e-22
9.09687e-22
1.875e-06
4.69626e-24
8.4948e-22
1.875e-06
2.0036e-23
8.5542e-22
1.875e-06
-1.81636e-22
6.97083e-22
1.875e-06