/*--------------------------------*- C++ -*----------------------------------*\
| =========                 |                                                 |
| \\      /  F ield         | OpenFOAM: The Open Source CFD Toolbox           |
|  \\    /   O peration     | Version:  v2012                                 |
|   \\  /    A nd           | Website:  www.openfoam.com                      |
|    \\/     M anipulation  |                                                 |
\*---------------------------------------------------------------------------*/
FoamFile
{
    version     2.0;
    format      ascii;
    class       volVectorField;
    location    "19";
    object      U;
}
// * * * * * * * * * * * * * * * * * * * * * * * * * * * * * * * * * * * * * //

dimensions      [0 1 -1 0 0 0 0];


internalField   nonuniform List<vector> 
64000
(
(0.003 2.4478e-19 2.06789e-19)
(0.003 3.67245e-19 3.24837e-19)
(0.003 3.76852e-19 4.03727e-19)
(0.003 3.6652e-19 4.34774e-19)
(0.003 4.42938e-19 3.89811e-19)
(0.003 4.31123e-19 3.08707e-19)
(0.003 3.36373e-19 2.45743e-19)
(0.003 1.70391e-19 2.09043e-19)
(0.003 2.48953e-19 3.38188e-19)
(0.003 3.32195e-19 2.74877e-19)
(0.003 2.57279e-19 2.02038e-19)
(0.003 2.81148e-19 3.16687e-19)
(0.003 2.61628e-19 2.55268e-19)
(0.003 2.7395e-19 2.05861e-19)
(0.003 2.1354e-19 2.52929e-19)
(0.003 2.12893e-19 2.50085e-19)
(0.003 1.33321e-19 1.8083e-19)
(0.003 2.22398e-20 1.30875e-19)
(0.003 1.0067e-19 -3.20369e-20)
(0.003 3.82438e-20 -1.56413e-19)
(0.003 -7.49733e-20 -9.24386e-20)
(0.003 1.36907e-19 7.90346e-20)
(0.003 2.52084e-19 1.21513e-19)
(0.003 2.85586e-19 9.15212e-20)
(0.003 3.15375e-19 1.39225e-19)
(0.003 1.53819e-19 1.1332e-19)
(0.003 2.92081e-20 1.18654e-19)
(0.003 9.25379e-20 1.29293e-19)
(0.003 1.30273e-19 1.60277e-19)
(0.003 -5.7295e-21 2.10511e-19)
(0.003 -1.27341e-19 2.34501e-19)
(0.003 -4.78104e-20 8.65929e-20)
(0.003 1.76137e-19 5.28057e-20)
(0.003 8.16201e-20 7.42423e-20)
(0.003 3.56964e-20 6.37592e-20)
(0.003 -1.72615e-20 -5.97271e-20)
(0.003 -1.71994e-19 -2.05408e-19)
(0.003 -1.62189e-19 -1.48157e-22)
(0.003 -7.58488e-20 1.31008e-19)
(0.003 -6.9086e-20 6.06595e-20)
(0.003 2.21568e-19 3.01644e-19)
(0.003 3.20691e-19 6.58696e-19)
(0.003 5.49812e-19 8.80858e-19)
(0.003 4.81945e-19 8.22073e-19)
(0.003 3.8631e-19 7.42874e-19)
(0.003 5.2914e-19 7.76621e-19)
(0.003 4.56946e-19 6.69182e-19)
(0.003 4.17061e-19 5.05327e-19)
(0.003 3.7947e-19 6.12764e-19)
(0.003 3.01762e-19 7.35561e-19)
(0.003 3.19848e-19 6.52894e-19)
(0.003 2.89845e-19 5.73733e-19)
(0.003 2.25962e-19 5.33386e-19)
(0.003 1.56214e-19 4.77707e-19)
(0.003 7.76627e-20 4.54377e-19)
(0.003 8.33496e-20 3.52507e-19)
(0.003 3.13009e-19 2.78058e-19)
(0.003 2.50995e-19 1.99362e-19)
(0.003 2.28456e-19 2.67144e-20)
(0.003 2.3646e-19 -8.54462e-20)
(0.003 4.8517e-20 2.24712e-21)
(0.003 -1.95047e-20 1.85025e-19)
(0.003 1.98315e-19 2.7205e-19)
(0.003 2.75877e-19 3.01116e-19)
(0.003 9.2096e-20 2.6711e-19)
(0.003 8.79318e-20 1.49004e-19)
(0.003 1.36508e-19 7.11323e-20)
(0.003 8.89349e-20 1.00173e-19)
(0.003 -9.3522e-21 2.09853e-19)
(0.003 -2.28003e-20 1.73306e-19)
(0.003 -1.20688e-19 1.1262e-19)
(0.003 -2.06769e-21 1.15246e-19)
(0.003 1.34853e-19 2.08491e-19)
(0.003 1.77373e-20 1.47562e-19)
(0.003 -6.21309e-20 1.6124e-19)
(0.003 -1.6335e-19 1.00554e-20)
(0.003 -2.4005e-19 -2.41407e-19)
(0.003 -8.81293e-20 -8.98267e-20)
(0.003 4.9708e-20 9.63794e-20)
(0.003 4.31506e-20 1.28311e-20)
(0.003 1.54439e-19 4.13089e-19)
(0.003 2.08628e-19 6.98158e-19)
(0.003 2.76713e-19 9.71895e-19)
(0.003 3.99094e-19 1.03874e-18)
(0.003 3.9065e-19 8.89722e-19)
(0.003 3.89808e-19 8.3162e-19)
(0.003 3.64147e-19 8.16046e-19)
(0.003 3.67837e-19 7.98416e-19)
(0.003 3.82954e-19 9.01738e-19)
(0.003 3.62837e-19 8.70579e-19)
(0.003 3.13867e-19 7.15667e-19)
(0.003 2.48611e-19 6.51363e-19)
(0.003 2.75626e-19 5.31026e-19)
(0.003 1.45104e-19 4.99949e-19)
(0.003 1.35203e-19 4.71524e-19)
(0.003 9.66466e-20 4.10566e-19)
(0.003 1.07514e-19 4.34059e-19)
(0.003 2.05118e-19 2.70118e-19)
(0.003 2.04364e-19 -4.61855e-20)
(0.003 1.59755e-19 -5.11489e-20)
(0.003 4.32373e-20 1.52564e-19)
(0.003 2.02486e-20 2.79102e-19)
(0.003 2.10581e-19 3.14465e-19)
(0.003 1.87955e-19 2.9133e-19)
(0.003 5.60095e-20 2.50082e-19)
(0.003 1.16942e-19 1.90184e-19)
(0.003 1.1524e-19 1.34942e-19)
(0.003 -4.8006e-20 1.41963e-19)
(0.003 -2.76191e-20 1.81703e-19)
(0.003 8.04845e-20 2.43169e-19)
(0.003 2.81377e-20 2.07313e-19)
(0.003 2.82773e-20 1.83916e-19)
(0.003 -3.00066e-21 1.52697e-19)
(0.003 -9.58224e-20 1.07469e-19)
(0.003 -1.36287e-19 2.25441e-19)
(0.003 -1.65683e-19 8.66858e-20)
(0.003 -1.3953e-19 -1.92434e-19)
(0.003 2.49305e-20 -9.96258e-20)
(0.003 1.33554e-19 1.22079e-20)
(0.003 2.00334e-19 -7.30015e-20)
(0.003 3.47199e-19 5.37585e-19)
(0.003 3.08334e-19 8.85863e-19)
(0.003 1.78857e-19 1.00583e-18)
(0.003 2.42661e-19 1.06752e-18)
(0.003 3.59917e-19 1.05847e-18)
(0.003 3.40534e-19 1.04959e-18)
(0.003 3.0033e-19 9.47347e-19)
(0.003 2.27598e-19 8.13443e-19)
(0.003 2.12497e-19 8.73174e-19)
(0.003 3.23454e-19 9.08345e-19)
(0.003 3.35934e-19 8.45368e-19)
(0.003 2.79157e-19 8.26323e-19)
(0.003 2.20695e-19 6.88508e-19)
(0.003 1.1963e-19 5.20848e-19)
(0.003 2.71643e-19 5.13357e-19)
(0.003 3.20633e-19 4.40475e-19)
(0.003 9.88216e-20 3.68027e-19)
(0.003 -5.17045e-20 3.2355e-19)
(0.003 -3.27245e-20 5.6632e-20)
(0.003 7.80694e-20 -4.8448e-20)
(0.003 2.87065e-20 1.89174e-19)
(0.003 1.41584e-19 3.27216e-19)
(0.003 2.6413e-19 4.34972e-19)
(0.003 1.69781e-19 3.85203e-19)
(0.003 1.24028e-19 2.70968e-19)
(0.003 6.4573e-20 1.82875e-19)
(0.003 -1.82886e-20 7.35048e-20)
(0.003 -4.0295e-20 -6.16199e-21)
(0.003 5.4602e-20 1.89113e-19)
(0.003 4.26939e-20 3.81489e-19)
(0.003 1.02007e-20 2.01829e-19)
(0.003 -5.16185e-20 9.76557e-20)
(0.003 -9.37451e-20 1.8624e-19)
(0.003 -1.21153e-19 1.62912e-19)
(0.003 -8.0322e-20 2.0717e-19)
(0.003 -5.05983e-20 1.33161e-19)
(0.003 4.85457e-20 -3.0472e-20)
(0.003 1.51841e-19 -2.25356e-20)
(0.003 1.97318e-19 3.24685e-20)
(0.003 1.77864e-19 5.29467e-20)
(0.003 1.31145e-19 5.94205e-19)
(0.003 2.15732e-19 9.8366e-19)
(0.003 1.52203e-19 1.11451e-18)
(0.003 1.36138e-19 1.09127e-18)
(0.003 1.835e-19 1.17251e-18)
(0.003 1.64126e-19 1.11546e-18)
(0.003 1.95041e-19 1.00069e-18)
(0.003 3.29382e-19 8.07126e-19)
(0.003 3.21521e-19 8.55261e-19)
(0.003 3.03388e-19 1.02514e-18)
(0.003 2.5547e-19 9.66349e-19)
(0.003 2.41256e-19 8.6306e-19)
(0.003 2.16919e-19 7.51614e-19)
(0.003 1.4781e-19 5.98682e-19)
(0.003 1.65046e-19 5.6554e-19)
(0.003 2.91558e-19 5.68169e-19)
(0.003 1.13736e-19 4.408e-19)
(0.003 -1.51357e-19 2.51742e-19)
(0.003 -1.40744e-19 1.66178e-19)
(0.003 2.79032e-20 6.65177e-20)
(0.003 9.79504e-20 1.39752e-19)
(0.003 1.55427e-19 3.527e-19)
(0.003 1.97101e-19 4.89115e-19)
(0.003 1.51541e-19 3.70182e-19)
(0.003 8.51183e-20 3.10342e-19)
(0.003 3.02335e-20 2.0425e-19)
(0.003 1.11761e-20 7.9291e-20)
(0.003 1.79679e-20 1.05459e-19)
(0.003 3.25022e-20 1.96037e-19)
(0.003 1.41638e-21 1.84627e-19)
(0.003 1.44646e-19 1.48758e-19)
(0.003 1.29584e-19 1.32996e-19)
(0.003 -1.18957e-19 2.85004e-20)
(0.003 -1.00174e-19 5.97401e-20)
(0.003 1.03282e-20 1.50931e-19)
(0.003 1.84357e-20 1.07272e-19)
(0.003 1.27554e-19 6.98153e-20)
(0.003 1.5156e-19 8.42948e-20)
(0.003 5.69321e-20 1.3325e-19)
(0.003 3.11688e-20 1.1409e-19)
(0.003 8.94245e-21 6.63028e-19)
(0.003 1.56202e-19 1.00401e-18)
(0.003 1.27613e-19 1.06051e-18)
(0.003 1.34011e-19 1.11971e-18)
(0.003 1.23204e-19 1.15679e-18)
(0.003 1.51396e-19 1.08896e-18)
(0.003 2.00122e-19 9.97587e-19)
(0.003 4.35431e-19 1.01993e-18)
(0.003 4.24739e-19 1.04801e-18)
(0.003 2.50703e-19 1.00796e-18)
(0.003 1.95923e-19 9.16501e-19)
(0.003 2.26618e-19 9.7352e-19)
(0.003 2.21675e-19 8.75558e-19)
(0.003 2.29941e-19 5.93081e-19)
(0.003 1.71651e-19 5.92631e-19)
(0.003 5.63644e-20 6.64175e-19)
(0.003 -3.33724e-20 4.5445e-19)
(0.003 -7.60402e-20 2.50852e-19)
(0.003 -1.71757e-19 1.41084e-19)
(0.003 -7.8937e-20 1.19683e-19)
(0.003 1.81248e-19 1.60844e-19)
(0.003 2.61024e-19 3.29647e-19)
(0.003 1.5057e-19 4.52627e-19)
(0.003 1.55939e-19 3.40763e-19)
(0.003 1.42489e-19 2.3997e-19)
(0.003 8.16163e-20 2.34307e-19)
(0.003 7.42381e-20 1.57127e-19)
(0.003 -4.828e-20 8.81779e-20)
(0.003 -1.51233e-19 1.97158e-19)
(0.003 -3.6842e-20 2.92355e-19)
(0.003 1.74746e-19 2.82454e-19)
(0.003 1.53476e-19 1.02425e-19)
(0.003 2.90802e-20 -7.6688e-20)
(0.003 6.66669e-20 4.66861e-20)
(0.003 6.02399e-20 1.1977e-19)
(0.003 1.19218e-19 3.68475e-20)
(0.003 1.20597e-19 1.17454e-19)
(0.003 5.97318e-20 9.80955e-20)
(0.003 3.96217e-20 3.31127e-20)
(0.003 4.13003e-20 5.14148e-20)
(0.003 9.18957e-20 8.08201e-19)
(0.003 2.0372e-19 1.14285e-18)
(0.003 1.86857e-19 1.13282e-18)
(0.003 9.26001e-20 1.13766e-18)
(0.003 1.90398e-19 1.16716e-18)
(0.003 1.53224e-19 1.16234e-18)
(0.003 2.40543e-19 1.09371e-18)
(0.003 4.41627e-19 1.07125e-18)
(0.003 4.05679e-19 1.13759e-18)
(0.003 2.79083e-19 1.08605e-18)
(0.003 2.17773e-19 9.9567e-19)
(0.003 2.12681e-19 9.26099e-19)
(0.003 2.15783e-19 7.84735e-19)
(0.003 3.09487e-19 6.73759e-19)
(0.003 1.99936e-19 6.73789e-19)
(0.003 7.75608e-20 6.22839e-19)
(0.003 -1.17099e-20 4.11022e-19)
(0.003 2.39695e-20 2.40532e-19)
(0.003 6.91828e-21 1.15444e-19)
(0.003 5.5394e-21 9.26025e-20)
(0.003 2.50511e-19 2.25301e-19)
(0.003 2.28611e-19 3.37028e-19)
(0.003 5.62043e-20 4.3895e-19)
(0.003 4.38876e-20 4.60726e-19)
(0.003 3.27646e-20 3.2647e-19)
(0.003 8.6007e-20 2.03927e-19)
(0.003 3.47554e-20 1.76386e-19)
(0.003 -6.84128e-20 9.62079e-20)
(0.003 -1.25976e-19 1.20503e-19)
(0.003 -6.70867e-20 1.69642e-19)
(0.003 7.2875e-20 2.0984e-19)
(0.003 2.02301e-20 5.46869e-20)
(0.003 3.45797e-20 -2.71864e-20)
(0.003 1.72664e-19 1.14414e-19)
(0.003 2.02057e-19 1.25671e-19)
(0.003 1.84026e-19 1.04606e-19)
(0.003 1.17342e-19 3.02101e-20)
(0.003 7.21524e-20 -1.06154e-20)
(0.003 3.65606e-21 7.71853e-20)
(0.003 -4.79502e-20 7.78892e-20)
(0.003 2.04338e-19 6.92606e-19)
(0.003 1.91607e-19 1.10183e-18)
(0.003 2.36771e-19 1.17733e-18)
(0.003 2.13331e-19 1.2145e-18)
(0.003 1.63297e-19 1.28969e-18)
(0.003 2.079e-19 1.17374e-18)
(0.003 3.2493e-19 1.14035e-18)
(0.003 2.93479e-19 1.2294e-18)
(0.003 2.9672e-19 1.24667e-18)
(0.003 3.80284e-19 1.17492e-18)
(0.003 2.43314e-19 1.00081e-18)
(0.003 1.44656e-19 8.93704e-19)
(0.003 1.10042e-19 7.37153e-19)
(0.003 2.49403e-19 6.56966e-19)
(0.003 2.0288e-19 6.71537e-19)
(0.003 1.0018e-19 6.56525e-19)
(0.003 7.59182e-20 4.34556e-19)
(0.003 1.31332e-19 2.18745e-19)
(0.003 3.37878e-19 1.15952e-19)
(0.003 2.60548e-19 1.35222e-19)
(0.003 2.10401e-19 2.26825e-19)
(0.003 9.29633e-20 3.65645e-19)
(0.003 -6.98718e-20 5.01546e-19)
(0.003 -9.33486e-20 4.78708e-19)
(0.003 -9.86964e-20 3.60265e-19)
(0.003 1.87279e-21 2.24179e-19)
(0.003 7.47835e-20 1.05082e-19)
(0.003 7.0855e-21 7.53065e-20)
(0.003 -7.43469e-20 1.18541e-19)
(0.003 -6.49684e-20 1.41714e-19)
(0.003 -1.92877e-19 2.77728e-19)
(0.003 -9.65116e-20 1.24928e-19)
(0.003 1.1722e-19 7.41936e-20)
(0.003 1.41402e-19 1.64523e-19)
(0.003 2.16681e-19 9.88625e-20)
(0.003 1.19222e-19 -1.10738e-20)
(0.003 7.02872e-20 -1.65681e-19)
(0.003 -4.46576e-20 -1.82996e-19)
(0.003 -2.17377e-19 1.46791e-19)
(0.003 -1.1448e-19 1.58505e-19)
(0.003 -9.31531e-20 6.98249e-19)
(0.003 -2.26335e-20 1.24827e-18)
(0.003 1.6358e-19 1.32645e-18)
(0.003 2.51847e-19 1.32302e-18)
(0.003 2.01004e-19 1.30132e-18)
(0.003 3.1e-19 1.26429e-18)
(0.003 3.50993e-19 1.27635e-18)
(0.003 1.68224e-19 1.21644e-18)
(0.003 1.57928e-19 1.23049e-18)
(0.003 2.59945e-19 1.26175e-18)
(0.003 2.21955e-19 1.03596e-18)
(0.003 2.41653e-20 8.93621e-19)
(0.003 5.30636e-21 7.02903e-19)
(0.003 1.21614e-19 6.97805e-19)
(0.003 1.655e-19 6.85097e-19)
(0.003 1.18121e-19 6.39817e-19)
(0.003 2.47064e-19 4.76909e-19)
(0.003 2.36362e-19 2.71355e-19)
(0.003 1.32662e-19 2.46844e-19)
(0.003 1.37615e-19 2.4486e-19)
(0.003 9.38602e-20 2.65949e-19)
(0.003 3.95094e-20 4.12271e-19)
(0.003 3.57077e-20 4.76926e-19)
(0.003 8.1572e-20 4.78154e-19)
(0.003 2.66698e-20 2.78096e-19)
(0.003 -1.08396e-19 1.32673e-19)
(0.003 -1.12793e-19 1.25348e-19)
(0.003 2.44805e-20 7.68193e-20)
(0.003 5.28186e-20 3.88799e-20)
(0.003 -4.0914e-20 8.13126e-20)
(0.003 -1.81238e-19 1.63321e-19)
(0.003 -1.18469e-19 1.68395e-19)
(0.003 -9.83284e-21 1.79432e-19)
(0.003 -1.01841e-20 7.09607e-20)
(0.003 9.63754e-20 -3.00403e-20)
(0.003 1.97417e-19 -2.14573e-19)
(0.003 1.09282e-20 -1.82818e-19)
(0.003 -2.03772e-19 -9.16089e-20)
(0.003 -1.71895e-19 1.22372e-19)
(0.003 -1.05298e-19 2.03167e-19)
(0.003 -2.81403e-19 8.00783e-19)
(0.003 -7.8584e-20 1.15937e-18)
(0.003 1.62068e-19 1.34391e-18)
(0.003 2.97367e-19 1.45432e-18)
(0.003 2.06765e-19 1.3863e-18)
(0.003 2.34415e-19 1.36154e-18)
(0.003 3.39546e-19 1.36149e-18)
(0.003 2.29587e-19 1.29216e-18)
(0.003 1.59944e-19 1.16466e-18)
(0.003 1.90464e-19 1.16951e-18)
(0.003 2.46702e-19 1.02447e-18)
(0.003 4.72841e-20 8.5277e-19)
(0.003 -1.79158e-21 7.6172e-19)
(0.003 1.53985e-20 7.58443e-19)
(0.003 1.12359e-19 7.19833e-19)
(0.003 2.23694e-19 6.69027e-19)
(0.003 3.02822e-19 5.62808e-19)
(0.003 1.29801e-19 3.58011e-19)
(0.003 -8.92613e-20 1.4026e-19)
(0.003 -5.44935e-20 1.31776e-19)
(0.003 6.69575e-20 3.20949e-19)
(0.003 1.53946e-19 4.50834e-19)
(0.003 9.75564e-20 5.37813e-19)
(0.003 5.62079e-20 5.12899e-19)
(0.003 1.12447e-19 3.53533e-19)
(0.003 2.07179e-20 1.62781e-19)
(0.003 -1.36028e-19 6.13469e-21)
(0.003 -8.6317e-20 3.79312e-20)
(0.003 6.42032e-20 7.32145e-20)
(0.003 7.60203e-20 1.73509e-19)
(0.003 3.71659e-20 1.71228e-19)
(0.003 -5.73692e-20 1.24737e-19)
(0.003 -1.9101e-19 1.313e-19)
(0.003 -1.34977e-19 9.77453e-20)
(0.003 -3.59393e-20 6.73661e-20)
(0.003 1.39558e-19 -1.56238e-19)
(0.003 3.79999e-20 -3.48956e-19)
(0.003 -3.30939e-20 -1.68867e-19)
(0.003 6.71313e-20 -1.63066e-19)
(0.003 3.73618e-20 -8.32778e-20)
(0.003 7.62561e-20 7.84792e-19)
(0.003 1.70672e-19 1.26184e-18)
(0.003 1.89787e-19 1.4788e-18)
(0.003 2.30422e-19 1.52109e-18)
(0.003 2.53338e-19 1.41295e-18)
(0.003 2.93665e-19 1.38425e-18)
(0.003 2.37999e-19 1.43004e-18)
(0.003 1.98688e-19 1.32019e-18)
(0.003 9.54724e-20 1.17522e-18)
(0.003 1.42222e-19 1.09305e-18)
(0.003 2.87724e-19 1.00677e-18)
(0.003 1.72752e-19 9.32457e-19)
(0.003 1.27283e-19 7.62244e-19)
(0.003 1.24929e-19 6.98009e-19)
(0.003 8.88022e-20 8.15628e-19)
(0.003 9.44809e-20 8.35059e-19)
(0.003 9.25943e-20 5.68433e-19)
(0.003 -1.58074e-20 2.55946e-19)
(0.003 -3.47805e-20 1.06309e-19)
(0.003 9.52198e-21 1.55614e-19)
(0.003 1.34995e-19 3.2437e-19)
(0.003 2.09102e-19 4.98801e-19)
(0.003 4.49369e-20 5.718e-19)
(0.003 9.56674e-21 5.86119e-19)
(0.003 7.77526e-20 3.09035e-19)
(0.003 -5.63889e-20 6.49841e-20)
(0.003 -1.90881e-19 -1.72192e-20)
(0.003 -6.38367e-20 7.03367e-20)
(0.003 7.64205e-20 6.8034e-20)
(0.003 1.66529e-20 2.33268e-19)
(0.003 -2.51754e-20 2.88805e-19)
(0.003 -2.51924e-20 1.01557e-19)
(0.003 -5.40937e-20 9.68856e-22)
(0.003 -1.22501e-19 2.1791e-20)
(0.003 -1.16269e-19 1.84377e-19)
(0.003 -1.0409e-19 -7.62198e-20)
(0.003 -4.92893e-20 -3.27913e-19)
(0.003 1.33171e-19 -1.15982e-19)
(0.003 2.31319e-19 -5.91021e-20)
(0.003 2.22132e-19 -1.32062e-19)
(0.003 2.84112e-19 8.83567e-19)
(0.003 2.73163e-19 1.34349e-18)
(0.003 1.66025e-19 1.45064e-18)
(0.003 1.22684e-19 1.44114e-18)
(0.003 2.4163e-19 1.46163e-18)
(0.003 2.29499e-19 1.50855e-18)
(0.003 1.67855e-19 1.42139e-18)
(0.003 2.50825e-19 1.3091e-18)
(0.003 1.71389e-19 1.06594e-18)
(0.003 7.14946e-20 1.10288e-18)
(0.003 1.4906e-19 1.10562e-18)
(0.003 1.53004e-19 9.59535e-19)
(0.003 1.99265e-19 8.7675e-19)
(0.003 2.05276e-19 7.64508e-19)
(0.003 1.0213e-19 7.95202e-19)
(0.003 -5.2811e-20 7.82486e-19)
(0.003 -1.31063e-19 6.3259e-19)
(0.003 5.90639e-20 2.62401e-19)
(0.003 3.16574e-19 1.0494e-19)
(0.003 2.48861e-19 1.47387e-19)
(0.003 5.60897e-20 3.0365e-19)
(0.003 -8.35931e-20 4.68792e-19)
(0.003 -1.06225e-19 4.89475e-19)
(0.003 -4.01004e-20 5.24537e-19)
(0.003 -5.94378e-20 3.93633e-19)
(0.003 -9.30357e-20 9.82526e-20)
(0.003 -6.99997e-20 -9.96542e-21)
(0.003 1.23363e-20 1.28227e-19)
(0.003 -4.01495e-20 6.06487e-20)
(0.003 -1.53492e-19 1.71129e-19)
(0.003 -2.60703e-20 2.28321e-19)
(0.003 2.42687e-21 1.36974e-19)
(0.003 -4.38225e-20 3.28728e-20)
(0.003 -5.57555e-21 1.20681e-20)
(0.003 -8.94715e-20 4.51067e-20)
(0.003 -2.34055e-19 -1.38465e-19)
(0.003 -1.12952e-19 -1.1495e-19)
(0.003 9.16032e-20 1.72554e-20)
(0.003 1.47343e-19 -1.9711e-19)
(0.003 1.21995e-19 -3.66811e-19)
(0.003 2.686e-19 9.28913e-19)
(0.003 2.94068e-19 1.35313e-18)
(0.003 1.77477e-19 1.43471e-18)
(0.003 1.29898e-19 1.50161e-18)
(0.003 7.92469e-20 1.55924e-18)
(0.003 3.79787e-20 1.49635e-18)
(0.003 1.3757e-19 1.34099e-18)
(0.003 9.23194e-20 1.23991e-18)
(0.003 2.23235e-19 1.22409e-18)
(0.003 2.03114e-19 1.14715e-18)
(0.003 2.57465e-20 1.06065e-18)
(0.003 6.29399e-20 9.86478e-19)
(0.003 2.10568e-19 8.92104e-19)
(0.003 2.68797e-19 8.18339e-19)
(0.003 1.01342e-19 7.98909e-19)
(0.003 -3.17362e-20 7.07568e-19)
(0.003 -9.45818e-20 5.19248e-19)
(0.003 2.76004e-20 2.94204e-19)
(0.003 1.79768e-19 2.85336e-19)
(0.003 1.93644e-19 2.49424e-19)
(0.003 1.16644e-19 3.12675e-19)
(0.003 9.37623e-21 4.0976e-19)
(0.003 3.03137e-20 4.39253e-19)
(0.003 -3.21719e-21 4.78205e-19)
(0.003 -1.63491e-19 3.94602e-19)
(0.003 -3.84169e-20 1.04251e-19)
(0.003 8.65811e-20 -5.14063e-20)
(0.003 -1.73118e-20 2.59335e-20)
(0.003 -2.19174e-19 2.7132e-20)
(0.003 -2.84466e-19 1.27612e-19)
(0.003 -1.27351e-19 2.21116e-19)
(0.003 6.82153e-21 1.43362e-19)
(0.003 8.32742e-21 1.60638e-21)
(0.003 3.96887e-20 9.03577e-20)
(0.003 -9.59639e-20 1.19038e-19)
(0.003 -1.5225e-19 -1.46714e-19)
(0.003 5.27425e-20 -8.94123e-20)
(0.003 1.23366e-19 -4.24087e-20)
(0.003 7.39476e-20 -2.70782e-19)
(0.003 1.25693e-20 -4.20904e-19)
(0.003 2.67615e-20 9.63707e-19)
(0.003 2.06499e-19 1.4677e-18)
(0.003 2.14737e-19 1.47726e-18)
(0.003 3.30478e-20 1.50785e-18)
(0.003 -1.06793e-19 1.49395e-18)
(0.003 -7.44252e-20 1.48581e-18)
(0.003 1.33049e-19 1.39673e-18)
(0.003 2.12004e-19 1.22563e-18)
(0.003 1.59749e-19 1.19755e-18)
(0.003 7.75252e-20 1.20952e-18)
(0.003 -1.27274e-20 1.0854e-18)
(0.003 1.5456e-19 8.89506e-19)
(0.003 2.05045e-19 9.19775e-19)
(0.003 1.10172e-19 9.15891e-19)
(0.003 5.45942e-21 8.41291e-19)
(0.003 -1.93719e-20 7.09198e-19)
(0.003 -4.17254e-20 5.45869e-19)
(0.003 1.17931e-19 3.32076e-19)
(0.003 1.63191e-19 2.35151e-19)
(0.003 1.01111e-19 2.36812e-19)
(0.003 2.09217e-19 3.44435e-19)
(0.003 8.65159e-20 4.65379e-19)
(0.003 -2.05933e-20 4.88114e-19)
(0.003 -4.20618e-20 5.3165e-19)
(0.003 -1.38715e-19 3.80023e-19)
(0.003 -2.97171e-20 -9.14848e-21)
(0.003 1.52205e-19 -3.01458e-19)
(0.003 1.64454e-20 -1.30861e-19)
(0.003 -2.79392e-19 -4.2822e-21)
(0.003 -2.79895e-19 1.75242e-19)
(0.003 -2.23276e-19 2.98906e-19)
(0.003 -5.06128e-20 1.85988e-19)
(0.003 6.64002e-20 7.37644e-20)
(0.003 -3.92894e-20 6.3184e-20)
(0.003 -1.1028e-19 5.12787e-20)
(0.003 -6.04645e-21 -1.01056e-19)
(0.003 9.29651e-20 -2.56769e-19)
(0.003 1.66657e-19 -1.94229e-19)
(0.003 1.25208e-19 -3.29535e-19)
(0.003 -7.97122e-21 -4.75442e-19)
(0.003 -1.88552e-19 1.00139e-18)
(0.003 -1.71823e-19 1.45509e-18)
(0.003 5.58957e-20 1.52466e-18)
(0.003 2.80916e-20 1.44171e-18)
(0.003 3.72685e-20 1.43107e-18)
(0.003 -8.34837e-21 1.49941e-18)
(0.003 9.99605e-20 1.51022e-18)
(0.003 2.1804e-19 1.32044e-18)
(0.003 1.73308e-20 1.21716e-18)
(0.003 -1.34992e-19 1.20472e-18)
(0.003 6.86434e-20 1.0588e-18)
(0.003 2.48083e-19 9.23079e-19)
(0.003 7.86554e-20 9.94235e-19)
(0.003 -9.31041e-20 9.20137e-19)
(0.003 -5.49108e-20 7.4525e-19)
(0.003 -4.98248e-20 7.15064e-19)
(0.003 2.44177e-20 4.90555e-19)
(0.003 2.47782e-19 3.60672e-19)
(0.003 1.81285e-19 3.76661e-19)
(0.003 1.40438e-19 2.55516e-19)
(0.003 2.11237e-19 3.98756e-19)
(0.003 5.58252e-20 4.90378e-19)
(0.003 -1.42854e-19 5.61316e-19)
(0.003 -2.61993e-19 4.99199e-19)
(0.003 -2.21403e-19 3.09799e-19)
(0.003 -4.64353e-20 -1.22488e-20)
(0.003 1.46535e-19 -3.6939e-19)
(0.003 7.90124e-20 -2.08364e-19)
(0.003 -1.33696e-19 6.34938e-22)
(0.003 -8.06843e-20 1.65618e-19)
(0.003 3.3623e-20 2.48484e-19)
(0.003 5.46569e-20 1.33597e-19)
(0.003 -6.66476e-20 4.50485e-20)
(0.003 -1.26875e-19 5.24496e-20)
(0.003 -7.90911e-20 1.67513e-19)
(0.003 -1.61528e-20 1.68508e-21)
(0.003 1.39723e-19 -3.15734e-19)
(0.003 1.7851e-19 -2.7927e-19)
(0.003 6.4229e-20 -3.85295e-19)
(0.003 6.99092e-21 -5.27983e-19)
(0.003 -7.89213e-20 9.46692e-19)
(0.003 -2.8642e-19 1.40946e-18)
(0.003 -1.89089e-19 1.58091e-18)
(0.003 -8.55715e-20 1.47606e-18)
(0.003 2.999e-20 1.49838e-18)
(0.003 4.79225e-20 1.52595e-18)
(0.003 2.64117e-22 1.49683e-18)
(0.003 5.63474e-20 1.40416e-18)
(0.003 -2.13292e-20 1.21114e-18)
(0.003 -6.93499e-20 1.04736e-18)
(0.003 8.30766e-20 1.07875e-18)
(0.003 1.68943e-19 1.07597e-18)
(0.003 -2.3283e-20 1.03699e-18)
(0.003 -5.04367e-20 9.39785e-19)
(0.003 5.37868e-21 8.16927e-19)
(0.003 -4.47704e-22 6.77263e-19)
(0.003 1.76092e-20 4.62791e-19)
(0.003 -2.82986e-20 3.80631e-19)
(0.003 1.00291e-19 3.73206e-19)
(0.003 2.69397e-19 3.6575e-19)
(0.003 9.91415e-20 4.23255e-19)
(0.003 3.84159e-20 5.60024e-19)
(0.003 -1.18359e-19 5.35384e-19)
(0.003 -3.17116e-19 3.40349e-19)
(0.003 -2.05526e-19 1.34874e-19)
(0.003 -1.00518e-19 1.23219e-19)
(0.003 1.20581e-21 -1.20051e-19)
(0.003 2.27287e-20 -3.24171e-19)
(0.003 6.38207e-21 -8.24512e-20)
(0.003 4.40761e-20 1.27521e-19)
(0.003 1.04769e-19 1.7098e-19)
(0.003 1.84958e-20 3.02508e-20)
(0.003 -1.62623e-19 -2.3675e-20)
(0.003 -6.19926e-20 2.07205e-19)
(0.003 -3.69896e-21 2.35876e-19)
(0.003 -2.05957e-20 1.20717e-19)
(0.003 4.85561e-20 -1.64576e-19)
(0.003 7.03705e-20 -3.20283e-19)
(0.003 1.6531e-20 -3.82558e-19)
(0.003 9.5953e-20 -4.92015e-19)
(0.003 -1.57025e-19 8.59617e-19)
(0.003 -1.3898e-19 1.35638e-18)
(0.003 -8.92878e-21 1.53466e-18)
(0.003 -1.09592e-19 1.48081e-18)
(0.003 -1.72513e-19 1.52533e-18)
(0.003 -4.56669e-20 1.54041e-18)
(0.003 -4.09682e-20 1.52479e-18)
(0.003 -5.59752e-20 1.37468e-18)
(0.003 3.7984e-20 1.23782e-18)
(0.003 1.13574e-19 1.18413e-18)
(0.003 7.82e-20 1.13975e-18)
(0.003 9.28233e-20 1.13368e-18)
(0.003 3.79857e-20 1.05077e-18)
(0.003 -2.41466e-20 9.7615e-19)
(0.003 -1.36587e-19 7.46545e-19)
(0.003 1.21243e-20 5.68271e-19)
(0.003 6.34713e-20 4.0312e-19)
(0.003 -1.2217e-19 4.14697e-19)
(0.003 -2.99296e-20 5.44435e-19)
(0.003 1.92881e-19 4.96628e-19)
(0.003 1.53339e-19 5.03145e-19)
(0.003 8.38919e-20 4.56315e-19)
(0.003 -1.1498e-19 3.76108e-19)
(0.003 -2.54474e-19 2.2762e-19)
(0.003 -1.47809e-19 9.0968e-20)
(0.003 -9.01583e-20 1.52583e-19)
(0.003 -1.64561e-19 5.72321e-20)
(0.003 -1.51195e-19 -4.72398e-20)
(0.003 -2.0727e-20 -7.96122e-20)
(0.003 7.27511e-20 4.82216e-20)
(0.003 -2.32304e-21 2.76638e-20)
(0.003 -1.18113e-19 -8.84898e-20)
(0.003 -5.77631e-20 3.91179e-20)
(0.003 -2.24185e-20 2.39614e-19)
(0.003 -1.14562e-20 2.95786e-19)
(0.003 6.83994e-20 9.14416e-20)
(0.003 3.72819e-21 -1.76069e-19)
(0.003 -4.44583e-20 -2.54826e-19)
(0.003 -4.82245e-20 -4.74972e-19)
(0.003 2.83105e-20 -5.35202e-19)
(0.003 -1.96757e-19 7.93892e-19)
(0.003 -2.0648e-19 1.38711e-18)
(0.003 -1.64719e-19 1.68095e-18)
(0.003 -1.70992e-20 1.54913e-18)
(0.003 2.23919e-20 1.44854e-18)
(0.003 -6.10684e-20 1.51644e-18)
(0.003 -1.45983e-19 1.50743e-18)
(0.003 -1.71749e-19 1.3723e-18)
(0.003 2.56849e-21 1.29682e-18)
(0.003 3.82787e-20 1.22325e-18)
(0.003 5.62249e-20 1.14236e-18)
(0.003 3.22512e-20 1.14599e-18)
(0.003 5.74707e-20 1.03979e-18)
(0.003 1.20664e-20 9.7233e-19)
(0.003 -2.97944e-20 7.60676e-19)
(0.003 2.31196e-20 6.72037e-19)
(0.003 1.28056e-19 4.94048e-19)
(0.003 2.6822e-19 2.937e-19)
(0.003 2.03177e-19 3.13493e-19)
(0.003 3.55608e-20 4.79881e-19)
(0.003 -1.325e-19 5.95349e-19)
(0.003 -1.4642e-19 6.31903e-19)
(0.003 -8.22043e-20 3.83549e-19)
(0.003 -2.55525e-20 1.94347e-19)
(0.003 -7.44589e-20 1.21719e-19)
(0.003 -1.47647e-19 1.63629e-19)
(0.003 -1.85354e-19 1.70977e-19)
(0.003 -2.58522e-19 -2.31046e-20)
(0.003 -1.84869e-19 -8.6039e-20)
(0.003 1.65802e-20 7.4339e-21)
(0.003 4.59581e-20 -3.1132e-20)
(0.003 -2.8929e-20 -3.52927e-20)
(0.003 -1.58425e-20 4.78119e-20)
(0.003 -2.22306e-21 1.22773e-19)
(0.003 -1.59271e-20 1.61076e-19)
(0.003 -1.26735e-20 9.4937e-20)
(0.003 -1.34127e-19 -1.23378e-19)
(0.003 -1.63121e-19 -2.36912e-19)
(0.003 1.84006e-21 -3.64288e-19)
(0.003 4.70582e-20 -4.23232e-19)
(0.003 -1.51413e-19 7.64918e-19)
(0.003 -2.75375e-19 1.32034e-18)
(0.003 -2.51752e-19 1.5309e-18)
(0.003 2.0558e-20 1.56426e-18)
(0.003 1.09646e-19 1.50976e-18)
(0.003 -1.37956e-19 1.47484e-18)
(0.003 -2.88352e-19 1.47654e-18)
(0.003 -1.48254e-19 1.43117e-18)
(0.003 4.39514e-20 1.36816e-18)
(0.003 6.62515e-20 1.27473e-18)
(0.003 -1.98276e-20 1.15715e-18)
(0.003 1.17575e-20 1.10816e-18)
(0.003 -1.51531e-20 1.05518e-18)
(0.003 -4.52556e-20 9.96054e-19)
(0.003 1.47583e-19 7.74782e-19)
(0.003 4.65622e-20 6.68669e-19)
(0.003 -4.11735e-21 5.78072e-19)
(0.003 1.59107e-19 4.57245e-19)
(0.003 2.72856e-19 3.92004e-19)
(0.003 3.34026e-21 3.68101e-19)
(0.003 -1.38874e-19 5.02509e-19)
(0.003 -1.24187e-19 5.3279e-19)
(0.003 -3.08235e-20 4.50199e-19)
(0.003 -3.81915e-20 2.84842e-19)
(0.003 3.18662e-20 1.30234e-19)
(0.003 -1.11319e-19 1.49571e-19)
(0.003 -1.01389e-19 1.02072e-19)
(0.003 -1.37847e-19 1.65223e-20)
(0.003 -1.45046e-19 -2.9726e-20)
(0.003 3.41951e-20 -9.08356e-20)
(0.003 2.73923e-20 -3.97419e-20)
(0.003 9.74786e-21 1.20665e-20)
(0.003 -2.31622e-20 7.6847e-20)
(0.003 -2.53017e-20 1.58624e-19)
(0.003 -8.45145e-21 8.90146e-20)
(0.003 -1.01928e-19 -1.98873e-20)
(0.003 -1.16548e-19 -8.69149e-20)
(0.003 -1.52495e-19 -1.43962e-19)
(0.003 -6.18588e-20 -2.34056e-19)
(0.003 2.32504e-20 -3.31777e-19)
(0.003 2.91431e-20 8.0419e-19)
(0.003 2.25654e-20 1.31867e-18)
(0.003 -2.72953e-20 1.47539e-18)
(0.003 -3.95861e-20 1.50881e-18)
(0.003 -8.6271e-21 1.55543e-18)
(0.003 -1.33142e-19 1.42101e-18)
(0.003 -2.42477e-19 1.35239e-18)
(0.003 -2.4735e-19 1.43345e-18)
(0.003 -1.53442e-19 1.45165e-18)
(0.003 1.01605e-19 1.32643e-18)
(0.003 1.90543e-19 1.13806e-18)
(0.003 5.99505e-20 1.14477e-18)
(0.003 9.06979e-21 9.76787e-19)
(0.003 -1.94212e-20 9.33643e-19)
(0.003 7.1737e-20 8.78463e-19)
(0.003 -1.63679e-20 7.15088e-19)
(0.003 -1.20717e-19 4.78051e-19)
(0.003 -2.15401e-19 3.35558e-19)
(0.003 -9.64706e-20 4.78577e-19)
(0.003 -1.61128e-21 4.385e-19)
(0.003 3.20448e-20 4.64678e-19)
(0.003 -1.44317e-21 5.91387e-19)
(0.003 -2.43885e-20 5.57539e-19)
(0.003 6.09569e-20 2.2791e-19)
(0.003 1.18907e-19 1.23383e-19)
(0.003 -8.54076e-21 1.43183e-19)
(0.003 3.5188e-20 1.51314e-19)
(0.003 6.81987e-20 -2.74179e-21)
(0.003 1.65684e-20 -1.78692e-19)
(0.003 -6.70499e-21 -1.05287e-19)
(0.003 -8.92801e-20 1.26061e-19)
(0.003 -9.98515e-20 7.08909e-20)
(0.003 -6.09623e-20 -2.41633e-21)
(0.003 -8.20005e-20 1.53555e-19)
(0.003 -2.95422e-20 1.16399e-19)
(0.003 3.72054e-21 2.99814e-21)
(0.003 6.53326e-21 -8.33469e-20)
(0.003 -5.49822e-20 -2.04743e-19)
(0.003 -1.65365e-19 -3.82153e-19)
(0.003 -1.70291e-19 -4.31055e-19)
(0.003 2.27074e-19 7.74382e-19)
(0.003 2.55892e-19 1.26112e-18)
(0.003 -1.64312e-20 1.45286e-18)
(0.003 -1.45251e-19 1.48323e-18)
(0.003 -8.68742e-20 1.52781e-18)
(0.003 3.79964e-21 1.45207e-18)
(0.003 -4.71525e-20 1.32559e-18)
(0.003 -1.87208e-19 1.29778e-18)
(0.003 -2.56586e-19 1.30327e-18)
(0.003 1.64533e-20 1.43005e-18)
(0.003 2.5301e-19 1.40093e-18)
(0.003 -1.38055e-20 1.21625e-18)
(0.003 -2.15897e-20 1.07789e-18)
(0.003 1.56776e-19 8.97101e-19)
(0.003 3.79579e-20 8.03045e-19)
(0.003 -7.40013e-20 6.1945e-19)
(0.003 -1.45807e-19 4.07678e-19)
(0.003 -1.71501e-19 3.30459e-19)
(0.003 -2.50425e-19 4.75405e-19)
(0.003 -1.17836e-19 4.92952e-19)
(0.003 -9.55946e-21 5.57633e-19)
(0.003 -1.30385e-19 5.43198e-19)
(0.003 -5.26358e-20 4.79739e-19)
(0.003 7.84825e-20 3.43252e-19)
(0.003 9.05012e-20 2.31676e-19)
(0.003 1.53197e-19 1.24817e-19)
(0.003 7.62488e-20 -1.49793e-20)
(0.003 2.04749e-19 -7.62136e-20)
(0.003 1.19091e-19 -1.501e-19)
(0.003 -8.98923e-20 -2.2283e-19)
(0.003 -7.45032e-20 4.82729e-20)
(0.003 -8.07282e-20 2.08798e-20)
(0.003 -2.51864e-20 -1.69834e-21)
(0.003 1.35753e-20 1.4154e-19)
(0.003 3.68019e-20 6.65702e-20)
(0.003 1.42656e-19 8.88944e-20)
(0.003 -3.61325e-21 4.89099e-20)
(0.003 -1.12035e-19 -1.67626e-19)
(0.003 -2.07897e-19 -4.3583e-19)
(0.003 -3.15749e-19 -4.1546e-19)
(0.003 2.82135e-19 8.13978e-19)
(0.003 2.91029e-19 1.33122e-18)
(0.003 4.13019e-20 1.45041e-18)
(0.003 -6.9509e-20 1.43231e-18)
(0.003 -1.0311e-19 1.44589e-18)
(0.003 3.96415e-20 1.40551e-18)
(0.003 -4.19534e-20 1.36303e-18)
(0.003 -8.10063e-20 1.28051e-18)
(0.003 -3.61298e-20 1.31333e-18)
(0.003 -4.83362e-20 1.4602e-18)
(0.003 -6.41882e-20 1.45001e-18)
(0.003 -8.85432e-21 1.14164e-18)
(0.003 -2.24083e-20 9.97644e-19)
(0.003 -5.39059e-20 1.01277e-18)
(0.003 -7.38144e-20 8.12312e-19)
(0.003 -7.75314e-20 5.67848e-19)
(0.003 -1.77902e-19 3.74909e-19)
(0.003 -2.30885e-19 3.46686e-19)
(0.003 -2.95662e-19 3.87212e-19)
(0.003 -1.45456e-19 4.52658e-19)
(0.003 -9.60164e-20 6.39641e-19)
(0.003 -1.1665e-19 5.61302e-19)
(0.003 1.34499e-19 4.97782e-19)
(0.003 2.28134e-19 3.53361e-19)
(0.003 1.19431e-19 1.43337e-19)
(0.003 1.40026e-19 8.29633e-20)
(0.003 1.20438e-19 -8.33835e-21)
(0.003 1.8921e-19 -1.63798e-19)
(0.003 1.13304e-19 -1.43884e-19)
(0.003 -2.54433e-20 -1.64111e-19)
(0.003 3.38392e-20 -5.54573e-20)
(0.003 1.11211e-19 6.99397e-21)
(0.003 7.2608e-20 1.61605e-20)
(0.003 7.82363e-21 1.21005e-19)
(0.003 6.11621e-20 1.26667e-19)
(0.003 1.33233e-19 1.05226e-19)
(0.003 1.79705e-20 -3.65409e-20)
(0.003 -1.72223e-19 -3.25184e-19)
(0.003 -1.58581e-19 -3.95908e-19)
(0.003 -1.2252e-19 -2.1628e-19)
(0.003 -2.47024e-20 8.70879e-19)
(0.003 -3.85799e-21 1.40127e-18)
(0.003 6.43415e-20 1.43836e-18)
(0.003 -1.47323e-20 1.38513e-18)
(0.003 -6.57617e-20 1.42088e-18)
(0.003 4.22579e-20 1.50385e-18)
(0.003 7.36473e-20 1.38589e-18)
(0.003 1.1988e-19 1.21987e-18)
(0.003 -1.14222e-20 1.18729e-18)
(0.003 -2.00319e-19 1.3223e-18)
(0.003 -2.26191e-19 1.36573e-18)
(0.003 -9.288e-20 1.26044e-18)
(0.003 -1.48645e-19 1.09949e-18)
(0.003 -1.84981e-19 8.62588e-19)
(0.003 -1.24347e-19 6.76534e-19)
(0.003 -2.09528e-19 6.18282e-19)
(0.003 -2.06652e-19 4.51769e-19)
(0.003 -1.68017e-19 2.80578e-19)
(0.003 -2.36505e-19 3.58026e-19)
(0.003 -2.04611e-19 5.01762e-19)
(0.003 -1.51314e-19 5.61206e-19)
(0.003 1.81612e-20 5.45445e-19)
(0.003 5.49732e-20 5.75866e-19)