/*--------------------------------*- C++ -*----------------------------------*\
| =========                 |                                                 |
| \\      /  F ield         | OpenFOAM: The Open Source CFD Toolbox           |
|  \\    /   O peration     | Version:  v2012                                 |
|   \\  /    A nd           | Website:  www.openfoam.com                      |
|    \\/     M anipulation  |                                                 |
\*---------------------------------------------------------------------------*/
FoamFile
{
    version     2.0;
    format      ascii;
    class       volScalarField;
    location    "270/bottomWater";
    object      T;
}
// * * * * * * * * * * * * * * * * * * * * * * * * * * * * * * * * * * * * * //

dimensions      [0 0 0 1 0 0 0];


internalField   nonuniform List<scalar> 
1460
(
990.11045
986.96787
990.90156
989.17146
989.75465
991.28395
988.41666
982.61838
980.94799
975.05977
974.57094
967.68813
960.5876
959.06133
957.59802
955.41949
957.08592
958.86019
961.33144
966.70299
973.90591
971.69028
971.45727
972.38918
970.0778
972.93888
975.90808
978.29897
981.74
985.65607
986.9187
985.68152
988.55782
987.39456
988.69623
989.28402
986.57078
982.21658
982.39665
973.64969
972.55283
966.74057
961.15379
959.11218
957.61156
954.93375
956.75915
957.80382
958.82434
963.79528
968.89984
967.13748
968.49611
968.04395
967.96328
971.34325
975.0239
976.90683
978.56095
980.74784
985.2477
985.32101
986.81615
987.03392
988.73353
989.64042
986.82255
987.20388
983.6891
973.3206
971.81101
966.93471
963.86416
959.51776
958.41743
954.81587
956.68584
959.05698
959.23545
963.15044
965.55987
965.97685
968.2648
966.92522
967.33298
971.54811
975.52659
977.25401
978.39025
979.96245
984.31215
985.00423
985.54563
986.5569
989.07652
988.88355
986.99166
986.76837
982.73092
971.35791
970.10857
967.28082
964.84132
959.97015
959.1523
954.80955
955.61901
958.82928
960.24124
963.35538
964.16172
965.89262
968.95891
965.98277
966.88885
970.93695
973.948
975.39807
975.87943
975.36933
983.67002
984.56671
985.09985
985.60234
986.28839
986.56461
986.00666
985.4957
983.50097
972.09117
969.67869
966.1038
963.71032
961.55045
959.77335
955.1017
954.76436
957.6526
959.46571
960.81661
962.3775
964.67422
965.1494
964.94292
966.36675
970.59348
971.83115
972.87018
973.40767
972.622
989.24621
987.54586
987.89405
988.96646
990.37136
991.82124
992.46318
987.74325
983.17759
979.5657
978.44673
973.29793
963.16227
961.3321
959.2864
957.26166
956.02418
958.3556
960.13632
962.62391
969.8167
974.64717
973.19244
973.36297
972.77146
975.12797
977.64314
980.53411
983.1071
987.39451
987.24664
986.63812
987.67472
988.4276
988.95855
989.79708
989.67497
983.8708
982.11068
980.93191
978.14243
972.7536
960.27972
958.36473
956.47562
954.52439
954.61009
958.77643
959.68222
961.04357
968.49307
970.64179
970.88101
970.73008
970.43101
972.07413
974.19905
976.40889
978.44006
981.80614
986.63355
986.35762
987.57937
988.40769
989.62621
989.98696
989.9318
984.71077
983.93984
981.88768
975.23824
971.51609
960.40759
959.11396
957.61912
952.88262
954.33735
959.08679
961.29935
961.80367
968.20959
970.8757
971.72158
970.83311
971.01424
973.43019
974.84195
975.77638
977.31764
980.42744
986.47919
986.50397
987.03376
987.36331
988.96626
989.94564
990.10214
985.71982
983.99829
981.12625
976.75445
971.26032
962.72069
960.37505
957.47212
952.32871
956.2445
961.64727
962.78474
963.30034
967.64032
969.84865
971.16751
969.44589
969.07545
972.33827
973.84298
974.79595
976.34673
980.0606
985.55115
985.74774
986.10108
986.1232
986.93209
988.44281
989.17281
985.67894
982.15364
973.00205
974.17356
969.60719
963.99324
960.66567
958.59766
952.76079
953.73732
957.01907
959.11154
961.09835
964.33225
966.42697
967.01166
966.8934
967.97599
970.33839
972.08725
972.89842
974.30266
976.43906
991.17117
990.05042
989.71557
991.00364
991.61026
991.46109
991.39485
985.8905
984.52774
982.09016
980.41741
976.57455
967.16441
962.59285
960.16148
958.23847
955.14347
955.9974
958.97923
961.57508
966.08693
973.75366
976.55861
977.61446
977.01028
976.65722
978.31163
978.20752
978.29269
981.85143
988.6843
988.36714
989.50443
989.58964
989.65534
989.55162
988.77512
984.76434
982.83308
980.8777
979.11493
974.88328
961.00171
958.42597
956.59013
955.29039
954.63032
953.52458
955.94242
958.18617
962.46081
972.66141
973.2375
972.7867
972.35515
973.50195
974.45331
973.44736
971.90307
974.58267
988.37843
989.26989
989.35972
988.6049
989.79374
989.7494
989.44773
987.41463
984.7075
982.0733
979.57744
973.87325
961.09547
958.31899
956.58795
954.26809
954.45103
952.51711
956.97036
958.82443
962.87061
971.80516
973.46892
973.21212
972.63502
973.28332
974.29935
972.97951
972.09634
974.6989
988.26941
988.09908
988.77986
988.56115
989.18594
987.96803
988.40196
985.81912
980.39189
979.63842
977.67177
973.08577
961.42453
957.64247
955.25248
951.80617
953.93141
956.11107
959.65818
960.61698
962.99086
970.65037
972.43955
972.42117
971.9478
971.90087
972.69487
972.53417
972.06601
974.83299
987.21401
987.17074
987.64437
987.20152
986.10688
985.34584
986.56283
984.38133
978.11288
974.27522
974.17813
971.73542
962.18214
959.22155
957.12498
949.38954
951.52001
955.03291
958.31705
960.25955
961.82742
968.70802
969.0385
969.08449
969.66881
968.12224
967.57521
969.89056
970.59227
972.34405
994.08526
992.73218
991.26024
989.45319
988.49643
987.86051
987.73569
983.58445
979.51227
975.93135
974.87765
973.97413
967.55833
956.1435
948.32796
945.96547
943.96322
948.45363
953.07802
960.47746
969.08446
972.03621
972.80723
971.85642
970.85627
970.51688
973.08868
973.25004
973.58122
977.04903
991.30306
990.64735
989.75397
987.70804
987.28162
987.49081
987.89081
984.93442
978.75618
975.00546
973.72927
973.01962
965.19508
950.64988
947.95379
945.78975
944.86298
945.39084
950.25212
956.26433
969.09103
971.5479
971.83376
971.23421
970.18622
968.49719
969.85107
968.5537
967.91864
968.71411
991.08635
990.86652
989.96683
987.54461
988.45806
988.23139
987.77804
985.37871
976.26389
975.26008
975.20502
972.31158
963.86957
949.33554
945.87197
945.27501
944.50442
942.99255
950.32539
958.35237
968.6569
971.37558
972.12243
971.62873
970.19018
967.92767
966.35073
966.17122
965.82861
966.38376
991.05655
991.09797
991.07437
987.68288
988.07114
987.19697
986.62792
984.74805
974.21994
972.3833
970.47378
969.36096
964.13686
948.04351
942.60678
941.576
941.89364
948.00628
954.30294
960.17251
968.17507
970.55789
971.4333
971.45032
971.14145
967.4314
965.66057
965.42454
965.86175
967.8346
989.8205
989.39858
989.41923
987.97586
987.23258
986.17126
985.62595
982.03552
973.28145
970.75024
969.89665
968.36138
961.08545
951.58062
941.27771
941.6881
945.54183
951.44668
956.59461
960.43264
965.65697
967.33516
967.38075
967.41737
967.31986
966.25718
965.20342
965.59497
966.34318
966.83687
995.83621
993.38687
990.6391
987.17569
985.62103
984.77631
983.08058
978.86407
968.31912
967.09541
966.86772
967.06904
955.41534
936.77311
960.398
963.33816
965.75693
968.86923
971.03003
970.25421
968.97569
967.6292
970.80125
965.37876
966.21818
970.36452
993.53098
992.4248
991.6772
985.97294
985.69485
985.05424
984.28845
979.93703
967.03384
965.16202
965.45948
965.90391
958.63723
935.55794
958.33795
960.81499
965.83701
968.49252
969.40121
968.74583
967.4917
966.75733
966.99385
964.32243
964.79911
967.11243
993.31335
992.56782
991.52361
985.99134
985.94572
985.107
984.5085
980.27609
966.42434
964.30596
964.96071
961.75125
956.28706
934.89006
956.9269
962.07219
965.93057
968.87788
969.93734
968.64435
966.774
966.33026
964.91902
963.8588
964.80187
966.04781
993.33929
993.13814
990.71374
986.42083
986.00486
984.23714
983.08152
978.88876
961.97089
958.9487
958.22505
956.58487
952.54274
932.5466
950.7351
962.94186
965.86131
968.42562
969.39804
967.86353
965.45986
966.46055
963.84051
962.94933
964.20199
966.40146
990.94905
990.9726
989.83259
988.39982
986.87256
985.97449
983.41335
979.82677
960.8977
958.3062
955.46496
951.35002
939.80691
941.83053
952.61147
960.50272
963.44983
965.45003
966.54192
965.76926
965.08216
963.84778
962.86187
962.18913
963.46508
964.04097
994.02938
991.19159
988.33438
984.30932
981.72138
979.46103
972.62229
975.95458
972.06125
963.9583
961.85683
961.05281
950.04785
942.59496
954.70326
958.47336
961.14519
963.08804
968.09921
967.00036
967.32894
968.24466
969.50249
971.4593
973.79294
976.46067
990.95245
989.92588
988.78229
983.42244
982.41338
981.59775
970.41731
974.24643
969.75072
964.12927
960.62781
961.19717
953.5419
937.15244
953.51473
957.64982
962.57797
965.22499
967.94009
967.66213
967.21673
966.74003
966.28509
967.23759
967.55704
969.87956
990.65514
989.49803
988.4849
984.26981
984.70248
982.16532
969.36278
969.90293
967.59177
963.64938
959.14017
958.14547
951.56671
928.7011
951.30982
960.87991
962.79472
967.40501
967.86549
967.77283
967.58587
966.62922
965.8383
966.46207
968.1677
969.59691
990.91922
990.77524
989.71921
985.94526
984.28633
981.46207
966.54565
966.78613
959.92996
956.54476
954.26126
952.48469
949.64667
932.45409
957.69437
961.76299
964.59883
967.23785
966.21939
966.8019
967.34142
966.83228
964.49041
964.72671
968.55247
969.22667
988.40358
989.32456
988.8675
987.10671
986.12736
982.51958
964.75583
961.69156
958.87006
955.93985
951.81657
948.15855
942.96986
934.27402
951.19313
958.21425
961.89253
964.44304
963.59304
962.12362
964.09413
964.15638
962.82313
962.7239
965.36036
966.45052
989.82141
987.87126
986.65709
984.89407
982.9917
980.16964
976.33969
976.90403
976.01367
967.23834
962.02127
956.2893
951.06825
945.35407
943.74854
941.99939
941.17478
942.58775
949.37034
955.46996
957.52813
959.78525
964.28904
965.34102
965.27178
967.13363
968.09435
967.5862
968.68792
970.88749
987.53874
986.42681
985.37991
984.37399
983.3932
978.28672
974.60462
974.64496
973.15111
967.37663
963.23957
957.36854
953.10387
947.90938
943.84909
941.56981
940.34962
940.30495
949.89644
957.94403
960.89393
960.83193
965.88827
965.44279
965.93795
966.61876
966.20437
965.73458
965.73435
966.7857
987.86143
986.85187
985.44654
985.07406
982.88554
977.82911
973.23636
970.65468
971.93338
965.97511
963.01336
956.19727
947.99195
942.14058
942.08457
940.26871
940.67463
936.81519
947.04489
957.42549
961.07293
961.41886
966.5086
966.23702
965.90051
966.81858
965.98644
966.08299
966.01932
966.49944
988.61646
987.42822
986.55851
985.07486
980.23377
974.55719
973.57167
969.42784
968.77556
960.38488
958.60196
956.41248
947.55247
944.02799
940.80802
938.66059
938.12331
934.40535
943.53347
956.64758
961.09627
961.35726
965.74643
966.02201
965.50642
965.29234
964.9872
964.64144
966.04875
966.16452
986.92186
987.231
987.05097
985.44111
977.16514
970.51281
969.03605
967.199
964.99936
960.83884
958.05363
955.74293
948.90991
940.47959
936.97235
933.51493
932.97054
933.12926
942.015
955.32975
960.42434
962.06414
962.648
963.51976
963.58368
963.81174
962.40723
961.80259
964.37958
965.10359
987.33157
985.819
983.7905
983.54382
982.46995
980.30266
976.35401
976.94758
977.47412
967.49568
963.89362
962.48734
958.91352
955.54862
952.4221
950.03708
947.85887
945.43711
947.82255
952.37481
952.6195
951.22026
955.19063
956.32813
957.80736
961.19018
964.78092
961.9349
964.37604
967.46967
985.8406
985.62931
983.94883
982.74641
982.29348
981.59165
976.86143
975.2551
975.05788
969.23418
964.88152
963.96351
961.02073
957.38708
951.62869
951.27775
952.21326
948.66959
951.9838
954.54686
953.67533
951.6767
956.49891
957.56598
958.87039
963.39238
962.19482
961.704
960.99045
963.19855
987.59817
986.20303
984.2531
983.02346
982.55468
981.9724
977.03374
972.53362
974.18825
970.18038
964.96215
962.40749
961.22892
957.28624
949.24475
946.75051
951.86835
949.08791
948.44299
953.56204
953.63811
951.59002
956.65114
958.57426
958.82307
963.70622
962.01194
961.99529
961.8127
962.48748
987.36186
985.63
984.11841
979.41913
978.42175
979.79119
977.97536
973.0787
972.86188
970.50391
966.08413
965.84476
965.0811
960.12378
949.88368
946.0279
951.65529
949.44086
947.67819
951.99779
951.55114
951.12197
957.95556
959.54642
958.93261
963.63015
962.098
960.66634
960.87879
961.32008
986.69076
986.10762
985.72075
977.68039
974.22598
974.2935
973.82276
971.77767
970.99106
969.84362
966.52305
964.25624
960.30857
953.21615
946.8505
946.24757
948.36559
948.46817
948.45643
948.76189
948.88398
950.86137
957.5571
958.24069
958.21034
962.2847
961.16786
959.96324
959.39017
959.49297
984.69077
983.75514
981.3895
981.23979
980.5509
979.54362
977.09861
978.47183
976.49473
970.59794
971.49733
969.93289
966.4176
958.22427
956.972
955.01904
952.53452
946.97234
936.24636
946.81763
950.33022
952.1138
954.25734
956.02584
957.58142
959.80059
965.38943
959.05192
960.65823
964.47644
984.12637
984.16015
982.39077
981.39753
980.44107
979.72278
977.47608
977.04343
976.48018
971.26285
971.63244
970.07256
968.6699
959.49645
957.91726
956.13819
955.96281
955.88591
953.28794
953.46729
952.73349
952.06258
953.67234
954.98139
956.12832
959.8733
959.53044
958.11966
957.61062
961.61849
984.07181
984.16207
982.20372
981.41478
980.62129
980.36205
977.36501
975.8374
976.12934
971.19157
970.55567
969.61685
967.95351
963.07194
957.91667
955.50819
954.6594
955.46516
952.93354
953.27879
952.49616
951.85261
952.23916
954.62456
955.90952
959.40378
958.91941
958.26797
958.3392
958.89403
982.47719
982.62632
981.77701
981.01509
980.71789
980.46305
978.71549
977.25732
975.69629
971.25612
970.0795
971.53621
970.7091
962.81543
955.19113
952.19132
953.11776
954.68221
952.85256
952.68218
952.44005
951.25738
951.63878
954.49817
955.66889
958.63113
957.86917
957.22154
956.50035
956.38712
982.66651
982.90911
981.59648
976.01477
976.561
976.01083
975.26062
974.77099
974.15994
970.19188
969.0195
968.43643
966.11354
962.18762
953.29987
951.09529
951.97991
952.87761
952.23643
951.74322
951.29215
950.6402
950.66525
954.27392
954.84444
957.16906
956.47274
956.01597
955.51332
955.59935
982.26709
980.5927
979.31132
979.87272
980.18123
981.2096
980.40627
981.30204
978.1709
976.94003
977.33746
975.22101
971.13065
964.40787
960.88691
959.69116
958.65614
952.50211
937.99988
939.67423
947.83904
950.87048
953.42655
954.95813
956.55741
958.08729
960.88965
957.55287
957.50363
963.1164
980.64787
979.98063
978.80661
978.99701
980.15947
980.33877
979.97986
979.89393
978.62417
977.02269
976.57932
974.40864
972.97615
964.28459
961.11973
960.45151
960.06327
959.3276
954.53595
953.28886
953.14897
952.95752
953.40811
954.03752
954.82896
956.63231
957.21668
956.05716
954.87337
960.16589
980.85418
980.19304
978.66779
978.63406
980.7763
980.44232
980.41128
980.2004
978.69818
977.44747
977.47047
974.01546
970.02453
964.99566
961.71713
961.04623
959.82528
956.10412
954.61188
953.33656
953.29073
952.90961
953.0723
953.67938
954.73341
956.09193
956.61072
956.39764
954.57793
954.48006
980.80592
979.36119
977.50876
977.08031
980.5765
979.73068
980.84861
980.30916
978.69785
977.43136
976.996
975.58606
971.00338
965.19142
958.67857
958.36213
957.42019
955.30033
954.99632
953.67672
953.52748
952.33132
951.79241
951.68643
953.75434
955.56712
955.88116
955.54683
954.00118
953.78798
980.10483
980.16329
977.0263
974.70649
974.77754
975.35991
976.37496
977.39884
977.49067
973.97259
973.25008
971.91294
970.21473
964.21538
952.37365
953.41807
954.33277
954.08034
954.35153
952.98356
952.29346
951.59267
950.69077
950.47841
950.36475
952.97554
952.71168
952.5633
952.62837
952.88007
)
;

boundaryField
{
    minX
    {
        type            zeroGradient;
    }
    maxX
    {
        type            zeroGradient;
    }
    minY
    {
        type            fixedValue;
        value           uniform 1073;
    }
    minZ
    {
        type            zeroGradient;
    }
    maxZ
    {
        type            zeroGradient;
    }
    bottomWater_to_rightSolid
    {
        type            compressible::turbulentTemperatureCoupledBaffleMixed;
        refValue        nonuniform List<scalar> 
130
(
722.20867
729.50628
737.08983
744.57364
751.66516
758.1519
763.91819
768.91079
773.10125
776.45395
778.9676
780.64164
781.47531
716.9187
725.43338
734.08434
742.42627
750.16246
757.11138
763.19605
768.39786
772.71733
776.15629
778.72623
780.44033
781.30276
706.24652
717.56627
728.50457
738.55944
747.53008
755.32332
761.97348
767.53989
772.07782
775.65071
778.31033
780.07467
780.96057
690.21925
706.85282
721.49885
734.00164
744.53544
753.33797
760.63481
766.60974
771.40468
775.13283
777.87881
779.69131
780.59443
671.1601
696.56892
715.62652
730.47244
742.32194
751.89587
759.65478
765.91481
770.88737
774.72323
777.52893
779.37709
780.29586
670.92435
696.32041
715.36904
730.21367
742.05985
751.6272
759.38934
765.66625
770.65338
774.49661
777.31065
779.17042
780.0962
689.58048
706.1481
720.77153
733.24776
743.75845
752.55583
759.86326
765.85849
770.68024
774.42343
777.17717
779.00337
779.9132
705.45881
716.62739
727.43627
737.38319
746.2702
754.04903
760.70418
766.28772
770.86209
774.44633
777.09626
778.85155
779.72948
716.04969
724.37551
732.84182
741.01724
748.62437
755.50417
761.5716
766.7665
771.08447
774.51142
777.06728
778.76712
779.61891
721.30485
728.40083
735.77835
743.07576
750.01394
756.39943
762.10987
767.06644
771.23104
774.56392
777.06413
778.73351
779.5711
)
;
        refGradient     uniform 0;
        valueFraction   uniform 0.99248593;
        value           nonuniform List<scalar> 
130
(
723.97783
731.23424
738.77096
746.21024
753.26578
759.70733
765.42874
770.39447
774.58522
777.92204
780.42462
782.09013
782.9116
718.72282
727.18926
735.79015
744.09364
751.78754
758.68865
764.72667
769.89748
774.20224
777.62852
780.18525
781.89702
782.76903
708.1159
719.37531
730.24603
740.23711
749.1921
756.92924
763.52976
769.05871
773.55094
777.09283
779.74984
781.50624
782.39864
692.18216
708.72943
723.2943
735.74224
746.20954
754.94629
762.18857
768.11784
772.86876
776.56101
779.28929
781.09379
781.99382
673.19377
698.4929
717.46655
732.22298
743.99853
753.50874
761.20353
767.41135
772.33729
776.13695
778.91649
780.76031
781.6765
672.90274
698.23547
717.19373
731.95452
743.73087
753.21993
760.91274
767.15729
772.10741
775.91175
778.70386
780.56946
781.49649
691.41046
707.92036
722.53386
734.95475
745.39879
754.13447
761.39354
767.34418
772.13146
775.83599
778.56448
780.39633
781.30476
707.28481
718.36938
729.09934
738.97243
747.80751
755.57819
762.1885
767.72987
772.30051
775.84941
778.47038
780.20815
781.08027
717.82922
726.08769
734.48668
742.59728
750.14235
756.97061
763.01959
768.17974
772.48271
775.8787
778.41192
780.09523
780.94129
723.05397
730.09869
737.41046
744.64784
751.52863
757.85937
763.52531
768.44377
772.59665
775.90253
778.38286
780.0402
780.87341
)
;
        Tnbr            T;
        thicknessLayers List<scalar> 0();
        kappaLayers     List<scalar> 0();
        kappaMethod     fluidThermo;
        kappa           none;
        alphaAni        none;
        alpha           none;
        field           T;
    }
    bottomWater_to_leftSolid
    {
        type            compressible::turbulentTemperatureCoupledBaffleMixed;
        refValue        nonuniform List<scalar> 
130
(
818.57725
818.56397
818.52185
818.44109
818.31316
818.12662
817.87308
817.55312
817.17596
816.76512
816.42808
816.16999
816.0255
818.6124
818.59115
818.538
818.44313
818.30274
818.10825
817.84577
817.50515
817.11499
816.71182
816.38057
816.11054
815.9459
818.65496
818.62388
818.55368
818.43256
818.25721
818.02703
817.73902
817.37732
816.96498
816.56483
816.22226
815.94267
815.75639
818.67955
818.63701
818.54488
818.39322
818.18429
817.91384
817.57923
817.17247
816.71464
816.29092
815.92618
815.63332
815.44095
818.6397
818.59004
818.47782
818.29932
818.05457
817.74175
817.3548
816.90423
816.39045
815.94423
815.56118
815.25342
815.04759
818.51199
818.46069
818.33985
818.14167
817.86805
817.51047
817.06474
816.62913
816.19861
815.79864
815.44695
815.17135
815.00048
818.34582
818.28779
818.15816
817.94578
817.64985
817.30522
816.94687
816.58363
816.22345
815.87817
815.57673
815.34299
815.19271
818.17124
818.10716
817.97078
817.7488
817.49459
817.224
816.93926
816.6434
816.34986
816.06607
815.80967
815.61112
815.48993
817.9903
817.93194
817.8054
817.61741
817.41508
817.194
816.96078
816.72016
816.47388
816.22476
816.01128
815.84885
815.75092
817.87467
817.81874
817.6979
817.53767
817.36181
817.17373
816.97841
816.77673
816.56505
816.3453
816.1567
816.01073
815.9249
)
;
        refGradient     uniform 0;
        valueFraction   uniform 0.99248593;
        value           nonuniform List<scalar> 
130
(
819.81779
819.81135
819.77354
819.69716
819.57536
819.39229
819.13648
818.81508
818.4257
817.93213
817.57961
817.29657
817.1352
819.8668
819.8472
819.79709
819.70309
819.56984
819.38817
819.13315
818.76883
818.355
817.88619
817.56623
817.26388
817.05834
819.92154
819.89037
819.82425
819.7007
819.51845
819.28428
819.00758
818.63217
818.17587
817.74989
817.40915
817.11327
816.85671
819.96553
819.92014
819.82884
819.66748
819.45453
819.17814
818.84196
818.41129
817.89112
817.45154
817.08312
816.78087
816.53525
819.93446
819.88536
819.7654
819.57747
819.32309
819.00587
818.60265
818.12849
817.47625
817.01387
816.61226
816.27585
815.9849
819.78858
819.74459
819.62123
819.4113
819.13238
818.75036
818.17462
817.71922
817.27071
816.85174
816.47172
816.17071
815.9621
819.61253
819.55726
819.42724
819.20436
818.84862
818.45646
818.08972
817.71541
817.34142
816.96749
816.64736
816.39811
816.19759
819.43754
819.36955
819.23128
818.95049
818.6723
818.40423
818.11812
817.80914
817.51188
817.22159
816.94214
816.72801
816.57809
819.22773
819.17162
819.03614
818.80766
818.61095
818.38738
818.1503
817.90781
817.65879
817.38169
817.16101
816.99538
816.88071
819.0937
819.03864
818.89511
818.71868
818.54465
818.36233
818.1761
817.98365
817.77428
817.52975
817.33714
817.1822
817.08424
)
;
        Tnbr            T;
        thicknessLayers List<scalar> 0();
        kappaLayers     List<scalar> 0();
        kappaMethod     fluidThermo;
        kappa           none;
        alphaAni        none;
        alpha           none;
        field           T;
    }
    bottomWater_to_heater
    {
        type            compressible::turbulentTemperatureCoupledBaffleMixed;
        refValue        nonuniform List<scalar> 
92
(
704.75164
706.6504
710.35197
715.66053
696.24252
698.46896
702.84096
709.15404
678.27685
681.15287
686.94393
695.54049
344.29294
341.43998
341.45997
344.27444
417.95318
414.40443
414.58981
418.3086
480.08029
477.0251
477.67153
481.56536
532.08953
530.08769
531.84928
536.42641
648.88039
574.31296
652.47783
574.18376
660.30424
578.44412
672.96809
585.80238
344.29294
344.27444
417.95318
418.3086
480.08029
481.56536
532.08953
536.42641
574.31296
585.80238
344.23478
344.23478
341.41166
341.44341
344.27924
344.27924
417.88065
417.88065
414.35665
414.54881
418.2725
418.2725
480.00068
480.00068
476.97001
477.61294
481.48396
481.48396
532.03179
532.03179
530.04164
531.79318
536.35427
536.35427
574.27358
574.27358
574.1317
578.35983
585.66316
585.66316
648.581
652.16088
659.90486
672.45219
677.85652
680.6863
686.42218
694.90477
695.81207
697.96967
702.26835
708.45627
704.31625
706.12946
709.75521
714.93815
)
;
        refGradient     uniform 0;
        valueFraction   nonuniform List<scalar> 
92
(
0.99248593
0.99248593
0.99248593
0.99248593
0.99248593
0.99248593
0.99248593
0.99248593
0.99248593
0.99248593
0.99248593
0.99248593
0.99248593
0.99248593
0.99248593
0.99248593
0.99248593
0.99248593
0.99248593
0.99248593
0.99248593
0.99248593
0.99248593
0.99248593
0.99248593
0.99248593
0.99248593
0.99248593
0.99248593
0.99248593
0.99248593
0.99248593
0.99248593
0.99248593
0.99248593
0.99248593
0.99248593
0.99248593
0.99248593
0.99248593
0.99248593
0.99248593
0.99248593
0.99248593
0.99248593
0.99248593
0.99248593
0.99248593
0.99248593
0.99248593
0.99248593
0.99248593
0.99248593
0.99248593
0.99248593
0.99248593
0.99248593
0.99248593
0.99248593
0.99248593
0.99248593
0.99248593
0.99248593
0.99248593
0.99248593
0.99248593
0.99248593
0.99248593
0.99248593
0.99248593
0.99248593
0.99248593
0.99248593
0.99248593
0.99248593
0.99248593
0.99248593
0.99248593
0.99248593
0.99248593
0.99248593
0.99248593
0.99248593
0.99248593
0.99248593
0.99248593
0.99248593
0.99248593
0.99248593
0.99248593
0.99248593
0.99248593
)
;
        value           nonuniform List<scalar> 
92
(
706.68125
708.5524
712.191
717.45717
698.22944
700.42359
704.71879
710.99184
680.38794
683.22655
688.91584
697.46392
348.89038
346.0002
346.00225
348.7806
421.95591
418.41361
418.5814
422.26526
483.60634
480.54817
481.18534
485.04406
535.21501
533.18733
534.92805
539.47326
651.15467
577.14755
654.64761
576.94184
662.41857
581.17355
675.01622
588.50548
348.88501
348.72659
422.01595
422.19533
483.65857
484.97178
535.24885
539.40301
577.05916
588.47743
348.78694
348.75163
345.93767
345.95603
348.77507
348.76437
421.90571
421.86329
418.3353
418.5089
422.17139
422.19546
483.54412
483.47328
480.46492
481.08937
484.84445
484.93434
535.16983
535.12752
533.12817
534.8504
539.33077
539.37312
577.04404
577.02532
576.85818
581.02858
588.28221
588.2729
650.77438
654.30105
661.96087
674.40979
679.92555
682.68632
688.37455
696.80929
697.81356
699.8882
704.13806
710.28612
706.26912
707.97978
711.58613
716.73699
)
;
        Tnbr            T;
        thicknessLayers List<scalar> 0();
        kappaLayers     List<scalar> 0();
        kappaMethod     fluidThermo;
        kappa           none;
        alphaAni        none;
        alpha           none;
        field           T;
    }
}


// ************************************************************************* //
