/*--------------------------------*- C++ -*----------------------------------*\
| =========                 |                                                 |
| \\      /  F ield         | OpenFOAM: The Open Source CFD Toolbox           |
|  \\    /   O peration     | Version:  v2012                                 |
|   \\  /    A nd           | Website:  www.openfoam.com                      |
|    \\/     M anipulation  |                                                 |
\*---------------------------------------------------------------------------*/
FoamFile
{
    version     2.0;
    format      ascii;
    class       volScalarField;
    location    "210/heater";
    object      T;
}
// * * * * * * * * * * * * * * * * * * * * * * * * * * * * * * * * * * * * * //

dimensions      [0 0 0 1 0 0 0];


internalField   nonuniform List<scalar> 
80
(
676.83285
678.51566
681.79997
686.49265
669.0627
671.04932
674.97508
680.59737
652.64776
655.25385
660.50942
668.22639
625.82524
629.10674
636.20221
647.66144
342.63395
339.76212
339.83511
342.78835
412.72688
409.17956
409.44808
413.38478
471.28078
468.15913
468.83216
472.9203
519.76351
517.55158
519.18982
523.82561
558.4972
557.98411
561.85411
568.90345
586.51979
589.36632
597.2312
613.27714
342.72716
339.80475
339.85213
342.79856
412.89706
409.26869
409.49495
413.40069
471.42083
468.24655
468.88203
472.93716
519.82107
517.60191
519.21871
523.83575
558.52466
558.00175
561.87433
568.91854
586.58011
589.41929
597.28202
613.31846
626.09284
629.31042
636.3926
647.81276
653.03754
655.61857
660.85192
668.52575
669.50855
671.50911
675.43379
681.01597
677.30615
679.00072
682.29939
686.96339
)
;

boundaryField
{
    minY
    {
        type            fixedValue;
        value           uniform 300;
    }
    minZ
    {
        type            zeroGradient;
    }
    maxZ
    {
        type            zeroGradient;
    }
    heater_to_topAir
    {
        type            compressible::turbulentTemperatureCoupledBaffleMixed;
        refValue        nonuniform List<scalar> 
40
(
468.28998
469.31693
468.66747
466.48561
444.45518
440.35071
435.07803
429.40402
453.85094
451.25259
446.09853
438.44563
465.88345
467.62469
467.7226
466.32381
465.31515
465.77612
464.74503
464.20091
465.13896
465.36145
464.06104
463.51394
465.57908
467.06786
466.78886
465.19933
453.69122
450.9874
445.6429
437.80249
444.40371
440.27065
434.93468
429.16595
468.30696
469.31622
468.63372
466.40212
)
;
        refGradient     uniform 0;
        valueFraction   nonuniform List<scalar> 
40
(
0.00032132529
0.00032132529
0.00032132529
0.00032132529
0.00032132529
0.00032132529
0.00032132529
0.00032132529
0.00032132529
0.00032132529
0.00032132529
0.00032132529
0.00032132529
0.00032132529
0.00032132529
0.00032132529
0.00032132529
0.00032132529
0.00032132529
0.00032132529
0.00032132529
0.00032132529
0.00032132529
0.00032132529
0.00032132529
0.00032132529
0.00032132529
0.00032132529
0.00032132529
0.00032132529
0.00032132529
0.00032132529
0.00032132529
0.00032132529
0.00032132529
0.00032132529
0.00032132529
0.00032132529
0.00032132529
0.00032132529
)
;
        value           nonuniform List<scalar> 
40
(
676.75618
678.4387
681.72162
686.41193
668.98116
670.96572
674.88835
680.50681
652.57515
655.17938
660.43136
668.14309
625.76587
629.04672
636.13956
647.59434
586.4742
589.3198
597.18149
613.22156
586.53437
589.37262
597.23217
613.26275
626.03309
629.25011
636.32997
647.74554
652.96472
655.54409
660.77391
668.44247
669.42713
671.42565
675.34717
680.92544
677.22975
678.92396
682.22114
686.88268
)
;
        Tnbr            T;
        thicknessLayers List<scalar> 0();
        kappaLayers     List<scalar> 0();
        kappaMethod     solidThermo;
        kappa           none;
        alphaAni        none;
        alpha           none;
        field           T;
    }
    heater_to_rightSolid
    {
        type            compressible::turbulentTemperatureCoupledBaffleMixed;
        refValue        nonuniform List<scalar> 10(692.24563 687.46669 677.78328 663.20499 645.87002 645.8942 663.29262 678.0145 687.81505 692.65319);
        refGradient     uniform 0;
        valueFraction   nonuniform List<scalar> 10(0.49999997 0.49999997 0.49999997 0.49999997 0.49999997 0.49999997 0.49999997 0.49999997 0.49999997 0.49999997);
        value           nonuniform List<scalar> 10(689.36412 684.02711 673.0001 655.4288 629.56974 629.60254 655.54842 673.26556 684.4107 689.80337);
        Tnbr            T;
        thicknessLayers List<scalar> 0();
        kappaLayers     List<scalar> 0();
        kappaMethod     solidThermo;
        kappa           none;
        alphaAni        none;
        alpha           none;
        field           T;
    }
    heater_to_leftSolid
    {
        type            compressible::turbulentTemperatureCoupledBaffleMixed;
        refValue        nonuniform List<scalar> 10(762.25259 762.21779 762.15527 762.0699 762.0442 762.04233 762.20928 762.40508 762.55003 762.63855);
        refGradient     uniform 0;
        valueFraction   nonuniform List<scalar> 10(2.0832898e-05 2.0832898e-05 2.0832898e-05 2.0832898e-05 2.0832898e-05 2.0832898e-05 2.0832898e-05 2.0832898e-05 2.0832898e-05 2.0832898e-05);
        value           nonuniform List<scalar> 10(676.82496 669.05527 652.64131 625.8201 586.5168 586.57705 626.0875 653.03105 669.5014 677.29868);
        Tnbr            T;
        thicknessLayers List<scalar> 1(0.001);
        kappaLayers     List<scalar> 1(0.0005);
        kappaMethod     solidThermo;
        kappa           none;
        alphaAni        none;
        alpha           none;
        field           T;
    }
    heater_to_bottomWater
    {
        type            compressible::turbulentTemperatureCoupledBaffleMixed;
        refValue        nonuniform List<scalar> 
92
(
971.47769
969.31205
965.56022
966.14428
968.91169
963.89653
964.19986
966.2057
959.49222
958.37392
963.47288
964.66494
964.1367
958.93701
965.13839
968.36391
957.85931
953.15762
956.71825
960.35296
951.83567
949.61641
952.55967
957.92799
956.69737
951.27023
952.80009
957.12396
945.32683
945.32683
947.45458
947.45458
952.30929
952.30929
958.97783
958.97783
961.47941
958.58967
950.88459
959.14541
951.92059
954.68114
956.67901
946.75306
960.42031
946.58957
975.27582
965.48045
965.49375
965.32097
960.53103
965.7333
967.56559
968.94729
965.49823
964.32214
956.97664
962.3918
961.803
967.62283
964.70932
960.82254
953.22848
957.81392
956.41595
965.75843
961.60726
953.96235
946.09818
954.22404
955.90251
957.80337
942.94332
949.95613
946.50942
956.39536
957.80337
942.94332
949.95613
956.39536
965.3978
958.95727
963.56951
964.76359
965.92927
965.02691
968.12178
969.54053
967.04107
966.30085
968.51163
969.92248
)
;
        refGradient     uniform 0;
        valueFraction   nonuniform List<scalar> 
92
(
0.0075140686
0.0075140686
0.0075140686
0.0075140686
0.0075140686
0.0075140686
0.0075140686
0.0075140686
0.0075140686
0.0075140686
0.0075140686
0.0075140686
0.0075140686
0.0075140686
0.0075140686
0.0075140686
0.0075140686
0.0075140686
0.0075140686
0.0075140686
0.0075140686
0.0075140686
0.0075140686
0.0075140686
0.0075140686
0.0075140686
0.0075140686
0.0075140686
0.0075140686
0.0075140686
0.0075140686
0.0075140686
0.0075140686
0.0075140686
0.0075140686
0.0075140686
0.0075140679
0.0075140679
0.0075140679
0.0075140679
0.0075140679
0.0075140679
0.0075140679
0.0075140679
0.0075140679
0.0075140679
0.0075140679
0.0075140686
0.0075140686
0.0075140686
0.0075140679
0.0075140686
0.0075140679
0.0075140686
0.0075140686
0.0075140686
0.0075140679
0.0075140686
0.0075140679
0.0075140686
0.0075140686
0.0075140686
0.0075140679
0.0075140686
0.0075140679
0.0075140686
0.0075140686
0.0075140686
0.0075140679
0.0075140686
0.0075140679
0.0075140686
0.0075140686
0.0075140686
0.0075140679
0.0075140686
0.0075140686
0.0075140686
0.0075140686
0.0075140686
0.0075140686
0.0075140686
0.0075140686
0.0075140686
0.0075140686
0.0075140686
0.0075140686
0.0075140686
0.0075140686
0.0075140686
0.0075140686
0.0075140686
)
;
        value           nonuniform List<scalar> 
92
(
679.03724
680.69105
683.92237
688.58402
671.30648
673.24039
677.13876
682.73368
654.94474
657.52266
662.77681
670.44446
347.30331
344.414
344.53305
347.48832
416.82111
413.26515
413.5584
417.49281
474.88871
471.77374
472.46376
476.56148
523.0425
520.80625
522.44355
527.07693
628.21808
561.39845
631.49075
560.90504
638.56901
564.78221
649.99193
571.82857
347.28335
347.41488
416.76871
417.48374
474.88934
476.53709
523.04236
526.999
561.51187
571.73549
347.47948
347.40588
344.50555
344.5513
347.43962
347.47871
417.06284
417.07322
413.44627
413.66204
417.48327
417.52396
475.10231
475.14604
471.97382
472.57536
476.54298
476.57743
523.09724
523.16744
520.93378
522.481
527.00424
527.0653
561.50499
561.51927
560.88854
564.78471
571.74996
571.82425
628.57722
631.65896
638.74066
650.12299
655.37594
657.88922
663.11777
670.74263
671.72685
673.70553
677.62379
683.17443
679.47406
681.1502
684.44049
689.0798
)
;
        Tnbr            T;
        thicknessLayers List<scalar> 0();
        kappaLayers     List<scalar> 0();
        kappaMethod     solidThermo;
        kappa           none;
        alphaAni        none;
        alpha           none;
        field           T;
    }
}


// ************************************************************************* //
