/*--------------------------------*- C++ -*----------------------------------*\
| =========                 |                                                 |
| \\      /  F ield         | OpenFOAM: The Open Source CFD Toolbox           |
|  \\    /   O peration     | Version:  v2012                                 |
|   \\  /    A nd           | Website:  www.openfoam.com                      |
|    \\/     M anipulation  |                                                 |
\*---------------------------------------------------------------------------*/
FoamFile
{
    version     2.0;
    format      ascii;
    class       volScalarField;
    location    "20/leftSolid";
    object      T;
}
// * * * * * * * * * * * * * * * * * * * * * * * * * * * * * * * * * * * * * //

dimensions      [0 0 0 1 0 0 0];


internalField   nonuniform List<scalar> 
130
(
374.69056
374.75655
374.83338
374.86152
374.83401
374.78335
374.72155
374.67199
374.68379
374.72204
374.76281
374.78517
374.76812
374.71023
374.78525
374.87465
374.92956
374.92363
374.88661
374.81823
374.76724
374.78701
374.83141
374.86737
374.88913
374.87939
374.78835
374.84749
374.90924
374.93758
374.91483
374.90382
374.83462
374.80911
374.84173
374.87632
374.88606
374.87249
374.85957
374.86207
374.90878
374.94343
374.9384
374.90313
374.86589
374.80469
374.77461
374.78985
374.80707
374.79231
374.76033
374.73378
374.89492
374.93415
374.96365
374.96771
374.92264
374.85694
374.78404
374.73111
374.72697
374.73777
374.73238
374.67425
374.5933
374.89492
374.93415
374.96365
374.96771
374.92265
374.85694
374.78404
374.73111
374.72697
374.73777
374.73238
374.67425
374.5933
374.86207
374.90878
374.94343
374.9384
374.90313
374.86589
374.80469
374.7746
374.78985
374.80707
374.79231
374.76033
374.73378
374.78835
374.84749
374.90924
374.93758
374.91483
374.90383
374.83462
374.80911
374.84173
374.87633
374.88606
374.87249
374.85957
374.71023
374.78525
374.87465
374.92957
374.92363
374.88661
374.81823
374.76724
374.78701
374.83141
374.86738
374.88914
374.87939
374.69055
374.75655
374.83338
374.86152
374.83401
374.78336
374.72155
374.67199
374.68379
374.72204
374.76281
374.78517
374.76812
)
;

boundaryField
{
    minX
    {
        type            zeroGradient;
    }
    minZ
    {
        type            zeroGradient;
    }
    maxZ
    {
        type            zeroGradient;
    }
    leftSolid_to_bottomWater
    {
        type            compressible::turbulentTemperatureCoupledBaffleMixed;
        refValue        nonuniform List<scalar> 
130
(
1048.3123
1053.0824
1058.1422
1057.7672
1053.5933
1051.8127
1050.0888
1045.8093
1049.2248
1051.3872
1053.7772
1055.7336
1050.5011
1048.9023
1054.7297
1059.7106
1063.4732
1061.5624
1060.9357
1056.4604
1050.5363
1054.6115
1057.5371
1058.4036
1061.3796
1058.4367
1051.5966
1056.0269
1058.1602
1059.1945
1052.0213
1059.7121
1049.7685
1050.8607
1057.2606
1058.6753
1057.4658
1053.3019
1052.5546
1053.4317
1057.9463
1058.6722
1055.8288
1051.0277
1051.6146
1046.8814
1046.734
1050.6444
1052.4601
1048.9232
1046.6702
1046.6311
1053.1791
1056.5332
1056.9039
1059.1431
1054.9696
1051.422
1047.7789
1043.739
1045.5504
1047.8437
1051.8036
1048.0503
1035.449
1053.179
1056.5332
1056.9039
1059.1431
1054.9697
1051.4221
1047.7789
1043.7389
1045.5503
1047.8437
1051.8037
1048.0498
1035.4489
1053.4317
1057.9463
1058.6722
1055.8293
1051.028
1051.6147
1046.8812
1046.7337
1050.6443
1052.46
1048.9233
1046.6702
1046.631
1051.5966
1056.0269
1058.1602
1059.1943
1052.0214
1059.7122
1049.7685
1050.8608
1057.2608
1058.6754
1057.4657
1053.3018
1052.5546
1048.9024
1054.7298
1059.7106
1063.4733
1061.5624
1060.9358
1056.4603
1050.5364
1054.6117
1057.5372
1058.4036
1061.3797
1058.4367
1048.3123
1053.0824
1058.1422
1057.7673
1053.5934
1051.8129
1050.0889
1045.8094
1049.225
1051.3873
1053.7772
1055.7336
1050.501
)
;
        refGradient     uniform 0;
        valueFraction   nonuniform List<scalar> 
130
(
0.0075140686
0.0075140686
0.0075140686
0.0075140686
0.0075140686
0.0075140686
0.0075140686
0.0075140686
0.0075140686
0.0075140686
0.0075140686
0.0075140686
0.0075140686
0.0075140686
0.0075140686
0.0075140686
0.0075140686
0.0075140686
0.0075140686
0.0075140686
0.0075140686
0.0075140686
0.0075140686
0.0075140686
0.0075140686
0.0075140686
0.0075140686
0.0075140686
0.0075140686
0.0075140686
0.0075140686
0.0075140686
0.0075140686
0.0075140686
0.0075140686
0.0075140686
0.0075140686
0.0075140686
0.0075140686
0.0075140686
0.0075140686
0.0075140686
0.0075140686
0.0075140686
0.0075140686
0.0075140686
0.0075140686
0.0075140686
0.0075140686
0.0075140686
0.0075140686
0.0075140686
0.0075140686
0.0075140686
0.0075140686
0.0075140686
0.0075140686
0.0075140686
0.0075140686
0.0075140686
0.0075140686
0.0075140686
0.0075140686
0.0075140686
0.0075140686
0.0075140686
0.0075140686
0.0075140686
0.0075140686
0.0075140686
0.0075140686
0.0075140686
0.0075140686
0.0075140686
0.0075140686
0.0075140686
0.0075140686
0.0075140686
0.0075140686
0.0075140686
0.0075140686
0.0075140686
0.0075140686
0.0075140686
0.0075140686
0.0075140686
0.0075140686
0.0075140686
0.0075140686
0.0075140686
0.0075140686
0.0075140686
0.0075140686
0.0075140686
0.0075140686
0.0075140686
0.0075140686
0.0075140686
0.0075140686
0.0075140686
0.0075140686
0.0075140686
0.0075140686
0.0075140686
0.0075140686
0.0075140686
0.0075140686
0.0075140686
0.0075140686
0.0075140686
0.0075140686
0.0075140686
0.0075140686
0.0075140686
0.0075140686
0.0075140686
0.0075140686
0.0075140686
0.0075140686
0.0075140686
0.0075140686
0.0075140686
0.0075140686
0.0075140686
0.0075140686
0.0075140686
0.0075140686
0.0075140686
0.0075140686
0.0075140686
)
;
        value           nonuniform List<scalar> 
130
(
379.6813
379.78264
379.89692
379.92201
379.86334
379.79968
379.72535
379.64395
379.68127
379.73547
379.79386
379.83076
379.77447
379.70493
379.82328
379.94958
380.03246
380.01227
379.97081
379.86926
379.77409
379.82434
379.89049
379.93275
379.97672
379.94488
379.80287
379.89494
379.97239
380.00838
379.93199
379.97897
379.83553
379.81829
379.89877
379.94389
379.94455
379.89991
379.88148
379.88993
379.9703
380.01024
379.98389
379.91299
379.8806
379.78431
379.75329
379.79783
379.82866
379.78749
379.73886
379.71218
379.9207
379.98494
380.01709
380.03798
379.96199
379.87021
379.77053
379.68765
379.69721
379.7252
379.74959
379.66365
379.48865
379.9207
379.98494
380.01709
380.03798
379.96199
379.87021
379.77053
379.68765
379.69721
379.7252
379.74959
379.66365
379.48865
379.88993
379.9703
380.01024
379.98389
379.913
379.8806
379.78431
379.75328
379.79782
379.82866
379.78749
379.73886
379.71217
379.80287
379.89494
379.97239
380.00838
379.93199
379.97897
379.83553
379.81829
379.89878
379.94389
379.94455
379.89991
379.88147
379.70493
379.82328
379.94958
380.03246
380.01227
379.97082
379.86926
379.77409
379.82434
379.89049
379.93275
379.97672
379.94488
379.68129
379.78264
379.89692
379.92202
379.86335
379.79969
379.72535
379.64395
379.68127
379.73547
379.79387
379.83076
379.77447
)
;
        Tnbr            T;
        thicknessLayers List<scalar> 0();
        kappaLayers     List<scalar> 0();
        kappaMethod     solidThermo;
        kappa           none;
        alphaAni        none;
        alpha           none;
        field           T;
    }
    leftSolid_to_heater
    {
        type            compressible::turbulentTemperatureCoupledBaffleMixed;
        refValue        nonuniform List<scalar> 10(373.06901 372.50815 371.05888 368.44737 364.51107 364.51114 368.44743 371.05888 372.50805 373.06868);
        refGradient     uniform 0;
        valueFraction   nonuniform List<scalar> 10(2.08329e-05 2.08329e-05 2.08329e-05 2.08329e-05 2.08329e-05 2.08329e-05 2.08329e-05 2.08329e-05 2.08329e-05 2.08329e-05);
        value           nonuniform List<scalar> 10(374.69639 374.808 374.78862 374.66283 374.5222 374.52219 374.66283 374.78862 374.808 374.69639);
        Tnbr            T;
        thicknessLayers List<scalar> 1(0.001);
        kappaLayers     List<scalar> 1(0.0005);
        kappaMethod     solidThermo;
        kappa           none;
        alphaAni        none;
        alpha           none;
        field           T;
    }
    leftSolid_to_topAir
    {
        type            compressible::turbulentTemperatureCoupledBaffleMixed;
        refValue        nonuniform List<scalar> 
130
(
303.11817
306.15326
309.00931
311.69488
314.22575
316.61438
318.85972
320.96976
322.95509
324.82405
326.58168
328.22806
329.76105
303.11794
306.11752
308.90683
311.49886
313.91279
316.16234
318.2569
320.20549
322.01717
323.6966
325.24465
326.6598
327.93381
303.12136
306.13038
308.92823
311.52545
313.94205
316.19448
318.29336
320.25113
322.07803
323.77899
325.35525
326.80669
328.13136
303.12449
306.13784
308.94185
311.54614
313.97174
316.23513
318.34943
320.32776
322.18077
323.91635
325.54231
327.06603
328.48828
303.12591
306.14121
308.9481
311.55658
313.98672
316.25431
318.37311
320.35388
322.20669
323.94251
325.56997
327.09526
328.51445
303.12591
306.14121
308.9481
311.55658
313.98672
316.25431
318.37311
320.35388
322.20669
323.94252
325.56997
327.09526
328.51445
303.12449
306.13784
308.94185
311.54614
313.97174
316.23514
318.34943
320.32776
322.18077
323.91635
325.54231
327.06603
328.48828
303.12136
306.13038
308.92823
311.52545
313.94205
316.19449
318.29336
320.25113
322.07803
323.77899
325.35525
326.80669
328.13137
303.11794
306.11752
308.90683
311.49886
313.91279
316.16234
318.2569
320.20549
322.01717
323.6966
325.24466
326.65981
327.93382
303.11817
306.15326
309.0093
311.69488
314.22574
316.61438
318.85971
320.96976
322.95509
324.82405
326.58168
328.22806
329.76105
)
;
        refGradient     uniform 0;
        valueFraction   nonuniform List<scalar> 
130
(
0.00032132529
0.00032132529
0.00032132529
0.00032132529
0.00032132529
0.00032132529
0.00032132529
0.00032132529
0.00032132529
0.00032132529
0.00032132529
0.00032132529
0.00032132529
0.00032132529
0.00032132529
0.00032132529
0.00032132529
0.00032132529
0.00032132529
0.00032132529
0.00032132529
0.00032132529
0.00032132529
0.00032132529
0.00032132529
0.00032132529
0.00032132529
0.00032132529
0.00032132529
0.00032132529
0.00032132529
0.00032132529
0.00032132529
0.00032132529
0.00032132529
0.00032132529
0.00032132529
0.00032132529
0.00032132529
0.00032132529
0.00032132529
0.00032132529
0.00032132529
0.00032132529
0.00032132529
0.00032132529
0.00032132529
0.00032132529
0.00032132529
0.00032132529
0.00032132529
0.00032132529
0.00032132529
0.00032132529
0.00032132529
0.00032132529
0.00032132529
0.00032132529
0.00032132529
0.00032132529
0.00032132529
0.00032132529
0.00032132529
0.00032132529
0.00032132529
0.00032132529
0.00032132529
0.00032132529
0.00032132529
0.00032132529
0.00032132529
0.00032132529
0.00032132529
0.00032132529
0.00032132529
0.00032132529
0.00032132529
0.00032132529
0.00032132529
0.00032132529
0.00032132529
0.00032132529
0.00032132529
0.00032132529
0.00032132529
0.00032132529
0.00032132529
0.00032132529
0.00032132529
0.00032132529
0.00032132529
0.00032132529
0.00032132529
0.00032132529
0.00032132529
0.00032132529
0.00032132529
0.00032132529
0.00032132529
0.00032132529
0.00032132529
0.00032132529
0.00032132529
0.00032132529
0.00032132529
0.00032132529
0.00032132529
0.00032132529
0.00032132529
0.00032132529
0.00032132529
0.00032132529
0.00032132529
0.00032132529
0.00032132529
0.00032132529
0.00032132529
0.00032132529
0.00032132529
0.00032132529
0.00032132529
0.00032132529
0.00032132529
0.00032132529
0.00032132529
0.00032132529
0.00032132529
0.00032132529
0.00032132529
0.00032132529
)
;
        value           nonuniform List<scalar> 
130
(
374.59614
374.6631
374.74082
374.7698
374.74311
374.69323
374.63213
374.58321
374.59559
374.63441
374.67571
374.6986
374.68198
374.61548
374.69155
374.78196
374.8378
374.8327
374.79641
374.72867
374.67826
374.69862
374.74364
374.78015
374.80237
374.79298
374.69375
374.75392
374.81668
374.84594
374.82406
374.8139
374.74535
374.72034
374.75356
374.78884
374.79918
374.78619
374.7737
374.76755
374.8153
374.85093
374.84675
374.81245
374.77612
374.71563
374.68613
374.70199
374.71987
374.70569
374.67425
374.64812
374.80046
374.84074
374.87122
374.87615
374.83197
374.76711
374.69496
374.6427
374.63921
374.6506
374.64572
374.58806
374.50762
374.80046
374.84074
374.87122
374.87615
374.83197
374.76711
374.69496
374.6427
374.63921
374.6506
374.64572
374.58806
374.50762
374.76755
374.8153
374.85093
374.84675
374.81246
374.77612
374.71563
374.68613
374.70199
374.71986
374.70569
374.67424
374.64812
374.69375
374.75391
374.81668
374.84594
374.82406
374.8139
374.74535
374.72035
374.75357
374.78884
374.79918
374.78619
374.7737
374.61548
374.69155
374.78196
374.8378
374.8327
374.79641
374.72867
374.67827
374.69863
374.74365
374.78016
374.80238
374.79298
374.59614
374.66309
374.74082
374.7698
374.74311
374.69323
374.63213
374.58321
374.59559
374.63442
374.67571
374.6986
374.68198
)
;
        Tnbr            T;
        thicknessLayers List<scalar> 0();
        kappaLayers     List<scalar> 0();
        kappaMethod     solidThermo;
        kappa           none;
        alphaAni        none;
        alpha           none;
        field           T;
    }
}


// ************************************************************************* //
