/*--------------------------------*- C++ -*----------------------------------*\
| =========                 |                                                 |
| \\      /  F ield         | OpenFOAM: The Open Source CFD Toolbox           |
|  \\    /   O peration     | Version:  v2012                                 |
|   \\  /    A nd           | Website:  www.openfoam.com                      |
|    \\/     M anipulation  |                                                 |
\*---------------------------------------------------------------------------*/
FoamFile
{
    version     2.0;
    format      ascii;
    class       volScalarField;
    location    "39";
    object      p;
}
// * * * * * * * * * * * * * * * * * * * * * * * * * * * * * * * * * * * * * //

dimensions      [0 2 -2 0 0 0 0];


internalField   nonuniform List<scalar> 
64000
(
-3.92829e-22
-4.64667e-21
-3.26584e-21
-4.79686e-21
-9.54093e-21
-3.56418e-21
-5.42608e-21
-4.9869e-21
-5.68719e-21
-5.81259e-21
-4.11967e-21
-7.45637e-21
-5.36967e-21
-7.41337e-21
-4.70586e-21
-5.89923e-21
-1.64863e-21
-1.31086e-21
-1.9522e-21
-2.80385e-21
-1.94389e-21
-2.62836e-21
-2.93757e-21
-2.86457e-21
-3.00918e-21
-1.32079e-21
7.21633e-22
-5.6415e-21
-3.04481e-21
-2.21793e-21
-2.66065e-21
-1.29126e-21
-1.19476e-21
-6.83634e-22
-1.44834e-21
-4.9247e-21
-5.85984e-22
-3.46149e-22
-9.0006e-22
-5.90339e-22
-7.28845e-21
-1.15189e-20
-1.13233e-20
-8.52518e-21
-1.15337e-20
-1.19302e-20
-1.03728e-20
-7.12601e-21
-4.42821e-21
-9.96121e-21
-1.21285e-20
-1.21284e-20
-6.46567e-21
-6.69965e-21
-7.48341e-21
-6.88251e-21
-4.44074e-21
1.04679e-21
-1.4821e-21
-6.48125e-21
-3.90299e-22
-3.79606e-21
-6.27638e-21
-9.69799e-21
-4.91534e-21
-3.17525e-21
-4.09229e-21
-5.67876e-21
-4.74059e-21
-3.0393e-21
6.92339e-23
-1.03603e-21
-5.08359e-21
-2.94098e-21
-5.19852e-22
-1.75433e-21
-9.92847e-22
9.00751e-22
-1.91428e-21
-2.34078e-21
-5.982e-21
-9.50705e-21
-1.31963e-20
-1.11449e-20
-1.02917e-20
-1.21419e-20
-1.17309e-20
-8.71627e-21
-9.29831e-21
-1.02454e-20
-9.08582e-21
-9.6448e-21
-9.24954e-21
-6.38263e-21
-4.8776e-21
-2.62676e-21
-9.7975e-21
-4.23775e-21
-7.00467e-22
-2.03281e-21
-3.80507e-21
-7.04373e-21
-6.92109e-21
-7.14892e-21
-3.99605e-21
-4.67051e-21
-4.61524e-21
-6.17969e-21
-3.45495e-21
-4.14495e-21
-2.6948e-21
-1.67707e-21
-3.51111e-21
-5.95349e-22
-1.44408e-21
-2.67496e-21
4.39148e-22
1.74679e-21
-6.6204e-22
-2.46875e-23
-9.37492e-21
-9.80831e-21
-1.13909e-20
-1.52273e-20
-1.2707e-20
-1.54089e-20
-1.45403e-20
-8.329e-21
-1.02911e-20
-1.15756e-20
-1.15894e-20
-9.1162e-21
-9.6569e-21
-6.43878e-21
-6.51492e-21
-5.42086e-21
-5.73443e-21
-5.27589e-21
2.21514e-22
-1.89433e-21
-5.46276e-21
-6.07668e-21
-1.02744e-20
-8.50893e-21
-8.87926e-21
-1.37828e-21
-4.43178e-21
-3.62547e-21
-4.13311e-21
-5.14965e-21
-1.67769e-21
-1.45347e-21
-2.25308e-21
-1.70862e-21
-2.24401e-21
-1.97806e-21
-8.98169e-22
4.3259e-22
-1.96079e-21
-7.27413e-23
-1.60898e-20
-1.09834e-20
-1.22641e-20
-1.38897e-20
-1.27587e-20
-1.58044e-20
-1.30268e-20
-8.79105e-21
-7.83998e-21
-1.3313e-20
-1.28723e-20
-7.96249e-21
-7.98266e-21
-5.8577e-21
-1.05597e-20
-1.24161e-20
-5.36222e-21
-2.92287e-21
-3.81854e-21
-1.9973e-21
-4.46659e-21
-6.5825e-21
-9.44225e-21
-8.56376e-21
-6.00074e-21
-2.84928e-21
-3.30464e-21
-4.33494e-21
-6.77897e-21
-2.43257e-21
-1.3316e-21
6.40269e-22
-8.86892e-22
-1.35403e-21
-4.9475e-21
-2.8404e-21
-1.01865e-21
-1.47574e-21
3.04039e-22
-4.06067e-22
-1.36419e-20
-1.19195e-20
-1.13648e-20
-1.46603e-20
-1.28122e-20
-1.29441e-20
-1.02133e-20
-1.35074e-20
-1.28144e-20
-1.26398e-20
-1.11761e-20
-8.46231e-21
-9.44244e-21
-5.9958e-21
-9.69073e-21
-1.12768e-20
-5.60323e-21
-3.6813e-21
-2.95168e-21
-5.12361e-21
-3.69343e-21
-5.47762e-21
-9.35043e-21
-8.97156e-21
-9.11125e-21
-1.47082e-21
-3.14561e-21
-2.05716e-21
-5.15949e-21
-3.79535e-21
-4.07039e-21
-3.02728e-21
-1.27314e-21
-8.58775e-22
-3.2166e-21
-1.03957e-21
-2.2327e-21
-1.01243e-21
-2.14456e-22
9.68982e-22
-1.45935e-20
-1.6016e-20
-1.0082e-20
-1.18965e-20
-1.32645e-20
-1.3752e-20
-1.08761e-20
-1.25383e-20
-1.37683e-20
-1.25976e-20
-1.10014e-20
-1.06885e-20
-7.37953e-21
-8.58678e-21
-9.35504e-21
-9.84688e-21
-6.83228e-21
-1.71345e-21
-2.58459e-21
-4.64394e-21
-5.97814e-21
-1.03703e-20
-1.10426e-20
-9.90897e-21
-5.08414e-21
-5.34086e-21
-4.1554e-21
5.87257e-23
-3.18674e-21
-2.33175e-21
-6.11721e-21
-5.21982e-21
9.7103e-22
-4.5523e-22
-2.73591e-21
-3.351e-21
-1.29458e-21
-5.97466e-22
-1.92023e-21
-7.46601e-22
-1.50804e-20
-1.50627e-20
-1.20108e-20
-1.07318e-20
-1.17692e-20
-1.28346e-20
-1.16918e-20
-1.8208e-20
-1.55409e-20
-1.30351e-20
-1.03159e-20
-9.52863e-21
-8.43085e-21
-1.04212e-20
-8.4896e-21
-9.65559e-21
-5.99868e-21
-3.57964e-21
-5.97325e-21
-3.78154e-21
-5.44256e-21
-9.63946e-21
-9.57481e-21
-8.22906e-21
-5.09576e-21
-6.72127e-21
-4.51683e-21
-8.19685e-22
-3.461e-21
-4.06239e-21
-5.29267e-21
-4.02733e-21
-2.95851e-22
-2.39367e-21
-5.33694e-21
-5.66107e-21
-1.2018e-21
9.38632e-24
-3.07678e-22
-1.43358e-21
-1.99261e-20
-1.63647e-20
-1.14179e-20
-1.21064e-20
-1.36081e-20
-1.5648e-20
-1.37185e-20
-1.30119e-20
-1.39471e-20
-1.65224e-20
-9.81186e-21
-9.44056e-21
-7.82227e-21
-1.07117e-20
-1.21069e-20
-9.76189e-21
-4.84369e-21
-1.16154e-21
-7.44678e-21
-8.8392e-21
-4.48941e-21
-8.66878e-21
-1.15101e-20
-7.19435e-21
-3.41072e-21
-5.42948e-21
-7.12103e-21
-4.76608e-21
-2.19745e-21
-5.87096e-21
-3.19021e-21
-2.13043e-21
-6.57123e-22
-2.75278e-21
-6.27301e-21
-3.66427e-21
-3.71042e-22
1.44767e-22
-6.89194e-22
-1.96971e-21
-1.24541e-20
-1.29483e-20
-1.22987e-20
-1.16983e-20
-1.55403e-20
-1.6027e-20
-1.34745e-20
-1.31087e-20
-1.39927e-20
-1.47705e-20
-1.38121e-20
-6.94137e-21
-7.89016e-21
-1.25009e-20
-1.19969e-20
-8.17685e-21
-6.33154e-21
-4.45356e-21
-1.95948e-21
-4.26588e-21
-7.52609e-21
-7.06007e-21
-1.04914e-20
-8.71797e-21
-7.78549e-21
-5.07416e-21
-3.63492e-21
-2.78195e-21
-5.19048e-21
-4.9872e-21
-1.82278e-21
-1.5885e-21
-2.41508e-21
-2.41592e-21
-5.76088e-21
-4.764e-21
-2.03524e-21
-5.36391e-22
-8.38486e-22
-1.23817e-22
-1.06343e-20
-1.37884e-20
-1.30601e-20
-1.57796e-20
-1.31507e-20
-1.51533e-20
-1.81829e-20
-1.14915e-20
-1.41003e-20
-1.63429e-20
-1.15444e-20
-6.6193e-21
-7.0947e-21
-1.1444e-20
-1.08694e-20
-1.15429e-20
-8.99703e-21
-1.57544e-21
7.32194e-22
-3.98832e-21
-9.94823e-21
-1.21951e-20
-9.2628e-21
-9.13578e-21
-8.88032e-21
-5.58937e-21
-2.72562e-22
-1.90225e-21
-4.7766e-21
-7.9429e-21
-2.80157e-21
5.1012e-22
-5.10306e-21
-2.41129e-21
-3.44138e-21
-5.28943e-21
-1.46175e-21
-1.43646e-21
-1.56182e-21
-8.42047e-22
-1.13163e-20
-1.54992e-20
-1.50028e-20
-1.3875e-20
-1.44248e-20
-1.85061e-20
-1.36474e-20
-1.39688e-20
-1.13601e-20
-1.44529e-20
-1.65218e-20
-8.23392e-21
-6.02359e-21
-1.09195e-20
-1.32011e-20
-1.0534e-20
-7.82567e-21
-2.41798e-21
-3.08181e-21
-4.18431e-21
-7.89284e-21
-1.19933e-20
-1.03569e-20
-1.0111e-20
-9.8306e-21
-2.64865e-21
-2.7434e-21
-3.80148e-21
-5.26615e-21
-4.00487e-21
-7.93855e-22
-2.38755e-21
-3.10799e-21
-2.96222e-21
-3.59335e-21
-3.22985e-21
-9.19487e-22
-1.54559e-21
-2.70384e-21
-3.11812e-21
-1.53023e-20
-1.5088e-20
-1.47111e-20
-1.42145e-20
-1.67467e-20
-1.63311e-20
-1.55328e-20
-1.53095e-20
-1.44734e-20
-1.34976e-20
-1.35417e-20
-7.68393e-21
-8.25835e-21
-1.11877e-20
-1.06293e-20
-9.66803e-21
-7.23502e-21
-3.08166e-21
-2.42255e-21
-7.61294e-21
-8.33414e-21
-9.28628e-21
-9.43628e-21
-1.06927e-20
-5.3773e-21
-2.19533e-21
-4.11958e-21
-5.98298e-21
-3.86977e-21
-3.06229e-21
-5.90857e-21
-3.29233e-21
6.37452e-22
-5.02152e-21
-6.57998e-21
-2.09465e-21
-9.7702e-22
-2.40377e-21
-1.24329e-21
-1.81079e-21
-1.87158e-20
-1.87418e-20
-1.49212e-20
-1.67613e-20
-1.34709e-20
-1.33477e-20
-1.60093e-20
-1.51744e-20
-1.18105e-20
-1.56186e-20
-1.1861e-20
-9.5811e-21
-1.14879e-20
-1.12515e-20
-1.07331e-20
-9.94018e-21
-6.52865e-21
-1.86132e-21
-2.81509e-21
-5.93939e-21
-9.46195e-21
-1.07109e-20
-1.13847e-20
-9.50972e-21
-5.83608e-21
7.60374e-22
-6.17827e-22
-6.47587e-21
-7.10199e-21
8.50947e-22
-3.09256e-21
-7.0555e-21
-2.22971e-21
-2.75415e-21
-5.73431e-21
-2.33409e-21
-3.25834e-21
-1.68654e-21
6.69937e-22
-1.48722e-21
-1.25703e-20
-1.95013e-20
-1.84388e-20
-1.51334e-20
-1.20683e-20
-1.53866e-20
-1.92487e-20
-2.0583e-20
-1.40917e-20
-1.06168e-20
-9.27024e-21
-1.34061e-20
-1.24024e-20
-8.89733e-21
-7.86073e-21
-9.58922e-21
-8.01226e-21
-5.34373e-21
-4.84245e-21
-5.79408e-21
-1.13262e-20
-7.15114e-21
-8.69026e-21
-9.8176e-21
-5.72219e-21
-3.81115e-21
-3.76889e-21
-3.71176e-21
-3.66691e-21
-1.66162e-21
-1.13366e-21
-3.06162e-21
-3.72471e-21
-1.90144e-21
-4.16087e-21
-3.3223e-21
-9.29384e-22
-2.43867e-21
-5.84655e-22
1.14887e-21
-1.36085e-20
-1.48192e-20
-1.82384e-20
-1.49808e-20
-1.58462e-20
-1.51066e-20
-1.65812e-20
-1.83939e-20
-1.32141e-20
-9.74665e-21
-1.34291e-20
-1.1768e-20
-1.18338e-20
-9.92734e-21
-1.11801e-20
-1.14312e-20
-7.42817e-21
-6.76753e-21
-2.92637e-21
-5.6622e-21
-1.07016e-20
-9.61266e-21
-9.00139e-21
-5.6307e-21
-3.28866e-21
-5.43879e-21
-5.85554e-21
-3.07444e-21
-3.60734e-21
-1.38163e-21
-1.57142e-21
-2.56988e-21
-4.2179e-21
-3.24079e-21
-6.38962e-21
-5.0046e-21
1.02319e-21
3.65869e-22
-1.51423e-21
4.70034e-22
-1.48545e-20
-1.39358e-20
-1.68665e-20
-1.28586e-20
-1.33752e-20
-1.6022e-20
-1.79487e-20
-1.8523e-20
-1.40705e-20
-1.21512e-20
-1.04147e-20
-1.46207e-20
-7.27547e-21
-1.12568e-20
-1.25746e-20
-9.32767e-21
-8.54101e-21
-7.08977e-21
-7.09372e-21
-3.99128e-21
-1.09169e-20
-8.33616e-21
-9.53103e-21
-5.08926e-21
-4.18926e-21
-1.55186e-21
-5.06466e-21
-7.3837e-21
-2.84933e-21
-3.62118e-21
-6.66435e-23
-3.98524e-21
-5.25636e-21
-1.41523e-21
-2.17689e-21
-4.04403e-21
-2.34893e-21
-9.29341e-22
-8.8594e-23
-8.83706e-22
-1.11826e-20
-1.52451e-20
-1.89672e-20
-1.3561e-20
-1.1654e-20
-1.75519e-20
-1.53785e-20
-1.53066e-20
-1.46589e-20
-1.20782e-20
-1.27388e-20
-1.27104e-20
-8.78005e-21
-1.05478e-20
-1.62715e-20
-1.06691e-20
-8.19088e-21
-2.03276e-21
-6.04934e-21
-7.30681e-21
-1.47307e-20
-8.25072e-21
-4.961e-21
-4.36599e-21
-2.54816e-21
-5.99543e-21
-5.88139e-21
-6.13361e-21
-4.00432e-21
-3.40912e-21
-2.37414e-21
-9.15178e-22
-2.92583e-21
-1.49425e-21
-1.44451e-21
-4.25075e-21
-2.00568e-21
-2.10566e-21
7.50354e-22
2.61929e-22
-9.63746e-21
-1.20586e-20
-1.56777e-20
-1.54598e-20
-1.44105e-20
-1.45999e-20
-1.51513e-20
-1.41835e-20
-1.44257e-20
-1.215e-20
-1.37964e-20
-1.23418e-20
-9.84907e-21
-7.15683e-21
-1.32051e-20
-1.26677e-20
-9.09713e-21
-7.70172e-21
-1.04518e-20
-1.00473e-20
-1.0697e-20
-1.90287e-21
-4.69849e-21
-5.05301e-21
-2.73415e-21
-4.41894e-21
-6.28434e-21
-4.12772e-21
-3.05694e-21
-3.89151e-21
-5.67264e-21
-1.14707e-21
-1.44644e-21
-1.66191e-21
1.58946e-23
-2.15622e-21
-1.27471e-21
-9.31626e-22
-2.74063e-21
-2.26049e-21
-7.87545e-21
-1.32603e-20
-1.81956e-20
-1.64995e-20
-1.40837e-20
-1.20198e-20
-1.17309e-20
-1.44873e-20
-1.80065e-20
-1.44947e-20
-1.08222e-20
-1.06058e-20
-1.12345e-20
-1.01325e-20
-1.19537e-20
-1.08473e-20
-7.39348e-21
-6.7101e-21
-1.31487e-20
-8.60154e-21
-8.89909e-21
-6.65043e-21
-4.29096e-21
-5.06128e-21
-1.59513e-21
-1.79618e-21
-1.02077e-20
-9.07388e-21
-4.83201e-21
-6.59705e-22
-1.82895e-21
-1.10249e-21
-1.8832e-21
-1.50122e-21
-1.88675e-21
-2.18037e-21
-2.93895e-21
-1.58759e-21
-2.65205e-21
-1.85855e-21
-1.17168e-20
-1.50546e-20
-1.64932e-20
-1.46428e-20
-1.03046e-20
-1.28769e-20
-1.34258e-20
-1.25932e-20
-1.50157e-20
-1.47703e-20
-1.5209e-20
-1.34205e-20
-9.49196e-21
-1.25826e-20
-1.21503e-20
-5.88041e-21
-6.98927e-21
-5.27133e-21
-1.13122e-20
-9.10734e-21
-8.1041e-21
-5.10197e-21
-3.78585e-21
-7.00413e-21
-6.81214e-21
-3.50955e-21
-5.50562e-21
-5.48942e-21
-4.7133e-21
-2.51166e-21
-3.60228e-21
-5.89664e-22
-2.78232e-21
-4.92827e-22
-1.9462e-21
-4.18449e-21
-3.34996e-21
-2.70519e-21
-9.5636e-22
-2.0099e-21
-1.84151e-20
-1.64274e-20
-1.47439e-20
-1.49083e-20
-1.44714e-20
-1.35244e-20
-1.33863e-20
-9.82989e-21
-1.35142e-20
-1.43742e-20
-1.47379e-20
-1.55015e-20
-1.2824e-20
-1.35397e-20
-1.02361e-20
-7.61561e-21
-6.53341e-21
-5.51254e-21
-8.48061e-21
-9.20504e-21
-7.73177e-21
-2.86175e-21
-4.47233e-21
-5.97922e-21
-6.42993e-21
-4.90115e-21
-5.8744e-21
-7.79656e-21
-4.46893e-21
-1.25933e-21
-3.37238e-21
2.59818e-22
3.09139e-22
-1.98932e-21
-4.79787e-21
-6.55383e-21
-1.80435e-21
-2.67196e-21
5.61973e-22
8.59706e-22
-1.76962e-20
-1.91897e-20
-1.40536e-20
-1.44826e-20
-1.52181e-20
-1.63853e-20
-1.27465e-20
-1.015e-20
-1.54002e-20
-1.08886e-20
-1.39685e-20
-1.63485e-20
-1.2672e-20
-9.01817e-21
-8.78908e-21
-8.34207e-21
-5.3119e-21
-3.34766e-21
-4.09831e-21
-8.23524e-21
-9.91324e-21
-5.16245e-21
-7.57682e-21
-7.30168e-21
-7.14e-21
-7.72981e-21
-5.48513e-21
-4.09082e-21
-3.44654e-21
-2.22551e-21
-2.94232e-21
-1.72507e-21
1.1634e-22
-8.70353e-22
-9.23154e-21
-5.52577e-21
-1.94905e-21
-4.22553e-22
-1.01635e-21
-6.34274e-22
-1.33368e-20
-1.47984e-20
-1.74876e-20
-1.37449e-20
-1.43652e-20
-1.57498e-20
-1.46433e-20
-1.46121e-20
-1.15203e-20
-1.25363e-20
-1.50925e-20
-1.54086e-20
-8.05066e-21
-1.24632e-20
-1.2546e-20
-7.37031e-21
-2.80877e-21
-3.37023e-21
-6.23314e-21
-4.56555e-21
-6.23978e-21
-8.05053e-21
-1.10075e-20
-8.20866e-21
-7.85555e-21
-3.3869e-21
-5.74087e-21
-7.1866e-21
-8.95421e-22
-2.05371e-21
-4.91786e-21
-3.24881e-21
1.2036e-21
-5.09652e-21
-8.90531e-21
-5.43044e-21
-3.06878e-21
4.18246e-22
-1.93998e-21
-2.9588e-21
-1.06843e-20
-1.30437e-20
-1.69657e-20
-1.57668e-20
-1.29473e-20
-1.60459e-20
-1.44564e-20
-1.35968e-20
-1.02717e-20
-1.4108e-20
-1.74827e-20
-1.36371e-20
-6.62576e-21
-9.50536e-21
-1.03768e-20
-6.45586e-21
-5.58586e-21
-8.67459e-21
-5.20068e-21
-4.88124e-21
-6.36467e-21
-7.91804e-21
-6.6611e-21
-7.71046e-21
-1.18508e-20
-6.0167e-21
-3.64721e-21
-4.21023e-21
-4.17032e-21
-4.0506e-21
-2.67263e-21
-2.93679e-21
-1.20274e-21
-3.64135e-21
-9.10551e-21
-5.55252e-21
-2.55076e-21
-5.96322e-22
-6.44245e-22
-1.67791e-21
-1.37686e-20
-1.61375e-20
-1.69503e-20
-1.3823e-20
-1.10873e-20
-1.41465e-20
-1.44073e-20
-1.67448e-20
-8.7683e-21
-1.15772e-20
-1.90787e-20
-1.52497e-20
-8.95276e-21
-9.62586e-21
-5.52423e-21
-7.53762e-21
-7.94397e-21
-4.65822e-21
-2.3734e-21
-6.21273e-21
-5.69753e-21
-9.40021e-21
-9.35733e-21
-1.08434e-20
-9.01538e-21
-8.82324e-21
-5.02538e-21
-5.97981e-21
-4.39333e-21
-1.39973e-21
-2.08834e-21
-2.46152e-21
-1.24593e-21
-2.70447e-21
-6.00518e-21
-7.40704e-21
-3.8217e-21
-9.02379e-22
-8.44766e-23
-2.29092e-22
-1.06336e-20
-1.35176e-20
-1.56619e-20
-1.96328e-20
-1.27252e-20
-1.55886e-20
-1.33641e-20
-1.11488e-20
-9.78357e-21
-1.2828e-20
-1.77581e-20
-1.37609e-20
-7.26757e-21
-8.24335e-21
-7.22937e-21
-1.04773e-20
-7.16334e-21
-4.85159e-21
-4.33978e-23
-3.75021e-21
-3.03552e-21
-9.553e-21
-8.8414e-21
-9.06259e-21
-9.77354e-21
-8.79461e-21
-4.57813e-21
-2.33672e-21
-4.89152e-21
-2.46355e-21
-5.31968e-22
-2.9251e-21
-3.55395e-21
-2.68869e-21
-8.577e-21
-3.84918e-21
-4.06099e-21
-2.68658e-21
-6.95971e-22
-1.61038e-21
-9.40928e-21
-1.37312e-20
-1.47573e-20
-1.65533e-20
-1.36094e-20
-1.44682e-20
-1.30583e-20
-1.14814e-20
-1.07797e-20
-1.19582e-20
-1.72012e-20
-7.60753e-21
-8.79637e-21
-1.07839e-20
-6.76871e-21
-6.39255e-21
-7.22217e-21
-5.1627e-21
-4.61102e-21
-4.87086e-21
-5.06655e-21
-3.82297e-21
-8.32888e-21
-9.34844e-21
-6.89146e-21
-6.29322e-21
-5.66503e-21
-4.03372e-21
-4.67805e-21
-2.80731e-21
-2.45916e-21
-3.33682e-21
-5.78061e-21
-6.29136e-21
-4.93417e-21
-4.0675e-21
-3.24586e-21
-2.8881e-21
-1.57854e-21
-2.12243e-21
-1.2544e-20
-1.82858e-20
-1.497e-20
-1.13632e-20
-1.80591e-20
-1.54296e-20
-1.29876e-20
-1.02174e-20
-1.05912e-20
-1.19356e-20
-1.35284e-20
-8.89609e-21
-9.11322e-21
-1.12003e-20
-9.28467e-21
-7.37864e-21
-5.95172e-21
-1.89527e-21
-4.74797e-21
-3.57485e-21
-6.67321e-21
-5.75853e-21
-6.15525e-21
-7.287e-21
-8.359e-21
-4.99102e-21
-4.76137e-21
-5.96117e-21
-3.74143e-21
-5.13431e-21
-1.50858e-21
-3.56474e-21
-5.52009e-21
-3.67463e-21
-6.532e-21
-4.43662e-21
-2.66935e-21
-4.27681e-21
-1.11557e-21
-9.81251e-22
-1.12288e-20
-1.54569e-20
-1.77579e-20
-1.28302e-20
-1.2428e-20
-1.75965e-20
-1.40052e-20
-6.61063e-21
-9.98897e-21
-1.62586e-20
-1.15495e-20
-1.1309e-20
-1.15853e-20
-1.15532e-20
-9.39794e-21
-8.93546e-21
-5.9977e-21
-4.95937e-21
-1.59953e-21
-2.10754e-21
-3.87621e-21
-7.48042e-21
-8.77396e-21
-8.40185e-21
-1.10008e-20
-7.32675e-21
-2.31118e-21
1.04996e-22
-3.55188e-21
-3.20405e-21
-3.86592e-21
-5.9119e-21
-2.9975e-21
-2.0544e-21
-5.16066e-21
-6.67297e-21
-3.19583e-21
-1.0667e-21
-4.35034e-22
-2.89056e-22
-1.29619e-20
-1.31138e-20
-1.342e-20
-1.37603e-20
-1.42478e-20
-1.41904e-20
-1.41881e-20
-1.15817e-20
-9.49434e-21
-1.18564e-20
-1.02827e-20
-1.01921e-20
-1.12637e-20
-1.28267e-20
-1.02371e-20
-9.72407e-21
-5.27949e-21
-5.96378e-21
-2.67598e-21
-3.86399e-21
-5.7135e-21
-5.46986e-21
-9.41752e-21
-1.08013e-20
-9.12787e-21
-5.6545e-21
-2.26916e-21
-4.429e-21
-4.72833e-21
-2.62052e-21
-3.35075e-21
-3.01807e-21
-1.75077e-21
-1.70913e-21
-3.10718e-21
-6.38152e-21
-2.57261e-21
-1.18999e-21
-1.755e-21
-2.54201e-21
-1.64045e-20
-1.4596e-20
-1.16188e-20
-1.26229e-20
-1.63263e-20
-1.51587e-20
-1.30473e-20
-1.11925e-20
-1.1553e-20
-9.81697e-21
-7.86881e-21
-1.13492e-20
-1.47272e-20
-1.33533e-20
-7.62874e-21
-8.89422e-21
-5.05337e-21
-3.92129e-21
-2.76942e-21
-5.30739e-21
-5.16544e-21
-8.34996e-21
-1.46292e-20
-9.45844e-21
-8.52818e-21
-7.6857e-21
-1.35196e-21
-1.1239e-21
-2.19777e-21
-5.00375e-21
-3.98223e-21
-4.97028e-21
6.27611e-22
-2.47629e-21
-5.81694e-21
-2.24981e-21
-1.70885e-21
7.05228e-22
-1.43959e-21
-3.17141e-21
-1.02583e-20
-1.12901e-20
-1.28844e-20
-1.11968e-20
-1.79169e-20
-1.45658e-20
-1.30268e-20
-1.35405e-20
-1.14119e-20
-1.10258e-20
-1.10194e-20
-8.53756e-21
-1.30179e-20
-9.85634e-21
-6.40718e-21
-9.07642e-21
-7.80644e-21
-5.97466e-21
-4.40785e-21
-1.29624e-21
-5.92912e-21
-1.00221e-20
-1.10937e-20
-9.82238e-21
-9.4741e-21
-7.54321e-21
7.92821e-22
-5.03123e-22
-4.02265e-21
-3.82031e-21
-3.69885e-21
-4.55639e-21
-6.65293e-22
-1.0809e-21
-1.71488e-21
-3.92456e-21
-1.08278e-21
-2.33757e-21
-7.36399e-22
-8.59561e-22
-1.16851e-20
-1.25368e-20
-1.29357e-20
-1.39245e-20
-1.50654e-20
-1.03223e-20
-1.26368e-20
-1.17846e-20
-1.11671e-20
-9.25969e-21
-9.94433e-21
-1.41658e-20
-1.17803e-20
-8.36242e-21
-7.91101e-21
-1.11137e-20
-1.07097e-20
-3.46211e-21
-4.82104e-21
-4.93612e-21
-4.2182e-21
-6.3239e-21
-1.12008e-20
-9.78295e-21
-6.83233e-21
-6.02492e-21
-3.1132e-21
-2.35561e-21
-1.645e-21
-4.4811e-21
-4.4592e-21
-3.99817e-21
-1.23307e-21
6.18077e-22
2.54739e-21
-4.50554e-21
-2.30318e-21
1.03451e-21
-2.00759e-21
-2.55035e-21
-1.29813e-20
-1.06678e-20
-1.02843e-20
-1.02915e-20
-1.36044e-20
-1.42077e-20
-1.33404e-20
-1.49364e-20
-1.1793e-20
-1.01095e-20
-6.39308e-21
-1.22267e-20
-6.65478e-21
-6.71092e-21
-8.22994e-21
-1.08842e-20
-1.16121e-20
-5.90058e-21
-4.58785e-21
-4.7076e-21
-4.44258e-21
-8.81781e-21
-8.65261e-21
-7.54492e-21
-8.48562e-21
-4.92752e-21
-4.13819e-21
-7.36002e-21
-1.57194e-21
-3.47971e-21
-5.58757e-21
-4.06779e-21
-3.09042e-21
-1.59988e-21
1.50682e-21
2.73353e-21
-1.30355e-21
4.02931e-22
6.11343e-22
-2.47269e-22
-8.44148e-21
-1.09411e-20
-1.24483e-20
-9.79988e-21
-1.06585e-20
-1.3705e-20
-1.10094e-20
-1.20384e-20
-1.22717e-20
-1.3e-20
-1.21292e-20
-5.77179e-21
-8.51583e-21
-7.55436e-21
-8.60423e-21
-8.702e-21
-8.03073e-21
-5.95728e-21
-6.33078e-21
-6.06955e-21
-4.46576e-21
-6.92604e-21
-8.63599e-21
-9.32369e-21
-7.45857e-21
-4.26667e-21
-2.11667e-21
-2.59782e-21
-3.4494e-21
-1.51814e-21
-5.79553e-21
-4.41877e-21
-2.03509e-21
-2.17703e-21
-2.51518e-21
1.27018e-22
1.14657e-21
9.6645e-22
1.40955e-21
-6.04873e-22
-6.92557e-21
-1.02086e-20
-1.11123e-20
-1.13766e-20
-9.58861e-21
-1.23171e-20
-1.20813e-20
-9.74651e-21
-9.38917e-21
-1.05612e-20
-1.03962e-20
-9.00016e-21
-1.12793e-20
-4.26852e-21
-7.80156e-21
-9.01223e-21
-6.53608e-21
-1.64264e-21
-3.58783e-21
-9.20499e-21
-3.75213e-21
-9.50694e-21
-1.05264e-20
-7.29304e-21
-6.56202e-21
-5.6019e-21
-5.8794e-21
6.81728e-22
-1.56036e-21
-1.75715e-21
-5.2563e-21
-3.42261e-21
-3.81266e-21
-1.70791e-21
-9.08107e-22
-3.77821e-22
8.90667e-22
-1.77617e-21
-7.85867e-22
-1.66426e-22
-4.4285e-21
-9.02992e-21
-1.20161e-20
-7.81519e-21
-8.32332e-21
-1.15182e-20
-9.8798e-21
-9.68619e-21
-9.27575e-21
-9.93794e-21
-6.39408e-21
-9.37223e-21
-9.72189e-21
-9.26241e-21
-5.19541e-21
-4.05305e-21
-4.01731e-21
-5.04172e-21
-5.00767e-21
-8.72673e-21
-6.99004e-21
-7.63389e-21
-9.89459e-21
-9.95512e-21
-3.45559e-21
-3.72848e-21
-5.1503e-21
-3.81496e-21
6.13807e-22
-2.57203e-21
-4.45053e-21
-3.60608e-21
-5.90626e-21
-1.87542e-21
-1.89615e-21
-2.50504e-21
1.07746e-21
3.7708e-21
-4.92968e-22
-8.21823e-22
-5.28562e-21
-7.46184e-21
-1.02018e-20
-6.61963e-21
-5.7865e-21
-1.39299e-20
-1.12184e-20
-6.41174e-21
-9.60986e-21
-9.54183e-21
-6.36577e-21
-6.51424e-21
-7.1821e-21
-7.51382e-21
-7.64175e-21
-5.12323e-21
-4.22986e-21
-2.20473e-21
-5.74499e-21
-6.09483e-21
-3.78183e-21
-6.37759e-21
-7.81317e-21
-1.21559e-20
-8.60997e-21
-4.54956e-21
-4.00432e-21
-8.28375e-22
-2.2221e-21
-2.31341e-21
-1.80643e-21
-3.11325e-21
-3.77751e-21
-1.30902e-21
-9.82012e-22
-4.44923e-21
-2.34542e-22
1.66372e-21
1.05928e-21
-5.70776e-23
-5.67544e-21
-5.32804e-21
-6.27518e-21
-3.3836e-21
-4.29013e-21
-2.97678e-21
-8.34856e-21
-4.72213e-21
-6.66664e-21
-6.22724e-21
-2.43627e-21
-2.51708e-21
-6.10674e-21
-5.35234e-21
-3.3179e-21
-4.15359e-21
-1.68366e-21
3.50163e-22
-5.89471e-21
-1.95369e-21
-6.09642e-21
-7.67255e-21
-5.79672e-21
-5.99206e-21
-3.5406e-21
-2.98619e-21
-2.10859e-21
-9.25287e-22
-5.04256e-22
7.47701e-22
-6.04231e-22
-1.15036e-21
-2.3671e-21
-2.13061e-21
2.72544e-22
-4.39645e-21
-2.33607e-21
-4.32123e-22
-1.38125e-21
4.25787e-22
-6.54529e-21
-9.71764e-21
-1.33684e-20
-9.75768e-21
-9.83314e-21
-1.22903e-20
-8.55197e-21
-5.10705e-21
-1.20328e-20
-1.06475e-20
-5.00817e-21
-1.03829e-20
-1.09691e-20
-5.85769e-21
-7.15197e-21
-9.50322e-21
-6.03278e-21
-2.47291e-22
-3.25053e-21
-6.41606e-21
-3.54493e-21
-3.6524e-21
-4.90805e-21
-4.52005e-21
-2.479e-21
-1.64188e-21
-3.27408e-21
-4.46152e-21
-6.16709e-21
-5.20688e-21
-6.60957e-21
-2.87648e-21
-1.73947e-21
-3.48604e-22
-2.93843e-21
-3.70185e-21
-2.702e-22
-3.98093e-21
-2.03048e-21
-4.6118e-22
-1.05495e-20
-1.37015e-20
-1.79319e-20
-1.50693e-20
-1.31622e-20
-1.63753e-20
-1.53667e-20
-1.04568e-20
-9.87632e-21
-1.72462e-20
-1.28175e-20
-1.33374e-20
-1.22755e-20
-9.80312e-21
-1.00633e-20
-9.8744e-21
-7.76721e-21
-5.88738e-21
-7.30487e-21
-6.69131e-21
-6.1565e-21
-6.25049e-21
-7.19477e-21
-1.00438e-20
-3.48865e-21
-3.74806e-21
-4.30983e-21
-3.64706e-21
-9.81601e-21
-5.09143e-21
-4.30582e-21
-2.74815e-21
-3.28376e-21
-1.90788e-21
-5.41826e-21
-3.24255e-21
9.50161e-22
1.5814e-21
-1.84809e-22
2.22834e-22
-1.22147e-20
-1.46353e-20
-1.3914e-20
-1.6771e-20
-1.57602e-20
-1.7872e-20
-1.69079e-20
-1.36012e-20
-1.50411e-20
-1.49436e-20
-1.30615e-20
-1.31906e-20
-1.04607e-20
-8.12255e-21
-9.00862e-21
-1.14727e-20
-1.01623e-20
-7.73421e-21
-4.8834e-21
-6.60058e-21
-6.9171e-21
-4.83819e-21
-5.41058e-21
-7.58804e-21
-7.86727e-21
-5.46495e-21
-6.38229e-21
-6.32378e-21
-5.80596e-21
-6.76377e-21
-7.65913e-21
-3.51925e-21
-1.55188e-21
-1.81551e-21
-3.74054e-21
-1.76867e-21
8.77569e-22
-6.45985e-22
-9.98661e-22
4.10624e-22
-1.6985e-20
-1.57608e-20
-1.63369e-20
-2.00089e-20
-1.63715e-20
-1.68192e-20
-1.70452e-20
-1.49892e-20
-1.47138e-20
-1.40056e-20
-1.52872e-20
-1.61371e-20
-9.24669e-21
-9.45435e-21
-1.17191e-20
-1.0848e-20
-9.18917e-21
-8.50239e-21
-6.16785e-21
-4.84414e-21
-8.62797e-21
-8.27717e-21
-8.40034e-21
-8.726e-21
-7.70902e-21
-6.68025e-21
-6.30391e-21
-5.49351e-21
-5.00479e-21
-7.33004e-21
-5.72271e-21
-7.55327e-22
-4.65912e-21
-2.83085e-21
-3.05792e-21
-9.58961e-22
5.23915e-22
-1.29015e-21
-1.43548e-21
-4.9735e-22
-1.85076e-20
-1.68877e-20
-1.64988e-20
-1.87754e-20
-1.97276e-20
-1.99793e-20
-1.61688e-20
-1.42347e-20
-1.17842e-20
-1.55991e-20
-1.44976e-20
-1.51654e-20
-9.17554e-21
-1.13293e-20
-1.58173e-20
-1.42108e-20
-9.49594e-21
-8.87262e-21
-6.78906e-21
-5.76868e-21
-7.9794e-21
-7.88448e-21
-8.42382e-21
-9.44386e-21
-9.18799e-21
-5.46948e-21
-5.95681e-21
-6.10104e-21
-5.02245e-21
-5.3585e-21
-5.47598e-21
-4.06365e-21
-1.36816e-21
-1.62309e-21
-3.24996e-21
-1.48242e-21
3.21886e-22
-1.10198e-21
-6.25847e-22
-1.39745e-21
-1.74455e-20
-1.9306e-20
-1.7138e-20
-1.69687e-20
-1.98913e-20
-2.06416e-20
-1.44943e-20
-1.69919e-20
-1.73592e-20
-1.5481e-20
-1.40027e-20
-1.47155e-20
-1.32246e-20
-1.20057e-20
-1.56137e-20
-1.24361e-20
-1.17922e-20
-8.18037e-21
-6.48304e-21
-5.79286e-21
-7.9317e-21
-1.02018e-20
-8.79137e-21
-8.15322e-21
-8.28137e-21
-5.57199e-21
-5.41444e-21
-4.54461e-21
-6.82413e-21
-6.52495e-21
-5.99422e-21
-3.66187e-21
6.39939e-22
-2.16774e-21
-3.48616e-21
-2.84814e-21
-2.88346e-22
8.72757e-22
2.00542e-21
-1.94838e-21
-2.12959e-20
-2.24162e-20
-1.84168e-20
-1.79382e-20
-2.04632e-20
-1.88098e-20
-1.73662e-20
-1.67853e-20
-1.78035e-20
-1.62307e-20
-1.6086e-20
-1.46091e-20
-1.22302e-20
-1.33843e-20
-1.63345e-20
-1.30653e-20
-8.92716e-21
-6.41402e-21
-7.80764e-21
-7.31851e-21
-9.49666e-21
-1.10742e-20
-9.88656e-21
-9.14644e-21
-7.28432e-21
-5.74157e-21
-6.15461e-21
-3.30394e-21
-4.50926e-21
-2.772e-21
-6.3793e-21
-6.33537e-21
1.68285e-21
3.64974e-22
-3.57212e-21
-5.0849e-21
-1.90705e-21
-7.62914e-22
5.93894e-23
-2.20119e-21
-1.99001e-20
-2.06248e-20
-1.82466e-20
-1.906e-20
-2.131e-20
-1.98488e-20
-1.71451e-20
-1.85695e-20
-1.88435e-20
-1.89977e-20
-1.60162e-20
-1.55106e-20
-1.27415e-20
-1.29087e-20
-1.60596e-20
-1.43784e-20
-1.01873e-20
-6.81286e-21
-5.33494e-21
-4.62167e-21
-8.11514e-21
-1.33352e-20
-1.02564e-20
-8.57702e-21
-8.91209e-21
-5.26003e-21
-5.51224e-21
-5.78752e-21
-2.67254e-21
-4.24014e-21
-8.08578e-21
-3.17238e-21
-2.40581e-21
-2.37726e-21
-3.38766e-21
-1.92433e-21
-6.89751e-22
3.26187e-22
-1.14702e-21
-2.60098e-22
-2.06519e-20
-2.29782e-20
-2.02564e-20
-2.08978e-20
-1.97455e-20
-1.9882e-20
-1.8533e-20
-1.85634e-20
-1.92582e-20
-1.81957e-20
-1.58582e-20
-1.76585e-20
-1.27494e-20
-1.35515e-20
-1.50213e-20
-1.27802e-20
-1.10131e-20
-6.42437e-21
-8.1678e-21
-8.63601e-21
-7.47119e-21
-1.06134e-20
-1.01549e-20
-9.87875e-21
-7.37039e-21
-5.95631e-21
-5.34914e-21
-5.57063e-21
-5.5327e-22
-8.31261e-21
-6.1536e-21
-3.42542e-21
-2.07135e-21
-1.45367e-21
-1.91595e-21
-7.04721e-22
-1.24951e-21
-3.87004e-22
-6.32795e-22
-5.25095e-22
-1.84754e-20
-1.94777e-20
-1.7899e-20
-2.15023e-20
-2.26659e-20
-2.10489e-20
-2.21447e-20
-1.92545e-20
-1.5696e-20
-1.69519e-20
-1.80356e-20
-1.5075e-20
-1.4306e-20
-1.5598e-20
-1.61476e-20
-1.26439e-20
-9.27218e-21
-6.33383e-21
-6.17684e-21
-5.42592e-21
-9.44079e-21
-1.19035e-20
-1.16245e-20
-1.12907e-20
-7.82817e-21
-6.08731e-21
-4.77615e-21
-4.30674e-21
-5.30362e-21
-7.30779e-21
-2.99201e-21
-2.7816e-21
-3.80454e-21
-2.26122e-21
-2.60241e-21
-3.07905e-22
5.03731e-22
-1.3322e-21
-1.51264e-21
-5.7694e-22
-2.25235e-20
-2.37439e-20
-1.92593e-20
-1.96101e-20
-2.14103e-20
-2.08692e-20
-2.26639e-20
-2.3521e-20
-1.85187e-20
-1.72999e-20
-1.40047e-20
-1.13345e-20
-1.35915e-20
-1.2676e-20
-1.57459e-20
-1.42927e-20
-1.02545e-20
-6.63118e-21
-5.70974e-21
-7.27934e-21
-1.13434e-20
-1.13074e-20
-1.27525e-20
-1.41573e-20
-8.09554e-21
-5.18882e-21
-4.92901e-21
-6.15718e-21
-5.67527e-21
-6.01944e-21
-4.01978e-21
-2.57807e-21
-3.04554e-21
-2.43495e-21
-2.67063e-21
-8.08887e-22
-8.49068e-22
-2.38178e-21
-3.10339e-21
-2.90938e-21
-2.28951e-20
-2.46383e-20
-2.0161e-20
-1.90316e-20
-1.98842e-20
-2.2046e-20
-2.15027e-20
-2.11464e-20
-1.82275e-20
-1.92583e-20
-1.482e-20
-1.2474e-20
-1.48284e-20
-1.41296e-20
-1.54658e-20
-1.60013e-20
-1.02331e-20
-5.11386e-21
-4.68452e-21
-8.22173e-21
-1.19622e-20
-1.36919e-20
-1.13465e-20
-1.15347e-20
-7.00341e-21
-8.02108e-21
-6.74368e-21
-5.91721e-21
-3.23327e-21
-6.21708e-21
-5.12238e-21
-3.35775e-21
-1.23385e-21
-2.15575e-21
-2.54551e-21
-2.66519e-21
-3.13014e-23
-2.33503e-21
-3.78134e-21
-9.54427e-22
-2.41719e-20
-2.42128e-20
-2.02107e-20
-2.13154e-20
-2.099e-20
-2.36485e-20
-2.08615e-20
-1.99043e-20
-1.94642e-20
-1.80224e-20
-1.3842e-20
-1.5255e-20
-1.52653e-20
-1.44018e-20
-1.45634e-20
-1.29436e-20
-7.89316e-21
-6.66222e-21
-8.56183e-21
-1.09239e-20
-9.89023e-21
-1.03897e-20
-1.15373e-20
-1.33186e-20
-8.51098e-21
-5.48996e-21
-6.99772e-21
-5.17852e-21
-4.74156e-21
-4.02459e-21
-6.0048e-21
-4.58759e-21
-9.36793e-22
-1.04436e-21
-8.08194e-21
-1.74078e-21
9.91283e-22
-4.06399e-21
-3.87424e-21
-3.09767e-22
-2.62886e-20
-2.6272e-20
-2.22522e-20
-2.28437e-20
-2.1514e-20
-2.05506e-20
-2.10123e-20
-1.95105e-20
-1.871e-20
-1.9594e-20
-1.56534e-20
-1.41443e-20
-1.67403e-20
-1.21052e-20
-1.40696e-20
-1.39997e-20
-1.15026e-20
-8.70158e-21
-6.69056e-21
-7.32247e-21
-1.17271e-20
-1.19959e-20
-1.1624e-20
-1.38445e-20
-8.16655e-21
-5.1816e-21
-5.04689e-21
-4.44145e-21
-5.62075e-21
-3.96424e-21
-5.8491e-21
-4.93423e-21
-1.17094e-21
-2.85367e-21
-5.54242e-21
-2.29279e-21
-1.42787e-21
1.8587e-21
-7.05711e-22
1.62796e-22
-2.86292e-20
-2.54416e-20
-2.13571e-20
-1.97273e-20
-2.12942e-20
-1.9933e-20
-2.16984e-20
-1.97196e-20
-1.98762e-20
-1.65433e-20
-1.52227e-20
-1.6192e-20
-1.73717e-20
-1.46606e-20
-1.29879e-20
-1.16449e-20
-1.01692e-20
-8.63818e-21
-9.39048e-21
-1.06546e-20
-8.83645e-21
-1.15263e-20
-1.33081e-20
-1.06504e-20
-8.37931e-21
-7.66967e-21
-5.58573e-21
-4.67319e-21
-5.21831e-21
-2.95328e-21
-5.58595e-21
-4.29444e-21
-3.81377e-21
-7.17505e-22
-3.9242e-21
-3.60904e-21
2.19797e-21
-1.74419e-22
-7.88264e-22
-5.95026e-22
-2.39463e-20
-2.59666e-20
-2.35747e-20
-2.17432e-20
-2.09678e-20
-2.05586e-20
-2.05079e-20
-1.98578e-20
-1.86184e-20
-1.51537e-20
-1.72619e-20
-1.76605e-20
-1.82753e-20
-1.49023e-20
-1.32283e-20
-1.21623e-20
-1.09152e-20
-9.57529e-21
-8.03598e-21
-7.20583e-21
-1.0922e-20
-1.21812e-20
-1.24403e-20
-8.45946e-21
-7.91538e-21
-8.0865e-21
-5.84029e-21
-5.01945e-21
-6.23219e-21
-3.94072e-21
-4.05725e-21
-4.93281e-21
-3.80139e-21
-1.78781e-21
-3.38841e-21
-2.24198e-21
1.14898e-22
-1.77332e-21
-1.52725e-21
-1.13956e-21
-2.30893e-20
-2.32152e-20
-2.35649e-20
-2.0611e-20
-2.39819e-20
-2.22215e-20
-2.05473e-20
-2.14266e-20
-1.8619e-20
-1.44568e-20
-1.62185e-20
-1.81947e-20
-1.70932e-20
-1.61698e-20
-1.35292e-20
-1.05218e-20
-1.05185e-20
-8.5748e-21
-1.19129e-20
-1.02966e-20
-1.20577e-20
-8.96354e-21
-8.82183e-21
-7.75193e-21
-7.57086e-21
-6.76877e-21
-5.86824e-21
-6.87672e-21