/*--------------------------------*- C++ -*----------------------------------*\
| =========                 |                                                 |
| \\      /  F ield         | OpenFOAM: The Open Source CFD Toolbox           |
|  \\    /   O peration     | Version:  v2012                                 |
|   \\  /    A nd           | Website:  www.openfoam.com                      |
|    \\/     M anipulation  |                                                 |
\*---------------------------------------------------------------------------*/
FoamFile
{
    version     2.0;
    format      ascii;
    class       surfaceScalarField;
    location    "39";
    object      phi;
}
// * * * * * * * * * * * * * * * * * * * * * * * * * * * * * * * * * * * * * //

dimensions      [0 3 -1 0 0 0 0];
oriented        oriented;


internalField   nonuniform List<scalar> 
187200
(
1.875e-06
2.3146e-22
2.83109e-22
1.875e-06
3.35052e-22
3.51541e-22
1.875e-06
4.30516e-22
4.95842e-22
1.875e-06
3.69992e-22
4.03579e-22
1.875e-06
3.26502e-22
2.57131e-22
1.875e-06
4.71211e-22
4.28355e-22
1.875e-06
4.17594e-22
3.50436e-22
1.875e-06
3.23173e-22
2.91968e-22
1.875e-06
2.42018e-22
4.10519e-22
1.875e-06
3.72095e-22
3.6107e-22
1.875e-06
4.56262e-22
2.47899e-22
1.875e-06
3.59023e-22
3.06828e-22
1.875e-06
2.5253e-22
3.69808e-22
1.875e-06
2.01147e-22
1.84167e-22
1.875e-06
2.1492e-22
2.74633e-22
1.875e-06
1.67997e-22
2.91867e-22
1.875e-06
2.06669e-22
2.67089e-22
1.875e-06
1.00405e-22
1.32602e-22
1.875e-06
9.15779e-23
1.30923e-22
1.875e-06
1.62055e-22
1.74385e-22
1.875e-06
7.68254e-23
1.594e-22
1.875e-06
1.59875e-22
1.64424e-22
1.875e-06
2.23385e-22
1.69912e-22
1.875e-06
3.13405e-22
1.2869e-22
1.875e-06
2.1495e-22
1.06782e-22
1.875e-06
1.53075e-22
1.01122e-22
1.875e-06
2.05764e-22
1.66351e-22
1.875e-06
1.05401e-22
9.17301e-23
1.875e-06
1.49338e-22
1.61284e-22
1.875e-06
9.43325e-23
1.59934e-22
1.875e-06
-3.49582e-25
1.6907e-22
1.875e-06
2.98722e-23
9.74344e-23
1.875e-06
1.26134e-22
1.02079e-22
1.875e-06
8.13405e-23
4.71138e-23
1.875e-06
8.64195e-24
5.6495e-23
1.875e-06
-5.34871e-23
-1.01275e-23
1.875e-06
-5.5465e-23
3.06651e-23
1.875e-06
-5.94052e-23
1.76383e-22
1.875e-06
-4.16754e-23
1.62783e-22
-1.93519e-23
1.1827e-22
1.875e-06
7.37549e-23
3.06309e-22
1.875e-06
1.2862e-22
5.30247e-22
1.875e-06
2.79977e-22
7.47075e-22
1.875e-06
3.48772e-22
7.54522e-22
1.875e-06
2.61237e-22
6.28734e-22
1.875e-06
3.05944e-22
7.12689e-22
1.875e-06
3.71507e-22
7.74507e-22
1.875e-06
3.78772e-22
7.29485e-22
1.875e-06
4.0174e-22
7.59955e-22
1.875e-06
2.82955e-22
8.11541e-22
1.875e-06
2.13778e-22
6.11923e-22
1.875e-06
1.97082e-22
5.66832e-22
1.875e-06
2.58644e-22
6.44314e-22
1.875e-06
1.85833e-22
5.68624e-22
1.875e-06
1.03932e-22
5.55285e-22
1.875e-06
7.09689e-23
5.53059e-22
1.875e-06
2.93626e-22
5.11521e-22
1.875e-06
3.22355e-22
5.70818e-22
1.875e-06
1.26634e-22
5.17328e-22
1.875e-06
-2.63815e-24
2.97793e-22
1.875e-06
1.94008e-22
4.24926e-22
1.875e-06
2.26219e-22
3.56912e-22
1.875e-06
1.72309e-22
2.53552e-22
1.875e-06
1.28195e-22
2.47902e-22
1.875e-06
1.46124e-22
2.00895e-22
1.875e-06
1.88243e-22
2.5528e-22
1.875e-06
1.1973e-22
2.39166e-22
1.875e-06
1.14592e-22
2.03649e-22
1.875e-06
5.15583e-23
3.45706e-22
1.875e-06
8.20406e-23
2.71951e-22
1.875e-06
1.07956e-22
2.97694e-22
1.875e-06
7.74327e-23
1.89099e-22
1.875e-06
-1.3759e-23
4.94378e-23
1.875e-06
-4.04382e-23
5.14163e-23
1.875e-06
2.7327e-23
1.62699e-22
1.875e-06
-2.05461e-23
1.21943e-22
1.875e-06
-3.33654e-23
2.77225e-23
1.875e-06
-6.38813e-23
4.46425e-23
1.875e-06
-7.10902e-23
8.13766e-23
-9.5482e-23
3.05459e-23
1.875e-06
1.82928e-22
4.12545e-22
1.875e-06
1.60675e-22
6.65686e-22
1.875e-06
1.39529e-22
7.11883e-22
1.875e-06
3.01044e-22
8.61112e-22
1.875e-06
3.04264e-22
8.81183e-22
1.875e-06
3.67528e-22
9.3291e-22
1.875e-06
3.72081e-22
9.01303e-22
1.875e-06
2.77385e-22
9.7947e-22
1.875e-06
3.02247e-22
9.46577e-22
1.875e-06
3.41243e-22
8.61769e-22
1.875e-06
3.23152e-22
8.07225e-22
1.875e-06
1.89582e-22
7.54643e-22
1.875e-06
1.71371e-22
6.47806e-22
1.875e-06
1.48e-22
6.49795e-22
1.875e-06
2.39487e-22
6.9205e-22
1.875e-06
3.31306e-22
7.55564e-22
1.875e-06
1.08842e-22
5.32572e-22
1.875e-06
1.94287e-22
5.7627e-22
1.875e-06
1.00751e-22
5.69938e-22
1.875e-06
1.30687e-22
4.65884e-22
1.875e-06
1.42164e-22
4.80451e-22
1.875e-06
1.10991e-22
3.23019e-22
1.875e-06
2.3647e-22
2.25808e-22
1.875e-06
1.75663e-22
2.94722e-22
1.875e-06
2.65463e-22
4.13652e-22
1.875e-06
6.99409e-23
3.71848e-22
1.875e-06
9.31063e-23
3.83869e-22
1.875e-06
-1.11129e-23
3.08737e-22
1.875e-06
2.02533e-23
3.07869e-22
1.875e-06
5.52816e-23
3.18213e-22
1.875e-06
3.20582e-23
3.87739e-22
1.875e-06
2.19267e-23
2.09825e-22
1.875e-06
-2.82993e-23
8.04503e-23
1.875e-06
2.90608e-23
1.32262e-22
1.875e-06
3.63548e-23
1.14522e-22
1.875e-06
-3.0877e-24
6.47726e-23
1.875e-06
3.71997e-23
6.85821e-24
1.875e-06
1.38736e-23
1.24134e-22
1.875e-06
1.73437e-23
1.37147e-22
-2.93435e-23
9e-23
1.875e-06
2.38304e-22
4.52575e-22
1.875e-06
1.90787e-22
7.5469e-22
1.875e-06
1.61009e-22
9.11358e-22
1.875e-06
1.30992e-22
9.028e-22
1.875e-06
1.98619e-22
9.20635e-22
1.875e-06
1.9062e-22
8.58855e-22
1.875e-06
1.22008e-22
8.64119e-22
1.875e-06
2.44739e-22
1.02682e-21
1.875e-06
2.25579e-22
1.0019e-21
1.875e-06
2.99012e-22
9.25726e-22
1.875e-06
2.57454e-22
8.80896e-22
1.875e-06
1.67465e-22
9.26758e-22
1.875e-06
1.54338e-22
6.95322e-22
1.875e-06
1.94027e-22
7.23699e-22
1.875e-06
3.18321e-22
7.68482e-22
1.875e-06
3.69525e-22
7.19881e-22
1.875e-06
2.34067e-22
6.13418e-22
1.875e-06
7.32023e-23
6.20235e-22
1.875e-06
2.87456e-22
6.4495e-22
1.875e-06
1.01515e-22
4.96629e-22
1.875e-06
5.23745e-23
4.99791e-22
1.875e-06
1.36346e-22
4.48184e-22
1.875e-06
1.0608e-22
2.7769e-22
1.875e-06
1.18698e-22
3.53513e-22
1.875e-06
7.11061e-23
3.54026e-22
1.875e-06
1.3996e-22
4.8516e-22
1.875e-06
4.14276e-23
3.96914e-22
1.875e-06
6.21129e-23
3.6031e-22
1.875e-06
7.61437e-23
3.05192e-22
1.875e-06
-4.2626e-23
2.96491e-22
1.875e-06
5.71167e-24
3.36437e-22
1.875e-06
-1.43484e-23
1.99655e-22
1.875e-06
-5.4053e-23
2.4279e-22
1.875e-06
7.31367e-25
1.67994e-22
1.875e-06
1.11737e-22
1.02148e-22
1.875e-06
1.13424e-23
2.77463e-23
1.875e-06
2.94675e-24
-2.73929e-24
1.875e-06
8.10165e-23
9.98779e-23
1.875e-06
-3.8648e-23
7.32466e-23
-4.47494e-23
7.33802e-23
1.875e-06
5.24754e-24
3.32044e-22
1.875e-06
1.30838e-22
8.17502e-22
1.875e-06
1.06693e-22
9.36261e-22
1.875e-06
1.03126e-22
9.87268e-22
1.875e-06
1.2215e-22
1.04559e-21
1.875e-06
7.00149e-23
1.00402e-21
1.875e-06
6.91514e-23
9.92797e-22
1.875e-06
2.88525e-22
1.04166e-21
1.875e-06
3.95966e-22
1.02818e-21
1.875e-06
2.3607e-22
9.55462e-22
1.875e-06
1.66668e-22
8.58592e-22
1.875e-06
2.12417e-22
9.9144e-22
1.875e-06
2.06641e-22
7.72695e-22
1.875e-06
1.90296e-22
8.16542e-22
1.875e-06
1.83742e-22
7.9788e-22
1.875e-06
2.03159e-22
7.22205e-22
1.875e-06
1.41532e-22
6.44014e-22
1.875e-06
1.2865e-22
7.17404e-22
1.875e-06
5.54404e-23
5.75715e-22
1.875e-06
2.28989e-22
5.57234e-22
1.875e-06
1.42729e-22
5.48344e-22
1.875e-06
1.24287e-22
4.21136e-22
1.875e-06
1.07141e-22
3.29522e-22
1.875e-06
1.27539e-22
4.10936e-22
1.875e-06
1.89775e-22
4.7775e-22
1.875e-06
8.96789e-23
4.53021e-22
1.875e-06
8.01046e-23
3.94808e-22
1.875e-06
-7.55217e-24
3.25075e-22
1.875e-06
-4.34552e-23
2.55028e-22
1.875e-06
1.04365e-23
3.38191e-22
1.875e-06
9.41485e-23
3.3297e-22
1.875e-06
1.45254e-22
3.35865e-22
1.875e-06
4.00129e-23
2.2128e-22
1.875e-06
-4.64549e-23
1.4749e-22
1.875e-06
-6.11324e-23
2.54528e-23
1.875e-06
-4.08632e-24
5.14062e-23
1.875e-06
3.3495e-23
1.87428e-24
1.875e-06
-1.72115e-23
1.40795e-23
1.875e-06
4.23512e-25
3.62685e-23
3.02572e-23
1.18953e-22
1.875e-06
5.60173e-23
4.30302e-22
1.875e-06
1.87216e-22
8.75246e-22
1.875e-06
4.68567e-23
9.43535e-22
1.875e-06
1.40266e-23
9.68378e-22
1.875e-06
1.20294e-22
1.12615e-21
1.875e-06
1.52262e-22
1.13873e-21
1.875e-06
1.74807e-22
1.09229e-21
1.875e-06
2.14675e-22
1.08399e-21
1.875e-06
3.00147e-22
1.0397e-21
1.875e-06
2.44323e-22
9.50735e-22
1.875e-06
1.94168e-22
9.50822e-22
1.875e-06
2.10386e-22
1.00181e-21
1.875e-06
1.14412e-22
8.53636e-22
1.875e-06
2.03506e-22
8.55861e-22
1.875e-06
1.75654e-22
8.69263e-22
1.875e-06
1.25809e-22
6.79231e-22
1.875e-06
1.50253e-22
7.58114e-22
1.875e-06
3.08675e-23
6.99931e-22
1.875e-06
9.47213e-23
6.22268e-22
1.875e-06
1.01522e-22
4.76018e-22
1.875e-06
1.83378e-22
5.25418e-22
1.875e-06
2.53674e-22
4.9102e-22
1.875e-06
1.97288e-22
3.80978e-22
1.875e-06
1.45099e-22
3.62011e-22
1.875e-06
4.60461e-23
3.61167e-22
1.875e-06
1.61809e-22
4.34514e-22
1.875e-06
1.06388e-22
3.93736e-22
1.875e-06
-1.65823e-23
3.53543e-22
1.875e-06
-6.75186e-23
2.95889e-22
1.875e-06
-3.70352e-23
3.42425e-22
1.875e-06
1.0642e-22
3.18629e-22
1.875e-06
1.32016e-22
2.5107e-22
1.875e-06
-2.701e-23
1.48576e-22
1.875e-06
-7.27984e-25
1.90113e-22
1.875e-06
4.9035e-24
1.09446e-22
1.875e-06
8.62514e-23
1.17467e-22
1.875e-06
-1.98609e-23
-3.53544e-23
1.875e-06
-5.3601e-24
-2.27032e-23
1.875e-06
7.23778e-23
-3.60884e-23
7.57946e-23
8.86002e-23
1.875e-06
5.95553e-23
5.14023e-22
1.875e-06
6.49809e-23
8.67126e-22
1.875e-06
1.30887e-22
1.04985e-21
1.875e-06
5.64933e-23
1.09021e-21
1.875e-06
3.71301e-23
1.15192e-21
1.875e-06
1.52507e-22
1.14774e-21
1.875e-06
2.55106e-22
1.17841e-21
1.875e-06
3.63431e-22
1.12095e-21
1.875e-06
2.74464e-22
1.10836e-21
1.875e-06
2.18459e-22
1.05908e-21
1.875e-06
1.57513e-22
1.02335e-21
1.875e-06
1.02899e-22
9.42135e-22
1.875e-06
1.60077e-22
9.14117e-22
1.875e-06
2.126e-22
8.45197e-22
1.875e-06
1.45791e-22
8.94387e-22
1.875e-06
1.14001e-22
7.64909e-22
1.875e-06
7.34941e-23
6.7532e-22
1.875e-06
1.37494e-22
7.06784e-22
1.875e-06
1.68563e-22
6.18608e-22
1.875e-06
7.62828e-23
5.44111e-22
1.875e-06
1.268e-22
5.38056e-22
1.875e-06
5.63149e-23
4.46487e-22
1.875e-06
7.65386e-23
3.47112e-22
1.875e-06
5.32018e-23
3.48099e-22
1.875e-06
4.70079e-23
3.79195e-22
1.875e-06
1.39315e-22
3.81573e-22
1.875e-06
1.31943e-22
3.95229e-22
1.875e-06
7.05732e-23
3.22844e-22
1.875e-06
5.75767e-23
2.6718e-22
1.875e-06
7.12129e-23
2.59555e-22
1.875e-06
-8.88681e-24
2.76423e-22
1.875e-06
-4.5465e-23
2.11413e-22
1.875e-06
6.5455e-23
1.69709e-22
1.875e-06
9.94574e-23
1.21324e-22
1.875e-06
1.10258e-22
1.08236e-22
1.875e-06
1.06249e-22
1.34388e-22
1.875e-06
2.23512e-24
7.13041e-25
1.875e-06
-2.91625e-23
4.42023e-24
1.875e-06
-2.10107e-23
-3.44404e-23
2.39297e-23
4.52216e-23
1.875e-06
1.19888e-22
4.02852e-22
1.875e-06
3.78284e-23
7.81994e-22
1.875e-06
6.35791e-23
1.00186e-21
1.875e-06
1.93328e-22
1.15341e-21
1.875e-06
2.20816e-22
1.33086e-21
1.875e-06
2.42582e-22
1.28893e-21
1.875e-06
2.28003e-22
1.12877e-21
1.875e-06
6.2644e-23
1.10035e-21
1.875e-06
1.14663e-22
1.12293e-21
1.875e-06
2.42349e-22
1.11363e-21
1.875e-06
1.57361e-22
1.04077e-21
1.875e-06
1.28555e-22
9.90986e-22
1.875e-06
7.19859e-23
8.83309e-22
1.875e-06
1.39632e-22
8.18451e-22
1.875e-06
2.37951e-22
9.31772e-22
1.875e-06
1.24292e-22
8.37315e-22
1.875e-06
8.09734e-23
7.68218e-22
1.875e-06
9.39882e-23
6.54438e-22
1.875e-06
1.48972e-22
4.33992e-22
1.875e-06
2.1101e-22
4.40105e-22
1.875e-06
5.42363e-23
4.97864e-22
1.875e-06
7.07974e-23
5.24302e-22
1.875e-06
1.27771e-22
4.30055e-22
1.875e-06
6.92918e-23
4.14354e-22
1.875e-06
6.02165e-23
4.71347e-22
1.875e-06
6.6831e-23
3.34546e-22
1.875e-06
1.04776e-22
3.35212e-22
1.875e-06
1.34363e-22
3.46366e-22
1.875e-06
6.242e-24
1.67095e-22
1.875e-06
7.65892e-23
2.28213e-22
1.875e-06
-6.63967e-23
3.2749e-22
1.875e-06
-8.2472e-23
1.93715e-22
1.875e-06
5.34139e-23
2.21034e-22
1.875e-06
6.22671e-23
1.59101e-22
1.875e-06
7.36156e-23
1.23413e-23
1.875e-06
-3.10567e-23
-1.37299e-22
1.875e-06
-2.47138e-23
-7.70838e-23
1.875e-06
-5.47217e-24
2.684e-23
1.875e-06
-2.26213e-23
1.45225e-23
-1.23779e-23
-4.73696e-23
1.875e-06
-1.87407e-22
3.15475e-22
1.875e-06
-6.58098e-23
8.51269e-22
1.875e-06
4.9361e-23
1.06907e-21
1.875e-06
9.49658e-23
1.16935e-21
1.875e-06
1.94283e-22
1.23477e-21
1.875e-06
1.90753e-22
1.24354e-21
1.875e-06
1.9911e-22
1.23257e-21
1.875e-06
1.79618e-22
1.24337e-21
1.875e-06
1.24708e-22
1.19611e-21
1.875e-06
7.007e-23
1.03517e-21
1.875e-06
1.86673e-22
1.01823e-21
1.875e-06
-1.59519e-23
1.0359e-21
1.875e-06
7.52839e-23
9.38909e-22
1.875e-06
2.05016e-22
8.50177e-22
1.875e-06
1.2571e-22
8.18373e-22
1.875e-06
8.91847e-23
7.96577e-22
1.875e-06
1.83118e-22
7.97114e-22
1.875e-06
1.64537e-22
7.00408e-22
1.875e-06
-8.30812e-23
5.32172e-22
1.875e-06
-8.29143e-23
4.67137e-22
1.875e-06
1.47749e-22
5.24971e-22
1.875e-06
1.12097e-22
4.65028e-22
1.875e-06
1.10026e-22
3.45184e-22
1.875e-06
1.78898e-22
4.02306e-22
1.875e-06
2.04812e-22
4.81307e-22
1.875e-06
4.38608e-23
4.13784e-22
1.875e-06
-1.01636e-22
2.68686e-22
1.875e-06
-3.30201e-23
2.30632e-22
1.875e-06
1.05112e-22
1.7386e-22
1.875e-06
1.54441e-23
2.78793e-22
1.875e-06
-2.89044e-23
3.36224e-22
1.875e-06
-4.0828e-23
2.36274e-22
1.875e-06
1.06365e-23
1.97972e-22
1.875e-06
2.10431e-23
1.0273e-22
1.875e-06
-3.04318e-23
-1.74895e-22
1.875e-06
2.56594e-23
-2.90249e-22
1.875e-06
1.06244e-22
-2.04639e-23
1.875e-06
6.35333e-23
-2.84156e-23
1.875e-06
4.1644e-23
-5.75033e-23
-5.36334e-24
-1.07074e-22
1.875e-06
-4.67421e-23
4.42417e-22
1.875e-06
6.36109e-23
8.11131e-22
1.875e-06
1.23609e-22
1.03507e-21
1.875e-06
2.23579e-22
1.25568e-21
1.875e-06
9.29133e-23
1.31202e-21
1.875e-06
1.11657e-22
1.28237e-21
1.875e-06
2.58453e-22
1.3462e-21
1.875e-06
1.2198e-22
1.28817e-21
1.875e-06
1.38704e-22
1.10204e-21
1.875e-06
1.16316e-22
1.01045e-21
1.875e-06
1.93068e-23
9.48129e-22
1.875e-06
7.93402e-23
1.05449e-21
1.875e-06
7.67004e-23
1.00652e-21
1.875e-06
2.94496e-23
8.32739e-22
1.875e-06
9.39271e-23
8.80125e-22
1.875e-06
2.33119e-22
8.26198e-22
1.875e-06
2.30321e-22
7.01241e-22
1.875e-06
1.96207e-23
6.01344e-22
1.875e-06
-3.98005e-23
6.34479e-22
1.875e-06
5.29979e-23
5.71029e-22
1.875e-06
1.73071e-22
5.37983e-22
1.875e-06
2.49979e-22
5.19413e-22
1.875e-06
1.16496e-22
4.39476e-22
1.875e-06
1.06505e-22
5.14295e-22
1.875e-06
8.72213e-23
4.09256e-22
1.875e-06
5.13876e-23
3.83163e-22
1.875e-06
-1.07338e-22
3.25538e-22
1.875e-06
-5.77642e-23
2.80486e-22
1.875e-06
1.14133e-24
2.47224e-22
1.875e-06
7.78338e-23
2.94596e-22
1.875e-06
1.75655e-23
2.76168e-22
1.875e-06
-5.3655e-23
2.61546e-22
1.875e-06
5.24943e-23
2.23062e-22
1.875e-06
5.9468e-26
7.96295e-23
1.875e-06
-5.30302e-23
-1.27162e-22
1.875e-06
6.48928e-25
-3.74938e-22
1.875e-06
-9.1465e-24
-3.31214e-22
1.875e-06
6.16053e-23
-1.99215e-22
1.875e-06
9.8863e-23
-1.10153e-22
1.02587e-22
-1.25869e-22
1.875e-06
6.15243e-23
6.57961e-22
1.875e-06
1.45597e-22
9.5574e-22
1.875e-06
1.63913e-22
1.04609e-21
1.875e-06
9.46269e-23
1.14532e-21
1.875e-06
1.55946e-22
1.35369e-21
1.875e-06
2.19908e-22
1.28819e-21
1.875e-06
4.13402e-23
1.26042e-21
1.875e-06
1.67767e-22
1.42623e-21
1.875e-06
1.52636e-23
1.1532e-21
1.875e-06
7.16892e-23
9.9148e-22
1.875e-06
2.13074e-22
9.09818e-22
1.875e-06
1.4866e-22
9.2324e-22
1.875e-06
1.03761e-22
9.98629e-22
1.875e-06
1.17586e-22
8.19478e-22
1.875e-06
1.72751e-22
8.99132e-22
1.875e-06
2.33728e-23
7.99084e-22
1.875e-06
2.51684e-23
6.26217e-22
1.875e-06
1.51371e-22
6.66273e-22
1.875e-06
2.00379e-22
7.1167e-22
1.875e-06
1.38997e-22
6.37526e-22
1.875e-06
6.46332e-23
5.82948e-22
1.875e-06
8.73686e-23
4.89299e-22
1.875e-06
9.18277e-23
5.24319e-22
1.875e-06
7.46431e-23
5.96616e-22
1.875e-06
3.3388e-23
3.99725e-22
1.875e-06
-1.26249e-22
2.72104e-22
1.875e-06
2.69626e-23
4.04031e-22
1.875e-06
3.39797e-23
3.80103e-22
1.875e-06
1.98632e-23
2.85578e-22
1.875e-06
-1.1578e-22
2.33881e-22
1.875e-06
-2.60807e-23
3.14801e-22
1.875e-06
6.15415e-23
2.99813e-22
1.875e-06
-5.79131e-23
9.95372e-23
1.875e-06
-1.84189e-23
5.25774e-23
1.875e-06
2.00904e-23
-1.04569e-22
1.875e-06
-8.26763e-23
-3.97491e-22
1.875e-06
-6.87047e-23
-3.16027e-22
1.875e-06
2.9154e-23
-1.61214e-22
1.875e-06
1.23946e-22
-1.64216e-22
1.49898e-22
-1.54266e-22
1.875e-06
9.69058e-23
6.57876e-22
1.875e-06
8.04793e-23
9.50002e-22
1.875e-06
1.12114e-22
1.08421e-21
1.875e-06
1.26561e-22
1.1751e-21
1.875e-06
1.38e-22
1.28495e-21
1.875e-06
-1.73625e-23
1.22321e-21
1.875e-06
9.07228e-23
1.26988e-21
1.875e-06
1.19075e-22
1.26838e-21
1.875e-06
1.44617e-22
1.21314e-21
1.875e-06
5.69734e-23
1.07042e-21
1.875e-06
2.34684e-23
8.50414e-22
1.875e-06
6.36515e-23
8.98493e-22
1.875e-06
1.88292e-22
1.0285e-21
1.875e-06
1.34575e-22
8.76031e-22
1.875e-06
6.05171e-25
8.30262e-22
1.875e-06
7.69824e-23
9.29737e-22
1.875e-06
4.19177e-23
6.61308e-22
1.875e-06
6.04324e-23
5.89392e-22
1.875e-06
1.01316e-22
6.18604e-22
1.875e-06
2.29511e-22
6.55442e-22
1.875e-06
9.20796e-23
6.59995e-22
1.875e-06
1.64162e-23
5.71889e-22
1.875e-06
1.12124e-23
4.6904e-22
1.875e-06
4.54692e-23
4.5892e-22
1.875e-06
-1.63524e-22
3.6949e-22
1.875e-06
-1.09672e-22
4.32562e-22
1.875e-06
9.8042e-24
3.75411e-22
1.875e-06
3.27254e-23
3.47506e-22
1.875e-06
-2.12265e-23
2.27559e-22
1.875e-06
-7.75079e-23
3.42425e-22
1.875e-06
7.23345e-23
3.92132e-22
1.875e-06
3.48323e-23
2.73723e-22
1.875e-06
-5.66452e-23
1.1078e-22
1.875e-06
5.51674e-23
1.86133e-24
1.875e-06
6.30928e-23
-1.23964e-22
1.875e-06
-6.13188e-23
-2.71433e-22
1.875e-06
-5.77157e-23
-3.02088e-22
1.875e-06
5.4099e-24
-1.65157e-22
1.875e-06
-7.62599e-23
-1.88217e-22
-1.07129e-22
-3.51768e-22
1.875e-06
1.80938e-22
6.32659e-22
1.875e-06
2.04244e-22
1.00735e-21
1.875e-06
1.15821e-22
1.07794e-21
1.875e-06
1.30353e-22
1.23138e-21
1.875e-06
-3.81123e-23
1.29388e-21
1.875e-06
-7.89248e-23
1.34046e-21
1.875e-06
6.74945e-23
1.27184e-21
1.875e-06
1.52048e-22
1.20141e-21
1.875e-06
2.34101e-23
1.14349e-21
1.875e-06
6.38254e-23
1.02778e-21
1.875e-06
-2.50992e-23
8.34452e-22
1.875e-06
1.29548e-22
1.03587e-21
1.875e-06
2.67763e-22
1.03406e-21
1.875e-06
1.23006e-22
9.48878e-22
1.875e-06
9.52415e-23
9.11323e-22
1.875e-06
7.09712e-23
7.92905e-22
1.875e-06
5.54571e-23
6.15739e-22
1.875e-06
8.48543e-23
6.50341e-22
1.875e-06
1.22609e-22
7.65486e-22
1.875e-06
4.39366e-23
6.61941e-22
1.875e-06
1.38217e-22
5.52328e-22
1.875e-06
1.0309e-22
5.49475e-22
1.875e-06
6.51401e-23
5.32381e-22
1.875e-06
-6.25704e-23
5.60996e-22
1.875e-06
1.13876e-23
4.73395e-22
1.875e-06
-7.05669e-23
4.19112e-22
1.875e-06
-1.49136e-22
3.16928e-22
1.875e-06
8.15984e-24
2.86453e-22
1.875e-06
2.73528e-23
2.92109e-22
1.875e-06
-1.70469e-22
3.28542e-22
1.875e-06
-1.34534e-22
3.36874e-22
1.875e-06
6.01862e-23
2.59933e-22
1.875e-06
6.41136e-23
1.44054e-22
1.875e-06
-3.35295e-23
-9.21312e-23
1.875e-06
-3.94341e-23
-9.39682e-23
1.875e-06
-2.58599e-23
-2.71511e-22
1.875e-06
4.91546e-23
-3.35689e-22
1.875e-06
-6.11872e-23
-1.78737e-22
1.875e-06
-1.38948e-22
-9.53283e-23
-1.23248e-22
-2.31884e-22
1.875e-06
-1.39261e-22
5.44066e-22
1.875e-06
1.90371e-23
9.45539e-22
1.875e-06
1.3942e-22
1.12676e-21
1.875e-06
4.18621e-24
1.25313e-21
1.875e-06
-1.89347e-23
1.36478e-21
1.875e-06
9.22055e-23
1.37446e-21
1.875e-06
1.01034e-22
1.26076e-21
1.875e-06
1.71815e-22
1.13477e-21
1.875e-06
1.62951e-22
1.1832e-21
1.875e-06
-8.77239e-23
1.02449e-21
1.875e-06
-1.22934e-23
9.53408e-22
1.875e-06
2.65405e-22
9.80051e-22
1.875e-06
1.33803e-22
9.55616e-22
1.875e-06
3.74087e-23
8.90577e-22
1.875e-06
8.61383e-24
8.89014e-22
1.875e-06
4.56924e-23
8.7456e-22
1.875e-06
1.23675e-22
7.22199e-22
1.875e-06
2.06722e-22
7.41418e-22
1.875e-06
1.73658e-22
6.73903e-22
1.875e-06
1.02e-22
6.16624e-22
1.875e-06
1.46504e-22
5.49629e-22
1.875e-06
-1.97147e-23
5.55796e-22
1.875e-06
-2.54107e-23
5.64118e-22
1.875e-06
-4.31668e-23
6.04812e-22
1.875e-06
-8.58033e-23
4.47603e-22
1.875e-06
8.3187e-23
4.54821e-22
1.875e-06
8.32159e-23
3.89408e-22
1.875e-06
-9.48267e-23
2.66639e-22
1.875e-06
-1.47697e-22
2.37568e-22
1.875e-06
1.37459e-23
3.56625e-22
1.875e-06
-1.19193e-22
3.68471e-22
1.875e-06
-1.46082e-22
2.11944e-22
1.875e-06
1.48766e-23
1.2919e-22
1.875e-06
-3.53966e-23
2.76934e-23
1.875e-06
-8.47484e-23
-1.6537e-22
1.875e-06
-1.52502e-23
-2.99769e-22
1.875e-06
-1.03276e-22
-3.72113e-22
1.875e-06
-4.2235e-23
-3.50332e-22
1.875e-06
-1.07362e-22
-2.09356e-22
-2.08007e-22
-2.93135e-22
1.875e-06
-4.91942e-23
7.48163e-22
1.875e-06
-1.85119e-22
9.58245e-22
1.875e-06
-4.80654e-23
1.08255e-21
1.875e-06
-1.88222e-23
1.2316e-21
1.875e-06
7.93994e-23
1.38069e-21
1.875e-06
-1.85032e-23
1.26409e-21
1.875e-06
-2.3584e-23
1.21771e-21
1.875e-06
5.79935e-24
1.04972e-21
1.875e-06
2.26074e-23
1.1454e-21
1.875e-06
-4.11287e-24
1.08537e-21
1.875e-06
1.59906e-22
1.04436e-21
1.875e-06
8.55252e-23
9.47542e-22
1.875e-06
7.96118e-23
9.96855e-22
1.875e-06
1.18683e-22
1.01749e-21
1.875e-06
1.67448e-22
9.04398e-22
1.875e-06
1.18536e-22
7.67996e-22
1.875e-06
7.78544e-23
6.79976e-22
1.875e-06
1.45938e-22
6.51988e-22
1.875e-06
8.52149e-23
6.90533e-22
1.875e-06
3.77927e-23
6.47024e-22
1.875e-06
8.15089e-23
4.29929e-22
1.875e-06
1.25348e-22
6.1984e-22
1.875e-06
-6.32019e-24
6.89223e-22
1.875e-06
-1.57573e-22
4.79245e-22
1.875e-06
-1.42501e-22
4.37998e-22
1.875e-06
1.26383e-23
4.64512e-22
1.875e-06
7.12135e-23
3.59276e-22
1.875e-06
-5.22287e-24
2.7355e-22
1.875e-06
1.06301e-23
2.90342e-22
1.875e-06
-3.5606e-23
2.75757e-22
1.875e-06
-5.82384e-23
3.67706e-22
1.875e-06
-5.27534e-23
2.9431e-22
1.875e-06
-2.22055e-23
1.85498e-22
1.875e-06
-1.98213e-23
-2.64466e-23
1.875e-06
-1.21625e-23
-1.37733e-22
1.875e-06
-8.05864e-24
-2.48192e-22
1.875e-06
-9.82059e-23
-3.62747e-22
1.875e-06
-1.35601e-22
-3.09859e-22
1.875e-06
-3.20561e-23
-2.06106e-22
-2.38856e-23
-1.71352e-22
1.875e-06
-3.74569e-23
6.28729e-22
1.875e-06
-1.08824e-22
1.08276e-21
1.875e-06
-1.03252e-22
1.19397e-21
1.875e-06
-1.1362e-22
1.30659e-21
1.875e-06
-6.78862e-23
1.32696e-21
1.875e-06
5.58375e-23
1.33967e-21
1.875e-06
-7.89366e-24
1.22087e-21
1.875e-06
-4.05836e-23
1.10995e-21
1.875e-06
1.03961e-23
1.12968e-21
1.875e-06
1.24442e-22
1.08052e-21
1.875e-06
1.86893e-23
1.03955e-21
1.875e-06
1.26769e-22
1.04541e-21
1.875e-06
-4.56238e-23
1.058e-21
1.875e-06
1.00737e-22
1.00191e-21
1.875e-06
1.26019e-22
8.42341e-22
1.875e-06
5.14561e-23
7.17521e-22
1.875e-06
8.60608e-23
7.11041e-22
1.875e-06
6.38965e-23
6.27385e-22
1.875e-06
1.53135e-22
6.50823e-22
1.875e-06
1.0517e-22
6.18503e-22
1.875e-06
8.96914e-23
5.01024e-22
1.875e-06
1.12951e-23
5.26781e-22
1.875e-06
-1.51068e-23
5.92912e-22
1.875e-06
-8.74925e-23
5.08845e-22
1.875e-06
-2.4503e-23
4.92664e-22
1.875e-06
-1.63886e-22
4.63521e-22
1.875e-06
7.49325e-25
2.91064e-22
1.875e-06
1.56349e-22
2.39974e-22
1.875e-06
-1.88415e-23
3.07151e-22
1.875e-06
3.15685e-23
3.27533e-22
1.875e-06
-3.12398e-23
3.45134e-22
1.875e-06
-4.30883e-23
3.25414e-22
1.875e-06
-1.48127e-23
1.7599e-22
1.875e-06
-1.35731e-22
-1.5449e-23
1.875e-06
-1.90015e-22
-2.00575e-22
1.875e-06
-1.03455e-22
-3.56339e-22
1.875e-06
8.41472e-23
-2.07285e-22
1.875e-06
1.16377e-23
-6.96311e-23
1.875e-06
-1.11603e-22
-1.03262e-22
2.25587e-23
-9.69664e-23
1.875e-06
-1.4099e-22
5.83198e-22
1.875e-06
-6.05428e-23
1.04524e-21
1.875e-06
-5.51708e-24
1.20598e-21
1.875e-06
-4.20167e-23
1.3634e-21
1.875e-06
-7.65513e-23
1.45768e-21
1.875e-06
-3.52183e-23
1.32696e-21
1.875e-06
-1.06203e-22
1.23171e-21
1.875e-06
-1.25375e-22
1.1827e-21
1.875e-06
5.57155e-24
1.1578e-21
1.875e-06
7.77823e-23
1.05662e-21
1.875e-06
1.2634e-22
1.08272e-21
1.875e-06
1.27088e-24
1.02226e-21
1.875e-06
3.63432e-23
1.14986e-21
1.875e-06
5.2174e-23
1.04947e-21
1.875e-06
1.6653e-22
8.22229e-22
1.875e-06
1.18338e-22
7.03179e-22
1.875e-06
4.15079e-23
6.67333e-22
1.875e-06
-3.38844e-23
6.50138e-22
1.875e-06
9.26436e-23
6.47102e-22
1.875e-06
2.10339e-22
6.59203e-22
1.875e-06
1.49686e-22
5.43728e-22
1.875e-06
-1.28521e-23
5.26159e-22
1.875e-06
-1.73228e-22
4.37373e-22
1.875e-06
-9.65465e-23
4.64198e-22
1.875e-06
-6.88342e-23
4.47908e-22
1.875e-06
4.39597e-23
5.23361e-22
1.875e-06
2.63454e-23
2.97027e-22
1.875e-06
-1.25709e-23
2.05076e-22
1.875e-06
1.59336e-23
3.67637e-22
1.875e-06
3.46428e-23
3.22616e-22
1.875e-06
7.25722e-23
3.27012e-22
1.875e-06
-8.13047e-23
2.63172e-22
1.875e-06
-1.63325e-22
1.15395e-22
1.875e-06
-5.13277e-23
1.28173e-22
1.875e-06
-1.54863e-22
-4.5888e-23
1.875e-06
-1.35078e-22
-2.75964e-22
1.875e-06
-9.32079e-23
-2.77847e-22
1.875e-06
3.10202e-23
-1.05424e-22
1.875e-06
8.56171e-24
-8.02782e-23
-4.9157e-23
-2.41192e-22
1.875e-06
-6.23929e-23
6.39761e-22
1.875e-06
-1.38327e-22
1.07882e-21
1.875e-06
-1.42759e-22
1.17295e-21
1.875e-06
3.00306e-23
1.38217e-21
1.875e-06
3.66311e-23
1.40291e-21
1.875e-06
-1.48e-22
1.30285e-21
1.875e-06
-9.7259e-23
1.26262e-21
1.875e-06
-1.18409e-22
1.19169e-21
1.875e-06
5.98993e-24
1.24795e-21
1.875e-06
4.48194e-23
1.19736e-21
1.875e-06
6.4569e-23
1.06495e-21
1.875e-06
6.3249e-23
1.00556e-21
1.875e-06
6.82081e-23
1.1329e-21
1.875e-06
-5.97944e-23
1.04089e-21
1.875e-06
-3.62405e-23
7.73845e-22
1.875e-06
7.66097e-23
7.42269e-22
1.875e-06
6.18288e-23
6.77009e-22
1.875e-06
1.93423e-22
7.71634e-22
1.875e-06
2.08401e-22
6.21882e-22
1.875e-06
1.69145e-22
5.62996e-22
1.875e-06
-7.59152e-23
4.14412e-22
1.875e-06
-2.17575e-22
5.91141e-22
1.875e-06
-9.47473e-23
5.59658e-22
1.875e-06
-2.48896e-23
4.1549e-22
1.875e-06
-6.38212e-23
4.38048e-22
1.875e-06
-2.98722e-24
4.13018e-22
1.875e-06
6.53557e-23
2.93961e-22
1.875e-06
-2.44273e-23
3.02479e-22
1.875e-06
-1.74211e-23
2.82375e-22
1.875e-06
5.53196e-23
2.53185e-22
1.875e-06
6.59968e-23
2.11715e-22
1.875e-06
-2.53188e-23
2.06126e-22
1.875e-06
-1.11526e-22
1.31796e-22
1.875e-06
-7.25868e-23
9.34825e-23
1.875e-06
-8.1912e-23
4.12395e-23
1.875e-06
-1.04964e-22
-4.91834e-23
1.875e-06
-8.94803e-23
-6.33022e-23
1.875e-06
-7.46559e-23
-2.25238e-22
1.875e-06
1.62328e-22
-1.77119e-22
1.22645e-22
-2.29744e-22
1.875e-06
-3.72009e-23
7.8239e-22
1.875e-06
6.49559e-23
1.11432e-21
1.875e-06
4.38841e-23
1.21355e-21
1.875e-06
-6.49534e-24
1.38594e-21
1.875e-06
-6.41284e-23
1.43875e-21
1.875e-06
-1.48924e-22
1.3505e-21
1.875e-06
-1.93307e-22
1.30715e-21
1.875e-06
-9.87079e-23
1.32596e-21
1.875e-06
5.41122e-23
1.25109e-21
1.875e-06
9.42069e-23
1.12524e-21
1.875e-06
-2.76784e-23
1.02861e-21
1.875e-06
3.62976e-24
1.07024e-21
1.875e-06
1.08068e-22
1.11424e-21
1.875e-06
1.16703e-22
1.09577e-21
1.875e-06
-3.36375e-24
8.14701e-22
1.875e-06
-7.36529e-23
7.62705e-22
1.875e-06
-4.60159e-23
7.22779e-22
1.875e-06
-7.84473e-24
6.30351e-22
1.875e-06
1.1853e-22
4.91989e-22
1.875e-06
2.22621e-23
4.66425e-22
1.875e-06
-5.76313e-23
4.1825e-22
1.875e-06
3.1815e-23
6.42096e-22
1.875e-06
-5.22732e-23
6.25462e-22
1.875e-06
-2.69037e-23
5.71633e-22
1.875e-06
-1.88469e-23
4.71758e-22
1.875e-06
-3.60876e-23
3.83635e-22
1.875e-06
8.102e-23
2.84231e-22
1.875e-06
1.26495e-22
3.33935e-22
1.875e-06
9.70905e-23
3.02274e-22
1.875e-06
-6.16025e-23
2.30291e-22
1.875e-06
-9.87985e-23
1.07703e-22
1.875e-06
-5.21971e-23
1.19675e-22
1.875e-06
-2.90729e-23
1.2593e-22
1.875e-06
-1.53089e-23
1.7638e-22
1.875e-06
3.32437e-23
1.3572e-22
1.875e-06
-7.41906e-24
4.06178e-23
1.875e-06
7.29502e-23
-7.21865e-24
1.875e-06
-7.32445e-24
-1.22572e-22
1.875e-06
-6.14013e-23
-2.77758e-22
-1.42594e-23
-2.63859e-22
1.875e-06
1.74818e-22
8.66493e-22
1.875e-06
1.09697e-22
1.1539e-21
1.875e-06
4.65732e-24
1.09359e-21
1.875e-06
-7.58978e-23
1.19743e-21
1.875e-06
-1.52953e-22
1.44222e-21
1.875e-06
-2.91802e-23
1.37643e-21
1.875e-06
6.27523e-24
1.38509e-21
1.875e-06
-1.11373e-22
1.33217e-21
1.875e-06
-1.57945e-22
1.17051e-21
1.875e-06
-6.06491e-25
1.2521e-21
1.875e-06
-1.88399e-22
1.10342e-21
1.875e-06
4.66823e-22
1.13396e-21
1.875e-06
5.78841e-23
1.03417e-21
1.875e-06
7.59501e-23
1.06121e-21
1.875e-06
2.37183e-23
9.75715e-22
1.875e-06
-1.49157e-22
8.20173e-22
1.875e-06
-8.66488e-23
6.62153e-22
1.875e-06
-9.99056e-23
5.05572e-22
1.875e-06
-6.3812e-23
4.87312e-22
1.875e-06
-2.89408e-23
4.93808e-22
1.875e-06
-4.33291e-23
4.30384e-22
1.875e-06
-9.08147e-23
5.46178e-22
1.875e-06
-3.51782e-23
7.09932e-22
1.875e-06
2.49324e-23
5.72851e-22
1.875e-06
1.61672e-22
4.65297e-22
1.875e-06
1.11931e-22
3.97836e-22
1.875e-06
-8.28244e-23
2.45069e-22
1.875e-06
-4.746e-23
2.43915e-22
1.875e-06
-1.63668e-22
2.76841e-22
1.875e-06
2.07249e-22
2.34715e-22
1.875e-06
2.46882e-23
2.41104e-22
1.875e-06
-5.42208e-23
1.01977e-22
1.875e-06
6.15916e-23
1.1839e-22
1.875e-06
-6.53258e-23
1.78478e-22
1.875e-06
4.2077e-23
1.06745e-22
1.875e-06
9.22476e-23
7.22997e-23
1.875e-06
4.89041e-23
-5.2854e-23
1.875e-06
9.42391e-23
-1.77465e-22
1.875e-06
-8.27571e-23
-3.59513e-22
-9.07209e-23
-2.80518e-22
1.875e-06
2.43663e-22
7.39413e-22
1.875e-06
1.21404e-22
1.02844e-21
1.875e-06
-1.33112e-23
1.05695e-21
1.875e-06
-1.07055e-24
1.2837e-21
1.875e-06
1.1769e-22
1.42811e-21
1.875e-06
6.43745e-23
1.39841e-21
1.875e-06
-7.16803e-24
1.35408e-21
1.875e-06
-1.42783e-22
1.28077e-21
1.875e-06
-1.52504e-22
1.21856e-21
1.875e-06
-7.60069e-23
1.33076e-21
1.875e-06
-4.69736e-24
1.18829e-21
1.875e-06
7.48399e-23
1.17385e-21
1.875e-06
1.64433e-22
1.09738e-21
1.875e-06
1.97861e-23
9.73924e-22
1.875e-06
-1.15097e-22
9.06789e-22
1.875e-06
-2.772e-23
9.02938e-22
1.875e-06
-5.58809e-23
7.00157e-22
1.875e-06
-7.43229e-23
5.74784e-22
1.875e-06
-2.00709e-22
5.41047e-22
1.875e-06
-1.06464e-22
5.03125e-22
1.875e-06
-2.28559e-23
4.58818e-22
1.875e-06
-4.70298e-23
5.93991e-22
1.875e-06
-2.44251e-24
6.53704e-22
1.875e-06
2.07525e-24
4.56011e-22
1.875e-06
4.82737e-23
4.3046e-22
1.875e-06
8.24064e-23
5.0664e-22
1.875e-06
3.52892e-23
2.77275e-22
1.875e-06
6.29134e-23
2.73812e-22
1.875e-06
7.87148e-24
3.87246e-22
1.875e-06
-4.03319e-23
2.27886e-22
1.875e-06
-8.63851e-24
1.32549e-22
1.875e-06
2.4834e-23
1.94031e-23
1.875e-06
-5.64657e-23
3.72726e-23
1.875e-06
2.04935e-23
1.82055e-22
1.875e-06
1.64492e-22
1.20669e-22
1.875e-06
1.74697e-22
5.13746e-23
1.875e-06
-2.33962e-23
-1.34031e-22
1.875e-06
-3.21165e-23
-2.66744e-22
1.875e-06
-1.34443e-22
-3.54123e-22
-1.51005e-22
-1.76304e-22
1.875e-06
-5.04017e-24
5.59084e-22
1.875e-06
1.0252e-22
9.72414e-22
1.875e-06
9.26503e-25
1.08444e-21
1.875e-06
3.19008e-24
1.2758e-21
1.875e-06
5.20749e-23
1.33797e-21
1.875e-06
1.24033e-22
1.31714e-21
1.875e-06
3.25222e-23
1.27186e-21
1.875e-06
5.60979e-24
1.29739e-21
1.875e-06
-3.43546e-23
1.2657e-21
1.875e-06
-1.736e-22
1.41671e-21
1.875e-06
-6.56168e-23
1.28418e-21
1.875e-06
-7.86906e-24
1.09564e-21
1.875e-06
-1.04793e-22
9.97576e-22
1.875e-06
-1.62799e-22
9.79743e-22
1.875e-06
-1.14087e-22
9.71836e-22
1.875e-06
-6.81264e-23
8.77869e-22
1.875e-06
-1.27705e-22
7.9352e-22
1.875e-06