/*--------------------------------*- C++ -*----------------------------------*\
| =========                 |                                                 |
| \\      /  F ield         | OpenFOAM: The Open Source CFD Toolbox           |
|  \\    /   O peration     | Version:  v2012                                 |
|   \\  /    A nd           | Website:  www.openfoam.com                      |
|    \\/     M anipulation  |                                                 |
\*---------------------------------------------------------------------------*/
FoamFile
{
    version     2.0;
    format      ascii;
    class       volVectorField;
    location    "39";
    object      U;
}
// * * * * * * * * * * * * * * * * * * * * * * * * * * * * * * * * * * * * * //

dimensions      [0 1 -1 0 0 0 0];


internalField   nonuniform List<vector> 
64000
(
(0.003 2.88269e-19 2.5577e-19)
(0.003 5.09306e-19 4.22281e-19)
(0.003 5.13799e-19 5.31054e-19)
(0.003 5.00575e-19 5.89863e-19)
(0.003 6.23235e-19 6.04708e-19)
(0.003 6.13724e-19 5.47426e-19)
(0.003 5.80292e-19 5.18833e-19)
(0.003 4.15751e-19 4.70934e-19)
(0.003 3.85326e-19 5.53413e-19)
(0.003 5.81284e-19 4.9918e-19)
(0.003 6.1693e-19 3.78932e-19)
(0.003 5.71145e-19 5.50166e-19)
(0.003 4.93995e-19 5.38709e-19)
(0.003 4.68244e-19 4.0922e-19)
(0.003 3.84012e-19 4.56466e-19)
(0.003 3.17855e-19 4.64687e-19)
(0.003 2.55204e-19 3.35188e-19)
(0.003 1.20353e-19 1.74615e-19)
(0.003 1.2394e-19 1.70069e-19)
(0.003 2.33005e-19 2.86251e-19)
(0.003 1.35177e-19 2.38414e-19)
(0.003 2.2045e-19 2.42825e-19)
(0.003 3.53021e-19 2.77053e-19)
(0.003 4.27783e-19 2.22574e-19)
(0.003 3.29683e-19 1.38285e-19)
(0.003 2.10401e-19 1.37071e-19)
(0.003 1.65113e-19 1.80408e-19)
(0.003 2.59846e-19 2.41215e-19)
(0.003 2.79257e-19 2.54947e-19)
(0.003 1.39132e-19 2.87928e-19)
(0.003 1.57836e-20 2.65438e-19)
(0.003 3.98282e-20 1.58427e-19)
(0.003 1.67073e-19 1.16363e-19)
(0.003 1.1045e-19 7.24221e-20)
(0.003 7.34315e-20 1.36281e-19)
(0.003 7.16444e-20 1.59436e-19)
(0.003 -3.47619e-20 9.14195e-20)
(0.003 -6.43713e-20 1.9102e-19)
(0.003 -9.35606e-20 2.43662e-19)
(0.003 -6.37141e-20 1.42473e-19)
(0.003 2.46281e-19 4.38743e-19)
(0.003 4.08088e-19 8.88031e-19)
(0.003 6.48636e-19 1.11634e-18)
(0.003 6.23185e-19 1.10571e-18)
(0.003 5.24807e-19 1.09697e-18)
(0.003 6.88277e-19 1.16622e-18)
(0.003 6.9804e-19 1.16426e-18)
(0.003 6.40051e-19 9.3859e-19)
(0.003 6.10818e-19 8.70873e-19)
(0.003 5.83715e-19 1.14724e-18)
(0.003 5.76579e-19 1.1127e-18)
(0.003 5.03183e-19 1.02674e-18)
(0.003 4.31276e-19 9.36638e-19)
(0.003 3.1829e-19 8.55189e-19)
(0.003 2.43985e-19 8.40931e-19)
(0.003 1.93808e-19 8.06265e-19)
(0.003 4.2558e-19 7.16621e-19)
(0.003 3.86341e-19 5.66321e-19)
(0.003 1.82381e-19 4.90018e-19)
(0.003 1.07593e-19 5.07302e-19)
(0.003 2.41789e-19 4.47601e-19)
(0.003 3.50042e-19 5.01041e-19)
(0.003 3.19667e-19 5.3854e-19)
(0.003 3.85385e-19 5.99793e-19)
(0.003 2.8559e-19 4.61013e-19)
(0.003 2.67806e-19 3.56998e-19)
(0.003 3.12458e-19 3.24427e-19)
(0.003 1.95255e-19 3.50689e-19)
(0.003 1.20723e-19 4.81179e-19)
(0.003 1.31383e-19 4.00582e-19)
(0.003 8.38321e-20 2.66111e-19)
(0.003 8.93873e-20 2.01336e-19)
(0.003 1.31172e-19 2.45246e-19)
(0.003 7.64181e-20 1.96865e-19)
(0.003 2.11177e-20 2.32382e-19)
(0.003 -6.43157e-20 2.22962e-19)
(0.003 -8.64452e-20 4.08423e-20)
(0.003 -1.0448e-19 3.84237e-20)
(0.003 -9.40223e-20 1.54239e-19)
(0.003 -1.07634e-19 1.11197e-19)
(0.003 1.67932e-19 5.57449e-19)
(0.003 1.79778e-19 9.79409e-19)
(0.003 3.11179e-19 1.20336e-18)
(0.003 5.22238e-19 1.32084e-18)
(0.003 4.589e-19 1.28888e-18)
(0.003 5.44925e-19 1.31075e-18)
(0.003 5.84468e-19 1.40327e-18)
(0.003 5.70294e-19 1.29028e-18)
(0.003 6.15281e-19 1.27132e-18)
(0.003 5.38843e-19 1.28519e-18)
(0.003 4.27196e-19 1.18813e-18)
(0.003 3.13187e-19 1.1478e-18)
(0.003 3.55529e-19 1.0261e-18)
(0.003 2.91228e-19 9.32215e-19)
(0.003 2.58682e-19 8.91553e-19)
(0.003 2.06882e-19 8.66732e-19)
(0.003 3.03217e-19 9.07023e-19)
(0.003 4.50717e-19 8.01263e-19)
(0.003 2.05901e-19 5.7226e-19)
(0.003 1.10237e-19 5.08702e-19)
(0.003 2.6012e-19 5.83215e-19)
(0.003 2.39443e-19 6.03943e-19)
(0.003 3.05577e-19 5.78456e-19)
(0.003 2.51072e-19 5.96613e-19)
(0.003 3.05744e-19 5.27902e-19)
(0.003 2.31468e-19 5.07708e-19)
(0.003 1.62696e-19 4.80152e-19)
(0.003 4.51085e-20 4.99807e-19)
(0.003 3.66141e-20 4.63121e-19)
(0.003 1.18471e-19 4.2575e-19)
(0.003 1.4653e-19 4.28436e-19)
(0.003 8.53285e-20 3.22142e-19)
(0.003 -4.56215e-20 2.33665e-19)
(0.003 -2.42956e-20 1.88415e-19)
(0.003 3.37095e-20 2.08688e-19)
(0.003 -1.04499e-20 1.22175e-19)
(0.003 -3.8933e-20 3.64684e-20)
(0.003 -3.49429e-20 9.53669e-20)
(0.003 -5.0132e-20 1.59092e-19)
(0.003 -9.45708e-20 6.47638e-20)
(0.003 3.6544e-19 7.0367e-19)
(0.003 2.95666e-19 1.13911e-18)
(0.003 2.26938e-19 1.32859e-18)
(0.003 3.6577e-19 1.49216e-18)
(0.003 4.2285e-19 1.44073e-18)
(0.003 4.43955e-19 1.49407e-18)
(0.003 3.91515e-19 1.51156e-18)
(0.003 4.0209e-19 1.34376e-18)
(0.003 3.88158e-19 1.3204e-18)
(0.003 4.56654e-19 1.3654e-18)
(0.003 4.33251e-19 1.37731e-18)
(0.003 3.05895e-19 1.28657e-18)
(0.003 2.63793e-19 1.112e-18)
(0.003 2.70684e-19 1.02823e-18)
(0.003 4.84852e-19 1.0283e-18)
(0.003 6.09659e-19 8.83827e-19)
(0.003 2.65822e-19 8.31607e-19)
(0.003 1.93202e-19 8.64148e-19)
(0.003 2.9205e-19 6.68358e-19)
(0.003 1.95765e-19 5.96183e-19)
(0.003 1.4568e-19 6.50563e-19)
(0.003 1.98357e-19 6.67377e-19)
(0.003 2.89702e-19 6.73389e-19)
(0.003 2.46456e-19 7.04348e-19)
(0.003 3.08037e-19 6.87703e-19)
(0.003 1.71994e-19 5.46483e-19)
(0.003 7.97149e-20 4.66764e-19)
(0.003 3.94087e-20 4.43059e-19)
(0.003 9.61118e-20 5.0623e-19)
(0.003 1.84358e-20 5.04293e-19)
(0.003 -4.44531e-21 4.05478e-19)
(0.003 5.47403e-21 2.93249e-19)
(0.003 -5.80442e-20 3.00821e-19)
(0.003 -1.98151e-20 2.10299e-19)
(0.003 6.5118e-20 1.84513e-19)
(0.003 -1.14498e-20 1.41954e-19)
(0.003 4.88694e-20 8.75347e-20)
(0.003 7.74597e-20 9.92156e-20)
(0.003 1.49596e-20 1.3345e-19)
(0.003 2.47148e-21 9.97358e-20)
(0.003 1.91311e-19 7.43137e-19)
(0.003 2.76593e-19 1.25057e-18)
(0.003 1.85133e-19 1.40566e-18)
(0.003 1.75433e-19 1.56004e-18)
(0.003 2.44961e-19 1.5911e-18)
(0.003 1.79379e-19 1.63386e-18)
(0.003 1.50147e-19 1.55295e-18)
(0.003 3.82385e-19 1.38908e-18)
(0.003 4.70876e-19 1.2873e-18)
(0.003 4.15882e-19 1.45059e-18)
(0.003 3.39818e-19 1.44897e-18)
(0.003 2.81474e-19 1.26874e-18)
(0.003 2.63812e-19 1.07001e-18)
(0.003 2.61254e-19 1.12655e-18)
(0.003 3.93394e-19 1.25634e-18)
(0.003 5.48342e-19 1.13654e-18)
(0.003 3.36525e-19 8.59999e-19)
(0.003 1.79776e-19 7.76052e-19)
(0.003 2.73745e-19 7.37263e-19)
(0.003 2.95405e-19 6.12012e-19)
(0.003 1.86957e-19 6.00552e-19)
(0.003 1.62773e-19 6.68797e-19)
(0.003 1.52027e-19 7.22512e-19)
(0.003 1.89909e-19 7.55949e-19)
(0.003 1.81401e-19 7.31569e-19)
(0.003 1.59857e-19 6.07238e-19)
(0.003 1.26274e-19 4.95527e-19)
(0.003 6.91476e-20 4.88826e-19)
(0.003 6.65364e-20 5.05345e-19)
(0.003 -1.30804e-20 4.3136e-19)
(0.003 5.17744e-20 3.66858e-19)
(0.003 9.17611e-20 3.41825e-19)
(0.003 -8.22374e-21 2.55762e-19)
(0.003 -9.2604e-21 1.79205e-19)
(0.003 1.37403e-20 1.97012e-19)
(0.003 -3.94047e-20 1.75001e-19)
(0.003 6.96343e-20 1.30792e-19)
(0.003 6.62104e-20 2.70732e-20)
(0.003 -7.99136e-20 6.68854e-20)
(0.003 -3.97728e-20 1.72374e-19)
(0.003 3.42006e-20 7.75731e-19)
(0.003 1.99597e-19 1.31419e-18)
(0.003 1.09622e-19 1.40963e-18)
(0.003 7.79354e-20 1.5846e-18)
(0.003 1.73182e-19 1.67304e-18)
(0.003 1.70059e-19 1.61276e-18)
(0.003 1.71186e-19 1.54737e-18)
(0.003 3.96324e-19 1.6064e-18)
(0.003 5.33938e-19 1.51596e-18)
(0.003 3.87884e-19 1.39937e-18)
(0.003 3.21415e-19 1.37167e-18)
(0.003 3.39066e-19 1.35877e-18)
(0.003 2.4933e-19 1.25603e-18)
(0.003 2.99739e-19 1.12263e-18)
(0.003 2.82545e-19 1.26185e-18)
(0.003 2.63392e-19 1.19996e-18)
(0.003 2.27127e-19 9.69655e-19)
(0.003 7.1199e-20 7.93109e-19)
(0.003 1.42268e-19 6.83599e-19)
(0.003 2.73321e-19 6.11904e-19)
(0.003 2.48207e-19 6.29344e-19)
(0.003 3.0276e-19 7.13609e-19)
(0.003 2.75639e-19 7.27902e-19)
(0.003 2.3305e-19 7.23129e-19)
(0.003 1.69957e-19 7.0114e-19)
(0.003 2.1981e-19 5.72522e-19)
(0.003 2.08723e-19 5.21848e-19)
(0.003 -9.95977e-21 4.46635e-19)
(0.003 -1.4073e-19 4.67531e-19)
(0.003 -5.54145e-20 5.17396e-19)
(0.003 1.72302e-19 4.77143e-19)
(0.003 2.2546e-19 3.55066e-19)
(0.003 2.28804e-20 1.86668e-19)
(0.003 -1.8384e-20 2.32402e-19)
(0.003 -1.32762e-20 2.86854e-19)
(0.003 4.89694e-20 1.3587e-19)
(0.003 -8.9037e-21 7.6219e-20)
(0.003 1.78863e-20 2.61301e-21)
(0.003 1.1733e-19 -1.30781e-20)
(0.003 9.57049e-20 1.01035e-19)
(0.003 6.28654e-20 9.35947e-19)
(0.003 1.9698e-19 1.48298e-18)
(0.003 1.68341e-19 1.45207e-18)
(0.003 5.04829e-20 1.53679e-18)
(0.003 1.28347e-19 1.72559e-18)
(0.003 1.8827e-19 1.72836e-18)
(0.003 2.93633e-19 1.60956e-18)
(0.003 4.93703e-19 1.57236e-18)
(0.003 4.82067e-19 1.58434e-18)
(0.003 3.75512e-19 1.5418e-18)
(0.003 2.60037e-19 1.49479e-18)
(0.003 2.18979e-19 1.37342e-18)
(0.003 2.36758e-19 1.24232e-18)
(0.003 3.62317e-19 1.22111e-18)
(0.003 2.43045e-19 1.2636e-18)
(0.003 1.5603e-19 1.17173e-18)
(0.003 1.75089e-19 9.40842e-19)
(0.003 1.83715e-19 7.25238e-19)
(0.003 2.1345e-19 6.55226e-19)
(0.003 1.03363e-19 6.48526e-19)
(0.003 1.97182e-19 6.97458e-19)
(0.003 2.97674e-19 8.10568e-19)
(0.003 2.67346e-19 7.70244e-19)
(0.003 1.74819e-19 7.53438e-19)
(0.003 7.33428e-20 6.54221e-19)
(0.003 2.38473e-19 6.27232e-19)
(0.003 1.70605e-19 5.43402e-19)
(0.003 3.63519e-20 3.58787e-19)
(0.003 -8.09664e-21 3.7361e-19)
(0.003 2.90668e-20 3.59899e-19)
(0.003 1.34134e-19 4.58396e-19)
(0.003 9.78247e-20 4.11323e-19)
(0.003 2.24039e-20 1.56176e-19)
(0.003 6.83585e-20 1.15724e-19)
(0.003 1.04137e-19 1.95326e-19)
(0.003 2.06702e-19 2.50163e-19)
(0.003 2.96732e-20 1.34924e-19)
(0.003 -4.52692e-20 1.99666e-20)
(0.003 5.34805e-20 4.02441e-20)
(0.003 6.57434e-20 7.92269e-20)
(0.003 1.81273e-19 8.31694e-19)
(0.003 1.64213e-19 1.3813e-18)
(0.003 1.66663e-19 1.52452e-18)
(0.003 1.79187e-19 1.61616e-18)
(0.003 2.08701e-19 1.76173e-18)
(0.003 2.97799e-19 1.7482e-18)
(0.003 3.85054e-19 1.67402e-18)
(0.003 3.17971e-19 1.71627e-18)
(0.003 2.94249e-19 1.70294e-18)
(0.003 3.3804e-19 1.6721e-18)
(0.003 2.16325e-19 1.53967e-18)
(0.003 1.56369e-19 1.3859e-18)
(0.003 2.03383e-19 1.24072e-18)
(0.003 3.05031e-19 1.20437e-18)
(0.003 2.91625e-19 1.26803e-18)
(0.003 1.83364e-19 1.24557e-18)
(0.003 8.18051e-20 9.77901e-19)
(0.003 1.63936e-19 7.18964e-19)
(0.003 3.09128e-19 6.52724e-19)
(0.003 2.5081e-19 5.35769e-19)
(0.003 1.31053e-19 6.49754e-19)
(0.003 9.97186e-20 8.20118e-19)
(0.003 1.18934e-19 7.94631e-19)
(0.003 1.14053e-19 7.8524e-19)
(0.003 1.34318e-19 7.06511e-19)
(0.003 1.79032e-19 6.17989e-19)
(0.003 1.75247e-19 5.32583e-19)
(0.003 1.62651e-19 3.88534e-19)
(0.003 6.76007e-20 3.04839e-19)
(0.003 1.51031e-19 3.64668e-19)
(0.003 -2.56996e-20 5.07632e-19)
(0.003 -9.58987e-20 3.99775e-19)
(0.003 4.65696e-20 2.41396e-19)
(0.003 1.20407e-19 2.29424e-19)
(0.003 2.19954e-19 2.0123e-19)
(0.003 6.34283e-20 -3.74018e-23)
(0.003 -6.33106e-20 -3.2699e-20)
(0.003 -3.51566e-20 1.02788e-19)
(0.003 -3.41388e-20 8.10499e-20)
(0.003 3.86203e-21 4.38846e-20)
(0.003 -7.76859e-20 8.45515e-19)
(0.003 -4.08244e-20 1.53078e-18)
(0.003 1.08256e-19 1.57905e-18)
(0.003 1.70733e-19 1.67707e-18)
(0.003 2.89569e-19 1.75206e-18)
(0.003 4.32098e-19 1.82502e-18)
(0.003 4.11204e-19 1.7801e-18)
(0.003 1.68854e-19 1.69883e-18)
(0.003 1.31004e-19 1.70894e-18)
(0.003 2.42522e-19 1.72436e-18)
(0.003 2.2799e-19 1.53775e-18)
(0.003 9.50624e-20 1.39603e-18)
(0.003 1.18686e-19 1.25218e-18)
(0.003 2.32195e-19 1.2229e-18)
(0.003 2.99446e-19 1.30937e-18)
(0.003 2.00873e-19 1.2161e-18)
(0.003 2.39758e-19 9.99126e-19)
(0.003 1.72942e-19 7.09963e-19)
(0.003 -6.45184e-21 7.21596e-19)
(0.003 8.60022e-20 6.91786e-19)
(0.003 1.85349e-19 6.37377e-19)
(0.003 1.16937e-19 7.90303e-19)
(0.003 1.75025e-19 8.60443e-19)
(0.003 2.09398e-19 8.20022e-19)
(0.003 2.09806e-19 6.79212e-19)
(0.003 6.18337e-20 5.89677e-19)
(0.003 -1.42688e-20 5.43255e-19)
(0.003 9.56343e-20 4.42383e-19)
(0.003 1.15274e-19 2.96808e-19)
(0.003 6.45944e-20 4.35646e-19)
(0.003 -1.20272e-19 4.69813e-19)
(0.003 -1.31567e-19 3.48159e-19)
(0.003 6.46733e-20 2.43218e-19)
(0.003 8.80643e-20 1.78829e-19)
(0.003 3.7918e-20 -4.59306e-20)
(0.003 -2.61716e-20 -2.05978e-19)
(0.003 6.72421e-20 3.756e-20)
(0.003 2.87387e-20 9.37916e-20)
(0.003 -2.17327e-20 4.90125e-20)
(0.003 -2.67669e-20 1.18947e-20)
(0.003 -2.04198e-19 8.94628e-19)
(0.003 -3.16875e-20 1.40143e-18)
(0.003 1.47016e-19 1.54774e-18)
(0.003 3.13892e-19 1.73759e-18)
(0.003 2.46519e-19 1.90677e-18)
(0.003 2.25162e-19 1.90373e-18)
(0.003 3.67519e-19 1.86849e-18)
(0.003 2.58991e-19 1.79887e-18)
(0.003 1.80764e-19 1.6402e-18)
(0.003 1.4044e-19 1.62501e-18)
(0.003 2.12482e-19 1.54702e-18)
(0.003 6.41722e-20 1.32476e-18)
(0.003 4.48874e-20 1.24365e-18)
(0.003 1.4687e-19 1.30831e-18)
(0.003 1.92101e-19 1.34701e-18)
(0.003 2.76608e-19 1.2087e-18)
(0.003 3.1883e-19 9.94382e-19)
(0.003 1.44367e-19 7.35843e-19)
(0.003 -1.27492e-19 6.04836e-19)
(0.003 -2.80195e-20 6.01711e-19)
(0.003 2.18264e-19 7.33214e-19)
(0.003 2.76172e-19 8.65899e-19)
(0.003 1.92907e-19 9.50592e-19)
(0.003 1.99896e-19 9.13323e-19)
(0.003 2.52712e-19 7.58111e-19)
(0.003 6.59096e-20 6.0204e-19)
(0.003 -2.05405e-19 4.74468e-19)
(0.003 -1.2941e-19 4.31239e-19)
(0.003 7.73856e-20 4.35825e-19)
(0.003 6.89353e-20 4.23515e-19)
(0.003 -2.50914e-20 3.0307e-19)
(0.003 -6.00063e-20 3.53612e-19)
(0.003 5.48675e-20 3.41416e-19)
(0.003 3.15453e-20 2.02137e-19)
(0.003 -4.46198e-20 -9.54961e-21)
(0.003 6.7557e-21 -3.17135e-19)
(0.003 8.27513e-20 -3.94123e-19)
(0.003 1.04282e-19 -2.49471e-19)
(0.003 9.76738e-20 -1.11897e-19)
(0.003 7.42204e-20 -1.25689e-19)
(0.003 5.13002e-20 1.01351e-18)
(0.003 1.83386e-19 1.56049e-18)
(0.003 2.77007e-19 1.65898e-18)
(0.003 2.90679e-19 1.79714e-18)
(0.003 1.99571e-19 1.88657e-18)
(0.003 2.05448e-19 1.91247e-18)
(0.003 1.82664e-19 1.95755e-18)
(0.003 1.97795e-19 1.89057e-18)
(0.003 1.20184e-19 1.73452e-18)
(0.003 1.66433e-19 1.60186e-18)
(0.003 2.01393e-19 1.41e-18)
(0.003 1.62353e-19 1.21777e-18)
(0.003 1.36003e-19 1.17771e-18)
(0.003 7.98873e-20 1.14174e-18)
(0.003 1.57947e-19 1.30627e-18)
(0.003 2.48141e-19 1.31947e-18)
(0.003 2.16479e-19 1.05386e-18)
(0.003 1.38775e-19 6.92578e-19)
(0.003 9.76234e-20 5.72705e-19)
(0.003 1.096e-19 6.73291e-19)
(0.003 2.20155e-19 8.3861e-19)
(0.003 3.35518e-19 9.71275e-19)
(0.003 1.76564e-19 1.00283e-18)
(0.003 1.00236e-19 9.79134e-19)
(0.003 5.96979e-20 7.46123e-19)
(0.003 -6.9433e-20 4.8549e-19)
(0.003 -6.83498e-20 4.49537e-19)
(0.003 1.56837e-21 4.52185e-19)
(0.003 -5.0225e-21 4.29714e-19)
(0.003 -5.20394e-20 5.36327e-19)
(0.003 -5.40055e-20 4.73335e-19)
(0.003 7.70716e-21 3.30448e-19)
(0.003 6.73075e-20 2.90388e-19)
(0.003 -1.13712e-20 1.57288e-19)
(0.003 -1.18968e-19 -3.68868e-20)
(0.003 -8.64265e-20 -3.32059e-19)
(0.003 -3.65592e-20 -4.40576e-19)
(0.003 1.1128e-19 -2.43742e-19)
(0.003 2.11214e-19 -1.58607e-19)
(0.003 2.10414e-19 -1.72161e-19)
(0.003 2.10745e-19 1.03305e-18)
(0.003 2.22888e-19 1.63598e-18)
(0.003 1.94771e-19 1.73933e-18)
(0.003 1.86049e-19 1.75448e-18)
(0.003 2.45416e-19 1.88271e-18)
(0.003 1.87208e-19 1.98362e-18)
(0.003 1.0688e-19 1.88509e-18)
(0.003 2.16585e-19 1.84593e-18)
(0.003 1.70446e-19 1.69323e-18)
(0.003 8.23315e-20 1.63906e-18)
(0.003 1.59284e-19 1.47913e-18)
(0.003 1.95169e-19 1.25896e-18)
(0.003 2.33841e-19 1.26192e-18)
(0.003 2.06699e-19 1.21484e-18)
(0.003 1.24348e-19 1.25542e-18)
(0.003 4.63955e-20 1.24063e-18)
(0.003 5.99953e-20 9.79059e-19)
(0.003 1.87766e-19 7.13968e-19)
(0.003 2.97079e-19 6.37739e-19)
(0.003 2.90939e-19 7.11862e-19)
(0.003 1.65574e-19 8.67401e-19)
(0.003 4.95018e-20 9.53107e-19)
(0.003 1.31716e-20 9.00547e-19)
(0.003 6.10241e-20 9.03147e-19)
(0.003 -8.82095e-20 7.99035e-19)
(0.003 -1.6336e-19 5.74586e-19)
(0.003 -8.30893e-21 4.9956e-19)
(0.003 3.16078e-20 4.94568e-19)
(0.003 -4.21507e-21 3.85449e-19)
(0.003 -1.47802e-19 4.57949e-19)
(0.003 1.05663e-20 4.53133e-19)
(0.003 8.52138e-20 3.58534e-19)
(0.003 -7.75734e-20 2.87402e-19)
(0.003 9.58125e-21 1.13091e-19)
(0.003 7.9461e-20 -4.49286e-20)
(0.003 -9.79396e-20 -2.86369e-19)
(0.003 -1.49807e-19 -4.1244e-19)
(0.003 2.98313e-20 -2.46349e-19)
(0.003 1.14899e-19 -2.24871e-19)
(0.003 1.14771e-19 -2.87788e-19)
(0.003 2.485e-19 1.03753e-18)
(0.003 2.75732e-19 1.64778e-18)
(0.003 2.09755e-19 1.76312e-18)
(0.003 2.28674e-19 1.84378e-18)
(0.003 1.00851e-19 1.93296e-18)
(0.003 -9.67345e-21 1.95481e-18)
(0.003 1.65501e-19 1.9215e-18)
(0.003 2.11664e-19 1.86031e-18)
(0.003 1.79742e-19 1.69976e-18)
(0.003 9.66243e-20 1.56043e-18)
(0.003 2.51066e-20 1.44211e-18)
(0.003 2.07747e-19 1.35587e-18)
(0.003 3.15062e-19 1.30477e-18)
(0.003 2.18409e-19 1.28198e-18)
(0.003 1.01265e-19 1.24879e-18)
(0.003 4.64144e-20 1.15181e-18)
(0.003 6.55838e-20 8.84366e-19)
(0.003 1.16929e-19 7.27888e-19)
(0.003 1.81837e-19 7.78388e-19)
(0.003 2.18562e-19 8.25478e-19)
(0.003 1.80815e-19 8.1482e-19)
(0.003 9.39777e-20 8.94526e-19)
(0.003 1.08206e-19 8.93002e-19)
(0.003 1.87097e-20 9.32448e-19)
(0.003 -1.68832e-19 7.64936e-19)
(0.003 -2.21521e-19 5.28456e-19)
(0.003 -1.74112e-19 4.94421e-19)
(0.003 2.38938e-20 5.34551e-19)
(0.003 -1.10358e-20 4.04623e-19)
(0.003 -2.0051e-19 3.79469e-19)
(0.003 2.53323e-20 4.83121e-19)
(0.003 1.04607e-19 4.04935e-19)
(0.003 -3.76427e-20 2.0379e-19)
(0.003 3.80636e-20 1.23968e-19)
(0.003 5.70563e-20 3.73249e-20)
(0.003 -6.7814e-20 -3.41858e-19)
(0.003 -9.26527e-21 -4.21457e-19)
(0.003 -4.67112e-20 -2.06361e-19)
(0.003 -2.4733e-19 -1.28451e-19)
(0.003 -2.54538e-19 -1.96582e-19)
(0.003 5.03949e-21 1.11643e-18)
(0.003 1.72521e-19 1.75205e-18)
(0.003 2.21694e-19 1.81635e-18)
(0.003 8.3082e-20 1.91234e-18)
(0.003 -5.56588e-20 1.92788e-18)
(0.003 -1.14065e-20 1.93659e-18)
(0.003 1.70886e-19 1.88098e-18)
(0.003 2.76554e-19 1.76696e-18)
(0.003 1.76284e-19 1.66931e-18)
(0.003 1.11899e-20 1.6133e-18)
(0.003 -2.44421e-20 1.46163e-18)
(0.003 2.81737e-19 1.35017e-18)
(0.003 3.48461e-19 1.38095e-18)
(0.003 1.65357e-19 1.26453e-18)
(0.003 7.19644e-20 1.22175e-18)
(0.003 7.98817e-20 1.14285e-18)
(0.003 1.32039e-19 9.49117e-19)
(0.003 2.23702e-19 8.04271e-19)
(0.003 2.03703e-19 7.51551e-19)
(0.003 1.35205e-19 7.78054e-19)
(0.003 2.16614e-19 8.49621e-19)
(0.003 1.00161e-19 9.30549e-19)
(0.003 5.12082e-20 9.46699e-19)
(0.003 -6.40333e-20 9.19997e-19)
(0.003 -1.0897e-19 7.77387e-19)
(0.003 -1.28333e-20 4.63255e-19)
(0.003 -4.15321e-20 3.63187e-19)
(0.003 -9.08613e-20 5.09184e-19)
(0.003 -1.01071e-19 4.64652e-19)
(0.003 -9.4966e-20 3.63474e-19)
(0.003 -2.26252e-19 5.32701e-19)
(0.003 -1.2149e-19 4.69734e-19)
(0.003 5.38637e-20 2.64853e-19)
(0.003 -6.2301e-20 1.21095e-19)
(0.003 -1.10319e-19 -1.86517e-20)
(0.003 -1.90096e-20 -3.59918e-19)
(0.003 -3.64794e-20 -4.95737e-19)
(0.003 -1.28595e-19 -4.28578e-19)
(0.003 -2.27314e-19 -3.0214e-19)
(0.003 -2.85152e-19 -3.16537e-19)
(0.003 -2.16869e-19 1.15315e-18)
(0.003 -1.93324e-19 1.72096e-18)
(0.003 5.276e-20 1.85458e-18)
(0.003 1.1689e-20 1.83279e-18)
(0.003 3.72551e-20 1.88104e-18)
(0.003 6.24348e-20 1.9237e-18)
(0.003 1.02807e-19 1.95344e-18)
(0.003 1.87554e-19 1.83035e-18)
(0.003 9.39041e-20 1.68436e-18)
(0.003 -9.39272e-20 1.55749e-18)
(0.003 1.12686e-19 1.46259e-18)
(0.003 2.86848e-19 1.4634e-18)
(0.003 2.31219e-19 1.45039e-18)
(0.003 1.27314e-19 1.28624e-18)
(0.003 1.19822e-19 1.10595e-18)
(0.003 1.10007e-19 1.09556e-18)
(0.003 1.56884e-19 9.60941e-19)
(0.003 2.95854e-19 8.38324e-19)
(0.003 2.27103e-19 8.37969e-19)
(0.003 1.59217e-19 8.23634e-19)
(0.003 2.17444e-19 8.74314e-19)
(0.003 7.80884e-20 8.78589e-19)
(0.003 -8.69223e-20 9.74896e-19)
(0.003 -2.1349e-19 8.79126e-19)
(0.003 -1.52508e-19 7.35624e-19)
(0.003 1.30316e-19 5.89505e-19)
(0.003 1.71208e-19 4.14679e-19)
(0.003 -8.37012e-20 4.62443e-19)
(0.003 -1.45838e-19 4.60788e-19)
(0.003 -4.80436e-20 3.52702e-19)
(0.003 -1.19829e-19 4.0482e-19)
(0.003 -1.55761e-19 4.1349e-19)
(0.003 -4.27838e-20 3.48494e-19)
(0.003 -4.66166e-20 6.6664e-20)
(0.003 -7.28598e-20 -3.95675e-21)
(0.003 -2.6882e-20 -2.58553e-19)
(0.003 -1.34963e-19 -5.15306e-19)
(0.003 -1.1102e-19 -3.84357e-19)
(0.003 -7.36026e-20 -3.17691e-19)
(0.003 -1.78076e-19 -3.56854e-19)
(0.003 -7.43905e-20 1.05641e-18)
(0.003 -2.59842e-19 1.73815e-18)
(0.003 -1.86384e-19 1.95631e-18)
(0.003 -1.40936e-19 1.92115e-18)
(0.003 3.39224e-20 1.95773e-18)
(0.003 7.06559e-20 1.96546e-18)
(0.003 -2.11688e-20 1.88347e-18)
(0.003 -1.39995e-20 1.81135e-18)
(0.003 1.52688e-20 1.67987e-18)
(0.003 6.50931e-20 1.47872e-18)
(0.003 1.50808e-19 1.51909e-18)
(0.003 1.52068e-19 1.55107e-18)
(0.003 4.31436e-20 1.52785e-18)
(0.003 1.773e-19 1.32759e-18)
(0.003 2.89387e-19 1.18716e-18)
(0.003 1.81002e-19 1.12428e-18)
(0.003 1.38123e-19 9.32108e-19)
(0.003 1.48682e-19 8.21345e-19)
(0.003 1.8073e-19 7.55321e-19)
(0.003 1.38719e-19 8.24799e-19)
(0.003 1.36742e-19 9.18076e-19)
(0.003 9.66323e-20 9.56217e-19)
(0.003 -1.1098e-20 9.66841e-19)
(0.003 -1.90123e-19 7.75627e-19)
(0.003 -1.6855e-19 6.171e-19)
(0.003 -8.03353e-20 6.18907e-19)
(0.003 7.79405e-20 4.7532e-19)
(0.003 1.01882e-19 3.7494e-19)
(0.003 9.03653e-21 4.42608e-19)
(0.003 1.46584e-20 3.62025e-19)
(0.003 -6.75986e-20 3.85298e-19)
(0.003 -5.15941e-20 4.06839e-19)
(0.003 -2.21096e-20 3.4406e-19)
(0.003 -1.13361e-19 1.5587e-19)
(0.003 -1.69563e-19 -1.29463e-20)
(0.003 -1.34316e-19 -3.02589e-19)
(0.003 -5.02734e-20 -3.86042e-19)
(0.003 -1.05877e-19 -1.67873e-19)
(0.003 -8.16504e-20 -2.14584e-19)
(0.003 -7.515e-21 -3.00883e-19)
(0.003 -1.47004e-19 1.01184e-18)
(0.003 -1.25469e-19 1.65409e-18)
(0.003 -4.71612e-20 1.91603e-18)
(0.003 -1.29635e-19 1.9398e-18)
(0.003 -1.28282e-19 2.00174e-18)
(0.003 -1.77596e-21 2.03145e-18)
(0.003 -7.74838e-20 1.9892e-18)
(0.003 -1.42956e-19 1.89518e-18)
(0.003 3.89218e-20 1.75862e-18)
(0.003 2.25838e-19 1.5438e-18)
(0.003 1.35332e-19 1.51301e-18)
(0.003 6.07339e-20 1.56546e-18)
(0.003 -3.19495e-20 1.48028e-18)
(0.003 1.03382e-19 1.40714e-18)
(0.003 2.62632e-19 1.21935e-18)
(0.003 1.95793e-19 1.05505e-18)
(0.003 1.06594e-19 9.00595e-19)
(0.003 -1.64356e-20 8.52242e-19)
(0.003 1.79121e-19 8.94065e-19)
(0.003 2.31862e-19 8.66238e-19)
(0.003 1.86053e-19 9.48622e-19)
(0.003 1.75733e-20 8.60935e-19)
(0.003 -1.9238e-19 8.52531e-19)
(0.003 -1.68313e-19 7.05778e-19)
(0.003 -5.29107e-20 6.00282e-19)
(0.003 -2.80758e-20 5.797e-19)
(0.003 7.19221e-20 4.56859e-19)
(0.003 1.22175e-19 5.15111e-19)
(0.003 3.49742e-20 4.55768e-19)
(0.003 4.85173e-20 3.95172e-19)
(0.003 4.20516e-20 3.56126e-19)
(0.003 -6.27694e-20 3.37654e-19)
(0.003 -1.82144e-19 3.08718e-19)
(0.003 -2.249e-19 2.04523e-19)
(0.003 -3.53862e-19 8.64845e-20)
(0.003 -2.26687e-19 -1.35221e-19)
(0.003 1.49409e-20 -2.7419e-19)
(0.003 5.38234e-20 -1.62591e-19)
(0.003 -4.1452e-20 -2.57381e-19)
(0.003 -3.48897e-20 -3.68929e-19)
(0.003 -1.74995e-19 9.48115e-19)
(0.003 -1.78349e-19 1.70242e-18)
(0.003 -1.27213e-19 2.02199e-18)
(0.003 3.33701e-22 1.98404e-18)
(0.003 -1.74198e-20 1.94357e-18)
(0.003 -1.18665e-19 2.0275e-18)
(0.003 -1.72675e-19 1.95585e-18)
(0.003 -1.77781e-19 1.8475e-18)
(0.003 1.31826e-20 1.83476e-18)
(0.003 7.526e-20 1.65026e-18)
(0.003 1.40631e-19 1.51015e-18)
(0.003 1.1216e-19 1.52649e-18)
(0.003 9.31459e-20 1.48141e-18)
(0.003 -1.37927e-20 1.40917e-18)
(0.003 7.50056e-20 1.34167e-18)
(0.003 1.03761e-19 1.16934e-18)
(0.003 1.05423e-19 9.69073e-19)
(0.003 1.94594e-19 7.3602e-19)
(0.003 2.69032e-19 7.85281e-19)
(0.003 2.95578e-19 8.76949e-19)
(0.003 7.35236e-20 9.74166e-19)
(0.003 -1.9351e-19 9.77606e-19)
(0.003 -1.96197e-19 8.05399e-19)
(0.003 -7.83266e-20 6.49735e-19)
(0.003 -9.31293e-20 5.99953e-19)
(0.003 1.75078e-20 6.13637e-19)
(0.003 9.4652e-20 5.93089e-19)
(0.003 2.22713e-20 5.59116e-19)
(0.003 1.42847e-20 4.26045e-19)
(0.003 4.86566e-20 3.74887e-19)
(0.003 9.34849e-20 3.148e-19)
(0.003 -1.17337e-19 2.59115e-19)
(0.003 -1.96744e-19 2.55423e-19)
(0.003 -1.05652e-19 2.3378e-19)
(0.003 -1.73312e-19 1.267e-19)
(0.003 -1.95496e-19 1.09504e-19)
(0.003 -1.22514e-19 -5.15011e-20)
(0.003 -5.82348e-20 -2.31144e-19)
(0.003 7.80864e-20 -3.18157e-19)
(0.003 7.97904e-20 -3.16534e-19)
(0.003 -6.48512e-20 1.02296e-18)
(0.003 -1.27908e-19 1.63888e-18)
(0.003 -1.40215e-19 1.85172e-18)
(0.003 3.67745e-20 2.00817e-18)
(0.003 -2.70773e-21 2.02579e-18)
(0.003 -2.36485e-19 1.99106e-18)
(0.003 -2.37231e-19 1.96221e-18)
(0.003 -1.53137e-19 1.94731e-18)
(0.003 8.97061e-20 1.86459e-18)
(0.003 1.47117e-19 1.66468e-18)
(0.003 1.84436e-20 1.55453e-18)
(0.003 1.12292e-20 1.54159e-18)
(0.003 1.02742e-19 1.48379e-18)
(0.003 9.90582e-20 1.38016e-18)
(0.003 -9.63526e-21 1.3199e-18)
(0.003 -3.68283e-21 1.20984e-18)
(0.003 6.41383e-20 1.08259e-18)
(0.003 2.02641e-19 8.9037e-19)
(0.003 3.22875e-19 8.49673e-19)
(0.003 1.68543e-19 8.79195e-19)
(0.003 -1.35453e-19 8.75135e-19)
(0.003 -1.6536e-19 8.06394e-19)
(0.003 -8.24886e-20 8.47481e-19)
(0.003 -1.75951e-20 7.51029e-19)
(0.003 -3.39555e-20 5.76608e-19)
(0.003 -6.69963e-20 5.74075e-19)
(0.003 1.01188e-19 6.02825e-19)
(0.003 1.15007e-19 5.19397e-19)
(0.003 2.53337e-20 3.81731e-19)
(0.003 -8.97986e-21 3.84323e-19)
(0.003 9.07812e-21 3.44733e-19)
(0.003 -7.0613e-20 1.98177e-19)
(0.003 -8.99471e-20 2.1286e-19)
(0.003 -3.04558e-20 2.91459e-19)
(0.003 -1.69685e-20 1.50504e-19)
(0.003 -1.07047e-19 8.59032e-20)
(0.003 -4.72023e-20 2.94127e-20)
(0.003 -6.51287e-20 -4.93459e-20)
(0.003 1.96437e-20 -1.80382e-19)
(0.003 1.12876e-19 -2.20325e-19)
(0.003 1.1761e-19 1.01919e-18)
(0.003 1.78998e-19 1.70518e-18)
(0.003 8.60429e-20 1.83428e-18)
(0.003 -8.09521e-20 1.91185e-18)
(0.003 -2.0271e-19 2.0133e-18)
(0.003 -1.8722e-19 1.91635e-18)
(0.003 -1.82458e-19 1.85733e-18)
(0.003 -1.7743e-19 1.90714e-18)
(0.003 -8.82856e-20 1.9647e-18)
(0.003 8.59742e-20 1.82577e-18)
(0.003 1.16692e-19 1.56601e-18)
(0.003 1.0769e-19 1.56243e-18)
(0.003 1.70131e-19 1.43338e-18)
(0.003 1.9236e-19 1.43808e-18)
(0.003 -2.30951e-21 1.38911e-18)
(0.003 -1.4331e-19 1.23199e-18)
(0.003 -1.35806e-19 9.92905e-19)
(0.003 -1.1694e-19 8.27071e-19)
(0.003 2.78113e-21 9.51908e-19)
(0.003 2.51409e-20 8.44926e-19)
(0.003 -6.20484e-20 7.8297e-19)
(0.003 -1.29075e-20 8.59715e-19)
(0.003 -6.95343e-20 9.11592e-19)
(0.003 -2.83828e-20 7.50768e-19)
(0.003 1.19032e-19 5.35121e-19)
(0.003 2.65532e-20 5.44351e-19)
(0.003 8.02052e-21 6.9135e-19)
(0.003 7.23413e-20 6.33604e-19)
(0.003 6.76851e-20 4.13171e-19)
(0.003 -1.3433e-20 2.71865e-19)
(0.003 -5.04468e-20 3.65809e-19)
(0.003 -1.91217e-20 2.51531e-19)
(0.003 -9.33726e-21 1.8801e-19)
(0.003 -1.1802e-20 2.42019e-19)
(0.003 5.87316e-20 1.92634e-19)
(0.003 1.01911e-19 1.67909e-19)
(0.003 7.47513e-20 5.49914e-20)
(0.003 -4.28401e-20 -1.70526e-19)
(0.003 -1.14e-19 -3.40129e-19)
(0.003 -8.08593e-20 -3.52858e-19)
(0.003 3.16312e-19 1.03929e-18)
(0.003 2.5156e-19 1.63216e-18)
(0.003 3.77775e-20 1.78114e-18)
(0.003 -8.75083e-20 1.89275e-18)
(0.003 -5.38633e-20 1.90554e-18)
(0.003 4.08077e-20 1.9028e-18)
(0.003 -1.82885e-20 1.87701e-18)
(0.003 -2.27574e-19 1.81855e-18)
(0.003 -2.75449e-19 1.8614e-18)
(0.003 -6.46167e-20 1.93007e-18)
(0.003 1.85606e-19 1.7995e-18)
(0.003 1.77299e-19 1.69068e-18)
(0.003 1.57281e-19 1.50864e-18)
(0.003 1.27778e-19 1.44476e-18)
(0.003 -5.52588e-20 1.36726e-18)
(0.003 -1.39284e-19 1.15724e-18)
(0.003 -1.03201e-19 9.40867e-19)
(0.003 -1.17796e-19 8.10507e-19)
(0.003 -1.98861e-19 9.88329e-19)
(0.003 -1.27366e-19 9.43364e-19)
(0.003 -7.79469e-20 8.28891e-19)
(0.003 -1.10456e-19 7.82611e-19)
(0.003 -6.71851e-20 7.97672e-19)
(0.003 -1.43968e-20 7.2445e-19)
(0.003 1.4183e-19 6.8383e-19)
(0.003 1.43199e-19 6.08675e-19)
(0.003 -6.29335e-20 5.71679e-19)
(0.003 -8.4783e-21 5.47326e-19)
(0.003 6.04981e-20 4.28611e-19)
(0.003 2.51226e-20 3.08007e-19)
(0.003 -7.35098e-21 3.40638e-19)
(0.003 -2.28154e-20 2.18286e-19)
(0.003 -6.14596e-20 1.61378e-19)
(0.003 9.9424e-21 2.45878e-19)
(0.003 1.63247e-19 2.17669e-19)
(0.003 2.32353e-19 2.2561e-19)
(0.003 2.9281e-20 1.3444e-20)
(0.003 -2.4315e-20 -2.7466e-19)
(0.003 -1.6912e-19 -4.00802e-19)
(0.003 -2.73415e-19 -2.77456e-19)
(0.003 2.41731e-19 1.05384e-18)
(0.003 2.29827e-19 1.6531e-18)
(0.003 -1.90837e-20 1.80563e-18)
(0.003 2.10135e-20 1.84827e-18)
(0.003 1.80838e-19 1.91493e-18)
(0.003 1.71143e-19 1.88372e-18)
(0.003 3.77937e-20 1.84913e-18)
(0.003 -1.19742e-19 1.74169e-18)
(0.003 -1.82e-19 1.77405e-18)
(0.003 -2.11364e-19 1.953e-18)
(0.003 -7.35622e-20 1.90846e-18)
(0.003 7.34486e-20 1.71966e-18)
(0.003 5.82554e-20 1.55344e-18)
(0.003 -1.48855e-19 1.49421e-18)
(0.003 -1.86756e-19 1.36379e-18)
(0.003 -7.69915e-20 1.21064e-18)
(0.003 -1.22386e-19 1.03531e-18)
(0.003 -1.8596e-19 8.47984e-19)
(0.003 -2.86135e-19 8.83105e-19)
(0.003 -1.68618e-19 8.91695e-19)
(0.003 -6.88052e-20 8.16444e-19)
(0.003 -1.22983e-20 7.84641e-19)
(0.003 1.0547e-19 8.10538e-19)
(0.003 9.48547e-20 6.82356e-19)
(0.003 6.04944e-20 6.14011e-19)
(0.003 1.28006e-19 6.19559e-19)
(0.003 4.02328e-20 6.03244e-19)
(0.003 1.77154e-20 5.91157e-19)
(0.003 2.90861e-20 4.94347e-19)
(0.003 -1.24418e-20 2.71471e-19)
(0.003 8.75016e-21 2.59389e-19)
(0.003 7.06825e-20 1.61375e-19)
(0.003 -2.70232e-20 6.78529e-20)
(0.003 4.61158e-20 2.11502e-19)
(0.003 2.72572e-19 3.77106e-19)
(0.003 1.93342e-19 2.02411e-19)
(0.003 4.59748e-20 -2.26994e-19)
(0.003 -5.98214e-21 -4.22044e-19)
(0.003 2.60292e-20 -3.65014e-19)
(0.003 -3.32699e-21 -1.46964e-19)
(0.003 -1.217e-19 1.06003e-18)
(0.003 -5.86994e-20 1.70326e-18)
(0.003 5.74325e-20 1.78702e-18)
(0.003 2.14059e-20 1.78918e-18)
(0.003 2.92042e-20 1.86158e-18)
(0.003 1.10811e-19 1.96622e-18)
(0.003 9.90946e-20 1.85915e-18)
(0.003 1.28076e-19 1.67904e-18)
(0.003 -7.2761e-20 1.73249e-18)
(0.003 -1.91955e-19 1.84948e-18)
(0.003 -1.32161e-19 1.84265e-18)
(0.003 -1.30501e-19 1.78813e-18)
(0.003 -2.54624e-19 1.65324e-18)
(0.003 -1.88715e-19 1.37624e-18)
(0.003 -1.20757e-19 1.21285e-18)
(0.003 -1.52488e-19 1.14196e-18)
(0.003 -2.0736e-19 1.03158e-18)
(0.003 -1.70726e-19 9.45031e-19)
(0.003 -2.18217e-19 8.93052e-19)
(0.003 -2.40501e-19 8.84485e-19)
(0.003 -1.60262e-19 8.21441e-19)
(0.003 5.37833e-20 8.12923e-19)
(0.003 2.25862e-19 8.4184e-19)
(0.003 1.85104e-19 7.3662e-19)
(0.003 1.32561e-19 7.27287e-19)
(0.003 5.25593e-20 7.10053e-19)