/*--------------------------------*- C++ -*----------------------------------*\
| =========                 |                                                 |
| \\      /  F ield         | OpenFOAM: The Open Source CFD Toolbox           |
|  \\    /   O peration     | Version:  v2012                                 |
|   \\  /    A nd           | Website:  www.openfoam.com                      |
|    \\/     M anipulation  |                                                 |
\*---------------------------------------------------------------------------*/
FoamFile
{
    version     2.0;
    format      ascii;
    class       volScalarField;
    location    "700/bottomWater";
    object      p_rgh;
}
// * * * * * * * * * * * * * * * * * * * * * * * * * * * * * * * * * * * * * //

dimensions      [1 -1 -2 0 0 0 0];


internalField   nonuniform List<scalar> 
1460
(
0.31869698
0.31538084
0.32073583
0.32326933
0.30841943
0.29658146
0.27160521
0.28993071
0.27945422
0.29490479
0.29937747
0.28819819
0.30036198
0.29364692
0.30159048
0.30115603
0.31730798
0.31528164
0.32131657
0.3278161
0.32613426
0.31961222
0.31286217
0.32304229
0.30612883
0.31397885
0.31161314
0.32505341
0.32221559
0.31453292
-0.26701543
-0.28389436
-0.2525474
-0.18150785
-0.16208375
-0.2058041
-0.24342879
-0.24911684
-0.24593454
-0.22106831
-0.20345077
-0.24973612
-0.25360578
-0.25594416
-0.26755464
-0.24798572
-0.2201307
-0.20165099
-0.20332636
-0.22517497
-0.27248027
-0.29529141
-0.28447708
-0.24762029
-0.25837698
-0.27932066
-0.26720902
-0.22856644
-0.21190384
-0.23869096
0.15195259
0.081472319
0.055887126
0.043864232
0.043172355
0.028864065
0.078060785
0.085848182
0.11082076
0.062112182
0.05940559
0.092261264
0.093938192
0.10076366
0.094445895
0.11017209
0.070894506
0.069686809
0.065256194
0.057929906
0.047503625
0.081448673
0.097739342
0.04986911
0.085960117
0.080775492
0.11281997
0.073456152
0.086702651
0.10869093
-0.022534789
-0.044908921
-0.083028823
-0.068413751
-0.066950505
-0.064819812
-0.062097967
-0.024065108
-0.044984438
-0.053488016
-0.071174013
-0.056867282
-0.047150493
-0.040964325
-0.012456763
-0.032264464
-0.018168009
-0.038833318
-0.054699138
-0.063513638
-0.08083243
-0.047082224
-0.05018502
-0.059570527
-0.06083497
-0.024043715
-0.040013427
-0.035618546
-0.073263093
-0.08089216
0.047550612
0.034156121
0.026673322
0.02075161
0.0086935089
-0.0055148307
-0.013918533
-0.0030126238
-0.0056935267
-0.011353406
0.020407995
0.012614421
0.0035141925
-0.0074955641
-0.012420341
-0.0080457863
-0.0092219417
-0.016492112
-0.015653076
-0.00376436
0.014976472
0.015201353
0.012831511
0.012248481
0.0020598345
-0.013041342
-0.0047362185
-0.0045308426
-0.011104875
0.024326251
0.31297567
0.31180028
0.3225843
0.30739196
0.27750714
0.27392378
0.27850623
0.28749621
0.28722459
0.28585268
0.28915997
0.28800001
0.31227951
0.32115173
0.30257632
0.31061411
0.30139998
0.30630578
0.32172462
0.32947066
0.32721677
0.32344488
0.31198004
0.31098929
0.3150989
0.30400604
0.31967213
0.31014615
0.32329915
0.31401376
-0.27388146
-0.27322403
-0.19450044
-0.19826548
-0.25492771
-0.24808641
-0.24708977
-0.25718851
-0.26122569
-0.24997841
-0.24480413
-0.23967851
-0.20039203
-0.1950956
-0.25639869
-0.25369481
-0.2493182
-0.24502358
-0.24144779
-0.27789114
-0.30948181
-0.29390737
-0.29078231
-0.26313897
-0.24832003
-0.2778708
-0.28518033
-0.27311809
-0.24205231
-0.24856028
0.096901161
0.053479383
0.040045648
0.031821356
0.052524894
0.08289216
0.10524855
0.10069971
0.10307776
0.085683821
0.071288529
0.065826316
0.035099593
0.031439474
0.066340615
0.096686815
0.1034157
0.066834707
0.057019985
0.075153446
0.089260462
0.1270447
0.076603199
0.079152724
0.047739071
0.090592602
0.11113305
0.1059055
0.06095323
0.10056235
-0.038470149
-0.077201329
-0.063620038
-0.073646653
-0.076857416
-0.060017745
-0.043295984
-0.036273643
-0.038937129
-0.056587464
-0.062195466
-0.068053537
-0.065463771
-0.059750316
-0.07184705
-0.045331642
-0.059461834
-0.088378888
-0.088114556
-0.10831851
-0.058753203
-0.041633325
-0.059963175
-0.079189343
-0.071057264
-0.065898028
-0.021794588
-0.083526154
-0.098613865
-0.093178349
0.026181345
0.027572472
0.019838948
0.0019610108
-0.020940828
-0.023881481
-0.013001173
0.0055409113
0.0030781037
0.0045511554
0.0045649435
0.016669012
0.01192133
0.0057946407
0.0027568156
-0.0086919556
-0.012960144
-0.0080907939
0.016643773
0.021083877
0.017584625
0.035003271
0.01675909
0.026383412
0.0097195642
-0.0069847202
0.0011117859
0.00035223705
0.011601632
0.042797242
0.30493101
0.30865024
0.30263681
0.28209227
0.28896318
0.28768886
0.28822881
0.2917547
0.29004762
0.29113086
0.29171735
0.28938899
0.29736575
0.32016786
0.32013903
0.31341304
0.31074232
0.31324133
0.31580271
0.31855446
0.32312948
0.32067737
0.31780014
0.33405454
0.33546075
0.31029307
0.31599805
0.32059849
0.31704556
0.31657194
-0.26499681
-0.23183304
-0.20652838
-0.26024061
-0.25412153
-0.25571693
-0.25032412
-0.25887415
-0.25853345
-0.2617709
-0.26471486
-0.26818165
-0.2552682
-0.18470011
-0.19347028
-0.23778272
-0.26326715
-0.27669334
-0.29331167
-0.27599173
-0.29232109
-0.29801997
-0.29420052
-0.21335821
-0.20545987
-0.28005142
-0.28287833
-0.28242766
-0.27704205
-0.28383045
0.087401774
0.054731529
0.044049656
0.059401302
0.086387791
0.12495617
0.11392544
0.1147148
0.11882836
0.11918224
0.10252167
0.077156913
0.045906241
0.035403582
0.025384247
0.051940594
0.10556326
0.087130356
0.11813741
0.095849696
0.133064
0.094000399
0.053123509
0.036601365
0.036040191
0.065249223
0.088306758
0.11099179
0.11943441
0.13214206
-0.047275501
-0.060468851
-0.059471279
-0.074109307
-0.040538625
-0.040679672
-0.062470048
-0.072718802
-0.049096578
-0.04092563
-0.03963175
-0.051306863
-0.068391147
-0.062955359
-0.057511458
-0.054561011
-0.047986746
-0.062129841
-0.05000704
-0.07367846
-0.035687506
-0.040856575
-0.091324224
-0.055133104
-0.066974449
-0.050042532
-0.036859694
-0.029982265
-0.062952226
-0.035526415
0.012397898
0.022951455
0.01249841
-0.0093504704
-0.013229161
-0.010704862
-0.0013008994
0.025531993
0.019939711
0.015182233
0.018159924
0.012374008
0.01528983
0.012944363
0.0050361694
-0.010636612
-0.0061264439
-0.0048010001
0.0070380958
0.032809779
0.032590447
0.031233973
0.022163767
0.016547322
0.0048978344
-0.0022723238
0.0023165978
0.018437164
0.021663215
0.010819544
0.29070499
0.30089598
0.27913061
0.28779154
0.28758566
0.28334576
0.27241073
0.29379485
0.3027946
0.28962666
0.28797023
0.29675135
0.29058652
0.29181719
0.28428551
0.28978828
0.2901195
0.29150769
0.31076908
0.31861858
0.3280182
0.3267781
0.3273698
0.3337635
0.29984767
0.31990982
0.30273837
0.30047867
0.3085473
0.31065343
-0.23906565
-0.21522472
-0.23725094
-0.25060824
-0.26020079
-0.25095153
-0.25339475
-0.20776598
-0.20686544
-0.249602
-0.25955416
-0.26602874
-0.26944737
-0.24579445
-0.24690877
-0.24778139
-0.25715549
-0.26247727
-0.23600828
-0.2397964
-0.29506956
-0.30256085
-0.27108757
-0.22368414
-0.25539482
-0.24465335
-0.26802911
-0.2745315
-0.28397592
-0.28062946
0.089040853
0.048238224
0.07607514
0.083231191
0.11258191
0.10241502
0.082640157
0.045514571
0.043400033
0.081197381
0.090123896
0.12016886
0.10545423
0.080856587
0.095290068
0.10270154
0.10304867
0.11961743
0.064768396
0.033344782
0.11946927
0.074708504
0.058084759
0.054020163
0.098706477
0.072906662
0.078045963
0.069925362
0.089516588
0.11896374
-0.04938681
-0.064980471
-0.070207205
-0.039682769
-0.012493481
-0.031538237
-0.059128505
-0.074562173
-0.065965308
-0.076465472
-0.040583471
-0.040993576
-0.048514666
-0.087051266
-0.044413193
-0.078008342
-0.045828056
-0.068256118
-0.076990465
-0.09546332
-0.065131879
-0.041573476
-0.11262584
-0.072531617
-0.08291471
-0.048909922
-0.06245121
-0.078748656
-0.055822725
-0.04390091
0.010355932
0.013514844
0.0010102939
-0.0081303461
0.0031103094
-0.011365344
-0.015309193
0.0015586416
0.020243498
0.024017694
0.015400955
0.031991877
0.018312082
0.018558662
0.0052492447
0.021885316
-0.0007295515
-0.011162503
-0.0055637137
0.009264414
0.01581126
0.028449871
0.019393893
0.0064920085
-0.012385167
-0.012257687
5.9573652e-05
0.014336019
0.0031776714
0.013064196
0.29551036
0.30127927
0.29633357
0.29310129
0.29513511
0.28760304
0.3068418
0.31433819
0.31232379
0.30459892
0.31072618
0.29098142
0.29845451
0.31522796
0.32224937
0.32981734
0.33761585
0.33534124
0.33250324
0.33474379
0.33430462
0.33492389
0.32139082
0.33563301
0.30700598
0.31882661
-0.23558992
-0.21561176
-0.22350978
-0.25289689
-0.25882017
-0.24867499
-0.21658979
-0.19353955
-0.23337708
-0.24743695
-0.22113912
-0.25995355
-0.26416126
-0.25880587
-0.24354311
-0.20635649
-0.23061252
-0.30567793
-0.25019971
-0.22894699
-0.19934723
-0.19603482
-0.20628178
-0.21330219
-0.2798104
-0.27370317
0.081594912
0.056579019
0.071000071
0.092642228
0.085940428
0.093004637
0.072877962
0.055453675
0.071341058
0.12125164
0.072600525
0.11648969
0.11424063
0.11635515
0.064517631
0.047216054
0.078067925
0.050750878
0.057061017
0.054894669
0.062043599
0.0598002
0.065729519
0.033947195
0.057463957
0.092244559
-0.069440359
-0.056168911
-0.038715968
-0.033842834
-0.011703462
-0.047971424
-0.063044228
-0.099963327
-0.092673343
-0.089558831
-0.071436262
-0.065464443
-0.037667624
-0.028206953
-0.071460692
-0.068749977
-0.095179211
-0.050159981
-0.12083967
-0.062385245
-0.043732665
-0.016502928
-0.044775185
-0.058945512
-0.067885052
-0.033932683
0.0098560108
-0.010531557
-0.012024577
-0.010446243
-0.0091073254
-0.018932148
-0.023104706
0.0051290384
0.039864772
0.037277149
-0.00021155764
0.0085357868
0.017457931
0.0062948222
-0.011780193
0.022443072
0.039347258
0.023758349
0.023874851
-0.016663216
-0.0098719779
-0.0034289045
-0.011085135
0.013564281
0.01565738
0.017317245
0.29002138
0.28235661
0.30599554
0.2750056
0.29347149
0.28901018
0.30785025
0.29138082
0.29481846
0.28981222
0.29266347
0.2910539
0.27960925
0.31109903
0.3056377
0.33087943
0.33611549
0.33414896
0.3349265
0.33689779
0.33652844
0.34398294
0.32965754
0.34673603
0.31550488
0.32699235
-0.24879246
-0.24803424
-0.21929248
-0.22136717
-0.2295441
-0.21259768
-0.21430586
-0.26652483
-0.26997228
-0.26697087
-0.2392295
-0.25731823
-0.26431234
-0.27028024
-0.26986628
-0.25565224
-0.28707561
-0.30857828
-0.25396947
-0.22183292
-0.19621867
-0.19807223
-0.20521066
-0.19572443
-0.27595794
-0.28050608
0.095952912
0.084780087
0.065365284
0.091718978
0.078995655
0.079664981
0.069662159
0.07594871
0.084941791
0.11212738
0.1026315
0.11588875
0.11920018
0.097802233
0.075486413
0.026235974
0.12998652
0.060096875
0.03034041
0.054263039
0.062843224
0.056256712
0.055026989
0.033959078
0.044653067
0.086637783
-0.031398022
-0.042489123
-0.044079964
-0.071636278
-0.070014229
-0.05980705
-0.043113253
-0.068189396
-0.047320779
-0.051021159
-0.090186818
-0.089707638
-0.054109328
-0.047709687
-0.079470801
-0.079842509
-0.073472945
-0.03248061
-0.10820263
-0.048253543
-0.026536858
-0.012502141
-0.041791775
-0.05068071
-0.05332615
-0.033563875
-0.006159979
-0.012953708
-0.022654532
-0.0038856575
-0.00027236703
-0.010872015
-0.013123723
-0.0087499634
0.00024406112
0.013241932
0.042564048
0.03484397
0.0094417161
-0.0069212153
0.0030198286
0.018689763
0.015989242
0.005769636
-0.002646316
-0.032459213
-0.013484801
-0.0066918014
-0.013809397
0.0087206931
0.0054850981
0.010159967
0.2998883
0.2986822
0.29612231
0.30644942
0.31328005
0.3164554
0.31439889
0.30616148
0.30383213
0.29732821
0.29632441
0.29439156
0.29526562
0.30397862
0.30493978
0.32614398
0.32851137
0.32548705
0.32597788
0.32914432
0.33151763
0.32772901
0.32578618
0.33775338
0.32142201
0.31503275
0.30949019
0.30910641
0.30782177
0.31319828
-0.25832777
-0.26382247
-0.25670123
-0.22314302
-0.17305581
-0.17839771
-0.23678436
-0.26436007
-0.27216324
-0.27462114
-0.25214595
-0.25960993
-0.27425526
-0.27375446
-0.2584781
-0.21336943
-0.21640026
-0.27308326
-0.30119917
-0.30696673
-0.30559313
-0.31293199
-0.2924928
-0.21957854
-0.2300519
-0.269002
-0.26730211
-0.278456
-0.29669625
-0.28665003
0.12584909
0.080528866
0.061502282
0.032405499
0.036084786
0.044613178
0.034996016
0.074305988
0.10389023
0.11156051
0.10613318
0.11363117
0.11332846
0.1099998
0.094729153
0.070197142
0.059956311
0.077263413
0.098567746
0.10550781
0.13481237
0.076221936
0.053524507
0.038290084
0.066308284
0.099852976
0.088674755
0.084170402
0.10067252
0.12467421
-0.015350991
-0.041871159
-0.071855503
-0.058602424
-0.05749696
-0.069075986
-0.071012339
-0.061648419
-0.037018012
-0.051769531
-0.088495566
-0.088407988
-0.054487633
-0.031514137
-0.053087608
-0.04595045
-0.042978185
-0.082859629
-0.045195488
-0.053772073
-0.042878433
-0.052988254
-0.10403553
-0.093952211
-0.070668772
-0.066576781
-0.08230022
-0.092344954
-0.072294547
-0.053914242
0.001590519
-0.015152725
-0.0071752166
0.010067104
0.0260806
0.01613424
-0.0012442092
0.0024203338
0.0027684027
0.0008807131
0.040663641
0.044475325
-0.011583745
-0.0014207403
-0.012162021
-0.010208786
-0.013008835
0.011165341
0.0088129979
0.015680112
0.032952525
0.020033396
0.012842443
-0.00011536717
-0.011766923
-0.013731834
0.010245058
0.022563052
0.012288383
0.019218462
0.28647062
0.2916802
0.29438591
0.2835594
0.29854391
0.3082985
0.31429548
0.3095679
0.30443461
0.29452061
0.3247462
0.31495441
0.30275309
0.31245929
0.30391083
0.33712039
0.32393919
0.31843608
0.3215166
0.32513675
0.32831444
0.32888797
0.32655121
0.33727939
0.30975052
0.32256029
0.31983054
0.31909134
0.32303259
0.32413081
-0.24776733
-0.23857771
-0.25028446
-0.24436646
-0.23252364
-0.23439088
-0.28622724
-0.27309885
-0.2621785
-0.27142727
-0.20266675
-0.22155582
-0.26614483
-0.27323177
-0.25847652
-0.20015148
-0.23097021
-0.27890686
-0.29182639
-0.27515723
-0.29808888
-0.30215585
-0.29567101
-0.23075796
-0.26046857
-0.27778223
-0.2935211
-0.30047864
-0.29387393
-0.28758951
0.12034715
0.083449093
0.11314842
0.08932087
0.06167168
0.065510189
0.097093887
0.12121283
0.089757727
0.095261666
0.05209701
0.052729274
0.10737567
0.088452608
0.086594154
0.043494112
0.05647779
0.086372734
0.10656586
0.10960879
0.12729763
0.10760573
0.075058024
0.038321777
0.085134304
0.09985575
0.096299707
0.10290838
0.11954593
0.14800443
-0.04112934
-0.089379265
-0.029919019
-0.066815485
-0.064528241
-0.074943438
-0.046730369
-0.041527124
-0.05996223
-0.065264072
-0.07091057
-0.078525648
-0.055525922
-0.032684421
-0.079790616
-0.064648378
-0.058250391
-0.081101304
-0.035132589
-0.091668412
-0.026702427
-0.039188978
-0.099903927
-0.0791565
-0.077845415
-0.054706921
-0.034747042
-0.032979768
-0.03058914
-0.028751498
-0.0022377302
0.0055925451
0.010828539
0.011718652
0.029619173
0.032743913
0.023617711
0.030396286
0.014015806
0.0028066886
0.0090545891
0.0096897724
-0.0047738602
0.001714477
0.0046817692
0.019347784
-0.003080848
0.0072250429
0.014967655
0.040667262
0.044230936
0.035412376
0.031406612
0.021328198
0.0017684561
-0.0028961238
0.022851067
0.022136048
0.032017633
0.036891241
0.2936797
0.31200047
0.30029778
0.30785087
0.29769178
0.30228016
0.30395528
0.30265434
0.31611356
0.32437156
0.32754007
0.31326925
0.31545814
0.30362928
0.32058028
0.32530327
0.31789665
0.33221024
0.3165335
0.3328588
0.3229593
0.32792231
0.32561408
0.3176585
0.31223751
0.32015992
0.30779572
0.32231252
0.31056319
0.31609176
-0.24262882
-0.22669938
-0.25699199
-0.27212333
-0.26908738
-0.27909912
-0.25697956
-0.25171469
-0.21854059
-0.20347983
-0.20156498
-0.23418101
-0.24174548
-0.26123086
-0.22751845
-0.23881424
-0.27973794
-0.29310629
-0.2807183
-0.2686322
-0.28320069
-0.29814456
-0.30324095
-0.27653346
-0.26924806
-0.28025836
-0.27752405
-0.24748728
-0.26923125
-0.28204868
0.10818829
0.051335917
0.080259068
0.094067599
0.13320505
0.092991834
0.09451764
0.057901945
0.048003353
0.068096454
0.067749372
0.088436634
0.087805916
0.082529968
0.049438772
0.056683051
0.079505791
0.093132051
0.11143576
0.055681673
0.088671594
0.10999024
0.10514528
0.092419221
0.11013789
0.11312225
0.096860923
0.066805933
0.077285525
0.096723259
-0.048067542
-0.074062412
-0.084298983
-0.031068924
-0.047380277
-0.049607788
-0.083590941
-0.092177346
-0.078724936
-0.065829239
-0.049502666
-0.050697273
-0.053409059
-0.083930216
-0.078465726
-0.070090769
-0.066922041
-0.034920466
-0.058653516
-0.067985301
-0.090219598
-0.041080309
-0.064115981
-0.12344006
-0.10245546
-0.078355159
-0.07995686
-0.097900931
-0.096650156
-0.054572097
0.0025435938
0.028038039
0.013186133
-0.00010333174
0.00047988442
-0.0040451805
0.01544073
0.022708801
-0.0015102133
-0.0173923
-0.019350024
-0.015047928
-0.019905704
-0.01173452
0.014012856
0.018157099
0.0052519995
0.034755371
0.010358737
0.019695496
0.039441004
0.03826088
0.024424851
0.027561237
0.010157854
-0.017250079
0.0088023708
0.021442004
0.023982072
0.016330335
0.29499628
0.29390519
0.28939343
0.29504888
0.27942791
0.31455084
0.3043574
0.31043935
0.30587385
0.30414955
0.30680065
0.306661
0.30929598
0.30732273
0.30779131
0.31148981
0.31438788
0.32167203
0.32873512
0.33180422
0.32947501
0.32819879
0.32834443
0.32897274
0.32264174
0.32812963
0.32640759
0.32042354
0.32748024
0.31836028
-0.2389398
-0.23992265
-0.26345366
-0.25368361
-0.25472401
-0.23610802
-0.25866539
-0.27942238
-0.25037967
-0.25485328
-0.26325336
-0.27014558
-0.27224729
-0.27857546
-0.27508233
-0.27173575
-0.2783663
-0.25242313
-0.22717069
-0.21107826
-0.23637815
-0.28868738
-0.28669336
-0.23974045
-0.23076792
-0.22086054
-0.21247557
-0.2031447
-0.21427863
-0.25146161
0.089378972
0.096688326
0.11176021
0.10516935
0.11867213
0.0544042
0.10303238
0.11002448
0.12316598
0.11714533
0.1238333
0.14701797
0.14334366
0.13287837
0.11947224
0.10866009
0.09075744
0.062182641
0.072107502
0.077039829
0.057577007
0.09027713
0.094527365
0.045149646
0.077372458
0.067782935
0.060612545
0.070851225
0.044860825
0.076002438
-0.070241029
-0.088505149
-0.050812728
-0.020690427
-0.065125563
-0.062613594
-0.088322466
-0.0487234
-0.087420427
-0.085220664
-0.06834891
-0.040859342
-0.056213661
-0.067193028
-0.068602081
-0.053524592
-0.044186064
-0.053363449
-0.033205591
-0.049270519
-0.084105827
-0.054748066
-0.06742097
-0.098152484
-0.065199698
-0.036303744
-0.029126701
-0.051232874
-0.063617183
-0.060199676
0.026800892
0.036119728
0.0099476222
0.017453787
-0.0079055825
0.008132947
0.030783748
0.017797438
0.042618851
0.035485675
-0.00060084017
-0.0031034788
-0.0040035218
0.0075286123
0.03194299
0.022358534
0.0040526014
0.028735162
-0.0034043606
0.0049801181
0.026598242
0.014865883
0.0065671988
-0.0019387271
-0.02076541
-0.013847045
-0.0031469622
-0.0071111652
0.010772484
0.010798906
)
;

boundaryField
{
    minX
    {
        type            fixedFluxPressure;
        gradient        uniform 0;
        value           nonuniform List<scalar> 
50
(
0.31869698
-0.26701543
0.15195259
-0.022534789
0.047550612
0.31297567
-0.27388146
0.096901161
-0.038470149
0.026181345
0.30493101
-0.26499681
0.087401774
-0.047275501
0.012397898
0.29070499
-0.23906565
0.089040853
-0.04938681
0.010355932
0.29551036
-0.23558992
0.081594912
-0.069440359
0.0098560108
0.29002138
-0.24879246
0.095952912
-0.031398022
-0.006159979
0.2998883
-0.25832777
0.12584909
-0.015350991
0.001590519
0.28647062
-0.24776733
0.12034715
-0.04112934
-0.0022377302
0.2936797
-0.24262882
0.10818829
-0.048067542
0.0025435938
0.29499628
-0.2389398
0.089378972
-0.070241029
0.026800892
)
;
    }
    maxX
    {
        type            fixedFluxPressure;
        gradient        uniform 0;
        value           nonuniform List<scalar> 
50
(
0.31453292
-0.23869096
0.10869093
-0.08089216
0.024326251
0.31401376
-0.24856028
0.10056235
-0.093178349
0.042797242
0.31657194
-0.28383045
0.13214206
-0.035526415
0.010819544
0.31065343
-0.28062946
0.11896374
-0.04390091
0.013064196
0.31882661
-0.27370317
0.092244559
-0.033932683
0.017317245
0.32699235
-0.28050608
0.086637783
-0.033563875
0.010159967
0.31319828
-0.28665003
0.12467421
-0.053914242
0.019218462
0.32413081
-0.28758951
0.14800443
-0.028751498
0.036891241
0.31609176
-0.28204868
0.096723259
-0.054572097
0.016330335
0.31836028
-0.25146161
0.076002438
-0.060199676
0.010798906
)
;
    }
    minY
    {
        type            fixedValue;
        value           uniform 0;
    }
    minZ
    {
        type            fixedFluxPressure;
        gradient        uniform 0;
        value           nonuniform List<scalar> 
150
(
0.31869698
-0.26701543
0.15195259
-0.022534789
0.047550612
0.31538084
-0.28389436
0.081472319
-0.044908921
0.034156121
0.32073583
-0.2525474
0.055887126
-0.083028823
0.026673322
0.32326933
-0.18150785
0.043864232
-0.068413751
0.02075161
0.30841943
-0.16208375
0.043172355
-0.066950505
0.0086935089
0.29658146
-0.2058041
0.028864065
-0.064819812
-0.0055148307
0.27160521
-0.24342879
0.078060785
-0.062097967
-0.013918533
0.28993071
-0.24911684
0.085848182
-0.024065108
-0.0030126238
0.27945422
-0.24593454
0.11082076
-0.044984438
-0.0056935267
0.29490479
-0.22106831
0.062112182
-0.053488016
-0.011353406
0.29937747
-0.20345077
0.05940559
-0.071174013
0.020407995
0.28819819
-0.24973612
0.092261264
-0.056867282
0.012614421
0.30036198
-0.25360578
0.093938192
-0.047150493
0.0035141925
0.29364692
-0.25594416
0.10076366
-0.040964325
-0.0074955641
0.30159048
-0.26755464
0.094445895
-0.012456763
-0.012420341
0.30115603
-0.24798572
0.11017209
-0.032264464
-0.0080457863
0.31730798
-0.2201307
0.070894506
-0.018168009
-0.0092219417
0.31528164
-0.20165099
0.069686809
-0.038833318
-0.016492112
0.32131657
-0.20332636
0.065256194
-0.054699138
-0.015653076
0.3278161
-0.22517497
0.057929906
-0.063513638
-0.00376436
0.32613426
-0.27248027
0.047503625
-0.08083243
0.014976472
0.31961222
-0.29529141
0.081448673
-0.047082224
0.015201353
0.31286217
-0.28447708
0.097739342
-0.05018502
0.012831511
0.32304229
-0.24762029
0.04986911
-0.059570527
0.012248481
0.30612883
-0.25837698
0.085960117
-0.06083497
0.0020598345
0.31397885
-0.27932066
0.080775492
-0.024043715
-0.013041342
0.31161314
-0.26720902
0.11281997
-0.040013427
-0.0047362185
0.32505341
-0.22856644
0.073456152
-0.035618546
-0.0045308426
0.32221559
-0.21190384
0.086702651
-0.073263093
-0.011104875
0.31453292
-0.23869096
0.10869093
-0.08089216
0.024326251
)
;
    }
    maxZ
    {
        type            fixedFluxPressure;
        gradient        uniform 0;
        value           nonuniform List<scalar> 
150
(
0.29499628
-0.2389398
0.089378972
-0.070241029
0.026800892
0.29390519
-0.23992265
0.096688326
-0.088505149
0.036119728
0.28939343
-0.26345366
0.11176021
-0.050812728
0.0099476222
0.29504888
-0.25368361
0.10516935
-0.020690427
0.017453787
0.27942791
-0.25472401
0.11867213
-0.065125563
-0.0079055825
0.31455084
-0.23610802
0.0544042
-0.062613594
0.008132947
0.3043574
-0.25866539
0.10303238
-0.088322466
0.030783748
0.31043935
-0.27942238
0.11002448
-0.0487234
0.017797438
0.30587385
-0.25037967
0.12316598
-0.087420427
0.042618851
0.30414955
-0.25485328
0.11714533
-0.085220664
0.035485675
0.30680065
-0.26325336
0.1238333
-0.06834891
-0.00060084017
0.306661
-0.27014558
0.14701797
-0.040859342
-0.0031034788
0.30929598
-0.27224729
0.14334366
-0.056213661
-0.0040035218
0.30732273
-0.27857546
0.13287837
-0.067193028
0.0075286123
0.30779131
-0.27508233
0.11947224
-0.068602081
0.03194299
0.31148981
-0.27173575
0.10866009
-0.053524592
0.022358534
0.31438788
-0.2783663
0.09075744
-0.044186064
0.0040526014
0.32167203
-0.25242313
0.062182641
-0.053363449
0.028735162
0.32873512
-0.22717069
0.072107502
-0.033205591
-0.0034043606
0.33180422
-0.21107826
0.077039829
-0.049270519
0.0049801181
0.32947501
-0.23637815
0.057577007
-0.084105827
0.026598242
0.32819879
-0.28868738
0.09027713
-0.054748066
0.014865883
0.32834443
-0.28669336
0.094527365
-0.06742097
0.0065671988
0.32897274
-0.23974045
0.045149646
-0.098152484
-0.0019387271
0.32264174
-0.23076792
0.077372458
-0.065199698
-0.02076541
0.32812963
-0.22086054
0.067782935
-0.036303744
-0.013847045
0.32640759
-0.21247557
0.060612545
-0.029126701
-0.0031469622
0.32042354
-0.2031447
0.070851225
-0.051232874
-0.0071111652
0.32748024
-0.21427863
0.044860825
-0.063617183
0.010772484
0.31836028
-0.25146161
0.076002438
-0.060199676
0.010798906
)
;
    }
    bottomWater_to_rightSolid
    {
        type            fixedFluxPressure;
        gradient        uniform 0;
        value           nonuniform List<scalar> 
130
(
-0.016492112
-0.015653076
-0.00376436
0.014976472
0.015201353
0.012831511
0.012248481
0.0020598345
-0.013041342
-0.0047362185
-0.0045308426
-0.011104875
0.024326251
-0.0080907939
0.016643773
0.021083877
0.017584625
0.035003271
0.01675909
0.026383412
0.0097195642
-0.0069847202
0.0011117859
0.00035223705
0.011601632
0.042797242
-0.0048010001
0.0070380958
0.032809779
0.032590447
0.031233973
0.022163767
0.016547322
0.0048978344
-0.0022723238
0.0023165978
0.018437164
0.021663215
0.010819544
-0.011162503
-0.0055637137
0.009264414
0.01581126
0.028449871
0.019393893
0.0064920085
-0.012385167
-0.012257687
5.9573652e-05
0.014336019
0.0031776714
0.013064196
0.0062948222
-0.011780193
0.022443072
0.039347258
0.023758349
0.023874851
-0.016663216
-0.0098719779
-0.0034289045
-0.011085135
0.013564281
0.01565738
0.017317245
-0.0069212153
0.0030198286
0.018689763
0.015989242
0.005769636
-0.002646316
-0.032459213
-0.013484801
-0.0066918014
-0.013809397
0.0087206931
0.0054850981
0.010159967
0.011165341
0.0088129979
0.015680112
0.032952525
0.020033396
0.012842443
-0.00011536717
-0.011766923
-0.013731834
0.010245058
0.022563052
0.012288383
0.019218462
0.0072250429
0.014967655
0.040667262
0.044230936
0.035412376
0.031406612
0.021328198
0.0017684561
-0.0028961238
0.022851067
0.022136048
0.032017633
0.036891241
0.034755371
0.010358737
0.019695496
0.039441004
0.03826088
0.024424851
0.027561237
0.010157854
-0.017250079
0.0088023708
0.021442004
0.023982072
0.016330335
0.028735162
-0.0034043606
0.0049801181
0.026598242
0.014865883
0.0065671988
-0.0019387271
-0.02076541
-0.013847045
-0.0031469622
-0.0071111652
0.010772484
0.010798906
)
;
    }
    bottomWater_to_leftSolid
    {
        type            fixedFluxPressure;
        gradient        uniform 0;
        value           nonuniform List<scalar> 
130
(
0.047550612
0.034156121
0.026673322
0.02075161
0.0086935089
-0.0055148307
-0.013918533
-0.0030126238
-0.0056935267
-0.011353406
0.020407995
0.012614421
0.0035141925
0.026181345
0.027572472
0.019838948
0.0019610108
-0.020940828
-0.023881481
-0.013001173
0.0055409113
0.0030781037
0.0045511554
0.0045649435
0.016669012
0.01192133
0.012397898
0.022951455
0.01249841
-0.0093504704
-0.013229161
-0.010704862
-0.0013008994
0.025531993
0.019939711
0.015182233
0.018159924
0.012374008
0.01528983
0.010355932
0.013514844
0.0010102939
-0.0081303461
0.0031103094
-0.011365344
-0.015309193
0.0015586416
0.020243498
0.024017694
0.015400955
0.031991877
0.018312082
0.0098560108
-0.010531557
-0.012024577
-0.010446243
-0.0091073254
-0.018932148
-0.023104706
0.0051290384
0.039864772
0.037277149
-0.00021155764
0.0085357868
0.017457931
-0.006159979
-0.012953708
-0.022654532
-0.0038856575
-0.00027236703
-0.010872015
-0.013123723
-0.0087499634
0.00024406112
0.013241932
0.042564048
0.03484397
0.0094417161
0.001590519
-0.015152725
-0.0071752166
0.010067104
0.0260806
0.01613424
-0.0012442092
0.0024203338
0.0027684027
0.0008807131
0.040663641
0.044475325
-0.011583745
-0.0022377302
0.0055925451
0.010828539
0.011718652
0.029619173
0.032743913
0.023617711
0.030396286
0.014015806
0.0028066886
0.0090545891
0.0096897724
-0.0047738602
0.0025435938
0.028038039
0.013186133
-0.00010333174
0.00047988442
-0.0040451805
0.01544073
0.022708801
-0.0015102133
-0.0173923
-0.019350024
-0.015047928
-0.019905704
0.026800892
0.036119728
0.0099476222
0.017453787
-0.0079055825
0.008132947
0.030783748
0.017797438
0.042618851
0.035485675
-0.00060084017
-0.0031034788
-0.0040035218
)
;
    }
    bottomWater_to_heater
    {
        type            fixedFluxPressure;
        gradient        uniform 0;
        value           nonuniform List<scalar> 
92
(
-0.0074955641
-0.012420341
-0.0080457863
-0.0092219417
0.0057946407
0.0027568156
-0.0086919556
-0.012960144
0.012944363
0.0050361694
-0.010636612
-0.0061264439
0.29181719
0.28428551
0.28978828
0.2901195
-0.24579445
-0.24690877
-0.24778139
-0.25715549
0.080856587
0.095290068
0.10270154
0.10304867
-0.087051266
-0.044413193
-0.078008342
-0.045828056
0.018558662
0.018558662
0.0052492447
0.0052492447
0.021885316
0.021885316
-0.0007295515
-0.0007295515
0.29845451
0.31522796
-0.26416126
-0.25880587
0.11424063
0.11635515
-0.037667624
-0.028206953
0.017457931
0.0062948222
0.27960925
0.30397862
0.30493978
0.32614398
0.31109903
0.32851137
-0.26431234
-0.27375446
-0.2584781
-0.21336943
-0.27028024
-0.21640026
0.11920018
0.1099998
0.094729153
0.070197142
0.097802233
0.059956311
-0.054109328
-0.031514137
-0.053087608
-0.04595045
-0.047709687
-0.042978185
0.0094417161
-0.0014207403
-0.012162021
-0.010208786
-0.0069212153
-0.013008835
-0.0014207403
-0.012162021
-0.010208786
-0.013008835
0.001714477
0.0046817692
0.019347784
-0.003080848
-0.01173452
0.014012856
0.018157099
0.0052519995
0.0075286123
0.03194299
0.022358534
0.0040526014
)
;
    }
}


// ************************************************************************* //
