/*--------------------------------*- C++ -*----------------------------------*\
| =========                 |                                                 |
| \\      /  F ield         | OpenFOAM: The Open Source CFD Toolbox           |
|  \\    /   O peration     | Version:  v2012                                 |
|   \\  /    A nd           | Website:  www.openfoam.com                      |
|    \\/     M anipulation  |                                                 |
\*---------------------------------------------------------------------------*/
FoamFile
{
    version     2.0;
    format      ascii;
    class       surfaceScalarField;
    location    "700/bottomWater";
    object      phi;
}
// * * * * * * * * * * * * * * * * * * * * * * * * * * * * * * * * * * * * * //

dimensions      [1 0 -1 0 0 0 0];
oriented        oriented;


internalField   nonuniform List<scalar> 
3858
(
-0.00014679176
0.000103243
4.1531108e-05
-0.00025144584
0.00011613401
-1.2607436e-05
-0.00018585512
-2.8185207e-05
-3.9703361e-05
1.8685555e-05
-0.00026451362
5.7147055e-05
0.00022215733
-0.00032925495
0.00012628859
0.00035054425
-0.00023469623
0.00010952518
0.00021557384
8.3207187e-05
6.0180667e-05
-1.0737471e-05
0.00015005934
8.0546445e-05
-0.00010935567
0.00011348286
-8.4716736e-06
9.3371477e-05
-0.00025910121
5.9648199e-05
0.00020331081
-0.00019052603
8.2935719e-05
4.2948478e-05
9.2175267e-05
7.2820626e-05
-0.00010066007
0.00013399003
1.1535653e-05
-0.00017289588
0.00012624748
-5.0522166e-05
-0.00018950022
0.00013807073
-0.00011955431
-0.00019685315
9.4030444e-05
-8.4714869e-05
-4.9969338e-05
-0.00024173375
9.3352897e-05
5.0072682e-05
-0.00022014431
0.00011892378
0.00016183408
-0.00021981928
0.00010566225
0.00028530493
-0.00020589427
7.8794835e-05
0.00032739019
-3.2785203e-05
-1.2630537e-05
0.00023476618
0.00014755099
-5.6766704e-05
0.0001010934
0.00016081369
-2.7729596e-05
0.00017574974
-0.0001019763
2.4440054e-05
6.6251049e-05
0.00014436977
-3.4093145e-05
-0.00013200311
0.00016720397
3.0116738e-05
-0.00016482689
3.1907521e-05
4.3859057e-07
2.8184369e-05
-0.0003034576
0.00010730235
0.00014881352
-0.00023715399
0.00011392755
5.5585858e-05
9.2112252e-05
-0.0004200423
0.00066726182
-0.00014397652
-0.00062622599
0.0005452588
-0.0002229411
-0.00049781402
1.806305e-05
-0.00017466023
-0.00017230519
-0.00053523732
-5.4785135e-05
4.135332e-06
-0.00061829273
0.00011259725
0.00025996645
-0.00056467871
7.4151365e-05
0.00031024055
-2.5684464e-05
5.8617558e-05
-6.7885512e-05
0.00044541032
8.2775099e-05
-9.7495357e-05
8.0780487e-05
6.2312235e-05
0.00014561602
-0.00060219055
9.9977987e-05
0.00028199103
-0.00047810859
0.00015120757
0.00013368945
0.00015920409
8.1272773e-05
-4.2943708e-05
0.0003130892
-2.4660038e-06
-6.84221e-05
0.00021628157
-6.4555691e-05
-0.00027514597
0.00053264694
-0.00018785234
-0.00016207184
6.8231084e-05
-8.7274757e-05
8.6550644e-05
-0.00059005868
9.9702441e-05
0.00019698578
-0.00049189972
0.00016132027
0.00032477575
-0.00048283158
0.00013522232
0.00049879189
-0.00052737692
0.0001474665
0.00054763184
-0.0002002534
0.00011862824
0.00020469614
0.00045299633
3.7490348e-05
-6.9412119e-05
0.0004007673
3.4154634e-05
0.00018611194
-0.00036940163
1.1901258e-05
0.00018431232
0.0001067069
3.94625e-05
-0.0002227716
0.00055026398
2.4023901e-05
-0.00020774993
-6.732686e-05
8.4212711e-05
3.7480335e-05
-0.00069693873
0.00014825088
0.00019462792
-0.00052254938
0.00012824781
5.5592941e-05
0.00019462084
2.4296157e-05
0.00065781272
-1.4847064e-05
0.00017770632
0.00042491395
-3.3065311e-05
0.00028207172
-6.6583229e-05
-1.9719127e-05
-5.9523462e-08
-9.9679063e-05
-0.00015342701
-0.00026822764
-9.3643198e-05
-0.00025648141
-0.00043595179
-0.00013006505
-0.0002668895
-0.00016251577
-0.00020539257
-9.3727895e-05
0.00013110303
0.00015711639
-5.3248565e-06
0.00039731665
-0.00018906643
3.6333309e-06
0.00015958892
-0.00024285148
-0.00012161133
-0.00013736732
-9.8888048e-05
-8.2264271e-05
-0.00013499421
7.9152512e-05
7.7678493e-05
-0.00016428796
0.00016283249
0.00017955049
-0.00015952334
-3.1036481e-05
0.00024255345
1.1945894e-05
0.00022893548
0.00013224225
0.00030988383
-0.00029320159
6.3494742e-05
0.00024990335
-0.00047022491
-5.9853289e-05
0.00018738433
-0.00039574776
-3.3632948e-05
0.00010433412
-0.00030565987
-9.4121508e-05
-5.5123279e-05
-0.00023588292
-0.00013203661
7.9340461e-07
-0.00010183565
-0.00015433445
0.00017289724
0.0003368592
-5.5966722e-05
0.00021304508
0.00027144833
8.9171119e-05
-9.0625443e-05
-9.9450581e-05
3.3719464e-05
-0.00019304793
-6.043637e-06
0.00021517301
4.1989723e-05
0.00025895159
5.627473e-05
0.00031174014
-0.00037480504
3.7727765e-05
0.00013257836
-0.00048055498
-3.7221971e-05
-6.9149137e-05
-0.00030989028
-1.0931604e-05
-8.8971845e-05
7.5415651e-05
0.00023075195
0.00039879248
2.8268281e-05
0.00041656635
0.00019817445
4.0925092e-05
0.0003108308
0.00012845119
-8.9298878e-05
0.00018745354
0.00013941494
-0.00011571674
8.7586203e-05
0.0001513121
-0.00014508796
-4.2281446e-05
9.6684058e-05
-9.6881444e-05
-9.1685322e-05
-0.0001467647
-9.22397e-06
0.00016249418
-0.00020682678
0.0001097637
0.00026882214
-0.00029929978
3.9054056e-06
0.00026724635
-0.00022592925
-1.5346405e-05
-1.1347821e-06
0.00025665637
-8.7163256e-05
-0.00010663913
0.00011513311
6.9523771e-05
-7.1288026e-05
3.1928782e-05
9.5552644e-05
-7.6094793e-05
-0.0001382872
0.00011205751
0.00014281841
-0.00019642075
0.00020644305
0.00013078219
-0.00030282972
2.1664364e-05
7.5298823e-05
-0.00041959204
4.8505073e-06
3.6474103e-06
-0.00035527579
3.1179422e-05
-2.1354322e-05
-0.00026092268
-1.9735477e-05
-9.3669946e-05
-0.00015929131
-4.2760105e-06
-0.00014169344
0.000115856
-0.00016966817
0.00013360603
0.00011718349
-5.5623776e-05
0.00027110645
6.3119561e-05
7.0828326e-05
-2.1565147e-05
9.7652291e-05
9.5568709e-05
-0.00017821111
1.7259551e-05
0.00013334276
0.00015638519
-0.00021699117
0.00014134646
0.00019861755
-0.00038002806
-3.7009342e-05
0.00021465152
-0.00046692213
-2.9666825e-05
0.00020873599
-0.0002615947
-4.2380039e-05
0.00018896327
-6.9199128e-05
0.00027505089
0.00012374158
0.00037587643
9.7348912e-05
0.00042915996
7.5167658e-05
0.0004752303
9.3344602e-05
0.00050670734
0.00011983507
0.00049379642
0.00010959499
0.0002907868
5.624493e-05
0.00014201365
-5.8053602e-05
-6.7485891e-05
-8.9800216e-05
-0.00015240004
-0.00014101508
0.00010912988
-4.8735286e-06
0.00026268645
-3.8423424e-05
0.00038656326
-9.1948012e-05
0.00038733
-0.00013905392
0.00032000725
-0.00012909799
0.00014175944
-0.00012458191
-0.00015315506
-0.00012467755
-0.00033397304
-0.00017445781
-0.00039129224
-0.00020360349
-0.00034909548
-0.00020148808
-9.2212725e-05
-0.00014102677
0.00014915062
-0.00012417988
0.00027257561
-6.0305436e-05
0.00041717694
-4.6949055e-05
0.00047969613
-4.5259653e-05
0.00033766693
-7.4961974e-05
6.6839639e-05
-0.00010920077
-0.00021934231
-0.00018074018
-0.00029614255
-0.00018479447
-0.00010717927
-0.00014262142
0.00014218668
4.1235861e-05
-0.00014850923
5.0655129e-05
-5.7833171e-05
0.00012273749
-0.00028958163
-2.3972285e-05
0.00036587614
-0.00024945302
6.4308819e-05
0.0003766723
7.282103e-05
5.0016998e-05
0.0002889797
0.0001532805
5.2041714e-05
0.00015013046
0.00015803097
4.7925227e-05
6.3230918e-05
0.00015561109
1.6652863e-05
-3.8858322e-05
0.00015342627
-5.5042892e-05
-0.00015135741
0.00012533488
5.1954676e-05
-0.00024562109
0.00012467942
5.712588e-05
-0.0003421415
0.00010731186
6.7013911e-05
-0.00019531376
-0.00025685236
0.00012141483
4.1892538e-05
-0.00034791777
5.7951151e-05
7.3614638e-05
4.0907627e-06
-0.000153854
-1.8023609e-05
8.6625184e-05
-7.9960984e-05
-0.00010770107
0.00012154059
6.3265504e-05
-6.8400858e-05
-4.9390914e-05
0.00012978901
4.933324e-05
-0.0001190124
0.00010437194
8.8458906e-05
2.0446758e-05
1.4818392e-05
4.0620288e-05
0.00014092123
-0.0001095106
-5.0590281e-05
0.00015930566
-0.00012781019
-0.00016268414
0.00018962072
-0.00010565302
-9.9557119e-05
3.3076945e-05
-7.2064236e-05
6.5795593e-05
-0.00019254937
-8.0752244e-06
2.4743306e-05
0.00014393727
-7.1607945e-05
-5.3607776e-05
0.00012190351
-4.5407602e-05
-4.1018818e-05
4.8780759e-05
4.573608e-05
9.5859662e-05
-0.00016748065
0.00014171759
9.8078522e-05
8.894601e-05
-0.0003758181
0.00057958657
-0.00020555832
-0.00031312846
5.6670782e-05
-0.00029164639
-2.875388e-05
-0.00061700631
-0.00013161014
0.00019670177
-0.00056088194
3.1188124e-05
0.00027092198
-4.2685327e-05
0.0001538834
0.00028030535
3.0034542e-05
0.00018801396
0.00033532413
1.9384221e-05
0.00014224554
0.00018403905
0.00037639772
1.3273554e-05
-4.1183759e-05
0.00052832197
-8.7360647e-05
-0.00011519013
0.00015908237
0.00014023689
-0.00022565834
0.00016668362
0.00021967158
-0.00020591484
-3.2502613e-05
0.00020134375
-8.0462601e-05
-0.00060966998
0.0002248994
0.00012614843
-0.00069306761
7.3983132e-05
0.00017867599
1.7142899e-05
-0.00025343203
6.124702e-05
0.00025291883
-0.00013613942
0.00013958225
4.822833e-05
9.4679469e-05
0.00031137094
-0.00024089661
0.00018103727
0.00055307088
-0.00038114157
0.00015565154
0.00063106716
4.2137548e-05
4.7779432e-05
0.00026305891
0.00061968373
7.8739852e-06
-0.00017897269
0.0006562632
-1.74356e-05
-0.00037390555
0.00044683271
-2.8124497e-05
-0.00022554728
-9.3022336e-05
-1.0357743e-05
0.00014384184
-0.00058846891
6.5992918e-05
0.00018733775
0.00018714996
-6.2684713e-05
-0.000143539
0.00059946819
-6.2475217e-05
-0.00017610208
0.00017525205
5.4342668e-05
0.00010740618
-0.00048478946
0.00016204837
0.00012562742
0.00027447812
0.00020218669
0.00047113463
-0.00010858182
0.00036415266
-5.8494087e-05
-7.9866412e-05
-8.4017339e-06
-0.00011245741
-0.00015171364
-0.00037276017
-8.9139536e-05
-0.00026081099
-0.00031094281
-0.00017147745
-0.00018950665
-0.00016449475
-0.00025855943
-0.00012474358
9.0447298e-05
-0.00036335312
3.4067412e-05
0.00017103394
0.00019933622
9.1150024e-05
0.00019477925
0.00043407708
7.413294e-05
0.00022653035
3.7504861e-05
-3.1784904e-05
0.00023704768
5.7470792e-05
1.6431245e-05
0.00032026989
-6.6925827e-05
2.8879521e-05
-3.758039e-05
-7.8764584e-05
6.4953857e-06
-0.00045918838
-9.350753e-05
6.4601393e-05
-0.00031702689
-4.4116577e-05
5.1340244e-05
7.6319382e-05
-0.00010240574
2.5473056e-05
0.00042889222
-0.00031233638
-5.186142e-05
0.00037840197
-0.00014647699
-7.7562324e-05
8.6080042e-05
-8.8152765e-05
-9.4788386e-05
7.8431104e-05
-6.2427276e-05
-1.9822856e-05
0.00012903451
0.00051848036
-0.00010373451
8.3416576e-05
0.00063897932
6.9350783e-06
0.0001972954
0.00033428887
8.7836122e-05
0.00010605426
-8.5082573e-05
0.00011702082
-0.00032721554
-9.3217488e-05
0.00015319138
-0.00018844292
-1.341762e-06
0.00010599383
0.00012147804
0.00029025981
3.7015171e-05
0.00025247669
2.5994231e-06
4.4320167e-06
-0.0001274111
-9.9843228e-05
-1.5990043e-05
-1.2022396e-05
8.5654361e-05
0.00031624659
0.00021844048
-3.5284161e-05
0.00025714324
0.00011374901
-7.2214665e-05
0.0001188593
0.00010634498
-0.00016981733
4.5071495e-05
9.2405836e-05
-0.0002234743
8.0050501e-05
-0.00010381477
-0.00024772963
8.3366403e-05
-0.00024978807
-0.00010896869
8.0630497e-05
-0.00036408568
-5.7554758e-06
0.00017319124
4.6499937e-05
0.00017003926
0.0003218288
0.00015508729
0.00013425767
0.00032897997
-4.9473753e-05
6.4481064e-05
0.00028183892
3.5688923e-05
-1.8240314e-05
0.0002075319
0.00010850419
-3.15992e-05
0.00017032951
7.3224252e-05
-1.9233767e-05
6.6823778e-05
4.7582879e-05
7.4472857e-05
4.5251084e-05
0.00012007326
6.3825926e-05
0.00019107007
-0.00022810892
1.5485612e-06
0.00027072415
-0.00033391716
-5.3222786e-05
0.00018067309
4.1673478e-05
-6.6919997e-05
-0.00012917302
0.00026066427
-5.8706407e-05
-0.00029614675
0.00013531926
-3.5048836e-05
-2.3530044e-05
0.00019893676
-0.00012274129
0.00021578901
0.00035728822
-1.3251744e-05
0.00033573304
0.00012582053
0.0001593526
6.8554505e-05
0.00019910142
7.8563239e-05
-0.00019854405
0.00014622614
0.00016099767
-8.159971e-05
-0.00010959999
0.00013266033
0.00035813129
-0.00026321696
7.6736434e-05
0.00045720881
-0.00010595983
-2.0185095e-05
0.0002983179
0.0001203816
-0.00010371395
0.0003268653
-0.00010976893
0.00020680092
0.00013538114
0.00035946192
5.8436918e-05
0.00049700157
4.3972985e-05
0.00060855127
7.4200742e-05
0.00057422935
5.0342217e-05
0.00038556306
4.847323e-05
5.4449404e-06
7.2277382e-05
-1.5899569e-05
9.7908657e-06
0.00010802353
-5.8636011e-05
1.6591873e-05
-9.9057149e-05
4.3925555e-05
3.4817289e-06
0.0001786022
-6.4595866e-05
0.00026354285
-0.00010366438
0.00028639348
-0.00011432165
0.00036253605
-8.5167274e-05
0.00014443163
-0.0001345864
-0.00022263722
-9.1525862e-05
-0.00032057446
-3.4847101e-05
-0.00022545471
-3.8058982e-05
-0.00020252796
-8.9095589e-05
-5.3613298e-05
-9.1004692e-05
0.00021624054
-3.6745517e-05
0.00028932067
-7.5650447e-06
0.00040396828
3.7504748e-05
0.00043724383
6.7690927e-05
0.00022480673
2.787513e-05
-9.644566e-05
-5.1165349e-05
-0.00024368921
-0.00013945646
-0.00018151688
-0.00012658519
3.816915e-05
-0.00010130532
0.00012153673
2.1943187e-05
1.9683133e-05
-9.7782717e-05
-8.0863797e-05
0.00025445671
-0.00023456052
-2.2556826e-05
0.00022358589
0.00014010798
-3.8760465e-05
0.00020129234
0.00015252768
-7.5537378e-05
0.00016789501
0.00013513153
-4.4815012e-05
0.00010855787
0.00013088807
-1.895939e-05
6.5961456e-06
0.00012724543
-4.883806e-06
-0.00014880987
0.00011999051
-1.5449953e-05
-0.0002488051
0.00014163509
1.4455262e-05
-0.0003315888
0.00016428862
-2.020136e-05
-0.00040932329
0.00015372079
-4.1881625e-06
-0.00034187582
-2.4760969e-05
8.1815568e-05
-0.00011176398
-0.00031574595
0.00014178579
6.4163169e-05
-0.00040892217
7.7221517e-05
0.00012700046
-0.00021946931
7.5991207e-05
2.8773305e-05
9.0596193e-05
7.0639781e-05
-5.1255039e-05
0.00013632204
7.2731201e-05
-7.2622879e-05
0.00013159589
-7.2151507e-06
-0.0001007677
0.00013464701
-9.3594915e-05
-0.00016948885
0.0001397851
-0.00018323034
-0.00029223365
0.00015909196
-0.00016611101
-0.00034165899
7.7309906e-05
-0.00013484452
-0.00011713956
-0.0002354856
-6.5987643e-05
0.00018383625
-0.00030468954
-9.7332289e-06
0.00017970284
0.00010525575
-0.00017262221
9.8816541e-05
0.00015842088
-0.00012414579
8.9873999e-05
0.00014452002
-9.2146789e-05
6.812424e-05
0.00011364405
4.8275091e-05
0.0001417506
1.3769359e-05
-0.00025360024
0.00038697593
-0.00021739729
-0.00012421465
-0.0002929859
-0.0002258288
0.00020960152
-0.00059076606
-0.00010922077
0.00033175322
6.5601864e-05
-1.6457471e-05
0.00027548697
0.00036261362
6.3705185e-08
0.00021223545
0.00035510579
3.1291215e-05
0.00025261886
0.00020538806
2.7362161e-05
0.00021254707
0.00017812747
2.463305e-06
7.6807143e-05
0.00020963433
-4.126453e-05
-0.00013356847
0.00043915564
5.3091954e-05
-0.00031701893
0.0005008645
6.6546175e-05
-0.00039550752
0.00033699773
9.6555408e-05
-0.00027558059
-0.00011896492
0.00019917643
-5.5215399e-05
-0.00062638348
0.00016425549
-1.0931273e-05
-0.00078280645
7.6168139e-05
0.00019116192
-0.00057472559
1.7023674e-05
0.00036915927
1.9563823e-05
-1.2285503e-05
0.00034732516
0.00032557578
1.3617632e-05
0.00018497666
0.00042078905
2.8806881e-05
0.0001757197
0.00025937366
-6.7690261e-05
-0.00018935452
0.00063995553
-0.00012722223
-0.00056626863
0.00060373473
-8.5164265e-05
-0.00049791569
7.0627069e-05
-8.9794609e-05
-0.00018386087
-0.00055619762
-3.7005549e-06
0.00021405336
-0.00063286854
-3.7423198e-06
0.00038396022
5.0044591e-05
-0.00017738041
0.00026264272
0.00043367768
-0.00021641451
0.00013435615
0.0005386235
-0.00021147424
0.00013890617
0.0002554564
1.5685992e-05
0.00045282575
0.00010230914
0.00019366835
0.00023032163
-0.00014559587
7.348797e-05
-0.00010844804
-0.0001442239
-0.00030859629
-0.00010976249
-0.00025063294
-0.00026589499
-2.9945796e-05
-0.00020796463
-0.00010219333
0.00010737278
-9.7967462e-05
0.00013120563
-4.5965894e-05
4.2929158e-05
0.00020440084
6.531675e-06
0.0001597286
0.00017170099
4.8370011e-05
0.00025360736
0.00011385796
0.0001167455
0.00022486482
7.8632844e-05
0.00033419664
0.00010839922
6.6967946e-05
0.00041710693
0.00011185372
0.00024581378
0.00022308927
-3.6057851e-05
0.00031833831
-7.9491677e-05
-0.00010550238
5.9235638e-06
-9.3719394e-05
-0.00015564794
-0.00032667996
-0.00012265544
-0.00027620723
-0.00037055499
-0.00034687758
-0.00015849992
-1.8652173e-05
-0.00032346589
-6.0734519e-05
0.00019101509
0.00013923834
-0.00010089215
0.00010672387
0.00032863884
8.1653036e-05
5.3516564e-05
0.00011071043
0.00018204768
5.2983208e-05
0.00057644102
-3.9686658e-05
0.00011018299
0.00054674821
6.7218028e-06
0.00026219358
-3.0887597e-05
3.7340186e-05
-8.3459299e-05
-0.00012593211
3.2408175e-05
-0.00046031205
-0.00012066351
1.7839098e-05
-0.00024914134
-0.00013200718
7.6874887e-05
-3.970905e-05
0.00018829653
7.296402e-05
-6.4663104e-05
0.00041195165
0.00015605792
-7.1227682e-05
0.00015947737
8.6553573e-05
0.00033005275
0.00013719968
0.00021471525
3.0195503e-05
-4.9873287e-05
1.8921454e-05
0.00016395967
-0.00014882858
-0.00021304603
0.00014812646
-0.0001957388
-0.00019892057
-1.4310367e-05
-0.00025323519
9.2355832e-05
-0.0002281211
-0.00020351215
0.00038084466
-0.00040764279
-3.5780613e-05
0.00038450014
-1.6340246e-05
1.3460987e-05
0.00010642219
0.00036653312
0.00012995413
3.231414e-05
9.1469664e-05
0.00023364158
7.3094151e-05
0.00012331258
0.00023458513
0.00017507483
0.00018070498
0.00011618097
0.00030888842
9.3601666e-05
-3.5925162e-05
0.00022507304
0.00010155192
-0.00011646196
9.372949e-05
0.00011883094
-6.7339039e-06
8.0278064e-05
5.832552e-05
-0.00010370358
1.7626345e-05
-0.00027872059
-3.9566912e-06
1.6304994e-05
-0.0002989678
-7.639952e-05
0.00015989514
7.9289712e-06
-7.9200776e-05
0.00017651495
0.0001943974
5.891521e-05
-3.7310791e-05
0.00026303994
2.6447377e-05
5.5868302e-05
0.00030676061
5.3760013e-05
0.00027892637
0.00029875848
1.1679895e-05
0.00011122734
0.00011340601
0.000182758
-0.00010391808
7.9342383e-05
8.8434142e-05
-0.0002819924
7.9258632e-05
0.00013914984
-0.00026214611
-0.00012803002
0.00010883687
-3.4281033e-05
-0.00011420498
0.00015137286
1.7098146e-05
0.00022981169
0.00011057569
-0.00020170909
0.00028613194
-1.1561282e-05
-1.4702276e-05
3.3277007e-05
7.7492305e-05
8.8084333e-05
0.00028109995
1.8788932e-05
0.0004422411
3.0958302e-05
0.00047303573
2.9095743e-05
0.00031193551
-1.6678655e-05
-8.7997247e-05
4.0763217e-05
-0.00018731022
0.00015525013
3.391421e-05
0.00015509958
3.2294066e-05
3.4453812e-05
2.5482791e-05
3.1066723e-05
0.00011363497
9.603454e-05
0.00017605379
-3.3413008e-05
0.00025127861
-7.7337259e-05
0.00032543875
-6.9650828e-05
0.00035717874
-5.8581727e-05
9.4434751e-05
-0.000150563
-0.0002184753
-7.75836e-05
-0.00030919879
6.3805345e-05
-0.00024984174
9.6981364e-05
-0.00014155083
6.5653429e-05
4.3549705e-05
3.0655373e-05
0.00027348197
3.2080677e-05
0.00031230482
6.7018098e-05
0.00031064353
0.00011850841
0.0002810933
0.00017649977
3.4083632e-05
0.00014685478
-0.00018657958
5.5292874e-05
-0.00011350225
1.7277897e-05
5.7209844e-05
-1.1165343e-05
8.0676718e-05
-6.9490115e-05
0.00010748506
-1.2100856e-05
8.3024163e-05
-0.00017254301
-5.8903954e-05
0.00010562148
7.1245858e-05
-0.00010983671
2.194021e-05
0.00016035515
-0.00011070143
-2.4947074e-05
0.0001331193
-0.00015701107
-0.0001042245
0.00013968617
-9.9551776e-05
-0.00018313624
0.00016227057
-9.4184473e-05
9.8285399e-06
-0.00025729439
6.2947715e-05
0.00021423387
-0.00032312849
0.00010495589
0.00021611756
3.9592674e-06
1.2968093e-05
0.0001282889
0.00013900577
-6.658449e-05
2.1553791e-05
0.00013988825
-3.4622372e-05
-8.3631973e-05
0.00014001635
5.1070284e-05
-4.1147452e-05
0.00010312306
-6.6918374e-05
0.00010838086
-0.0001350186
0.00014839303
-0.00022250699
0.00016248261
-0.00024100629
0.00015602373
-6.0622368e-05
-0.00010133312
-0.00013069311
-1.6363686e-05
-7.5199742e-06
-0.00012188504
-6.7468117e-05
-6.8126849e-05
1.5839269e-05
-0.00014241231
-0.00022641132
0.00014167926
-0.00015290073
-0.00022629
-1.8712749e-05
-0.00011979985
-2.8279107e-05
-0.00019005185
-7.8982847e-05
7.1298828e-05
1.8874472e-05
-0.00012619365
0.00018308857
-0.00010040782
-0.00018595956
0.0001863803
5.5905326e-05
-0.00018159809
0.00010869497
0.00015557491
-0.00016782285
4.703923e-05
0.0001888425
-7.862191e-05
0.00017115335
-0.00011059431
-0.00014004845
0.00015268314
-0.00012254692
0.00010070718
-0.00048839637
-0.00015073108
0.00020538647
-2.5730801e-05
-0.00011692341
0.00011755943
0.00039007592
-0.00015835121
-0.00019002932
0.00062201102
-0.00018123926
-0.0003094839
0.00038424339
-9.3811419e-05
-0.00010743419
2.3615774e-05
-3.6032746e-05
0.00015642046
-0.0006035619
8.487617e-05
0.0002506903
-0.00071782564
0.00025916278
0.00030627443
-8.9467565e-05
9.0934663e-05
0.00017732666
0.00037922773
-4.472801e-05
-0.00012369046
0.00057983484
-4.2374064e-05
-0.00032032522
0.00043438468
0.00010144288
-0.00018183373
0.00012888707
-4.8939162e-05
5.1654435e-05
-4.8215084e-05
0.00016469263
-0.00023168697
0.000333669
-4.0284368e-05
-6.3567529e-07
-2.1125567e-05
0.00026172795
-0.00043167647
2.7777928e-05
0.00046701358
-0.00040626186
1.1400927e-05
2.3075281e-05
0.00042999276
-9.7437424e-05
-0.00059372424
0.00073139254
-5.8078039e-05
-0.00051207855
-0.00013161903
-5.8534022e-05
-0.00017090334
-0.0005285629
-6.3647161e-06
-1.3463536e-05
-6.7549387e-05
-7.4758276e-05
0.00016072472
-0.00033002211
-0.00012195438
0.00024669783
-8.6543172e-05
-0.00015993912
0.00027961256
3.6611162e-05
-0.00012542522
0.0001811754
0.00035325677
-5.029112e-05
0.00047508485
-2.0446962e-05
0.00013001183
-1.7243609e-05
-0.00010568096
-0.00019109644
-0.00013528375
-0.00017622826
-0.0002435932
-9.7659693e-05
-0.0001262073
-0.00015148383
0.00024095044
-0.00015094852
-8.7007076e-05
0.00056331337
-0.00010374656
0.00018506259
6.5337914e-05
8.9764983e-05
0.00046798862
-0.00023265233
0.00013307068
0.00017912864
-0.00012754599
6.6451448e-05
-0.00027026103
-9.9641612e-05
5.6070471e-05
-0.00018494293
-5.6934574e-05
-9.4518646e-06
-3.2741728e-05
0.00027719574
6.1684503e-05
-3.0966755e-05
0.00054884676
-6.8447352e-06
-4.4637244e-05
0.00035634281
-1.3790009e-05
-8.49924e-05
1.3594309e-05
-0.00012237929
-0.00018716588
-0.00017589039
5.9703828e-05
-3.0095139e-05
0.00012713924
0.00038156807
-0.00045389316
-5.9297877e-05
0.00018406389
-0.00018685409
3.4334837e-05
-1.6248473e-05
-0.00011424088
9.0339062e-05
-2.3073789e-05
0.00037854148
1.8589929e-05
3.8475541e-05
0.00067206377
4.5012272e-06
1.644526e-05
-0.00012217811
4.9929528e-05
-0.00034018813
-0.00014436155
4.8402048e-06
-0.00019101342
-0.00024089483
4.2009813e-05
-0.00011622091
-0.00041891572
9.0975986e-05
-8.7793562e-05
-0.0002198893
0.00017788279
-0.00014735214
-4.0752435e-05
0.00029298009
-0.00010610884
0.00023238481
0.00016618224
0.00040555622
0.00010061948
0.00012210063
-8.4813874e-05
-0.00010440366
-0.00020454395
0.00020300721
-0.00016047496
-0.00043845068
6.5312372e-05
-0.00012480415
-0.00031617608
-7.5734815e-05
-5.8824534e-05
8.1905291e-05
1.6314306e-06
-3.9911568e-05
0.00031315208
-0.00029306468
9.1375214e-05
0.00027312462
-0.00024912577
6.9961917e-05
0.00017407942
6.2730723e-05
3.8722638e-05
-4.1201371e-05
0.00017567689
0.00017360388
-0.00025139513
0.00015271265
0.00023513167
-9.9446898e-05
4.5036581e-05
0.0001963919
9.7553749e-05
0.00025564482
6.0276141e-05
0.00019402703
0.00020215923
-5.8751623e-05
0.00012375718
7.7130277e-05
-7.1493091e-06
-0.00015996295
-0.00023348988
0.00028208772
-0.00012609743
-5.6652718e-05
-6.0224591e-05
-0.00051161282
-8.7353955e-05
-0.00013016268
-0.00011882386
6.0823071e-05
-0.00026759022
8.1435121e-05
-3.1801088e-05
-0.00013125803
0.00018066086
0.00011530842
0.00020741354
0.00034369918
1.3729025e-06
-5.196768e-06
0.00017770809
9.5482083e-05
-0.00020428476
0.00010273942
4.042115e-05
-0.00015270017
-0.00019121976
3.7890164e-05
-8.0257613e-05
-0.00041975634
3.7234926e-05
-0.00011283485
-0.00010820865
7.2269442e-05
-0.00029796513
0.00018657033
6.8383201e-05
-0.00024153994
7.8650886e-05
8.5747445e-05
0.00013656395
6.0729334e-05
1.3614915e-05
-1.034446e-05
0.00020321116
3.2199897e-05
0.0002465531
5.2928726e-05
0.00020557662
-5.6625837e-06
0.0001946597
-4.1302997e-06
-0.0001183806
6.0738858e-05
-0.00036537019
0.00015311397
-0.00027297993
0.00012544006
-0.00015549492
9.2645706e-05
-9.1964964e-05
0.00012024942
-5.7438786e-05
0.00010654495
0.0001328533
3.1939749e-05
0.00025706608
6.0921349e-07
0.00026454554
4.6000872e-05
0.00017752561
4.3289285e-05
-0.00038350934
-2.1008832e-05
-0.00043973813
3.438628e-05
-0.00031664832
2.3998734e-05
-0.00014044223
3.5110137e-05
0.00017903852
5.6299084e-05
0.00033935819
8.4406508e-05
0.00038873592
0.00017187008
0.00020318235
0.00017083357
-0.00018558419
0.00011586497
-0.00033565549
9.7155525e-05
-0.00020346621
7.1658939e-05
-0.00017563513
3.965446e-05
4.1605534e-05
-0.00011962832
0.0001044822
5.9827731e-06
-1.093857e-05
-0.00018484268
1.9042356e-05
6.6000297e-05
-0.00012481561
-5.9118592e-05
-5.6263664e-05
0.00011947403
-0.00010430764
-0.00019688306
0.00013662982
-0.00014967204
-0.00026113966
7.4621117e-05
-0.00010491954
-0.0001221131
-0.00024065537
8.3039344e-06
6.045914e-05
-0.00025630915
0.0001358627
3.3905857e-05
-3.3284405e-05
0.00016420811
-4.429085e-05
1.1973862e-05
8.0100865e-05
0.00013933817
-0.00026825322
1.7913751e-05
7.5419176e-05
0.00010001128
-6.6685206e-05
0.000142704
-1.3880819e-05
-0.0001718343
0.00012688064
-1.6876787e-05
-0.0001052986
-0.00016032218
7.4810446e-05
6.8816526e-05
-0.00027729776
3.1492361e-05
3.0201023e-05
-0.0001175744
7.7162857e-06
-0.0002340328
0.00012687304
-2.0937467e-05
-0.00031940657
-2.2028866e-05
-1.7057483e-05
-0.0002274256
-0.00016018275
-1.5844425e-05
-6.8492237e-05
-0.00026497773
-2.5196597e-05
7.1860226e-05
-0.00032712129
-4.4179298e-06
0.00013002225
-0.00022018839
-2.1918654e-05
0.00030882018
-0.0003113005
-4.0439294e-05
0.00021129127
6.6929663e-05
-4.7208677e-05
0.00015342097
-5.4579971e-05
-0.00017209803
0.00012099254
3.3040769e-05
-2.5320668e-05
-0.0005006884
1.8337284e-05
0.00015541679
-0.00037868862
-4.3787863e-05
4.0797502e-05
0.000230856
-0.0001551139
-0.00030277675
0.00057327372
-0.00027430892
-0.00024507787
8.7728354e-06
-8.5662004e-05
-4.4958264e-05
-0.00055632036
7.9512649e-05
0.0001655147
-0.00058689618
0.00020499025
9.3199941e-05
-3.8926757e-05
0.00033711991
-0.00014918975
0.00019695391
0.0001483443
0.00014996548
-0.00060008573
-1.2050725e-05
0.00024226344
9.6355431e-05
-0.00013101617
0.00053489958
-4.848925e-05
-9.3260064e-05
7.3794729e-05
0.00012522041
5.3313103e-05
-0.00046404985
0.00018493244
0.00032193708
-0.00060313121
6.8610398e-05
0.00019519687
-0.00021974097
0.00013146936
-0.00052210472
0.00074078112
4.531546e-05
-0.00054309646
-0.00011224611
5.2674961e-05
-0.00034328731
-0.00038259397
1.6237337e-05
-0.00015264667
-0.00052206935
-8.3073005e-06
2.2017065e-05
-0.0006413205
1.7581087e-05
0.00011472942
-0.00049333612
2.0496254e-05
0.0003609323
-0.00068474325
1.814647e-06
0.00039864231
-2.281764e-05
1.7461756e-06
0.00051961848
1.1997843e-05
9.580607e-05
1.4301696e-05
-9.4796184e-05
-0.00013895929
-0.00023499788
-0.00020715342
-0.00025042752
-0.00035224576
-4.1181923e-05
-0.00015631852
-9.2805823e-05
7.8604307e-05
-3.4132085e-05
0.0003378286
9.5121343e-06
0.000208497
-0.00034556464
0.00020147339
3.7613049e-05
-0.00034594286
9.3577152e-05
-0.00032807566
-0.0001077459
-4.7010106e-05
-0.00027410002
-7.4058059e-05
3.7226138e-05
-0.00010373225
2.3119318e-05
-5.9850423e-06
-0.00034005655
-0.00021013987
-9.1937052e-05
-9.8195447e-05
-0.00014774271
-4.6076784e-06
0.00047697859
-5.406446e-05
0.00036196239
-0.00044070089
9.3235363e-05
0.00028003136
-0.00034387954
-3.9044429e-06
-3.1241812e-06
-0.00016260155
-6.703505e-05
-0.00010274505
-4.2778435e-05
-5.8751744e-05
-2.8430231e-05
0.0006446609
2.6306615e-05
-5.3824145e-05
-0.00011644344
7.9520756e-05
-0.00012220764
-0.00034986239
4.049211e-05
-8.4260036e-05
-0.00052632924
8.3220761e-06
-5.2575535e-05
-0.00057596549
-6.0635365e-06
-7.2438139e-05
-0.00033360007
3.800934e-05
-0.00036816719
-0.00011676396
2.0729847e-05
-0.00019772644
-6.8521905e-05
4.1445744e-05
0.00040837131
1.4140216e-05
-2.6029664e-05
0.00018381226
-0.00024788456
-0.0001184351
-0.00013565736
-0.00016741004
-0.00020293038
-0.00035600834
-3.6546288e-05
-0.00022049394
-0.00027793391
0.00014386711
1.8455362e-05
-0.00012926369
0.00018823144
4.7107288e-05
-0.00036940326
8.6561932e-05
8.8654719e-05
-0.00030353307
-1.3995272e-05
-8.6692633e-06
0.00011921217
-9.0911419e-05
-0.00023236559
0.0003281416
-4.8994469e-06
-0.00031941394
0.0003187936
2.6505734e-05
-0.0002577872
-0.00021225408
0.00013687937
-0.00019239947
-0.00026262929
0.00010977501
0.00022809452
-2.2670021e-06
-1.314489e-05
-0.00048083414
-3.4075802e-05
8.3586427e-05
-0.00030314794
-7.663984e-05
-2.7420333e-05
5.7706222e-05
-0.0001411021
-0.00017355887
0.00029481513
-7.6146615e-05
0.00018617525
0.00027819762
8.1020539e-06
3.0660346e-06
0.00018968442
-2.7536576e-05
-8.3329311e-05
-0.0002324793
9.4333869e-06
-5.4915597e-05
-0.0004989793
-1.7873502e-05
-7.4230802e-05
-0.0005324572
1.3041832e-05
-7.1378862e-05
-0.00029012981
2.5947229e-05
-0.00022711325
7.1158527e-05
3.6195095e-05
-0.00029737942
6.4971281e-05
2.2520429e-05
0.00013769589
3.4025327e-05
0.00025281032
-7.9342532e-05
0.00020788828
-5.8535431e-05
-2.5063694e-05
-7.0127646e-05
-0.00019321436
-0.00011544582
-0.00023178788
-9.4820451e-05
-0.00042146591
-0.00011898634
-0.00056405657
-7.828426e-06
-0.00043662261
0.00011721829
-0.00017512185
0.00015928655
0.00012575565
0.00013816552
6.1320723e-05
-4.1274188e-05
-0.00013291416
-3.6454641e-05
9.5789571e-05
-0.00039041117
-0.00011143179
-0.00053431696
-0.00012485587
-0.00038378954
-6.882247e-05
-2.7516889e-05
-2.6347395e-05
0.00029541155
1.1568252e-05
0.00054350265
2.5999807e-05
0.00045131894
3.157448e-05
0.00010054051
2.2632693e-05
-0.00030498944
-1.1062286e-05
-0.00045963935
-3.8324377e-05
-0.00029953162
-1.7290269e-05
-0.0001803201
-1.4585791e-05
-1.0186773e-06
-0.00016199036
0.00014811431
2.4055206e-05
-0.00018893157
3.6739546e-05
1.513592e-05
-3.7338305e-06
-0.00028269386
3.9298177e-05
-9.6004e-05
8.9125298e-05
-9.3713693e-05
-0.00017895321
4.7616752e-05
-0.00011071965
-0.00011812243
-0.00010622509
-5.4960854e-05
0.00010031475
-0.00027854297
6.8932159e-05
0.00017290348
2.1090218e-05
4.6173404e-05
0.00016105924
0.00013436577
4.5090085e-05
7.7958141e-05
0.00015617829
1.1358608e-05
6.8639108e-05
0.00012002557
-8.9156622e-05