/*--------------------------------*- C++ -*----------------------------------*\
| =========                 |                                                 |
| \\      /  F ield         | OpenFOAM: The Open Source CFD Toolbox           |
|  \\    /   O peration     | Version:  v2012                                 |
|   \\  /    A nd           | Website:  www.openfoam.com                      |
|    \\/     M anipulation  |                                                 |
\*---------------------------------------------------------------------------*/
FoamFile
{
    version     2.0;
    format      ascii;
    class       volScalarField;
    location    "700/bottomWater";
    object      T;
}
// * * * * * * * * * * * * * * * * * * * * * * * * * * * * * * * * * * * * * //

dimensions      [0 0 0 1 0 0 0];


internalField   nonuniform List<scalar> 
1460
(
970.44295
968.33642
966.92212
966.38242
966.64391
967.29156
970.37625
970.92197
959.97043
957.96607
952.61267
951.27897
937.90592
932.64891
927.49504
923.59194
919.38158
918.01188
917.00736
917.13133
918.3742
921.29604
925.88223
923.39326
925.69359
927.79064
925.3673
921.70939
922.49933
925.83755
967.45556
966.42601
966.17763
966.18417
965.72745
965.45611
966.26234
965.48711
956.22794
958.57698
946.95223
945.11406
933.91275
929.41569
923.2433
920.8426
918.9972
916.89395
916.60466
917.55561
917.92193
918.89459
923.10571
922.18594
923.23862
924.19913
922.18357
921.19582
921.80828
923.20157
967.68526
966.65638
966.75304
966.40963
965.7154
965.46325
965.28673
964.75677
960.74479
959.24388
945.81434
939.34115
932.68595
930.04521
923.97327
925.22362
920.01068
916.79393
916.56301
918.11596
919.11027
919.61242
922.37824
922.26969
922.75967
924.14098
920.63992
921.07923
921.77854
922.75858
967.9145
967.24735
967.21733
966.82795
966.31
965.75143
965.63426
963.86654
960.17794
957.76044
956.14258
937.73641
937.16217
936.96386
930.86848
928.87315
918.34941
915.19136
916.38345
918.40185
919.88492
920.45473
921.79585
921.66542
920.51719
921.74522
919.77051
921.03333
921.75729
922.26507
967.92767
967.56565
967.35431
967.09024
966.75985
966.43552
966.21129
964.67377
958.28402
953.04619
953.23055
945.42572
942.62565
938.81643
935.12639
930.23145
917.38069
915.03791
916.43502
917.50562
918.52867
920.10887
919.98139
919.83707
919.33164
918.87159
918.56401
921.54937
922.11963
921.90336
970.6435
968.38566
966.12421
966.55155
968.54432
970.30252
972.55444
973.54634
966.47334
952.18083
943.33495
937.48261
933.14075
930.19861
926.14944
923.95513
923.29007
920.18681
918.61415
919.28039
921.43628
925.49482
926.56832
925.19288
923.57479
928.49886
928.73219
926.42228
923.57981
927.07655
967.17642
965.72679
966.0065
965.4481
965.91336
966.9907
968.34738
968.90284
964.22813
952.34982
941.11594
935.69568
934.7067
929.18814
922.40617
921.06077
919.96442
917.82384
917.31734
917.51937
918.42959
922.52781
924.52136
923.50138
923.3579
925.30612
925.2758
923.17241
923.54358
924.52729
967.26306
966.92633
966.30273
965.43161
965.74225
965.65929
965.46551
967.78483
964.24395
958.15523
949.15057
941.96991
936.88291
928.51147
924.76591
923.38186
918.62525
917.59908
917.31855
917.82278
918.72935
922.28849
924.03537
923.83944
923.50709
924.74132
925.05095
923.93022
924.00232
924.03409
967.43504
967.27503
966.09829
965.09673
965.35382
965.13825
965.56023
965.8091
963.79571
960.72517
955.56633
946.81153
940.33928
936.9373
932.50301
926.25369
918.46761
916.42035
917.52668
919.38382
919.27021
922.66395
923.48609
923.22819
921.6103
921.53131
922.9922
923.28858
923.82117
924.38004
967.5126
967.33629
967.00756
966.69186
966.61028
966.45501
966.01276
963.13359
959.30617
955.02205
949.82336
941.6976
937.31687
933.18048
930.47856
926.31977
916.51871
915.28014
916.74636
917.89554
919.00553
922.01392
921.73483
921.68269
921.05034
920.22076
920.69213
923.70293
923.71558
923.62929
972.28415
968.65056
965.65891
969.00357
971.01308
972.81295
974.61358
976.0349
959.94743
944.58438
937.17882
931.69245
928.27523
924.81084
918.17545
916.6638
920.37688
921.61464
920.29279
919.90978
920.65167
923.67658
923.74668
922.915
922.89919
926.2935
928.91539
930.4675
927.90748
929.80276
966.83215
964.57431
963.99809
965.93605
967.10535
968.31333
969.73126
970.78218
966.32259
950.37578
935.55474
930.8846
929.34749
926.08192
917.33276
915.05129
916.64021
917.63
917.98304
918.42501
919.95167
923.6947
923.83977
923.99343
924.2579
924.76258
926.12712
927.63936
926.26036
926.4943
966.63538
965.64999
964.18429
965.09595
966.4185
967.36177
967.11791
967.18142
965.59177
954.75179
938.80229
932.65446
930.20424
926.40968
917.10217
915.21502
912.67567
915.95406
917.28913
917.94833
919.55553
923.3792
923.86552
923.90224
924.37213
925.14695
926.30436
927.4786
926.34204
926.2122
966.51444
965.40027
963.54993
963.9208
964.70342
962.4858
961.47823
962.55104
963.16916
957.33678
941.5898
935.48619
932.16983
929.99882
925.43339
920.42756
912.58015
914.79454
916.44411
917.2474
919.58871
923.21896
923.52782
923.46998
922.36401
922.68615
924.25374
927.24678
926.28331
926.04703
966.67756
965.91865
965.33624
965.54433
965.50705
963.17231
959.89702
960.82818
954.3993
954.7556
942.7485
937.47718
933.91877
929.91873
926.78973
919.96423
912.96431
914.61365
916.03372
917.20218
919.07963
922.10782
921.73261
921.30133
921.02238
920.4721
922.88675
925.57958
925.53609
923.19845
971.6252
966.72478
966.6778
970.11767
968.56488
966.64088
963.67839
962.00904
958.92414
960.11966
957.51883
957.41848
938.34562
923.23093
919.73644
917.83423
918.10933
917.18209
916.26245
916.74581
915.96597
921.28171
922.43623
922.23555
924.01635
925.60145
928.92287
931.03935
932.59383
934.61483
966.21627
963.42529
962.14112
964.56764
963.57466
963.00136
962.52025
961.27823
958.46557
955.17483
951.98959
943.9476
925.98568
918.59674
914.0742
912.45371
913.72208
914.58322
914.343
916.20504
916.44831
922.0831
922.66557
922.73002
922.61369
923.90314
926.08404
928.37098
929.97134
931.00504
965.67442
963.50281
962.36004
963.31764
963.14266
963.40508
961.328
961.97294
958.41005
950.82233
948.49022
943.46809
924.88405
914.79413
913.43646
909.11648
911.34526
911.9579
914.26765
917.10744
917.32773
922.12527
923.0354
922.72303
922.64304
923.41347
926.11924
928.31669
929.38994
929.96114
964.8892
963.01089
962.26339
962.75383
962.9162
960.27175
957.55259
958.151
959.77224
951.88323
946.10732
944.27322
928.25448
921.47454
919.69778
908.09863
909.13161
913.46232
917.95123
919.29558
919.08849
922.10427
922.8266
922.32622
921.64236
922.21623
925.52448
928.53471
929.42029
929.59769
964.67535
963.43597
963.40024
963.55366
963.42901
959.7587
955.78582
955.60588
953.98974
949.61358
944.38349
945.35366
934.60123
928.23416
923.37859
907.52492
904.37703
914.15112
917.13998
918.26159
919.15492
921.05256
921.10164
920.81502
920.44118
921.55934
925.62527
926.97672
927.0548
926.89632
969.52198
965.01833
963.19581
967.49295
963.85333
960.50216
956.43664
958.13204
958.22019
947.97264
939.2192
944.76152
932.84876
901.28483
911.25565
913.64462
912.92374
918.05271
919.937
920.13457
921.0046
924.1302
927.22997
927.88304
929.78414
931.00308
964.98577
962.15918
960.12084
961.92177
958.82984
955.68352
953.72928
954.81504
955.97775
944.93387
937.60645
939.58242
931.41666
898.79981
910.25444
913.63841
915.94407
919.10305
920.45628
920.35924
921.39141
924.80519
927.34698
929.09555
929.37
930.05164
964.6748
962.02005
959.98486
960.03245
959.01482
955.23533
953.96174
953.28632
951.1593
945.15852
937.27348
933.79434
928.76333
904.17388
909.76874
913.13115
918.39542
919.2461
920.61754
919.39955
920.32489
924.65832
927.32245
929.36039
930.01852
930.20575
963.82193
961.34045
959.79442
957.1955
957.44904
953.37875
951.32463
950.5287
950.93315
944.98918
940.48397
934.20514
926.55248
908.38956
914.9023
915.66119
918.99806
919.34165
920.34721
919.20212
919.4416
924.46202
927.45712
929.86304
930.25692
930.30594
962.93599
962.42401
961.09638
955.60881
953.06168
951.99507
950.92848
950.22181
949.28976
945.70523
943.17792
935.20662
922.65121
910.93318
915.2265
916.58479
918.01551
918.65617
918.96025
918.92093
918.85006
924.0483
927.22314
927.97849
928.34539
928.73663
968.69601
965.0334
960.84992
966.0938
962.50168
959.38786
954.74966
960.08696
961.14325
960.22206
956.62677
943.44001
928.06081
904.48785
911.70016
909.55664
911.41551
916.13276
917.38101
917.71249
918.45825
922.02009
924.94824
926.13645
927.65468
928.34964
963.78092
960.69987
959.0946
959.31696
958.27353
954.53299
952.59692
954.47416
956.26455
951.3747
949.81788
937.5175
927.7767
901.3305
910.10808
909.64841
912.15492
918.56878
919.02612
918.33653
918.58377
924.21551
926.16906
927.92463
928.6593
928.95039
964.02611
962.18639
959.0291
958.2103
958.76764
953.87195
951.824
951.5819
953.73954
947.46473
935.83396
928.28678
924.57785
900.59533
903.29173
908.67786
915.18346
918.47847
919.4953
917.4627
917.32064
924.27272
926.07037
928.00765
929.33911
929.36403
963.28132
960.50961
957.09174
956.87344
955.70631
952.20069
950.20393
948.60915
951.71092
947.06314
938.9798
925.32457
921.6579
906.44875
909.40355
914.39172
916.92423
918.26449
918.43372
916.62549
916.3855
925
927.87888
930.23234
930.03427
929.90021
960.37062
958.09372
956.15797
955.63886
954.94117
953.19839
948.99974
944.41449
942.41879
940.10306
935.58015
926.27183
919.69538
909.41349
911.70018
913.14747
915.19674
915.41957
915.4681
915.62592
915.74612
924.56234
927.11565
927.77589
927.81294
928.4781
969.5253
966.30789
963.73768
961.61216
959.93275
956.53545
956.74305
957.63058
957.78319
957.90417
954.74373
932.6531
927.07432
919.04879
914.77922
911.82967
908.57214
908.58143
911.86261
913.08253
913.59745
916.40162
917.30208
917.40492
918.79096
921.01056
923.8578
926.20548
928.47254
931.23974
965.21561
962.59952
961.33539
961.07225
959.38466
955.69093
955.24001
955.61746
956.30241
955.95384
948.82644
931.45405
924.58245
918.98563
916.85988
915.62477
911.8194
908.77652
909.97415
911.52434
915.02514
918.45871
919.00602
918.94148
919.22261
921.86537
924.03177
925.51009
926.98023
929.12252
965.19394
963.46612
962.79873
961.36753
959.46431
955.17841
955.60978
955.49973
955.92514
955.04769
941.00735
924.25381
922.60839
918.04568
916.68534
916.69203
912.55784
906.39028
909.80943
911.60983
915.10476
918.41476
918.7366
918.78428
919.11837
920.90793
921.95715
924.99575
927.31529
929.3526
962.30468
961.13105
960.75934
959.9527
957.37002
955.05255
955.15543
953.55138
953.00166
953.56217
948.88911
922.03492
920.33297
916.34144
918.39982
918.28475
917.22228
914.70577
911.73648
912.22487
915.33391
917.6863
918.05714
918.11133
917.40831
920.7855
921.81044
928.33586
928.63616
929.5932
959.16333
958.10935
957.5865
957.28225
956.1265
954.55365
953.38861
948.75219
942.20017
939.02395
939.2015
922.90695
921.46643
917.41312
919.98379
919.37999
916.56477
913.8382
912.12492
912.78957
915.08415
916.24545
916.58502
916.78777
916.71577
921.25925
926.1519
927.42209
927.70681
928.64483
971.89397
968.18856
967.77421
963.1227
959.59368
957.21099
950.64533
947.83975
947.41885
946.3349
944.29855
932.53829
937.28659
933.81619
930.91851
926.40323
919.35249
919.79077
920.08217
917.86463
915.31364
915.30845
916.88633
917.34902
918.9431
919.89012
922.03711
924.42835
926.24618
928.49656
969.77175
963.35488
963.41765
961.26812
958.19476
956.03666
955.52162
949.60788
948.06331
947.20356
945.00934
930.60188
934.05294
933.04593
930.45341
927.81093
920.60379
917.82863
918.12604
918.75529
918.05404
918.33341
919.16902
919.5585
919.78861
920.79988
922.468
924.08149
925.66384
927.36917
964.30086
963.14409
962.96116
961.96455
958.28959
953.87019
954.76616
949.44983
951.23739
952.89263
945.65045
930.48062
929.51754
933.43718
929.26069
927.99833
920.59363
917.02679
917.86674
917.66797
917.90383
918.41215
919.1881
919.57898
919.93653
920.51863
922.15648
923.69694
925.89205
927.63652
960.95645
960.78978
962.15857
961.09528
959.70472
954.02411
953.64609
949.18932
952.54766
950.49779
950.5088
939.45087
926.44463
929.05596
927.41881
926.16834
923.91238
920.98737
918.22149
918.11668
917.9473
918.49998
919.03672
919.18702
919.11944
919.70763
922.34038
923.78311
926.39024
927.92256
960.76652
959.74233
958.77994
957.05232
955.89229
953.47291
953.12722
948.69625
948.7399
945.49298
940.53076
932.51901
925.80832
925.71843
926.67924
925.6465
922.81747
918.45541
917.04906
917.55248
917.50797
917.68454
917.84776
918.03404
917.62048
918.74439
923.48969
924.57208
926.26234
927.38162
971.57645
965.45612
968.20773
962.39881
956.60654
953.62561
951.13914
949.43461
948.8219
947.46418
944.29963
941.55293
939.86436
939.08271
935.64862
931.94661
927.77331
922.33874
920.19182
917.95078
916.84322
914.09384
916.12244
917.59112
919.50908
921.00896
924.21343
925.4124
927.22397
928.54088
969.48326
964.28553
963.70716
962.77627
954.05915
952.4511
951.23867
950.72493
950.37445
949.3052
946.17058
942.3715
938.18665
936.93256
935.71648
934.6671
931.41428
926.85843
921.49061
920.27657
919.54757
918.22061
919.46545
920.36481
920.92171
922.00137
924.19052
924.90649
926.12951
927.19394
965.45063
964.12493
961.34346
960.83784
954.24288
952.31064
951.71909
951.60993
950.63868
949.77786
946.63711
944.28921
935.62694
935.06542
935.18958
933.80761
930.37933
926.86623
922.95251
920.46567
918.70529
918.47292
919.68406
920.24706
920.46687
920.85123
923.36624
924.30651
926.72741
927.34591
962.90942
960.98383
961.08654
960.27017
955.36913
953.66405
953.59352
951.9031
952.26105
950.67581
948.84375
942.73927
933.59658
931.63034
931.12548
931.9064
928.66126
926.18379
920.74495
919.79823
918.63341
918.54855
919.74919
919.8408
919.10776
919.01974
924.11036
925.93616
927.35725
927.5696
962.88715
961.73621
961.42683
962.23433
955.30212
952.20755
952.4971
950.86734
950.21061
949.35256
945.64954
939.10521
932.85686
932.26704
931.4201
929.39037
926.11493
923.20712
917.03341
917.21767
917.75903
917.83385
918.44871
918.64709
918.22986
919.21607
924.72465
925.64022
926.55998
926.91742
978.43502
971.74179
968.27959
962.849
959.59224
956.14843
959.62918
948.56666
947.43509
945.97927
943.9788
942.01558
939.37455
933.8491
928.36877
925.2142
922.19991
921.14465
921.18378
917.06843
916.40587
914.40641
917.41988
918.95922
920.04603
920.88018
923.11162
926.13685
926.66885
927.67425
971.85965
971.36658
969.33195
960.31611
957.85749
954.97027
955.50255
951.75344
947.81401
947.27486
945.06287
942.66314
940.1117
937.15819
933.46376
927.95707
923.78254
924.48156
922.56832
918.66976
918.87174
918.3484
919.88313
920.16145
920.09328
920.757
924.25255
926.38221
927.44436
927.68973
967.77981
967.46561
968.97836
960.65634
956.22216
954.53977
951.26715
950.44798
946.72666
946.38501
945.89702
945.31227
942.49704
940.0695
937.88526
933.18802
927.26071
926.86019
922.39966
918.58646
918.8883
918.6271
920.03778
919.95889
919.35781
919.52434
924.35395
926.09613
927.60607
927.99122
965.16796
965.75207
966.47239
960.86124
953.16288
953.40317
950.0458
950.11813
950.4457
950.70047
949.69199
947.32946
944.60076
942.3944
941.06556
935.49683
927.79245
926.59627
920.54153
917.41898
918.90508
918.68474
919.89444
919.71331
918.54313
919.05555
924.71348
926.1476
928.4219
928.00787
964.78302
965.02941
965.2581
963.92002
950.926
949.92821
949.5399
949.23424
949.84712
950.15286
949.23483
946.78015
939.47552
939.04345
938.9707
934.97418
929.7268
925.63612
919.67682
916.86356
917.46793
917.50199
917.66728
917.6787
917.53587
918.01164
924.71928
925.51593
925.86196
925.9707
)
;

boundaryField
{
    minX
    {
        type            zeroGradient;
    }
    maxX
    {
        type            zeroGradient;
    }
    minY
    {
        type            fixedValue;
        value           uniform 1073;
    }
    minZ
    {
        type            zeroGradient;
    }
    maxZ
    {
        type            zeroGradient;
    }
    bottomWater_to_rightSolid
    {
        type            compressible::turbulentTemperatureCoupledBaffleMixed;
        refValue        nonuniform List<scalar> 
130
(
750.38985
758.43319
766.85824
775.22612
783.20246
790.54361
797.10581
802.80427
807.59571
811.46048
814.38957
816.34715
817.32562
744.66377
754.03577
763.62262
772.92214
781.60458
789.45452
796.37593
802.32328
807.28528
811.26805
814.27086
816.26905
817.26642
733.11889
745.54961
757.62968
768.80018
778.81748
787.59414
795.14949
801.53006
806.78678
810.96935
814.09384
816.16101
817.18396
715.82601
734.03926
750.14076
763.96221
775.69594
785.58639
793.86644
800.72441
806.30488
810.70121
813.95219
816.09606
817.16109
695.37116
723.09284
743.9621
760.32288
773.47729
784.20488
792.99964
800.19023
806.00206
810.5376
813.87099
816.06376
817.1535
695.4442
723.13148
743.97241
760.31125
773.4452
784.1584
792.94686
800.14029
805.96912
810.51228
813.85023
816.04572
817.13849
716.09481
734.20588
750.22236
763.976
775.64882
785.49694
793.75466
800.61155
806.21746
810.6363
813.90168
816.05818
817.13482
733.57387
745.88312
757.83885
768.88831
778.79913
787.50594
795.02134
801.38895
806.6645
810.87902
814.02104
816.11171
817.15804
745.26322
754.48286
763.91389
773.06817
781.62234
789.38742
796.25791
802.18759
807.16802
811.19431
814.21592
816.23288
817.24302
751.0782
758.95601
767.20018
775.40942
783.25192
790.50061
797.00696
802.68447
807.49111
811.40638
814.35536
816.32639
817.31393
)
;
        refGradient     uniform 0;
        valueFraction   uniform 0.99248593;
        value           nonuniform List<scalar> 
130
(
751.62701
759.62041
767.9902
776.3029
784.2312
791.51622
798.02801
803.67986
808.43183
812.26524
815.19476
817.14193
818.11142
745.94578
755.25838
764.78184
774.01985
782.65964
790.44849
797.31748
803.21539
808.13386
812.09027
815.09314
817.07642
818.06564
734.48265
746.83065
758.82873
769.92943
779.8942
788.60207
796.0974
802.42795
807.64104
811.81028
814.93153
816.98287
817.98058
717.3162
735.4151
751.40405
765.12836
776.78815
786.60466
794.82033
801.62398
807.17089
811.56475
814.80146
816.92983
817.98568
696.99092
724.53657
745.25922
761.50781
774.56818
785.21744
793.94581
801.08184
806.88909
811.4144
814.72842
816.90747
817.99196
697.05201
724.54842
745.24361
761.47509
774.51199
785.14508
793.86869
801.00898
806.86027
811.38848
814.70631
816.88557
817.97513
717.58071
735.5428
751.44392
765.11148
776.7053
786.48197
794.67915
801.48398
807.08193
811.50433
814.7547
816.89715
817.97274
734.96312
747.16929
759.03899
770.00508
779.84274
788.48535
795.94568
802.26233
807.5067
811.72521
814.85175
816.9394
817.98629
746.60034
755.70434
765.06585
774.15541
782.64586
790.35721
797.17756
803.05954
808.00994
812.04741
815.0532
817.0619
818.06714
752.38982
760.16378
768.32477
776.47687
784.2607
791.45617
797.91372
803.54749
808.32153
812.25783
815.19065
817.14946
818.1304
)
;
        Tnbr            T;
        thicknessLayers List<scalar> 0();
        kappaLayers     List<scalar> 0();
        kappaMethod     fluidThermo;
        kappa           none;
        alphaAni        none;
        alpha           none;
        field           T;
    }
    bottomWater_to_leftSolid
    {
        type            compressible::turbulentTemperatureCoupledBaffleMixed;
        refValue        nonuniform List<scalar> 
130
(
926.35152
926.30636
926.21069
926.05981
925.85136
925.58568
925.26528
924.89203
924.47958
924.08088
923.73571
923.44854
923.28781
926.33666
926.29138
926.19398
926.0401
925.82716
925.55487
925.22928
924.85654
924.45482
924.0577
923.68911
923.38477
923.21123
926.30148
926.25322
926.15264
925.99506
925.77238
925.48116
925.14515
924.79063
924.40359
924.03274
923.65772
923.36393
923.19239
926.24593
926.19514
926.09266
925.93154
925.70716
925.41632
925.0885
924.75295
924.40257
924.04715
923.71324
923.45092
923.25999
926.18637
926.13344
926.02104
925.84339
925.62019
925.35864
925.0653
924.75038
924.41881
924.07714
923.75354
923.46447
923.25656
926.12408
926.06752
925.96104
925.81383
925.62566
925.39557
925.12058
924.80712
924.47626
924.13933
923.81171
923.51671
923.33144
926.09875
926.05118
925.96049
925.8297
925.65949
925.45499
925.21839
924.93799
924.6235
924.29997
923.99514
923.69983
923.53787
926.13656
926.09078
926.00018
925.86417
925.68919
925.48677
925.26975
925.0251
924.7778
924.50914
924.23426
923.981
923.81785
926.20837
926.16332
926.07292
925.93097
925.72298
925.50671
925.29799
925.08382
924.87315
924.65678
924.43088
924.21617
924.06552
926.26768
926.2264
926.13261
925.97083
925.72926
925.50658
925.29837
925.10017
924.91263
924.72669
924.53774
924.35683
924.21596
)
;
        refGradient     uniform 0;
        valueFraction   uniform 0.99248593;
        value           nonuniform List<scalar> 
130
(
926.66395
926.6164
926.51986
926.36812
926.15875
925.89263
925.57295
925.19091
924.73348
924.29848
923.95721
923.61372
923.43311
926.64607
926.5998
926.50066
926.34557
926.13361
925.8622
925.53572
925.14416
924.71664
924.2903
923.88545
923.52226
923.3171
926.60487
926.55127
926.44709
926.29226
926.07096
925.76428
925.40617
925.06132
924.62881
924.26356
923.80116
923.46985
923.2729
926.53468
926.47499
926.37301
926.21425
925.99063
925.67431
925.31907
924.98469
924.62484
924.23926
923.86857
923.61557
923.34519
926.46253
926.40616
926.28463
926.06715
925.8264
925.55877
925.25959
924.94173
924.60564
924.23962
923.89948
923.55293
923.25205
926.38146
926.30823
926.18793
926.03792
925.84594
925.60456
925.30018
924.95448
924.61099
924.25923
923.90014
923.53746
923.30414
926.34719
926.29205
926.1981
926.066
925.8884
925.67365
925.43014
925.11715
924.75573
924.41041
924.10921
923.69393
923.52234
926.39677
926.34362
926.24648
926.09851
925.9161
925.69706
925.47909
925.20295
924.95795
924.6669
924.35676
924.04527
923.83285
926.48399
926.43062
926.33857
926.20374
925.94524
925.70733
925.50236
925.27752
925.06352
924.84237
924.5904
924.32827
924.13156
926.5571
926.51796
926.42657
926.25598
925.91865
925.69011
925.48052
925.2815
925.09998
924.91774
924.72332
924.52537
924.33048
)
;
        Tnbr            T;
        thicknessLayers List<scalar> 0();
        kappaLayers     List<scalar> 0();
        kappaMethod     fluidThermo;
        kappa           none;
        alphaAni        none;
        alpha           none;
        field           T;
    }
    bottomWater_to_heater
    {
        type            compressible::turbulentTemperatureCoupledBaffleMixed;
        refValue        nonuniform List<scalar> 
92
(
731.49973
733.54314
737.53901
743.25473
722.19833
724.61499
729.36423
736.19313
702.66701
705.79614
712.09241
721.42477
345.39118
342.65993
342.65931
345.2878
421.83413
418.49075
418.6531
422.09749
487.24673
484.46258
485.12501
488.7714
542.93859
541.2787
543.15082
547.58416
670.85191
589.02364
674.78165
589.29363
683.23692
593.87782
696.98998
601.39914
345.39118
345.2878
421.83413
422.09749
487.24673
488.7714
542.93859
547.58416
589.02364
601.39914
345.35915
345.35915
342.64591
342.65078
345.2864
345.2864
421.8089
421.8089
418.49233
418.66673
422.11395
422.11395
487.2238
487.2238
484.47023
485.15167
488.78123
488.78123
542.89897
542.89897
541.28185
543.192
547.62398
547.62398
588.99373
588.99373
589.30702
593.93699
601.46537
601.46537
671.02775
675.03054
683.58448
697.34814
703.05261
706.23923
712.60842
721.96183
722.75388
725.21289
730.01509
736.86953
732.14919
734.23942
738.2834
744.02449
)
;
        refGradient     uniform 0;
        valueFraction   nonuniform List<scalar> 
92
(
0.99248593
0.99248593
0.99248593
0.99248593
0.99248593
0.99248593
0.99248593
0.99248593
0.99248593
0.99248593
0.99248593
0.99248593
0.99248593
0.99248593
0.99248593
0.99248593
0.99248593
0.99248593
0.99248593
0.99248593
0.99248593
0.99248593
0.99248593
0.99248593
0.99248593
0.99248593
0.99248593
0.99248593
0.99248593
0.99248593
0.99248593
0.99248593
0.99248593
0.99248593
0.99248593
0.99248593
0.99248593
0.99248593
0.99248593
0.99248593
0.99248593
0.99248593
0.99248593
0.99248593
0.99248593
0.99248593
0.99248593
0.99248593
0.99248593
0.99248593
0.99248593
0.99248593
0.99248593
0.99248593
0.99248593
0.99248593
0.99248593
0.99248593
0.99248593
0.99248593
0.99248593
0.99248593
0.99248593
0.99248593
0.99248593
0.99248593
0.99248593
0.99248593
0.99248593
0.99248593
0.99248593
0.99248593
0.99248593
0.99248593
0.99248593
0.99248593
0.99248593
0.99248593
0.99248593
0.99248593
0.99248593
0.99248593
0.99248593
0.99248593
0.99248593
0.99248593
0.99248593
0.99248593
0.99248593
0.99248593
0.99248593
0.99248593
)
;
        value           nonuniform List<scalar> 
92
(
733.05749
735.05779
738.9868
744.56295
723.78359
726.16183
730.84413
737.54804
704.37453
707.45667
713.65437
722.86402
349.73308
346.99611
346.98119
349.592
425.56682
422.2146
422.36353
425.79156
490.4594
487.68592
488.31086
491.94662
545.78282
544.12214
545.89311
550.30085
672.7859
591.57249
676.6496
591.80394
684.92225
596.23461
698.54837
603.6758
349.80541
349.46559
425.66323
425.67951
490.56438
491.89276
545.82114
550.29528
591.53058
603.72501
349.73765
349.66993
346.94499
346.92764
349.48829
349.519
425.61085
425.54476
422.23712
422.40092
425.71486
425.79365
490.51018
490.46102
487.71792
488.39432
491.87564
491.96553
545.74507
545.70506
544.11555
546.01051
550.32024
550.40122
591.47866
591.46152
591.79179
596.38245
603.77935
603.83316
672.87914
676.87118
685.35633
698.99545
704.72574
707.89563
714.20923
723.47119
724.32815
726.76231
731.51321
738.29158
733.70375
735.77774
739.76127
745.41977
)
;
        Tnbr            T;
        thicknessLayers List<scalar> 0();
        kappaLayers     List<scalar> 0();
        kappaMethod     fluidThermo;
        kappa           none;
        alphaAni        none;
        alpha           none;
        field           T;
    }
}


// ************************************************************************* //
