/*--------------------------------*- C++ -*----------------------------------*\
| =========                 |                                                 |
| \\      /  F ield         | OpenFOAM: The Open Source CFD Toolbox           |
|  \\    /   O peration     | Version:  v2012                                 |
|   \\  /    A nd           | Website:  www.openfoam.com                      |
|    \\/     M anipulation  |                                                 |
\*---------------------------------------------------------------------------*/
FoamFile
{
    version     2.0;
    format      ascii;
    class       volVectorField;
    location    "700/bottomWater";
    object      U;
}
// * * * * * * * * * * * * * * * * * * * * * * * * * * * * * * * * * * * * * //

dimensions      [0 1 -1 0 0 0 0];


internalField   nonuniform List<vector> 
1460
(
(-0.000800726 -0.018215027 0.0007774621)
(-0.0030667966 -0.017000508 0.00011595116)
(-0.0029693588 -0.016628544 -0.00019654766)
(-0.001442521 -0.013600786 0.00088786253)
(0.0018160652 -0.013236633 0.0019962514)
(0.0040046996 -0.011388723 0.0012530688)
(0.0041130853 -0.012371211 0.0010614411)
(0.0018681824 -0.015119496 0.0014804172)
(-0.0022566422 -0.013612116 0.00012277766)
(-0.0001690411 -0.010139221 0.00037983129)
(0.0025233288 -0.011775005 0.0014363056)
(0.0021380813 -0.014502497 0.0011931476)
(-0.00085644215 -0.018546497 -0.0017547324)
(-0.0019392652 -0.01659281 -0.002813442)
(-0.0020837592 -0.017393976 -0.0010962166)
(-0.0029758143 -0.015796138 -0.00017090705)
(-0.0015583831 -0.011253155 0.001957635)
(0.00013446731 -0.012223045 0.0021259119)
(0.001209829 -0.012436992 0.0015030878)
(0.0030022608 -0.011997474 0.0010914766)
(0.0039935426 -0.01450721 0.00078423808)
(0.0040853687 -0.01539764 0.00024336994)
(0.0014978149 -0.015750097 0.00054061226)
(0.0013477238 -0.011810989 0.0019337201)
(0.0025892405 -0.014313405 -1.4671395e-05)
(-0.00069910659 -0.016216632 0.0012320554)
(-0.0028797242 -0.015113668 0.00046813922)
(-0.0008957772 -0.010941746 0.0016000637)
(0.0015154819 -0.011859247 0.0019485539)
(0.0020035485 -0.0183136 0.0018600336)
(-0.0039091859 0.01896113 -0.0021785307)
(-0.0073006394 0.01801836 -0.0033730015)
(-0.0081931911 0.014099587 -0.0031361685)
(-0.0033081146 0.0022368155 -0.00036039226)
(-0.00081214827 -0.00033927461 -0.00039868944)
(0.0008330228 0.0011578732 -0.0022649967)
(0.0052954415 0.012921198 -0.00086787416)
(0.0028366821 0.016945195 0.00065237798)
(-0.0046755902 0.014695114 0.0011736175)
(0.002492598 -0.001062432 -0.00079307747)
(0.0015665691 0.0031515556 0.00049057259)
(0.0046739147 0.0151604 -2.0795445e-05)
(-0.00098425883 0.019987642 -0.0040791223)
(-2.9383611e-05 0.017884998 -0.0054995409)
(-0.0019291625 0.018901328 -0.0022187745)
(-0.0046015794 0.016456549 -0.00028633877)
(0.00077641048 0.00061339253 0.00062412209)
(0.0015310206 0.0024316619 0.0019436657)
(0.0033781286 0.0026405552 0.0016711414)
(0.0047900951 0.0026666627 0.00085683403)
(0.0070114333 0.011783972 0.00093082801)
(0.0065714589 0.017011675 0.0008565184)
(-0.0013354795 0.017660756 0.0012182344)
(-5.4645268e-05 0.0064845326 0.00071929031)
(0.0043115676 0.015954 -0.00046025068)
(-0.00011244947 0.018281587 0.0006873065)
(-0.0053292378 0.014327348 0.001625059)
(0.00059696166 -0.0020037638 0.00040898404)
(0.00047314945 0.0013743516 0.0022020639)
(0.0038426689 0.018299593 0.0027523791)
(0.00019949896 0.0059752853 5.7335348e-06)
(0.00015180729 0.0025724848 -0.0014882094)
(0.0046260193 -0.012493267 8.9849666e-05)
(0.0024689769 -0.014700926 -0.00099583308)
(-0.0024465118 -0.014493059 -0.0045460599)
(-0.0049088583 -0.014418254 -0.0045972801)
(-0.0050203372 -0.012648575 -0.0020856568)
(0.00050052823 0.00011402554 -0.00019053137)
(0.0032992582 -0.010625253 -0.00020108877)
(0.0056308256 -0.012962109 -0.0018314936)
(-0.0014691117 -0.01393129 -0.001540772)
(-0.0015085513 -0.0080880942 0.0016948439)
(-0.0021930333 -0.0073971838 0.0022092156)
(-0.0016784018 -0.008711439 0.0021896939)
(-0.0026485809 0.0012181683 -0.00028286823)
(0.003094404 -0.012893203 0.00033035327)
(0.0038816791 -0.014307688 -0.0010051545)
(0.0027993048 -0.01356714 -2.6064349e-05)
(0.0019557208 -0.013513544 -0.00041909473)
(0.00058514964 -0.01463997 -0.0021513232)
(-0.0022086888 -0.015257442 -0.0044582266)
(0.0022884399 0.00053910625 -0.0014192685)
(0.0024564223 -0.0018811461 0.0011675081)
(0.0020214544 -0.014230366 -0.00018148376)
(-0.0037684579 -0.010858949 0.0032352156)
(-0.0016429236 0.0024651682 0.00015074133)
(0.0030202759 -0.014797205 -0.00043744737)
(0.0038597055 -0.014469379 -0.0014654672)
(-0.00019495724 -0.013107745 0.00076081131)
(-0.0013149776 -0.015241722 0.0020229302)
(0.0014929494 0.010269063 0.00062184332)
(0.0041348922 0.0075898073 0.00061918224)
(0.005521204 0.009445998 -0.00068067524)
(0.0029079676 0.010586084 -0.00095780018)
(0.0015551726 0.01063247 -0.0016717297)
(0.0006000603 0.0093098854 -0.0022053293)
(-0.0018404602 0.0047103558 -0.00096721484)
(-4.593744e-06 0.0031399107 0.0006808162)
(0.0035540017 0.0031834314 -0.0010460631)
(0.0035108065 0.0039266204 -0.00069993747)
(0.0026791442 0.0097678904 -0.0013264275)
(-0.0026721812 0.0092918343 0.002557162)
(-0.0001129384 0.010672093 0.0017588822)
(-0.0018532062 0.0070623732 0.00064232945)
(0.00029847828 0.0039084391 0.0017027154)
(0.0027621361 0.0019610722 -0.00024430651)
(0.00095120697 -0.0020142991 -5.6206175e-05)
(0.00067422722 -0.00043427244 0.00025290521)
(-0.00059804813 0.0023818219 -0.00031514243)
(0.00015252495 0.0057692972 0.00012221096)
(-0.0028551181 0.010924218 -0.0033294462)
(-0.00015219401 0.0072349846 -0.0013383743)
(0.0031842832 0.0078670914 0.00051290614)
(0.0033454879 0.010067747 0.0016466189)
(-0.004006631 0.010112665 0.0017972336)
(0.0001565884 0.0034429089 0.001712874)
(0.0032479976 0.0010621373 -0.0013408629)
(0.0022305065 -0.0023464478 -0.00076093291)
(0.0025624885 0.0016074469 -0.00076560648)
(0.0029645085 0.011237862 0.0001373895)
(0.0022847406 0.0033553214 0.001663141)
(0.0042755131 -0.00051679737 0.0014008986)
(0.0052640706 -0.0045584457 0.001077503)
(0.0056752995 -0.0054368495 0.0012902105)
(0.0060637346 -0.0051397217 0.0015903879)
(0.0063947085 -0.005717717 0.0014766422)
(0.0056057392 -0.0082105915 0.00098186288)
(0.0021122084 -0.008500494 -0.00045179056)
(0.0012550715 -0.010902973 -0.0018854752)
(-0.0031949634 -0.0096961699 -0.0019802595)
(-9.3424496e-05 -0.00069368721 7.3962886e-05)
(0.0025026756 -0.00495613 -0.0002962381)
(0.0042462565 -0.0092838173 -0.0014803456)
(0.0051339474 -0.010390365 -0.0026516881)
(0.0044631362 -0.0091183703 -0.0032654776)
(0.0038375553 -0.009914214 -0.0028229592)
(-0.00033054452 -0.0096055835 -0.0027232156)
(-0.0037060858 -0.009141022 -0.0038920052)
(-0.0047461137 -0.0091339979 -0.0043989972)
(-0.0049009529 -0.0096074634 -0.0036700058)
(-0.0034099695 -0.0065129632 -0.0026056782)
(0.0009238417 -0.0028847534 -0.0025630361)
(0.0027191435 -0.0053305688 -0.0013391289)
(0.0043264811 -0.0063775246 -0.0012598953)
(0.0059170453 -0.0092639137 -0.0014713744)
(0.0056042067 -0.0091786988 -0.0015856265)
(0.0032810423 -0.01110247 -0.0019350757)
(-0.0016427652 -0.010372264 -0.0033492095)
(-0.0043147268 -0.0081607512 -0.0035248865)
(-0.0023828072 -0.0042368878 -0.002062075)
(-0.00089963165 -0.016754054 0.00072542615)
(-0.0028746562 -0.015529862 -0.00062315171)
(-0.00047756125 -0.012736729 -0.0011455729)
(0.0033764286 -0.012166193 0.0011831991)
(0.0052218469 -0.01281961 0.0022926354)
(0.0045410834 -0.01302164 0.0024822546)
(0.0028162398 -0.014035532 0.0012583206)
(0.0011456609 -0.015661 0.0014150851)
(0.00032687201 -0.016198646 -0.00039110609)
(-0.0013678562 -0.015805929 0.0016786001)
(-0.0022436862 -0.015772217 0.0014724897)
(-0.0042930153 -0.01407482 0.0014653415)
(-0.0037277968 -0.012025772 0.0022891529)
(-0.00092196436 -0.012649763 0.0011735086)
(0.0017390907 -0.017452427 -0.0035957659)
(0.00037712378 -0.018098146 -0.0028385346)
(-0.00094698307 -0.015122755 0.0012427118)
(-0.0016078602 -0.013491374 0.0020869406)
(5.7395933e-05 -0.014331485 0.0025698424)
(0.001210618 -0.018712521 0.0020127343)
(0.00087620863 -0.01807221 -0.0012136566)
(0.0002116911 -0.017118151 -0.0022620318)
(-0.001622025 -0.014642362 -0.0016474664)
(-0.0023307227 -0.01475083 -0.001183018)
(6.0641875e-05 -0.009884842 -0.0012557)
(0.0013273315 -0.014137507 -0.00023807769)
(-0.00053169031 -0.018320635 -0.00043726021)
(-0.0010548204 -0.015875058 0.0021156165)
(0.00023761774 -0.011489432 0.0024625711)
(0.001895049 -0.018872247 0.0015181754)
(-0.0041226354 0.018302185 -0.00345105)
(-0.0060343215 0.015345521 -0.0052275292)
(-0.00075852316 0.00043468508 -0.0027341817)
(-9.7067606e-05 0.001371165 -0.0015132057)
(0.004299642 0.013169285 0.0039353888)
(0.0031097424 0.014970803 0.0046921946)
(0.0040425418 0.016055999 0.0029974556)
(0.0040171121 0.017585263 0.0022966779)
(0.00040664615 0.018063885 0.00095051745)
(-0.0012944889 0.017122416 0.0042341721)
(-0.0017134545 0.017091816 0.0047400477)
(-0.004314196 0.015057396 0.0033659245)
(-0.00029122355 0.00094781669 0.0040899443)
(-0.0014771788 -0.0017353311 0.0034791524)
(0.0040217048 0.015926221 -0.0052148244)
(0.00094856853 0.018600978 -0.0032131412)
(0.00048749818 0.016313552 0.002781136)
(0.003175577 0.010379347 0.0036869623)
(0.0050566762 0.0083369759 0.0031511025)
(0.0081204443 0.017535652 0.0041036656)
(0.0070218261 0.019501619 0.0030514873)
(0.00010288333 0.018934525 0.00061457521)
(-0.0049438116 0.017178071 -1.8953654e-05)
(-0.003878875 0.01404029 -0.00042449829)
(-0.0013836093 0.0010330681 0.0018027904)
(0.0045201284 0.015732841 0.00024279783)
(0.00026892645 0.019412241 0.0012719785)
(-0.0039013586 0.015591584 0.0046515958)
(-3.5732528e-05 0.003580743 0.0023596627)
(0.0024001507 0.019584815 0.0047876062)
(-0.00094488092 0.003472939 -0.00074757205)
(0.0054342178 -0.012282115 4.1734283e-05)
(0.0040832281 -0.01506412 -0.00095466527)
(-0.0043603688 -0.014506393 -0.0051521774)
(-0.0046175228 -0.013304899 -0.0053066712)
(-0.0028444442 -0.013006613 -0.0048387531)
(-0.0010203056 -0.014367806 -0.0011283555)
(0.0030217582 -0.0027879861 3.4870107e-05)
(0.0015531846 0.0019342081 0.00028737279)
(0.0030249582 -0.010091943 -0.00254267)
(0.0025195376 -0.0098177965 -0.001566919)
(0.0038138164 -0.015009984 0.00088705758)
(0.0036159383 -0.015383114 0.0038241419)
(-0.0046520273 -0.015014747 0.0060591028)
(-0.0062147257 -0.01433356 0.005064048)
(-0.0014002639 -0.0081156624 0.0022166236)
(0.0035243279 -0.013536148 -0.00093605583)
(0.0063644321 -0.014857856 -0.0013667961)
(0.0032477864 -0.016398647 -0.0035073038)
(-0.00085292045 -0.015026295 -0.0026264391)
(0.0026143602 0.0037796645 -0.00097461051)
(0.001168136 0.0056748944 -0.00028560345)
(0.00040032338 0.00012341036 0.0019951875)
(0.0051490804 -0.015051937 0.0017261103)
(-0.0030095778 -0.014563936 0.0043008767)
(-0.0043547934 -0.007556689 0.0021992214)
(-0.00026098138 0.0031560723 0.0019769911)
(0.0034884664 -0.007798886 0.00029282364)
(0.0019825204 -0.014266187 -0.0013384854)
(-0.0045628105 -0.013723698 0.00051653252)
(0.0022147082 0.0079278158 0.00032148617)
(0.0049027058 0.0095435537 0.00064135989)
(0.0021802503 0.010514448 -0.00241477)
(0.00050777107 0.010791755 -0.0035248013)
(0.00050407426 0.0065838648 -0.0041864622)
(0.0016847632 0.0032723914 -0.0015510375)
(0.00052637589 0.0010753839 0.00073187879)
(0.0014705656 0.0069900384 0.0035944023)
(0.0030037863 0.0084964348 0.0012374562)
(0.0046068975 0.01044201 3.9685788e-05)
(0.0039381097 0.010591584 -0.00196561)
(0.0028732485 0.011981818 -0.0002057118)
(0.0023700576 0.012043122 0.0015631127)
(0.0021764257 0.011189024 0.0032627502)
(-0.00080587063 0.012166668 0.0052583942)
(0.0022292417 0.0037573909 0.00096636806)
(0.002228696 0.0018664826 0.00013442538)
(0.0040459808 0.0089106401 0.00061492941)
(0.00090610745 0.012550632 -0.0006454897)
(-0.0046546283 0.01203172 -0.00039613232)
(-0.0019432508 0.0087951912 -0.0027683791)
(0.0013955583 0.010065902 -0.00064704669)
(0.0036111422 0.0075692253 0.0022658439)
(0.0043646647 0.011254188 0.0015712354)
(-0.0024349971 0.010607432 0.0029371382)
(-0.0029503759 0.0069214797 0.0030292571)
(0.0014335939 0.0034183425 0.00015808859)
(0.0064269719 0.0071996728 -0.00067068845)
(0.0054649621 0.0099569163 -0.0011095998)
(0.0023845191 0.012660013 -0.0030902198)
(0.0017238885 -0.00022827912 0.0027080401)
(0.0036507945 -0.0051793388 0.0021274082)
(0.0053450907 -0.0065068513 0.0016510747)
(0.0069074996 -0.0072778251 0.0019934636)
(0.0078235925 -0.0089381835 0.0025000688)
(0.0067349015 -0.009673931 0.0023032831)
(0.0030478978 -0.010700907 0.0010302369)
(-0.0028517834 -0.0050975134 -0.001779788)
(0.0023576865 -0.0029467483 -0.0014093018)
(0.00044988937 -0.011367977 -0.003053697)
(-0.00010877111 -0.0090405784 -0.00032905362)
(0.0013812205 -0.0078467855 -0.0010381986)
(0.0028559942 -0.0091820448 -0.0018163424)
(0.0035852745 -0.0092589314 -0.0023289607)
(0.0038227461 -0.0076623839 -0.0013029849)
(0.0049132098 -0.0095383106 -0.0018770995)
(-0.0013441361 -0.010505153 -0.00212898)
(-0.0044238934 -0.0070970635 -0.0024339195)
(-0.0030803871 -0.0032753053 -0.0026817124)
(-0.0027958776 -0.0067880471 -0.003513667)
(-0.0026109264 -0.0016596502 -0.0028429898)
(0.0015352289 0.0022512696 -0.0017558367)
(0.0033213905 -0.0028764299 -0.0008811896)
(0.0044879551 -0.0039788687 -0.00030311325)
(0.0051645074 -0.0052509623 -9.0577402e-05)
(0.0053253814 -0.0093664883 -0.0011970011)
(0.00069334892 -0.010293418 -0.0020162236)
(-0.0033163796 -0.0094372066 -0.0035938377)
(-0.0029542097 -0.0053132347 -0.003046641)
(-0.0011312667 -0.00097912957 -0.0015504252)
(-0.00069523757 -0.016334737 0.00087767261)
(-0.0016715161 -0.014201854 -0.0014760837)
(0.0022107189 -0.011261194 0.00014260273)
(0.0036645482 -0.012164956 0.00098861953)
(0.0023409541 -0.014727819 -0.00016902475)
(0.0024890112 -0.01558931 -0.00027806125)
(0.0017141108 -0.016973783 0.00071422657)
(0.0011369712 -0.018277131 -0.00073278814)
(-0.0010084355 -0.017452791 -0.0018080451)
(-0.0026162944 -0.017010491 0.00042695926)
(-0.003509593 -0.015392036 0.00082189491)
(-0.0050593263 -0.014107603 0.0010537434)
(-0.0053436851 -0.0136314 0.0019808066)
(-0.0026945435 -0.013004308 0.00099950895)
(-0.0002937278 -0.013069041 -0.0016824567)
(0.0017767266 -0.010561248 3.1165288e-05)
(0.0013147153 -0.015564646 0.0014173817)
(-0.00053242389 -0.016547776 0.0031370699)
(-0.00074174133 -0.016684579 0.0012335607)
(-0.0011296497 -0.018864262 -0.0015450433)
(-0.0012528459 -0.018289982 -0.0030751472)
(-0.0031199664 -0.01627763 -0.0027252543)
(-0.0045148671 -0.014633357 -0.0022470833)
(-0.003550172 -0.013116537 -0.0012120983)
(0.00080004238 -0.013039748 0.0010681206)
(0.0033103475 -0.014380075 -0.0023049891)
(0.0015369032 -0.0159906 -0.0013154308)
(0.0010440696 -0.017493107 -0.00015613681)
(0.00105706 -0.016826288 0.0027365256)
(0.00070207646 -0.017450176 0.001965497)
(-0.0039832182 0.017502968 -0.0043130606)
(-0.0019088254 0.0091118449 -0.0051814818)
(-0.00075449362 0.00099262364 -0.0025558838)
(0.0051903403 0.013798584 0.0023918003)
(0.0037876488 0.016603991 0.0024106776)
(0.0028331979 0.01707376 0.0026359548)
(0.0027645144 0.018382884 0.0024060918)
(0.003221394 0.0195825 -0.0019160887)
(0.0022876025 0.018615192 -0.0044626095)
(-0.00040839497 0.018610644 0.00090174936)
(-0.002902306 0.017482988 0.0035273697)
(-0.0053129444 0.015992454 0.0036536689)
(-0.0051308992 0.011286047 0.0035129788)
(-0.00085788442 -0.00018604521 -0.0005342726)
(-0.00075208265 -0.0034422202 -0.0033437955)
(0.00036060492 0.00072653638 -0.0015279021)
(0.0045657783 0.016121879 0.00080707146)
(0.0049732797 0.017976887 0.002760056)
(0.0032117702 0.017960874 0.0020577214)
(0.001936894 0.020235831 -0.002163213)
(0.0020351727 0.019709755 -0.0026409695)
(-0.0066646188 0.018122078 -0.0013061079)
(-0.0083278639 0.014928693 -0.0011507753)
(-0.0028847249 0.0027092448 0.00021093556)
(-0.0015461989 0.00010785523 0.0010980716)
(0.0060548322 0.015208801 -0.0028142469)
(0.0042481623 0.017860711 -0.0035159025)
(0.0022804513 0.019045039 -0.0024689631)
(0.0012922333 0.017771807 0.0033967986)
(0.0019494813 0.018935499 0.0049156678)
(-0.00044701139 -0.0023315842 -0.0030533257)
(0.0048145896 -0.015009828 -0.0027809426)
(-0.0030619517 -0.014867857 -0.0048096782)
(-0.0043701138 -0.010395023 -0.0041724026)
(-0.0023409381 -0.002357914 -0.0014639338)
(0.00016009489 -0.00292579 0.00052923517)
(0.0026944238 -0.0095720606 0.0025329792)
(0.0025847791 -0.011736031 0.0037899862)
(0.0018636992 -0.0096194954 0.0029268203)
(0.0011492475 -0.0015553327 0.0015958267)
(0.00072087339 0.0015995104 0.0023393784)
(0.00089051107 -0.0025980296 0.00021749769)
(0.0048929884 -0.012966313 -0.0035237777)
(0.0033945936 -0.014782136 -0.0034401989)
(-0.0033187861 -0.015830846 -0.0035178017)
(-0.0046434702 -0.013961215 -0.0015361026)
(-0.0037500856 -0.014357394 -0.0012057475)
(0.0030517124 -0.004868678 -0.0014264154)
(0.0023840236 -0.0013848382 0.00057860332)
(-0.00023893529 -0.0094215192 0.0020791507)
(0.0019869131 0.004368815 -0.0025720674)
(-0.00096066237 0.0045772878 0.00042582912)
(0.0034677132 -0.011241843 0.0010662504)
(0.0032995176 -0.015616792 0.0020774497)
(-0.0055311189 -0.015096144 0.0010767113)
(-0.0054722645 -0.01244207 0.0013630976)
(-0.00068721305 -0.0010250588 -0.00075616746)
(-0.00020105602 0.0014596456 -8.2007104e-05)
(-0.0015765811 -0.0070216923 0.00099433286)
(-4.3087183e-05 -0.0012480285 0.0030984577)
(0.0020492618 0.0073213345 -0.0016195806)
(0.0029529323 0.010514951 -0.0030131147)
(-0.0023632763 0.010409814 -0.0039922176)
(-0.0035058287 0.00881033 -0.0052117631)
(-0.00087194508 0.0043318565 -0.0045865148)
(0.0030301168 0.00064240323 -0.0023118782)
(0.0059863099 0.0091422761 -0.0010385687)
(0.003220191 0.012202874 0.0023225806)
(-0.00021555815 0.011649566 0.0036588515)
(0.00093747592 0.0091667133 0.0026986663)
(0.00099166781 0.0083167198 0.0014044584)
(0.0032489578 0.0074236333 -0.00082416398)
(0.0040425844 0.0095057485 -0.0023431002)
(0.0019171487 0.010928047 -0.00022560782)
(0.00042563514 0.011021648 -0.0025348223)
(0.0014905612 0.0014916896 -0.00088294548)
(-0.00095109445 0.0023255272 -0.0018629739)
(0.0012254129 0.007499554 -0.0027172536)
(0.0032505742 0.008772515 -0.0011258835)
(0.00052737577 0.011283907 -0.00058965449)
(-0.00115392 0.0096567706 -0.0014737388)
(0.0025228021 0.0088263098 0.00011823953)
(0.0035503573 0.0095674049 0.0033989275)
(-0.00017727572 0.010617206 0.0017623093)
(-0.0028451412 0.010269604 0.0034354817)
(-0.0037884763 0.0070987719 0.0023978988)
(-0.0026450915 0.0049721957 0.002520367)
(0.0019518134 0.0082913855 0.00022261239)
(-0.0017252817 0.010016506 -0.0023305182)
(-0.0026845864 0.0086781921 -0.00044655917)
(-0.0003416062 -0.0059847314 0.0022782295)
(0.0025175935 -0.0045546466 0.00015310078)
(0.0042765731 -0.005048381 4.6656541e-05)
(0.0062808894 -0.008935151 0.00070520088)
(0.0058618073 -0.010215575 -0.00044015178)
(0.0018504512 -0.011451891 -0.00026821537)
(-0.0041967537 -0.0092909783 0.0019187306)
(-2.2643922e-05 0.00057424719 0.0022623245)
(0.0007099867 -0.008091893 -0.00061353676)
(4.0109275e-05 -0.0045771606 -0.0007406678)
(0.00069337462 -0.0018554527 0.00052302463)
(0.0019378569 -0.0038624552 -0.0016021883)
(0.002693834 -0.0056381612 -0.0021231386)
(0.0035324396 -0.006529786 -0.0020559858)
(0.0047170044 -0.0087356963 -0.0020272916)
(0.0037730348 -0.0087514098 -0.0034818356)
(-0.0011952337 -0.010025208 -0.0011610122)
(-0.0045013068 -0.0070344854 0.0011610848)
(-0.0034175633 -0.0018215996 0.0010735061)
(-0.0023549719 -0.0018605559 0.00038742788)
(-0.0014716085 0.00099832022 -0.00027497918)
(0.0026438776 0.0015090494 0.00023698356)
(0.0039370732 -0.0051716411 0.00063882678)
(0.0041026248 -0.0075766926 0.0015734397)
(0.0034488496 -0.0072107566 0.002689733)
(0.0033828502 -0.010158718 0.0023322554)
(-0.0025612205 -0.0076578457 5.1071618e-05)
(-0.0017821824 -0.00028083084 -0.0013133829)
(-0.001073809 9.3160782e-05 -0.001505864)
(0.0023222453 -0.0088146388 0.0027062002)
(-0.0013615931 -0.01614735 -0.00016559634)
(-0.00011397342 -0.012022886 -0.0016956769)
(0.0018497986 -0.013202797 -0.0011422446)
(0.0010921255 -0.014969072 -0.0022735607)
(-0.00057420186 -0.017306467 -0.0028481774)
(-1.1444339e-05 -0.015115012 -0.0015648039)
(-0.0028996144 -0.011288359 -0.0016089478)
(-0.0012482426 -0.010589541 0.00050176378)
(0.0015414109 -0.011220054 0.0012983485)
(0.0034201742 -0.01475563 2.7188648e-05)
(0.0020375759 -0.014803619 -0.0017032233)
(0.0014394181 -0.016171682 -0.0011664645)
(-0.0010078347 -0.015390985 0.00098495124)
(-0.00090827887 -0.015916599 0.0039044817)
(-0.00026586598 -0.016866333 0.0041798796)
(-0.0012399175 -0.016219412 0.0025246801)
(-0.002272146 -0.015087285 0.00094506855)
(-0.0035605733 -0.013938754 -0.00076044785)
(-0.0020788594 -0.011107999 -0.0015567612)
(-0.00062411166 -0.012140776 -0.0019917157)
(0.00048065354 -0.018506103 -0.0036773403)
(-0.0023208665 -0.018017834 -0.0033955509)
(-0.0034443236 -0.017279661 -0.0026778073)
(-0.0017418651 -0.0134636 -0.001450733)
(0.00077898662 -0.015595406 -0.0016060706)
(0.0013947876 -0.013319982 -0.0042877525)
(0.0027295417 -0.014402077 -0.0036739575)
(0.0019650894 -0.013971982 -0.0037231937)
(0.0009496365 -0.014920648 -0.0010252393)
(0.00016270517 -0.01538676 -0.0015347496)
(-0.0036138505 0.017111062 -0.0034451821)
(0.00058199894 0.0040548999 -0.0033407361)
(0.001584604 0.013541845 -0.0019354936)
(0.0036781916 0.01701772 -0.002831505)
(-0.00092285355 0.018747126 -0.0024174612)
(-0.0034920186 0.016725857 -0.00136554)
(-0.0048707233 0.013412623 -0.0015395393)
(0.002660644 -0.00048807034 0.0020814342)
(0.0011971481 -0.0022420467 0.003260414)
(0.0044404718 0.013272752 0.0012831153)
(0.0036301385 0.016381571 -0.0011308742)
(0.00087798408 0.017710505 0.00018735201)
(-0.0042135037 0.016953867 0.0042198015)
(-0.0032252699 0.016790311 0.0060115989)
(-0.0016226388 0.017845657 0.005657651)
(0.00049881449 0.017993894 0.0020467764)
(-0.0018220814 0.01714665 -0.0011861839)
(-0.004336253 0.015833134 -0.0021154493)
(0.0035718878 0.0046707995 -0.00063574543)
(0.0032929739 0.0060487591 -0.000157178)
(0.0074095091 0.017118311 -0.0026115558)
(-0.006764052 0.019486981 -0.001919538)
(-0.0076786988 0.0149702 -0.0020032892)
(-0.0041490511 0.0047109505 -0.00042647577)
(-0.0008038005 0.014492659 -0.0013661522)
(0.00062333284 0.0080649128 -0.0036314823)
(0.0029853759 0.014397578 -0.0049686376)
(0.0034756134 0.015847465 -0.0058379747)
(0.0032323418 0.017450741 -0.0027309842)
(0.0015357935 0.01751299 -0.00081043696)
(0.001692344 -0.010326946 -0.0021701282)
(0.00098824945 -0.015122929 -0.0028654569)
(-0.0051573209 -0.01327677 -0.0040229817)
(-0.0014007298 -0.0018568235 -0.0035190705)
(-0.0019438362 0.004382021 -0.0019179652)
(-0.00046210225 -0.0016854782 0.00080535179)
(0.0052282803 -0.011628224 0.0030079421)
(0.0057982456 -0.013706175 0.004796277)
(-0.0014110701 -0.015089886 0.0045371004)
(-0.0047220027 -0.014246743 0.0018655798)
(-0.00035009593 -0.0015180891 0.0015570491)
(-0.0002451889 0.0041476481 -0.0013179692)
(-0.00068611739 -8.2924063e-05 4.8667707e-05)
(-0.00065560878 -0.010870889 -0.0018532721)
(-0.0011733363 -0.01499943 -0.0058133169)
(-0.0018313128 -0.010689575 -0.0037025878)
(-0.0028628794 -0.0037934514 -0.0011266501)
(0.0023589064 -0.014639986 -0.0020340572)
(0.0063123495 -0.014028527 0.0019303774)
(-0.0023267122 -0.014832452 0.0039452447)
(0.002234222 -0.0001658691 0.00092861036)
(-0.003107253 0.0074100975 -0.00012150007)
(0.004181572 -0.016811513 0.00050136716)
(-0.0038934005 -0.016703093 -0.00062636079)
(-0.0036937815 -0.014966191 -0.00013640982)
(-0.0017331287 -0.014777514 0.0018308706)
(-0.00083412444 -0.015291757 0.003648875)
(-0.0016473551 -0.013615921 0.0055327311)
(-0.0018020838 -0.0033531681 0.0018432753)
(-0.00055256522 0.00087831037 0.0017614189)
(0.0026984415 0.0092736294 -8.4839745e-05)
(8.6487975e-05 0.0097258697 -0.0028871008)
(-0.005510391 0.0090962519 -0.0038200267)
(-0.0049094309 0.0072570951 -0.0037339889)
(-0.0024748663 0.0097097247 -0.0027942616)
(0.0042639945 0.0026460443 0.0010813111)
(0.003213905 0.0027611165 0.0016374473)
(0.0033634688 0.0085801595 0.0029532584)
(0.0013962677 0.010963002 0.005171091)
(-0.0026744493 0.011529943 0.0055034896)
(-0.0029376546 0.0077668217 0.0030557818)
(0.00020163066 0.0092085548 -0.00037617529)
(0.0024563632 0.0082890093 -0.0017452471)
(0.001690778 0.010658688 -0.00011533331)
(0.0020843902 0.0076587746 -0.0011957201)
(-0.0024191478 0.011405242 0.00067590765)
(-0.0026083618 0.0061479578 -0.0011034696)
(-0.00098534366 -0.001876125 -0.00062232685)
(-0.00034149661 0.00672995 0.0029733328)
(-0.0033325365 0.010094303 0.0013278792)
(-0.0027888536 0.0087745355 0.0032420431)
(1.1738361e-05 0.0095967872 0.00036112186)
(0.0041888718 0.011613968 0.0033797991)
(-0.0041627781 0.010932144 0.0011849088)
(-0.0016046118 0.0056358742 0.001311346)
(-0.0016561105 -0.00015904489 0.0013703295)
(-0.00063197864 0.0068042255 0.0027495117)
(-0.0025134872 0.011544927 0.0032669691)
(-0.0043759122 0.0083484833 0.0018486421)
(-0.0016296255 0.0085933796 0.001438993)
(-0.001296803 -0.011094833 0.0011647985)
(0.0017149273 -0.0025070294 0.00061433662)
(0.0030753115 -0.0064706363 0.0010933377)
(0.0027921224 -0.0089587917 0.00048766306)
(0.002810076 -0.0095356748 -6.4977524e-05)
(0.0016629355 -0.010368039 0.0017318694)
(-0.0047821875 -0.0091069616 0.0035883841)
(-0.0039957009 -0.0060646386 0.0030647382)
(-0.0025314842 -0.0046231325 0.0017385531)
(-0.0013560555 -0.0058154445 0.0018378469)
(-0.0012257052 -0.0059053473 0.0030737539)
(6.2749518e-05 -0.00019780196 0.00057723372)
(0.0028950142 -0.0010671914 -0.00070895644)
(0.0039070115 -0.007513405 -0.00052725073)
(0.0022106751 -0.011510929 -0.00021532448)
(-0.00078873717 -0.0013567624 -0.0016985955)
(0.0047684479 -0.0072792313 -0.0016814807)
(-0.0037032476 -0.011648119 0.0010157009)
(-0.005776796 -0.0094036537 0.0024410711)
(-0.0048410451 -0.0068451392 0.001746003)
(-0.0033710835 -0.0021549844 0.0011964617)
(0.00015166784 0.0021060085 0.00096820466)
(0.0040659816 -0.0049408046 0.0017301015)
(0.0045166274 -0.0070235581 0.0030293449)
(0.0047790728 -0.01018732 0.0035874227)
(0.00046789072 -0.011115984 0.0028580683)
(-0.0049462426 -0.0092264715 0.0021036287)
(-0.0030103572 -0.0047456883 0.0018616158)
(-0.0025330755 -0.0052894154 0.00096057603)
(-0.0015103911 -0.0035543851 0.00056305197)
(-0.0016035037 -0.01561346 -0.00019588456)
(-0.0011789848 -0.011025666 -0.00032340269)
(0.00084826115 -0.010731501 -0.002643632)
(0.00071210502 -0.015225802 -0.0016522046)
(-0.0019789564 -0.017105857 -0.0028087764)
(-0.0033373991 -0.013895483 -0.0020258483)
(-0.0027269738 -0.010959687 -0.0015014744)
(-0.00041815353 -0.012409426 0.0021572511)
(0.0018721945 -0.019073959 0.0028567732)
(-0.0011441715 -0.022378442 0.00057855527)
(0.0002420569 -0.011088764 -0.00047178483)
(0.0028296093 -0.01492397 -0.00025384267)
(-0.00069594501 -0.015894356 0.0011497111)
(-0.0023087492 -0.015952273 -0.0011928442)
(-0.001833596 -0.011318153 0.001074273)
(-0.00079087998 -0.012748707 -0.00035758036)
(0.0026390904 -0.016463343 -0.0014432903)
(-0.0019668332 -0.018591913 -0.0021450559)
(-0.0040352737 -0.017786786 -0.0018166431)
(-0.0037458326 -0.013392969 -0.0014636189)
(-0.0019951368 -0.013494691 -0.0025910454)
(0.00043136935 -0.013235771 -0.0024648634)
(0.001102438 -0.012777679 -0.0027344934)
(0.002603157 -0.012648274 -0.002035144)
(0.0043694636 -0.013745251 -0.0019498115)
(0.001407459 -0.015889303 -0.0024285695)
(-0.0034815011 0.01651746 -0.0011392759)
(-0.00039164719 0.0025751158 -0.0021039884)
(-0.00030367662 0.0045796068 -0.0020622351)
(0.0037994271 0.016398848 -0.0034741834)
(-0.0026983238 0.018625984 -0.004604953)
(-0.0050357535 0.014244 -0.002414402)
(-0.00069654191 0.00040287568 0.00043397019)
(-0.00019625585 0.001336132 0.0013982431)
(0.0037610611 0.016447933 0.00587364)
(-0.0015253683 0.0210566 0.0022990845)
(-0.0016184892 -0.00051316966 -0.00023981671)
(0.0047960764 0.015697067 -0.0017012452)
(0.0016407823 0.017493098 -0.00019840508)
(-0.0031816821 0.017190696 0.0013659248)
(0.00074343315 0.0036775896 0.0015061652)
(0.00090830119 0.00081690617 0.00073211238)
(0.0068987204 0.010487816 -0.00040125055)
(-0.0029055905 0.019752012 -0.00027545702)
(-0.0088258268 0.015411343 -2.2971131e-05)
(-0.0053828096 0.0057716913 0.00015719772)
(-0.00272665 0.0020063268 -0.00092146726)
(-0.0012866563 -0.00049589586 -0.00052928679)
(0.0017468721 0.0029582272 -0.00042178208)
(0.0015157845 -0.00052581832 0.0016387779)
(0.0064999887 0.013902668 0.00095041611)
(0.0042768757 0.017656924 0.00013074237)
(0.0012727717 -0.010928681 -0.0020611303)
(0.00074790246 -0.013926312 -0.0038964561)
(-0.0039153838 -0.012660352 -0.0010220275)
(-0.0019262901 -0.0067514089 -0.0022325148)
(-0.0023552337 0.002749493 -0.0023616491)
(0.0016808422 -0.012887806 0.0027343073)
(0.0031735152 -0.013129648 0.0021621667)
(-0.0023916112 -0.015015822 -0.001992311)
(-0.0056930126 -0.016526726 -0.0020440786)
(-0.00026997189 -0.012501701 -0.0020467776)
(-0.0029952663 -0.013328377 0.00047847989)
(-0.0044971983 -0.010956779 0.00097299647)
(0.0017181121 0.002814174 -0.00068654092)
(0.0031554007 -0.013362438 -0.00034970754)
(0.0050945635 -0.013845939 -0.00046611541)
(0.0016466328 -0.014931847 -8.7236201e-05)
(-0.0016221831 -0.014417817 -0.00046410083)
(-0.0014096272 0.0073709753 0.00022679378)
(0.00086411416 -0.016862648 0.0015171448)
(-0.0023572213 -0.013927288 0.00076722954)
(-0.00048042629 -0.013956711 0.0013530219)
(-0.0018004471 -0.014729591 0.0013441183)
(0.0007186584 -0.014095835 0.002904021)
(-0.0029189476 -0.015866665 0.0050642355)
(-0.0057269783 -0.013473904 0.0041333642)
(0.0012197498 0.0020977017 0.0017500491)
(0.00053900672 0.010794292 -0.0042539843)
(-0.0011207919 0.0051674219 -0.0029985992)
(-0.0016385842 2.2997977e-05 -0.00040692859)
(-0.0037841668 0.0027943223 0.0016608127)
(-0.0011246682 0.0053457405 0.0014630815)
(0.0014011603 0.00024035349 0.002104343)
(-9.2918876e-06 0.00057391258 0.00077655259)
(0.001857346 0.010483235 -0.0017676018)
(-0.0019736745 0.013146112 0.00079332843)
(-0.004160918 0.012458267 0.0029294351)
(-0.0033894552 0.0052509937 0.003903576)
(-0.0034850151 0.0048347598 0.0024238699)