/*--------------------------------*- C++ -*----------------------------------*\
| =========                 |                                                 |
| \\      /  F ield         | OpenFOAM: The Open Source CFD Toolbox           |
|  \\    /   O peration     | Version:  v2012                                 |
|   \\  /    A nd           | Website:  www.openfoam.com                      |
|    \\/     M anipulation  |                                                 |
\*---------------------------------------------------------------------------*/
FoamFile
{
    version     2.0;
    format      ascii;
    class       volScalarField;
    location    "20/rightSolid";
    object      T;
}
// * * * * * * * * * * * * * * * * * * * * * * * * * * * * * * * * * * * * * //

dimensions      [0 0 0 1 0 0 0];


internalField   nonuniform List<scalar> 
130
(
373.75691
374.02576
374.21999
374.35468
374.45122
374.53824
374.65738
374.76664
374.84903
374.89766
374.88363
374.81602
374.75502
373.49337
373.85912
374.13859
374.34135
374.47609
374.58465
374.72403
374.85135
374.92687
374.95776
374.9191
374.84009
374.77056
372.69982
373.30659
373.80431
374.16247
374.39343
374.54468
374.69306
374.84195
374.90347
374.95787
374.94933
374.89976
374.84692
371.35493
372.43651
373.25204
373.82083
374.18275
374.41992
374.61378
374.77873
374.88041
374.95525
374.98439
374.96399
374.92429
369.71087
371.60203
372.80103
373.5403
374.00399
374.31299
374.55912
374.75241
374.89196
374.98179
375.00462
374.99073
374.95907
369.71091
371.60204
372.80103
373.5403
374.00399
374.31299
374.55912
374.75241
374.89196
374.9818
375.00462
374.99073
374.95907
371.35497
372.43653
373.25206
373.82084
374.18276
374.41992
374.61378
374.77873
374.88041
374.95525
374.98439
374.96399
374.92429
372.69985
373.30663
373.80433
374.16248
374.39344
374.54469
374.69307
374.84195
374.90347
374.95787
374.94933
374.89975
374.84692
373.49344
373.85917
374.13863
374.34137
374.47611
374.58466
374.72403
374.85135
374.92687
374.95776
374.91909
374.84009
374.77055
373.75704
374.02584
374.22004
374.35472
374.45124
374.53825
374.65739
374.76664
374.84903
374.89766
374.88363
374.81602
374.75502
)
;

boundaryField
{
    maxX
    {
        type            zeroGradient;
    }
    minZ
    {
        type            zeroGradient;
    }
    maxZ
    {
        type            zeroGradient;
    }
    rightSolid_to_bottomWater
    {
        type            compressible::turbulentTemperatureCoupledBaffleMixed;
        refValue        nonuniform List<scalar> 
130
(
1050.4835
1055.7239
1053.7689
1051.3782
1049.2167
1045.805
1050.0885
1051.8131
1053.5939
1057.7679
1058.1429
1053.0834
1048.3136
1058.4225
1061.3725
1058.395
1057.5291
1054.6049
1050.5315
1056.4595
1060.9358
1061.5625
1063.4737
1059.7113
1054.7308
1048.9036
1052.5346
1053.2886
1057.452
1058.6657
1057.255
1050.8539
1049.7657
1059.7119
1052.0216
1059.1947
1058.1608
1056.0277
1051.5976
1046.5917
1046.6391
1048.8944
1052.4427
1050.6303
1046.7216
1046.8767
1051.6142
1051.0284
1055.83
1058.6728
1057.9469
1053.4327
1035.3853
1048.0096
1051.7769
1047.8164
1045.5278
1043.7308
1047.7765
1051.4214
1054.9695
1059.143
1056.9045
1056.5339
1053.18
1035.3851
1048.0092
1051.777
1047.8164
1045.5278
1043.7307
1047.7765
1051.4214
1054.9696
1059.1432
1056.9045
1056.5339
1053.18
1046.5915
1046.6388
1048.894
1052.4426
1050.6302
1046.7214
1046.8767
1051.6144
1051.0285
1055.8301
1058.6728
1057.9469
1053.4327
1052.5345
1053.2881
1057.4519
1058.6655
1057.2552
1050.8543
1049.7662
1059.7121
1052.0215
1059.1951
1058.1608
1056.0276
1051.5976
1058.4225
1061.3725
1058.3947
1057.5289
1054.6048
1050.5315
1056.4595
1060.9359
1061.5627
1063.4737
1059.7112
1054.7305
1048.9033
1050.4836
1055.724
1053.7687
1051.3781
1049.2167
1045.805
1050.0886
1051.8132
1053.5938
1057.7677
1058.143
1053.0836
1048.3138
)
;
        refGradient     uniform 0;
        valueFraction   nonuniform List<scalar> 
130
(
0.0075140686
0.0075140686
0.0075140686
0.0075140686
0.0075140686
0.0075140686
0.0075140686
0.0075140686
0.0075140686
0.0075140686
0.0075140686
0.0075140686
0.0075140686
0.0075140686
0.0075140686
0.0075140686
0.0075140686
0.0075140686
0.0075140686
0.0075140686
0.0075140686
0.0075140686
0.0075140686
0.0075140686
0.0075140686
0.0075140686
0.0075140686
0.0075140686
0.0075140686
0.0075140686
0.0075140686
0.0075140686
0.0075140686
0.0075140686
0.0075140686
0.0075140686
0.0075140686
0.0075140686
0.0075140686
0.0075140686
0.0075140686
0.0075140686
0.0075140686
0.0075140686
0.0075140686
0.0075140686
0.0075140686
0.0075140686
0.0075140686
0.0075140686
0.0075140686
0.0075140686
0.0075140686
0.0075140686
0.0075140686
0.0075140686
0.0075140686
0.0075140686
0.0075140686
0.0075140686
0.0075140686
0.0075140686
0.0075140686
0.0075140686
0.0075140686
0.0075140686
0.0075140686
0.0075140686
0.0075140686
0.0075140686
0.0075140686
0.0075140686
0.0075140686
0.0075140686
0.0075140686
0.0075140686
0.0075140686
0.0075140686
0.0075140686
0.0075140686
0.0075140686
0.0075140686
0.0075140686
0.0075140686
0.0075140686
0.0075140686
0.0075140686
0.0075140686
0.0075140686
0.0075140686
0.0075140686
0.0075140686
0.0075140686
0.0075140686
0.0075140686
0.0075140686
0.0075140686
0.0075140686
0.0075140686
0.0075140686
0.0075140686
0.0075140686
0.0075140686
0.0075140686
0.0075140686
0.0075140686
0.0075140686
0.0075140686
0.0075140686
0.0075140686
0.0075140686
0.0075140686
0.0075140686
0.0075140686
0.0075140686
0.0075140686
0.0075140686
0.0075140686
0.0075140686
0.0075140686
0.0075140686
0.0075140686
0.0075140686
0.0075140686
0.0075140686
0.0075140686
0.0075140686
0.0075140686
0.0075140686
0.0075140686
)
;
        value           nonuniform List<scalar> 
130
(
378.77247
379.07843
379.2562
379.37166
379.45101
379.51159
379.66192
379.78324
379.87832
379.95789
379.94675
379.8416
379.74519
378.5711
378.95599
379.21064
379.40501
379.51641
379.59332
379.77607
379.936
380.01556
380.06045
379.99366
379.87765
379.76474
377.74012
378.34758
378.87232
379.23644
379.45462
379.55636
379.69539
379.91778
379.92082
380.02854
380.01216
379.94676
379.86094
376.36158
377.43466
378.26037
378.85102
379.19613
379.40183
379.59523
379.79434
379.89058
380.00065
380.05087
380.02504
379.95162
374.64699
376.61722
377.83463
378.538
378.98053
379.27332
379.54774
379.76674
379.93167
380.052
380.05773
380.04104
379.9843
374.64702
376.61724
377.83464
378.538
378.98053
379.27332
379.54774
379.76674
379.93167
380.052
380.05773
380.04104
379.9843
376.36161
377.43468
378.26039
378.85103
379.19614
379.40183
379.59523
379.79435
379.89058
380.00065
380.05088
380.02504
379.95161
377.74015
378.34761
378.87234
379.23646
379.45463
379.55637
379.6954
379.91778
379.92082
380.02855
380.01216
379.94676
379.86094
378.57117
378.95604
379.21068
379.40503
379.51642
379.59333
379.77607
379.936
380.01556
380.06045
379.99366
379.87765
379.76473
378.7726
379.07851
379.25625
379.3717
379.45103
379.5116
379.66193
379.78325
379.87832
379.95788
379.94675
379.8416
379.7452
)
;
        Tnbr            T;
        thicknessLayers List<scalar> 0();
        kappaLayers     List<scalar> 0();
        kappaMethod     solidThermo;
        kappa           none;
        alphaAni        none;
        alpha           none;
        field           T;
    }
    rightSolid_to_topAir
    {
        type            compressible::turbulentTemperatureCoupledBaffleMixed;
        refValue        nonuniform List<scalar> 
130
(
335.42026
336.19025
336.80735
337.25692
337.53198
337.63779
337.59644
337.44727
337.2539
337.11462
337.18074
337.692
338.79413
331.50713
331.70366
331.71895
331.56384
331.26053
330.84392
330.36182
329.87527
329.47337
329.3004
329.59513
330.75388
332.03006
332.02789
332.36446
332.50973
332.43918
332.13235
331.57962
330.79074
329.81291
328.75605
327.81442
327.35337
328.04859
329.98059
333.42273
334.29117
335.09498
335.81268
336.42055
336.8964
337.2273
337.42031
337.53709
337.79059
338.54578
339.32592
340.266
332.98905
333.97633
334.95676
335.91057
336.82597
337.69566
338.51513
339.28037
339.99141
340.6658
341.35849
342.16147
343.22001
332.98907
333.97634
334.95677
335.91058
336.82598
337.69567
338.51514
339.28038
339.99143
340.66582
341.35851
342.16149
343.22003
333.42274
334.29118
335.095
335.8127
336.42057
336.89643
337.22733
337.42034
337.53711
337.7906
338.5458
339.32593
340.26601
332.0279
332.36448
332.50975
332.4392
332.13236
331.57964
330.79075
329.81292
328.75606
327.81441
327.35335
328.04855
329.98055
331.50715
331.70367
331.71897
331.56386
331.26055
330.84393
330.36183
329.87527
329.47337
329.30039
329.59511
330.75385
332.03003
335.42026
336.19025
336.80735
337.25693
337.53199
337.6378
337.59645
337.44727
337.25391
337.11462
337.18074
337.692
338.79413
)
;
        refGradient     uniform 0;
        valueFraction   nonuniform List<scalar> 
130
(
0.00032132529
0.00032132529
0.00032132529
0.00032132529
0.00032132529
0.00032132529
0.00032132529
0.00032132529
0.00032132529
0.00032132529
0.00032132529
0.00032132529
0.00032132529
0.00032132529
0.00032132529
0.00032132529
0.00032132529
0.00032132529
0.00032132529
0.00032132529
0.00032132529
0.00032132529
0.00032132529
0.00032132529
0.00032132529
0.00032132529
0.00032132529
0.00032132529
0.00032132529
0.00032132529
0.00032132529
0.00032132529
0.00032132529
0.00032132529
0.00032132529
0.00032132529
0.00032132529
0.00032132529
0.00032132529
0.00032132529
0.00032132529
0.00032132529
0.00032132529
0.00032132529
0.00032132529
0.00032132529
0.00032132529
0.00032132529
0.00032132529
0.00032132529
0.00032132529
0.00032132529
0.00032132529
0.00032132529
0.00032132529
0.00032132529
0.00032132529
0.00032132529
0.00032132529
0.00032132529
0.00032132529
0.00032132529
0.00032132529
0.00032132529
0.00032132529
0.00032132529
0.00032132529
0.00032132529
0.00032132529
0.00032132529
0.00032132529
0.00032132529
0.00032132529
0.00032132529
0.00032132529
0.00032132529
0.00032132529
0.00032132529
0.00032132529
0.00032132529
0.00032132529
0.00032132529
0.00032132529
0.00032132529
0.00032132529
0.00032132529
0.00032132529
0.00032132529
0.00032132529
0.00032132529
0.00032132529
0.00032132529
0.00032132529
0.00032132529
0.00032132529
0.00032132529
0.00032132529
0.00032132529
0.00032132529
0.00032132529
0.00032132529
0.00032132529
0.00032132529
0.00032132529
0.00032132529
0.00032132529
0.00032132529
0.00032132529
0.00032132529
0.00032132529
0.00032132529
0.00032132529
0.00032132529
0.00032132529
0.00032132529
0.00032132529
0.00032132529
0.00032132529
0.00032132529
0.00032132529
0.00032132529
0.00032132529
0.00032132529
0.00032132529
0.00032132529
0.00032132529
0.00032132529
0.00032132529
0.00032132529
0.00032132529
)
;
        value           nonuniform List<scalar> 
130
(
373.67468
373.94344
374.13749
374.27203
374.3684
374.45528
374.57427
374.68337
374.76559
374.8141
374.80007
374.73261
374.67196
373.41051
373.77592
374.05496
374.25723
374.39148
374.49964
374.63869
374.76575
374.84102
374.87171
374.83301
374.75423
374.685
372.61823
373.2245
373.72157
374.07913
374.30946
374.46021
374.60823
374.75664
374.81757
374.87148
374.86265
374.81315
374.76086
371.27513
372.3559
373.17079
373.7391
374.10062
374.33754
374.53128
374.69604
374.79745
374.87205
374.90137
374.88109
374.84161
369.63279
371.52207
372.72011
373.45885
373.92221
374.231
374.47705
374.6703
374.80979
374.89962
374.92257
374.90881
374.87738
369.63283
371.52209
372.72011
373.45885
373.92221
374.231
374.47705
374.6703
374.80979
374.89962
374.92257
374.90881
374.87738
371.27517
372.35593
373.17081
373.73911
374.10063
374.33755
374.53128
374.69605
374.79745
374.87206
374.90137
374.88109
374.8416
372.61827
373.22453
373.7216
374.07915
374.30947
374.46022
374.60824
374.75664
374.81757
374.87148
374.86265
374.81315
374.76085
373.41057
373.77597
374.05499
374.25726
374.39149
374.49965
374.6387
374.76575
374.84102
374.87171
374.833
374.75422
374.685
373.67481
373.94352
374.13755
374.27207
374.36842
374.45529
374.57427
374.68337
374.76559
374.8141
374.80006
374.73261
374.67196
)
;
        Tnbr            T;
        thicknessLayers List<scalar> 0();
        kappaLayers     List<scalar> 0();
        kappaMethod     solidThermo;
        kappa           none;
        alphaAni        none;
        alpha           none;
        field           T;
    }
    rightSolid_to_heater
    {
        type            compressible::turbulentTemperatureCoupledBaffleMixed;
        refValue        nonuniform List<scalar> 10(373.48358 373.10474 372.04714 370.07238 366.72336 366.72345 370.07242 372.04718 373.1048 373.48378);
        refGradient     uniform 0;
        valueFraction   nonuniform List<scalar> 10(0.50000003 0.50000003 0.50000003 0.50000003 0.50000003 0.50000003 0.50000003 0.50000003 0.50000003 0.50000003);
        value           nonuniform List<scalar> 10(373.58528 373.26436 372.33921 370.67984 368.18396 368.18403 370.67988 372.33925 373.26442 373.58544);
        Tnbr            T;
        thicknessLayers List<scalar> 0();
        kappaLayers     List<scalar> 0();
        kappaMethod     solidThermo;
        kappa           none;
        alphaAni        none;
        alpha           none;
        field           T;
    }
}


// ************************************************************************* //
