/*--------------------------------*- C++ -*----------------------------------*\
| =========                 |                                                 |
| \\      /  F ield         | OpenFOAM: The Open Source CFD Toolbox           |
|  \\    /   O peration     | Version:  v2012                                 |
|   \\  /    A nd           | Website:  www.openfoam.com                      |
|    \\/     M anipulation  |                                                 |
\*---------------------------------------------------------------------------*/
FoamFile
{
    version     2.0;
    format      ascii;
    class       volScalarField;
    location    "60/heater";
    object      T;
}
// * * * * * * * * * * * * * * * * * * * * * * * * * * * * * * * * * * * * * //

dimensions      [0 0 0 1 0 0 0];


internalField   nonuniform List<scalar> 
80
(
488.23551
488.57655
489.27296
490.27685
485.60361
486.0492
486.96771
488.30668
479.7487
480.40167
481.80457
483.93891
469.55623
470.40671
472.53865
476.20237
330.97676
327.73102
327.75112
331.02457
376.85402
372.49957
372.57814
377.04352
410.51224
406.23467
406.44431
411.02396
433.9157
430.13731
430.66352
435.23773
448.30061
445.61393
446.86664
451.71103
453.90691
454.23599
456.80978
462.85728
330.97679
327.7311
327.75104
331.02444
376.85404
372.49959
372.57804
377.04333
410.51219
406.23462
406.44419
411.02376
433.91594
430.13734
430.66341
435.23745
448.30122
445.61414
446.86677
451.71162
453.90714
454.23615
456.80994
462.85757
469.55648
470.40694
472.53882
476.20251
479.74858
480.4017
481.80525
483.93944
485.60334
486.04914
486.96823
488.3072
488.23518
488.57644
489.2733
490.27723
)
;

boundaryField
{
    minY
    {
        type            fixedValue;
        value           uniform 300;
    }
    minZ
    {
        type            zeroGradient;
    }
    maxZ
    {
        type            zeroGradient;
    }
    heater_to_topAir
    {
        type            compressible::turbulentTemperatureCoupledBaffleMixed;
        refValue        nonuniform List<scalar> 
40
(
378.02151
380.40379
382.28068
383.58705
369.75108
370.45403
370.49773
369.95126
371.82044
373.14603
373.89156
373.95977
374.62588
376.9379
379.16108
381.31564
374.3769
376.21501
378.07653
380.09455
374.37696
376.21507
378.07659
380.09461
374.62594
376.93798
379.16117
381.31576
371.82043
373.14601
373.89156
373.95976
369.75106
370.45401
370.49772
369.95126
378.0215
380.40377
382.28068
383.58706
)
;
        refGradient     uniform 0;
        valueFraction   nonuniform List<scalar> 
40
(
0.00032132529
0.00032132529
0.00032132529
0.00032132529
0.00032132529
0.00032132529
0.00032132529
0.00032132529
0.00032132529
0.00032132529
0.00032132529
0.00032132529
0.00032132529
0.00032132529
0.00032132529
0.00032132529
0.00032132529
0.00032132529
0.00032132529
0.00032132529
0.00032132529
0.00032132529
0.00032132529
0.00032132529
0.00032132529
0.00032132529
0.00032132529
0.00032132529
0.00032132529
0.00032132529
0.00032132529
0.00032132529
0.00032132529
0.00032132529
0.00032132529
0.00032132529
0.00032132529
0.00032132529
0.00032132529
0.00032132529
)
;
        value           nonuniform List<scalar> 
40
(
488.15958
488.5011
489.19752
490.201
485.52698
485.97243
486.89022
488.22795
479.67683
480.32972
481.73179
483.86455
469.49195
470.34249
472.4736
476.13544
453.85252
454.18164
456.75422
462.79848
453.85275
454.1818
456.75437
462.79877
469.49221
470.34272
472.47376
476.13558
479.67671
480.32975
481.73246
483.86508
485.52671
485.97238
486.89074
488.22847
488.15925
488.50098
489.19786
490.20138
)
;
        Tnbr            T;
        thicknessLayers List<scalar> 0();
        kappaLayers     List<scalar> 0();
        kappaMethod     solidThermo;
        kappa           none;
        alphaAni        none;
        alpha           none;
        field           T;
    }
    heater_to_rightSolid
    {
        type            compressible::turbulentTemperatureCoupledBaffleMixed;
        refValue        nonuniform List<scalar> 10(491.47269 489.90804 486.55666 481.16416 474.4995 474.50009 481.16436 486.55698 489.90832 491.47286);
        refGradient     uniform 0;
        valueFraction   nonuniform List<scalar> 10(0.49999997 0.49999997 0.49999997 0.49999997 0.49999997 0.49999997 0.49999997 0.49999997 0.49999997 0.49999997);
        value           nonuniform List<scalar> 10(490.85398 489.08701 485.22826 478.66504 468.66228 468.66272 478.66521 485.22869 489.0874 490.85425);
        Tnbr            T;
        thicknessLayers List<scalar> 0();
        kappaLayers     List<scalar> 0();
        kappaMethod     solidThermo;
        kappa           none;
        alphaAni        none;
        alpha           none;
        field           T;
    }
    heater_to_leftSolid
    {
        type            compressible::turbulentTemperatureCoupledBaffleMixed;
        refValue        nonuniform List<scalar> 10(499.05491 498.9754 498.74297 498.29838 497.82765 497.82821 498.29862 498.74301 498.97542 499.05489);
        refGradient     uniform 0;
        valueFraction   nonuniform List<scalar> 10(2.0832898e-05 2.0832898e-05 2.0832898e-05 2.0832898e-05 2.0832898e-05 2.0832898e-05 2.0832898e-05 2.0832898e-05 2.0832898e-05 2.0832898e-05);
        value           nonuniform List<scalar> 10(488.19521 485.56448 479.7119 469.52305 453.87898 453.87921 469.5233 479.71178 485.56421 488.19488);
        Tnbr            T;
        thicknessLayers List<scalar> 1(0.001);
        kappaLayers     List<scalar> 1(0.0005);
        kappaMethod     solidThermo;
        kappa           none;
        alphaAni        none;
        alpha           none;
        field           T;
    }
    heater_to_bottomWater
    {
        type            compressible::turbulentTemperatureCoupledBaffleMixed;
        refValue        nonuniform List<scalar> 
92
(
1024.2321
1020.7416
1020.5323
1024.0616
1024.5749
1020.5529
1020.3054
1024.368
1021.3107
1016.5044
1016.1751
1021.129
995.41457
997.68928
997.84673
995.49882
1000.6276
998.14805
998.18326
1000.6887
998.83795
994.56816
994.5354
998.83601
1004.2784
995.41952
995.42228
1004.3939
1001.1543
1001.1543
995.99923
995.99923
996.02154
996.02154
1001.1632
1001.1632
1014.9181
1014.8302
1016.0529
1015.9634
1011.4634
1011.3836
994.37106
994.21805
974.58926
973.8232
1014.9104
995.44079
997.75977
997.79997
1014.8255
995.46344
1016.0452
1000.6579
998.17501
998.16434
1015.9527
1000.6602
1011.4574
998.83105
994.55686
994.52155
1011.3755
998.81563
994.39788
1004.315
995.4229
995.39577
994.17626
1004.326
974.69818
1001.1789
996.02254
995.99647
973.96751
1001.1348
1001.1789
996.02254
995.99647
1001.1348
1021.2827
1016.453
1016.2868
1021.1624
1024.5448
1020.5159
1020.372
1024.4052
1024.2208
1020.7158
1020.5726
1024.0768
)
;
        refGradient     uniform 0;
        valueFraction   nonuniform List<scalar> 
92
(
0.0075140686
0.0075140686
0.0075140686
0.0075140686
0.0075140686
0.0075140686
0.0075140686
0.0075140686
0.0075140686
0.0075140686
0.0075140686
0.0075140686
0.0075140686
0.0075140686
0.0075140686
0.0075140686
0.0075140686
0.0075140686
0.0075140686
0.0075140686
0.0075140686
0.0075140686
0.0075140686
0.0075140686
0.0075140686
0.0075140686
0.0075140686
0.0075140686
0.0075140686
0.0075140686
0.0075140686
0.0075140686
0.0075140686
0.0075140686
0.0075140686
0.0075140686
0.0075140679
0.0075140679
0.0075140679
0.0075140679
0.0075140679
0.0075140679
0.0075140679
0.0075140679
0.0075140679
0.0075140679
0.0075140679
0.0075140686
0.0075140686
0.0075140686
0.0075140679
0.0075140686
0.0075140679
0.0075140686
0.0075140686
0.0075140686
0.0075140679
0.0075140686
0.0075140679
0.0075140686
0.0075140686
0.0075140686
0.0075140679
0.0075140686
0.0075140679
0.0075140686
0.0075140686
0.0075140686
0.0075140679
0.0075140686
0.0075140679
0.0075140686
0.0075140686
0.0075140686
0.0075140679
0.0075140686
0.0075140686
0.0075140686
0.0075140686
0.0075140686
0.0075140686
0.0075140686
0.0075140686
0.0075140686
0.0075140686
0.0075140686
0.0075140686
0.0075140686
0.0075140686
0.0075140686
0.0075140686
0.0075140686
)
;
        value           nonuniform List<scalar> 
92
(
492.2228
492.53488
493.22412
494.24647
489.61436
490.02616
490.93547
492.29428
483.78111
484.39276
485.78203
487.93665
335.96678
332.76245
332.78357
336.01484
381.53315
377.19263
377.27085
381.7216
414.91964
410.64191
410.84963
415.4273
438.18276
434.36587
434.88794
439.4952
473.51717
452.43076
474.3221
449.72522
476.43734
450.96819
480.11079
455.8143
336.11333
336.16009
381.64906
381.83638
415.01451
415.52158
438.10832
439.41874
452.23114
455.60887
336.1133
335.96701
332.76306
332.78314
336.15993
336.01445
381.64901
381.53339
377.19286
377.27061
381.83611
381.7212
415.01442
414.91954
410.64177
410.84941
415.52132
415.42695
438.10875
438.18327
434.36593
434.88764
439.41815
439.49442
452.23256
452.43154
449.7256
450.96813
455.61054
455.81467
473.5176
474.32251
476.43732
480.11071
483.78078
484.39241
485.78354
487.93743
489.61387
490.02583
490.93649
492.29507
492.22239
492.53457
493.22476
494.24697
)
;
        Tnbr            T;
        thicknessLayers List<scalar> 0();
        kappaLayers     List<scalar> 0();
        kappaMethod     solidThermo;
        kappa           none;
        alphaAni        none;
        alpha           none;
        field           T;
    }
}


// ************************************************************************* //
