/*--------------------------------*- C++ -*----------------------------------*\
| =========                 |                                                 |
| \\      /  F ield         | OpenFOAM: The Open Source CFD Toolbox           |
|  \\    /   O peration     | Version:  v2012                                 |
|   \\  /    A nd           | Website:  www.openfoam.com                      |
|    \\/     M anipulation  |                                                 |
\*---------------------------------------------------------------------------*/
FoamFile
{
    version     2.0;
    format      ascii;
    class       volScalarField;
    location    "210/bottomWater";
    object      p;
}
// * * * * * * * * * * * * * * * * * * * * * * * * * * * * * * * * * * * * * //

dimensions      [1 -1 -2 0 0 0 0];


internalField   nonuniform List<scalar> 
1460
(
353.38831
353.39873
353.39752
353.39037
353.40014
353.40722
353.40326
353.40396
353.40347
353.39651
353.40883
353.41572
353.41713
353.42009
353.40698
353.41553
353.39512
353.41801
353.41163
353.41225
353.40998
353.41423
353.41457
353.43052
353.4071
353.42712
353.41739
353.42542
353.42125
353.41695
274.48904
274.50252
274.48748
274.4916
274.49534
274.49982
274.46637
274.45355
274.45853
274.4608
274.49749
274.5054
274.4644
274.45142
274.49185
274.50914
274.46829
274.51711
274.51314
274.45388
274.48044
274.49259
274.51061
274.51212
274.4699
274.51122
274.50269
274.51893
274.49848
274.48259
196.27905
196.24338
196.27011
196.28242
196.25149
196.22698
196.24122
196.25824
196.26578
196.24415
196.235
196.24115
196.28098
196.26583
196.25859
196.25635
196.294
196.24038
196.25009
196.24931
196.26977
196.2403
196.26181
196.25066
196.29059
196.2409
196.25801
196.25964
196.2562
196.26596
117.69889
117.68887
117.68942
117.69625
117.67728
117.66132
117.64619
117.68668
117.69063
117.65771
117.67225
117.68591
117.68503
117.69999
117.67487
117.68795
117.66504
117.65681
117.64902
117.66514
117.635
117.65205
117.68211
117.69211
117.66761
117.65385
117.66279
117.68248
117.67866
117.65946
39.234515
39.223918
39.240498
39.229159
39.223353
39.242255
39.251522
39.253861
39.257332
39.261264
39.25141
39.231243
39.252798
39.230731
39.226967
39.227368
39.217862
39.226459
39.234822
39.232761
39.25272
39.227036
39.228849
39.229033
39.230794
39.244701
39.22944
39.227845
39.221008
39.236071
353.39854
353.39979
353.41274
353.40613
353.40316
353.40292
353.39921
353.40248
353.4078
353.40841
353.40556
353.40599
353.41803
353.41271
353.41062
353.4033
353.40024
353.3999
353.4015
353.40675
353.40578
353.40175
353.40218
353.40729
353.42367
353.42577
353.41884
353.42943
353.41094
353.41693
274.4745
274.48561
274.52855
274.5013
274.46544
274.45806
274.45881
274.4463
274.44857
274.44771
274.44674
274.48942
274.51167
274.50135
274.49357
274.46929
274.45705
274.46697
274.46317
274.4429
274.44856
274.45669
274.45943
274.45294
274.47515
274.46594
274.45331
274.48493
274.44683
274.44631
196.25843
196.23224
196.21788
196.21707
196.23935
196.24635
196.25909
196.27085
196.29263
196.28129
196.2434
196.23195
196.22393
196.24307
196.2636
196.28272
196.28066
196.27821
196.26094
196.27989
196.27994
196.2483
196.27
196.26906
196.24971
196.26445
196.25982
196.22176
196.24427
196.25934
117.67284
117.65729
117.66806
117.66394
117.65901
117.67452
117.65737
117.67721
117.689
117.68638
117.65996
117.65362
117.6576
117.66722
117.67226
117.64636
117.65415
117.63837
117.62795
117.66235
117.65736
117.62129
117.64907
117.62891
117.61554
117.61155
117.63277
117.6331
117.63719
117.67005
39.228982
39.235558
39.248026
39.235274
39.237326
39.240806
39.250624
39.252742
39.264375
39.26372
39.250567
39.245134
39.245334
39.227872
39.225057
39.225828
39.228523
39.260366
39.261345
39.245826
39.245496
39.236458
39.228191
39.224833
39.243861
39.264387
39.242951
39.244263
39.236542
39.237941
353.39991
353.39475
353.41782
353.40605
353.41419
353.40508
353.4128
353.39998
353.40199
353.40769
353.40854
353.40541
353.40324
353.41434
353.41342
353.40843
353.40878
353.41172
353.40869
353.41288
353.41142
353.4096
353.41049
353.41143
353.41308
353.41709
353.41377
353.41122
353.41388
353.41568
274.46611
274.47686
274.50398
274.47021
274.44664
274.47829
274.49203
274.46363
274.45453
274.44853
274.44961
274.45802
274.46312
274.49291
274.50014
274.47075
274.46217
274.45574
274.44471
274.44321
274.44066
274.4628
274.45132
274.44724
274.44375
274.42999
274.43892
274.45187
274.4382
274.44438
196.26136
196.2461
196.21787
196.28468
196.24825
196.27971
196.23111
196.25951
196.25368
196.28876
196.28687
196.26179
196.25319
196.251
196.25311
196.26491
196.27962
196.28408
196.28926
196.3086
196.28871
196.26875
196.28079
196.2742
196.29171
196.29098
196.30028
196.27316
196.29089
196.31548
117.6888
117.65548
117.68292
117.65583
117.69514
117.63468
117.66719
117.65587
117.66754
117.6804
117.67783
117.66046
117.65979
117.66992
117.64628
117.63126
117.63518
117.6504
117.6696
117.68374
117.69457
117.6354
117.68156
117.67119
117.65523
117.68513
117.68759
117.64563
117.68337
117.68753
39.24166
39.254128
39.252469
39.254296
39.267622
39.2771
39.260306
39.247651
39.25955
39.261655
39.255463
39.242563
39.240158
39.228908
39.231216
39.249066
39.267738
39.263187
39.256801
39.266911
39.266033
39.268333
39.252445
39.255446
39.262905
39.270047
39.262136
39.27452
39.258444
39.260119
353.39589
353.39333
353.38906
353.40064
353.40178
353.40746
353.40907
353.40704
353.40371
353.4025
353.40723
353.39706
353.4002
353.39844
353.39961
353.40093
353.39851
353.40414
353.40344
353.40153
353.39693
353.41243
353.40105
353.40903
353.41163
353.4233
353.41214
353.42586
353.4048
353.41471
274.46009
274.45642
274.45996
274.45005
274.46174
274.49092
274.52288
274.49843
274.47597
274.46375
274.48893
274.45904
274.46045
274.47349
274.46901
274.45706
274.4496
274.44922
274.45068
274.44822
274.45798
274.48364
274.46858
274.4573
274.43717
274.43329
274.4375
274.47804
274.45639
274.45083
196.28762
196.26443
196.25657
196.25765
196.24708
196.22807
196.23331
196.24555
196.24699
196.26409
196.26492
196.26974
196.29439
196.28639
196.28176
196.28997
196.29587
196.29715
196.28678
196.26019
196.2497
196.23262
196.26507
196.25749
196.27757
196.29578
196.27097
196.23065
196.25857
196.28041
117.68572
117.68046
117.66559
117.69146
117.66051
117.65318
117.66295
117.6729
117.6535
117.66222
117.63087
117.65642
117.66886
117.65369
117.64055
117.66198
117.67456
117.68244
117.68213
117.66902
117.64421
117.6506
117.6523
117.63886
117.66421
117.67982
117.66342
117.65372
117.65148
117.67748
39.249113
39.248127
39.246464
39.241955
39.23978
39.239961
39.232999
39.221181
39.241245
39.239426
39.25458
39.232602
39.224301
39.24898
39.255802
39.229845
39.238786
39.241525
39.248707
39.246321
39.25501
39.235588
39.256568
39.25963
39.247479
39.273166
39.252217
39.257042
39.25165
39.239203
353.39791
353.39248
353.40732
353.40721
353.40678
353.40151
353.41113
353.41273
353.41421
353.4073
353.40754
353.4162
353.40018
353.41119
353.40486
353.40316
353.41552
353.42298
353.42147
353.42573
353.42057
353.42132
353.42057
353.41954
353.41754
353.41484
274.46991
274.47715
274.50106
274.50004
274.45126
274.4693
274.50097
274.52278
274.50367
274.47034
274.45734
274.48929
274.46672
274.45209
274.44921
274.45829
274.49379
274.51855
274.50655
274.48192
274.45548
274.45066
274.48561
274.50328
274.47527
274.45934
196.27024
196.24579
196.23088
196.24415
196.24644
196.25868
196.23407
196.24393
196.24494
196.22676
196.26914
196.22891
196.27202
196.29658
196.26799
196.24266
196.23559
196.25203
196.2487
196.24399
196.2693
196.2563
196.23068
196.25416
196.24739
196.28735
117.7013
117.67351
117.68632
117.66838
117.70834
117.65223
117.6831
117.6936
117.68067
117.64396
117.68837
117.65443
117.67768
117.6905
117.67043
117.66453
117.67528
117.69019
117.68104
117.66504
117.64211
117.65621
117.64401
117.66424
117.67804
117.69501
39.23934
39.237564
39.231567
39.249388
39.238207
39.226478
39.220965
39.224897
39.225159
39.237403
39.248385
39.242425
39.231613
39.235661
39.230543
39.237277
39.230243
39.224565
39.224592
39.221068
39.226913
39.241362
39.247423
39.227457
39.225925
39.235599
353.39733
353.38958
353.40884
353.40902
353.40712
353.40579
353.41383
353.41463
353.40758
353.41481
353.39983
353.39907
353.40395
353.41653
353.41209
353.42393
353.42913
353.42914
353.43527
353.43917
353.44068
353.43628
353.4405
353.4378
353.43163
353.42118
274.46687
274.46543
274.51131
274.51673
274.45675
274.47086
274.50098
274.52126
274.51432
274.51566
274.46563
274.45478
274.45276
274.45145
274.44444
274.48562
274.52175
274.51017
274.50571
274.47625
274.44221
274.44847
274.48788
274.52293
274.49673
274.46863
196.26029
196.23516
196.22121
196.23468
196.25679
196.26611
196.23914
196.24883
196.25571
196.22454
196.23939
196.25231
196.27302
196.26777
196.24444
196.22084
196.23841
196.25569
196.2556
196.24568
196.27127
196.26581
196.22989
196.24033
196.25274
196.30778
117.69074
117.66655
117.67946
117.68608
117.69652
117.69061
117.70356
117.6975
117.6757
117.66495
117.66091
117.66507
117.68101
117.68658
117.65788
117.66186
117.66984
117.68437
117.69182
117.65393
117.65708
117.65229
117.65544
117.66082
117.67686
117.71239
39.246473
39.24811
39.242572
39.231844
39.226069
39.2244
39.228857
39.225747
39.224749
39.242301
39.244408
39.232101
39.234957
39.233568
39.236717
39.242172
39.230206
39.220835
39.229836
39.228206
39.236758
39.261051
39.257642
39.243884
39.22064
39.249726
353.3989
353.39879
353.39724
353.41052
353.40011
353.40381
353.40169
353.41311
353.41157
353.41781
353.40778
353.41044
353.41391
353.41325
353.41214
353.4087
353.40413
353.39933
353.41397
353.41518
353.42512
353.43659
353.4357
353.43304
353.43384
353.43467
353.42943
353.43268
353.43487
353.42948
274.46084
274.45381
274.47131
274.48635
274.46141
274.45377
274.46637
274.50001
274.51302
274.49511
274.45325
274.43479
274.43882
274.44321
274.44917
274.45765
274.45394
274.45958
274.44732
274.44564
274.48764
274.50293
274.46631
274.42663
274.42765
274.42753
274.42202
274.46029
274.49659
274.48632
196.29131
196.24894
196.25803
196.21319
196.26301
196.25515
196.25598
196.23886
196.24966
196.21514
196.23067
196.24619
196.29657
196.31547
196.30612
196.29844
196.28875
196.29777
196.28567
196.25453
196.23302
196.23197
196.24372
196.24764
196.28826
196.28078
196.23199
196.22652
196.21042
196.2484
117.68975
117.6899
117.66228
117.67214
117.67801
117.70125
117.68259
117.68913
117.67441
117.6566
117.64302
117.66741
117.68436
117.69001
117.69025
117.67845
117.65179
117.63184
117.6562
117.64661
117.64602
117.65741
117.65732
117.63074
117.66389
117.66526
117.63419
117.63758
117.62856
117.66592
39.253326
39.250855
39.256251
39.25644
39.244024
39.223503
39.220184
39.220664
39.218118
39.237636
39.248428
39.251246
39.258399
39.260045
39.247514
39.237318
39.233046
39.241614
39.250676
39.253264
39.247019
39.234826
39.226864
39.240966
39.255011
39.257418
39.248134
39.241709
39.229195
39.215966
353.39583
353.39754
353.40012
353.40211
353.40251
353.40115
353.3996
353.42096
353.41428
353.40753
353.40315
353.4021
353.40665
353.40779
353.40546
353.39562
353.42253
353.43828
353.4374
353.43262
353.44295
353.4321
353.43604
353.43622
353.43874
353.43835
353.43526
353.42871
353.42521
353.42232
274.45917
274.46939
274.45707
274.45391
274.47116
274.46163
274.47547
274.51518
274.49836
274.46331
274.45052
274.44428
274.45072
274.4446
274.45458
274.44393
274.4795
274.48042
274.41782
274.43793
274.46125
274.4385
274.41988
274.41453
274.41635
274.4188
274.41699
274.42544
274.44557
274.4508
196.28901
196.26848
196.28158
196.28325
196.27164
196.26606
196.23799
196.21691
196.22474
196.23261
196.24461
196.28076
196.29192
196.29039
196.27577
196.25865
196.23352
196.24697
196.27711
196.29276
196.2321
196.27509
196.25053
196.29473
196.31088
196.34489
196.31103
196.27326
196.27096
196.27561
117.68146
117.65159
117.68954
117.68477
117.65234
117.68632
117.66022
117.67414
117.66503
117.66332
117.66744
117.68046
117.67787
117.67974
117.68345
117.65702
117.64555
117.64286
117.68389
117.66345
117.66516
117.66446
117.67596
117.68477
117.70318
117.70363
117.68558
117.66914
117.64585
117.65182
39.249402
39.264776
39.255977
39.252858
39.264553
39.240117
39.248849
39.24024
39.229309
39.243608
39.241446
39.252796
39.258532
39.251156
39.243586
39.234003
39.242648
39.264655
39.262269
39.254894
39.249416
39.248514
39.251908
39.266743
39.28328
39.292137
39.279108
39.266027
39.267736
39.273847
353.39799
353.41173
353.40124
353.40458
353.40601
353.39726
353.42172
353.41385
353.41825
353.41925
353.4187
353.42207
353.42168
353.4104
353.40659
353.42504
353.43714
353.44007
353.43616
353.42794
353.42728
353.43611
353.42481
353.42848
353.4246
353.43061
353.43255
353.43031
353.42703
353.42534
274.4752
274.49092
274.46766
274.45645
274.4552
274.46565
274.48656
274.46608
274.44621
274.44424
274.46517
274.49528
274.48821
274.46372
274.46139
274.48807
274.4906
274.42167
274.42318
274.42778
274.44865
274.47455
274.44314
274.44499
274.4294
274.41735
274.41558
274.44644
274.4371
274.43024
196.26245
196.21947
196.24565
196.25137
196.25841
196.2438
196.21823
196.23912
196.25344
196.24466
196.25719
196.23327
196.23709
196.26253
196.26364
196.2278
196.23717
196.2775
196.30629
196.27742
196.25706
196.26063
196.28158
196.27257
196.26713
196.2891
196.28973
196.27506
196.28291
196.28508
117.68264
117.6661
117.66237
117.69611
117.69644
117.66085
117.67285
117.65809
117.68725
117.69416
117.65234
117.65549
117.65284
117.66603
117.66273
117.64834
117.64824
117.65528
117.68236
117.66483
117.62674
117.65864
117.64073
117.61022
117.61276
117.66067
117.67349
117.60467
117.62211
117.66416
39.235894
39.241519
39.233839
39.236888
39.234297
39.246507
39.25293
39.254052
39.244038
39.257679
39.229076
39.255968
39.244256
39.244131
39.22958
39.237091
39.255129
39.256763
39.276762
39.254124
39.253289
39.236434
39.239355
39.259911
39.266087
39.261468
39.261802
39.267462
39.243594
39.227295
353.39977
353.41116
353.40651
353.40558
353.40036
353.40073
353.40474
353.40776
353.4101
353.40971
353.41673
353.40397
353.41022
353.40127
353.41884
353.42593
353.43501
353.43817
353.43536
353.42852
353.43792
353.44349
353.44609
353.44466
353.44602
353.43323
353.43514
353.43964
353.4306
353.4228
274.49745
274.51999
274.51757
274.49513
274.47297
274.45401
274.44942
274.45031
274.44671
274.47714
274.48262
274.46365
274.4565
274.47176
274.49445
274.50983
274.48381
274.43803
274.4329
274.44744
274.4798
274.50903
274.50153
274.50152
274.48955
274.46354
274.44431
274.48788
274.47811
274.45618
196.26613
196.25301
196.25109
196.23146
196.24622
196.2561
196.27346
196.27547
196.26711
196.24471
196.23769
196.2763
196.26872
196.27591
196.24287
196.25191
196.22434
196.27178
196.2751
196.2677
196.23934
196.26173
196.24643
196.2569
196.24732
196.26326
196.26244
196.26419
196.26344
196.30143
117.67112
117.68272
117.68687
117.67006
117.65833
117.6771
117.67464
117.68637
117.68815
117.65512
117.68035
117.68437
117.70106
117.69875
117.69486
117.66761
117.6474
117.66575
117.67672
117.63724
117.66298
117.68719
117.69348
117.66171
117.65465
117.63343
117.63935
117.64613
117.66722
117.68235
39.246465
39.228344
39.227713
39.228477
39.250804
39.241665
39.247994
39.253329
39.250761
39.258071
39.234039
39.240861
39.235891
39.239366
39.23136
39.222268
39.244816
39.251203
39.25823
39.252925
39.232252
39.23366
39.236276
39.237718
39.246061
39.266693
39.253062
39.22324
39.222321
39.232034
)
;

boundaryField
{
    minX
    {
        type            calculated;
        value           nonuniform List<scalar> 
50
(
353.38831
274.48904
196.27905
117.69889
39.234515
353.39854
274.4745
196.25843
117.67284
39.228982
353.39991
274.46611
196.26136
117.6888
39.24166
353.39589
274.46009
196.28762
117.68572
39.249113
353.39791
274.46991
196.27024
117.7013
39.23934
353.39733
274.46687
196.26029
117.69074
39.246473
353.3989
274.46084
196.29131
117.68975
39.253326
353.39583
274.45917
196.28901
117.68146
39.249402
353.39799
274.4752
196.26245
117.68264
39.235894
353.39977
274.49745
196.26613
117.67112
39.246465
)
;
    }
    maxX
    {
        type            calculated;
        value           nonuniform List<scalar> 
50
(
353.41695
274.48259
196.26596
117.65946
39.236071
353.41693
274.44631
196.25934
117.67005
39.237941
353.41568
274.44438
196.31548
117.68753
39.260119
353.41471
274.45083
196.28041
117.67748
39.239203
353.41484
274.45934
196.28735
117.69501
39.235599
353.42118
274.46863
196.30778
117.71239
39.249726
353.42948
274.48632
196.2484
117.66592
39.215966
353.42232
274.4508
196.27561
117.65182
39.273847
353.42534
274.43024
196.28508
117.66416
39.227295
353.4228
274.45618
196.30143
117.68235
39.232034
)
;
    }
    minY
    {
        type            calculated;
        value           nonuniform List<scalar> 
292
(
392.4
392.4
392.4
392.4
392.4
392.4
392.4
392.4
392.4
392.4
392.4
392.4
392.4
392.4
392.4
392.4
392.4
392.4
392.4
392.4
392.4
392.4
392.4
392.4
392.4
392.4
392.4
392.4
392.4
392.4
392.4
392.4
392.4
392.4
392.4
392.4
392.4
392.4
392.4
392.4
392.4
392.4
392.4
392.4
392.4
392.4
392.4
392.4
392.4
392.4
392.4
392.4
392.4
392.4
392.4
392.4
392.4
392.4
392.4
392.4
392.4
392.4
392.4
392.4
392.4
392.4
392.4
392.4
392.4
392.4
392.4
392.4
392.4
392.4
392.4
392.4
392.4
392.4
392.4
392.4
392.4
392.4
392.4
392.4
392.4
392.4
392.4
392.4
392.4
392.4
392.4
392.4
392.4
392.4
392.4
392.4
392.4
392.4
392.4
392.4
392.4
392.4
392.4
392.4
392.4
392.4
392.4
392.4
392.4
392.4
392.4
392.4
392.4
392.4
392.4
392.4
392.4
392.4
392.4
392.4
392.4
392.4
392.4
392.4
392.4
392.4
392.4
392.4
392.4
392.4
392.4
392.4
392.4
392.4
392.4
392.4
392.4
392.4
392.4
392.4
392.4
392.4
392.4
392.4
392.4
392.4
392.4
392.4
392.4
392.4
392.4
392.4
392.4
392.4
392.4
392.4
392.4
392.4
392.4
392.4
392.4
392.4
392.4
392.4
392.4
392.4
392.4
392.4
392.4
392.4
392.4
392.4
392.4
392.4
392.4
392.4
392.4
392.4
392.4
392.4
392.4
392.4
392.4
392.4
392.4
392.4
392.4
392.4
392.4
392.4
392.4
392.4
392.4
392.4
392.4
392.4
392.4
392.4
392.4
392.4
392.4
392.4
392.4
392.4
392.4
392.4
392.4
392.4
392.4
392.4
392.4
392.4
392.4
392.4
392.4
392.4
392.4
392.4
392.4
392.4
392.4
392.4
392.4
392.4
392.4
392.4
392.4
392.4
392.4
392.4
392.4
392.4
392.4
392.4
392.4
392.4
392.4
392.4
392.4
392.4
392.4
392.4
392.4
392.4
392.4
392.4
392.4
392.4
392.4
392.4
392.4
392.4
392.4
392.4
392.4
392.4
392.4
392.4
392.4
392.4
392.4
392.4
392.4
392.4
392.4
392.4
392.4
392.4
392.4
392.4
392.4
392.4
392.4
392.4
392.4
392.4
392.4
392.4
392.4
392.4
392.4
392.4
392.4
392.4
392.4
392.4
392.4
392.4
392.4
392.4
392.4
392.4
)
;
    }
    minZ
    {
        type            calculated;
        value           nonuniform List<scalar> 
150
(
353.38831
274.48904
196.27905
117.69889
39.234515
353.39873
274.50252
196.24338
117.68887
39.223918
353.39752
274.48748
196.27011
117.68942
39.240498
353.39037
274.4916
196.28242
117.69625
39.229159
353.40014
274.49534
196.25149
117.67728
39.223353
353.40722
274.49982
196.22698
117.66132
39.242255
353.40326
274.46637
196.24122
117.64619
39.251522
353.40396
274.45355
196.25824
117.68668
39.253861
353.40347
274.45853
196.26578
117.69063
39.257332
353.39651
274.4608
196.24415
117.65771
39.261264
353.40883
274.49749
196.235
117.67225
39.25141
353.41572
274.5054
196.24115
117.68591
39.231243
353.41713
274.4644
196.28098
117.68503
39.252798
353.42009
274.45142
196.26583
117.69999
39.230731
353.40698
274.49185
196.25859
117.67487
39.226967
353.41553
274.50914
196.25635
117.68795
39.227368
353.39512
274.46829
196.294
117.66504
39.217862
353.41801
274.51711
196.24038
117.65681
39.226459
353.41163
274.51314
196.25009
117.64902
39.234822
353.41225
274.45388
196.24931
117.66514
39.232761
353.40998
274.48044
196.26977
117.635
39.25272
353.41423
274.49259
196.2403
117.65205
39.227036
353.41457
274.51061
196.26181
117.68211
39.228849
353.43052
274.51212
196.25066
117.69211
39.229033
353.4071
274.4699
196.29059
117.66761
39.230794
353.42712
274.51122
196.2409
117.65385
39.244701
353.41739
274.50269
196.25801
117.66279
39.22944
353.42542
274.51893
196.25964
117.68248
39.227845
353.42125
274.49848
196.2562
117.67866
39.221008
353.41695
274.48259
196.26596
117.65946
39.236071
)
;
    }
    maxZ
    {
        type            calculated;
        value           nonuniform List<scalar> 
150
(
353.39977
274.49745
196.26613
117.67112
39.246465
353.41116
274.51999
196.25301
117.68272
39.228344
353.40651
274.51757
196.25109
117.68687
39.227713
353.40558
274.49513
196.23146
117.67006
39.228477
353.40036
274.47297
196.24622
117.65833
39.250804
353.40073
274.45401
196.2561
117.6771
39.241665
353.40474
274.44942
196.27346
117.67464
39.247994
353.40776
274.45031
196.27547
117.68637
39.253329
353.4101
274.44671
196.26711
117.68815
39.250761
353.40971
274.47714
196.24471
117.65512
39.258071
353.41673
274.48262
196.23769
117.68035
39.234039
353.40397
274.46365
196.2763
117.68437
39.240861
353.41022
274.4565
196.26872
117.70106
39.235891
353.40127
274.47176
196.27591
117.69875
39.239366
353.41884
274.49445
196.24287
117.69486
39.23136
353.42593
274.50983
196.25191
117.66761
39.222268
353.43501
274.48381
196.22434
117.6474
39.244816
353.43817
274.43803
196.27178
117.66575
39.251203
353.43536
274.4329
196.2751
117.67672
39.25823
353.42852
274.44744
196.2677
117.63724
39.252925
353.43792
274.4798
196.23934
117.66298
39.232252
353.44349
274.50903
196.26173
117.68719
39.23366
353.44609
274.50153
196.24643
117.69348
39.236276
353.44466
274.50152
196.2569
117.66171
39.237718
353.44602
274.48955
196.24732
117.65465
39.246061
353.43323
274.46354
196.26326
117.63343
39.266693
353.43514
274.44431
196.26244
117.63935
39.253062
353.43964
274.48788
196.26419
117.64613
39.22324
353.4306
274.47811
196.26344
117.66722
39.222321
353.4228
274.45618
196.30143
117.68235
39.232034
)
;
    }
    bottomWater_to_rightSolid
    {
        type            calculated;
        value           nonuniform List<scalar> 
130
(
-0.013540638
-0.0051784888
-0.0072392777
0.012720296
-0.012963666
-0.01115079
-0.010966808
-0.0092055353
0.0047008558
-0.010560417
-0.012154828
-0.018992136
-0.0039292945
0.020365885
0.021344668
0.0058263338
0.0054957907
-0.0035417015
-0.011808961
-0.0151673
0.0038614611
0.024387364
0.0029507339
0.0042631382
-0.0034576203
-0.0020585366
0.023186899
0.016800564
0.026910671
0.026032695
0.028332584
0.012445239
0.015445962
0.022905305
0.030047453
0.022136036
0.03451986
0.018444279
0.020119448
0.0015253488
0.0087068496
0.0063207327
0.015009726
-0.004411635
0.016567862
0.019630427
0.0074792871
0.033166125
0.012217081
0.017041868
0.011650349
-0.0007973422
-0.0043385795
-0.0094567289
-0.0027227046
-0.0097566642
-0.015435098
-0.015407709
-0.018931801
-0.013086555
0.0013619107
0.007423115
-0.012542642
-0.014074944
-0.0044010533
-0.0064317369
-0.0032826399
0.0021719133
-0.0097944748
-0.019164977
-0.01016381
-0.011794157
-0.0032420205
0.021051268
0.017641742
0.0038839713
-0.019359931
0.0097259994
0.0016136732
0.010675759
0.013263713
0.0070189358
-0.0051740025
-0.013135752
0.00096578216
0.015011099
0.017417688
0.0081342264
0.0017090959
-0.010805411
-0.024033571
0.024655048
0.022269352
0.014894096
0.0094155696
0.0085140064
0.011907892
0.026743043
0.043279973
0.052137408
0.039108188
0.026026862
0.027735826
0.033847027
0.016763004
0.036762274
0.014123778
0.013288733
-0.0035657297
-0.00064460715
0.019911086
0.026087007
0.021467667
0.021802298
0.027461687
0.0035939677
-0.012704808
0.011202567
0.018229945
0.012925199
-0.0077482077
-0.0063396375
-0.0037235929
-0.0022819229
0.0060610402
0.026693257
0.013061523
-0.016760378
-0.017679141
-0.0079661016
)
;
    }
    bottomWater_to_leftSolid
    {
        type            calculated;
        value           nonuniform List<scalar> 
130
(
-0.0054854063
-0.016081665
0.00049824675
-0.010841461
-0.016646669
0.0022550499
0.011521588
0.013861153
0.017331646
0.021263546
0.011410469
-0.0087573681
0.01279764
-0.011018247
-0.0044423089
0.0080257873
-0.0047259512
-0.0026741971
0.00080626504
0.010623787
0.012741983
0.024374911
0.023720294
0.010567
0.0051340197
0.0053344446
0.0016600181
0.014128191
0.012468962
0.01429648
0.027622094
0.037099891
0.02030617
0.0076510762
0.019550487
0.02165537
0.015462631
0.0025625635
0.00015841656
0.0091129303
0.0081272001
0.0064643989
0.0019547348
-0.00021966773
-3.8630544e-05
-0.0070009366
-0.018819483
0.0012451368
-0.00057373471
0.014579555
-0.0073979951
-0.015699204
-0.00065983825
-0.002436454
-0.0084328687
0.0093881583
-0.0017925588
-0.013522008
-0.019035121
-0.015102913
-0.014840659
-0.0025972116
0.0083848568
0.002425295
-0.0083871313
0.006473494
0.0081100846
0.0025723556
-0.008156351
-0.013931358
-0.01560007
-0.011142618
-0.014253204
-0.015251027
0.0023005064
0.0044080254
-0.007898649
-0.0050430451
0.01332621
0.010854768
0.016250687
0.016439596
0.0040238231
-0.016497453
-0.019815959
-0.019336014
-0.021881702
-0.0023643997
0.0084283337
0.011245699
0.018399292
0.0094020108
0.024775789
0.015977361
0.01285839
0.024553028
0.00011659893
0.0088491917
0.00024020112
-0.010691265
0.0036080503
0.0014455705
0.012795518
0.018531924
-0.0041059536
0.0015188941
-0.00616098
-0.0031123589
-0.0057031065
0.006506888
0.012930367
0.014052262
0.0040384625
0.017679491
-0.010923677
0.015968296
0.0042561646
0.0064654289
-0.011655639
-0.012287001
-0.011523089
0.010803902
0.0016646039
0.0079939384
0.013329155
0.010761023
0.018070528
-0.0059606697
0.00086064289
-0.0041089093
)
;
    }
    bottomWater_to_heater
    {
        type            calculated;
        value           nonuniform List<scalar> 
92
(
-0.0092694812
-0.013033038
-0.012631814
-0.02213827
-0.012128432
-0.014942946
-0.014172056
-0.011476815
-0.011091636
-0.0087840867
0.009066279
0.027737641
353.39844
353.39961
353.40093
353.39851
274.47349
274.46901
274.45706
274.4496
196.28639
196.28176
196.28997
196.29587
117.65369
117.64055
117.66198
117.67456
0.0089798953
39.24898
0.015801795
39.255802
-0.01015543
39.229845
-0.0012137416
39.238786
353.40018
353.41119
274.46672
274.45209
196.27202
196.29658
117.67768
117.6905
39.231613
39.235661
353.40395
353.41325
353.41214
353.4087
353.41653
353.40413
274.45276
274.44321
274.44917
274.45765
274.45145
274.45394
196.27302
196.31547
196.30612
196.29844
196.26777
196.28875
117.68101
117.69001
117.69025
117.67845
117.68658
117.65179
39.234957
39.260045
39.247514
39.237318
39.233568
39.233046
0.020044999
0.0075138349
-0.0026818236
-0.0069543628
0.011156368
0.0035860265
-0.0059973095
0.0026475757
0.0041311341
-0.010420281
-0.0029085199
0.0151287
-0.00063426184
-0.0086401926
-0.017731757
0.0048164137
)
;
    }
}


// ************************************************************************* //
