/*--------------------------------*- C++ -*----------------------------------*\
| =========                 |                                                 |
| \\      /  F ield         | OpenFOAM: The Open Source CFD Toolbox           |
|  \\    /   O peration     | Version:  v2012                                 |
|   \\  /    A nd           | Website:  www.openfoam.com                      |
|    \\/     M anipulation  |                                                 |
\*---------------------------------------------------------------------------*/
FoamFile
{
    version     2.0;
    format      ascii;
    class       volScalarField;
    location    "680/rightSolid";
    object      T;
}
// * * * * * * * * * * * * * * * * * * * * * * * * * * * * * * * * * * * * * //

dimensions      [0 0 0 1 0 0 0];


internalField   nonuniform List<scalar> 
130
(
751.0947
759.17065
767.59203
775.92967
783.85908
791.16674
797.71161
803.40352
808.19565
812.06534
814.99425
816.96129
817.94076
745.33481
754.72988
764.31495
773.59222
782.22905
790.04969
796.95793
802.90343
807.8698
811.8594
814.86463
816.87089
817.8667
733.72477
746.16299
758.24702
769.39885
779.37807
788.13704
795.68858
802.07245
807.33957
811.53299
814.65769
816.73637
817.76982
716.35423
734.5719
750.67756
764.48891
776.19968
786.07857
794.35887
801.23158
806.82012
811.19959
814.43826
816.58312
817.6544
695.83956
723.57718
744.45732
760.81332
773.95904
784.68074
793.47553
800.67104
806.45049
810.94366
814.24362
816.42057
817.50703
695.95717
723.66328
744.50643
760.83717
773.96253
784.66258
793.42742
800.58096
806.34008
810.82799
814.12237
816.29404
817.37652
716.66394
734.77687
750.7822
764.51768
776.16983
786.00095
794.228
801.0316
806.55098
810.89252
814.1235
816.26899
817.34358
734.17097
746.45905
758.38658
769.42004
779.31442
788.00437
795.48859
801.80657
807.00654
811.13923
814.24867
816.32907
817.36903
745.84242
755.06496
764.46269
773.58987
782.12599
789.87038
796.71309
802.59842
807.51278
811.46866
814.45193
816.4461
817.44383
751.58758
759.49332
767.72924
775.91584
783.73966
790.96797
797.44712
803.0816
807.82759
811.67323
814.57866
816.52009
817.49144
)
;

boundaryField
{
    maxX
    {
        type            zeroGradient;
    }
    minZ
    {
        type            zeroGradient;
    }
    maxZ
    {
        type            zeroGradient;
    }
    rightSolid_to_bottomWater
    {
        type            compressible::turbulentTemperatureCoupledBaffleMixed;
        refValue        nonuniform List<scalar> 
130
(
918.42429
919.41849
920.25008
920.79959
920.07773
919.81163
919.98438
919.59283
919.17201
919.59293
921.44907
924.39901
923.41363
917.42316
918.6201
919.93302
922.45718
921.82195
921.36947
921.56731
921.38016
920.6928
921.70395
924.58842
926.25031
924.3399
914.28108
915.43079
919.17652
921.19835
920.20447
920.75592
921.46595
921.08953
921.23191
925.84378
927.22063
929.43141
928.52199
909.28071
915.92539
918.23223
919.35082
918.82952
919.03407
918.94895
921.42155
925.9468
927.45029
928.84553
930.41284
931.62455
906.12027
913.59188
916.09818
916.31888
916.48953
916.82438
917.77879
923.51783
926.42905
927.77445
927.92396
929.09936
930.53108
912.3582
916.55642
917.05558
917.85475
918.31713
918.29726
917.95848
917.84447
921.38345
926.09076
926.3372
926.98245
927.79327
920.70642
918.06562
917.77629
918.54564
917.53616
918.50416
918.7895
918.85044
918.65502
921.01224
926.03066
928.97952
931.30988
926.45241
920.56663
918.4072
919.52009
919.06549
919.90709
919.79876
919.83953
919.51876
919.04723
924.0662
928.68552
929.97385
927.62815
925.57369
919.54863
918.60696
919.12849
919.41642
920.10366
920.04913
919.49215
922.73505
926.22267
928.00717
928.40049
924.24014
923.47562
918.71316
917.54828
917.88168
918.40076
919.16882
918.58927
918.03894
922.38665
924.9572
925.6128
925.54184
)
;
        refGradient     uniform 0;
        valueFraction   nonuniform List<scalar> 
130
(
0.0075140686
0.0075140686
0.0075140686
0.0075140686
0.0075140686
0.0075140686
0.0075140686
0.0075140686
0.0075140686
0.0075140686
0.0075140686
0.0075140686
0.0075140686
0.0075140686
0.0075140686
0.0075140686
0.0075140686
0.0075140686
0.0075140686
0.0075140686
0.0075140686
0.0075140686
0.0075140686
0.0075140686
0.0075140686
0.0075140686
0.0075140686
0.0075140686
0.0075140686
0.0075140686
0.0075140686
0.0075140686
0.0075140686
0.0075140686
0.0075140686
0.0075140686
0.0075140686
0.0075140686
0.0075140686
0.0075140686
0.0075140686
0.0075140686
0.0075140686
0.0075140686
0.0075140686
0.0075140686
0.0075140686
0.0075140686
0.0075140686
0.0075140686
0.0075140686
0.0075140686
0.0075140686
0.0075140686
0.0075140686
0.0075140686
0.0075140686
0.0075140686
0.0075140686
0.0075140686
0.0075140686
0.0075140686
0.0075140686
0.0075140686
0.0075140686
0.0075140686
0.0075140686
0.0075140686
0.0075140686
0.0075140686
0.0075140686
0.0075140686
0.0075140686
0.0075140686
0.0075140686
0.0075140686
0.0075140686
0.0075140686
0.0075140686
0.0075140686
0.0075140686
0.0075140686
0.0075140686
0.0075140686
0.0075140686
0.0075140686
0.0075140686
0.0075140686
0.0075140686
0.0075140686
0.0075140686
0.0075140686
0.0075140686
0.0075140686
0.0075140686
0.0075140686
0.0075140686
0.0075140686
0.0075140686
0.0075140686
0.0075140686
0.0075140686
0.0075140686
0.0075140686
0.0075140686
0.0075140686
0.0075140686
0.0075140686
0.0075140686
0.0075140686
0.0075140686
0.0075140686
0.0075140686
0.0075140686
0.0075140686
0.0075140686
0.0075140686
0.0075140686
0.0075140686
0.0075140686
0.0075140686
0.0075140686
0.0075140686
0.0075140686
0.0075140686
0.0075140686
0.0075140686
0.0075140686
0.0075140686
0.0075140686
)
;
        value           nonuniform List<scalar> 
130
(
752.35251
760.37526
768.73959
777.01867
784.88304
792.13377
798.63075
804.27695
809.02992
812.87371
815.79455
817.76895
818.73367
746.6284
755.96185
765.48474
774.71122
783.27835
791.03681
797.89462
803.79404
808.71794
812.68518
815.68947
817.69314
818.66712
735.08193
747.43531
759.45667
770.53987
780.4366
789.13389
796.63401
802.96709
808.19572
812.39228
815.50383
817.58349
818.60238
717.80425
735.93496
751.93693
765.65289
777.27172
787.0779
795.29533
802.13498
807.71553
812.07337
815.29817
817.43868
818.51103
697.4199
725.00524
745.74734
761.98212
775.03035
785.674
794.40986
801.59441
807.35229
811.82177
815.09802
817.26741
818.35645
697.5835
725.11297
745.80327
762.01733
775.04755
785.66707
794.3635
801.46243
807.20486
811.69433
814.96573
817.12587
818.20628
718.19739
736.15441
752.03732
765.67539
777.23243
786.99696
795.16434
801.91725
807.39364
811.72017
814.96447
817.11595
818.19996
735.61607
747.76761
759.5893
770.54824
780.36487
788.99585
796.42302
802.6938
807.85226
811.95029
815.074
817.17343
818.21523
747.20866
756.34647
765.62834
774.67987
783.15578
790.84415
797.64059
803.48127
808.35448
812.30496
815.29195
817.2845
818.27767
752.8852
760.7258
768.86409
776.98041
784.74794
791.92583
798.36205
803.94983
808.65599
812.50532
815.40819
817.33992
818.30342
)
;
        Tnbr            T;
        thicknessLayers List<scalar> 0();
        kappaLayers     List<scalar> 0();
        kappaMethod     solidThermo;
        kappa           none;
        alphaAni        none;
        alpha           none;
        field           T;
    }
    rightSolid_to_topAir
    {
        type            compressible::turbulentTemperatureCoupledBaffleMixed;
        refValue        nonuniform List<scalar> 
130
(
495.49199
488.17076
481.84219
476.76387
472.97048
470.38652
468.90572
468.43712
468.94235
470.46794
473.20923
477.68532
484.78921
437.87028
432.42024
429.15716
427.3374
426.44447
426.21522
426.56486
427.50214
429.1156
431.56457
435.19082
440.96256
450.9779
450.27833
441.74161
434.26341
427.82757
422.51053
418.50587
416.02091
415.15909
415.86032
417.97205
421.45465
427.22695
436.89481
506.1324
507.14527
506.99086
505.29197
502.07868
497.64535
492.40512
486.93933
482.25531
480.00876
482.02726
488.1851
498.43711
509.77669
513.64297
517.74872
521.73003
525.23266
527.94434
529.64936
530.31098
530.19144
529.9843
530.83292
534.20624
541.86377
508.21472
511.93396
515.7729
519.33182
522.25505
524.2766
525.25559
525.22377
524.50153
523.82981
524.34767
527.46783
534.78136
502.39732
502.34799
500.89431
497.77554
493.29593
488.06262
482.59818
477.2885
472.85577
470.737
472.90942
480.38977
490.73027
447.9222
438.9906
431.36775
425.0396
420.062
416.56671
414.65234
414.28771
415.31525
417.55021
420.98018
426.44911
436.19795
438.25211
432.56573
429.05453
427.00586
425.94097
425.63103
426.01104
427.06628
428.82385
431.3953
435.11845
440.91486
450.28936
495.41467
487.91528
481.4056
476.15179
472.20177
469.49551
467.93751
467.43181
467.91713
469.41221
472.08823
476.42369
483.20732
)
;
        refGradient     uniform 0;
        valueFraction   nonuniform List<scalar> 
130
(
0.00032132529
0.00032132529
0.00032132529
0.00032132529
0.00032132529
0.00032132529
0.00032132529
0.00032132529
0.00032132529
0.00032132529
0.00032132529
0.00032132529
0.00032132529
0.00032132529
0.00032132529
0.00032132529
0.00032132529
0.00032132529
0.00032132529
0.00032132529
0.00032132529
0.00032132529
0.00032132529
0.00032132529
0.00032132529
0.00032132529
0.00032132529
0.00032132529
0.00032132529
0.00032132529
0.00032132529
0.00032132529
0.00032132529
0.00032132529
0.00032132529
0.00032132529
0.00032132529
0.00032132529
0.00032132529
0.00032132529
0.00032132529
0.00032132529
0.00032132529
0.00032132529
0.00032132529
0.00032132529
0.00032132529
0.00032132529
0.00032132529
0.00032132529
0.00032132529
0.00032132529
0.00032132529
0.00032132529
0.00032132529
0.00032132529
0.00032132529
0.00032132529
0.00032132529
0.00032132529
0.00032132529
0.00032132529
0.00032132529
0.00032132529
0.00032132529
0.00032132529
0.00032132529
0.00032132529
0.00032132529
0.00032132529
0.00032132529
0.00032132529
0.00032132529
0.00032132529
0.00032132529
0.00032132529
0.00032132529
0.00032132529
0.00032132529
0.00032132529
0.00032132529
0.00032132529
0.00032132529
0.00032132529
0.00032132529
0.00032132529
0.00032132529
0.00032132529
0.00032132529
0.00032132529
0.00032132529
0.00032132529
0.00032132529
0.00032132529
0.00032132529
0.00032132529
0.00032132529
0.00032132529
0.00032132529
0.00032132529
0.00032132529
0.00032132529
0.00032132529
0.00032132529
0.00032132529
0.00032132529
0.00032132529
0.00032132529
0.00032132529
0.00032132529
0.00032132529
0.00032132529
0.00032132529
0.00032132529
0.00032132529
0.00032132529
0.00032132529
0.00032132529
0.00032132529
0.00032132529
0.00032132529
0.00032132529
0.00032132529
0.00032132529
0.00032132529
0.00032132529
0.00032132529
0.00032132529
0.00032132529
0.00032132529
)
;
        value           nonuniform List<scalar> 
130
(
751.01306
759.08407
767.50069
775.83398
783.75959
791.06405
797.60634
803.29627
808.08703
811.95598
814.88482
816.85264
817.8341
745.23652
754.62681
764.20773
773.48138
782.11512
789.93316
796.83928
802.78317
807.74848
811.7376
814.743
816.75047
817.74918
733.63414
746.06561
758.14333
769.28948
779.26375
788.01861
795.56692
801.94846
807.21414
811.40688
814.53168
816.61154
817.6478
716.28704
734.49918
750.59961
764.40596
776.11191
785.98618
794.26213
801.13088
806.71612
811.09344
814.33169
816.47783
817.55208
695.78006
723.51
744.38478
760.73682
773.87945
784.59857
793.39106
800.58446
806.36199
810.85362
814.15275
816.33005
817.41861
695.89712
723.59553
744.43323
760.75989
773.88198
784.57926
793.3416
800.49282
806.24986
810.73602
814.02943
816.20134
817.2858
716.59536
734.70248
750.70222
764.43231
776.0793
785.90559
794.12824
800.92793
806.44406
810.78343
814.01395
816.16111
817.23866
734.07927
746.36056
758.28182
769.30972
779.19934
787.88538
795.36657
801.68238
806.88097
811.01299
814.12245
816.2039
817.24663
745.74387
754.96163
764.35524
773.47883
782.01188
789.75369
796.59431
802.47807
807.39138
811.34677
814.3302
816.32555
817.32596
751.50556
759.40637
767.63758
775.81986
783.63989
790.86499
797.34154
802.97405
807.71863
811.56343
814.46874
816.41091
817.38411
)
;
        Tnbr            T;
        thicknessLayers List<scalar> 0();
        kappaLayers     List<scalar> 0();
        kappaMethod     solidThermo;
        kappa           none;
        alphaAni        none;
        alpha           none;
        field           T;
    }
    rightSolid_to_heater
    {
        type            compressible::turbulentTemperatureCoupledBaffleMixed;
        refValue        nonuniform List<scalar> 10(743.86964 736.80275 722.01969 697.55848 656.77648 656.88359 697.89769 722.55454 737.45008 744.50094);
        refGradient     uniform 0;
        valueFraction   nonuniform List<scalar> 10(0.50000003 0.50000003 0.50000003 0.50000003 0.50000003 0.50000003 0.50000003 0.50000003 0.50000003 0.50000003);
        value           nonuniform List<scalar> 10(747.48242 741.06904 727.87245 706.95654 676.30816 676.42052 707.28095 728.3629 741.64639 748.04441);
        Tnbr            T;
        thicknessLayers List<scalar> 0();
        kappaLayers     List<scalar> 0();
        kappaMethod     solidThermo;
        kappa           none;
        alphaAni        none;
        alpha           none;
        field           T;
    }
}


// ************************************************************************* //
