/*--------------------------------*- C++ -*----------------------------------*\
| =========                 |                                                 |
| \\      /  F ield         | OpenFOAM: The Open Source CFD Toolbox           |
|  \\    /   O peration     | Version:  v2012                                 |
|   \\  /    A nd           | Website:  www.openfoam.com                      |
|    \\/     M anipulation  |                                                 |
\*---------------------------------------------------------------------------*/
FoamFile
{
    version     2.0;
    format      ascii;
    class       volScalarField;
    location    "410/leftSolid";
    object      T;
}
// * * * * * * * * * * * * * * * * * * * * * * * * * * * * * * * * * * * * * //

dimensions      [0 0 0 1 0 0 0];


internalField   nonuniform List<scalar> 
130
(
885.28649
885.2527
885.17955
885.05653
884.90254
884.71676
884.5085
884.27722
884.05094
883.83205
883.63349
883.47124
883.38666
885.31744
885.28504
885.21901
885.10852
884.95612
884.76072
884.53062
884.28805
884.0494
883.81666
883.59907
883.41471
883.31871
885.33396
885.30089
885.2262
885.11303
884.95495
884.75141
884.50862
884.24432
883.97788
883.71797
883.47394
883.26247
883.12528
885.38978
885.32841
885.21472
885.0729
884.8992
884.68693
884.43428
884.13787
883.8392
883.54766
883.27465
883.03942
882.86357
885.41932
885.34791
885.20873
885.029
884.82848
884.5986
884.333
884.03102
883.69715
883.36757
883.05869
882.80064
882.63421
885.41786
885.35203
885.2164
885.01121
884.77368
884.51728
884.23351
883.9231
883.58567
883.22321
882.87826
882.59317
882.42691
885.42837
885.36786
885.24373
885.05238
884.78628
884.50633
884.20976
883.88811
883.53783
883.16333
882.80533
882.52869
882.36736
885.44483
885.38582
885.26825
885.09241
884.85995
884.57807
884.26428
883.94323
883.59961
883.22971
882.89044
882.62373
882.46696
885.4401
885.38037
885.26694
885.10018
884.88041
884.60937
884.29139
883.95913
883.62264
883.27171
882.92888
882.6567
882.48197
885.39855
885.34583
885.24117
885.08302
884.87206
884.60907
884.29637
883.95226
883.61445
883.27082
882.93741
882.64701
882.44754
)
;

boundaryField
{
    minX
    {
        type            zeroGradient;
    }
    minZ
    {
        type            zeroGradient;
    }
    maxZ
    {
        type            zeroGradient;
    }
    leftSolid_to_bottomWater
    {
        type            compressible::turbulentTemperatureCoupledBaffleMixed;
        refValue        nonuniform List<scalar> 
130
(
960.375
960.26566
960.43776
958.06134
958.82853
958.21139
958.78935
956.01403
955.99249
955.0582
954.03988
950.59723
950.04244
963.3646
962.99113
964.1206
963.78186
963.67106
962.35158
959.59625
958.19867
958.59361
958.41507
957.24124
951.97836
952.80767
963.70037
964.92389
964.87979
965.65407
965.21037
963.97882
962.22032
960.36909
959.41885
958.60158
957.04039
952.94824
946.77251
973.28529
970.23862
965.70056
964.77292
964.80893
964.64105
964.46825
958.74356
957.6243
956.48977
954.51851
951.94311
939.11186
975.78065
973.63582
968.40495
964.18484
964.20336
964.21374
963.63537
962.72682
957.94216
955.73468
952.16253
947.71199
941.49969
974.22302
973.47047
971.75465
964.90423
962.47147
962.35462
961.15819
960.72836
960.566
955.19807
949.45594
941.44929
937.22147
974.94309
974.44389
974.02727
973.55668
963.71128
962.581
962.89615
962.04149
960.25551
955.29667
946.89069
942.64737
938.52129
977.44767
976.64872
975.89986
975.14913
974.40355
971.15245
967.71286
969.12409
968.92834
962.59088
958.71461
954.98403
951.72642
979.74581
977.86345
976.73102
975.88061
975.08622
974.04364
969.8358
968.20417
969.0351
967.08175
959.99946
957.90338
952.27698
976.49002
975.64301
975.196
974.61719
974.12299
973.58709
971.54453
966.50449
966.97468
965.52597
962.22046
956.7076
944.23542
)
;
        refGradient     uniform 0;
        valueFraction   nonuniform List<scalar> 
130
(
0.0075140686
0.0075140686
0.0075140686
0.0075140686
0.0075140686
0.0075140686
0.0075140686
0.0075140686
0.0075140686
0.0075140686
0.0075140686
0.0075140686
0.0075140686
0.0075140686
0.0075140686
0.0075140686
0.0075140686
0.0075140686
0.0075140686
0.0075140686
0.0075140686
0.0075140686
0.0075140686
0.0075140686
0.0075140686
0.0075140686
0.0075140686
0.0075140686
0.0075140686
0.0075140686
0.0075140686
0.0075140686
0.0075140686
0.0075140686
0.0075140686
0.0075140686
0.0075140686
0.0075140686
0.0075140686
0.0075140686
0.0075140686
0.0075140686
0.0075140686
0.0075140686
0.0075140686
0.0075140686
0.0075140686
0.0075140686
0.0075140686
0.0075140686
0.0075140686
0.0075140686
0.0075140686
0.0075140686
0.0075140686
0.0075140686
0.0075140686
0.0075140686
0.0075140686
0.0075140686
0.0075140686
0.0075140686
0.0075140686
0.0075140686
0.0075140686
0.0075140686
0.0075140686
0.0075140686
0.0075140686
0.0075140686
0.0075140686
0.0075140686
0.0075140686
0.0075140686
0.0075140686
0.0075140686
0.0075140686
0.0075140686
0.0075140686
0.0075140686
0.0075140686
0.0075140686
0.0075140686
0.0075140686
0.0075140686
0.0075140686
0.0075140686
0.0075140686
0.0075140686
0.0075140686
0.0075140686
0.0075140686
0.0075140686
0.0075140686
0.0075140686
0.0075140686
0.0075140686
0.0075140686
0.0075140686
0.0075140686
0.0075140686
0.0075140686
0.0075140686
0.0075140686
0.0075140686
0.0075140686
0.0075140686
0.0075140686
0.0075140686
0.0075140686
0.0075140686
0.0075140686
0.0075140686
0.0075140686
0.0075140686
0.0075140686
0.0075140686
0.0075140686
0.0075140686
0.0075140686
0.0075140686
0.0075140686
0.0075140686
0.0075140686
0.0075140686
0.0075140686
0.0075140686
0.0075140686
0.0075140686
0.0075140686
)
;
        value           nonuniform List<scalar> 
130
(
885.8475
885.81313
885.7418
885.60178
885.45461
885.26554
885.06315
884.81273
884.58795
884.36366
884.15891
883.972
883.88392
885.90061
885.86563
885.80856
885.69634
885.54423
885.34036
885.09125
884.83996
884.60603
884.37364
884.14881
883.92627
883.83724
885.91936
885.89572
885.82127
885.71478
885.55456
885.34327
885.08903
884.81279
884.54117
884.27703
884.02307
883.78239
883.59985
886.04653
885.96275
885.81586
885.66819
885.49607
885.28413
885.03206
884.69484
884.38997
884.09206
883.80627
883.55344
883.28249
886.09451
886.00753
885.83012
885.62008
885.42123
885.19316
884.92521
884.61865
884.25127
883.90755
883.57415
883.28459
883.07273
886.08131
886.01032
885.86285
885.60777
885.35372
885.09836
884.80774
884.4964
884.16026
883.76015
883.37463
883.03153
882.83475
886.09709
886.03328
885.90695
885.71351
885.37545
885.08908
884.79709
884.47142
884.11033
883.70135
883.28287
882.97643
882.78531
886.13214
886.06756
885.94524
885.76508
885.52876
885.22458
884.88727
884.57922
884.23668
883.8219
883.45605
883.16333
882.98327
886.14462
886.07119
885.9501
885.7782
885.5541
885.27725
884.93002
884.58798
884.26024
883.89724
883.50376
883.21785
883.00208
886.07886
886.02018
885.91295
885.75163
885.53853
885.27347
884.94774
884.56834
884.23658
883.8846
883.52884
883.19916
882.90754
)
;
        Tnbr            T;
        thicknessLayers List<scalar> 0();
        kappaLayers     List<scalar> 0();
        kappaMethod     solidThermo;
        kappa           none;
        alphaAni        none;
        alpha           none;
        field           T;
    }
    leftSolid_to_heater
    {
        type            compressible::turbulentTemperatureCoupledBaffleMixed;
        refValue        nonuniform List<scalar> 10(731.7785 722.48551 702.81621 670.74192 623.914 623.67644 669.90306 701.45868 720.7806 729.98987);
        refGradient     uniform 0;
        valueFraction   nonuniform List<scalar> 10(2.08329e-05 2.08329e-05 2.08329e-05 2.08329e-05 2.08329e-05 2.08329e-05 2.08329e-05 2.08329e-05 2.08329e-05 2.08329e-05);
        value           nonuniform List<scalar> 10(883.37988 883.31172 883.11782 882.85539 882.62499 882.4176 882.35891 882.45905 882.47423 882.44006);
        Tnbr            T;
        thicknessLayers List<scalar> 1(0.001);
        kappaLayers     List<scalar> 1(0.0005);
        kappaMethod     solidThermo;
        kappa           none;
        alphaAni        none;
        alpha           none;
        field           T;
    }
    leftSolid_to_topAir
    {
        type            compressible::turbulentTemperatureCoupledBaffleMixed;
        refValue        nonuniform List<scalar> 
130
(
323.81655
345.85028
365.78779
384.19117
401.53167
418.09676
434.00464
449.14266
463.19011
476.11752
487.81564
498.07891
506.45636
323.81185
345.61068
365.08788
382.80725
399.20658
414.51576
428.79649
442.00027
453.9412
464.318
472.69688
478.55817
481.23238
323.80951
345.6476
365.18024
382.96969
399.46041
414.89398
429.38078
442.95099
455.54942
467.01389
477.03816
485.11038
490.27064
323.8116
345.66535
365.23437
383.08765
399.68805
415.30963
430.11052
444.18219
457.56868
470.24658
482.06971
492.63318
500.93153
323.81194
345.67058
365.24898
383.11527
399.73389
415.38192
430.21656
444.33068
457.75937
470.44997
482.17014
492.31884
499.7161
323.81183
345.67072
365.24972
383.11597
399.73357
415.37984
430.21388
444.3308
457.77379
470.51109
482.36089
492.81086
500.59424
323.81289
345.66838
365.23927
383.09317
399.69135
415.30899
430.10346
444.16932
457.54889
470.22197
482.06064
492.70295
501.15429
323.81363
345.65557
365.19171
382.98406
399.47736
414.91315
429.39715
442.96712
455.56726
467.02997
477.04929
485.13164
490.33937
323.81615
345.61841
365.0983
382.81987
399.22057
414.53177
428.82228
442.03421
453.98223
464.35578
472.71368
478.53371
481.16937
323.82036
345.85798
365.79958
384.20794
401.55452
418.12658
434.04464
449.20661
463.27597
476.21967
487.92382
498.17734
506.52306
)
;
        refGradient     uniform 0;
        valueFraction   nonuniform List<scalar> 
130
(
0.00032132529
0.00032132529
0.00032132529
0.00032132529
0.00032132529
0.00032132529
0.00032132529
0.00032132529
0.00032132529
0.00032132529
0.00032132529
0.00032132529
0.00032132529
0.00032132529
0.00032132529
0.00032132529
0.00032132529
0.00032132529
0.00032132529
0.00032132529
0.00032132529
0.00032132529
0.00032132529
0.00032132529
0.00032132529
0.00032132529
0.00032132529
0.00032132529
0.00032132529
0.00032132529
0.00032132529
0.00032132529
0.00032132529
0.00032132529
0.00032132529
0.00032132529
0.00032132529
0.00032132529
0.00032132529
0.00032132529
0.00032132529
0.00032132529
0.00032132529
0.00032132529
0.00032132529
0.00032132529
0.00032132529
0.00032132529
0.00032132529
0.00032132529
0.00032132529
0.00032132529
0.00032132529
0.00032132529
0.00032132529
0.00032132529
0.00032132529
0.00032132529
0.00032132529
0.00032132529
0.00032132529
0.00032132529
0.00032132529
0.00032132529
0.00032132529
0.00032132529
0.00032132529
0.00032132529
0.00032132529
0.00032132529
0.00032132529
0.00032132529
0.00032132529
0.00032132529
0.00032132529
0.00032132529
0.00032132529
0.00032132529
0.00032132529
0.00032132529
0.00032132529
0.00032132529
0.00032132529
0.00032132529
0.00032132529
0.00032132529
0.00032132529
0.00032132529
0.00032132529
0.00032132529
0.00032132529
0.00032132529
0.00032132529
0.00032132529
0.00032132529
0.00032132529
0.00032132529
0.00032132529
0.00032132529
0.00032132529
0.00032132529
0.00032132529
0.00032132529
0.00032132529
0.00032132529
0.00032132529
0.00032132529
0.00032132529
0.00032132529
0.00032132529
0.00032132529
0.00032132529
0.00032132529
0.00032132529
0.00032132529
0.00032132529
0.00032132529
0.00032132529
0.00032132529
0.00032132529
0.00032132529
0.00032132529
0.00032132529
0.00032132529
0.00032132529
0.00032132529
0.00032132529
0.00032132529
0.00032132529
0.00032132529
)
;
        value           nonuniform List<scalar> 
130
(
885.10285
885.07613
885.00938
884.89225
884.74378
884.56333
884.36022
884.13385
883.91212
883.69743
883.50266
883.34375
883.26192
885.13371
885.1083
885.04853
884.94376
884.79665
884.60621
884.38074
884.14245
883.90767
883.67828
883.4634
883.28096
883.18587
885.15006
885.124
885.05562
884.94821
884.79549
884.59695
884.35883
884.09896
883.83661
883.58043
883.33966
883.13081
882.99534
885.2056
885.15129
885.04398
884.90799
884.73969
884.5325
884.28466
883.99286
883.69854
883.41114
883.14199
882.91022
882.73709
885.23504
885.17069
885.03787
884.86399
884.6689
884.44413
884.18338
883.88601
883.5565
883.23107
882.92605
882.67135
882.50734
885.23353
885.17475
885.04549
884.84614
884.61401
884.36272
884.08381
883.778
883.44497
883.08668
882.74564
882.46401
882.3003
885.24398
885.1905
885.0727
884.88716
884.6265
884.35163
884.05989
883.74285
883.39695
883.02661
882.67253
882.39941
882.24084
885.26033
885.20835
885.09709
884.92702
884.69993
884.42311
884.11404
883.79744
883.45795
883.09181
882.75587
882.49186
882.33682
885.2555
885.20279
885.09566
884.93464
884.7202
884.45416
884.14085
883.81293
883.48036
883.13285
882.7928
882.52255
882.34865
885.21391
885.1683
885.07008
884.91789
884.71256
884.45496
884.14744
883.80831
883.47511
883.1357
882.80614
882.51909
882.32244
)
;
        Tnbr            T;
        thicknessLayers List<scalar> 0();
        kappaLayers     List<scalar> 0();
        kappaMethod     solidThermo;
        kappa           none;
        alphaAni        none;
        alpha           none;
        field           T;
    }
}


// ************************************************************************* //
