/*--------------------------------*- C++ -*----------------------------------*\
| =========                 |                                                 |
| \\      /  F ield         | OpenFOAM: The Open Source CFD Toolbox           |
|  \\    /   O peration     | Version:  v2012                                 |
|   \\  /    A nd           | Website:  www.openfoam.com                      |
|    \\/     M anipulation  |                                                 |
\*---------------------------------------------------------------------------*/
FoamFile
{
    version     2.0;
    format      ascii;
    class       volScalarField;
    location    "720/bottomWater";
    object      p_rgh;
}
// * * * * * * * * * * * * * * * * * * * * * * * * * * * * * * * * * * * * * //

dimensions      [1 -1 -2 0 0 0 0];


internalField   nonuniform List<scalar> 
1460
(
0.2829487
0.28135987
0.28807648
0.29128597
0.28707607
0.27672647
0.27152185
0.25953684
0.26970996
0.26840422
0.25706212
0.28356414
0.28569149
0.30223211
0.29813006
0.30038509
0.2947084
0.2993051
0.29134366
0.30853172
0.31857148
0.3234583
0.31575594
0.32171831
0.32168873
0.31597185
0.32900066
0.33504093
0.34064895
0.33331527
-0.24064272
-0.24292582
-0.18414061
-0.14988699
-0.14603469
-0.1649747
-0.19795365
-0.22580703
-0.2369676
-0.22804697
-0.22484505
-0.20181053
-0.19113875
-0.20948236
-0.26275002
-0.27296467
-0.25941213
-0.24297178
-0.25422976
-0.2202169
-0.17945152
-0.22515976
-0.27055207
-0.28912631
-0.28708762
-0.26466921
-0.23583516
-0.21982304
-0.22364464
-0.2734428
0.10922455
0.056804379
0.038528158
0.029070619
0.024330273
0.024270738
0.027439074
0.048105434
0.074867776
0.066474915
0.0573774
0.051378085
0.073573036
0.055873484
0.07987463
0.10524802
0.12790628
0.077014105
0.12169927
0.058562092
0.058397456
0.06649953
0.076966783
0.094894131
0.086800391
0.064697662
0.059144718
0.07105775
0.025023525
0.08144812
-0.02681573
-0.061598593
-0.053452161
-0.04757765
-0.046591215
-0.051113276
-0.046107711
-0.046795626
-0.019216693
-0.036948245
-0.051107278
-0.034036927
-0.056491656
-0.076673829
-0.085429405
-0.054709851
-0.07152295
-0.089298596
-0.066431955
-0.050743669
-0.076692494
-0.051583903
-0.061689982
-0.042364569
-0.039856196
-0.10370968
-0.053786816
-0.055058569
-0.082072409
-0.069699123
0.038205455
0.021083932
0.017909032
0.018864896
0.023770079
0.013928809
-0.0037174478
-0.00069690657
-0.013363887
-0.015626755
-0.020074944
-0.017527589
-0.018520434
-0.0093097685
0.0046400876
0.01932844
0.032559071
0.017958482
-0.0059996654
-0.014810401
-0.0018065091
-0.0041062938
-0.0062281846
0.018510069
0.014685464
0.018469346
-0.0020405434
-0.0096828985
0.01136346
0.012311659
0.27558352
0.27460581
0.28030141
0.25857725
0.25549196
0.2551112
0.25883975
0.26344808
0.26444589
0.25894856
0.25866082
0.28414131
0.28636993
0.29880215
0.3010983
0.29834679
0.30082481
0.30125921
0.3011137
0.29975335
0.31673867
0.31132814
0.31365562
0.31873798
0.31714351
0.31420046
0.31366288
0.31440437
0.31411907
0.32020177
-0.2431937
-0.21961112
-0.18933193
-0.22088465
-0.22526895
-0.23345916
-0.24221473
-0.23519686
-0.24219134
-0.2403777
-0.22291571
-0.17729754
-0.17783941
-0.18944913
-0.2257074
-0.27728508
-0.28152418
-0.27735511
-0.27409026
-0.27848426
-0.25310721
-0.28341118
-0.29559573
-0.28950367
-0.27657508
-0.29610093
-0.29438587
-0.28428922
-0.28914214
-0.30392136
0.079611347
0.052700587
0.032282594
0.049333194
0.048867258
0.05354062
0.083791586
0.096383337
0.092728451
0.064002839
0.044741303
0.036345795
0.068579251
0.065201948
0.04983363
0.07683265
0.1133584
0.1262228
0.10741155
0.076655881
0.066595203
0.083190661
0.1061203
0.12283507
0.11107993
0.11501754
0.11630977
0.1036205
0.09497395
0.1259479
-0.042732898
-0.058844135
-0.042218152
-0.054502218
-0.06302299
-0.066343886
-0.044301945
-0.028405471
-0.029274859
-0.048882753
-0.069324469
-0.045418365
-0.045075199
-0.069368329
-0.091158824
-0.085063703
-0.048403455
-0.050819916
-0.053745609
-0.095555167
-0.10418438
-0.097692035
-0.074933538
-0.069168111
-0.12110699
-0.067709492
-0.080930648
-0.09169764
-0.11352356
-0.053830191
0.0052549929
0.0013679303
-0.0032141162
-0.0012990277
-0.00047736753
-0.0098912134
-0.026586253
-0.0052472872
-0.0062586671
-0.012207267
-0.011556254
-0.012242299
-0.017616509
-0.012397729
0.015801016
0.0026981785
-0.0021564304
-0.012749735
-0.0083988063
-0.018200383
0.025022212
0.023446373
0.00028826791
0.012857408
0.025021361
0.0066562825
-0.018563941
0.009026255
0.017937958
0.00021270047
0.2659643
0.27582972
0.26220736
0.26738883
0.26758245
0.2672249
0.27237719
0.27143444
0.26890742
0.2626609
0.26845424
0.28178816
0.28797434
0.30084202
0.29452915
0.29437185
0.29909261
0.29758689
0.29626058
0.30195905
0.31496043
0.31938828
0.31608439
0.32544249
0.3356443
0.31313744
0.32049048
0.31998299
0.32749107
0.3298915
-0.21897702
-0.20511998
-0.23195304
-0.24334597
-0.2479292
-0.25045537
-0.24884549
-0.24657135
-0.24920443
-0.24290857
-0.22398689
-0.19616281
-0.1856687
-0.17938011
-0.23057066
-0.27320546
-0.28007056
-0.28548751
-0.28268586
-0.26874565
-0.29457826
-0.29967993
-0.28415779
-0.2411221
-0.23124489
-0.27451801
-0.26632734
-0.27815075
-0.3022741
-0.29733877
0.077832577
0.039912894
0.071850495
0.078399717
0.091594019
0.092027969
0.092880081
0.091077388
0.084756777
0.060174742
0.044846536
0.034602319
0.061358208
0.040080951
0.04529976
0.087298824
0.1176782
0.11133773
0.10370215
0.094126473
0.11435328
0.10733065
0.094627258
0.053304201
0.057972466
0.12483435
0.08814519
0.10294449
0.10068418
0.15430673
-0.05714855
-0.068404221
-0.056041631
-0.01785817
-0.0105766
-0.015907259
-0.016274106
-0.02710135
-0.043139415
-0.069920723
-0.07238868
-0.047695202
-0.05325536
-0.068671361
-0.073541671
-0.064984612
-0.0319411
-0.048392931
-0.081333324
-0.083662106
-0.046175047
-0.041482411
-0.07966372
-0.081664536
-0.065982456
-0.061731919
-0.079614606
-0.077833848
-0.059964715
-0.041133128
0.044730027
0.022307325
0.0028369002
-0.0041265457
0.0067085613
0.014272571
0.019455413
0.020115161
0.011471119
0.005829829
0.0086062942
-0.0034814906
-0.020391644
-0.0085884506
-0.003507994
-0.017453565
-0.0015991075
0.0042703749
0.020575341
0.042882428
0.0186721
0.034717488
0.014470425
0.014193124
-0.0039275726
-0.0065927576
0.024866126
0.021468401
0.025019562
0.033126504
0.26021543
0.25166832
0.26244105
0.25662939
0.25789161
0.25342767
0.25297891
0.25502967
0.25614995
0.25872461
0.26590995
0.27119771
0.26881116
0.2735418
0.27525971
0.28268049
0.28223165
0.27920025
0.29755934
0.32220353
0.32091583
0.32561805
0.31572904
0.34409561
0.33021932
0.32307288
0.3304619
0.33206268
0.3252966
0.33168078
-0.22670653
-0.22209093
-0.23782371
-0.23974649
-0.2390667
-0.22773286
-0.23093133
-0.22551683
-0.23636036
-0.23838271
-0.23758652
-0.24634681
-0.23537181
-0.22557413
-0.23354035
-0.2451053
-0.24973262
-0.26432358
-0.23649811
-0.22351076
-0.2823548
-0.29986102
-0.27178221
-0.23886097
-0.28818515
-0.28468742
-0.26293854
-0.24065955
-0.28958263
-0.29739041
0.091162807
0.084898088
0.085724445
0.097278882
0.10544978
0.097896491
0.091543163
0.09053479
0.094526015
0.090494284
0.083453032
0.091403599
0.092407634
0.0944569
0.093447685
0.10340435
0.12152842
0.10470813
0.048110634
0.028446031
0.094476162
0.082926607
0.10692927
0.05119079
0.096040621
0.1161746
0.058496591
0.037823757
0.054566794
0.089260525
-0.081365279
-0.099831196
-0.058454086
-0.047854726
-0.049398961
-0.075521865
-0.093708973
-0.095303405
-0.061905644
-0.067892731
-0.067164675
-0.065690245
-0.091095354
-0.10228753
-0.08680807
-0.10010786
-0.058789981
-0.0687217
-0.088050383
-0.099357942
-0.10514069
-0.052034135
-0.11759379
-0.078209206
-0.07659535
-0.071230921
-0.072571971
-0.10351806
-0.11410332
-0.061788237
0.049808056
0.020000271
-0.010974953
-0.013568445
-0.012692841
-0.010062712
0.0082134418
0.037575222
0.016286228
0.0080851366
0.006876803
-0.0086262782
0.0010033443
0.035174913
0.033087751
0.0046198921
-0.0080963039
-0.014132625
-0.012135188
0.013240215
0.02696155
0.042171199
0.04705002
0.029836937
-0.0072553814
-0.012430595
-0.018928852
0.0072308786
0.013200525
0.013672663
0.2631315
0.26048499
0.25547896
0.25421945
0.25772613
0.2507437
0.27420512
0.28096279
0.27095605
0.2660903
0.27713571
0.27792329
0.27350588
0.30558791
0.31662961
0.33780007
0.3265728
0.33761623
0.32938568
0.32875086
0.33462003
0.33704181
0.33487997
0.33470659
0.3335128
0.33468137
-0.23577223
-0.21842944
-0.22299914
-0.22493459
-0.22347112
-0.23370437
-0.19630084
-0.17199664
-0.21920011
-0.23949266
-0.25346018
-0.26202592
-0.23220878
-0.25342107
-0.23314736
-0.19467444
-0.25055269
-0.30557716
-0.30198412
-0.26952799
-0.23478972
-0.21293358
-0.1987053
-0.20826674
-0.24315261
-0.28413984
0.099204154
0.073233981
0.095599842
0.095398959
0.10273575
0.087395896
0.028549228
0.035172148
0.044803041
0.069086985
0.0807554
0.07349986
0.068719486
0.11891074
0.04821934
0.039726368
0.057603613
0.097220081
0.094192069
0.071363071
0.061614571
0.068410168
0.062336963
0.067170867
0.031630452
0.081949303
-0.068514758
-0.091898923
-0.064929696
-0.05826168
-0.033389192
-0.055049476
-0.066585853
-0.065754068
-0.052860419
-0.051401364
-0.031220679
-0.041133756
-0.076052333
-0.034284141
-0.07048767
-0.077388495
-0.080987927
-0.047448935
-0.04832889
-0.10292516
-0.075638314
-0.043015226
-0.034871955
-0.053969014
-0.085258406
-0.055241261
0.005368229
0.0020924932
-0.022466
-0.026371815
-0.018553839
-0.019726791
-0.0073057485
0.015212531
0.0048681697
0.00078559144
0.011562324
0.018116957
0.021032015
0.004888894
-0.014500842
0.027344277
0.030077873
0.027418297
0.015234141
0.016766031
-0.022490533
-0.009912312
-0.0099142092
-0.021089043
7.6687135e-05
0.00088960712
0.2836039
0.28347636
0.28339138
0.27587669
0.26327059
0.26716267
0.27238516
0.28220574
0.28322582
0.27532575
0.28359701
0.27933309
0.27771689
0.30438356
0.30784782
0.30503777
0.30883425
0.3243346
0.33487156
0.33344948
0.33733878
0.34055699
0.33513986
0.33497467
0.33576372
0.33546537
-0.24698497
-0.2140617
-0.19198959
-0.19777649
-0.21848349
-0.21933051
-0.19571452
-0.15981835
-0.20100042
-0.24700462
-0.25832549
-0.25899782
-0.21289083
-0.28444982
-0.29106897
-0.2743862
-0.26753132
-0.25160934
-0.20952446
-0.28262197
-0.21412108
-0.2107223
-0.21563833
-0.20822146
-0.23610487
-0.27807691
0.081832031
0.037912802
0.064599727
0.066404961
0.12437615
0.094267771
0.060028291
0.050343878
0.053160579
0.040247872
0.073208376
0.081483011
0.036447782
0.11112636
0.093941835
0.080334817
0.075198172
0.069622683
0.05947103
0.10013326
0.061712217
0.061590428
0.057020171
0.061463905
0.027969964
0.072921629
-0.050982297
-0.090731355
-0.051408745
-0.036807006
-0.024850467
-0.030233708
-0.048243105
-0.059310046
-0.046278625
-0.082361857
-0.034914759
-0.046142753
-0.049557698
-0.072789873
-0.099450311
-0.11574547
-0.10644677
-0.087793406
-0.068449356
-0.048636771
-0.028702369
-0.016449107
-0.045831901
-0.062688582
-0.083206413
-0.068564891
0.011137516
0.0063019963
-0.02051381
-0.018215953
-0.0097195306
-0.018396628
-0.018450371
-0.0057598937
-0.0061634932
0.0045811487
0.0092952937
0.0056824252
0.007513783
-0.0059018972
-0.0098490415
0.029639408
0.021261649
-0.014987047
-0.012988242
-0.022682246
-0.021332511
-0.0087864971
-0.027192661
-0.019614592
0.0032905725
0.0023440303
0.28178189
0.27706732
0.2920376
0.27315473
0.28631741
0.26722041
0.28934017
0.29549304
0.29255119
0.29416632
0.29308981
0.29135289
0.28966841
0.29467123
0.31667841
0.31308058
0.31717268
0.31352371
0.31629378
0.31550026
0.30696946
0.30217575
0.30983611
0.3318352
0.29909361
0.31128477
0.29379483
0.32847031
0.31449988
0.32444835
-0.24226464
-0.23738674
-0.19246666
-0.18876871
-0.19584783
-0.22754032
-0.18384125
-0.19105603
-0.25115558
-0.27027333
-0.26761951
-0.25210389
-0.24675621
-0.25228804
-0.21862029
-0.21280546
-0.23032134
-0.26758907
-0.29143293
-0.29108617
-0.29206858
-0.27888741
-0.24220559
-0.22364413
-0.26690296
-0.27012472
-0.2662066
-0.24657755
-0.28493845
-0.29617266
0.085905961
0.052203267
0.043153985
0.063125703
0.071302195
0.080779079
0.044804841
0.039160171
0.027688969
0.074483
0.096838973
0.091851163
0.083120354
0.072045291
0.064412584
0.083721235
0.059221077
0.088992872
0.10421254
0.12073576
0.086361406
0.067267226
0.051900721
0.038957332
0.097429584
0.082166031
0.065988643
0.043944832
0.061131491
0.09017018
-0.044710853
-0.091179486
-0.071805588
-0.051348587
-0.03421171
-0.044861501
-0.045458205
-0.050358023
-0.064813639
-0.041651793
-0.040836291
-0.080414796
-0.06409924
-0.092703552
-0.048483694
-0.070562455
-0.091275681
-0.10434745
-0.054000134
-0.044127145
-0.058891208
-0.095349759
-0.0867972
-0.093336262
-0.070830399
-0.076383029
-0.10880684
-0.097075923
-0.11995459
-0.060483044
0.017293573
0.013134551
0.0011257638
-0.018023334
-0.014658381
-0.016495283
-0.013540437
-0.0051542715
0.0035165251
0.0091931591
0.011785732
0.025914107
0.020413148
0.0015812015
-0.011291831
-0.0083432069
-0.0036224357
0.01978658
0.018586433
0.038575955
0.027537409
0.020478818
0.010725082
-0.013514182
-0.022823492
-0.020091202
-0.0082894286
0.01395616
0.015182447
0.015434086
0.28370747
0.28018769
0.28322836
0.28687606
0.27141176
0.29692801
0.29002312
0.28757825
0.29118631
0.28360213
0.29516529
0.29123713
0.29280917
0.3032029
0.30909028
0.31482545
0.3167241
0.32069552
0.31432437
0.31444245
0.32017827
0.31450453
0.31478102
0.32841851
0.31232684
0.32156676
0.31873825
0.32193573
0.32532865
0.32766862
-0.24926982
-0.25715801
-0.23509876
-0.21937911
-0.23549533
-0.20018094
-0.22018616
-0.2582195
-0.26491981
-0.24953789
-0.23487863
-0.24821101
-0.26455131
-0.28593746
-0.27483119
-0.23023405
-0.2154943
-0.23457393
-0.27908294
-0.29938207
-0.29868834
-0.28973065
-0.2820229
-0.24614256
-0.27713438
-0.30261905
-0.29675682
-0.29693153
-0.30547404
-0.29881966
0.10098204
0.071483387
0.06284194
0.049899992
0.096036449
0.041503592
0.05138084
0.057489301
0.078268172
0.10148652
0.04336021
0.072759662
0.070676413
0.090494351
0.059873205
0.060859002
0.085454352
0.05164876
0.068274649
0.095487243
0.11723581
0.083546542
0.086846136
0.031751219
0.077721759
0.090764625
0.10886822
0.097177506
0.10449504
0.1552854
-0.013416317
-0.047009015
-0.07661651
-0.056424627
-0.070661725
-0.074418074
-0.080175026
-0.082357781
-0.047723257
-0.042776179
-0.054711494
-0.078978558
-0.024271125
-0.038835186
-0.075311677
-0.0579175
-0.075138952
-0.093771737
-0.099189665
-0.052042938
-0.039686205
-0.055558071
-0.070081503
-0.071093473
-0.090776117
-0.041462377
-0.038723705
-0.06122324
-0.041659488
-0.032407863
0.0080905585
-0.0078147706
0.014683794
-0.0037281767
-0.0066483077
0.012154531
0.010784776
0.010221577
0.015906513
-0.00059794581
0.012533161
0.021027099
0.0067928834
-0.0012476416
-0.0039814192
-0.006909457
-0.011723536
0.0067868888
0.020021706
0.022919208
0.038802522
0.022780581
0.018841848
0.02737667
0.021283202
0.013732978
0.016148656
0.030282807
0.032407763
0.040787957
0.27438173
0.28815319
0.28550192
0.28469511
0.28133755
0.283004
0.27991761
0.28601665
0.28404454
0.27980593
0.2945792
0.30416469
0.30929807
0.32330127
0.31648015
0.3288154
0.29918282
0.30208694
0.30402329
0.30161774
0.29916592
0.30490139
0.30745815
0.30704385
0.30287478
0.31367377
0.31129069
0.32586116
0.31693371
0.32332503
-0.23574816
-0.21874554
-0.24171567
-0.26901103
-0.24621668
-0.25309499
-0.27084267
-0.2681547
-0.25425483
-0.24435343
-0.21395882
-0.20966587
-0.23526599
-0.2607717
-0.29087426
-0.22502878
-0.27718393
-0.27256262
-0.2846664
-0.2904381
-0.28718163
-0.26198257
-0.29446082
-0.26917246
-0.28444128
-0.28745408
-0.30015126
-0.25702376
-0.28042194
-0.30074893
0.097879826
0.047627825
0.08748924
0.073238872
0.10286579
0.073244157
0.083448966
0.10005777
0.087837652
0.067094478
0.055899281
0.075021528
0.066708525
0.11122755
0.098433936
0.050497202
0.089317185
0.11758574
0.1179024
0.1159642
0.099425699
0.10665004
0.10680628
0.10240531
0.10246526
0.12014053
0.093973091
0.059963161
0.075782485
0.084435276
-0.054257196
-0.078989054
-0.083699638
-0.047378909
-0.063037518
-0.071854427
-0.042626121
-0.038831697
-0.043994581
-0.062013519
-0.047749783
-0.054559022
-0.069350808
-0.11497634
-0.052335754
-0.12029259
-0.075911686
-0.07535272
-0.063423723
-0.078520494
-0.10169319
-0.12977323
-0.05158793
-0.13326651
-0.094961933
-0.066801312
-0.072744935
-0.088688265
-0.10959417
-0.04830841
-0.0052687582
0.0025667296
0.021931525
0.0027590812
0.020241579
0.023343104
-0.00066973501
0.022040941
0.011707268
0.010677143
-0.0029968043
-0.0078760656
-0.0070373794
0.017363821
0.019606791
0.011843966
0.0047178045
-0.012401283
0.0072062353
-7.401555e-05
0.040168371
0.036322937
-0.0034652796
0.019650031
-0.01155465
-0.014109746
-0.0090466275
0.017368614
0.025826016
0.024329365
0.28521268
0.2891961
0.28669894
0.28816436
0.28246581
0.29633805
0.27758071
0.28988241
0.28270466
0.28165163
0.26903446
0.30638955
0.31905826
0.32437156
0.31845225
0.32023413
0.32018249
0.30251178
0.3141926
0.30083585
0.33396688
0.3199411
0.31512538
0.31683462
0.33340598
0.30843134
0.31929959
0.33252607
0.33442905
0.32579846
-0.21109004
-0.22014705
-0.26024993
-0.26421323
-0.22213486
-0.21841979
-0.25468143
-0.2633733
-0.25718646
-0.24116775
-0.25027515
-0.20216004
-0.20498942
-0.28276148
-0.28191228
-0.24489059
-0.21470135
-0.24648635
-0.26732176
-0.26746129
-0.22773689
-0.21851582
-0.28616586
-0.24640004
-0.23312863
-0.26759006
-0.26212643
-0.2065814
-0.22338115
-0.25430192
0.062419297
0.044473489
0.091667231
0.087231074
0.093437038
0.05525793
0.096462171
0.10930595
0.10860767
0.091349198
0.083523892
0.048345373
0.03578717
0.1126743
0.093211419
0.067909849
0.054726426
0.085950082
0.12091703
0.078865461
0.042482436
0.07422376
0.083627364
0.10025832
0.066120346
0.14414306
0.078379742
0.066796715
0.075428918
0.08795242
-0.050784325
-0.090701409
-0.044447849
-0.026767301
-0.10001491
-0.057387937
-0.052747723
-0.022212604
-0.02835559
-0.046247327
-0.053190253
-0.066353662
-0.086611728
-0.04245459
-0.040393939
-0.11877653
-0.094884579
-0.079348433
-0.040919889
-0.096669961
-0.077951147
-0.10070285
-0.0511557
-0.07694285
-0.034366052
-0.036671424
-0.073333895
-0.052261465
-0.075947681
-0.096125312
-0.00074732683
0.011744806
0.020279033
0.026681138
0.035600849
0.0082358977
0.0055589636
0.027822541
0.0069673605
-0.00063964101
-0.0097445241
-0.0065162466
0.0048969606
0.025418835
0.036409507
0.031245392
0.010335418
-0.011788086
-0.0015679088
0.00051315584
0.029981834
0.011159071
-0.019168895
-0.019676998
-0.019789323
-0.01718592
-0.0058822551
-0.0035970682
-0.0068654595
0.017346972
)
;

boundaryField
{
    minX
    {
        type            fixedFluxPressure;
        gradient        uniform 0;
        value           nonuniform List<scalar> 
50
(
0.2829487
-0.24064272
0.10922455
-0.02681573
0.038205455
0.27558352
-0.2431937
0.079611347
-0.042732898
0.0052549929
0.2659643
-0.21897702
0.077832577
-0.05714855
0.044730027
0.26021543
-0.22670653
0.091162807
-0.081365279
0.049808056
0.2631315
-0.23577223
0.099204154
-0.068514758
0.005368229
0.2836039
-0.24698497
0.081832031
-0.050982297
0.011137516
0.28178189
-0.24226464
0.085905961
-0.044710853
0.017293573
0.28370747
-0.24926982
0.10098204
-0.013416317
0.0080905585
0.27438173
-0.23574816
0.097879826
-0.054257196
-0.0052687582
0.28521268
-0.21109004
0.062419297
-0.050784325
-0.00074732683
)
;
    }
    maxX
    {
        type            fixedFluxPressure;
        gradient        uniform 0;
        value           nonuniform List<scalar> 
50
(
0.33331527
-0.2734428
0.08144812
-0.069699123
0.012311659
0.32020177
-0.30392136
0.1259479
-0.053830191
0.00021270047
0.3298915
-0.29733877
0.15430673
-0.041133128
0.033126504
0.33168078
-0.29739041
0.089260525
-0.061788237
0.013672663
0.33468137
-0.28413984
0.081949303
-0.055241261
0.00088960712
0.33546537
-0.27807691
0.072921629
-0.068564891
0.0023440303
0.32444835
-0.29617266
0.09017018
-0.060483044
0.015434086
0.32766862
-0.29881966
0.1552854
-0.032407863
0.040787957
0.32332503
-0.30074893
0.084435276
-0.04830841
0.024329365
0.32579846
-0.25430192
0.08795242
-0.096125312
0.017346972
)
;
    }
    minY
    {
        type            fixedValue;
        value           uniform 0;
    }
    minZ
    {
        type            fixedFluxPressure;
        gradient        uniform 0;
        value           nonuniform List<scalar> 
150
(
0.2829487
-0.24064272
0.10922455
-0.02681573
0.038205455
0.28135987
-0.24292582
0.056804379
-0.061598593
0.021083932
0.28807648
-0.18414061
0.038528158
-0.053452161
0.017909032
0.29128597
-0.14988699
0.029070619
-0.04757765
0.018864896
0.28707607
-0.14603469
0.024330273
-0.046591215
0.023770079
0.27672647
-0.1649747
0.024270738
-0.051113276
0.013928809
0.27152185
-0.19795365
0.027439074
-0.046107711
-0.0037174478
0.25953684
-0.22580703
0.048105434
-0.046795626
-0.00069690657
0.26970996
-0.2369676
0.074867776
-0.019216693
-0.013363887
0.26840422
-0.22804697
0.066474915
-0.036948245
-0.015626755
0.25706212
-0.22484505
0.0573774
-0.051107278
-0.020074944
0.28356414
-0.20181053
0.051378085
-0.034036927
-0.017527589
0.28569149
-0.19113875
0.073573036
-0.056491656
-0.018520434
0.30223211
-0.20948236
0.055873484
-0.076673829
-0.0093097685
0.29813006
-0.26275002
0.07987463
-0.085429405
0.0046400876
0.30038509
-0.27296467
0.10524802
-0.054709851
0.01932844
0.2947084
-0.25941213
0.12790628
-0.07152295
0.032559071
0.2993051
-0.24297178
0.077014105
-0.089298596
0.017958482
0.29134366
-0.25422976
0.12169927
-0.066431955
-0.0059996654
0.30853172
-0.2202169
0.058562092
-0.050743669
-0.014810401
0.31857148
-0.17945152
0.058397456
-0.076692494
-0.0018065091
0.3234583
-0.22515976
0.06649953
-0.051583903
-0.0041062938
0.31575594
-0.27055207
0.076966783
-0.061689982
-0.0062281846
0.32171831
-0.28912631
0.094894131
-0.042364569
0.018510069
0.32168873
-0.28708762
0.086800391
-0.039856196
0.014685464
0.31597185
-0.26466921
0.064697662
-0.10370968
0.018469346
0.32900066
-0.23583516
0.059144718
-0.053786816
-0.0020405434
0.33504093
-0.21982304
0.07105775
-0.055058569
-0.0096828985
0.34064895
-0.22364464
0.025023525
-0.082072409
0.01136346
0.33331527
-0.2734428
0.08144812
-0.069699123
0.012311659
)
;
    }
    maxZ
    {
        type            fixedFluxPressure;
        gradient        uniform 0;
        value           nonuniform List<scalar> 
150
(
0.28521268
-0.21109004
0.062419297
-0.050784325
-0.00074732683
0.2891961
-0.22014705
0.044473489
-0.090701409
0.011744806
0.28669894
-0.26024993
0.091667231
-0.044447849
0.020279033
0.28816436
-0.26421323
0.087231074
-0.026767301
0.026681138
0.28246581
-0.22213486
0.093437038
-0.10001491
0.035600849
0.29633805
-0.21841979
0.05525793
-0.057387937
0.0082358977
0.27758071
-0.25468143
0.096462171
-0.052747723
0.0055589636
0.28988241
-0.2633733
0.10930595
-0.022212604
0.027822541
0.28270466
-0.25718646
0.10860767
-0.02835559
0.0069673605
0.28165163
-0.24116775
0.091349198
-0.046247327
-0.00063964101
0.26903446
-0.25027515
0.083523892
-0.053190253
-0.0097445241
0.30638955
-0.20216004
0.048345373
-0.066353662
-0.0065162466
0.31905826
-0.20498942
0.03578717
-0.086611728
0.0048969606
0.32437156
-0.28276148
0.1126743
-0.04245459
0.025418835
0.31845225
-0.28191228
0.093211419
-0.040393939
0.036409507
0.32023413
-0.24489059
0.067909849
-0.11877653
0.031245392
0.32018249
-0.21470135
0.054726426
-0.094884579
0.010335418
0.30251178
-0.24648635
0.085950082
-0.079348433
-0.011788086
0.3141926
-0.26732176
0.12091703
-0.040919889
-0.0015679088
0.30083585
-0.26746129
0.078865461
-0.096669961
0.00051315584
0.33396688
-0.22773689
0.042482436
-0.077951147
0.029981834
0.3199411
-0.21851582
0.07422376
-0.10070285
0.011159071
0.31512538
-0.28616586
0.083627364
-0.0511557
-0.019168895
0.31683462
-0.24640004
0.10025832
-0.07694285
-0.019676998
0.33340598
-0.23312863
0.066120346
-0.034366052
-0.019789323
0.30843134
-0.26759006
0.14414306
-0.036671424
-0.01718592
0.31929959
-0.26212643
0.078379742
-0.073333895
-0.0058822551
0.33252607
-0.2065814
0.066796715
-0.052261465
-0.0035970682
0.33442905
-0.22338115
0.075428918
-0.075947681
-0.0068654595
0.32579846
-0.25430192
0.08795242
-0.096125312
0.017346972
)
;
    }
    bottomWater_to_rightSolid
    {
        type            fixedFluxPressure;
        gradient        uniform 0;
        value           nonuniform List<scalar> 
130
(
0.017958482
-0.0059996654
-0.014810401
-0.0018065091
-0.0041062938
-0.0062281846
0.018510069
0.014685464
0.018469346
-0.0020405434
-0.0096828985
0.01136346
0.012311659
-0.012749735
-0.0083988063
-0.018200383
0.025022212
0.023446373
0.00028826791
0.012857408
0.025021361
0.0066562825
-0.018563941
0.009026255
0.017937958
0.00021270047
0.0042703749
0.020575341
0.042882428
0.0186721
0.034717488
0.014470425
0.014193124
-0.0039275726
-0.0065927576
0.024866126
0.021468401
0.025019562
0.033126504
-0.014132625
-0.012135188
0.013240215
0.02696155
0.042171199
0.04705002
0.029836937
-0.0072553814
-0.012430595
-0.018928852
0.0072308786
0.013200525
0.013672663
0.004888894
-0.014500842
0.027344277
0.030077873
0.027418297
0.015234141
0.016766031
-0.022490533
-0.009912312
-0.0099142092
-0.021089043
7.6687135e-05
0.00088960712
-0.0059018972
-0.0098490415
0.029639408
0.021261649
-0.014987047
-0.012988242
-0.022682246
-0.021332511
-0.0087864971
-0.027192661
-0.019614592
0.0032905725
0.0023440303
0.01978658
0.018586433
0.038575955
0.027537409
0.020478818
0.010725082
-0.013514182
-0.022823492
-0.020091202
-0.0082894286
0.01395616
0.015182447
0.015434086
0.0067868888
0.020021706
0.022919208
0.038802522
0.022780581
0.018841848
0.02737667
0.021283202
0.013732978
0.016148656
0.030282807
0.032407763
0.040787957
-0.012401283
0.0072062353
-7.401555e-05
0.040168371
0.036322937
-0.0034652796
0.019650031
-0.01155465
-0.014109746
-0.0090466275
0.017368614
0.025826016
0.024329365
-0.011788086
-0.0015679088
0.00051315584
0.029981834
0.011159071
-0.019168895
-0.019676998
-0.019789323
-0.01718592
-0.0058822551
-0.0035970682
-0.0068654595
0.017346972
)
;
    }
    bottomWater_to_leftSolid
    {
        type            fixedFluxPressure;
        gradient        uniform 0;
        value           nonuniform List<scalar> 
130
(
0.038205455
0.021083932
0.017909032
0.018864896
0.023770079
0.013928809
-0.0037174478
-0.00069690657
-0.013363887
-0.015626755
-0.020074944
-0.017527589
-0.018520434
0.0052549929
0.0013679303
-0.0032141162
-0.0012990277
-0.00047736753
-0.0098912134
-0.026586253
-0.0052472872
-0.0062586671
-0.012207267
-0.011556254
-0.012242299
-0.017616509
0.044730027
0.022307325
0.0028369002
-0.0041265457
0.0067085613
0.014272571
0.019455413
0.020115161
0.011471119
0.005829829
0.0086062942
-0.0034814906
-0.020391644
0.049808056
0.020000271
-0.010974953
-0.013568445
-0.012692841
-0.010062712
0.0082134418
0.037575222
0.016286228
0.0080851366
0.006876803
-0.0086262782
0.0010033443
0.005368229
0.0020924932
-0.022466
-0.026371815
-0.018553839
-0.019726791
-0.0073057485
0.015212531
0.0048681697
0.00078559144
0.011562324
0.018116957
0.021032015
0.011137516
0.0063019963
-0.02051381
-0.018215953
-0.0097195306
-0.018396628
-0.018450371
-0.0057598937
-0.0061634932
0.0045811487
0.0092952937
0.0056824252
0.007513783
0.017293573
0.013134551
0.0011257638
-0.018023334
-0.014658381
-0.016495283
-0.013540437
-0.0051542715
0.0035165251
0.0091931591
0.011785732
0.025914107
0.020413148
0.0080905585
-0.0078147706
0.014683794
-0.0037281767
-0.0066483077
0.012154531
0.010784776
0.010221577
0.015906513
-0.00059794581
0.012533161
0.021027099
0.0067928834
-0.0052687582
0.0025667296
0.021931525
0.0027590812
0.020241579
0.023343104
-0.00066973501
0.022040941
0.011707268
0.010677143
-0.0029968043
-0.0078760656
-0.0070373794
-0.00074732683
0.011744806
0.020279033
0.026681138
0.035600849
0.0082358977
0.0055589636
0.027822541
0.0069673605
-0.00063964101
-0.0097445241
-0.0065162466
0.0048969606
)
;
    }
    bottomWater_to_heater
    {
        type            fixedFluxPressure;
        gradient        uniform 0;
        value           nonuniform List<scalar> 
92
(
-0.0093097685
0.0046400876
0.01932844
0.032559071
-0.012397729
0.015801016
0.0026981785
-0.0021564304
-0.0085884506
-0.003507994
-0.017453565
-0.0015991075
0.2735418
0.27525971
0.28268049
0.28223165
-0.22557413
-0.23354035
-0.2451053
-0.24973262
0.0944569
0.093447685
0.10340435
0.12152842
-0.10228753
-0.08680807
-0.10010786
-0.058789981
0.035174913
0.035174913
0.033087751
0.033087751
0.0046198921
0.0046198921
-0.0080963039
-0.0080963039
0.27350588
0.30558791
-0.23220878
-0.25342107
0.068719486
0.11891074
-0.076052333
-0.034284141
0.021032015
0.004888894
0.27771689
0.29467123
0.31667841
0.31308058
0.30438356
0.31717268
-0.21289083
-0.25228804
-0.21862029
-0.21280546
-0.28444982
-0.23032134
0.036447782
0.072045291
0.064412584
0.083721235
0.11112636
0.059221077
-0.049557698
-0.092703552
-0.048483694
-0.070562455
-0.072789873
-0.091275681
0.007513783
0.0015812015
-0.011291831
-0.0083432069
-0.0059018972
-0.0036224357
0.0015812015
-0.011291831
-0.0083432069
-0.0036224357
-0.0012476416
-0.0039814192
-0.006909457
-0.011723536
0.017363821
0.019606791
0.011843966
0.0047178045
0.025418835
0.036409507
0.031245392
0.010335418
)
;
    }
}


// ************************************************************************* //
