/*--------------------------------*- C++ -*----------------------------------*\
| =========                 |                                                 |
| \\      /  F ield         | OpenFOAM: The Open Source CFD Toolbox           |
|  \\    /   O peration     | Version:  v2012                                 |
|   \\  /    A nd           | Website:  www.openfoam.com                      |
|    \\/     M anipulation  |                                                 |
\*---------------------------------------------------------------------------*/
FoamFile
{
    version     2.0;
    format      ascii;
    class       surfaceScalarField;
    location    "720/bottomWater";
    object      phi;
}
// * * * * * * * * * * * * * * * * * * * * * * * * * * * * * * * * * * * * * //

dimensions      [1 0 -1 0 0 0 0];
oriented        oriented;


internalField   nonuniform List<scalar> 
3858
(
-0.00021353874
0.00011134041
0.00010560166
-0.00028195994
5.3089933e-05
1.9180297e-05
-0.00017700655
-0.00014603321
4.3493139e-05
1.8192938e-05
-0.00031140097
0.000117879
0.00016896213
-0.00028385646
0.0001356905
0.000233479
-0.00019157527
0.00013206535
0.00029739149
-0.00014502543
8.7308859e-05
0.00016320281
0.00012675336
1.6186528e-05
-5.6648139e-05
0.00016107372
6.5137151e-05
-0.00027131062
0.00016242845
5.8963821e-05
-0.00038935948
0.00012261118
4.8740579e-06
-0.00021666712
-0.00017884931
9.6935992e-06
-1.332153e-05
-0.00015622381
-4.4350476e-05
0.00015672941
-0.00011833213
-5.2726367e-05
0.00015584934
2.954935e-05
-2.87327e-05
1.2881727e-05
0.00010400516
3.8343139e-05
-0.00014137505
0.00011044218
4.4466231e-05
-0.00018501313
-5.4002711e-05
9.7405155e-05
-0.000286058
2.9103633e-05
7.3564359e-05
-0.00017951405
-0.0002469488
0.00013842666
2.9303501e-05
-0.00033581336
0.00012261913
0.00022621861
-0.00029940154
9.7005024e-05
0.00016613646
-3.5178062e-05
9.1380474e-05
-3.685499e-05
0.00013823946
5.9431352e-05
-0.0002366509
0.00013966241
5.488028e-05
-0.00032011294
-1.8200144e-05
9.7869672e-05
-0.0001911964
-0.00024294673
0.00010750339
1.5277916e-05
-0.00032539877
0.00011084758
0.00016130918
-0.00026301999
0.00010756827
4.4776601e-05
0.00010855513
-0.00044324162
0.00065843231
-0.00010385028
-0.00049817718
0.00027508679
-0.00016706131
-0.00025631789
-0.00030270613
-8.5186374e-05
-7.6197098e-05
-0.00059310341
0.00010158165
2.8634729e-05
-0.00055511955
0.00016643126
9.9115307e-05
-0.00044415507
0.00018209922
0.00026295147
-0.0004227632
0.00011390162
0.00032280909
-1.1521673e-05
7.8417418e-05
-4.7880133e-05
0.00045635855
7.5404398e-05
-0.00030631035
0.00030671157
0.0001141471
-0.0002243998
-1.8528385e-05
5.9229017e-05
3.3859741e-05
-0.00046922857
3.211972e-05
0.00030912998
-0.00036291093
-6.8583106e-05
0.00061317769
-0.00029830969
-0.00012407015
0.0005687047
0.00021460858
-0.00014058625
9.693835e-05
0.0006613901
-8.5618584e-05
-0.00013088151
0.00023921433
9.9047702e-05
-7.1443108e-05
-0.00024633607
0.00013289495
-0.00012897236
-0.00010481586
0.00019144874
-1.331949e-05
-0.00057401123
0.00021140955
9.8262562e-05
-0.00061214514
0.00016474973
0.00029059013
-0.0006580181
0.00016628901
0.00030629636
-0.00017783041
0.00012694615
-7.1088511e-05
0.00059714076
-8.1516412e-05
-0.00039820184
0.00059154575
-0.00012476999
-0.00032856775
-0.00016446613
7.6631899e-05
-0.00012850559
-0.00058454996
0.00014154107
5.7597685e-05
-0.00068464934
0.00017314729
0.00033352927
-0.00062321445
8.426286e-05
0.0002266279
0.00015167797
5.0992706e-05
0.00063025228
-2.2812676e-05
0.00022587146
0.00013230018
-3.209214e-05
0.00016566438
-0.00010554653
-0.00013695251
-2.4778076e-05
-0.00010288881
-0.00029977215
-0.00019088423
-9.8209002e-05
-0.00029080439
-0.00029255221
-0.00010216317
-0.00024032392
-0.00035728224
-0.0001371784
-0.00022085477
-0.00015391701
-7.9632724e-05
-0.00013525417
8.1406501e-06
0.00028262812
1.1672764e-05
0.00010924532
9.6351203e-05
0.0001092557
0.000223168
-0.00026166944
0.00012921838
0.00011340949
-0.00044827046
8.8800404e-05
0.00012423406
-0.00033571746
-3.8018043e-05
7.8108662e-05
-0.00017680592
-7.5378375e-05
0.00013392695
0.00011354651
4.5243794e-05
0.00017568156
0.00063303096
-1.3395481e-05
0.00018971307
0.00017947625
4.5706565e-05
0.00010617306
-9.7046107e-05
-6.5749964e-05
0.00032091714
-0.00039850741
7.8947468e-05
0.00016482757
-0.00043049762
1.2575958e-05
-0.00014293268
-0.0001704018
-0.00013398308
-0.00027505102
-0.00038865404
-0.00013724568
-8.0849638e-05
-0.00036555764
-6.47412e-06
-1.3568253e-05
0.0005329899
-3.1304885e-06
3.1027738e-05
0.00050339526
4.3554525e-05
0.00010456262
-7.2374455e-05
-0.00016562654
8.21372e-06
-0.00045467769
-3.3523365e-05
-1.6115341e-05
-0.0005496295
-0.00011069079
-0.00020311204
-0.00011807532
-0.00031814245
0.00010289867
-7.9382822e-05
0.00021790009
0.00035454607
5.7806117e-05
0.00020336683
0.00011939832
2.7435106e-05
5.5131502e-05
5.8703153e-05
-1.6014359e-05
3.8019858e-05
8.5268844e-05
-0.000171046
-7.0172975e-06
0.00015566683
-0.00020883867
-9.5170403e-05
0.00014933335
-0.0001633434
-0.00014060052
2.8671226e-05
-0.0001204195
-9.3847898e-05
4.1008349e-05
-0.00016739369
0.00022283217
-7.7013737e-05
4.2961791e-05
0.0003269714
-9.8119026e-05
9.0331007e-05
0.00021027762
-0.00024525868
0.00010028302
0.00017707838
-0.00043118298
1.6111768e-05
0.00022288598
-0.00030536003
-7.6165019e-05
9.5826322e-05
2.8855936e-05
-7.8602192e-05
4.2273442e-06
0.00018809718
1.7048302e-05
0.00021842427
0.00040145393
1.7380108e-05
0.00013457824
0.00038135344
-0.00011803118
1.9653964e-05
0.00015487696
-0.0001369988
3.8614779e-05
-0.00038875298
-2.8715262e-05
-2.7533218e-05
-0.00040522536
4.0875752e-05
-0.00010616989
-8.9579239e-05
-2.1858755e-06
-0.00011378809
-0.0003236661
-5.7369706e-05
-8.7958822e-05
-0.00036457142
-2.6815442e-05
8.8780628e-05
0.00023538442
0.00012086607
0.00018092694
0.00028282331
0.00012842567
2.3183627e-05
0.00022709609
-0.00014172722
-0.00010308298
-0.00036738029
3.8969198e-05
-6.1226544e-05
-0.00058221553
-9.2704235e-06
-0.00013792977
4.1160344e-05
-8.2532449e-05
0.00012403664
-0.00015906775
0.00028152507
7.3021005e-05
0.00031722132
8.3702073e-05
0.00024711617
0.0001288083
0.00020027586
0.00013210916
0.00028626424
6.967845e-05
0.00037178101
6.381658e-05
0.0003341013
6.6350939e-05
0.0003667033
8.4063483e-06
0.00034620839
-5.6518819e-05
0.00033888284
-9.0793475e-05
0.00020753438
-0.00011391022
-9.079939e-05
-0.00013284921
-0.00033206426
-6.4095156e-05
-0.00030522472
2.0163923e-06
-0.00016475472
4.7627171e-05
8.2074977e-05
0.00015462422
0.00034971364
0.00011371476
0.00042257502
8.201557e-05
0.00015544941
-0.00012162736
-5.1216235e-05
-0.00019855972
7.840963e-05
-0.00021920509
1.7509279e-05
-0.00026276572
-0.00016835246
-0.00017870965
-9.0189634e-07
6.7933889e-05
0.00019685426
8.5067175e-05
0.00034245183
8.1498525e-05
-4.3433982e-06
-2.0585061e-05
-0.00039743472
-0.00018912422
-0.00022133008
-0.00013494431
-9.7293438e-05
-0.00012608147
0.0001292727
0.0001074834
-3.5368685e-06
-5.1363129e-05
-4.6898756e-05
0.00024696723
-0.00025719907
5.4295425e-05
0.00026561924
5.3405198e-05
5.4877933e-05
0.00023764977
0.00011677485
5.6681554e-05
0.00017570194
0.00013756951
6.6279891e-05
6.866759e-05
0.0001493728
5.3820063e-05
-8.9094772e-05
0.00013890217
4.2733024e-05
-0.00024596183
0.00016331192
6.6358678e-05
-0.00038646511
0.00016189334
4.6663129e-05
-0.00040814648
7.7625382e-06
2.7899865e-05
-0.00019666524
-0.00025758628
5.9307011e-05
-1.5596819e-05
-0.00022811027
5.3504012e-06
0.00016595949
-0.00019966899
-3.4753777e-05
0.00022734796
-0.0001043586
1.3643854e-05
0.00010157598
9.0223656e-05
7.3906181e-05
-6.9654399e-05
0.00013555016
7.9521702e-05
-0.00017517452
0.00012654724
7.5752451e-05
-0.00021996124
0.00014156407
-2.3730887e-05
-0.00019088242
0.00012203667
-1.2860922e-05
2.3322928e-05
-0.00012200205
2.6275958e-05
9.79281e-05
2.2782967e-05
-3.5229506e-06
1.8216377e-05
0.00015241683
1.5128861e-05
-2.8406882e-05
0.00013044551
-2.9174661e-05
-8.4944595e-05
0.00011004687
-3.039642e-06
-0.00014053349
0.00016590383
-1.5998355e-05
-0.00011567987
0.00012364413
-4.4404134e-05
-4.5053034e-05
8.5590996e-05
-4.9056793e-05
5.977097e-06
6.841795e-05
-1.5648415e-05
0.00014483188
-3.5365034e-05
-0.00025349778
0.00041921448
-0.00014029429
-9.8964573e-05
-0.00017169173
-0.00020126591
0.00018695278
-0.00059553816
-3.2764641e-05
0.0002531659
-4.1505008e-05
0.00013027874
0.00025740139
4.026916e-05
0.00023870147
0.00023218788
8.9433095e-05
0.00025544914
0.00015399863
0.00018199101
0.00015947266
-2.0637577e-05
0.00032158001
7.0375778e-05
-0.00031358485
0.00042674784
0.00010491575
-0.00040902077
0.00026868583
0.00010279052
-0.00028184748
-0.00013917679
7.8995066e-05
-2.411773e-05
-0.00055878025
7.5583938e-05
0.00016907979
-0.00046107286
-2.8818031e-05
0.00037742114
-0.00040971522
-0.00012236527
0.00055006613
-0.00031016293
-0.0001074269
0.00043174469
0.00022822501
-0.0001052985
0.00017406612
0.00055165669
-5.9380265e-05
-4.8795341e-05
0.00041289546
6.9408174e-05
-0.0001421408
0.00043394071
-7.5824528e-06
-2.5926292e-05
0.0002091435
8.088208e-06
0.00024242445
-0.00036626464
0.00014066159
0.00029703505
-6.4274742e-05
0.00019873612
7.7097783e-05
0.00039129039
0.00010800988
-6.7672238e-05
0.00024590482
-5.2205682e-05
-4.9230585e-05
4.9033237e-05
-8.2198001e-05
-0.00018379412
0.00042551698
-4.8417702e-05
-0.00019211976
0.00027872877
-5.2179432e-06
4.3764869e-05
-1.013237e-05
3.2986021e-05
0.00025026792
-8.5425389e-05
3.1603142e-05
0.00052082692
2.5950845e-05
0.00020345954
0.00027270172
-7.9759455e-05
0.00022404925
-0.00011967171
-0.00010470187
-7.8490478e-05
-0.00013922619
-0.00029072476
-0.0001228552
-4.4051716e-05
-0.00025286072
-0.00017435339
-9.1489631e-06
-0.00018988807
-0.00024196194
2.135654e-05
-0.00010463882
-6.1952548e-05
-0.00015682893
-6.2044214e-05
5.9378834e-05
7.8320452e-05
-1.3325993e-05
8.7327678e-05
0.00033040088
8.0070887e-05
0.00023322838
0.0001597963
7.2244531e-05
0.00027966708
-9.4581911e-05
3.8184802e-05
2.9774365e-05
-0.00020975628
-1.033085e-05
2.5134157e-05
-0.00041024833
-8.4202364e-05
-7.2042983e-05
-0.00028356943
-0.00010434702
-0.00023811751
-6.6471063e-05
-3.2373551e-05
-9.6911525e-05
0.00015185022
-7.8226685e-05
5.7329911e-05
0.00048963881
-4.6516993e-05
0.00016769603
0.00018057892
5.6200454e-05
0.00026621814
0.00023049443
0.00018387164
0.00022555626
9.8675133e-05
0.0001637062
-0.0001121865
-6.8998558e-05
-9.350638e-05
-0.00019581315
-0.00010232974
-1.5564015e-05
-6.8132633e-05
0.00012460321
0.00013253258
-6.174227e-06
-1.6004555e-05
0.00019682051
-1.4744146e-05
-6.3334797e-05
0.0001644925
-7.8574592e-05
0.0003142759
9.4449967e-06
0.00016962487
-0.00013504665
0.0001320526
0.00018296205
-0.00015769225
2.3531891e-05
8.395482e-06
-7.9344533e-05
-0.00014965675
0.00047952367
-2.9684101e-05
0.00018271208
4.9974766e-05
9.7820997e-05
0.00011806448
-6.3506232e-05
3.5917225e-05
8.262355e-05
-8.9690942e-05
-3.0108678e-05
7.1481389e-05
-4.113362e-06
-0.0001998422
-3.2495635e-05
0.00011361325
-0.00022762386
-5.6595379e-05
2.6335548e-05
-0.00014422266
1.0118276e-05
-0.00032861183
-1.535026e-05
8.0444336e-05
-0.00014979881
-9.6004893e-06
0.0003103863
2.8849764e-05
0.00011457094
0.00040153374
-1.6006927e-06
0.00016058057
0.00021150202
5.8261573e-05
0.00013747126
9.7628499e-05
-0.00014613432
6.6363324e-05
0.00012159835
-0.0004494558
-6.0927396e-05
-3.1620857e-05
-0.00022703884
1.8086426e-05
-0.00029685769
0.00021240515
3.4089204e-06
-0.00029629054
0.00016056295
8.1002297e-06
3.0947897e-05
0.00010614212
-6.1772938e-05
0.00028353532
-0.00020205547
-6.951852e-06
0.00052342354
-0.00012724081
8.9131751e-05
0.00051523979
8.860733e-05
5.9127309e-05
0.00011665243
0.00035267973
-2.5276777e-05
-0.00021437852
0.00021696736
-4.5635825e-05
2.6173364e-05
-0.00021846066
7.5696587e-05
9.8006017e-05
-0.00018087581
0.00021390471
-0.00022760417
0.00037026976
2.0431337e-05
-7.2439668e-05
2.9757078e-05
-1.2372883e-05
0.00027518169
-0.00045599657
1.2297755e-05
4.2881945e-05
1.3530215e-05
5.180685e-05
-0.00036973494
0.00035045716
-9.9717276e-05
6.5450168e-06
-5.5824048e-05
0.00018390068
-6.090491e-05
0.00024382643
-3.9729911e-05
0.00023822963
4.4714156e-05
0.00025984345
0.00010638198
0.00037511484
6.8020315e-05
0.00043723934
2.8027633e-05
0.00022139095
-4.6412497e-05
0.00016346341
-8.3464922e-05
0.00022799738
-9.2203024e-05
0.00023927156
-0.00010366834
0.00027612376
-9.2500842e-05
0.00010658142
-0.00010944118
-0.00025269189
-0.00015427764
-0.00035654221
-0.00012117213
-8.8836908e-05
-7.6729841e-06
0.00012795815
9.8392101e-05
0.00023100016
0.00011681486
5.0696876e-05
6.0263368e-05
-0.00010855982
-8.9611477e-05
-4.0424107e-05
-0.00017808809
0.00013026038
-3.7209819e-05
0.00021590064
-0.00013143859
-2.0106681e-05
-0.00016116296
-0.00013242924
-6.1933392e-07
0.00022648047
9.6427244e-05
0.0001984987
0.00013923739
-0.00023373826
-4.4344672e-05
-0.00031783308
-9.1499194e-05
-9.8229594e-06
-9.2497288e-05
-0.00010057138
-4.638633e-05
0.00010387059
5.7108469e-05
0.00014637285
-0.00020592723
-2.8725887e-05
0.00013426445
0.00011374927
-3.9283282e-05
0.00011027245
0.00015027803
-6.4485104e-05
9.0093729e-05
0.00015277761
-6.9064138e-05
2.5440377e-05
0.00016056684
-2.2785913e-05
-2.9762919e-05
0.00014840919
-3.3749544e-05
-0.00014588809
0.00015110125
1.3674697e-05
-0.00029024929
0.00017817507
3.928296e-05
-0.00041512231
0.00016391917
1.5903685e-05
-0.00038419045
-1.6216031e-05
2.013094e-05
-0.00022231936
-0.0001981531
9.9646224e-05
-9.0218097e-05
-0.0002628451
0.00013857971
9.1168679e-05
-0.00032681896
0.00011023767
0.00012173141
-0.0001295254
0.00011342328
-3.497542e-05
0.00011984446
0.00011161444
-0.00016140726
0.00013417224
7.1587198e-05
-0.00021786576
0.00015696935
-2.4486345e-05
-0.0002622905
0.00012677433
-0.00010542982
-0.00025405477
0.00011576565
-0.00013744348
-0.00022645442
0.0001270133
-0.00013183164
-0.0002485539
0.00014301334
-0.00012893138
-0.00027939309
0.00011708317
-7.4886413e-05
-0.000133589
-0.00014949219
-3.144701e-05
0.00011737145
-0.0002852385
2.2942198e-05
0.00012671806
0.00012078861
-0.00014942709
0.00011003016
0.00012799227
-0.00016061081
9.6339479e-05
0.00013270385
-0.00017286666
4.8452729e-05
0.00016960496
-0.00014392223
0.00013545046
-0.00012955063
-9.4414426e-05
9.1463632e-05
-3.3472906e-05
0.00021687362
-0.00059563427
-0.00012284692
0.00029984436
0.00010929797
-0.00011128408
0.00022597658
0.00049419348
-0.00013976893
0.00017794448
0.00050847384
-6.8962664e-05
9.4995763e-05
0.00052697332
-2.8008624e-05
-2.2954021e-05
0.0005425808
-0.00011674916
-0.00019681328
0.00060657253
-0.00021123624
-0.00038102685
0.00049904843
-3.1744038e-05
-0.00038435424
0.00019583627
7.4200809e-05
-0.00024214356
-0.00021355676
0.00013412511
-6.2548531e-05
-0.00049418414
0.00019201995
2.7012216e-05
-0.00054359141
0.00016236754
0.00013612472
-0.00065146844
9.3171705e-05
0.00030186816
-0.00040686925
4.1735083e-06
0.00027288306
0.00016263279
-0.00011910174
4.2268781e-05
0.00050194768
-0.00019654143
-0.00013527687
0.00053628112
-0.00013235796
-3.330595e-05
0.00013791053
-0.00012068958
0.00020066595
-1.021857e-05
-9.9899473e-05
2.2847121e-05
0.00046172118
-1.622746e-05
-0.00029623242
0.00063667817
2.4150846e-05
-0.00029574003
0.00022131495
3.2857189e-06
-0.00013987573
-0.00042246195
6.4899804e-05
5.2071569e-05
-0.00063376795
7.4384156e-05
0.00019603431
0.00013902148
-0.0002106133
0.00031015364
0.00013450336
-0.00012584837
0.0004103596
0.00020060258
-0.00013511867
0.00030122282
0.00048146891
-0.00017112404
0.00061261372
-0.0001499896
0.00018355328
-5.9679394e-05
-0.00011216971
-0.00014859014
-0.00011763501
-0.00025055771
-8.8271621e-05
3.4194783e-05
-0.00027594009
3.3825449e-05
0.00033286096
-0.00021362527
9.0032176e-05
0.00040394978
-0.00014157074
8.320098e-05
0.00043544357
-6.2778688e-06
1.3408074e-06
0.00044585483
0.00011654193
-7.3774461e-05
0.00054258201
0.0001257798
-2.6490403e-07
0.0004276488
7.796096e-05
0.00018010406
7.8305735e-05
9.4061112e-06
0.00020012731
-0.0001059255
-8.9469703e-05
7.963387e-05
-0.00024332674
-0.00014069481
-2.1103424e-05
-0.00039404743
-0.00013300906
-0.00033609369
-0.00016987455
-0.00027095064
-0.00048445639
-9.8041063e-05
-0.00019283904
-0.00020741061
-8.3090397e-05
-0.00010954928
1.0314877e-05
0.00027743226
-3.9727072e-05
9.5430729e-05
0.00048395803
2.3407685e-05
0.00014812601
6.5090406e-05
0.00020399648
9.5943829e-05
-9.3713526e-05
0.00029938334
3.4312779e-05
0.00034011724
8.9728626e-05
3.83067e-05
0.00057993716
3.7183107e-05
0.0002474221
0.00013101565
1.3716513e-05
-1.1799263e-05
-8.2802615e-05
0.00011638258
-0.00024781642
-0.00026300577
2.9747499e-05
7.1270358e-05
-0.00028391593
0.00011329564
0.00017145543
1.6559809e-06
0.0001647149
0.00014048153
7.0399886e-05
0.00018470847
1.0430073e-05
0.00034521045
0.00011665316
0.00060991938
-1.6559693e-05
-0.00027158362
0.00024948254
6.0242683e-05
-0.00047102669
0.00014802423
-3.0298945e-05
-0.00039075743
4.0697809e-05
-0.00011688097
-8.4800347e-05
-0.00010033016
-7.2608156e-05
7.8462961e-05
2.3626865e-05
-1.0564254e-05
0.0001173721
0.00013275453
0.00011955723
0.0001283629
0.00019999493
0.00021951885
0.00015228599
0.00025833667
0.00025072176
0.00030573921
0.00021559638
0.00017317015
0.00031150076
0.00013683968
9.6285081e-05
0.00016509668
0.00018952307
-1.1573235e-05
0.00014409717
-0.00014330334
-1.2660566e-05
0.00014369983
-0.00042288309
-3.1694383e-05
-9.5325228e-05
-1.7027823e-05
0.00010426475
-0.00031252212
6.6257625e-05
5.630712e-05
-0.00025947297
-0.00024749104
0.00011945171
6.9003839e-05
-0.00016885634
5.6038838e-05
0.00039471057
8.1223972e-05
7.0075461e-05
0.00019962207
0.0002411369
0.00010817375
-0.00014702176
0.0002367379
7.5319715e-05
-4.6820765e-05
0.00013616465
7.8474843e-05
0.00023306709
0.00027199283
-1.7579323e-05
0.00023650353
0.00016301579
4.0260044e-05
0.00011699048
6.2104877e-05
0.00018851031
8.8462956e-05
-0.0002169711
2.924226e-06
0.00010308013
-0.00041485084
0.00010394486
-2.7746062e-05
0.00010754741
3.7232518e-05
-0.00017159701
0.00020010497
6.5952694e-05
-0.00016970805
0.00017843194
6.5172269e-05
0.00037030906
1.4078208e-05
0.00018122532
7.3523104e-06
0.00028224516
7.2744787e-06
0.00029215011
7.5507012e-05
0.00016167297
0.00013652895
8.5175495e-05
0.00016814466
8.6610105e-05
0.00015934756
0.00013187535
0.00010831718
0.00022655613
8.0190974e-05
0.00028391633
6.6033157e-05
0.00028116598
3.5921688e-05
0.00035800692
2.0181293e-05
0.00018318
-7.7917597e-05
-0.0001609721
-0.00023300863
-0.00012622581
-0.00017294625
3.1151938e-05
-9.8793115e-05
-8.2148238e-05
-3.5798768e-05
-0.00017853438
4.434465e-05
-0.00012442829
8.7381249e-05
-8.7418567e-05
0.00011451569
-2.2783244e-05
-5.9854999e-06
5.7305046e-05
1.8866553e-05
0.00024296386
-4.5104553e-05
0.00034156001
-9.6743283e-05
0.00042623689
-2.3191312e-05
0.0002370487
6.8644353e-05
-0.00016204927
0.00012348453
-0.00023425279
0.00013540626
-0.00023315238
0.00010750535
-0.00022214823
7.4930483e-05
4.7589441e-05
1.1981636e-05
0.00013180803
-7.8310064e-05
9.0123202e-06
9.131949e-05
-0.00010682788
2.7074182e-06
0.00014893311
-0.00017398557
-1.3246179e-05
0.00014104036
-0.00018032413
-5.5374958e-05
0.00014304645
-0.00016098777
-0.00012212429
0.00013996702
-8.602149e-05
-0.00012524553
6.7401703e-05
-8.7940307e-05
-0.00013630076
8.8488135e-05
-5.4140982e-05
-0.00019444045
0.00016402532
-5.7111453e-05
-0.00025432054
0.00016579173
-8.1004621e-05
-0.00024453022
0.00013816216
-0.00012037165
-0.00018350575
9.8871092e-05
-5.4051265e-05
-0.00016330329
7.9495486e-05
4.5559307e-05
-0.00012934576
8.181251e-05
-0.00016174088
0.00015102126
-0.00019873611
0.00015220863
-0.00026705749
0.00014365261
-0.00028846219
0.00011465885
-0.00011322909
-0.00014202191
-0.00021350737
-3.7958688e-05
3.3260428e-05
-0.00029532374
-2.2632297e-05
-3.6914628e-05
-2.7067641e-05
-3.9858487e-05
-0.00020154983
0.00010892638
-7.9283988e-05
-0.00020941567
4.7701275e-05
-0.00011848724
7.8068257e-05
-0.00030371316
-2.5320908e-05
0.00012759832
3.9455581e-05
-7.3332729e-05
4.8242353e-05
6.0875161e-05
-0.00013646885
0.00015708708
-0.00018806278
-8.8456057e-05
0.00026116825
-0.00018196147
-0.00010219179
0.00016456812
8.6748533e-05
-0.00013984102
0.00016067929
-0.00013302763
-3.3441536e-05
0.00011532539
1.6451268e-05
5.9221167e-05
-4.0554955e-05
-8.3635176e-05
-2.2313053e-05
0.00038729613
-0.00026811288
-0.000142295
0.00041900516
-0.00029775178
-0.00020970256
0.00038142218
-0.00023993084
-9.1017436e-05
0.00012073289
-0.00012745962
1.5284152e-05
-5.4001478e-05
-0.00010164757
-2.9196238e-06
3.0664207e-05
-0.00013520854
-0.00012620176
0.00026698775
-1.142433e-05
-0.00021833398
0.00026139323
7.0731527e-05
-0.00019807222
0.00011412892
0.00013789659
-0.00022044008
0.00012886111
0.00018439779
-0.00012785673
-5.9119807e-06
0.00015519165
6.1999414e-05
-1.4871926e-05
0.00010929079
0.00010790339
-5.0648774e-06
0.00014746255
-0.00013281127
7.4857554e-05
6.0072556e-06
-0.00010445646
-5.2061179e-05
0.00020587478
-0.00057895468
4.4890197e-05
0.00046615441
-0.00069008029
3.457745e-05
0.00031213403
0.00016460039
-5.38751e-05
-0.00031808311
0.0008611257
-9.7831323e-05
-0.00025839917
6.3417178e-05
-7.21141e-05
0.00019713238
-0.00068541011
-8.9347849e-06
-7.8967609e-06
0.00039816118
-7.9292286e-05
-5.3736926e-05
5.5617867e-05
-0.00015951584
0.00019331541
-0.00052978348
-3.1179999e-05
0.00045032551
-0.00052980332
-4.4286929e-05
0.00045494335
4.676613e-05
-0.00013575949
0.00062351718
-0.00015788415
4.7729277e-05
1.1395224e-06
-4.5713121e-05
-9.3212736e-05
-7.6037873e-05
-7.413278e-05
-0.00015253517
0.00027659477
-0.0001059163
-0.00015579899
0.00029984873
-9.1205022e-05
2.4662184e-05
0.00016879468
-0.00010940441
0.00018555082
-6.6977587e-05
2.0543975e-05
7.5488038e-05
-5.620129e-05
0.00022880453
-7.1668128e-05
-4.161495e-06
0.00030776167
-9.207181e-05
0.00018088823
0.00018446416
-0.00010347703
0.00016093329
0.00012127127
-6.6154679e-05
-2.8055421e-05
1.5392284e-05
0.00010191763
-0.000177732
-2.1740054e-06
5.1227605e-05
-0.00015715854
6.8927527e-05
-0.00014368915
-9.0905818e-05
-0.00024993044
2.1305643e-05
-0.00021937047
7.3532964e-06
8.4152098e-05
-0.0002683921
0.00043405719
-0.0004234421
-7.5117894e-06
0.00025459097
-0.00024341811
4.7926121e-05
-8.8969202e-05
-0.00011678017
6.9643382e-05
-7.1273287e-05
0.00015522999
8.1403118e-05
5.6005868e-05
0.00085529068
-8.4261004e-05
0.00018840583
7.4915124e-06
-6.2757757e-05
-0.00011205501
-0.00011732892
-0.00015123774
1.0931988e-05
0.0002975773
7.3444048e-06
0.0003833412
-0.00038640416
0.00018290846
0.00028430072
-0.000388637
0.0001226089
-7.1768875e-05
-8.4603192e-05
9.5577919e-05
-7.3328267e-05
-2.2791954e-05
0.00018777062
0.00057342886
-3.979965e-05
-0.00021264082
0.00036160212
-8.7579095e-05
-0.00043572491
0.00021746086
-0.00010071359
-0.00025573188
3.7342065e-05
-5.7621296e-05
4.5617006e-05
-6.1161108e-05
-1.2947199e-05
0.00033457624
-0.00018521654
5.4487738e-05
0.00039095141
-0.00013255046
0.00012875494
0.00023279726
0.00018503966
0.00013643205
-5.501151e-05
0.00037511944
0.0001592496
-4.889409e-05
0.0002267793
0.00012116167
6.6783586e-05
0.00010297018
3.8570511e-05
0.00015907181
-4.4960358e-05
-8.6956518e-05
0.00034964803
-0.00033211812
-4.8850664e-05
0.00030664847
-5.6676334e-05
-8.9177028e-05
-6.2582295e-05
0.0003825897
-0.00026540776
0.00028043823
-0.00023179581
9.3193047e-05
-8.6032618e-05
-0.00035811647
1.9708886e-05
-0.00046395884
4.8506917e-06
4.3889713e-06
-0.00016889375
4.8969289e-05
-0.00023007881
0.00014335093
4.9656407e-05
-0.00024070091
0.00019979832
4.4528641e-05
0.00014339927
0.00048601014
-3.2398929e-05
-4.5986656e-05
0.00039540533
-0.00015826781
-0.0002551766
0.00025272628
2.7645082e-05
1.2420482e-06
6.3346754e-05
-1.9263842e-05
9.7344564e-05
-0.0004127942
3.4232399e-05
2.758142e-05
-0.00033810603
5.6464703e-05
-0.00016661557
0.00016955964
5.9868455e-06
-0.00030760782
0.00016611556
1.725699e-05
0.00027197392
7.9253212e-06
0.00025799442
0.00011096001
0.00038669208
9.6037674e-05
0.00038434743
0.00011519373
0.0003128003
0.00014691497
0.00011559794
0.00018013047
-0.00011313755
0.00025553259
-9.8961183e-05
0.00027918048
9.4894889e-05
0.00026145434
0.00016770257
0.00022000478
0.00024881037
5.7784072e-05
0.00021795258
6.0787242e-06
-9.9888213e-05
-9.2194913e-05
-0.00020388368
-0.00018568949
5.759773e-06
0.00018740488
0.00024479915
-6.8972669e-05
-0.00045798985
1.243957e-05
-0.00055820949
4.5841583e-05
-0.00044740484
2.6560783e-05
-0.00028348214
5.4742188e-05
5.6188053e-05
0.00010123542
0.00029871123
5.6138896e-05
0.00042415744
0.0001040888
0.00040743568
0.00014871289
-1.5067413e-05
0.00013319343
-0.00039724662
0.00017947943
-0.00030397645
0.00018379481
-0.00020648686
0.00014355644
0.0001130765
-4.531306e-05
0.00012312987
-0.0001483238
-1.1538639e-05
2.3337187e-05
-0.00015560032
-5.0860644e-05
8.3226957e-05
-0.00020829516
-8.9349065e-05
7.702724e-05
-0.00020892939
-0.00016222949
0.00011699135
-0.00019586239
-0.00024227919
0.00012068333
-0.0001158609
-3.5349267e-05
-0.00026163607
-2.7726959e-05
0.00017640299
-0.00031597742
5.4067762e-05
0.00022230803
-9.9660698e-05
2.8030749e-06
7.2841206e-05
0.00016064454
-8.4888723e-05
-2.8370945e-05
0.00016252992
-0.00017690961
-6.2721381e-05
0.00016946741
-0.00018461271
8.6708264e-05
-9.846754e-05
-0.00020643801
0.00012259706
-3.1022976e-05
-9.1131204e-05
-0.00023764586
8.0415241e-05
0.00014177058
-0.00038503755
0.0001209135
0.00010648855
-0.0001145566
0.00010365987
-6.3185457e-05
3.6431851e-05
4.5000204e-05
-0.00022254324
9.0441633e-05
-5.6479226e-05
-0.00028394485
4.8351603e-05
-1.899276e-05
-0.00017588337
-0.00017825824
-1.1053836e-05
-1.3076388e-05
-0.00032423015
1.6443209e-05
0.00014779915
-0.00032419614
6.6811999e-05
0.00027506604
-0.00026654961
2.9246517e-05
0.00023696783
-0.00011814198
8.7809687e-06
9.0400134e-05
5.3894339e-06
-0.0002133257
0.00033200378
2.0903066e-05
-0.00012495632
-0.00012722022
-2.1447147e-05
-0.00012500244
-1.1762988e-05
-0.00017307682
-0.00012413292
-1.6916016e-05
-0.00020467805
-0.00017989374
9.9122649e-05
-0.00016630132
-8.7727998e-05
-2.3064126e-05
-7.5877901e-05
0.00011445575
-0.00062668742
6.122003e-05
0.00015235906
-0.00064316771
0.00015407845
0.00022995605
-0.00033547947
0.00014679745
0.00023665765
9.4530018e-05
0.00013014446
-5.7088694e-05
0.00050575453
8.8418325e-05
-0.00032768014
0.00063221068
-7.7540415e-06
-0.00010497261
1.9192391e-05
-7.7081643e-05
1.3757575e-05
0.00013385993
0.00010409077
-0.0005882744
0.00021434632
0.00031611491
-0.00073916051
0.00017667627
0.00039947623
-0.00027911982
2.7326802e-05
-0.00015371277
0.00062815105
-0.00013636151
-0.0005905362
0.00061054172
-0.00015539075
-0.00046957902
3.8920307e-05
-0.00012046065
-0.00020678238
-0.0004195387
-0.00010080846
-5.5324528e-05
-0.00064844387
1.324004e-05
0.00015409103
-0.00062926007
6.4468375e-05
0.00036777565
-0.00054386447
1.9343311e-05
0.00047347446
-0.00034652403
-1.3076259e-05
0.00042537147
-1.9381033e-05
-5.263848e-06
0.00024405618
4.7498326e-05
-0.00016054728
-0.0001021317
5.6062132e-05
-9.9473841e-05
-0.00024315854
6.4405809e-05
3.8898427e-05
-0.00029349874
4.7005436e-05
0.00028450456
-0.00027812402
2.2236134e-05
0.00054637364
-0.00033041954
6.6030317e-05
0.00022936324
-0.00018412603
0.00010325353
-0.00018636035
-0.000115307
0.00019562457
-0.0003388023
-0.00017549444
0.00017692108
-0.00010753467
-0.00017246256
0.00015699623
-5.2715525e-05
0.00037870066
8.7627007e-05
1.6286887e-05
0.00057378972
-1.2755459e-05
-0.00012149871
0.00010174051
0.0004281873
-0.00050808612
8.614459e-05
0.00022132003
-0.00034180945
8.3284315e-06
-0.00019538836
-9.5151089e-05
-0.00015765764
-0.0002220763
-4.5705118e-05
-0.00012532363
-0.00015804318
0.00052312927
-4.3272315e-05
-6.1722142e-05
0.00045114357
3.1937837e-07
6.7537325e-05
-0.00010852388
-0.000133053
1.669295e-05
-0.00030771044
-5.3639466e-05
4.6065197e-05
-0.00052431536
2.9407719e-05
6.6161643e-05
-0.00056853754
4.1789917e-05
-3.1632256e-05
-0.00035244365
1.9509923e-06
-9.9420723e-05
-0.00010944967
1.8484723e-05
0.0003000367
-1.3885604e-05
0.00010984252
0.00014853752
-0.00010190296
-1.8341073e-05
3.6301969e-05
-0.00011096366
-1.6430893e-05
-0.00022733927
-7.5350738e-05
7.3214565e-05
-0.00031132692
-8.4764476e-05
0.00019697508
-0.00036160565
1.4208847e-05
0.00023767752
-0.00033968897
9.7321944e-05
0.00012042258
7.151116e-06
6.2409842e-05
-0.00014774739
0.00024538177
6.6730799e-05
-0.00021521043
-8.2706844e-05
9.583712e-05
-0.00014525289
-0.00026329902
5.9449431e-05
2.5827551e-05
7.5032395e-05
4.5631308e-05
0.00025012728
0.00025070612
4.9933208e-05
0.00011250754
-7.3055993e-05
-5.1351065e-05
-0.00051581083
6.3926447e-05
-0.00011121627
-0.00028271031
4.973535e-05
-0.00025909705
0.00012917094
-2.6784849e-05
-0.00031387049
0.00013770654
-8.4109563e-05
-4.962803e-05
0.0002080203
1.8467618e-05
0.00015306517
0.00017295468
-8.2772089e-05
-1.7765432e-05
0.0002024954
-0.00011254356
-7.2722082e-05
-0.0001777925
-9.4225109e-05
-4.2201809e-05
-0.00048453307
-3.6070152e-05
-4.3139309e-05
-0.00056490794
5.3772601e-05
-5.7238259e-05
-0.00033086407
-1.4937957e-06
-0.00020226713
7.6530947e-06
4.5183079e-05
8.8066614e-05
1.7628266e-05
0.00027561117
-1.611364e-05
0.00044568927
-3.7738459e-05
0.00039294692
-5.9403187e-05
0.00028373184
-5.5196866e-05
4.0669996e-05
6.1586667e-05
-0.00025830568
0.00021481929
-0.00023822919
0.0002662551
3.062262e-05
0.00023798431
-1.2900965e-05
0.00018082152
-0.00021690383
-1.5120793e-06
-0.00013450483
-1.2878857e-06
5.0660055e-05
-2.6653672e-05
-2.2521895e-05
-0.00039466529
-0.00010870598
-0.00052657646
-0.00010495756
-0.00031083284
-6.0011891e-05
-0.00011695103
-1.4330638e-06
9.9823226e-05
9.2481489e-05
0.00027442143
5.44954e-05
0.00049895546
8.2050197e-05
0.00041837983
5.1496035e-05
7.4551324e-05
-7.5111288e-06
-0.00028586595
-2.501123e-05
-0.00039343754
-3.9497679e-05
-0.00022097939
-2.1248629e-05
-1.9836277e-05
-0.0001947804
0.00010684891
-5.70827e-05
-0.00022433674
-8.1255016e-05
-4.1318804e-05
-0.00010931569
-0.00025947313
-6.0222719e-05
4.744654e-06
-0.00022666797
-9.1199119e-05
-8.5939491e-05
2.4742582e-05
-0.00012213848
-0.00020870514
8.9109868e-05
-7.5186462e-05
-0.00010254969
-0.00016213971
3.4079024e-05
0.00012198136
-0.00029724217
0.00013054084
0.00025269417
-0.00022205298
9.7670596e-05
0.00014062331
4.5953834e-05
-1.3604891e-05
-2.8293629e-05
0.00014440533