/*--------------------------------*- C++ -*----------------------------------*\
| =========                 |                                                 |
| \\      /  F ield         | OpenFOAM: The Open Source CFD Toolbox           |
|  \\    /   O peration     | Version:  v2012                                 |
|   \\  /    A nd           | Website:  www.openfoam.com                      |
|    \\/     M anipulation  |                                                 |
\*---------------------------------------------------------------------------*/
FoamFile
{
    version     2.0;
    format      ascii;
    class       volScalarField;
    location    "720/bottomWater";
    object      T;
}
// * * * * * * * * * * * * * * * * * * * * * * * * * * * * * * * * * * * * * //

dimensions      [0 0 0 1 0 0 0];


internalField   nonuniform List<scalar> 
1460
(
970.79241
969.1199
967.33949
966.69281
968.66891
970.22426
971.62432
974.98384
976.54132
960.5102
955.68033
951.97404
947.742
940.458
940.70798
936.88207
924.24118
920.2879
918.87038
916.88416
916.64627
916.04947
915.82808
914.83279
917.61839
918.73269
918.78889
919.20659
919.22321
916.94756
966.35586
965.2253
965.07208
965.31114
966.97138
967.80229
968.44889
970.31651
971.31996
957.35562
954.76825
954.13135
944.8877
939.7587
938.16377
936.68344
924.53623
923.06581
917.9092
917.17888
917.6564
917.43908
917.49549
917.74691
920.29569
920.77875
920.38673
921.25702
922.30645
921.90037
966.24857
965.30147
965.08058
965.10892
967.06815
968.05921
968.80367
970.59313
971.50905
959.68722
962.40428
956.08631
944.66926
937.59424
938.43723
936.38356
929.71732
925.55848
919.46207
917.29596
917.54334
917.32777
917.3002
918.09029
920.49012
921.11317
920.06095
921.129
922.23864
922.09679
966.12477
965.67253
965.47184
964.31572
965.40469
965.92423
965.19096
966.09766
969.75854
966.5005
964.57695
955.26708
941.84037
937.63257
938.8163
935.66675
930.02841
923.11465
919.68956
916.08277
916.96267
916.74941
916.99157
918.36796
920.30072
920.77931
919.61756
921.00593
922.43442
922.27364
965.696
965.3662
965.09157
964.62889
964.71776
964.81762
964.53896
964.4469
964.22602
963.88476
963.10491
953.70159
935.64656
935.13431
935.71842
933.25509
928.56859
925.92363
921.55879
915.9721
915.7119
916.16769
916.44648
917.46423
919.36801
919.55436
919.02011
920.80954
921.02682
921.09981
971.90308
969.63512
966.85118
969.6561
972.04019
974.28689
976.92711
979.22946
967.71209
960.43069
957.38236
954.52747
945.92391
934.21588
934.81805
935.78984
930.04781
919.88693
918.56149
917.53651
916.66366
916.59163
916.8067
917.08715
919.48475
919.33424
919.51844
919.55763
918.55655
917.17402
967.22916
964.65499
964.62751
965.56708
967.34734
969.04562
971.10663
973.70523
963.48776
958.64464
958.58361
958.77018
942.23458
931.7645
929.75078
929.51531
928.21296
923.51925
917.96508
917.40718
918.17707
918.00486
917.77906
919.3474
920.78551
920.50447
920.87277
921.28344
922.12942
921.16196
966.87681
965.79356
964.69169
965.28683
967.19968
968.54223
968.67029
972.90111
965.55016
960.66828
961.891
960.19891
941.58518
929.59464
929.87112
927.85775
928.00033
923.73472
919.53664
918.78222
918.33502
918.5432
918.19951
919.99234
920.94926
920.84837
920.9381
921.00128
921.92289
921.52761
966.42586
965.81047
964.88063
964.09332
965.62927
966.83762
964.55155
965.18055
966.2986
964.92424
964.75018
961.87422
939.9225
931.13032
929.44648
927.26016
925.97148
920.60342
918.84953
918.40003
918.03166
918.22459
917.71017
918.37906
920.44912
920.94438
919.93722
920.19119
922.04033
921.86992
964.53589
964.44655
964.52932
964.35458
964.51202
964.41456
964.33854
964.11594
963.87416
963.23086
962.79224
960.09778
935.10218
925.8339
929.41852
928.27845
925.68825
920.98287
915.30746
916.07915
916.88145
917.15778
916.86969
917.64982
919.77572
919.25004
919.91903
921.26998
921.65635
920.52343
973.9722
967.36892
971.19422
972.7152
973.96494
976.13666
977.29982
969.914
958.78553
952.58011
948.81331
945.55487
935.92505
922.3213
924.32043
929.96681
923.70747
917.74329
915.40685
914.2895
913.60388
915.71185
917.23304
917.55953
917.69953
917.1646
918.42844
919.73095
919.6429
918.74218
968.67987
963.92364
965.66484
966.27228
967.80191
969.93834
970.42848
963.72312
956.49353
953.35778
952.83374
950.48406
937.36386
920.21324
917.87065
920.17688
918.10206
916.46588
915.19047
915.5927
916.02253
918.27659
919.24137
920.03463
920.15394
919.31854
920.17692
921.09282
921.62032
921.76069
966.73701
964.18774
963.82823
964.71681
966.35373
969.00707
969.75688
963.19881
957.85993
954.9327
954.91241
951.62437
937.47747
919.18144
916.22313
917.24236
918.12515
917.68719
917.94745
918.36296
916.5566
918.44882
919.10001
919.68641
919.89777
919.58406
920.97366
921.57033
922.00904
922.16189
963.7829
963.28786
963.44887
964.08539
965.96894
968.25951
969.00315
964.36478
960.79853
960.76031
961.32753
957.32524
936.14381
928.06346
916.65172
915.22762
916.41443
917.74041
918.00135
917.67032
916.95295
918.65874
918.95086
919.0516
918.85269
919.07478
921.95017
922.41671
922.54949
922.47127
963.107
962.7656
962.85509
963.08996
963.58969
965.25695
966.30535
964.64706
962.65458
961.79531
961.16413
956.01387
929.89277
917.70898
912.42658
913.84787
915.33344
915.66538
916.50393
916.13703
915.51854
917.39606
917.55481
917.42863
917.56858
918.85337
921.52461
921.9154
922.04286
922.1456
978.03152
972.4843
971.8642
969.75124
970.37402
972.46706
970.85952
967.23986
960.67943
955.09025
948.90943
940.39588
933.7318
924.57315
923.50989
921.07411
915.66828
912.6665
914.36027
913.55495
909.37224
912.40775
915.00321
915.74963
914.15174
915.37084
919.29142
920.41836
920.79606
920.15137
971.77613
963.5952
964.74183
962.63443
963.98236
965.80229
965.03195
962.00464
956.65354
949.90856
945.03857
938.78599
929.76348
918.28952
918.20782
915.43901
910.45837
909.45896
914.97352
916.20507
915.5797
916.3047
918.67183
919.26089
918.97621
919.28246
921.39232
922.60708
923.13797
923.11063
968.14689
963.27432
963.26131
961.84718
962.63169
964.16043
965.76998
961.32053
955.14803
948.34536
943.26084
939.47749
936.6428
917.21001
911.4988
909.76699
907.43637
913.26557
915.04723
916.61326
915.63032
916.35373
918.46705
919.03127
919.34504
919.13757
920.9299
922.41541
923.71045
923.60613
962.60361
961.94446
962.08322
961.44872
962.23722
963.65119
965.34715
964.37688
957.66584
953.15542
951.84378
942.63469
937.86795
929.16995
909.43485
908.98945
906.58555
914.10103
915.66913
916.34852
916.22266
916.4548
917.90182
919.68005
919.64684
918.63607
922.12451
924.33029
924.26184
923.98169
962.14011
961.77704
961.80309
962.06003
962.51592
963.73152
964.67705
964.34398
959.68638
957.03355
956.22725
940.63028
922.77768
924.48399
906.50935
905.09034
903.90927
913.89657
914.82774
915.18157
915.59244
916.10721
917.35021
918.14184
917.97855
918.1527
922.47101
923.17641
923.35616
923.56563
972.23078
967.79072
967.07085
965.46956
965.62577
966.34284
964.1996
961.0936
959.51441
961.18859
956.54202
933.03882
916.7162
898.46185
907.01882
907.70711
906.47925
906.73735
913.07476
914.17492
915.39563
916.66148
920.64013
921.54071
921.5497
920.52236
965.84291
961.84895
961.33971
959.39115
960.01366
961.82411
962.30712
959.13091
952.42942
954.49194
950.85805
927.60078
917.50487
893.70629
908.20935
910.58022
911.93546
913.40781
917.00276
917.43907
917.76867
918.76908
922.22445
923.7604
924.56045
924.19735
965.72879
961.79595
960.90455
959.35584
960.01019
961.02521
962.42436
958.84676
950.70427
948.41258
948.97001
928.80724
918.18236
902.69495
907.71196
910.71017
913.89605
914.34726
917.33472
917.52682
917.4487
918.35515
921.96221
923.84547
924.97752
924.60312
964.66467
962.69341
961.48815
960.4079
961.10796
962.17692
962.99647
959.57357
951.0144
945.47295
948.82305
931.55495
927.0978
905.5273
912.73584
914.47163
915.33742
914.78574
917.4717
917.74615
917.09991
917.87367
922.1871
923.86754
925.62551
925.15338
962.92948
962.25806
961.939
961.61507
961.64701
962.72663
962.87427
961.82857
956.97779
942.89256
940.21505
934.57559
921.89984
906.86105
911.49322
913.03471
914.44118
914.64373
916.1423
916.87452
916.94139
917.04249
921.81593
923.10135
923.44705
923.87606
968.4742
964.55557
961.77293
960.65894
961.34998
962.17017
960.54212
958.01447
954.45525
956.98355
950.16926
925.50088
913.05455
900.76744
910.6021
911.27229
911.55705
912.28329
912.6523
910.21876
912.97271
915.71728
917.9405
919.01135
919.47246
917.54303
962.91111
960.83743
959.35872
957.29005
955.94305
958.52265
958.44668
955.89022
950.38641
951.17674
950.80655
923.04054
913.94087
897.60761
910.39612
912.50402
913.69797
914.56592
916.71054
916.617
915.83811
918.51643
921.12583
922.32726
923.47415
923.03075
963.42977
963.05215
959.96563
957.63817
955.80908
958.30767
958.06604
955.29292
948.30216
948.47154
950.40399
925.7283
918.30724
896.01997
904.75541
906.09133
910.5384
913.61166
916.61755
915.95705
915.57511
918.51545
921.24245
922.42469
923.90816
923.65677
963.7191
963.68299
961.42467
959.21639
955.73619
958.30734
956.5897
951.94766
947.43502
947.6898
949.37923
927.22979
920.78638
899.40466
902.72296
905.55168
915.25153
914.26046
916.38203
915.06554
914.96691
919.14324
921.96937
923.05303
925.49653
924.7715
963.36593
963.07028
962.81999
960.9273
956.19357
958.06853
956.92229
953.5842
946.93464
941.94831
941.92856
928.06777
910.97793
902.07543
905.66384
906.73323
910.92113
912.21568
913.18405
914.00128
914.53751
919.53668
921.75546
922.40936
922.82085
923.11545
968.76505
965.17964
962.11811
960.66516
957.07008
959.5054
956.43807
955.32128
956.32936
957.38103
940.59198
928.6443
920.39773
914.15889
912.54313
905.89995
901.58632
902.72431
904.10924
912.28662
916.00379
916.61938
916.6384
915.98899
916.15495
916.26678
919.33311
918.91667
919.69183
918.46475
963.25646
961.2528
960.54711
957.25732
953.12535
955.22313
954.95856
952.27999
951.03092
951.8715
938.46293
925.3367
916.73028
915.65759
917.93878
909.69831
904.83999
905.61037
906.60485
912.14526
916.81272
917.91592
918.6402
918.18967
917.21346
917.77404
919.92149
921.07789
921.79031
921.70366
963.67002
962.664
961.68198
957.51075
953.07432
954.8796
954.53299
950.314
948.50741
948.58183
935.86371
924.88698
921.82679
919.36473
919.24338
910.30706
903.98604
898.10245
906.94803
911.18485
916.76444
918.48699
918.77689
918.01314
917.13978
918.46651
919.00145
920.65743
922.41515
922.17032
964.15756
964.38827
962.28168
958.55966
952.13817
952.96017
951.97245
949.10485
948.17423
947.74701
936.36253
932.12612
927.13078
921.93332
920.2419
909.55363
908.55183
905.62243
906.92168
911.12357
915.73586
917.27451
918.26479
917.74121
916.59447
918.88589
919.70417
922.89847
922.94699
922.57849
964.01713
963.73895
963.41444
960.18747
951.48585
950.59766
949.53387
948.13835
945.96697
943.56514
936.86335
931.88524
927.00618
923.07024
921.50327
907.19333
903.77204
905.68349
907.05511
910.07023
913.63081
914.94807
915.57336
915.78943
915.95212
919.8654
921.14705
922.13472
922.2804
922.37485
972.39651
967.83906
965.2664
963.11318
961.05718
956.83831
958.12512
958.24308
956.88299
946.06596
941.67647
939.98227
933.73568
927.54074
922.09232
920.86511
913.48711
912.95939
912.81297
913.26505
915.65522
916.89657
916.52654
916.61358
917.05678
915.66012
918.22771
918.28753
918.71561
918.00497
967.02242
963.58474
962.08302
960.83772
954.98217
954.20776
954.34087
953.81548
953.02845
945.42796
939.05999
939.35462
936.43265
922.18941
922.2106
924.00718
917.63768
913.84023
914.88904
914.71607
917.466
918.66364
918.6505
918.97533
918.16961
917.84443
919.05151
919.93575
920.84082
921.20992
967.07032
964.10674
964.29299
962.76154
955.67638
954.28302
954.07762
953.64524
952.29319
946.32598
939.19254
932.52725
934.22363
922.44607
925.78751
926.0964
918.5063
912.92095
918.99713
914.89543
917.33489
918.96609
918.9068
919.06192
919.17258
918.43194
919.13836
920.05563
921.23399
921.76325
967.06928
965.82057
965.41946
962.16292
955.11512
953.16623
952.64781
952.11394
951.47524
947.38043
945.02869
936.93419
932.23451
926.93051
928.23212
926.88514
916.92775
918.13512
916.16587
915.15331
917.50763
918.81453
918.97103
919.08534
918.88501
918.59735
919.38482
920.87257
921.90932
922.2272
962.39271
962.98067
963.70255
958.6091
953.09672
952.62475
952.07994
951.3032
949.67253
946.8446
941.46486
934.89357
931.01141
931.07497
929.48315
924.22588
913.28577
912.62998
914.04689
913.80278
916.87388
917.36535
917.30669
917.34115
917.66358
918.71717
920.04933
921.17231
921.90343
922.17677
971.21983
966.2996
970.22755
969.82491
965.24658
960.43397
959.39964
956.52031
953.50143
949.95863
947.3173
944.20996
940.38157
933.50643
927.9027
924.34552
923.53942
922.59905
921.6775
920.03033
920.94803
919.26003
917.93771
917.87983
918.46464
918.38177
919.82465
919.22829
920.67857
920.11055
967.51861
963.84855
963.99324
964.26296
959.75553
956.34576
956.27133
954.39819
951.67701
949.74872
947.48039
944.00403
941.25026
937.98767
929.82389
926.48847
923.53036
922.80153
922.79373
921.30402
920.45133
919.57467
918.36151
918.16108
918.295
920.28555
921.35218
921.80377
922.46811
922.48329
963.94906
963.88038
963.61897
964.00862
958.82956
954.2823
956.05298
954.04097
951.94162
950.6223
948.02356
943.50622
939.77631
936.78956
930.36704
926.42291
924.5419
922.55433
922.49012
921.82455
921.06383
920.57305
918.62386
918.82452
920.16117
920.43535
921.46612
921.51315
922.63848
922.76786
962.39872
963.72766
963.48552
963.3023
956.90394
954.03089
954.91699
953.59793
951.83599
950.64067
948.30082
944.38507
940.19896
938.77625
931.24419
930.67486
926.50289
921.85677
920.29006
921.03814
920.53898
919.54796
918.75589
919.00581
919.30575
919.73062
921.37993
921.50842
923.04777
923.04862
961.96591
961.969
961.57301
958.01755
954.58598
953.10926
952.90289
952.72795
951.7275
950.36351
947.21103
941.51143
937.57468
936.76008
930.16744
929.77296
929.16041
921.67695
915.03887
916.85751
918.90536
918.2676
917.28748
917.74683
916.94003
918.72528
920.66457
921.48578
922.44327
922.60464
967.03018
969.37406
972.87198
963.24937
959.06395
955.58104
959.57983
954.99075
951.66026
949.71811
948.38572
946.0451
940.96628
932.48864
922.54559
923.22467
924.9309
924.46241
921.0111
919.22645
917.20226
916.94838
915.87171
914.79824
915.15175
917.54254
919.68289
920.18662
921.37384
920.30114
963.9619
964.49199
965.96221
960.68023
956.74911
955.00503
956.00069
954.29889
949.67783
948.62299
947.88248
947.33373
943.72837
942.4687
928.17766
926.70532
926.37097
924.80668
922.64832
919.34125
919.28572
918.87723
917.41117
916.89583
917.00692
920.4062
921.90831
921.79691
923.37368
923.27594
963.82437
965.02113
966.0706
961.03649
960.08811
954.67697
953.94636
953.63692
949.59642
948.71955
948.26182
947.55977
942.05135
941.57717
928.61229
928.16127
926.43324
924.99818
919.20382
918.91718
919.33362
918.58334
917.63574
916.73193
917.05158
919.77826
920.68348
921.52956
923.251
924.38723
963.44116
964.98591
965.47022
961.30832
956.92335
952.66861
952.36929
953.18681
949.45893
948.86968
947.23901
947.21392
943.4621
940.97792
929.11295
929.34004
928.62853
926.8207
916.19557
917.82094
918.30674
917.87723
916.99729
916.61364
916.41234
919.64484
920.8543
921.78328
922.74224
923.51075
963.2279
963.54176
963.25992
961.11002
957.37982
954.44194
951.59956
952.23605
950.49443
949.13865
944.84584
942.36355
940.20368
938.86477
928.80146
928.83806
928.66647
928.09509
916.50694
916.43533
917.58503
917.07649
916.60783
916.47418
916.28995
919.50603
920.61372
921.44368
922.24314
922.5337
)
;

boundaryField
{
    minX
    {
        type            zeroGradient;
    }
    maxX
    {
        type            zeroGradient;
    }
    minY
    {
        type            fixedValue;
        value           uniform 1073;
    }
    minZ
    {
        type            zeroGradient;
    }
    maxZ
    {
        type            zeroGradient;
    }
    bottomWater_to_rightSolid
    {
        type            compressible::turbulentTemperatureCoupledBaffleMixed;
        refValue        nonuniform List<scalar> 
130
(
750.09451
758.03375
766.35305
774.65168
782.58584
789.9166
796.49384
802.22035
807.02931
810.89578
813.8135
815.76087
816.73525
744.25937
753.55713
763.08092
772.32967
780.97348
788.81322
795.74623
801.71844
806.69456
810.6781
813.66784
815.65731
816.6477
732.58885
744.9997
757.04471
768.17882
778.17428
786.94869
794.51124
800.9029
806.17085
810.35351
813.46372
815.52464
816.55214
715.20312
733.40967
749.50025
763.3133
775.0443
784.94524
793.23608
800.0961
805.6688
810.05763
813.29797
815.43558
816.49965
694.66802
722.39274
743.27216
759.64808
772.82008
783.56923
792.37664
799.56139
805.34293
809.86735
813.19368
815.3813
816.46878
694.66927
722.3688
743.23665
759.61446
772.78528
783.52848
792.33464
799.52687
805.32841
809.85203
813.17824
815.3675
816.45579
715.29283
733.43405
749.4944
763.2955
775.00846
784.88832
793.16685
800.03087
805.62404
810.01523
813.26386
815.40934
816.47775
732.84389
745.16442
757.14577
768.23988
778.1877
786.92317
794.46137
800.84413
806.11772
810.30841
813.43522
815.513
816.55074
744.64686
753.84157
763.28413
772.46343
781.03786
788.81985
795.71185
801.65847
806.64648
810.65184
813.66029
815.67012
816.67613
750.52267
758.35118
766.59758
774.82024
782.67568
789.93908
796.46579
802.16578
806.99084
810.88318
813.81936
815.78604
816.77219
)
;
        refGradient     uniform 0;
        valueFraction   uniform 0.99248593;
        value           nonuniform List<scalar> 
130
(
751.41569
759.26236
767.4772
775.71163
783.5896
790.86736
797.40284
803.10061
807.87484
811.70824
814.6175
816.55186
817.51949
745.58708
754.77251
764.23058
773.41584
781.9968
789.77547
796.66223
802.60554
807.54032
811.49895
814.47639
816.45381
817.42824
733.96447
746.28841
758.24015
769.28597
779.22044
787.9301
795.43488
801.77956
807.01757
811.18888
814.27865
816.32506
817.3456
716.6961
734.77287
750.74519
764.45756
776.10429
785.94017
794.17466
800.98191
806.51405
810.90234
814.12364
816.24653
817.30419
696.26248
723.81367
744.54779
760.81124
773.88578
784.56543
793.31216
800.44342
806.18227
810.70856
814.01956
816.19334
817.27588
696.22777
723.74613
744.46529
760.75144
773.83301
784.50275
793.24888
800.39109
806.18658
810.6929
813.99904
816.17495
817.25728
716.72346
734.73867
750.70097
764.42516
776.06
785.8703
794.08825
800.90191
806.48246
810.85032
814.08196
816.21241
817.27351
734.19482
746.43343
758.32293
769.35675
779.23351
787.9029
795.38472
801.72191
806.96382
811.13303
814.2448
816.31247
817.34446
745.9771
755.05283
764.43813
773.5638
782.069
789.78516
796.62883
802.52469
807.48865
811.4785
814.47052
816.47245
817.47212
751.857
759.53951
767.72348
775.89299
783.68557
790.89087
797.36754
803.02332
807.8363
811.70772
814.62807
816.58599
817.56692
)
;
        Tnbr            T;
        thicknessLayers List<scalar> 0();
        kappaLayers     List<scalar> 0();
        kappaMethod     fluidThermo;
        kappa           none;
        alphaAni        none;
        alpha           none;
        field           T;
    }
    bottomWater_to_leftSolid
    {
        type            compressible::turbulentTemperatureCoupledBaffleMixed;
        refValue        nonuniform List<scalar> 
130
(
927.24622
927.21961
927.15973
927.06165
926.92467
926.74487
926.52026
926.25339
925.94742
925.6099
925.25247
924.89045
924.62036
927.18498
927.15976
927.10187
927.0055
926.86919
926.68902
926.46338
926.19266
925.88249
925.54318
925.19214
924.84737
924.55167
927.07689
927.05061
926.9928
926.89788
926.76323
926.58663
926.35821
926.07118
925.73632
925.3754
925.00416
924.63258
924.31749
926.95794
926.92821
926.86424
926.76141
926.61728
926.42951
926.18755
925.88083
925.50637
925.10434
924.70251
924.29339
924.00013
926.8623
926.82438
926.74505
926.62069
926.45357
926.24612
925.98216
925.64995
925.24336
924.78893
924.37953
924.01361
923.7509
926.80224
926.75666
926.65805
926.49792
926.28538
926.05372
925.77168
925.43011
925.03396
924.62271
924.23456
923.85997
923.59624
926.78443
926.73345
926.62024
926.43121
926.18049
925.92567
925.64741
925.33626
924.9925
924.62978
924.26222
923.94693
923.74772
926.77907
926.73021
926.61532
926.41705
926.17076
925.92212
925.66111
925.37916
925.07386
924.75477
924.43419
924.15481
923.98726
926.78925
926.73618
926.61685
926.42409
926.18903
925.94553
925.69962
925.44484
925.17683
924.90314
924.63543
924.40352
924.2622
926.81322
926.76024
926.64216
926.45566
926.21971
925.96677
925.71754
925.47702
925.22704
924.97767
924.74068
924.5493
924.43132
)
;
        refGradient     uniform 0;
        valueFraction   uniform 0.99248593;
        value           nonuniform List<scalar> 
130
(
927.53512
927.50624
927.44475
927.34393
927.20865
927.03094
926.80593
926.54038
926.23505
925.8975
925.53687
925.10674
924.70325
927.46563
927.43995
927.38311
927.28614
927.15204
926.97248
926.74797
926.47762
926.16798
925.82638
925.47467
925.11221
924.63104
927.34761
927.31896
927.26228
927.16983
927.03996
926.87718
926.65831
926.36103
926.01374
925.64906
925.27585
924.86828
924.35917
927.22228
927.19006
927.12677
927.02665
926.88704
926.70978
926.47673
926.16986
925.76319
925.34424
924.93935
924.41596
923.9909
927.13329
927.09061
927.00948
926.88362
926.71801
926.52021
926.25934
925.92179
925.48172
924.92492
924.49853
924.09316
923.73701
927.07697
927.0295
926.92975
926.75656
926.51006
926.2942
926.00566
925.64159
925.19845
924.75284
924.36741
923.89161
923.5015
927.06421
927.01151
926.89672
926.68483
926.37063
926.11107
925.8269
925.50762
925.15017
924.77216
924.35689
924.00659
923.7721
927.04666
927.00263
926.89402
926.65897
926.37305
926.12277
925.85964
925.57396
925.25864
924.92081
924.56228
924.23544
924.03998
927.05358
927.00093
926.8795
926.66141
926.40233
926.14962
925.90404
925.64983
925.37632
925.09443
924.80508
924.5321
924.36225
927.08684
927.03661
926.91729
926.71606
926.45386
926.1806
925.91195
925.67805
925.41689
925.15915
924.89179
924.68328
924.5498
)
;
        Tnbr            T;
        thicknessLayers List<scalar> 0();
        kappaLayers     List<scalar> 0();
        kappaMethod     fluidThermo;
        kappa           none;
        alphaAni        none;
        alpha           none;
        field           T;
    }
    bottomWater_to_heater
    {
        type            compressible::turbulentTemperatureCoupledBaffleMixed;
        refValue        nonuniform List<scalar> 
92
(
731.10903
733.20097
737.24714
743.00277
721.67754
724.14495
728.94951
735.82293
701.9734
705.12194
711.48566
720.88347
345.15196
342.50738
342.5283
345.13896
421.32741
418.09792
418.29386
421.70977
486.62093
483.91099
484.60639
488.23927
542.31397
540.63636
542.52551
546.93926
670.12275
588.33238
674.03294
588.58449
682.55619
593.18542
696.35031
600.69025
345.15196
345.13896
421.32741
421.70977
486.62093
488.23927
542.31397
546.93926
588.33238
600.69025
345.10272
345.10272
342.4723
342.49281
345.11364
345.11364
421.28638
421.28638
418.07719
418.26933
421.6937
421.6937
486.61448
486.61448
483.91658
484.59109
488.18431
488.18431
542.26601
542.26601
540.64683
542.5197
546.89808
546.89808
588.29559
588.29559
588.61728
593.20217
600.67333
600.67333
670.45372
674.39738
682.84569
696.54754
702.57982
705.71133
711.99238
721.25591
722.34394
724.74809
729.50042
736.30724
731.73558
733.76402
737.77984
743.50228
)
;
        refGradient     uniform 0;
        valueFraction   nonuniform List<scalar> 
92
(
0.99248593
0.99248593
0.99248593
0.99248593
0.99248593
0.99248593
0.99248593
0.99248593
0.99248593
0.99248593
0.99248593
0.99248593
0.99248593
0.99248593
0.99248593
0.99248593
0.99248593
0.99248593
0.99248593
0.99248593
0.99248593
0.99248593
0.99248593
0.99248593
0.99248593
0.99248593
0.99248593
0.99248593
0.99248593
0.99248593
0.99248593
0.99248593
0.99248593
0.99248593
0.99248593
0.99248593
0.99248593
0.99248593
0.99248593
0.99248593
0.99248593
0.99248593
0.99248593
0.99248593
0.99248593
0.99248593
0.99248593
0.99248593
0.99248593
0.99248593
0.99248593
0.99248593
0.99248593
0.99248593
0.99248593
0.99248593
0.99248593
0.99248593
0.99248593
0.99248593
0.99248593
0.99248593
0.99248593
0.99248593
0.99248593
0.99248593
0.99248593
0.99248593
0.99248593
0.99248593
0.99248593
0.99248593
0.99248593
0.99248593
0.99248593
0.99248593
0.99248593
0.99248593
0.99248593
0.99248593
0.99248593
0.99248593
0.99248593
0.99248593
0.99248593
0.99248593
0.99248593
0.99248593
0.99248593
0.99248593
0.99248593
0.99248593
)
;
        value           nonuniform List<scalar> 
92
(
732.64213
734.72276
738.71986
744.39703
723.21162
725.68747
730.44726
737.24955
703.59444
706.67979
713.00609
722.34443
349.50579
346.87309
346.87555
349.42598
425.06163
421.85577
422.02937
425.38228
489.85629
487.12398
487.80113
491.38927
545.22071
543.40757
545.27922
549.64173
672.03391
590.85812
675.7798
590.97342
684.22839
595.52917
697.90982
602.96855
349.44679
349.29665
425.05568
425.25636
489.86351
491.35354
545.2054
549.63374
590.83885
602.99087
349.37033
349.37863
346.75583
346.72634
349.28889
349.29505
424.98816
425.00111
421.83316
421.96203
425.26978
425.32411
489.85819
489.86619
487.18762
487.79005
491.24885
491.30867
545.11026
545.11882
543.49909
545.27772
549.54689
549.61555
590.72032
590.81102
591.11854
595.56164
602.93813
602.95085
672.35181
676.25409
684.53157
698.10465
704.29674
707.39278
713.58722
722.69889
723.95507
726.29167
731.00534
737.75641
733.29197
735.22961
739.21552
744.89368
)
;
        Tnbr            T;
        thicknessLayers List<scalar> 0();
        kappaLayers     List<scalar> 0();
        kappaMethod     fluidThermo;
        kappa           none;
        alphaAni        none;
        alpha           none;
        field           T;
    }
}


// ************************************************************************* //
