/*--------------------------------*- C++ -*----------------------------------*\
| =========                 |                                                 |
| \\      /  F ield         | OpenFOAM: The Open Source CFD Toolbox           |
|  \\    /   O peration     | Version:  v2012                                 |
|   \\  /    A nd           | Website:  www.openfoam.com                      |
|    \\/     M anipulation  |                                                 |
\*---------------------------------------------------------------------------*/
FoamFile
{
    version     2.0;
    format      ascii;
    class       volVectorField;
    location    "720/bottomWater";
    object      U;
}
// * * * * * * * * * * * * * * * * * * * * * * * * * * * * * * * * * * * * * //

dimensions      [0 1 -1 0 0 0 0];


internalField   nonuniform List<vector> 
1460
(
(-0.0020421878 -0.01703751 0.0021220615)
(-0.0035033955 -0.015721239 0.0014923278)
(-0.0032888913 -0.013576439 0.00099162365)
(-0.001027312 -0.013306965 0.0015898945)
(0.0014579409 -0.013370293 0.0015939794)
(0.0025676599 -0.01288912 0.0017189766)
(0.0035095285 -0.01151948 0.0010728762)
(0.0034927669 -0.01307914 0.00076338171)
(0.00094392293 -0.014985423 0.0013647657)
(-0.0023827341 -0.015068135 0.0012782097)
(-0.0049381126 -0.012466137 5.0275595e-05)
(-0.004070624 -0.011262866 -0.00025291544)
(-0.0017809904 -0.01226456 -0.00059656441)
(0.0015555651 -0.013807093 -0.00074674166)
(0.0020460268 -0.016428775 -0.00017158843)
(0.0020802725 -0.01832595 0.0010620309)
(-0.0018330156 -0.017229192 0.001078319)
(-0.0014161926 -0.013534796 0.0015323702)
(-0.0036168383 -0.014389525 0.0013130955)
(-0.0030851774 -0.011788262 0.0019311677)
(-0.0014145957 -0.013582212 0.0011142433)
(0.0022184472 -0.011748165 0.001043132)
(0.0030724886 -0.013586056 0.0015509509)
(0.0013551579 -0.016998272 0.0024393411)
(-0.0022942846 -0.017157176 0.0029015282)
(-0.0039757016 -0.01454289 0.0020043718)
(-0.0036138645 -0.011749728 0.0017934774)
(-0.0013210974 -0.012439942 0.0016760799)
(0.0017711448 -0.012956019 0.0010624497)
(0.0019897102 -0.019161559 0.002369268)
(-0.0049158705 0.018044948 -0.0013216539)
(-0.0069106424 0.015720932 -0.0022400129)
(-0.0046137506 0.0066849513 -0.0011221733)
(-0.0016675731 0.00042619244 -0.0013426098)
(-0.00034351489 0.0015034004 -0.0014747088)
(0.00098606943 0.0043676786 -0.00094843424)
(0.0012932734 0.0046910857 -0.0020530294)
(0.0050372216 0.014522015 -0.00072774841)
(0.002908554 0.017084875 0.00037804898)
(-0.0039378307 0.017227161 0.0016286756)
(-0.0041215984 0.013826206 0.00025739365)
(-0.0010970403 0.0030821425 -0.00042611434)
(0.0020585244 0.0049379428 -0.0011832419)
(0.0058346848 0.0078955131 -0.002339946)
(0.0085338243 0.015596744 -0.0032270619)
(0.0061135466 0.019098346 -0.0019228898)
(-0.0034867048 0.018141036 0.0026781827)
(0.00050681368 0.010236935 0.00054905057)
(-0.00264497 0.013545929 0.0025904502)
(-0.00024626997 0.00093600844 0.0015398068)
(8.7291564e-05 -0.00041965975 0.000681208)
(0.0019271162 -0.001099508 -0.00026182324)
(0.0049604943 0.010731971 0.0003304937)
(0.0028686954 0.018361669 0.00023771257)
(-0.0046661786 0.018560516 -0.00026346634)
(-0.0049833996 0.012224801 0.00027088111)
(-0.0028884942 0.00093739403 0.00016480998)
(-0.00022147912 -0.0013864302 -6.9374135e-05)
(0.0018431722 0.0014134698 -0.0019637574)
(0.0056601997 0.01863228 0.0014841541)
(-0.001510169 0.0062903547 -0.0001420427)
(0.0024598309 -0.0045884627 -0.0011957305)
(0.0035359848 -0.013053175 -0.0013683693)
(0.00070330042 -0.014740727 -0.0047465838)
(-0.0013298457 -0.014837345 -0.0055440261)
(-0.0033741698 -0.014617158 -0.0051109243)
(-0.0042064509 -0.014214313 -0.0052687256)
(-0.0044625414 -0.013925493 -0.0042712293)
(0.00099090869 0.0002727991 -0.00081077102)
(-0.00087117607 -0.0050415335 0.001677786)
(0.003548825 -0.013416965 0.0015977828)
(0.0016896801 -0.013688489 0.00067000832)
(0.0015663737 -0.012663088 -0.00052095729)
(0.0010523832 -0.01393496 -0.0020948573)
(0.0011745266 -0.0064302896 -0.00098734664)
(0.0021820844 0.0055372656 -0.00079228458)
(0.0027376219 -0.0079743288 0.00053252146)
(0.0011275763 -0.014751546 -0.0036032839)
(0.0022484632 -0.014723352 -0.00076326376)
(0.0046568144 -0.014139528 -0.0011643987)
(-9.2059178e-05 -0.01394421 -0.0022809763)
(-0.003359457 -0.014275453 -0.0027532728)
(-0.0036588681 -0.013572039 -0.0028537026)
(0.0018847873 0.00419757 -0.0011342757)
(-0.0022845928 0.0037521079 -0.0014874989)
(0.002908944 -0.014765183 -0.0050245563)
(-0.00035970166 -0.014294484 -0.0025175415)
(0.00068817159 -0.01465944 -0.0026979364)
(-0.001342963 -0.015979622 -0.0057529709)
(-0.0028675903 -0.0089683378 -0.0024623789)
(0.00074760408 0.0094728721 0.00048595024)
(0.0040836165 0.0071371793 -0.00035898648)
(0.0014598097 0.0087716127 -0.0011731563)
(-2.5479294e-05 0.010652114 -0.002409423)
(0.00098106836 0.010932726 -0.0029153847)
(-0.001207408 0.010547774 -0.0019398334)
(-0.00098874602 0.008926581 -0.0024041496)
(-0.0028586343 0.010533173 -0.0029883693)
(0.00091776033 0.0063527697 0.00011376295)
(0.0041556608 0.0068200147 0.00072142372)
(0.0036168755 0.0037408741 0.00050789938)
(0.0022058181 -0.0018828147 -0.00072763195)
(0.0018273759 0.00047585754 -0.0011528385)
(0.0035351722 0.0070205057 -0.0017917911)
(-0.0013817768 0.0083606122 6.2439366e-05)
(0.0015844562 0.010114805 0.00049304406)
(0.0033924281 0.011393594 -0.0023643345)
(-0.00035572485 0.010481661 -0.0031615887)
(0.00099392534 -2.3286026e-05 -0.0012780748)
(0.00014968047 -0.0010780371 -0.00038624547)
(-0.0010901589 0.0072778445 0.00032113337)
(-0.0010923984 0.00033550662 -0.0016762866)
(-0.0021661293 0.00016355948 -0.0013915196)
(0.00027356297 0.0087961499 0.00017620742)
(0.0022644587 0.0085200461 0.0021015673)
(0.0013771138 0.011400405 -0.0023505009)
(-0.00048866633 -0.0018152398 0.0011000524)
(-0.0023290764 -0.004550773 -0.0014557361)
(0.00049370331 0.01116925 -0.00089025854)
(-0.0035369557 0.010683749 -0.0039198844)
(0.0022417728 0.0026367667 0.0023752307)
(0.0043662042 -0.002647585 0.0023771796)
(0.0038045315 -0.0064272373 0.0024884058)
(0.0024263388 -0.007431078 0.0020201477)
(0.0028610527 -0.0053686644 0.0012954934)
(0.0041026554 -0.0052087166 0.0014821711)
(0.0047317254 -0.0077330146 0.0024263158)
(0.0041286821 -0.0088675308 0.0017712563)
(0.0045975569 -0.0082194931 0.00045190422)
(0.0043424229 -0.0091778443 -0.00061378401)
(0.0039027324 -0.010117607 -0.0016467349)
(0.0014759889 -0.0099964027 -0.0020789032)
(-0.0039077758 -0.0084347667 -0.00042910601)
(-0.0042135303 -0.0057148852 0.00015433184)
(-0.0033888411 -0.0014596243 0.00028582229)
(-0.00064749105 0.0036141598 0.0017877959)
(0.0029260767 0.0019628542 0.00013344572)
(0.0054200342 -0.0046501735 0.00096102989)
(0.0047622764 -0.0099607215 -0.00064457536)
(-0.0010091851 -0.0097853534 -0.00366489)
(-5.479496e-05 -0.0091738336 -0.0055737714)
(0.0018454398 -0.0087749731 -0.0057915705)
(-0.0015153875 -0.0096413791 -0.0027490783)
(-0.0022261419 -0.00052977933 0.00049604032)
(0.0021672172 0.0012114168 0.00085076997)
(0.0031286715 -0.0030832048 -6.4394466e-05)
(0.0049156988 -0.007849234 0.0006038225)
(-0.0050657611 -0.01125839 -0.0031864981)
(-0.004231479 -0.0093864308 -0.0021188955)
(-0.0016024227 -0.0059753352 -0.001573836)
(-0.0012902991 -0.015958845 0.0017402463)
(-0.001991454 -0.013754342 -0.00084872281)
(0.0019566364 -0.011445364 0.00069680803)
(0.0037104678 -0.013938626 0.0023834481)
(0.0032292841 -0.014765591 0.0030153542)
(0.0026364602 -0.014451339 0.002832876)
(0.0018562833 -0.013790364 0.0019249107)
(-5.7837939e-05 -0.015931722 -0.00014885228)
(-0.0020950537 -0.014830047 0.0009324706)
(-0.0042866011 -0.013819252 0.00076119145)
(-0.0057717664 -0.013382975 0.00010439191)
(-0.0037819205 -0.011988405 0.00064460161)
(-0.0015174951 -0.012284021 -0.0010635681)
(0.0012148015 -0.012744946 -0.0013328013)
(0.0027975367 -0.013199042 -0.00081588427)
(0.0026725942 -0.015232951 0.0003499293)
(-9.0331095e-06 -0.017072731 0.00070720938)
(-0.0017456588 -0.017023683 0.0022030113)
(-0.0026447742 -0.017047523 0.0016443152)
(-0.0031547889 -0.015505459 0.0030227839)
(-0.001198587 -0.014100798 0.0033872456)
(0.0016497905 -0.016576346 0.0023236089)
(0.00089752709 -0.015852702 0.0017549049)
(-0.00037597868 -0.018302416 -0.00034659884)
(-0.00040424204 -0.018838263 -0.0010425626)
(-0.0017333134 -0.01608041 0.001588007)
(-0.0017589019 -0.015913098 0.0019386636)
(-0.0011010159 -0.016947738 0.0021380185)
(-9.8798653e-05 -0.016291938 0.0025660954)
(0.00029194935 -0.017174897 0.0014024599)
(-0.0036199688 0.017355425 -0.0028236817)
(-0.0024624921 0.010662928 -0.0037248862)
(0.00039231968 0.00042789942 -0.0018361045)
(0.0036630388 0.014010909 0.0046247777)
(0.0030747335 0.016017928 0.0070079949)
(0.003246895 0.016118262 0.0070852141)
(0.0022882352 0.015652914 0.0058693678)
(0.001879805 0.017560945 0.0035697382)
(-0.0024999674 0.016972321 0.0023850056)
(-0.0054954375 0.015980193 0.0024298695)
(-0.0050307356 0.012157964 0.0020331727)
(-0.0013406468 0.0009822358 0.0018571137)
(0.00059734842 0.0022967749 -0.0011622936)
(0.0038339449 0.0037503267 -0.0020528561)
(0.0053629935 0.0078317889 -0.0015695139)
(0.0075992866 0.015765454 -0.0014262364)
(0.0037432793 0.018440651 0.00071859581)
(0.00076779172 0.018207601 0.0040129125)
(-0.0019053256 0.018551705 0.0042382713)
(-0.0019899339 0.016630418 0.0056182201)
(0.0015711194 0.0079198074 0.0048753298)
(0.0038656892 0.015435298 0.0059007557)
(0.0034740815 0.017502862 0.0040170955)
(-0.0013904427 0.019492651 -0.0036013593)
(-9.2166125e-05 0.019665349 -0.0047395146)
(-0.0013662599 0.018000278 0.002210672)
(-0.0030365107 0.016983784 0.0044635132)
(-0.0014572148 0.01733325 0.0058370468)
(0.0024745509 0.016395589 0.0046430392)
(0.0034379275 0.018625326 0.0037285996)
(-0.00017608885 -0.0011710242 -0.00088878661)
(0.0048807203 -0.013606567 2.6074943e-05)
(0.00033999677 -0.014590842 -0.0041570881)
(-0.0019836288 -0.014177584 -0.0062682154)
(-0.0013394022 -0.013736564 -0.0052433294)
(-0.0032939401 -0.0118162 -0.0036183366)
(-0.0022777066 -0.0077995458 -0.0023177922)
(0.00068444125 -0.0047289293 -0.00023641731)
(0.0009073461 -0.00051549346 0.001358603)
(0.0010130137 -0.0050992582 0.0024137912)
(0.0048606245 -0.014365866 0.0029890082)
(0.0017106768 -0.014172858 0.0024331593)
(-0.00073082725 -0.012685906 -0.0009298099)
(0.0012406198 -0.012712101 -0.00045765092)
(-0.0033464168 -0.014121895 0.0024408744)
(-0.002191999 -0.0060791212 0.00014318198)
(3.2761963e-05 0.0025864611 0.0010005006)
(0.001502097 -0.0018644982 0.001558993)
(0.002430762 -0.0015742314 0.0035194315)
(0.0038049872 -0.0076110458 0.0017080003)
(0.0017950838 -0.015414261 -0.0030158299)
(-0.0043823001 -0.015807154 -0.0022270472)
(-0.00031620881 -0.0018701238 0.002715421)
(-0.0012032728 -0.0089682675 0.0011175366)
(0.0009649421 -0.016688625 0.0034592727)
(-0.0012694888 -0.0011444111 -0.0006010595)
(-0.00055111743 -0.0052818433 0.0015983976)
(0.0045463203 -0.016322624 -0.0010550112)
(-0.00035335778 -0.01711683 -0.0052314672)
(0.00068437595 0.001564291 -0.00018498993)
(0.0016850606 0.007339895 0.0015377361)
(0.0024285547 0.0087363572 0.0014844228)
(0.00094132653 0.0092443278 0.00069177071)
(0.00087090554 0.012093566 -0.0044518941)
(0.00093167704 0.012993903 -0.0055530425)
(-0.0018706035 0.011897108 -0.0047399968)
(0.00066145148 0.0015768403 -0.0023651621)
(-0.00035613123 0.0059989276 -0.0029370262)
(0.0024415598 0.0082478368 0.0014215365)
(0.0049954325 0.0084099539 0.0026133332)
(0.0044363833 0.010395343 0.0029872211)
(0.0014200331 0.0064460601 0.001244495)
(0.0010663496 -0.0018133631 -0.0014822864)
(0.001704531 0.0022124008 -0.0010042693)
(-0.0026335841 0.011080102 0.00046269268)
(-0.0047332698 0.0089429988 -2.6388069e-05)
(-0.0020090385 0.0091446511 -0.0017747013)
(0.0026111775 0.0054175559 -0.0015027065)
(0.0049516378 0.0064569056 0.00038786819)
(0.0072693324 0.009200698 0.001605938)
(0.0060181397 0.01218394 -0.00048260775)
(-0.0031803652 0.011266504 -0.00092645237)
(-0.0017793172 0.003998097 0.00027162404)
(0.0025927156 0.0077524983 0.0040394357)
(-0.00075725531 0.013558207 0.0019197822)
(-0.003985914 0.0080261088 -0.0025012759)
(0.001832685 -0.00046423834 0.00013842671)
(0.005311545 0.0097384061 0.00096544108)
(-0.0045519805 0.013381651 -0.0026819382)
(-0.0036140309 0.0097300148 -0.0017913277)
(0.0016140189 -0.0053218571 -6.5703943e-05)
(0.0028659629 -0.010038493 0.0004211073)
(0.0031079108 -0.011362622 0.0019758741)
(0.0030232003 -0.012040991 0.0026107418)
(0.0036668626 -0.0087781929 0.0010204505)
(0.0056181902 -0.010718009 0.00058637878)
(0.00468102 -0.010320924 -0.00031401172)
(0.001400485 -0.0097001244 -0.0015414834)
(0.0024396764 -0.007036718 -0.0026210653)
(0.0030280939 -0.008302903 -0.0029291441)
(0.0031426213 -0.0080748894 -0.0026661677)
(0.0038848901 -0.010112357 -0.0028223996)
(-0.0014091375 -0.010376619 -0.001904883)
(-0.0051361666 -0.0078664285 -0.00010072391)
(-0.0030736065 -0.0033548098 0.001714559)
(0.00053326927 -0.0029826935 0.0038008305)
(0.0028641103 -0.005161678 0.0037029745)
(0.002590891 -0.0103638 0.0017333203)
(-0.0011401701 -0.0094005653 -0.0042125401)
(-0.0019956145 -0.0056977119 -0.0043275232)
(0.0012961965 0.0002935915 -0.0020963131)
(0.0016886148 -0.0032711639 -0.0035828113)
(0.0031865728 -0.0092310555 -0.0039204754)
(-0.0035574591 -0.011923611 0.0019160355)
(0.00055043889 -0.00030874142 0.0026540867)
(0.0047709456 -0.0066360396 0.0030014849)
(-0.00032647065 -0.01137853 -0.0015698444)
(-0.0049098467 -0.008969033 -0.0036056722)
(-0.0028223472 -0.00089482683 -0.0028855843)
(0.0024737744 -0.0092936668 -0.0024384464)
(-0.0018403792 -0.017313559 0.002171729)
(0.00087490727 -0.01043898 -0.00072157039)
(0.0024020053 -0.013613544 0.0011477704)
(0.0012270046 -0.015445642 -4.5751294e-05)
(0.0014261031 -0.015820356 -0.00059554048)
(0.00071651928 -0.015471111 -4.412084e-05)
(4.8368486e-06 -0.015880923 0.00036848596)
(-0.0008037167 -0.015941785 0.0019210242)
(-0.0027599246 -0.014318083 0.0017560787)
(-0.0047936946 -0.013490407 0.0011340613)
(-0.0054682493 -0.013216325 0.0010556172)
(-0.0038088884 -0.011326946 0.0016474651)
(-0.001996251 -0.011834813 0.0013175246)
(-2.7836613e-05 -0.012647873 0.0001978398)
(0.0020752603 -0.011281379 0.0013587878)
(0.0010294164 -0.014615962 0.0025161909)
(-0.001808488 -0.016900807 0.0023866277)
(-0.002368462 -0.016193004 0.0007668996)
(-0.003245897 -0.015876348 -0.0026415108)
(-0.0033139479 -0.017670336 -0.0035493895)
(-0.002753846 -0.017935067 -0.0024616213)
(-0.0029286181 -0.017656598 -0.0024116447)
(-0.0036102146 -0.015441452 -0.0011358458)
(-0.0031217363 -0.012517178 -0.00077848127)
(0.00010416368 -0.012375543 0.00098912111)
(0.0024108446 -0.01690986 -0.0022485343)
(0.0010939987 -0.017948631 -0.0034640002)
(0.0014570567 -0.017393776 -0.0038284452)
(0.0011201562 -0.017195199 -0.0030085882)
(3.590084e-05 -0.017839383 -0.0025683224)
(-0.0025018314 0.018264026 -0.0020077146)
(0.00048599578 0.0012713134 -0.0035155362)
(0.0044233238 0.01475485 0.00036947874)
(0.0032813097 0.017309632 0.00050224495)
(0.0024882748 0.017716684 0.0022621538)
(0.0018908313 0.017525754 0.0026977188)
(0.00055902027 0.017661521 0.00030207156)
(-0.001081201 0.017791649 -0.0011604928)
(-0.0040515516 0.016767097 0.0013424505)
(-0.0056186042 0.015680704 0.0014464703)
(-0.0038850949 0.011237523 0.0010457086)
(-0.0018117879 0.002463305 0.00084439681)
(0.00011793653 0.00056435809 0.00019732519)
(0.00074294366 -0.00093102248 -0.0021973355)
(0.0022107186 0.0049097118 -0.0027666296)
(0.0049432899 0.015714507 -0.0026925382)
(0.0023096979 0.018243347 -0.0030168143)
(-0.0013295356 0.018000663 -0.0014735283)
(-0.0021387196 0.017078598 -0.0046136165)
(0.0015097448 0.018673106 -0.0052338002)
(0.0029767315 0.019072672 0.00017694611)
(-0.0023823886 0.019100327 0.0018643897)
(-0.0052245299 0.016414061 0.00031447592)
(-0.0015494448 0.0052535432 0.0019893856)
(-0.0017165304 -2.1068729e-05 0.0021940006)
(0.0026570097 0.017956053 -0.0037109371)
(0.0028106177 0.019156344 -0.004538394)
(0.0047191933 0.018668412 -0.0044254078)
(0.004986087 0.019161961 -0.0033196691)
(0.0029828787 0.01907603 -0.0025923731)
(0.0042447479 -0.01385243 -0.0019519191)
(-0.0003319411 -0.0152716 -0.0043355264)
(-0.0028145599 -0.0096521751 -0.006095295)
(0.00035615486 0.0013346275 -0.0029470645)
(0.00061094338 0.001487231 -0.0014506691)
(0.0014830413 0.0023351911 -1.4425989e-06)
(0.00066469663 0.0027369069 -0.00023432642)
(-0.00062414844 0.0047349784 -0.00040018689)
(-0.0010714621 0.0021511795 0.0013700559)
(0.0010373167 -0.0073579863 5.3766358e-05)
(0.0035880796 -0.015199916 -0.0017054484)
(0.0010472496 -0.013832022 -0.0029272665)
(0.0013421383 -0.013137271 -0.0024979225)
(-0.0020643535 -0.014678999 -0.003970291)
(-0.006552186 -0.013710933 -0.0037926018)
(-0.0048994136 -0.0084348545 -0.0028474148)
(4.5860474e-05 0.0011026227 -0.0026067448)
(0.00011749077 0.0025348145 0.00024051924)
(0.0023244835 -0.010645741 0.0038661963)
(0.0010538228 -0.017745308 0.0049722834)
(0.0017009401 -0.0010045698 -1.5001322e-05)
(-0.00097296764 0.0048819322 0.0017882286)
(0.0020719076 -0.0068850478 0.00181821)
(0.0034739007 -0.014305094 0.0053934665)
(-0.0038339957 -0.014635683 0.0018869764)
(-0.0013897132 -0.011461481 0.00087988131)
(0.0026550483 -0.012910029 0.0028497064)
(0.0021545751 -0.0098882491 0.0020666597)
(0.00087495926 -0.00044145527 -0.0005157369)
(-0.00044718167 0.0043191618 -0.00069807078)
(-0.0017986036 0.01106494 0.0022760483)
(-0.0054346938 0.010488968 -5.4244448e-05)
(-0.0064992195 0.0099540058 -0.0019826289)
(-0.0025902544 0.0066234529 -0.0023386145)
(0.00028410988 0.0083233014 -0.0020697247)
(0.0015063263 0.0082791244 0.00010287779)
(0.0016202405 0.0081523762 0.0020117716)
(0.0014780853 0.0087668819 0.0026874243)
(0.0024367622 0.0081438758 0.0029425376)
(0.0047581757 0.0085895373 0.0031018853)
(0.0028594575 0.010788946 0.0022943493)
(0.001735905 0.0049326074 0.0014381921)
(0.0016120539 -0.00084378645 -0.00069249909)
(0.0017298887 0.0081583533 0.0017915931)
(-0.0041592552 0.0095895286 -0.00026524951)
(-0.0039141166 0.0047377095 0.00047666509)
(-0.0019179533 0.005017063 -0.00031921801)
(0.0034107469 0.0090246741 0.0011951174)
(0.005850859 0.011422491 0.0026142903)
(-0.0010404127 0.013532742 0.00094876517)
(-0.0021364688 0.008652701 -0.00010889977)
(0.0010688396 0.0092750558 -0.00035337342)
(0.0041172275 0.0091853005 0.0028347582)
(0.0020943624 0.010661373 0.0039545746)
(0.0011097554 0.0048042677 -0.00083362969)
(0.0012307823 0.000555349 0.0019714742)
(0.0010341268 0.012294083 0.00040411597)
(-0.0016723484 0.010779119 0.0013109443)
(-0.0023965973 0.0082165021 -0.00038605644)
(-0.0015909019 0.010372126 -0.00011305916)
(0.0013199616 -0.0021527234 -0.0018212493)
(0.0028921132 -0.0050326633 -0.0016656336)
(0.0039412619 -0.0082360652 -7.7022007e-05)
(0.0031967985 -0.0090950682 0.0016088793)
(0.0011206539 -0.0073296593 0.0018327188)
(0.00096357636 -0.0035650278 0.00072068067)
(0.0012460825 -0.0012330602 -0.0010529049)
(0.0021616027 0.00010512248 -0.0013242073)
(0.0032771149 -0.00058787918 -0.00062486905)
(0.0036485436 -0.0035257804 -0.00070215376)
(0.0037438658 -0.0039833184 -0.00054755516)
(0.0049721902 -0.0084651165 -0.0010898901)
(-0.00075455251 -0.010544622 -0.0041689379)
(-0.0029106297 -0.008359493 -0.0047316809)
(-5.6883617e-05 -0.0069454295 -0.0021297159)
(0.00064019065 -0.010957442 -0.00042780385)
(-0.0024168771 -0.0091541005 0.0010156114)
(-0.0023363128 -0.0058621601 0.00086793734)
(-0.0006576438 -0.0026884903 0.0012986371)
(-0.0011966497 -0.0048587815 -0.0015461291)
(0.00040473845 -0.0035809199 0.00049355933)
(0.0013565902 0.00027334408 -0.0015044473)
(0.004163519 -0.0031031228 -0.0023131693)
(0.0048985997 -0.0080931277 -0.0019495764)
(0.005230558 -0.010186178 0.0005845406)
(0.00039665512 -0.011320708 0.0020608488)
(-0.0039410203 -0.0080666721 0.00030292116)
(-0.0023865047 -0.0034229205 0.00036387569)
(-0.0032984636 -0.0016741122 -0.00038737756)
(-0.0020261342 0.0024562104 -0.00085210213)
(8.6930186e-05 -0.017018001 -0.00010900038)
(0.00012268438 -0.01410843 -0.00055842031)
(0.0001945046 -0.015209015 -0.0024675665)
(-0.00016887038 -0.015417631 -0.002576577)
(-9.943153e-05 -0.015353146 -0.0022202833)
(-0.0013946735 -0.014756706 -0.00095543005)
(-0.0016003762 -0.013906033 -0.0018821785)
(-0.0014403217 -0.014964034 -0.0015581594)
(-0.0020353556 -0.014108603 -0.00048713091)
(-0.0029338549 -0.014487332 -0.00062218118)
(-0.0032568462 -0.015492357 -0.00041124595)
(-0.0026913594 -0.015289747 0.00185918)
(-0.0021363887 -0.016270086 0.0035103206)
(-0.0017591447 -0.01738055 0.0035579073)
(-0.0016308996 -0.016421815 0.0026109346)
(-0.0021953474 -0.01664968 0.0014551318)
(-0.0029042329 -0.014948583 7.0188333e-05)
(-0.0041419106 -0.012216085 -0.0018710016)
(-0.0027684413 -0.010186627 -0.001465339)
(-0.00046287516 -0.012032431 -0.001353803)
(0.0011334236 -0.017017605 -0.0023445047)
(-0.001920609 -0.020357523 -0.0025620032)
(-0.00361329 -0.018600351 -0.0018354621)
(-0.00099466687 -0.012941516 -0.00021481174)
(0.0026428909 -0.018697792 -0.00026857508)
(0.0003984375 -0.017367495 -0.0032257986)
(0.00096153897 -0.011672072 -0.0024108021)
(0.0030248346 -0.012516388 -0.0024382484)
(0.0031675885 -0.014937509 -0.0026677627)
(0.0012098674 -0.016796679 -0.002446856)
(-0.00095326083 0.018523251 0.00059459984)
(0.00026117667 0.014846304 -0.0014667456)
(0.0010014874 0.017057271 -0.0043511726)
(-0.0014853366 0.017105735 -0.0055614725)
(-0.0022153804 0.017076055 -0.0046616998)
(-0.0026956753 0.016450479 -0.0035331495)
(0.0001997623 0.014184398 -0.0045560219)
(0.00027758428 0.015625972 -0.0068101353)
(-0.00039388105 0.016295 -0.0024303328)
(-0.0026419573 0.0167091 0.001472458)
(-0.0026060254 0.017110298 0.0038218748)
(-0.0026884024 0.016082905 0.0058503961)
(-0.0025188532 0.016724746 0.0053085975)
(-0.00045956352 0.017877132 0.0052215617)
(0.0018637891 0.018277322 0.0029118542)
(0.00071350019 0.018480641 -0.0014037521)
(-0.000791037 0.016580464 -0.0038560856)
(-0.0029360429 0.013252665 -0.0031571412)
(0.0031782318 0.00057702549 0.00060478016)
(0.0024633219 -0.00061357523 0.0018200064)
(0.0081440338 0.014342901 -0.00067157157)
(-0.00042589262 0.021138183 -0.00085393069)
(-0.0070166858 0.018204385 -0.00013441971)
(0.0012576156 -0.00016739976 0.00032929407)
(0.0028917044 0.01797007 -2.1732904e-05)
(-0.0030033627 0.017298072 -0.0049201707)
(0.0017986487 0.0028491452 -0.00066932104)
(0.0035825317 0.0040025722 -0.00033260564)
(0.0066577594 0.015344912 -0.0032171818)
(0.0052284063 0.01858632 -0.0032553851)
(0.0020587651 -0.013126873 -0.002037085)
(-0.0009935879 -0.014913217 -0.0042830389)
(-0.0013268694 -0.001968478 -0.004586869)
(-0.0022846906 -0.00090073997 -0.0048715991)
(-0.0014410092 -0.002118027 -0.0040489373)
(0.0019604622 -0.010845626 -0.00028334287)
(0.0025446937 -0.014468922 0.0049631996)
(-0.00062114912 -0.013618037 0.0055231683)
(-0.0010266547 -0.0053518741 0.0019244613)
(-0.0013710826 -0.0059635326 0.00044213941)
(-0.0014231032 -0.011761849 -0.0012435471)
(-4.2779311e-05 -0.010141053 -0.0016905935)
(0.0024529514 -0.015778398 -0.0019595385)
(-0.0011080411 -0.017202922 -0.0053084227)
(-0.0026870649 -0.013134465 -0.0027933515)
(-0.0034358563 -0.011766163 -0.0010351473)
(-0.0015933572 -0.012684586 0.0011106122)
(0.0037971293 -0.014442447 0.00055731305)
(0.0062377231 -0.013844607 0.0031052553)
(-0.00037120406 -0.015776599 0.0052429528)
(-0.0012639368 -0.0068843675 0.0030680285)
(-0.00095360281 0.010158575 -0.00066508084)
(0.0027468338 -0.014733729 -0.0011773722)
(0.0010697927 -0.015854207 -0.00069732085)
(-0.0032978012 -0.0021283599 -0.00042780579)
(0.0036899795 -0.01415843 0.0035922232)
(0.0049359124 -0.014613061 0.0030079281)
(0.0021951711 -0.015921091 0.0040510738)
(-0.0038163616 -0.012628498 0.004449751)
(0.0022833112 0.0048906243 -0.0001684568)
(-0.00076736475 0.012495375 -0.00026823761)
(-0.0051625806 0.011405357 -0.0012916525)
(-0.0048178821 0.0081872409 -0.0022117713)
(-0.0018754959 0.0077173935 -0.00076495333)
(0.003128578 0.0054928843 0.0014780704)
(0.0047699069 0.0077260325 0.0036564405)
(0.0047797195 0.011728897 0.0052064097)
(0.00075292535 0.01280784 0.0057598284)
(-0.0018178202 0.0089942762 0.0032120774)
(0.0003605256 0.0090978623 0.0005485853)
(0.0014172631 0.010227619 -0.0028040773)
(0.0028599237 0.0030529167 -0.0020463707)
(0.0053454354 0.0093188912 -0.00074344582)
(0.0020492057 0.01309108 0.001717819)
(-0.0033247242 0.013098645 0.0021412597)
(-0.0040238028 0.011267788 0.0035093608)
(-0.0010193746 0.0023757004 0.0021173805)
(-0.0014179817 -0.0010445604 0.0010827571)
(0.001820196 0.0046242491 0.0013898862)
(-0.0016975366 0.010944468 0.0015384592)
(-0.0045743382 0.0096742134 0.0024405037)
(-0.00046092104 0.011780396 -0.00049134456)
(0.0031745369 0.01412707 -0.0016979164)
(-0.0039246683 0.010964756 0.0035264913)
(-0.0029339428 0.0086510126 0.00086574721)
(0.002983211 -0.00020959006 0.0015737829)
(-0.00032477215 0.00056055086 0.00084401017)
(0.00083360223 0.012199831 0.00073228478)
(-0.0054001751 0.011267616 0.0022843761)
(-0.001398607 0.0091239924 0.00049735906)
(0.0021979629 0.0002885306 0.0021481433)
(0.0038507971 -0.0034027414 0.0018984628)
(0.0053633777 -0.0066010687 0.0027157866)
(0.0046631002 -0.0089886197 0.0034054914)
(0.0031927202 -0.010049458 0.0040897395)
(-0.00048593959 -0.010716607 0.0047783062)
(-0.002279187 -0.0048710035 0.0047533734)
(0.00018474672 0.00043944601 0.0045671056)
(0.0018140592 -0.00088467031 0.00317625)
(0.0024791563 -0.0051212734 0.0019895679)
(0.0040786416 -0.010994619 0.0011892979)
(0.00093620153 -0.011569611 -0.0021138393)
(-0.0034375246 -0.010305882 -0.0042333724)
(-0.00112842 0.00045587974 -0.0011858898)
(0.0012335644 -0.0030025735 -0.0011126183)
(0.0030362427 -0.0074935535 -0.00067728359)
(0.0032699883 -0.011588684 0.00053106251)
(-0.0050137604 -0.01114724 0.0020277464)
(-0.0067791216 -0.0086100723 0.0025083845)
(-0.0065866598 -0.0055391148 0.0011805249)
(-0.0048930419 -0.0021877653 0.00030837646)
(-0.0019572245 0.0046661716 -5.6661789e-05)
(0.0034828983 1.9769986e-05 -0.0008903752)
(0.0038878565 -0.0019458613 0.0012315377)
(0.0060539985 -0.0060551101 0.0022263026)
(0.0046314413 -0.010471413 0.0025234533)
(-0.005120113 -0.0093408578 0.0041152964)
(-0.0041614325 -0.0058930702 0.0035227152)
(-0.0037206728 -0.0049792077 0.003029818)
(-0.0015564053 0.00042803605 0.0023803312)
(-0.00089091141 -0.01563978 -0.0029230447)
(-0.00020974245 -0.014167003 -0.0032296962)
(-0.00011829982 -0.014150338 -0.0044620791)
(-0.0011441414 -0.014404872 -0.004439815)
(-0.0009125048 -0.015670868 -0.003751497)
(-0.0035321338 -0.013098457 -0.0023929366)
(-0.0020176134 -0.010540406 -0.0010531379)
(0.0011112255 -0.011878395 -0.00017823366)
(0.0030115657 -0.010488575 -0.0014577669)
(0.0023148899 -0.012165454 -0.0022983262)
(-0.00028131286 -0.015478721 -0.0038890241)
(-0.00048464261 -0.015642798 -0.0037186413)
(-0.0011979945 -0.01537452 -0.0016402012)
(-0.0028719337 -0.015810564 -0.0019406905)
(-0.0022426961 -0.011487741 0.00024335893)
(0.00026555575 -0.013933219 0.000660002)
(0.00285157 -0.014244769 0.00099631158)
(0.00013616549 -0.020573094 -0.00017418677)
(-0.0019176102 -0.020224495 -0.002378251)
(-0.0035945426 -0.018832612 -0.00091662521)
(-0.0032711278 -0.013385819 -0.0023467954)
(-0.0010917597 -0.013116298 -0.001689733)
(0.00072070043 -0.013509536 -0.00094019761)
(0.0030699724 -0.013307161 -0.0014985237)
(0.0036639003 -0.014024009 -0.0023676664)
(0.0023968459 -0.017083105 -0.0025059942)
(-0.0027752126 0.016942602 4.2492797e-05)
(-0.0021318713 0.013382322 -0.0014760549)
(-0.0012473981 0.014715757 -0.0055763258)
(-0.0018653668 0.014858164 -0.0056292308)
(-0.0010462018 0.016889554 -0.0040831959)
(-0.0039431884 0.014397303 -0.001618554)
(0.0021041151 -0.00062820967 0.0010822078)
(0.0011390448 -0.0011948188 0.0022075336)
(0.0020901136 0.0053895037 0.0020320356)
(0.0039587029 0.014265162 0.001209692)
(0.002064391 0.01755068 0.0012173674)
(-0.0036978705 0.017849881 0.0012865883)
(-0.0038003244 0.015962778 0.0008587361)
(-0.0037845446 0.016946697 0.0014018891)
(0.0019143198 0.00092191364 0.0012100779)
(0.0012057845 -0.0019131371 -0.00025527755)
(0.005901505 0.0083509359 -0.001059778)
(0.0034146597 0.01969215 -0.003179335)
(-0.0069535996 0.020653842 -0.0030995755)
(-0.0073145816 0.018452247 -0.00076843272)
(-0.0041086706 0.004995034 -0.0024412062)
(-0.0011381777 -0.00065282619 -0.00032955335)
(-0.00010861238 -0.00020494418 -0.00017394496)
(0.0040179087 0.0016667248 -0.001168221)
(0.0048201215 0.0080036464 -0.0014231819)
(0.006381721 0.017527316 -0.002434275)
(0.00082345524 -0.0036867157 0.0004703785)
(-0.001053346 -0.015218346 0.0012686256)
(-0.0024417319 -0.014002158 0.0009097993)
(-0.00030939156 -0.014301454 0.0015120247)
(0.0014498956 -0.012152018 -0.00035482094)
(0.006003307 -0.014030091 0.00092537455)
(0.0065714741 -0.0143489 0.0027440353)
(-0.00030306293 -0.014327281 0.0051182299)
(-0.0045546917 -0.012449577 0.004303253)
(-0.0034895068 -0.009723503 0.0037623439)
(0.00091814416 0.0015974016 0.0017016431)
(-0.0023980556 0.0055548745 0.0015241714)
(0.0027851339 -0.017301434 0.0042678874)
(0.003791939 -0.015315076 -0.00075119582)
(0.0058119003 -0.014452102 -0.0012142434)
(0.00010835032 -0.015916375 -0.0023671284)
(-0.0048469787 -0.013720732 -0.00037964907)
(-0.00015543299 0.0039978871 -0.0021154854)
(-0.0040502665 0.002394743 -0.0011232725)
(0.0022898481 -0.016073446 -0.0047901781)
(-0.00064035532 -0.013968972 0.00056237071)
(0.0011654156 -0.014497712 0.0027176016)
(-0.00016813316 -0.014553787 0.0018998298)
(0.0020989432 -0.014026573 6.4041019e-05)
(-0.0032043296 -0.01518067 0.0027044271)
(0.0012893086 -0.00085371556 -0.0010926882)
(0.0020479341 0.0089065659 -0.0027762143)
(0.00026687541 0.010800582 -0.0021618593)
(-0.00054429313 0.0046931724 -0.00012582374)
(8.8723215e-06 0.0033300136 0.00021742349)
(0.0021549691 0.0017799138 0.00084382987)
(0.0022809896 0.0018846788 0.0016280551)
(0.003555954 0.0073868881 0.00050131437)
(-0.00056344567 0.0097014127 0.00086982433)
(-0.0028571878 0.005709158 0.0016134425)
(-0.0028917623 0.0029617264 0.001137838)
(-0.00034053624 0.007440727 -8.7365969e-05)
(0.00093380414 0.0087891441 0.00049653572)