/*--------------------------------*- C++ -*----------------------------------*\
| =========                 |                                                 |
| \\      /  F ield         | OpenFOAM: The Open Source CFD Toolbox           |
|  \\    /   O peration     | Version:  v2012                                 |
|   \\  /    A nd           | Website:  www.openfoam.com                      |
|    \\/     M anipulation  |                                                 |
\*---------------------------------------------------------------------------*/
FoamFile
{
    version     2.0;
    format      ascii;
    class       volScalarField;
    location    "610/heater";
    object      T;
}
// * * * * * * * * * * * * * * * * * * * * * * * * * * * * * * * * * * * * * //

dimensions      [0 0 0 1 0 0 0];


internalField   nonuniform List<scalar> 
80
(
733.47298
735.57028
739.69885
745.58078
724.1043
726.59041
731.45983
738.42913
704.455
707.6672
714.08887
723.52875
672.43568
676.46117
685.07038
698.92331
345.58812
342.88526
342.90537
345.55374
422.34863
419.07303
419.27945
422.77253
488.11156
485.35159
486.05093
489.73533
544.08952
542.3995
544.30499
548.77649
590.35608
590.57472
595.20251
602.76493
625.5542
629.19727
638.70878
657.87773
345.47643
342.81304
342.85382
345.54387
422.27923
418.99942
419.22768
422.78787
488.04945
485.28694
486.00798
489.76369
544.01748
542.34012
544.26383
548.7911
590.30614
590.53943
595.18583
602.80638
625.54572
629.19548
638.72489
657.93088
672.46494
676.48304
685.12132
699.05996
704.54947
707.77375
714.2497
723.77515
724.29201
726.81876
731.74735
738.76215
733.68918
735.85192
740.0357
745.94503
)
;

boundaryField
{
    minY
    {
        type            fixedValue;
        value           uniform 300;
    }
    minZ
    {
        type            zeroGradient;
    }
    maxZ
    {
        type            zeroGradient;
    }
    heater_to_topAir
    {
        type            compressible::turbulentTemperatureCoupledBaffleMixed;
        refValue        nonuniform List<scalar> 
40
(
517.92943
514.91639
509.44217
502.29857
481.22712
469.39301
456.82259
445.77607
491.61686
480.38948
468.40754
457.23535
506.09607
502.11437
500.46032
500.62706
504.10411
501.78225
502.60212
504.69391
504.13501
502.02485
503.06446
505.32531
506.54579
503.25224
502.35163
503.28892
491.86262
481.24779
470.02295
459.47383
481.30733
469.5499
457.01918
445.92899
517.88498
514.99486
509.67655
502.68457
)
;
        refGradient     uniform 0;
        valueFraction   nonuniform List<scalar> 
40
(
0.00032132529
0.00032132529
0.00032132529
0.00032132529
0.00032132529
0.00032132529
0.00032132529
0.00032132529
0.00032132529
0.00032132529
0.00032132529
0.00032132529
0.00032132529
0.00032132529
0.00032132529
0.00032132529
0.00032132529
0.00032132529
0.00032132529
0.00032132529
0.00032132529
0.00032132529
0.00032132529
0.00032132529
0.00032132529
0.00032132529
0.00032132529
0.00032132529
0.00032132529
0.00032132529
0.00032132529
0.00032132529
0.00032132529
0.00032132529
0.00032132529
0.00032132529
0.00032132529
0.00032132529
0.00032132529
0.00032132529
)
;
        value           nonuniform List<scalar> 
40
(
733.40372
735.49937
739.62486
745.50261
724.02626
726.50777
731.37158
738.33509
704.38661
707.59417
714.00992
723.44319
672.38223
676.40514
685.01106
698.85959
625.51518
629.15633
638.66505
657.82851
625.50671
629.15462
638.68129
657.88184
672.41162
676.42738
685.06259
698.99706
704.48113
707.70096
714.17122
723.69022
724.21394
726.73609
731.65907
738.66806
733.61983
735.78095
739.96168
745.86686
)
;
        Tnbr            T;
        thicknessLayers List<scalar> 0();
        kappaLayers     List<scalar> 0();
        kappaMethod     solidThermo;
        kappa           none;
        alphaAni        none;
        alpha           none;
        field           T;
    }
    heater_to_rightSolid
    {
        type            compressible::turbulentTemperatureCoupledBaffleMixed;
        refValue        nonuniform List<scalar> 10(752.79686 746.97683 735.27077 717.78397 697.10981 697.21178 717.99543 735.5577 747.30975 753.15041);
        refGradient     uniform 0;
        valueFraction   nonuniform List<scalar> 10(0.49999997 0.49999997 0.49999997 0.49999997 0.49999997 0.49999997 0.49999997 0.49999997 0.49999997 0.49999997);
        value           nonuniform List<scalar> 10(749.18882 742.70298 729.39976 708.35364 677.49377 677.57133 708.5277 729.66642 743.03595 749.54772);
        Tnbr            T;
        thicknessLayers List<scalar> 0();
        kappaLayers     List<scalar> 0();
        kappaMethod     solidThermo;
        kappa           none;
        alphaAni        none;
        alpha           none;
        field           T;
    }
    heater_to_leftSolid
    {
        type            compressible::turbulentTemperatureCoupledBaffleMixed;
        refValue        nonuniform List<scalar> 10(918.54863 918.55935 918.65077 918.67633 918.59359 918.36441 918.09506 917.96472 917.94538 917.976);
        refGradient     uniform 0;
        valueFraction   nonuniform List<scalar> 10(2.0832898e-05 2.0832898e-05 2.0832898e-05 2.0832898e-05 2.0832898e-05 2.0832898e-05 2.0832898e-05 2.0832898e-05 2.0832898e-05 2.0832898e-05);
        value           nonuniform List<scalar> 10(733.47683 724.10835 704.45947 672.44081 625.56031 625.55182 672.47005 704.55392 724.29605 733.69302);
        Tnbr            T;
        thicknessLayers List<scalar> 1(0.001);
        kappaLayers     List<scalar> 1(0.0005);
        kappaMethod     solidThermo;
        kappa           none;
        alphaAni        none;
        alpha           none;
        field           T;
    }
    heater_to_bottomWater
    {
        type            compressible::turbulentTemperatureCoupledBaffleMixed;
        refValue        nonuniform List<scalar> 
92
(
929.35663
923.05053
922.78855
923.16038
924.48689
924.76034
923.89363
923.25845
925.54907
927.73397
926.68654
923.07654
940.17539
937.05804
935.82325
933.74912
936.96785
934.50366
933.05807
926.49085
934.08197
932.93291
931.89776
923.09253
926.4724
931.07901
930.85066
927.54214
922.68754
922.68754
925.95691
925.95691
926.87931
926.87931
924.91819
924.91819
930.91492
904.22305
921.59651
908.21917
926.44995
910.85658
935.39366
912.87945
939.20588
910.43629
919.51652
914.05555
914.75312
914.38966
910.7663
916.96974
926.68022
917.79013
918.71798
917.19325
914.61923
921.54355
929.79204
919.88192
920.55545
918.39782
916.82531
923.15189
931.51492
921.73673
920.67788
916.91407
916.28245
923.54284
934.54161
923.29372
920.13821
917.66837
917.00755
923.79303
923.29372
920.13821
917.66837
923.79303
925.47644
922.87605
922.88467
927.07667
925.59471
926.9656
928.54804
929.21569
927.40116
928.48406
929.49098
929.80032
)
;
        refGradient     uniform 0;
        valueFraction   nonuniform List<scalar> 
92
(
0.0075140686
0.0075140686
0.0075140686
0.0075140686
0.0075140686
0.0075140686
0.0075140686
0.0075140686
0.0075140686
0.0075140686
0.0075140686
0.0075140686
0.0075140686
0.0075140686
0.0075140686
0.0075140686
0.0075140686
0.0075140686
0.0075140686
0.0075140686
0.0075140686
0.0075140686
0.0075140686
0.0075140686
0.0075140686
0.0075140686
0.0075140686
0.0075140686
0.0075140686
0.0075140686
0.0075140686
0.0075140686
0.0075140686
0.0075140686
0.0075140686
0.0075140686
0.0075140679
0.0075140679
0.0075140679
0.0075140679
0.0075140679
0.0075140679
0.0075140679
0.0075140679
0.0075140679
0.0075140679
0.0075140679
0.0075140686
0.0075140686
0.0075140686
0.0075140679
0.0075140686
0.0075140679
0.0075140686
0.0075140686
0.0075140686
0.0075140679
0.0075140686
0.0075140679
0.0075140686
0.0075140686
0.0075140686
0.0075140679
0.0075140686
0.0075140679
0.0075140686
0.0075140686
0.0075140686
0.0075140679
0.0075140686
0.0075140679
0.0075140686
0.0075140686
0.0075140686
0.0075140679
0.0075140686
0.0075140686
0.0075140686
0.0075140686
0.0075140686
0.0075140686
0.0075140686
0.0075140686
0.0075140686
0.0075140686
0.0075140686
0.0075140686
0.0075140686
0.0075140686
0.0075140686
0.0075140686
0.0075140686
)
;
        value           nonuniform List<scalar> 
92
(
734.94486
736.97902
741.0746
746.91513
725.60999
728.07947
732.90579
739.81795
706.11632
709.3208
715.68634
725.02817
350.05588
347.34991
347.3606
349.97348
426.21551
422.94601
423.14002
426.5575
491.46261
488.71475
489.40106
492.99161
546.96277
545.32007
547.20952
551.62256
674.31609
592.85324
678.33589
593.09481
686.88735
597.69475
700.62145
605.18561
349.9863
349.75162
426.10001
426.42021
491.40527
492.89967
547.0298
551.51238
592.97736
605.07679
349.7898
349.74877
347.11064
347.14838
349.79099
349.8376
426.06933
426.00253
422.75434
422.96943
426.48353
426.53556
491.36873
491.29427
488.55757
489.25699
492.97266
493.0202
546.92916
546.85569
545.18298
547.06395
551.55246
551.60701
592.89275
592.80823
593.01606
597.60899
605.16731
605.21829
674.34968
678.31388
686.86869
700.74862
706.20953
709.39004
715.8174
725.30277
725.80462
728.32268
733.22612
740.19324
735.14474
737.29937
741.45928
747.32653
)
;
        Tnbr            T;
        thicknessLayers List<scalar> 0();
        kappaLayers     List<scalar> 0();
        kappaMethod     solidThermo;
        kappa           none;
        alphaAni        none;
        alpha           none;
        field           T;
    }
}


// ************************************************************************* //
