/*--------------------------------*- C++ -*----------------------------------*\
| =========                 |                                                 |
| \\      /  F ield         | OpenFOAM: The Open Source CFD Toolbox           |
|  \\    /   O peration     | Version:  v2012                                 |
|   \\  /    A nd           | Website:  www.openfoam.com                      |
|    \\/     M anipulation  |                                                 |
\*---------------------------------------------------------------------------*/
FoamFile
{
    version     2.0;
    format      ascii;
    class       volScalarField;
    location    "360/bottomWater";
    object      p_rgh;
}
// * * * * * * * * * * * * * * * * * * * * * * * * * * * * * * * * * * * * * //

dimensions      [1 -1 -2 0 0 0 0];


internalField   nonuniform List<scalar> 
1460
(
0.2894892
0.29154002
0.28795477
0.28922437
0.29672848
0.30623676
0.30419091
0.3053765
0.30790489
0.30134659
0.30838395
0.30900977
0.30702363
0.3059021
0.27748198
0.25721214
0.27661346
0.26940522
0.27738224
0.27400268
0.26903365
0.27812232
0.29324742
0.28568409
0.29132163
0.30102927
0.29809207
0.30185809
0.29470311
0.29894983
-0.26200791
-0.26946346
-0.27095945
-0.25272935
-0.2340219
-0.20844636
-0.21205091
-0.21824196
-0.23071975
-0.26186923
-0.27839264
-0.27771206
-0.22429387
-0.16167785
-0.21852857
-0.24156232
-0.23700956
-0.23278072
-0.23356785
-0.23576808
-0.23742431
-0.21879231
-0.1762676
-0.21236312
-0.19504476
-0.18275232
-0.18834924
-0.20978201
-0.24707682
-0.26045762
0.12726118
0.11566982
0.090124503
0.081191122
0.070121223
0.072940343
0.080516907
0.077575537
0.059923839
0.088740819
0.078079565
0.08586896
0.022846265
0.040695922
0.018293924
0.088497977
0.11783861
0.11254026
0.10519552
0.096674553
0.081581979
0.070114759
0.057369864
0.087073482
0.069060413
0.066900615
0.06418994
0.06396438
0.055180629
0.085590901
-0.046345505
-0.046471946
-0.046536706
-0.08626238
-0.058032886
-0.05438702
-0.043434203
-0.073985995
-0.083636197
-0.098523026
-0.022314638
-0.03272532
-0.063825181
-0.052348167
-0.061316375
-0.041638075
-0.032800459
-0.077027713
-0.090964458
-0.062175331
-0.067705361
-0.052883535
-0.056062935
-0.050841573
-0.035979767
-0.015619001
-0.035439067
-0.040312864
-0.072991764
-0.033205029
0.015539848
0.015677573
0.0076564548
0.013843596
-0.0074910128
-0.01666192
0.0043438018
-0.012713192
0.014311891
0.039341541
0.044287194
0.030008396
0.019788044
0.015600399
-0.013315552
-0.013150655
-0.0061913748
-0.0022103544
0.036286162
0.010757152
0.0050363428
-0.0043505668
-0.0050082986
-0.012923512
-0.013060716
-0.0099930689
-0.015605085
-0.018944595
-0.0071433994
0.0034857307
0.28623692
0.28705954
0.28551272
0.29440504
0.29995041
0.30698864
0.31963606
0.30797644
0.30769319
0.30081689
0.30122808
0.29833695
0.29013389
0.28701564
0.26687501
0.27010041
0.27554767
0.27228815
0.26984206
0.27776581
0.28028158
0.28125017
0.29422712
0.28840686
0.29123173
0.2932145
0.29610804
0.31117936
0.29794111
0.30184368
-0.26470383
-0.26155704
-0.26112406
-0.27492719
-0.27145028
-0.24870773
-0.2293377
-0.27544308
-0.28427432
-0.26911119
-0.26212294
-0.28003877
-0.26046884
-0.25602093
-0.25727544
-0.25162065
-0.25945989
-0.25708421
-0.23971274
-0.25467341
-0.25565706
-0.24248146
-0.22403547
-0.26280243
-0.2608447
-0.25019126
-0.20618343
-0.18290161
-0.24906001
-0.26580831
0.11453408
0.097726669
0.10354179
0.11219068
0.077695661
0.070212091
0.052017584
0.090016477
0.089696189
0.10389101
0.079798087
0.093128831
0.08701876
0.057707079
0.078055106
0.092863763
0.11552956
0.092956883
0.08578649
0.097872401
0.080572129
0.07207859
0.050887425
0.089647318
0.063961584
0.075132044
0.040693031
0.024462555
0.032466147
0.073497766
-0.064129993
-0.097304251
-0.06886332
-0.053343004
-0.066603186
-0.086732257
-0.083822548
-0.082424723
-0.050029092
-0.076504201
-0.096662211
-0.051188685
-0.0695917
-0.075207055
-0.06965573
-0.035715505
-0.025143373
-0.04742561
-0.087617501
-0.041254044
-0.061173452
-0.076227875
-0.06867299
-0.056051297
-0.031366921
-0.052365971
-0.060145753
-0.060846383
-0.072824036
-0.029264975
0.0062227221
0.023558766
0.011988039
-0.0088245731
-0.0067819993
0.013023663
0.016792018
-0.0012323196
-0.0031193593
0.0096704928
0.031741013
0.01803277
0.031019918
0.018352363
-0.0030118124
-0.0098305797
-0.0011672966
-0.004650276
0.015711585
0.022230895
-0.00010530355
0.027044905
0.018410498
-0.0074152556
-0.006556789
-0.020026398
-0.008618556
0.0042385414
-0.0016774767
0.0011139231
0.29226961
0.30365537
0.29713249
0.29677691
0.29864668
0.30196358
0.30535765
0.30099415
0.30466926
0.30771609
0.31131784
0.30584852
0.288078
0.28917
0.28632319
0.27361667
0.28191203
0.26544724
0.29605164
0.28544023
0.291705
0.29294567
0.29231554
0.29005672
0.2935684
0.30309797
0.3054652
0.30145321
0.28915368
0.29714139
-0.22638009
-0.20707415
-0.22131732
-0.2551663
-0.25363314
-0.28114463
-0.287976
-0.28405495
-0.2583234
-0.23587889
-0.207527
-0.21662478
-0.24375772
-0.26265388
-0.2608363
-0.24593722
-0.24196774
-0.2377363
-0.22235265
-0.24759389
-0.26411496
-0.26641154
-0.26661602
-0.26273579
-0.24679063
-0.20323292
-0.18093529
-0.21559146
-0.25863056
-0.26119716
0.067888675
0.056053134
0.05562781
0.063908828
0.084879729
0.10137488
0.13104372
0.081858768
0.074940106
0.058346792
0.052384458
0.017261825
0.046387848
0.060842287
0.081083848
0.097929468
0.080653109
0.07608023
0.031300459
0.066926597
0.08178712
0.1173371
0.11181879
0.09951832
0.07779919
0.059609528
0.033443408
0.037985305
0.05054612
0.090582051
-0.072803455
-0.066357158
-0.068982989
-0.096873013
-0.092615127
-0.052570181
-0.042459676
-0.056605955
-0.082282699
-0.068428458
-0.049351507
-0.060277644
-0.065476195
-0.017804302
-0.020974516
-0.049137655
-0.070167705
-0.075054289
-0.06491029
-0.072610094
-0.034355922
-0.033132766
-0.038667742
-0.045898778
-0.060611816
-0.047348835
-0.064907732
-0.057475554
-0.082673461
-0.037823068
0.0041931861
-0.0034781428
-0.006418176
0.030182396
0.024387625
0.019446869
0.036288211
0.012248499
0.030662407
-0.0075940364
0.0020291292
0.0015103335
-0.0094676024
-0.013861216
-0.0086708342
-0.015482481
-0.0077767174
0.014842445
0.028008106
0.029460114
0.026630789
0.031181941
0.025617651
0.021027491
0.012588115
-0.012175851
0.017120014
0.015214545
0.016638331
0.019465708
0.29378626
0.31382284
0.30159485
0.32261
0.3196248
0.31893562
0.323144
0.31354517
0.32726688
0.30597087
0.31303528
0.30040632
0.28672487
0.2898863
0.29537355
0.28928428
0.27247442
0.28001413
0.30568651
0.29715162
0.28155268
0.28513779
0.2940592
0.28615572
0.29691172
0.28794026
0.27738692
0.27652592
0.28106714
0.28809797
-0.24412063
-0.21880519
-0.20610468
-0.19658433
-0.24812687
-0.28694888
-0.29144901
-0.27234376
-0.22419818
-0.20358617
-0.1941306
-0.22088817
-0.2480881
-0.25455457
-0.2224208
-0.21061131
-0.22829946
-0.23162556
-0.16459435
-0.18930862
-0.26068986
-0.25994229
-0.2669285
-0.252841
-0.219185
-0.20691794
-0.24434691
-0.25944725
-0.26401249
-0.2553212
0.11649568
0.066118183
0.065842684
0.025453964
0.028710518
0.083263465
0.08462754
0.056202975
0.052837594
0.077046599
0.067956397
0.04678733
0.069103408
0.068279286
0.065627963
0.062189102
0.098101403
0.062235636
0.028569184
0.036532891
0.033279767
0.075138569
0.082841891
0.068362202
0.043577274
0.056048473
0.051020091
0.068791375
0.087673721
0.1096222
-0.035263971
-0.045049808
-0.079237087
-0.090105863
-0.10082882
-0.057048929
-0.039629091
-0.1240046
-0.078337522
-0.073766352
-0.040467276
-0.061354591
-0.0783843
-0.031357341
-0.083182504
-0.031885344
-0.048997234
-0.07339867
-0.071194789
-0.071849364
-0.084778637
-0.047585829
-0.036377205
-0.09813466
-0.054960461
-0.056750611
-0.068943973
-0.052211186
-0.047515665
-0.029639435
-0.018791557
-0.022868003
-0.026669045
0.013821207
0.015928096
0.021943162
0.041793996
0.027803649
0.0090161501
-0.011321882
-0.0021338504
-0.002986413
0.014818337
0.0024770044
0.011867583
-0.015294867
-0.0083782123
-0.008750918
0.0088150467
0.012899122
0.013963643
0.019878483
0.03256041
0.032646043
0.0063795005
-0.0064984335
0.015764822
0.011239642
0.015031804
0.023763827
0.29280445
0.29395027
0.29139767
0.30719986
0.29866967
0.30527355
0.305204
0.30127849
0.31767479
0.3100275
0.317108
0.30701147
0.31191394
0.29148079
0.27772632
0.29878658
0.28765489
0.2831435
0.29548009
0.28608701
0.30049009
0.28605154
0.27940347
0.2803305
0.28188031
0.28361572
-0.2583191
-0.26044529
-0.25236118
-0.24673634
-0.25702227
-0.27990108
-0.28467228
-0.26945671
-0.22195642
-0.20554412
-0.22139613
-0.25755779
-0.27161279
-0.17573583
-0.20932156
-0.16287674
-0.22449891
-0.25409838
-0.2623699
-0.24515646
-0.21056246
-0.22562351
-0.2625143
-0.26573913
-0.26210683
-0.25566323
0.11278957
0.10640585
0.093986166
0.074379983
0.090400446
0.10458311
0.08848213
0.062121742
0.051047835
0.062645109
0.062268008
0.047786879
0.082612638
0.074662861
0.091173437
0.05893699
0.04406953
0.075372273
0.083343584
0.080429369
0.052121732
0.076629538
0.072118712
0.10941219
0.11014307
0.10683959
-0.057296035
-0.067667769
-0.084206359
-0.086861335
-0.10068829
-0.064357012
-0.041079779
-0.11081102
-0.064655435
-0.055090659
-0.05303625
-0.11606246
-0.043227422
-0.022425474
-0.042037624
-0.045370856
-0.049836002
-0.055997789
-0.032144033
-0.091224209
-0.049285661
-0.055854174
-0.05543008
-0.041898821
-0.039899651
-0.059164369
-0.01801169
-0.028097809
-0.022216497
0.0023087374
0.0023554459
0.01371174
0.019437523
0.018652776
-0.0041225441
-0.0097075417
-0.00026666731
0.012413383
0.020282162
-0.0019630687
-0.009288315
-0.0046725176
0.00056132224
0.0081485948
0.017167184
0.022424084
0.00029089076
-0.0054835961
0.0124055
0.020355023
0.014053736
0.034728769
0.2950243
0.29924877
0.29035148
0.31192027
0.30882769
0.31039249
0.31525289
0.30748806
0.32175318
0.29843912
0.30465779
0.30190815
0.30561789
0.29531533
0.29200092
0.29431807
0.28234433
0.28579092
0.2922959
0.28409123
0.29605495
0.26838701
0.2759736
0.27182004
0.26608295
0.28861154
-0.26892388
-0.27216136
-0.24701244
-0.22223668
-0.23485116
-0.28261455
-0.28898623
-0.26795335
-0.23572385
-0.25939665
-0.2558816
-0.2893677
-0.27659265
-0.18441914
-0.19930217
-0.20707678
-0.24539577
-0.26140617
-0.2552388
-0.2301984
-0.19491423
-0.24161986
-0.24553469
-0.24812239
-0.25609678
-0.20800804
0.11642049
0.085637132
0.068340266
0.06015373
0.067094202
0.080460878
0.093450861
0.078581744
0.059403724
0.10428982
0.089393547
0.098473354
0.14508737
0.059970152
0.063644216
0.044673577
0.045222044
0.069641434
0.079606824
0.04923393
0.033300859
0.092754821
0.10327704
0.092461599
0.061101626
0.035585845
-0.058964288
-0.060648975
-0.10520617
-0.053613855
-0.060917598
-0.068669682
-0.035089535
-0.1088272
-0.047310194
-0.061882744
-0.094243964
-0.062093146
-0.041021422
-0.0232059
-0.049950657
-0.052982936
-0.084471656
-0.043954913
-0.059525475
-0.077414742
-0.072127431
-0.05951218
-0.038226965
-0.044494982
-0.072891936
-0.06520119
0.002585393
-0.0043901526
0.0049380017
-0.0050136058
-0.0139778
0.0051146888
0.019898927
0.021500531
0.0017023018
0.0089986439
0.023231751
0.023198961
0.036518561
-0.0083472947
-0.01924878
-0.0075386798
0.012883236
0.014651832
0.014423143
0.015205912
0.0048929783
-0.01733128
-0.010069623
-0.00231633
0.00053614462
0.022232651
0.29502577
0.29002158
0.29554999
0.3023508
0.31076868
0.31293119
0.31364865
0.31358073
0.31497797
0.30823687
0.3101412
0.29747499
0.30379267
0.31251399
0.30191462
0.30774722
0.26278372
0.28479258
0.27174413
0.27261589
0.27787837
0.28072931
0.28542129
0.2782133
0.28308354
0.28463658
0.26997099
0.28011367
0.27224042
0.28983889
-0.26685767
-0.26758332
-0.22474595
-0.19597834
-0.21167395
-0.23774813
-0.29085302
-0.25024742
-0.23040108
-0.20572235
-0.22298659
-0.25755758
-0.26933535
-0.27160931
-0.24845904
-0.21448963
-0.22647546
-0.24143868
-0.23200038
-0.24214256
-0.26429131
-0.26252959
-0.26502605
-0.26874564
-0.23876674
-0.22240291
-0.23615196
-0.25236039
-0.25620261
-0.18453112
0.097752786
0.062470526
0.032914744
0.05588816
0.051324869
0.045494133
0.057556362
0.089301299
0.052436717
0.078871164
0.036865695
0.068700972
0.09359774
0.074130569
0.067068481
0.031400992
0.063262527
0.080058397
0.083905087
0.079083523
0.072614494
0.12517487
0.12182932
0.088657611
0.076370804
0.05248024
0.093183391
0.08856273
0.06844731
0.044108161
-0.052878153
-0.078029603
-0.088282466
-0.061116855
-0.047210682
-0.11603274
-0.036913585
-0.13230465
-0.058307717
-0.06021387
-0.084293775
-0.083601843
-0.041960637
-0.046299344
-0.083188224
-0.061342073
-0.075017424
-0.054219732
-0.096599009
-0.086624576
-0.060674723
-0.043819383
-0.045059035
-0.068820649
-0.089393058
-0.093229672
-0.072016133
-0.027077898
-0.072599594
-0.068184543
0.0094863766
0.0072072946
0.006048983
-0.0086430778
-0.012990842
0.0098383415
0.019335224
0.028500322
0.0037282814
-0.0024196457
0.0092953381
0.016759476
0.020867941
0.012178653
-0.0018713258
0.0029584722
0.012119158
-0.009168262
0.026577063
0.017868021
0.013453861
0.026421192
0.023396926
0.014472451
0.01175843
-0.011546267
-0.027289184
-0.0041625443
-0.018345705
0.0042888424
0.30340045
0.30042096
0.29471939
0.31655153
0.3170598
0.31861451
0.31934756
0.31817911
0.31544846
0.30537687
0.29816567
0.30436427
0.3051171
0.3146559
0.30042286
0.28725633
0.27532034
0.27653962
0.27813607
0.27995339
0.27974239
0.27961689
0.27972978
0.27671065
0.27716421
0.26731246
0.27493391
0.26788126
0.27231117
0.29600109
-0.27123782
-0.27973279
-0.25501727
-0.21168519
-0.22341
-0.27407597
-0.28942567
-0.25749288
-0.21847337
-0.22558469
-0.25783058
-0.27446171
-0.26441941
-0.20668658
-0.19308333
-0.21963636
-0.2355751
-0.24590044
-0.25912653
-0.25721166
-0.25130836
-0.26185641
-0.26412627
-0.25692108
-0.24532091
-0.24021761
-0.2366743
-0.2374198
-0.24973069
-0.18641384
0.13614593
0.087226202
0.067270916
0.050884914
0.055498365
0.079368965
0.094019839
0.06510229
0.063636742
0.065454601
0.097979841
0.085445306
0.071640784
0.035957472
0.025187992
0.057696717
0.074842554
0.089836347
0.10044299
0.10267374
0.10241125
0.12394939
0.12879995
0.11741015
0.1065886
0.13564776
0.11412238
0.09670531
0.070261487
0.041685054
-0.037847777
-0.056635074
-0.094262376
-0.05523221
-0.064660958
-0.059944151
-0.031438443
-0.12037857
-0.070969302
-0.056814556
-0.064906179
-0.038427639
-0.074594694
-0.072647674
-0.066359633
-0.054386211
-0.066723808
-0.063902491
-0.040237873
-0.032721223
-0.076764985
-0.035775622
-0.050287009
-0.069885634
-0.072698141
-0.050627337
-0.05446344
-0.058575631
-0.078912054
-0.069377471
0.033760305
0.02127369
0.019862944
0.0099676294
0.0037321363
0.017247485
0.038426995
0.021245097
-0.0010747134
-0.0059747493
0.0030104766
0.0093167648
0.013194958
0.0042039749
-0.0054978443
-0.019757247
-0.0022387218
0.0023228635
0.016443577
0.018578171
0.043169232
0.026502316
0.019413035
0.0071487907
-0.0028248308
-0.0150952
-0.031052696
-0.032352449
-0.0093099518
0.013292295
0.3020272
0.29515501
0.29496954
0.29279098
0.31481473
0.31246045
0.3117227
0.31227628
0.30501044
0.29691013
0.2897038
0.29350483
0.29426363
0.29265097
0.26902739
0.27746046
0.28861739
0.28455737
0.28139154
0.27870091
0.29081265
0.26767245
0.28182236
0.27625154
0.27402264
0.27191915
0.29162021
0.29500111
0.29781942
0.29658678
-0.27294487
-0.28984024
-0.24325395
-0.2676981
-0.2231082
-0.26171829
-0.28882602
-0.2867934
-0.23825166
-0.24343662
-0.25263737
-0.26144294
-0.22315538
-0.20588042
-0.23456515
-0.22759889
-0.22083759
-0.22822373
-0.25567518
-0.23222938
-0.2264327
-0.2532069
-0.25384684
-0.24312335
-0.23778509
-0.2399015
-0.19700967
-0.20992926
-0.25833022
-0.26305168
0.11693299
0.07456203
0.06343199
0.0818813
0.046878504
0.055041864
0.07833284
0.10411203
0.035306236
0.064636307
0.092408331
0.087104558
0.058619424
0.035252826
0.051571456
0.11136248
0.050869855
0.1042982
0.069828128
0.088202952
0.028179055
0.08100714
0.089206926
0.11914653
0.10747283
0.076268423
0.042688727
0.057280498
0.081991209
0.09549873
-0.050565384
-0.065721198
-0.097394668
-0.078256728
-0.080290125
-0.12176365
-0.041528617
-0.057411646
-0.090497956
-0.062754526
-0.052413775
-0.060282913
-0.072763726
-0.073838317
-0.078913171
-0.052348215
-0.045851223
-0.12759545
-0.047837816
-0.085019894
-0.060193434
-0.07183084
-0.058085774
-0.06138063
-0.046403099
-0.084824908
-0.09148537
-0.091850173
-0.097874002
-0.067710212
0.018129678
0.0080310488
0.0068939663
-0.011055049
0.0015199549
0.016836407
0.031236883
0.016019714
0.010043396
-0.015354875
-0.0098520362
-0.011539353
-0.0090715185
0.017578471
-0.0089919021
-0.012743216
-0.022596392
0.016521065
0.0017456242
0.025644923
0.026403706
0.016491607
-0.0020403178
-0.0052864872
-0.010617034
-0.027457589
-0.018286524
-0.00060069365
0.020978766
0.017992282
0.30228837
0.29843681
0.30694614
0.31414052
0.30969196
0.31827899
0.29842516
0.30073154
0.29454954
0.28891364
0.28866062
0.28502347
0.27762771
0.27591357
0.27712792
0.27724212
0.27323847
0.27144074
0.27042293
0.28809582
0.29600153
0.27655693
0.27922521
0.2752652
0.27951432
0.29369187
0.30766478
0.29380231
0.29329672
0.29767691
-0.25839004
-0.24159101
-0.20584642
-0.19102497
-0.19376428
-0.21371276
-0.27347878
-0.27558862
-0.25038763
-0.25145152
-0.26646706
-0.26853276
-0.23737821
-0.25122146
-0.24527006
-0.24029899
-0.23704503
-0.23435989
-0.23070128
-0.16665813
-0.1692779
-0.24065591
-0.24714645
-0.22112115
-0.21781672
-0.15834227
-0.16412444
-0.23796898
-0.26864599
-0.25650208
0.077458191
0.036587412
0.056822204
0.050451093
0.071545527
0.037665966
0.056267848
0.087939213
0.096058529
0.083860783
0.10712397
0.11202609
0.086191296
0.10045467
0.10206724
0.12586977
0.11945405
0.10717631
0.058756679
0.035579671
0.035811414
0.070469229
0.066417567
0.11081688
0.060798527
0.044551934
0.052275239
0.067818984
0.088797523
0.13880499
-0.056929604
-0.073721784
-0.053185189
-0.02442659
-0.042970898
-0.077064697
-0.064035763
-0.055374686
-0.075712824
-0.089280441
-0.048320958
-0.042922397
-0.089702464
-0.071830711
-0.060373808
-0.048053324
-0.027533976
-0.04570877
-0.059395252
-0.067778704
-0.056036423
-0.073979776
-0.03566629
-0.061459373
-0.067502618
-0.093090338
-0.083189534
-0.10049348
-0.059494015
-0.034206591
0.0040995362
0.0047101362
-0.016433739
-0.012249435
-0.018034971
-0.0060483985
0.005750181
-0.0086386852
0.013843055
0.022679757
0.015189254
0.010777914
0.035317022
0.029387065
-0.0095439799
-0.001161512
-0.0072087408
-0.011911882
-0.019277601
0.01033164
0.014341087
0.0092161895
0.002997683
-0.0012888316
-0.012096868
0.0081137181
0.019665585
0.022193067
0.028874307
0.043847876
)
;

boundaryField
{
    minX
    {
        type            fixedFluxPressure;
        gradient        uniform 0;
        value           nonuniform List<scalar> 
50
(
0.2894892
-0.26200791
0.12726118
-0.046345505
0.015539848
0.28623692
-0.26470383
0.11453408
-0.064129993
0.0062227221
0.29226961
-0.22638009
0.067888675
-0.072803455
0.0041931861
0.29378626
-0.24412063
0.11649568
-0.035263971
-0.018791557
0.29280445
-0.2583191
0.11278957
-0.057296035
-0.01801169
0.2950243
-0.26892388
0.11642049
-0.058964288
0.002585393
0.29502577
-0.26685767
0.097752786
-0.052878153
0.0094863766
0.30340045
-0.27123782
0.13614593
-0.037847777
0.033760305
0.3020272
-0.27294487
0.11693299
-0.050565384
0.018129678
0.30228837
-0.25839004
0.077458191
-0.056929604
0.0040995362
)
;
    }
    maxX
    {
        type            fixedFluxPressure;
        gradient        uniform 0;
        value           nonuniform List<scalar> 
50
(
0.29894983
-0.26045762
0.085590901
-0.033205029
0.0034857307
0.30184368
-0.26580831
0.073497766
-0.029264975
0.0011139231
0.29714139
-0.26119716
0.090582051
-0.037823068
0.019465708
0.28809797
-0.2553212
0.1096222
-0.029639435
0.023763827
0.28361572
-0.25566323
0.10683959
-0.059164369
0.034728769
0.28861154
-0.20800804
0.035585845
-0.06520119
0.022232651
0.28983889
-0.18453112
0.044108161
-0.068184543
0.0042888424
0.29600109
-0.18641384
0.041685054
-0.069377471
0.013292295
0.29658678
-0.26305168
0.09549873
-0.067710212
0.017992282
0.29767691
-0.25650208
0.13880499
-0.034206591
0.043847876
)
;
    }
    minY
    {
        type            fixedValue;
        value           uniform 0;
    }
    minZ
    {
        type            fixedFluxPressure;
        gradient        uniform 0;
        value           nonuniform List<scalar> 
150
(
0.2894892
-0.26200791
0.12726118
-0.046345505
0.015539848
0.29154002
-0.26946346
0.11566982
-0.046471946
0.015677573
0.28795477
-0.27095945
0.090124503
-0.046536706
0.0076564548
0.28922437
-0.25272935
0.081191122
-0.08626238
0.013843596
0.29672848
-0.2340219
0.070121223
-0.058032886
-0.0074910128
0.30623676
-0.20844636
0.072940343
-0.05438702
-0.01666192
0.30419091
-0.21205091
0.080516907
-0.043434203
0.0043438018
0.3053765
-0.21824196
0.077575537
-0.073985995
-0.012713192
0.30790489
-0.23071975
0.059923839
-0.083636197
0.014311891
0.30134659
-0.26186923
0.088740819
-0.098523026
0.039341541
0.30838395
-0.27839264
0.078079565
-0.022314638
0.044287194
0.30900977
-0.27771206
0.08586896
-0.03272532
0.030008396
0.30702363
-0.22429387
0.022846265
-0.063825181
0.019788044
0.3059021
-0.16167785
0.040695922
-0.052348167
0.015600399
0.27748198
-0.21852857
0.018293924
-0.061316375
-0.013315552
0.25721214
-0.24156232
0.088497977
-0.041638075
-0.013150655
0.27661346
-0.23700956
0.11783861
-0.032800459
-0.0061913748
0.26940522
-0.23278072
0.11254026
-0.077027713
-0.0022103544
0.27738224
-0.23356785
0.10519552
-0.090964458
0.036286162
0.27400268
-0.23576808
0.096674553
-0.062175331
0.010757152
0.26903365
-0.23742431
0.081581979
-0.067705361
0.0050363428
0.27812232
-0.21879231
0.070114759
-0.052883535
-0.0043505668
0.29324742
-0.1762676
0.057369864
-0.056062935
-0.0050082986
0.28568409
-0.21236312
0.087073482
-0.050841573
-0.012923512
0.29132163
-0.19504476
0.069060413
-0.035979767
-0.013060716
0.30102927
-0.18275232
0.066900615
-0.015619001
-0.0099930689
0.29809207
-0.18834924
0.06418994
-0.035439067
-0.015605085
0.30185809
-0.20978201
0.06396438
-0.040312864
-0.018944595
0.29470311
-0.24707682
0.055180629
-0.072991764
-0.0071433994
0.29894983
-0.26045762
0.085590901
-0.033205029
0.0034857307
)
;
    }
    maxZ
    {
        type            fixedFluxPressure;
        gradient        uniform 0;
        value           nonuniform List<scalar> 
150
(
0.30228837
-0.25839004
0.077458191
-0.056929604
0.0040995362
0.29843681
-0.24159101
0.036587412
-0.073721784
0.0047101362
0.30694614
-0.20584642
0.056822204
-0.053185189
-0.016433739
0.31414052
-0.19102497
0.050451093
-0.02442659
-0.012249435
0.30969196
-0.19376428
0.071545527
-0.042970898
-0.018034971
0.31827899
-0.21371276
0.037665966
-0.077064697
-0.0060483985
0.29842516
-0.27347878
0.056267848
-0.064035763
0.005750181
0.30073154
-0.27558862
0.087939213
-0.055374686
-0.0086386852
0.29454954
-0.25038763
0.096058529
-0.075712824
0.013843055
0.28891364
-0.25145152
0.083860783
-0.089280441
0.022679757
0.28866062
-0.26646706
0.10712397
-0.048320958
0.015189254
0.28502347
-0.26853276
0.11202609
-0.042922397
0.010777914
0.27762771
-0.23737821
0.086191296
-0.089702464
0.035317022
0.27591357
-0.25122146
0.10045467
-0.071830711
0.029387065
0.27712792
-0.24527006
0.10206724
-0.060373808
-0.0095439799
0.27724212
-0.24029899
0.12586977
-0.048053324
-0.001161512
0.27323847
-0.23704503
0.11945405
-0.027533976
-0.0072087408
0.27144074
-0.23435989
0.10717631
-0.04570877
-0.011911882
0.27042293
-0.23070128
0.058756679
-0.059395252
-0.019277601
0.28809582
-0.16665813
0.035579671
-0.067778704
0.01033164
0.29600153
-0.1692779
0.035811414
-0.056036423
0.014341087
0.27655693
-0.24065591
0.070469229
-0.073979776
0.0092161895
0.27922521
-0.24714645
0.066417567
-0.03566629
0.002997683
0.2752652
-0.22112115
0.11081688
-0.061459373
-0.0012888316
0.27951432
-0.21781672
0.060798527
-0.067502618
-0.012096868
0.29369187
-0.15834227
0.044551934
-0.093090338
0.0081137181
0.30766478
-0.16412444
0.052275239
-0.083189534
0.019665585
0.29380231
-0.23796898
0.067818984
-0.10049348
0.022193067
0.29329672
-0.26864599
0.088797523
-0.059494015
0.028874307
0.29767691
-0.25650208
0.13880499
-0.034206591
0.043847876
)
;
    }
    bottomWater_to_rightSolid
    {
        type            fixedFluxPressure;
        gradient        uniform 0;
        value           nonuniform List<scalar> 
130
(
-0.0022103544
0.036286162
0.010757152
0.0050363428
-0.0043505668
-0.0050082986
-0.012923512
-0.013060716
-0.0099930689
-0.015605085
-0.018944595
-0.0071433994
0.0034857307
-0.004650276
0.015711585
0.022230895
-0.00010530355
0.027044905
0.018410498
-0.0074152556
-0.006556789
-0.020026398
-0.008618556
0.0042385414
-0.0016774767
0.0011139231
0.014842445
0.028008106
0.029460114
0.026630789
0.031181941
0.025617651
0.021027491
0.012588115
-0.012175851
0.017120014
0.015214545
0.016638331
0.019465708
-0.008750918
0.0088150467
0.012899122
0.013963643
0.019878483
0.03256041
0.032646043
0.0063795005
-0.0064984335
0.015764822
0.011239642
0.015031804
0.023763827
-0.0019630687
-0.009288315
-0.0046725176
0.00056132224
0.0081485948
0.017167184
0.022424084
0.00029089076
-0.0054835961
0.0124055
0.020355023
0.014053736
0.034728769
-0.0083472947
-0.01924878
-0.0075386798
0.012883236
0.014651832
0.014423143
0.015205912
0.0048929783
-0.01733128
-0.010069623
-0.00231633
0.00053614462
0.022232651
-0.009168262
0.026577063
0.017868021
0.013453861
0.026421192
0.023396926
0.014472451
0.01175843
-0.011546267
-0.027289184
-0.0041625443
-0.018345705
0.0042888424
0.0023228635
0.016443577
0.018578171
0.043169232
0.026502316
0.019413035
0.0071487907
-0.0028248308
-0.0150952
-0.031052696
-0.032352449
-0.0093099518
0.013292295
0.016521065
0.0017456242
0.025644923
0.026403706
0.016491607
-0.0020403178
-0.0052864872
-0.010617034
-0.027457589
-0.018286524
-0.00060069365
0.020978766
0.017992282
-0.011911882
-0.019277601
0.01033164
0.014341087
0.0092161895
0.002997683
-0.0012888316
-0.012096868
0.0081137181
0.019665585
0.022193067
0.028874307
0.043847876
)
;
    }
    bottomWater_to_leftSolid
    {
        type            fixedFluxPressure;
        gradient        uniform 0;
        value           nonuniform List<scalar> 
130
(
0.015539848
0.015677573
0.0076564548
0.013843596
-0.0074910128
-0.01666192
0.0043438018
-0.012713192
0.014311891
0.039341541
0.044287194
0.030008396
0.019788044
0.0062227221
0.023558766
0.011988039
-0.0088245731
-0.0067819993
0.013023663
0.016792018
-0.0012323196
-0.0031193593
0.0096704928
0.031741013
0.01803277
0.031019918
0.0041931861
-0.0034781428
-0.006418176
0.030182396
0.024387625
0.019446869
0.036288211
0.012248499
0.030662407
-0.0075940364
0.0020291292
0.0015103335
-0.0094676024
-0.018791557
-0.022868003
-0.026669045
0.013821207
0.015928096
0.021943162
0.041793996
0.027803649
0.0090161501
-0.011321882
-0.0021338504
-0.002986413
0.014818337
-0.01801169
-0.028097809
-0.022216497
0.0023087374
0.0023554459
0.01371174
0.019437523
0.018652776
-0.0041225441
-0.0097075417
-0.00026666731
0.012413383
0.020282162
0.002585393
-0.0043901526
0.0049380017
-0.0050136058
-0.0139778
0.0051146888
0.019898927
0.021500531
0.0017023018
0.0089986439
0.023231751
0.023198961
0.036518561
0.0094863766
0.0072072946
0.006048983
-0.0086430778
-0.012990842
0.0098383415
0.019335224
0.028500322
0.0037282814
-0.0024196457
0.0092953381
0.016759476
0.020867941
0.033760305
0.02127369
0.019862944
0.0099676294
0.0037321363
0.017247485
0.038426995
0.021245097
-0.0010747134
-0.0059747493
0.0030104766
0.0093167648
0.013194958
0.018129678
0.0080310488
0.0068939663
-0.011055049
0.0015199549
0.016836407
0.031236883
0.016019714
0.010043396
-0.015354875
-0.0098520362
-0.011539353
-0.0090715185
0.0040995362
0.0047101362
-0.016433739
-0.012249435
-0.018034971
-0.0060483985
0.005750181
-0.0086386852
0.013843055
0.022679757
0.015189254
0.010777914
0.035317022
)
;
    }
    bottomWater_to_heater
    {
        type            fixedFluxPressure;
        gradient        uniform 0;
        value           nonuniform List<scalar> 
92
(
0.015600399
-0.013315552
-0.013150655
-0.0061913748
0.018352363
-0.0030118124
-0.0098305797
-0.0011672966
-0.013861216
-0.0086708342
-0.015482481
-0.0077767174
0.2898863
0.29537355
0.28928428
0.27247442
-0.25455457
-0.2224208
-0.21061131
-0.22829946
0.068279286
0.065627963
0.062189102
0.098101403
-0.031357341
-0.083182504
-0.031885344
-0.048997234
0.0024770044
0.0024770044
0.011867583
0.011867583
-0.015294867
-0.015294867
-0.0083782123
-0.0083782123
0.31191394
0.29148079
-0.27161279
-0.17573583
0.082612638
0.074662861
-0.043227422
-0.022425474
0.020282162
-0.0019630687
0.30561789
0.31251399
0.30191462
0.30774722
0.29531533
0.26278372
-0.27659265
-0.27160931
-0.24845904
-0.21448963
-0.18441914
-0.22647546
0.14508737
0.074130569
0.067068481
0.031400992
0.059970152
0.063262527
-0.041021422
-0.046299344
-0.083188224
-0.061342073
-0.0232059
-0.075017424
0.036518561
0.012178653
-0.0018713258
0.0029584722
-0.0083472947
0.012119158
0.012178653
-0.0018713258
0.0029584722
0.012119158
0.0042039749
-0.0054978443
-0.019757247
-0.0022387218
0.017578471
-0.0089919021
-0.012743216
-0.022596392
0.029387065
-0.0095439799
-0.001161512
-0.0072087408
)
;
    }
}


// ************************************************************************* //
