/*--------------------------------*- C++ -*----------------------------------*\
| =========                 |                                                 |
| \\      /  F ield         | OpenFOAM: The Open Source CFD Toolbox           |
|  \\    /   O peration     | Version:  v2012                                 |
|   \\  /    A nd           | Website:  www.openfoam.com                      |
|    \\/     M anipulation  |                                                 |
\*---------------------------------------------------------------------------*/
FoamFile
{
    version     2.0;
    format      ascii;
    class       surfaceScalarField;
    location    "360/bottomWater";
    object      phi;
}
// * * * * * * * * * * * * * * * * * * * * * * * * * * * * * * * * * * * * * //

dimensions      [1 0 -1 0 0 0 0];
oriented        oriented;


internalField   nonuniform List<scalar> 
3858
(
-9.6803257e-05
0.00014595591
-4.84612e-05
-0.00017663941
0.00015367156
-7.3453526e-05
-0.0002869539
0.00017088314
-5.9209741e-05
-0.00035373279
0.00011450999
-4.6569115e-05
-0.0002881216
-9.369212e-05
2.7507809e-05
-0.00013306328
-0.00023079162
7.2971319e-05
-5.0516714e-05
-0.00013240478
4.7240683e-05
5.4301687e-05
-0.00017633531
6.8616592e-05
0.00015712809
-0.00013302457
2.6740167e-05
9.0903626e-05
8.2794033e-05
-1.8554387e-05
-1.7994024e-05
0.00013081544
-2.558108e-05
-0.00013853388
3.9391337e-05
7.7349527e-05
-0.00012333791
-0.00014809286
0.0001297905
0.00014370588
-0.00040194704
0.00013228451
0.00029646678
-0.00022294336
7.3954559e-05
0.00017381664
0.00016547037
-3.450037e-05
0.00010450793
0.00012833271
-5.5276047e-05
1.5758741e-05
0.00012635227
-3.2358379e-05
-6.7306478e-05
0.0001068214
-2.0387948e-05
-0.00020073922
0.00015546613
-1.7708618e-05
-0.00032873374
0.00012816103
5.4635645e-06
-0.00025853552
-0.00013448327
6.7953307e-05
-0.00012068611
-0.00024290317
0.0001052408
-0.0001603026
-5.7978969e-05
9.9259355e-05
-0.00011823005
-0.00012972724
8.8082742e-05
7.117204e-05
-0.00027227633
8.1134094e-05
0.00020030931
-0.00018630318
5.606924e-05
0.00029518674
-0.00014727564
5.0601646e-05
0.00018485765
5.3545226e-05
5.6523193e-05
0.00013011617
5.3342341e-05
-0.00010307542
0.00039513093
-0.00014609959
-0.00025915361
0.00047300604
-0.00016325627
-0.00041058061
0.00045121646
-0.00012890632
-0.00030314627
-2.9717941e-05
3.679359e-05
-0.00016663862
-0.00036330402
0.00013310425
-3.7955352e-05
-0.0005396631
0.00018018821
7.7353841e-05
-0.00035962118
0.0001119072
0.00014197738
-0.0004519579
0.00021099904
0.00027821544
-0.0004009836
0.00013172096
0.00035121726
6.2713508e-05
-5.2921312e-05
-0.00013324424
0.00079845747
-0.00018318055
-0.00053728344
0.00055673677
-0.00011330625
-0.00039507648
-0.000345399
5.5099158e-05
-0.00017016779
-0.0007309401
0.00010408437
8.5153309e-05
-0.00057706458
9.8800119e-05
0.00021653107
2.1413481e-05
1.2679127e-05
0.0001019578
0.00026096844
-1.8062457e-05
0.00015065262
6.3941195e-05
1.3716254e-05
0.00011299069
0.00011410149
3.0381846e-05
-0.00015460703
0.00028835011
0.00013471374
-0.0002460339
6.4667194e-05
0.00015492071
-0.00011020685
-0.00041054039
0.00014023007
2.0499983e-06
-0.00050850473
0.00015334472
-7.3398141e-05
-0.00020704102
0.00022451019
-6.1941769e-05
-0.00031956708
0.00017838347
0.0001178062
-0.00055623233
0.00010420803
0.00029247315
-0.00040821016
4.7240015e-05
0.00049026111
-0.00038867404
4.3610439e-05
0.00048961138
-2.9517026e-05
8.3711983e-05
0.00051671168
0.00010301587
3.3287747e-05
0.00034534876
1.6494438e-05
-3.8044946e-05
0.00042156845
0.0001227703
2.3465766e-05
0.00035827834
3.1427415e-05
0.00018390963
-9.7117797e-05
-9.3044006e-05
9.7412571e-05
-0.00027789128
1.0843145e-06
4.3965185e-06
-0.00042195923
-2.4687829e-05
3.6061626e-05
-0.00038531883
-5.9674744e-06
8.8688107e-06
-0.00042689036
2.1252563e-06
-0.00018574146
-0.00017612222
-3.0251135e-05
1.0245835e-05
-3.2314067e-05
-0.00010095975
2.605356e-05
0.00073390972
4.8740002e-05
0.00011898542
0.0004958038
-3.1998924e-05
4.4950074e-05
-9.0600151e-05
-0.00018076351
-0.00039050963
-8.8395678e-05
-0.00020708474
-0.00065022622
-0.00012948776
-0.00018786023
-0.00035578132
-0.00022973916
-4.3292263e-05
7.1318365e-05
-0.00016089892
-5.232314e-06
0.00027290263
-0.00014337316
5.7300929e-06
0.00026836415
-2.0789402e-05
0.00013942938
0.00028419791
0.00015790013
0.00011461623
0.00029906001
-5.4734487e-05
0.00010453958
0.00021877428
-0.00024942623
-8.0828419e-05
-4.0627905e-05
-0.00018105869
-6.8043849e-05
-4.6767112e-06
-0.00026387954
2.0887338e-05
7.8183219e-05
-0.00040177845
-6.4856091e-07
6.7347953e-05
-0.0004793144
-6.6082667e-05
5.4834457e-05
-0.00040665512
1.0958454e-05
-6.6131202e-05
-0.00035263245
8.4924069e-05
-1.692655e-05
-0.00021302214
0.00013430046
0.00037036055
0.00012942458
4.1308875e-05
0.00019064769
0.00011339222
9.5698863e-05
0.00019749137
0.00016968711
0.00022060114
0.0001594727
7.3903376e-05
9.5398623e-05
0.00012763486
-9.9550138e-05
-5.4930158e-06
-0.0002230342
4.6034548e-05
-2.808591e-05
-0.00042303965
2.3673295e-05
-1.5572771e-05
-0.00035671425
-4.1117737e-05
7.4479175e-05
-0.00045856634
-5.8375983e-05
-4.2099185e-05
1.3116999e-05
-7.2660886e-05
-0.00025673029
0.00035841976
-0.00017610276
-3.260674e-05
0.00040327624
0.00010650988
0.00013442649
0.00029766778
3.1102768e-05
5.1477219e-05
6.2181771e-05
-6.9832681e-05
-9.5559926e-05
0.00012074612
-6.2104669e-05
-9.6441917e-05
-5.7837909e-05
-7.0767868e-05
1.0898774e-05
-0.00030923538
-2.7844472e-05
0.00026694985
-0.00040989451
-7.0554895e-06
0.00024885844
-6.1756654e-05
-6.3525087e-05
-3.5038918e-05
0.00034295399
-7.984603e-05
-8.0908182e-06
8.5144887e-05
4.5807148e-05
8.3783079e-05
-0.00011738046
-2.9227921e-05
0.00011524112
-0.00023729254
-4.3591735e-05
5.485278e-05
-0.00011785279
-2.8175509e-06
-7.71503e-06
-0.00019899619
-2.3155436e-06
6.6074856e-06
-0.00036608335
-5.0017611e-05
4.7160001e-05
-0.00043741221
-8.2454704e-05
6.6279894e-05
-0.00038330738
-4.2467625e-05
1.6384419e-06
-0.00027276383
-1.5227168e-05
-0.00012816174
-9.4415415e-05
1.1193453e-05
0.00017637485
6.5823951e-05
5.7544644e-05
0.00013310307
0.00012810735
0.00012692869
0.00018332697
0.00010425307
0.00032519106
-1.4229227e-05
0.00020253002
-0.00010037316
-5.2584999e-05
-0.00016792464
-0.00020096765
-0.00020833162
-0.00048407349
-0.00017546052
-0.00050871809
3.7761571e-05
-0.000263817
0.00011351865
-1.4477865e-06
0.00014090701
0.00018697952
0.00010924044
0.00026516092
-1.5999636e-05
0.00040794906
-2.2042033e-05
0.0003817322
-3.1621046e-05
7.5447789e-05
-2.9509703e-06
-0.00029037001
-4.40767e-05
-0.00029105079
-6.107587e-05
8.0930885e-05
-2.9027678e-05
0.00021607804
-5.000226e-05
0.00021280455
-0.00011410696
0.00019802635
-0.00022251433
0.0002864263
-0.00020625274
0.00028156696
-0.00019413684
0.00013102696
-0.00021554335
-9.8207321e-05
-0.00020817793
-0.00022461517
-0.00025689953
-0.00028880029
-0.00020857872
-0.0002338446
-0.00014937111
-5.7469747e-05
-9.6792552e-05
0.00014233397
-9.2503467e-05
-0.00013818658
6.0231423e-05
-9.0932146e-05
-0.00023149291
0.00012434192
-8.8383267e-05
-0.00028836324
0.0001500321
-0.00013970597
-0.00031559787
0.00013515567
-8.1651383e-05
-0.00019867742
-3.3608319e-05
-1.3363676e-05
6.0584439e-05
-0.00022952555
1.1527505e-05
0.00012937476
2.9137669e-05
-3.284048e-05
0.00010616437
0.00012623602
-7.9617313e-05
7.7891417e-05
0.00011852819
-0.00011060794
0.00013465075
4.8844259e-05
-0.00013308683
0.0001501949
0.00012296676
-6.2294337e-05
0.00013774372
0.00010530876
3.7677439e-05
0.0002598259
-6.058954e-05
7.2329148e-05
0.00019721791
0.00016745451
-2.4733696e-05
9.8177932e-05
0.00017838721
-0.00010850426
4.3300554e-05
0.00015243478
-0.00014882258
-3.3483059e-05
0.00017523642
-0.00012612822
-0.00010416691
0.00018347238
-0.0001278898
-0.0001733126
0.0001689853
-0.00011397795
-0.00025723892
0.00015117654
-5.8732834e-05
-0.00024494669
3.4330244e-05
2.4150883e-05
-9.8173989e-05
-0.00011599633
7.4344718e-05
-0.00013535228
0.00012115627
1.634254e-05
-0.00016650746
0.00012915154
-9.4466174e-06
-0.00015053049
7.4899242e-05
-9.7650375e-06
4.5283211e-07
-0.00013451445
3.8831074e-05
0.00025346423
-0.00033578262
0.00012952024
0.00019977837
-3.1049166e-05
0.000140331
0.00013024221
0.00012093054
-0.00012258563
0.00026591405
-0.00014709403
-5.9279744e-05
-8.195728e-05
-8.4373439e-05
-5.2702422e-05
9.1084852e-05
-0.00010222656
-0.00020651164
0.00046237739
-0.00012174248
-0.00024384457
0.00031766472
-1.2071874e-05
-9.8191497e-05
-0.00018116748
0.0001820943
0.00022523229
-0.0005834084
0.00014236627
0.0002931545
9.3921566e-05
7.829292e-05
-2.3412972e-05
0.00057674035
-2.2159121e-06
-5.6241702e-05
0.00024414612
-0.00014571053
7.8193829e-05
-3.9314523e-05
-0.00022945731
-0.00017700112
0.00042315121
-0.00015829577
-0.00023950681
0.00020019491
2.2718696e-05
-1.4068924e-05
-0.00025375993
7.1816865e-05
8.4660743e-05
0.00011296567
5.4559289e-05
2.9668704e-05
0.00038557119
-0.00013951281
-0.00010805223
0.00050738646
-0.0002352932
-0.00012401805
0.00043089503
-0.00022597653
-4.1976496e-05
0.00012696192
4.850753e-06
-0.00021958654
0.00048196584
-6.5675312e-07
-0.0003160556
0.00035577241
4.6793905e-05
-0.00017559064
-0.00010815229
0.00014224764
5.3731764e-05
-0.000334486
0.00014251199
-0.00011711702
0.00043610612
8.0409131e-05
-0.00035710801
0.00053255518
1.4970824e-05
-0.00026118173
8.6943684e-05
-3.7626877e-06
3.5178347e-05
-0.00037446059
-9.1739182e-06
0.00035999584
-0.00070145771
8.4468034e-05
0.00043331584
-0.00016079089
0.0001401337
0.00053891126
0.00012766266
3.8796661e-05
0.00019021364
5.3398207e-05
-0.00011849718
-6.4306236e-05
0.00026241311
-9.4724775e-05
-9.7947891e-05
0.00019668776
0.00013080291
-2.6154558e-05
0.00016996026
0.00026834775
8.6418045e-05
9.4786143e-05
0.00013299136
-8.7167307e-05
1.6668375e-05
-0.00030673413
-0.00012265029
-2.7000121e-05
-0.00011348415
-0.00012937463
3.2171455e-05
8.0926429e-06
0.00021940626
0.00020550614
-1.5154155e-06
9.8467537e-05
5.4326864e-05
3.0540903e-06
-0.00011855727
0.00012341321
2.4477609e-05
0.00031284784
5.6880899e-05
-3.8444898e-06
8.7012182e-05
-3.9258703e-05
-0.00025617564
-7.1545128e-05
-0.0001369684
-0.00024848319
4.4265455e-05
-0.00012685246
-0.00010576248
0.00020171491
-2.1566994e-06
3.2499128e-05
0.00036746859
-3.5760489e-06
5.8773906e-05
0.00033702691
7.3323431e-05
2.3065808e-05
2.2502877e-05
0.00027959653
-1.5700429e-05
0.00038760807
0.00024774023
0.00012154315
0.0002421291
8.0939315e-05
7.7483976e-05
-7.1672797e-05
-7.3248732e-05
-0.00016776246
-7.0072292e-05
-8.7211121e-05
-0.00013283386
0.00032032978
0.00010173509
-3.4987709e-06
0.00029830946
0.00010426207
0.00035069327
-0.00032810432
-5.2266978e-06
0.00020352392
-0.00016389482
-5.2437977e-05
-0.00023038325
-0.00011297847
-6.9648004e-05
-0.00016606937
-0.00010035196
9.5476604e-06
0.00040891605
9.3350421e-05
0.00023932737
1.6276646e-05
4.8001867e-05
-0.00013474518
0.00037786012
0.00010159332
-0.00021305707
-3.410088e-05
8.8368266e-05
8.348239e-05
-0.00045170305
2.9458894e-05
0.0002701371
-0.00011272206
5.8519929e-05
-1.0532931e-05
0.0002020872
1.5088807e-05
-0.00029637323
0.00019408183
-7.2009581e-05
-0.00029667608
-0.00017004735
-1.740044e-05
8.0643888e-05
-0.00034429522
0.0001137206
2.8189662e-05
6.4768426e-05
-8.9949454e-05
-0.00029755867
0.00028394779
2.9753116e-05
-0.00013289197
0.00017479579
4.488104e-06
-0.00019038759
0.00021577001
-0.00014109492
-0.00035399076
0.00023392998
-0.00020397661
-0.00037979119
8.8998457e-05
-8.9700447e-05
-0.00011857766
-0.00012507347
3.7730382e-05
0.00022724498
-0.00010799778
0.00012258824
0.0003378612
3.9961448e-05
0.00012292417
3.2470612e-05
0.00020505654
4.2990896e-05
7.0966817e-05
0.00020232679
0.00019259223
0.00023965618
1.1205882e-05
3.3005942e-05
-3.0671048e-05
0.00021007743
-5.5014736e-05
-0.00027601331
0.00022776569
-5.5313261e-05
-0.00019274285
0.0001121958
0.00012254798
5.8548393e-05
-8.1198645e-05
7.8199258e-05
0.00014891392
-0.00038572893
-0.00011519562
5.5379274e-05
-3.7436622e-05
-7.5391179e-05
-0.00020056396
0.0001742788
-4.6541215e-05
-0.00031862941
2.4915685e-05
3.99126e-06
5.8011785e-05
9.8098801e-05
-5.1171044e-05
0.00020055078
0.0002090225
0.00024459528
0.00014495258
0.00013422213
-0.00020645874
-0.00011452096
-0.00024123612
-0.00017831785
-8.4828585e-05
-0.00012224499
8.0634156e-05
-0.00017971254
-8.3899591e-05
-0.00018097414
-0.00038752974
-2.9035229e-06
-0.00034674482
0.00013750212
-0.0001532283
0.00023133826
-6.5761912e-05
0.00019656982
7.2887117e-05
6.1121329e-05
0.00021893421
6.5840837e-05
0.00026712785
9.1837745e-06
7.4945601e-05
6.4157806e-05
-0.00014305152
6.5922638e-05
-0.00019712494
3.2959006e-05
-7.3387147e-05
5.229107e-05
2.0341853e-05
5.8595536e-05
-1.5545962e-06
-8.1004627e-05
8.4944418e-05
-9.893591e-05
0.00023125515
-0.00012479778
0.00029333937
-0.00014402525
0.00017439085
-0.00017779348
-0.00020231597
-0.00021720003
-0.00024714741
-0.00024950472
-0.00011534194
-0.00016610538
-8.2578542e-05
-0.00015721883
-8.2036504e-05
-0.00014689492
3.2843295e-05
2.1598994e-05
1.9615373e-05
-0.00032070079
6.0997058e-05
0.00010514959
-0.00021187762
3.7027831e-05
4.754313e-05
2.8576852e-05
-0.00011155329
-6.380914e-05
0.00012701853
-9.8632387e-05
-0.00012832057
0.00012870183
-7.9628786e-05
-0.00014425262
8.9632023e-05
-6.499867e-05
-0.00020818302
0.00015332264
-0.00012386921
-0.00019150901
4.8946407e-05
-0.00014769646
-6.2243779e-05
-0.00015176443
-9.1321073e-05
0.00015880669
-0.00026805167
-9.0022084e-05
0.00033646355
-0.00017739174
-6.5176878e-05
0.00031339077
0.00013262228
-7.0385397e-05
0.00026710584
0.00017956028
-5.9705836e-05
0.00021962953
0.00015243337
-0.00012788869
0.00013226965
0.00010813093
-0.00012467038
-2.4316106e-05
0.00013028542
-0.0001199125
-9.0432337e-05
0.00014739945
-0.00020103162
0.00015219623
-0.00032210757
-4.8857126e-05
0.00014645835
-1.4763408e-05
-9.1699858e-05
1.4021908e-05
0.0001110689
-3.7142783e-05
-9.9084699e-05
0.00011699064
2.0127242e-05
-0.00013823452
0.00012051141
-6.8721086e-06
-0.00018914383
0.0001129441
-4.4980384e-05
-0.0001595755
4.94694e-05
-8.8576393e-05
4.2455123e-05
-0.00019966066
-1.4457288e-05
0.00024319372
-0.00025863728
9.4091649e-05
0.00033522871
-0.00014023526
0.00017629458
0.0002024989
9.9170583e-05
0.00017518486
0.00014945258
0.00017322086
-0.00014910012
-5.6186077e-05
9.1035478e-05
1.1231092e-06
-0.00068446438
0.00012916693
0.00015221114
-0.00055283929
8.7647083e-05
0.00024211094
-8.188632e-05
-0.0001011791
0.00031085635
0.00012240622
-7.6204974e-05
6.2596551e-05
0.00050604282
5.3013102e-05
-0.0002966994
0.00057263751
1.8656724e-05
-0.000500259
0.00055755372
-0.00012237856
-0.00037247506
6.0291385e-05
-0.00014134485
-0.00013447393
-0.00043485083
-0.00010062526
3.6247508e-05
-0.00059467131
-7.3559131e-05
0.00026831084
-0.00050877351
-5.8977347e-05
0.00041181133
5.0561564e-05
-3.8721082e-05
0.00016371239
0.00055201109
-5.2535004e-05
-0.00011498703
0.00057930822
-9.3616129e-05
-0.0001403446
0.00012503393
-0.00013105823
-0.00020577795
0.00016963557
-0.00020920999
-2.9605215e-05
1.2538619e-05
-0.00026728843
0.00040836433
-0.0007653463
1.0119934e-05
0.0004730908
-2.7548395e-05
-5.259823e-05
0.00016629596
0.00053370067
-6.9043027e-05
-0.0001946454
0.00060308157
1.7098078e-05
-0.00034725795
0.00040380418
1.1831774e-05
-0.00040161156
0.00034374825
-9.6041406e-05
-0.00026847746
5.1368257e-05
-0.00012006213
6.3032437e-05
-0.00045443882
-8.0494426e-05
0.00028506046
-0.0005672199
7.7380675e-05
0.00045734423
-0.00038015491
0.0001521039
0.00043842455
9.4060531e-05
0.00016416343
0.00059162071
0.00012391907
9.3910868e-05
-0.00010201142
5.3126954e-06
-0.00011298618
-0.00031195803
9.6803829e-05
-0.00023750584
-0.00033938721
0.00010775535
-0.00027372798
-5.4543099e-05
0.00017883918
-0.00012409343
-2.3418962e-06
6.9899698e-05
-3.2155372e-05
0.00038569674
4.5076385e-05
-7.404266e-05
0.00057303062
1.4494037e-05
1.6600961e-05
0.00049159528
7.4862505e-06
0.00014193618
-2.5414968e-05
0.00016587725
7.1207516e-05
-0.00035241955
4.2624226e-05
-4.3525309e-05
-0.00034774518
-8.7801098e-06
-0.00030609197
-0.00013727546
-5.205051e-05
-0.0001314563
-4.9189183e-05
-0.00011414363
-6.8283434e-05
0.00042299516
-7.1125349e-05
-6.8864286e-05
0.00039272153
6.0315081e-05
0.00015597625
-0.00019255854
9.0595237e-05
0.00031886638
-3.2813628e-05
3.5983017e-05
0.00040002994
-6.6453669e-05
7.1152153e-05
-8.0033594e-05
-0.00011927762
0.00011359139
-0.00013765194
-1.753971e-05
0.00029534989
-0.0001051331
0.00043831393
0.00014380722
-0.00018292991
0.00053306131
7.4568344e-05
-0.00013260113
0.00027516874
-8.9044597e-06
6.6767446e-05
0.00019507465
5.104012e-05
0.00026927161
-0.00011657266
6.9698823e-05
0.0002416592
-0.00035494085
-7.7112254e-05
-5.9078447e-05
-0.00010713175
-0.00021178848
-0.00024795011
-9.4801207e-05
-0.00016613005
-8.3940663e-05
-7.480995e-06
-5.2920261e-05
0.00052253213
7.8498343e-05
-8.3033146e-05
6.3761555e-06
2.2647469e-05
-0.0001224846
-0.0002337161
6.2802869e-05
-0.00012832652
-0.00032934745
8.4170437e-05
-0.00031489103
0.00019114698
-2.966668e-05
-0.0004355272
0.00020333841
-2.6524204e-05
-0.00018571919
0.0001744844
-2.3506878e-05
1.3926119e-05
0.00034894844
-4.7572734e-05
0.00011482561
0.00025667074
0.00011662458
3.4267607e-06
0.00017689363
2.2810827e-05
-0.00016212847
-0.00029645751
1.9643701e-05
-0.00018404908
-0.00027536538
-2.0706107e-05
-0.00031293187
-1.4000798e-05
1.0096203e-05
-0.00036621298
-1.7900815e-05
-0.00011910219
-6.1147938e-05
-1.7594918e-05
-6.8451584e-05
0.0001677843
-9.0139997e-05
0.00016422884
0.0002789838
-0.00029588934
2.9861674e-05
0.0002896156
-1.886605e-05
9.8008869e-05
0.0001237898
0.00023939244
-1.7096129e-05
-0.00015116111
0.00014499821
5.3665973e-05
-0.00027755912
0.00017153346
0.00012991707
-0.00014764386
0.00021469506
0.00012670955
-1.7217708e-05
0.00030669208
4.0928347e-05
8.1892249e-05
0.00019399852
-7.3252981e-05
6.4584378e-05
0.00023327701
0.00010165349
3.6365732e-05
-3.6923029e-06
-6.4624481e-06
1.1687592e-06
-0.00034610811
-8.8831385e-05
-9.6042882e-05
9.5011378e-05
-0.00018032267
-0.00019298588
9.5730578e-05
-0.00014013001
-0.00024771863
0.00012159594
-7.0352924e-05
0.00026939251
0.00010351978
-4.7368161e-05
0.00025429511
-0.00021861403
0.00018212506
-0.00044816587
3.4426528e-05
-0.0003366701
-3.4869755e-05
-0.00027262654
-3.9023004e-05
-0.00016384842
-5.653872e-05
7.1135523e-05
-6.574806e-05
0.00017485189
-2.8019774e-05
0.00030642166
4.24203e-05
6.1370572e-05
8.6095684e-05
-8.4481628e-05
0.00010182506
5.5349687e-05
4.2737688e-05
0.00016495942
-6.6389236e-05
0.00018560815
2.7597189e-05
8.4587633e-05
2.006429e-05
-0.00022571029
7.8566389e-05
-0.00032692565
0.00014827195
-0.00023999983
0.00018542563
-0.00021081372
0.00016810317
-0.00014917009
0.00016848537
-0.00010745333
9.1973675e-05
4.6088936e-05
5.4213917e-05
0.00019242027
-7.7130589e-05
0.00034191775
-6.0245716e-05
0.00022552668
-6.5094715e-05
-0.00019675035
-0.00014103111
-0.00021048751
-0.00014075618
-0.00018300056
-9.7861757e-05
-0.00017883029
-3.9793164e-05
8.5257201e-06
-0.00017071283
8.62549e-05
0.00010583946
-3.3819271e-05
-0.00026977309
0.00018938284
2.2355355e-05
-0.00016537219
0.00014422464
0.0001834067
-0.00032321869
4.4088633e-05
0.00019076334
-0.00011100556
-9.238548e-07
5.6374649e-05
8.5437375e-05
-3.6587186e-05
-9.3130472e-05
0.00011502725
-3.7466675e-05
-0.00020285057
4.4272997e-05
-6.3032687e-05
-6.503243e-05
-0.00022352925
-6.9545901e-05
6.2032542e-05
-0.00021832557
-3.0254061e-06
0.00024810482
-0.00029711776
1.6698517e-05
0.00035788353
-0.00019082186
1.4548969e-05
0.00025656447
9.7500246e-05
-6.4809486e-05
3.851563e-05
0.00015911251
-2.9731959e-05
-6.0341776e-05
8.1180627e-05
-0.00023471352
-4.4091935e-05
9.8833835e-06
-0.0001059892
2.0412995e-05
-0.00015652904
0.00017171498
-0.00037421738
4.5027216e-05
0.0003535364
-0.00027195835
-2.1305318e-06
0.00025903189
6.8154581e-05
-7.9624453e-06
0.00010826924
0.00015996944
1.2800356e-05
-2.7444755e-05
0.00015374611
-2.525746e-05
-8.1240681e-05
7.3178599e-05
-6.2940051e-05
0.00013599838
-0.00023077917
-7.5788442e-05
0.00029413649
-0.00018339863
1.2112858e-05
0.00027744351
6.9682902e-05
4.4921577e-05
0.00021495013
0.00015566946
8.723752e-05
8.8416262e-05
0.00017373796
0.00013096763
0.00014537727
0.00011745572
-0.00013385605
8.0314911e-05
0.00023083153
6.9408065e-05
-0.00060577046
0.00026190019
0.00015859899
-0.00039484736
0.00022793133
0.00036029178
-0.00070253688
7.6446308e-05
0.00047656151
-0.00032571596
2.2235704e-05
5.4807529e-05
0.00055770443
2.5000243e-06
-0.00051725191
0.00081522354
-0.00010948014
-0.0004987422
1.5561656e-05
-0.00011217693
-0.00023784156
-0.0005585704
-6.7204362e-05
-4.6705767e-05
-0.00047670026
-3.3386378e-05
0.00016510096
-0.00060799966
2.5516024e-05
0.00033181146
-0.0004948203
7.8310589e-05
0.0001774622
0.0001146338
9.8494612e-05
-0.00026073765
0.00054477736
-0.00025451865
-0.00016017691
-1.3971679e-05
-0.00060631871
-0.00010204078
-0.0001112575
-0.00010182369
-5.2188593e-05
-0.00019490394
0.00020513429
-0.00070457807
3.3522641e-05
0.00044622019
-0.00057711232
1.1469835e-05
0.00049258203
3.023636e-05
-7.7486641e-05
0.00019054033
0.00052627392
-4.7164697e-05
-0.00028507743
0.00072625947
-8.506381e-05
-0.00025238177
6.6796423e-05
-0.00012235489
3.9904305e-05
-0.00058542412
-5.7703252e-05
0.00031811585
-0.00049815034
-4.3954267e-05
0.00045576223
-5.1080218e-05
6.0497422e-05
0.00042085154
0.00024766114
9.5022911e-05
0.00025134116
0.00040461827
0.0001027935
0.00056165229
-4.1014789e-05
0.00030563941
-0.00031213505
9.2123261e-05
0.00023688739
-0.00045066311
1.0448513e-05
0.0002161397
-0.00028122504
1.4880728e-05
-0.00013538836
-9.1085216e-05
-8.1084429e-05
-0.00015158493
-8.1383467e-05
-0.00015823623
-3.7162263e-05
0.00050585296
-1.7494822e-05
6.8301818e-05
0.00079708404
-7.2830559e-05
0.00019419376
-3.9062317e-05
-6.3781736e-05
-1.6429682e-05
-0.00016024903
-2.1820701e-05
-6.5089552e-06
-0.000387779
-5.6217784e-05
-4.2016871e-05
-0.0005245825
-5.6689367e-05
-0.00010076915
-0.00028849907
-0.00019961948
-6.4837206e-05
4.1311602e-05
-7.6753395e-05
-1.3326417e-05
0.00042214122
-1.1297014e-05
-0.00010189123
-6.2653764e-05
-0.00046436672
0.00026088987
-0.00039881812
0.00043970161
-0.00017993307
2.008489e-05
2.5876763e-05
-9.6114468e-05
-8.1047363e-05
-0.00026796801
-8.3082651e-05
9.5165008e-05
-0.00011245323
-4.4048057e-05
6.2576861e-05
5.0292689e-06
0.00045836935
2.499041e-05
0.0001070099
0.00068678564
-7.1411259e-05
0.00027083456
-9.5969433e-06
-3.6391165e-05
5.7555988e-05
-0.00030334939
9.0267592e-07
-6.0541387e-05
-0.00030231273
-0.00015485249
-1.7856925e-05
-9.2525669e-05
-0.00021302749
3.8933564e-05
0.00014119805
-0.00011645745
4.3318846e-05
0.00030438387
4.2928852e-05
0.00049896721
0.00018450226
-1.0339709e-05
-0.00040522423
0.00012607639
6.612433e-07
-0.00043370012
3.4838944e-05
-2.5857307e-07
-0.00023744804
4.1313264e-05
-0.00017835139
0.00021964801
-0.0001623071
-0.00033117522
0.00016951427
-0.0001245981
-8.9342635e-05
0.0002463762
-5.8627268e-06
0.00025144033
0.00046992234
-6.1194018e-05
1.9246062e-05
0.00028470722
2.5049282e-05
-0.000105272
9.0240073e-05
-0.00010316024
-6.6777964e-05
-0.0003831552
-2.3474155e-05
-8.092536e-05
-0.00053953018
8.3889318e-06
-0.00013548832
-0.00024298047
1.9140537e-05
-0.00019629685
0.00010036428
-0.00011734636
1.3095593e-05
0.00014429719
-2.079773e-05
9.6230932e-05
-2.8487903e-05
-0.00042681487
8.1623481e-05
-0.00041092064
-1.8153735e-05
-6.1479617e-06
-9.1104021e-05
-0.00022458915
0.00015264119
1.1345726e-05
-0.00027622945
8.0798019e-05
1.7676705e-05
-0.00031132944
6.005583e-05
5.7705657e-05
-3.4011097e-05
0.00018123734
4.0742026e-05
0.00025611461
0.00036761082
-4.4203858e-05
0.0001268174
0.00029717932
-7.5825557e-05
3.7467493e-05
-0.00018261877
-3.7843151e-05
-4.6759051e-05
-0.00028578166
-2.1135917e-05
-0.00018546768
9.4166021e-05
-0.00022830573
-0.00015470842
8.8852807e-05
-0.00011854403
-0.00011378706
0.0001513508
4.1758781e-05
0.00026872471
0.00021997521
-0.00020745788
5.6528781e-05
-0.00041012269
-4.8910233e-05
-0.00053901777
-7.4126427e-05
-0.00038004114
2.580163e-05
-0.0003194193
6.9869418e-05
-0.0001570958
2.751397e-05
0.00021734304
2.9735426e-05
0.00042489064
4.9139823e-05
0.00047581801
8.1732987e-05
0.00014523055
3.3527912e-05
-0.00019896402
-9.3510569e-05
-0.00024874091
-0.00015046591
-5.4127543e-05
-0.00016063834
0.00011776683
0.00023406206
-0.00011418643
-0.00037683512
-0.0003954773
0.00019791984
-0.00030292093
0.000228188
-0.0002557009
0.00020206336
-0.00024115521
0.00013748382
-9.649034e-05
9.0786394e-05
0.00019096689
3.0230062e-06
0.00044508747
-1.7186972e-05
0.00021102311
-1.3649125e-05
-0.00019667854
-1.9111108e-05
-0.0001907714
-5.2497312e-05
-0.00017320693
-2.657342e-05
-0.00016143296
9.9783667e-05
0.00011581747
-7.0039147e-05
0.00012732858
4.8528175e-05
-7.3441449e-05
5.7132719e-05
0.0001354985
-8.0535381e-05
8.0353365e-05
7.1327732e-05
1.2045523e-05
-7.0759205e-05
1.8828124e-05
-2.4189429e-05
0.0001200062
-8.616829e-05
-0.00010134087
0.00015867026
-0.00012091007
-0.00018764885
0.00015882832
-0.00011263679
-0.00023879495
8.504529e-05
-9.8623594e-05
-2.5564725e-05
-0.00023105734
-5.7181143e-05
0.00017285763
-0.0002308004
2.5479768e-05
0.0003128821
-0.0001852196
5.6672128e-05
0.00023093348
2.3167721e-05
7.0317321e-05
0.00012663848
3.5203913e-05
5.7385587e-05
-0.00023253839
1.9000352e-05
3.9129687e-05
-3.6125441e-05
0.00010274824
0.00024069306
-0.00029682906
9.2008199e-05
0.00029374938
-0.00014058881
8.1047759e-05
0.00016890018
9.5231619e-05
4.4797084e-05
-7.3686362e-06
0.0001304194
1.9940657e-05
-6.018836e-05
2.9008155e-05
-3.7767174e-05
0.00020738282
-0.000322661
-2.2198148e-05
0.00030442759
-7.2780133e-05
-1.0441018e-05
0.00025222544
0.00013445075
-3.3973308e-05
0.0001811316
0.00016328711
-1.8807433e-06
6.7712074e-05
0.00016408993
8.2971976e-05
0.00013555885
5.1698725e-05
-7.7877675e-05
0.00022137272
0.00021466508
-3.9208566e-05
3.0914014e-05
0.0002494498
8.994957e-05
2.1871735e-05
0.00015725483
0.00030184886
-0.00026594692
5.9734734e-05
0.00038641015
5.1098859e-05
6.5817549e-06
-2.4789337e-05
0.00062964498
-5.7275215e-05
-0.00046183996
0.00060245298
-0.00011605418
-0.00036148459
3.2333492e-07
-0.00012781036
-1.8899126e-05
-0.00056480147
-7.6045701e-05
0.00025638094
-0.00053145356
-8.01329e-06
0.00051269654
-0.00046114572
4.5126542e-05
0.00052976427
-3.1861751e-05
0.00011627232
0.00065707987
9.7817493e-05
1.8345124e-05
-0.0004863279
4.0540443e-05
5.2502932e-05
-0.00012640722
8.9646612e-05
0.0002849273
-0.00056453384
4.6750252e-05
0.00042508425
-0.00040625032
4.8017926e-05
0.00023492361
0.00020708935
3.113822e-05
-0.00025333795
0.00061212214
-7.8504985e-05
-0.00020689984
-7.5632628e-06
-0.00013222158
0.00020988817
-0.00070938809
-8.7764166e-05
0.00042288062
-0.00025107531
-7.8651532e-05
0.00036361888
0.00039059103
-0.00013638112
0.00018597693
0.00048317409
-4.7222117e-05
-4.9269397e-06
0.00042835336
2.9433931e-05
0.0001341334
-4.4516283e-05
0.00017146125
-2.5382281e-05
0.00016741703
0.00033188082
-0.00025287375
0.00013381673
0.0003468922
-0.00015826013
0.00018000122
0.00010312731
-0.00012274815
1.9481678e-05
0.00010328205
-7.218793e-05
-3.5104176e-05
0.00011550747
0.00057361851
2.6306215e-05
0.00019677715
0.0005302102
-8.1857474e-05
0.00033194273
-4.3171322e-05
-0.00015545268
0.00014034143
-0.00028088397
-0.00011413693
0.00016501629
-0.00051206505
-0.00010028117
1.2041267e-06
-0.00040425644
5.02335e-05
1.4340995e-05
-8.6358793e-05
-0.00015825932
0.00059745745
-2.7899986e-06
-3.6416836e-05
-0.00045300877
2.3182591e-05
9.1876242e-05
-0.0002824212
-5.3326468e-05
-0.00011028507
-0.00018690142
-8.0306107e-05
-0.00018048725
-0.00018055738
-9.2913898e-05
-4.9165731e-05
0.00012349056
-2.2732319e-05
0.00013502367
0.00049361255
-0.00013709107
0.00029402756
-5.9440543e-05
-0.00014351777
-6.8377237e-06
-0.00032366172
-8.3958398e-05
8.6807221e-06
-0.00038063385
-4.0812392e-05
0.00010722788
0.00025612156
-0.00017710518
8.6947988e-05
0.00044045869
-5.3462173e-05
8.1754804e-05
0.00035019943
0.00012627596
6.8081681e-05
0.00033230878
0.00016191968
-0.00016082431
9.9598763e-05
0.00021073527
-0.00032357808
5.6727696e-05
0.00015796458
-0.00014721171
8.3035547e-05
-6.6281695e-05
5.9787864e-05
-0.00012059683
-0.00018252193
4.1547304e-05
-0.00012209311
5.7474991e-05
0.00023590632
9.1852534e-05
0.00034773653
0.00024145675
-6.2702123e-05
0.0001978933
0.0001514128
-1.9691629e-05
0.00012039436
-0.00021649716
-9.0048135e-05
0.00016581469
-0.00054866196
-3.2297605e-05
4.9704982e-06
-0.00028057676
4.555342e-05
-0.00019726435
0.00020629429
-7.127773e-05
0.00031666776
-3.3821033e-05
-0.00012168542
-0.00045558138
3.3154001e-05
-0.00016333745
-0.00025599656
2.6573112e-05
-0.0002127607
-0.00015286357
3.30621e-05
-0.00021368178
-0.00011646129
-5.4693458e-06
-2.9971632e-05
2.9843489e-05
-4.9321045e-05
0.00028489524
0.00020050768
-6.5965845e-05
0.00017759453
0.000181211
-0.00020917638
7.9725647e-05
-0.00025417428
-9.4617087e-06
1.0943645e-05
-0.00036348504
3.049728e-05
-6.1540834e-06
0.00010245401
-5.7540451e-05
7.353527e-05
0.00025853693
-1.6311623e-05
0.0001942073
0.00010228733
0.00016899885
0.00024692835
0.00023533583
5.4361014e-07
-0.00010483912
-0.00018989179
-0.0001820529
-0.00028464146
-0.00012658846
-0.00022148044
2.242847e-05
-0.00022558158
0.00011551786
-2.0850018e-05
5.8688714e-05
0.00025887715
-8.5350153e-06
0.00048070715
-2.1277394e-05
0.00036680908
-2.086612e-05
-0.00010120154
-4.7123451e-05
-0.00036921248
-0.0001060764
-0.00022408284
-8.9301282e-05
-6.8053423e-05
-0.00031952144
6.1859897e-05
-0.00036348986
1.6159843e-05
-0.00031993016
5.6401039e-06
-0.00026694893
-3.1958691e-05
-0.00010217515
-4.4143891e-05
0.00015800584
-5.6650298e-05
0.00039315369
-7.1123816e-05
0.00020569681
-8.0366525e-05
-0.00015304134
-2.3857993e-05
-0.00014786245
4.4777807e-05
-6.8284173e-05
0.00015238522
-0.00011685868
0.0002506455
0.00024588714
-6.6366628e-05
0.00015595686
-4.1623476e-05
-0.00012721661
0.00015556095
3.942688e-05
-0.00019124904
0.00014522866
-9.1865449e-06
4.4261735e-05
-0.00019096388
-3.0006504e-05
0.00015717314
-0.00010832315
-9.4326459e-05
7.2539261e-05
7.4265227e-05
-0.00011442344
-6.9620927e-05
0.00013691905
-0.00011241579
-0.00010354409
4.4435223e-05
-0.00011245595
0.00014581771
-0.00028103913
-3.1895432e-05
0.00021395439