/*--------------------------------*- C++ -*----------------------------------*\
| =========                 |                                                 |
| \\      /  F ield         | OpenFOAM: The Open Source CFD Toolbox           |
|  \\    /   O peration     | Version:  v2012                                 |
|   \\  /    A nd           | Website:  www.openfoam.com                      |
|    \\/     M anipulation  |                                                 |
\*---------------------------------------------------------------------------*/
FoamFile
{
    version     2.0;
    format      ascii;
    class       volScalarField;
    location    "800/heater";
    object      T;
}
// * * * * * * * * * * * * * * * * * * * * * * * * * * * * * * * * * * * * * //

dimensions      [0 0 0 1 0 0 0];


internalField   nonuniform List<scalar> 
80
(
729.10704
731.12365
735.05046
740.63163
719.866
722.21392
726.83389
733.46324
700.34532
703.35183
709.47708
718.60679
668.55549
672.35043
680.68611
694.18297
345.38739
342.59145
342.55627
345.19878
421.58902
418.10261
418.16212
421.55733
486.70334
483.67468
484.14521
487.65079
542.04098
540.05286
541.68757
545.91172
587.67417
587.58723
591.93366
599.21296
622.2144
625.66653
634.87646
653.60649
345.27872
342.50477
342.46685
345.10544
421.47733
418.00646
418.05856
421.45521
486.57054
483.59171
484.07112
487.56301
541.90582
539.99042
541.63801
545.88483
587.59778
587.58087
591.91522
599.19969
622.25051
625.70929
634.9073
653.63545
668.74688
672.53847
680.79458
694.2616
700.48644
703.52904
709.6786
718.79246
719.97571
722.33075
726.98628
733.67319
729.23551
731.26804
735.22282
740.83441
)
;

boundaryField
{
    minY
    {
        type            fixedValue;
        value           uniform 300;
    }
    minZ
    {
        type            zeroGradient;
    }
    maxZ
    {
        type            zeroGradient;
    }
    heater_to_topAir
    {
        type            compressible::turbulentTemperatureCoupledBaffleMixed;
        refValue        nonuniform List<scalar> 
40
(
521.00628
517.64164
511.83324
504.36837
484.08559
471.87453
458.95301
447.56136
495.3237
484.07075
472.02228
460.59717
510.33575
506.41603
504.84848
505.16259
507.20196
504.41018
504.86929
506.91191
506.42309
504.26229
505.18559
507.04254
508.06399
504.13507
502.69014
502.97302
493.07859
481.44336
469.45291
458.44099
482.68567
470.14179
457.06704
445.73554
520.37038
516.89067
510.95387
503.39152
)
;
        refGradient     uniform 0;
        valueFraction   nonuniform List<scalar> 
40
(
0.00032132529
0.00032132529
0.00032132529
0.00032132529
0.00032132529
0.00032132529
0.00032132529
0.00032132529
0.00032132529
0.00032132529
0.00032132529
0.00032132529
0.00032132529
0.00032132529
0.00032132529
0.00032132529
0.00032132529
0.00032132529
0.00032132529
0.00032132529
0.00032132529
0.00032132529
0.00032132529
0.00032132529
0.00032132529
0.00032132529
0.00032132529
0.00032132529
0.00032132529
0.00032132529
0.00032132529
0.00032132529
0.00032132529
0.00032132529
0.00032132529
0.00032132529
0.00032132529
0.00032132529
0.00032132529
0.00032132529
)
;
        value           nonuniform List<scalar> 
40
(
729.04059
731.0555
734.97927
740.55636
719.79052
722.13381
726.74822
733.37192
700.27949
703.28145
709.40099
718.52423
668.50431
672.29695
680.62958
694.12232
622.17718
625.62738
634.83459
653.55935
622.21327
625.67026
634.86564
653.58842
668.69555
672.4847
680.73765
694.20042
700.42026
703.45818
709.6019
718.70926
719.90008
722.25035
726.90019
733.5813
729.16915
731.1999
735.1515
740.75883
)
;
        Tnbr            T;
        thicknessLayers List<scalar> 0();
        kappaLayers     List<scalar> 0();
        kappaMethod     solidThermo;
        kappa           none;
        alphaAni        none;
        alpha           none;
        field           T;
    }
    heater_to_rightSolid
    {
        type            compressible::turbulentTemperatureCoupledBaffleMixed;
        refValue        nonuniform List<scalar> 10(747.46134 741.6152 729.98923 712.60322 692.12839 692.1774 712.70939 730.15502 741.88781 747.74839);
        refGradient     uniform 0;
        valueFraction   nonuniform List<scalar> 10(0.49999997 0.49999997 0.49999997 0.49999997 0.49999997 0.49999997 0.49999997 0.49999997 0.49999997 0.49999997);
        value           nonuniform List<scalar> 10(744.04681 737.53949 724.29818 703.39314 672.86744 672.90646 703.48564 724.47397 737.78081 744.29176);
        Tnbr            T;
        thicknessLayers List<scalar> 0();
        kappaLayers     List<scalar> 0();
        kappaMethod     solidThermo;
        kappa           none;
        alphaAni        none;
        alpha           none;
        field           T;
    }
    heater_to_leftSolid
    {
        type            compressible::turbulentTemperatureCoupledBaffleMixed;
        refValue        nonuniform List<scalar> 10(928.67113 928.7338 928.83462 928.83869 928.54581 928.00111 927.47829 927.05206 926.81098 926.71568);
        refGradient     uniform 0;
        valueFraction   nonuniform List<scalar> 10(2.0832898e-05 2.0832898e-05 2.0832898e-05 2.0832898e-05 2.0832898e-05 2.0832898e-05 2.0832898e-05 2.0832898e-05 2.0832898e-05 2.0832898e-05);
        value           nonuniform List<scalar> 10(729.11161 719.87064 700.35013 668.56057 622.22052 622.25685 668.75257 700.49162 719.98063 729.24038);
        Tnbr            T;
        thicknessLayers List<scalar> 1(0.001);
        kappaLayers     List<scalar> 1(0.0005);
        kappaMethod     solidThermo;
        kappa           none;
        alphaAni        none;
        alpha           none;
        field           T;
    }
    heater_to_bottomWater
    {
        type            compressible::turbulentTemperatureCoupledBaffleMixed;
        refValue        nonuniform List<scalar> 
92
(
931.69056
930.30902
928.41689
927.17497
937.93756
934.43569
929.18162
919.45964
941.96106
929.7747
915.7263
916.38431
944.38066
943.08648
938.61341
931.93199
933.63541
933.402
932.12207
927.83727
934.76382
929.56564
919.96805
917.57345
939.49941
930.58351
923.80522
921.49565
935.14629
935.14629
914.49252
914.49252
918.85129
918.85129
917.06856
917.06856
943.32272
913.28451
945.55336
902.84033
950.25602
898.08671
955.59864
893.61319
958.37969
894.10576
936.49507
918.32331
917.07538
908.56799
908.52865
909.07833
941.85292
923.06173
919.22004
910.36587
903.4705
907.70881
939.39624
926.80725
920.77665
911.81677
893.42419
907.58506
940.305
930.88519
922.53599
912.23489
898.70065
912.85213
942.79463
935.50049
921.60624
909.06827
896.15972
906.58934
935.50049
921.60624
909.06827
906.58934
932.04281
927.40584
921.96611
918.96494
930.54875
923.79436
921.17224
919.48179
926.20245
926.28538
926.34546
920.982
)
;
        refGradient     uniform 0;
        valueFraction   nonuniform List<scalar> 
92
(
0.0075140686
0.0075140686
0.0075140686
0.0075140686
0.0075140686
0.0075140686
0.0075140686
0.0075140686
0.0075140686
0.0075140686
0.0075140686
0.0075140686
0.0075140686
0.0075140686
0.0075140686
0.0075140686
0.0075140686
0.0075140686
0.0075140686
0.0075140686
0.0075140686
0.0075140686
0.0075140686
0.0075140686
0.0075140686
0.0075140686
0.0075140686
0.0075140686
0.0075140686
0.0075140686
0.0075140686
0.0075140686
0.0075140686
0.0075140686
0.0075140686
0.0075140686
0.0075140679
0.0075140679
0.0075140679
0.0075140679
0.0075140679
0.0075140679
0.0075140679
0.0075140679
0.0075140679
0.0075140679
0.0075140679
0.0075140686
0.0075140686
0.0075140686
0.0075140679
0.0075140686
0.0075140679
0.0075140686
0.0075140686
0.0075140686
0.0075140679
0.0075140686
0.0075140679
0.0075140686
0.0075140686
0.0075140686
0.0075140679
0.0075140686
0.0075140679
0.0075140686
0.0075140686
0.0075140686
0.0075140679
0.0075140686
0.0075140679
0.0075140686
0.0075140686
0.0075140686
0.0075140679
0.0075140686
0.0075140686
0.0075140686
0.0075140686
0.0075140686
0.0075140686
0.0075140686
0.0075140686
0.0075140686
0.0075140686
0.0075140686
0.0075140686
0.0075140686
0.0075140686
0.0075140686
0.0075140686
0.0075140686
)
;
        value           nonuniform List<scalar> 
92
(
730.62968
732.62079
736.50396
742.03397
721.50489
723.8089
728.35475
734.86137
702.16088
705.05327
711.02706
720.09325
349.88812
347.1035
347.03496
349.60738
425.43618
421.97431
422.02378
425.36125
490.06954
487.02476
487.41967
490.88089
545.02696
542.98691
544.55847
548.73352
670.55834
590.28464
674.16975
590.04329
682.47567
594.3899
695.85784
601.60116
349.88017
349.46726
425.52573
425.17342
490.18595
490.73446
545.14793
548.52401
590.45922
601.42862
349.72106
349.58452
346.82207
346.72051
349.33896
349.34309
425.38721
425.24602
421.77243
421.75761
425.07692
425.10876
489.97277
489.87817
486.87651
487.28498
490.61238
490.71879
544.89919
544.82841
542.8647
544.42247
548.53563
548.64197
590.26667
590.21186
590.09067
594.29821
601.43096
601.50933
670.75158
674.41033
682.51014
695.85733
702.22683
705.21176
711.27423
720.29702
721.55858
723.84519
728.44604
735.07
730.71628
732.73416
736.65967
742.18876
)
;
        Tnbr            T;
        thicknessLayers List<scalar> 0();
        kappaLayers     List<scalar> 0();
        kappaMethod     solidThermo;
        kappa           none;
        alphaAni        none;
        alpha           none;
        field           T;
    }
}


// ************************************************************************* //
