/*--------------------------------*- C++ -*----------------------------------*\
| =========                 |                                                 |
| \\      /  F ield         | OpenFOAM: The Open Source CFD Toolbox           |
|  \\    /   O peration     | Version:  v2012                                 |
|   \\  /    A nd           | Website:  www.openfoam.com                      |
|    \\/     M anipulation  |                                                 |
\*---------------------------------------------------------------------------*/
FoamFile
{
    version     2.0;
    format      ascii;
    class       volScalarField;
    location    "300/bottomWater";
    object      p_rgh;
}
// * * * * * * * * * * * * * * * * * * * * * * * * * * * * * * * * * * * * * //

dimensions      [1 -1 -2 0 0 0 0];


internalField   nonuniform List<scalar> 
1460
(
0.26044006
0.26130592
0.25991354
0.26035442
0.25231644
0.29637001
0.28834195
0.2927069
0.28880948
0.29361
0.29702965
0.28625515
0.28609573
0.3055534
0.30104342
0.29794177
0.29980628
0.2997985
0.28209461
0.2883166
0.28417874
0.28617057
0.29148434
0.2908844
0.29161306
0.28713842
0.28104756
0.28187488
0.27039634
0.27598016
-0.23369735
-0.2375735
-0.22603578
-0.22052736
-0.21125036
-0.18315504
-0.2280642
-0.26519423
-0.26880903
-0.23869682
-0.22723193
-0.26105926
-0.24894094
-0.20805986
-0.24584685
-0.22502929
-0.19951999
-0.18554267
-0.22954112
-0.20992132
-0.22359724
-0.2591156
-0.24649387
-0.21910288
-0.18827077
-0.18005438
-0.19273362
-0.20218511
-0.24131937
-0.24222539
0.12234168
0.11519034
0.11117339
0.087567071
0.036959607
0.026396555
0.034749801
0.074592876
0.081865444
0.069476612
0.074340602
0.10201652
0.10333995
0.070084931
0.10910423
0.062970507
0.076834545
0.069701745
0.10065852
0.076614506
0.098832839
0.072080825
0.083349132
0.042651714
0.064525159
0.051550558
0.056214694
0.036646879
0.047815275
0.07068269
-0.04874587
-0.043924459
-0.034237731
-0.033055798
-0.066853719
-0.047529528
-0.055203228
-0.048942802
-0.032662249
-0.096782834
-0.048720336
-0.037651137
-0.034931887
-0.050447089
-0.063756961
-0.06557775
-0.058740398
-0.028272922
-0.060852135
-0.072051802
-0.070350891
-0.058956696
-0.082014594
-0.073730819
-0.047290218
-0.025410736
-0.040953248
-0.049326802
-0.055033451
-0.044379319
0.015318285
-0.0013199157
-0.0085765887
-0.02489183
0.0022416449
0.0014596118
0.0059376824
0.015157909
0.013416543
0.014401829
-0.012403013
-0.0085805679
-0.0080446163
-0.015967843
-0.0021131017
-0.0027942054
-0.021420852
-0.012916783
-0.01465799
0.021821857
-0.004048044
0.0022138216
0.015882732
-0.0036133222
-0.0088947349
-0.0070833035
-0.0106096
-0.0050928171
0.0066937715
0.004326887
0.25815933
0.25622782
0.2468535
0.26193812
0.27941922
0.29911886
0.29186487
0.29279077
0.28963545
0.28753632
0.29260525
0.29171636
0.28442995
0.30663528
0.30436617
0.30276623
0.30415542
0.30810806
0.29828554
0.29386099
0.28575045
0.29150692
0.29447155
0.29048312
0.29204576
0.28439572
0.29101053
0.27682141
0.27816533
0.28158333
-0.22498993
-0.22727306
-0.22575512
-0.21153193
-0.1808181
-0.20518337
-0.2804216
-0.27346075
-0.27100999
-0.24890995
-0.26626243
-0.26681798
-0.26521552
-0.22440329
-0.21099977
-0.26662692
-0.24324737
-0.20624155
-0.20749832
-0.22153749
-0.24536566
-0.26831618
-0.26649315
-0.22950451
-0.19831937
-0.20299787
-0.22825955
-0.25438179
-0.26497635
-0.25382517
0.099938132
0.089865409
0.090567083
0.046968282
0.01791201
0.03481626
0.044415951
0.10910978
0.10294568
0.076481106
0.098290075
0.079457544
0.058535464
0.034287243
0.074782334
0.076062311
0.072910298
0.060880058
0.067470018
0.043234378
0.06782771
0.077989252
0.084433749
0.030296356
0.059367299
0.04516068
0.026989991
0.0455563
0.070173209
0.10426496
-0.082291758
-0.080633657
-0.0629399
-0.058397575
-0.074775251
-0.07368971
-0.067151647
-0.038431084
-0.040411482
-0.080052367
-0.044555603
-0.048082694
-0.089429234
-0.082506057
-0.094527893
-0.044633439
-0.1109883
-0.045083863
-0.065865081
-0.084346498
-0.11035889
-0.05087032
-0.060765614
-0.087801764
-0.053812743
-0.056323443
-0.086586337
-0.084254478
-0.05285879
-0.041337531
0.040781974
0.00055316296
-0.009550313
-0.020621658
-0.0019191149
0.0080461397
0.012011327
0.032204847
0.023955881
0.024662667
0.011529534
0.0041479986
0.00061358925
0.0032044592
0.033847392
-0.0010274972
-0.011888021
-0.015229136
-0.015863377
0.014437113
0.017147799
0.021684775
0.010639447
0.0040985467
-0.0058734527
-0.013747215
0.0048527194
0.0077088827
0.011059412
0.015824193
0.26607171
0.26070756
0.27347779
0.27607661
0.28233415
0.29227995
0.28300434
0.29197658
0.2735743
0.29530938
0.29173864
0.28982798
0.29612196
0.28890572
0.29326958
0.29329354
0.29096967
0.29317859
0.26678729
0.27142548
0.27619625
0.28087237
0.2813248
0.27568345
0.29632252
0.28158404
0.28539641
0.28266233
0.28559758
0.28491838
-0.2276542
-0.22550042
-0.20768877
-0.20539646
-0.21016757
-0.25144228
-0.27011879
-0.26640072
-0.26206338
-0.23255579
-0.25526373
-0.27760874
-0.27473787
-0.26598925
-0.2471509
-0.28222822
-0.26330401
-0.22283224
-0.24488381
-0.25465668
-0.26353177
-0.26534497
-0.27104045
-0.25541872
-0.21183912
-0.23184612
-0.26950977
-0.26767967
-0.26569691
-0.26118693
0.089224145
0.072241834
0.061436845
0.077234325
0.047685213
0.067761599
0.07915846
0.10153138
0.064572672
0.046988026
0.070077672
0.09001082
0.12891911
0.083531695
0.1264078
0.081921507
0.07433932
0.050411924
0.078881906
0.069237464
0.10058579
0.11741733
0.086209209
0.05070352
0.026870677
0.061572311
0.057077962
0.090465294
0.12300379
0.1153409
-0.074230499
-0.093451464
-0.059828675
-0.063073301
-0.065880727
-0.093029085
-0.042390138
-0.025998223
-0.063660938
-0.044996893
-0.071695069
-0.037197782
-0.043209921
-0.089030619
-0.11188427
-0.030908565
-0.12129149
-0.060584119
-0.068628548
-0.071510061
-0.060524734
-0.039734245
-0.045626165
-0.077553178
-0.062906423
-0.069708997
-0.050486735
-0.05117854
-0.025511744
-0.0245969
0.017596623
0.019420659
-0.0072120149
-0.014515733
-0.00024245709
0.0075369991
0.01737278
0.028412732
0.028381854
0.010671754
0.035748442
0.023430861
0.030197593
0.035562915
0.057088554
0.014792752
0.013850242
-0.0063181269
-0.0064664704
0.010938523
0.009945056
0.031743712
0.022410395
0.01936532
0.020347889
0.001019441
0.0095719734
0.016980827
0.034048036
0.028624595
0.26418707
0.26303957
0.25946668
0.2507895
0.28361511
0.29138773
0.29576395
0.28959443
0.29394231
0.29846592
0.30244527
0.29140509
0.29542181
0.29753161
0.29748937
0.29424286
0.31222898
0.29796451
0.28908297
0.28881459
0.28758732
0.28705816
0.28754098
0.27867295
0.27708452
0.27787327
0.29440142
0.28046995
0.27850623
0.2767446
-0.23939799
-0.24083914
-0.2303243
-0.2233113
-0.1867986
-0.21013233
-0.26446852
-0.24258967
-0.22802046
-0.18321614
-0.21332801
-0.26219007
-0.27463284
-0.27531696
-0.27472815
-0.26956001
-0.20632228
-0.21036374
-0.24681146
-0.26763893
-0.26603402
-0.26628653
-0.26772828
-0.26420413
-0.25237016
-0.2432625
-0.21035018
-0.23922543
-0.26336159
-0.24662183
0.10639841
0.088901845
0.069251414
0.046510976
0.021172243
0.067661485
0.074363753
0.090932405
0.042743697
0.071343417
0.0279181
0.051162199
0.076754757
0.099634142
0.079519552
0.068150855
0.030266519
0.058790189
0.066214389
0.08178355
0.11607461
0.11520396
0.10346397
0.081897749
0.056473911
0.063124355
0.029346447
0.07509003
0.070154574
0.08695254
-0.040915682
-0.050560224
-0.057456656
-0.08075344
-0.058249894
-0.057555465
-0.042433468
-0.067789145
-0.049180488
-0.054043767
-0.060047751
-0.078159472
-0.03589741
-0.030934244
-0.038139011
-0.074185627
-0.084594401
-0.054870956
-0.056188965
-0.04164117
-0.024959444
-0.037448573
-0.035656206
-0.046097485
-0.05750091
-0.069437572
-0.074561871
-0.097439407
-0.055753848
-0.084201683
-0.0074850525
-0.016561248
-0.025950034
-0.0053668578
-0.0083689432
-0.020501371
0.0011204735
0.01433209
0.0064609169
0.00041953918
0.024341339
0.026035775
0.025197142
0.03320813
0.025985337
0.025508394
0.013887524
-0.0080105846
-0.006194151
0.015128588
0.00023694073
0.021240902
0.012302586
-0.0028817512
-0.0051990921
-0.01450668
0.0047464629
0.010569684
0.011755025
0.03275406
0.26645695
0.26439008
0.25212061
0.27914328
0.28742278
0.29076627
0.29232215
0.28749136
0.28934756
0.30039052
0.29868934
0.29697089
0.29338752
0.26860348
0.26044046
0.26729354
0.26967439
0.26474415
0.26529806
0.27214916
0.2773279
0.28969695
0.28375137
0.28511504
0.28107484
0.29166675
-0.23902012
-0.24279959
-0.23822097
-0.19269731
-0.15784854
-0.2090781
-0.24545797
-0.24695173
-0.21459545
-0.19192038
-0.20313748
-0.24550491
-0.25958718
-0.23059499
-0.24569345
-0.25482136
-0.25834411
-0.2507833
-0.24265031
-0.25040025
-0.24452942
-0.20602594
-0.19103795
-0.20805369
-0.22998824
-0.18896495
0.10178238
0.065458603
0.040865819
0.011647584
0.040436012
0.045121199
0.087180984
0.079136949
0.062395369
0.046181649
0.048338521
0.073916595
0.091453968
0.095694619
0.1033972
0.09909255
0.099689333
0.086446778
0.091313516
0.073949777
0.080697341
0.04715979
0.05570774
0.056033507
0.057474022
0.031472629
-0.033504205
-0.045612648
-0.069834623
-0.060276065
-0.053796427
-0.04048517
-0.0395904
-0.046620055
-0.050026651
-0.058677035
-0.070970312
-0.06960709
-0.050502498
-0.072748762
-0.068804144
-0.063081748
-0.062584301
-0.090369311
-0.098330124
-0.072487629
-0.055192644
-0.036213862
-0.063090294
-0.07965622
-0.087393253
-0.084328204
0.010111716
0.0045100662
-0.0023973009
-0.0039036683
-0.011134073
-0.014606522
-0.0020534018
-0.0053966338
-0.012442475
-0.005260322
0.011069714
0.023822435
0.011954475
0.0076927599
-0.018918511
-0.0086747633
-0.0028965253
0.025404284
0.026153386
-0.0099000265
-0.020940605
-0.022959992
-0.02410016
-0.013179089
0.016947298
0.013165518
0.26998726
0.26790055
0.26548051
0.27808492
0.29010526
0.27651875
0.29164268
0.27974542
0.29701035
0.28769437
0.29338306
0.29382556
0.30062638
0.27600256
0.29749742
0.29843248
0.28997045
0.28789165
0.29901318
0.28806752
0.28542646
0.29210328
0.29360078
0.2928231
0.28859656
0.28557545
-0.24882176
-0.25392807
-0.24594934
-0.23867718
-0.18725275
-0.2391502
-0.25523414
-0.25093759
-0.22989349
-0.24136657
-0.26611776
-0.24959189
-0.20836541
-0.23285481
-0.23017982
-0.23505313
-0.27340006
-0.25126777
-0.21378016
-0.19728335
-0.21717121
-0.17982033
-0.17410047
-0.18282871
-0.2172244
-0.23340108
0.10709013
0.078301053
0.056066548
0.031321618
0.022744628
0.05107541
0.083424292
0.10891981
0.051633039
0.093426601
0.044769649
0.065294853
0.025926052
0.10348327
0.043553817
0.060274826
0.057865615
0.072066727
0.034677662
0.050930053
0.080270223
0.067155537
0.064285536
0.062744782
0.04842581
0.089778519
-0.04208981
-0.0432305
-0.064386766
-0.066118077
-0.065044286
-0.055014514
-0.025688267
-0.034253412
-0.023647737
-0.059826236
-0.011759215
-0.058860926
-0.05697081
-0.058057689
-0.081980859
-0.096748656
-0.050007525
-0.083201272
-0.069649152
-0.067198189
-0.054684598
-0.027204378
-0.025902066
-0.047704071
-0.077800027
-0.054042022
0.015882921
0.010068549
0.007785994
0.0073352048
0.0065374948
-0.021930895
-0.011745161
-0.0055096746
-0.015504052
-0.0080245746
-0.0069567817
-0.0099517497
0.0012719529
-0.0016297288
0.0028119512
0.018595701
0.01646987
0.020251008
0.021136363
-0.0025312575
-0.024234457
-0.017360198
-0.013872814
-0.016090069
-0.0048659884
-0.018596061
0.26721211
0.26552094
0.27234162
0.27773713
0.27637214
0.28714592
0.27435508
0.28047042
0.27824661
0.28155426
0.28451567
0.29640234
0.28925434
0.28759572
0.28765344
0.28946233
0.28003987
0.29865659
0.29140179
0.28758575
0.28458507
0.28331131
0.28596816
0.29091917
0.29633434
0.27119081
0.27088907
0.26290498
0.26200855
0.26745545
-0.24432111
-0.23693846
-0.24173552
-0.25534888
-0.21374145
-0.21429214
-0.25657398
-0.25392394
-0.241519
-0.25943458
-0.22525509
-0.20385085
-0.22455334
-0.25604018
-0.25650732
-0.24612203
-0.24151643
-0.23309811
-0.24878252
-0.26183194
-0.26056052
-0.2616438
-0.24828294
-0.21087452
-0.17737959
-0.19956161
-0.20883886
-0.22879138
-0.24544582
-0.2461645
0.091512525
0.065399939
0.086991533
0.064940718
0.044732465
0.029464014
0.057915306
0.082952262
0.09771203
0.085453335
0.083814366
0.05783675
0.043326283
0.085118507
0.10568245
0.087337157
0.10958077
0.027243055
0.091586062
0.075927311
0.10546427
0.073599539
0.068207598
0.035984884
0.030816736
0.062504875
0.059521107
0.051333554
0.064642517
0.084781044
-0.051097668
-0.073473802
-0.039590005
-0.049317221
-0.067267669
-0.055370599
-0.057541073
-0.039661669
-0.048423219
-0.020296398
-0.035370108
-0.03309847
-0.055337354
-0.038259354
-0.046824274
-0.043188014
-0.059104603
-0.07747239
-0.097898238
-0.038706345
-0.042224545
-0.050474947
-0.067081363
-0.062707155
-0.070059946
-0.058086604
-0.046560161
-0.069534374
-0.06867362
-0.044003096
0.0025415512
0.015950056
0.0015980494
0.010346285
0.013723441
0.0014558919
-0.0044571515
-0.0026538984
-0.0098003673
-0.011063205
-0.01540227
-0.011130513
0.010777468
0.013517924
0.012389998
0.0065010217
-0.0014336705
0.012326911
0.020660433
0.0050593047
0.010744961
0.0015057279
-0.0031956497
-0.0039626788
-0.0059968414
-0.011244924
-0.021132581
0.0047976181
0.0035685193
0.0075559018
0.27530121
0.30191498
0.28725475
0.2923273
0.29091965
0.2860039
0.30258701
0.27787486
0.29143155
0.27632633
0.29021534
0.29539409
0.29099959
0.29117583
0.29524024
0.29787957
0.29954576
0.29968325
0.29825824
0.28994066
0.28408757
0.28027207
0.28649009
0.28246294
0.28161599
0.27540592
0.27231338
0.27182699
0.27380759
0.27527914
-0.21800409
-0.21188035
-0.23513355
-0.26040138
-0.26531946
-0.22586505
-0.22066728
-0.25298408
-0.25656261
-0.24434875
-0.21675209
-0.20089925
-0.25187979
-0.2405252
-0.22073309
-0.1995731
-0.21467047
-0.23770749
-0.26508952
-0.21387744
-0.24223804
-0.24530735
-0.2632293
-0.2611511
-0.23699009
-0.2369675
-0.24193843
-0.24684311
-0.25416596
-0.24676571
0.073350078
0.058352125
0.054996518
0.084932427
0.064838342
0.054060889
0.026263465
0.066279064
0.072033344
0.065046826
0.046510931
0.05023504
0.075310223
0.085599811
0.056882193
0.063615896
0.043697073
0.094545241
0.07550647
0.073365262
0.075405823
0.098508588
0.096116675
0.095916172
0.082968732
0.089014363
0.092845451
0.093650589
0.11363032
0.13357236
-0.061996161
-0.047427623
-0.077849574
-0.038131676
-0.032657675
-0.068324357
-0.049480673
-0.063709644
-0.03855909
-0.080879985
-0.050122395
-0.049054328
-0.061005984
-0.051010778
-0.050475681
-0.060765145
-0.079744881
-0.095014814
-0.045608271
-0.093082414
-0.045805778
-0.061384734
-0.037892248
-0.064908782
-0.086695877
-0.071423797
-0.058160365
-0.050763378
-0.043446936
-0.037799181
0.012059355
-0.0088442005
0.011102986
0.017394354
0.01530114
0.015915714
0.023074691
0.012416221
0.0027380371
0.0020135115
-0.011094344
-0.01140513
0.01333213
-0.0049771541
-0.016737999
-0.010053742
0.0018797329
0.02126124
0.021566377
0.007894786
-8.0952577e-05
0.0081590523
0.020667725
0.012494438
0.0299452
0.013737613
-0.0026988697
0.015181066
0.018301703
0.024297947
0.28643395
0.28906851
0.2917554
0.28432942
0.29380841
0.28317954
0.29817317
0.26895102
0.28708975
0.27605932
0.27702629
0.29079686
0.28795636
0.286946
0.28926464
0.30264141
0.29784195
0.30054895
0.29678186
0.29859821
0.29083828
0.28457532
0.28520915
0.28370775
0.27602797
0.2728014
0.26091098
0.26624383
0.26805161
0.26818716
-0.25611025
-0.22341079
-0.21985211
-0.25557824
-0.26498133
-0.25347986
-0.22194531
-0.2488548
-0.26209148
-0.25251033
-0.24003874
-0.222743
-0.26451421
-0.2599327
-0.22714651
-0.21913965
-0.24119109
-0.26974537
-0.2363763
-0.20834304
-0.20376257
-0.24390432
-0.25697231
-0.26067227
-0.24277768
-0.22970928
-0.24190453
-0.23799692
-0.2342157
-0.24323049
0.098907068
0.071200065
0.060868439
0.099154629
0.077597644
0.061354374
0.017584735
0.058484798
0.075857642
0.073276301
0.058832429
0.01495761
0.093164378
0.069700438
0.065847153
0.059043946
0.088367541
0.069606573
0.078692466
0.063079424
0.060616108
0.055647892
0.08816517
0.096461444
0.077854758
0.064134951
0.082694336
0.10974154
0.10004423
0.11750674
-0.046038361
-0.081735236
-0.051768155
-0.052465767
-0.0085785353
-0.070711238
-0.052937814
-0.066490824
-0.032490212
-0.048612385
-0.063328995
-0.059755735
-0.052989098
-0.046555141
-0.077523737
-0.054359722
-0.11035845
-0.040811643
-0.11005948
-0.044327137
-0.058314325
-0.083760395
-0.056704989
-0.054437871
-0.072126466
-0.080258532
-0.080899237
-0.056750329
-0.05863024
-0.049182333
0.011335836
0.01066252
-0.0078787742
-0.0086687052
0.0086539791
-0.0049730969
0.017539811
0.024808447
0.017849535
0.01096717
0.017291649
0.010313335
0.003961704
-0.0037833146
-0.009121765
-0.0019350758
0.019688859
0.028142422
0.022068745
-0.0011911134
-0.00076246875
0.010540246
0.019250438
0.022759555
0.013532475
0.022676596
-0.0034456374
-0.0096433825
0.014588659
0.012473721
0.29250018
0.29921449
0.29129031
0.28812739
0.29180084
0.28633975
0.30612745
0.27120895
0.28032708
0.27687217
0.27996104
0.27567594
0.28189827
0.28072487
0.28047921
0.27787643
0.28399937
0.28422684
0.30048868
0.29741729
0.29615338
0.29315781
0.29460644
0.29414185
0.29839111
0.29270164
0.26810342
0.27018686
0.26334198
0.26712264
-0.2497948
-0.19859587
-0.19363123
-0.21327017
-0.25100877
-0.2086209
-0.18669374
-0.24585123
-0.26100652
-0.25749458
-0.25557822
-0.23827768
-0.26689283
-0.27016104
-0.24385794
-0.23938751
-0.26037849
-0.25544177
-0.21144789
-0.18601175
-0.20579891
-0.23737263
-0.25942321
-0.25697121
-0.19942121
-0.15369496
-0.17999931
-0.2176842
-0.23040434
-0.22722728
0.095732379
0.049868443
0.067075018
0.07266123
0.098316555
0.062578934
0.022476336
0.051807192
0.074359287
0.098386367
0.10063269
0.068720128
0.11714221
0.10110802
0.089130394
0.10661442
0.08998414
0.083939665
0.051970999
0.078854498
0.047074168
0.076527582
0.090693887
0.084524782
0.031478788
0.04020018
0.030723016
0.064735268
0.11032285
0.10941031
-0.040909685
-0.082756395
-0.064846998
-0.0461262
-0.015233746
-0.051166069
-0.054093705
-0.063302259
-0.033052368
-0.044059101
-0.045722067
-0.074197895
-0.034951398
-0.046322839
-0.097838965
-0.081113027
-0.049069357
-0.054043185
-0.050308353
-0.05861649
-0.074582735
-0.089387886
-0.035741796
-0.057386276
-0.07197224
-0.066670729
-0.072611345
-0.052465682
-0.033097622
-0.042683652
0.016705327
0.013657149
-0.0075199415
-0.0090915311
0.00052802963
-0.01815219
0.0052683631
0.012983698
0.013233854
0.018331217
0.016329232
0.030305212
0.016342329
0.011179349
0.026688528
0.015869661
-0.0087675801
0.0049891957
-0.0040411891
-0.008444032
0.0025396712
0.024988209
0.031979504
0.018422976
0.015194569
0.012049556
-0.016419248
-0.020387373
-0.0049600259
0.0060684732
)
;

boundaryField
{
    minX
    {
        type            fixedFluxPressure;
        gradient        uniform 0;
        value           nonuniform List<scalar> 
50
(
0.26044006
-0.23369735
0.12234168
-0.04874587
0.015318285
0.25815933
-0.22498993
0.099938132
-0.082291758
0.040781974
0.26607171
-0.2276542
0.089224145
-0.074230499
0.017596623
0.26418707
-0.23939799
0.10639841
-0.040915682
-0.0074850525
0.26645695
-0.23902012
0.10178238
-0.033504205
0.010111716
0.26998726
-0.24882176
0.10709013
-0.04208981
0.015882921
0.26721211
-0.24432111
0.091512525
-0.051097668
0.0025415512
0.27530121
-0.21800409
0.073350078
-0.061996161
0.012059355
0.28643395
-0.25611025
0.098907068
-0.046038361
0.011335836
0.29250018
-0.2497948
0.095732379
-0.040909685
0.016705327
)
;
    }
    maxX
    {
        type            fixedFluxPressure;
        gradient        uniform 0;
        value           nonuniform List<scalar> 
50
(
0.27598016
-0.24222539
0.07068269
-0.044379319
0.004326887
0.28158333
-0.25382517
0.10426496
-0.041337531
0.015824193
0.28491838
-0.26118693
0.1153409
-0.0245969
0.028624595
0.2767446
-0.24662183
0.08695254
-0.084201683
0.03275406
0.29166675
-0.18896495
0.031472629
-0.084328204
0.013165518
0.28557545
-0.23340108
0.089778519
-0.054042022
-0.018596061
0.26745545
-0.2461645
0.084781044
-0.044003096
0.0075559018
0.27527914
-0.24676571
0.13357236
-0.037799181
0.024297947
0.26818716
-0.24323049
0.11750674
-0.049182333
0.012473721
0.26712264
-0.22722728
0.10941031
-0.042683652
0.0060684732
)
;
    }
    minY
    {
        type            fixedValue;
        value           uniform 0;
    }
    minZ
    {
        type            fixedFluxPressure;
        gradient        uniform 0;
        value           nonuniform List<scalar> 
150
(
0.26044006
-0.23369735
0.12234168
-0.04874587
0.015318285
0.26130592
-0.2375735
0.11519034
-0.043924459
-0.0013199157
0.25991354
-0.22603578
0.11117339
-0.034237731
-0.0085765887
0.26035442
-0.22052736
0.087567071
-0.033055798
-0.02489183
0.25231644
-0.21125036
0.036959607
-0.066853719
0.0022416449
0.29637001
-0.18315504
0.026396555
-0.047529528
0.0014596118
0.28834195
-0.2280642
0.034749801
-0.055203228
0.0059376824
0.2927069
-0.26519423
0.074592876
-0.048942802
0.015157909
0.28880948
-0.26880903
0.081865444
-0.032662249
0.013416543
0.29361
-0.23869682
0.069476612
-0.096782834
0.014401829
0.29702965
-0.22723193
0.074340602
-0.048720336
-0.012403013
0.28625515
-0.26105926
0.10201652
-0.037651137
-0.0085805679
0.28609573
-0.24894094
0.10333995
-0.034931887
-0.0080446163
0.3055534
-0.20805986
0.070084931
-0.050447089
-0.015967843
0.30104342
-0.24584685
0.10910423
-0.063756961
-0.0021131017
0.29794177
-0.22502929
0.062970507
-0.06557775
-0.0027942054
0.29980628
-0.19951999
0.076834545
-0.058740398
-0.021420852
0.2997985
-0.18554267
0.069701745
-0.028272922
-0.012916783
0.28209461
-0.22954112
0.10065852
-0.060852135
-0.01465799
0.2883166
-0.20992132
0.076614506
-0.072051802
0.021821857
0.28417874
-0.22359724
0.098832839
-0.070350891
-0.004048044
0.28617057
-0.2591156
0.072080825
-0.058956696
0.0022138216
0.29148434
-0.24649387
0.083349132
-0.082014594
0.015882732
0.2908844
-0.21910288
0.042651714
-0.073730819
-0.0036133222
0.29161306
-0.18827077
0.064525159
-0.047290218
-0.0088947349
0.28713842
-0.18005438
0.051550558
-0.025410736
-0.0070833035
0.28104756
-0.19273362
0.056214694
-0.040953248
-0.0106096
0.28187488
-0.20218511
0.036646879
-0.049326802
-0.0050928171
0.27039634
-0.24131937
0.047815275
-0.055033451
0.0066937715
0.27598016
-0.24222539
0.07068269
-0.044379319
0.004326887
)
;
    }
    maxZ
    {
        type            fixedFluxPressure;
        gradient        uniform 0;
        value           nonuniform List<scalar> 
150
(
0.29250018
-0.2497948
0.095732379
-0.040909685
0.016705327
0.29921449
-0.19859587
0.049868443
-0.082756395
0.013657149
0.29129031
-0.19363123
0.067075018
-0.064846998
-0.0075199415
0.28812739
-0.21327017
0.07266123
-0.0461262
-0.0090915311
0.29180084
-0.25100877
0.098316555
-0.015233746
0.00052802963
0.28633975
-0.2086209
0.062578934
-0.051166069
-0.01815219
0.30612745
-0.18669374
0.022476336
-0.054093705
0.0052683631
0.27120895
-0.24585123
0.051807192
-0.063302259
0.012983698
0.28032708
-0.26100652
0.074359287
-0.033052368
0.013233854
0.27687217
-0.25749458
0.098386367
-0.044059101
0.018331217
0.27996104
-0.25557822
0.10063269
-0.045722067
0.016329232
0.27567594
-0.23827768
0.068720128
-0.074197895
0.030305212
0.28189827
-0.26689283
0.11714221
-0.034951398
0.016342329
0.28072487
-0.27016104
0.10110802
-0.046322839
0.011179349
0.28047921
-0.24385794
0.089130394
-0.097838965
0.026688528
0.27787643
-0.23938751
0.10661442
-0.081113027
0.015869661
0.28399937
-0.26037849
0.08998414
-0.049069357
-0.0087675801
0.28422684
-0.25544177
0.083939665
-0.054043185
0.0049891957
0.30048868
-0.21144789
0.051970999
-0.050308353
-0.0040411891
0.29741729
-0.18601175
0.078854498
-0.05861649
-0.008444032
0.29615338
-0.20579891
0.047074168
-0.074582735
0.0025396712
0.29315781
-0.23737263
0.076527582
-0.089387886
0.024988209
0.29460644
-0.25942321
0.090693887
-0.035741796
0.031979504
0.29414185
-0.25697121
0.084524782
-0.057386276
0.018422976
0.29839111
-0.19942121
0.031478788
-0.07197224
0.015194569
0.29270164
-0.15369496
0.04020018
-0.066670729
0.012049556
0.26810342
-0.17999931
0.030723016
-0.072611345
-0.016419248
0.27018686
-0.2176842
0.064735268
-0.052465682
-0.020387373
0.26334198
-0.23040434
0.11032285
-0.033097622
-0.0049600259
0.26712264
-0.22722728
0.10941031
-0.042683652
0.0060684732
)
;
    }
    bottomWater_to_rightSolid
    {
        type            fixedFluxPressure;
        gradient        uniform 0;
        value           nonuniform List<scalar> 
130
(
-0.012916783
-0.01465799
0.021821857
-0.004048044
0.0022138216
0.015882732
-0.0036133222
-0.0088947349
-0.0070833035
-0.0106096
-0.0050928171
0.0066937715
0.004326887
-0.015229136
-0.015863377
0.014437113
0.017147799
0.021684775
0.010639447
0.0040985467
-0.0058734527
-0.013747215
0.0048527194
0.0077088827
0.011059412
0.015824193
-0.0063181269
-0.0064664704
0.010938523
0.009945056
0.031743712
0.022410395
0.01936532
0.020347889
0.001019441
0.0095719734
0.016980827
0.034048036
0.028624595
-0.0080105846
-0.006194151
0.015128588
0.00023694073
0.021240902
0.012302586
-0.0028817512
-0.0051990921
-0.01450668
0.0047464629
0.010569684
0.011755025
0.03275406
0.0076927599
-0.018918511
-0.0086747633
-0.0028965253
0.025404284
0.026153386
-0.0099000265
-0.020940605
-0.022959992
-0.02410016
-0.013179089
0.016947298
0.013165518
-0.0016297288
0.0028119512
0.018595701
0.01646987
0.020251008
0.021136363
-0.0025312575
-0.024234457
-0.017360198
-0.013872814
-0.016090069
-0.0048659884
-0.018596061
0.012326911
0.020660433
0.0050593047
0.010744961
0.0015057279
-0.0031956497
-0.0039626788
-0.0059968414
-0.011244924
-0.021132581
0.0047976181
0.0035685193
0.0075559018
0.02126124
0.021566377
0.007894786
-8.0952577e-05
0.0081590523
0.020667725
0.012494438
0.0299452
0.013737613
-0.0026988697
0.015181066
0.018301703
0.024297947
0.028142422
0.022068745
-0.0011911134
-0.00076246875
0.010540246
0.019250438
0.022759555
0.013532475
0.022676596
-0.0034456374
-0.0096433825
0.014588659
0.012473721
0.0049891957
-0.0040411891
-0.008444032
0.0025396712
0.024988209
0.031979504
0.018422976
0.015194569
0.012049556
-0.016419248
-0.020387373
-0.0049600259
0.0060684732
)
;
    }
    bottomWater_to_leftSolid
    {
        type            fixedFluxPressure;
        gradient        uniform 0;
        value           nonuniform List<scalar> 
130
(
0.015318285
-0.0013199157
-0.0085765887
-0.02489183
0.0022416449
0.0014596118
0.0059376824
0.015157909
0.013416543
0.014401829
-0.012403013
-0.0085805679
-0.0080446163
0.040781974
0.00055316296
-0.009550313
-0.020621658
-0.0019191149
0.0080461397
0.012011327
0.032204847
0.023955881
0.024662667
0.011529534
0.0041479986
0.00061358925
0.017596623
0.019420659
-0.0072120149
-0.014515733
-0.00024245709
0.0075369991
0.01737278
0.028412732
0.028381854
0.010671754
0.035748442
0.023430861
0.030197593
-0.0074850525
-0.016561248
-0.025950034
-0.0053668578
-0.0083689432
-0.020501371
0.0011204735
0.01433209
0.0064609169
0.00041953918
0.024341339
0.026035775
0.025197142
0.010111716
0.0045100662
-0.0023973009
-0.0039036683
-0.011134073
-0.014606522
-0.0020534018
-0.0053966338
-0.012442475
-0.005260322
0.011069714
0.023822435
0.011954475
0.015882921
0.010068549
0.007785994
0.0073352048
0.0065374948
-0.021930895
-0.011745161
-0.0055096746
-0.015504052
-0.0080245746
-0.0069567817
-0.0099517497
0.0012719529
0.0025415512
0.015950056
0.0015980494
0.010346285
0.013723441
0.0014558919
-0.0044571515
-0.0026538984
-0.0098003673
-0.011063205
-0.01540227
-0.011130513
0.010777468
0.012059355
-0.0088442005
0.011102986
0.017394354
0.01530114
0.015915714
0.023074691
0.012416221
0.0027380371
0.0020135115
-0.011094344
-0.01140513
0.01333213
0.011335836
0.01066252
-0.0078787742
-0.0086687052
0.0086539791
-0.0049730969
0.017539811
0.024808447
0.017849535
0.01096717
0.017291649
0.010313335
0.003961704
0.016705327
0.013657149
-0.0075199415
-0.0090915311
0.00052802963
-0.01815219
0.0052683631
0.012983698
0.013233854
0.018331217
0.016329232
0.030305212
0.016342329
)
;
    }
    bottomWater_to_heater
    {
        type            fixedFluxPressure;
        gradient        uniform 0;
        value           nonuniform List<scalar> 
92
(
-0.015967843
-0.0021131017
-0.0027942054
-0.021420852
0.0032044592
0.033847392
-0.0010274972
-0.011888021
0.035562915
0.057088554
0.014792752
0.013850242
0.29753161
0.29748937
0.29424286
0.31222898
-0.27531696
-0.27472815
-0.26956001
-0.20632228
0.099634142
0.079519552
0.068150855
0.030266519
-0.030934244
-0.038139011
-0.074185627
-0.084594401
0.03320813
0.03320813
0.025985337
0.025985337
0.025508394
0.025508394
0.013887524
0.013887524
0.29338752
0.26860348
-0.25958718
-0.23059499
0.091453968
0.095694619
-0.050502498
-0.072748762
0.011954475
0.0076927599
0.30062638
0.28759572
0.28765344
0.28946233
0.27600256
0.28003987
-0.20836541
-0.25604018
-0.25650732
-0.24612203
-0.23285481
-0.24151643
0.025926052
0.085118507
0.10568245
0.087337157
0.10348327
0.10958077
-0.05697081
-0.038259354
-0.046824274
-0.043188014
-0.058057689
-0.059104603
0.0012719529
0.013517924
0.012389998
0.0065010217
-0.0016297288
-0.0014336705
0.013517924
0.012389998
0.0065010217
-0.0014336705
-0.0049771541
-0.016737999
-0.010053742
0.0018797329
-0.0037833146
-0.009121765
-0.0019350758
0.019688859
0.011179349
0.026688528
0.015869661
-0.0087675801
)
;
    }
}


// ************************************************************************* //
