/*--------------------------------*- C++ -*----------------------------------*\
| =========                 |                                                 |
| \\      /  F ield         | OpenFOAM: The Open Source CFD Toolbox           |
|  \\    /   O peration     | Version:  v2012                                 |
|   \\  /    A nd           | Website:  www.openfoam.com                      |
|    \\/     M anipulation  |                                                 |
\*---------------------------------------------------------------------------*/
FoamFile
{
    version     2.0;
    format      ascii;
    class       surfaceScalarField;
    location    "300/bottomWater";
    object      phi;
}
// * * * * * * * * * * * * * * * * * * * * * * * * * * * * * * * * * * * * * //

dimensions      [1 0 -1 0 0 0 0];
oriented        oriented;


internalField   nonuniform List<scalar> 
3858
(
-7.8800525e-05
0.00012322696
-3.8938496e-05
-0.00016832372
0.00013204357
-3.7112717e-05
-0.00022769544
0.00012879755
-6.3553493e-05
-0.00027424295
0.000141091
-8.8659601e-05
-0.0002580348
0.00011196913
-0.00012038919
5.7946453e-05
-0.00035502891
3.6493555e-05
0.00014391189
-0.0001200024
3.3045621e-05
4.4577101e-05
8.6624471e-05
1.0631309e-05
-0.00011532521
0.00014843779
1.033133e-05
-7.9307007e-05
4.6145007e-07
-3.8817586e-05
4.677829e-06
-0.00015063511
6.3566759e-05
-0.00014775096
0.00014184708
1.0036012e-05
-0.0001719444
-2.6251386e-05
5.0017577e-05
2.1910324e-05
-0.00026267308
6.3941405e-05
-4.8603655e-05
2.1822374e-05
4.4514064e-05
-0.00012662909
-2.9381054e-05
0.0001041194
4.9058741e-05
-0.00026784511
8.8638541e-05
0.00026277488
-0.00024970893
3.253266e-05
0.00021687203
4.2823964e-05
3.7044485e-06
0.00023273374
-6.7700612e-05
5.1044301e-05
0.00020108622
-6.287426e-05
9.471753e-05
-2.6177884e-05
0.00012443017
0.00010244107
-0.00018676553
2.8836515e-05
0.00013003704
-0.00017469583
-0.00012210619
0.00010866141
-3.4852877e-05
-0.00020712502
6.5637667e-05
0.00011584602
-0.00024551505
9.4228492e-05
0.00017486964
-0.00015403368
9.5894918e-05
0.00026171187
-0.00019114855
0.00010516331
0.00016622851
5.500261e-05
4.3848062e-05
0.00016490131
3.24158e-06
-0.00013662939
0.00033208682
-7.2230464e-05
-0.00033208824
0.00041461084
-8.7108418e-05
-0.00031535372
0.00016501186
-5.2948829e-05
-0.00027939653
0.00014632806
-4.1194249e-05
-2.0842686e-05
-7.3156326e-05
-7.3428386e-05
0.00031634244
-0.00073715439
4.4940359e-05
0.00042106687
-0.00035218457
0.00012745774
0.00012319053
0.00029151802
9.2982783e-05
-0.00031362251
0.00060011647
-1.4865645e-05
-0.00023036174
-0.00011546054
3.2661224e-05
-1.6014856e-05
-0.00045857105
9.3589061e-05
-0.00013904971
0.00016175842
0.00010312351
-8.0682439e-05
-0.00020409675
0.0001194781
0.00021680794
-0.00059304235
3.28789e-05
-2.6505392e-05
0.00026883471
-3.6990061e-06
-0.00017542395
-0.00014301645
0.00026255396
-3.008731e-05
-0.00057210959
0.00015892784
0.00021077368
-0.00052766709
3.7097165e-05
0.00023061479
8.0175569e-05
-5.7192711e-05
0.00033372205
-0.00023113285
6.0324982e-05
0.00030805154
-0.00020270359
0.00016549984
-0.00024192901
0.00051178943
0.0001626213
-0.00049986777
0.00011977919
0.00016699609
-0.00035829047
-0.00036362848
9.9944984e-05
-0.00018747784
-0.00045075482
7.2817161e-05
1.9850826e-05
-0.00052672958
7.388585e-05
0.00010442491
-0.00039099367
0.00015238588
0.00024241906
-0.00050727149
0.00017812878
0.00024306979
-0.00010511615
0.00015946801
0.00028464469
0.00012332641
-6.5093197e-05
0.00026144046
0.00013573955
-6.8676364e-05
0.00031786777
0.00010032624
0.00014848516
-0.00019876848
0.00014661882
0.00046825959
-0.00027191634
9.8469976e-05
0.0003729422
-5.3078551e-05
7.5239615e-05
-0.00010119258
-0.00015090792
-0.00011211169
-0.00024493638
-0.0001234756
-8.4965171e-05
-0.00011341609
0.00018580236
-2.5804636e-05
-1.4099493e-05
0.00050542437
-4.6244838e-06
-5.1194922e-05
-0.00011888502
4.0519911e-05
-0.00020778796
-0.0003074994
5.5213965e-06
0.00010274409
-0.00024136117
9.2587557e-05
0.0003246903
-0.00046042544
3.4382483e-05
0.00020465562
-0.00043351989
-3.9487777e-05
0.00034034762
7.0375005e-05
6.2767709e-05
0.00020041028
-9.3629246e-05
9.0550142e-05
-2.1028473e-05
-0.00040089101
5.0220177e-05
-3.9108479e-07
-0.00050481023
-4.349424e-05
0.00023000339
-0.00015690756
6.6886562e-06
9.8079276e-05
-0.00010311922
3.9104929e-06
0.00010231126
-0.00025075431
4.3818737e-05
0.00013261796
0.00039022571
9.1257028e-05
0.00010100837
3.2187377e-05
0.0001192014
-6.0212178e-05
-0.00023777321
3.5365281e-05
-9.4080206e-05
-0.00043472265
1.7835846e-05
-8.4668627e-05
-0.00050779745
-2.8343729e-05
-0.00010534057
-0.0003408604
-2.9461353e-05
-0.0002789195
-0.0002131988
-0.00012049378
-0.00020503245
-0.00010214476
-7.6858458e-05
0.00010802826
-2.8416029e-05
-0.00020685243
0.00023920221
0.00022909068
-0.00017216392
7.1100811e-05
0.00021207845
-0.00013992389
-0.00031531461
8.43061e-05
1.8904306e-06
-0.00039714463
-1.6586036e-05
-8.8685118e-05
6.3815866e-05
-2.6318871e-05
-0.00025116625
-2.5249789e-05
3.6823003e-05
-0.00022816112
-6.2465679e-05
-8.4015052e-05
-7.3961057e-05
8.176738e-05
-5.0165083e-05
0.000228975
0.00015132778
5.1160535e-05
9.1291623e-05
9.1907649e-05
-7.3109274e-05
5.4036425e-05
-0.0002891437
1.889951e-05
0.00018312974
-0.00035095675
-1.9497732e-05
0.0002249038
-0.00047051823
-3.168126e-05
0.00023163443
-0.00042455534
-1.5695156e-05
0.00015244601
3.531495e-05
0.00011424848
7.1079208e-05
2.6268875e-05
-3.8531313e-05
9.6675213e-06
-0.00043381944
9.434013e-05
8.4583766e-05
-0.00050211977
-7.7606696e-05
0.00016528869
-0.00014854682
-8.906565e-05
-1.328832e-05
0.00017855546
-0.00010309766
1.1963874e-05
-0.00024123918
-3.4767314e-05
0.00030050757
6.3483548e-05
3.8198469e-05
4.931261e-05
0.00030861757
-2.5235227e-05
-0.00014073854
-6.7653355e-05
1.9931289e-05
-0.00011966702
-0.00040718005
-4.8614139e-05
-0.00012854934
-0.00048565398
-1.3261176e-05
-0.00014277155
-0.00030586757
-2.0770656e-05
-0.00018620619
-0.00013466599
-3.5098207e-05
-0.00021470143
1.3820879e-05
-8.7470418e-05
-4.9209505e-05
-5.7463684e-05
0.00014716412
9.2038095e-05
0.00015395345
6.4311475e-05
-0.0001687902
7.429041e-06
-0.00046409822
-0.00010183661
-0.00032444655
-7.5835804e-05
-0.00024203427
-0.00010766207
-0.00016055915
-0.0001439408
4.4311685e-05
-0.00012310345
0.00025896683
-6.3327358e-05
0.00044352644
-9.2651961e-05
0.00034092974
-0.000186547
0.00022538697
-0.00023541396
4.7954626e-05
-0.00029308588
-3.5833922e-05
-0.00034076679
0.00018849703
-0.00018901599
0.00037419077
-0.00015942486
0.00014597175
-0.00020560042
-0.00020529844
-0.00015084957
-0.00026650612
-8.7339144e-05
-3.0937346e-05
-5.7013306e-05
-0.00011878954
-0.00015338698
3.9500638e-05
-9.4806623e-05
0.00038547803
-3.735983e-05
0.00039557835
-7.7753682e-05
0.00011049051
-0.00012209222
-0.00023566309
-0.00013950041
-0.00034579479
-0.0001957359
-0.00029026136
-0.00019019945
-0.00010861865
-0.00016782184
-0.00015782817
-7.359519e-05
0.00013242501
-9.1675679e-05
-0.00021553825
0.00016156589
-5.0048205e-05
-0.00032302867
9.9554578e-05
-4.6574506e-05
-0.00022686505
-0.0001631657
-1.6082483e-05
-2.1281155e-05
-0.00024186652
-8.2718799e-05
0.00016195214
-0.00015387861
3.6277945e-06
0.0001592859
6.157645e-05
-2.761223e-05
7.9155003e-05
0.00011164584
-2.2903186e-05
-2.6978138e-05
0.0001463602
-3.1254359e-05
-8.8845959e-06
3.8314947e-05
-9.6167894e-05
-4.9152026e-05
0.00010015031
1.562063e-06
-0.00020631521
0.0001616277
3.8473679e-06
-0.00026363314
9.943617e-05
8.0577075e-06
-1.3342616e-05
-0.00033327015
0.00014206033
1.7944167e-05
-0.00012397657
0.00013241859
-0.00012707128
9.9782263e-05
0.00014509496
-0.00010983885
-1.1344814e-05
7.8092986e-05
9.1355207e-05
-0.00021148741
3.7304836e-05
0.00025028386
-0.00021760896
5.9295861e-05
0.00031361298
-0.00010722086
9.3056475e-05
0.00021761933
8.9149994e-05
0.00010157689
1.7486864e-05
0.00015413794
0.00014694808
-0.00013313128
7.0964818e-05
0.00020743688
-0.00013800409
-7.15612e-05
0.00018384435
3.3288824e-05
-0.00019567683
8.8301777e-05
0.00019170495
-0.00019595994
0.00013195835
0.00027732399
-6.8584689e-05
7.7551085e-05
0.000234797
0.00011120686
3.8540082e-05
0.00011282727
0.00018044816
-1.3042431e-05
0.00015591364
-3.9275361e-05
-2.3956591e-05
7.9869911e-05
4.2812222e-06
-0.0001623116
0.00019685795
1.5954531e-05
-8.7106466e-05
-7.2351173e-05
4.375179e-05
0.00011549077
-0.00047629506
6.9337876e-05
0.00034778554
-0.00055972068
1.2131e-05
0.00059676341
-0.0003596795
1.7633845e-06
0.00049746102
0.00028125394
7.0826373e-06
0.00011234751
0.00065295449
-6.3212354e-05
-9.3742628e-05
0.00049135145
-0.00015376675
0.00013905652
-0.0001185804
-4.3242571e-05
-3.5960396e-05
0.00038101778
-1.2261495e-05
-0.00032270894
0.00054943316
2.0665894e-06
-0.00025478308
3.1740373e-05
0.00011924804
1.788176e-05
-0.00075346764
0.00018041155
-2.5911918e-05
-0.00030019797
0.00021631607
-0.00035019891
0.00050497893
0.00018164429
-0.0003672773
0.00010732805
5.7333373e-05
-4.2529954e-05
-0.00048594125
-1.3196343e-05
0.00016796122
-0.00051207418
2.6781342e-05
0.00037899192
-0.00037311666
0.00011519008
0.0004011385
5.6262673e-05
0.00017624058
-0.0001375324
0.00069991307
0.00015551708
-0.00049049964
0.0004193773
0.00017155085
-0.00033231637
-0.00027184108
0.0001420416
-5.7588774e-05
-0.00045941458
6.1827311e-05
0.0001805749
-0.00048556861
0.00012533083
0.00036539212
-0.00025929622
0.00015828017
0.00039475601
0.00011717311
0.00014279863
0.00021982089
0.0004390953
7.5755973e-05
0.00052472386
-2.5662926e-05
7.1220609e-05
-1.6701794e-05
0.00016109065
0.00012766095
0.00011181727
0.00012892657
0.00031624158
-0.00029929593
0.00018498294
0.00033172991
-0.00045018942
5.6876e-05
1.1431739e-05
-0.00012452033
-3.9662563e-05
-0.00011347459
-0.00010651978
-0.00024036509
5.6466727e-05
0.00017584242
-0.00014949496
0.00011181317
0.00064135684
-6.9553425e-05
0.00014889733
0.00041529015
3.4352661e-05
0.00010314683
-9.8970735e-05
6.6660754e-05
3.5048206e-05
0.00022827188
0.00022636593
0.00020914213
0.00042440458
4.3522214e-05
0.00035407864
-0.00010409166
2.5278009e-05
-7.6360697e-05
-0.00012990566
-0.00023261041
-0.00018022683
-3.1950546e-05
-0.00010161358
-5.5233065e-05
0.00032715227
0.00014338304
-2.915629e-05
-5.7511565e-05
0.00018898302
-4.191799e-05
-0.0004523377
-6.4336084e-05
-4.4457075e-05
-0.00036908695
-0.00013375948
-0.00017296647
-9.6455383e-05
-0.00014424138
-2.4352202e-05
-1.4775696e-05
-3.375716e-05
3.6954179e-05
0.0006732817
5.658202e-05
0.0001324033
0.00030699671
0.00013613288
8.3263773e-05
-0.00010420927
-8.3127009e-05
-9.9887745e-06
-0.00033123433
-1.7091876e-05
-5.8960307e-05
-0.00038656545
-7.8375376e-05
-0.00022867328
-0.00010048397
-1.8560641e-05
-0.00014308312
2.4620474e-05
-0.00011353132
-7.1486317e-05
0.00034759004
-5.695002e-05
0.00047916909
-5.4347584e-05
-0.00022264215
0.00037132662
6.3704416e-05
-9.5271747e-05
0.00012929127
6.7234047e-05
-7.5752073e-05
-0.00028928673
5.4777227e-05
-5.2054092e-05
-0.00047071312
-1.9760323e-05
-0.00011195676
4.4478851e-05
-0.00013541539
-0.00024363152
0.00014418234
-8.2204359e-05
-0.00011478947
0.00014600018
-0.00018301486
0.0001433932
0.00039617685
-6.3167751e-05
0.00032439819
0.00024196438
4.3481311e-05
4.0437807e-05
0.00016788403
-5.6003648e-05
4.2612642e-05
4.7695482e-05
0.00019730108
0.00038493744
-1.873216e-05
8.1314229e-05
0.00039697366
-0.00012473169
-2.3077445e-05
0.00023384516
4.8196506e-05
-3.0668816e-05
2.207848e-06
0.000327602
-1.3666743e-05
3.7359187e-05
0.00016094034
9.2529293e-05
-7.0751336e-05
-9.7609008e-06
0.0001547
-8.5432354e-05
-0.00043071441
-8.4548968e-05
-1.5470403e-05
-0.00038920354
-0.00013891101
-0.00010176814
0.000115412
-0.0002286673
-0.00020921914
0.00023760546
-0.00017969747
0.000111627
0.00036122761
2.9406437e-05
0.00019729195
0.0001751316
2.0964931e-05
3.7314868e-05
0.00011478012
-3.908102e-05
-3.9516028e-05
-0.0002782362
-2.4781389e-05
-9.0302982e-05
-0.0003571729
8.1331997e-06
-0.00030404766
0.00013337729
-4.0887278e-05
-0.00039131439
0.00015839972
-8.1610755e-05
-0.00019928079
0.00015318067
-8.5094669e-05
0.00022024966
2.1749451e-06
0.0002387879
0.00022457681
0.00037726078
5.5129863e-05
4.7713607e-05
4.7689478e-05
-0.00043172596
-9.3110156e-05
-0.00040237869
-6.0704226e-05
-0.0002983174
-6.7541015e-05
-0.00017123843
-0.0001250196
0.00012558787
-2.37529e-05
0.00028448063
1.9744279e-05
0.00032906868
3.0644021e-05
0.00025768121
-6.7464034e-05
0.00014432431
-0.00014078921
-2.376382e-05
-0.00024972944
-2.2734042e-05
-0.00029360005
0.00026473482
-0.00014888284
0.00039416647
-0.00012791617
0.00034180002
-0.00016299487
-7.7791939e-05
-0.00016197201
-0.0004197148
-0.00013461982
-0.00027639267
-8.4923434e-05
-0.00012153287
-7.0641314e-05
0.00015532261
-1.0434481e-05
0.00028876121
4.3331625e-06
0.00034542494
-1.9637301e-05
2.7939049e-05
-8.284255e-05
-0.00037085607
-9.7878208e-05
-0.00033633013
-9.6884575e-05
-0.00025886232
-0.00010926756
-0.0001557975
-0.00011770601
-9.3376016e-05
-0.00014944741
0.00013858327
-7.6478433e-05
-0.00026460409
0.0001034127
-3.2615935e-05
-0.00016830007
-0.00016016595
2.0036101e-05
-8.7698276e-05
-8.6209695e-05
-8.5830534e-06
2.0573975e-05
-0.00011827362
-7.2282722e-05
9.2555518e-05
8.8820701e-06
-7.9296664e-05
5.4839883e-05
0.00013027225
-0.00011985356
-3.4129127e-05
0.00011870925
-5.4560497e-05
-0.00010196455
0.00015259758
-0.0001134825
0.00010431802
-0.00025797182
-4.6884861e-05
0.00016710646
-1.9354638e-05
-4.3686655e-05
6.6150297e-05
0.00013170719
-2.8214777e-05
-1.5738236e-05
0.00011757808
-3.056664e-05
-4.1413455e-05
0.00010792801
5.8685271e-05
-3.4611641e-05
5.7322299e-05
6.6116095e-05
-9.5353029e-05
0.00014321507
6.0570893e-05
-1.4217457e-05
-4.5033406e-06
-3.03376e-07
0.00023750085
-0.00023835171
2.197843e-05
0.00023738104
2.9820535e-05
3.3857845e-05
0.00015302183
0.00016529809
1.5349561e-05
8.3548625e-05
0.00016535787
7.678258e-06
-2.1484044e-05
0.00014375922
0.00010910624
-0.00014935424
0.00013734822
0.00019891914
-0.00018476101
5.0355471e-05
0.00017119574
7.166011e-05
-0.00028860433
0.00011797305
0.00018913157
-4.5952085e-06
1.9724041e-05
0.00020243543
0.0001314308
-6.7216563e-05
0.00017510817
0.00015417301
-8.7707359e-05
0.00010643665
0.00013826832
-8.2852664e-05
0.00014045737
-7.3467482e-05
-0.0001799833
0.00023053315
9.2314635e-05
-0.0001352324
-5.2422247e-05
0.00012703858
7.0399409e-05
-0.00045489681
0.00013285084
0.00024613432
-0.00024455885
5.1952123e-05
0.00055086811
-0.00037431769
-3.6558719e-05
0.00059282964
7.8146927e-05
-0.00010946301
0.00022076176
0.00064690838
-0.00013748561
-0.00018979313
0.00063694573
-0.00017089394
-7.976691e-05
5.025037e-05
-0.00016144576
0.00032727781
-0.00066456658
-4.3692527e-05
0.0004446157
-8.4425231e-05
-6.4528787e-05
0.00014081742
0.00054368942
-0.00010611736
-0.00017247716
0.00056168533
-1.1564626e-05
-8.6031603e-05
9.858662e-06
0.00019203534
-7.5443933e-05
8.1659631e-06
0.00025488473
-0.00043413232
0.00063869822
4.4849526e-05
-0.00039767412
1.90493e-05
-2.6774595e-06
5.2226586e-05
-0.00062258041
-7.8868352e-05
0.00028021765
-0.00018271304
1.1323855e-05
0.00034587992
0.00016246879
5.2357116e-05
0.00021213887
0.00042522039
5.0119106e-05
-0.00017911923
0.00063087328
5.9661129e-05
-0.0004818699
0.00054235062
6.9299125e-05
-0.00032614957
-1.7322269e-05
5.3999008e-05
0.0001395318
-0.00068758087
-4.8775118e-06
0.0003962668
-0.00010622747
-2.9771911e-05
0.00036129759
0.00040096264
-7.6282472e-05
0.00030374195
0.00052581083
-0.00017128357
9.0591106e-05
0.00060392641
-0.00017675129
0.00046128467
-0.00025589912
0.00020356389
0.00011885707
6.920284e-05
0.00024091704
-4.9605944e-05
8.8757122e-05
0.00015727955
-0.00031042444
0.00012414805
0.00022389151
-0.00039381919
0.00013952438
1.5963858e-06
-0.00019623881
4.5536821e-06
4.918816e-05
-7.8875727e-05
-0.00013093421
0.00016852451
0.00054323044
-0.00016515337
0.00030717824
0.00053466433
-0.00010592575
0.0003504663
4.3963695e-06
3.6918606e-05
-5.9012567e-05
-0.00026438498
7.5958024e-05
-0.00010927937
-6.7586452e-05
0.00025979396
-2.393842e-06
0.00047211741
8.2087043e-06
5.2887023e-05
0.00052014812
1.1534361e-05
1.9011772e-05
-5.7919445e-05
-0.00013095705
-2.9733536e-05
-7.8933432e-05
3.4231133e-05
8.8422158e-05
0.00051886741
0.00014505816
4.9064023e-05
-3.5984766e-05
0.00028337523
-0.00020286369
-0.00033666087
-9.8327903e-05
-8.8763284e-05
-0.00028544635
-0.00014512657
-7.0020964e-06
7.40599e-05
-0.00013759367
5.8947634e-05
0.00037539655
-4.9883042e-05
5.289972e-05
0.00063527598
5.8227239e-05
0.00020988992
0.00047250705
4.8986242e-05
0.00028359928
-3.674799e-05
-0.00013741065
-0.00012536067
-0.00012057381
-0.000175139
-6.4195855e-05
-0.00015547983
-9.0287848e-05
2.9132132e-05
0.00024514075
4.393324e-05
2.5048072e-05
0.00045460048
-3.8236926e-05
7.4165404e-05
0.00057966105
-8.1802e-05
0.00036686543
0.00011423704
0.00014028125
0.0001512628
-0.00010898257
2.3000224e-05
0.00026694198
-0.00013203285
3.0582801e-05
-0.00024026043
-2.2969361e-05
8.243165e-05
-0.00043249716
-3.2931201e-05
-2.2026051e-05
-8.2129707e-05
-0.0001450668
-0.00015690906
0.00015056799
-0.00017676507
7.7237488e-05
0.00029843623
-0.00017236719
0.00031351405
0.00030467679
-6.9456765e-05
0.00026433109
7.6760044e-05
2.0300608e-05
6.3657294e-05
-0.00019893743
7.9222606e-05
-0.00012208319
0.00021918219
9.6272937e-05
6.3981573e-05
0.00025304405
0.00011432283
0.00037317191
0.00023334355
-4.5463203e-05
0.00023568696
0.00020586934
-0.00015697264
-4.1695242e-05
0.00032254267
-0.00013776064
0.00020128404
0.00018686215
0.00018155528
3.7370525e-05
0.00024649877
3.6129983e-05
-0.00012765888
-0.0002316458
-2.4534626e-05
-0.00015404291
-0.00030021911
-9.7754199e-05
-0.00016587497
6.6144773e-05
-0.0002089201
-5.7678306e-05
0.0002164219
-0.00012891947
0.00011678141
0.00038825787
0.00010196485
0.00027808026
0.00023033621
0.00010183692
0.00010296709
0.00014271295
-4.3428802e-05
-0.00016107992
0.00013216243
-1.3470645e-05
-0.00022606784
-6.6606067e-05
-1.575267e-05
-0.00014764245
9.3783656e-05
3.204439e-05
-0.00011976395
0.00027249502
7.2616178e-05
-7.3124658e-06
0.00037585942
6.2554411e-06
0.00019099876
0.00017072914
0.00012530207
0.00025053753
0.00034012202
0.0001072519
0.00017047136
-2.2920292e-05
-0.00023876045
-0.00011637551
-0.0003325217
-4.9072679e-05
-0.00024712731
-2.3674163e-06
-3.4953988e-05
-3.8756684e-05
0.00021004509
3.5924817e-05
0.00015926185
0.00014728757
-0.00014648751
0.00013745596
-9.2974457e-05
9.8205116e-05
-5.9959081e-06
2.5276298e-05
3.2619372e-05
-5.5001166e-05
7.4997749e-05
-0.00013010909
0.00027722367
-2.8566094e-05
0.00035716738
-2.0997712e-05
0.00046303491
-2.2363627e-05
0.00012907041
-5.9653303e-05
-0.00026651039
-3.9258115e-05
-0.00025102314
-3.4265901e-05
-0.00015687595
5.163341e-05
0.00010045792
0.00012048951
0.00021053288
0.00012459441
0.00017231492
0.0001612936
5.8174811e-05
0.00016345998
-0.00021625109
0.0001099416
-0.00030391986
8.4567824e-05
-0.00021864427
7.7951853e-05
-1.7516425e-05
5.7025552e-05
8.0106308e-05
-0.00010556975
0.00014745801
-0.00011360244
-0.00021151344
0.00014984173
-7.1395392e-05
-0.0002861328
0.00012392507
-2.3239496e-05
-0.0003134451
9.1408088e-05
-6.4542966e-05
-4.4419582e-05
-0.0002717455
-6.9088486e-05
6.1658182e-05
-0.0001374427
-4.9631073e-05
-6.5815729e-05
5.1543414e-05
-4.6674548e-05
-0.00019228398
6.4786693e-05
5.852409e-06
-0.00011531863
-0.0001598389
-3.268941e-05
8.2428658e-05
-0.00026730009
1.9452885e-05
0.00025860268
-0.00024740575
2.3512839e-05
0.00018151274
8.8193554e-05
-4.0819151e-05
5.3941241e-05
0.00015897661
-6.4511517e-05
-4.8180203e-05
0.00015762405
-0.00014386346
0.0001587171
-0.00016283974
7.7252056e-05
0.00011141563
-0.00028096621
0.00027986035
-0.00021689628
6.748467e-05
0.00025089427
8.7669595e-05
-2.5731316e-05
0.00018454957
0.00015850123
-7.7622209e-05
0.00010666354
0.00014731401
-6.2435857e-05
3.1831805e-05
0.00014713492
3.6171827e-05
-1.8464013e-05
0.00016238636
8.6143833e-05
-4.9783158e-05
0.00018039348
2.3468548e-05
-0.00010388412
0.00017980359
-5.9979171e-06
-5.3182416e-05
8.3063544e-05
-0.00011256761
0.00019878632
-0.00018958049
-0.00013176879
0.000228671
5.1856006e-05
-0.00016826966
0.0001187299
0.00016342371
-0.00013470409
0.00010828446
-6.1272374e-05
-0.00020593481
0.00039800386
4.7703585e-05
-0.00030851123
0.00029189258
8.7564142e-05
-0.00026700371
0.00011394453
0.00010132386
-7.5726848e-05
-8.5151644e-05
3.7234991e-05
0.00027149121
-0.00061423534
-4.1286926e-05
0.00042305023
-0.00031627003
-8.2194698e-05
-3.6894784e-05
0.00050611285
-0.00013211003
-0.00029170019
0.0001897159
-4.1017747e-05
-0.0001162018
-0.00045588495
-4.0898087e-05
9.9314258e-05
-0.00053122051
4.711846e-06
0.00038390228
-0.00063158185
3.5059299e-05
0.00043575313
3.5945234e-05
-0.00010571988
0.00017305923
0.00060851575
-0.00019840987
-0.00013480737
0.00065752599
-0.00036163474
0.0006404292
-0.00031378388
7.4250727e-05
5.1763137e-05
-0.00064919068
0.00032933889
-0.00054806948
-2.52709e-05
0.00047994534
3.1517085e-05
-8.3130081e-05
0.00032333204
0.00050639863
-0.00013892698
0.000120681
0.00044996955
-4.9885388e-05
-0.00010490693
0.00047668806
-4.4304073e-05
-0.00027471811
0.00050242346
-0.0001009268
-0.00032957822
0.00043398164
-0.00014472905
-0.00030704366
0.00025497176
-0.00010258025
-0.00013967729
1.4879295e-05
-0.00012895404
0.00029137488
-0.00052137853
-0.0001755366
0.00036240059
9.6768709e-05
-0.00028722201
3.8909692e-05
0.00061422764
-0.00030406433
3.890892e-05
-0.0001476139
0.00010312459
0.0003179759
4.6106213e-05
0.00026299198
0.00010036339
0.00012041892
0.0004491569
-9.5315222e-05
0.00014724288
0.00042612106
-9.3386962e-05
0.00017079553
-2.8008673e-05
-0.00018321633
2.7664408e-05
-3.5310558e-05
-0.00037689124
-6.3011124e-05
0.00014366362
0.00032785312
-0.00016586782
0.00020470292
8.5551329e-05
-6.2800482e-05
0.000101843
-0.00031532891
-7.7750796e-07
-5.4109171e-05
-0.00029637197
-2.9383452e-06
-0.00029915537
-0.00013936091
1.2619225e-05
-0.00012874517
-6.6303921e-05
-5.9952325e-05
3.3675194e-05
0.00051844713
-6.0817375e-05
-4.5616283e-05
0.00060586042
9.9230936e-05
0.00052981312
0.00032328586
-4.7460342e-06
5.1553779e-05
-9.4083365e-05
-0.00013860811
-0.00032006601
-0.00013616947
-2.5595965e-05
-0.00022041269
-6.2089332e-06
3.5171342e-05
0.00040449473
-9.6457071e-05
4.6076313e-05
0.00035709852
3.2083031e-05
4.2097428e-05
0.0003851806
0.00015371359
2.6962262e-05
0.00041067939
0.00015586548
5.8889461e-05
0.00029708374
-3.2439957e-05
0.00016111603
3.7573295e-05
-5.996712e-05
0.00024062585
-0.0001699491
1.5030712e-05
-6.4335695e-05
-0.00012040764
-5.2076123e-05
-7.3635876e-06
2.8476812e-05
-2.6917152e-05
5.442813e-05
0.00053273109
-6.2097198e-05
-4.0385112e-05
0.00024795919
0.00022049957
5.0450351e-06
-1.655128e-05
0.00033421508
-0.00012882394
-1.6561038e-05
0.00042932642
-0.00020686023
-6.5356927e-06
0.00023529015
0.00015377504
-8.6056939e-05
9.8147863e-05
-7.3202337e-05
-0.0001179385
0.00010973886
-0.00041616845
-0.00014907885
0.00024660721
0.00014935061
-0.00013073303
0.00012253869
0.00031246344
-0.00017230035
-1.2871787e-05
-0.0002182572
5.8639379e-05
-5.734354e-05
-0.00028644427
0.00011376667
-0.00014646562
0.00012582771
-7.9793596e-05
-0.00026524768
0.00014677543
2.0025556e-05
-7.0275835e-05
0.00025955508
1.8457008e-05
6.9475316e-05
0.00030913663
0.00029763595
0.00016389185
0.00029571849
0.00017872671
0.00010874858
0.00012901655
-5.497228e-05
-0.00025293725
7.2057477e-05
-0.00017421505
-0.00024015771
4.1233615e-05
-8.1164232e-05
8.0896826e-05
2.1626989e-05
6.6797063e-05
-4.0178916e-07
8.0619557e-05
9.3057343e-05
0.00022547115
0.00023541401
0.00015790079
0.00019261982
0.00025505306
0.00027672817
2.1869667e-05
0.00011295787
0.00030843823
-9.6679751e-05
8.9072333e-05
0.00024624367
-0.00015574745
3.2240205e-05
-3.5869689e-06
0.00012884857
3.2618792e-05
-9.2629518e-05
0.00017612088
1.4014624e-05
0.00022054586
0.0001893009
3.6510223e-05
0.00027437316
7.6516704e-05
0.00016851714
8.7065421e-05
0.00014224226
4.7028344e-06
7.2663049e-05
-0.00016020131
0.00026514477
-0.0001550822
0.0002735369
-0.00013066715
-6.2880931e-05
-8.2118032e-05
-3.6793945e-05
8.4506941e-05
0.000228474
8.3120321e-05
-4.8700431e-05
0.00020620481
-0.00035352171
0.00015583298
-0.00024786973
0.00011838085
-0.0001758789
0.00010006091
-7.9256604e-05
0.00010793163
9.9770944e-05
0.0002350967
0.00039282571
0.00049947863
0.00018373803
3.1500703e-06
-0.00010690497
1.122717e-05
-4.7545671e-05
-1.2728355e-05
-4.5018668e-05
4.8704617e-05
0.00013046337
0.00017047863
0.00028801329
0.00015966429
0.00026054912
0.00021062744
5.8405984e-05
0.00026892334
-0.00022219231
0.00023479243
-0.0002424153
0.00023363936
-0.00019316643
0.00020482384
-7.1168087e-05
0.00012432808
0.00028331137
-0.00011104432
0.00015210113
-0.00015035825
-0.00023787682
0.00018134748
-0.00012098481
-0.00032065832
0.00013293251
-6.5553135e-05
-0.00012728967
-0.00027940225
2.3048069e-05
6.3329986e-05
-0.00026668502
6.3510542e-06
0.00016015108
-0.0001906728
4.2788126e-05
1.0785982e-05
8.697025e-06
9.2025366e-05
-0.00018812859
8.6579449e-05
0.00011743511
-0.0001537148
-0.00013082802
6.2679422e-05
5.639713e-05
-0.00031762259
0.00012342652
0.00014811102
-0.00012670484
5.5124354e-05
8.4152931e-05
8.3389311e-05
-6.3217207e-05
0.00010536587
-8.7900314e-05
0.00010579786
4.0657652e-05
-7.5370294e-05
3.7587986e-05
0.00015002612
-0.0001019412
-1.9523527e-05
0.00014552937
-0.00016202411
-0.00010776237
0.00016050171
-0.00013120786
-0.00018464765
0.00016192842
-4.4181335e-05
-0.00018205308
9.6054263e-05
-7.9291839e-06
-0.00020800764
0.00013013627
-7.768738e-05
-0.00017657109
4.8070814e-05
-8.3775534e-05
2.0097119e-05
-0.00030128548
-9.0318657e-06
0.00015977507
-0.00020557828
-6.5589796e-05
0.0001347063
-7.2099104e-05
-7.112203e-05
-7.2256718e-05
9.6484674e-05
-2.3425587e-05
-0.00023632283
0.00010113873
-0.00025494752
0.00048733526
-3.258303e-05
-0.00038506823
0.00038370733
1.5325009e-05
-0.00022733621
-5.5584246e-06
8.2082769e-05
7.1771054e-05
-0.00065198608
0.00011071155
0.00025892804
-0.00051640082
2.1271889e-05
0.00044729734
-0.00047444418
1.3207378e-05
0.00012038489
0.00019378984
9.7096036e-06
-0.00025874986
0.00035416703
7.052943e-05
-0.00010851884
-0.00034636859
2.4411456e-05
7.7200039e-05
-0.00065512257
0.00015649296
0.00025822827
-0.00032860497
5.5931205e-05
0.0002471629
0.00014895923
-0.00016022442
0.00036077548
-0.00020665657
0.00020222758
-0.00012587276
-6.0968064e-05
0.00028023784
3.052676e-06
-1.4166894e-05
7.4006379e-05
0.0002848319
-7.1998039e-05
-0.000197779
0.00037036439
1.2037323e-05
-0.00018746735
4.8513034e-05
5.8799665e-05
-0.00017341074
-2.8170402e-05
9.2412586e-06
-0.00032253299
0.0002495338
-0.00011500432
-0.00025570345
1.3292557e-05
-0.00013463153
5.1003519e-06
-0.00068345208
-7.5912527e-06
0.00020416217
-0.0004587597
-0.00012141701
0.00019614157
-0.00018919981
-0.00016210071
7.1958316e-06
0.00012474468
-0.00014337861
-0.00056191632
0.00018517541
0.000111293
0.00043654217
-1.4393705e-05
0.00032085951
0.00026746031
2.7099429e-05
0.00053145809
-5.291788e-05
-1.5996248e-05
0.00023015265
-0.0001043098
-7.5575315e-05
-3.8396709e-05
-0.00016634205
-5.3844997e-05
-6.8602332e-05
-0.00046477075
-4.2478927e-05
2.1782977e-05
-4.7328421e-05
-1.5134861e-05
0.0001114939
0.00019724818
4.4074476e-06
0.00014386885
-0.00036646644
-1.3054603e-05
-0.00012447219
-0.00018733745
-0.00020238241
-0.00027562491
-8.2845495e-05
-8.1987518e-05
-8.4991189e-05
-9.5350738e-07
-0.0001006733
0.00023529925
-2.0332331e-05
-0.0001184474
-0.00014142855
-2.1662656e-06
6.6636179e-05
-0.00035306692
0.0001648271
0.00013018823
8.276089e-05
4.2061898e-05
0.00014803652
0.00029182566
9.2773471e-05
0.00015556494
-1.8423031e-05
0.00021312124
5.7691698e-06
-3.7921168e-05
0.00031541202
6.300727e-05
1.4861227e-06
0.00015836961
0.00026098939
-0.00040156152
0.00015690483
0.00010293834
-0.00056348184
5.3111494e-05
6.3265944e-05
-0.00038078954
-9.0373903e-05
0.00014582347
-0.00021950728
-7.9167228e-05
0.0002556192
-2.3291423e-05
-2.3856861e-05
-8.7221395e-05
2.8883442e-05
0.0002506528
0.00014496596
2.4372119e-05
0.00043320808
2.4262333e-05
4.4081655e-05
0.00035106664
4.3305518e-05
-2.0617657e-05
0.00021938324
4.0079978e-05
-9.876331e-05
0.00012631507
-0.00010305776
-8.8154627e-05
0.0001097956
-0.00047033034
-0.00012699978
0.00011901794
-9.9655683e-05
-8.7628101e-05
6.7519967e-05
0.00013044851
-5.4002694e-05
6.3034419e-05
-0.00037362218
7.0280676e-05
7.996561e-05
-7.1831271e-05
-1.8670687e-05
-7.8890341e-05
0.0001797985
-0.00018358163
-0.00018434263
0.00024812521
-0.00012360086
9.1709748e-05
-2.22961e-05
-0.00014456594
7.7351696e-05
-2.156802e-06
-0.00013741686
-0.00041011534
9.1132963e-05
3.4939827e-05
-0.00015454985
8.6581062e-05
0.00030830714
3.5267505e-05
6.3810409e-05
0.0001917546
0.00024651032
8.7033199e-05
1.2702178e-06
0.00025652882
0.00015108744
6.9757158e-05
-0.00011089453
0.00015685158
6.5442212e-05
-0.00044652796
0.0001383537
3.3699444e-05
-0.00055499887
5.5499987e-05
0.00011305618
-0.00035418108
-7.3346435e-05
0.00016628735
-0.00010335333
-0.00015537053
5.4481983e-05
0.00022005547
-9.503134e-05
6.203301e-05
-1.8255743e-05
0.00023127874
7.5263851e-07
0.0003249265
-6.4682596e-05
0.00032977611
-0.0001217454
0.00038226701
-0.00016749312
0.00035769539
-0.00020915329
6.0707167e-06
-0.0002008237
1.3047238e-06
-1.0382744e-05
9.855887e-05
0.00011631469
-0.00026778067
0.00019892218
-0.00036781803
0.00018403907
-0.00024472378
0.00017508511
-7.8888386e-05
0.00018235074
0.000120753
0.00012482943
-4.4327644e-05
-0.00016996394
-0.00010409479
-0.00026978852
-6.7453612e-05
-0.00012754535
-5.8271038e-05
0.00015805745
0.00013138616
0.00042556268
0.00014868787
0.00042364675
0.00010164882
0.00013766874
0.00010837338
-0.00023671727
5.4179549e-05
-0.00039585968
3.8600657e-05
-0.00032191252
2.7523328e-05
-3.0500096e-05
5.2971093e-05
0.00031484427
-0.00012738632
0.00015407517
-0.00017350808
-0.00023290022
0.00017284594
-0.00018411705
-0.00031317681
0.00014876204
-0.00012923315
-0.00021751241
-6.6673644e-05
-4.3031969e-06
-1.7813306e-07
-0.00028185988
6.9662243e-05
6.028222e-05
-5.99557e-05
4.3932181e-05
-3.2668785e-05
8.6115902e-05
9.7096525e-05
-0.000147221
0.00011082882
0.00012232931
-1.9506313e-05
-0.00019945917
0.00013157624
-4.8535427e-05
2.4206554e-05
0.00012739054
-0.00013640318
0.0001499203
-9.0721932e-06
-0.0001290885