/*--------------------------------*- C++ -*----------------------------------*\
| =========                 |                                                 |
| \\      /  F ield         | OpenFOAM: The Open Source CFD Toolbox           |
|  \\    /   O peration     | Version:  v2012                                 |
|   \\  /    A nd           | Website:  www.openfoam.com                      |
|    \\/     M anipulation  |                                                 |
\*---------------------------------------------------------------------------*/
FoamFile
{
    version     2.0;
    format      ascii;
    class       volScalarField;
    location    "300/bottomWater";
    object      T;
}
// * * * * * * * * * * * * * * * * * * * * * * * * * * * * * * * * * * * * * //

dimensions      [0 0 0 1 0 0 0];


internalField   nonuniform List<scalar> 
1460
(
1000.9468
995.10799
991.43392
988.59993
986.58073
983.71891
985.4966
986.53692
982.70382
979.02392
976.58612
965.96139
963.96286
963.18838
954.233
951.8352
950.47314
949.03033
951.24004
952.185
953.22386
955.1215
964.68176
964.51522
965.79009
971.05217
974.21451
976.66718
979.33443
982.9553
996.52217
990.30981
988.09503
986.51134
985.27554
983.42047
983.74767
984.38691
980.68696
978.12082
976.01974
966.00104
966.86639
964.72824
960.60008
954.96407
951.18939
948.35356
949.7577
950.94786
952.17183
956.29016
962.35138
962.1885
964.47653
969.84198
973.97476
976.80814
977.93487
980.20433
995.56484
989.67024
984.06968
983.1033
983.16784
983.3668
983.78811
983.65863
980.83122
980.76781
976.26902
971.48037
969.65399
964.63914
961.98708
959.05244
951.71419
948.03162
950.49838
951.44888
953.25191
955.85143
959.0725
959.73444
961.98914
969.66551
974.1732
977.34682
979.36119
980.39133
990.52707
986.57643
981.03238
980.55205
983.44803
983.79878
983.24334
983.29335
981.05973
981.41629
979.30447
975.88252
969.48064
960.76494
960.85321
955.16936
949.18993
947.8529
950.42549
952.54879
953.39902
955.99502
957.0949
958.90275
959.91266
968.6218
973.12973
976.11809
978.70484
978.99652
987.50725
984.44273
981.11044
980.16439
980.48064
980.30895
980.29209
980.91084
980.03788
979.5893
978.49801
975.96624
967.43148
955.12332
952.96548
950.44983
948.61201
947.73703
950.1179
951.21235
952.25734
953.90072
956.12709
955.97133
956.47789
967.06867
971.49012
972.13691
972.75998
973.5844
996.70749
991.73522
988.44933
985.52638
984.46526
983.05103
983.66205
983.36409
980.8772
978.78435
975.6711
960.41511
960.58594
959.97915
953.24624
949.87889
947.8365
946.48902
949.64598
950.85722
952.27879
953.95719
964.38945
965.96227
966.39838
971.59396
973.7617
976.19146
978.79688
982.31844
996.20443
989.07262
985.48136
982.66347
982.92055
982.94075
983.24149
983.01682
979.77653
980.39596
977.80697
962.05727
961.89633
961.06536
954.77702
951.24504
948.53002
947.48783
951.06251
951.7396
952.07369
955.3383
964.19547
964.49025
965.09146
971.13407
973.40286
974.87808
976.65623
979.40976
993.843
990.23431
984.55259
982.56075
982.89284
982.61591
982.97271
982.65419
980.40037
980.88445
978.45938
963.83785
964.80701
961.00474
954.58008
952.05498
948.58595
947.34883
950.91615
951.97217
952.99389
955.53462
962.75555
963.63543
963.70052
971.30303
974.63642
974.58088
976.67197
979.20466
988.04545
986.70018
982.52534
980.90582
983.01271
982.53093
982.38438
982.39387
981.117
980.88855
978.59159
965.66875
965.13634
964.80148
961.14849
951.54541
948.08145
947.32816
951.42199
953.57709
955.57052
955.67824
960.90764
961.55359
962.23505
971.26872
975.61932
976.13737
977.10922
979.50204
986.64127
985.08178
983.57665
980.38832
980.45769
980.77851
980.82239
981.40293
980.44712
979.85651
977.76246
974.19678
963.05712
954.34947
955.44196
951.13885
948.54295
946.71953
951.11516
952.65839
953.96156
954.7074
957.16243
957.90861
959.1048
969.95754
972.55899
973.38422
974.28601
976.18601
992.59733
989.92091
987.51587
986.1763
985.17744
982.4098
981.04638
978.83187
977.55506
976.86251
976.52029
974.85897
964.92287
958.7201
953.87697
950.99329
949.8035
945.96483
949.56
952.10248
955.22891
957.33847
966.72371
968.41738
967.52958
972.53864
972.97569
973.69508
974.59018
977.05736
990.44003
988.27087
986.27151
983.83602
983.73828
983.3901
982.41055
978.16745
976.57692
977.70823
976.3394
974.27901
963.49638
958.13481
953.35677
948.43966
945.9677
945.42805
948.10054
950.05958
952.05328
957.9087
966.4574
966.91935
967.17022
969.18067
970.52151
970.98786
971.65077
973.58462
991.55268
990.37629
986.32311
983.314
983.36515
981.76707
981.66317
978.53556
978.81527
978.18063
976.29616
973.482
962.80317
955.35228
951.83929
949.30472
948.54696
946.15459
948.24165
948.72796
953.26041
957.58061
965.35996
966.37909
967.13331
968.73298
970.9138
970.90048
971.47771
973.73267
988.7682
987.09069
984.13106
981.86702
982.6433
980.75172
980.82672
978.72035
979.44662
977.25423
976.19092
972.42837
962.87066
958.78435
952.7567
949.79486
948.92883
946.33854
950.30894
951.53578
955.65643
957.6385
964.05316
965.01206
968.27939
970.26789
971.36465
971.385
971.93269
974.23137
985.68511
985.48211
984.06134
981.24837
979.52604
979.7715
979.77788
978.23337
977.8846
974.40143
973.53656
971.18922
960.01112
952.95251
950.3977
948.30353
947.03716
944.56986
949.20391
952.43888
954.79926
956.49858
960.84115
961.39984
964.55371
967.0937
969.83384
970.70447
971.29385
972.39321
990.87872
989.8763
988.58877
986.79754
984.55821
980.91723
977.56849
974.24117
972.9123
971.44029
969.84611
967.9238
959.29707
951.00952
940.17324
938.53084
938.66315
940.02728
942.53029
947.54977
955.85587
962.33794
968.44567
970.86497
970.11012
967.87936
965.10443
966.8118
969.48904
973.34333
989.34045
987.68984
986.50112
985.71341
984.96323
981.58468
979.73115
973.9651
974.11657
971.18178
968.64226
965.53239
958.29585
952.36403
944.22111
941.4647
943.51702
940.36634
940.36401
943.27012
951.44614
963.61337
967.29315
966.87486
966.15341
964.93085
964.85551
964.61341
966.3459
971.18744
989.67627
988.5954
987.32608
986.41477
985.2915
979.40813
978.72307
975.40936
975.22385
970.99168
967.58599
960.15483
956.76097
951.14883
943.67867
943.86407
944.73582
940.96273
943.78907
944.39662
955.55794
963.97938
967.2407
966.77066
965.60642
965.13633
965.70113
965.22785
966.63816
971.42672
988.11587
985.99371
984.81985
985.26761
983.83742
979.75391
977.78237
975.66454
974.66516
968.32347
964.41189
962.31585
956.42134
950.28371
943.64131
944.89405
943.47266
941.1815
947.64438
947.7971
959.1826
962.43159
966.01279
965.59664
964.25779
964.25472
965.57696
967.23556
967.10578
970.39714
983.25098
982.37696
981.9868
983.0625
981.70183
979.72791
976.42507
975.68053
974.38152
966.11928
963.6929
959.68272
954.74626
946.6763
941.10644
940.43773
939.31273
938.48614
945.14437
949.18022
951.53021
958.23521
960.54023
959.64206
961.01048
964.50769
966.17684
967.0168
967.50125
969.83648
986.9709
986.65909
986.84778
985.73306
982.89092
979.61468
978.73198
966.89062
964.34732
960.03251
956.62798
953.40513
934.8502
930.11966
945.54981
953.89562
963.19634
968.6698
968.14065
965.45656
963.64939
962.65091
963.11925
964.7107
968.5026
969.53333
986.7946
986.56504
986.31589
986.00113
982.5959
978.40917
978.17125
968.52885
966.07041
959.5441
953.94195
951.80316
942.10851
924.69707
935.26347
943.45534
961.95901
965.55337
964.51567
962.74552
961.57016
961.99322
962.17932
963.47427
965.83801
968.8011
987.13561
987.09747
987.00338
986.04575
982.34294
976.11152
976.53374
969.68731
967.52582
959.61206
951.33201
948.44186
938.56054
937.43326
946.96411
945.25785
958.01557
961.96886
964.67567
962.62363
960.18147
961.9511
962.80586
964.10477
965.61259
968.67354
987.35806
987.31404
987.07719
985.33446
981.53057
976.34698
973.63552
971.34733
966.96053
964.11307
953.35064
945.93529
936.76544
940.94964
945.87958
949.06004
958.48461
960.7004
964.02428
960.72025
959.68781
962.634
963.87933
963.96836
965.42246
968.66057
984.64211
983.56716
982.64104
980.91875
978.6411
976.2212
974.49903
973.38741
965.13924
956.99002
953.32705
948.67884
940.82168
934.1544
944.18224
952.04326
954.49982
958.2832
959.75857
958.46554
958.7684
962.85008
964.9608
965.27993
965.39812
968.50831
983.13925
981.26959
979.80183
978.88357
975.79563
973.81924
975.04783
967.0671
961.0569
961.64692
951.85418
944.80229
934.49916
938.99074
945.60408
948.25248
953.84977
962.98455
962.7238
961.70479
960.38557
959.00884
959.70428
963.07397
965.14989
968.55473
981.86912
981.18283
980.88155
979.82541
975.00316
970.91618
971.56282
966.72444
958.95573
959.74614
952.93535
947.96917
942.88489
929.70063
944.34021
948.18116
954.7187
963.5248
963.17072
961.15255
959.05873
958.11422
958.73234
963.39088
965.81301
967.78657
982.08033
981.76425
980.72434
979.49963
974.63429
969.78502
968.69474
967.45418
958.48668
955.57584
953.48629
952.41251
945.92891
938.36792
944.33485
953.43354
955.18515
961.83084
963.57921
961.66152
959.2217
958.00732
958.4862
964.13224
967.06124
967.42744
982.63859
982.60142
982.08341
980.17027
977.36028
970.86226
965.92471
962.70328
956.59985
953.87299
953.58589
952.1289
944.90489
943.72188
947.23117
953.1835
955.50563
959.64913
962.45953
960.93162
958.27769
957.11509
958.14386
962.45456
966.20872
966.72586
981.73975
981.44621
980.13636
977.65944
975.3282
972.89465
966.98744
965.04303
955.64392
950.65045
947.02211
942.68086
936.37782
946.49299
950.58396
951.93922
953.38387
956.96851
958.74401
957.46253
956.69451
955.95837
958.27545
962.88759
964.18048
966.78368
981.133
979.75967
976.86666
974.6077
972.99518
969.36553
973.90132
970.35309
963.09586
959.68441
955.95659
955.11878
949.63498
940.30539
937.35778
939.51571
940.94186
944.93894
947.22691
950.05155
957.43844
962.47127
962.18266
961.18472
959.91211
961.01989
962.13419
964.88216
967.46481
970.97037
980.80371
980.73118
976.87032
974.59297
971.54563
967.65625
971.01042
970.39345
961.79274
957.39346
954.92325
954.44617
946.96342
941.9281
938.84559
938.62168
939.03686
945.68452
946.54767
949.16076
959.03225
962.26737
961.7765
960.63697
959.58783
958.36138
959.71961
962.39507
964.61998
967.63633
981.43585
981.66946
978.20818
975.31953
972.97534
967.18917
966.63341
966.6096
959.37559
957.41922
955.21127
953.56123
945.22368
938.86207
937.31285
936.39423
938.98357
945.61423
951.0977
950.61964
958.47982
962.17888
960.75364
960.59679
959.44708
957.99003
959.73873
964.62739
965.72318
967.86577
980.2666
980.58664
978.53878
975.31965
973.20656
966.78565
962.46957
961.3932
957.84284
957.85896
955.35456
953.65224
947.12485
940.54393
936.01879
929.98523
942.10296
951.61606
953.02035
953.21007
957.41541
961.87651
958.73849
959.28208
959.39441
956.75635
958.51663
965.58987
967.0103
968.04159
978.52995
979.01331
975.51134
973.90097
971.8699
970.20063
964.62499
959.74127
958.65199
957.87231
955.40706
951.60261
944.46209
934.94802
931.38464
925.47121
945.13632
949.2948
951.39207
951.84743
953.89889
956.77185
954.48801
953.68354
954.92995
954.38405
957.5793
963.05802
964.59778
965.49702
978.4124
978.187
976.28993
973.66747
971.54852
969.64476
966.65215
970.33127
964.05396
961.95399
961.2009
962.9648
955.46905
947.49496
945.7853
944.5058
940.58265
940.13952
947.09311
950.64191
952.3575
953.78912
954.33258
955.45191
959.10363
961.05613
962.97298
965.19318
967.61929
971.53866
979.35259
978.541
977.10772
975.02899
970.20109
968.73689
967.10676
969.1337
963.16823
959.81814
960.26591
962.98385
959.04255
947.51695
945.64821
942.44516
941.07773
942.13831
948.56432
951.8118
953.35738
954.07614
957.15343
959.03134
959.32749
959.36434
960.39913
962.23718
964.26523
967.53083
981.19684
978.26276
975.87647
974.69515
970.60056
970.52038
967.01046
965.99747
962.42229
958.36364
960.53053
962.57106
957.4181
951.42092
946.21331
941.11091
941.3901
942.56988
948.98427
951.97802
953.88969
956.50879
957.01838
958.91977
958.53942
958.95197
959.80243
962.4285
964.4718
967.56102
980.32234
976.93403
975.05908
974.63005
970.61911
970.52695
965.84506
961.91513
961.74672
958.30742
962.8281
964.83399
960.9388
959.35032
947.09985
937.9947
941.56004
947.15913
949.10628
950.31997
951.03638
954.63855
956.49314
957.78303
957.94872
957.45654
958.14532
963.27861
965.04363
967.53591
977.72993
975.99625
973.38631
973.97681
969.88311
968.96579
965.02714
960.36438
960.67259
961.35484
963.50348
965.14483
962.41683
959.79847
948.14495
941.12694
944.2048
946.02592
947.80116
947.8772
948.9311
951.58932
953.36114
955.25069
955.90739
955.0223
955.10752
961.49473
964.21877
966.02496
975.43172
975.59434
973.98283
973.82631
972.42147
971.3889
967.56798
970.90263
968.4813
966.32951
966.06699
966.14199
961.99785
955.50601
954.84949
953.39299
949.65166
946.87365
949.6473
949.62113
950.70509
951.67602
951.76428
953.40984
956.36084
958.84646
961.51138
963.94926
967.35734
972.44571
977.29588
977.03154
973.60919
972.39108
970.23805
968.44077
967.53025
969.33618
967.26305
963.61373
963.82757
965.44959
963.67921
955.57289
956.03171
952.8541
949.63171
948.62915
950.27117
949.73914
951.51944
953.17815
952.91979
955.84821
957.92845
958.40195
958.84778
960.68256
963.51423
967.1256
978.08736
978.56599
973.62231
972.08884
970.16671
969.55718
967.48315
966.36854
966.14993
962.46207
966.00895
965.14853
961.50908
955.74217
957.01176
952.41151
951.27469
949.00985
950.64429
949.4545
952.07152
954.55332
953.90251
955.99533
958.1877
958.49757
958.80118
959.16013
963.04346
966.45465
978.33999
978.22854
974.19958
971.96024
969.99829
969.66516
968.10335
964.17061
965.45998
962.5331
965.18423
964.2126
961.41557
956.85713
956.55977
950.18585
949.53568
949.39669
950.4673
948.68066
950.86711
954.04057
954.31507
955.7481
957.4983
956.60368
955.66829
955.07363
959.47364
964.86514
976.50719
976.32144
975.53687
972.37097
965.17168
965.03167
964.56685
963.00967
964.61241
965.05671
966.30822
966.57516
964.63193
960.46984
956.88499
948.50226
947.84918
948.79895
948.45497
947.95566
950.24912
951.54503
952.5118
954.0571
953.86527
954.4447
953.44822
953.96606
957.87824
961.8152
973.262
973.10226
972.19853
971.38943
972.06963
970.35545
968.18596
970.81773
971.5973
972.29415
973.10262
969.75495
963.16048
957.73537
955.85973
953.86759
951.63305
950.68174
950.32663
949.302
949.68645
949.53643
950.34602
955.66223
957.41384
957.76217
959.93929
961.30676
965.00893
971.33341
974.59033
974.38624
971.20409
970.11178
970.32587
968.65072
968.45622
969.02273
969.65495
969.60874
969.58276
969.76918
964.15486
955.92382
954.86006
953.22523
951.31448
951.16494
951.0598
949.13125
950.52499
950.55077
952.66024
957.66451
957.72623
957.59352
957.41977
957.32772
961.98901
965.37982
974.89747
976.24413
970.88463
969.65012
967.84551
967.9507
968.30502
968.19344
969.16157
969.7058
969.92485
966.70175
963.08349
956.22609
956.98556
954.47474
951.55626
951.15698
951.16902
949.00314
950.9081
951.57808
952.47512
957.28029
957.74291
957.51345
957.14241
956.77964
957.62073
961.28145
975.20007
975.05314
971.52115
970.14811
966.01253
967.10682
968.57905
968.04285
968.76826
969.9893
970.35204
967.65262
963.60093
956.61529
956.78649
953.48794
953.33542
949.38046
950.13564
948.24043
950.17308
951.94981
951.92447
956.77964
956.69864
955.44559
954.27147
953.34937
953.63715
954.43975
974.4789
974.41322
973.94821
971.86845
965.05753
965.22031
965.47635
966.02262
967.79435
969.41334
969.49104
967.94134
965.30253
958.83557
956.81069
955.06699
953.63161
947.04218
946.97034
948.15893
949.45804
950.45985
950.60927
954.32844
953.61029
953.43302
952.74863
952.2826
953.16458
955.52266
)
;

boundaryField
{
    minX
    {
        type            zeroGradient;
    }
    maxX
    {
        type            zeroGradient;
    }
    minY
    {
        type            fixedValue;
        value           uniform 1073;
    }
    minZ
    {
        type            zeroGradient;
    }
    maxZ
    {
        type            zeroGradient;
    }
    bottomWater_to_rightSolid
    {
        type            compressible::turbulentTemperatureCoupledBaffleMixed;
        refValue        nonuniform List<scalar> 
130
(
731.69389
739.23856
747.10176
754.88763
762.30126
769.13148
775.23887
780.56615
785.09055
788.71596
791.4229
793.22518
794.12912
726.25584
735.06189
744.02603
752.68943
760.75879
768.06412
774.50376
780.05304
784.71413
788.42133
791.18391
793.02192
793.94601
715.2816
726.97935
738.30627
748.73889
758.06809
766.24141
773.25684
779.17897
784.04604
787.89249
790.7452
792.63578
793.58295
698.81127
715.97831
731.11275
744.05547
755.01322
764.20885
771.86602
778.18696
783.30479
787.30324
790.25088
792.19811
793.17572
679.30348
705.48443
725.1442
740.4873
752.77073
762.72513
770.82613
777.40743
782.68567
786.78353
789.7917
791.77404
792.7707
679.21815
705.36394
724.97153
740.27654
752.52948
762.45348
770.52115
777.06307
782.298
786.38109
789.40037
791.38964
792.38574
698.43006
715.53408
730.58174
743.43975
754.30174
763.39306
770.96209
777.19569
782.22868
786.18545
789.13222
791.08052
792.05288
714.6118
726.20767
737.41092
747.72111
756.93135
764.97481
771.87083
777.65886
782.39465
786.14484
788.96392
790.84214
791.78474
725.44526
734.0991
742.90818
751.42933
759.35793
766.51666
772.81251
778.19484
782.65923
786.21242
788.87971
790.67409
791.58356
730.81799
738.18736
745.88351
753.5115
760.76765
767.44184
773.40641
778.55436
782.85566
786.295
788.87517
790.60339
791.47759
)
;
        refGradient     uniform 0;
        valueFraction   uniform 0.99248593;
        value           nonuniform List<scalar> 
130
(
733.31726
740.82314
748.63549
756.37068
763.741
770.53662
776.59695
781.88801
786.45798
790.08934
792.78079
794.57421
795.47756
727.9124
736.68536
745.59372
754.20179
762.21616
769.48505
775.88191
781.39852
786.10608
789.80496
792.55299
794.38396
795.31539
717.00444
728.64925
739.9153
750.28725
759.55912
767.70369
774.67056
780.57199
785.42147
789.25961
792.09745
793.97827
794.92656
700.61223
717.70054
732.75142
745.61445
756.5402
765.68403
773.27694
779.56075
784.66636
788.64731
791.57911
793.51537
794.50318
681.21858
707.27798
726.84912
742.09542
754.31494
764.20555
772.236
778.77017
784.03946
788.12237
791.11033
793.07867
794.09121
681.22648
707.20655
726.67698
741.87784
754.06568
763.92842
771.92583
778.41284
783.6029
787.6727
790.70398
792.68802
793.69618
700.3151
717.30638
732.24439
745.02112
755.82322
764.82892
772.33509
778.53124
783.52229
787.47328
790.4391
792.38436
793.35618
716.35063
727.87276
738.99243
749.23301
758.39403
766.39035
773.24878
778.99823
783.69178
787.41438
790.26026
792.14488
793.09398
727.12361
735.70981
744.44892
752.92327
760.80204
767.91426
774.17438
779.51485
783.95003
787.46905
790.12011
791.93035
792.86258
732.4427
739.75621
747.4034
754.98385
762.193
768.81816
774.7659
779.86975
784.1374
787.54577
790.10304
791.82481
792.71014
)
;
        Tnbr            T;
        thicknessLayers List<scalar> 0();
        kappaLayers     List<scalar> 0();
        kappaMethod     fluidThermo;
        kappa           none;
        alphaAni        none;
        alpha           none;
        field           T;
    }
    bottomWater_to_leftSolid
    {
        type            compressible::turbulentTemperatureCoupledBaffleMixed;
        refValue        nonuniform List<scalar> 
130
(
839.03431
838.98515
838.9002
838.79347
838.66277
838.49786
838.29681
838.06394
837.8016
837.52818
837.2604
837.02182
836.85042
839.00427
838.96067
838.87598
838.75193
838.60273
838.42025
838.20043
837.94743
837.66592
837.37448
837.0912
836.84014
836.65561
838.93377
838.89407
838.80392
838.66226
838.47937
838.26061
838.00179
837.7056
837.38755
837.05872
836.76384
836.5143
836.33302
838.80877
838.76273
838.66691
838.5172
838.30278
838.03249
837.71579
837.37278
837.0041
836.62531
836.30343
836.04714
835.88682
838.65704
838.59771
838.47613
838.28803
838.03558
837.72758
837.37663
836.99322
836.57
836.16543
835.82592
835.55983
835.38991
838.42707
838.36158
838.22273
838.01195
837.73772
837.40718
837.02598
836.63185
836.21786
835.84344
835.52686
835.2793
835.12375
838.1777
838.10995
837.96082
837.74859
837.4771
837.15776
836.79513
836.43394
836.10307
835.80972
835.5568
835.35591
835.22432
837.97176
837.89904
837.75481
837.55542
837.29424
837.00808
836.69884
836.39638
836.13965
835.92539
835.75654
835.62911
835.54339
837.81568
837.75274
837.62097
837.42006
837.16585
836.9176
836.67323
836.44246
836.24885
836.08467
835.95349
835.85142
835.7837
837.72084
837.66358
837.54185
837.35449
837.11821
836.89722
836.69056
836.50392
836.34608
836.21135
836.09379
835.99609
835.93211
)
;
        refGradient     uniform 0;
        valueFraction   uniform 0.99248593;
        value           nonuniform List<scalar> 
130
(
840.14988
840.07807
839.96878
839.85577
839.72844
839.56349
839.3638
839.13732
838.8704
838.59564
838.32166
838.06584
837.83155
840.11357
840.05859
839.96324
839.81621
839.66866
839.48996
839.27213
839.02537
838.7388
838.4451
838.14819
837.87222
837.60533
840.0364
839.99553
839.89538
839.73368
839.53923
839.32397
839.06714
838.76158
838.44327
838.09067
837.79155
837.52628
837.26233
839.89406
839.84183
839.74386
839.60341
839.38037
839.09726
838.75809
838.41209
838.03635
837.59834
837.2607
836.97624
836.78003
839.754
839.68705
839.55942
839.35979
839.09213
838.76826
838.40702
838.01818
837.53603
837.07335
836.70887
836.4099
836.1822
839.50395
839.43675
839.2891
839.0613
838.77161
838.42527
838.0025
837.59677
837.11523
836.70615
836.36467
836.08637
835.88464
839.23233
839.16871
838.99445
838.77168
838.48697
838.15749
837.75556
837.36048
837.02393
836.72695
836.45741
836.22951
836.04529
839.02196
838.93678
838.77399
838.58053
838.29054
837.99962
837.66313
837.32786
837.07542
836.8679
836.71648
836.60235
836.49677
838.85784
838.79397
838.65729
838.43411
838.12772
837.88027
837.63425
837.39351
837.21341
837.0538
836.93302
836.83375
836.75191
838.74848
838.69116
838.56684
838.36524
838.0796
837.86149
837.65831
837.47717
837.33384
837.21227
837.09619
836.9876
836.9043
)
;
        Tnbr            T;
        thicknessLayers List<scalar> 0();
        kappaLayers     List<scalar> 0();
        kappaMethod     fluidThermo;
        kappa           none;
        alphaAni        none;
        alpha           none;
        field           T;
    }
    bottomWater_to_heater
    {
        type            compressible::turbulentTemperatureCoupledBaffleMixed;
        refValue        nonuniform List<scalar> 
92
(
713.70068
715.66209
719.49112
724.95617
704.94457
707.25597
711.77758
718.26916
686.45223
689.42982
695.42271
704.26675
344.60937
341.85463
341.90214
344.69374
419.23359
415.81934
416.0571
419.74392
482.48116
479.5916
480.33678
484.27545
535.73588
533.9115
535.81059
540.48612
656.23609
579.26409
659.96705
579.27513
668.03166
583.7074
681.05707
591.2044
344.60937
344.69374
419.23359
419.74392
482.48116
484.27545
535.73588
540.48612
579.26409
591.2044
344.57448
344.57448
341.83923
341.90697
344.73628
344.73628
419.19073
419.19073
415.7874
416.043
419.75923
419.75923
482.45914
482.45914
479.55163
480.29736
484.25347
484.25347
535.7059
535.7059
533.85517
535.74873
540.46645
540.46645
579.15588
579.15588
579.18355
583.62959
591.21354
591.21354
655.77675
659.49626
667.55037
680.65443
685.97625
688.88485
694.81376
703.63664
704.47071
706.72226
711.15523
717.5631
713.23034
715.15092
718.90004
724.24689
)
;
        refGradient     uniform 0;
        valueFraction   nonuniform List<scalar> 
92
(
0.99248593
0.99248593
0.99248593
0.99248593
0.99248593
0.99248593
0.99248593
0.99248593
0.99248593
0.99248593
0.99248593
0.99248593
0.99248593
0.99248593
0.99248593
0.99248593
0.99248593
0.99248593
0.99248593
0.99248593
0.99248593
0.99248593
0.99248593
0.99248593
0.99248593
0.99248593
0.99248593
0.99248593
0.99248593
0.99248593
0.99248593
0.99248593
0.99248593
0.99248593
0.99248593
0.99248593
0.99248593
0.99248593
0.99248593
0.99248593
0.99248593
0.99248593
0.99248593
0.99248593
0.99248593
0.99248593
0.99248593
0.99248593
0.99248593
0.99248593
0.99248593
0.99248593
0.99248593
0.99248593
0.99248593
0.99248593
0.99248593
0.99248593
0.99248593
0.99248593
0.99248593
0.99248593
0.99248593
0.99248593
0.99248593
0.99248593
0.99248593
0.99248593
0.99248593
0.99248593
0.99248593
0.99248593
0.99248593
0.99248593
0.99248593
0.99248593
0.99248593
0.99248593
0.99248593
0.99248593
0.99248593
0.99248593
0.99248593
0.99248593
0.99248593
0.99248593
0.99248593
0.99248593
0.99248593
0.99248593
0.99248593
0.99248593
)
;
        value           nonuniform List<scalar> 
92
(
715.51481
717.44517
721.22653
726.63671
706.81871
709.12076
713.5761
719.9994
688.45473
691.39074
697.32286
706.09091
349.16603
346.35049
346.38527
349.15688
423.23957
419.78981
420.00506
423.6796
486.00278
483.0788
483.81978
487.73539
538.85085
536.99026
538.88449
543.51419
658.4185
582.02487
662.07959
581.994
670.07858
586.38794
682.99766
593.82015
349.04456
349.09263
423.16251
423.53809
485.9082
487.6805
538.74932
543.49536
581.98093
593.78149
349.00722
349.05074
346.31402
346.39748
349.20158
349.21623
423.12579
423.11859
419.71771
419.96972
423.59095
423.66113
485.94169
485.88862
482.99131
483.72454
487.66576
487.67027
538.78067
538.748
536.87708
538.7112
543.49654
543.48432
581.84014
581.82946
581.83006
586.19802
593.88314
593.87288
657.8746
661.53929
669.48821
682.6417
688.03382
690.83285
696.66451
705.44425
706.39433
708.6021
712.9387
719.29349
715.07591
716.96683
720.67469
725.97054
)
;
        Tnbr            T;
        thicknessLayers List<scalar> 0();
        kappaLayers     List<scalar> 0();
        kappaMethod     fluidThermo;
        kappa           none;
        alphaAni        none;
        alpha           none;
        field           T;
    }
}


// ************************************************************************* //
