/*--------------------------------*- C++ -*----------------------------------*\
| =========                 |                                                 |
| \\      /  F ield         | OpenFOAM: The Open Source CFD Toolbox           |
|  \\    /   O peration     | Version:  v2012                                 |
|   \\  /    A nd           | Website:  www.openfoam.com                      |
|    \\/     M anipulation  |                                                 |
\*---------------------------------------------------------------------------*/
FoamFile
{
    version     2.0;
    format      ascii;
    class       volVectorField;
    location    "300/bottomWater";
    object      U;
}
// * * * * * * * * * * * * * * * * * * * * * * * * * * * * * * * * * * * * * //

dimensions      [0 1 -1 0 0 0 0];


internalField   nonuniform List<vector> 
1460
(
(-0.00010452891 -0.015452368 0.00030182979)
(-0.0017905207 -0.015342147 1.9830821e-05)
(-0.002540152 -0.015070485 -0.00059438079)
(-0.0029217872 -0.014355133 -0.0018553801)
(-0.0045609583 -0.013427521 -0.0020022111)
(-0.0010806967 -0.01211898 0.00070237047)
(0.002222394 -0.011136881 0.00081661956)
(0.0016475695 -0.015060295 0.00041812768)
(-0.00067220216 -0.016932932 -0.00026888919)
(-0.0020415749 -0.017844512 -0.00011122202)
(0.00021343569 -0.011081433 0.00090732147)
(-0.00015222061 -0.015993165 0.00012250685)
(-0.003725075 -0.01422516 0.0010756812)
(-0.00014317823 -0.011851694 0.00091065468)
(0.00057245627 -0.021539051 4.5152764e-05)
(-0.0018073569 -0.015297592 0.001468028)
(-0.001235244 -0.011842963 0.0010441781)
(0.0026002654 -0.012696927 9.8165383e-05)
(0.0034640304 -0.017225891 -0.00081323619)
(0.002369383 -0.016336903 0.00017508158)
(0.0031785018 -0.014855104 0.001316396)
(0.0018283617 -0.016688775 0.0014835452)
(-0.002404932 -0.017784358 0.0018357225)
(-0.0024402792 -0.012041285 0.0013795524)
(-0.001769767 -0.0123558 0.00084630382)
(0.00084563872 -0.012161012 0.0014080601)
(0.001897665 -0.012239131 0.0017872556)
(0.0027550362 -0.011282683 0.0019040499)
(0.0033644811 -0.013168152 0.0013449439)
(0.0010932692 -0.014536302 0.00090718144)
(-8.3434166e-05 0.0166929 -0.00094250496)
(-0.0035726642 0.01676288 -0.001435331)
(-0.0043559217 0.016456027 -0.0015752981)
(-0.0037458698 0.016023124 -0.002490422)
(-0.00353977 0.014565195 -0.0028464141)
(0.0032378657 -0.0025241146 0.00093217894)
(0.0039281117 0.0051159471 0.001860136)
(0.0061374283 0.015504101 0.0019316911)
(-0.0030070452 0.018571729 0.00077327741)
(-0.0042337081 0.016135274 0.00099593401)
(-0.001159215 0.0037950075 0.0004280075)
(0.00056389438 0.017497748 0.0016304504)
(-0.003817348 0.011685172 0.0021430158)
(0.0022690159 0.00036480593 0.00082749271)
(0.0023033966 0.020387969 -0.0014217907)
(-0.0027744804 0.012719984 0.0033898702)
(-0.001373568 0.00020559261 0.0012283482)
(0.00080589506 0.0017729224 0.00038369627)
(0.0036721633 0.016827844 -0.0010398475)
(0.0028328623 0.012491388 0.0014501796)
(0.0052341733 0.011177023 0.0026124002)
(0.0017789862 0.017879392 0.0026429053)
(-0.0074103996 0.016906583 0.0024194377)
(-0.0048253842 0.0059457476 0.0012351374)
(-0.0037146935 0.0030373408 0.00030497541)
(-0.0010293318 0.0014679704 0.00086306213)
(0.0014192391 0.0049528371 0.0022492214)
(0.0014681375 0.0025879614 0.0010737962)
(0.0039770841 0.013182003 0.001667349)
(0.0025515369 0.016620814 0.0019273468)
(0.00025906498 -0.0033049107 0.00089783507)
(-0.0020082217 -0.00054326433 0.00048372061)
(0.00048385985 -0.0091465827 0.0012044608)
(0.0033663257 -0.0094902247 0.0013701752)
(0.007521601 -0.015336759 0.0020825169)
(0.0021728043 -0.015448223 6.3505184e-05)
(-0.0048604812 -0.012514818 -0.0014454143)
(-0.00066058563 -0.0035695921 -0.00060969653)
(-0.002347039 0.0039538276 -5.1499667e-05)
(0.0018784155 -0.017606493 0.00054584951)
(-0.0031953856 -0.013748376 -0.002123418)
(-0.001518981 -0.0102045 0.00073962019)
(0.0042325331 -0.015117032 0.00069521853)
(0.0029983238 -0.013998425 -0.00015661824)
(0.0029980968 -0.0091768201 0.0014909255)
(0.0044228398 -0.01486739 -0.00014017524)
(0.0012064027 -0.013268937 -0.00081545845)
(-0.0019099026 -0.013811468 -0.00079708059)
(0.001997957 -0.012746578 0.0017213033)
(0.0029953155 -0.016724944 0.0021710424)
(-6.0592897e-05 -0.014620232 0.0018533408)
(0.0021555544 0.0016017336 0.0018520754)
(0.0016996479 -0.011252784 0.0016922526)
(0.00028481765 -0.013610614 0.0012019488)
(-0.0014056043 -0.013047611 -0.00066217587)
(-0.0012890518 -0.013643186 -0.00029825816)
(-0.00053481713 -0.013427094 0.00076128645)
(-0.0024713221 -0.014179533 -0.0018588441)
(-0.0041794378 -0.014528768 -0.0022746435)
(-0.0005433437 -0.0050445799 -0.00092429074)
(-0.0021131019 0.0089025475 0.0030855836)
(-0.0030136685 0.0076914123 0.0023518967)
(-0.00106748 0.0013584218 0.00080993626)
(-0.0021418781 -0.0006171719 -0.00033771897)
(0.0020962334 0.012892241 0.00062174059)
(-0.0038884601 0.0096797518 0.00093506506)
(-0.0028818209 0.0075491413 -0.00088138705)
(-0.0026909003 0.0073800437 -0.00085158605)
(0.0012512889 0.0084303022 0.00066958631)
(0.0034290936 0.012511755 -0.00099664383)
(-0.00055714902 0.0023972508 -0.0027444258)
(0.0017131058 0.00093289678 -0.0029193204)
(0.0030206917 -0.0014099968 -0.0022825432)
(0.0023110513 -0.0014010835 -0.0033463606)
(0.0032610496 0.010110725 -0.0002518925)
(0.00067567173 0.010837048 -0.0023509449)
(0.00094304913 -0.0011599359 -0.0011517591)
(-0.0005548007 -0.0037175411 -0.0013926973)
(0.0022495647 0.0063531901 -0.0011591001)
(0.0020627531 0.012283579 -0.00062428597)
(-0.002369418 0.004933857 0.00051920836)
(0.0027846931 0.0075833766 0.001047331)
(0.0040451311 0.011418083 -0.00059033581)
(-0.0026849111 0.0046235133 0.00042655606)
(-0.00056531988 -0.0023348492 -0.001112007)
(-0.0021284543 -0.0038003092 -0.00075649884)
(-0.0014484148 0.0011962687 -2.5658885e-05)
(-0.0020094198 0.0062219281 0.0002090671)
(-0.002886343 0.010251374 -0.0014580084)
(-0.0021144275 0.0069963802 -0.0013483898)
(0.00014696935 -0.00038526109 0.00037709641)
(0.0032256158 -0.0048926691 0.00044051413)
(0.00088521269 -0.0095809926 -0.00082863731)
(-0.0055625802 -0.010163829 -0.0018594256)
(-0.0051924859 -0.010345189 -0.0015196244)
(-0.0033922029 -0.010107436 -0.0022781236)
(-0.0027594475 -0.0088405211 -0.0028311269)
(-0.0010122417 -0.004197053 -0.0028442708)
(0.0019935091 -0.003005912 -0.001423708)
(0.0049015732 -0.0087997807 -0.0020401292)
(0.0054469361 -0.0099004673 -0.0034740161)
(0.003560081 -0.010172647 -0.0043893322)
(0.0021933686 -0.011264484 -0.0054657345)
(-0.0011816279 -0.0099682907 -0.0065859798)
(0.00046572967 -0.0085264701 -0.0049373032)
(0.0041734198 -0.0096398088 -0.0039889305)
(0.0045976337 -0.010390921 -0.00413855)
(-0.00060314055 -0.010137992 -0.0024117828)
(-0.0050094009 -0.0098329137 -0.0010507505)
(-0.00084582612 -0.0056870262 -0.00049526829)
(-0.00020249361 -0.010811876 -0.0029922749)
(-0.0024949255 -0.0050314188 -0.0019389932)
(0.0036836684 -0.00048928234 -0.00048406169)
(0.0053195057 -0.0059839389 -0.0011079063)
(0.0047893813 -0.008541049 -0.0017823812)
(-0.0018584764 -0.0096595143 -0.0027204863)
(-0.0042874881 -0.0093002402 -0.0039983031)
(-0.0042503919 -0.0094948858 -0.003709461)
(-0.0026528501 -0.0095504532 -0.0032622775)
(-0.00027051575 -0.0079504099 -0.0032538476)
(0.00015263449 -0.016163541 -0.0018711625)
(-0.001894852 -0.013387468 -0.0015252433)
(-0.0038930596 -0.010922949 -0.0020741214)
(-0.0037945485 -0.009877623 -0.0016128738)
(-0.0018601848 -0.011780598 -0.0021309926)
(0.0014541231 -0.01340787 0.00076855434)
(0.0022199474 -0.014707485 0.00053468383)
(0.0019823261 -0.017712053 -4.0045993e-06)
(-0.00010786666 -0.016028108 0.00072280763)
(-0.00062537962 -0.013906838 -0.0014832826)
(0.00045536779 -0.018376107 0.0013824829)
(-0.0016492952 -0.016409507 0.0003102377)
(-0.003930607 -0.01339541 0.00066843509)
(-0.0020803314 -0.011420388 0.0016606441)
(0.001654125 -0.01530393 0.0017654642)
(-0.0012366329 -0.018983897 0.0026550719)
(-0.001968003 -0.018113902 0.0024956397)
(-0.00057028717 -0.01262323 0.001281384)
(0.0026487848 -0.01178095 0.0010311032)
(0.0038092839 -0.013038687 0.0019413438)
(0.0037061213 -0.015569927 0.0023834107)
(0.0020092534 -0.016998387 0.0025788812)
(-0.0015315459 -0.017312966 0.003274606)
(-0.0019744216 -0.013047157 0.0028887918)
(-0.0012703028 -0.012155913 0.0015452009)
(0.001977872 -0.011499392 0.0020404529)
(0.0030868878 -0.013368713 0.0019020301)
(0.0035129767 -0.013859929 0.0018346651)
(0.0025602235 -0.014077732 0.00038818566)
(0.00037113979 -0.015305846 -0.00075978216)
(0.001100859 0.017627085 -0.0015853549)
(-0.0017578589 0.015480047 -0.0016470118)
(-0.0024759964 0.011770326 -0.00055627319)
(0.00022442152 0.0022766612 0.0010432447)
(0.0031073059 0.0012928972 0.00049062334)
(0.0054395363 0.0060753212 0.00075334727)
(0.0081859042 0.014734361 0.0023428805)
(0.005189399 0.018588153 0.0013429229)
(-0.0026185448 0.01760071 -0.0014089987)
(0.00064596145 0.01331875 5.5323285e-05)
(0.0023885955 0.019049107 0.0026345287)
(-0.0031766151 0.018321924 0.0022002382)
(-0.0053957668 0.014102077 0.0020989172)
(-0.00035814387 -0.0026331191 0.00048495125)
(0.00094230153 0.0090797947 0.0013821357)
(-0.0019025614 0.019645636 0.00584031)
(-0.0061571612 0.016004073 0.004245683)
(-0.002384608 0.0030384824 0.00086251822)
(0.0011622593 0.0019928559 -0.00076896787)
(0.0029290089 0.0075328094 0.00086406346)
(0.0063027808 0.016116169 0.0033021462)
(0.003328694 0.01876384 0.0032192936)
(-0.0069291332 0.017485561 0.0034964126)
(-0.0047441985 0.0090043689 0.0025498554)
(-0.003108418 0.0032426469 0.0023399288)
(0.0015006776 0.0025963847 0.0017795104)
(0.003144366 0.0096653676 0.003526251)
(0.0054405085 0.014844135 0.005032191)
(0.0043858657 0.016452382 0.0039240002)
(0.0015032725 0.017135548 0.002502597)
(0.0015431163 -0.013569829 0.0038718875)
(4.6534088e-05 -0.0070079441 0.0030058713)
(0.0035554271 -0.012397142 0.0041107301)
(0.0037208141 -0.012971532 0.0018195395)
(0.0041290724 -0.014468968 0.00039271987)
(-0.0037187438 -0.013733257 -0.0044414812)
(0.0004693991 -0.0032098728 -0.0019046693)
(0.0013657854 0.0058581424 -0.00013826254)
(0.0010671145 0.0013699121 -2.5480642e-05)
(0.0021540244 -0.014818597 0.0011814548)
(0.00090251437 -0.0038856528 0.0024352381)
(-0.00020761226 0.0025033813 0.0023861384)
(0.0055514629 -0.011974065 0.00021859491)
(0.0025747285 -0.01538401 -0.00166246)
(-0.0040417131 -0.014965915 0.0004274266)
(-0.00083912073 -0.00034952036 0.0037332237)
(-0.00045643098 -0.010829644 0.0026097593)
(-0.00041348762 -0.013873653 -0.00091209588)
(-0.00040998314 -0.01344922 -0.0015845613)
(-0.0010010695 -0.015408212 -0.0021146521)
(-0.002810071 -0.013021275 -0.00052827564)
(0.0021268627 0.0070634456 0.0013528521)
(-0.00097597457 -0.001059398 0.0027513462)
(0.0035979303 -0.014329153 -7.3182779e-05)
(-0.0010007701 -0.013432934 0.0014301231)
(0.00064912304 -0.013538059 -0.00089779776)
(-0.002354625 -0.014717408 -0.0021153037)
(-0.0029859558 -0.0093727031 -0.0029029479)
(-0.00070252324 0.00054493437 -0.00071457163)
(-0.00081166815 0.002892282 5.6106531e-05)
(-0.002792279 0.01235644 0.0048935968)
(-0.0030310919 0.0088984869 0.0050741655)
(0.00090575816 0.0011630913 0.0020069123)
(-0.0026887406 -0.0028664759 -0.00042293999)
(0.0011645963 0.0095262923 -0.0017375046)
(-0.0037942721 0.0093230828 0.00027437972)
(-0.0025611374 0.0068021662 -0.0025751449)
(6.4742366e-05 0.010004171 -0.00093810271)
(0.0035821541 0.0083726611 0.0013251618)
(0.0036106566 0.0104649 -0.0017111122)
(-0.0022546426 0.0087044231 0.0035836286)
(0.0033423718 0.0076170288 0.0020648349)
(0.0054096065 0.0074708312 0.00074453772)
(0.0052927217 0.010109165 0.002608502)
(-0.00011782581 0.013213195 0.0041976197)
(0.00036040505 0.0079008086 0.0010642709)
(8.4596092e-05 0.0080149894 0.0042253118)
(-0.0012205316 -0.002063324 -0.0016888272)
(-0.0013470864 5.4940887e-05 -0.0022816287)
(0.0010234171 0.011271982 -0.0035420547)
(-0.0040557287 0.011877852 -0.0021623825)
(-0.00029354014 0.0098601637 0.00044495466)
(0.0027138511 0.0079239371 -0.00022545324)
(0.0016052403 0.0099408783 0.00018098631)
(-0.00036668133 0.0013905805 -0.00076852809)
(-0.00071074888 -0.00023355249 0.00013329523)
(-0.0019114234 0.010483413 -0.0010132834)
(-0.0055860376 0.0094634331 -0.0018256334)
(-0.0035616277 0.0075284089 -0.0020314495)
(-0.0016044044 0.0085921737 -0.00093244914)
(0.0008967413 0.00076464629 0.0034792801)
(0.0044446532 -0.0039754255 0.0018214067)
(0.0054964396 -0.0084754828 0.0010810709)
(-0.0044903312 -0.0098529179 -0.0018950587)
(-0.0057225687 -0.0076676986 -0.0014474455)
(-0.0044287776 -0.0040037488 -0.001600645)
(-0.0034019733 -0.0014266606 -0.002454891)
(-0.00045628086 0.0035343004 -0.0014443748)
(0.0032571973 0.00015812129 -0.00079907213)
(0.0042273464 -0.0041859053 -0.0011678388)
(0.0036504525 -0.0067125204 -0.0032318938)
(0.0028420553 -0.0078432635 -0.0043386516)
(0.00068526033 -0.010197924 -0.0057684962)
(-0.0013931394 -0.0080608311 -0.0060027036)
(0.0010563352 -0.0015208805 -0.0016984244)
(0.0048164896 -0.0021580599 -0.0021815565)
(0.0053932626 -0.0079726047 -0.0037403603)
(0.0033045997 -0.0095777752 -0.0034374947)
(-0.0054762662 -0.010268129 -0.0023703148)
(-0.0042892703 -0.0068323275 -0.0017625153)
(-0.0030456896 -0.003143503 -0.0023478153)
(0.00023366259 0.00251681 -0.0013654849)
(0.0033789357 -0.0015405695 -0.0010576978)
(0.0040466093 -0.0055555913 -0.0018028795)
(0.0044624612 -0.0085413054 -0.0030208865)
(-0.0038930369 -0.0092178928 -0.0027959779)
(-0.004801845 -0.0054812011 -0.003027888)
(-0.0039238143 -0.0035951728 -0.0031825751)
(-0.0026202018 -0.0019571619 -0.0032529762)
(-0.0011372825 -0.00078839049 -0.0024897779)
(-0.00063470501 -0.015996061 -0.0013586765)
(-0.0033900588 -0.01386318 -0.00023747178)
(-0.0028126485 -0.011139112 0.00063267)
(-0.0016225448 -0.01309334 0.0011563538)
(-0.00059724889 -0.012632515 -0.0011806495)
(0.0012225256 -0.018044161 -0.00066966871)
(0.00079399374 -0.017838088 -0.0017242083)
(0.000830333 -0.018538549 -0.00085464037)
(-0.001926727 -0.012039043 -0.0020979164)
(-0.00021603647 -0.01014219 -0.0019213181)
(0.0025587813 -0.015445024 -0.0013440672)
(0.0014789279 -0.016322735 -0.00020028797)
(0.00036461389 -0.017485597 -0.00029242421)
(-0.000859689 -0.015410448 0.0032756177)
(-4.5798909e-05 -0.020370094 0.0028896777)
(-0.00086046914 -0.018200847 0.0024959694)
(-0.0016502697 -0.018578363 0.00011200184)
(0.0014051544 -0.010289901 -8.2421176e-05)
(0.0039480846 -0.011771526 0.00080455959)
(0.0023974277 -0.012873695 0.0011614566)
(0.0014074949 -0.014534764 0.0011560383)
(0.00076374834 -0.016583345 0.0026024887)
(-0.001268495 -0.016106798 0.004107455)
(-0.0028012422 -0.013887604 0.0036386015)
(-0.0012961769 -0.011374369 0.00200555)
(0.0027753807 -0.016639191 0.0029870122)
(0.0022832362 -0.015664119 0.00087846846)
(0.0025553287 -0.015853234 -0.00024985278)
(0.0020073362 -0.016852921 -0.00080889079)
(0.00055231125 -0.015997325 -0.00061768224)
(-0.0016638578 0.017572182 0.0017343522)
(-0.003067143 0.014760199 0.0023038579)
(-9.1740502e-07 0.0036136073 0.0024484215)
(0.001649788 0.0084865117 0.0017403934)
(0.0048971905 0.0067224059 -0.00022108547)
(0.0080636869 0.016565949 -0.00076489633)
(0.0068457039 0.019130817 -0.0019680024)
(-0.0010535568 0.019567122 -0.0037021464)
(-0.0039121871 0.013833896 -0.0043931247)
(0.0022789136 -0.0011761319 -0.0017374564)
(0.0053036054 0.013107435 -0.0030184259)
(0.0053909934 0.017598964 -0.0021639685)
(-0.001634617 0.01844664 0.0022961397)
(-0.0028090863 0.016245103 0.0058072559)
(0.0010287444 0.020296827 0.0060958326)
(-0.0033634074 0.019699219 0.00094065195)
(-0.0069824815 0.016661893 -0.0023660676)
(-0.0021017484 -0.00027171863 -0.0014465848)
(0.0030937147 0.011016155 0.0015198395)
(0.0041476949 0.014961482 0.0031400501)
(0.0043829913 0.016568085 0.0031716906)
(0.0011197855 0.01813621 0.002808285)
(-0.0059029386 0.017542572 0.0030728489)
(-0.006265203 0.013720498 0.002487806)
(-0.001072995 -0.00097909426 0.00015178108)
(0.0041796746 0.014848668 0.0026456416)
(0.0050496722 0.016991316 0.001720004)
(0.0044866099 0.017637755 0.0002177664)
(0.0030325357 0.018277517 -0.00091624419)
(-0.00065701356 0.017475048 -0.0035672342)
(0.001262661 -0.0078827144 0.0019260225)
(0.0035053768 -0.01502493 0.0015564127)
(0.0022030885 -0.013665641 0.0024168151)
(0.0022399487 -0.013095634 0.00073744472)
(0.002650924 -0.014701766 -0.0015583999)
(-0.0025497907 -0.012563941 -0.0040268802)
(0.0036343772 0.0049038863 -0.003245464)
(0.0010921102 0.0042276441 -0.0027171087)
(0.0058083242 -0.011108277 0.0010424751)
(0.0026972565 -0.014404771 0.0009395113)
(-0.0039245387 -0.013929566 0.0056396626)
(0.00094783404 0.0031126083 -0.00046061167)
(-0.00089976904 0.0030739612 0.0011224956)
(0.001737849 -0.014698754 -0.0062728216)
(-0.00096638557 -0.018711841 -0.0035482597)
(-8.6276123e-05 0.0041581742 0.0018099069)
(0.0026319853 -0.014843631 0.0049471813)
(-0.0016950472 -0.014180005 -0.0016682544)
(-0.002724067 -0.014012625 -0.0029719495)
(8.8324597e-05 -0.0077324521 -0.0027937887)
(-0.00016301057 9.9262669e-05 -0.00047127048)
(0.0018525464 0.0055628008 0.0010803428)
(-0.00076408791 0.0030474531 0.0021634649)
(0.0057617869 -0.013129885 -0.0028399584)
(0.00078863891 -0.015421663 -0.0022670715)
(-0.0033756176 -0.016188768 -0.0017855858)
(0.0014174134 -0.0013215694 0.0016513449)
(-0.00052363497 0.0024124386 -0.00085470647)
(0.0013047741 0.0045294477 -0.00098857485)
(0.00025990598 0.00045708701 -0.0019519523)
(0.0026723921 0.0099442304 -0.0023552527)
(0.00033493545 0.01255623 -0.0027763298)
(0.0004704935 0.0022670092 0.00025309818)
(0.00012488929 -0.0011563771 -0.00019136885)
(0.002156035 0.0071549583 -0.0031143417)
(-0.0029501977 0.0089674672 -0.0036616381)
(-0.00031875759 0.0084959421 -0.0038083271)
(0.0024345052 0.0088918686 -0.0011518781)
(0.0044925185 0.010649063 6.0034956e-05)
(0.0029326064 0.0046330301 -0.00010443217)
(-0.0017567359 0.010780195 0.0032410656)
(-0.00074084916 0.0082332511 0.0013588267)
(0.0022791465 0.0092946219 -0.0013255736)
(0.0063461721 0.011847167 -0.0039284694)
(-0.0011264565 0.014890911 -0.0048752372)
(0.0006288855 0.0085988668 0.0027351894)
(0.0031294428 0.012867129 0.0014301861)
(-0.0017336546 0.0019407379 -0.001665495)
(-0.0019385092 0.003243982 -0.0031136139)
(-0.0020168097 0.0087981718 -0.0048213219)
(-0.0021198491 0.0084989753 -0.0039228162)
(0.00090023944 0.010078396 0.00074559517)
(0.0020148528 0.0083155025 0.0010128615)
(0.0042534371 0.011229844 -0.00159601)
(-0.0012607935 0.010562448 -0.00026225668)
(-0.0031977279 0.0099390467 0.00019519313)
(-0.0019580069 0.0067361183 -0.00013629439)
(-0.002133333 0.0084079131 -0.0006934442)
(-0.00048529812 0.0096299929 -0.00075346279)
(0.00023653327 0.0079963259 0.0010937734)
(0.00064071886 -0.0042504662 0.0044661887)
(0.0027879631 -0.0029279671 0.00055515479)
(0.0051151877 -0.0083083002 0.0008704691)
(-0.00093486691 -0.010256186 -0.001652484)
(-0.0046488329 -0.0089042925 -0.00068189888)
(-0.0038985328 -0.0032695431 -0.00075117983)
(-0.0021958581 0.0017770245 -0.0019915575)
(0.0014203962 0.0015684837 0.00047458515)
(0.0040004408 -0.0075644862 0.0016369618)
(-0.00049943002 -0.0095962091 0.0021746633)
(-0.0026213145 -0.0027932663 0.00094088803)
(-6.5378388e-05 0.00060903865 -0.00067030482)
(-2.8480285e-05 -0.00093435594 -0.0030413776)
(0.00072433935 -0.0041944884 -0.0044620863)
(0.0015384381 -0.0030542412 -0.0035159089)
(0.0045597839 -0.0020285354 -0.0023933894)
(0.0050600812 -0.0037784375 -0.0019939802)
(0.0059091851 -0.0077705189 -0.0023768531)
(-0.0025967555 -0.010842253 -0.0024478826)
(-0.003605836 -0.0060931971 -0.0015027844)
(-0.0031549943 -0.0007333593 -0.00050171234)
(-0.00031766214 0.0032428387 0.0010259642)
(0.0025281403 -0.00017069938 0.0012874763)
(0.002719239 -0.0058674123 0.0012130324)
(0.0019019817 -0.0056617057 0.00030282881)
(-0.00071266306 -0.01125444 -0.00052998557)
(-0.0043129807 -0.0031861386 -0.00064485893)
(-0.0035403305 0.001124835 -0.00075271966)
(-0.0015299619 0.0032019281 -0.00074027618)
(0.00098063385 -0.0011753969 -0.00086257809)
(-0.00045860093 -0.015168744 -0.0016659075)
(-0.002133283 -0.015331714 -0.00098075337)
(-0.0030755934 -0.014769072 -3.4751098e-05)
(-0.0046310185 -0.013302904 -0.0016231792)
(-0.0025096882 -0.011747591 -0.0016076712)
(0.0012450729 -0.012899851 -0.0022042329)
(0.00039930708 -0.018355933 -0.0024401489)
(-0.0022312803 -0.017172113 -0.001244124)
(-0.0023586322 -0.011116526 -0.0017525491)
(-0.00051137874 -0.012728209 0.00010074235)
(0.0027404271 -0.01172434 -0.00012912916)
(0.0033044857 -0.014906385 -0.00085014069)
(0.0014991371 -0.016572357 -0.00094405072)
(-0.00015797013 -0.017050963 -0.00084755994)
(-0.001010806 -0.017296697 -0.00023317684)
(-0.0028778923 -0.0151488 -9.6959394e-05)
(-0.00073083664 -0.011977391 -8.414928e-05)
(0.0031968306 -0.011582315 0.0010799231)
(0.0037153875 -0.014799648 0.00076449577)
(0.0027714449 -0.015772187 -0.00041171524)
(0.0017668676 -0.016606263 -0.00076985344)
(0.00089605802 -0.016793238 0.0018331644)
(-1.1013801e-05 -0.016290194 0.0038087978)
(-0.00053925697 -0.016115054 0.0030963389)
(-0.0006317852 -0.016124288 0.0020673698)
(-0.0021454416 -0.016084512 -0.0023402792)
(0.0010630687 -0.012212297 -0.0031898284)
(0.0034617552 -0.01550985 -0.0032186084)
(0.0024881708 -0.016350044 -0.0025162027)
(0.0004195844 -0.015250452 -0.0023897429)
(-0.0016965863 0.016901406 0.0015163619)
(-0.0036866062 0.017132233 0.0021662286)
(-0.0037276044 0.016077688 0.0021265062)
(-0.0033867896 0.014017955 -9.9621408e-05)
(0.0019025765 0.00013622595 -0.00094913471)
(0.0044897378 0.0061934629 -0.0027708552)
(0.0050891591 0.018106787 -0.0034097276)
(-0.0057284386 0.017280643 -0.0023176255)
(-0.0020451564 0.003506189 -0.0013317229)
(-0.00031719693 0.0011659131 0.00040586837)
(0.0024345746 0.00084907652 0.00090560944)
(0.0065065606 0.015400149 -0.0015877352)
(0.0048242956 0.018410655 -0.0027648232)
(-0.00032403205 0.018831129 0.001694367)
(-0.003124721 0.019120112 0.0031843203)
(-0.0065545503 0.01542449 0.00094802832)
(-0.0003350558 -0.00015940948 0.0023623224)
(0.0014215725 0.0018298424 -0.0011805311)
(0.0062297106 0.015307223 -0.00099902597)
(0.0055823287 0.017635907 -0.0012486177)
(0.0028806173 0.01821003 -0.0012278016)
(0.00014189487 0.018390768 -0.00072933474)
(-0.0028924995 0.018212659 -0.00060590001)
(-0.0039266293 0.018475918 -0.00052944206)
(-0.0040834062 0.018520524 -0.0004310646)
(-0.0040015335 0.016535172 -0.0039097088)
(0.001042179 0.003525795 -0.0040663908)
(0.0055862464 0.015393903 -0.0062913747)
(0.0030003218 0.018365783 -0.0060098961)
(-0.0017948625 0.016153063 -0.0063673985)
(0.00041981912 -0.0012759091 0.00095500846)
(0.0019730359 -0.0052638229 0.0021688343)
(0.0045329471 -0.010769139 0.0026850714)
(0.0067858065 -0.014981689 0.0040842805)
(0.00304287 -0.014758221 0.0016242224)
(-0.0034590366 -0.012611784 -0.00099777921)
(0.0023666583 0.0012081821 -0.0033921561)
(0.0017335955 -0.0090129027 -0.0012698054)
(0.0025395658 -0.013553577 0.00024336714)
(0.00062150211 -0.013253677 0.0023460069)
(-0.0024118169 -0.015718861 0.0034542238)
(-0.0044092703 -0.013178296 0.00061616447)
(0.0013010893 0.0043907022 -0.00092716743)
(-0.00027790921 0.0057395053 0.0011479855)
(-0.0011011239 0.0047733915 0.0044766801)
(0.0038711095 -0.01155945 0.0033169002)
(0.0033768821 -0.015129358 0.004937082)
(-0.0017532934 -0.014310085 -0.0021429768)
(-0.0020180556 -0.013238829 -0.002973911)
(0.0013097399 0.0017118045 -0.0025588101)
(-0.00021646104 -0.00064118107 -0.0012714922)
(0.0012059832 0.00010677647 0.00096832307)
(-0.00017342862 0.0011057426 -0.00010133231)
(0.00078270064 -0.0016101257 -0.001924774)
(0.00046077336 -0.0080041617 -0.0037910354)
(0.0041016643 -0.014979079 -0.0015258471)
(0.0010785185 -0.015425533 -0.00035389718)
(-0.0022259514 -0.010657351 -0.00081119155)
(0.0019247748 0.0045348843 -0.0026147552)
(-0.00033864192 -0.01379076 0.006059006)
(0.0016376903 0.0084905312 -0.0013706632)
(0.003653736 0.0069879813 -0.0016332466)
(0.0050544925 0.0067189339 -0.0010319861)
(0.0049060808 0.010986052 -0.0012462572)
(0.0015911292 0.0078772105 -0.0022502733)
(0.00057244848 -0.00098744537 -0.0024364006)
(0.0025490668 0.0063911031 -0.0029453457)
(0.0029108839 0.010310916 -0.0018920726)
(0.00060173612 0.0020873409 0.00087209785)
(-0.0010099607 0.0023234192 0.0027814043)
(-0.00030007161 0.010206678 0.0007492079)
(-0.0038738306 0.010111434 0.0024025413)
(-0.001975991 0.0083306927 -0.00050682158)
(1.7455526e-05 0.009248661 -0.0012930357)
(0.0018810047 0.0082285867 0.00044624493)
(0.0049616666 0.010784883 0.0034305539)
(0.0021403672 0.011139999 0.00019913886)
(0.0010154151 0.0026278121 0.00090959593)
(-0.0026437535 0.0047822918 -0.00025629599)
(-0.0014911412 0.0078591197 -0.0024674127)
(-0.00029224008 0.0088677588 -0.00050212049)
(0.0016945943 0.0087865022 0.0033954101)
(0.00086955474 0.0085626822 0.0031999528)
(0.002888922 0.0083338254 0.00025515716)
(0.0040765479 0.0083695431 -0.0001644679)
(0.003464566 0.0082319344 -0.00087409516)
(0.0030073475 0.010536933 0.0010579412)
(-0.0031874907 0.010742528 0.00291447)
(0.0014259793 0.0085388219 0.00089346625)
(0.0033732273 0.011664985 0.0045626858)
(0.00094897728 -0.0081514395 0.0044335849)
(0.0030791795 -0.010025711 0.0029274606)
(0.00016132288 -0.011941605 -0.0019248126)
(0.0019631742 -0.0053266081 -0.0025436003)
(0.0043787086 -0.0094962242 -0.0012849362)
(0.0019375926 -0.010100949 0.00060110446)
(-0.0032514642 -0.0010327063 0.00035551756)
(0.0024383695 0.00064835682 0.00087321904)
(0.002918728 -0.0075814306 0.0035805925)
(-0.0043172737 -0.0096354593 0.0029693502)
(-0.0038882195 -0.0055244558 0.0024683188)
(-0.0026276319 -0.0045832946 0.0015322029)
(-0.0019730109 0.00068079661 0.00079293184)
(0.00020366616 0.0014225155 -0.00074808264)
(0.0020621293 -0.0023083755 0.0021957537)
(0.0041168169 -0.0041834057 0.0016586111)
(0.0056683503 -0.0062595624 0.0010374061)
(0.0062402283 -0.0090779818 -5.503067e-05)
(-0.0015164797 -0.010837135 0.0010434304)
(-0.0007679607 -0.0047221663 0.00039622865)
(-0.00071529084 -0.008711966 0.0023328905)
(-0.00013674203 -0.00079492126 0.0031833095)
(0.0031285398 -0.0017322035 0.0030213188)
(0.0037461838 -0.0073333136 0.0043975727)
(0.003093685 -0.01054014 0.0053430724)
(-0.001857276 -0.011935372 0.0043463463)
(-0.0032366504 -0.0057430872 0.0039750101)
(-0.0030526393 -0.0041421339 0.0036294349)
(-0.0020926604 -0.0017479259 0.0025595897)
(0.00058183 -0.0017632883 0.0040287996)
(-0.00054592791 -0.014863065 -0.0025506782)
(-0.0020878639 -0.013794257 -0.0017657626)
(-0.0043830704 -0.012193498 -0.0009239094)
(-0.0029817632 -0.011436214 -0.00042365096)
(-0.00039921047 -0.013151046 -0.00090850065)
(0.0019331441 -0.011655122 0.00048650462)
(0.002189276 -0.018024673 0.00054337453)
(-0.0019790973 -0.017763393 0.0014935543)
(-0.0028181413 -0.012041361 0.00035394483)
(-0.00074558567 -0.012437006 0.00070961885)
(0.0020213021 -0.013794027 0.00092656103)
(0.0017618825 -0.01869955 -0.000569061)
(0.00024097758 -0.016453879 -0.0016005034)
(0.0014711665 -0.01616536 0.0011057633)
(0.00092984372 -0.014061255 -0.002009532)
(0.00014298509 -0.015158754 -0.0029136399)
(-0.0005883627 -0.015200142 -0.0018961951)
(-0.0022964686 -0.014466961 -0.0007357912)
(-0.0022073585 -0.015605685 -0.00099936383)
(-0.0022952285 -0.016387591 -0.0023511998)
(-0.0030771525 -0.015593753 -0.0022496327)
(-0.0010193485 -0.011014272 -0.0016219443)
(0.0014050813 -0.011792956 -0.0020983421)
(0.002813655 -0.01421731 -0.0029575593)
(0.00028949251 -0.017774157 -0.0024166223)
(-0.001879355 -0.011871078 0.00035394067)
(-0.0021906095 0.016693095 0.00042986084)
(-0.0044182456 0.016288299 0.0013219497)
(-0.0057140651 0.013712687 0.00184492)
(0.00055293285 -0.00044081262 0.0018305091)
(0.0015993664 0.00176673 -0.00034804153)
(0.0041105055 0.0029216899 -0.00044558724)
(0.0066456851 0.01653677 -0.0011960098)
(-0.0035619298 0.018247021 0.00061741005)
(-0.0024091203 0.0055912139 -0.00010521813)
(-5.8795483e-05 -0.00094678687 -0.00027368072)
(0.0019138057 0.0075141186 0.00059406635)
(0.0039528132 0.019109225 -0.0021529645)
(0.0024834635 0.017240258 -0.0049459211)
(0.0012775153 0.015747142 5.508848e-05)
(0.0034745109 0.015844589 -0.0022522794)
(0.0034722501 0.016816166 -0.0037806757)
(-0.0017083285 0.017154642 -0.00045229348)
(-0.0030331684 0.016492997 -0.00075177227)
(-0.0014170131 0.016323579 -0.003014357)
(-0.0032424059 0.017745187 -0.0051267117)
(-0.0051727112 0.015350117 -0.003171957)
(-0.00065389162 -0.0017801374 -0.00051011904)
(0.00081482837 0.0025608447 -0.002870765)
(0.003929963 0.01018344 -0.0042625037)
(0.00042943298 0.018492683 -0.0048339269)
(-9.9726814e-05 0.0014930638 0.0015552912)
(0.00068727998 0.0019534774 0.00058735268)
(0.0017418904 -0.0013330378 0.0018867248)
(0.0066019982 -0.012867463 0.0023244941)
(0.0058705497 -0.015265196 0.0018691155)
(0.00053480718 -0.013796288 -0.00035067986)
(-0.0017374115 -0.013573334 -0.0016384898)
(0.00040866951 -0.0081322983 -0.0024654319)
(-1.8461326e-05 -0.0041800373 -0.0013399204)
(0.0026533556 -0.012768023 -0.00022236483)
(0.00070074713 -0.014566512 -0.0025648738)
(-0.003883215 -0.014302211 -0.0028131409)
(-0.0025695707 -0.012379884 -0.0024940288)
(0.00057832307 -0.0028351951 -0.00088629813)
(-0.0013710221 -0.017441579 -0.0025385389)
(-0.0013657883 -0.01454728 0.0028964024)
(0.0028759599 -0.0050760724 -0.00069597685)
(0.00059412668 -0.0024040213 0.0024027192)
(0.0027815437 -0.013732581 0.0044360985)
(0.001498658 -0.015971165 0.0061372313)
(-0.0014341127 -0.0073513728 0.00057812636)
(0.0033280211 -0.013808156 0.0017031226)
(0.0025014941 -0.014497557 0.0019491907)
(0.00041712538 -0.012794 -0.0012976541)
(0.0010354548 -0.013485884 -0.00033850985)
(0.0029613617 -0.012761776 0.00053500794)
(0.002834452 -0.014554785 0.0023455867)
(0.0017588165 0.008479702 0.00069036288)
(0.0044949676 0.007388726 0.00089289836)
(0.0056853215 0.010398984 0.00071333708)
(0.0036190063 0.011106964 -0.0016140203)
(0.0016689313 0.0074568652 -0.0019935106)
(0.0017161205 -0.0026142064 -0.0029586523)
(0.0009363181 0.0058396914 -0.0020988903)
(0.001850898 0.0083345149 -0.0040322291)
(-3.9700217e-05 -0.00044250108 0.0010799601)
(0.001549774 0.007409702 0.0014438455)
(0.00027381483 0.010709006 -0.004169925)