/*--------------------------------*- C++ -*----------------------------------*\
| =========                 |                                                 |
| \\      /  F ield         | OpenFOAM: The Open Source CFD Toolbox           |
|  \\    /   O peration     | Version:  v2012                                 |
|   \\  /    A nd           | Website:  www.openfoam.com                      |
|    \\/     M anipulation  |                                                 |
\*---------------------------------------------------------------------------*/
FoamFile
{
    version     2.0;
    format      ascii;
    class       volScalarField;
    location    "540/leftSolid";
    object      T;
}
// * * * * * * * * * * * * * * * * * * * * * * * * * * * * * * * * * * * * * //

dimensions      [0 0 0 1 0 0 0];


internalField   nonuniform List<scalar> 
130
(
913.67271
913.63585
913.55383
913.42075
913.23069
912.97706
912.70334
912.41476
912.10923
911.80243
911.51375
911.2561
911.10406
913.72109
913.68217
913.59687
913.45919
913.26489
913.01274
912.73919
912.43847
912.11277
911.79925
911.52243
911.28939
911.10717
913.80597
913.76426
913.67198
913.52353
913.31386
913.05011
912.77044
912.46757
912.14854
911.83758
911.56341
911.3456
911.19112
913.92282
913.87842
913.77889
913.6162
913.38115
913.11961
912.83886
912.53364
912.20415
911.87746
911.57648
911.34041
911.19852
914.05346
914.00535
913.89907
913.73077
913.49852
913.24122
912.95741
912.63269
912.26977
911.87075
911.4502
911.13755
910.96556
914.17575
914.12346
914.00962
913.8349
913.60537
913.34996
913.0577
912.70854
912.31968
911.89406
911.49852
911.18193
910.97559
914.27851
914.22159
914.09972
913.90736
913.68104
913.42457
913.13806
912.80713
912.43343
912.08534
911.76184
911.5047
911.33918
914.35037
914.29252
914.16268
913.95162
913.72254
913.47544
913.2194
912.95575
912.69269
912.43328
912.19638
912.00136
911.86838
914.39565
914.33867
914.21051
914.00428
913.79393
913.58617
913.38239
913.18285
912.98377
912.78893
912.60089
912.44458
912.35375
914.41651
914.35967
914.22966
914.05168
913.87314
913.69754
913.52619
913.36198
913.20098
913.04813
912.9054
912.78323
912.70433
)
;

boundaryField
{
    minX
    {
        type            zeroGradient;
    }
    minZ
    {
        type            zeroGradient;
    }
    maxZ
    {
        type            zeroGradient;
    }
    leftSolid_to_bottomWater
    {
        type            compressible::turbulentTemperatureCoupledBaffleMixed;
        refValue        nonuniform List<scalar> 
130
(
968.51936
968.38951
968.11489
967.90427
967.61442
962.16838
961.55855
962.08226
960.8888
959.31951
957.58273
949.64614
945.38904
969.38309
969.1513
968.96827
968.68402
968.12575
964.07279
964.10715
962.59613
957.32207
954.18958
953.5659
953.22369
939.14078
969.94627
969.83354
969.51812
969.22474
967.73645
962.34277
961.83595
960.22257
957.8653
954.76098
953.12158
953.26889
945.22565
970.79269
970.93207
970.89706
970.71192
964.27565
962.09094
961.44851
960.97375
958.14313
956.60609
955.16612
954.0978
952.00733
971.5636
971.60641
971.28393
970.94526
966.74074
965.78026
965.9827
964.19721
961.25915
954.28015
933.78658
928.40478
927.03746
971.55789
971.5668
970.93769
970.43051
967.29895
967.46782
966.90351
961.23764
956.19717
942.98356
935.65522
929.34962
917.09514
971.46127
971.26273
971.26431
967.78205
967.64189
966.61365
965.38115
960.5706
947.91002
945.96823
939.67096
936.29631
930.98309
970.37159
970.67689
970.17853
962.92173
961.69832
958.4637
956.44188
954.58646
954.50419
951.70502
949.85219
947.92426
941.18578
969.16513
969.4941
969.33441
960.6993
959.09259
958.4262
958.34291
958.5982
957.63861
956.57954
953.0269
949.45141
948.88496
968.31043
968.93506
965.88936
962.0208
962.42417
962.82908
962.88178
963.35968
962.97005
963.14833
962.54071
960.49226
957.59631
)
;
        refGradient     uniform 0;
        valueFraction   nonuniform List<scalar> 
130
(
0.0075140686
0.0075140686
0.0075140686
0.0075140686
0.0075140686
0.0075140686
0.0075140686
0.0075140686
0.0075140686
0.0075140686
0.0075140686
0.0075140686
0.0075140686
0.0075140686
0.0075140686
0.0075140686
0.0075140686
0.0075140686
0.0075140686
0.0075140686
0.0075140686
0.0075140686
0.0075140686
0.0075140686
0.0075140686
0.0075140686
0.0075140686
0.0075140686
0.0075140686
0.0075140686
0.0075140686
0.0075140686
0.0075140686
0.0075140686
0.0075140686
0.0075140686
0.0075140686
0.0075140686
0.0075140686
0.0075140686
0.0075140686
0.0075140686
0.0075140686
0.0075140686
0.0075140686
0.0075140686
0.0075140686
0.0075140686
0.0075140686
0.0075140686
0.0075140686
0.0075140686
0.0075140686
0.0075140686
0.0075140686
0.0075140686
0.0075140686
0.0075140686
0.0075140686
0.0075140686
0.0075140686
0.0075140686
0.0075140686
0.0075140686
0.0075140686
0.0075140686
0.0075140686
0.0075140686
0.0075140686
0.0075140686
0.0075140686
0.0075140686
0.0075140686
0.0075140686
0.0075140686
0.0075140686
0.0075140686
0.0075140686
0.0075140686
0.0075140686
0.0075140686
0.0075140686
0.0075140686
0.0075140686
0.0075140686
0.0075140686
0.0075140686
0.0075140686
0.0075140686
0.0075140686
0.0075140686
0.0075140686
0.0075140686
0.0075140686
0.0075140686
0.0075140686
0.0075140686
0.0075140686
0.0075140686
0.0075140686
0.0075140686
0.0075140686
0.0075140686
0.0075140686
0.0075140686
0.0075140686
0.0075140686
0.0075140686
0.0075140686
0.0075140686
0.0075140686
0.0075140686
0.0075140686
0.0075140686
0.0075140686
0.0075140686
0.0075140686
0.0075140686
0.0075140686
0.0075140686
0.0075140686
0.0075140686
0.0075140686
0.0075140686
0.0075140686
0.0075140686
0.0075140686
0.0075140686
0.0075140686
0.0075140686
)
;
        value           nonuniform List<scalar> 
130
(
914.0829
914.04534
913.96188
913.82822
913.63741
913.34478
913.06848
912.78594
912.47372
912.15737
911.85775
911.54234
911.35953
914.1374
914.09703
914.01099
913.87221
913.67519
913.39449
913.12325
912.81343
912.45053
912.1158
911.83635
911.60246
911.31576
914.22587
914.18362
914.08966
913.94012
913.72086
913.41858
913.13721
912.82449
912.49014
912.1582
911.8738
911.65873
911.445
914.34823
914.3052
914.20614
914.04327
913.76161
913.48565
913.2022
912.89572
912.54746
912.21173
911.90225
911.65992
911.50338
914.48372
914.43629
914.32836
914.15876
913.89663
913.63406
913.35393
913.01829
912.63612
912.18784
911.61652
911.26567
911.08465
914.60513
914.55328
914.43555
914.25828
914.0069
913.75469
913.46044
913.07141
912.64774
912.12613
911.67846
911.31686
911.02003
914.70646
914.64846
914.52749
914.31034
914.0846
913.82231
913.52873
913.16425
912.69829
912.33827
911.96994
911.68938
911.48512
914.76967
914.71454
914.58192
914.31787
914.08127
913.81173
913.54243
913.26684
913.0052
912.72679
912.47782
912.2698
912.08719
914.80561
914.75153
914.62314
914.35354
914.13266
913.92145
913.71858
913.52249
913.31776
913.11651
912.90323
912.72124
912.62684
914.81995
914.76821
914.61626
914.41052
914.23633
914.06509
913.89543
913.73608
913.57342
913.4231
913.27693
913.14035
913.0403
)
;
        Tnbr            T;
        thicknessLayers List<scalar> 0();
        kappaLayers     List<scalar> 0();
        kappaMethod     solidThermo;
        kappa           none;
        alphaAni        none;
        alpha           none;
        field           T;
    }
    leftSolid_to_heater
    {
        type            compressible::turbulentTemperatureCoupledBaffleMixed;
        refValue        nonuniform List<scalar> 10(734.15942 724.72863 704.99361 672.96194 626.08589 626.20289 673.3809 705.75122 725.64489 735.12929);
        refGradient     uniform 0;
        valueFraction   nonuniform List<scalar> 10(2.08329e-05 2.08329e-05 2.08329e-05 2.08329e-05 2.08329e-05 2.08329e-05 2.08329e-05 2.08329e-05 2.08329e-05 2.08329e-05);
        value           nonuniform List<scalar> 10(911.09821 911.10121 911.18496 911.19176 910.95794 910.9681 911.33254 911.86259 912.34844 912.69927);
        Tnbr            T;
        thicknessLayers List<scalar> 1(0.001);
        kappaLayers     List<scalar> 1(0.0005);
        kappaMethod     solidThermo;
        kappa           none;
        alphaAni        none;
        alpha           none;
        field           T;
    }
    leftSolid_to_topAir
    {
        type            compressible::turbulentTemperatureCoupledBaffleMixed;
        refValue        nonuniform List<scalar> 
130
(
324.94986
348.01981
368.89622
388.17782
406.36254
423.74677
440.43915
456.29567
471.00335
484.52123
496.71876
507.35216
515.88856
324.94554
347.76839
368.15942
386.71764
403.90456
419.95699
434.93353
448.7653
461.23623
471.99699
480.54436
486.26072
488.32684
324.94573
347.81291
368.26608
386.90249
404.19128
420.38276
435.58549
449.82261
463.01153
474.94191
485.21414
493.14479
497.51379
324.95022
347.83681
368.33185
387.03933
404.44709
420.84092
436.37935
451.14544
465.1648
478.36148
490.46818
500.83637
508.2183
324.95464
347.8502
368.35943
387.08616
404.5198
420.94797
436.52974
451.34993
465.41381
478.59639
490.4965
500.22487
506.63634
324.9596
347.85972
368.37307
387.10382
404.54216
420.97656
436.56804
451.40328
465.49968
478.76216
490.86493
501.02783
507.91517
324.96459
347.86434
368.37121
387.08962
404.50968
420.91771
436.47299
451.2637
465.32287
478.59824
490.87829
501.62169
509.61187
324.96772
347.85519
368.32634
386.97833
404.28264
420.4912
435.71402
449.97508
463.19641
475.18133
485.56486
493.73754
498.56859
324.97274
347.82063
368.23402
386.81214
404.01963
420.0955
435.09705
448.95525
461.45389
472.2428
480.83095
486.63968
488.9228
324.97986
348.07767
368.97907
388.28422
406.49403
423.90643
440.62557
456.5054
471.23664
484.77825
497.00107
507.66583
516.25123
)
;
        refGradient     uniform 0;
        valueFraction   nonuniform List<scalar> 
130
(
0.00032132529
0.00032132529
0.00032132529
0.00032132529
0.00032132529
0.00032132529
0.00032132529
0.00032132529
0.00032132529
0.00032132529
0.00032132529
0.00032132529
0.00032132529
0.00032132529
0.00032132529
0.00032132529
0.00032132529
0.00032132529
0.00032132529
0.00032132529
0.00032132529
0.00032132529
0.00032132529
0.00032132529
0.00032132529
0.00032132529
0.00032132529
0.00032132529
0.00032132529
0.00032132529
0.00032132529
0.00032132529
0.00032132529
0.00032132529
0.00032132529
0.00032132529
0.00032132529
0.00032132529
0.00032132529
0.00032132529
0.00032132529
0.00032132529
0.00032132529
0.00032132529
0.00032132529
0.00032132529
0.00032132529
0.00032132529
0.00032132529
0.00032132529
0.00032132529
0.00032132529
0.00032132529
0.00032132529
0.00032132529
0.00032132529
0.00032132529
0.00032132529
0.00032132529
0.00032132529
0.00032132529
0.00032132529
0.00032132529
0.00032132529
0.00032132529
0.00032132529
0.00032132529
0.00032132529
0.00032132529
0.00032132529
0.00032132529
0.00032132529
0.00032132529
0.00032132529
0.00032132529
0.00032132529
0.00032132529
0.00032132529
0.00032132529
0.00032132529
0.00032132529
0.00032132529
0.00032132529
0.00032132529
0.00032132529
0.00032132529
0.00032132529
0.00032132529
0.00032132529
0.00032132529
0.00032132529
0.00032132529
0.00032132529
0.00032132529
0.00032132529
0.00032132529
0.00032132529
0.00032132529
0.00032132529
0.00032132529
0.00032132529
0.00032132529
0.00032132529
0.00032132529
0.00032132529
0.00032132529
0.00032132529
0.00032132529
0.00032132529
0.00032132529
0.00032132529
0.00032132529
0.00032132529
0.00032132529
0.00032132529
0.00032132529
0.00032132529
0.00032132529
0.00032132529
0.00032132529
0.00032132529
0.00032132529
0.00032132529
0.00032132529
0.00032132529
0.00032132529
0.00032132529
0.00032132529
0.00032132529
0.00032132529
)
;
        value           nonuniform List<scalar> 
130
(
913.4816
913.45216
913.37687
913.25004
913.06588
912.81794
912.54961
912.26616
911.96543
911.66301
911.37829
911.12407
910.9749
913.52995
913.49837
913.41965
913.28798
913.09928
912.85238
912.58372
912.28754
911.96593
911.65594
911.38194
911.15078
910.96925
913.6148
913.58045
913.49476
913.35235
913.14832
912.88987
912.61518
912.31698
912.00229
911.69528
911.42452
911.20933
911.05633
913.73164
913.69459
913.60167
913.44503
913.21563
912.95948
912.68383
912.38347
912.05861
911.73632
911.43938
911.20672
911.06724
913.86228
913.82154
913.72186
913.55961
913.333
913.08108
912.8024
912.48259
912.12441
911.72994
911.31341
911.00388
910.83395
913.98461
913.93968
913.83244
913.66375
913.43985
913.18981
912.90272
912.55852
912.17446
911.75333
911.36178
911.04854
910.84452
914.08741
914.03785
913.92258
913.73623
913.51551
913.26437
912.98299
912.65703
912.28804
911.94437
911.62497
911.37138
911.20841
914.15933
914.10885
913.98561
913.78056
913.55707
913.31526
913.06421
912.80524
912.54658
912.29119
912.05777
911.86546
911.73408
914.20466
914.15504
914.03348
913.83326
913.62847
913.42594
913.22704
913.03206
912.83713
912.64589
912.46072
912.30633
912.21627
914.22557
914.17616
914.05288
913.88112
913.70846
913.53851
913.37261
913.21359
913.05743
912.90902
912.77032
912.65168
912.57558
)
;
        Tnbr            T;
        thicknessLayers List<scalar> 0();
        kappaLayers     List<scalar> 0();
        kappaMethod     solidThermo;
        kappa           none;
        alphaAni        none;
        alpha           none;
        field           T;
    }
}


// ************************************************************************* //
