/*--------------------------------*- C++ -*----------------------------------*\
| =========                 |                                                 |
| \\      /  F ield         | OpenFOAM: The Open Source CFD Toolbox           |
|  \\    /   O peration     | Version:  v2012                                 |
|   \\  /    A nd           | Website:  www.openfoam.com                      |
|    \\/     M anipulation  |                                                 |
\*---------------------------------------------------------------------------*/
FoamFile
{
    version     2.0;
    format      ascii;
    class       volScalarField;
    location    "610/leftSolid";
    object      T;
}
// * * * * * * * * * * * * * * * * * * * * * * * * * * * * * * * * * * * * * //

dimensions      [0 0 0 1 0 0 0];


internalField   nonuniform List<scalar> 
130
(
920.869
920.82024
920.73023
920.58843
920.38426
920.16012
919.9112
919.62344
919.32927
919.07301
918.84543
918.66789
918.5542
920.86253
920.81586
920.72437
920.58601
920.4009
920.18072
919.94672
919.6885
919.41157
919.16037
918.93125
918.73586
918.5652
920.89864
920.85447
920.76571
920.63137
920.45516
920.25398
920.0399
919.81029
919.56028
919.30866
919.04644
918.82969
918.65702
921.00316
920.96314
920.87081
920.73561
920.56578
920.37635
920.16639
919.9331
919.67606
919.39539
919.10617
918.86257
918.68312
921.15319
921.11206
921.02301
920.88583
920.70653
920.49454
920.25551
919.99657
919.71403
919.39965
919.05271
918.77643
918.60141
921.22787
921.18573
921.09481
920.9511
920.75486
920.50587
920.23209
919.94219
919.62833
919.2741
918.87427
918.55781
918.37239
921.24594
921.20017
921.1007
920.94049
920.71463
920.41338
920.10614
919.78233
919.43068
919.05386
918.65754
918.29858
918.10239
921.22948
921.17928
921.06938
920.89542
920.65507
920.34171
920.00989
919.66718
919.3079
918.9339
918.5443
918.17941
917.97164
921.20036
921.14497
921.02369
920.82539
920.57627
920.29354
919.98035
919.63777
919.27523
918.90152
918.5228
918.17598
917.9521
921.18466
921.12662
921.00115
920.80135
920.55364
920.28032
919.97429
919.62864
919.26987
918.90675
918.54886
918.22187
917.98271
)
;

boundaryField
{
    minX
    {
        type            zeroGradient;
    }
    minZ
    {
        type            zeroGradient;
    }
    maxZ
    {
        type            zeroGradient;
    }
    leftSolid_to_bottomWater
    {
        type            compressible::turbulentTemperatureCoupledBaffleMixed;
        refValue        nonuniform List<scalar> 
130
(
961.14155
959.903
960.31973
960.13344
953.96455
953.47263
953.4437
948.22396
942.319
941.89002
939.21683
939.06797
937.41125
959.0181
958.16549
957.54386
956.65824
955.16815
951.82512
951.80747
950.50143
944.91425
944.5401
944.4458
945.93556
930.88146
957.81786
957.05641
956.79645
956.01381
953.81065
952.47795
952.61421
953.34426
951.98121
953.71649
948.01623
948.03937
936.54187
958.53097
958.91382
956.95426
955.69375
954.501
955.81727
957.2152
957.76199
957.5442
955.31095
950.75652
948.25047
936.52294
965.07847
964.64501
963.77884
962.37158
961.07207
960.85768
960.15493
960.21463
960.46773
959.50612
948.77093
945.16231
939.20588
965.35067
965.076
964.77746
964.29531
964.0242
961.18842
959.73171
960.02002
960.99893
959.57045
944.4602
939.13546
934.54161
965.43521
965.19667
964.97288
964.44168
963.98747
954.76614
954.75136
954.72669
952.56628
950.34366
944.21228
930.29304
927.79263
965.25726
965.17
964.64216
964.43449
964.08355
956.28295
953.11893
952.42147
951.68183
951.72223
947.67092
933.76018
929.91641
964.93077
964.81168
964.59184
960.12308
957.50149
957.39559
957.14555
956.06153
954.7339
953.57827
949.75275
941.29305
932.88108
965.45473
965.27876
964.90189
961.64912
958.47199
958.76163
959.12673
956.23801
955.18759
954.45399
952.88996
948.71219
935.00086
)
;
        refGradient     uniform 0;
        valueFraction   nonuniform List<scalar> 
130
(
0.0075140686
0.0075140686
0.0075140686
0.0075140686
0.0075140686
0.0075140686
0.0075140686
0.0075140686
0.0075140686
0.0075140686
0.0075140686
0.0075140686
0.0075140686
0.0075140686
0.0075140686
0.0075140686
0.0075140686
0.0075140686
0.0075140686
0.0075140686
0.0075140686
0.0075140686
0.0075140686
0.0075140686
0.0075140686
0.0075140686
0.0075140686
0.0075140686
0.0075140686
0.0075140686
0.0075140686
0.0075140686
0.0075140686
0.0075140686
0.0075140686
0.0075140686
0.0075140686
0.0075140686
0.0075140686
0.0075140686
0.0075140686
0.0075140686
0.0075140686
0.0075140686
0.0075140686
0.0075140686
0.0075140686
0.0075140686
0.0075140686
0.0075140686
0.0075140686
0.0075140686
0.0075140686
0.0075140686
0.0075140686
0.0075140686
0.0075140686
0.0075140686
0.0075140686
0.0075140686
0.0075140686
0.0075140686
0.0075140686
0.0075140686
0.0075140686
0.0075140686
0.0075140686
0.0075140686
0.0075140686
0.0075140686
0.0075140686
0.0075140686
0.0075140686
0.0075140686
0.0075140686
0.0075140686
0.0075140686
0.0075140686
0.0075140686
0.0075140686
0.0075140686
0.0075140686
0.0075140686
0.0075140686
0.0075140686
0.0075140686
0.0075140686
0.0075140686
0.0075140686
0.0075140686
0.0075140686
0.0075140686
0.0075140686
0.0075140686
0.0075140686
0.0075140686
0.0075140686
0.0075140686
0.0075140686
0.0075140686
0.0075140686
0.0075140686
0.0075140686
0.0075140686
0.0075140686
0.0075140686
0.0075140686
0.0075140686
0.0075140686
0.0075140686
0.0075140686
0.0075140686
0.0075140686
0.0075140686
0.0075140686
0.0075140686
0.0075140686
0.0075140686
0.0075140686
0.0075140686
0.0075140686
0.0075140686
0.0075140686
0.0075140686
0.0075140686
0.0075140686
0.0075140686
0.0075140686
0.0075140686
0.0075140686
)
;
        value           nonuniform List<scalar> 
130
(
921.17093
921.11319
921.02696
920.88483
920.63587
920.4097
920.16242
919.83759
919.50126
919.24372
918.99776
918.82036
918.69504
921.14855
921.09579
921.00029
920.85631
920.66139
920.41773
920.18535
919.91925
919.60242
919.35031
919.12219
918.9394
918.65685
921.17536
921.12578
921.0357
920.89647
920.70502
920.49531
920.28385
920.06147
919.80311
919.56639
919.26326
919.0483
918.79052
921.28445
921.24761
921.14123
920.99755
920.82
920.64183
920.44391
920.21645
919.95971
919.66439
919.34311
919.08252
918.81634
921.48248
921.4384
921.34352
921.1968
921.00907
920.79701
920.55446
920.29788
920.01936
919.70014
919.27513
918.97382
918.75538
921.55857
921.51469
921.4222
921.27595
921.07914
920.8107
920.528
920.24242
919.93827
919.57599
919.06558
918.7115
918.49295
921.5771
921.52988
921.42948
921.26647
921.03888
920.67059
920.36552
920.04393
919.67866
919.28795
918.84851
918.38763
918.1741
921.5594
921.50893
921.39588
921.22166
920.98046
920.61083
920.2577
919.91229
919.55011
919.17916
918.762
918.29529
918.06016
921.52803
921.47216
921.35014
921.11974
920.85277
920.57135
920.25861
919.9104
919.54057
919.16093
918.75625
918.3484
918.06294
921.51635
921.45742
921.33005
921.10729
920.83756
920.56846
920.26744
919.90263
919.53862
919.17266
918.80565
918.44964
918.10916
)
;
        Tnbr            T;
        thicknessLayers List<scalar> 0();
        kappaLayers     List<scalar> 0();
        kappaMethod     solidThermo;
        kappa           none;
        alphaAni        none;
        alpha           none;
        field           T;
    }
    leftSolid_to_heater
    {
        type            compressible::turbulentTemperatureCoupledBaffleMixed;
        refValue        nonuniform List<scalar> 10(733.47683 724.10835 704.45947 672.44081 625.56031 625.55182 672.47005 704.55392 724.29605 733.69302);
        refGradient     uniform 0;
        valueFraction   nonuniform List<scalar> 10(2.08329e-05 2.08329e-05 2.08329e-05 2.08329e-05 2.08329e-05 2.08329e-05 2.08329e-05 2.08329e-05 2.08329e-05 2.08329e-05);
        value           nonuniform List<scalar> 10(918.54949 918.56025 918.65166 918.67716 918.59445 918.36535 918.09616 917.96595 917.94672 917.97743);
        Tnbr            T;
        thicknessLayers List<scalar> 1(0.001);
        kappaLayers     List<scalar> 1(0.0005);
        kappaMethod     solidThermo;
        kappa           none;
        alphaAni        none;
        alpha           none;
        field           T;
    }
    leftSolid_to_topAir
    {
        type            compressible::turbulentTemperatureCoupledBaffleMixed;
        refValue        nonuniform List<scalar> 
130
(
325.23788
348.57137
369.68748
389.1943
407.59671
425.1952
442.09553
458.14397
473.03003
486.70966
499.04479
509.7811
518.36502
325.23118
348.31238
368.93484
387.7068
405.09635
421.34367
436.5074
450.51158
463.13272
474.00861
482.61723
488.32832
490.32096
325.22936
348.3536
369.0373
387.88692
405.37856
421.76564
437.15494
451.56953
464.92612
477.00346
487.39174
495.39921
499.77475
325.23337
348.37695
369.10281
388.02473
405.63853
422.23305
437.96778
452.92861
467.13175
480.49882
492.75953
503.2535
510.6632
325.23868
348.39238
369.13435
388.07821
405.72109
422.35363
438.136
453.15202
467.41092
480.78894
492.88137
502.78319
509.20706
325.24171
348.39811
369.14246
388.08827
405.73235
422.36505
438.14684
453.16137
467.41434
480.77682
492.83744
502.68123
509.10108
325.24334
348.39602
369.13044
388.0603
405.68076
422.27869
438.01482
452.9759
467.18267
480.55504
492.81334
503.28136
510.6827
325.2429
348.37939
369.07361
387.93185
405.42938
421.81781
437.20856
451.61899
464.96403
477.02785
487.4006
495.3843
499.74763
325.24509
348.33887
368.97168
387.75123
405.14613
421.39543
436.55139
450.54222
463.14789
474.00427
482.59987
488.31454
490.32312
325.25084
348.59549
369.71977
389.23121
407.63494
425.22975
442.1154
458.13644
472.99076
486.63583
498.94001
509.65685
518.24314
)
;
        refGradient     uniform 0;
        valueFraction   nonuniform List<scalar> 
130
(
0.00032132529
0.00032132529
0.00032132529
0.00032132529
0.00032132529
0.00032132529
0.00032132529
0.00032132529
0.00032132529
0.00032132529
0.00032132529
0.00032132529
0.00032132529
0.00032132529
0.00032132529
0.00032132529
0.00032132529
0.00032132529
0.00032132529
0.00032132529
0.00032132529
0.00032132529
0.00032132529
0.00032132529
0.00032132529
0.00032132529
0.00032132529
0.00032132529
0.00032132529
0.00032132529
0.00032132529
0.00032132529
0.00032132529
0.00032132529
0.00032132529
0.00032132529
0.00032132529
0.00032132529
0.00032132529
0.00032132529
0.00032132529
0.00032132529
0.00032132529
0.00032132529
0.00032132529
0.00032132529
0.00032132529
0.00032132529
0.00032132529
0.00032132529
0.00032132529
0.00032132529
0.00032132529
0.00032132529
0.00032132529
0.00032132529
0.00032132529
0.00032132529
0.00032132529
0.00032132529
0.00032132529
0.00032132529
0.00032132529
0.00032132529
0.00032132529
0.00032132529
0.00032132529
0.00032132529
0.00032132529
0.00032132529
0.00032132529
0.00032132529
0.00032132529
0.00032132529
0.00032132529
0.00032132529
0.00032132529
0.00032132529
0.00032132529
0.00032132529
0.00032132529
0.00032132529
0.00032132529
0.00032132529
0.00032132529
0.00032132529
0.00032132529
0.00032132529
0.00032132529
0.00032132529
0.00032132529
0.00032132529
0.00032132529
0.00032132529
0.00032132529
0.00032132529
0.00032132529
0.00032132529
0.00032132529
0.00032132529
0.00032132529
0.00032132529
0.00032132529
0.00032132529
0.00032132529
0.00032132529
0.00032132529
0.00032132529
0.00032132529
0.00032132529
0.00032132529
0.00032132529
0.00032132529
0.00032132529
0.00032132529
0.00032132529
0.00032132529
0.00032132529
0.00032132529
0.00032132529
0.00032132529
0.00032132529
0.00032132529
0.00032132529
0.00032132529
0.00032132529
0.00032132529
0.00032132529
0.00032132529
0.00032132529
)
;
        value           nonuniform List<scalar> 
130
(
920.67692
920.63564
920.55241
920.41693
920.21876
920.00034
919.75691
919.4744
919.1851
918.93334
918.70979
918.53568
918.42475
920.67045
920.63118
920.54632
920.41403
920.23456
920.01966
919.7906
919.53695
919.26417
919.01657
918.79026
918.59671
918.42669
920.70653
920.66979
920.58768
920.45941
920.28887
920.09299
919.88391
919.65903
919.41341
919.16572
918.90687
918.69275
918.52153
920.81102
920.77845
920.69279
920.56369
920.39954
920.21545
920.01058
919.78214
919.52975
919.25348
918.96828
918.72815
918.55118
920.96093
920.92726
920.84491
920.71386
920.54027
920.33365
920.09973
919.84566
919.56779
919.25784
918.91488
918.64188
918.46901
921.03552
921.00083
920.91661
920.77903
920.58852
920.34493
920.07628
919.79128
919.4821
919.13229
918.73642
918.42324
918.23994
921.05354
921.01523
920.92245
920.76836
920.54823
920.25239
919.95028
919.63135
919.28435
918.91193
918.51964
918.16413
917.97037
921.03706
920.99431
920.89109
920.72324
920.48857
920.18057
919.85377
919.51576
919.16085
918.79079
918.40459
918.04235
917.83602
921.00793
920.95998
920.84537
920.65316
920.40968
920.13224
919.824
919.48597
919.12756
918.7574
918.38151
918.03657
917.81335
920.99221
920.94169
920.82303
920.62954
920.38782
920.12023
919.81969
919.47924
919.12532
918.76665
918.41277
918.08925
917.85283
)
;
        Tnbr            T;
        thicknessLayers List<scalar> 0();
        kappaLayers     List<scalar> 0();
        kappaMethod     solidThermo;
        kappa           none;
        alphaAni        none;
        alpha           none;
        field           T;
    }
}


// ************************************************************************* //
