/*--------------------------------*- C++ -*----------------------------------*\
| =========                 |                                                 |
| \\      /  F ield         | OpenFOAM: The Open Source CFD Toolbox           |
|  \\    /   O peration     | Version:  v2012                                 |
|   \\  /    A nd           | Website:  www.openfoam.com                      |
|    \\/     M anipulation  |                                                 |
\*---------------------------------------------------------------------------*/
FoamFile
{
    version     2.0;
    format      ascii;
    class       surfaceScalarField;
    location    "90/topAir";
    object      phi;
}
// * * * * * * * * * * * * * * * * * * * * * * * * * * * * * * * * * * * * * //

dimensions      [1 0 -1 0 0 0 0];
oriented        oriented;


internalField   nonuniform List<scalar> 
3140
(
9.3525853e-06
-1.6029125e-07
7.685629e-08
9.4266101e-06
-1.664727e-07
9.2763076e-08
9.5148665e-06
-1.7719995e-07
8.9366889e-08
9.5922218e-06
-1.5609155e-07
7.9247094e-08
9.649912e-06
-1.2123431e-07
6.4128408e-08
9.6916281e-06
-8.4425259e-08
4.3356688e-08
9.7235224e-06
-4.8899315e-08
1.7708257e-08
9.7602424e-06
-1.7216474e-08
-1.8751158e-08
9.8165308e-06
2.0372285e-08
-7.5866738e-08
9.8966887e-06
7.170516e-08
-1.5103425e-07
1.0012456e-05
1.3944513e-07
-2.5435536e-07
1.0161021e-05
2.4798382e-07
-3.9566848e-07
1.0328998e-05
4.1663441e-07
-5.8371575e-07
1.0503749e-05
6.5322188e-07
-8.270852e-07
1.0651654e-05
9.7667378e-07
-1.123706e-06
1.0744972e-05
1.3687548e-06
-1.4612229e-06
1.0771629e-05
1.791128e-06
-1.8169633e-06
1.0738385e-05
2.1968207e-06
-2.1627847e-06
1.0665265e-05
2.5471012e-06
-2.4732182e-06
1.0577048e-05
2.8208437e-06
-2.7318849e-06
1.049772e-05
3.0122551e-06
-2.9322013e-06
1.0445131e-05
3.1275034e-06
-3.0741958e-06
1.042492e-05
3.1814818e-06
-3.1605522e-06
1.0429142e-05
3.1904492e-06
-3.1939472e-06
1.0434717e-05
3.1695698e-06
-3.174412e-06
1.0395289e-05
3.1368253e-06
-3.0966527e-06
1.0219037e-05
3.1243098e-06
-2.9473003e-06
9.7199637e-06
3.1986514e-06
-2.6988074e-06
8.5171822e-06
3.5067774e-06
-2.303208e-06
4.5052913e-06
-1.71593e-06
9.1720266e-06
-1.452448e-07
8.1896682e-08
9.1266701e-06
-2.2773598e-07
1.0663118e-07
9.0872907e-06
-2.5241967e-07
1.1462082e-07
9.0687505e-06
-2.5750901e-07
1.1999161e-07
9.0737139e-06
-2.4913266e-07
1.2298308e-07
9.0981601e-06
-2.3148315e-07
1.2267534e-07
9.1409628e-06
-2.1050287e-07
1.1888127e-07
9.2043007e-06
-1.9143815e-07
1.1098206e-07
9.299372e-06
-1.7181193e-07
9.7235357e-08
9.440589e-06
-1.4283211e-07
7.3475661e-08
9.6409403e-06
-9.5362523e-08
3.4658784e-08
9.914759e-06
9.6850226e-10
-2.6535166e-08
1.0276243e-05
1.840182e-07
-1.2851204e-07
1.0692936e-05
5.112187e-07
-2.7423261e-07
1.1123926e-05
1.0191027e-06
-4.728641e-07
1.1496312e-05
1.7169388e-06
-7.1993799e-07
1.1750572e-05
2.530265e-06
-9.927217e-07
1.18729e-05
3.3341393e-06
-1.258958e-06
1.1887341e-05
4.0295717e-06
-1.4962333e-06
1.1833912e-05
4.5742839e-06
-1.6993582e-06
1.1755452e-05
4.9639946e-06
-1.8726579e-06
1.1682236e-05
5.2130231e-06
-2.0117117e-06
1.1621702e-05
5.3480945e-06
-2.1055076e-06
1.1564964e-05
5.394873e-06
-2.147129e-06
1.1487636e-05
5.3759025e-06
-2.1284509e-06
1.1342602e-05
5.3136755e-06
-2.0312598e-06
1.1034275e-05
5.2542255e-06
-1.8210204e-06
1.0386701e-05
5.2916159e-06
-1.4448031e-06
9.1351012e-06
5.606428e-06
-8.4743126e-07
6.4485869e-06
1.675309e-08
9.2175883e-06
-1.7716226e-07
8.328641e-08
9.1082855e-06
-2.2767784e-07
1.0924479e-07
8.9748207e-06
-2.3787905e-07
1.1892461e-07
8.830467e-06
-2.3972395e-07
1.2656993e-07
8.6836263e-06
-2.3560254e-07
1.3331275e-07
8.5390764e-06
-2.2596279e-07
1.3903311e-07
8.397853e-06
-2.1385459e-07
1.4458045e-07
8.2572833e-06
-2.0209506e-07
1.5123408e-07
8.1162337e-06
-1.9180372e-07
1.610515e-07
7.9800831e-06
-1.8311512e-07
1.7644723e-07
7.8641013e-06
-1.7804873e-07
1.9868624e-07
7.8202886e-06
-1.8125899e-07
2.2606792e-07
7.9176546e-06
-1.6302291e-07
2.4973446e-07
8.1954118e-06
-2.921463e-08
2.6281319e-07
8.7062971e-06
2.4494403e-07
2.6353831e-07
9.340967e-06
8.4155482e-07
2.4113647e-07
9.9307262e-06
1.7275212e-06
2.1355103e-07
1.0392641e-05
2.6495007e-06
2.2338973e-07
1.0720438e-05
3.411738e-06
2.9075039e-07
1.0933018e-05
3.9687158e-06
3.9371106e-07
1.1064614e-05
4.3378483e-06
4.9525526e-07
1.1148456e-05
4.5457731e-06
5.8408374e-07
1.1184472e-05
4.6128651e-06
6.9985763e-07
1.1159564e-05
4.5715078e-06
8.4889077e-07
1.1046231e-05
4.4552745e-06
1.0345564e-06
1.0818523e-05
4.299192e-06
1.2427751e-06
1.0413348e-05
4.1420049e-06
1.5179709e-06
9.7255327e-06
4.0628305e-06
1.9171795e-06
8.5548218e-06
4.2686915e-06
2.5090368e-06
5.2421796e-06
3.3919139e-06
9.0104303e-06
8.1356282e-08
8.6765542e-06
1.0619807e-07
8.3239212e-06
1.1475379e-07
7.9634765e-06
1.2072048e-07
7.6023292e-06
1.2554475e-07
7.2471014e-06
1.2926491e-07
6.9003363e-06
1.3291077e-07
6.5601893e-06
1.3805234e-07
6.2216044e-06
1.4678196e-07
5.876396e-06
1.6209442e-07
5.5099214e-06
1.8842787e-07
5.0956439e-06
2.3302169e-07
4.6239225e-06
3.0870485e-07
4.1632962e-06
4.3142802e-07
3.7898926e-06
6.1842213e-07
3.7146522e-06
9.170405e-07
4.0735379e-06
1.3691128e-06
4.7645472e-06
1.9591281e-06
5.5795724e-06
2.5974228e-06
6.3759601e-06
3.1730598e-06
7.0856002e-06
3.6289343e-06
7.6730995e-06
3.9589778e-06
8.1314047e-06
4.1552369e-06
8.4391193e-06
4.2644426e-06
8.5754799e-06
4.3195393e-06
8.5155803e-06
4.3596974e-06
8.2316816e-06
4.4264948e-06
7.7347609e-06
4.5603328e-06
7.2293312e-06
4.7746977e-06
4.9002868e-06
9.4697442e-06
-1.5886946e-07
3.5131396e-08
9.6696619e-06
-1.6553972e-07
5.8698524e-08
9.8756055e-06
-1.8315115e-07
6.6993983e-08
1.0062715e-05
-1.7494084e-07
6.7582229e-08
1.0219913e-05
-1.5654207e-07
6.4047191e-08
1.034902e-05
-1.4158158e-07
5.6463979e-08
1.0455948e-05
-1.3289366e-07
4.4357789e-08
1.0544472e-05
-1.3262597e-07
2.6076971e-08
1.061611e-05
-1.4408886e-07
-2.6545148e-09
1.0669726e-05
-1.7172165e-07
-3.2139259e-08
1.0709431e-05
-2.1865699e-07
-7.4593734e-08
1.0736812e-05
-2.8975273e-07
-1.3247831e-07
1.0750099e-05
-3.8578709e-07
-2.1039707e-07
1.076776e-05
-5.2816998e-07
-3.157892e-07
1.0794083e-05
-6.9633003e-07
-4.5295189e-07
1.0837939e-05
-8.8051831e-07
-6.2385697e-07
1.0905301e-05
-1.0549855e-06
-8.286762e-07
1.0991742e-05
-1.1833589e-06
-1.0652309e-06
1.1084383e-05
-1.2398952e-06
-1.3253422e-06
1.1172715e-05
-1.2280009e-06
-1.5915994e-06
1.1256248e-05
-1.174331e-06
-1.8407857e-06
1.1344185e-05
-1.1067387e-06
-2.0547714e-06
1.144439e-05
-1.0347081e-06
-2.2254168e-06
1.1559392e-05
-9.5981414e-07
-2.3484905e-06
1.1684992e-05
-8.7905174e-07
-2.4203023e-06
1.1804374e-05
-7.797163e-07
-2.4356487e-06
1.1872201e-05
-6.251955e-07
-2.3892516e-06
1.1795963e-05
-3.4415357e-07
-2.2777225e-06
1.1324298e-05
2.8096573e-07
-2.1117916e-06
2.2679828e-06
-1.8885012e-06
9.3004253e-06
-1.4613475e-07
3.7706395e-08
9.4046385e-06
-2.3039921e-07
6.7288675e-08
9.5124342e-06
-2.5855778e-07
8.2252879e-08
9.6380865e-06
-2.7061155e-07
9.0042687e-08
9.7832286e-06
-2.7308773e-07
9.4432364e-08
9.9401069e-06
-2.7135287e-07
9.5628002e-08
1.0104232e-05
-2.7131968e-07
9.3256058e-08
1.0273875e-05
-2.7784819e-07
8.6650492e-08
1.0448549e-05
-2.9582762e-07
7.4404148e-08
1.0627414e-05
-3.3109826e-07
5.4103691e-08
1.0811441e-05
-3.9056386e-07
2.2667869e-08
1.1003283e-05
-4.8255088e-07
-2.5441049e-08
1.1202308e-05
-6.1573596e-07
-9.7443444e-08
1.1400613e-05
-7.9918751e-07
-2.01374e-07
1.1609437e-05
-1.0293924e-06
-3.4848227e-07
1.1838739e-05
-1.2818045e-06
-5.4781493e-07
1.2088912e-05
-1.4946466e-06
-8.0309403e-07
1.2342508e-05
-1.5913415e-06
-1.104424e-06
1.2570719e-05
-1.5389431e-06
-1.4252335e-06
1.2753133e-05
-1.3780074e-06
-1.731586e-06
1.2893835e-05
-1.1880772e-06
-1.9994204e-06
1.3020737e-05
-1.023933e-06
-2.2212112e-06
1.3140985e-05
-8.5907374e-07
-2.4011652e-06
1.3259244e-05
-6.8968457e-07
-2.5352745e-06
1.3384425e-05
-5.2316068e-07
-2.6092611e-06
1.3564533e-05
-3.8621802e-07
-2.6045809e-06
1.3900621e-05
-2.6296345e-07
-2.519029e-06
1.459953e-05
-1.2332026e-07
-2.3642038e-06
1.6042072e-05
1.6909484e-07
-2.1777483e-06
6.6656478e-07
-1.9715656e-06
9.3472196e-06
-1.7938414e-07
3.8273395e-08
9.388203e-06
-2.3079576e-07
6.8658048e-08
9.4056831e-06
-2.4214175e-07
8.5028954e-08
9.4136483e-06
-2.4684811e-07
9.4842462e-08
9.4192677e-06
-2.4736501e-07
1.0197265e-07
9.4242024e-06
-2.4426329e-07
1.070121e-07
9.4281213e-06
-2.4084644e-07
1.1019298e-07
9.4299283e-06
-2.4031632e-07
1.1190164e-07
9.4282142e-06
-2.4553105e-07
1.1247737e-07
9.4216089e-06
-2.6010652e-07
1.1207128e-07
9.4094127e-06
-2.8989679e-07
1.1022813e-07
9.3928903e-06
-3.4475922e-07
1.0481405e-07
9.3754912e-06
-4.3948886e-07
9.0904792e-08
9.3658794e-06
-5.8990553e-07
6.3166227e-08
9.3831636e-06
-8.0509995e-07
2.1992532e-08
9.4736928e-06
-1.0609266e-06
-7.0227028e-08
9.6688692e-06
-1.2643621e-06
-2.1183699e-07
9.9537799e-06
-1.2795825e-06
-3.7315364e-07
1.0284052e-05
-1.0623303e-06
-5.1594865e-07
1.0605448e-05
-7.0175967e-07
-6.0370732e-07
1.083983e-05
-2.9317366e-07
-6.3379912e-07
1.0972517e-05
2.9388441e-08
-6.0164993e-07
1.1047916e-05
2.3816773e-07
-4.7246404e-07
1.1076727e-05
3.7301142e-07
-2.4225601e-07
1.1059383e-05
4.7522048e-07
5.391471e-08
1.1037706e-05
5.3102794e-07
3.4762804e-07
1.1002682e-05
5.4404416e-07
7.4642758e-07
1.0975475e-05
5.3880985e-07
1.2827104e-06
1.1094117e-05
5.6751536e-07
1.9924573e-06
6.7998059e-07
2.978137e-06
9.1337358e-06
3.718517e-08
8.9428567e-06
6.6281223e-08
8.733851e-06
8.1617578e-08
8.5172307e-06
9.0492465e-08
8.2986884e-06
9.6721981e-08
8.0826685e-06
1.0102152e-07
7.8709277e-06
1.0380525e-07
7.662866e-06
1.0579798e-07
7.4562331e-06
1.0788432e-07
7.2470549e-06
1.1116699e-07
7.0283608e-06
1.1722644e-07
6.7880631e-06
1.2856207e-07
6.5079197e-06
1.4936237e-07
6.1640969e-06
1.8535066e-07
5.7326321e-06
2.4480423e-07
5.2354215e-06
3.5339213e-07
4.7768396e-06
5.6353525e-07
4.523689e-06
9.331091e-07
4.5779851e-06
1.4814003e-06
4.8891286e-06
2.1608626e-06
5.3579519e-06
2.8676693e-06
5.858134e-06
3.4888678e-06
6.2949971e-06
3.9571903e-06
6.6201213e-06
4.3129514e-06
6.8240319e-06
4.5914511e-06
6.8893113e-06
4.8260336e-06
6.8062469e-06
5.0541796e-06
6.5932243e-06
5.3127317e-06
6.3069203e-06
5.6290745e-06
5.9737098e-06
9.445109e-06
-1.597024e-07
1.887451e-08
9.636092e-06
-1.652526e-07
3.328143e-08
9.8427299e-06
-1.8041269e-07
4.1188498e-08
1.0034107e-05
-1.6792176e-07
4.463181e-08
1.0198005e-05
-1.4480045e-07
4.5524805e-08
1.0334889e-05
-1.2446866e-07
4.4683968e-08
1.0447519e-05
-1.1003643e-07
4.2451372e-08
1.0537808e-05
-1.0255927e-07
3.9077843e-08
1.0604018e-05
-1.0297913e-07
3.48836e-08
1.0652543e-05
-1.1069574e-07
3.0832265e-08
1.0680945e-05
-1.2825533e-07
2.6086967e-08
1.068577e-05
-1.572334e-07
2.0777497e-08
1.0658934e-05
-1.9792488e-07
1.5225006e-08
1.0620355e-05
-2.8156479e-07
5.1963713e-09
1.0567721e-05
-3.9166209e-07
-7.8442248e-09
1.051028e-05
-5.4164095e-07
-2.4003702e-08
1.0468458e-05
-7.4031421e-07
-4.5825372e-08
1.0468533e-05
-9.8601136e-07
-7.8645032e-08
1.0528345e-05
-1.2539233e-06
-1.3063954e-07
1.0644074e-05
-1.4968443e-06
-2.0992367e-07
1.079701e-05
-1.6752746e-06
-3.1788803e-07
1.0969908e-05
-1.781964e-06
-4.4512581e-07
1.1154253e-05
-1.8341954e-06
-5.7496124e-07
1.1350232e-05
-1.8525548e-06
-6.9128591e-07
1.1559001e-05
-1.8453606e-06
-7.8306556e-07
1.1774607e-05
-1.7982955e-06
-8.523073e-07
1.196492e-05
-1.6688894e-06
-9.1002283e-07
1.199431e-05
-1.3316279e-06
-9.7483343e-07
1.1513171e-05
-5.1348224e-07
-1.1165201e-06
1.7734387e-06
-1.4845995e-06
9.2725996e-06
-1.4568635e-07
2.0060434e-08
9.3666215e-06
-2.2925139e-07
3.7276849e-08
9.4759367e-06
-2.5571783e-07
4.8264001e-08
9.6086217e-06
-2.6497399e-07
5.4442698e-08
9.7643109e-06
-2.6364663e-07
5.7635322e-08
9.9339616e-06
-2.5680264e-07
5.8371208e-08
1.011083e-05
-2.5005676e-07
5.6482549e-08
1.0290629e-05
-2.4720528e-07
5.1588175e-08
1.0470052e-05
-2.5099683e-07
4.3104176e-08
1.064749e-05
-2.6408921e-07
3.0178972e-08
1.0820927e-05
-2.8998961e-07
1.1098696e-08
1.0988261e-05
-3.3411497e-07
-1.5746841e-08
1.1149903e-05
-4.0399179e-07
-5.2862389e-08
1.1286847e-05
-5.1431574e-07
-1.0540578e-07
1.1404301e-05
-6.7810438e-07
-1.7933298e-07
1.1502384e-05
-9.0294688e-07
-2.8443812e-07
1.1589098e-05
-1.1965302e-06
-4.3345005e-07
1.1680077e-05
-1.5402534e-06
-6.4102999e-07
1.1782392e-05
-1.8651495e-06
-9.1619149e-07
1.1883751e-05
-2.0817842e-06
-1.2478564e-06
1.1965291e-05
-2.1609371e-06
-1.5951238e-06
1.2021393e-05
-2.1497869e-06
-1.9092895e-06
1.2058107e-05
-2.1159697e-06
-2.1558795e-06
1.2088879e-05
-2.0973515e-06
-2.3209974e-06
1.2135327e-05
-2.0899619e-06
-2.4108239e-06
1.2231355e-05
-2.0524833e-06
-2.4460985e-06
1.2475701e-05
-1.9741011e-06
-2.4577978e-06
1.3123426e-05
-1.8247144e-06
-2.5184294e-06
1.4664576e-05
-1.469541e-06
-2.7623746e-06
-6.4048249e-07
-3.0136148e-06
9.3202185e-06
-1.7895391e-07
2.0279718e-08
9.3517672e-06
-2.2993184e-07
3.7789924e-08
9.3718834e-06
-2.4023687e-07
4.9432239e-08
9.3887367e-06
-2.4358607e-07
5.6602363e-08
9.4083899e-06
-2.4240526e-07
6.1080121e-08
9.4322203e-06
-2.3706073e-07
6.3443151e-08
9.4593221e-06
-2.3061317e-07
6.3652287e-08
9.4882463e-06
-2.2577315e-07
6.1551757e-08
9.5172086e-06
-2.2435165e-07
5.6878317e-08
9.5441824e-06
-2.2813106e-07
4.9149958e-08
9.5666156e-06
-2.3967247e-07
3.7490562e-08
9.5805712e-06
-2.6335058e-07
2.0109407e-08
9.5797626e-06
-3.0612582e-07
-6.1349492e-09
9.5522672e-06
-3.785189e-07
-4.511556e-08
9.4954304e-06
-4.9586496e-07
-1.0338906e-07
9.3996723e-06
-6.8397091e-07
-1.9342294e-07
9.2796028e-06
-9.5790713e-07
-3.3036506e-07
9.178784e-06
-1.284634e-06
-5.2791149e-07
9.1298055e-06
-1.5455241e-06
-7.8650747e-07
9.1273578e-06
-1.6030165e-06
-1.079873e-06
9.1277721e-06
-1.4499644e-06
-1.3449744e-06
9.0806826e-06
-1.1948002e-06
-1.5092967e-06
8.9888768e-06
-9.5842173e-07
-1.5379221e-06
8.8938787e-06
-8.0188642e-07
-1.4423955e-06
8.8640552e-06
-7.473476e-07
-1.2584945e-06
8.9283607e-06
-7.7092386e-07
-9.9779776e-07
9.2043063e-06
-8.3983977e-07
-6.6329352e-07
9.862215e-06
-9.450737e-07
-2.5432684e-07
1.1326724e-05
-1.1428335e-06
2.0175943e-07
-1.735356e-06
3.371526e-07
9.107403e-06
1.9777067e-08
8.9070626e-06
3.6689643e-08
8.7006694e-06
4.7773679e-08
8.4931393e-06
5.4436332e-08
8.2889884e-06
5.8467579e-08
8.092408e-06
6.0541209e-08
7.9048383e-06
6.0761855e-08
7.7256856e-06
5.9177875e-08
7.5533901e-06
5.5828707e-08
7.3857439e-06
5.0682969e-08
7.2194768e-06
4.3822305e-08
7.0493192e-06
3.5370754e-08
6.8669176e-06
2.5640528e-08
6.6581821e-06
1.557037e-08
6.3999091e-06
7.2171004e-09
6.0651362e-06
4.2055899e-09
5.6427468e-06
2.8057217e-08
5.1718898e-06
1.1946087e-07
4.76859e-06
3.39488e-07
4.5709371e-06
7.5603632e-07
4.620328e-06
1.3690084e-06
4.8300184e-06
2.0851053e-06
5.0771772e-06
2.752316e-06
5.3026507e-06
3.286261e-06
5.4809614e-06
3.6664275e-06
5.601767e-06
3.9349094e-06
5.6513636e-06
4.165324e-06
5.5941714e-06
4.4254107e-06
5.3029231e-06
4.7780301e-06
5.2810736e-06
9.4397931e-06
-1.5973352e-07
7.9646895e-09
9.6234942e-06
-1.6476675e-07
1.4660587e-08
9.8248578e-06
-1.7876708e-07
1.9012162e-08
1.0012669e-05
-1.6407994e-07
2.1405974e-08
1.0174037e-05
-1.3778387e-07
2.2517467e-08
1.0309164e-05
-1.1260909e-07
2.2803406e-08
1.0420709e-05
-9.091325e-08
2.2509985e-08
1.0511207e-05
-7.2497159e-08
2.1814165e-08
1.0582627e-05
-5.6665312e-08
2.0906595e-08
1.0636816e-05
-4.2579922e-08
2.0036962e-08
1.0673483e-05
-2.9397678e-08
1.9665248e-08
1.0690647e-05
-1.6068505e-08
2.0560601e-08
1.0682607e-05
-3.9295644e-10
2.4562618e-08
1.0665735e-05
-4.0448073e-09
2.7019826e-08
1.0640431e-05
-9.9466735e-09
2.8311678e-08
1.0607743e-05
-2.1531071e-08
3.1118439e-08
1.057175e-05
-4.6852744e-08
3.7915339e-08
1.05399e-05
-9.6344134e-08
5.0426963e-08
1.052621e-05
-1.827494e-07
6.6646309e-08
1.0551034e-05
-3.1197026e-07
7.8021803e-08
1.0631457e-05
-4.6862683e-07
7.1064214e-08
1.0768035e-05
-6.2009317e-07
3.909506e-08
1.0943258e-05
-7.3982413e-07
-9.6753212e-09
1.1143121e-05
-8.097811e-07
-8.0683966e-08
1.1329434e-05
-8.3471698e-07
-1.3397014e-07
1.1464588e-05
-8.1400773e-07
-1.7275827e-07
1.1467397e-05
-7.0603189e-07
-2.0611002e-07
1.1100226e-05
-3.5667636e-07
-2.5030443e-07
9.6529744e-06
7.3894635e-07
-4.0750518e-07
3.6914961e-06
-8.1446813e-07
9.2663152e-06
-1.4545182e-07
8.4332681e-09
9.3510677e-06
-2.2864958e-07
1.6418475e-08
9.4526828e-06
-2.5429964e-07
2.2202671e-08
9.5792608e-06
-2.62001e-07
2.5818763e-08
9.7295223e-06
-2.5816352e-07
2.7799586e-08
9.8941628e-06
-2.4728363e-07
2.8465767e-08
1.0066222e-05
-2.3425773e-07
2.7843146e-08
1.0241361e-05
-2.2177774e-07
2.5821685e-08
1.0416693e-05
-2.1100006e-07
2.2214797e-08
1.0590286e-05
-2.0261988e-07
1.6749183e-08
1.0760596e-05
-1.9740205e-07
8.9343129e-09
1.0927262e-05
-1.9625685e-07
-2.0673758e-09
1.1090687e-05
-2.0071601e-07
-1.5790861e-08
1.12346e-05
-2.2026649e-07
-3.2910351e-08
1.1362925e-05
-2.607875e-07
-5.6618365e-08
1.1473919e-05
-3.2598431e-07
-9.0771869e-08
1.1564834e-05
-4.302227e-07
-1.4078545e-07
1.1635913e-05
-5.9296975e-07
-2.1527907e-07
1.1694197e-05
-8.2975904e-07
-3.2727231e-07
1.1754738e-05
-1.1259917e-06
-4.9419434e-07
1.1829688e-05
-1.4088517e-06
-7.2967009e-07
1.1911305e-05
-1.5916112e-06
-1.0191973e-06
1.197497e-05
-1.6619098e-06
-1.2972443e-06
1.1988335e-05
-1.6498264e-06
-1.494066e-06
1.1937087e-05
-1.5954599e-06
-1.5985325e-06
1.1841002e-05
-1.5232851e-06
-1.64038e-06
1.1752447e-05
-1.4156107e-06
-1.6592477e-06
1.1761539e-05
-1.1455066e-06
-1.7381972e-06
1.1939957e-05
-2.4783713e-07
-1.9534353e-06
2.3065879e-06
-2.2565441e-06
9.3142294e-06
-1.7892682e-07
8.4825777e-09
9.3367579e-06
-2.2992507e-07
1.6537035e-08
9.3493122e-06
-2.3995127e-07
2.2530085e-08
9.360069e-06
-2.4263344e-07
2.6479222e-08
9.3744424e-06
-2.4033637e-07
2.8881694e-08
9.3937877e-06
-2.3320857e-07
3.0026111e-08
9.4172413e-06
-2.2397633e-07
2.9922031e-08
9.4434196e-06
-2.148587e-07
2.8460989e-08
9.4707636e-06
-2.0691286e-07
2.5455713e-08
9.497527e-06
-2.0080669e-07
2.0584425e-08
9.5217337e-06
-1.9738616e-07
1.3281473e-08
9.5410643e-06
-1.9807576e-07
2.6142194e-09
9.5536053e-06
-2.0543886e-07
-1.3933781e-08
9.5503643e-06
-2.2522373e-07
-3.6894898e-08
9.519936e-06
-2.65169e-07
-6.8553917e-08
9.4487777e-06
-3.3499486e-07
-1.132262e-07
9.320122e-06
-4.5432603e-07
-1.7757657e-07
9.1240283e-06
-6.5279049e-07
-2.7196644e-07
8.8785073e-06
-9.5646828e-07
-4.1424169e-07
8.6325432e-06
-1.3357636e-06
-6.2407486e-07
8.4221012e-06
-1.644481e-06
-8.9877225e-07
8.2274501e-06
-1.742054e-06
-1.1639741e-06
7.9931238e-06
-1.6694893e-06
-1.2956771e-06
7.671582e-06
-1.5395465e-06
-1.23068e-06
7.3000308e-06
-1.4316919e-06
-1.0501592e-06
6.9935556e-06
-1.3769777e-06
-8.3700001e-07
6.9092246e-06
-1.3729887e-06
-6.2089825e-07
7.3633425e-06
-1.4074489e-06
-4.4577569e-07
9.4447669e-06
-1.3952525e-06
-7.3147733e-07
-8.0031511e-07
-1.7100228e-06
9.1015494e-06
8.2496705e-09
8.8923382e-06
1.5975616e-08
8.6785339e-06
2.1626541e-08
8.46511e-06
2.522667e-08
8.2559623e-06
2.7278818e-08
8.0551925e-06
2.8102482e-08
7.8642223e-06
2.7755858e-08
7.6823525e-06
2.6189341e-08
7.5079712e-06
2.3297717e-08
7.3389587e-06
1.8889699e-08
7.1727148e-06
1.2681342e-08
7.0055461e-06
4.4654474e-09
6.832924e-06
-7.1737762e-09
6.6462199e-06
-2.2946143e-08
6.4306049e-06
-4.2332847e-08
6.1648475e-06
-6.5026592e-08
5.8272649e-06
-8.8678761e-08
5.4025141e-06
-1.0856283e-07
4.8963354e-06
-1.1074622e-07
4.3673939e-06
-5.0600338e-08
3.9454083e-06
1.4694434e-07
3.7457012e-06
5.4342725e-07
3.7209176e-06
1.1083923e-06
3.7625243e-06
1.7058973e-06
3.8638671e-06
2.1341377e-06
4.0375637e-06
2.3849196e-06
4.2570304e-06
2.5734978e-06
4.4819627e-06
2.7936135e-06
4.7379439e-06
3.1273403e-06
3.2139652e-06
9.4370638e-06
-1.5994966e-07
3.8923204e-13
9.6170946e-06
-1.6505707e-07
6.9482664e-13
9.8155301e-06
-1.7900375e-07
9.5496513e-13
1.0001508e-05
-1.6406705e-07
1.1062355e-12
1.0161842e-05
-1.3724034e-07
1.1127341e-12
1.0296551e-05
-1.1126792e-07
9.8378416e-13
1.0408236e-05
-8.8484651e-08
7.3788784e-13
1.0499447e-05
-6.8660142e-08
3.9884786e-13
1.05722e-05
-5.1066969e-08
-2.5518745e-13
1.0627936e-05
-3.4882408e-08
-1.5020272e-12
1.0667736e-05
-1.9281925e-08
-3.4561234e-12
1.0693032e-05
-3.8482392e-09
-7.2417027e-12
1.0688396e-05
3.0120212e-08
-1.4926485e-11
1.0683626e-05
3.2717885e-08
-2.6105888e-11
1.0673166e-05
3.9711313e-08
-4.1389485e-11
1.0655495e-05
4.975146e-08
-6.496201e-11
1.0632618e-05
6.1792096e-08
-1.0162311e-10
1.0604153e-05
7.9951468e-08
-1.5674998e-10
1.0572489e-05
9.9459273e-08
-2.3971221e-10
1.054383e-05
1.0796245e-07
-3.6465636e-10
1.054455e-05
7.1810358e-08
-5.4205654e-10
1.0624769e-05
-3.9550009e-08
-7.0246539e-10
1.0783962e-05
-1.6714741e-07
-9.2926005e-10
1.098505e-05
-2.798836e-07
-1.1404787e-09
1.1173322e-05
-3.2020134e-07
-1.2879124e-09
1.1282453e-05
-2.7975698e-07
-1.3393527e-09
1.1208322e-05
-1.2985343e-07
-1.2802362e-09
1.0508882e-05
4.5125872e-07
-1.255984e-09
8.1175531e-06
1.98511e-06
-3.9457601e-10
5.2073853e-06
8.161559e-10
9.2628913e-06
-1.4543817e-07
2.2165662e-13
9.3428791e-06
-2.2861537e-07
3.7978607e-13
9.4402007e-06
-2.5410203e-07
6.0784666e-13
9.5633972e-06
-2.6141272e-07
9.0898184e-13
9.7109094e-06
-2.5690787e-07
1.278948e-12
9.8731581e-06
-2.4499194e-07
1.7017533e-12
1.0043014e-05
-2.3042363e-07
2.1813522e-12
1.0216003e-05
-2.1573811e-07
2.731247e-12
1.0389135e-05
-2.0187927e-07
3.3495695e-12
1.0560427e-05
-1.8930437e-07
4.0017426e-12
1.072879e-05
-1.7857276e-07
4.5954901e-12
1.0893324e-05
-1.7029497e-07
5.0027222e-12
1.1061561e-05
-1.5372814e-07
4.6038282e-12
1.1206563e-05
-1.4499039e-07
2.5986621e-12
1.1336427e-05
-1.4654131e-07
-1.1623557e-12
1.144996e-05
-1.5428972e-07
-9.7800901e-12
1.1544803e-05
-1.7353554e-07
-2.3790383e-11
1.1620994e-05
-2.1117056e-07
-4.6471717e-11
1.1674749e-05
-2.8116957e-07
-8.1637074e-11
1.1701941e-05
-4.1299233e-07
-1.312446e-10
1.1704081e-05
-6.5961856e-07
-1.8215957e-10
1.1697104e-05
-1.0513596e-06
-2.6353745e-10
1.1686991e-05
-1.4538864e-06
-2.5617959e-10
1.1589232e-05
-1.6758162e-06
-1.7208698e-10
1.1382658e-05
-1.7118811e-06
2.3251051e-11
1.1115722e-05
-1.6532208e-06
4.2059825e-10
1.0825091e-05
-1.4990906e-06
1.1090339e-09
1.0407098e-05
-8.7061412e-07
2.3873273e-09
9.2028794e-06
1.232952e-06
3.9119916e-09
5.4343002e-06
5.8972111e-09
9.310897e-06
-1.788955e-07
2.1457079e-13
9.3287057e-06
-2.2988724e-07
3.4509569e-13
9.3369089e-06
-2.3977515e-07
5.2887799e-13
9.344139e-06
-2.4216316e-07
7.7571749e-13
9.3555303e-06
-2.3941652e-07
1.1021587e-12
9.3721982e-06
-2.3163186e-07
1.534226e-12
9.3931523e-06
-2.2145302e-07
2.0894723e-12
9.4168741e-06
-2.1099504e-07
2.8089881e-12
9.4416187e-06
-2.0116314e-07
3.7512504e-12
9.4652922e-06
-1.923873e-07
5.0047837e-12
9.4850841e-06
-1.8507624e-07
6.7527941e-12
9.4970148e-06
-1.7960404e-07
9.392359e-12
9.5049834e-06
-1.7562415e-07
1.3758756e-11
9.4983896e-06
-1.7528728e-07
1.9704042e-11
9.4671486e-06
-1.8385421e-07
2.7863705e-11
9.4027156e-06
-2.030898e-07
3.926397e-11
9.2913839e-06
-2.3979885e-07
5.5051751e-11
9.1151986e-06
-3.0698754e-07
7.6609326e-11
8.8484705e-06
-4.2874519e-07
1.0566549e-10
8.4612172e-06
-6.4991282e-07
1.4274202e-10
7.9437847e-06
-1.0410975e-06
1.8728654e-10
7.3310719e-06
-1.6027228e-06
2.150601e-10
6.6549076e-06
-2.0733268e-06
2.6520026e-10
5.8840193e-06
-2.1353886e-06
4.127066e-10
5.1350989e-06
-2.0131403e-06
8.3414703e-10
4.6046551e-06
-1.9606937e-06
1.8099431e-09
4.4449566e-06
-1.9632042e-06
3.8235655e-09
5.01422e-06
-1.892047e-06
7.295685e-09
6.426359e-06
-9.1736063e-07
7.7128012e-09
1.8487845e-06
1.1544331e-08
9.0983028e-06
2.1863738e-13
8.8843907e-06
3.4077577e-13
8.6662414e-06
5.1937607e-13
8.449304e-06
7.4908386e-13
8.2371652e-06
1.0483821e-12
8.0336344e-06
1.4477095e-12
7.8399354e-06
1.9709251e-12
7.6551274e-06
2.6772515e-12
7.477259e-06
3.626861e-12
7.3037574e-06
4.9570922e-12
7.131357e-06
6.8879496e-12
6.9562104e-06
9.8151849e-12
6.7734006e-06
1.436928e-11
6.5751493e-06
2.1095451e-11
6.3489353e-06
3.1162909e-11
6.0807781e-06
4.6158862e-11
5.7522391e-06
6.8379737e-11
5.3365968e-06
1.0114785e-10
4.7969702e-06
1.4854329e-10
4.0962671e-06
2.1510866e-10
3.2018968e-06
3.0666825e-10
2.142508e-06
4.4186123e-10
1.1777691e-06
7.044295e-10
7.4840615e-07
1.2161315e-09
8.684608e-07
2.1377404e-09
1.2899414e-06
3.6756214e-09
1.8947774e-06
6.2301573e-09
2.7863752e-06
1.0651675e-08
4.9799903e-06
1.7001203e-08
9.7332852e-09
9.4370637e-06
-1.5994964e-07
-7.9638267e-09
9.6170943e-06
-1.6505723e-07
-1.465891e-08
9.8155296e-06
-1.7900419e-07
-1.9009614e-08
1.0001507e-05
-1.64068e-07
-2.1402562e-08
1.0161841e-05
-1.3724206e-07
-2.2513236e-08
1.0296549e-05
-1.1127049e-07
-2.2798422e-08
1.0408234e-05
-8.8488295e-08
-2.2504255e-08
1.0499444e-05
-6.8665118e-08
-2.1807625e-08
1.0572196e-05
-5.1073623e-08
-2.0899214e-08
1.062793e-05
-3.4890981e-08
-2.0028709e-08
1.0667723e-05
-1.9291879e-08
-1.9655857e-08
1.0693008e-05
-3.8625541e-09
-2.0549113e-08
1.0688355e-05
3.0090386e-08
-2.4546686e-08
1.0683556e-05
3.2676246e-08
-2.7001132e-08
1.0673052e-05
3.9649692e-08
-2.8289007e-08
1.0655318e-05
4.965873e-08
-3.1092464e-08
1.0632346e-05
6.1652821e-08
-3.7884844e-08
1.0603738e-05
7.9742123e-08
-5.0388367e-08
1.0571866e-05
9.9135423e-08
-6.6593266e-08
1.0542945e-05
1.0742239e-07
-7.7949479e-08
1.0543646e-05
7.0669933e-08
-7.0989258e-08
1.0623498e-05
-4.0605966e-08
-3.9078019e-08
1.0782636e-05
-1.6899872e-07
9.7206532e-09
1.098379e-05
-2.8240707e-07
8.0857181e-08
1.1172242e-05
-3.2327655e-07
1.3428614e-07
1.1281664e-05
-2.8321499e-07
1.7324051e-07
1.1207679e-05
-1.3325059e-07
2.0679669e-07
1.0511247e-05
4.4473739e-07
2.5130059e-07
8.1261426e-06
1.9773809e-06
4.0821668e-07
5.1995481e-06
8.1479581e-07
9.2628914e-06
-1.4543817e-07
-8.4329428e-09
9.3428794e-06
-2.2861543e-07
-1.6417976e-08
9.4402012e-06
-2.5410224e-07
-2.2201903e-08
9.563398e-06
-2.6141317e-07
-2.5817658e-08
9.7109103e-06
-2.5690871e-07
-2.7798035e-08
9.8731591e-06
-2.4499335e-07
-2.8463647e-08
1.0043015e-05
-2.3042575e-07
-2.784036e-08
1.0216004e-05
-2.1574115e-07
-2.5818126e-08
1.0389136e-05
-2.0188341e-07
-2.221033e-08
1.0560427e-05
-1.8930975e-07
-1.6743609e-08
1.0728789e-05
-1.7857916e-07
-8.9273291e-09
1.0893318e-05
-1.7030196e-07
2.0748089e-09
1.1061541e-05
-1.5374557e-07
1.5801262e-08
1.1206526e-05
-1.4502322e-07
3.2923931e-08
1.1336365e-05
-1.4659755e-07
5.6636084e-08
1.1449855e-05
-1.5438283e-07
9.0794926e-08
1.1544631e-05
-1.736844e-07
1.4081469e-07
1.1620716e-05
-2.1140243e-07
2.1531435e-07
1.1674303e-05
-2.8153074e-07
3.2731349e-07
1.1701232e-05
-4.1358658e-07
4.942485e-07
1.1702889e-05
-6.607483e-07
7.2977483e-07
1.1695657e-05
-1.0528327e-06
1.0193399e-06
1.1685102e-05
-1.4559086e-06
1.2973435e-06
1.1586945e-05
-1.6783389e-06
1.4941172e-06
1.1380102e-05
-1.7146626e-06
1.5985533e-06
1.1113289e-05
-1.6560731e-06
1.6404915e-06
1.0823857e-05
-1.5019722e-06
1.6597497e-06
1.040966e-05
-8.7716577e-07
1.7392012e-06
9.2207838e-06
1.2160861e-06
1.9550445e-06
5.411187e-06
2.2572612e-06
9.3108971e-06
-1.788955e-07
-8.4822323e-09
9.3287059e-06
-2.2988726e-07
-1.6536524e-08
9.3369093e-06
-2.3977522e-07
-2.2529347e-08
9.3441397e-06
-2.4216332e-07
-2.6478211e-08
9.3555314e-06
-2.3941683e-07
-2.888033e-08
9.3721996e-06
-2.3163237e-07
-3.0024299e-08
9.3931542e-06
-2.2145379e-07
-2.9919655e-08
9.4168766e-06
-2.1099613e-07
-2.8457903e-08
9.441622e-06
-2.0116463e-07
-2.5451752e-08
9.4652971e-06
-1.9238923e-07
-2.0579404e-08
9.4850923e-06
-1.8507861e-07
-1.3275219e-08
9.49703e-06
-1.7960705e-07
-2.6064421e-09
9.505005e-06
-1.7562925e-07
1.3942521e-08
9.4984196e-06
-1.7529796e-07
3.6903817e-08
9.4671886e-06
-1.8387386e-07
6.8562988e-08
9.4027664e-06
-2.0312371e-07
1.1323472e-07
9.2914463e-06
-2.398551e-07
1.7758248e-07
9.1152733e-06
-3.0707856e-07
2.7196665e-07
8.8485459e-06
-4.2889233e-07
4.1423824e-07
8.4612481e-06
-6.5015664e-07
6.2405438e-07
7.9435269e-06
-1.0415459e-06
8.9875395e-07
7.3304658e-06
-1.6034527e-06
1.1640092e-06
6.6539207e-06
-2.0745162e-06
1.2957554e-06
5.8829116e-06
-2.1370609e-06
1.2307764e-06
5.1347101e-06
-2.0151719e-06
1.0503595e-06
4.6069242e-06
-1.9632208e-06
8.3763746e-07
4.4533462e-06
-1.9663574e-06
6.2269659e-07
5.0318381e-06
-1.8969721e-06
4.4951004e-07
6.4632584e-06
-9.3575755e-07
7.2914326e-07
1.8134254e-06
1.6984862e-06
9.0983029e-06
-8.2493034e-09
8.8843909e-06
-1.5975066e-08
8.6662418e-06
-2.1625738e-08
8.4493046e-06
-2.5225566e-08
8.2371661e-06
-2.727733e-08
8.0336357e-06
-2.810051e-08
7.8399374e-06
-2.7753268e-08
7.6551302e-06
-2.6185971e-08
7.4772632e-06
-2.3293361e-08
7.303764e-06
-1.8884131e-08
7.1313679e-06
-1.2674294e-08
6.9562293e-06
-4.456738e-09
6.7734303e-06
7.1865769e-09
6.5751963e-06
2.2960416e-08
6.349008e-06
4.2349769e-08
6.0808888e-06
6.5047131e-08
5.7524048e-06
8.8704297e-08
5.3368418e-06
1.0859486e-07
4.7973225e-06
1.1078892e-07
4.0967096e-06
5.0696349e-08
3.2023496e-06
-1.4678979e-07
2.1428315e-06
-5.4314445e-07
1.1777764e-06
-1.1078571e-06
7.4823561e-07
-1.7049595e-06
8.6895011e-07
-2.1325537e-06
1.2927489e-06
-2.3824142e-06
1.9031563e-06
-2.5697632e-06
2.8058265e-06
-2.7883102e-06
5.0095177e-06
-3.1218159e-06
-3.2245763e-06
9.4397931e-06
-1.5973324e-07
-1.8873908e-08
9.6234942e-06
-1.6476619e-07
-3.3280303e-08
9.8248578e-06
-1.7876651e-07
-4.1186559e-08
1.0012669e-05
-1.6407939e-07
-4.4628933e-08
1.0174037e-05
-1.3778358e-07
-4.5520956e-08
1.0309165e-05
-1.1260913e-07
-4.4679077e-08
1.042071e-05
-9.0913731e-08
-4.2445238e-08
1.0511207e-05
-7.2498263e-08
-3.9070168e-08
1.0582627e-05
-5.6667196e-08
-3.4874175e-08
1.0636816e-05
-4.258279e-08
-3.0820794e-08
1.0673482e-05
-2.9401434e-08
-2.6072765e-08
1.0690644e-05
-1.6073972e-08
-2.0758928e-08
1.0682605e-05
-4.0464208e-10
-1.5197727e-08
1.0665729e-05
-4.055246e-09
-5.1644305e-09
1.0640412e-05
-9.9547832e-09
7.8881727e-09
1.0607714e-05
-2.1544497e-08
2.4052393e-08
1.0571698e-05
-4.6873657e-08
4.5898999e-08
1.0539806e-05
-9.6371691e-08
7.875331e-08
1.0526045e-05
-1.8278469e-07
1.3079764e-07
1.055077e-05
-3.120308e-07
2.1015539e-07
1.0631082e-05
-4.6878346e-07
3.1822941e-07
1.0767527e-05
-6.204353e-07
4.4561635e-07
1.0942683e-05
-7.4041267e-07
5.7566013e-07
1.1142625e-05
-8.1064637e-07
6.9224395e-07
1.1329181e-05
-8.3587584e-07
7.8429444e-07
1.1464774e-05
-8.1543766e-07
8.5377614e-07
1.1468246e-05
-7.0763603e-07
9.116485e-07
1.1102345e-05
-3.5860017e-07