/*--------------------------------*- C++ -*----------------------------------*\
| =========                 |                                                 |
| \\      /  F ield         | OpenFOAM: The Open Source CFD Toolbox           |
|  \\    /   O peration     | Version:  v2012                                 |
|   \\  /    A nd           | Website:  www.openfoam.com                      |
|    \\/     M anipulation  |                                                 |
\*---------------------------------------------------------------------------*/
FoamFile
{
    version     2.0;
    format      ascii;
    class       volScalarField;
    location    "90/topAir";
    object      rho;
}
// * * * * * * * * * * * * * * * * * * * * * * * * * * * * * * * * * * * * * //

dimensions      [1 -3 0 0 0 0 0];


internalField   nonuniform List<scalar> 
1200
(
1.1165255
1.0795642
1.0478995
1.0202828
0.99573024
0.97356616
0.95332221
0.9347123
0.91774508
0.9025263
0.88892735
0.87688634
0.86646218
0.85966005
0.85445188
0.85101045
0.84941817
0.84955517
0.85107257
0.85347937
0.85627745
0.85905344
0.86148687
0.86333772
0.86442135
0.86455106
0.86343179
0.860485
0.85486368
0.84623142
1.1576729
1.1558685
1.153379
1.1503147
1.1467621
1.1427883
1.1384487
1.1337834
1.1283075
1.121223
1.1121083
1.0999371
1.0844583
1.0658515
1.0447113
1.0227284
1.0019906
0.98414861
0.97003136
0.95973424
0.95288201
0.94877358
0.94651257
0.94521574
0.94408716
0.94233014
0.93892049
0.93218709
0.91897777
0.89490636
1.1585985
1.1585384
1.1584264
1.1582513
1.1580037
1.1576751
1.1572582
1.1567461
1.1561198
1.1553396
1.1543537
1.1530323
1.1497926
1.1425982
1.1294149
1.1094576
1.0843753
1.0574911
1.0320228
1.0100289
0.99234619
0.97892443
0.96915608
0.9621873
0.95712138
0.95308169
0.94911998
0.94392405
0.93504301
0.91820747
1.1586181
1.1586161
1.1586114
1.1586021
1.1585861
1.1585607
1.1585229
1.158469
1.1583943
1.1582923
1.1581534
1.1579581
1.1576115
1.1568177
1.153674
1.1434196
1.122707
1.0955405
1.0679277
1.0430138
1.0218752
1.0046637
0.99107846
0.98055516
0.97241607
0.96596101
0.96045278
0.95493393
0.94764054
0.93529336
1.1165113
1.0799367
1.0489555
1.0222621
0.99886259
0.97812054
0.95961423
0.94307663
0.92836736
0.91547682
0.90447138
0.89549782
0.88875446
0.88685313
0.88722689
0.88965535
0.89358715
0.89816779
0.90254774
0.90621213
0.90902774
0.91104909
0.91228426
0.91269985
0.91222752
0.91066137
0.90740556
0.90104924
0.89030587
0.87832975
1.1576736
1.1559028
1.1535071
1.1506153
1.1473304
1.1437379
1.1399137
1.1359323
1.1318666
1.1277996
1.1238553
1.1201811
1.1168824
1.1141701
1.1121139
1.1106506
1.1094846
1.1081166
1.1061457
1.103524
1.100458
1.0971223
1.093488
1.0895495
1.0853068
1.0807283
1.07577
1.0703792
1.0606748
1.0300777
1.1585986
1.15854
1.1584338
1.158272
1.158049
1.157761
1.1574056
1.1569825
1.1564925
1.1559383
1.1553251
1.1546591
1.1538984
1.1529423
1.1516244
1.1496993
1.1465885
1.1412871
1.1334006
1.1238227
1.1140278
1.1044713
1.0934959
1.0810261
1.0671765
1.0528684
1.0380447
1.0222806
1.0052111
0.98558394
1.1586181
1.1586162
1.1586118
1.1586034
1.1585894
1.1585679
1.158537
1.1584944
1.1584378
1.1583645
1.1582713
1.1581532
1.1579954
1.1577403
1.1570614
1.1546009
1.1471216
1.131288
1.1078285
1.0815666
1.0568967
1.0359797
1.0200886
1.0076037
0.99751145
0.98893795
0.98115052
0.97347559
0.9650104
0.95442373
1.116505
1.0798497
1.0487804
1.0219911
0.99847834
0.97759287
0.95889822
0.94209974
0.92700544
0.91347758
0.90146822
0.89097911
0.8821197
0.87830357
0.87637718
0.87665842
0.87949913
0.88505055
0.89289342
0.90181383
0.91026804
0.91713953
0.92203821
0.92507129
0.92647492
0.92624721
0.92387237
0.91749908
0.90265809
0.88203605
1.1576733
1.155896
1.1534894
1.1505854
1.1472882
1.1436826
1.139841
1.1358301
1.1317157
1.1275671
1.1234643
1.1195039
1.1158109
1.1126428
1.1101755
1.1085703
1.1079255
1.1081203
1.108623
1.1086245
1.1075806
1.1054513
1.1024299
1.0986408
1.0940363
1.0884385
1.0817513
1.0737105
1.0613175
1.025077
1.1585986
1.1585398
1.158433
1.1582705
1.1580472
1.1577595
1.1574059
1.1569861
1.1565018
1.1559567
1.1553571
1.1547136
1.1540415
1.1533648
1.1527157
1.1521216
1.1515147
1.1504816
1.1480168
1.1431437
1.1360577
1.1278078
1.1190914
1.1098699
1.099626
1.0875525
1.0737023
1.0582284
1.0409138
1.0210142
1.1586181
1.1586162
1.1586117
1.1586033
1.1585893
1.1585681
1.1585376
1.1584961
1.1584415
1.158372
1.1582856
1.1581806
1.1580547
1.1579027
1.1576966
1.1572808
1.1559765
1.1517514
1.1411136
1.1219882
1.0970142
1.071554
1.0496227
1.0317871
1.0174124
1.0055756
0.99538366
0.98600913
0.9765322
0.96600794
1.1165074
1.079828
1.0487032
1.0218297
0.99819776
0.97713919
0.95818651
0.94099508
0.9253
0.9108872
0.89757895
0.88521632
0.8737483
0.86741406
0.86150347
0.85594298
0.85078287
0.84627342
0.8430636
0.84185582
0.84294744
0.84596928
0.8500878
0.85414468
0.85744388
0.85942167
0.85901756
0.85333523
0.84202954
0.82823339
1.1576733
1.1558939
1.1534807
1.1505638
1.147245
1.143605
1.1397087
1.1356101
1.1313553
1.1269842
1.1225333
1.1180384
1.1135361
1.109227
1.1051838
1.1014944
1.0982953
1.0957746
1.094118
1.09331
1.0929011
1.0922261
1.0907693
1.088238
1.0844542
1.0793551
1.0729381
1.0636568
1.0349597
0.96773391
1.1585986
1.1585397
1.1584325
1.1582692
1.1580442
1.1577539
1.1573957
1.1569687
1.1564728
1.1559087
1.1552784
1.154585
1.1538336
1.1530373
1.152215
1.1513933
1.1506094
1.1498962
1.149172
1.1478612
1.1445628
1.1380673
1.1283782
1.1160108
1.101772
1.0865342
1.0711355
1.0562619
1.0414532
1.01524
1.1586181
1.1586162
1.1586117
1.1586032
1.1585891
1.1585677
1.1585369
1.1584948
1.1584393
1.1583684
1.15828
1.1581719
1.1580422
1.1578887
1.1577089
1.1574965
1.1572204
1.1567017
1.155072
1.1495729
1.1359236
1.1132704
1.0867949
1.0619988
1.0412459
1.0245976
1.0110763
0.99949622
0.98868742
0.97771515
1.1165132
1.0798282
1.0486878
1.0217932
0.99813392
0.97703779
0.95803421
0.94077396
0.92498568
0.91044706
0.89697206
0.88441126
0.87296308
0.86831359
0.86379581
0.85915255
0.8540089
0.84776612
0.84101585
0.83414402
0.82742105
0.82166708
0.81834626
0.817089
0.81644674
0.81500177
0.81112646
0.80516855
0.79852291
0.78961696
1.1576734
1.1558933
1.1534776
1.1505555
1.1472287
1.1435765
1.1396621
1.1355371
1.1312433
1.1268155
1.122283
1.1176526
1.11218
1.1068498
1.1015676
1.096273
1.0909521
1.0855188
1.080124
1.0754105
1.073052
1.0743148
1.076428
1.0772472
1.0754611
1.0709923
1.0640708
1.0440465
0.99103772
0.9084465
1.1585986
1.1585396
1.1584323
1.1582686
1.1580429
1.1577512
1.1573911
1.1569609
1.1564602
1.155889
1.1552478
1.1545368
1.1537404
1.1528666
1.1519238
1.1509203
1.1498704
1.1487978
1.1477494
1.1468024
1.145921
1.1439473
1.1371164
1.1225496
1.1030001
1.0821524
1.0623834
1.0451097
1.0261398
0.96979024
1.1586181
1.1586162
1.1586117
1.1586032
1.158589
1.1585674
1.1585364
1.158494
1.158438
1.1583663
1.1582766
1.1581666
1.1580333
1.1578737
1.1576846
1.1574624
1.1572015
1.1568902
1.1564872
1.1558144
1.1536961
1.1452855
1.1229686
1.0880239
1.0569327
1.0362361
1.021548
1.0097616
0.99920479
0.98673019
1.1165132
1.0798282
1.0486879
1.0217933
0.99813407
0.977038
0.9580345
0.94077435
0.92498618
0.91044772
0.89697291
0.88441256
0.872965
0.86831529
0.86379736
0.85915417
0.8540105
0.84776738
0.84101698
0.83414517
0.82742281
0.82168689
0.81839562
0.81717538
0.81657385
0.81516993
0.81132935
0.80535388
0.79869494
0.78978248
1.1576734
1.1558933
1.1534776
1.1505555
1.1472287
1.1435765
1.1396621
1.1355371
1.1312434
1.1268156
1.1222831
1.1176528
1.112181
1.106852
1.1015714
1.0962792
1.0909618
1.0855337
1.080147
1.0754471
1.0731166
1.0743787
1.076492
1.0773103
1.07552
1.0710444
1.0641199
1.0442568
0.99138276
0.90886349
1.1585986
1.1585396
1.1584323
1.1582686
1.1580429
1.1577512
1.1573911
1.1569609
1.1564602
1.155889
1.1552478
1.1545368
1.1537404
1.1528667
1.1519239
1.1509207
1.149871
1.1487987
1.1477509
1.1468048
1.145925
1.1439529
1.1371224
1.1225512
1.1029925
1.0821378
1.0623717
1.0451199
1.0262862
0.97033302
1.1586181
1.1586162
1.1586117
1.1586032
1.158589
1.1585674
1.1585364
1.158494
1.158438
1.1583663
1.1582766
1.1581666
1.1580333
1.1578737
1.1576846
1.1574624
1.1572015
1.1568903
1.1564874
1.1558147
1.1536976
1.145291
1.1229808
1.0880385
1.0569453
1.0362514
1.0215714
1.0097994
0.99926908
0.98694017
1.1165074
1.0798279
1.0487031
1.0218296
0.99819775
0.97713923
0.9581866
0.94099524
0.92530024
0.91088754
0.89757939
0.88521707
0.87374968
0.86741483
0.86150412
0.85594483
0.85078591
0.84627718
0.84306782
0.84186084
0.84295478
0.84598185
0.85010889
0.85417741
0.85749086
0.85948444
0.85909616
0.85343157
0.84212241
0.82833188
1.1576733
1.1558939
1.1534807
1.1505638
1.147245
1.143605
1.1397087
1.1356101
1.1313553
1.1269843
1.1225334
1.1180385
1.1135363
1.1092272
1.1051841
1.1014947
1.0982959
1.0957755
1.0941196
1.093313
1.0929078
1.0922375
1.0907859
1.0882592
1.0844782
1.0793792
1.0729608
1.0636993
1.0351003
0.96796779
1.1585986
1.1585397
1.1584325
1.1582692
1.1580442
1.1577539
1.1573957
1.1569687
1.1564728
1.1559087
1.1552784
1.154585
1.1538336
1.1530373
1.1522151
1.1513933
1.1506094
1.1498963
1.1491722
1.1478617
1.1445641
1.1380697
1.1283806
1.1160105
1.1017659
1.0865198
1.0711116
1.056229
1.0414334
1.0154105
1.1586181
1.1586162
1.1586117
1.1586032
1.1585891
1.1585677
1.1585369
1.1584948
1.1584393
1.1583684
1.15828
1.1581719
1.1580422
1.1578887
1.1577089
1.1574965
1.1572204
1.1567017
1.1550722
1.149574
1.1359265
1.1132758
1.0868019
1.0620058
1.0412517
1.024602
1.011079
0.99949701
0.98868571
0.97770926
1.1165049
1.0798496
1.0487802
1.0219909
0.99847817
0.97759273
0.95889806
0.94209955
0.92700523
0.91347735
0.90146794
0.89097882
0.88211941
0.87830275
0.87637575
0.87665634
0.87949617
0.88504641
0.89288747
0.90180544
0.91025664
0.91712493
0.92202047
0.92505057
0.92645157
0.92622133
0.92384335
0.91746736
0.90262999
0.88202735
1.1576733
1.155896
1.1534894
1.1505854
1.1472882
1.1436826
1.139841
1.13583
1.1317156
1.1275671
1.1234642
1.1195038
1.1158107
1.1126426
1.1101752
1.1085698
1.1079248
1.1081193
1.1086219
1.1086234
1.10758
1.1054519
1.1024323
1.0986451
1.0940421
1.0884452
1.0817583
1.0737215
1.0613516
1.025145
1.1585986
1.1585398
1.158433
1.1582705
1.1580472
1.1577595
1.1574059
1.1569861
1.1565018
1.1559567
1.1553571
1.1547136
1.1540415
1.1533648
1.1527157
1.1521216
1.1515146
1.1504816
1.148017
1.1431444
1.1360591
1.1278098
1.1190934
1.1098707
1.0996238
1.0875457
1.0736901
1.0582107
1.0408904
1.0209845
1.1586181
1.1586162
1.1586117
1.1586033
1.1585893
1.1585681
1.1585376
1.1584961
1.1584415
1.158372
1.1582856
1.1581806
1.1580547
1.1579027
1.1576966
1.1572808
1.1559766
1.1517518
1.1411146
1.1219904
1.0970176
1.071558
1.0496268
1.0317907
1.0174149
1.0055767
0.9953826
0.98600517
0.9765239
0.96599224
1.1165112
1.0799366
1.0489553
1.0222619
0.9988624
0.97812037
0.95961406
0.94307646
0.92836721
0.91547669
0.90447128
0.8954978
0.88875455
0.8868531
0.88722664
0.88965465
0.89358589
0.89816596
0.90254519
0.90620863
0.90902299
0.9110428
0.9122762
0.9126898
0.9122153
0.91064649
0.90738706
0.90102635
0.89028438
0.8783112
1.1576736
1.1559028
1.1535071
1.1506153
1.1473304
1.1437379
1.1399137
1.1359323
1.1318666
1.1277996
1.1238553
1.1201811
1.1168823
1.1141701
1.1121138
1.1106504
1.1094843
1.1081163
1.1061453
1.1035236
1.1004577
1.0971223
1.0934887
1.089551
1.0853091
1.0807311
1.0757732
1.0703833
1.0606698
1.0300569
1.1585986
1.15854
1.1584338
1.158272
1.158049
1.157761
1.1574056
1.1569825
1.1564925
1.1559383
1.1553251
1.1546591
1.1538984
1.1529423
1.1516244
1.1496994
1.1465886
1.1412874
1.1334013
1.123824
1.1140299
1.1044745
1.0935002
1.081031
1.067181
1.0528712
1.0380442
1.0222748
1.0052006
0.98556653
1.1586181
1.1586162
1.1586118
1.1586034
1.1585894
1.1585679
1.158537
1.1584944
1.1584378
1.1583645
1.1582713
1.1581532
1.1579954
1.1577403
1.1570615
1.154601
1.1471219
1.1312888
1.1078299
1.0815684
1.0568988
1.0359816
1.0200902
1.0076048
0.99751166
0.98893693
0.98114776
0.97347044
0.9650017
0.95440944
1.1165254
1.079564
1.0478993
1.0202826
0.99573005
0.973566
0.95332208
0.93471223
0.9177451
0.90252642
0.88892743
0.87688617
0.866462
0.85965986
0.85445158
0.85100992
0.84941732
0.84955401
0.85107113
0.85347754
0.85627513
0.85905053
0.86148325
0.86333324
0.86441585
0.86454431
0.86342335
0.86047437
0.85485135
0.84621786
1.1576729
1.1558685
1.153379
1.1503147
1.1467621
1.1427882
1.1384487
1.1337834
1.1283074
1.121223
1.1121083
1.0999371
1.0844584
1.0658516
1.0447115
1.0227286
1.0019908
0.9841487
0.97003137
0.95973424
0.95288209
0.94877386
0.94651307
0.94521628
0.94408718
0.9423286
0.93891565
0.93217638
0.91895739
0.894885
1.1585985
1.1585384
1.1584264
1.1582513
1.1580037
1.1576751
1.1572581
1.1567461
1.1561198
1.1553396
1.1543537
1.1530323
1.1497926
1.1425983
1.129415
1.1094579
1.0843757
1.0574915
1.0320231
1.0100292
0.99234652
0.97892485
0.96915665
0.96218799
0.95712195
0.95308162
0.9491183
0.94391901
0.93503141
0.91818928
1.1586181
1.1586161
1.1586114
1.1586021
1.1585861
1.1585607
1.1585229
1.158469
1.1583943
1.1582923
1.1581534
1.1579581
1.1576115
1.1568178
1.1536741
1.1434199
1.1227076
1.0955413
1.0679286
1.0430146
1.0218761
1.0046646
0.99107946
0.98055627
0.97241717
0.96596183
0.96045275
0.95493191
0.94763401
0.93527929
)
;

boundaryField
{
    maxY
    {
        type            calculated;
        value           nonuniform List<scalar> 
300
(
1.1586176
1.1586176
1.1586176
1.1586176
1.1586176
1.1586176
1.1586176
1.1586176
1.1586176
1.1586176
1.1586156
1.1586157
1.1586157
1.1586157
1.1586157
1.1586157
1.1586157
1.1586157
1.1586157
1.1586156
1.1586109
1.1586112
1.1586112
1.1586112
1.1586112
1.1586112
1.1586112
1.1586112
1.1586112
1.1586109
1.1586016
1.1586028
1.1586028
1.1586027
1.1586027
1.1586027
1.1586027
1.1586028
1.1586028
1.1586016
1.1585856
1.1585889
1.1585888
1.1585886
1.1585885
1.1585885
1.1585886
1.1585888
1.1585889
1.1585856
1.1585602
1.1585674
1.1585675
1.1585671
1.1585669
1.1585669
1.1585671
1.1585675
1.1585674
1.1585602
1.1585224
1.1585365
1.1585371
1.1585363
1.1585359
1.1585359
1.1585363
1.1585371
1.1585365
1.1585224
1.1584684
1.1584939
1.1584956
1.1584942
1.1584935
1.1584935
1.1584942
1.1584956
1.1584939
1.1584684
1.1583938
1.1584373
1.158441
1.1584388
1.1584375
1.1584375
1.1584388
1.158441
1.1584373
1.1583938
1.1582918
1.158364
1.1583715
1.1583679
1.1583658
1.1583658
1.1583679
1.1583715
1.158364
1.1582918
1.1581529
1.1582707
1.1582851
1.1582795
1.1582761
1.1582761
1.1582795
1.1582851
1.1582707
1.1581529
1.1579575
1.1581527
1.1581801
1.1581714
1.1581661
1.1581661
1.1581714
1.1581801
1.1581527
1.1579575
1.157611
1.1579949
1.1580542
1.1580417
1.1580327
1.1580327
1.1580417
1.1580542
1.1579949
1.157611
1.1568172
1.1577398
1.1579022
1.1578882
1.1578731
1.1578731
1.1578882
1.1579022
1.1577398
1.1568172
1.1536735
1.1570609
1.157696
1.1577084
1.1576841
1.1576841
1.1577084
1.157696
1.1570609
1.1536736
1.1434191
1.1546003
1.1572802
1.1574959
1.1574618
1.1574619
1.157496
1.1572803
1.1546004
1.1434194
1.1227065
1.147121
1.155976
1.1572199
1.157201
1.157201
1.1572199
1.1559761
1.1471214
1.1227071
1.09554
1.1312875
1.1517509
1.1567011
1.1568897
1.1568897
1.1567012
1.1517513
1.1312883
1.0955409
1.0679273
1.107828
1.141113
1.1550715
1.1564867
1.1564869
1.1550717
1.1411141
1.1078294
1.0679282
1.0430133
1.0815661
1.1219877
1.1495724
1.1558139
1.1558142
1.1495735
1.1219899
1.0815679
1.0430142
1.0218748
1.0568963
1.0970137
1.1359231
1.1536955
1.1536971
1.135926
1.0970171
1.0568984
1.0218757
1.0046633
1.0359793
1.0715535
1.1132699
1.145285
1.1452905
1.1132753
1.0715576
1.0359812
1.0046642
0.99107807
1.0200882
1.0496223
1.0867945
1.1229681
1.1229803
1.0868015
1.0496263
1.0200898
0.99107907
0.98055479
1.0076033
1.0317867
1.0619983
1.0880234
1.088038
1.0620053
1.0317902
1.0076044
0.98055589
0.9724157
0.99751106
1.017412
1.0412454
1.0569323
1.0569448
1.0412513
1.0174145
0.99751127
0.9724168
0.96596065
0.98893757
1.0055753
1.0245972
1.0362357
1.036251
1.0246016
1.0055763
0.98893654
0.96596146
0.96045242
0.98115014
0.99538327
1.0110759
1.0215476
1.021571
1.0110786
0.99538221
0.98114739
0.96045238
0.95493357
0.97347522
0.98600875
0.99949583
1.0097612
1.009799
0.99949662
0.98600479
0.97347007
0.95493155
0.94764019
0.96501003
0.97653183
0.98868704
0.9992044
0.99926869
0.98868533
0.97652352
0.96500133
0.94763366
0.93529302
0.95442338
0.96600757
0.97771477
0.98672981
0.98693979
0.97770888
0.96599188
0.95440908
0.93527894
)
;
    }
    minX
    {
        type            calculated;
        value           nonuniform List<scalar> 
40
(
1.1586218
1.1586207
1.1586197
1.1586186
1.1586218
1.1586207
1.1586197
1.1586186
1.1586218
1.1586207
1.1586197
1.1586186
1.1586218
1.1586207
1.1586197
1.1586186
1.1586217
1.1586207
1.1586197
1.1586186
1.1586217
1.1586207
1.1586197
1.1586186
1.1586218
1.1586207
1.1586197
1.1586186
1.1586218
1.1586207
1.1586197
1.1586186
1.1586218
1.1586207
1.1586197
1.1586186
1.1586218
1.1586207
1.1586197
1.1586186
)
;
    }
    maxX
    {
        type            calculated;
        value           nonuniform List<scalar> 
40
(
0.84625612
0.89492703
0.91822635
0.93531103
0.8783524
1.0300903
0.98559941
0.95444047
0.88205697
1.0250927
1.0210295
0.96602374
0.82825634
0.96775685
1.0152707
0.97773039
0.78964518
0.90848126
0.96983653
0.98675619
0.78981058
0.90889789
0.97037857
0.9869656
0.82835474
0.96799053
1.0154408
0.97772449
0.88204829
1.0251607
1.0209999
0.96600806
0.87833387
1.0300696
0.98558201
0.95442619
0.84624258
0.8949057
0.91820817
0.93529696
)
;
    }
    minZ
    {
        type            calculated;
        value           nonuniform List<scalar> 
120
(
1.1165255
1.1576729
1.1585985
1.1586181
1.0795642
1.1558685
1.1585384
1.1586161
1.0478995
1.153379
1.1584264
1.1586114
1.0202828
1.1503147
1.1582513
1.1586021
0.99573024
1.1467621
1.1580037
1.1585861
0.97356616
1.1427883
1.1576751
1.1585607
0.95332221
1.1384487
1.1572582
1.1585229
0.9347123
1.1337834
1.1567461
1.158469
0.91774508
1.1283075
1.1561198
1.1583943
0.9025263
1.121223
1.1553396
1.1582923
0.88892735
1.1121083
1.1543537
1.1581534
0.87688634
1.0999371
1.1530323
1.1579581
0.86646218
1.0844583
1.1497926
1.1576115
0.85966005
1.0658515
1.1425982
1.1568177
0.85445188
1.0447113
1.1294149
1.153674
0.85101045
1.0227284
1.1094576
1.1434196
0.84941817
1.0019906
1.0843753
1.122707
0.84955517
0.98414861
1.0574911
1.0955405
0.85107257
0.97003136
1.0320228
1.0679277
0.85347937
0.95973424
1.0100289
1.0430138
0.85627745
0.95288201
0.99234619
1.0218752
0.85905344
0.94877358
0.97892443
1.0046637
0.86148687
0.94651257
0.96915608
0.99107846
0.86333772
0.94521574
0.9621873
0.98055516
0.86442135
0.94408716
0.95712138
0.97241607
0.86455106
0.94233014
0.95308169
0.96596101
0.86343179
0.93892049
0.94911998
0.96045278
0.860485
0.93218709
0.94392405
0.95493393
0.85486368
0.91897777
0.93504301
0.94764054
0.84623142
0.89490636
0.91820747
0.93529336
)
;
    }
    maxZ
    {
        type            calculated;
        value           nonuniform List<scalar> 
120
(
1.1165254
1.1576729
1.1585985
1.1586181
1.079564
1.1558685
1.1585384
1.1586161
1.0478993
1.153379
1.1584264
1.1586114
1.0202826
1.1503147
1.1582513
1.1586021
0.99573005
1.1467621
1.1580037
1.1585861
0.973566
1.1427882
1.1576751
1.1585607
0.95332208
1.1384487
1.1572581
1.1585229
0.93471223
1.1337834
1.1567461
1.158469
0.9177451
1.1283074
1.1561198
1.1583943
0.90252642
1.121223
1.1553396
1.1582923
0.88892743
1.1121083
1.1543537
1.1581534
0.87688617
1.0999371
1.1530323
1.1579581
0.866462
1.0844584
1.1497926
1.1576115
0.85965986
1.0658516
1.1425983
1.1568178
0.85445158
1.0447115
1.129415
1.1536741
0.85100992
1.0227286
1.1094579
1.1434199
0.84941732
1.0019908
1.0843757
1.1227076
0.84955401
0.9841487
1.0574915
1.0955413
0.85107113
0.97003137
1.0320231
1.0679286
0.85347754
0.95973424
1.0100292
1.0430146
0.85627513
0.95288209
0.99234652
1.0218761
0.85905053
0.94877386
0.97892485
1.0046646
0.86148325
0.94651307
0.96915665
0.99107946
0.86333324
0.94521628
0.96218799
0.98055627
0.86441585
0.94408718
0.95712195
0.97241717
0.86454431
0.9423286
0.95308162
0.96596183
0.86342335
0.93891565
0.9491183
0.96045275
0.86047437
0.93217638
0.94391901
0.95493191
0.85485135
0.91895739
0.93503141
0.94763401
0.84621786
0.894885
0.91818928
0.93527929
)
;
    }
    topAir_to_rightSolid
    {
        type            calculated;
        value           nonuniform List<scalar> 
130
(
0.62569704
0.62283687
0.62001192
0.61735265
0.61497944
0.61294324
0.61123324
0.60982416
0.60868249
0.60779135
0.60714937
0.60675311
0.60660132
0.62861552
0.62501308
0.62153801
0.61838367
0.61566077
0.61337571
0.61149593
0.60997063
0.60875499
0.60782244
0.60714309
0.60669806
0.60648584
0.63469573
0.62935784
0.62451518
0.62036246
0.61694046
0.61416467
0.61196529
0.61022607
0.60887539
0.60788379
0.60718716
0.60671725
0.60647636
0.6443043
0.63552096
0.62839091
0.62279079
0.61844965
0.61508366
0.61248867
0.61049802
0.60899884
0.60792918
0.6072002
0.60674066
0.6065115
0.65632543
0.64161593
0.63168143
0.62465444
0.61953365
0.61571139
0.61284843
0.61070597
0.60912669
0.60800177
0.60723824
0.60677253
0.60654955
0.65632137
0.64161476
0.63168245
0.62465536
0.61953442
0.61571144
0.61284824
0.61070568
0.60912637
0.6080016
0.60723814
0.60677244
0.60654945
0.64431445
0.63552621
0.62839553
0.62279402
0.61845152
0.615084
0.61248828
0.6104977
0.60899874
0.60792921
0.6072003
0.6067408
0.60651159
0.63469951
0.62936121
0.62451852
0.62036431
0.61694176
0.61416529
0.61196458
0.61022584
0.60887566
0.60788407
0.60718749
0.60671754
0.60647657
0.62861336
0.6250116
0.62153736
0.61838369
0.61566098
0.61337589
0.61149561
0.60997062
0.60875549
0.60782322
0.60714395
0.6066987
0.60648618
0.6256932
0.62283465
0.62000944
0.61735063
0.6149783
0.61294274
0.61123297
0.60982435
0.60868343
0.60779266
0.6071508
0.60675407
0.60660187
)
;
    }
    topAir_to_heater
    {
        type            calculated;
        value           nonuniform List<scalar> 
40
(
0.63292227
0.63213429
0.63057823
0.62837084
0.63786235
0.63686309
0.63487886
0.63204196
0.64875974
0.64731626
0.64436064
0.64000727
0.6679591
0.66599362
0.66144477
0.654059
0.69892169
0.69742493
0.69165243
0.67940208
0.69892107
0.69742481
0.69165572
0.67940339
0.66794922
0.66599039
0.66146232
0.65407628
0.64875649
0.6473143
0.64436042
0.64000854
0.63786235
0.63686233
0.63487543
0.63203844
0.63292149
0.63213242
0.63057463
0.62836652
)
;
    }
    topAir_to_leftSolid
    {
        type            calculated;
        value           nonuniform List<scalar> 
130
(
0.60518353
0.60514195
0.60515585
0.60521469
0.6053036
0.60539943
0.60549413
0.6055938
0.60570378
0.60583457
0.60597279
0.60607699
0.60613542
0.60502862
0.60503942
0.6050845
0.60515292
0.60523913
0.60533994
0.605445
0.60555627
0.60567983
0.60582344
0.60598609
0.6061262
0.60621249
0.60497878
0.60500414
0.60504754
0.60508839
0.60515983
0.60527667
0.60540921
0.60555418
0.60572777
0.60590906
0.60611009
0.60627781
0.60638572
0.60500195
0.60500484
0.60501173
0.6050377
0.6051096
0.60524871
0.60542564
0.60562674
0.60584775
0.60606944
0.60629763
0.60649716
0.60664449
0.60504015
0.60503056
0.60502787
0.60505796
0.6051333
0.60526688
0.6054516
0.60567542
0.60592927
0.60617805
0.60643132
0.60666962
0.60688631
0.60504004
0.60503068
0.60502807
0.60505834
0.60513392
0.60526744
0.60545223
0.60567612
0.60593011
0.60617909
0.60643271
0.60667371
0.60689683
0.60500139
0.60500463
0.60501179
0.60503789
0.60511004
0.60524922
0.6054262
0.60562739
0.60584855
0.60607043
0.60629856
0.60650063
0.60665162
0.6049783
0.60500363
0.60504696
0.60508826
0.60516008
0.60527702
0.60540919
0.60555413
0.6057281
0.60590969
0.60611068
0.60627957
0.60638838
0.60502822
0.60503893
0.6050838
0.60515249
0.6052391
0.60534005
0.60544493
0.60555629
0.6056802
0.60582389
0.6059869
0.60612766
0.60621464
0.60518276
0.60514161
0.60515531
0.6052143
0.60530346
0.60539958
0.60549435
0.60559423
0.60570455
0.60583582
0.60597243
0.60607375
0.60613463
)
;
    }
}


// ************************************************************************* //
