/*--------------------------------*- C++ -*----------------------------------*\
| =========                 |                                                 |
| \\      /  F ield         | OpenFOAM: The Open Source CFD Toolbox           |
|  \\    /   O peration     | Version:  v2012                                 |
|   \\  /    A nd           | Website:  www.openfoam.com                      |
|    \\/     M anipulation  |                                                 |
\*---------------------------------------------------------------------------*/
FoamFile
{
    version     2.0;
    format      ascii;
    class       volScalarField;
    location    "90/topAir";
    object      T;
}
// * * * * * * * * * * * * * * * * * * * * * * * * * * * * * * * * * * * * * //

dimensions      [0 0 0 1 0 0 0];


internalField   nonuniform List<scalar> 
1200
(
311.31088
321.96931
331.69834
340.67664
349.07698
357.02402
364.60548
371.86468
378.73969
385.12616
391.01787
396.38715
401.15596
404.33014
406.79466
408.4397
409.20534
409.13935
408.40988
407.25816
405.92735
404.61561
403.4727
402.60772
402.10301
402.04268
402.56385
403.94246
406.59866
410.74631
300.24562
300.71434
301.36339
302.16618
303.10227
304.15627
305.31566
306.57196
308.05984
310.00632
312.54708
316.00554
320.51597
326.11129
332.7103
339.86168
346.89565
353.18465
358.32469
362.1692
364.77357
366.35313
367.22827
367.7321
368.17169
368.85816
370.19766
372.87168
378.23131
388.40508
300.00548
300.02105
300.05006
300.09541
300.15958
300.24478
300.35295
300.48589
300.64869
300.85173
301.10865
301.45374
302.30313
304.20657
307.75749
313.29354
320.54022
328.68918
336.80061
344.1346
350.26677
355.06918
358.648
361.24556
363.15759
364.69685
366.21913
368.23502
371.73253
378.54833
300.00013
300.00064
300.00187
300.00428
300.00842
300.01499
300.02479
300.03875
300.0581
300.08451
300.1205
300.17113
300.26099
300.46702
301.28578
303.98778
309.596
317.27316
325.4767
333.25122
340.14486
345.97212
350.71454
354.4784
357.44538
359.83402
361.89769
363.98921
366.79061
371.63276
311.31483
321.85824
331.36442
340.01702
347.98231
355.36162
362.21482
368.56654
374.4062
379.67809
384.29794
388.14889
391.09393
391.9324
391.76729
390.69789
388.97881
386.99502
385.11698
383.55971
382.37167
381.52329
381.00673
380.83324
381.03042
381.68571
383.05521
385.75742
390.41237
395.73568
300.24543
300.7054
301.32994
302.08726
302.95216
303.90372
304.92327
305.99201
307.09114
308.19855
309.28022
310.29465
311.21111
311.96869
312.54551
312.95728
313.28618
313.67293
314.23182
314.97837
315.85592
316.81626
317.86922
319.01824
320.26534
321.62216
323.10452
324.73178
327.70284
337.4368
300.00546
300.02062
300.04813
300.09004
300.14783
300.2225
300.31468
300.42452
300.5518
300.69589
300.85548
301.02903
301.22746
301.47728
301.82228
302.32765
303.14791
304.55605
306.67522
309.2889
312.00825
314.70792
317.86665
321.53328
325.70608
330.13231
334.84671
340.01025
345.78394
352.66997
300.00013
300.00062
300.00177
300.00395
300.00757
300.01312
300.02113
300.03216
300.04682
300.06582
300.08997
300.12055
300.16145
300.2276
300.40374
301.04393
303.00676
307.24765
313.75396
321.37234
328.87375
335.51391
340.7406
344.96259
348.45274
351.47362
354.26328
357.05632
360.18846
364.18375
311.31659
321.88417
331.41972
340.10719
348.11622
355.55344
362.48529
368.94872
374.95626
380.50905
385.57819
390.11743
394.0355
395.74754
396.61744
396.4902
395.20957
392.73064
389.28102
385.4304
381.85067
378.98972
376.97619
375.74018
375.17092
375.26314
376.22776
378.84118
385.06986
394.07281
300.24552
300.70718
301.33455
302.0951
302.96329
303.91842
304.94271
306.01955
307.1321
308.2621
309.38787
310.48235
311.50996
312.39694
313.09122
313.54457
313.72705
313.6719
313.52965
313.52923
313.82475
314.42922
315.29096
316.37836
317.70992
319.34386
321.318
323.72428
327.50439
339.08296
300.00546
300.02069
300.04835
300.09043
300.14831
300.22288
300.31461
300.42358
300.54938
300.69112
300.84715
301.01482
301.19011
301.36683
301.53652
301.69201
301.85104
302.12208
302.77074
304.06142
305.95795
308.19602
310.59652
313.17713
316.09462
319.60376
323.72648
328.46014
333.92376
340.43195
300.00013
300.00063
300.00178
300.00396
300.00758
300.01309
300.02097
300.03173
300.04586
300.06387
300.08625
300.11346
300.14608
300.18548
300.23893
300.3468
300.68568
301.78872
304.6021
309.79433
316.84694
324.37524
331.15288
336.87723
341.63688
345.65832
349.19761
352.51762
355.9387
359.81651
311.31591
321.89064
331.44413
340.16091
348.21407
355.71852
362.75453
369.38184
375.64735
381.59114
387.24893
392.65711
397.81076
400.71575
403.46497
406.08601
408.54897
410.72596
412.28973
412.88122
412.34654
410.87361
408.883
406.94095
405.37515
404.44225
404.63251
407.32694
412.796
419.67208
300.24552
300.70772
301.33682
302.10078
302.9747
303.93904
304.97812
306.07883
307.22993
308.42154
309.64444
310.88932
312.14632
313.35895
314.50533
315.55877
316.4779
317.20592
317.68621
317.921
318.03993
318.23647
318.66149
319.40273
320.51714
322.03133
323.95733
326.78413
335.84512
359.17533
300.00547
300.02072
300.04847
300.09078
300.14907
300.22435
300.31724
300.42809
300.55693
300.7036
300.86765
301.04833
301.24438
301.45243
301.66756
301.88286
302.08854
302.27589
302.46639
302.81178
303.68443
305.41769
308.04023
311.45388
315.47894
319.90329
324.50224
329.07167
333.75084
342.36816
300.00013
300.00063
300.00179
300.00398
300.00763
300.01319
300.02117
300.03207
300.04643
300.0648
300.0877
300.1157
300.14933
300.18912
300.23573
300.29083
300.36247
300.49717
300.92114
302.36063
305.99381
312.22026
319.82629
327.29378
333.81702
339.24107
343.77782
347.76079
351.56268
355.50805
311.3143
321.89056
331.44898
340.17304
348.23634
355.75544
362.8122
369.46866
375.775
381.77562
387.51094
393.01454
398.16859
400.30063
402.39425
404.56898
407.00567
410.00278
413.29359
416.69838
420.08414
423.0259
424.74252
425.39606
425.7307
426.4855
428.52311
431.694
435.28674
440.19627
300.2455
300.70788
301.33765
302.10294
302.97901
303.94663
304.99058
306.09852
307.26035
308.46772
309.71352
310.99663
312.52694
314.03196
315.53778
317.06171
318.60812
320.20284
321.80212
323.21257
323.92299
323.54222
322.90705
322.66148
323.19737
324.54593
326.65699
332.92212
350.72951
382.616
300.00547
300.02073
300.04852
300.09093
300.14942
300.22503
300.31846
300.43011
300.56018
300.70872
300.87562
301.0609
301.26873
301.49707
301.74384
302.00691
302.28267
302.56491
302.84127
303.09135
303.32448
303.84781
305.67311
309.63966
315.12771
321.19863
327.17555
332.58315
338.73149
358.41346
300.00013
300.00063
300.00179
300.00399
300.00766
300.01325
300.02128
300.03227
300.04676
300.06534
300.08857
300.11708
300.15164
300.19301
300.24203
300.29968
300.36739
300.44821
300.55289
300.72786
301.28003
303.49251
309.52388
319.46504
328.86255
335.43089
340.2538
344.22543
347.86223
352.26003
311.31431
321.89056
331.44897
340.17302
348.23629
355.75536
362.81209
369.46851
375.77479
381.77534
387.51057
393.01396
398.16771
400.29984
402.39353
404.56822
407.00491
410.00217
413.29304
416.6978
420.08324
423.0157
424.7169
425.3511
425.66443
426.39752
428.41595
431.59466
435.19298
440.10401
300.2455
300.70788
301.33765
302.10294
302.97901
303.94663
304.99058
306.09851
307.26033
308.4677
309.71349
310.99658
312.52664
314.03133
315.53669
317.05993
318.60529
320.19845
321.79528
323.20159
323.90349
323.52299
322.88784
322.6426
323.17967
324.53013
326.64193
332.85506
350.60744
382.44046
300.00547
300.02073
300.04852
300.09093
300.14942
300.22503
300.31845
300.43011
300.56018
300.70872
300.87562
301.0609
301.26872
301.49704
301.74379
302.00683
302.28252
302.56467
302.84088
303.09072
303.32342
303.84634
305.67149
309.63923
315.12986
321.20299
327.17915
332.57992
338.68319
358.21298
300.00013
300.00063
300.00179
300.00399
300.00766
300.01325
300.02128
300.03227
300.04676
300.06534
300.08857
300.11708
300.15164
300.19301
300.24203
300.29968
300.36737
300.44819
300.55285
300.72777
301.27962
303.49107
309.52052
319.46076
328.85865
335.42594
340.24601
344.21253
347.83985
352.18509
311.31593
321.89067
331.44416
340.16093
348.21408
355.7185
362.7545
369.38178
375.64725
381.591
387.24874
392.65677
397.81014
400.71539
403.46467
406.08513
408.54751
410.72414
412.28766
412.87876
412.34295
410.86751
408.87286
406.92536
405.35294
404.41272
404.59549
407.28096
412.75048
419.62218
300.24552
300.70772
301.33682
302.10079
302.9747
303.93905
304.97812
306.07882
307.22993
308.42153
309.64443
310.8893
312.14628
313.3589
314.50526
315.55867
316.47774
317.20565
317.68576
317.92012
318.03797
318.23317
318.65665
319.39652
320.51008
322.02414
323.95047
326.77107
335.79949
359.08855
300.00547
300.02072
300.04847
300.09078
300.14907
300.22435
300.31725
300.42809
300.55693
300.7036
300.86765
301.04833
301.24438
301.45242
301.66755
301.88285
302.08852
302.27586
302.46633
302.81164
303.68406
305.41706
308.03958
311.45395
315.4807
319.90755
324.5095
329.08192
333.75718
342.31068
300.00013
300.00063
300.00179
300.00398
300.00763
300.01319
300.02117
300.03207
300.04643
300.0648
300.0877
300.1157
300.14933
300.18912
300.23573
300.29083
300.36246
300.49716
300.92108
302.36034
305.99302
312.21875
319.82423
327.29162
333.81513
339.23963
343.7769
347.76052
351.56329
355.51019
311.31661
321.88421
331.41978
340.10726
348.11628
355.55349
362.48535
368.9488
374.95634
380.50915
385.57831
390.11756
394.03563
395.74791
396.61809
396.49114
395.21089
392.73247
389.28362
385.43398
381.85545
378.99576
376.98345
375.74859
375.18037
375.27363
376.23958
378.85427
385.08185
394.07669
300.24552
300.70718
301.33455
302.0951
302.96329
303.91842
304.94272
306.01956
307.13211
308.26211
309.38789
310.48238
311.51001
312.397
313.09131
313.54472
313.72726
313.67218
313.52998
313.52954
313.8249
314.42904
315.29028
316.37711
317.70821
319.3419
321.31593
323.72095
327.49388
339.06044
300.00546
300.02069
300.04835
300.09043
300.14831
300.22288
300.31462
300.42358
300.54938
300.69112
300.84715
301.01482
301.19012
301.36684
301.53653
301.69202
301.85105
302.12207
302.77068
304.06123
305.95758
308.19547
310.59595
313.1769
316.09526
319.60575
323.73017
328.46565
333.93127
340.44184
300.00013
300.00063
300.00178
300.00396
300.00758
300.01309
300.02097
300.03173
300.04586
300.06387
300.08625
300.11346
300.14608
300.18548
300.23893
300.3468
300.68565
301.78862
304.60181
309.79372
316.84595
324.37402
331.1516
336.87607
341.63603
345.65797
349.19798
352.51904
355.94172
359.82235
311.31484
321.85827
331.36447
340.01709
347.98237
355.36169
362.21489
368.56661
374.40626
379.67814
384.29798
388.1489
391.09389
391.93241
391.7674
390.6982
388.97936
386.99581
385.11807
383.56119
382.37366
381.52593
381.0101
380.83743
381.03553
381.69195
383.06303
385.76722
390.42179
395.74404
300.24543
300.70541
301.32994
302.08726
302.95216
303.90373
304.92328
305.99201
307.09115
308.19856
309.28023
310.29466
311.21113
311.96871
312.54554
312.95733
313.28626
313.67303
314.23194
314.97849
315.856
316.81624
317.86902
319.0178
320.26467
321.62132
323.10357
324.73054
327.70439
337.44361
300.00546
300.02062
300.04813
300.09004
300.14783
300.2225
300.31468
300.42452
300.5518
300.69589
300.85549
301.02903
301.22746
301.47728
301.82228
302.32764
303.14787
304.55596
306.67502
309.28853
312.00766
314.70701
317.8654
321.53182
325.70471
330.13143
334.84687
340.01216
345.78755
352.6762
300.00013
300.00062
300.00177
300.00395
300.00757
300.01312
300.02113
300.03216
300.04682
300.06582
300.08997
300.12055
300.16145
300.22759
300.40373
301.0439
303.00666
307.24742
313.75357
321.3718
328.8731
335.51328
340.74005
344.96222
348.45267
351.47398
354.26428
357.05821
360.19171
364.18921
311.31091
321.96935
331.69839
340.67671
349.07705
357.02408
364.60553
371.86471
378.73969
385.12611
391.01784
396.38722
401.15605
404.33023
406.7948
408.43996
409.20575
409.1399
408.41057
407.25904
405.92845
404.61699
403.4744
402.60981
402.10557
402.04582
402.56779
403.94745
406.60453
410.75289
300.24562
300.71434
301.36339
302.16619
303.10228
304.15628
305.31567
306.57197
308.05985
310.00632
312.54707
316.00553
320.51594
326.11125
332.71023
339.8616
346.89559
353.18462
358.32468
362.1692
364.77354
366.35302
367.22807
367.73189
368.17168
368.85877
370.19957
372.87597
378.2397
388.41435
300.00548
300.02105
300.05006
300.09541
300.15958
300.24478
300.35295
300.48589
300.64869
300.85173
301.10865
301.45374
302.30313
304.20656
307.75746
313.29346
320.54011
328.68906
336.80049
344.13449
350.26665
355.06902
358.64779
361.2453
363.15737
364.69688
366.21978
368.23699
371.73714
378.55583
300.00013
300.00064
300.00187
300.00428
300.00842
300.01499
300.02479
300.03875
300.0581
300.08451
300.1205
300.17113
300.26099
300.46702
301.28577
303.9877
309.59583
317.27292
325.47644
333.25095
340.14458
345.97181
350.71419
354.478
357.44497
359.83372
361.8977
363.98998
366.79313
371.63835
)
;

boundaryField
{
    maxY
    {
        type            zeroGradient;
    }
    minX
    {
        type            fixedValue;
        value           uniform 300;
    }
    maxX
    {
        type            inletOutlet;
        inletValue      uniform 300;
        value           nonuniform List<scalar> 
40
(
410.73434
388.39612
378.54056
371.62573
395.72549
337.43263
352.66443
364.17737
394.06347
339.07772
340.4268
359.81063
419.66048
359.1668
342.35778
355.5025
440.18058
382.60137
358.39635
352.25072
440.0884
382.42599
358.19615
352.17598
419.61063
359.0801
342.30042
355.50464
394.06735
339.05522
340.43668
359.81647
395.73384
337.43943
352.67066
364.18282
410.74091
388.40538
378.54806
371.63132
)
;
    }
    minZ
    {
        type            zeroGradient;
    }
    maxZ
    {
        type            zeroGradient;
    }
    topAir_to_rightSolid
    {
        type            compressible::turbulentTemperatureCoupledBaffleMixed;
        refValue        nonuniform List<scalar> 
130
(
555.56601
558.11809
560.662
563.07806
565.25191
567.13046
568.71773
570.03228
571.10172
571.93908
572.54352
572.91667
573.05873
552.99321
556.18186
559.29271
562.14663
564.63367
566.73776
568.48038
569.90217
571.04025
571.91611
572.5553
572.97387
573.17269
547.69266
552.34008
556.62528
560.35332
563.46305
566.01088
568.04593
569.66545
570.92938
571.86058
572.51597
572.95747
573.1822
539.51719
546.97501
553.18259
558.15815
562.07747
565.15475
567.55037
569.40191
570.80423
571.80873
572.4945
572.92643
573.14075
529.63331
541.77749
550.29906
556.49
561.08987
564.57333
567.21119
569.20143
570.6773
571.73276
572.45079
572.88911
573.09819
529.63659
541.77848
550.29817
556.48919
561.08917
564.5733
567.21138
569.20172
570.67763
571.73295
572.45092
572.88922
573.09832
539.50869
546.97049
553.17851
558.15526
562.07578
565.15445
567.55074
569.40221
570.80433
571.80871
572.49442
572.92632
573.14068
547.68939
552.33713
556.62231
560.35165
563.46186
566.01031
568.04659
569.66567
570.92913
571.86031
572.51565
572.95719
573.18199
552.99512
556.18318
559.29329
562.14662
564.63348
566.73759
568.48068
569.90217
571.03977
571.91536
572.55448
572.97327
573.17238
555.56941
558.12007
560.66424
563.0799
565.25295
567.13093
568.71797
570.0321
571.10083
571.93784
572.54217
572.91577
573.05822
)
;
        refGradient     uniform 0;
        valueFraction   uniform 0.99967867;
        value           nonuniform List<scalar> 
130
(
555.51895
558.06998
560.6127
563.02756
565.20029
567.07787
568.66435
569.97831
571.04739
571.88465
572.48934
572.86322
573.00658
552.93987
556.12689
559.23624
562.08886
564.57483
566.67808
568.42008
569.84148
570.9794
571.85542
572.49528
572.91521
573.11567
547.64286
552.28769
556.57027
560.29596
563.40377
565.95014
567.98413
569.60295
570.86651
571.79772
572.45373
572.8971
573.12464
539.4758
546.93173
553.1375
558.11129
562.02889
565.10454
567.49876
569.3492
570.75077
571.755
572.44143
572.87498
573.09143
529.59487
541.7362
550.25612
556.44617
561.0455
564.52839
567.16562
569.15533
570.63096
571.68673
572.40555
572.84489
573.05549
529.59814
541.73719
550.25524
556.44535
561.0448
564.52835
567.16579
569.15559
570.63126
571.68689
572.40565
572.84497
573.05558
539.46731
546.92721
553.13343
558.1084
562.02719
565.10422
567.49912
569.3495
570.75086
571.75497
572.44133
572.87485
573.09134
547.6396
552.28473
556.5673
560.29429
563.40259
565.94956
567.98479
569.60317
570.86626
571.79745
572.45342
572.89682
573.12444
552.94178
556.12821
559.23683
562.08885
564.57464
566.67791
568.42038
569.84148
570.97893
571.85468
572.49446
572.9146
573.11536
555.52236
558.07197
560.61494
563.0294
565.20133
567.07834
568.6646
569.97814
571.0465
571.88342
572.48799
572.86232
573.00606
)
;
        Tnbr            T;
        thicknessLayers List<scalar> 0();
        kappaLayers     List<scalar> 0();
        kappaMethod     fluidThermo;
        kappa           none;
        alphaAni        none;
        alpha           none;
        field           T;
    }
    topAir_to_heater
    {
        type            compressible::turbulentTemperatureCoupledBaffleMixed;
        refValue        nonuniform List<scalar> 
40
(
549.22393
549.90791
551.2647
553.20142
544.97332
545.82865
547.5353
549.99401
535.81592
537.01076
539.4746
543.14542
520.40954
521.94486
525.53439
531.46952
497.34955
498.41653
502.57666
511.64022
497.35
498.41662
502.57428
511.63923
520.41723
521.94739
525.52045
531.45547
535.8186
537.01239
539.47478
543.14433
544.97332
545.8293
547.53826
549.99707
549.2246
549.90954
551.26784
553.20523
)
;
        refGradient     uniform 0;
        valueFraction   uniform 0.99967867;
        value           nonuniform List<scalar> 
40
(
549.17737
549.86192
551.2188
553.15515
544.92414
545.77914
547.4849
549.94227
535.77091
536.96564
539.42865
543.09788
520.37107
521.90678
525.49601
531.43002
497.31836
498.38567
502.54517
511.60659
497.31881
498.38576
502.54278
511.60561
520.37877
521.90932
525.48206
531.41598
535.77359
536.96727
539.42883
543.0968
544.92414
545.7798
547.48786
549.94533
549.17804
549.86355
551.22195
553.15895
)
;
        Tnbr            T;
        thicknessLayers List<scalar> 0();
        kappaLayers     List<scalar> 0();
        kappaMethod     fluidThermo;
        kappa           none;
        alphaAni        none;
        alpha           none;
        field           T;
    }
    topAir_to_leftSolid
    {
        type            compressible::turbulentTemperatureCoupledBaffleMixed;
        refValue        nonuniform List<scalar> 
130
(
574.43375
574.46978
574.45345
574.39469
574.30759
574.2141
574.12182
574.02497
573.9185
573.79251
573.6597
573.55931
573.50247
574.58085
574.56719
574.52131
574.45354
574.36913
574.27107
574.16919
574.06162
573.9426
573.80481
573.64927
573.5154
573.43279
574.62819
574.60069
574.55639
574.51479
574.44437
574.33105
574.20305
574.06347
573.89698
573.72345
573.53147
573.37131
573.26799
574.60618
574.60003
574.59039
574.56291
574.49203
574.35754
574.18738
573.99454
573.78309
573.57124
573.35349
573.16308
573.02219
574.5699
574.5756
574.57506
574.54367
574.46952
574.34028
574.16274
573.94837
573.70583
573.4684
573.22698
573
572.7937
574.57
574.57548
574.57487
574.54331
574.46893
574.33975
574.16214
573.94771
573.70504
573.46741
573.22567
572.99613
572.78376
574.60671
574.60022
574.59034
574.56273
574.49161
574.35705
574.18685
573.99393
573.78233
573.5703
573.35262
573.1598
573.01545
574.62865
574.60118
574.55694
574.51491
574.44413
574.33072
574.20307
574.06353
573.89668
573.72284
573.53092
573.36965
573.26548
574.58123
574.56765
574.52197
574.45395
574.36916
574.27097
574.16925
574.06159
573.94225
573.80438
573.6485
573.51401
573.43076
574.43448
574.47011
574.45396
574.39506
574.30772
574.21396
574.12161
574.02456
573.91777
573.79133
573.66004
573.56238
573.50322
)
;
        refGradient     uniform 0;
        valueFraction   uniform 0.99967867;
        value           nonuniform List<scalar> 
130
(
574.3492
574.38865
574.37545
574.31959
574.23521
574.14431
574.0545
573.96
573.85578
573.73189
573.60101
573.50238
573.44709
574.49626
574.48598
574.44317
574.37821
574.29639
574.20073
574.10108
573.99558
573.87848
573.74243
573.58843
573.45583
573.3742
574.54358
574.51949
574.47826
574.43947
574.37164
574.26075
574.13502
573.99756
573.83306
573.66136
573.47108
573.31243
573.21039
574.52158
574.51883
574.51226
574.48759
574.41932
574.28729
574.11944
573.92879
573.71942
573.50955
573.29369
573.10507
572.96589
574.48531
574.4944
574.49694
574.46836
574.39682
574.27005
574.09483
573.88267
573.64223
573.4068
573.16731
572.94216
572.73759
574.48541
574.49429
574.49675
574.468
574.39623
574.26951
574.09423
573.882
573.64144
573.40581
573.16599
572.93829
572.72765
574.52211
574.51902
574.51221
574.48741
574.4189
574.2868
574.11891
573.92818
573.71866
573.50861
573.29281
573.1018
572.95915
574.54404
574.51997
574.47881
574.43959
574.3714
574.26042
574.13504
573.99761
573.83275
573.66076
573.47052
573.31077
573.20788
574.49664
574.48645
574.44384
574.37862
574.29642
574.20063
574.10115
573.99556
573.87813
573.742
573.58766
573.45445
573.37216
574.34993
574.38897
574.37595
574.31996
574.23535
574.14416
574.05429
573.9596
573.85505
573.7307
573.60135
573.50544
573.44783
)
;
        Tnbr            T;
        thicknessLayers List<scalar> 0();
        kappaLayers     List<scalar> 0();
        kappaMethod     fluidThermo;
        kappa           none;
        alphaAni        none;
        alpha           none;
        field           T;
    }
}


// ************************************************************************* //
