/*--------------------------------*- C++ -*----------------------------------*\
| =========                 |                                                 |
| \\      /  F ield         | OpenFOAM: The Open Source CFD Toolbox           |
|  \\    /   O peration     | Version:  v2012                                 |
|   \\  /    A nd           | Website:  www.openfoam.com                      |
|    \\/     M anipulation  |                                                 |
\*---------------------------------------------------------------------------*/
FoamFile
{
    version     2.0;
    format      ascii;
    class       volScalarField;
    location    "36";
    object      p;
}
// * * * * * * * * * * * * * * * * * * * * * * * * * * * * * * * * * * * * * //

dimensions      [0 2 -2 0 0 0 0];


internalField   nonuniform List<scalar> 
64000
(
-5.63947e-22
-4.62237e-21
-3.29219e-21
-5.04497e-21
-8.78505e-21
-3.183e-21
-5.05259e-21
-4.69662e-21
-5.59155e-21
-5.60465e-21
-4.20865e-21
-7.13366e-21
-5.05417e-21
-7.1757e-21
-4.5183e-21
-5.66606e-21
-1.36717e-21
-1.0316e-21
-1.69217e-21
-2.71748e-21
-1.8518e-21
-2.42035e-21
-2.53975e-21
-1.10585e-21
-4.16402e-21
-1.63073e-21
6.60902e-22
-5.33611e-21
-2.98365e-21
-2.44146e-21
-4.2028e-21
-6.56369e-22
6.31038e-22
-3.17994e-22
-2.21611e-21
-5.95725e-21
3.18587e-23
5.21476e-22
-8.2745e-22
-8.37691e-22
-7.77e-21
-1.20861e-20
-1.12835e-20
-8.07463e-21
-1.09453e-20
-1.13973e-20
-9.65762e-21
-6.42584e-21
-4.16226e-21
-9.78104e-21
-1.18208e-20
-1.18606e-20
-6.19587e-21
-6.2818e-21
-7.21948e-21
-6.43244e-21
-4.00249e-21
1.56387e-21
-8.85955e-22
-5.97949e-21
3.31304e-23
-3.44548e-21
-5.92255e-21
-8.95052e-21
-4.84404e-21
-3.61164e-21
-3.96738e-21
-6.00934e-21
-4.28605e-21
-2.31964e-21
4.04005e-22
-7.1998e-22
-4.29054e-21
-2.70578e-21
-1.2166e-21
-2.52233e-21
-9.6462e-22
1.56305e-21
-1.78522e-21
-2.43788e-21
-6.74711e-21
-9.88088e-21
-1.30502e-20
-1.00209e-20
-1.01001e-20
-1.18464e-20
-1.08552e-20
-8.37274e-21
-1.00896e-20
-1.11231e-20
-9.0386e-21
-9.84037e-21
-9.09188e-21
-5.83703e-21
-4.77028e-21
-1.9331e-21
-9.45275e-21
-3.78169e-21
8.76013e-22
-1.98753e-21
-3.68297e-21
-6.34531e-21
-6.13692e-21
-6.41863e-21
-3.36629e-21
-4.32479e-21
-4.85046e-21
-5.65664e-21
-2.31497e-21
-3.55419e-21
-2.86222e-21
-8.89397e-22
-3.37094e-21
-4.66847e-22
-2.13945e-21
-5.66404e-21
2.12071e-21
2.91419e-21
-3.45633e-22
1.21371e-22
-9.71471e-21
-1.00801e-20
-1.11291e-20
-1.48169e-20
-1.27415e-20
-1.42103e-20
-1.20833e-20
-8.71106e-21
-1.1022e-20
-1.15584e-20
-1.0082e-20
-1.06011e-20
-9.58777e-21
-6.49765e-21
-6.50733e-21
-3.92784e-21
-5.94562e-21
-4.6603e-21
9.41992e-22
-1.44432e-21
-4.44534e-21
-5.51889e-21
-8.50193e-21
-8.0959e-21
-7.99785e-21
-1.05857e-21
-3.46655e-21
-3.09988e-21
-3.17558e-21
-4.52862e-21
-1.90354e-21
-1.38407e-21
-1.97283e-21
-1.56322e-21
-2.85266e-21
-3.59497e-21
7.05095e-22
9.06244e-22
-1.84142e-21
-5.94968e-23
-1.6599e-20
-1.11428e-20
-1.17349e-20
-1.34338e-20
-1.2447e-20
-1.51594e-20
-1.20701e-20
-7.29817e-21
-9.06199e-21
-1.3104e-20
-1.08379e-20
-9.98151e-21
-8.05921e-21
-5.01152e-21
-1.0133e-20
-1.24903e-20
-5.7606e-21
-2.18779e-21
-1.0621e-21
-2.48632e-21
-4.06751e-21
-6.72105e-21
-9.00767e-21
-6.91168e-21
-5.17064e-21
-2.61151e-21
-2.79462e-21
-3.80631e-21
-6.17251e-21
-1.95978e-21
-1.0488e-21
8.08802e-22
-1.02027e-21
-9.65635e-22
-4.08372e-21
-3.76695e-21
-1.10201e-21
-1.12872e-21
-3.46269e-22
-6.75198e-22
-1.34647e-20
-1.18175e-20
-9.95497e-21
-1.39688e-20
-1.23684e-20
-1.25162e-20
-9.81549e-21
-1.32313e-20
-1.29433e-20
-1.24611e-20
-1.06877e-20
-8.95132e-21
-9.01248e-21
-5.05674e-21
-8.84141e-21
-1.07132e-20
-5.6889e-21
-3.00266e-21
-2.94337e-21
-4.86479e-21
-2.71786e-21
-4.10002e-21
-9.80248e-21
-8.75771e-21
-8.61923e-21
-1.38563e-21
-3.79205e-21
-2.02376e-21
-4.12437e-21
-3.93984e-21
-3.69043e-21
-2.67904e-21
-1.33543e-21
-1.06005e-21
-2.89318e-21
-8.33626e-22
-2.97624e-21
-1.25802e-21
-7.24815e-22
8.09905e-22
-1.42328e-20
-1.50039e-20
-9.51706e-21
-1.20898e-20
-1.27461e-20
-1.2969e-20
-1.03618e-20
-1.23799e-20
-1.36723e-20
-1.24321e-20
-1.06998e-20
-1.05623e-20
-6.87095e-21
-7.9397e-21
-8.69562e-21
-8.95878e-21
-6.00203e-21
-1.5429e-21
-2.19123e-21
-4.65489e-21
-4.52407e-21
-8.25354e-21
-1.19735e-20
-1.08001e-20
-5.83624e-21
-5.69713e-21
-4.64344e-21
-3.99638e-22
-2.8393e-21
-2.04865e-21
-5.71951e-21
-4.66737e-21
3.41348e-22
-6.82385e-22
-2.34969e-21
-2.99457e-21
-1.67641e-21
-1.12639e-21
-3.44057e-21
-1.10783e-21
-1.45939e-20
-1.40104e-20
-1.19499e-20
-1.10859e-20
-1.26745e-20
-1.08544e-20
-1.02531e-20
-1.78501e-20
-1.53201e-20
-1.27117e-20
-9.83286e-21
-8.83467e-21
-7.88838e-21
-9.83363e-21
-7.32261e-21
-8.54384e-21
-4.86789e-21
-3.34905e-21
-6.21025e-21
-3.07721e-21
-2.46012e-21
-9.59289e-21
-1.02714e-20
-8.32087e-21
-5.94765e-21
-7.14661e-21
-4.73289e-21
-1.27102e-21
-3.03121e-21
-3.78671e-21
-5.64782e-21
-4.08328e-21
-2.09384e-22
-2.23995e-21
-5.09227e-21
-5.58441e-21
-1.30721e-21
-1.57031e-22
-8.62909e-22
-1.46149e-21
-1.98891e-20
-1.67256e-20
-1.1512e-20
-1.1683e-20
-1.3505e-20
-1.4935e-20
-1.31968e-20
-1.28138e-20
-1.36045e-20
-1.56467e-20
-8.05742e-21
-7.31034e-21
-7.75169e-21
-1.05241e-20
-9.85632e-21
-8.81359e-21
-4.21487e-21
1.48571e-22
-6.88498e-21
-7.44685e-21
-2.56597e-21
-8.01316e-21
-1.14992e-20
-8.85145e-21
-3.88356e-21
-5.27441e-21
-7.11785e-21
-4.65176e-21
-2.06158e-21
-5.93178e-21
-4.11628e-21
-2.23871e-21
1.20859e-22
-2.51971e-21
-6.32042e-21
-3.19044e-21
-1.01829e-21
2.49795e-22
-7.57359e-22
-2.09572e-21
-1.21142e-20
-1.37143e-20
-1.32983e-20
-1.24541e-20
-1.55561e-20
-1.58163e-20
-1.31073e-20
-1.26804e-20
-1.34089e-20
-1.41916e-20
-1.16566e-20
-6.49456e-21
-7.39028e-21
-9.85954e-21
-1.03996e-20
-8.64283e-21
-6.01091e-21
-3.50719e-21
-5.68785e-22
-3.29856e-21
-6.3137e-21
-5.79233e-21
-1.04679e-20
-1.00855e-20
-7.83383e-21
-4.42927e-21
-3.51645e-21
-1.59214e-21
-4.98381e-21
-4.95795e-21
-3.08849e-21
-1.67647e-21
-2.23143e-21
-2.65739e-21
-7.3067e-21
-4.03032e-21
-1.63809e-21
3.60361e-23
-5.49636e-22
-1.26055e-22
-1.10221e-20
-1.47017e-20
-1.49668e-20
-1.66232e-20
-1.32865e-20
-1.48908e-20
-1.7799e-20
-1.10459e-20
-1.35043e-20
-1.59161e-20
-1.04936e-20
-6.25349e-21
-6.12642e-21
-1.00911e-20
-1.00641e-20
-1.14675e-20
-8.4931e-21
-1.62602e-21
1.94002e-21
-1.96668e-21
-9.20454e-21
-1.12962e-20
-8.86408e-21
-8.82021e-21
-8.10297e-21
-4.22386e-21
-9.38502e-23
-1.83937e-21
-4.47436e-21
-6.78599e-21
-3.59645e-21
5.05454e-22
-5.29343e-21
-2.9911e-21
-4.23565e-21
-4.94881e-21
-1.20596e-21
-1.17293e-21
-7.0101e-22
-3.76466e-22
-1.20713e-20
-1.62528e-20
-1.6836e-20
-1.4949e-20
-1.45819e-20
-1.75432e-20
-1.34119e-20
-1.44179e-20
-1.06678e-20
-1.40727e-20
-1.57986e-20
-8.31889e-21
-4.95363e-21
-9.4959e-21
-1.21761e-20
-1.17913e-20
-7.55323e-21
-1.38267e-21
-1.57027e-21
-2.25679e-21
-6.89515e-21
-1.17478e-20
-9.76294e-21
-9.36714e-21
-8.5365e-21
-1.57887e-21
-1.98771e-21
-3.18267e-21
-4.838e-21
-3.33415e-21
5.15862e-23
-2.08214e-21
-4.2927e-21
-4.00578e-21
-3.39497e-21
-2.94042e-21
-9.31231e-22
-1.45903e-21
-1.70907e-21
-1.98072e-21
-1.71415e-20
-1.62395e-20
-1.56753e-20
-1.59392e-20
-1.71988e-20
-1.62932e-20
-1.55769e-20
-1.59151e-20
-1.66819e-20
-1.33121e-20
-1.15523e-20
-7.63827e-21
-7.52551e-21
-1.02944e-20
-1.05176e-20
-9.55747e-21
-6.90531e-21
-2.80425e-21
-1.43956e-21
-5.37318e-21
-7.39232e-21
-8.42854e-21
-8.63989e-21
-8.60451e-21
-4.54617e-21
-1.10273e-21
-2.7454e-21
-4.50478e-21
-3.71e-21
-2.42463e-21
-5.2401e-21
-3.16629e-21
-1.71025e-22
-5.72048e-21
-6.6244e-21
-1.85227e-21
-5.57458e-22
-2.49473e-21
-1.63946e-21
-1.87765e-21
-1.92554e-20
-1.91848e-20
-1.53723e-20
-1.75027e-20
-1.39481e-20
-1.40562e-20
-1.62453e-20
-1.48195e-20
-1.37621e-20
-1.59285e-20
-1.17181e-20
-1.06864e-20
-1.07063e-20
-1.11168e-20
-1.02877e-20
-9.30828e-21
-6.18434e-21
-1.12134e-21
-1.8592e-21
-4.71831e-21
-7.92187e-21
-9.71405e-21
-1.09009e-20
-9.16332e-21
-3.33287e-21
2.47386e-21
7.61932e-22
-5.07042e-21
-6.13575e-21
1.22158e-21
-3.05501e-21
-6.56148e-21
-2.66939e-21
-3.21267e-21
-5.88768e-21
-2.16847e-21
-2.2872e-21
-1.84956e-21
7.39175e-22
-1.20401e-21
-1.28268e-20
-1.97722e-20
-1.87984e-20
-1.5529e-20
-1.22536e-20
-1.52089e-20
-1.98747e-20
-2.03754e-20
-1.44956e-20
-1.09697e-20
-9.5429e-21
-1.38252e-20
-1.27179e-20
-1.00848e-20
-7.70333e-21
-8.99509e-21
-7.29314e-21
-4.71237e-21
-4.37778e-21
-4.52914e-21
-9.13554e-21
-6.07815e-21
-7.79477e-21
-9.62934e-21
-3.21527e-21
-1.79233e-21
-1.93644e-21
-2.7086e-21
-3.10974e-21
-1.46712e-21
-1.06388e-21
-2.65224e-21
-3.58571e-21
-2.10669e-21
-4.44035e-21
-3.17242e-21
-6.66828e-22
-1.87905e-21
-1.26774e-21
1.23735e-21
-1.37743e-20
-1.49219e-20
-1.85237e-20
-1.54092e-20
-1.60278e-20
-1.53799e-20
-1.70889e-20
-1.79874e-20
-1.31449e-20
-1.04775e-20
-1.39747e-20
-1.27148e-20
-1.27762e-20
-1.01208e-20
-1.11209e-20
-1.11067e-20
-6.46106e-21
-6.41328e-21
-3.75478e-21
-4.23571e-21
-8.23434e-21
-8.54576e-21
-8.00149e-21
-4.7571e-21
-1.68266e-21
-3.71898e-21
-4.4017e-21
-2.10073e-21
-2.3002e-21
-1.19252e-21
-1.97321e-21
-1.31537e-21
-3.37208e-21
-3.27263e-21
-6.42844e-21
-4.07253e-21
8.94645e-22
2.85257e-22
-1.67948e-21
2.00202e-22
-1.47305e-20
-1.38607e-20
-1.70998e-20
-1.30843e-20
-1.34022e-20
-1.58588e-20
-1.88224e-20
-1.87681e-20
-1.41039e-20
-1.26692e-20
-1.14088e-20
-1.49453e-20
-7.73087e-21
-1.10239e-20
-1.31548e-20
-9.86955e-21
-7.81697e-21
-6.189e-21
-6.4092e-21
-3.36141e-21
-9.71915e-21
-7.1091e-21
-7.89553e-21
-4.09365e-21
-2.47947e-21
-9.89608e-22
-3.70542e-21
-6.09438e-21
-1.77209e-21
-2.89977e-21
7.55025e-22
-4.49511e-21
-3.51362e-21
-1.57891e-21
-2.55771e-21
-3.15337e-21
-1.57456e-21
-1.7223e-21
-6.72632e-22
-1.0395e-21
-1.08302e-20
-1.49866e-20
-1.9079e-20
-1.33546e-20
-1.14429e-20
-1.71678e-20
-1.64147e-20
-1.60861e-20
-1.5018e-20
-1.27332e-20
-1.35309e-20
-1.42746e-20
-9.517e-21
-8.99196e-21
-1.58499e-20
-1.02765e-20
-7.88742e-21
-1.0714e-21
-4.59524e-21
-6.22655e-21
-1.35356e-20
-6.87258e-21
-3.31397e-21
-3.55686e-21
-7.76162e-22
-5.75789e-21
-4.83845e-21
-3.73191e-21
-3.89117e-21
-2.71507e-21
-1.82082e-21
-1.07298e-21
-2.51241e-21
-9.74073e-22
-1.06717e-21
-3.27743e-21
-1.80346e-21
-2.6531e-21
2.81717e-22
1.63882e-22
-9.5498e-21
-1.15613e-20
-1.54202e-20
-1.50035e-20
-1.40007e-20
-1.52898e-20
-1.60391e-20
-1.48439e-20
-1.49719e-20
-1.33657e-20
-1.41802e-20
-1.30663e-20
-1.02929e-20
-7.27453e-21
-1.31735e-20
-1.01805e-20
-9.56431e-21
-8.45601e-21
-1.0087e-20
-8.59593e-21
-9.53781e-21
-9.71132e-22
-3.80422e-21
-4.32964e-21
-1.83286e-21
-3.29818e-21
-4.50652e-21
-2.5204e-21
-2.89014e-21
-2.53614e-21
-5.75912e-21
-7.83212e-22
-1.0765e-21
-1.73328e-21
-6.81895e-22
-1.74334e-22
-1.07367e-21
-1.76278e-21
-2.19869e-21
-2.41919e-21
-9.31326e-21
-1.17484e-20
-1.77453e-20
-1.60601e-20
-1.39314e-20
-1.26684e-20
-1.26719e-20
-1.60233e-20
-1.85509e-20
-1.53798e-20
-1.14563e-20
-1.12025e-20
-1.13096e-20
-1.06478e-20
-1.23164e-20
-1.05033e-20
-7.67539e-21
-6.72697e-21
-1.21627e-20
-7.58681e-21
-8.07932e-21
-5.96016e-21
-3.50269e-21
-4.332e-21
-9.00282e-22
-5.33701e-22
-9.09247e-21
-6.19489e-21
-4.23935e-21
-5.33092e-22
-1.69297e-21
-8.13808e-22
-1.23115e-21
-2.00568e-21
-2.10302e-21
-2.3636e-22
-2.33421e-21
-1.69882e-21
-2.78466e-21
-1.90934e-21
-1.17552e-20
-1.45539e-20
-1.61865e-20
-1.41287e-20
-1.13345e-20
-1.34214e-20
-1.32126e-20
-1.32001e-20
-1.55321e-20
-1.53504e-20
-1.55817e-20
-1.3543e-20
-9.66032e-21
-1.37697e-20
-1.21407e-20
-6.37228e-21
-8.97123e-21
-6.08755e-21
-7.90973e-21
-8.29449e-21
-7.63384e-21
-4.91751e-21
-2.6581e-21
-5.81276e-21
-5.82614e-21
-1.67014e-21
-4.68287e-21
-4.26263e-21
-3.22996e-21
-1.60253e-21
-3.31579e-21
-1.48415e-21
-3.31582e-21
9.7072e-22
-1.91204e-21
-2.48802e-21
-2.08217e-21
-2.03351e-21
-1.10312e-21
-2.28368e-21
-1.76538e-20
-1.62346e-20
-1.48058e-20
-1.40822e-20
-1.42529e-20
-1.40328e-20
-1.41568e-20
-1.08969e-20
-1.36575e-20
-1.47234e-20
-1.50561e-20
-1.53878e-20
-1.17509e-20
-1.4548e-20
-1.04256e-20
-7.60532e-21
-7.0052e-21
-5.76891e-21
-8.15717e-21
-9.24865e-21
-7.74501e-21
-2.34086e-21
-3.51591e-21
-4.49921e-21
-4.47387e-21
-2.96292e-21
-5.10448e-21
-6.89668e-21
-3.52684e-21
-7.39224e-22
-3.01613e-21
-1.55409e-22
-2.42407e-22
-1.21059e-21
-3.88864e-21
-6.07795e-21
-1.33449e-21
-2.48273e-21
-1.63144e-22
7.75635e-22
-1.8098e-20
-1.95637e-20
-1.42415e-20
-1.42458e-20
-1.50984e-20
-1.66443e-20
-1.31682e-20
-1.05933e-20
-1.57315e-20
-1.1401e-20
-1.404e-20
-1.58606e-20
-1.2296e-20
-9.11629e-21
-8.29155e-21
-7.86938e-21
-6.87615e-21
-3.18792e-21
-4.70608e-21
-9.60599e-21
-9.70938e-21
-4.77674e-21
-6.67939e-21
-5.6082e-21
-4.65624e-21
-4.5961e-21
-4.12413e-21
-4.09635e-21
-2.99783e-21
-1.71673e-21
-2.88716e-21
-1.67768e-21
4.64582e-23
-3.47581e-22
-7.49625e-21
-5.25595e-21
-2.1092e-21
-7.22929e-22
-9.28317e-22
-7.49902e-23
-1.46275e-20
-1.55038e-20
-1.80677e-20
-1.36272e-20
-1.41709e-20
-1.58362e-20
-1.48275e-20
-1.47884e-20
-1.15842e-20
-1.24995e-20
-1.51288e-20
-1.55227e-20
-8.10392e-21
-1.25618e-20
-1.36408e-20
-7.56312e-21
-2.65944e-21
-3.28336e-21
-6.08135e-21
-6.10428e-21
-7.5648e-21
-7.58918e-21
-9.28438e-21
-6.86083e-21
-5.17566e-21
-1.77384e-21
-4.42176e-21
-6.40234e-21
-2.12277e-22
-2.04969e-21
-5.26192e-21
-3.38157e-21
-3.11396e-22
-3.57598e-21
-7.36531e-21
-5.03624e-21
-3.16499e-21
-5.98278e-22
-6.58796e-22
-1.40927e-21
-1.07953e-20
-1.36689e-20
-1.69328e-20
-1.57647e-20
-1.282e-20
-1.59993e-20
-1.44715e-20
-1.36608e-20
-1.0222e-20
-1.39503e-20
-1.72409e-20
-1.34839e-20
-7.33593e-21
-9.94742e-21
-1.11678e-20
-6.43623e-21
-5.31516e-21
-8.45544e-21
-5.00076e-21
-4.47722e-21
-6.75054e-21
-7.38101e-21
-5.41775e-21
-6.32584e-21
-9.50703e-21
-4.18889e-21
-2.76061e-21
-3.21125e-21
-3.21614e-21
-2.98788e-21
-3.0811e-21
-4.06853e-21
-2.30444e-21
-2.70749e-21
-8.17064e-21
-5.25306e-21
-3.19085e-21
-1.60083e-21
-4.58875e-22
-1.21727e-21
-1.53854e-20
-1.72573e-20
-1.53203e-20
-1.3424e-20
-1.11991e-20
-1.40034e-20
-1.45669e-20
-1.66523e-20
-8.62861e-21
-1.14015e-20
-1.88899e-20
-1.54834e-20
-9.82491e-21
-1.01269e-20
-5.55312e-21
-7.40242e-21
-7.73565e-21
-4.42285e-21
-1.52376e-21
-6.0371e-21
-5.80081e-21
-7.96241e-21
-8.64895e-21
-1.03426e-20
-8.10681e-21
-6.26612e-21
-2.99023e-21
-5.00689e-21
-4.34485e-21
-1.04807e-21
-2.16829e-21
-2.99154e-21
-3.26115e-21
-2.79275e-21
-4.57934e-21
-5.95668e-21
-4.14748e-21
-2.03559e-21
-2.84425e-22
-1.46165e-22
-9.72914e-21
-1.33943e-20
-1.55015e-20
-1.94353e-20
-1.30148e-20
-1.47475e-20
-1.43731e-20
-1.11237e-20
-9.44768e-21
-1.21729e-20
-1.73897e-20
-1.41648e-20
-9.40869e-21
-9.51598e-21
-5.68651e-21
-1.0467e-20
-7.20138e-21
-4.97862e-21
-7.06239e-22
-4.21662e-21
-4.01783e-21
-9.46131e-21
-7.94206e-21
-8.0367e-21
-9.03925e-21
-6.26555e-21
-1.87127e-21
-1.53176e-21
-6.64788e-21
-2.619e-21
4.73937e-22
-2.65757e-21
-3.66255e-21
-3.13181e-21
-9.48808e-21
-2.91842e-21
-4.14562e-21
-3.36575e-21
-1.34525e-21
-2.35764e-21
-1.01401e-20
-1.44625e-20
-1.50941e-20
-1.63499e-20
-1.34543e-20
-1.41654e-20
-1.33272e-20
-1.20051e-20
-1.19681e-20
-1.23365e-20
-1.67935e-20
-8.18502e-21
-9.78541e-21
-1.22454e-20
-6.36013e-21
-6.92585e-21
-7.82524e-21
-5.26678e-21
-4.80284e-21
-5.10199e-21
-6.29722e-21
-3.46463e-21
-7.85428e-21
-8.58207e-21
-6.6282e-21
-4.99524e-21
-3.66983e-21
-3.08808e-21
-4.62731e-21
-3.26505e-21
-2.11479e-21
-2.90603e-21
-5.27336e-21
-6.70093e-21
-6.12082e-21
-4.29594e-21
-3.89773e-21
-1.90387e-21
-2.6954e-21
-3.00411e-21
-1.35945e-20
-1.90592e-20
-1.54922e-20
-1.05381e-20
-1.78802e-20
-1.54458e-20
-1.30914e-20
-1.1574e-20
-1.2344e-20
-1.30986e-20
-1.32933e-20
-7.52665e-21
-9.19794e-21
-1.25931e-20
-9.31037e-21
-8.97287e-21
-8.34144e-21
-1.14185e-21
-4.84672e-21
-4.44711e-21
-7.55569e-21
-5.94524e-21
-5.90889e-21
-6.14395e-21
-7.11106e-21
-3.90492e-21
-3.80377e-21
-5.34675e-21
-3.57278e-21
-5.27124e-21
-1.36252e-21
-2.81381e-21
-3.66795e-21
-4.23981e-21
-8.34591e-21
-5.23319e-21
-3.72686e-21
-4.2203e-21
-1.59297e-21
-8.9298e-22
-1.22436e-20
-1.62678e-20
-1.81114e-20
-1.28199e-20
-1.26275e-20
-1.72672e-20
-1.36579e-20
-6.98196e-21
-1.10222e-20
-1.66338e-20
-1.13728e-20
-1.04072e-20
-8.65357e-21
-1.42698e-20
-1.01425e-20
-9.7156e-21
-7.04226e-21
-6.23054e-21
-3.89536e-21
-1.72445e-21
-4.11489e-21
-7.53787e-21
-8.30484e-21
-7.02543e-21
-1.0072e-20
-6.39401e-21
-1.64405e-21
7.83219e-22
-3.211e-21
-2.46681e-21
-3.96815e-21
-4.95234e-21
-5.36974e-21
-2.45497e-21
-4.78317e-21
-7.41538e-21
-4.00038e-21
-1.10408e-21
-9.81596e-22
-1.00736e-21
-1.3718e-20
-1.4099e-20
-1.45481e-20
-1.47098e-20
-1.44689e-20
-1.42628e-20
-1.40942e-20
-1.19114e-20
-1.06531e-20
-1.23045e-20
-1.02793e-20
-9.77688e-21
-1.03479e-20
-1.2774e-20
-1.02458e-20
-9.7181e-21
-5.43826e-21
-6.53028e-21
-3.208e-21
-3.27711e-21
-5.42372e-21
-6.98107e-21
-9.32537e-21
-7.61462e-21
-7.94136e-21
-5.1876e-21
-1.99087e-21
-3.63437e-21
-3.90987e-21
-2.84796e-21
-3.20391e-21
-3.20577e-21
-2.09704e-21
-1.51472e-21
-2.87601e-21
-7.08748e-21
-3.51571e-21
-1.82674e-21
-2.102e-21
-2.52382e-21
-1.69353e-20
-1.58315e-20
-1.22718e-20
-1.29062e-20
-1.61954e-20
-1.53958e-20
-1.28285e-20
-1.16645e-20
-1.2242e-20
-1.01881e-20
-7.9346e-21
-1.07215e-20
-1.29306e-20
-1.30219e-20
-7.41057e-21
-8.62482e-21
-5.0625e-21
-3.78554e-21
-1.63231e-21
-3.90327e-21
-3.46434e-21
-7.02454e-21
-1.39511e-20
-8.53645e-21
-8.13658e-21
-7.16882e-21
-1.41767e-21
-3.77648e-22
-2.27146e-21
-4.81996e-21
-3.89537e-21
-5.36466e-21
1.27554e-21
-1.17882e-21
-5.43961e-21
-3.58874e-21
-2.83615e-21
-6.7693e-23
-1.59651e-21
-3.03292e-21
-1.10393e-20
-1.15596e-20
-1.30394e-20
-1.09403e-20
-1.81373e-20
-1.54817e-20
-1.35659e-20
-1.33948e-20
-1.16861e-20
-1.15103e-20
-1.08045e-20
-7.72511e-21
-1.1928e-20
-9.87215e-21
-6.30182e-21
-8.75704e-21
-7.59553e-21
-5.10931e-21
-2.40652e-21
-3.55589e-22
-3.76385e-21
-5.85062e-21
-1.17508e-20
-1.0059e-20
-9.27421e-21
-7.33866e-21
1.29962e-21
-3.49107e-22
-3.77719e-21
-3.69526e-21
-3.19537e-21
-4.16721e-21
-4.06925e-22
6.83847e-22
-2.42399e-21
-3.99673e-21
-1.4832e-21
-1.97645e-21
-8.34568e-22
-8.67796e-22
-1.22817e-20
-1.28403e-20
-1.31653e-20
-1.40601e-20
-1.52234e-20
-1.07674e-20
-1.29756e-20
-1.17426e-20
-1.08782e-20
-8.17999e-21
-8.83251e-21
-1.34842e-20
-1.08118e-20
-8.24538e-21
-7.43451e-21
-1.03207e-20
-9.55627e-21
-3.46214e-21
-3.42625e-21
-3.61603e-21
-2.70095e-21
-4.51618e-21
-1.0075e-20
-9.84e-21
-7.67319e-21
-6.01236e-21
-2.92952e-21
-2.1872e-21
-1.4078e-21
-3.9046e-21
-3.5702e-21
-2.57383e-21
-1.88914e-21
-4.8559e-22
2.21181e-21
-4.12823e-21
-2.37443e-21
9.01531e-22
-1.44247e-21
-2.55748e-21
-1.40386e-20
-1.14107e-20
-1.03749e-20
-1.01533e-20
-1.35355e-20
-1.48559e-20
-1.37299e-20
-1.44474e-20
-1.18887e-20
-8.75348e-21
-5.33199e-21
-1.18279e-20
-6.45539e-21
-6.40249e-21
-7.72992e-21
-1.00542e-20
-1.11828e-20
-4.50235e-21
-2.57373e-21
-3.64537e-21
-3.39159e-21
-7.1896e-21
-6.58023e-21
-7.2273e-21
-8.22199e-21
-5.70226e-21
-4.68047e-21
-7.35088e-21
-1.56131e-21
-2.98297e-21
-4.52059e-21
-3.74212e-21
-3.94865e-21
-2.81904e-21
1.53378e-21
2.25947e-21
-1.63828e-21
6.6016e-22
1.72239e-21
-3.00126e-22
-8.52382e-21
-1.09315e-20
-1.18263e-20
-8.56225e-21
-8.9087e-21
-1.65222e-20
-1.27559e-20
-1.24319e-20
-1.2254e-20
-1.19629e-20
-1.11428e-20
-5.96567e-21
-8.465e-21
-7.57655e-21
-8.23813e-21
-7.44481e-21
-7.11672e-21
-4.53225e-21
-4.67628e-21
-4.59191e-21
-3.53926e-21
-6.91323e-21
-6.37902e-21
-8.2194e-21
-7.15635e-21
-5.15873e-21
-3.33579e-21
-3.40897e-21
-4.66791e-21
-2.01728e-21
-4.72484e-21
-2.9807e-21
-2.71911e-21
-3.54559e-21
-2.78739e-21
3.46518e-22
1.31883e-21
1.17135e-21
1.54427e-21
-8.21131e-22
-7.07946e-21
-9.89947e-21
-1.12332e-20
-9.26116e-21
-7.47098e-21
-1.46638e-20
-1.40051e-20
-1.031e-20
-9.79524e-21
-9.72471e-21
-9.95819e-21
-9.22696e-21
-1.10476e-20
-5.02882e-21
-7.71858e-21
-7.78518e-21
-5.16894e-21
-3.39707e-22
-2.16538e-21
-7.56246e-21
-3.02354e-21
-8.26022e-21
-9.11178e-21
-6.78518e-21
-6.77756e-21
-6.54079e-21
-6.47657e-21
-8.49129e-22
-3.15713e-21
-2.69408e-21
-5.32301e-21
-2.90162e-21
-4.52961e-21
-2.19515e-21
-1.43038e-21
6.61295e-23
1.57222e-21
-1.50203e-21
-4.96316e-22
-1.85398e-23
-5.27028e-21
-9.49308e-21
-1.215e-20
-7.0839e-21
-7.22191e-21
-1.23833e-20
-1.05866e-20
-9.90669e-21
-9.27878e-21
-9.34421e-21
-6.23127e-21
-9.59259e-21
-1.0526e-20
-9.931e-21
-4.07426e-21
-3.597e-21
-2.81635e-21
-4.12243e-21
-4.5475e-21
-6.3561e-21
-5.13348e-21
-4.49322e-21
-8.42172e-21
-9.56657e-21
-4.15833e-21
-3.27619e-21
-4.92591e-21
-2.82777e-21
-8.43967e-22
-4.04521e-21
-5.08863e-21
-3.3535e-21
-6.0289e-21
-2.07807e-21
-2.5511e-21
-8.1853e-22
2.62873e-21
3.54904e-21
3.0707e-22
-6.51283e-22
-6.93563e-21
-9.66273e-21
-1.12665e-20
-6.10199e-21
-5.50312e-21
-1.41832e-20
-1.09142e-20
-6.29672e-21
-9.5801e-21
-9.41869e-21
-6.39546e-21
-6.63933e-21
-7.37104e-21
-7.40843e-21
-7.11615e-21
-3.57992e-21
-4.17448e-21
-1.99904e-21
-5.26996e-21
-4.89655e-21
-2.69273e-21
-5.47724e-21
-7.17894e-21
-1.13262e-20
-8.45242e-21
-3.30099e-21
-2.4883e-21
-5.55998e-22
-2.40423e-21
-2.7696e-21
-1.99076e-21
-2.99181e-21
-3.54657e-21
-1.24578e-21
-7.12767e-22
-2.34248e-21
-6.06046e-22
1.24849e-22
3.49371e-21
2.26539e-22
-5.54457e-21
-7.42784e-21
-6.70279e-21
-2.88822e-21
-3.8202e-21
-3.22743e-21
-8.40006e-21
-4.80989e-21
-6.73109e-21
-6.20106e-21
-2.41867e-21
-2.47692e-21
-5.80932e-21
-4.45866e-21
-4.21762e-21
-3.20381e-21
-1.36268e-21
2.41697e-23
-5.56198e-21
-1.4728e-21
-4.63329e-21
-7.86481e-21
-5.95542e-21
-4.6192e-21
-4.7333e-21
-2.0815e-21
-1.14162e-21
-8.20397e-22
-7.20546e-22
6.91902e-22
-6.60578e-22
-1.43203e-21
-2.2865e-21
-2.18138e-21
-3.4579e-23
-6.18217e-21
-1.64792e-21
-4.84542e-22
6.16182e-22
9.40558e-22
-5.42871e-21
-9.15872e-21
-1.32101e-20
-9.42949e-21
-9.29521e-21
-1.17126e-20
-7.89412e-21
-4.64824e-21
-1.2103e-20
-1.14205e-20
-4.82858e-21
-9.14328e-21
-9.97922e-21
-5.46425e-21
-6.8563e-21
-9.07621e-21
-5.3405e-21
1.64279e-22
-2.71713e-21
-6.84548e-21
-3.55975e-21
-3.14076e-21
-4.20221e-21
-3.86243e-21
-2.23627e-21
-2.378e-21
-3.39869e-21
-3.04383e-21
-5.83674e-21
-5.84712e-21
-6.8793e-21
-2.10715e-21
2.1257e-22
7.65022e-23
-3.86789e-21
-4.97292e-21
-3.75241e-22
-2.02411e-21
-2.53744e-21
-4.87261e-22
-9.90915e-21
-1.38045e-20
-1.81171e-20
-1.43751e-20
-1.20903e-20
-1.5251e-20
-1.41304e-20
-9.29028e-21
-9.37062e-21
-1.70329e-20
-1.27972e-20
-1.2946e-20
-1.22941e-20
-9.72629e-21
-1.0417e-20
-9.37937e-21
-7.03262e-21
-5.03736e-21
-5.87879e-21
-7.30912e-21
-5.16034e-21
-5.52131e-21
-7.04998e-21
-9.32012e-21
-3.30626e-21
-2.96753e-21
-3.0792e-21
-2.59899e-21
-8.93088e-21
-4.92701e-21
-2.53713e-21
-1.83956e-21
-2.4176e-21
-2.23839e-21
-7.47293e-21
-3.8108e-21
1.06505e-21
2.4794e-21
-5.85058e-23
-3.60334e-23
-1.27301e-20
-1.51761e-20
-1.40738e-20
-1.59298e-20
-1.45225e-20
-1.46331e-20
-1.59683e-20
-1.18944e-20
-1.5003e-20
-1.74956e-20
-1.40537e-20
-1.34064e-20
-1.02025e-20
-6.51417e-21
-1.07017e-20
-9.8153e-21
-9.95741e-21
-8.33147e-21
-1.9088e-21
-7.73979e-21
-5.87377e-21
-3.46594e-21
-4.17101e-21
-6.23576e-21
-6.49494e-21
-4.04469e-21
-5.02773e-21
-4.81686e-21
-4.74167e-21
-5.97756e-21
-8.13575e-21
-3.20274e-21
-9.24554e-22
-2.31214e-21
-5.267e-21
-2.33475e-21
1.05109e-21
-1.80105e-22
-1.06174e-21
1.00241e-21
-1.79571e-20
-1.67205e-20
-1.57926e-20
-1.98578e-20
-1.59992e-20
-1.54689e-20
-1.6091e-20
-1.39748e-20
-1.45656e-20
-1.43106e-20
-1.55476e-20
-1.5888e-20
-1.01074e-20
-9.79361e-21
-1.16003e-20
-8.88016e-21
-8.56719e-21
-7.34515e-21
-5.00431e-21
-4.48929e-21
-7.32356e-21
-6.80252e-21
-6.01912e-21
-6.67588e-21
-5.88237e-21
-5.64348e-21
-4.93307e-21
-3.75386e-21
-4.90546e-21
-6.6158e-21
-6.18744e-21
-1.55914e-21
-4.53944e-21
-3.59073e-21
-3.6479e-21
-1.90852e-21
8.65606e-22
-7.89918e-22
-1.39591e-21
-4.39739e-22
-1.89105e-20
-1.73987e-20
-1.62227e-20
-1.83377e-20
-1.9577e-20
-1.93117e-20
-1.53018e-20
-1.32103e-20
-1.07785e-20
-1.58462e-20
-1.54324e-20
-1.49351e-20
-9.40891e-21
-1.16427e-20
-1.5644e-20
-1.28355e-20
-8.70873e-21
-6.63405e-21
-4.20251e-21
-5.78373e-21
-6.6945e-21
-7.10359e-21
-5.49713e-21
-7.49273e-21
-7.55597e-21
-4.26896e-21
-5.33018e-21
-5.82072e-21
-5.01199e-21
-4.27202e-21
-5.31058e-21
-4.49514e-21
-2.0845e-21
-2.25742e-21
-3.35412e-21
-1.62876e-21
1.17925e-22
-1.06894e-21
-9.26216e-22
-1.48635e-21
-1.69576e-20
-1.95044e-20
-1.64972e-20
-1.66346e-20
-1.91327e-20
-2.05208e-20
-1.4063e-20
-1.6804e-20
-1.71906e-20
-1.54979e-20
-1.40201e-20
-1.46613e-20
-1.29302e-20
-1.134e-20
-1.46634e-20
-1.16794e-20
-1.03853e-20
-6.43044e-21
-4.70807e-21
-4.63943e-21
-6.61595e-21
-8.39639e-21
-7.2748e-21
-7.19584e-21
-7.29794e-21
-5.21418e-21
-5.31242e-21
-4.38602e-21
-6.27721e-21
-6.07582e-21
-5.88065e-21
-3.42271e-21
2.22721e-22
-3.43367e-21
-4.13429e-21
-1.97982e-21
-1.07901e-21
4.8755e-22
1.23559e-21
-2.07177e-21
-1.93039e-20
-2.24341e-20
-1.82216e-20
-1.82651e-20
-1.98923e-20
-1.79063e-20
-1.71934e-20
-1.69216e-20
-1.79163e-20
-1.65604e-20
-1.58591e-20
-1.42518e-20
-1.07818e-20
-1.19886e-20
-1.57251e-20
-1.09141e-20
-6.99801e-21
-4.42592e-21
-7.17928e-21
-5.32616e-21
-6.09263e-21
-7.03625e-21
-8.48203e-21
-1.00768e-20
-7.52132e-21
-5.93143e-21
-6.33008e-21
-4.56654e-21
-4.65238e-21
-2.8967e-21
-5.77775e-21
-5.94476e-21
1.34034e-21
-4.61906e-22
-3.95571e-21
-3.39265e-21
-1.61289e-21
-1.21621e-21
-1.69139e-21
-2.8605e-21
-1.87236e-20
-2.03473e-20
-1.84486e-20
-2.0178e-20
-2.11568e-20
-1.55718e-20
-1.7908e-20
-1.90556e-20
-1.90826e-20
-1.89477e-20
-1.59327e-20
-1.41541e-20
-1.08136e-20
-1.20642e-20
-1.37213e-20
-1.14955e-20
-7.42496e-21
-6.04492e-21
-6.12042e-21
-3.38873e-21
-4.61701e-21
-1.06184e-20
-9.14578e-21
-7.57185e-21
-1.04655e-20
-6.79032e-21
-5.73619e-21
-6.90349e-21
-3.11841e-21
-4.15164e-21
-7.79609e-21
-3.52696e-21
-2.62376e-21
-2.43737e-21
-2.86643e-21
-1.70028e-21
5.56228e-22
8.831e-22
-2.84877e-21
-3.4019e-22
-2.05671e-20
-2.35638e-20
-2.10343e-20
-2.09337e-20
-1.97409e-20
-1.85962e-20
-1.85704e-20
-1.87247e-20
-1.91504e-20
-1.83395e-20
-1.52229e-20
-1.54585e-20
-1.13526e-20
-1.20689e-20
-1.3266e-20
-1.11159e-20
-1.01232e-20
-5.01103e-21
-5.63707e-21
-6.22531e-21
-3.44202e-21
-9.2251e-21
-1.07271e-20
-1.18645e-20
-8.72732e-21
-5.35984e-21
-5.65443e-21
-5.91703e-21
-8.5721e-22
-8.36394e-21
-6.27324e-21
-3.85906e-21
-1.969e-21
-1.4652e-21
-2.0913e-21
-6.43076e-22
-1.80131e-22
-4.09573e-22
-5.16042e-22
-1.11805e-21
-2.11429e-20
-2.15756e-20
-1.94638e-20
-2.23562e-20
-2.28689e-20
-2.12803e-20
-2.19224e-20
-1.91569e-20
-1.57282e-20
-1.71197e-20
-1.71777e-20
-1.34382e-20
-1.27371e-20
-1.34629e-20
-1.39483e-20
-1.1769e-20
-9.10789e-21
-5.23011e-21
-2.99067e-21
-3.56033e-21
-8.45665e-21
-1.09481e-20
-1.12833e-20
-1.20837e-20
-7.6854e-21
-5.31161e-21
-5.03097e-21
-3.82492e-21
-5.19817e-21
-7.17953e-21
-3.01096e-21
-2.77866e-21
-3.96666e-21
-2.23132e-21
-3.22562e-21
-7.30115e-22
1.60819e-21
-4.43035e-22
-9.6137e-22
-3.81747e-22
-2.23979e-20
-2.51e-20
-2.24991e-20
-2.16179e-20
-2.19635e-20
-2.07507e-20
-2.19921e-20
-2.25477e-20
-1.92557e-20
-1.78746e-20
-1.36282e-20
-1.03435e-20
-1.19505e-20
-1.09026e-20
-1.42427e-20
-1.43237e-20
-1.02283e-20
-5.46587e-21
-3.5082e-21
-5.74412e-21
-1.00188e-20
-1.01371e-20
-1.1902e-20
-1.30335e-20
-6.47873e-21
-4.56047e-21
-4.26899e-21
-5.53269e-21
-5.16485e-21
-5.3849e-21
-3.60496e-21
-2.60655e-21
-3.5002e-21
-2.93612e-21
-3.41831e-21
-1.70194e-21
-4.15016e-22
-7.45454e-22
-1.82799e-21
-2.43194e-21
-2.34925e-20
-2.6076e-20
-2.22953e-20
-2.12723e-20
-2.02539e-20
-2.2557e-20
-2.17956e-20
-2.12455e-20
-1.75545e-20
-1.95873e-20
-1.54207e-20
-1.2725e-20
-1.25353e-20
-1.2061e-20
-1.47062e-20
-1.62449e-20
-9.46043e-21
-5.20863e-21
-1.68264e-21
-5.52228e-21
-1.0373e-20
-1.20533e-20
-1.09999e-20
-1.21203e-20
-3.38208e-21
-5.87558e-21
-5.22459e-21
-4.78099e-21
-2.39309e-21
-5.3176e-21
-4.05762e-21
-3.27559e-21
-3.06355e-21
-3.13708e-21
-2.9197e-21
-2.60625e-21
-3.88567e-22
-1.39353e-21
-1.87023e-21
-2.21879e-22
-2.47554e-20
-2.44462e-20
-2.20859e-20
-2.41337e-20
-2.16218e-20
-2.36767e-20
-2.0921e-20
-2.00654e-20
-2.00603e-20
-1.77527e-20
-1.34705e-20
-1.44261e-20
-1.45402e-20
-1.36172e-20
-1.37531e-20
-1.22033e-20
-7.68915e-21
-6.8004e-21
-6.22416e-21
-6.73394e-21
-8.75299e-21
-8.62418e-21
-1.11885e-20
-1.05834e-20
-5.80095e-21
-3.12553e-21
-5.07223e-21
-3.85275e-21
-3.63028e-21
-2.67729e-21
-4.17173e-21
-4.46635e-21
-2.99532e-21
-2.23414e-21
-7.69261e-21
-6.80138e-22
8.90554e-22
-4.33204e-21
-3.12158e-21
-3.01502e-22
-2.64506e-20
-2.64721e-20
-2.33337e-20
-2.41027e-20
-2.22552e-20
-2.0973e-20
-2.13932e-20
-1.96086e-20
-1.98715e-20
-1.97516e-20
-1.5313e-20
-1.29925e-20
-1.78246e-20
-1.2093e-20
-1.33692e-20
-1.23676e-20
-1.25255e-20
-7.33234e-21
-4.6007e-21
-3.94596e-21
-9.73421e-21
-1.02844e-20
-1.0291e-20
-1.08795e-20
-4.95985e-21
-2.34592e-21
-3.47519e-21
-3.38282e-21
-4.56967e-21
-3.68427e-21
-5.17136e-21
-4.17842e-21
-2.72149e-21
-3.68849e-21
-5.92053e-21
-1.64483e-21
-7.2301e-22
1.80779e-21
-4.57251e-22
3.01453e-22
-2.87009e-20
-2.58348e-20
-2.20871e-20
-2.07306e-20
-2.18069e-20
-2.01393e-20
-2.20196e-20
-1.99414e-20
-2.02793e-20
-1.66663e-20
-1.56378e-20
-1.75448e-20
-1.7794e-20
-1.44186e-20
-1.34075e-20
-1.10651e-20
-9.4069e-21
-7.98547e-21
-8.58674e-21
-8.08239e-21
-7.342e-21
-9.76583e-21
-1.12269e-20
-8.59518e-21
-5.27313e-21
-4.66252e-21
-3.22993e-21
-3.15751e-21
-4.20551e-21
-3.37401e-21
-5.704e-21
-4.46851e-21
-3.5473e-21
-8.29597e-22
-4.77517e-21
-3.31573e-21
2.45647e-21
-2.66214e-22
-1.00704e-21
-4.26935e-23
-2.44511e-20
-2.6202e-20
-2.40728e-20
-2.33958e-20
-2.183e-20
-2.07615e-20
-2.10957e-20
-2.0026e-20
-1.90248e-20
-1.58468e-20
-1.77493e-20
-1.93123e-20
-1.94984e-20
-1.44291e-20
-1.36167e-20
-1.29589e-20
-8.41111e-21
-8.84542e-21
-9.07203e-21
-5.99173e-21
-9.24322e-21
-1.11522e-20
-1.09676e-20
-6.94312e-21
-5.55531e-21
-4.48966e-21
-3.29648e-21
-3.3043e-21
-5.04185e-21
-3.26956e-21
-3.62844e-21
-3.30217e-21
-2.6242e-21
-2.00079e-21
-3.80001e-21
-1.56544e-21
6.01435e-22
-2.11435e-21
-1.50201e-21
-8.02226e-22
-2.25627e-20
-2.30112e-20
-2.48265e-20
-2.19655e-20
-2.46573e-20
-2.3092e-20
-2.17023e-20
-2.18525e-20
-1.93498e-20
-1.50711e-20
-1.68415e-20
-1.89349e-20
-1.79189e-20
-1.58844e-20
-1.44321e-20
-1.06023e-20
-7.87794e-21
-7.34169e-21
-1.13771e-20
-9.96101e-21
-1.11671e-20
-7.2158e-21
-6.9679e-21
-5.99282e-21
-5.0337e-21
-4.33077e-21
-3.2207e-21
-4.22829e-21
-5.22834e-21