/*--------------------------------*- C++ -*----------------------------------*\
| =========                 |                                                 |
| \\      /  F ield         | OpenFOAM: The Open Source CFD Toolbox           |
|  \\    /   O peration     | Version:  v2012                                 |
|   \\  /    A nd           | Website:  www.openfoam.com                      |
|    \\/     M anipulation  |                                                 |
\*---------------------------------------------------------------------------*/
FoamFile
{
    version     2.0;
    format      ascii;
    class       surfaceScalarField;
    location    "36";
    object      phi;
}
// * * * * * * * * * * * * * * * * * * * * * * * * * * * * * * * * * * * * * //

dimensions      [0 3 -1 0 0 0 0];
oriented        oriented;


internalField   nonuniform List<scalar> 
187200
(
1.875e-06
2.19152e-22
1.65064e-22
1.875e-06
3.79063e-22
2.88361e-22
1.875e-06
4.2776e-22
4.76844e-22
1.875e-06
3.19671e-22
3.61765e-22
1.875e-06
3.46552e-22
2.7728e-22
1.875e-06
4.67939e-22
4.22784e-22
1.875e-06
3.98648e-22
3.33141e-22
1.875e-06
2.97826e-22
2.81009e-22
1.875e-06
2.30787e-22
4.08363e-22
1.875e-06
3.60339e-22
3.82238e-22
1.875e-06
4.3841e-22
2.45989e-22
1.875e-06
3.48633e-22
3.23801e-22
1.875e-06
2.53448e-22
3.0157e-22
1.875e-06
1.89904e-22
1.64459e-22
1.875e-06
2.07099e-22
2.58603e-22
1.875e-06
1.539e-22
2.70986e-22
1.875e-06
1.92025e-22
2.36006e-22
1.875e-06
8.0013e-23
1.16061e-22
1.875e-06
6.22096e-23
1.13398e-22
1.875e-06
1.43425e-22
1.98378e-22
1.875e-06
6.40696e-23
1.5815e-22
1.875e-06
1.48058e-22
1.52971e-22
1.875e-06
2.08505e-22
1.53359e-22
1.875e-06
2.81427e-22
1.10764e-22
1.875e-06
2.14675e-22
8.7301e-23
1.875e-06
1.6975e-22
6.58185e-23
1.875e-06
1.95832e-22
1.78163e-22
1.875e-06
1.19589e-22
5.63114e-23
1.875e-06
1.24589e-22
1.7245e-22
1.875e-06
5.82955e-23
1.83142e-22
1.875e-06
-5.96977e-23
1.87258e-22
1.875e-06
-2.82184e-25
9.80252e-23
1.875e-06
1.51758e-22
-1.10975e-23
1.875e-06
7.37138e-23
3.18416e-23
1.875e-06
-2.17949e-23
5.62112e-23
1.875e-06
-1.09155e-22
-3.76324e-24
1.875e-06
1.21765e-23
1.08235e-22
1.875e-06
-3.94481e-23
8.91638e-23
1.875e-06
-3.11943e-23
1.49866e-22
-5.68656e-23
1.33317e-22
1.875e-06
8.62916e-23
2.94406e-22
1.875e-06
1.09194e-22
4.84364e-22
1.875e-06
2.6386e-22
7.31457e-22
1.875e-06
3.11228e-22
7.19149e-22
1.875e-06
2.90444e-22
6.06707e-22
1.875e-06
3.21189e-22
6.91848e-22
1.875e-06
3.60999e-22
7.31101e-22
1.875e-06
3.62949e-22
6.77704e-22
1.875e-06
4.45308e-22
7.27566e-22
1.875e-06
3.30171e-22
7.87769e-22
1.875e-06
2.0811e-22
5.92455e-22
1.875e-06
2.03148e-22
5.61007e-22
1.875e-06
2.67868e-22
6.21488e-22
1.875e-06
1.67175e-22
5.67237e-22
1.875e-06
9.8435e-23
5.6709e-22
1.875e-06
4.90753e-23
5.22408e-22
1.875e-06
2.92215e-22
4.67272e-22
1.875e-06
3.23589e-22
5.25243e-22
1.875e-06
1.05707e-22
4.51521e-22
1.875e-06
-3.58856e-23
3.18602e-22
1.875e-06
1.7322e-22
4.15551e-22
1.875e-06
2.02663e-22
3.35045e-22
1.875e-06
1.52494e-22
2.3541e-22
1.875e-06
1.07472e-22
2.11693e-22
1.875e-06
1.17823e-22
1.66247e-22
1.875e-06
1.33589e-22
1.84628e-22
1.875e-06
1.19817e-22
1.81605e-22
1.875e-06
6.31046e-23
1.24079e-22
1.875e-06
-2.30688e-24
3.19665e-22
1.875e-06
5.91432e-23
2.53919e-22
1.875e-06
1.22298e-22
2.22841e-22
1.875e-06
4.16331e-23
1.35948e-22
1.875e-06
-1.67255e-23
-1.50655e-23
1.875e-06
-2.5112e-23
2.58451e-23
1.875e-06
2.81554e-23
2.23083e-22
1.875e-06
4.31387e-23
8.55503e-23
1.875e-06
-1.16954e-22
-5.48391e-24
1.875e-06
-1.2918e-22
4.96932e-24
1.875e-06
-1.11428e-22
5.44321e-23
-8.66168e-23
6.35933e-23
1.875e-06
1.89553e-22
4.22222e-22
1.875e-06
1.57386e-22
6.7011e-22
1.875e-06
1.30725e-22
7.071e-22
1.875e-06
3.29886e-22
8.63954e-22
1.875e-06
2.79747e-22
8.0204e-22
1.875e-06
3.32845e-22
8.30485e-22
1.875e-06
3.06099e-22
9.0351e-22
1.875e-06
3.03939e-22
8.35678e-22
1.875e-06
2.78884e-22
9.06814e-22
1.875e-06
2.69395e-22
9.32874e-22
1.875e-06
2.48728e-22
8.25263e-22
1.875e-06
2.4753e-22
7.32124e-22
1.875e-06
1.9065e-22
6.50132e-22
1.875e-06
1.90319e-22
5.82249e-22
1.875e-06
2.63115e-22
6.97199e-22
1.875e-06
2.27141e-22
7.10892e-22
1.875e-06
1.13486e-22
4.9351e-22
1.875e-06
1.84311e-22
5.77403e-22
1.875e-06
1.48031e-22
4.38736e-22
1.875e-06
6.14349e-23
4.77572e-22
1.875e-06
1.22287e-22
4.23281e-22
1.875e-06
9.44239e-23
2.48783e-22
1.875e-06
1.96384e-22
1.75607e-22
1.875e-06
1.92056e-22
2.15181e-22
1.875e-06
2.52383e-22
3.44632e-22
1.875e-06
5.38871e-23
3.092e-22
1.875e-06
4.82253e-23
2.91147e-22
1.875e-06
-3.48596e-23
2.48596e-22
1.875e-06
4.03904e-23
3.02413e-22
1.875e-06
4.45916e-23
3.15836e-22
1.875e-06
-5.74965e-24
3.48999e-22
1.875e-06
4.52984e-23
1.78435e-22
1.875e-06
-2.15307e-23
2.67287e-23
1.875e-06
-2.84515e-23
6.26851e-23
1.875e-06
-3.78952e-23
1.60299e-22
1.875e-06
-9.98201e-23
-5.71699e-23
1.875e-06
9.24653e-23
6.96445e-24
1.875e-06
4.12853e-23
1.92354e-22
1.875e-06
2.7634e-23
1.40758e-22
-1.44892e-25
5.39798e-23
1.875e-06
2.28301e-22
5.01552e-22
1.875e-06
1.71329e-22
7.87038e-22
1.875e-06
1.46363e-22
8.59882e-22
1.875e-06
1.31227e-22
9.39314e-22
1.875e-06
2.02162e-22
8.94387e-22
1.875e-06
1.9633e-22
8.312e-22
1.875e-06
1.81547e-22
9.02188e-22
1.875e-06
2.29515e-22
9.63231e-22
1.875e-06
1.68438e-22
9.60671e-22
1.875e-06
2.75504e-22
9.29e-22
1.875e-06
2.55429e-22
9.52141e-22
1.875e-06
1.61076e-22
8.35408e-22
1.875e-06
1.47283e-22
6.57572e-22
1.875e-06
1.30821e-22
6.97405e-22
1.875e-06
3.00855e-22
7.27077e-22
1.875e-06
4.72952e-22
6.91695e-22
1.875e-06
1.97243e-22
5.53165e-22
1.875e-06
2.60588e-23
5.83095e-22
1.875e-06
1.66339e-22
5.22392e-22
1.875e-06
2.03149e-22
5.04079e-22
1.875e-06
4.98173e-23
4.23241e-22
1.875e-06
1.31896e-22
3.58592e-22
1.875e-06
1.73647e-22
1.91172e-22
1.875e-06
8.42665e-23
2.2586e-22
1.875e-06
7.08292e-23
2.75733e-22
1.875e-06
1.40658e-22
4.53413e-22
1.875e-06
4.15254e-23
3.38369e-22
1.875e-06
5.46568e-23
2.94125e-22
1.875e-06
6.55593e-23
2.95438e-22
1.875e-06
-6.11312e-23
3.12167e-22
1.875e-06
-1.58685e-23
3.60706e-22
1.875e-06
-1.8579e-23
1.63213e-22
1.875e-06
-2.3203e-23
1.95073e-22
1.875e-06
-4.8907e-23
1.31618e-22
1.875e-06
1.12541e-23
1.29191e-22
1.875e-06
2.87513e-23
-7.29792e-24
1.875e-06
2.14943e-23
-3.35511e-23
1.875e-06
9.64697e-23
1.14661e-22
1.875e-06
-5.88836e-24
6.98635e-23
2.77472e-23
6.0521e-23
1.875e-06
1.2838e-23
3.63516e-22
1.875e-06
1.09467e-22
8.19317e-22
1.875e-06
4.23448e-23
9.04497e-22
1.875e-06
1.0437e-22
9.94164e-22
1.875e-06
1.1883e-22
1.03796e-21
1.875e-06
6.94749e-23
9.80716e-22
1.875e-06
8.7399e-23
9.9078e-22
1.875e-06
3.03312e-22
9.96713e-22
1.875e-06
4.06771e-22
9.85166e-22
1.875e-06
2.44831e-22
9.5274e-22
1.875e-06
2.1616e-22
9.61377e-22
1.875e-06
1.50129e-22
8.91703e-22
1.875e-06
1.97294e-22
7.40707e-22
1.875e-06
1.83587e-22
8.60355e-22
1.875e-06
1.67938e-22
7.98269e-22
1.875e-06
1.87403e-22
5.80474e-22
1.875e-06
1.45736e-22
5.80945e-22
1.875e-06
1.2204e-22
6.49696e-22
1.875e-06
1.23972e-22
4.81252e-22
1.875e-06
1.63869e-22
4.40043e-22
1.875e-06
5.64288e-23
4.27128e-22
1.875e-06
6.37087e-23
3.33092e-22
1.875e-06
1.33156e-22
1.53844e-22
1.875e-06
2.20707e-22
3.1816e-22
1.875e-06
2.17692e-22
4.07167e-22
1.875e-06
7.55257e-23
4.09105e-22
1.875e-06
1.16701e-22
3.40436e-22
1.875e-06
-1.08196e-23
3.17891e-22
1.875e-06
-5.6051e-23
2.62472e-22
1.875e-06
2.17462e-24
2.83861e-22
1.875e-06
7.9471e-23
3.15717e-22
1.875e-06
1.25301e-22
3.07869e-22
1.875e-06
2.05692e-23
1.7223e-22
1.875e-06
-8.7344e-25
1.7741e-22
1.875e-06
-9.45077e-24
8.38274e-23
1.875e-06
-7.95632e-23
-2.95074e-23
1.875e-06
4.1112e-23
4.7304e-24
1.875e-06
3.85806e-23
4.5124e-23
1.875e-06
2.96087e-23
4.53567e-23
-1.99643e-23
3.65638e-23
1.875e-06
3.35281e-23
3.64345e-22
1.875e-06
1.85812e-22
8.59963e-22
1.875e-06
7.68664e-23
1.01801e-21
1.875e-06
3.14076e-23
9.78478e-22
1.875e-06
1.03978e-22
1.11471e-21
1.875e-06
1.40117e-22
1.10388e-21
1.875e-06
1.6882e-22
1.08528e-21
1.875e-06
2.22799e-22
1.07221e-21
1.875e-06
3.11459e-22
1.0331e-21
1.875e-06
2.44764e-22
9.57586e-22
1.875e-06
1.99401e-22
9.53872e-22
1.875e-06
1.98809e-22
9.69317e-22
1.875e-06
1.05504e-22
8.43479e-22
1.875e-06
2.46853e-22
8.66664e-22
1.875e-06
1.79044e-22
8.1382e-22
1.875e-06
9.45423e-23
6.30266e-22
1.875e-06
1.00213e-22
6.59313e-22
1.875e-06
4.19491e-23
5.56322e-22
1.875e-06
7.28428e-23
4.74689e-22
1.875e-06
9.75468e-23
3.92197e-22
1.875e-06
1.85142e-22
4.17681e-22
1.875e-06
2.64485e-22
4.14135e-22
1.875e-06
1.65183e-22
2.46508e-22
1.875e-06
1.80265e-22
2.56079e-22
1.875e-06
6.60556e-23
3.12196e-22
1.875e-06
1.89219e-22
4.21846e-22
1.875e-06
9.49489e-23
3.45002e-22
1.875e-06
-1.71803e-23
3.24622e-22
1.875e-06
-8.23228e-23
2.73203e-22
1.875e-06
-4.05283e-23
3.22509e-22
1.875e-06
9.33651e-23
3.14367e-22
1.875e-06
6.96127e-23
2.05023e-22
1.875e-06
-1.47592e-24
1.13078e-22
1.875e-06
5.03411e-23
1.83801e-22
1.875e-06
1.56644e-23
1.0828e-22
1.875e-06
7.1176e-23
7.12716e-23
1.875e-06
-5.7129e-24
1.65405e-23
1.875e-06
1.17587e-23
-1.49345e-23
1.875e-06
1.48373e-22
-4.92418e-23
1.05279e-22
8.09304e-23
1.875e-06
2.59835e-23
3.94084e-22
1.875e-06
4.97408e-23
8.24625e-22
1.875e-06
1.51266e-22
1.09047e-21
1.875e-06
8.5399e-23
1.12616e-21
1.875e-06
1.29611e-22
1.17637e-21
1.875e-06
1.02574e-22
1.11468e-21
1.875e-06
1.91801e-22
1.18435e-21
1.875e-06
3.60381e-22
1.12075e-21
1.875e-06
2.74119e-22
1.10435e-21
1.875e-06
2.12425e-22
1.05991e-21
1.875e-06
1.36024e-22
1.02672e-21
1.875e-06
9.01848e-23
9.18603e-22
1.875e-06
1.75515e-22
8.46305e-22
1.875e-06
2.16832e-22
8.34742e-22
1.875e-06
1.24872e-22
8.83793e-22
1.875e-06
1.02703e-22
6.60606e-22
1.875e-06
6.34837e-23
5.54452e-22
1.875e-06
1.36901e-22
5.19536e-22
1.875e-06
1.83366e-22
4.94287e-22
1.875e-06
2.73397e-23
3.77797e-22
1.875e-06
1.76229e-23
3.5693e-22
1.875e-06
1.52226e-22
2.76735e-22
1.875e-06
1.16247e-22
2.64649e-22
1.875e-06
4.01627e-23
3.46121e-22
1.875e-06
4.2674e-23
3.49533e-22
1.875e-06
1.21455e-22
3.49939e-22
1.875e-06
7.73418e-23
3.2926e-22
1.875e-06
5.534e-23
3.37069e-22
1.875e-06
2.07714e-23
2.64617e-22
1.875e-06
7.31716e-23
2.39881e-22
1.875e-06
4.73439e-23
2.41315e-22
1.875e-06
2.79447e-23
2.34354e-22
1.875e-06
3.22657e-23
8.33186e-23
1.875e-06
4.96993e-23
1.08786e-22
1.875e-06
1.09201e-22
1.03555e-22
1.875e-06
1.14947e-22
6.86897e-23
1.875e-06
-1.00804e-23
4.53083e-23
1.875e-06
-4.684e-23
-1.79304e-23
1.875e-06
-8.41336e-23
-1.0063e-22
-1.031e-23
2.3815e-23
1.875e-06
1.46638e-22
3.51929e-22
1.875e-06
1.57569e-22
7.92162e-22
1.875e-06
1.00905e-22
1.03465e-21
1.875e-06
1.21916e-22
1.23601e-21
1.875e-06
1.64139e-22
1.28326e-21
1.875e-06
2.95825e-22
1.16421e-21
1.875e-06
2.90796e-22
1.22375e-21
1.875e-06
5.90895e-23
1.12829e-21
1.875e-06
9.94681e-23
1.1375e-21
1.875e-06
2.21785e-22
1.12524e-21
1.875e-06
6.75112e-23
1.04793e-21
1.875e-06
5.74443e-23
9.67336e-22
1.875e-06
1.40536e-22
8.33906e-22
1.875e-06
1.84665e-22
7.89813e-22
1.875e-06
1.85314e-22
8.44266e-22
1.875e-06
1.4136e-22
7.05401e-22
1.875e-06
9.54479e-23
6.1472e-22
1.875e-06
4.21687e-23
5.35338e-22
1.875e-06
6.81995e-23
3.9613e-22
1.875e-06
1.92542e-22
3.31254e-22
1.875e-06
1.22166e-22
4.37786e-22
1.875e-06
-1.3909e-23
3.27744e-22
1.875e-06
1.02512e-22
3.01533e-22
1.875e-06
8.28333e-23
2.856e-22
1.875e-06
4.69094e-23
5.07422e-22
1.875e-06
2.09114e-23
3.67051e-22
1.875e-06
7.28705e-23
3.3904e-22
1.875e-06
1.17403e-22
3.84533e-22
1.875e-06
2.79851e-23
2.14127e-22
1.875e-06
8.7239e-23
2.07e-22
1.875e-06
-1.96233e-23
2.59259e-22
1.875e-06
-6.63357e-23
1.79208e-22
1.875e-06
-2.56158e-23
2.31563e-22
1.875e-06
4.09937e-23
1.19166e-22
1.875e-06
7.92456e-23
1.29069e-24
1.875e-06
-3.88576e-23
-1.62532e-22
1.875e-06
5.18305e-25
-1.40151e-22
1.875e-06
-4.95757e-25
-1.9252e-23
1.875e-06
-5.78049e-24
2.29133e-23
1.48802e-23
-5.67156e-23
1.875e-06
-1.96394e-22
2.72365e-22
1.875e-06
-8.97494e-23
8.02275e-22
1.875e-06
1.51005e-22
1.12491e-21
1.875e-06
1.73356e-22
1.26033e-21
1.875e-06
2.10129e-22
1.22511e-21
1.875e-06
2.2302e-22
1.18214e-21
1.875e-06
2.13964e-22
1.22254e-21
1.875e-06
1.65284e-22
1.23793e-21
1.875e-06
7.99181e-23
1.1964e-21
1.875e-06
6.48763e-23
1.05753e-21
1.875e-06
1.95835e-22
1.10999e-21
1.875e-06
8.09221e-23
1.04193e-21
1.875e-06
3.57608e-23
8.34483e-22
1.875e-06
5.56106e-23
7.44899e-22
1.875e-06
1.84105e-22
7.92604e-22
1.875e-06
1.87919e-22
7.10231e-22
1.875e-06
2.00891e-22
7.26293e-22
1.875e-06
1.36574e-22
5.893e-22
1.875e-06
-9.13088e-23
4.01244e-22
1.875e-06
-3.97991e-23
2.84045e-22
1.875e-06
1.56404e-22
3.86692e-22
1.875e-06
3.4671e-23
3.76721e-22
1.875e-06
6.9089e-23
3.67975e-22
1.875e-06
1.37853e-22
4.97658e-22
1.875e-06
1.76269e-22
5.03536e-22
1.875e-06
2.71729e-24
3.48937e-22
1.875e-06
-1.24313e-22
2.51844e-22
1.875e-06
-8.13114e-23
2.56137e-22
1.875e-06
9.37258e-23
1.68897e-22
1.875e-06
5.77239e-24
2.54884e-22
1.875e-06
-7.25354e-23
2.24739e-22
1.875e-06
-4.11738e-23
2.4628e-22
1.875e-06
7.80589e-23
2.47346e-22
1.875e-06
4.81113e-23
9.58335e-23
1.875e-06
3.99843e-23
-1.70463e-22
1.875e-06
3.1614e-23
-2.47982e-22
1.875e-06
6.05128e-23
-1.63209e-22
1.875e-06
1.87992e-23
-3.53328e-23
1.875e-06
-1.69563e-23
-7.77627e-23
-6.86686e-23
-9.58997e-23
1.875e-06
-1.1254e-23
5.53265e-22
1.875e-06
6.7027e-23
8.74711e-22
1.875e-06
1.47103e-22
1.03226e-21
1.875e-06
2.48752e-22
1.27465e-21
1.875e-06
9.6465e-23
1.32841e-21
1.875e-06
1.16591e-22
1.27371e-21
1.875e-06
2.51687e-22
1.33113e-21
1.875e-06
1.11795e-22
1.28572e-21
1.875e-06
1.25645e-22
1.12282e-21
1.875e-06
1.56531e-22
1.01657e-21
1.875e-06
1.0011e-22
1.03111e-21
1.875e-06
7.59468e-23
9.77194e-22
1.875e-06
4.8141e-23
8.91676e-22
1.875e-06
1.18575e-22
8.61049e-22
1.875e-06
1.12225e-22
8.23298e-22
1.875e-06
2.15876e-22
7.31877e-22
1.875e-06
2.46994e-22
6.53833e-22
1.875e-06
4.7153e-23
5.30692e-22
1.875e-06
-4.47422e-23
5.00177e-22
1.875e-06
-1.79928e-23
3.51448e-22
1.875e-06
1.58123e-22
4.45365e-22
1.875e-06
2.97849e-22
5.12679e-22
1.875e-06
9.79412e-23
3.96433e-22
1.875e-06
4.96627e-23
5.30985e-22
1.875e-06
5.09504e-23
4.28311e-22
1.875e-06
-9.73976e-23
3.62322e-22
1.875e-06
-1.08582e-22
2.98326e-22
1.875e-06
-5.75152e-24
2.60315e-22
1.875e-06
6.27211e-24
2.2329e-22
1.875e-06
6.6901e-23
2.60515e-22
1.875e-06
-4.20191e-23
2.04677e-22
1.875e-06
-6.23468e-23
2.29744e-22
1.875e-06
8.70959e-23
2.09027e-22
1.875e-06
1.38943e-23
5.19601e-23
1.875e-06
-8.25342e-23
-1.77387e-22
1.875e-06
2.10387e-24
-3.08787e-22
1.875e-06
-9.81365e-24
-3.73579e-22
1.875e-06
8.44681e-23
-1.92745e-22
1.875e-06
8.52162e-23
-1.04773e-22
7.82368e-23
-1.05227e-22
1.875e-06
8.23652e-23
6.55749e-22
1.875e-06
1.31981e-22
1.01463e-21
1.875e-06
1.5612e-22
1.08462e-21
1.875e-06
9.52472e-23
1.18903e-21
1.875e-06
1.43292e-22
1.3719e-21
1.875e-06
1.56984e-22
1.29731e-21
1.875e-06
-2.01006e-23
1.24888e-21
1.875e-06
2.05767e-22
1.37239e-21
1.875e-06
6.33072e-23
1.25849e-21
1.875e-06
5.44927e-23
9.68074e-22
1.875e-06
2.13114e-22
9.05187e-22
1.875e-06
1.50796e-22
8.79307e-22
1.875e-06
1.01076e-22
9.26483e-22
1.875e-06
1.04088e-22
7.74785e-22
1.875e-06
1.39779e-22
8.32768e-22
1.875e-06
1.34324e-22
7.65608e-22
1.875e-06
3.78756e-23
6.49806e-22
1.875e-06
1.0808e-22
5.92467e-22
1.875e-06
1.84206e-22
6.24618e-22
1.875e-06
1.10776e-22
5.3974e-22
1.875e-06
7.44918e-23
4.27828e-22
1.875e-06
1.1246e-22
3.81154e-22
1.875e-06
6.36536e-23
4.87218e-22
1.875e-06
-5.51344e-24
4.94712e-22
1.875e-06
-3.74412e-23
3.32803e-22
1.875e-06
-3.21929e-23
3.80082e-22
1.875e-06
-1.31226e-23
3.38007e-22
1.875e-06
3.76006e-25
3.06188e-22
1.875e-06
1.18809e-23
2.43573e-22
1.875e-06
-1.39473e-22
1.89834e-22
1.875e-06
-1.07436e-22
2.79721e-22
1.875e-06
5.4305e-23
2.66892e-22
1.875e-06
2.66059e-23
1.08435e-22
1.875e-06
2.76763e-23
4.57405e-23
1.875e-06
-4.0087e-23
-1.08245e-22
1.875e-06
-5.90898e-23
-3.03443e-22
1.875e-06
-4.84927e-23
-3.13774e-22
1.875e-06
4.38049e-23
-2.45458e-22
1.875e-06
1.09375e-22
-1.42363e-22
1.53321e-22
-1.09371e-22
1.875e-06
1.8915e-22
6.47338e-22
1.875e-06
2.0245e-22
9.93279e-22
1.875e-06
9.33227e-23
1.10831e-21
1.875e-06
1.52531e-22
1.24866e-21
1.875e-06
1.52027e-22
1.32054e-21
1.875e-06
5.84117e-23
1.30116e-21
1.875e-06
1.62044e-22
1.33488e-21
1.875e-06
1.03757e-22
1.21906e-21
1.875e-06
2.22434e-22
1.24209e-21
1.875e-06
6.57669e-23
1.08489e-21
1.875e-06
-1.92241e-23
7.87986e-22
1.875e-06
5.70148e-23
8.74446e-22
1.875e-06
1.78671e-22
1.02459e-21
1.875e-06
1.42136e-22
8.77244e-22
1.875e-06
8.44306e-23
8.36113e-22
1.875e-06
-3.66352e-23
7.18044e-22
1.875e-06
4.59886e-23
6.17545e-22
1.875e-06
1.66737e-22
6.4569e-22
1.875e-06
1.61034e-22
4.88031e-22
1.875e-06
1.74254e-22
5.48082e-22
1.875e-06
1.15144e-22
5.62954e-22
1.875e-06
-2.47197e-23
4.47997e-22
1.875e-06
-5.8143e-24
4.2158e-22
1.875e-06
-4.0142e-23
4.74456e-22
1.875e-06
-1.85221e-22
2.54919e-22
1.875e-06
-8.96003e-23
3.53793e-22
1.875e-06
-1.7604e-24
3.05828e-22
1.875e-06
2.66668e-23
2.78019e-22
1.875e-06
-3.86278e-23
1.7519e-22
1.875e-06
-7.30965e-23
3.00701e-22
1.875e-06
1.34476e-22
3.88213e-22
1.875e-06
2.87443e-23
2.70793e-22
1.875e-06
-1.25859e-22
1.09768e-22
1.875e-06
2.24417e-23
4.68694e-24
1.875e-06
9.56907e-23
-1.0114e-22
1.875e-06
-5.48251e-23
-2.18871e-22
1.875e-06
-6.20618e-23
-2.46309e-22
1.875e-06
9.42141e-24
-2.38928e-22
1.875e-06
-4.59549e-23
-2.34448e-22
-2.82192e-23
-2.84052e-22
1.875e-06
8.58243e-23
5.27282e-22
1.875e-06
9.61014e-23
8.53966e-22
1.875e-06
8.12403e-23
1.12274e-21
1.875e-06
8.95596e-23
1.3031e-21
1.875e-06
-2.76673e-23
1.29883e-21
1.875e-06
-7.05683e-24
1.32029e-21
1.875e-06
7.59113e-23
1.27647e-21
1.875e-06
5.33119e-23
1.19203e-21
1.875e-06
5.52472e-23
1.09718e-21
1.875e-06
9.72005e-23
9.98162e-22
1.875e-06
6.53044e-23
8.60714e-22
1.875e-06
2.05346e-22
9.85371e-22
1.875e-06
2.31409e-22
1.00779e-21
1.875e-06
1.59651e-22
9.2337e-22
1.875e-06
7.64429e-23
8.29312e-22
1.875e-06
3.41798e-23
7.16202e-22
1.875e-06
4.71068e-23
5.73215e-22
1.875e-06
5.18758e-23
6.30261e-22
1.875e-06
1.26158e-22
6.36171e-22
1.875e-06
1.53903e-22
5.62357e-22
1.875e-06
1.142e-22
5.06874e-22
1.875e-06
9.92169e-23
4.20503e-22
1.875e-06
1.18681e-22
5.05767e-22
1.875e-06
-3.5184e-23
4.73417e-22
1.875e-06
-4.71022e-23
4.38337e-22
1.875e-06
-1.60033e-22
3.02302e-22
1.875e-06
-1.73002e-22
2.28808e-22
1.875e-06
-2.73628e-23
1.93675e-22
1.875e-06
-8.39942e-24
2.31547e-22
1.875e-06
-1.47861e-22
2.5472e-22
1.875e-06
-7.52658e-23
2.3823e-22
1.875e-06
6.27199e-23
2.50338e-22
1.875e-06
4.32913e-23
2.18731e-22
1.875e-06
-4.38873e-23
-5.45378e-23
1.875e-06
-1.86519e-23
-9.47833e-23
1.875e-06
-1.52891e-23
-2.55112e-22
1.875e-06
3.42825e-23
-3.12415e-22
1.875e-06
-1.0157e-22
-1.71581e-22
1.875e-06
-1.49502e-22
-1.09842e-22
-1.02684e-22
-2.31471e-22
1.875e-06
-1.61106e-22
5.01057e-22
1.875e-06
-7.22334e-24
9.21358e-22
1.875e-06
1.23448e-22
1.17038e-21
1.875e-06
-7.08049e-24
1.28919e-21
1.875e-06
-3.54602e-23
1.37735e-21
1.875e-06
9.92187e-24
1.30971e-21
1.875e-06
1.35599e-22
1.26283e-21
1.875e-06
2.4866e-22
1.23567e-21
1.875e-06
9.11918e-23
1.1172e-21
1.875e-06
-8.45728e-23
9.87952e-22
1.875e-06
5.50378e-24
9.30956e-22
1.875e-06
2.35837e-22
9.07205e-22
1.875e-06
1.99288e-22
1.00742e-21
1.875e-06
8.73493e-23
8.43482e-22
1.875e-06
1.01404e-23
8.38788e-22
1.875e-06
3.70643e-23
7.76221e-22
1.875e-06
9.48833e-23
7.42114e-22
1.875e-06
1.98145e-22
6.91443e-22
1.875e-06
1.8091e-22
6.08505e-22
1.875e-06
1.14016e-22
4.77139e-22
1.875e-06
1.51128e-22
4.70439e-22
1.875e-06
-3.74042e-23
4.66316e-22
1.875e-06
-9.56515e-23
4.01729e-22
1.875e-06
4.06987e-24
4.93776e-22
1.875e-06
-7.49581e-23
3.80088e-22
1.875e-06
1.02498e-22
3.7351e-22
1.875e-06
6.63232e-23
3.03002e-22
1.875e-06
-9.17208e-23
1.2796e-22
1.875e-06
-1.07977e-22
1.97097e-22
1.875e-06
1.3483e-23
3.46569e-22
1.875e-06
-1.39453e-22
2.98231e-22
1.875e-06
-1.5946e-22
1.79756e-22
1.875e-06
-2.4645e-23
2.05897e-22
1.875e-06
-5.25538e-23
6.30686e-23
1.875e-06
-7.69947e-23
-1.46244e-22
1.875e-06
-8.74087e-24
-2.97381e-22
1.875e-06
-9.42307e-23
-3.74804e-22
1.875e-06
-4.6054e-23
-2.67668e-22
1.875e-06
3.19651e-23
-1.31728e-22
-1.93247e-22
-2.78362e-22
1.875e-06
-5.9832e-23
7.34931e-22
1.875e-06
-1.99817e-22
9.58092e-22
1.875e-06
-5.61073e-23
1.09018e-21
1.875e-06
-2.15348e-23
1.25891e-21
1.875e-06
7.98859e-23
1.39332e-21
1.875e-06
4.98514e-23
1.28296e-21
1.875e-06
-4.1211e-23
1.18015e-21
1.875e-06
-1.46728e-23
1.04608e-21
1.875e-06
-1.80645e-23
1.13509e-21
1.875e-06
8.73026e-24
1.05121e-21
1.875e-06
1.742e-22
1.02533e-21
1.875e-06
8.58423e-23
9.82386e-22
1.875e-06
1.0901e-22
9.97006e-22
1.875e-06
7.45378e-23
9.69358e-22
1.875e-06
1.51868e-22
8.7787e-22
1.875e-06
1.07449e-22
7.19047e-22
1.875e-06
4.83997e-23
6.33099e-22
1.875e-06
1.39388e-22
6.21295e-22
1.875e-06
1.03962e-22
6.31913e-22
1.875e-06
8.83222e-23
5.82548e-22
1.875e-06
9.06229e-23
4.05534e-22
1.875e-06
1.04968e-22
5.56901e-22
1.875e-06
-1.83254e-23
5.051e-22
1.875e-06
-1.86742e-22
4.14242e-22
1.875e-06
-1.18008e-22
4.02685e-22
1.875e-06
2.13389e-23
3.47404e-22
1.875e-06
7.22645e-23
1.84081e-22
1.875e-06
-1.42101e-23
2.2286e-22
1.875e-06
2.02765e-24
2.26037e-22
1.875e-06
-5.19845e-23
2.63099e-22
1.875e-06
-3.93438e-23
3.27444e-22
1.875e-06
-8.86536e-23
2.79082e-22
1.875e-06
-5.15763e-23
1.67335e-22
1.875e-06
-3.1657e-23
-7.74096e-24
1.875e-06
-2.33376e-23
-1.0722e-22
1.875e-06
-6.8518e-23
-2.32934e-22
1.875e-06
-6.50778e-23
-3.59013e-22
1.875e-06
-6.2207e-23
-2.17436e-22
1.875e-06
-6.237e-23
-2.14484e-22
-3.42918e-24
-1.96326e-22
1.875e-06
-4.44813e-23
6.29794e-22
1.875e-06
-1.19395e-22
1.06294e-21
1.875e-06
-1.05692e-22
1.17503e-21
1.875e-06
-1.21572e-22
1.33978e-21
1.875e-06
-9.23966e-23
1.33167e-21
1.875e-06
-3.96215e-23
1.26553e-21
1.875e-06
1.85474e-23
1.20222e-21
1.875e-06
1.92524e-23
1.11547e-21
1.875e-06
6.57104e-23
1.16397e-21
1.875e-06
1.28076e-22
1.0839e-21
1.875e-06
2.73394e-23
1.02291e-21
1.875e-06
1.30142e-22
1.05787e-21
1.875e-06
-8.82458e-23
1.04791e-21
1.875e-06
5.78155e-23
9.81298e-22
1.875e-06
1.32889e-22
8.48921e-22
1.875e-06
7.14928e-23
6.70262e-22
1.875e-06
8.52251e-23
5.96173e-22
1.875e-06
3.92005e-23
5.91826e-22
1.875e-06
1.22314e-22
6.98861e-22
1.875e-06
7.58945e-23
5.31681e-22
1.875e-06
9.45481e-23
4.7606e-22
1.875e-06
3.70111e-23
5.66598e-22
1.875e-06
-2.25052e-23
4.96556e-22
1.875e-06
-1.02357e-22
4.58775e-22
1.875e-06
-4.50014e-23
4.08126e-22
1.875e-06
-1.18198e-22
3.15388e-22
1.875e-06
-4.24971e-24
1.57154e-22
1.875e-06
1.32456e-22
1.93604e-22
1.875e-06
-3.40817e-23
2.20386e-22
1.875e-06
1.96424e-23
2.53363e-22
1.875e-06
-5.13803e-23
2.63449e-22
1.875e-06
4.63652e-23
2.37314e-22
1.875e-06
-5.36028e-23
1.267e-22
1.875e-06
-1.27986e-22
1.34973e-23
1.875e-06
-1.92521e-22
-1.76331e-22
1.875e-06
-1.08977e-22
-2.85474e-22
1.875e-06
7.6559e-24
-2.38297e-22
1.875e-06
6.67282e-24
-9.46922e-24
1.875e-06
-5.50598e-23
-9.35354e-23
2.40467e-23
-1.65614e-22
1.875e-06
-1.40048e-22
5.61677e-22
1.875e-06
-6.74759e-23
1.00951e-21
1.875e-06
-5.01709e-23
1.24309e-21
1.875e-06
-4.294e-23
1.39571e-21
1.875e-06
-7.14862e-23
1.48543e-21
1.875e-06
-7.82786e-24
1.34819e-21
1.875e-06
-1.27307e-22
1.18898e-21
1.875e-06
-1.30627e-22
1.15603e-21
1.875e-06
4.69541e-23
1.14551e-21
1.875e-06
9.17474e-23
1.03204e-21
1.875e-06
1.40939e-22
1.06633e-21
1.875e-06
3.79117e-23
1.0215e-21
1.875e-06
4.88886e-23
1.16183e-21
1.875e-06
-1.43794e-23
1.01823e-21
1.875e-06
1.10694e-22
8.05031e-22
1.875e-06
5.6288e-23
6.56406e-22
1.875e-06
4.62449e-23
5.66926e-22
1.875e-06
-5.87212e-23
5.53125e-22
1.875e-06
2.99701e-23
6.52164e-22
1.875e-06
1.77762e-22
6.54954e-22
1.875e-06
1.41454e-22
5.1698e-22
1.875e-06
-1.67656e-23
4.70636e-22
1.875e-06
-2.10218e-22
3.58732e-22
1.875e-06
-8.50962e-23
4.00349e-22
1.875e-06
-7.21283e-23
4.10528e-22
1.875e-06
9.0222e-23
3.74783e-22
1.875e-06
5.65238e-23
1.78406e-22
1.875e-06
-4.36153e-23
1.18218e-22
1.875e-06
3.43491e-23
2.77932e-22
1.875e-06
3.51103e-23
2.24695e-22
1.875e-06
7.44901e-23
2.26408e-22
1.875e-06
-1.18836e-22
1.27908e-22
1.875e-06
-1.09281e-22
1.27192e-22
1.875e-06
-6.9298e-23
1.27299e-22
1.875e-06
-1.45044e-22
-1.17858e-23
1.875e-06
-1.11128e-22
-2.08933e-22
1.875e-06
-5.42902e-23
-2.50574e-22
1.875e-06
-2.99144e-23
-6.74689e-23
1.875e-06
-2.65981e-23
-1.07659e-22
-8.08911e-23
-2.37598e-22
1.875e-06
-4.61687e-23
6.16055e-22
1.875e-06
-1.41917e-22
1.07154e-21
1.875e-06
-1.32304e-22
1.21211e-21
1.875e-06
-1.48547e-23
1.30058e-21
1.875e-06
3.42732e-25
1.48803e-21
1.875e-06
-1.32573e-22
1.3513e-21
1.875e-06
-9.01213e-23
1.26796e-21
1.875e-06
-8.20426e-23
1.21126e-21
1.875e-06
-1.82723e-23
1.19809e-21
1.875e-06
5.38411e-23
1.1921e-21
1.875e-06
6.25258e-23
1.08518e-21
1.875e-06
1.6436e-23
1.01226e-21
1.875e-06
5.36664e-23
1.07656e-21
1.875e-06
1.48126e-23
1.09027e-21
1.875e-06
-3.67832e-23
8.55102e-22
1.875e-06
2.90543e-23
6.90322e-22
1.875e-06
1.19748e-22
6.32071e-22
1.875e-06
2.08725e-22
6.60768e-22
1.875e-06
2.41467e-22
5.4282e-22
1.875e-06
1.61087e-22
5.16162e-22
1.875e-06
-7.7294e-23
3.56958e-22
1.875e-06
-2.01148e-22
5.11773e-22
1.875e-06
-5.35497e-23
5.10916e-22
1.875e-06
-1.7285e-23
4.49068e-22
1.875e-06
-7.31973e-24
5.04672e-22
1.875e-06
-6.65177e-23
2.97547e-22
1.875e-06
5.9982e-24
1.92049e-22
1.875e-06
-1.33177e-24
2.31332e-22
1.875e-06
-3.57242e-23
1.74357e-22
1.875e-06
2.045e-23
2.01744e-22
1.875e-06
8.55034e-23
1.58814e-22
1.875e-06
-3.46676e-23
1.36627e-22
1.875e-06
-1.12358e-22
1.12178e-22
1.875e-06
-5.77594e-23
7.97118e-23
1.875e-06
-5.79793e-23
5.86342e-23
1.875e-06
-1.44746e-22
-3.88768e-23
1.875e-06
-4.0114e-23
-7.46134e-23
1.875e-06
-2.58819e-23
-5.85407e-23
1.875e-06
-5.06221e-24
-1.88217e-22
1.35527e-22
-1.77931e-22
1.875e-06
2.14338e-23
7.61809e-22
1.875e-06
7.78416e-24
1.11348e-21
1.875e-06
3.55657e-23
1.21462e-21
1.875e-06
-1.29906e-23
1.3346e-21
1.875e-06
-5.86325e-23
1.35213e-21
1.875e-06
-1.40456e-22
1.41775e-21
1.875e-06
-1.71793e-22
1.31721e-21
1.875e-06
-6.7598e-23
1.33474e-21
1.875e-06
5.1094e-23
1.25708e-21
1.875e-06
8.61926e-23
1.17614e-21
1.875e-06
-3.6259e-23
1.07917e-21
1.875e-06
-1.94922e-24
1.05147e-21
1.875e-06
1.04194e-22
1.11957e-21
1.875e-06
1.51459e-22
1.10508e-21
1.875e-06
1.49264e-23
8.6243e-22
1.875e-06
-6.54194e-24
8.06872e-22
1.875e-06
-8.57624e-23
6.45367e-22
1.875e-06
5.14288e-24
5.62683e-22
1.875e-06
1.18395e-22
4.18484e-22
1.875e-06
1.95252e-23
3.90706e-22
1.875e-06
-5.70083e-23
3.61296e-22
1.875e-06
3.97686e-23
6.09539e-22
1.875e-06
-4.5747e-23
5.74698e-22
1.875e-06
-1.73061e-23
5.21986e-22
1.875e-06
-1.1376e-23
4.55777e-22
1.875e-06
-4.37073e-23
3.5202e-22
1.875e-06
1.19465e-22
2.70519e-22
1.875e-06
1.35362e-22
2.91846e-22
1.875e-06
4.49136e-23
1.82116e-22
1.875e-06
-4.57152e-23
1.63191e-22
1.875e-06
-1.22884e-22
3.01901e-23
1.875e-06
-3.61128e-23
6.46548e-24
1.875e-06
-4.22e-23
8.99959e-23
1.875e-06
-5.08218e-24
1.97617e-22
1.875e-06
4.64114e-23
6.96038e-23
1.875e-06
1.33359e-23
2.77541e-24
1.875e-06
-2.06525e-23
-3.11022e-23
1.875e-06
-2.21737e-23
2.36222e-23
1.875e-06
8.79363e-24
-1.44007e-22
-2.98112e-23
-2.38521e-22
1.875e-06
1.08772e-22
8.14117e-22
1.875e-06
1.58786e-22
1.19547e-21
1.875e-06
8.04138e-24
1.08876e-21
1.875e-06
-7.95116e-23
1.15783e-21
1.875e-06
-1.30786e-22
1.33903e-21
1.875e-06
-1.50923e-23
1.40595e-21
1.875e-06
-3.37684e-23
1.35569e-21
1.875e-06
-1.49771e-22
1.29716e-21
1.875e-06
-1.66023e-22
1.17925e-21
1.875e-06
-1.63538e-23
1.30442e-21
1.875e-06
-2.04047e-22
1.14762e-21
1.875e-06
4.53343e-22
1.15844e-21
1.875e-06
4.54312e-23
1.01204e-21
1.875e-06
1.50554e-22
1.06218e-21
1.875e-06
-3.2375e-23
1.01824e-21
1.875e-06
-1.30938e-22
8.02514e-22
1.875e-06
-1.04819e-23
6.06547e-22
1.875e-06
-5.85989e-23
4.82676e-22
1.875e-06
-1.45382e-22
4.98636e-22
1.875e-06
-1.70037e-23
4.572e-22
1.875e-06
-2.61336e-23
3.81761e-22
1.875e-06
-3.24717e-23
4.86317e-22
1.875e-06
-7.42867e-23
6.42555e-22
1.875e-06
1.23804e-23
5.03553e-22
1.875e-06
1.39283e-22
4.25824e-22
1.875e-06
5.52601e-23
4.03906e-22
1.875e-06
-7.74072e-23
2.67133e-22
1.875e-06
-5.33663e-23
2.01866e-22
1.875e-06
-1.7582e-22
1.2287e-22
1.875e-06
2.17054e-22
1.05958e-22
1.875e-06
4.89877e-23
2.11002e-22
1.875e-06
1.05124e-23
5.89803e-23
1.875e-06
1.29348e-22
9.81173e-23
1.875e-06
-1.64564e-22
1.20136e-22
1.875e-06
-1.88904e-24
4.98315e-23
1.875e-06
1.3491e-22
8.38443e-23
1.875e-06
-5.96619e-23
-4.21545e-24
1.875e-06
3.7509e-23
-1.18913e-22
1.875e-06
-6.78391e-23
-3.27225e-22
-7.24692e-23
-2.31158e-22
1.875e-06
2.05346e-22
7.26663e-22
1.875e-06
1.27498e-22
1.02174e-21
1.875e-06
1.90571e-24
1.04475e-21
1.875e-06
-8.06921e-24
1.24017e-21
1.875e-06
9.49084e-23
1.43295e-21
1.875e-06
3.85782e-23
1.30951e-21
1.875e-06
2.7056e-25
1.33254e-21
1.875e-06
-1.38764e-22
1.28395e-21
1.875e-06
-1.47283e-22
1.23076e-21
1.875e-06
-7.20337e-23
1.34427e-21
1.875e-06
1.80266e-23
1.17948e-21
1.875e-06
7.71798e-23
1.16642e-21
1.875e-06
2.97704e-23
1.09331e-21
1.875e-06
-1.35255e-23
9.40209e-22
1.875e-06
-6.55176e-23
9.52597e-22
1.875e-06
-1.36005e-23
8.68727e-22
1.875e-06
-1.00947e-22
6.01724e-22
1.875e-06
-7.09414e-23
5.44517e-22
1.875e-06
-9.77512e-23
6.49575e-22
1.875e-06
-5.81546e-23
5.21993e-22
1.875e-06
-1.52817e-23
4.12655e-22
1.875e-06
-9.20652e-23
4.48564e-22
1.875e-06
7.89677e-24
5.76076e-22
1.875e-06
-2.92576e-23
4.0798e-22
1.875e-06
1.83134e-23
3.56003e-22
1.875e-06
8.7905e-23
4.65002e-22
1.875e-06
2.03195e-23
3.11363e-22
1.875e-06
7.36786e-23
1.95794e-22
1.875e-06
5.83747e-23
1.20012e-22
1.875e-06
-2.05264e-23
1.04629e-22
1.875e-06
-5.11762e-24
1.40089e-22
1.875e-06
-1.51276e-23
6.54459e-23
1.875e-06
-6.95738e-23
-3.02129e-23
1.875e-06
6.31693e-23
1.67267e-22
1.875e-06
1.20232e-22
1.60885e-22
1.875e-06
1.50106e-22
1.53015e-23
1.875e-06
7.55189e-23
-5.32224e-23
1.875e-06
2.88808e-23
-2.67491e-22
1.875e-06
-4.30246e-23
-3.12931e-22
-1.46492e-22
-1.50293e-22
1.875e-06
7.42424e-23
5.55709e-22
1.875e-06
1.33733e-22
9.51565e-22
1.875e-06
1.44217e-23
1.12148e-21
1.875e-06
2.51175e-23
1.20335e-21
1.875e-06
4.92318e-23
1.2797e-21
1.875e-06
9.85493e-23
1.34316e-21
1.875e-06
1.39823e-23
1.3356e-21
1.875e-06
-7.04255e-24
1.34068e-21
1.875e-06
-3.19078e-23
1.2899e-21
1.875e-06
-1.74076e-22
1.42933e-21
1.875e-06
-1.06016e-22
1.2185e-21
1.875e-06
-3.84814e-23
1.04026e-21
1.875e-06
-6.86298e-24
1.13755e-21
1.875e-06
-2.41957e-22
8.97706e-22
1.875e-06
-1.7256e-22
9.58654e-22
1.875e-06
-8.4219e-23
8.55829e-22
1.875e-06
-5.31657e-23
7.5111e-22