/*--------------------------------*- C++ -*----------------------------------*\
| =========                 |                                                 |
| \\      /  F ield         | OpenFOAM: The Open Source CFD Toolbox           |
|  \\    /   O peration     | Version:  v2012                                 |
|   \\  /    A nd           | Website:  www.openfoam.com                      |
|    \\/     M anipulation  |                                                 |
\*---------------------------------------------------------------------------*/
FoamFile
{
    version     2.0;
    format      ascii;
    class       volVectorField;
    location    "36";
    object      U;
}
// * * * * * * * * * * * * * * * * * * * * * * * * * * * * * * * * * * * * * //

dimensions      [0 1 -1 0 0 0 0];


internalField   nonuniform List<vector> 
64000
(
(0.003 2.81052e-19 2.54395e-19)
(0.003 5.15874e-19 4.33161e-19)
(0.003 5.17463e-19 5.32577e-19)
(0.003 4.72399e-19 5.67595e-19)
(0.003 6.01024e-19 5.89477e-19)
(0.003 5.95068e-19 5.27866e-19)
(0.003 5.43175e-19 4.8255e-19)
(0.003 3.79581e-19 4.43649e-19)
(0.003 3.58117e-19 5.45752e-19)
(0.003 5.581e-19 4.96579e-19)
(0.003 5.88617e-19 3.56533e-19)
(0.003 5.4407e-19 5.19011e-19)
(0.003 4.66552e-19 4.90859e-19)
(0.003 4.3271e-19 3.7312e-19)
(0.003 3.52198e-19 4.23473e-19)
(0.003 2.90697e-19 4.34396e-19)
(0.003 2.30492e-19 3.04388e-19)
(0.003 9.09997e-20 1.46679e-19)
(0.003 8.96571e-20 1.35367e-19)
(0.003 2.06445e-19 2.69518e-19)
(0.003 1.08778e-19 2.17493e-19)
(0.003 1.94432e-19 2.10756e-19)
(0.003 3.08569e-19 2.28885e-19)
(0.003 3.71492e-19 1.56836e-19)
(0.003 3.45451e-19 1.54504e-19)
(0.003 2.2078e-19 1.57018e-19)
(0.003 1.57148e-19 1.87568e-19)
(0.003 2.56687e-19 2.14058e-19)
(0.003 2.55948e-19 2.34634e-19)
(0.003 9.68674e-20 2.77626e-19)
(0.003 -1.17725e-20 2.80743e-19)
(0.003 1.25186e-20 1.40849e-19)
(0.003 1.43052e-19 3.35639e-20)
(0.003 9.01523e-20 4.8639e-20)
(0.003 7.87027e-20 1.25999e-19)
(0.003 8.19578e-20 1.92175e-19)
(0.003 -5.2044e-20 6.72825e-20)
(0.003 -1.12532e-19 1.22365e-19)
(0.003 -1.1172e-19 2.36948e-19)
(0.003 -6.6364e-20 1.50553e-19)
(0.003 2.74564e-19 4.44512e-19)
(0.003 4.31201e-19 8.91193e-19)
(0.003 6.22666e-19 1.09852e-18)
(0.003 5.80597e-19 1.07936e-18)
(0.003 5.10978e-19 1.05426e-18)
(0.003 6.58028e-19 1.10288e-18)
(0.003 6.52911e-19 1.06118e-18)
(0.003 6.00093e-19 8.63753e-19)
(0.003 6.00423e-19 8.47649e-19)
(0.003 5.69055e-19 1.11724e-18)
(0.003 5.38069e-19 1.08019e-18)
(0.003 4.89967e-19 9.81843e-19)
(0.003 4.16187e-19 8.90752e-19)
(0.003 2.7999e-19 7.95824e-19)
(0.003 2.20168e-19 7.9127e-19)
(0.003 1.70721e-19 7.51576e-19)
(0.003 4.0543e-19 6.64885e-19)
(0.003 3.53118e-19 4.94672e-19)
(0.003 1.25263e-19 4.0307e-19)
(0.003 8.71109e-20 4.70974e-19)
(0.003 2.36542e-19 3.88243e-19)
(0.003 3.38289e-19 4.26467e-19)
(0.003 3.20917e-19 4.66482e-19)
(0.003 3.77858e-19 5.36588e-19)
(0.003 2.31256e-19 4.30226e-19)
(0.003 2.16189e-19 3.27751e-19)
(0.003 2.84643e-19 2.78888e-19)
(0.003 1.69518e-19 3.0596e-19)
(0.003 7.481e-20 4.27488e-19)
(0.003 7.86004e-20 3.25789e-19)
(0.003 4.43956e-20 1.70996e-19)
(0.003 6.21376e-20 1.39052e-19)
(0.003 1.30089e-19 1.86634e-19)
(0.003 6.60361e-20 1.89702e-19)
(0.003 2.98781e-20 2.71402e-19)
(0.003 -4.63552e-20 2.22654e-19)
(0.003 -1.30818e-19 -2.88142e-20)
(0.003 -1.83111e-19 -1.80494e-20)
(0.003 -1.30786e-19 1.80072e-19)
(0.003 -1.27246e-19 1.3822e-19)
(0.003 1.6703e-19 5.60811e-19)
(0.003 1.78869e-19 9.81309e-19)
(0.003 3.09295e-19 1.19874e-18)
(0.003 5.01777e-19 1.26459e-18)
(0.003 4.6855e-19 1.22155e-18)
(0.003 5.2692e-19 1.24787e-18)
(0.003 5.41045e-19 1.31929e-18)
(0.003 5.44324e-19 1.16356e-18)
(0.003 5.8975e-19 1.19607e-18)
(0.003 4.99626e-19 1.28745e-18)
(0.003 3.74211e-19 1.16673e-18)
(0.003 3.28407e-19 1.11219e-18)
(0.003 3.54867e-19 9.86458e-19)
(0.003 2.58132e-19 8.57279e-19)
(0.003 2.50674e-19 8.47772e-19)
(0.003 2.02611e-19 7.9085e-19)
(0.003 3.08932e-19 8.28668e-19)
(0.003 4.3103e-19 7.06835e-19)
(0.003 1.7891e-19 4.578e-19)
(0.003 8.50301e-20 4.78974e-19)
(0.003 2.57149e-19 5.14502e-19)
(0.003 2.32145e-19 5.06723e-19)
(0.003 2.77779e-19 4.78707e-19)
(0.003 2.54249e-19 5.16024e-19)
(0.003 2.6895e-19 4.6898e-19)
(0.003 1.83418e-19 4.55091e-19)
(0.003 1.20058e-19 4.19588e-19)
(0.003 3.1155e-21 4.20886e-19)
(0.003 6.23816e-21 3.89715e-19)
(0.003 8.7094e-20 3.55381e-19)
(0.003 1.13172e-19 3.65382e-19)
(0.003 6.88862e-20 2.41949e-19)
(0.003 -4.54923e-20 2.19186e-19)
(0.003 -3.86143e-20 1.84731e-19)
(0.003 4.65012e-20 2.36583e-19)
(0.003 5.70652e-21 8.68467e-20)
(0.003 -1.13643e-19 -1.30202e-19)
(0.003 -1.23021e-19 7.16972e-20)
(0.003 -7.9778e-20 1.7588e-19)
(0.003 -1.11173e-19 9.73596e-20)
(0.003 3.55215e-19 7.16273e-19)
(0.003 2.84112e-19 1.1442e-18)
(0.003 2.0659e-19 1.30342e-18)
(0.003 3.67985e-19 1.45786e-18)
(0.003 4.2882e-19 1.41937e-18)
(0.003 4.35483e-19 1.42363e-18)
(0.003 3.7476e-19 1.40426e-18)
(0.003 3.64259e-19 1.26673e-18)
(0.003 3.49293e-19 1.25101e-18)
(0.003 4.18786e-19 1.31302e-18)
(0.003 4.00486e-19 1.32749e-18)
(0.003 3.30437e-19 1.24601e-18)
(0.003 2.72168e-19 1.07844e-18)
(0.003 2.70365e-19 9.55005e-19)
(0.003 4.92647e-19 9.39616e-19)
(0.003 5.92333e-19 7.96184e-19)
(0.003 2.68129e-19 7.7245e-19)
(0.003 1.7702e-19 7.60314e-19)
(0.003 2.57349e-19 5.34671e-19)
(0.003 1.84255e-19 5.06583e-19)
(0.003 1.44783e-19 5.74786e-19)
(0.003 2.18143e-19 5.42477e-19)
(0.003 2.86294e-19 5.24661e-19)
(0.003 2.34564e-19 6.1572e-19)
(0.003 2.80345e-19 6.15856e-19)
(0.003 1.65146e-19 4.98176e-19)
(0.003 4.45478e-20 3.99874e-19)
(0.003 3.82859e-21 3.6099e-19)
(0.003 6.70955e-20 4.27668e-19)
(0.003 -5.66562e-21 4.39701e-19)
(0.003 -4.38328e-20 3.4876e-19)
(0.003 -1.04514e-20 2.34985e-19)
(0.003 -5.9268e-20 2.73543e-19)
(0.003 -4.62568e-20 2.05402e-19)
(0.003 -4.79015e-20 2.37769e-19)
(0.003 -8.87272e-20 8.34066e-20)
(0.003 1.14082e-19 -5.29567e-20)
(0.003 1.43159e-19 9.99214e-20)
(0.003 3.92927e-20 1.37191e-19)
(0.003 3.2995e-20 1.01342e-19)
(0.003 1.63265e-19 7.47014e-19)
(0.003 2.5451e-19 1.24787e-18)
(0.003 1.69448e-19 1.38647e-18)
(0.003 1.77211e-19 1.51571e-18)
(0.003 2.29576e-19 1.54138e-18)
(0.003 1.9271e-19 1.57881e-18)
(0.003 2.04113e-19 1.50514e-18)
(0.003 4.04555e-19 1.27852e-18)
(0.003 4.63192e-19 1.19619e-18)
(0.003 4.11334e-19 1.39518e-18)
(0.003 3.47445e-19 1.40004e-18)
(0.003 2.69064e-19 1.23851e-18)
(0.003 2.87238e-19 1.04983e-18)
(0.003 2.68756e-19 1.06107e-18)
(0.003 3.8696e-19 1.15928e-18)
(0.003 5.55655e-19 1.06669e-18)
(0.003 3.00966e-19 8.16353e-19)
(0.003 1.44135e-19 6.60996e-19)
(0.003 2.72584e-19 5.18045e-19)
(0.003 2.77288e-19 4.76847e-19)
(0.003 5.26802e-20 5.55145e-19)
(0.003 1.37072e-19 5.95843e-19)
(0.003 2.62996e-19 5.98869e-19)
(0.003 2.07764e-19 6.17867e-19)
(0.003 1.98756e-19 6.28527e-19)
(0.003 1.8403e-19 5.4756e-19)
(0.003 1.48981e-19 4.30063e-19)
(0.003 2.82804e-20 4.40291e-19)
(0.003 2.60381e-20 4.52139e-19)
(0.003 -2.06843e-20 3.09652e-19)
(0.003 3.04094e-20 2.83466e-19)
(0.003 6.94748e-20 3.12215e-19)
(0.003 -1.78002e-20 2.29445e-19)
(0.003 -1.47477e-20 2.184e-19)
(0.003 -1.58516e-20 2.1328e-19)
(0.003 -8.70214e-20 1.25556e-19)
(0.003 7.66338e-20 5.6049e-20)
(0.003 1.28928e-19 9.55996e-21)
(0.003 -1.1742e-20 1.2052e-19)
(0.003 -3.291e-20 1.29901e-19)
(0.003 1.56169e-20 7.74337e-19)
(0.003 1.8557e-19 1.31935e-18)
(0.003 1.2616e-19 1.41162e-18)
(0.003 1.31359e-19 1.53865e-18)
(0.003 1.89626e-19 1.60829e-18)
(0.003 1.81407e-19 1.56705e-18)
(0.003 2.04092e-19 1.50644e-18)
(0.003 4.5262e-19 1.55979e-18)
(0.003 5.5659e-19 1.45916e-18)
(0.003 3.94623e-19 1.34206e-18)
(0.003 3.56437e-19 1.32993e-18)
(0.003 3.1469e-19 1.32202e-18)
(0.003 2.3695e-19 1.2014e-18)
(0.003 3.34456e-19 1.04215e-18)
(0.003 2.90896e-19 1.15939e-18)
(0.003 2.01266e-19 1.1168e-18)
(0.003 1.5466e-19 8.90345e-19)
(0.003 7.25225e-20 6.65953e-19)
(0.003 1.76993e-19 5.44899e-19)
(0.003 2.22182e-19 4.84999e-19)
(0.003 1.62489e-19 4.98988e-19)
(0.003 1.71024e-19 5.84317e-19)
(0.003 2.5353e-19 6.46789e-19)
(0.003 3.06076e-19 6.41627e-19)
(0.003 2.32806e-19 6.42818e-19)
(0.003 2.35608e-19 5.30352e-19)
(0.003 2.162e-19 4.76923e-19)
(0.003 -7.59539e-21 3.67717e-19)
(0.003 -1.55508e-19 3.66914e-19)
(0.003 -5.98163e-20 4.60334e-19)
(0.003 1.49435e-19 4.12234e-19)
(0.003 2.21073e-19 2.90025e-19)
(0.003 4.89802e-20 1.60657e-19)
(0.003 -2.35677e-20 2.39415e-19)
(0.003 -4.36189e-20 2.74218e-19)
(0.003 -7.1898e-21 9.73941e-20)
(0.003 4.49521e-20 7.95294e-20)
(0.003 4.97477e-20 -5.41958e-21)
(0.003 1.37764e-19 9.84106e-21)
(0.003 9.43949e-20 1.14599e-19)
(0.003 7.42173e-20 9.17906e-19)
(0.003 2.0609e-19 1.44383e-18)
(0.003 2.23927e-19 1.4895e-18)
(0.003 1.13302e-19 1.57719e-18)
(0.003 1.75821e-19 1.68488e-18)
(0.003 1.82009e-19 1.6729e-18)
(0.003 2.9085e-19 1.57564e-18)
(0.003 5.19252e-19 1.54455e-18)
(0.003 4.97855e-19 1.54704e-18)
(0.003 3.88313e-19 1.50301e-18)
(0.003 2.77973e-19 1.4611e-18)
(0.003 2.05974e-19 1.33534e-18)
(0.003 2.34129e-19 1.15722e-18)
(0.003 3.77332e-19 1.1203e-18)
(0.003 2.37355e-19 1.19217e-18)
(0.003 1.40613e-19 1.05896e-18)
(0.003 1.39758e-19 8.04992e-19)
(0.003 1.40075e-19 5.97993e-19)
(0.003 1.91067e-19 5.49831e-19)
(0.003 9.5497e-20 5.21164e-19)
(0.003 1.74662e-19 5.17936e-19)
(0.003 2.76191e-19 6.1669e-19)
(0.003 2.02015e-19 6.96578e-19)
(0.003 1.49032e-19 7.28296e-19)
(0.003 6.5181e-20 6.20578e-19)
(0.003 2.23278e-19 6.16226e-19)
(0.003 1.29583e-19 5.19555e-19)
(0.003 4.35632e-20 3.47493e-19)
(0.003 -1.58809e-20 3.23452e-19)
(0.003 6.5445e-21 2.92177e-19)
(0.003 1.31745e-19 3.6932e-19)
(0.003 7.60906e-20 3.48333e-19)
(0.003 1.34439e-20 1.11875e-19)
(0.003 8.25034e-20 1.24552e-19)
(0.003 1.02719e-19 1.84702e-19)
(0.003 2.04711e-19 1.64422e-19)
(0.003 1.96498e-20 8.95957e-20)
(0.003 -3.97088e-20 7.72326e-21)
(0.003 7.76558e-20 8.95777e-20)
(0.003 7.63376e-20 1.22064e-19)
(0.003 2.03844e-19 8.2926e-19)
(0.003 2.02539e-19 1.39054e-18)
(0.003 2.02869e-19 1.55522e-18)
(0.003 1.96914e-19 1.65998e-18)
(0.003 2.3677e-19 1.75796e-18)
(0.003 3.02307e-19 1.65312e-18)
(0.003 4.00827e-19 1.63596e-18)
(0.003 3.46613e-19 1.71455e-18)
(0.003 3.12086e-19 1.68751e-18)
(0.003 3.46547e-19 1.64893e-18)
(0.003 2.05095e-19 1.54454e-18)
(0.003 1.36036e-19 1.3081e-18)
(0.003 2.12378e-19 1.13187e-18)
(0.003 2.9326e-19 1.13672e-18)
(0.003 2.7193e-19 1.13625e-18)
(0.003 1.87324e-19 1.11526e-18)
(0.003 9.68301e-20 8.39866e-19)
(0.003 1.29817e-19 6.07428e-19)
(0.003 2.57098e-19 5.84319e-19)
(0.003 2.27983e-19 4.28272e-19)
(0.003 1.38095e-19 4.67454e-19)
(0.003 1.33699e-19 6.5174e-19)
(0.003 8.4546e-20 6.58909e-19)
(0.003 7.15765e-20 6.73404e-19)
(0.003 8.0533e-20 7.17052e-19)
(0.003 1.15519e-19 6.78492e-19)
(0.003 1.31706e-19 5.32077e-19)
(0.003 1.32245e-19 3.74922e-19)
(0.003 5.87785e-20 2.66184e-19)
(0.003 1.45358e-19 3.01186e-19)
(0.003 -7.9156e-21 4.3346e-19)
(0.003 -7.29936e-20 3.36988e-19)
(0.003 1.7882e-20 2.18578e-19)
(0.003 7.76107e-20 2.06477e-19)
(0.003 2.32381e-19 1.50819e-19)
(0.003 9.51715e-20 -5.80357e-20)
(0.003 -2.15739e-20 -1.23687e-19)
(0.003 -3.93316e-20 8.79716e-20)
(0.003 -6.92453e-20 1.5458e-19)
(0.003 -5.23631e-21 8.43302e-20)
(0.003 -5.97665e-20 8.43971e-19)
(0.003 5.584e-21 1.56024e-18)
(0.003 1.44643e-19 1.65939e-18)
(0.003 1.7593e-19 1.7231e-18)
(0.003 2.97789e-19 1.76744e-18)
(0.003 4.95173e-19 1.79647e-18)
(0.003 4.49784e-19 1.76605e-18)
(0.003 1.59557e-19 1.69452e-18)
(0.003 1.35824e-19 1.69312e-18)
(0.003 2.49735e-19 1.71713e-18)
(0.003 2.11438e-19 1.55126e-18)
(0.003 1.11639e-19 1.35682e-18)
(0.003 1.48366e-19 1.15869e-18)
(0.003 2.1944e-19 1.13278e-18)
(0.003 2.7626e-19 1.17323e-18)
(0.003 2.14562e-19 1.10301e-18)
(0.003 2.53542e-19 8.93273e-19)
(0.003 1.7836e-19 5.86435e-19)
(0.003 -4.14606e-20 5.88523e-19)
(0.003 5.55422e-20 5.35238e-19)
(0.003 2.13438e-19 4.72775e-19)
(0.003 1.22679e-19 6.59676e-19)
(0.003 1.8183e-19 8.09027e-19)
(0.003 2.15089e-19 7.95739e-19)
(0.003 1.73502e-19 6.4622e-19)
(0.003 6.27904e-21 5.78766e-19)
(0.003 -4.30449e-20 5.22869e-19)
(0.003 5.41621e-20 3.9658e-19)
(0.003 1.11295e-19 2.44621e-19)
(0.003 7.41364e-20 3.84989e-19)
(0.003 -8.27361e-20 3.9489e-19)
(0.003 -1.17545e-19 3.23444e-19)
(0.003 4.4898e-20 2.50463e-19)
(0.003 8.25326e-20 1.54271e-19)
(0.003 5.22181e-20 -6.65677e-20)
(0.003 -3.18567e-20 -2.96703e-19)
(0.003 7.40791e-20 -8.63388e-20)
(0.003 3.35419e-20 1.0128e-19)
(0.003 -4.1427e-20 6.21655e-20)
(0.003 -4.36821e-20 2.48364e-20)
(0.003 -2.01346e-19 9.708e-19)
(0.003 -3.73048e-20 1.4628e-18)
(0.003 1.8523e-19 1.61934e-18)
(0.003 3.48507e-19 1.82583e-18)
(0.003 2.61015e-19 1.94757e-18)
(0.003 2.52632e-19 1.92296e-18)
(0.003 3.81766e-19 1.86693e-18)
(0.003 2.50519e-19 1.78264e-18)
(0.003 1.77562e-19 1.60856e-18)
(0.003 1.52975e-19 1.61544e-18)
(0.003 2.18344e-19 1.56998e-18)
(0.003 1.27351e-19 1.2797e-18)
(0.003 5.73841e-20 1.14828e-18)
(0.003 1.35819e-19 1.19743e-18)
(0.003 2.41138e-19 1.22301e-18)
(0.003 3.22752e-19 1.14363e-18)
(0.003 3.14553e-19 9.07873e-19)
(0.003 1.98119e-19 6.38581e-19)
(0.003 -1.27308e-19 4.63615e-19)
(0.003 -9.72086e-20 4.33717e-19)
(0.003 2.3061e-19 6.36571e-19)
(0.003 3.09434e-19 8.06159e-19)
(0.003 1.97809e-19 8.89719e-19)
(0.003 1.52063e-19 8.70872e-19)
(0.003 2.1345e-19 7.10917e-19)
(0.003 2.44657e-20 5.58405e-19)
(0.003 -2.11136e-19 4.37676e-19)
(0.003 -1.35089e-19 3.48568e-19)
(0.003 6.07847e-20 3.51007e-19)
(0.003 6.85578e-20 3.89018e-19)
(0.003 -9.30267e-21 3.12117e-19)
(0.003 -5.5131e-20 3.28078e-19)
(0.003 6.4369e-20 3.14345e-19)
(0.003 5.26846e-20 1.70546e-19)
(0.003 -3.34011e-20 -3.11674e-20)
(0.003 1.80906e-21 -3.60176e-19)
(0.003 3.30316e-20 -4.27635e-19)
(0.003 1.04051e-19 -2.59185e-19)
(0.003 6.97466e-20 -1.18293e-19)
(0.003 1.5519e-21 -1.37592e-19)
(0.003 6.72808e-20 9.95975e-19)
(0.003 1.84937e-19 1.59569e-18)
(0.003 2.65447e-19 1.79596e-18)
(0.003 2.70326e-19 1.89194e-18)
(0.003 1.8992e-19 1.91983e-18)
(0.003 2.27691e-19 1.9295e-18)
(0.003 2.04996e-19 1.94412e-18)
(0.003 2.19873e-19 1.85024e-18)
(0.003 1.35694e-19 1.7049e-18)
(0.003 1.54171e-19 1.59542e-18)
(0.003 2.4608e-19 1.40896e-18)
(0.003 1.91177e-19 1.21866e-18)
(0.003 1.45177e-19 1.1053e-18)
(0.003 1.79394e-19 1.05718e-18)
(0.003 1.93681e-19 1.21932e-18)
(0.003 2.71452e-19 1.26097e-18)
(0.003 2.35665e-19 1.01187e-18)
(0.003 1.28126e-19 6.28258e-19)
(0.003 7.59243e-20 4.56318e-19)
(0.003 9.07741e-20 5.27156e-19)
(0.003 2.05829e-19 7.27289e-19)
(0.003 3.23408e-19 9.00182e-19)
(0.003 1.51929e-19 9.49467e-19)
(0.003 5.92929e-20 8.83551e-19)
(0.003 2.2832e-20 6.69215e-19)
(0.003 -1.07559e-19 4.69863e-19)
(0.003 -1.12645e-19 4.04027e-19)
(0.003 -7.01802e-23 3.92764e-19)
(0.003 3.67152e-20 3.68116e-19)
(0.003 -4.75286e-20 4.60783e-19)
(0.003 -9.41992e-20 4.34279e-19)
(0.003 -1.19967e-20 3.0041e-19)
(0.003 8.04061e-20 2.69582e-19)
(0.003 -2.54861e-20 1.5304e-19)
(0.003 -1.4926e-19 -1.91453e-20)
(0.003 -6.94325e-20 -3.22473e-19)
(0.003 -3.69396e-20 -4.52918e-19)
(0.003 1.14399e-19 -3.03165e-19)
(0.003 1.44309e-19 -2.2288e-19)
(0.003 1.34685e-19 -2.3769e-19)
(0.003 2.33245e-19 1.05625e-18)
(0.003 2.26409e-19 1.6817e-18)
(0.003 1.4319e-19 1.81344e-18)
(0.003 1.40216e-19 1.82334e-18)
(0.003 2.32866e-19 1.92768e-18)
(0.003 2.09032e-19 2.02831e-18)
(0.003 1.42501e-19 1.91892e-18)
(0.003 2.74502e-19 1.85635e-18)
(0.003 2.32163e-19 1.64247e-18)
(0.003 8.84854e-20 1.59592e-18)
(0.003 1.43483e-19 1.47272e-18)
(0.003 1.95951e-19 1.25506e-18)
(0.003 2.47614e-19 1.21094e-18)
(0.003 2.26884e-19 1.15862e-18)
(0.003 1.69096e-19 1.2241e-18)
(0.003 8.68659e-20 1.1562e-18)
(0.003 8.89184e-20 9.29175e-19)
(0.003 1.59215e-19 6.68145e-19)
(0.003 3.0616e-19 5.36403e-19)
(0.003 2.79153e-19 5.80815e-19)
(0.003 1.40532e-19 7.4512e-19)
(0.003 1.48459e-20 8.773e-19)
(0.003 -2.6974e-20 8.8255e-19)
(0.003 -1.47344e-20 9.05836e-19)
(0.003 -1.33546e-19 7.12148e-19)
(0.003 -1.68255e-19 4.52627e-19)
(0.003 -4.79445e-20 4.13751e-19)
(0.003 4.24731e-20 4.16851e-19)
(0.003 5.00902e-21 3.22856e-19)
(0.003 -1.38912e-19 3.9794e-19)
(0.003 8.55464e-22 4.11981e-19)
(0.003 5.27358e-20 3.42314e-19)
(0.003 -9.11799e-20 2.53834e-19)
(0.003 1.83058e-20 9.38307e-20)
(0.003 7.1855e-20 -3.34581e-20)
(0.003 -1.0951e-19 -2.81169e-19)
(0.003 -1.68709e-19 -4.45911e-19)
(0.003 2.5093e-20 -3.36194e-19)
(0.003 1.36154e-19 -3.09509e-19)
(0.003 1.5219e-19 -3.77115e-19)
(0.003 2.43183e-19 1.066e-18)
(0.003 2.63492e-19 1.67523e-18)
(0.003 1.67427e-19 1.80866e-18)
(0.003 2.1515e-19 1.92705e-18)
(0.003 9.30954e-20 1.98264e-18)
(0.003 -2.90333e-20 1.98709e-18)
(0.003 1.3934e-19 1.94473e-18)
(0.003 1.73263e-19 1.86219e-18)
(0.003 2.31805e-19 1.71237e-18)
(0.003 1.56759e-19 1.53374e-18)
(0.003 5.85956e-20 1.39276e-18)
(0.003 2.15919e-19 1.32357e-18)
(0.003 3.3624e-19 1.2941e-18)
(0.003 2.52483e-19 1.26134e-18)
(0.003 1.36244e-19 1.21528e-18)
(0.003 2.80965e-20 1.11754e-18)
(0.003 7.71288e-20 8.46189e-19)
(0.003 1.25572e-19 6.68387e-19)
(0.003 1.78906e-19 6.32432e-19)
(0.003 2.04158e-19 6.71333e-19)
(0.003 1.45816e-19 7.35209e-19)
(0.003 5.26446e-20 8.00129e-19)
(0.003 8.59072e-20 8.65241e-19)
(0.003 -1.34625e-20 8.25103e-19)
(0.003 -2.02264e-19 6.62786e-19)
(0.003 -2.67305e-19 4.34252e-19)
(0.003 -1.66343e-19 3.9896e-19)
(0.003 4.13927e-20 4.24744e-19)
(0.003 -1.75101e-20 3.47663e-19)
(0.003 -1.89298e-19 3.05544e-19)
(0.003 -3.71155e-22 3.87183e-19)
(0.003 8.18883e-20 3.50336e-19)
(0.003 -4.40677e-20 2.07684e-19)
(0.003 4.19188e-20 1.30205e-19)
(0.003 9.07993e-20 2.25384e-20)
(0.003 -6.45573e-20 -3.89641e-19)
(0.003 -4.16254e-20 -4.7497e-19)
(0.003 -4.3842e-20 -2.26049e-19)
(0.003 -1.24602e-19 -1.54916e-19)
(0.003 -7.28114e-20 -2.59309e-19)
(0.003 -2.22708e-20 1.13216e-18)
(0.003 1.50568e-19 1.76228e-18)
(0.003 2.16889e-19 1.83619e-18)
(0.003 7.02793e-20 1.94108e-18)
(0.003 -6.9236e-20 1.95817e-18)
(0.003 -3.41616e-20 1.94075e-18)
(0.003 1.65094e-19 1.92202e-18)
(0.003 2.4622e-19 1.81243e-18)
(0.003 1.48588e-19 1.65261e-18)
(0.003 2.74607e-20 1.60005e-18)
(0.003 1.31759e-20 1.43631e-18)
(0.003 2.81708e-19 1.33803e-18)
(0.003 3.49052e-19 1.39294e-18)
(0.003 2.08722e-19 1.28029e-18)
(0.003 8.22023e-20 1.21334e-18)
(0.003 7.53795e-20 1.10215e-18)
(0.003 1.1897e-19 9.34713e-19)
(0.003 2.09354e-19 7.37049e-19)
(0.003 2.33947e-19 6.10123e-19)
(0.003 1.5595e-19 6.0079e-19)
(0.003 1.70585e-19 7.30071e-19)
(0.003 7.30569e-20 8.48659e-19)
(0.003 5.24843e-20 8.6045e-19)
(0.003 -2.51872e-20 8.19195e-19)
(0.003 -1.50382e-19 6.46167e-19)
(0.003 -3.99096e-20 3.24779e-19)
(0.003 -5.70252e-20 2.74664e-19)
(0.003 -1.28545e-19 4.42264e-19)
(0.003 -1.03333e-19 4.27576e-19)
(0.003 -1.06442e-19 2.62797e-19)
(0.003 -2.2071e-19 4.0769e-19)
(0.003 -1.15771e-19 4.04337e-19)
(0.003 3.72758e-20 2.57503e-19)
(0.003 -6.04392e-20 1.26746e-19)
(0.003 -7.51793e-20 -2.34367e-20)
(0.003 2.73637e-20 -4.15145e-19)
(0.003 -9.11015e-21 -5.31129e-19)
(0.003 -1.03372e-19 -3.98501e-19)
(0.003 -1.50883e-19 -3.31324e-19)
(0.003 -2.47074e-19 -3.82887e-19)
(0.003 -2.28054e-19 1.15735e-18)
(0.003 -1.95437e-19 1.71853e-18)
(0.003 6.5836e-20 1.8518e-18)
(0.003 1.47634e-20 1.84688e-18)
(0.003 2.23245e-20 1.89306e-18)
(0.003 3.26061e-20 1.93093e-18)
(0.003 8.55035e-20 1.9484e-18)
(0.003 1.84354e-19 1.86559e-18)
(0.003 5.30595e-20 1.73222e-18)
(0.003 -4.74568e-20 1.56405e-18)
(0.003 1.48837e-19 1.45227e-18)
(0.003 2.86758e-19 1.48824e-18)
(0.003 2.39373e-19 1.48159e-18)
(0.003 9.78955e-20 1.29541e-18)
(0.003 9.4605e-20 1.11547e-18)
(0.003 9.74544e-20 1.0847e-18)
(0.003 1.31331e-19 9.19727e-19)
(0.003 2.96795e-19 7.61122e-19)
(0.003 2.55782e-19 7.3917e-19)
(0.003 1.79582e-19 6.98916e-19)
(0.003 1.8556e-19 7.33316e-19)
(0.003 5.90201e-20 7.95736e-19)
(0.003 -9.177e-20 8.74993e-19)
(0.003 -2.09124e-19 7.95165e-19)
(0.003 -1.50293e-19 5.88154e-19)
(0.003 1.13714e-19 4.31517e-19)
(0.003 1.48454e-19 2.85873e-19)
(0.003 -9.19356e-20 3.72849e-19)
(0.003 -1.68164e-19 3.63893e-19)
(0.003 -6.42406e-20 2.35725e-19)
(0.003 -1.01428e-19 3.14922e-19)
(0.003 -1.66806e-19 3.81704e-19)
(0.003 -7.47136e-20 3.10023e-19)
(0.003 -5.29781e-20 6.96539e-20)
(0.003 -4.60109e-20 -2.71786e-21)
(0.003 9.06622e-21 -2.86761e-19)
(0.003 -6.76963e-20 -5.20281e-19)
(0.003 -1.00185e-19 -3.42863e-19)
(0.003 -5.46816e-20 -2.72157e-19)
(0.003 -1.47474e-19 -3.52429e-19)
(0.003 -8.72585e-20 1.07578e-18)
(0.003 -2.67019e-19 1.73112e-18)
(0.003 -1.81947e-19 1.94431e-18)
(0.003 -1.46663e-19 1.942e-18)
(0.003 8.25222e-21 1.96408e-18)
(0.003 4.50418e-20 1.9353e-18)
(0.003 -1.92592e-20 1.88426e-18)
(0.003 -4.20024e-21 1.82753e-18)
(0.003 2.19413e-20 1.73096e-18)
(0.003 9.4329e-20 1.50483e-18)
(0.003 1.8068e-19 1.50228e-18)
(0.003 1.46697e-19 1.58005e-18)
(0.003 9.63021e-21 1.57609e-18)
(0.003 9.751e-20 1.33356e-18)
(0.003 2.42582e-19 1.20132e-18)
(0.003 1.57902e-19 1.12738e-18)
(0.003 1.10369e-19 8.71494e-19)
(0.003 1.42881e-19 7.32175e-19)
(0.003 1.77961e-19 7.16289e-19)
(0.003 1.60172e-19 6.98572e-19)
(0.003 1.63018e-19 7.60523e-19)
(0.003 9.63316e-20 8.79555e-19)
(0.003 -3.49473e-20 9.0345e-19)
(0.003 -2.22199e-19 6.89074e-19)
(0.003 -1.662e-19 4.80567e-19)
(0.003 -7.26813e-20 4.61421e-19)
(0.003 5.21796e-20 3.16653e-19)
(0.003 5.15592e-20 2.75724e-19)
(0.003 -3.17578e-20 3.23239e-19)
(0.003 7.21597e-21 2.48274e-19)
(0.003 -6.07376e-20 3.22542e-19)
(0.003 -3.0211e-20 2.84348e-19)
(0.003 -6.26835e-20 2.38175e-19)
(0.003 -1.30829e-19 1.49473e-19)
(0.003 -1.6442e-19 -2.76241e-20)
(0.003 -1.14411e-19 -3.51242e-19)
(0.003 -2.99505e-20 -4.03175e-19)
(0.003 -7.20113e-20 -1.2796e-19)
(0.003 -8.99002e-20 -1.48887e-19)
(0.003 -1.67392e-20 -2.57781e-19)
(0.003 -1.67087e-19 9.9745e-19)
(0.003 -1.43542e-19 1.63082e-18)
(0.003 -5.74705e-20 1.91925e-18)
(0.003 -1.63498e-19 1.95114e-18)
(0.003 -1.83738e-19 1.99891e-18)
(0.003 -5.06205e-20 2.0011e-18)
(0.003 -6.26056e-20 1.99418e-18)
(0.003 -7.22461e-20 1.90306e-18)
(0.003 5.99723e-20 1.77269e-18)
(0.003 1.80317e-19 1.55338e-18)
(0.003 1.32013e-19 1.49277e-18)
(0.003 7.95306e-20 1.57201e-18)
(0.003 -6.50704e-20 1.51295e-18)
(0.003 1.98987e-20 1.43003e-18)
(0.003 1.97262e-19 1.24926e-18)
(0.003 1.38757e-19 1.03777e-18)
(0.003 8.99914e-20 7.91684e-19)
(0.003 -5.08755e-20 7.41181e-19)
(0.003 1.24566e-19 8.27353e-19)
(0.003 2.42706e-19 7.65385e-19)
(0.003 2.48951e-19 8.44104e-19)
(0.003 2.88499e-20 7.54061e-19)
(0.003 -2.39726e-19 7.26865e-19)
(0.003 -1.84931e-19 6.01948e-19)
(0.003 -6.17613e-20 4.65685e-19)
(0.003 -3.59994e-20 4.36549e-19)
(0.003 9.59462e-21 3.30292e-19)
(0.003 6.62113e-20 3.89875e-19)
(0.003 2.6558e-20 3.41353e-19)
(0.003 3.306e-20 2.61848e-19)
(0.003 2.41771e-20 2.37659e-19)
(0.003 -1.88505e-20 2.52655e-19)
(0.003 -1.19235e-19 2.27429e-19)
(0.003 -2.40169e-19 2.23687e-19)
(0.003 -3.42776e-19 1.15883e-19)
(0.003 -1.75516e-19 -2.21362e-19)
(0.003 6.79208e-20 -4.10235e-19)
(0.003 7.15461e-20 -1.43014e-19)
(0.003 -6.79432e-20 -2.01687e-19)
(0.003 -8.63003e-20 -2.93564e-19)
(0.003 -1.8375e-19 8.98309e-19)
(0.003 -2.04376e-19 1.65849e-18)
(0.003 -1.61901e-19 2.01043e-18)
(0.003 -3.83887e-20 1.94094e-18)
(0.003 -4.24391e-20 1.90287e-18)
(0.003 -1.15818e-19 1.98337e-18)
(0.003 -1.7736e-19 1.95009e-18)
(0.003 -1.88476e-19 1.86556e-18)
(0.003 -4.52409e-21 1.82432e-18)
(0.003 9.27148e-20 1.65093e-18)
(0.003 1.23218e-19 1.53357e-18)
(0.003 9.77999e-20 1.56772e-18)
(0.003 8.91882e-20 1.49908e-18)
(0.003 -1.02101e-20 1.4171e-18)
(0.003 1.55796e-20 1.35407e-18)
(0.003 2.64861e-20 1.11267e-18)
(0.003 1.17875e-19 9.31102e-19)
(0.003 2.11673e-19 6.35933e-19)
(0.003 2.97558e-19 6.63219e-19)
(0.003 2.83356e-19 7.56102e-19)
(0.003 7.03975e-20 8.64278e-19)
(0.003 -1.87896e-19 8.62758e-19)
(0.003 -1.86839e-19 6.98011e-19)
(0.003 -8.38337e-20 5.66055e-19)
(0.003 -1.03546e-19 4.91254e-19)
(0.003 -2.62413e-20 4.77295e-19)
(0.003 5.39143e-20 4.39947e-19)
(0.003 -2.72191e-20 4.08557e-19)
(0.003 6.19782e-21 3.43777e-19)
(0.003 3.48304e-20 2.81874e-19)
(0.003 1.31944e-19 2.32185e-19)
(0.003 -1.21311e-19 1.75319e-19)
(0.003 -2.35709e-19 1.77035e-19)
(0.003 -1.10177e-19 1.6956e-19)
(0.003 -1.49285e-19 1.21413e-19)
(0.003 -2.25665e-19 -1.44669e-20)
(0.003 -1.82751e-19 -5.66091e-20)
(0.003 -5.99268e-20 -7.20888e-20)
(0.003 4.02061e-20 -3.29715e-19)
(0.003 9.72693e-20 -2.66498e-19)
(0.003 -4.63059e-20 9.54792e-19)
(0.003 -1.48052e-19 1.57894e-18)
(0.003 -1.62518e-19 1.83759e-18)
(0.003 2.17182e-20 1.95094e-18)
(0.003 9.86767e-21 1.94822e-18)
(0.003 -1.97349e-19 1.95656e-18)
(0.003 -2.73588e-19 1.95268e-18)
(0.003 -1.72822e-19 1.94654e-18)
(0.003 6.71141e-20 1.86789e-18)
(0.003 1.33662e-19 1.69556e-18)
(0.003 2.47589e-21 1.59342e-18)
(0.003 -1.42779e-20 1.55243e-18)
(0.003 9.85102e-20 1.47399e-18)
(0.003 1.44454e-19 1.38029e-18)
(0.003 5.32165e-20 1.32866e-18)
(0.003 1.05981e-20 1.14786e-18)
(0.003 2.91837e-20 1.054e-18)
(0.003 1.89849e-19 8.51033e-19)
(0.003 3.12842e-19 7.75048e-19)
(0.003 1.52078e-19 7.18513e-19)
(0.003 -1.34328e-19 7.32044e-19)
(0.003 -1.50624e-19 7.40696e-19)
(0.003 -5.64463e-20 7.85477e-19)
(0.003 -4.84871e-21 6.59854e-19)
(0.003 -1.21097e-20 4.7455e-19)
(0.003 -9.93575e-20 4.32649e-19)
(0.003 7.35365e-20 4.44023e-19)
(0.003 9.01443e-20 4.00627e-19)
(0.003 -1.22976e-20 3.12368e-19)
(0.003 -7.32135e-21 2.42842e-19)
(0.003 -3.95324e-20 2.25231e-19)
(0.003 -9.48547e-20 1.14137e-19)
(0.003 -6.36182e-20 1.20512e-19)
(0.003 6.39443e-21 2.44348e-19)
(0.003 -1.84947e-20 1.73863e-19)
(0.003 -1.6108e-19 2.85072e-21)
(0.003 -1.17112e-19 -1.07517e-20)
(0.003 -9.73992e-20 4.73846e-20)
(0.003 1.00666e-20 -1.39646e-19)
(0.003 1.5774e-19 -1.90403e-19)
(0.003 1.18317e-19 1.0337e-18)
(0.003 1.71241e-19 1.66306e-18)
(0.003 7.4992e-20 1.77614e-18)
(0.003 -8.67727e-20 1.82698e-18)
(0.003 -1.532e-19 1.9287e-18)
(0.003 -1.77657e-19 1.90703e-18)
(0.003 -2.39804e-19 1.85709e-18)
(0.003 -2.15903e-19 1.89994e-18)
(0.003 -1.17237e-19 1.96448e-18)
(0.003 4.63159e-20 1.84814e-18)
(0.003 9.70029e-20 1.57875e-18)
(0.003 8.80633e-20 1.56178e-18)
(0.003 1.73141e-19 1.4294e-18)
(0.003 2.39969e-19 1.44745e-18)
(0.003 6.92113e-21 1.40813e-18)
(0.003 -8.18437e-20 1.19508e-18)
(0.003 -9.44228e-20 9.36368e-19)
(0.003 -1.28016e-19 7.66663e-19)
(0.003 -8.86151e-20 9.05924e-19)
(0.003 5.60141e-21 7.49371e-19)
(0.003 -5.90307e-20 7.03458e-19)
(0.003 -8.23298e-21 8.01566e-19)
(0.003 -5.44509e-20 8.3046e-19)
(0.003 1.36245e-20 6.3656e-19)
(0.003 1.37744e-19 4.33203e-19)
(0.003 1.85663e-20 4.16602e-19)
(0.003 3.73499e-20 5.54728e-19)
(0.003 7.44957e-20 4.70422e-19)
(0.003 2.88363e-20 2.9637e-19)
(0.003 -6.7418e-21 1.056e-19)
(0.003 -5.61841e-20 2.25573e-19)
(0.003 -2.08542e-20 1.16678e-19)
(0.003 3.75489e-21 9.91442e-20)
(0.003 -3.77658e-20 1.9899e-19)
(0.003 5.55301e-20 1.75907e-19)
(0.003 7.18987e-20 1.24407e-19)
(0.003 2.62838e-20 6.81493e-20)
(0.003 -3.71388e-20 -1.05532e-19)
(0.003 -7.48208e-20 -2.71271e-19)
(0.003 -7.96572e-20 -2.56797e-19)
(0.003 2.84138e-19 1.00237e-18)
(0.003 2.57616e-19 1.57882e-18)
(0.003 2.87041e-20 1.74324e-18)
(0.003 -1.13348e-19 1.79886e-18)
(0.003 -6.86039e-20 1.84854e-18)
(0.003 4.25443e-20 1.87159e-18)
(0.003 -2.25507e-20 1.84429e-18)
(0.003 -2.49617e-19 1.79874e-18)
(0.003 -2.91991e-19 1.8482e-18)
(0.003 -9.29079e-20 1.91974e-18)
(0.003 1.56295e-19 1.76731e-18)
(0.003 1.54468e-19 1.66934e-18)
(0.003 1.34319e-19 1.50933e-18)
(0.003 1.56653e-19 1.45186e-18)
(0.003 -4.82447e-20 1.37075e-18)
(0.003 -1.13677e-19 1.13225e-18)
(0.003 -7.77425e-20 9.34078e-19)
(0.003 -1.16874e-19 7.86e-19)
(0.003 -2.25671e-19 8.81552e-19)
(0.003 -1.0596e-19 8.36949e-19)
(0.003 -6.10794e-20 7.47203e-19)
(0.003 -8.09145e-20 7.32444e-19)
(0.003 -7.50195e-20 7.42144e-19)
(0.003 -4.32951e-20 6.50771e-19)
(0.003 1.36743e-19 5.72242e-19)
(0.003 1.58575e-19 4.80436e-19)
(0.003 -2.18856e-20 4.33839e-19)
(0.003 3.67701e-20 3.81259e-19)
(0.003 9.7158e-20 2.5609e-19)
(0.003 2.63078e-20 1.55146e-19)
(0.003 -5.03342e-21 2.27693e-19)
(0.003 -2.77034e-20 1.26957e-19)
(0.003 -3.10163e-20 9.50037e-20)
(0.003 -2.42405e-20 1.38672e-19)
(0.003 1.08411e-19 1.87577e-19)
(0.003 2.66348e-19 1.79645e-19)
(0.003 7.65801e-20 -4.78557e-21)
(0.003 1.22425e-20 -1.96403e-19)
(0.003 -1.39465e-19 -2.2213e-19)
(0.003 -2.61888e-19 -1.05263e-19)
(0.003 2.41941e-19 9.62821e-19)
(0.003 2.20122e-19 1.55016e-18)
(0.003 -1.9728e-20 1.76975e-18)
(0.003 1.66329e-20 1.74265e-18)
(0.003 1.275e-19 1.80926e-18)
(0.003 1.36141e-19 1.85227e-18)
(0.003 6.93696e-20 1.8581e-18)
(0.003 -8.5221e-20 1.76791e-18)
(0.003 -1.69101e-19 1.77085e-18)
(0.003 -2.09418e-19 1.93105e-18)
(0.003 -8.54524e-20 1.83917e-18)
(0.003 4.57848e-20 1.66468e-18)
(0.003 3.62538e-20 1.56203e-18)
(0.003 -1.9622e-19 1.48795e-18)
(0.003 -1.85299e-19 1.33617e-18)
(0.003 -7.36555e-20 1.16514e-18)
(0.003 -1.6487e-19 9.91427e-19)
(0.003 -1.71424e-19 8.14319e-19)
(0.003 -1.95326e-19 8.23074e-19)
(0.003 -7.89167e-20 8.27371e-19)
(0.003 -2.52776e-20 7.89882e-19)
(0.003 -2.41487e-20 7.75506e-19)
(0.003 8.87526e-20 7.47068e-19)
(0.003 6.60267e-20 6.05775e-19)
(0.003 3.49831e-20 4.80582e-19)
(0.003 1.33284e-19 4.58613e-19)
(0.003 3.71987e-20 4.55434e-19)
(0.003 5.55199e-20 4.84363e-19)
(0.003 5.87997e-20 3.41613e-19)
(0.003 -7.49631e-21 1.05162e-19)
(0.003 2.00998e-20 1.30859e-19)
(0.003 7.14238e-20 9.38457e-20)
(0.003 -1.85413e-20 3.74537e-20)
(0.003 4.66823e-20 1.47576e-19)
(0.003 2.0137e-19 2.98015e-19)
(0.003 2.11301e-19 1.79203e-19)
(0.003 1.25034e-19 -1.69162e-19)
(0.003 5.22558e-20 -2.46322e-19)
(0.003 7.36753e-21 -1.70453e-19)
(0.003 -7.76961e-20 -6.69316e-20)
(0.003 -8.29489e-20 1.04561e-18)
(0.003 -4.17333e-20 1.67106e-18)
(0.003 7.52851e-20 1.74076e-18)
(0.003 4.81579e-20 1.72514e-18)
(0.003 3.41719e-20 1.79828e-18)
(0.003 9.72279e-20 1.92179e-18)
(0.003 8.52947e-20 1.8433e-18)
(0.003 1.16658e-19 1.65805e-18)
(0.003 -6.53873e-20 1.74191e-18)
(0.003 -1.88155e-19 1.81928e-18)
(0.003 -1.3366e-19 1.77762e-18)
(0.003 -1.4382e-19 1.73412e-18)
(0.003 -2.55464e-19 1.61476e-18)
(0.003 -2.2429e-19 1.35683e-18)
(0.003 -1.11042e-19 1.17282e-18)
(0.003 -1.41512e-19 1.09736e-18)
(0.003 -2.12861e-19 1.00531e-18)
(0.003 -1.57219e-19 8.73714e-19)
(0.003 -1.38795e-19 8.64428e-19)
(0.003 -1.97872e-19 8.61241e-19)
(0.003 -9.71522e-20 8.13124e-19)
(0.003 9.03576e-20 7.8135e-19)
(0.003 1.87527e-19 7.81155e-19)
(0.003 1.6384e-19 6.42763e-19)
(0.003 9.34916e-20 5.542e-19)
(0.003 5.9257e-20 4.78843e-19)