/*--------------------------------*- C++ -*----------------------------------*\
| =========                 |                                                 |
| \\      /  F ield         | OpenFOAM: The Open Source CFD Toolbox           |
|  \\    /   O peration     | Version:  v2012                                 |
|   \\  /    A nd           | Website:  www.openfoam.com                      |
|    \\/     M anipulation  |                                                 |
\*---------------------------------------------------------------------------*/
FoamFile
{
    version     2.0;
    format      ascii;
    class       volScalarField;
    location    "200/rightSolid";
    object      T;
}
// * * * * * * * * * * * * * * * * * * * * * * * * * * * * * * * * * * * * * //

dimensions      [0 0 0 1 0 0 0];


internalField   nonuniform List<scalar> 
130
(
685.55419
691.7657
698.18911
704.49699
710.42339
715.82972
720.63895
724.79741
728.26957
731.05035
733.1405
734.54131
735.24773
680.83449
688.1384
695.51831
702.60322
709.10731
714.93374
720.04177
724.40284
728.0072
730.87483
733.01838
734.44758
735.16962
671.30193
681.11
690.53604
699.14906
706.7657
713.38563
719.02404
723.73275
727.56292
730.58474
732.82627
734.30619
735.05193
656.99045
671.55203
684.28635
695.08418
704.13642
711.69726
717.93938
723.03268
727.11281
730.29333
732.628
734.16548
734.9286
640.05899
662.47057
679.13038
692.02059
702.26348
710.54335
717.21996
722.58819
726.84595
730.13053
732.52285
734.09112
734.8697
640.20253
662.58717
679.21956
692.07777
702.28262
710.51341
717.19153
722.59799
726.89426
730.19007
732.58169
734.14426
734.92043
657.27631
671.79934
684.48136
695.21593
704.21137
711.71847
717.96404
723.10923
727.23684
730.42888
732.7582
734.28364
735.04158
671.7009
681.4448
690.80565
699.34309
706.90783
713.4887
719.13692
723.87715
727.74341
730.77455
733.006
734.47533
735.20854
681.2526
688.48249
695.80322
702.80368
709.26712
715.08288
720.20837
724.59065
728.21348
731.09695
733.24424
734.66762
735.3683
685.95657
692.09384
698.45311
704.6957
710.59428
716.00865
720.8503
725.02458
728.49572
731.2826
733.37834
734.77202
735.46023
)
;

boundaryField
{
    maxX
    {
        type            zeroGradient;
    }
    minZ
    {
        type            zeroGradient;
    }
    maxZ
    {
        type            zeroGradient;
    }
    rightSolid_to_bottomWater
    {
        type            compressible::turbulentTemperatureCoupledBaffleMixed;
        refValue        nonuniform List<scalar> 
130
(
972.74344
973.88448
975.87587
979.69996
979.26909
978.88311
980.29153
982.65132
983.57336
984.61211
985.72656
987.21831
988.61345
971.93943
974.25005
976.06318
983.93457
982.14217
980.74162
982.5626
984.90249
985.35622
986.30337
987.16404
987.77107
989.64659
968.67439
972.02449
975.16879
979.44422
979.02895
982.68255
984.01861
985.36042
984.18202
986.61552
989.20341
988.86909
990.87596
962.74391
967.77969
971.28716
974.32081
975.56003
980.68683
981.79085
982.0353
981.38775
984.31341
985.34317
986.9148
986.8861
938.91468
956.63224
960.77897
964.28864
967.78501
979.03878
979.94951
980.02962
980.24615
982.43643
982.77897
983.79528
984.51153
948.09766
959.34173
962.63685
964.82097
966.23147
968.22435
971.1453
977.55194
983.25632
985.1831
985.32257
985.22166
985.63316
957.46467
966.41583
969.67581
970.34662
970.9135
971.06096
974.36302
981.49321
985.02648
986.69206
987.18448
987.06332
987.17311
968.86747
972.69708
975.27754
975.7326
975.99992
976.88705
982.07059
985.18601
987.7268
989.6734
989.74941
989.27743
990.12099
971.51726
973.84347
979.2594
978.56735
977.51644
976.6361
981.24174
984.47821
985.44729
988.44335
989.92268
991.5533
989.63872
971.65774
973.76629
975.77259
975.9198
975.53117
976.37629
982.30619
984.76468
983.03928
984.8236
987.77352
989.44266
988.47988
)
;
        refGradient     uniform 0;
        valueFraction   nonuniform List<scalar> 
130
(
0.0075140686
0.0075140686
0.0075140686
0.0075140686
0.0075140686
0.0075140686
0.0075140686
0.0075140686
0.0075140686
0.0075140686
0.0075140686
0.0075140686
0.0075140686
0.0075140686
0.0075140686
0.0075140686
0.0075140686
0.0075140686
0.0075140686
0.0075140686
0.0075140686
0.0075140686
0.0075140686
0.0075140686
0.0075140686
0.0075140686
0.0075140686
0.0075140686
0.0075140686
0.0075140686
0.0075140686
0.0075140686
0.0075140686
0.0075140686
0.0075140686
0.0075140686
0.0075140686
0.0075140686
0.0075140686
0.0075140686
0.0075140686
0.0075140686
0.0075140686
0.0075140686
0.0075140686
0.0075140686
0.0075140686
0.0075140686
0.0075140686
0.0075140686
0.0075140686
0.0075140686
0.0075140686
0.0075140686
0.0075140686
0.0075140686
0.0075140686
0.0075140686
0.0075140686
0.0075140686
0.0075140686
0.0075140686
0.0075140686
0.0075140686
0.0075140686
0.0075140686
0.0075140686
0.0075140686
0.0075140686
0.0075140686
0.0075140686
0.0075140686
0.0075140686
0.0075140686
0.0075140686
0.0075140686
0.0075140686
0.0075140686
0.0075140686
0.0075140686
0.0075140686
0.0075140686
0.0075140686
0.0075140686
0.0075140686
0.0075140686
0.0075140686
0.0075140686
0.0075140686
0.0075140686
0.0075140686
0.0075140686
0.0075140686
0.0075140686
0.0075140686
0.0075140686
0.0075140686
0.0075140686
0.0075140686
0.0075140686
0.0075140686
0.0075140686
0.0075140686
0.0075140686
0.0075140686
0.0075140686
0.0075140686
0.0075140686
0.0075140686
0.0075140686
0.0075140686
0.0075140686
0.0075140686
0.0075140686
0.0075140686
0.0075140686
0.0075140686
0.0075140686
0.0075140686
0.0075140686
0.0075140686
0.0075140686
0.0075140686
0.0075140686
0.0075140686
0.0075140686
0.0075140686
0.0075140686
0.0075140686
0.0075140686
)
;
        value           nonuniform List<scalar> 
130
(
687.7026
693.87573
700.26552
706.5544
712.43271
717.7952
722.57859
726.72331
730.17613
732.94368
735.0264
736.42783
737.1394
683.01242
690.27849
697.61623
704.7067
711.1481
716.91991
722.00299
726.34866
729.92915
732.78221
734.916
736.33896
737.06964
673.52714
683.28631
692.66475
701.24479
708.80071
715.39804
721.00388
725.68709
729.47944
732.49668
734.74067
736.20687
736.96206
659.27891
673.76847
686.43304
697.17209
706.16522
713.70747
719.91073
724.96737
729.01176
732.1902
734.51493
736.05256
736.8097
642.29637
664.67192
681.23709
694.05629
704.24804
712.54994
719.18295
724.5112
728.73837
732.01454
734.39131
735.95535
736.73341
642.50797
664.80813
681.33969
694.11717
704.2555
712.43904
719.08861
724.50233
728.80897
732.09428
734.46882
736.0188
736.79221
659.52334
674.00401
686.61476
697.27327
706.20497
713.65638
719.87946
725.03932
729.16225
732.34261
734.65796
736.17093
736.92398
673.92477
683.62387
692.93342
701.40976
708.9193
715.45698
721.10138
725.82916
729.68525
732.70804
734.92315
736.37781
737.11181
683.42424
690.61698
697.9231
704.86545
711.27211
717.03724
722.15851
726.53194
730.13461
733.01875
735.16088
736.58573
737.26672
688.09372
694.20044
700.52673
706.72324
712.57429
717.95406
722.80361
726.96475
730.39664
733.17582
735.27784
736.6735
737.34924
)
;
        Tnbr            T;
        thicknessLayers List<scalar> 0();
        kappaLayers     List<scalar> 0();
        kappaMethod     solidThermo;
        kappa           none;
        alphaAni        none;
        alpha           none;
        field           T;
    }
    rightSolid_to_topAir
    {
        type            compressible::turbulentTemperatureCoupledBaffleMixed;
        refValue        nonuniform List<scalar> 
130
(
460.38161
456.83723
453.29322
450.09512
447.41637
445.32555
443.84934
443.01187
442.8627
443.5227
445.26609
448.67302
454.38823
422.49639
418.3629
415.22746
412.94549
411.29964
410.14792
409.45574
409.26649
409.68229
410.93446
413.54418
418.65582
426.42275
427.83378
419.24109
411.76439
405.78838
401.27409
398.05687
396.00039
395.00095
394.9673
395.99895
398.41757
403.7002
415.56354
461.82359
460.36502
459.13438
457.72644
455.99196
453.95157
451.81025
449.8777
448.45249
448.17705
451.43492
459.30294
468.07441
463.48749
467.43478
471.82518
476.11632
480.14365
483.75513
486.8181
489.25079
491.08417
492.61921
494.67474
498.6174
506.31533
463.33495
467.56328
472.06087
476.52022
480.77151
484.64657
487.98633
490.69041
492.80586
494.68015
497.15944
501.52504
509.58923
461.51049
460.73482
460.30821
459.72084
458.76808
457.43299
455.8978
454.33857
452.91319
452.9067
456.97535
464.60193
473.38278
427.6612
419.22492
411.94698
406.12782
401.65758
398.30289
395.88059
394.44613
394.18124
395.0984
397.44912
402.37307
414.28612
422.372
418.23128
415.16073
412.98061
411.43976
410.35349
409.64411
409.35351
409.62697
410.71417
413.14241
418.00809
425.84886
460.42888
456.87269
453.34448
450.18717
447.56489
445.52939
444.0862
443.24718
443.06792
443.68174
445.37415
448.72383
454.43664
)
;
        refGradient     uniform 0;
        valueFraction   nonuniform List<scalar> 
130
(
0.00032132529
0.00032132529
0.00032132529
0.00032132529
0.00032132529
0.00032132529
0.00032132529
0.00032132529
0.00032132529
0.00032132529
0.00032132529
0.00032132529
0.00032132529
0.00032132529
0.00032132529
0.00032132529
0.00032132529
0.00032132529
0.00032132529
0.00032132529
0.00032132529
0.00032132529
0.00032132529
0.00032132529
0.00032132529
0.00032132529
0.00032132529
0.00032132529
0.00032132529
0.00032132529
0.00032132529
0.00032132529
0.00032132529
0.00032132529
0.00032132529
0.00032132529
0.00032132529
0.00032132529
0.00032132529
0.00032132529
0.00032132529
0.00032132529
0.00032132529
0.00032132529
0.00032132529
0.00032132529
0.00032132529
0.00032132529
0.00032132529
0.00032132529
0.00032132529
0.00032132529
0.00032132529
0.00032132529
0.00032132529
0.00032132529
0.00032132529
0.00032132529
0.00032132529
0.00032132529
0.00032132529
0.00032132529
0.00032132529
0.00032132529
0.00032132529
0.00032132529
0.00032132529
0.00032132529
0.00032132529
0.00032132529
0.00032132529
0.00032132529
0.00032132529
0.00032132529
0.00032132529
0.00032132529
0.00032132529
0.00032132529
0.00032132529
0.00032132529
0.00032132529
0.00032132529
0.00032132529
0.00032132529
0.00032132529
0.00032132529
0.00032132529
0.00032132529
0.00032132529
0.00032132529
0.00032132529
0.00032132529
0.00032132529
0.00032132529
0.00032132529
0.00032132529
0.00032132529
0.00032132529
0.00032132529
0.00032132529
0.00032132529
0.00032132529
0.00032132529
0.00032132529
0.00032132529
0.00032132529
0.00032132529
0.00032132529
0.00032132529
0.00032132529
0.00032132529
0.00032132529
0.00032132529
0.00032132529
0.00032132529
0.00032132529
0.00032132529
0.00032132529
0.00032132529
0.00032132529
0.00032132529
0.00032132529
0.00032132529
0.00032132529
0.00032132529
0.00032132529
0.00032132529
0.00032132529
0.00032132529
0.00032132529
)
;
        value           nonuniform List<scalar> 
130
(
685.47222
691.68031
698.1002
704.40468
710.32799
715.73159
720.53852
724.69515
728.16596
730.94592
733.03587
734.43725
735.14526
680.74196
688.04188
695.41806
702.49961
709.00073
714.82459
719.93051
724.2899
727.89304
730.76001
732.90359
734.33391
735.05818
671.21436
681.01614
690.43635
699.04429
706.65667
713.27312
718.90881
723.61549
727.44423
730.46525
732.7067
734.18775
734.93703
656.91868
671.47467
684.20407
694.99754
704.04591
711.60336
717.84253
722.93335
727.0115
730.19074
732.52557
734.06498
734.83064
639.99395
662.39883
679.05409
691.941
702.18145
710.45949
717.13467
722.5017
726.75846
730.04229
732.43436
734.0033
734.78406
640.13753
662.51556
679.14344
691.99843
702.20092
710.42993
717.10666
722.51199
726.80734
730.10248
732.49397
734.05735
734.83584
657.20474
671.72236
684.39969
695.13017
704.12201
711.62588
717.86857
723.01136
727.13697
730.32777
732.65748
734.18479
734.94528
671.61336
681.35105
690.7062
699.23866
706.79916
713.37643
719.02173
723.75973
727.62445
730.65471
732.88605
734.35641
735.09317
681.15991
688.38585
695.70294
702.70014
709.16069
714.97391
720.09722
724.47775
728.09929
730.982
733.12924
734.55364
735.25657
685.8744
692.00828
698.3641
704.60339
710.49894
715.91065
720.75
724.92242
728.39218
731.17819
733.27366
734.66788
735.35765
)
;
        Tnbr            T;
        thicknessLayers List<scalar> 0();
        kappaLayers     List<scalar> 0();
        kappaMethod     solidThermo;
        kappa           none;
        alphaAni        none;
        alpha           none;
        field           T;
    }
    rightSolid_to_heater
    {
        type            compressible::turbulentTemperatureCoupledBaffleMixed;
        refValue        nonuniform List<scalar> 10(679.94249 674.13048 661.98022 641.80644 608.22478 608.34741 642.14465 662.45636 674.64475 680.43973);
        refGradient     uniform 0;
        valueFraction   nonuniform List<scalar> 10(0.50000003 0.50000003 0.50000003 0.50000003 0.50000003 0.50000003 0.50000003 0.50000003 0.50000003 0.50000003);
        value           nonuniform List<scalar> 10(682.74353 677.47773 666.63641 649.39392 624.13773 624.27088 649.70614 667.07407 677.94392 683.1933);
        Tnbr            T;
        thicknessLayers List<scalar> 0();
        kappaLayers     List<scalar> 0();
        kappaMethod     solidThermo;
        kappa           none;
        alphaAni        none;
        alpha           none;
        field           T;
    }
}


// ************************************************************************* //
