/*--------------------------------*- C++ -*----------------------------------*\
| =========                 |                                                 |
| \\      /  F ield         | OpenFOAM: The Open Source CFD Toolbox           |
|  \\    /   O peration     | Version:  v2012                                 |
|   \\  /    A nd           | Website:  www.openfoam.com                      |
|    \\/     M anipulation  |                                                 |
\*---------------------------------------------------------------------------*/
FoamFile
{
    version     2.0;
    format      ascii;
    class       volScalarField;
    location    "5";
    object      p;
}
// * * * * * * * * * * * * * * * * * * * * * * * * * * * * * * * * * * * * * //

dimensions      [0 2 -2 0 0 0 0];


internalField   nonuniform List<scalar> 
64000
(
3.0052e-21
1.59233e-21
-1.86777e-21
-1.76014e-21
-2.86084e-21
-2.62748e-21
-8.01585e-22
4.70834e-22
-1.26358e-22
5.75931e-22
-1.13775e-21
4.16773e-22
4.70603e-22
-2.39058e-21
-1.12258e-21
-1.13898e-21
-2.17308e-21
4.65002e-22
3.12965e-21
2.78765e-21
-9.13709e-22
-4.80166e-21
-1.79349e-21
-8.70662e-22
-3.53659e-21
-1.81934e-21
-2.51921e-22
9.72234e-23
-2.02733e-22
-1.17093e-21
-7.16652e-22
-3.80421e-22
-1.04873e-21
-6.33169e-23
4.99787e-22
-4.90952e-22
-2.48179e-22
2.29704e-22
9.06286e-22
8.00149e-22
7.45166e-23
-2.2418e-21
-1.10642e-21
-6.71509e-22
-5.11385e-21
-4.67209e-21
-1.77026e-21
-7.28172e-24
-7.80486e-23
-1.66595e-21
-6.31372e-22
-1.50501e-21
4.3758e-22
4.9369e-22
-2.12267e-21
-2.51253e-21
-2.11537e-21
1.4136e-21
2.51575e-21
3.21313e-21
1.94622e-21
-1.7044e-21
-3.84678e-21
-6.94876e-21
-4.74513e-21
-6.34486e-22
1.47974e-22
-3.79742e-22
-6.47863e-22
4.97187e-23
1.44349e-21
3.12724e-22
-2.6121e-22
1.97368e-22
-5.47177e-22
-1.02259e-21
4.89995e-22
-9.44983e-22
9.49448e-22
1.115e-21
6.99837e-22
-7.23885e-22
-2.48012e-21
-1.98427e-21
-3.63326e-21
-4.8532e-21
-2.13048e-21
-1.68252e-21
-3.35517e-22
3.10773e-22
-6.71323e-22
-1.54019e-21
-4.22132e-22
-2.24078e-22
-4.77346e-22
-2.93935e-22
-3.2683e-21
-7.77891e-22
1.06613e-22
2.43817e-21
3.12325e-21
1.01627e-21
-3.36393e-21
-6.98033e-21
-2.52133e-21
-5.7622e-22
-9.58458e-22
-9.11835e-22
-1.11457e-21
1.12316e-21
1.09026e-21
-2.11893e-22
5.23438e-22
2.30149e-23
3.75284e-22
1.76421e-21
-1.50531e-21
-1.84551e-21
-5.30233e-22
6.05453e-22
-3.23768e-21
-4.71214e-21
-3.38344e-21
-4.08457e-21
-2.14783e-21
-3.58628e-21
-2.21591e-21
-1.79186e-21
-1.59298e-21
-5.43616e-22
2.27906e-22
-1.90071e-21
-1.48536e-21
-1.66768e-22
-1.32477e-21
-2.45653e-21
-1.92309e-21
-1.27234e-21
5.43984e-22
3.19348e-21
3.22642e-21
2.30332e-21
-4.13458e-21
-7.22317e-21
-2.11131e-21
-4.05777e-22
-7.97019e-22
8.39908e-23
1.45444e-22
7.15134e-23
-9.58331e-22
-2.81484e-22
2.25648e-22
1.34438e-21
1.59519e-21
6.54854e-22
4.21335e-23
-1.90564e-21
-2.17827e-21
-1.71508e-22
-6.60986e-21
-5.00879e-21
-3.42374e-21
-2.82973e-21
-2.77182e-21
-1.90577e-21
-1.78799e-21
-1.16131e-21
-1.70315e-21
-2.60987e-21
-1.71787e-21
-2.27326e-21
6.54956e-22
1.10711e-21
-2.78371e-21
-5.11331e-21
-4.80498e-21
5.20488e-22
3.25485e-21
2.99225e-21
3.26185e-21
-2.79085e-22
-4.32261e-21
-4.75158e-21
-3.18495e-22
2.46318e-22
-4.59198e-22
-2.47639e-21
-6.6731e-23
7.10443e-22
-2.82978e-22
-1.99015e-22
2.44218e-22
4.57453e-22
-4.77709e-22
7.83303e-22
9.3243e-24
1.7399e-22
-1.77154e-21
4.24516e-22
-2.4269e-21
-2.76368e-21
-1.67007e-21
-2.27375e-21
-2.64503e-21
-2.62124e-21
-2.17528e-21
-1.86276e-21
-2.06433e-21
-1.27987e-21
-7.04115e-22
-2.36252e-21
-4.29376e-22
1.30813e-21
-2.17138e-21
-6.47874e-21
-4.40252e-21
8.17646e-22
4.12157e-21
4.1808e-21
3.45424e-21
-8.09118e-22
-7.89078e-21
-4.41165e-21
-1.63683e-21
-9.05198e-23
-1.79808e-21
-1.53508e-21
6.85662e-22
2.18254e-22
-1.31718e-23
3.31444e-24
6.0872e-22
5.60037e-22
-7.33126e-22
5.3901e-22
9.03933e-23
-2.12553e-21
-1.34501e-21
5.81996e-22
-2.18546e-21
-3.35004e-21
-1.74279e-21
-3.59578e-21
-3.23867e-21
-3.02909e-21
-1.88445e-21
-1.4226e-21
-3.19411e-21
-1.91167e-21
-8.5342e-22
-1.52388e-21
-1.2372e-21
-9.94404e-22
-1.68335e-21
-2.95721e-21
-1.44094e-21
1.52898e-21
4.81422e-21
3.23811e-21
1.93362e-21
-1.8016e-21
-7.26016e-21
-4.73815e-21
-2.81923e-21
-1.54898e-21
-1.23483e-21
3.83379e-22
4.24275e-22
-1.1878e-21
-2.91052e-21
8.11987e-22
2.2941e-21
7.04513e-22
6.31408e-22
5.71702e-22
8.85613e-22
-2.77846e-21
-3.7118e-21
-4.09049e-22
-2.53344e-21
-3.44697e-21
-3.81015e-21
-3.46583e-21
-3.2324e-21
-8.1575e-22
-2.3091e-22
-5.04494e-21
-2.60158e-21
-1.75064e-21
-2.11103e-21
-2.40133e-21
-3.2253e-21
-2.46735e-21
-1.40631e-21
-2.4752e-21
-9.77477e-22
2.13855e-21
3.73561e-21
5.03204e-21
5.62965e-22
-3.0439e-21
-5.59747e-21
-4.71405e-21
-2.9448e-21
-8.69678e-22
-2.18571e-22
3.95972e-22
1.03333e-21
-8.57739e-22
-2.70656e-21
-5.80524e-22
1.73794e-21
-4.41877e-22
6.85854e-22
1.07487e-21
-6.06628e-22
-2.64325e-21
-2.3904e-21
-5.20457e-22
-1.05754e-20
-6.89661e-21
-1.63235e-21
-3.74047e-21
-3.60749e-21
-1.07759e-21
-1.09908e-21
-2.95295e-21
-2.2528e-21
-4.36852e-21
-3.01402e-21
-3.48051e-21
-1.46294e-21
-1.54437e-22
-2.86772e-21
-4.73631e-21
-2.78903e-21
3.39048e-21
3.08217e-21
3.19095e-21
1.27404e-21
-4.65493e-21
-5.83181e-21
-4.49026e-21
-1.12491e-21
-1.11782e-21
1.62039e-21
1.72756e-21
-3.54413e-22
-1.35023e-21
-4.86385e-22
-1.41931e-21
-1.86721e-21
4.24371e-22
1.32662e-21
7.75953e-22
4.81241e-22
-1.16354e-21
-1.39534e-22
-3.56523e-23
-3.71122e-21
-5.02542e-21
-5.6157e-21
-4.473e-21
-2.61857e-21
-2.84514e-21
-1.94222e-21
-3.4109e-21
-2.09924e-21
-1.12906e-21
-2.4695e-21
-3.52307e-21
-1.51169e-21
1.60925e-22
-3.43734e-21
-3.89083e-21
-2.25889e-21
7.07324e-22
2.81872e-21
4.22732e-21
2.50077e-21
-3.8025e-21
-7.17546e-21
-2.61005e-21
-2.42097e-21
-4.60373e-22
1.23697e-21
2.49546e-21
-2.49302e-21
-1.53452e-21
-1.01528e-21
-1.30663e-21
-8.19371e-22
-2.10125e-22
7.99176e-22
1.49195e-22
-1.57071e-21
-1.5286e-22
4.83525e-22
-5.51177e-22
-3.24806e-21
-5.77093e-21
-6.06906e-21
-6.21174e-21
-3.14225e-21
-4.25386e-21
-4.624e-21
-1.04747e-21
-2.52934e-21
-2.71293e-21
-2.25364e-21
-2.22926e-21
-1.14994e-21
-2.04723e-22
-2.7856e-21
-3.72881e-21
5.92388e-23
1.7715e-21
4.10217e-21
2.90107e-21
-1.62731e-21
-7.08328e-21
-4.36853e-21
-3.2584e-21
-3.09395e-21
-1.57317e-21
9.72477e-22
3.03574e-21
-3.68428e-22
-1.71754e-21
2.94807e-23
-3.03971e-21
-8.10116e-22
9.76095e-22
-1.12895e-21
-6.54709e-22
-7.52045e-23
7.06123e-22
8.41228e-22
1.03405e-21
-4.08359e-21
-7.77506e-21
-7.4229e-21
-5.75311e-21
-2.08863e-21
-4.29068e-21
-4.27828e-21
-2.57712e-21
-7.31826e-22
-1.07126e-21
-2.13924e-21
-3.51863e-21
-3.36565e-21
-2.14921e-21
-1.78198e-21
-2.1943e-21
-1.02541e-21
1.4038e-21
2.57002e-21
4.76627e-21
-2.76983e-21
-6.7365e-21
-4.40439e-21
-5.12609e-21
-6.33311e-22
-1.80133e-23
9.07639e-22
2.30973e-21
1.46652e-22
-8.53493e-22
-6.90232e-22
-2.37778e-21
-7.70618e-22
1.9013e-21
-1.94297e-21
-1.83457e-21
6.89126e-22
2.88254e-21
1.39092e-21
-2.05633e-21
-7.56443e-21
-8.68258e-21
-7.42703e-21
-5.23262e-21
-3.91883e-21
-3.64349e-21
-3.0324e-21
-2.08382e-21
-1.14185e-21
-1.57902e-21
-2.61833e-21
-2.56621e-21
-2.77736e-21
-3.04729e-21
-3.29083e-21
-1.38611e-21
-6.67749e-22
1.31492e-21
2.16901e-21
2.11944e-21
-2.11253e-21
-4.73198e-21
-2.49186e-21
-1.9142e-21
-1.23101e-21
1.21313e-21
1.39816e-21
1.0393e-21
7.07337e-23
-5.90726e-22
-1.94353e-21
-8.56073e-22
1.58155e-21
1.79746e-21
-1.23457e-21
-6.21898e-22
-9.07016e-23
-5.59439e-22
-8.13897e-22
-9.0199e-22
-7.9674e-21
-8.86321e-21
-8.07231e-21
-5.6482e-21
-4.30786e-21
-2.99711e-21
-3.371e-21
-1.19723e-21
-3.42662e-21
-5.775e-21
-3.31746e-21
-5.59613e-22
-2.48173e-21
-5.24447e-21
-2.53545e-21
-6.9233e-22
1.58783e-22
2.88213e-21
3.77763e-21
3.84239e-21
-3.43627e-21
-6.85867e-21
-3.63993e-21
-2.43272e-21
4.74116e-22
1.04547e-21
1.68789e-21
5.02388e-22
-3.21264e-22
-1.17982e-22
-1.28586e-21
1.16477e-21
1.20066e-21
1.12457e-22
-1.80631e-21
1.16059e-22
6.18371e-22
3.54395e-22
-1.13436e-21
5.16512e-22
-5.91871e-21
-8.70147e-21
-9.19185e-21
-5.16814e-21
-2.16349e-21
-4.60285e-21
-3.97787e-21
-3.67164e-21
-3.80404e-21
-4.0376e-21
-3.20065e-21
-1.85249e-21
-1.90893e-21
-2.70209e-21
-2.34206e-21
-1.57334e-21
6.7862e-22
1.17494e-21
9.15419e-22
3.6446e-21
-2.17683e-21
-4.29285e-21
-2.53594e-21
-1.91846e-21
1.9864e-21
1.97116e-21
3.37252e-22
-7.87829e-22
-1.16697e-21
-5.09456e-22
-1.28781e-21
9.38815e-22
1.74664e-21
6.11249e-22
-6.80627e-22
-1.75752e-21
1.24836e-21
1.98748e-21
9.46773e-23
1.83527e-21
-7.88897e-21
-1.02132e-20
-7.87413e-21
-4.21353e-21
-3.60657e-21
-3.55185e-21
-4.09557e-21
-4.76951e-21
-4.37339e-21
-1.87857e-21
-4.00518e-21
-1.76068e-21
-2.26895e-21
-1.34581e-21
-1.24897e-21
-1.47443e-21
1.26447e-22
2.6056e-21
4.84264e-21
1.97886e-21
-3.43134e-21
-5.15144e-21
-2.75289e-21
1.25238e-21
7.36724e-22
-2.17619e-22
8.34008e-22
-2.00252e-21
-1.34476e-21
6.7585e-22
-5.18943e-22
2.25765e-22
2.05388e-21
6.2626e-22
-8.85074e-22
-5.60481e-22
-4.74914e-22
-7.65694e-22
5.38911e-22
1.99276e-21
-7.58106e-21
-9.81315e-21
-1.01124e-20
-2.58758e-21
-1.08164e-21
-2.8213e-21
-4.52915e-21
-6.44932e-21
-4.52928e-21
-2.68155e-21
-3.00957e-21
-3.23319e-22
-1.36404e-21
-8.51726e-22
-1.70314e-21
-2.70245e-22
1.22399e-23
1.60962e-21
7.3518e-22
-3.61038e-22
-4.00845e-21
-2.34883e-21
1.38818e-22
6.17239e-22
-5.79723e-23
1.86091e-21
7.93802e-22
-9.22976e-22
6.46701e-22
-1.30646e-21
-1.75798e-21
3.0057e-22
2.38176e-21
1.30756e-21
-4.13136e-22
-1.79903e-22
-1.40827e-21
-1.1403e-21
3.41635e-22
-3.58809e-22
-5.63145e-21
-9.15016e-21
-1.09792e-20
-4.88835e-21
-2.10319e-21
5.90974e-23
-4.03118e-21
-7.42038e-21
-3.54731e-21
-2.44458e-21
-2.1881e-21
-5.19856e-22
3.67617e-22
-8.49044e-22
-4.16886e-21
-7.19762e-23
1.11135e-21
8.54979e-22
1.45202e-21
-1.13372e-21
-5.11624e-21
-5.46057e-21
6.78864e-22
1.63459e-21
3.95179e-22
1.62597e-21
1.89124e-21
1.16252e-21
-1.17601e-21
2.64032e-23
1.40785e-21
-5.71324e-22
8.90172e-22
7.21046e-23
-1.01419e-21
-2.24225e-21
-4.78817e-22
-4.26755e-22
-8.75793e-24
-2.29285e-22
-4.29313e-21
-6.88601e-21
-7.87658e-21
-5.76961e-21
-4.47194e-21
-2.02157e-21
-2.99354e-21
-2.75107e-21
-2.47975e-21
-3.20866e-21
-2.56953e-21
-1.55016e-21
1.88296e-21
1.31547e-21
-2.5589e-21
-2.41592e-21
5.41921e-22
-3.1246e-21
-3.29047e-21
-2.57097e-21
-2.28198e-21
-1.18173e-21
-8.7314e-22
1.87666e-22
1.54214e-21
1.07064e-21
2.75621e-21
3.95878e-21
1.99413e-21
1.36002e-23
-1.19776e-21
-5.44431e-22
1.85315e-21
-1.74505e-22
-3.60816e-21
-7.43289e-22
6.76969e-22
-1.49908e-22
-6.59776e-22
-6.93244e-22
-3.35661e-21
-6.95275e-21
-8.60784e-21
-5.4633e-21
-3.28008e-21
-2.3815e-21
-2.77132e-21
-3.57921e-21
-1.13899e-21
-1.75611e-21
-2.17258e-21
-2.09112e-22
-8.61273e-23
-9.38419e-22
-6.2616e-22
-2.18979e-22
-2.84141e-22
-2.56699e-21
-5.42117e-21
-1.73459e-21
-2.79956e-21
-3.00902e-21
-1.25934e-21
-1.93111e-22
1.86378e-21
2.42686e-21
-9.90626e-22
2.5103e-21
2.71795e-21
9.86728e-22
2.18327e-21
1.04231e-21
1.00589e-21
-1.41744e-21
-4.33981e-21
-1.5077e-22
-6.46539e-22
6.87299e-22
-5.95999e-22
-1.20354e-21
-5.90103e-21
-7.99951e-21
-8.47219e-21
-3.37829e-21
-3.12607e-21
-3.5799e-21
-2.4122e-21
-6.40408e-22
3.62813e-22
-2.95051e-21
-5.06219e-21
-2.55047e-21
-1.95155e-22
-1.16172e-21
-9.6122e-22
6.47379e-22
5.74762e-23
-4.21352e-22
-5.47985e-21
-1.55365e-21
-3.04568e-21
-3.4415e-21
-4.30994e-22
-9.84013e-22
-1.27335e-21
2.19771e-21
1.27901e-21
1.68469e-21
1.94843e-21
8.25548e-22
6.84802e-22
2.38354e-21
-8.65253e-22
-2.89204e-22
-1.5623e-21
-2.49756e-21
-1.79398e-21
-7.65863e-23
5.33541e-23
-7.6072e-22
-1.02974e-20
-9.51985e-21
-7.47872e-21
-2.53559e-21
-2.03907e-21
-3.8108e-21
-2.46509e-21
-2.10161e-21
1.22659e-22
-3.13919e-21
-4.38479e-21
-4.14056e-21
-4.21089e-22
-3.74211e-21
2.6563e-22
3.08595e-21
-9.89797e-22
-1.36243e-21
-2.58486e-21
-8.57449e-22
-3.68002e-21
-4.07507e-21
-6.15806e-22
-3.28169e-22
-7.08082e-22
1.45867e-21
2.38862e-21
-1.17776e-21
4.17865e-23
3.66949e-22
4.8349e-22
3.79286e-21
3.18479e-22
-1.54531e-21
-1.98132e-21
-3.88681e-21
-8.01256e-22
8.84418e-22
1.29003e-21
-1.56164e-22
-1.07016e-20
-9.28522e-21
-7.12915e-21
-3.60162e-21
-1.85682e-21
-5.10962e-21
-2.53884e-21
-2.88036e-21
-3.25088e-21
-4.64246e-21
-3.70286e-21
-2.47695e-21
-1.50381e-21
-9.72095e-22
2.40162e-21
5.82165e-22
-6.57171e-22
3.73275e-23
1.19131e-21
-1.06591e-21
-4.26398e-21
-3.07188e-21
-2.59784e-21
-5.91775e-21
-2.26439e-21
-4.00247e-24
2.32974e-21
1.01019e-21
4.93456e-22
3.7581e-22
-8.29139e-22
1.49202e-22
7.38109e-22
-1.43694e-22
1.03603e-21
-2.63644e-21
-1.10687e-21
1.68609e-21
9.19753e-22
-1.01914e-21
-6.66346e-21
-6.72601e-21
-8.01001e-21
-4.34599e-21
-1.58054e-21
-4.46598e-21
-5.2208e-21
-5.79919e-21
-1.43311e-21
-2.82825e-21
-4.55073e-21
-2.20227e-21
3.89316e-22
-7.38172e-22
-3.25679e-22
-2.29573e-22
-6.90784e-22
-3.87688e-22
1.05758e-21
3.99961e-22
-3.72979e-21
-3.0051e-21
-1.86389e-21
-3.0882e-21
-2.92545e-21
-1.56035e-21
1.19188e-21
2.228e-21
2.68452e-21
-2.65521e-21
-5.53931e-22
1.40468e-21
-8.7185e-22
-1.20152e-21
2.51773e-22
-1.28462e-22
-1.89316e-22
1.40916e-21
4.43847e-22
-9.61025e-22
-1.15527e-21
-3.46851e-21
-6.28985e-21
-6.02842e-21
-3.76245e-21
-3.69922e-21
-4.09275e-21
-4.35797e-21
-1.00133e-21
-2.52019e-21
-6.00031e-21
-2.17484e-21
-6.38207e-22
-1.5681e-21
-1.01025e-21
-4.27625e-23
-6.28682e-22
-3.26738e-22
1.97464e-21
2.1723e-21
-7.19025e-22
-3.60949e-21
-6.74864e-22
-5.35901e-21
-4.1726e-21
-2.05313e-21
-8.86701e-22
2.30952e-21
6.6625e-22
2.60188e-22
2.49821e-21
2.18702e-21
-2.44422e-21
-1.38347e-21
-2.57137e-21
1.0971e-22
1.26877e-21
3.40324e-22
5.78952e-23
5.51904e-22
-3.92893e-21
-4.02257e-21
-4.6291e-21
-4.83805e-21
-4.37825e-21
-2.20084e-21
-3.13027e-21
-3.39134e-21
-1.06683e-21
-7.16794e-22
-4.38559e-21
-2.48475e-21
-3.29223e-21
-5.22629e-21
3.77081e-22
1.69432e-21
4.59176e-22
-1.22819e-22
2.82152e-21
2.08719e-21
2.99589e-22
-1.54959e-21
-3.86364e-21
-5.97154e-21
-4.26435e-21
-3.19342e-21
1.31067e-21
1.01916e-21
-2.04711e-22
1.37499e-21
1.77588e-21
1.09797e-23
-1.50044e-21
1.04137e-21
2.40042e-22
1.66573e-22
-1.79473e-23
-1.80697e-21
6.5465e-22
1.83759e-21
-1.87182e-22
-1.32319e-21
-3.88914e-21
-6.35158e-21
-3.1058e-21
-3.55174e-21
-1.91908e-21
-2.47087e-21
-8.6053e-22
-1.48902e-21
-1.84935e-21
-1.5566e-21
-3.88101e-21
-4.32804e-21
-2.89618e-21
-9.59393e-22
-8.93868e-22
7.09361e-22
5.62225e-21
5.89062e-21
-1.39018e-21
-5.59813e-21
-3.79177e-21
-3.25028e-21
-3.59543e-21
-2.81979e-21
1.96673e-21
1.59362e-21
-1.91464e-21
-8.20688e-22
2.73146e-21
7.42739e-22
-5.59173e-22
-9.95078e-23
-3.33884e-23
-1.61988e-22
-7.35787e-22
-1.44994e-21
2.1517e-22
1.46584e-21
-1.87962e-21
-3.79434e-21
-3.93906e-21
-4.5637e-21
-9.86353e-22
-1.3613e-21
-1.6286e-21
-3.97999e-21
-2.42949e-21
-1.58011e-21
-9.9425e-22
-1.97216e-21
-1.6414e-21
-3.16128e-21
-4.48209e-21
-1.20944e-21
-1.09098e-21
1.39915e-21
5.27449e-21
5.79883e-21
-1.9189e-21
-4.67277e-21
-2.94976e-21
-5.17504e-21
-2.74445e-21
-6.4158e-22
1.62364e-21
-1.3687e-21
-2.06316e-21
-7.91876e-22
1.50807e-21
9.79164e-22
1.35761e-22
4.55708e-22
-1.08627e-21
-2.16353e-21
-8.55788e-22
-3.42317e-22
2.62342e-22
5.89867e-22
-2.51368e-21
-5.1954e-21
-4.7371e-21
-2.44886e-21
-1.32766e-21
-2.81208e-21
-3.43366e-21
-2.55656e-21
-2.4215e-21
-1.2453e-21
-1.98132e-21
-2.41585e-21
-1.29498e-21
-3.10525e-21
-1.94058e-21
-1.37191e-21
1.32479e-21
3.34976e-21
2.72385e-21
3.18837e-21
-1.95715e-21
-5.96128e-21
-3.48681e-21
-2.9696e-21
-1.90554e-21
-1.34899e-21
-1.79731e-22
-2.12974e-21
-1.11431e-21
-1.3732e-21
1.63531e-21
8.86596e-22
1.20157e-21
6.28841e-22
-1.16806e-21
-2.59013e-21
-2.26704e-22
5.83457e-22
5.17541e-22
1.07302e-21
-2.45698e-21
-4.25106e-21
-3.923e-21
-3.69204e-21
-2.66281e-21
-1.59098e-21
-2.93244e-21
-2.39075e-21
-1.92282e-21
-2.41501e-21
-2.73158e-21
-2.10297e-21
-1.51905e-22
-6.24303e-22
-2.15516e-21
-3.2561e-21
-2.04505e-21
8.43381e-22
4.36456e-21
4.8977e-21
-1.58393e-22
-6.25331e-21
-3.52875e-21
-2.73216e-21
-3.73022e-21
-3.71998e-21
-2.3846e-22
3.08245e-21
-6.6675e-22
3.63902e-22
3.46569e-22
-2.94896e-22
7.81251e-22
-1.37092e-23
-5.96049e-22
-2.00671e-21
-9.7641e-22
-1.68685e-21
1.43741e-21
1.1354e-21
-4.76473e-21
-4.08863e-21
-2.56346e-21
-3.77133e-21
-3.49279e-21
-2.7939e-21
-1.26275e-21
-2.78156e-21
-1.52983e-21
9.3578e-23
-6.16255e-22
-2.20039e-21
-1.39437e-21
7.5291e-22
1.23072e-23
-5.33974e-21
-2.41836e-21
7.88212e-22
2.55823e-21
2.639e-21
1.78808e-21
-3.11102e-21
-4.01858e-21
-2.1769e-21
-2.5657e-21
-2.79315e-21
-1.1741e-21
5.7203e-22
-9.25644e-23
-1.90877e-22
-5.85677e-22
3.9949e-23
9.79239e-22
1.67506e-22
-7.69351e-22
-3.24751e-22
-1.08105e-21
-8.55353e-22
-6.53909e-22
-1.49279e-22
-7.57898e-21
-5.50887e-21
-2.6178e-21
-4.51926e-21
-3.40345e-21
-2.02671e-21
-1.85401e-21
-3.05929e-21
-1.25732e-21
1.19672e-21
2.02349e-21
-4.39718e-21
-1.75033e-22
2.34576e-21
-1.28255e-21
-5.57863e-21
-4.62063e-22
2.17907e-21
8.65589e-22
6.83072e-22
1.68472e-21
-3.02991e-22
-5.08078e-21
-5.50453e-21
-2.46312e-21
-1.69294e-22
-2.08673e-23
2.6313e-22
5.49762e-22
9.67278e-22
-2.8893e-21
-1.72098e-21
2.04219e-21
4.03807e-22
-1.51563e-21
-1.57797e-21
-1.40564e-21
9.34917e-22
1.59908e-21
-2.64376e-22
-6.42507e-21
-3.83255e-21
-1.8489e-21
-3.28927e-21
-4.50462e-21
-1.44767e-21
-3.47152e-22
-3.58837e-21
-1.30558e-21
1.6622e-21
-9.66165e-22
-4.18164e-22
-5.71014e-22
2.28568e-21
-1.42895e-21
-4.29533e-21
-6.05566e-22
-8.25643e-22
3.68015e-21
1.97972e-21
1.20182e-22
-6.63334e-22
-3.76404e-21
-3.9253e-21
-6.21386e-21
-2.97013e-21
1.52277e-21
1.07818e-21
8.56815e-22
-1.76864e-21
-5.90199e-22
7.02806e-22
1.85384e-21
8.37191e-22
1.43034e-21
2.87451e-22
-2.41032e-21
-3.50323e-21
-1.50002e-21
-9.36114e-22
-5.25337e-21
-3.53985e-21
-1.91229e-21
-4.43175e-21
-3.02592e-21
-4.9965e-22
-1.1404e-21
-6.47923e-22
-1.58652e-21
-2.78985e-22
-9.28401e-22
-1.70691e-22
7.24055e-23
-4.84757e-23
-1.74736e-21
-2.32123e-21
-1.42343e-21
-9.36434e-22
9.26031e-22
2.90917e-21
3.08304e-21
-2.30498e-21
-2.06856e-21
-4.78368e-21
-4.06612e-21
-4.98219e-22
-4.74249e-22
-7.53298e-22
3.76838e-22
-1.43616e-21
-3.32902e-22
2.50351e-21
1.91663e-21
1.83951e-21
9.0069e-22
-1.60493e-21
-2.5132e-21
2.51909e-22
-1.733e-21
-2.33078e-21
-4.89013e-21
-2.95541e-21
-1.57997e-21
-1.79065e-21
-1.35978e-21
-3.94746e-21
-2.54366e-21
-9.484e-22
-2.56215e-21
-1.24909e-21
-1.47492e-22
-1.11202e-21
2.67743e-21
3.05902e-21
-1.3893e-21
-4.9157e-21
-4.66666e-21
-1.27066e-21
3.08812e-21
2.93578e-21
2.32121e-21
-2.83886e-21
-2.62174e-21
-2.57639e-21
-1.81033e-21
-6.35831e-22
-2.00593e-21
-3.97561e-21
-6.08746e-22
-4.69077e-22
1.61696e-21
2.92124e-21
9.5428e-22
-2.52464e-22
-2.90082e-22
-2.21916e-21
-1.2988e-21
2.08511e-21
8.45802e-22
-4.33397e-22
-2.94148e-21
-2.43489e-21
-1.11419e-21
-2.99815e-22
-1.48675e-21
-4.20577e-21
-2.97791e-21
-1.04681e-21
-1.5811e-21
-1.49464e-21
-1.32798e-21
-5.05413e-22
7.86207e-22
1.42253e-21
2.06594e-22
-3.09052e-21
-3.10868e-21
2.96576e-22
3.16197e-21
2.85405e-21
1.05191e-21
-4.95162e-21
-3.39974e-21
-1.66411e-21
-1.0659e-22
-3.08412e-22
-5.83645e-22
-1.13865e-21
-1.57277e-21
-4.70501e-22
-1.73779e-22
1.46202e-21
2.87669e-22
8.80829e-22
2.11872e-21
-2.19646e-21
-5.17074e-22
1.31148e-21
-3.72624e-22
-1.73108e-21
-3.48889e-21
-2.93278e-21
1.2323e-22
-2.05127e-21
-1.34124e-21
-3.30716e-21
-2.60269e-21
-3.18751e-21
-1.69098e-21
-7.2775e-22
-1.31756e-21
8.52257e-23
2.76901e-22
-6.65602e-22
-1.73398e-21
-8.09928e-22
-1.24292e-21
1.76562e-21
3.50777e-21
1.85375e-21
1.38457e-21
-3.81503e-21
-2.01817e-21
-2.05666e-21
-2.00206e-21
-1.03478e-21
-5.49679e-22
8.85382e-22
5.63386e-22
-2.17807e-21
-2.50625e-21
5.29353e-22
1.16858e-21
1.59519e-21
1.47013e-22
-9.99714e-22
1.79049e-21
1.36368e-21
-8.75664e-22
-1.19351e-21
-5.35916e-21
-2.70831e-21
-7.91523e-22
-1.09136e-21
-2.51813e-21
-4.23051e-21
-2.68497e-21
-2.25862e-21
-1.28529e-21
-1.58177e-21
-4.41507e-22
7.22838e-22
8.079e-22
-9.52626e-22
-9.33448e-22
8.38694e-22
8.14593e-23
4.0514e-22
2.91061e-21
4.22827e-21
5.73246e-22
-3.13351e-21
-2.9699e-21
-3.74433e-21
-5.01672e-22
-3.92035e-22
-1.49235e-21
-7.72531e-23
8.06712e-22
-1.66246e-21
-3.20145e-21
-7.11249e-22
5.4992e-23
1.56914e-21
8.14307e-22
1.30302e-22
7.4249e-22
3.23979e-21
4.39707e-22
-1.63707e-21
-2.71229e-21
-1.67693e-22
-1.40117e-21
-3.1718e-21
-3.08204e-21
-3.54491e-21
-2.18253e-21
-1.30832e-21
-3.91712e-22
-1.53017e-21
5.96834e-23
2.62585e-21
1.15342e-21
-1.45391e-21
-2.41076e-21
-5.0937e-22
1.58573e-22
1.48265e-21
1.22674e-21
1.36742e-21
2.29224e-21
4.04661e-23
-2.88135e-21
-1.92666e-21
-3.66875e-21
-6.27671e-22
8.24458e-22
1.66074e-21
-1.76465e-21
-3.70982e-21
-9.85081e-22
-1.26486e-21
-3.87068e-22
1.24176e-21
1.45342e-21
-5.42653e-22
-3.63405e-22
1.6037e-21
1.62625e-21
-1.18186e-21
-5.14021e-21
-1.30826e-21
-1.36978e-21
8.23066e-22
7.50938e-22
-1.48897e-21
-3.64424e-21
-2.195e-21
-7.84292e-22
-1.07198e-21
3.03071e-22
1.77692e-21
2.12621e-22
-8.09946e-22
-2.40037e-21
-1.90896e-21
-1.39166e-22
7.9254e-22
1.75817e-21
1.30798e-21
1.08381e-21
-4.84631e-22
-8.11368e-22
-1.58438e-21
-1.25628e-21
-3.51159e-22
-1.45196e-22
1.02114e-21
-2.40283e-22
9.09907e-24
-1.47938e-21
-4.59332e-22
-9.76751e-22
-2.49288e-22
8.78046e-22
-1.56798e-21
-1.56799e-21
-3.47745e-22
7.72059e-22
1.18212e-22
1.54347e-21
3.86399e-22
-5.09705e-21
-3.1357e-21
-5.16057e-22
-4.39721e-21
-1.72827e-21
7.51807e-22
-1.11374e-22
4.90906e-22
-1.42142e-21
-2.17674e-21
-1.02783e-21
-1.1284e-22
-6.69687e-22
-2.51786e-21
-1.61435e-21
5.82083e-23
3.23641e-21
2.81561e-21
-9.72903e-22
-3.07631e-21
-2.21857e-21
-1.79656e-21
-3.17621e-21
-1.76361e-21
-1.30695e-21
-1.29258e-21
-1.54187e-21
-2.08231e-21
-9.13077e-22
4.4422e-23
-2.47201e-21
2.41812e-21
2.17879e-21
-2.55192e-22
4.70679e-22
-8.92973e-22
-9.55403e-22
4.92519e-22
-6.63819e-22
-2.49893e-21
-4.40387e-21
-5.41687e-21
4.61917e-22
-2.65355e-21
-2.62466e-21
-1.15438e-21
-1.4047e-21
-1.06598e-21
-2.26626e-21
-1.80485e-21
-2.93691e-22
-1.86871e-21
-1.88191e-21
-2.11838e-22
3.50037e-22
-1.32521e-21
2.14222e-21
4.24137e-21
6.01396e-23
-3.08417e-21
-2.89613e-21
-3.44912e-21
-2.84271e-21
-1.7346e-21
1.36408e-21
-1.07197e-21
-4.65213e-21
-2.643e-21
1.01427e-21
1.07002e-21
-2.56457e-21
9.49627e-22
1.40555e-21
-2.10163e-21
-3.6709e-22
7.47188e-22
2.24164e-22
6.05248e-24
-8.09541e-22
-2.57332e-21
-3.02652e-21
-3.15345e-21
-2.2231e-21
-2.40393e-21
-1.52254e-21
-5.7816e-21
-2.13719e-21
1.07524e-21
-1.22306e-21
-1.99845e-21
-5.9104e-23
-3.01207e-22
-8.61864e-22
-1.93942e-21
-1.45454e-21
-1.02504e-21
2.12503e-21
5.36588e-21
-5.27286e-22
-1.5366e-21
-1.99195e-21
-3.19149e-21
-3.17293e-21
1.03382e-21
3.50332e-22
-4.42596e-21
-2.78124e-21
-1.61458e-21
-8.74444e-22
-1.52427e-21
-2.56532e-22
1.29803e-21
-8.35844e-22
-6.20527e-22
5.11748e-22
7.41305e-22
-6.74479e-22
-1.47891e-22
-5.17104e-21
-5.8565e-21
-3.39201e-21
-3.69772e-21
-3.44716e-21
-3.64805e-21
-2.86741e-21
-1.77172e-21
-2.95409e-21
9.64186e-22
2.09363e-22
-3.17665e-21
-1.41772e-21
-8.74139e-23
-7.55301e-22
-2.5444e-21
-1.68824e-21
-1.79986e-21
1.72539e-21
5.18184e-21
-6.7591e-22
-5.1237e-22
-4.37906e-21
-4.4234e-21
-1.71211e-21
4.00406e-22
-6.38998e-22
1.0761e-21
-8.05244e-22
-2.41567e-21
-1.71282e-21
-1.41384e-21
9.43422e-23
-3.03695e-22
1.12383e-21
3.17964e-22
5.01614e-22
-5.39346e-23
-1.70203e-21
-3.41964e-22
-6.32873e-21
-6.3799e-21
-3.43175e-21
-3.13134e-21
-4.56832e-21
-3.71035e-21
-1.99209e-21
-1.14244e-21
-1.00755e-21
-1.66776e-21
-1.70752e-21
-2.90985e-21
-5.71514e-22
-1.06234e-22
-2.26315e-21
-4.18755e-21
-2.08e-21
-9.99118e-22
3.32272e-21
3.79204e-21
1.25328e-21
-2.05463e-21
-3.08736e-21
-3.31267e-21
-8.63113e-23
5.34229e-22
-1.82945e-21
-2.32204e-21
-6.78418e-22
4.36053e-22
1.44568e-22
-1.23216e-21
-6.96318e-22
-2.9347e-22
1.23037e-22
2.89361e-22
1.71502e-21
-2.45452e-22
-1.14782e-21
-1.19492e-21
-5.13796e-21
-5.09754e-21
-2.50177e-21
-2.76614e-21
-4.64666e-21
-3.86572e-21
-1.80956e-21
-2.54742e-21
-2.33054e-21
-2.91156e-21
-1.97993e-21
-3.44798e-21
2.11191e-22
2.66469e-22
-2.91094e-21
-4.03222e-21
-2.19482e-21
-3.5784e-22
2.91974e-21
3.20737e-21
6.91855e-22
-2.49361e-21
-4.05052e-21
-2.47593e-21
-1.53187e-21
-3.45436e-22
-7.96725e-23
-1.19856e-21
-6.6939e-22
-9.0251e-22
-2.53666e-21
9.82369e-23
6.84833e-22
1.84473e-21
5.4756e-22
-9.86252e-24
-3.20452e-22
-2.79916e-21
-1.89156e-21
-2.19763e-22
-5.61023e-21
-7.19796e-21
-2.66577e-21
-5.1527e-21
-6.63954e-21
-2.29812e-21
-2.89226e-21
-1.73813e-21
-2.9904e-21
-4.67192e-21
-3.50731e-21
-7.84181e-22
8.38091e-22
6.51812e-22
-2.6922e-21
-3.824e-21
-2.32659e-21
2.30364e-22
2.73409e-21
2.04999e-21
4.9912e-22
-1.11198e-21
-2.88516e-21
-4.05011e-21
-3.23646e-21
-1.49181e-21
-1.6558e-21
-1.31245e-21
1.36146e-21
1.55425e-21
-3.51039e-21
4.47157e-22
1.8475e-21
1.91933e-21
2.20371e-21
-1.72959e-22
-1.94511e-22
-2.89884e-21
-4.28235e-21
6.67323e-22
-4.68036e-21
-6.30039e-21
-4.96203e-21
-6.14557e-21
-4.69611e-21
-2.42513e-21
-3.43668e-21
-3.4704e-21
-2.92257e-21
-1.89751e-21
-4.37679e-21
-3.2597e-21
-1.31894e-21
9.51758e-22
-1.44738e-21
-3.27747e-21
-1.49194e-21
5.04985e-22
2.71338e-21
1.82557e-21
4.35434e-22
-3.35214e-21
-5.2355e-21
-4.11117e-21
-3.13922e-21
2.26204e-22
7.63284e-22
-2.35423e-22
2.53065e-22
-6.0139e-22
-2.93348e-21
6.60599e-22
1.0379e-21
1.51202e-21
1.55936e-21
-1.1963e-22
1.02391e-21
2.68351e-22
-3.94146e-21
-1.67181e-21
-6.91477e-21
-7.75748e-21
-5.25176e-21
-5.79638e-21
-7.40247e-21
-3.2211e-21
-3.9947e-21
-1.94282e-21
-1.8835e-21
-3.52569e-21
-4.48487e-21
-5.27186e-21
-1.76373e-21
-2.74478e-22
-1.49368e-21
-2.76845e-21
-2.40451e-21
-2.15106e-22
1.60485e-21
5.06865e-22
6.02005e-22
-2.13941e-21
-4.90675e-21
-7.45633e-21
-2.3767e-21
2.47968e-21
5.07829e-22
-3.25185e-22
2.31012e-21
2.27252e-22
-2.10735e-21
-2.27437e-21
-1.05346e-21
2.08313e-21
2.80295e-21
1.08771e-21
2.8308e-22
1.63561e-23
-1.47034e-21
-1.76112e-21
-7.95508e-21
-6.75725e-21
-6.68412e-21
-7.08012e-21
-6.40021e-21
-4.42171e-21
-4.06031e-21
-3.11655e-21
-1.44488e-21
-2.50535e-21
-4.12946e-21
-5.04537e-21
-2.32078e-21
7.06632e-22
-3.68326e-21
-2.64093e-21
-1.99564e-21
-6.67655e-22
1.06935e-21
2.57314e-21
-1.15279e-21
-4.48354e-21
-5.06897e-21
-5.9712e-21
-2.0933e-21
1.60005e-21
3.55849e-21
-5.39227e-22
-4.77774e-22
-8.11391e-22
-1.53452e-21
-4.36561e-22
-6.5889e-22
2.92349e-21
2.22578e-21
-5.14596e-22
-1.07832e-21
-1.62402e-21
-1.63818e-21
-1.22313e-21
-7.88008e-21
-1.06616e-20
-7.89385e-21
-8.38355e-21
-6.57414e-21
-2.34332e-21
-7.49032e-21
-3.27465e-21
-2.87477e-21
-2.9992e-21
-3.63199e-21
-3.39065e-21
-3.53003e-21
4.71333e-22
-5.21773e-21
-3.85664e-21
2.15993e-22
-8.6895e-23
1.14684e-21
3.20505e-21
-4.48504e-21
-4.49225e-21
-5.06042e-21
-6.06861e-21
-3.21487e-21
8.85645e-22
3.12205e-21
1.66084e-21
-3.8814e-22
-7.04438e-22
-4.4872e-22
-8.94611e-22
7.63156e-22
1.56942e-21
1.3722e-21
1.39024e-22
-1.07277e-21
-1.13395e-21
-2.28897e-21
-8.35419e-22
-9.14807e-21
-1.28879e-20
-8.82466e-21
-8.96635e-21
-5.76105e-21
-3.39052e-21
-6.2713e-21
-2.21604e-21
-1.66471e-21
-4.87103e-21
-3.81869e-21
-3.83717e-21
-2.97743e-21
-2.0517e-21
-5.38255e-21
-4.10503e-21
-2.90882e-22
6.08476e-22
7.59297e-22
1.28349e-21
-3.49143e-21
-5.25696e-21
-4.46952e-21
-3.45636e-21
-2.61901e-21
3.87085e-22
2.11464e-21
3.36853e-21
1.67534e-21
-2.5636e-21
5.55881e-22
-8.04005e-22
-1.35506e-21
9.64792e-22
7.40575e-23
-4.07551e-22
1.48949e-21
1.18522e-21
-1.59203e-21
-2.3213e-21
-1.14087e-20
-1.1435e-20
-9.36754e-21
-8.95809e-21
-7.22249e-21
-6.46154e-21
-2.48295e-21
-2.45892e-21
-2.72292e-21
-3.22424e-21
-3.18752e-21
-4.18275e-21
-3.55556e-21
-3.7047e-21
-4.1975e-21
-1.87923e-21
6.92363e-22
5.97078e-22
-1.0716e-21
-1.25637e-21
-4.0485e-21
-3.08489e-21
-2.36963e-21
-1.20428e-21
-6.3073e-22
9.89549e-22
1.13198e-21
2.13997e-21
7.2848e-22
9.96698e-22
-8.66907e-22
1.01211e-22
6.76818e-22
5.8022e-22
-2.14444e-21
-8.5e-22
1.90899e-21
-1.54467e-22
-3.53278e-21
-6.8175e-23
-1.4371e-20
-1.40581e-20
-1.10663e-20
-8.13506e-21
-7.12145e-21
-5.40226e-21
-4.9186e-21
-1.80606e-21
-3.79436e-21
-4.95994e-21
-5.07748e-21
-2.95521e-21
-4.64719e-21
-4.59486e-21
-3.35805e-21
-2.72954e-21
1.42852e-21
1.43807e-21
1.77115e-21
2.31349e-21
-4.96146e-21
-4.0661e-21
-1.4588e-21
-1.29039e-21
-1.03188e-21
2.38027e-22
1.56374e-21
3.04625e-21
3.95336e-22
8.78739e-22
4.18986e-22
1.41692e-21
-1.06776e-22
-2.90534e-22
-1.67445e-21
4.39579e-22
2.57732e-21
-1.07871e-21
-2.65161e-21
1.1104e-21
-1.61907e-20
-1.41439e-20
-1.08327e-20
-7.26197e-21
-6.35827e-21
-5.58791e-21
-5.68018e-21
-4.0172e-21
-5.31186e-21
-4.90591e-21
-4.96068e-21
-3.25822e-21
-4.8324e-21
-4.48829e-21
-3.22278e-21
-1.35897e-21
3.04592e-21
1.07956e-21
3.8502e-22
1.03511e-21
-3.35568e-21
-4.01074e-21
-1.34408e-21
1.03414e-21
1.75735e-21
6.32466e-22
5.91966e-22
1.02433e-21
-1.70367e-23
-1.50465e-22
-7.87599e-22
9.57472e-22
1.47037e-21
3.63074e-22
-2.18016e-21
-2.21475e-21
9.42265e-22
1.84743e-21
-2.73433e-22
8.94409e-22
-1.46339e-20
-1.33874e-20
-1.08674e-20
-9.66655e-21
-7.40066e-21
-7.02993e-21
-6.53188e-21
-5.82623e-21
-4.72412e-21
-4.17817e-21
-5.07484e-21
-3.185e-21
-5.87013e-21
-2.50143e-21
-9.74532e-22
-1.0603e-21
1.24668e-21
1.27914e-21
2.51417e-21
2.43089e-21
-4.71528e-21
-4.8484e-21
-2.53967e-21
1.05727e-21
1.5419e-21
6.55162e-22
1.59669e-21
1.67278e-21
-1.12294e-21
3.66112e-22
-3.85694e-22
1.12295e-21
2.03606e-21
6.60438e-22
-7.07573e-22
-3.79436e-21
-1.13153e-21
1.53052e-21
3.62899e-22
7.4168e-22
-1.3516e-20
-1.42329e-20
-9.39574e-21
-7.01862e-21
-6.56642e-21
-6.27952e-21
-7.50499e-21
-7.94021e-21
-4.37936e-21
-3.91649e-21
-4.5019e-21
-2.1763e-21
-5.71251e-21
-3.67653e-21
-1.58063e-21
1.60781e-21
7.23715e-22
4.33654e-22
-4.663e-22
-4.39811e-22
-4.21324e-21
-8.45907e-22
3.57197e-22
-6.50993e-22
9.63082e-22
1.18719e-21
2.56242e-21
1.38031e-21
-5.29319e-22
-4.06234e-23
-7.11574e-22
7.26249e-22
1.48952e-21
9.93148e-22
-2.27685e-21
-3.04555e-21
-4.12034e-22
1.48613e-21
1.17063e-21
1.21558e-21
-1.16083e-20
-1.38134e-20
-1.34665e-20
-8.81784e-21
-5.47885e-21
-6.39725e-21
-5.76346e-21
-4.42915e-21
-4.62454e-21
-6.12887e-21
-4.22176e-21
-1.89415e-21
-3.86017e-21
-3.32291e-21
-3.04193e-21
-5.23275e-22
-1.74506e-21
1.3603e-22
2.12547e-21
-1.81535e-21
-4.48175e-21
-3.78334e-21
-7.43824e-22
-6.13152e-22
-1.23161e-21
1.66702e-21
3.94743e-21
2.83933e-21
-4.39114e-22
6.57846e-22
2.49675e-21
8.77006e-22
-1.0163e-21
-1.12554e-22
-1.2066e-21
-1.5957e-21