/*--------------------------------*- C++ -*----------------------------------*\
| =========                 |                                                 |
| \\      /  F ield         | OpenFOAM: The Open Source CFD Toolbox           |
|  \\    /   O peration     | Version:  v2012                                 |
|   \\  /    A nd           | Website:  www.openfoam.com                      |
|    \\/     M anipulation  |                                                 |
\*---------------------------------------------------------------------------*/
FoamFile
{
    version     2.0;
    format      ascii;
    class       surfaceScalarField;
    location    "5";
    object      phi;
}
// * * * * * * * * * * * * * * * * * * * * * * * * * * * * * * * * * * * * * //

dimensions      [0 3 -1 0 0 0 0];
oriented        oriented;


internalField   nonuniform List<scalar> 
187200
(
1.875e-06
1.42545e-22
5.88819e-23
1.875e-06
2.12222e-22
4.35877e-23
1.875e-06
4.8973e-23
1.96908e-22
1.875e-06
-4.2849e-23
9.87426e-23
1.875e-06
7.92013e-23
-8.55581e-23
1.875e-06
1.06632e-22
5.65131e-23
1.875e-06
5.67173e-23
3.96333e-23
1.875e-06
3.39791e-23
4.86205e-23
1.875e-06
2.60709e-23
4.90309e-23
1.875e-06
1.74737e-22
1.31431e-22
1.875e-06
1.40274e-23
-2.2284e-23
1.875e-06
6.41818e-23
8.57814e-23
1.875e-06
5.17218e-23
8.64754e-23
1.875e-06
-5.01872e-23
-3.75181e-23
1.875e-06
7.19581e-24
5.83945e-23
1.875e-06
4.16073e-23
2.31635e-23
1.875e-06
5.2541e-23
2.61586e-23
1.875e-06
-3.24305e-23
3.4407e-23
1.875e-06
4.66977e-24
-1.16769e-22
1.875e-06
-8.20025e-24
-1.298e-22
1.875e-06
-2.65178e-22
-9.92481e-23
1.875e-06
-1.67284e-22
-2.04481e-23
1.875e-06
8.03417e-23
3.1026e-23
1.875e-06
2.51447e-22
3.9862e-23
1.875e-06
1.08927e-22
-1.74367e-23
1.875e-06
-1.40593e-23
2.42484e-23
1.875e-06
-8.64695e-23
6.79044e-23
1.875e-06
4.15617e-23
1.01647e-22
1.875e-06
-1.25602e-23
1.05828e-22
1.875e-06
-9.6755e-23
5.8124e-23
1.875e-06
-1.35795e-22
4.14708e-23
1.875e-06
-8.77777e-23
-3.49157e-23
1.875e-06
-1.14328e-22
2.37502e-23
1.875e-06
-9.10472e-23
-1.55381e-22
1.875e-06
3.35695e-23
-1.85091e-22
1.875e-06
4.03028e-23
-4.9286e-23
1.875e-06
-4.84926e-23
-4.93476e-23
1.875e-06
-7.73831e-24
1.50917e-24
1.875e-06
2.34911e-23
1.08401e-22
-3.94695e-23
2.62921e-23
1.875e-06
2.72804e-23
5.27268e-23
1.875e-06
-2.48605e-23
5.30002e-23
1.875e-06
1.0468e-22
2.26185e-22
1.875e-06
1.09016e-22
2.61099e-22
1.875e-06
-5.99245e-23
-1.27094e-22
1.875e-06
1.64328e-23
-7.88022e-23
1.875e-06
4.96164e-23
3.32688e-23
1.875e-06
1.24217e-22
1.21492e-22
1.875e-06
4.98963e-23
1.64118e-22
1.875e-06
-3.17574e-23
7.69896e-23
1.875e-06
-1.91967e-24
6.3953e-23
1.875e-06
-2.99175e-24
9.21325e-23
1.875e-06
7.28154e-23
8.22977e-23
1.875e-06
3.79348e-23
8.11213e-23
1.875e-06
-7.59499e-24
1.01609e-22
1.875e-06
-9.58213e-23
-4.64247e-23
1.875e-06
5.54609e-23
-3.61022e-23
1.875e-06
1.13612e-22
1.47131e-22
1.875e-06
1.29983e-22
-8.19113e-23
1.875e-06
3.87668e-23
-1.93625e-22
1.875e-06
-7.60147e-23
2.78215e-23
1.875e-06
-1.86182e-22
1.03957e-23
1.875e-06
-4.33809e-23
-1.01961e-23
1.875e-06
7.03094e-23
-1.02919e-22
1.875e-06
-7.91864e-23
-4.23194e-23
1.875e-06
-4.66464e-23
6.32945e-23
1.875e-06
5.60648e-23
8.25279e-24
1.875e-06
-6.15725e-24
6.01371e-23
1.875e-06
1.33876e-23
2.33083e-22
1.875e-06
-2.38508e-23
1.19976e-22
1.875e-06
-4.75144e-24
1.39718e-23
1.875e-06
-1.11086e-24
8.40962e-24
1.875e-06
-7.97912e-23
5.05857e-23
1.875e-06
-8.43868e-23
-6.62381e-23
1.875e-06
-1.14095e-22
-1.74093e-22
1.875e-06
-1.08268e-22
6.04309e-24
1.875e-06
3.68894e-23
-3.14996e-23
1.875e-06
2.45106e-23
-2.06296e-23
1.875e-06
8.49748e-23
6.59192e-23
6.9218e-23
8.18382e-23
1.875e-06
1.67917e-22
9.81066e-23
1.875e-06
1.78316e-22
1.58827e-22
1.875e-06
1.19261e-23
9.34577e-23
1.875e-06
1.03689e-22
1.18709e-22
1.875e-06
9.5456e-24
1.99142e-23
1.875e-06
-3.31022e-23
-4.79098e-23
1.875e-06
3.36992e-23
1.85592e-23
1.875e-06
2.97872e-23
2.3357e-22
1.875e-06
7.1402e-23
1.85292e-22
1.875e-06
8.2249e-23
6.06744e-23
1.875e-06
1.91388e-24
7.83077e-23
1.875e-06
2.63008e-23
9.87524e-23
1.875e-06
7.55156e-23
1.62723e-23
1.875e-06
1.58323e-23
4.92826e-23
1.875e-06
3.17499e-23
7.51892e-23
1.875e-06
9.15698e-23
1.13868e-22
1.875e-06
-5.05312e-24
2.31349e-24
1.875e-06
4.66053e-23
4.57517e-23
1.875e-06
-1.4063e-23
-1.45211e-22
1.875e-06
-8.776e-23
-1.93882e-22
1.875e-06
-4.35338e-23
2.01836e-23
1.875e-06
-1.90681e-23
1.43537e-22
1.875e-06
1.685e-23
1.76979e-23
1.875e-06
1.66129e-23
-1.15885e-22
1.875e-06
-8.45703e-24
6.4929e-23
1.875e-06
-1.54546e-23
-6.63088e-23
1.875e-06
-4.52543e-24
-1.95295e-23
1.875e-06
-1.10069e-23
1.74385e-22
1.875e-06
-7.90306e-24
1.50349e-22
1.875e-06
-3.57272e-23
1.49809e-22
1.875e-06
7.42544e-23
1.13523e-22
1.875e-06
8.77213e-24
8.13148e-23
1.875e-06
-4.7084e-23
-2.62903e-23
1.875e-06
-7.5073e-23
-6.21013e-23
1.875e-06
-6.65417e-23
-1.69923e-23
1.875e-06
-2.36312e-23
3.19333e-23
1.875e-06
-1.44981e-22
-1.44516e-22
1.875e-06
2.52926e-23
-1.5124e-22
1.875e-06
6.64282e-23
2.18514e-23
8.49193e-23
1.65396e-23
1.875e-06
1.58376e-22
8.45952e-23
1.875e-06
6.90169e-23
1.53546e-22
1.875e-06
2.53156e-23
1.09761e-22
1.875e-06
-4.77344e-23
4.49996e-23
1.875e-06
6.89798e-24
7.83532e-23
1.875e-06
-5.73207e-23
3.88997e-23
1.875e-06
1.79647e-24
1.32375e-22
1.875e-06
2.1062e-23
1.03837e-22
1.875e-06
4.0231e-23
1.329e-22
1.875e-06
1.00913e-22
9.25819e-23
1.875e-06
8.33461e-23
8.56943e-23
1.875e-06
2.2086e-23
1.23289e-22
1.875e-06
-5.55431e-23
1.20458e-22
1.875e-06
-3.96696e-23
1.04323e-22
1.875e-06
6.22896e-23
5.51137e-23
1.875e-06
1.0425e-22
7.41848e-23
1.875e-06
1.08604e-22
2.8243e-23
1.875e-06
-8.32624e-23
5.74348e-23
1.875e-06
-1.23576e-22
-2.09177e-22
1.875e-06
-3.74706e-23
-1.5634e-22
1.875e-06
-7.47385e-23
1.88613e-22
1.875e-06
1.16763e-22
1.37548e-22
1.875e-06
6.57989e-23
9.53095e-23
1.875e-06
-7.89924e-23
-4.46267e-23
1.875e-06
-9.78291e-23
4.90991e-23
1.875e-06
-2.09633e-23
2.62146e-24
1.875e-06
1.7827e-23
-1.06937e-24
1.875e-06
9.58937e-23
-2.60307e-23
1.875e-06
3.01938e-23
5.8843e-23
1.875e-06
5.03263e-23
1.53648e-22
1.875e-06
-1.60136e-23
1.63685e-23
1.875e-06
-3.59644e-23
8.20201e-23
1.875e-06
-4.57211e-23
1.02442e-23
1.875e-06
-1.0396e-23
-3.3202e-23
1.875e-06
6.45813e-24
-7.60656e-23
1.875e-06
-1.36162e-23
-8.86508e-23
1.875e-06
2.90102e-23
-4.80895e-23
1.875e-06
-8.36856e-23
-1.4136e-22
1.875e-06
-1.15625e-24
-4.12169e-23
-4.44382e-24
-2.01153e-23
1.875e-06
-1.29179e-22
2.21335e-23
1.875e-06
-4.87007e-23
1.56052e-22
1.875e-06
-4.08778e-23
9.78501e-23
1.875e-06
7.93069e-24
7.32799e-23
1.875e-06
3.95701e-23
1.70838e-22
1.875e-06
5.40162e-23
1.46519e-22
1.875e-06
1.80429e-23
1.17419e-22
1.875e-06
3.31177e-23
1.28997e-22
1.875e-06
3.61623e-23
1.27746e-22
1.875e-06
1.55561e-23
1.22366e-22
1.875e-06
7.09182e-24
1.16731e-22
1.875e-06
2.96667e-23
1.37795e-22
1.875e-06
4.02714e-23
1.46157e-22
1.875e-06
-1.24927e-23
1.47945e-22
1.875e-06
-7.08738e-24
1.00512e-22
1.875e-06
5.28459e-23
4.03877e-23
1.875e-06
-4.70867e-23
-1.39912e-22
1.875e-06
-7.49481e-23
9.95531e-23
1.875e-06
-1.32079e-22
-1.16931e-22
1.875e-06
-9.37518e-23
-9.94553e-23
1.875e-06
4.06807e-23
1.14392e-22
1.875e-06
3.23772e-23
1.15025e-22
1.875e-06
1.16767e-22
-4.34209e-24
1.875e-06
-1.63054e-23
-2.40069e-23
1.875e-06
7.64899e-23
1.03895e-22
1.875e-06
2.43667e-23
5.72099e-23
1.875e-06
9.22835e-23
7.0884e-23
1.875e-06
5.82411e-24
1.93559e-23
1.875e-06
-1.05381e-23
4.09932e-23
1.875e-06
3.54691e-23
2.68043e-23
1.875e-06
9.89485e-24
2.11424e-24
1.875e-06
-9.78948e-24
4.24722e-23
1.875e-06
-6.22905e-23
-4.47699e-23
1.875e-06
-5.74035e-23
-1.2173e-22
1.875e-06
-2.61121e-23
-1.58684e-22
1.875e-06
-3.58292e-23
-9.59e-23
1.875e-06
-5.20098e-24
-1.30864e-22
1.875e-06
8.97888e-23
-4.59457e-23
1.875e-06
1.5555e-23
-1.65352e-23
4.99237e-24
3.2357e-23
1.875e-06
-1.10003e-23
1.74883e-22
1.875e-06
3.13971e-23
2.00307e-22
1.875e-06
2.70399e-23
8.4534e-23
1.875e-06
9.84167e-23
1.15281e-22
1.875e-06
3.97081e-23
2.17308e-22
1.875e-06
3.11086e-23
1.50326e-22
1.875e-06
7.37789e-25
1.26658e-22
1.875e-06
4.5003e-24
2.12972e-22
1.875e-06
5.51136e-23
1.80619e-22
1.875e-06
2.94239e-23
1.49757e-22
1.875e-06
2.90633e-23
1.61404e-22
1.875e-06
2.86668e-23
1.64074e-22
1.875e-06
7.213e-23
9.61186e-23
1.875e-06
1.2346e-22
1.27632e-22
1.875e-06
2.69753e-24
1.52886e-22
1.875e-06
-1.27346e-22
3.40332e-23
1.875e-06
-1.20744e-22
-9.80723e-23
1.875e-06
-1.25447e-22
1.8658e-23
1.875e-06
-9.96695e-23
1.77693e-23
1.875e-06
3.71267e-23
3.60933e-23
1.875e-06
9.24432e-23
9.01972e-23
1.875e-06
7.10533e-23
7.83569e-23
1.875e-06
-1.61512e-23
-6.86099e-23
1.875e-06
6.01806e-24
-3.30773e-23
1.875e-06
6.38943e-23
6.65407e-23
1.875e-06
6.93722e-23
7.36633e-23
1.875e-06
-7.4631e-24
-1.034e-23
1.875e-06
-1.18418e-22
-3.73422e-23
1.875e-06
-1.78428e-24
5.49714e-23
1.875e-06
6.22689e-23
1.36632e-22
1.875e-06
1.3823e-22
1.174e-22
1.875e-06
6.05683e-23
-4.79631e-24
1.875e-06
-7.27732e-23
-6.70182e-23
1.875e-06
-3.79637e-23
-1.98182e-22
1.875e-06
-3.74299e-23
-2.1228e-22
1.875e-06
-5.96794e-23
-1.15056e-22
1.875e-06
-1.08445e-22
-6.14227e-23
1.875e-06
3.78084e-23
-3.73642e-23
1.875e-06
9.13582e-23
-8.82733e-24
6.03218e-23
-1.82025e-23
1.875e-06
4.96545e-23
1.97262e-22
1.875e-06
7.3674e-23
2.42795e-22
1.875e-06
1.40224e-22
1.68226e-22
1.875e-06
5.97806e-23
1.92184e-22
1.875e-06
6.55668e-23
2.8875e-22
1.875e-06
-4.71144e-23
1.20204e-22
1.875e-06
-4.1634e-23
1.92063e-22
1.875e-06
1.26031e-22
2.11969e-22
1.875e-06
-1.60775e-23
1.56328e-22
1.875e-06
-1.81167e-23
2.12807e-22
1.875e-06
8.80096e-23
2.07879e-22
1.875e-06
7.71723e-23
9.44524e-23
1.875e-06
1.09691e-22
2.25235e-23
1.875e-06
8.65777e-23
8.14525e-23
1.875e-06
-7.00483e-24
1.55045e-22
1.875e-06
-8.83378e-24
1.4771e-22
1.875e-06
-2.73819e-23
9.11171e-23
1.875e-06
-1.51723e-23
5.0003e-23
1.875e-06
7.38173e-24
4.17862e-23
1.875e-06
-9.12223e-23
1.21544e-23
1.875e-06
5.93597e-23
5.68264e-23
1.875e-06
8.70516e-23
-5.31731e-23
1.875e-06
-2.36852e-23
-7.79933e-23
1.875e-06
-5.62357e-23
5.81089e-23
1.875e-06
-3.37983e-23
7.47338e-23
1.875e-06
-3.2527e-23
6.36209e-23
1.875e-06
-7.5648e-23
3.67108e-23
1.875e-06
-7.06817e-23
5.63487e-23
1.875e-06
-4.86445e-23
2.87943e-23
1.875e-06
4.1403e-23
-2.94991e-23
1.875e-06
7.39018e-23
8.72622e-25
1.875e-06
9.18691e-23
9.5715e-24
1.875e-06
1.28825e-22
-4.66228e-23
1.875e-06
9.58419e-23
-1.31827e-22
1.875e-06
1.2868e-23
-2.12013e-22
1.875e-06
-2.69023e-23
-1.23121e-22
1.875e-06
4.93727e-24
-8.26192e-23
1.875e-06
-6.30968e-23
-1.01788e-22
1.875e-06
-7.98372e-23
-4.89524e-23
-2.92533e-23
-1.07579e-22
1.875e-06
3.019e-22
1.35763e-22
1.875e-06
2.03783e-22
2.09469e-22
1.875e-06
1.21913e-23
1.82764e-22
1.875e-06
6.63309e-23
2.63936e-22
1.875e-06
6.21447e-23
2.474e-22
1.875e-06
4.89114e-23
2.40715e-22
1.875e-06
4.59605e-23
2.8406e-22
1.875e-06
-8.39311e-23
1.80869e-22
1.875e-06
1.36983e-25
1.42496e-22
1.875e-06
1.14809e-22
1.0749e-22
1.875e-06
7.76944e-23
1.87963e-22
1.875e-06
7.54039e-23
1.36646e-22
1.875e-06
-1.18079e-22
3.23195e-23
1.875e-06
-6.13006e-23
5.43853e-23
1.875e-06
9.42836e-23
1.27074e-22
1.875e-06
1.30277e-22
9.1032e-23
1.875e-06
5.89575e-23
6.01722e-23
1.875e-06
-4.9425e-23
7.79079e-23
1.875e-06
2.35026e-23
7.17345e-23
1.875e-06
4.69194e-23
8.37778e-23
1.875e-06
-2.7177e-23
6.78947e-23
1.875e-06
3.76465e-23
-1.26522e-23
1.875e-06
-4.28128e-23
3.26729e-23
1.875e-06
3.26378e-23
1.05835e-22
1.875e-06
-4.58828e-24
1.48255e-22
1.875e-06
-5.13136e-23
2.76784e-23
1.875e-06
-1.06282e-22
-4.18812e-23
1.875e-06
-1.02666e-22
2.73449e-24
1.875e-06
3.28045e-23
7.27982e-23
1.875e-06
3.42414e-23
1.54061e-23
1.875e-06
-7.26834e-23
-6.57542e-24
1.875e-06
8.0002e-23
-5.41451e-24
1.875e-06
2.58052e-22
4.50497e-24
1.875e-06
9.66064e-23
-1.87944e-22
1.875e-06
-6.68982e-23
-2.30059e-22
1.875e-06
-7.4439e-24
-1.54849e-22
1.875e-06
-4.42005e-23
-1.90475e-22
1.875e-06
-1.22633e-22
-1.88671e-22
1.875e-06
-1.65735e-22
2.41814e-24
-1.43438e-22
-3.25175e-23
1.875e-06
-1.98496e-22
-3.05859e-23
1.875e-06
-6.5361e-24
1.73422e-22
1.875e-06
2.27816e-22
2.91788e-22
1.875e-06
1.16528e-22
3.00459e-22
1.875e-06
2.33796e-23
3.61394e-22
1.875e-06
1.0998e-22
2.35521e-22
1.875e-06
9.07828e-23
2.826e-22
1.875e-06
4.28198e-23
2.01311e-22
1.875e-06
-8.35486e-24
1.39683e-22
1.875e-06
-9.69482e-23
7.91251e-23
1.875e-06
-6.3329e-23
1.61181e-22
1.875e-06
-4.72708e-23
8.25308e-23
1.875e-06
2.77413e-23
2.0171e-22
1.875e-06
-1.40123e-23
1.48511e-22
1.875e-06
2.97701e-23
7.80617e-23
1.875e-06
1.57507e-24
2.91175e-23
1.875e-06
5.33674e-24
4.49991e-23
1.875e-06
9.47593e-23
1.43688e-22
1.875e-06
4.28494e-23
9.07179e-23
1.875e-06
-3.16268e-23
1.15703e-22
1.875e-06
-2.98662e-23
1.03277e-22
1.875e-06
2.6316e-24
-5.0621e-23
1.875e-06
7.93358e-23
7.57242e-23
1.875e-06
-7.8467e-23
1.85278e-22
1.875e-06
5.57298e-23
1.00828e-22
1.875e-06
1.31451e-23
-7.10765e-23
1.875e-06
-5.61563e-23
-4.42337e-23
1.875e-06
-8.60704e-23
9.37898e-23
1.875e-06
4.55997e-23
-8.08046e-23
1.875e-06
3.04002e-23
4.08856e-23
1.875e-06
1.46806e-23
1.09785e-22
1.875e-06
3.20362e-23
5.05096e-23
1.875e-06
1.45898e-23
-8.58272e-23
1.875e-06
7.2122e-23
-2.1114e-22
1.875e-06
8.91905e-23
-2.2244e-22
1.875e-06
5.29519e-23
-1.48037e-22
1.875e-06
6.21613e-23
-1.71008e-22
1.875e-06
-8.86778e-23
-1.85625e-22
1.875e-06
-1.44741e-22
1.08321e-23
-8.63987e-23
4.86382e-23
1.875e-06
2.37124e-23
2.21398e-22
1.875e-06
7.04465e-23
2.28064e-22
1.875e-06
9.96084e-23
2.71217e-22
1.875e-06
1.30087e-22
3.57552e-22
1.875e-06
6.1993e-23
3.64134e-22
1.875e-06
8.48891e-23
2.72009e-22
1.875e-06
1.4537e-22
2.94169e-22
1.875e-06
-3.61396e-23
1.7401e-22
1.875e-06
2.9381e-23
1.384e-22
1.875e-06
2.55278e-23
1.40108e-22
1.875e-06
-1.50901e-23
1.51369e-22
1.875e-06
-5.5444e-23
1.49954e-22
1.875e-06
-2.06656e-23
1.82221e-22
1.875e-06
2.45324e-23
1.45107e-22
1.875e-06
-7.68526e-24
1.31809e-22
1.875e-06
-3.26575e-23
5.18672e-23
1.875e-06
-1.04232e-22
2.47311e-23
1.875e-06
-2.00483e-23
8.70609e-23
1.875e-06
-3.43813e-23
1.2825e-22
1.875e-06
7.10953e-23
1.29645e-22
1.875e-06
2.24038e-22
1.91923e-22
1.875e-06
1.43365e-22
5.9087e-23
1.875e-06
-6.32208e-23
2.44345e-23
1.875e-06
3.35649e-23
2.25352e-22
1.875e-06
-1.49138e-23
4.78859e-23
1.875e-06
4.4679e-23
-9.2762e-23
1.875e-06
2.52924e-24
-1.07807e-22
1.875e-06
-3.01519e-23
2.59147e-23
1.875e-06
-7.07697e-23
4.56942e-24
1.875e-06
2.05543e-24
6.74055e-23
1.875e-06
-2.15857e-23
7.89224e-23
1.875e-06
8.35644e-23
-6.65001e-24
1.875e-06
-2.74449e-24
-5.31807e-23
1.875e-06
-2.00232e-23
-2.11464e-22
1.875e-06
1.41886e-22
-1.96654e-22
1.875e-06
7.19802e-23
-2.10358e-22
1.875e-06
-3.65004e-23
-2.06793e-22
1.875e-06
-1.036e-22
-8.09424e-23
1.875e-06
-9.42512e-23
3.82421e-23
-1.63575e-22
-7.51722e-24
1.875e-06
7.53052e-23
2.5619e-22
1.875e-06
1.4079e-22
3.32091e-22
1.875e-06
1.08045e-22
3.77868e-22
1.875e-06
4.40022e-23
3.36011e-22
1.875e-06
2.77397e-23
3.96452e-22
1.875e-06
4.9231e-23
2.16687e-22
1.875e-06
3.97471e-23
3.15091e-22
1.875e-06
5.11794e-23
2.69821e-22
1.875e-06
-6.26629e-23
1.56984e-22
1.875e-06
-8.28505e-23
1.28044e-22
1.875e-06
-1.26395e-23
1.35674e-22
1.875e-06
2.95466e-23
1.62953e-22
1.875e-06
8.67795e-23
2.14631e-22
1.875e-06
8.42595e-23
1.35995e-22
1.875e-06
-2.09806e-23
2.64481e-22
1.875e-06
-5.84651e-23
1.61269e-22
1.875e-06
3.35676e-23
7.75077e-23
1.875e-06
1.28046e-23
1.09233e-22
1.875e-06
1.5514e-23
1.6536e-22
1.875e-06
-3.61374e-23
3.87543e-23
1.875e-06
1.00281e-22
1.25537e-22
1.875e-06
1.4834e-23
-2.82851e-23
1.875e-06
-1.5762e-23
9.25798e-23
1.875e-06
1.3494e-23
2.05446e-22
1.875e-06
-6.03609e-23
5.9181e-23
1.875e-06
-4.53927e-23
-1.27139e-22
1.875e-06
3.09338e-23
-1.43566e-22
1.875e-06
6.68931e-23
5.52563e-24
1.875e-06
-2.46737e-23
6.6343e-23
1.875e-06
-5.31818e-23
5.39759e-23
1.875e-06
1.58657e-23
9.96533e-23
1.875e-06
-4.50276e-23
-7.28518e-24
1.875e-06
-4.88174e-23
-1.22659e-22
1.875e-06
-1.26555e-23
-1.37597e-22
1.875e-06
9.76772e-23
-2.38013e-22
1.875e-06
1.69146e-22
-2.51851e-22
1.875e-06
-5.34627e-25
-2.00478e-22
1.875e-06
-1.74334e-22
-7.57599e-23
1.875e-06
-4.39386e-23
5.08415e-23
1.03466e-22
9.0572e-23
1.875e-06
1.01133e-22
2.99157e-22
1.875e-06
8.9722e-23
4.12578e-22
1.875e-06
5.92727e-23
3.60444e-22
1.875e-06
1.3907e-23
4.23457e-22
1.875e-06
1.08425e-22
4.11608e-22
1.875e-06
3.85928e-23
2.6921e-22
1.875e-06
-5.18787e-23
2.87531e-22
1.875e-06
-1.48783e-24
1.83393e-22
1.875e-06
5.56118e-23
2.04204e-22
1.875e-06
1.03027e-23
2.39538e-22
1.875e-06
1.59976e-23
1.65858e-22
1.875e-06
-5.20961e-23
1.38953e-22
1.875e-06
-2.39469e-23
1.38745e-22
1.875e-06
4.23413e-23
1.4986e-22
1.875e-06
4.84299e-23
2.93512e-22
1.875e-06
-6.74419e-23
2.04748e-22
1.875e-06
-2.93785e-23
6.71876e-23
1.875e-06
-3.38511e-23
6.87738e-23
1.875e-06
4.12655e-23
1.57925e-22
1.875e-06
9.71572e-23
1.52952e-22
1.875e-06
7.93387e-24
7.60055e-23
1.875e-06
-3.4988e-23
5.11821e-23
1.875e-06
-2.05887e-23
6.85139e-23
1.875e-06
-1.01078e-22
5.38005e-23
1.875e-06
-5.36775e-23
1.01706e-22
1.875e-06
-7.74711e-23
-3.35136e-23
1.875e-06
-1.31444e-23
-1.12298e-22
1.875e-06
9.06098e-23
-4.26142e-23
1.875e-06
2.77092e-23
9.05964e-24
1.875e-06
-3.28425e-23
1.18648e-22
1.875e-06
1.73104e-23
7.05657e-23
1.875e-06
-6.88491e-23
2.29104e-23
1.875e-06
-1.01398e-22
-1.93116e-23
1.875e-06
-3.93782e-24
-1.00401e-22
1.875e-06
-2.62083e-23
-2.14786e-22
1.875e-06
-3.67283e-23
-2.83246e-22
1.875e-06
3.1201e-23
-2.98922e-22
1.875e-06
2.19511e-22
-6.21776e-23
1.875e-06
7.41091e-23
1.353e-23
-9.30711e-23
-2.86074e-23
1.875e-06
7.04526e-23
2.72916e-22
1.875e-06
6.25876e-23
3.69635e-22
1.875e-06
4.77969e-23
3.55579e-22
1.875e-06
3.97263e-23
4.75101e-22
1.875e-06
1.15758e-23
4.13548e-22
1.875e-06
1.82286e-23
4.13959e-22
1.875e-06
1.88861e-23
2.7391e-22
1.875e-06
-1.98197e-23
2.08451e-22
1.875e-06
9.90501e-23
1.67618e-22
1.875e-06
2.22502e-22
2.03146e-22
1.875e-06
1.42926e-23
1.11837e-22
1.875e-06
-8.88517e-23
1.74814e-22
1.875e-06
-1.74027e-23
1.85889e-22
1.875e-06
7.78762e-23
1.95163e-22
1.875e-06
-6.29361e-23
1.70732e-22
1.875e-06
-2.06174e-23
1.68403e-22
1.875e-06
-8.14628e-23
6.39708e-24
1.875e-06
-1.14302e-22
7.79275e-23
1.875e-06
-9.51747e-23
1.9132e-22
1.875e-06
-3.3322e-23
2.28676e-22
1.875e-06
5.02685e-23
1.07833e-22
1.875e-06
8.74621e-23
9.73104e-24
1.875e-06
3.3857e-23
6.28967e-23
1.875e-06
-5.19153e-23
5.58058e-23
1.875e-06
-8.55146e-23
3.21728e-24
1.875e-06
-8.0474e-24
5.01519e-23
1.875e-06
2.92779e-23
3.20829e-23
1.875e-06
5.82644e-23
-6.5568e-23
1.875e-06
6.34079e-23
-7.28884e-27
1.875e-06
6.63485e-24
-2.59449e-24
1.875e-06
-4.2271e-23
1.73284e-23
1.875e-06
-1.11007e-22
-1.54278e-23
1.875e-06
-7.19889e-23
3.55445e-23
1.875e-06
2.48825e-24
-3.59089e-23
1.875e-06
2.38199e-23
-1.87981e-23
1.875e-06
1.7799e-23
-1.38643e-22
1.875e-06
3.8191e-24
-2.87982e-22
1.875e-06
-5.00884e-23
-2.01832e-22
1.875e-06
1.4877e-23
2.55014e-23
-3.77806e-23
-1.01367e-22
1.875e-06
-3.55455e-23
3.79567e-22
1.875e-06
-2.01904e-23
4.49938e-22
1.875e-06
3.71632e-23
4.14929e-22
1.875e-06
-2.16035e-23
4.37951e-22
1.875e-06
-7.63752e-23
4.31358e-22
1.875e-06
1.6835e-23
3.75886e-22
1.875e-06
4.22434e-23
3.37462e-22
1.875e-06
1.23255e-22
2.65403e-22
1.875e-06
2.81471e-23
1.59586e-22
1.875e-06
-3.12097e-23
1.15512e-22
1.875e-06
2.57045e-23
1.92647e-22
1.875e-06
6.66728e-23
1.78851e-22
1.875e-06
-2.19933e-23
2.02247e-22
1.875e-06
-1.29516e-22
1.29833e-22
1.875e-06
-4.32953e-23
1.90437e-22
1.875e-06
-6.67217e-23
1.42875e-22
1.875e-06
-4.28747e-23
-5.38316e-24
1.875e-06
8.57642e-23
1.08066e-22
1.875e-06
1.70987e-22
1.66041e-22
1.875e-06
6.76002e-23
7.75765e-23
1.875e-06
-1.698e-23
3.84354e-23
1.875e-06
-8.86892e-23
-2.16802e-23
1.875e-06
-6.54084e-23
1.61391e-23
1.875e-06
-3.7568e-23
9.87516e-23
1.875e-06
-9.72617e-23
1.07369e-22
1.875e-06
-7.80599e-23
7.09738e-23
1.875e-06
1.13366e-22
4.67296e-24
1.875e-06
1.03391e-22
-6.24218e-23
1.875e-06
6.08385e-23
-4.90428e-24
1.875e-06
-9.66109e-24
-1.4499e-23
1.875e-06
-6.44592e-23
-4.13966e-23
1.875e-06
-5.2626e-23
-4.61204e-23
1.875e-06
-3.26694e-23
6.1771e-23
1.875e-06
-4.78372e-23
-1.20263e-23
1.875e-06
-5.00157e-23
-2.24705e-23
1.875e-06
7.63206e-23
-1.41757e-22
1.875e-06
-1.75963e-23
-2.37998e-22
1.875e-06
-3.25662e-23
-1.12774e-22
1.875e-06
-6.12772e-23
-5.88434e-23
-6.39145e-23
-1.31757e-22
1.875e-06
1.79646e-24
3.93166e-22
1.875e-06
3.22611e-23
5.36344e-22
1.875e-06
-3.01713e-23
4.31966e-22
1.875e-06
-2.9136e-23
4.13114e-22
1.875e-06
2.5366e-23
4.6735e-22
1.875e-06
-4.93666e-23
3.5649e-22
1.875e-06
2.20831e-23
3.36975e-22
1.875e-06
8.81673e-23
2.66584e-22
1.875e-06
4.66029e-23
2.39751e-22
1.875e-06
-5.8827e-23
1.97255e-22
1.875e-06
2.70649e-23
2.35886e-22
1.875e-06
-1.25903e-23
1.79343e-22
1.875e-06
-1.36144e-23
2.44475e-22
1.875e-06
-9.19838e-23
2.19963e-22
1.875e-06
-6.4121e-23
1.60892e-22
1.875e-06
-2.22734e-23
6.94523e-23
1.875e-06
-2.76489e-23
-9.56971e-23
1.875e-06
-5.54611e-23
-5.37845e-24
1.875e-06
-1.16297e-22
5.13218e-23
1.875e-06
1.43463e-22
7.2491e-23
1.875e-06
8.83891e-23
8.19173e-23
1.875e-06
5.0557e-23
7.79068e-23
1.875e-06
-7.08728e-23
9.61104e-23
1.875e-06
-1.29207e-22
3.63934e-23
1.875e-06
-6.5025e-23
7.74387e-23
1.875e-06
6.17693e-23
1.28471e-22
1.875e-06
5.67638e-24
-3.64322e-23
1.875e-06
5.95777e-23
-8.74271e-23
1.875e-06
5.13738e-23
-8.3553e-24
1.875e-06
4.1022e-24
-3.87034e-23
1.875e-06
-1.09439e-23
-2.6866e-23
1.875e-06
-3.4217e-23
-9.83798e-23
1.875e-06
-2.69718e-23
-6.11044e-23
1.875e-06
-5.92109e-23
-5.00146e-23
1.875e-06
-8.43991e-23
5.7909e-23
1.875e-06
-4.47474e-23
-2.2537e-23
1.875e-06
1.47657e-22
-1.1673e-22
1.875e-06
1.62304e-22
-1.13356e-22
1.875e-06
1.24226e-24
-1.53534e-22
-1.30101e-23
-1.46702e-22
1.875e-06
-3.54115e-23
3.72735e-22
1.875e-06
-3.23693e-23
3.99928e-22
1.875e-06
5.41327e-23
4.17059e-22
1.875e-06
-5.48893e-23
5.44452e-22
1.875e-06
-9.24431e-23
4.65548e-22
1.875e-06
-6.57467e-23
4.29465e-22
1.875e-06
9.1197e-24
3.72865e-22
1.875e-06
1.07601e-22
2.873e-22
1.875e-06
-6.55834e-24
2.1542e-22
1.875e-06
2.51219e-23
2.49155e-22
1.875e-06
-4.63257e-24
2.3343e-22
1.875e-06
-1.15289e-22
2.24149e-22
1.875e-06
-1.24224e-22
2.96799e-22
1.875e-06
-6.31473e-24
2.02693e-22
1.875e-06
-1.0944e-23
8.91768e-23
1.875e-06
-5.86857e-23
1.61309e-23
1.875e-06
-4.62221e-24
-5.82898e-23
1.875e-06
8.06107e-23
8.62399e-23
1.875e-06
2.00381e-22
1.05163e-22
1.875e-06
1.63187e-22
-4.94692e-23
1.875e-06
1.16105e-22
8.4627e-23
1.875e-06
-7.15773e-23
1.14847e-22
1.875e-06
-1.17171e-22
1.90255e-22
1.875e-06
-5.79508e-23
9.46881e-23
1.875e-06
6.29233e-24
4.91748e-23
1.875e-06
-7.40522e-23
5.87399e-23
1.875e-06
-5.75292e-23
-4.19813e-23
1.875e-06
-7.58663e-23
-1.48787e-22
1.875e-06
-1.04455e-22
2.25214e-23
1.875e-06
2.17829e-23
-4.08341e-23
1.875e-06
5.17396e-23
-7.44205e-23
1.875e-06
-1.88627e-23
-1.65878e-22
1.875e-06
-9.55641e-23
-1.5443e-22
1.875e-06
-3.86006e-23
-5.92439e-23
1.875e-06
-1.58915e-24
8.54309e-24
1.875e-06
-1.40897e-23
5.15624e-23
1.875e-06
7.46797e-23
-5.99979e-23
1.875e-06
5.91181e-23
-2.0444e-22
1.875e-06
4.51623e-23
-1.38548e-22
1.39545e-22
-1.25088e-22
1.875e-06
-9.60249e-23
3.59135e-22
1.875e-06
-5.81296e-23
4.83e-22
1.875e-06
5.00736e-23
3.33789e-22
1.875e-06
4.66912e-23
4.996e-22
1.875e-06
8.73963e-24
5.08587e-22
1.875e-06
-1.0788e-22
4.07671e-22
1.875e-06
-2.67888e-23
4.28551e-22
1.875e-06
-2.43297e-23
2.74855e-22
1.875e-06
-1.75904e-23
2.35198e-22
1.875e-06
-3.1283e-23
2.59821e-22
1.875e-06
-6.66901e-23
2.11186e-22
1.875e-06
4.04636e-23
2.32034e-22
1.875e-06
-8.32476e-23
3.39895e-22
1.875e-06
-3.80717e-23
2.33176e-22
1.875e-06
8.12739e-23
1.10621e-22
1.875e-06
-1.70973e-23
-2.12681e-23
1.875e-06
-2.60249e-23
1.91497e-23
1.875e-06
5.95728e-23
5.79786e-23
1.875e-06
9.2356e-23
5.50236e-23
1.875e-06
1.20012e-22
3.24641e-23
1.875e-06
7.7801e-23
7.02947e-23
1.875e-06
7.01149e-23
6.10252e-23
1.875e-06
-2.83182e-23
1.15851e-22
1.875e-06
-1.1457e-22
1.29001e-22
1.875e-06
-5.46981e-23
1.95862e-23
1.875e-06
-3.47057e-23
8.85972e-23
1.875e-06
-1.24443e-22
-4.33106e-23
1.875e-06
-1.33488e-22
-3.50061e-23
1.875e-06
-1.59481e-23
6.53638e-23
1.875e-06
-6.62176e-23
-6.34347e-23
1.875e-06
-1.4876e-22
-1.44566e-22
1.875e-06
4.49083e-23
-1.85717e-22
1.875e-06
7.17371e-23
-6.8841e-23
1.875e-06
4.06508e-23
-9.3109e-23
1.875e-06
6.91237e-23
4.60018e-23
1.875e-06
6.47694e-23
6.54827e-23
1.875e-06
-2.67984e-23
-1.17103e-22
1.875e-06
-2.14358e-23
-1.62701e-22
1.875e-06
5.308e-23
-2.02902e-22
2.02294e-23
-2.41442e-22
1.875e-06
-5.74613e-23
3.71879e-22
1.875e-06
-9.43604e-23
4.84646e-22
1.875e-06
-1.46514e-22
4.7917e-22
1.875e-06
3.08169e-23
5.1151e-22
1.875e-06
7.31949e-23
4.44253e-22
1.875e-06
5.00187e-23
4.83611e-22
1.875e-06
-8.18755e-23
3.2699e-22
1.875e-06
-1.7165e-22
1.91779e-22
1.875e-06
-6.66371e-23
2.62977e-22
1.875e-06
3.43728e-24
3.337e-22
1.875e-06
-4.43139e-24
2.6769e-22
1.875e-06
2.77862e-23
2.22089e-22
1.875e-06
-5.86615e-23
3.49348e-22
1.875e-06
-9.64457e-23
2.29313e-22
1.875e-06
-8.60411e-23
7.47909e-23
1.875e-06
2.51724e-23
9.03072e-23
1.875e-06
9.64516e-23
1.65492e-22
1.875e-06
1.5826e-22
8.74038e-23
1.875e-06
2.33859e-22
-2.91455e-24
1.875e-06
1.29636e-22
-1.50696e-23
1.875e-06
-7.47579e-23
2.22117e-23
1.875e-06
-1.40988e-22
8.01805e-23
1.875e-06
4.32031e-23
1.6021e-22
1.875e-06
6.67015e-23
1.93483e-22
1.875e-06
-5.12807e-23
1.02021e-22
1.875e-06
-6.29941e-23
2.97308e-23
1.875e-06
-7.40588e-23
-3.39593e-23
1.875e-06
-1.71986e-22
1.05635e-23
1.875e-06
-1.92771e-22
-1.29259e-23
1.875e-06
-3.11088e-23
-7.30413e-23
1.875e-06
2.32673e-23
-1.53383e-22
1.875e-06
-3.11334e-23
-2.19154e-22
1.875e-06
-7.33979e-23
-4.46543e-23
1.875e-06
6.03208e-23
-5.78309e-23
1.875e-06
9.79135e-23
-3.66363e-23
1.875e-06
-3.5989e-23
-7.05172e-23
1.875e-06
-6.21571e-23
-1.23856e-22
1.875e-06
-1.39348e-23
-1.46952e-22
1.875e-06
3.85847e-23
-2.79627e-22
5.32471e-23
-2.11036e-22
1.875e-06
-2.82651e-23
3.9729e-22
1.875e-06
-8.0472e-24
5.64894e-22
1.875e-06
2.07062e-23
5.72563e-22
1.875e-06
-2.08754e-23
5.47913e-22
1.875e-06
-6.96205e-23
4.19694e-22
1.875e-06
-2.76341e-23
4.08306e-22
1.875e-06
-4.18738e-23
3.25912e-22
1.875e-06
-3.2171e-23
2.0656e-22
1.875e-06
-1.03995e-22
2.90323e-22
1.875e-06
-4.60493e-23
3.94069e-22
1.875e-06
-1.15057e-23
2.74564e-22
1.875e-06
1.98894e-23
2.42952e-22
1.875e-06
1.37024e-22
3.50873e-22
1.875e-06
3.43137e-23
2.57147e-22
1.875e-06
-9.32398e-23
8.88082e-23
1.875e-06
-7.12422e-23
1.77882e-22
1.875e-06
-3.41041e-23
1.25063e-22
1.875e-06
2.57731e-23
-9.62185e-23
1.875e-06
9.011e-23
-1.46719e-22
1.875e-06
-2.6677e-23
-6.40068e-23
1.875e-06
1.79218e-23
2.41997e-23
1.875e-06
6.41632e-23
1.50809e-22
1.875e-06
3.31562e-23
2.33164e-22
1.875e-06
8.46768e-27
1.54457e-22
1.875e-06
2.79585e-23
1.14878e-22
1.875e-06
-1.63597e-23
-9.94212e-25
1.875e-06
6.97934e-23
-1.64272e-23
1.875e-06
1.40278e-23
5.45407e-23
1.875e-06
-5.93455e-23
1.07949e-22
1.875e-06
-6.66018e-23
-9.00264e-24
1.875e-06
-1.70334e-22
-1.29423e-22
1.875e-06
-1.9041e-22
-2.49346e-22
1.875e-06
-2.66876e-23
-2.12383e-22
1.875e-06
6.16011e-23
-1.21951e-22
1.875e-06
8.02998e-23
-1.08695e-23
1.875e-06
-2.40979e-23
-8.49434e-23
1.875e-06
7.51648e-23
-8.59737e-23
1.875e-06
3.14912e-25
-1.83476e-22
1.875e-06
-1.54296e-23
-3.17574e-22
1.90057e-23
-2.11079e-22
1.875e-06
9.71597e-23
4.98197e-22
1.875e-06
7.85951e-23
5.53993e-22
1.875e-06
-2.28567e-23
4.60644e-22
1.875e-06
-1.62462e-22
4.52367e-22
1.875e-06
-1.75543e-23
5.05736e-22
1.875e-06
5.56685e-23
5.07755e-22
1.875e-06
-3.1866e-23
3.03271e-22
1.875e-06
-1.56465e-22
1.96176e-22
1.875e-06
-9.23858e-23
3.16841e-22
1.875e-06
4.61051e-23
4.1039e-22
1.875e-06
-2.20548e-22
2.39225e-22
1.875e-06
4.54337e-22
2.48976e-22
1.875e-06
2.88669e-23
2.69056e-22
1.875e-06
6.04039e-23
2.01142e-22
1.875e-06
-1.3934e-23
2.23995e-22
1.875e-06
-3.65913e-23
2.16451e-22
1.875e-06
-1.07786e-22
-6.87594e-24
1.875e-06
-1.86541e-22
-2.22424e-22
1.875e-06
-1.94257e-23
-1.21678e-22
1.875e-06
-1.0436e-23
-9.57541e-24
1.875e-06
-2.49383e-24
-2.09382e-23
1.875e-06
2.57538e-23
9.43099e-23
1.875e-06
6.04889e-24
2.33774e-22
1.875e-06
8.66788e-23
1.45136e-22
1.875e-06
1.25597e-22
1.61792e-22
1.875e-06
1.54402e-23
4.35501e-23
1.875e-06
-3.50808e-23
2.68575e-23
1.875e-06
2.75462e-23
7.68775e-23
1.875e-06
-1.16079e-22
8.47446e-23
1.875e-06
1.69276e-22
-1.88808e-22
1.875e-06
-2.65488e-24
-8.15169e-23
1.875e-06
-1.20981e-22
-1.29916e-22
1.875e-06
1.26111e-22
-2.4866e-22
1.875e-06
-1.49173e-22
-1.14661e-22
1.875e-06
-3.75292e-23
-8.6389e-23
1.875e-06
3.44356e-23
-6.37778e-23
1.875e-06
3.98663e-23
-2.0232e-22
1.875e-06
9.86258e-23
-2.23914e-22
1.875e-06
-2.52002e-23
-3.17541e-22
-5.85051e-24
-1.29619e-22
1.875e-06
1.46109e-22
4.31762e-22
1.875e-06
4.08321e-23
4.67072e-22
1.875e-06
-7.92972e-23
4.85298e-22
1.875e-06
-4.79646e-23
5.3615e-22
1.875e-06
-6.82484e-23
5.08036e-22
1.875e-06
5.45708e-25
4.20661e-22
1.875e-06
2.54641e-23
2.47624e-22
1.875e-06
3.37e-23
2.25221e-22
1.875e-06
-8.22246e-24
3.26609e-22
1.875e-06
2.83643e-23
4.02914e-22
1.875e-06
2.33905e-23
2.92763e-22
1.875e-06
5.57014e-23
3.34127e-22
1.875e-06
3.3892e-23
3.58694e-22
1.875e-06
5.30945e-23
2.22293e-22
1.875e-06
-7.23794e-23
2.21305e-22
1.875e-06
-1.2601e-22
1.21241e-22
1.875e-06
-4.58236e-23
-4.01387e-23
1.875e-06
-1.00636e-22
-1.67158e-22
1.875e-06
-1.42056e-22
-1.14531e-22
1.875e-06
-9.54963e-23
-4.04779e-23
1.875e-06
-2.1249e-23
-2.7341e-23
1.875e-06
7.84837e-24
2.43513e-23
1.875e-06
5.48949e-23
2.01623e-22
1.875e-06
5.81109e-23
1.68791e-22
1.875e-06
3.20342e-23
9.14012e-23
1.875e-06
8.83944e-23
1.49596e-22
1.875e-06
-2.7593e-23
7.73018e-23
1.875e-06
1.1571e-22
4.6183e-23
1.875e-06
1.08793e-22
6.68287e-23
1.875e-06
4.1855e-24
-2.1449e-22
1.875e-06
7.48602e-23
-2.18726e-22
1.875e-06
-1.68954e-23
-1.94682e-22
1.875e-06
-5.61109e-23
-2.83741e-22
1.875e-06
-3.89086e-23
-3.11563e-23
1.875e-06
-7.68167e-23
-1.50462e-22
1.875e-06
9.74314e-23
-2.94591e-23
1.875e-06
-3.14567e-23
-1.11294e-22
1.875e-06
-9.46693e-23
-2.5016e-22
1.875e-06
-7.35952e-23
-3.77536e-22
-6.23838e-23
-2.52493e-22
1.875e-06
-1.55071e-23
3.48034e-22
1.875e-06
-4.1319e-23
4.88306e-22
1.875e-06
-3.60723e-23
4.42503e-22
1.875e-06
3.85104e-23
3.98641e-22
1.875e-06
-1.5594e-23
4.37632e-22
1.875e-06
-3.34353e-24
4.16581e-22
1.875e-06
4.29869e-23
3.3599e-22
1.875e-06
7.59942e-23
2.77267e-22
1.875e-06
1.07705e-22