/*--------------------------------*- C++ -*----------------------------------*\
| =========                 |                                                 |
| \\      /  F ield         | OpenFOAM: The Open Source CFD Toolbox           |
|  \\    /   O peration     | Version:  v2012                                 |
|   \\  /    A nd           | Website:  www.openfoam.com                      |
|    \\/     M anipulation  |                                                 |
\*---------------------------------------------------------------------------*/
FoamFile
{
    version     2.0;
    format      ascii;
    class       volVectorField;
    location    "5";
    object      U;
}
// * * * * * * * * * * * * * * * * * * * * * * * * * * * * * * * * * * * * * //

dimensions      [0 1 -1 0 0 0 0];


internalField   nonuniform List<vector> 
64000
(
(0.003 6.85144e-20 4.30775e-20)
(0.003 7.67493e-20 7.28591e-20)
(0.003 2.78429e-20 1.12633e-19)
(0.003 6.45186e-20 1.68121e-19)
(0.003 1.90134e-19 1.28398e-19)
(0.003 2.02617e-19 9.44169e-20)
(0.003 1.26042e-19 6.97091e-20)
(0.003 -6.69148e-20 6.32681e-20)
(0.003 1.78867e-20 -1.74173e-20)
(0.003 1.30012e-19 5.10331e-22)
(0.003 7.53762e-20 5.50959e-20)
(0.003 3.38908e-20 9.4169e-20)
(0.003 8.16099e-21 5.18132e-20)
(0.003 6.62401e-20 5.27179e-20)
(0.003 5.81926e-20 8.84988e-20)
(0.003 6.61937e-20 1.01357e-19)
(0.003 5.35713e-20 1.29548e-19)
(0.003 -4.6362e-20 5.255e-20)
(0.003 -1.20548e-19 -2.98869e-19)
(0.003 -2.80336e-19 -3.49836e-19)
(0.003 -3.86314e-19 -2.02418e-19)
(0.003 1.83171e-20 2.79304e-20)
(0.003 1.63415e-19 7.89472e-20)
(0.003 2.34574e-19 5.53376e-20)
(0.003 2.69678e-19 1.45619e-19)
(0.003 2.62593e-20 1.13037e-19)
(0.003 -1.52078e-19 4.65287e-20)
(0.003 -6.7443e-20 -2.14416e-20)
(0.003 3.37016e-20 1.41482e-20)
(0.003 -3.97696e-20 1.12364e-19)
(0.003 -1.73098e-19 4.80768e-20)
(0.003 -1.54245e-19 -3.72856e-20)
(0.003 -1.03454e-19 -1.8325e-20)
(0.003 -1.64858e-19 -1.97375e-19)
(0.003 -2.59508e-20 -2.40182e-19)
(0.003 1.17572e-19 -5.35034e-20)
(0.003 -6.55668e-20 -6.94925e-20)
(0.003 -1.57694e-19 -9.3264e-20)
(0.003 -7.36734e-20 9.86809e-20)
(0.003 -1.67413e-19 6.47425e-20)
(0.003 1.17454e-19 6.48352e-20)
(0.003 1.33644e-19 1.83644e-19)
(0.003 2.23244e-20 2.11215e-19)
(0.003 -4.44892e-20 2.28114e-19)
(0.003 5.19152e-20 1.60113e-19)
(0.003 1.49346e-19 1.70314e-19)
(0.003 1.30234e-19 1.2203e-19)
(0.003 1.36919e-19 9.23748e-20)
(0.003 6.26207e-20 1.15522e-19)
(0.003 5.14638e-20 1.09185e-19)
(0.003 4.64299e-20 9.82234e-20)
(0.003 7.76382e-20 1.4529e-19)
(0.003 5.81048e-20 6.41742e-20)
(0.003 -1.98268e-20 9.12582e-20)
(0.003 8.477e-22 1.69984e-19)
(0.003 3.06436e-20 1.11178e-19)
(0.003 3.52834e-20 9.15187e-20)
(0.003 5.72253e-20 8.88146e-20)
(0.003 1.13441e-19 -2.27475e-19)
(0.003 -1.76371e-20 -4.08693e-19)
(0.003 -2.28411e-19 -2.07889e-19)
(0.003 -1.84551e-19 5.53683e-20)
(0.003 6.74261e-20 1.67233e-19)
(0.003 1.737e-19 2.21232e-19)
(0.003 3.59489e-20 2.03432e-19)
(0.003 -5.04948e-20 -3.01485e-21)
(0.003 -6.32852e-20 -1.17318e-19)
(0.003 3.69864e-21 2.44974e-21)
(0.003 1.20871e-20 1.39727e-19)
(0.003 -6.32852e-20 1.01523e-19)
(0.003 -1.2312e-19 -3.43758e-20)
(0.003 -9.06387e-20 -5.51417e-20)
(0.003 -1.6644e-19 -2.3704e-20)
(0.003 -1.4944e-19 -1.70122e-19)
(0.003 -4.50996e-20 -1.44085e-19)
(0.003 -6.54232e-20 -8.04107e-20)
(0.003 -6.02422e-20 -1.6687e-19)
(0.003 4.05904e-20 -1.67896e-19)
(0.003 1.03704e-19 -4.26185e-20)
(0.003 3.56692e-20 5.14003e-20)
(0.003 1.40707e-19 1.15442e-19)
(0.003 1.26803e-19 1.9223e-19)
(0.003 1.47538e-19 1.84521e-19)
(0.003 1.11639e-19 2.03599e-19)
(0.003 -6.08885e-20 1.77766e-19)
(0.003 -2.27678e-20 1.72346e-19)
(0.003 8.30973e-20 1.54367e-19)
(0.003 1.52178e-19 2.2322e-19)
(0.003 1.05271e-19 1.71789e-19)
(0.003 -8.88059e-21 3.78351e-20)
(0.003 -1.28774e-20 7.57075e-20)
(0.003 3.5713e-20 1.49562e-19)
(0.003 9.29587e-20 6.83514e-20)
(0.003 4.79958e-20 9.78487e-20)
(0.003 1.44255e-20 1.45813e-19)
(0.003 1.32337e-20 1.44281e-19)
(0.003 1.5104e-20 1.54931e-19)
(0.003 1.12014e-19 7.7597e-20)
(0.003 1.39329e-19 -1.82931e-19)
(0.003 3.32744e-22 -3.75565e-19)
(0.003 -1.14168e-19 -1.42419e-19)
(0.003 -1.40298e-19 9.82113e-20)
(0.003 -7.66402e-21 1.78143e-19)
(0.003 4.86369e-20 2.83037e-19)
(0.003 -3.37261e-20 1.74176e-19)
(0.003 -1.23342e-20 -8.18881e-20)
(0.003 4.17337e-20 -9.73083e-20)
(0.003 -4.3351e-20 1.24964e-19)
(0.003 -3.07757e-20 1.24564e-19)
(0.003 -6.98097e-20 6.28204e-20)
(0.003 4.55471e-20 5.83871e-20)
(0.003 5.17406e-20 3.72348e-20)
(0.003 -7.42974e-20 -9.17319e-20)
(0.003 -9.42546e-20 -1.6105e-19)
(0.003 -1.85059e-19 -1.15578e-19)
(0.003 -1.57551e-19 -1.3786e-19)
(0.003 -1.60708e-20 -2.01555e-19)
(0.003 6.84708e-20 -1.63176e-19)
(0.003 1.12228e-19 -7.98401e-21)
(0.003 1.53488e-19 -7.45699e-20)
(0.003 2.19736e-19 1.88521e-19)
(0.003 1.88203e-19 3.209e-19)
(0.003 8.41909e-20 2.24143e-19)
(0.003 1.06428e-19 2.5989e-19)
(0.003 2.07986e-20 2.00044e-19)
(0.003 -2.41323e-20 1.96089e-19)
(0.003 1.39167e-20 1.8465e-19)
(0.003 1.01105e-20 1.75981e-19)
(0.003 5.41131e-20 2.14336e-19)
(0.003 1.31039e-19 9.53216e-20)
(0.003 9.45222e-20 5.80508e-20)
(0.003 4.79499e-20 1.58611e-19)
(0.003 1.66612e-20 1.88346e-19)
(0.003 -4.58353e-20 1.48059e-19)
(0.003 5.86755e-20 1.47012e-19)
(0.003 1.42417e-19 1.46217e-19)
(0.003 8.38145e-20 1.13037e-19)
(0.003 -2.55246e-20 1.05986e-19)
(0.003 -1.21204e-19 -2.15065e-19)
(0.003 -3.60259e-20 -3.86549e-19)
(0.003 -1.22188e-20 1.76311e-20)
(0.003 3.07463e-20 1.91547e-19)
(0.003 5.26684e-20 2.30507e-19)
(0.003 -2.11418e-20 3.52033e-19)
(0.003 -7.13179e-20 1.59713e-19)
(0.003 -4.03494e-20 -3.45787e-20)
(0.003 5.20632e-20 -7.95926e-20)
(0.003 1.06688e-19 -6.63684e-20)
(0.003 -5.84368e-22 3.05668e-20)
(0.003 2.52569e-20 7.59475e-20)
(0.003 4.03459e-20 2.54065e-20)
(0.003 -6.32762e-20 -7.42361e-21)
(0.003 -4.56637e-20 -4.048e-20)
(0.003 -4.7187e-20 -1.03704e-19)
(0.003 -2.52927e-20 -1.81715e-19)
(0.003 -3.52918e-20 -2.08709e-19)
(0.003 -5.52462e-20 -1.46118e-19)
(0.003 -2.0998e-20 -4.33467e-20)
(0.003 6.22325e-20 2.87866e-20)
(0.003 7.0784e-20 -2.03976e-21)
(0.003 -6.94434e-20 2.15285e-19)
(0.003 -4.24473e-20 3.49887e-19)
(0.003 -4.26875e-20 2.71265e-19)
(0.003 -6.62257e-20 2.2859e-19)
(0.003 4.9841e-21 2.26803e-19)
(0.003 -7.38253e-21 2.12338e-19)
(0.003 4.22622e-20 1.91545e-19)
(0.003 2.99828e-20 1.7161e-19)
(0.003 3.29692e-20 1.75364e-19)
(0.003 7.96856e-20 2.07909e-19)
(0.003 1.08809e-19 1.99325e-19)
(0.003 7.29227e-20 2.10644e-19)
(0.003 -3.90528e-20 1.04132e-19)
(0.003 -7.13567e-20 7.63716e-20)
(0.003 1.96641e-20 2.11759e-19)
(0.003 1.20127e-19 2.45599e-19)
(0.003 9.07672e-20 6.08464e-20)
(0.003 -8.35586e-20 1.8014e-20)
(0.003 -2.00143e-19 -1.79401e-19)
(0.003 -7.47096e-20 -2.69942e-19)
(0.003 -3.28691e-20 -8.90412e-20)
(0.003 5.32359e-20 2.03281e-19)
(0.003 1.08264e-19 2.874e-19)
(0.003 -3.95944e-20 2.81775e-19)
(0.003 -3.09438e-20 1.81623e-19)
(0.003 1.77195e-20 4.26698e-20)
(0.003 1.29658e-19 2.13748e-20)
(0.003 1.77719e-19 4.17368e-20)
(0.003 7.99346e-20 3.60709e-20)
(0.003 2.75069e-20 -1.05308e-19)
(0.003 -1.99567e-20 -7.43461e-20)
(0.003 -5.37482e-20 -3.43747e-20)
(0.003 -9.83031e-20 -9.88359e-20)
(0.003 -7.51902e-20 -1.8552e-19)
(0.003 -2.27642e-21 -1.91587e-19)
(0.003 -3.02357e-20 -1.74008e-19)
(0.003 -7.37985e-21 -2.14532e-19)
(0.003 2.45672e-20 -4.62585e-20)
(0.003 7.06234e-21 8.35997e-20)
(0.003 -3.05921e-20 1.39301e-20)
(0.003 -6.10268e-20 2.53528e-19)
(0.003 -3.60701e-20 2.86335e-19)
(0.003 -4.32516e-20 1.81228e-19)
(0.003 2.09212e-20 2.07054e-19)
(0.003 6.90977e-20 2.46552e-19)
(0.003 6.01079e-20 2.08862e-19)
(0.003 2.84995e-21 2.00268e-19)
(0.003 4.35131e-20 2.48683e-19)
(0.003 6.92348e-20 2.37957e-19)
(0.003 4.25356e-20 1.69689e-19)
(0.003 5.51056e-22 1.52727e-19)
(0.003 2.38579e-20 2.46314e-19)
(0.003 1.23499e-19 1.52856e-19)
(0.003 1.01931e-19 1.26709e-20)
(0.003 -3.41692e-20 1.65939e-19)
(0.003 -1.03488e-19 2.94344e-19)
(0.003 -1.28818e-19 1.18481e-19)
(0.003 -1.47436e-19 3.96815e-21)
(0.003 -1.50581e-19 -1.05473e-19)
(0.003 -7.30079e-20 -1.94888e-19)
(0.003 5.03381e-20 -1.14772e-19)
(0.003 6.59262e-20 1.61462e-19)
(0.003 3.29205e-20 3.60817e-19)
(0.003 2.53271e-20 2.68391e-19)
(0.003 9.25654e-20 1.54157e-19)
(0.003 1.42786e-19 7.30375e-20)
(0.003 6.68041e-20 -4.1333e-21)
(0.003 -7.36441e-20 -2.91067e-20)
(0.003 3.51578e-20 9.30435e-21)
(0.003 1.34311e-19 8.95888e-20)
(0.003 1.35492e-19 1.26732e-19)
(0.003 -1.7471e-20 -7.97954e-20)
(0.003 -1.56579e-19 -1.85557e-19)
(0.003 -8.321e-20 -2.42303e-19)
(0.003 -7.28261e-20 -2.75419e-19)
(0.003 -1.06656e-19 -2.28136e-19)
(0.003 -9.80792e-20 -1.65414e-19)
(0.003 9.35898e-20 2.63032e-20)
(0.003 1.15568e-19 7.7338e-20)
(0.003 6.59215e-20 -4.24261e-21)
(0.003 4.18982e-20 2.98735e-19)
(0.003 1.18526e-19 3.42842e-19)
(0.003 1.34227e-19 2.00795e-19)
(0.003 1.29575e-19 2.61709e-19)
(0.003 1.1204e-19 3.32983e-19)
(0.003 -3.11957e-20 2.84685e-19)
(0.003 -5.591e-20 2.39372e-19)
(0.003 4.49106e-20 2.01224e-19)
(0.003 3.3459e-20 2.32108e-19)
(0.003 5.18194e-20 2.63373e-19)
(0.003 8.04063e-20 2.62675e-19)
(0.003 5.0259e-20 1.92889e-19)
(0.003 1.29571e-19 1.13688e-19)
(0.003 1.5819e-19 6.4265e-20)
(0.003 1.46158e-20 1.29898e-19)
(0.003 -1.03749e-19 2.30214e-19)
(0.003 -1.32041e-19 1.14555e-19)
(0.003 -1.02023e-19 7.61102e-21)
(0.003 -7.42679e-20 -1.14304e-19)
(0.003 -2.57873e-20 -1.46234e-19)
(0.003 9.64809e-20 -9.67531e-20)
(0.003 6.48973e-20 8.45398e-20)
(0.003 -5.33436e-20 2.80397e-19)
(0.003 -2.06662e-20 3.15496e-19)
(0.003 4.57167e-20 2.80746e-19)
(0.003 2.89543e-20 8.87471e-20)
(0.003 -7.36522e-20 5.72402e-21)
(0.003 -1.24616e-19 1.87886e-20)
(0.003 -4.75876e-20 1.24187e-20)
(0.003 5.77712e-20 5.14002e-20)
(0.003 1.48679e-19 3.76028e-20)
(0.003 1.51036e-19 -5.72631e-20)
(0.003 4.1181e-20 -1.66389e-19)
(0.003 5.60813e-20 -2.71717e-19)
(0.003 1.63028e-20 -3.58868e-19)
(0.003 -8.72984e-20 -3.09405e-19)
(0.003 -7.795e-20 -2.56131e-19)
(0.003 -3.43937e-20 -2.98235e-21)
(0.003 1.68711e-21 6.52566e-20)
(0.003 3.54396e-20 -9.18234e-20)
(0.003 2.64816e-19 2.2462e-19)
(0.003 2.19743e-19 3.01383e-19)
(0.003 1.47462e-19 3.06641e-19)
(0.003 1.11008e-19 3.47781e-19)
(0.003 5.48226e-20 3.34614e-19)
(0.003 -2.25516e-20 2.82882e-19)
(0.003 -9.5523e-21 2.25595e-19)
(0.003 2.95678e-20 2.71836e-19)
(0.003 -8.1485e-21 2.60029e-19)
(0.003 6.93935e-20 2.00785e-19)
(0.003 1.25812e-19 2.90919e-19)
(0.003 1.28646e-19 2.71503e-19)
(0.003 6.43196e-20 1.93077e-19)
(0.003 6.73425e-20 9.52e-20)
(0.003 6.38655e-20 1.20655e-19)
(0.003 4.09849e-20 1.65705e-19)
(0.003 -2.19104e-21 3.14617e-20)
(0.003 -4.61816e-20 -6.8182e-20)
(0.003 3.9996e-20 -7.70137e-20)
(0.003 -1.54372e-20 -6.34448e-20)
(0.003 3.49356e-20 -3.56148e-20)
(0.003 8.60137e-20 1.01144e-19)
(0.003 -9.1174e-21 3.23516e-19)
(0.003 -3.61705e-20 3.58184e-19)
(0.003 -5.44698e-20 2.87004e-19)
(0.003 -5.67632e-20 6.64991e-20)
(0.003 -1.68097e-19 -7.59366e-20)
(0.003 -1.98134e-19 -6.43854e-20)
(0.003 -5.54707e-20 7.96014e-21)
(0.003 5.94616e-20 1.19308e-19)
(0.003 3.17829e-20 1.59183e-19)
(0.003 1.84682e-19 8.32657e-21)
(0.003 3.4143e-19 -1.04479e-19)
(0.003 1.57262e-19 -2.523e-19)
(0.003 -1.25638e-20 -4.50787e-19)
(0.003 -6.82976e-20 -3.40004e-19)
(0.003 -8.67043e-20 -3.45712e-19)
(0.003 -1.40321e-19 -1.08785e-19)
(0.003 -1.72652e-19 4.40009e-20)
(0.003 -1.39004e-19 -6.19972e-20)
(0.003 7.48946e-20 2.99015e-19)
(0.003 1.58068e-19 4.69211e-19)
(0.003 1.94942e-19 3.07063e-19)
(0.003 1.20378e-19 3.67268e-19)
(0.003 6.24963e-20 3.97636e-19)
(0.003 1.41608e-19 3.07451e-19)
(0.003 8.95076e-20 2.98685e-19)
(0.003 -2.01984e-20 2.71206e-19)
(0.003 -1.70618e-20 1.94586e-19)
(0.003 2.3463e-20 2.71308e-19)
(0.003 -6.82444e-21 3.25401e-19)
(0.003 -8.33043e-21 2.8578e-19)
(0.003 -5.98545e-20 2.34121e-19)
(0.003 -7.38597e-20 1.24533e-19)
(0.003 7.18546e-20 1.38108e-19)
(0.003 1.5729e-19 1.58533e-19)
(0.003 9.83831e-20 6.98665e-20)
(0.003 1.58133e-20 -1.30793e-20)
(0.003 6.49428e-20 3.15917e-20)
(0.003 -1.51768e-20 1.28088e-20)
(0.003 -7.63855e-20 2.47702e-20)
(0.003 3.82251e-20 1.54009e-19)
(0.003 7.37323e-20 3.39433e-19)
(0.003 6.43957e-21 3.71372e-19)
(0.003 -2.52212e-20 2.12957e-19)
(0.003 -7.72175e-20 -1.47615e-20)
(0.003 -1.39452e-19 -1.80529e-19)
(0.003 -1.55762e-19 -7.07222e-20)
(0.003 4.91685e-20 -4.39768e-20)
(0.003 6.34559e-20 9.06587e-20)
(0.003 -2.26002e-20 1.25817e-19)
(0.003 9.75629e-20 7.70059e-20)
(0.003 1.85885e-19 1.2177e-22)
(0.003 7.6221e-20 -2.92249e-19)
(0.003 -4.59421e-20 -4.93453e-19)
(0.003 1.99923e-20 -4.18681e-19)
(0.003 6.56083e-21 -3.6442e-19)
(0.003 -1.59032e-19 -2.24344e-19)
(0.003 -2.65155e-19 -4.34646e-20)
(0.003 -2.00281e-19 1.90399e-20)
(0.003 -1.36324e-19 3.16902e-19)
(0.003 3.06249e-20 4.29181e-19)
(0.003 2.39835e-19 4.59953e-19)
(0.003 2.02677e-19 4.48713e-19)
(0.003 6.28039e-20 4.26418e-19)
(0.003 1.29284e-19 3.78282e-19)
(0.003 1.87656e-19 3.40964e-19)
(0.003 5.98494e-20 2.82509e-19)
(0.003 2.64719e-20 1.98262e-19)
(0.003 -8.36285e-20 1.69813e-19)
(0.003 -5.48627e-20 2.35236e-19)
(0.003 -5.64446e-20 3.15849e-19)
(0.003 -6.07263e-20 2.11136e-19)
(0.003 -5.53498e-21 1.46814e-19)
(0.003 5.71338e-20 2.3678e-19)
(0.003 -3.51665e-21 2.11137e-19)
(0.003 -9.14664e-20 5.61226e-20)
(0.003 -2.14507e-20 -3.85896e-20)
(0.003 -3.3618e-21 1.72184e-21)
(0.003 1.51431e-20 3.72293e-20)
(0.003 1.3142e-19 6.86794e-20)
(0.003 9.58395e-20 1.46544e-19)
(0.003 -3.74313e-20 3.36757e-19)
(0.003 -3.96476e-20 3.69714e-19)
(0.003 5.1969e-20 2.19833e-19)
(0.003 4.78765e-20 -7.56936e-20)
(0.003 -1.74446e-20 -2.59006e-19)
(0.003 -8.36395e-20 -1.70091e-19)
(0.003 -4.41886e-21 5.57543e-20)
(0.003 3.5639e-20 1.56386e-19)
(0.003 1.87258e-20 1.48617e-19)
(0.003 9.68726e-20 6.91924e-20)
(0.003 6.13144e-20 -4.2901e-20)
(0.003 -1.01207e-21 -3.19315e-19)
(0.003 1.23995e-19 -4.93741e-19)
(0.003 7.66825e-20 -4.31712e-19)
(0.003 -1.72709e-20 -3.43918e-19)
(0.003 -1.60418e-19 -2.03637e-19)
(0.003 -3.16574e-19 -4.42774e-20)
(0.003 -2.66253e-19 -3.51105e-20)
(0.003 5.11968e-20 3.40744e-19)
(0.003 1.35435e-19 5.42426e-19)
(0.003 1.44884e-19 5.43483e-19)
(0.003 1.62607e-19 5.0065e-19)
(0.003 8.06418e-20 4.57471e-19)
(0.003 5.8301e-20 4.32103e-19)
(0.003 1.35826e-19 4.47269e-19)
(0.003 6.08778e-20 3.0401e-19)
(0.003 -1.87839e-20 2.39963e-19)
(0.003 -4.86736e-20 1.90469e-19)
(0.003 -2.5624e-20 1.48727e-19)
(0.003 -4.58659e-20 2.48626e-19)
(0.003 4.62963e-20 2.24308e-19)
(0.003 8.72741e-20 9.001e-20)
(0.003 -1.64034e-20 2.79621e-19)
(0.003 -5.41965e-20 3.09752e-19)
(0.003 -6.14106e-20 1.06569e-19)
(0.003 -5.31611e-21 8.47635e-20)
(0.003 -7.31992e-20 1.0665e-20)
(0.003 4.85069e-20 -8.0607e-20)
(0.003 2.64985e-19 7.53156e-20)
(0.003 1.28294e-19 2.24325e-19)
(0.003 -4.15484e-20 2.69378e-19)
(0.003 -2.06383e-20 3.30047e-19)
(0.003 -2.1337e-20 2.19287e-19)
(0.003 1.96007e-20 -9.23175e-20)
(0.003 8.7147e-20 -2.05269e-19)
(0.003 4.04033e-20 -1.45214e-19)
(0.003 -5.50904e-20 5.41281e-20)
(0.003 -4.53397e-20 2.1308e-19)
(0.003 -1.52404e-21 1.80107e-19)
(0.003 5.22562e-20 7.47009e-20)
(0.003 1.76953e-20 -1.22258e-19)
(0.003 4.81314e-20 -3.34411e-19)
(0.003 1.51887e-19 -4.32745e-19)
(0.003 1.26637e-19 -3.82806e-19)
(0.003 -8.75633e-20 -3.61072e-19)
(0.003 -2.36587e-19 -2.51458e-19)
(0.003 -9.01486e-20 -1.72416e-19)
(0.003 -8.84895e-21 -1.73726e-19)
(0.003 1.26867e-19 3.74273e-19)
(0.003 1.68162e-19 6.47327e-19)
(0.003 1.4542e-19 6.60594e-19)
(0.003 9.37738e-20 5.4763e-19)
(0.003 1.13334e-19 4.47111e-19)
(0.003 6.5919e-20 4.71943e-19)
(0.003 -3.2241e-20 3.69071e-19)
(0.003 -1.56895e-20 2.73015e-19)
(0.003 -3.11442e-20 2.15562e-19)
(0.003 -7.20704e-20 2.02247e-19)
(0.003 -2.62244e-20 2.10336e-19)
(0.003 1.71822e-20 2.44758e-19)
(0.003 5.44449e-20 2.50162e-19)
(0.003 1.11735e-19 1.86332e-19)
(0.003 4.54673e-20 3.012e-19)
(0.003 -7.32003e-20 2.76402e-19)
(0.003 -2.04365e-20 1.21677e-19)
(0.003 1.23418e-20 2.96776e-20)
(0.003 5.59454e-20 3.87273e-20)
(0.003 4.68199e-20 -8.4673e-20)
(0.003 4.84681e-20 6.86842e-20)
(0.003 -5.32029e-20 2.24143e-19)
(0.003 -6.11056e-20 2.21915e-19)
(0.003 -3.21956e-20 3.01876e-19)
(0.003 -7.27881e-20 2.31385e-19)
(0.003 -6.42141e-20 -5.99344e-20)
(0.003 5.38437e-20 -1.96292e-19)
(0.003 1.74471e-19 -8.82483e-20)
(0.003 -6.51767e-23 5.64891e-20)
(0.003 -9.50922e-20 1.62907e-19)
(0.003 1.97591e-20 1.67045e-19)
(0.003 -4.39915e-20 1.71155e-19)
(0.003 -9.93645e-20 -4.6683e-21)
(0.003 9.68055e-22 -3.5339e-19)
(0.003 7.81737e-20 -2.81541e-19)
(0.003 1.19932e-19 -3.05358e-19)
(0.003 7.30492e-20 -4.90853e-19)
(0.003 1.00488e-20 -3.41088e-19)
(0.003 3.39174e-20 -2.18115e-19)
(0.003 3.86712e-21 -1.57476e-19)
(0.003 1.67922e-19 4.57195e-19)
(0.003 1.71454e-19 6.7774e-19)
(0.003 9.13876e-20 6.64094e-19)
(0.003 6.7415e-20 6.2278e-19)
(0.003 1.2624e-19 5.43794e-19)
(0.003 5.74358e-20 4.88572e-19)
(0.003 -4.22744e-20 3.5447e-19)
(0.003 -4.88003e-20 2.53117e-19)
(0.003 7.35791e-20 1.86108e-19)
(0.003 1.84352e-19 1.91453e-19)
(0.003 1.32361e-20 2.00944e-19)
(0.003 -1.03227e-19 2.24078e-19)
(0.003 -1.87844e-20 2.87951e-19)
(0.003 7.54082e-20 3.13169e-19)
(0.003 4.63432e-20 2.98653e-19)
(0.003 -4.51845e-20 2.0006e-19)
(0.003 -3.71442e-20 2.24707e-20)
(0.003 -1.40548e-19 1.39573e-20)
(0.003 -1.12028e-19 3.77805e-20)
(0.003 3.21815e-20 -2.00496e-21)
(0.003 6.52199e-20 1.09316e-19)
(0.003 6.00297e-20 2.20141e-19)
(0.003 7.96403e-21 1.71758e-19)
(0.003 -1.29901e-19 1.34116e-19)
(0.003 -1.00211e-19 1.3689e-19)
(0.003 -4.96732e-20 7.09122e-20)
(0.003 2.99876e-20 -9.64718e-21)
(0.003 1.31496e-19 3.61479e-21)
(0.003 7.00772e-20 5.3702e-20)
(0.003 1.73278e-21 7.98072e-20)
(0.003 -4.33711e-21 1.4474e-19)
(0.003 -1.88437e-19 8.80205e-20)
(0.003 -1.84797e-19 -5.91842e-20)
(0.003 6.09708e-21 -1.63845e-19)
(0.003 7.3217e-20 -1.33554e-19)
(0.003 5.05132e-20 -2.68844e-19)
(0.003 1.96459e-20 -4.08973e-19)
(0.003 1.34735e-19 -3.03813e-19)
(0.003 9.85695e-20 -1.63617e-19)
(0.003 -3.58144e-20 -1.97364e-19)
(0.003 3.46167e-20 5.44667e-19)
(0.003 4.96494e-20 7.7376e-19)
(0.003 8.07027e-20 7.49491e-19)
(0.003 -4.69519e-21 5.96167e-19)
(0.003 -5.25798e-20 5.66258e-19)
(0.003 5.72057e-20 5.07522e-19)
(0.003 8.90085e-20 3.60316e-19)
(0.003 8.55942e-20 2.28638e-19)
(0.003 1.02549e-19 2.60239e-19)
(0.003 9.03501e-20 3.48283e-19)
(0.003 7.3155e-20 2.71253e-19)
(0.003 -9.32078e-21 1.8455e-19)
(0.003 -6.78945e-20 2.89003e-19)
(0.003 -4.10132e-20 3.12816e-19)
(0.003 -5.82345e-20 2.41734e-19)
(0.003 -6.89438e-20 1.22084e-19)
(0.003 -8.40412e-20 -5.5309e-20)
(0.003 -1.26673e-20 -2.33196e-20)
(0.003 1.82506e-21 -2.07192e-20)
(0.003 -1.73007e-20 -1.55777e-19)
(0.003 2.88303e-20 6.33002e-20)
(0.003 6.01642e-20 2.54437e-19)
(0.003 4.9921e-20 2.12421e-19)
(0.003 -4.26609e-20 1.57683e-19)
(0.003 -1.62626e-19 1.3842e-19)
(0.003 -5.92982e-20 1.14264e-19)
(0.003 6.69951e-20 2.06385e-20)
(0.003 9.78571e-20 6.85951e-20)
(0.003 1.33618e-19 5.44215e-21)
(0.003 1.31794e-20 2.37969e-20)
(0.003 -8.93942e-20 5.58787e-20)
(0.003 -1.52958e-19 -5.50773e-20)
(0.003 -1.20878e-19 -4.24906e-20)
(0.003 -4.93734e-20 -8.19366e-20)
(0.003 -2.78823e-20 -2.83131e-20)
(0.003 8.3365e-20 -2.06083e-19)
(0.003 1.72325e-20 -4.35653e-19)
(0.003 -5.23119e-20 -3.2718e-19)
(0.003 -5.19601e-20 -2.49994e-19)
(0.003 -1.26069e-19 -4.07986e-19)
(0.003 -2.43528e-20 5.54951e-19)
(0.003 1.93572e-20 8.33061e-19)
(0.003 -1.51188e-21 8.06818e-19)
(0.003 -5.21924e-20 5.71315e-19)
(0.003 -3.69417e-20 4.74361e-19)
(0.003 -9.61782e-21 5.27286e-19)
(0.003 5.45393e-20 4.48717e-19)
(0.003 1.46636e-19 3.36811e-19)
(0.003 7.23823e-20 3.18088e-19)
(0.003 -6.61444e-20 3.38896e-19)
(0.003 4.3016e-21 3.18375e-19)
(0.003 8.42774e-21 2.09562e-19)
(0.003 -5.80143e-20 2.5899e-19)
(0.003 -1.42472e-19 2.64159e-19)
(0.003 -1.29476e-19 2.12098e-19)
(0.003 -9.47252e-20 1.17254e-19)
(0.003 -3.7382e-20 -1.29673e-19)
(0.003 8.00718e-20 -1.19534e-19)
(0.003 1.42538e-19 -4.00194e-20)
(0.003 1.63123e-19 -1.14835e-19)
(0.003 6.57789e-20 1.30465e-19)
(0.003 -9.78715e-21 2.61097e-19)
(0.003 -6.44711e-20 2.32554e-19)
(0.003 -1.21231e-19 1.12117e-19)
(0.003 -1.94182e-19 1.58501e-20)
(0.003 -4.84346e-20 1.13106e-19)
(0.003 1.28154e-19 1.00545e-19)
(0.003 1.49624e-19 1.10066e-19)
(0.003 9.04475e-20 5.67291e-20)
(0.003 -4.13444e-20 1.96163e-20)
(0.003 -5.62018e-20 7.39167e-21)
(0.003 -6.40244e-20 -1.79527e-19)
(0.003 -1.73717e-19 -2.02226e-19)
(0.003 -1.50213e-19 -1.97452e-19)
(0.003 -5.83226e-20 2.09536e-20)
(0.003 3.56257e-20 3.55879e-20)
(0.003 1.46698e-19 -2.3192e-19)
(0.003 1.15305e-19 -3.59405e-19)
(0.003 1.0395e-21 -4.26025e-19)
(0.003 -4.37011e-20 -4.75822e-19)
(0.003 -5.45382e-21 6.16186e-19)
(0.003 -2.12859e-20 8.2027e-19)
(0.003 -1.02636e-20 7.9423e-19)
(0.003 -3.69973e-20 6.0561e-19)
(0.003 -5.02463e-20 5.34422e-19)
(0.003 -1.02074e-19 5.45921e-19)
(0.003 -3.76392e-21 4.45129e-19)
(0.003 1.41059e-19 4.01438e-19)
(0.003 4.07263e-20 3.40374e-19)
(0.003 -2.69877e-20 2.56343e-19)
(0.003 -2.51419e-20 3.01374e-19)
(0.003 -7.2961e-20 2.81455e-19)
(0.003 -6.53327e-20 3.34618e-19)
(0.003 -8.73328e-20 2.08851e-19)
(0.003 -1.04869e-19 1.24186e-19)
(0.003 -8.49729e-20 7.73944e-20)
(0.003 -2.42785e-20 -9.43826e-20)
(0.003 5.52319e-20 -4.61498e-20)
(0.003 1.54002e-19 -4.85797e-20)
(0.003 3.17725e-19 -1.1267e-19)
(0.003 1.68042e-19 9.49486e-20)
(0.003 -6.09508e-20 3.16602e-19)
(0.003 -1.88749e-19 2.64553e-19)
(0.003 -1.77406e-19 1.09961e-19)
(0.003 1.19318e-20 6.46951e-20)
(0.003 -2.09837e-20 1.10971e-19)
(0.003 -3.26707e-20 5.5599e-20)
(0.003 1.90216e-20 7.50695e-20)
(0.003 -2.90237e-20 8.27204e-20)
(0.003 2.19674e-20 3.52226e-20)
(0.003 -2.08408e-20 -5.32733e-20)
(0.003 -5.53919e-20 -2.55063e-19)
(0.003 -7.98339e-20 -2.687e-19)
(0.003 -1.19385e-19 -2.84934e-19)
(0.003 -5.5215e-20 -7.7023e-20)
(0.003 -6.55291e-21 6.94877e-20)
(0.003 1.63947e-19 -7.99196e-20)
(0.003 1.89163e-19 -3.11396e-19)
(0.003 8.38542e-20 -4.13946e-19)
(0.003 1.07664e-19 -4.80702e-19)
(0.003 -9.64205e-20 5.46299e-19)
(0.003 -5.53529e-20 7.98173e-19)
(0.003 6.38474e-20 7.90426e-19)
(0.003 8.83066e-22 6.03075e-19)
(0.003 -6.77385e-20 4.63013e-19)
(0.003 -1.26183e-19 4.63469e-19)
(0.003 -9.28129e-21 4.924e-19)
(0.003 6.38272e-20 4.46122e-19)
(0.003 3.25978e-20 3.73074e-19)
(0.003 5.07415e-20 3.14541e-19)
(0.003 -7.37905e-20 3.45468e-19)
(0.003 -8.13469e-20 2.71078e-19)
(0.003 -1.14173e-19 2.84601e-19)
(0.003 -6.72942e-20 2.10692e-19)
(0.003 8.81366e-21 1.06775e-19)
(0.003 -4.56431e-20 2.7036e-20)
(0.003 -3.55135e-21 -2.69322e-20)
(0.003 1.13467e-19 3.34482e-20)
(0.003 1.84675e-19 7.54827e-20)
(0.003 2.40506e-19 6.01981e-20)
(0.003 1.7241e-19 1.85742e-19)
(0.003 -1.92422e-20 1.46319e-19)
(0.003 -1.9552e-19 5.87003e-20)
(0.003 -2.21457e-19 2.32521e-20)
(0.003 5.13691e-21 1.22405e-19)
(0.003 -2.8592e-20 1.57035e-19)
(0.003 -1.69864e-19 5.17966e-20)
(0.003 -1.49996e-19 8.29059e-20)
(0.003 -1.03858e-19 7.95251e-20)
(0.003 5.80312e-21 3.40008e-20)
(0.003 -2.27058e-21 -5.13657e-20)
(0.003 1.73101e-21 -2.51541e-19)
(0.003 4.51416e-20 -2.80102e-19)
(0.003 1.19483e-20 -2.63858e-19)
(0.003 5.15344e-21 -7.93256e-20)
(0.003 3.79963e-20 -2.11244e-20)
(0.003 2.04647e-20 -1.12123e-19)
(0.003 7.75572e-21 -2.67197e-19)
(0.003 7.39007e-20 -3.91612e-19)
(0.003 1.28411e-19 -4.19969e-19)
(0.003 -1.03291e-19 4.66373e-19)
(0.003 -1.27106e-19 8.50628e-19)
(0.003 -5.61664e-20 9.23384e-19)
(0.003 5.15861e-20 6.7096e-19)
(0.003 5.7853e-20 4.61513e-19)
(0.003 3.76162e-21 4.03668e-19)
(0.003 -7.07036e-20 4.78546e-19)
(0.003 -1.31386e-19 4.78569e-19)
(0.003 -7.14664e-20 3.62295e-19)
(0.003 -2.32643e-20 2.99108e-19)
(0.003 8.2065e-21 2.89787e-19)
(0.003 2.66882e-20 2.41914e-19)
(0.003 -1.09889e-19 2.22305e-19)
(0.003 -1.18212e-19 2.11477e-19)
(0.003 -1.58332e-20 1.97651e-19)
(0.003 4.13905e-20 9.52561e-20)
(0.003 1.78162e-20 7.78149e-20)
(0.003 1.31611e-19 3.69409e-20)
(0.003 3.44423e-19 -1.00848e-19)
(0.003 2.02011e-19 7.75693e-21)
(0.003 -1.30696e-20 2.50334e-19)
(0.003 -8.35255e-20 2.81292e-19)
(0.003 -2.27368e-20 1.34721e-19)
(0.003 1.03391e-22 7.10666e-20)
(0.003 -1.20838e-19 1.1959e-19)
(0.003 -1.42009e-19 4.71022e-20)
(0.003 -1.58177e-19 -2.38933e-20)
(0.003 -2.80982e-19 -3.2133e-22)
(0.003 -1.24938e-19 8.22011e-20)
(0.003 -3.68875e-20 1.19388e-20)
(0.003 -5.80102e-20 -1.98466e-19)
(0.003 -1.1382e-20 -2.52571e-19)
(0.003 -1.95241e-20 -2.17254e-19)
(0.003 8.35546e-20 -1.15765e-19)
(0.003 1.17657e-19 -2.57028e-20)
(0.003 3.95152e-20 -8.90279e-20)
(0.003 -6.79703e-20 -2.68113e-19)
(0.003 -1.01823e-20 -3.52525e-19)
(0.003 3.42007e-20 -4.7721e-19)
(0.003 6.60544e-21 -4.17892e-19)
(0.003 -6.0875e-20 4.84421e-19)
(0.003 -1.04901e-19 7.86383e-19)
(0.003 -9.19293e-20 8.42028e-19)
(0.003 -2.70103e-20 7.4504e-19)
(0.003 1.14576e-20 5.69578e-19)
(0.003 3.15234e-20 4.12894e-19)
(0.003 -5.36026e-20 4.17105e-19)
(0.003 -1.24893e-19 3.46177e-19)
(0.003 -1.06911e-19 3.60385e-19)
(0.003 -5.43484e-20 4.01507e-19)
(0.003 -3.09548e-21 3.14462e-19)
(0.003 4.44047e-20 2.28683e-19)
(0.003 -4.97607e-20 2.19067e-19)
(0.003 -1.12815e-19 1.71534e-19)
(0.003 -9.07096e-20 1.1093e-19)
(0.003 -4.77571e-20 2.20673e-19)
(0.003 -7.59955e-22 1.74082e-19)
(0.003 1.1078e-19 2.41928e-20)
(0.003 2.5132e-19 2.57526e-20)
(0.003 9.25556e-20 6.4783e-20)
(0.003 -4.1621e-20 1.48247e-19)
(0.003 -6.4609e-20 2.24145e-19)
(0.003 4.00084e-20 2.64021e-19)
(0.003 4.38206e-20 1.59633e-19)
(0.003 -8.44925e-20 4.31581e-20)
(0.003 -8.80184e-20 -5.6441e-20)
(0.003 2.65963e-20 -1.1897e-19)
(0.003 -1.47689e-19 -7.36748e-20)
(0.003 -3.06782e-19 1.7835e-20)
(0.003 -1.24412e-19 -6.70074e-20)
(0.003 -1.1796e-19 -1.09233e-19)
(0.003 -1.68849e-19 -2.00315e-19)
(0.003 -3.0181e-20 -3.41279e-19)
(0.003 1.61582e-19 -1.81421e-19)
(0.003 1.31746e-19 3.32911e-20)
(0.003 -6.00746e-20 -8.05754e-20)
(0.003 -5.11382e-20 -2.25929e-19)
(0.003 -5.42532e-20 -3.74466e-19)
(0.003 -9.26216e-21 -4.94381e-19)
(0.003 7.33206e-20 -3.64191e-19)
(0.003 6.42624e-20 5.32751e-19)
(0.003 6.27229e-20 8.1831e-19)
(0.003 7.21965e-21 8.03959e-19)
(0.003 -9.94387e-20 6.65983e-19)
(0.003 -8.86089e-20 5.47222e-19)
(0.003 3.24625e-21 4.66212e-19)
(0.003 -6.29514e-20 4.08212e-19)
(0.003 -1.52774e-19 3.74684e-19)
(0.003 -1.42053e-19 3.52038e-19)
(0.003 -1.74344e-20 3.29256e-19)
(0.003 7.74164e-20 2.71405e-19)
(0.003 9.72636e-20 2.29954e-19)
(0.003 1.50924e-19 1.62701e-19)
(0.003 9.06599e-20 1.64796e-19)
(0.003 -8.5342e-20 1.6108e-19)
(0.003 -1.10702e-19 2.40509e-19)
(0.003 -1.59622e-19 8.70717e-20)
(0.003 -1.33607e-19 -1.0168e-19)
(0.003 -3.80564e-21 5.88225e-20)
(0.003 -8.79439e-21 6.23358e-20)
(0.003 2.67219e-20 1.52828e-19)
(0.003 9.25836e-20 2.79191e-19)
(0.003 2.72898e-20 2.73349e-19)
(0.003 1.7766e-20 1.23377e-19)
(0.003 9.49743e-20 6.36145e-20)
(0.003 -2.45132e-20 -5.81134e-20)
(0.003 -1.08057e-20 -4.08673e-20)
(0.003 2.75543e-20 3.13082e-20)
(0.003 -3.06935e-20 2.0075e-20)
(0.003 -1.36584e-19 -2.10697e-19)
(0.003 -1.89349e-19 -2.04288e-19)
(0.003 -1.57604e-19 -2.5809e-19)
(0.003 6.78266e-21 -4.10886e-19)
(0.003 2.29596e-20 -1.26179e-19)
(0.003 -4.51611e-20 7.85569e-20)
(0.003 3.10045e-20 -7.84584e-20)
(0.003 2.0199e-19 -2.6459e-19)
(0.003 9.8637e-20 -4.2148e-19)
(0.003 -5.11604e-20 -4.74463e-19)
(0.003 -6.14902e-20 -3.62911e-19)
(0.003 1.94325e-19 5.77345e-19)
(0.003 1.42439e-19 8.29001e-19)
(0.003 -5.10051e-20 8.05924e-19)
(0.003 -1.91292e-19 6.32413e-19)
(0.003 -8.52641e-20 5.62451e-19)
(0.003 1.99042e-20 4.79457e-19)
(0.003 -4.92429e-20 3.09696e-19)
(0.003 -1.18422e-19 2.17073e-19)
(0.003 -6.95852e-20 2.80189e-19)
(0.003 7.0307e-20 4.18792e-19)
(0.003 1.34445e-19 4.26117e-19)
(0.003 7.71562e-20 3.59435e-19)
(0.003 1.03292e-19 2.42035e-19)
(0.003 1.49869e-19 1.88065e-19)
(0.003 -7.77678e-20 1.93285e-19)
(0.003 -1.64093e-19 1.19485e-19)
(0.003 -1.59074e-19 -2.90212e-20)
(0.003 -1.98095e-19 -1.48406e-19)
(0.003 -1.59583e-19 3.16405e-20)
(0.003 -1.0514e-19 8.09085e-20)
(0.003 2.25924e-21 1.407e-19)
(0.003 8.4716e-20 2.04987e-19)
(0.003 4.82485e-20 2.14599e-19)
(0.003 5.80886e-20 1.45963e-19)
(0.003 1.227e-19 9.64387e-20)
(0.003 6.65221e-20 7.00246e-20)
(0.003 -1.09211e-19 1.3655e-20)
(0.003 6.95008e-20 -2.02234e-20)
(0.003 1.83644e-19 -1.93231e-20)
(0.003 1.8514e-20 -2.25931e-19)
(0.003 -2.85379e-20 -2.84835e-19)
(0.003 -1.17173e-19 -4.1041e-19)
(0.003 -4.15655e-20 -3.88376e-19)
(0.003 -1.19321e-19 -1.11082e-19)
(0.003 -1.24221e-19 -7.02762e-20)
(0.003 1.22031e-19 -3.25209e-20)
(0.003 7.79691e-20 -4.72652e-20)
(0.003 -8.72842e-21 -3.14188e-19)
(0.003 -3.03717e-20 -5.13831e-19)
(0.003 -3.6311e-20 -4.43877e-19)
(0.003 1.28535e-19 6.19877e-19)
(0.003 3.23259e-20 8.73048e-19)
(0.003 -7.55238e-20 7.7547e-19)
(0.003 -1.74711e-21 5.34984e-19)
(0.003 -5.37034e-20 4.7026e-19)
(0.003 -4.30805e-20 4.49414e-19)
(0.003 3.50049e-22 3.71317e-19)
(0.003 8.50699e-20 3.12078e-19)
(0.003 1.42037e-19 2.98797e-19)
(0.003 6.8478e-20 3.8579e-19)
(0.003 1.57431e-20 3.84001e-19)
(0.003 -3.39387e-21 3.7179e-19)
(0.003 4.57048e-20 2.56586e-19)
(0.003 -4.81025e-20 2.8412e-19)
(0.003 -1.70732e-19 1.50685e-19)
(0.003 -1.38927e-19 -2.87935e-20)
(0.003 -7.06065e-20 -3.74068e-20)
(0.003 -1.48646e-19 -1.00853e-19)
(0.003 -2.89496e-19 -3.17783e-20)
(0.003 -1.78337e-19 1.28785e-20)
(0.003 -4.04213e-20 1.89278e-19)
(0.003 1.25042e-21 3.07916e-19)
(0.003 9.90308e-20 2.23079e-19)
(0.003 2.45333e-19 1.6782e-19)
(0.003 1.62061e-19 7.68726e-20)
(0.003 1.31538e-19 4.98935e-20)
(0.003 -1.87221e-20 -9.07337e-20)
(0.003 2.09354e-20 -6.55744e-20)
(0.003 1.05419e-19 -1.42909e-20)
(0.003 5.10127e-20 -1.54124e-19)
(0.003 1.17866e-19 -2.57971e-19)
(0.003 1.10436e-19 -3.17811e-19)
(0.003 5.24359e-21 -3.39552e-19)
(0.003 -5.86512e-20 -1.48925e-19)
(0.003 -9.51509e-20 -4.51683e-20)
(0.003 -7.86781e-21 -2.65052e-20)
(0.003 -7.55156e-20 -1.42358e-19)
(0.003 -9.13699e-20 -3.74128e-19)
(0.003 -2.21067e-21 -3.60209e-19)
(0.003 5.72668e-20 -1.20739e-19)
(0.003 -1.14144e-19 6.43392e-19)
(0.003 -1.94996e-19 9.04774e-19)
(0.003 -8.44812e-20 7.8334e-19)
(0.003 2.91008e-20 5.31338e-19)
(0.003 -1.91608e-20 4.21462e-19)
(0.003 3.35286e-20 4.94394e-19)
(0.003 1.41474e-19 3.4409e-19)
(0.003 1.68672e-19 2.72912e-19)
(0.003 4.88546e-20 3.26352e-19)
(0.003 -1.49492e-20 4.11765e-19)
(0.003 -5.27052e-20 4.13134e-19)
(0.003 -8.16569e-20 3.8726e-19)
(0.003 -5.34551e-20 2.87538e-19)
(0.003 -1.31261e-19 1.23856e-19)