/*--------------------------------*- C++ -*----------------------------------*\
| =========                 |                                                 |
| \\      /  F ield         | OpenFOAM: The Open Source CFD Toolbox           |
|  \\    /   O peration     | Version:  v2012                                 |
|   \\  /    A nd           | Website:  www.openfoam.com                      |
|    \\/     M anipulation  |                                                 |
\*---------------------------------------------------------------------------*/
FoamFile
{
    version     2.0;
    format      ascii;
    class       volScalarField;
    location    "25";
    object      p;
}
// * * * * * * * * * * * * * * * * * * * * * * * * * * * * * * * * * * * * * //

dimensions      [0 2 -2 0 0 0 0];


internalField   nonuniform List<scalar> 
64000
(
9.09723e-23
-3.46751e-21
-2.27664e-21
-4.44591e-21
-7.27827e-21
-2.01968e-21
-3.4334e-21
-2.9098e-21
-4.44013e-21
-3.54483e-21
-4.03391e-21
-6.344e-21
-3.6712e-21
-5.90715e-21
-3.61116e-21
-4.94013e-21
-9.50314e-22
-6.74353e-22
-1.03259e-21
-9.96091e-22
-1.47652e-21
-2.37039e-21
-1.61646e-21
7.60781e-22
-5.02479e-21
-1.46458e-21
2.46713e-22
-3.47258e-21
-2.23043e-21
-1.66064e-21
-1.16253e-21
-7.36767e-22
-1.32787e-21
-1.10221e-21
-1.31088e-21
-5.8641e-21
-3.24514e-21
5.76919e-22
1.29745e-21
8.77502e-22
-6.08761e-21
-9.76516e-21
-8.88178e-21
-6.6349e-21
-9.00725e-21
-1.06066e-20
-6.81492e-21
-2.40528e-21
-3.17805e-21
-8.3391e-21
-8.21699e-21
-9.60838e-21
-3.98362e-21
-4.39445e-21
-6.92081e-21
-6.53505e-21
-4.25357e-21
1.42886e-21
-2.45757e-21
-1.64923e-21
1.20041e-21
-3.25823e-21
-4.97326e-21
-6.94722e-21
-6.12069e-21
-1.3892e-21
-1.53294e-21
-4.05939e-21
-2.93629e-21
-1.70596e-21
1.74557e-21
2.68385e-22
-4.15678e-21
-2.77596e-21
-1.45928e-21
-2.53427e-21
-3.6741e-21
-1.94852e-23
2.11125e-21
1.53069e-21
-5.46439e-21
-7.65855e-21
-1.19978e-20
-9.37324e-21
-7.80146e-21
-1.04567e-20
-8.29738e-21
-7.31225e-21
-7.85477e-21
-8.72841e-21
-6.43903e-21
-7.85912e-21
-5.68787e-21
-4.27599e-21
-4.19735e-21
-1.57521e-21
-6.93311e-21
-2.52574e-21
-1.78359e-21
-1.87472e-22
-2.59861e-21
-5.40338e-21
-5.86887e-21
-4.86776e-21
-3.07615e-21
-3.51444e-21
-3.93762e-21
-3.97504e-21
-8.11372e-22
-2.32273e-21
-1.35386e-21
-1.06347e-21
-4.76735e-21
3.0764e-22
-1.15271e-21
-2.81869e-21
-6.61782e-22
7.44767e-22
1.02823e-21
1.33051e-21
-8.34225e-21
-8.50174e-21
-9.52682e-21
-1.28846e-20
-1.16885e-20
-1.18112e-20
-9.31927e-21
-6.21858e-21
-8.63014e-21
-9.1017e-21
-7.75268e-21
-8.22368e-21
-7.53088e-21
-4.23921e-21
-4.92592e-21
-2.8313e-21
-4.45684e-21
-3.0075e-21
9.08187e-22
-1.62331e-21
-3.22478e-21
-7.15403e-21
-6.68204e-21
-4.46993e-21
-4.54283e-21
-4.12292e-21
-2.60742e-21
-2.48006e-22
-1.12679e-21
-3.13343e-21
5.61035e-22
-2.44181e-21
-4.5669e-21
2.70214e-24
-3.73711e-22
-1.2003e-21
-1.01832e-21
-2.10732e-21
1.71109e-22
-1.42968e-22
-1.49069e-20
-9.46541e-21
-1.04079e-20
-1.01571e-20
-1.24325e-20
-1.3401e-20
-9.98781e-21
-4.08972e-21
-7.67143e-21
-1.06105e-20
-8.09567e-21
-7.74952e-21
-6.19839e-21
-2.00533e-21
-7.47208e-21
-1.08048e-20
-4.37489e-21
-8.57043e-23
-1.78216e-21
-2.18673e-21
-1.90122e-21
-6.79649e-21
-9.2243e-21
-4.10775e-21
-3.71325e-21
-3.17574e-21
-1.18232e-21
-1.7058e-21
-4.23001e-21
-2.25661e-22
2.36512e-21
-8.93366e-22
-6.77118e-22
3.97948e-22
-2.70579e-21
-2.65002e-22
-6.47637e-22
-4.63997e-22
-1.64639e-21
-2.37596e-21
-1.17235e-20
-1.09113e-20
-1.00751e-20
-1.28259e-20
-1.19997e-20
-1.0974e-20
-8.08798e-21
-1.09347e-20
-1.07363e-20
-9.52584e-21
-6.74556e-21
-7.92571e-21
-7.81274e-21
-2.59113e-21
-6.36584e-21
-9.17654e-21
-4.91735e-21
-7.26452e-22
-6.94395e-22
-3.49e-21
4.85948e-22
-5.7874e-21
-1.05936e-20
-6.12026e-21
-4.0783e-21
-2.54559e-21
-3.4526e-21
-1.12172e-21
-1.58305e-21
-2.44642e-21
-1.81911e-21
-1.70185e-21
-2.27576e-22
5.34523e-22
-8.84391e-22
-1.31698e-21
-3.1849e-21
-1.39712e-21
-5.1576e-22
-1.08591e-22
-1.21105e-20
-1.22884e-20
-1.01358e-20
-1.16739e-20
-1.25574e-20
-1.20689e-20
-8.57028e-21
-1.04333e-20
-1.173e-20
-8.89655e-21
-7.40721e-21
-8.88629e-21
-7.10158e-21
-5.63604e-21
-6.55241e-21
-7.63457e-21
-4.14886e-21
6.7606e-22
1.852e-21
-2.78388e-21
-4.18444e-21
-7.04533e-21
-1.30167e-20
-9.53361e-21
-2.67982e-21
-3.4487e-21
-2.66216e-21
-8.46721e-22
-1.75076e-22
-3.80083e-22
-3.90919e-21
-4.01361e-21
7.03598e-22
-6.5384e-23
-9.73521e-22
-3.97746e-21
-3.91672e-21
-3.8127e-22
-4.84091e-22
-1.23583e-21
-1.33599e-20
-1.24189e-20
-1.144e-20
-9.73359e-21
-1.40268e-20
-1.01294e-20
-8.12148e-21
-1.50738e-20
-1.26437e-20
-1.08264e-20
-8.61658e-21
-7.34019e-21
-8.00335e-21
-7.6087e-21
-5.65398e-21
-8.41346e-21
-3.50473e-21
-1.17928e-21
-1.42071e-21
-2.38978e-21
-4.74292e-21
-8.3657e-21
-8.37824e-21
-7.12076e-21
-3.78581e-21
-5.41111e-21
-2.28344e-21
2.28412e-22
-1.62695e-22
-2.05322e-21
-3.9036e-21
-3.28915e-21
1.09919e-22
-1.96862e-21
-4.04584e-21
-6.30033e-21
-2.10626e-21
-1.11969e-22
4.64618e-22
-6.93149e-22
-1.82779e-20
-1.34787e-20
-1.13845e-20
-1.01335e-20
-1.22865e-20
-1.29798e-20
-1.14618e-20
-1.10766e-20
-1.22973e-20
-1.38973e-20
-6.72198e-21
-7.69097e-21
-7.45714e-21
-9.78239e-21
-7.59019e-21
-8.32248e-21
-4.00731e-21
1.70367e-21
-5.42512e-21
-6.17682e-21
-3.1926e-21
-7.0515e-21
-7.8114e-21
-9.19538e-21
-1.56144e-21
-3.45442e-21
-5.32568e-21
-2.45396e-21
8.58607e-22
-2.23134e-21
-1.75481e-21
-1.69119e-21
-1.11848e-21
-2.24989e-21
-6.05787e-21
-3.24351e-21
-2.83422e-21
5.32674e-22
1.38392e-21
-1.11605e-21
-8.84103e-21
-1.17129e-20
-1.27204e-20
-1.07601e-20
-1.29373e-20
-1.39088e-20
-1.14521e-20
-1.07743e-20
-1.16944e-20
-1.18676e-20
-8.61302e-21
-7.20593e-21
-6.99648e-21
-1.01632e-20
-9.09457e-21
-5.28275e-21
-5.00145e-21
-2.45273e-21
-2.31945e-22
-4.03905e-21
-5.53591e-21
-5.54287e-21
-1.02591e-20
-7.64155e-21
-4.40298e-21
-4.07752e-21
-3.48228e-21
-2.196e-21
4.42084e-23
-4.57053e-22
-1.85733e-21
-9.66835e-22
-1.92963e-21
-2.43885e-21
-6.15636e-21
-4.43268e-21
-2.42815e-21
4.87948e-22
1.04144e-21
-8.00791e-22
-8.77742e-21
-1.28072e-20
-1.31264e-20
-1.46153e-20
-1.10891e-20
-1.31086e-20
-1.57681e-20
-8.84257e-21
-1.30944e-20
-1.34838e-20
-8.4644e-21
-4.70172e-21
-5.78502e-21
-9.48266e-21
-1.02702e-20
-8.77334e-21
-4.91737e-21
-8.53669e-22
2.07039e-21
-2.9428e-21
-6.71945e-21
-1.19329e-20
-9.5235e-21
-7.80924e-21
-5.83865e-21
-2.9359e-21
-2.38652e-22
-1.19287e-21
-7.78366e-22
-6.65026e-22
-2.57025e-21
9.40867e-22
-4.52712e-21
-2.3186e-21
-2.7569e-21
-4.50724e-21
-3.04352e-21
-2.14543e-21
-5.80789e-22
-2.77864e-22
-1.05637e-20
-1.4286e-20
-1.48869e-20
-1.1887e-20
-1.20734e-20
-1.67225e-20
-1.21787e-20
-1.20174e-20
-9.31935e-21
-1.23164e-20
-1.3892e-20
-6.86711e-21
-5.34147e-21
-9.50405e-21
-1.03319e-20
-9.37119e-21
-4.83268e-21
1.4338e-21
-7.09665e-22
-2.11397e-21
-6.64963e-21
-1.07912e-20
-9.16574e-21
-8.31208e-21
-7.59856e-21
-6.52197e-22
-3.55177e-22
-6.92936e-22
-1.55505e-21
-3.28792e-23
9.6221e-22
-1.10845e-21
-2.89378e-21
-3.21677e-21
-5.15029e-22
-3.35202e-21
-2.74053e-21
-2.16487e-21
-7.89151e-22
-1.00732e-21
-1.48909e-20
-1.53817e-20
-1.50329e-20
-1.26652e-20
-1.4034e-20
-1.43234e-20
-1.42015e-20
-1.45972e-20
-1.51615e-20
-1.22761e-20
-1.04428e-20
-6.04071e-21
-7.64255e-21
-1.02036e-20
-7.73428e-21
-6.54839e-21
-4.35737e-21
-7.60621e-22
-2.10883e-21
-4.6877e-21
-5.82832e-21
-7.21778e-21
-8.51707e-21
-6.451e-21
-3.9553e-21
-6.71418e-22
-2.38946e-22
-1.63272e-21
-2.50097e-22
3.20521e-22
-3.74697e-21
-1.82672e-21
8.3054e-22
-4.45469e-21
-2.41978e-21
-2.6516e-21
-3.44879e-21
-3.37648e-21
-1.13861e-21
-1.41043e-21
-1.8563e-20
-1.82201e-20
-1.47803e-20
-1.42156e-20
-1.15007e-20
-1.21388e-20
-1.42101e-20
-1.30353e-20
-1.0583e-20
-1.41699e-20
-9.76625e-21
-6.27481e-21
-9.6844e-21
-1.3939e-20
-8.96112e-21
-6.33718e-21
-3.30229e-21
4.00521e-22
-2.44204e-21
-3.86458e-21
-6.9017e-21
-8.35517e-21
-8.57978e-21
-8.76027e-21
-1.95476e-21
-5.23801e-22
1.32977e-22
-7.42373e-22
3.89807e-22
2.57098e-21
-1.93218e-21
-4.58683e-21
-1.41026e-21
-1.87524e-21
-1.85982e-21
-3.43962e-21
-4.15365e-21
-4.13782e-21
-5.84267e-22
-2.28539e-21
-1.24321e-20
-1.90436e-20
-1.76553e-20
-1.25111e-20
-9.56842e-21
-1.25679e-20
-1.78716e-20
-1.77554e-20
-1.21733e-20
-9.37161e-21
-7.50358e-21
-9.867e-21
-1.00646e-20
-1.28546e-20
-5.90037e-21
-6.55156e-21
-4.45422e-21
-4.4317e-21
-3.81805e-21
-2.48514e-21
-8.5014e-21
-5.47482e-21
-5.76418e-21
-9.29074e-21
-1.14881e-21
-1.74051e-21
-1.40291e-21
-1.20991e-21
4.20873e-22
9.96305e-22
3.30829e-22
-1.76911e-21
-2.3376e-21
-1.14487e-21
-1.47806e-21
-3.64039e-21
-4.35891e-21
-4.66535e-21
-1.80031e-21
2.29469e-22
-1.38004e-20
-1.41028e-20
-1.70684e-20
-1.32131e-20
-1.36356e-20
-1.1889e-20
-1.61215e-20
-1.6696e-20
-1.08554e-20
-8.35577e-21
-1.23235e-20
-1.13923e-20
-8.76872e-21
-9.68914e-21
-9.23629e-21
-8.00624e-21
-4.59229e-21
-5.96397e-21
-3.38586e-21
-2.03895e-21
-9.10331e-21
-7.12868e-21
-4.44832e-21
-4.11817e-21
-1.0756e-21
-3.53226e-21
-5.05963e-21
-3.96036e-21
1.81806e-21
1.8698e-21
-2.96247e-22
-1.62947e-21
-1.71125e-21
-1.59429e-21
-1.01998e-21
-1.7854e-21
-4.88816e-21
-3.38327e-21
-8.82988e-22
1.69068e-23
-1.49185e-20
-1.36945e-20
-1.58675e-20
-1.12194e-20
-1.11965e-20
-1.30635e-20
-1.63078e-20
-1.80126e-20
-9.70891e-21
-1.04585e-20
-1.20051e-20
-1.42718e-20
-5.76147e-21
-8.80434e-21
-8.25342e-21
-7.49284e-21
-7.07012e-21
-4.75855e-21
-4.5499e-21
-4.57951e-21
-8.06119e-21
-5.55624e-21
-4.07203e-21
-2.01094e-21
-1.76891e-21
-2.08512e-21
-3.34e-21
-3.34925e-21
-3.2752e-22
-1.4476e-21
-9.40192e-22
-3.20213e-21
-1.30875e-21
-8.11141e-22
-4.54769e-22
-1.90077e-21
-3.61161e-21
-2.61153e-21
1.66765e-21
-1.69789e-21
-1.15323e-20
-1.44662e-20
-1.87778e-20
-1.15446e-20
-8.42977e-21
-1.3239e-20
-1.71575e-20
-1.62728e-20
-1.22618e-20
-9.91798e-21
-1.17585e-20
-1.28002e-20
-8.77546e-21
-8.07709e-21
-5.85171e-21
-1.02797e-20
-8.0817e-21
-2.22979e-22
-3.40752e-21
-5.6528e-21
-8.67913e-21
-8.34704e-21
-1.22127e-21
-1.21845e-21
1.16393e-21
-4.603e-21
-3.66513e-21
-1.68485e-21
-1.91554e-21
-1.36368e-21
-1.76017e-21
-1.01338e-21
-4.64218e-22
-3.14192e-22
8.43674e-23
-2.34491e-21
-2.89744e-21
-2.0209e-21
1.00067e-21
-5.65807e-22
-9.78957e-21
-1.1419e-20
-1.41838e-20
-1.35407e-20
-1.26241e-20
-1.31446e-20
-1.42348e-20
-1.35467e-20
-1.2896e-20
-1.25454e-20
-1.15324e-20
-1.15746e-20
-8.92952e-21
-8.39134e-21
-5.34702e-21
-8.20046e-21
-8.92289e-21
-7.38121e-21
-1.05357e-20
-3.65587e-21
-5.01175e-21
-1.79523e-21
-1.89964e-21
-1.47268e-21
-1.60523e-22
-1.94176e-21
-3.00439e-21
-4.29756e-22
-7.67997e-22
-1.74393e-21
-4.95671e-21
-1.59372e-21
2.78089e-22
-5.04435e-22
2.95323e-23
-1.7201e-21
-1.97432e-21
-2.53758e-22
-2.49321e-21
-2.7689e-21
-8.58212e-21
-1.06365e-20
-1.66076e-20
-1.50875e-20
-1.32977e-20
-1.0745e-20
-1.04187e-20
-1.63106e-20
-1.42814e-20
-1.37569e-20
-1.03646e-20
-1.07409e-20
-7.53884e-21
-7.93075e-21
-9.47022e-21
-8.91761e-21
-5.67284e-21
-4.49417e-21
-1.03057e-20
-4.7666e-21
-5.57262e-21
-4.61504e-21
-2.76492e-21
-8.31016e-22
6.81321e-22
7.13101e-22
-7.02195e-21
-3.32337e-21
-9.43218e-22
-9.30761e-22
-3.75299e-21
-6.93529e-22
-9.54519e-22
-6.3993e-22
-4.45964e-22
-3.49552e-23
-2.22303e-21
-9.98733e-22
-2.12946e-21
-2.22317e-21
-1.06149e-20
-1.26406e-20
-1.54873e-20
-1.36832e-20
-1.26899e-20
-1.07576e-20
-9.96804e-21
-1.16579e-20
-1.40339e-20
-1.453e-20
-1.71744e-20
-1.03365e-20
-7.79919e-21
-7.73205e-21
-1.04212e-20
-5.7323e-21
-7.22804e-21
-3.42091e-21
-5.80929e-21
-5.39145e-21
-4.89759e-21
-3.41551e-21
-2.42897e-21
-4.12868e-21
-4.05315e-21
1.67207e-23
-3.30913e-21
-3.35606e-21
-2.21135e-21
-2.11678e-22
-2.27432e-21
-9.34998e-22
-2.72895e-21
2.18854e-21
-2.27033e-22
-2.4064e-21
-1.77649e-21
-1.65583e-21
-4.41524e-22
-2.44085e-21
-1.49009e-20
-1.38045e-20
-1.37681e-20
-1.30889e-20
-1.24305e-20
-1.12199e-20
-1.14842e-20
-9.50882e-21
-1.1506e-20
-1.38312e-20
-1.58309e-20
-1.20722e-20
-9.21825e-21
-1.25178e-20
-9.74453e-21
-5.6867e-21
-3.97829e-21
-2.99265e-21
-6.42143e-21
-6.08407e-21
-4.69376e-21
-1.19704e-21
-3.48224e-21
-4.05732e-21
-1.96968e-21
-1.72483e-21
-4.89292e-21
-4.46763e-21
-1.52936e-21
-3.67819e-22
-2.86778e-21
-1.36507e-22
-4.71265e-22
9.30584e-22
-2.04727e-21
-5.47206e-21
-1.10692e-21
-1.65095e-21
5.29623e-22
7.29421e-22
-1.63736e-20
-1.78558e-20
-1.29148e-20
-1.26313e-20
-1.28033e-20
-1.42384e-20
-1.05381e-20
-8.85685e-21
-1.36584e-20
-1.0807e-20
-1.38727e-20
-1.35745e-20
-1.07995e-20
-7.9758e-21
-7.62461e-21
-6.55759e-21
-4.7317e-21
-1.18487e-22
-4.84194e-22
-5.07016e-21
-6.57105e-21
-4.58705e-21
-6.24598e-21
-5.52858e-21
-3.13068e-21
-3.21011e-21
-3.10105e-21
-3.50882e-21
-1.5973e-21
-4.0233e-22
-4.06275e-21
-1.26392e-21
1.06527e-21
5.8859e-22
-3.16206e-21
-3.97298e-21
-1.9709e-21
9.61589e-23
-1.11132e-21
-9.90009e-22
-1.15301e-20
-1.4125e-20
-1.59911e-20
-1.17411e-20
-1.24574e-20
-1.36424e-20
-1.26198e-20
-1.28264e-20
-9.86475e-21
-1.22124e-20
-1.43363e-20
-1.40338e-20
-7.01477e-21
-1.0067e-20
-1.15865e-20
-5.52207e-21
8.16708e-22
-2.03136e-21
-3.48447e-21
-3.49247e-21
-5.42373e-21
-5.5273e-21
-5.24649e-21
-6.27299e-21
-6.49353e-21
-2.50786e-21
-2.01964e-21
-4.7689e-21
9.6441e-22
-1.45259e-21
-3.73183e-21
-8.80067e-22
6.00495e-22
-3.28698e-21
-5.51467e-21
-3.44635e-21
-1.66587e-21
-5.83022e-22
-2.55013e-21
-2.58513e-21
-9.41677e-21
-1.43538e-20
-1.44533e-20
-1.31965e-20
-1.09081e-20
-1.40337e-20
-1.23847e-20
-1.14515e-20
-8.66732e-21
-1.28216e-20
-1.59912e-20
-1.28145e-20
-5.74582e-21
-7.91976e-21
-9.82562e-21
-3.30313e-21
-2.27226e-21
-6.28877e-21
-3.19937e-21
-1.35635e-21
-5.46909e-21
-5.34754e-21
-3.03671e-21
-5.50814e-21
-7.00895e-21
-5.61369e-21
-2.68234e-21
-1.80805e-21
-1.26173e-21
-2.44772e-21
-6.0782e-22
-2.06383e-21
-3.85106e-21
5.34347e-24
-5.53553e-21
-2.5407e-21
-1.32745e-21
-1.16162e-21
-2.73747e-21
-1.93364e-21
-1.20419e-20
-1.58904e-20
-1.66022e-20
-1.16375e-20
-9.53721e-21
-1.22632e-20
-1.19984e-20
-1.30843e-20
-8.43299e-21
-1.00846e-20
-1.68097e-20
-1.34348e-20
-6.5352e-21
-8.97929e-21
-3.64949e-21
-4.73305e-21
-5.12722e-21
-1.07116e-21
-7.39478e-22
-4.28282e-21
-3.92018e-21
-3.87715e-21
-9.44066e-21
-9.81886e-21
-7.15144e-21
-6.11657e-21
1.69487e-22
-4.7603e-21
-4.49859e-21
5.06033e-23
-4.91271e-22
-2.63559e-21
-2.40782e-21
-8.08476e-22
-2.06826e-21
-8.8699e-22
-1.00365e-21
-3.98164e-21
-9.28561e-22
-3.10183e-22
-7.44403e-21
-1.27007e-20
-1.46692e-20
-1.69323e-20
-1.3374e-20
-1.36886e-20
-1.09879e-20
-6.85946e-21
-8.50188e-21
-1.13341e-20
-1.56932e-20
-1.2695e-20
-6.79356e-21
-7.76778e-21
-4.48459e-21
-8.51873e-21
-5.6331e-21
-2.70265e-21
2.17887e-21
-4.6821e-22
-2.50256e-21
-7.23867e-21
-7.06292e-21
-7.75761e-21
-8.31107e-21
-5.2129e-21
-3.15612e-24
-3.78186e-22
-5.63417e-21
-9.78952e-22
1.77967e-21
-1.44231e-21
-2.26475e-21
-1.83429e-21
-5.22725e-21
3.60407e-23
-3.62238e-22
-5.96857e-21
-4.34885e-21
-1.93787e-21
-8.86919e-21
-1.32112e-20
-1.40952e-20
-1.5221e-20
-1.21247e-20
-1.20818e-20
-1.07769e-20
-9.99995e-21
-9.01883e-21
-1.07908e-20
-1.27208e-20
-8.83421e-21
-7.3382e-21
-6.02511e-21
-7.81755e-21
-5.28174e-21
-5.94247e-21
-2.61352e-21
-2.66916e-22
4.26327e-22
-2.86928e-21
-1.64131e-21
-5.05379e-21
-8.61202e-21
-8.25224e-21
-3.8991e-21
-7.0647e-22
-2.66857e-21
-3.08567e-21
-1.58032e-21
-7.46154e-22
-1.61628e-21
-3.92694e-21
-5.16075e-21
-3.48947e-21
-8.97886e-22
-1.38548e-21
-3.1351e-21
-1.52517e-21
2.62776e-22
-1.18948e-20
-1.72614e-20
-1.44526e-20
-1.08646e-20
-1.63387e-20
-1.2449e-20
-1.00768e-20
-7.6001e-21
-6.69311e-21
-1.13161e-20
-1.48471e-20
-5.56506e-21
-7.26308e-21
-8.52664e-21
-6.69824e-21
-7.20774e-21
-7.11705e-21
7.13619e-22
8.01615e-22
5.64352e-22
-5.16277e-21
-4.78498e-21
-4.37032e-21
-5.32275e-21
-6.2078e-21
-4.2229e-21
-1.52408e-21
-3.45723e-21
-1.60459e-21
-2.18527e-21
-1.09989e-21
-1.01828e-21
-3.93651e-21
-2.73076e-21
-3.39248e-21
-3.08196e-21
-2.01894e-21
-3.15785e-21
-6.34138e-22
1.45153e-21
-1.07645e-20
-1.47556e-20
-1.57901e-20
-1.23898e-20
-1.13549e-20
-1.51646e-20
-1.06179e-20
-4.85717e-21
-8.3204e-21
-1.3886e-20
-1.12739e-20
-8.40089e-21
-4.38192e-21
-9.13603e-21
-8.51662e-21
-7.54851e-21
-4.91012e-21
-2.15108e-21
9.11038e-22
4.43465e-21
-2.9168e-21
-6.76e-21
-7.2068e-21
-5.58263e-21
-8.03488e-21
-5.38626e-21
-5.9796e-22
1.84263e-21
-1.33387e-21
-1.41771e-21
-1.87578e-21
-2.02683e-21
-4.58408e-21
-2.09858e-21
-2.42762e-21
-4.02702e-21
-1.84993e-21
2.5551e-22
5.14199e-23
8.30307e-22
-1.21997e-20
-1.23342e-20
-1.17581e-20
-1.34566e-20
-1.22565e-20
-1.29919e-20
-9.99216e-21
-8.98022e-21
-8.79206e-21
-1.05095e-20
-9.38615e-21
-7.48121e-21
-7.54775e-21
-8.71201e-21
-6.46848e-21
-8.04006e-21
-4.73684e-21
-2.36383e-21
4.88125e-22
6.7177e-22
-4.34923e-22
-7.92624e-21
-8.23884e-21
-6.49149e-21
-4.9326e-21
-3.47728e-21
-6.47104e-22
-7.65166e-22
-3.13244e-21
-2.31248e-21
-1.96896e-21
-1.39019e-21
-1.22792e-22
-1.24356e-21
-2.0734e-21
-5.60608e-21
-2.16502e-21
-3.21648e-22
-6.40714e-22
-1.53902e-22
-1.58537e-20
-1.41796e-20
-1.11842e-20
-1.18089e-20
-1.31957e-20
-1.35527e-20
-1.0057e-20
-8.86914e-21
-9.37331e-21
-8.32623e-21
-6.03023e-21
-8.66394e-21
-1.1237e-20
-1.09536e-20
-4.50825e-21
-5.57793e-21
-3.53305e-21
-1.15017e-21
1.71935e-21
-2.74856e-21
-2.50047e-22
-4.03303e-21
-1.17101e-20
-6.52683e-21
-5.76157e-21
-6.05146e-21
3.67469e-22
1.19425e-21
-1.4811e-21
-3.1309e-21
-2.54914e-21
-2.38369e-21
2.47341e-21
-8.22708e-22
-4.08776e-21
-2.30065e-21
-1.60884e-21
6.76954e-22
-1.82013e-21
-1.45212e-21
-1.03208e-20
-9.9766e-21
-1.13527e-20
-8.79321e-21
-1.6496e-20
-1.45798e-20
-1.09745e-20
-9.92203e-21
-8.85833e-21
-7.7106e-21
-7.97686e-21
-7.0488e-21
-1.01822e-20
-7.40409e-21
-3.71708e-21
-5.73123e-21
-3.69692e-21
-1.46975e-21
2.07268e-21
-1.2265e-21
-1.6941e-21
-4.36279e-21
-8.88357e-21
-6.0747e-21
-7.72227e-21
-6.29993e-21
1.51642e-21
9.76101e-22
-1.79198e-21
-2.9654e-21
-2.43292e-21
-1.65849e-21
2.03029e-21
1.10523e-21
-2.20456e-21
-2.95882e-21
-1.3317e-21
-1.29555e-21
-1.25423e-21
-5.06777e-22
-1.12083e-20
-1.07037e-20
-1.14873e-20
-1.36403e-20
-1.38665e-20
-1.08247e-20
-1.06768e-20
-8.45747e-21
-9.83847e-21
-6.41831e-21
-6.92207e-21
-1.12997e-20
-8.91708e-21
-6.61253e-21
-6.37056e-21
-4.405e-21
-2.7317e-21
4.02316e-22
-2.33559e-22
-9.40791e-22
9.80354e-22
-6.83691e-21
-6.84987e-21
-6.86837e-21
-4.78365e-21
-4.18456e-21
-2.13099e-21
-2.56744e-21
-6.58573e-22
-1.63196e-21
-1.9008e-21
-1.05269e-22
8.45463e-22
7.30793e-23
-1.27164e-21
-1.56315e-21
-1.229e-21
1.95056e-21
-1.33534e-21
-2.22726e-21
-1.19843e-20
-9.60089e-21
-9.41116e-21
-9.59352e-21
-1.30102e-20
-1.40267e-20
-1.18186e-20
-1.2271e-20
-1.04935e-20
-7.56904e-21
-3.16226e-21
-9.4872e-21
-2.77705e-21
-3.89885e-21
-6.0701e-21
-6.81365e-21
-5.20702e-21
2.68853e-22
2.88726e-21
-4.39284e-22
-5.84106e-22
-8.38958e-21
-5.31617e-21
-5.40123e-21
-4.06421e-21
-2.99591e-21
-4.21054e-21
-6.14502e-21
-8.7924e-22
-2.14873e-21
-1.55341e-21
-8.19082e-22
-5.20885e-22
-7.82443e-22
-1.64227e-21
-6.43155e-22
-8.27434e-22
2.43282e-21
2.04192e-21
8.20591e-22
-8.10504e-21
-9.65053e-21
-1.06162e-20
-8.85333e-21
-8.60253e-21
-1.70638e-20
-1.02175e-20
-1.07633e-20
-9.9761e-21
-9.20538e-21
-9.63497e-21
-2.9785e-21
-4.68819e-21
-3.5066e-21
-4.42776e-21
-6.13568e-21
-5.44212e-21
-1.50372e-21
2.19497e-22
-9.74636e-23
-1.61597e-21
-2.97387e-21
-5.15488e-21
-6.67399e-21
-4.29223e-21
-2.12342e-21
-6.75728e-22
-1.29285e-21
-3.65321e-21
-2.06334e-21
-3.46446e-21
-1.67516e-21
1.16338e-21
8.42612e-23
-2.27578e-21
-1.7006e-21
5.59228e-22
2.9779e-21
1.74261e-21
-1.02678e-21
-6.82895e-21
-8.79341e-21
-1.0593e-20
-1.0136e-20
-9.71343e-21
-1.19609e-20
-1.03823e-20
-9.91651e-21
-1.01719e-20
-8.63024e-21
-7.76938e-21
-5.05e-21
-5.81988e-21
-3.39939e-21
-5.39664e-21
-5.66805e-21
-3.57538e-21
5.17057e-22
3.14062e-21
-2.28178e-21
-2.04631e-21
-3.63685e-21
-3.67526e-21
-6.13394e-21
-6.74793e-21
-4.26471e-21
-1.93089e-21
-2.34111e-22
-6.79074e-22
-2.01775e-21
-5.18588e-21
-1.22165e-21
-1.31855e-21
-8.03699e-22
-2.85836e-21
-8.05633e-22
2.28965e-21
1.42801e-21
8.73783e-22
-2.60395e-22
-5.14707e-21
-8.40532e-21
-1.16351e-20
-7.1902e-21
-7.08559e-21
-1.06237e-20
-9.82674e-21
-8.24443e-21
-8.89757e-21
-8.25048e-21
-4.48557e-21
-7.53437e-21
-7.6502e-21
-5.99406e-21
-2.30757e-21
-1.12575e-21
3.62027e-22
-3.71166e-21
-2.56925e-22
-9.80596e-22
-1.7359e-21
-2.34767e-21
-4.19636e-21
-6.17799e-21
-2.35424e-21
-1.27337e-21
-2.78223e-21
-1.16796e-21
6.88481e-22
-2.71492e-21
-6.57201e-21
-4.57715e-21
-1.74548e-21
-2.34843e-22
-4.8402e-21
-2.13938e-21
1.3887e-21
2.85701e-21
1.18916e-21
-6.54147e-22
-6.5954e-21
-7.47135e-21
-9.57507e-21
-6.33147e-21
-7.63866e-21
-1.02586e-20
-7.30211e-21
-3.8203e-21
-8.87304e-21
-8.84551e-21
-5.44974e-21
-5.64457e-21
-5.54683e-21
-4.61451e-21
-4.04232e-21
-1.94177e-21
-2.14936e-21
1.20004e-21
-2.211e-22
2.95867e-22
1.16204e-21
-2.89851e-21
-3.24118e-21
-6.67124e-21
-6.74494e-21
-4.22256e-22
-3.00927e-22
6.58137e-23
-8.42098e-22
-4.54518e-21
-1.94028e-21
-4.46636e-21
-3.0766e-21
-1.46482e-21
-1.8408e-21
-3.52271e-21
-1.46779e-21
-1.29166e-22
2.18162e-21
7.16464e-22
-6.18933e-21
-6.58867e-21
-6.3174e-21
-2.49393e-21
-1.48302e-21
-4.7871e-21
-7.49696e-21
-4.20721e-21
-6.37643e-21
-5.91856e-21
-2.2362e-21
-2.08252e-21
-5.19692e-21
-3.27245e-21
-2.28944e-21
-1.21064e-21
1.15992e-21
1.69661e-21
4.70848e-22
1.67633e-21
-1.77987e-22
-5.14795e-21
-3.35525e-21
-1.86973e-21
-2.47143e-21
-5.70941e-22
-1.22445e-21
-1.68417e-22
4.43644e-22
6.20755e-22
-1.75537e-21
-1.43246e-21
-2.79743e-21
-2.89179e-21
-7.33819e-22
-5.24639e-21
-3.90106e-21
-1.5069e-21
7.48688e-22
3.36391e-22
-4.00691e-21
-8.06573e-21
-1.16209e-20
-7.7876e-21
-6.76709e-21
-8.78839e-21
-4.57383e-21
-1.79184e-21
-1.05772e-20
-8.51415e-21
-4.35206e-21
-9.06271e-21
-6.39018e-21
-2.74847e-21
-4.46792e-21
-7.23223e-21
-4.54437e-21
-5.62125e-22
-6.59807e-22
-2.14023e-21
-3.41576e-21
-3.70712e-21
-3.15387e-21
-2.67412e-21
-3.3392e-21
-2.40519e-21
-2.58191e-21
-3.7498e-21
-5.79123e-21
-4.96915e-21
-4.01186e-21
-2.07551e-22
-1.56448e-21
-1.88551e-21
-2.7305e-21
-5.03716e-21
-2.61364e-21
-1.45666e-21
3.43907e-22
1.49947e-21
-6.07599e-21
-1.01158e-20
-1.54218e-20
-1.28372e-20
-9.11008e-21
-1.19162e-20
-9.97292e-21
-4.42201e-21
-9.19957e-21
-1.45373e-20
-1.32358e-20
-1.09486e-20
-9.84382e-21
-6.8367e-21
-7.03631e-21
-6.00049e-21
-5.94125e-21
-4.7349e-21
-3.95604e-21
-2.99604e-21
-3.48924e-21
-4.08063e-21
-4.03966e-21
-5.35397e-21
-4.66595e-21
-2.9358e-21
-1.24285e-21
-1.43947e-21
-7.45842e-21
-3.25768e-21
-8.72375e-22
5.36167e-22
-3.82848e-21
-1.55618e-21
-5.01236e-21
-3.61705e-21
-2.14387e-21
-5.10125e-22
4.03065e-22
9.64308e-22
-9.78806e-21
-1.08014e-20
-1.32559e-20
-1.41096e-20
-1.23073e-20
-1.1256e-20
-1.07594e-20
-1.07501e-20
-1.31341e-20
-1.5758e-20
-1.11961e-20
-8.64025e-21
-5.65616e-21
-6.31268e-21
-9.47428e-21
-7.13534e-21
-7.99183e-21
-5.8542e-21
-1.79638e-21
-1.32766e-21
-5.71819e-21
-4.66634e-21
-1.08228e-21
-4.17892e-21
-5.87746e-21
-3.27813e-21
-2.09685e-21
-4.40308e-21
-3.07509e-21
-3.80611e-21
-5.1703e-21
-2.68819e-21
-1.37863e-21
-5.57153e-22
-6.1755e-21
-4.78359e-21
3.5925e-22
1.70736e-21
1.7303e-21
8.13783e-22
-1.51876e-20
-1.45386e-20
-1.32301e-20
-1.6907e-20
-1.46961e-20
-1.274e-20
-1.30824e-20
-1.03564e-20
-1.28971e-20
-1.35364e-20
-1.20164e-20
-1.28022e-20
-9.61418e-21
-5.24461e-21
-7.28834e-21
-7.934e-21
-6.82173e-21
-5.50735e-21
-3.61081e-21
-1.73425e-21
-5.14083e-21
-5.02487e-21
-5.6592e-21
-4.29764e-21
-3.77623e-21
-3.5889e-21
-2.01218e-21
-4.54099e-23
-2.68783e-21
-6.01848e-21
-4.80826e-21
-1.6421e-21
-2.9566e-21
-3.96355e-21
-2.85033e-21
-1.6912e-21
2.93803e-22
1.91631e-21
-8.01457e-22
-1.6615e-21
-1.5825e-20
-1.54877e-20
-1.44135e-20
-1.37045e-20
-1.87638e-20
-1.67179e-20
-1.36237e-20
-9.55772e-21
-1.00278e-20
-1.41779e-20
-1.3132e-20
-1.2664e-20
-9.33026e-21
-7.94661e-21
-9.88123e-21
-9.52466e-21
-8.82339e-21
-5.34452e-21
-4.57639e-21
-1.87576e-21
-4.25827e-21
-5.08803e-21
-6.86032e-21
-3.72808e-21
-5.41631e-21
-3.19167e-21
-2.66008e-21
-2.58142e-21
-2.0091e-21
-2.11366e-21
-1.28575e-21
-3.2684e-21
5.32566e-23
-4.30645e-22
-2.68195e-21
-1.31345e-21
3.76945e-22
8.72937e-22
-3.01014e-21
-2.41055e-22
-1.47325e-20
-1.61632e-20
-1.50973e-20
-1.4375e-20
-1.76981e-20
-1.8351e-20
-1.25194e-20
-1.36253e-20
-1.43738e-20
-1.31837e-20
-1.25353e-20
-1.35731e-20
-1.11362e-20
-7.86239e-21
-1.19226e-20
-9.98246e-21
-7.91807e-21
-5.22118e-21
-3.96529e-21
-2.57229e-21
-3.81836e-21
-7.13522e-21
-7.04887e-21
-4.42041e-21
-5.21175e-21
-4.64147e-21
-2.71273e-21
-1.79629e-21
-2.7845e-21
-2.82432e-21
-2.88576e-21
-5.55383e-22
4.24957e-21
-1.38036e-21
-2.6662e-21
-2.437e-21
-2.1169e-21
-1.3359e-22
3.22488e-22
-2.60823e-22
-1.76688e-20
-2.06146e-20
-1.75535e-20
-1.53095e-20
-1.68751e-20
-1.70668e-20
-1.60598e-20
-1.43324e-20
-1.53533e-20
-1.41734e-20
-1.37941e-20
-1.27915e-20
-1.21494e-20
-7.97128e-21
-1.28313e-20
-9.60137e-21
-4.77739e-21
-3.83954e-21
-2.35971e-21
-3.14366e-21
-4.30964e-21
-6.88112e-21
-7.33798e-21
-7.18571e-21
-4.80963e-21
-5.67962e-21
-4.18441e-21
-3.08242e-21
5.52583e-22
-1.58018e-21
-4.7217e-21
-1.01137e-21
8.38356e-22
9.93245e-22
-4.26492e-21
-4.23253e-21
-1.07511e-21
1.2847e-21
-1.45628e-21
-3.50194e-21
-1.65844e-20
-1.83329e-20
-1.68416e-20
-1.67294e-20
-1.87105e-20
-1.59744e-20
-1.56408e-20
-1.73728e-20
-1.72737e-20
-1.69501e-20
-1.29952e-20
-1.27714e-20
-8.87604e-21
-6.63255e-21
-1.29776e-20
-1.0543e-20
-6.5918e-21
-4.38787e-21
-1.91243e-21
-3.71838e-21
-5.34278e-21
-9.5144e-21
-1.02876e-20
-5.46956e-21
-5.98784e-21
-4.73178e-21
-1.72063e-21
-1.57891e-21
-4.71103e-22
-2.87771e-21
-7.44815e-21
-2.33412e-21
-1.65431e-21
-3.40766e-21
-3.35595e-21
-1.06062e-21
3.37427e-22
1.22733e-21
-1.04049e-21
-1.29339e-21
-1.82096e-20
-1.92133e-20
-2.01188e-20
-1.713e-20
-1.77821e-20
-1.72585e-20
-1.83122e-20
-1.73579e-20
-1.65548e-20
-1.58653e-20
-1.43328e-20
-1.35592e-20
-8.44685e-21
-1.02393e-20
-9.63243e-21
-9.34318e-21
-9.80817e-21
-4.93421e-21
-4.34558e-21
-6.25446e-21
-3.46834e-21
-1.18638e-20
-9.8489e-21
-9.07074e-21
-3.71403e-21
-2.44459e-21
-3.63711e-21
-2.73462e-21
2.27445e-21
-1.50581e-21
-5.61923e-21
-4.63345e-21
-3.44479e-21
-1.35449e-21
-2.7688e-21
9.60128e-23
-5.76545e-22
5.44081e-22
1.32021e-21
-2.35273e-21
-1.84602e-20
-1.73011e-20
-1.80156e-20
-2.03777e-20
-2.01167e-20
-1.90637e-20
-2.16847e-20
-1.68404e-20
-1.30995e-20
-1.43875e-20
-1.34815e-20
-1.30735e-20
-1.1186e-20
-1.38515e-20
-1.12942e-20
-7.10727e-21
-6.54756e-21
-6.54595e-21
-1.88502e-21
-2.86247e-21
-7.48724e-21
-1.29696e-20
-1.10962e-20
-8.87686e-21
-4.58027e-21
-3.41633e-21
-2.57303e-21
-2.45307e-21
-7.57088e-23
-2.21773e-21
-3.10334e-21
-3.18334e-21
-3.73436e-21
-1.74925e-21
-2.78727e-21
-8.35942e-22
6.52582e-22
2.26765e-22
2.41511e-21
-6.79902e-22
-1.81772e-20
-2.17522e-20
-2.22056e-20
-2.01195e-20
-1.92727e-20
-1.7979e-20
-1.87251e-20
-1.74384e-20
-1.55527e-20
-1.5325e-20
-1.36988e-20
-1.25146e-20
-1.17272e-20
-1.21535e-20
-1.16756e-20
-1.13325e-20
-4.03286e-21
-3.9717e-21
-1.15636e-21
-4.91513e-21
-9.07083e-21
-9.8212e-21
-1.18989e-20
-1.36093e-20
-3.80004e-21
-1.63298e-21
-1.51142e-21
-2.97403e-21
4.74713e-22
-2.06829e-21
-3.23177e-21
-2.60629e-21
-2.35565e-21
-2.74968e-21
-2.98578e-21
-5.10463e-22
-1.49492e-21
-1.55942e-21
-1.97406e-21
-2.36312e-21
-2.1129e-20
-2.29542e-20
-2.08615e-20
-1.91066e-20
-1.66015e-20
-1.94728e-20
-1.96536e-20
-1.72099e-20
-1.40833e-20
-1.66034e-20
-1.52098e-20
-1.30135e-20
-1.37597e-20
-1.01012e-20
-1.19562e-20
-1.09273e-20
-8.84252e-21
-2.58103e-21
-2.01021e-21
-5.31466e-21
-7.58438e-21
-9.67215e-21
-1.0879e-20
-1.24957e-20
-3.39098e-21
-4.01287e-21
-3.50527e-21
-1.41051e-21
2.68677e-21
-2.42047e-21
-3.34125e-21
-3.47483e-21
-3.009e-21
-2.58218e-21
-2.85484e-21
-1.22487e-21
-6.74303e-22
-1.74072e-21
-2.19918e-21
-1.443e-21
-2.32611e-20
-2.31459e-20
-1.95704e-20
-2.07206e-20
-1.92226e-20
-2.08045e-20
-1.87476e-20
-1.77629e-20
-1.75856e-20
-1.632e-20
-1.32054e-20
-1.32374e-20
-1.42493e-20
-1.03361e-20
-1.19561e-20
-8.27919e-21
-5.91737e-21
-3.49481e-21
-6.63869e-21
-7.08725e-21
-6.70194e-21
-7.13293e-21
-1.086e-20
-9.5731e-21
-4.56878e-21
-1.27883e-21
-8.20713e-22
-1.21893e-21
-2.0798e-22
-5.25841e-23
-3.89536e-21
-3.78359e-21
-7.44353e-22
-3.27172e-21
-7.64566e-21
-3.23515e-22
3.32069e-22
-3.39296e-21
-2.01116e-21
8.66931e-22
-2.56587e-20
-2.44975e-20
-2.0461e-20
-2.02411e-20
-1.74879e-20
-1.91063e-20
-1.8842e-20
-1.67255e-20
-1.73688e-20
-1.81083e-20
-1.4177e-20
-1.11587e-20
-1.48879e-20
-1.17473e-20
-1.39094e-20
-8.15086e-21
-9.03045e-21
-5.23654e-21
-4.46237e-21
-2.88844e-21
-7.39317e-21
-8.69298e-21
-7.42509e-21
-9.2266e-21
-3.80168e-21
-1.11699e-21
-1.17483e-21
-1.48249e-21
5.70953e-22
-1.44903e-22
-4.19436e-21
-2.52944e-21
-9.63609e-22
-4.44938e-21
-5.30395e-21
-1.16115e-21
6.63702e-22
-2.32621e-21
-1.76801e-21
2.10572e-22
-2.71269e-20
-2.36016e-20
-2.09848e-20
-1.87375e-20
-1.69545e-20
-1.65783e-20
-2.02318e-20
-1.80849e-20
-1.66058e-20
-1.62063e-20
-1.34606e-20
-1.27647e-20
-1.55433e-20
-1.26689e-20
-1.1505e-20
-1.03588e-20
-2.96238e-21
-5.57567e-21
-7.07511e-21
-5.53506e-21
-6.90998e-21
-9.94748e-21
-9.20318e-21
-5.4506e-21
-1.78293e-21
-3.09825e-21
-1.24385e-21
-1.02326e-21
-1.23067e-21
-2.18594e-22
-4.74423e-21
-2.36122e-21
-2.59557e-22
-1.61288e-21
-4.00119e-21
-3.70564e-21
-1.53561e-21
-2.12148e-22
-2.81399e-22
6.40472e-22
-2.39426e-20
-2.41498e-20
-2.22309e-20
-1.92072e-20
-1.83741e-20
-1.87527e-20
-1.90392e-20
-1.82271e-20
-1.62042e-20
-1.3523e-20
-1.48911e-20
-1.64359e-20
-1.65282e-20
-1.29075e-20
-1.08104e-20
-6.439e-21
-5.22532e-21
-7.21984e-21
-6.75292e-21
-5.65152e-21
-6.70225e-21
-9.77811e-21
-8.48518e-21
-4.08417e-21
-2.27696e-23
-4.80269e-21
-3.28749e-21
-2.7277e-21
-2.50431e-21
-1.43185e-21
-1.61841e-21
-2.00343e-21
-2.37863e-22
-9.09074e-22
-3.65913e-21
-1.69084e-21
-1.64201e-21
-1.85593e-21
4.05348e-22
-3.98793e-22
-2.15924e-20
-2.22481e-20
-2.2103e-20
-1.84151e-20
-2.18479e-20
-1.90067e-20
-2.00488e-20
-1.92456e-20
-1.6527e-20
-1.26222e-20
-1.443e-20
-1.645e-20
-1.51903e-20
-1.35414e-20
-1.10574e-20
-6.1068e-21
-4.20442e-21
-7.7266e-21
-1.0868e-20
-7.58784e-21
-8.70488e-21
-6.28762e-21
-3.63135e-21
-3.28891e-21
2.83576e-22
-3.75738e-21
-2.68895e-21
-4.09688e-21
-4.05976e-21
-2.2119e-21
-1.51825e-21
-1.85234e-21
-1.07422e-21
-3.3583e-21
-3.5203e-21
-1.02225e-21
1.44573e-22