/*--------------------------------*- C++ -*----------------------------------*\
| =========                 |                                                 |
| \\      /  F ield         | OpenFOAM: The Open Source CFD Toolbox           |
|  \\    /   O peration     | Version:  v2012                                 |
|   \\  /    A nd           | Website:  www.openfoam.com                      |
|    \\/     M anipulation  |                                                 |
\*---------------------------------------------------------------------------*/
FoamFile
{
    version     2.0;
    format      ascii;
    class       surfaceScalarField;
    location    "25";
    object      phi;
}
// * * * * * * * * * * * * * * * * * * * * * * * * * * * * * * * * * * * * * //

dimensions      [0 3 -1 0 0 0 0];
oriented        oriented;


internalField   nonuniform List<scalar> 
187200
(
1.875e-06
2.324e-22
1.57414e-22
1.875e-06
3.17033e-22
2.92417e-22
1.875e-06
3.44072e-22
4.4518e-22
1.875e-06
2.81092e-22
3.12808e-22
1.875e-06
2.94317e-22
1.93724e-22
1.875e-06
4.33071e-22
3.11832e-22
1.875e-06
3.229e-22
2.20691e-22
1.875e-06
1.8621e-22
2.0257e-22
1.875e-06
1.64516e-22
3.83993e-22
1.875e-06
3.09485e-22
3.52998e-22
1.875e-06
3.50562e-22
1.88837e-22
1.875e-06
2.64264e-22
2.482e-22
1.875e-06
1.83644e-22
2.17976e-22
1.875e-06
1.26009e-22
6.76767e-23
1.875e-06
1.79572e-22
1.61277e-22
1.875e-06
1.31973e-22
1.82134e-22
1.875e-06
1.63851e-22
1.76859e-22
1.875e-06
4.31331e-23
8.29076e-23
1.875e-06
8.94369e-23
5.45801e-23
1.875e-06
5.42194e-23
9.24632e-23
1.875e-06
3.7077e-24
1.23582e-22
1.875e-06
1.16453e-22
1.18582e-22
1.875e-06
1.64055e-22
9.7752e-23
1.875e-06
2.81277e-22
1.12277e-22
1.875e-06
1.13459e-22
3.51101e-23
1.875e-06
1.15614e-22
8.15415e-23
1.875e-06
1.29606e-22
1.58578e-22
1.875e-06
2.6116e-23
6.06345e-23
1.875e-06
6.04253e-23
1.69427e-22
1.875e-06
1.72749e-23
1.70984e-22
1.875e-06
-5.68058e-23
1.65578e-22
1.875e-06
2.94986e-24
5.60569e-23
1.875e-06
9.94264e-23
5.21575e-23
1.875e-06
6.50143e-23
5.69399e-23
1.875e-06
1.6482e-23
5.63765e-23
1.875e-06
-9.04027e-23
2.30974e-23
1.875e-06
-4.89409e-23
-4.70288e-23
1.875e-06
-7.38591e-23
1.09671e-22
1.875e-06
-1.47912e-22
9.89236e-23
-9.74272e-23
5.01004e-23
1.875e-06
8.27553e-23
1.80003e-22
1.875e-06
9.6272e-23
3.99777e-22
1.875e-06
2.81713e-22
6.7999e-22
1.875e-06
3.05591e-22
6.55443e-22
1.875e-06
2.35381e-22
4.78476e-22
1.875e-06
2.85471e-22
4.75999e-22
1.875e-06
3.30424e-22
5.26098e-22
1.875e-06
3.85881e-22
5.39394e-22
1.875e-06
3.88003e-22
7.09073e-22
1.875e-06
2.69354e-22
7.28888e-22
1.875e-06
1.31015e-22
5.37083e-22
1.875e-06
1.22537e-22
4.84208e-22
1.875e-06
2.22981e-22
5.31612e-22
1.875e-06
1.35099e-22
3.92001e-22
1.875e-06
3.93341e-23
3.15989e-22
1.875e-06
-3.10067e-23
2.52729e-22
1.875e-06
1.63215e-22
2.87725e-22
1.875e-06
2.39724e-22
4.43349e-22
1.875e-06
8.02558e-23
2.70211e-22
1.875e-06
1.51324e-23
1.79581e-22
1.875e-06
1.91464e-22
2.79021e-22
1.875e-06
1.33936e-22
1.711e-22
1.875e-06
1.42487e-22
6.95722e-23
1.875e-06
9.946e-23
5.83167e-23
1.875e-06
7.12747e-23
1.45496e-22
1.875e-06
7.44948e-23
1.12744e-22
1.875e-06
1.14802e-22
4.93114e-23
1.875e-06
1.45472e-23
3.26152e-23
1.875e-06
-6.67295e-23
2.82969e-22
1.875e-06
1.15204e-23
2.35404e-22
1.875e-06
1.02988e-22
2.06235e-22
1.875e-06
7.83838e-23
9.0853e-23
1.875e-06
6.29851e-23
6.57877e-23
1.875e-06
-6.04734e-23
3.52809e-23
1.875e-06
-5.10631e-23
1.5327e-22
1.875e-06
-5.5932e-23
6.79111e-23
1.875e-06
-2.1108e-22
-8.65323e-23
1.875e-06
-9.22086e-23
7.23584e-24
1.875e-06
7.04768e-23
1.2716e-22
3.59594e-23
9.36118e-23
1.875e-06
1.07658e-22
3.08591e-22
1.875e-06
1.58433e-22
5.27154e-22
1.875e-06
1.15656e-22
6.46546e-22
1.875e-06
2.7259e-22
7.40526e-22
1.875e-06
3.16588e-22
6.8435e-22
1.875e-06
2.67006e-22
5.79008e-22
1.875e-06
2.80287e-22
6.62376e-22
1.875e-06
2.27412e-22
7.24027e-22
1.875e-06
2.28595e-22
7.81054e-22
1.875e-06
2.25343e-22
8.14538e-22
1.875e-06
2.29615e-22
7.04243e-22
1.875e-06
2.0507e-22
5.40041e-22
1.875e-06
1.82046e-22
4.84766e-22
1.875e-06
1.26512e-22
4.60466e-22
1.875e-06
1.27594e-22
5.02688e-22
1.875e-06
1.46638e-22
4.74383e-22
1.875e-06
6.20715e-23
3.73853e-22
1.875e-06
8.41495e-23
4.63454e-22
1.875e-06
-1.20763e-23
2.89541e-22
1.875e-06
1.33679e-22
2.09236e-22
1.875e-06
7.93573e-23
2.9193e-22
1.875e-06
1.57787e-22
1.65358e-22
1.875e-06
1.23044e-22
-3.86852e-23
1.875e-06
6.84031e-23
5.31349e-23
1.875e-06
1.20212e-22
2.0288e-22
1.875e-06
7.47168e-23
1.49185e-22
1.875e-06
1.09536e-23
5.50852e-23
1.875e-06
-8.26212e-23
9.64223e-23
1.875e-06
-2.42167e-23
2.05914e-22
1.875e-06
1.93814e-23
2.35277e-22
1.875e-06
-3.13076e-23
3.13937e-22
1.875e-06
4.21064e-23
2.11207e-22
1.875e-06
-4.1018e-23
2.13926e-23
1.875e-06
-8.89999e-24
6.75742e-23
1.875e-06
-5.42648e-23
1.79109e-22
1.875e-06
-9.20479e-23
1.03678e-22
1.875e-06
-4.15748e-23
-4.98183e-23
1.875e-06
9.22543e-23
-8.1331e-24
1.875e-06
1.03346e-22
-2.65608e-23
1.12916e-22
5.14259e-23
1.875e-06
2.51153e-22
4.282e-22
1.875e-06
1.72581e-22
7.08912e-22
1.875e-06
1.4402e-22
7.30925e-22
1.875e-06
6.81428e-23
7.97437e-22
1.875e-06
1.91617e-22
7.48296e-22
1.875e-06
2.24712e-22
6.9437e-22
1.875e-06
1.85115e-22
7.23886e-22
1.875e-06
1.66837e-22
7.87895e-22
1.875e-06
1.91268e-22
7.82123e-22
1.875e-06
2.34796e-22
7.88544e-22
1.875e-06
1.86535e-22
7.66159e-22
1.875e-06
1.63815e-22
7.65368e-22
1.875e-06
1.18775e-22
6.16958e-22
1.875e-06
8.76353e-23
4.65944e-22
1.875e-06
2.32343e-22
4.87902e-22
1.875e-06
4.10796e-22
4.95628e-22
1.875e-06
1.1816e-22
4.47337e-22
1.875e-06
-2.73695e-23
4.54913e-22
1.875e-06
1.01223e-22
4.2843e-22
1.875e-06
6.00134e-23
2.52618e-22
1.875e-06
-1.56224e-23
2.25516e-22
1.875e-06
4.86538e-23
1.04373e-22
1.875e-06
1.92894e-22
6.30492e-23
1.875e-06
8.68991e-23
1.02598e-22
1.875e-06
6.44789e-23
1.26533e-22
1.875e-06
5.96174e-23
1.59583e-22
1.875e-06
5.71771e-24
9.55864e-23
1.875e-06
5.43084e-23
6.02569e-23
1.875e-06
8.86558e-23
1.86274e-22
1.875e-06
-7.20105e-23
2.57533e-22
1.875e-06
-8.43097e-23
2.75265e-22
1.875e-06
-1.36321e-23
2.07511e-22
1.875e-06
-1.47969e-22
1.64515e-22
1.875e-06
-8.89573e-23
1.82613e-22
1.875e-06
2.59023e-24
1.13526e-22
1.875e-06
-1.8942e-23
6.05067e-23
1.875e-06
-5.79333e-23
-6.7301e-23
1.875e-06
-7.14608e-24
-1.25204e-22
1.875e-06
1.7677e-22
4.75198e-23
1.38439e-22
9.19107e-23
1.875e-06
-1.19837e-23
2.7412e-22
1.875e-06
1.2374e-22
7.26947e-22
1.875e-06
8.26533e-23
7.91283e-22
1.875e-06
1.40321e-22
7.84714e-22
1.875e-06
1.15435e-22
8.77095e-22
1.875e-06
7.48049e-23
8.3531e-22
1.875e-06
9.93305e-23
8.51981e-22
1.875e-06
3.65261e-22
8.84688e-22
1.875e-06
3.29356e-22
7.99421e-22
1.875e-06
1.78623e-22
8.21484e-22
1.875e-06
1.23412e-22
8.47837e-22
1.875e-06
1.56304e-22
7.58443e-22
1.875e-06
1.99105e-22
6.32596e-22
1.875e-06
1.65515e-22
6.35957e-22
1.875e-06
1.46491e-22
5.61562e-22
1.875e-06
1.30759e-22
3.87534e-22
1.875e-06
1.3645e-22
5.19993e-22
1.875e-06
8.74938e-24
5.17515e-22
1.875e-06
-4.02541e-23
3.89197e-22
1.875e-06
3.4866e-23
2.54664e-22
1.875e-06
-2.04378e-23
2.49352e-22
1.875e-06
5.5968e-23
1.05e-22
1.875e-06
1.57665e-22
5.43774e-23
1.875e-06
1.77279e-22
1.41832e-22
1.875e-06
9.07251e-23
2.3256e-22
1.875e-06
4.3942e-23
2.04707e-22
1.875e-06
9.57306e-23
1.17871e-22
1.875e-06
1.41251e-23
1.05857e-22
1.875e-06
-7.13238e-23
1.15484e-22
1.875e-06
2.68457e-23
2.30315e-22
1.875e-06
1.22487e-22
2.28432e-22
1.875e-06
3.4614e-23
2.31683e-22
1.875e-06
-3.53705e-23
1.59782e-22
1.875e-06
-7.19635e-23
1.48732e-22
1.875e-06
-7.10791e-24
5.3792e-23
1.875e-06
3.45877e-23
2.93198e-23
1.875e-06
1.25618e-22
1.76743e-23
1.875e-06
3.17056e-23
-8.88858e-23
1.875e-06
-3.85946e-23
2.61211e-23
-2.1373e-23
-1.68587e-23
1.875e-06
3.06481e-23
3.45437e-22
1.875e-06
1.02508e-22
7.12508e-22
1.875e-06
1.0797e-22
8.15622e-22
1.875e-06
6.53457e-23
7.55916e-22
1.875e-06
9.81174e-23
8.77678e-22
1.875e-06
1.34466e-22
9.36813e-22
1.875e-06
1.5849e-22
9.52074e-22
1.875e-06
2.18085e-22
9.50776e-22
1.875e-06
3.06204e-22
8.90211e-22
1.875e-06
1.85627e-22
8.14985e-22
1.875e-06
1.55573e-22
8.61832e-22
1.875e-06
1.66964e-22
8.29294e-22
1.875e-06
1.42718e-22
7.00552e-22
1.875e-06
2.29983e-22
6.80773e-22
1.875e-06
1.58822e-22
6.50401e-22
1.875e-06
7.56295e-23
4.74885e-22
1.875e-06
3.662e-23
4.69507e-22
1.875e-06
-3.18961e-23
4.56074e-22
1.875e-06
-6.08743e-23
4.05878e-22
1.875e-06
2.79712e-24
2.4396e-22
1.875e-06
1.80334e-22
2.7753e-22
1.875e-06
1.35067e-22
1.89198e-22
1.875e-06
1.89725e-22
6.82696e-23
1.875e-06
2.08711e-22
1.35881e-22
1.875e-06
2.4234e-23
2.21195e-22
1.875e-06
7.45393e-23
2.39576e-22
1.875e-06
3.49284e-23
1.14834e-22
1.875e-06
-7.94795e-24
9.41306e-23
1.875e-06
-8.6184e-23
1.33777e-22
1.875e-06
-9.53357e-23
1.99089e-22
1.875e-06
9.12005e-23
1.63321e-22
1.875e-06
8.57625e-23
1.00353e-22
1.875e-06
-4.3561e-23
2.6584e-23
1.875e-06
2.44385e-23
1.60342e-22
1.875e-06
6.08961e-23
1.16921e-22
1.875e-06
1.63177e-22
6.98176e-23
1.875e-06
1.24627e-22
-6.09487e-23
1.875e-06
1.80571e-23
-1.05331e-22
1.875e-06
-1.09061e-23
-1.28578e-23
3.6902e-23
6.07925e-23
1.875e-06
6.97464e-23
4.2685e-22
1.875e-06
1.23681e-22
7.9454e-22
1.875e-06
1.18818e-22
8.91256e-22
1.875e-06
4.40905e-23
8.43236e-22
1.875e-06
1.28232e-22
9.06688e-22
1.875e-06
7.00129e-23
9.6749e-22
1.875e-06
1.59954e-22
1.03642e-21
1.875e-06
3.31135e-22
9.951e-22
1.875e-06
2.35971e-22
9.34066e-22
1.875e-06
2.52531e-22
9.50626e-22
1.875e-06
1.8575e-22
9.29168e-22
1.875e-06
6.02309e-23
7.88526e-22
1.875e-06
1.31718e-22
7.30511e-22
1.875e-06
2.07394e-22
5.97969e-22
1.875e-06
1.21929e-22
7.16654e-22
1.875e-06
1.15956e-22
5.35555e-22
1.875e-06
4.1998e-23
3.82706e-22
1.875e-06
1.05889e-22
4.30459e-22
1.875e-06
1.46343e-22
4.24075e-22
1.875e-06
1.00265e-22
2.31988e-22
1.875e-06
1.26892e-22
2.25482e-22
1.875e-06
7.44614e-23
2.36591e-22
1.875e-06
-5.75162e-23
6.94378e-23
1.875e-06
-2.47827e-24
1.17756e-22
1.875e-06
9.27039e-23
2.8955e-22
1.875e-06
6.01966e-23
2.55877e-22
1.875e-06
2.72557e-23
1.86866e-22
1.875e-06
-3.40461e-23
1.44573e-22
1.875e-06
-4.20993e-23
7.2445e-23
1.875e-06
1.38473e-24
1.46526e-22
1.875e-06
7.36413e-24
1.33601e-22
1.875e-06
-2.31995e-23
3.8954e-23
1.875e-06
7.56733e-23
8.4812e-23
1.875e-06
1.28432e-22
8.74906e-23
1.875e-06
1.33664e-22
1.40574e-22
1.875e-06
1.04152e-22
1.71213e-23
1.875e-06
-1.0201e-22
-2.30995e-22
1.875e-06
9.98838e-24
-1.66284e-22
1.875e-06
-5.15669e-23
5.84488e-23
-6.21387e-23
1.2804e-22
1.875e-06
1.21415e-22
2.97822e-22
1.875e-06
4.37388e-23
6.58688e-22
1.875e-06
7.34095e-23
8.33518e-22
1.875e-06
1.20046e-22
9.89311e-22
1.875e-06
1.08953e-22
9.91228e-22
1.875e-06
2.31038e-22
1.00638e-21
1.875e-06
2.51308e-22
1.09754e-21
1.875e-06
3.90455e-23
9.88613e-22
1.875e-06
9.08016e-23
9.96002e-22
1.875e-06
2.42338e-22
9.80118e-22
1.875e-06
1.13935e-22
9.08349e-22
1.875e-06
1.1381e-22
8.01989e-22
1.875e-06
1.14039e-22
6.22338e-22
1.875e-06
2.11818e-22
5.16059e-22
1.875e-06
1.65803e-22
7.19993e-22
1.875e-06
9.15044e-23
5.3483e-22
1.875e-06
8.30557e-23
4.53749e-22
1.875e-06
2.46915e-23
4.09802e-22
1.875e-06
1.80902e-22
2.79906e-22
1.875e-06
1.37835e-22
1.7974e-22
1.875e-06
3.86027e-23
2.75948e-22
1.875e-06
6.65301e-23
3.37383e-22
1.875e-06
4.08648e-23
3.2675e-22
1.875e-06
9.00141e-23
2.09919e-22
1.875e-06
-1.58771e-23
3.06842e-22
1.875e-06
-1.19834e-23
2.06527e-22
1.875e-06
7.1087e-23
9.63789e-23
1.875e-06
6.80943e-23
1.16725e-22
1.875e-06
-3.85499e-23
7.65243e-23
1.875e-06
-1.97745e-23
1.54871e-22
1.875e-06
-1.31003e-22
2.25881e-22
1.875e-06
-7.40135e-23
1.32496e-22
1.875e-06
5.95816e-23
1.69592e-22
1.875e-06
5.93866e-23
1.54518e-22
1.875e-06
1.07084e-22
2.60414e-23
1.875e-06
-7.37619e-23
-2.57635e-22
1.875e-06
3.86744e-23
-2.74067e-22
1.875e-06
1.40365e-23
-1.64685e-22
1.875e-06
-3.70083e-23
5.66163e-23
1.48657e-23
6.37326e-23
1.875e-06
-2.33697e-22
2.14798e-22
1.875e-06
-4.16228e-23
6.76157e-22
1.875e-06
1.24942e-22
9.58603e-22
1.875e-06
1.7488e-22
1.0601e-21
1.875e-06
1.42772e-22
1.03707e-21
1.875e-06
1.72302e-22
1.04959e-21
1.875e-06
1.73139e-22
1.13027e-21
1.875e-06
1.26784e-22
1.13708e-21
1.875e-06
6.04796e-23
1.04923e-21
1.875e-06
6.7549e-23
8.77999e-22
1.875e-06
2.10484e-22
9.83242e-22
1.875e-06
9.86096e-23
8.03776e-22
1.875e-06
9.14e-24
5.3683e-22
1.875e-06
9.91407e-23
5.61136e-22
1.875e-06
1.73568e-22
5.93321e-22
1.875e-06
5.65723e-23
4.85979e-22
1.875e-06
1.46901e-22
5.44849e-22
1.875e-06
1.4451e-22
4.88694e-22
1.875e-06
-9.80916e-23
2.51759e-22
1.875e-06
-1.03316e-23
2.56161e-22
1.875e-06
1.34319e-22
3.06525e-22
1.875e-06
6.66057e-23
4.29474e-22
1.875e-06
1.40417e-22
3.59743e-22
1.875e-06
6.76084e-23
2.97536e-22
1.875e-06
1.19973e-22
3.22742e-22
1.875e-06
1.19613e-23
1.97116e-22
1.875e-06
-8.68185e-23
9.21605e-23
1.875e-06
-1.86092e-23
3.20793e-23
1.875e-06
2.13935e-23
1.91993e-23
1.875e-06
-8.66335e-23
8.84766e-23
1.875e-06
-4.8064e-23
2.71329e-22
1.875e-06
-6.6776e-23
2.49567e-22
1.875e-06
-1.44588e-23
2.02389e-22
1.875e-06
8.52189e-24
9.45601e-23
1.875e-06
-2.13697e-23
-1.43252e-22
1.875e-06
9.33932e-23
-2.79622e-22
1.875e-06
6.24548e-23
-2.74726e-22
1.875e-06
-5.45499e-24
-1.81354e-22
1.875e-06
1.02336e-22
-1.93449e-23
7.08955e-23
7.62182e-23
1.875e-06
8.58674e-24
5.4277e-22
1.875e-06
8.83708e-23
7.29823e-22
1.875e-06
1.35893e-22
9.18393e-22
1.875e-06
2.24414e-22
1.18858e-21
1.875e-06
6.58119e-23
1.16796e-21
1.875e-06
1.05602e-22
1.1382e-21
1.875e-06
2.27272e-22
1.22184e-21
1.875e-06
6.7965e-23
1.11301e-21
1.875e-06
1.1654e-22
9.27881e-22
1.875e-06
1.33964e-22
8.39559e-22
1.875e-06
1.11297e-22
8.38161e-22
1.875e-06
3.18847e-23
9.05044e-22
1.875e-06
4.89346e-23
7.10358e-22
1.875e-06
9.11243e-23
6.9847e-22
1.875e-06
1.33707e-22
6.07323e-22
1.875e-06
1.43121e-22
4.68739e-22
1.875e-06
5.50097e-23
3.76536e-22
1.875e-06
3.27528e-23
4.8449e-22
1.875e-06
-4.53e-23
3.80773e-22
1.875e-06
-8.28367e-24
2.64036e-22
1.875e-06
1.00635e-22
3.65077e-22
1.875e-06
2.40596e-22
4.67519e-22
1.875e-06
7.80778e-23
3.14428e-22
1.875e-06
6.88043e-23
3.11291e-22
1.875e-06
1.12384e-22
2.43386e-22
1.875e-06
-1.26343e-23
2.1815e-22
1.875e-06
-1.64532e-22
1.21787e-22
1.875e-06
-4.46438e-23
1.54421e-23
1.875e-06
-1.94653e-23
1.68593e-23
1.875e-06
-5.69977e-23
1.37245e-22
1.875e-06
-1.54862e-23
2.19753e-22
1.875e-06
-8.20251e-23
2.1382e-22
1.875e-06
4.14783e-23
2.04673e-22
1.875e-06
-1.65966e-23
8.67009e-23
1.875e-06
-9.47452e-23
-7.14135e-23
1.875e-06
-4.62353e-23
-3.34793e-22
1.875e-06
6.85646e-24
-4.01393e-22
1.875e-06
1.28051e-22
-1.66858e-22
1.875e-06
1.92481e-22
-8.6979e-23
7.05834e-23
-2.00427e-23
1.875e-06
9.43092e-23
5.62867e-22
1.875e-06
1.3979e-22
8.84508e-22
1.875e-06
1.44733e-22
1.07464e-21
1.875e-06
6.54403e-23
1.10259e-21
1.875e-06
1.31262e-22
1.20062e-21
1.875e-06
1.93468e-22
1.09941e-21
1.875e-06
4.33559e-23
1.03813e-21
1.875e-06
1.92601e-22
1.1044e-21
1.875e-06
3.85799e-23
9.75903e-22
1.875e-06
5.91885e-23
8.24613e-22
1.875e-06
1.58784e-22
8.41868e-22
1.875e-06
1.70792e-22
9.30689e-22
1.875e-06
8.93071e-23
8.53881e-22
1.875e-06
8.44286e-23
7.0742e-22
1.875e-06
4.55171e-23
5.88143e-22
1.875e-06
1.14646e-22
5.45814e-22
1.875e-06
4.73892e-23
3.69103e-22
1.875e-06
-1.47126e-23
4.21195e-22
1.875e-06
1.35618e-22
4.04388e-22
1.875e-06
6.71517e-23
3.94238e-22
1.875e-06
6.43211e-23
3.68049e-22
1.875e-06
3.53266e-23
2.39615e-22
1.875e-06
1.6536e-25
3.3903e-22
1.875e-06
-1.26435e-23
4.09218e-22
1.875e-06
9.69805e-24
1.45488e-22
1.875e-06
-6.85381e-23
1.50305e-22
1.875e-06
-1.05046e-23
2.19548e-22
1.875e-06
-9.10961e-23
-1.65792e-23
1.875e-06
-2.24679e-24
-1.02203e-23
1.875e-06
-1.17152e-24
1.90979e-22
1.875e-06
-1.67957e-22
1.83102e-22
1.875e-06
1.59096e-23
2.56783e-22
1.875e-06
-1.59579e-23
1.11375e-22
1.875e-06
-2.00879e-23
1.0638e-22
1.875e-06
-1.4576e-22
-8.0453e-24
1.875e-06
-2.88734e-23
-2.96469e-22
1.875e-06
2.46563e-23
-3.46003e-22
1.875e-06
1.07737e-22
-2.04985e-22
1.875e-06
1.73294e-22
-1.01891e-22
1.64018e-22
-4.99129e-23
1.875e-06
1.30859e-22
5.9877e-22
1.875e-06
1.59649e-22
8.80283e-22
1.875e-06
1.08637e-22
1.02444e-21
1.875e-06
1.073e-22
1.09641e-21
1.875e-06
1.22228e-22
1.12127e-21
1.875e-06
9.43746e-25
1.06985e-21
1.875e-06
1.12693e-22
1.06836e-21
1.875e-06
1.88008e-22
1.02272e-21
1.875e-06
2.74377e-22
9.71383e-22
1.875e-06
8.2369e-23
8.92775e-22
1.875e-06
3.05337e-23
8.17963e-22
1.875e-06
6.83297e-23
8.7724e-22
1.875e-06
1.56601e-22
8.91498e-22
1.875e-06
1.13164e-22
7.08652e-22
1.875e-06
3.16049e-23
6.42424e-22
1.875e-06
-6.40729e-23
5.13418e-22
1.875e-06
-3.84075e-25
4.87721e-22
1.875e-06
8.77699e-23
4.44587e-22
1.875e-06
1.54289e-22
4.10084e-22
1.875e-06
2.13463e-22
4.15051e-22
1.875e-06
3.68772e-23
3.60264e-22
1.875e-06
-4.51445e-23
2.82776e-22
1.875e-06
-1.62775e-23
2.99337e-22
1.875e-06
-8.41035e-23
3.76235e-22
1.875e-06
-1.39324e-22
1.7553e-22
1.875e-06
-4.78112e-23
1.55584e-22
1.875e-06
-3.49112e-23
1.86458e-22
1.875e-06
-7.96266e-25
4.98394e-23
1.875e-06
-6.10098e-23
-7.93654e-23
1.875e-06
-7.24296e-23
1.48587e-22
1.875e-06
1.05958e-22
3.12172e-22
1.875e-06
-1.1662e-23
2.55053e-22
1.875e-06
-1.73658e-22
1.35541e-22
1.875e-06
-1.00485e-23
7.85288e-23
1.875e-06
6.56531e-23
1.41296e-22
1.875e-06
-7.36047e-23
-2.06359e-22
1.875e-06
2.98206e-23
-3.57482e-22
1.875e-06
1.45366e-22
-2.20647e-22
1.875e-06
1.26238e-22
-1.35406e-22
9.65588e-23
-1.5134e-22
1.875e-06
1.88008e-22
5.8389e-22
1.875e-06
1.82352e-22
8.93803e-22
1.875e-06
1.16894e-22
9.84279e-22
1.875e-06
1.01297e-22
1.15012e-21
1.875e-06
-6.59528e-23
1.0884e-21
1.875e-06
-9.64378e-23
1.14837e-21
1.875e-06
6.93543e-23
1.06389e-21
1.875e-06
1.17229e-22
9.58681e-22
1.875e-06
2.61283e-24
8.96423e-22
1.875e-06
9.27381e-23
8.37584e-22
1.875e-06
2.87113e-23
8.22394e-22
1.875e-06
7.66044e-23
9.47209e-22
1.875e-06
1.70536e-22
8.95589e-22
1.875e-06
1.77485e-22
6.82932e-22
1.875e-06
1.04822e-22
6.89063e-22
1.875e-06
5.68994e-24
5.44896e-22
1.875e-06
3.41343e-24
4.72174e-22
1.875e-06
6.43443e-23
4.56494e-22
1.875e-06
9.67974e-23
4.5274e-22
1.875e-06
4.93021e-23
4.19534e-22
1.875e-06
1.22297e-22
3.54302e-22
1.875e-06
8.21617e-23
3.39172e-22
1.875e-06
4.64054e-23
3.46386e-22
1.875e-06
-2.59852e-23
3.48108e-22
1.875e-06
-1.19323e-22
1.82358e-22
1.875e-06
-4.96091e-23
8.84535e-23
1.875e-06
-2.46198e-23
3.75193e-23
1.875e-06
-2.59908e-23
5.43793e-23
1.875e-06
-6.86631e-23
6.50378e-23
1.875e-06
-1.57311e-22
1.12888e-22
1.875e-06
-1.03176e-22
1.44003e-22
1.875e-06
3.00032e-23
2.10425e-22
1.875e-06
5.23362e-24
1.65867e-22
1.875e-06
-7.65023e-23
6.69815e-23
1.875e-06
-4.18877e-23
1.93873e-22
1.875e-06
-1.88687e-23
-1.33469e-22
1.875e-06
6.72705e-23
-3.93584e-22
1.875e-06
1.76806e-22
-1.34579e-22
1.875e-06
4.5294e-23
-1.38601e-22
6.04176e-23
-3.17788e-22
1.875e-06
-1.41262e-22
5.07178e-22
1.875e-06
-2.8338e-24
8.40749e-22
1.875e-06
8.70882e-23
9.71738e-22
1.875e-06
-1.59243e-23
1.08278e-21
1.875e-06
-3.93481e-23
1.14936e-21
1.875e-06
4.648e-23
1.18629e-21
1.875e-06
1.37363e-22
1.05716e-21
1.875e-06
1.58358e-22
9.37329e-22
1.875e-06
1.08395e-22
9.78421e-22
1.875e-06
-9.1612e-23
8.82402e-22
1.875e-06
-3.52113e-23
8.82532e-22
1.875e-06
1.66961e-22
8.66238e-22
1.875e-06
1.26093e-22
8.76615e-22
1.875e-06
6.07801e-23
6.08254e-22
1.875e-06
-3.06917e-23
7.17178e-22
1.875e-06
1.25041e-23
5.64349e-22
1.875e-06
5.16187e-23
6.03818e-22
1.875e-06
2.13887e-22
5.31509e-22
1.875e-06
1.19541e-22
4.17431e-22
1.875e-06
2.96772e-23
3.13985e-22
1.875e-06
1.47544e-22
3.21777e-22
1.875e-06
-7.56185e-24
3.29218e-22
1.875e-06
-1.43702e-22
2.36886e-22
1.875e-06
-3.33388e-23
2.7835e-22
1.875e-06
-8.8997e-23
1.81628e-22
1.875e-06
2.08353e-23
1.46202e-23
1.875e-06
8.06922e-23
1.32271e-23
1.875e-06
4.99326e-23
1.03442e-22
1.875e-06
-9.08925e-24
5.80944e-23
1.875e-06
-2.74285e-23
1.67675e-22
1.875e-06
-1.48646e-22
2.25991e-22
1.875e-06
-1.50651e-22
7.35323e-23
1.875e-06
-1.92787e-23
5.81573e-23
1.875e-06
-6.48528e-23
1.74177e-22
1.875e-06
-6.5925e-23
1.64842e-22
1.875e-06
-1.97175e-23
-1.63432e-22
1.875e-06
1.95814e-23
-4.39561e-22
1.875e-06
5.5193e-23
-3.05069e-22
1.875e-06
2.64225e-23
-1.68903e-22
-1.32518e-22
-3.01728e-22
1.875e-06
-3.08826e-23
6.86065e-22
1.875e-06
-1.74874e-22
7.99416e-22
1.875e-06
-5.72383e-23
9.66922e-22
1.875e-06
-2.32821e-23
1.08702e-21
1.875e-06
9.71667e-23
1.15365e-21
1.875e-06
1.38385e-23
1.06484e-21
1.875e-06
-7.24467e-24
1.01035e-21
1.875e-06
1.06901e-23
9.32863e-22
1.875e-06
3.19146e-23
9.40597e-22
1.875e-06
1.00666e-23
9.95124e-22
1.875e-06
1.62821e-22
9.07936e-22
1.875e-06
1.13679e-22
8.35049e-22
1.875e-06
6.24529e-23
8.91272e-22
1.875e-06
-3.82106e-23
6.85065e-22
1.875e-06
7.48574e-23
7.27897e-22
1.875e-06
5.07123e-23
5.86706e-22
1.875e-06
5.76776e-23
3.83973e-22
1.875e-06
1.3719e-22
3.95772e-22
1.875e-06
9.54602e-23
4.62542e-22
1.875e-06
5.24603e-23
4.35275e-22
1.875e-06
7.98208e-23
2.57329e-22
1.875e-06
6.63377e-23
4.45407e-22
1.875e-06
-1.06511e-22
3.96407e-22
1.875e-06
-2.29258e-22
1.50089e-22
1.875e-06
-1.27514e-22
1.34451e-22
1.875e-06
-7.6828e-24
1.50488e-23
1.875e-06
1.83132e-22
-6.28737e-23
1.875e-06
1.27307e-22
1.23751e-23
1.875e-06
-1.56213e-23
1.30176e-22
1.875e-06
-1.10342e-23
1.59503e-22
1.875e-06
-3.70726e-23
2.52317e-22
1.875e-06
-3.21413e-23
1.57129e-22
1.875e-06
-4.95507e-23
5.99401e-23
1.875e-06
-5.80701e-23
7.80225e-23
1.875e-06
-7.35352e-23
1.15126e-22
1.875e-06
-9.75326e-23
-5.91078e-23
1.875e-06
-4.57061e-23
-3.83148e-22
1.875e-06
-6.77811e-23
-2.98311e-22
1.875e-06
-4.76997e-23
-2.51352e-22
-3.54598e-23
-2.82637e-22
1.875e-06
-1.82567e-23
5.88815e-22
1.875e-06
-6.9439e-23
9.72895e-22
1.875e-06
-8.937e-23
1.05492e-21
1.875e-06
-9.91035e-23
1.11548e-21
1.875e-06
-6.16616e-23
1.11968e-21
1.875e-06
3.16861e-23
1.14207e-21
1.875e-06
6.01671e-24
1.029e-21
1.875e-06
9.31526e-23
9.99999e-22
1.875e-06
-7.8089e-24
9.77558e-22
1.875e-06
6.51391e-23
9.35757e-22
1.875e-06
6.29159e-23
8.65868e-22
1.875e-06
1.58877e-22
9.16508e-22
1.875e-06
-2.3985e-23
9.51747e-22
1.875e-06
-2.25974e-23
8.0883e-22
1.875e-06
-2.59851e-23
6.69277e-22
1.875e-06
2.80754e-23
4.7152e-22
1.875e-06
1.2156e-22
4.10536e-22
1.875e-06
9.66404e-24
4.02499e-22
1.875e-06
7.6677e-23
4.60161e-22
1.875e-06
1.526e-22
4.36038e-22
1.875e-06
2.50143e-23
2.62465e-22
1.875e-06
-3.8615e-23
3.95774e-22
1.875e-06
-7.50472e-23
3.98943e-22
1.875e-06
-1.80238e-22
2.24268e-22
1.875e-06
-9.38982e-23
1.0069e-22
1.875e-06
-9.11886e-23
9.61683e-23
1.875e-06
-4.97152e-23
-8.55405e-23
1.875e-06
-5.11937e-23
-1.12371e-22
1.875e-06
1.10956e-22
1.72756e-22
1.875e-06
1.70385e-22
2.04286e-22
1.875e-06
3.07307e-23
1.99267e-22
1.875e-06
5.23554e-23
1.06107e-22
1.875e-06
-5.66476e-23
4.76228e-23
1.875e-06
-1.14496e-22
3.5558e-23
1.875e-06
-9.48918e-23
1.0454e-22
1.875e-06
-4.14018e-23
-6.97346e-23
1.875e-06
-1.1672e-22
-3.03821e-22
1.875e-06
-9.93027e-23
-2.58958e-22
1.875e-06
-1.85849e-22
-2.65817e-22
2.09136e-23
-2.54088e-22
1.875e-06
-1.41914e-22
5.4659e-22
1.875e-06
-1.07115e-22
9.42327e-22
1.875e-06
-1.44443e-23
1.08314e-21
1.875e-06
-2.60954e-23
1.17084e-21
1.875e-06
-5.02602e-23
1.27389e-21
1.875e-06
-1.12017e-23
1.14973e-21
1.875e-06
-2.8717e-23
1.06273e-21
1.875e-06
-7.87216e-23
9.79323e-22
1.875e-06
6.84685e-23
1.09216e-21
1.875e-06
7.54017e-23
8.7576e-22
1.875e-06
6.88801e-23
8.41798e-22
1.875e-06
1.82874e-23
8.3898e-22
1.875e-06
6.15107e-23
9.9568e-22
1.875e-06
-5.897e-23
9.21729e-22
1.875e-06
4.96432e-24
7.34512e-22
1.875e-06
9.52629e-23
4.50101e-22
1.875e-06
6.96347e-23
2.99285e-22
1.875e-06
-4.59183e-23
4.53755e-22
1.875e-06
6.46304e-23
5.62171e-22
1.875e-06
7.84453e-23
4.38702e-22
1.875e-06
1.17381e-23
3.62415e-22
1.875e-06
1.21097e-23
3.56501e-22
1.875e-06
-1.19579e-22
2.5865e-22
1.875e-06
-1.00466e-22
2.0407e-22
1.875e-06
-1.4024e-22
9.22918e-23
1.875e-06
-1.28657e-23
1.03096e-22
1.875e-06
-3.75357e-23
-1.59803e-23
1.875e-06
-4.90775e-23
1.09083e-22
1.875e-06
1.00273e-23
1.44904e-22
1.875e-06
-5.78655e-24
5.21515e-23
1.875e-06
1.14333e-22
1.27692e-22
1.875e-06
-7.10226e-23
1.47113e-23
1.875e-06
-1.04372e-22
4.84977e-23
1.875e-06
-7.01064e-23
1.16967e-22
1.875e-06
-3.65874e-23
1.06194e-22
1.875e-06
-4.28853e-23
-1.25616e-22
1.875e-06
-6.4024e-23
-2.82854e-22
1.875e-06
-2.19653e-22
-2.9188e-22
1.875e-06
-8.01405e-23
-2.84189e-22
-2.61856e-23
-3.79892e-22
1.875e-06
-8.41919e-23
6.3131e-22
1.875e-06
-1.78368e-22
9.85907e-22
1.875e-06
-1.76385e-22
1.06946e-21
1.875e-06
3.21085e-23
1.21318e-21
1.875e-06
9.36329e-23
1.23115e-21
1.875e-06
-2.54925e-23
1.17306e-21
1.875e-06
-1.4051e-22
1.05363e-21
1.875e-06
-1.48921e-22
9.68919e-22
1.875e-06
2.21755e-23
1.06173e-21
1.875e-06
1.436e-22
1.1055e-21
1.875e-06
2.53004e-23
9.20097e-22
1.875e-06
2.48665e-23
8.13075e-22
1.875e-06
6.85535e-23
9.17079e-22
1.875e-06
2.90423e-23
9.82401e-22
1.875e-06
-3.14469e-23
7.94959e-22
1.875e-06
-1.69394e-23
4.5936e-22
1.875e-06
6.98143e-23
3.55799e-22
1.875e-06
2.19793e-22
5.07579e-22
1.875e-06
2.48842e-22
4.12395e-22
1.875e-06
-1.67427e-23
3.0078e-22
1.875e-06
-1.52301e-22
2.90812e-22
1.875e-06
-1.97944e-22
3.05248e-22
1.875e-06
-3.35297e-23
3.30205e-22
1.875e-06
-2.43277e-23
2.65665e-22
1.875e-06
2.1644e-24
2.5185e-22
1.875e-06
-1.11328e-22
1.11609e-22
1.875e-06
-4.49315e-23
1.07178e-22
1.875e-06
-3.44713e-23
6.76761e-23
1.875e-06
-6.7937e-23
7.87852e-23
1.875e-06
7.99808e-24
6.66083e-23
1.875e-06
1.21086e-22
6.2171e-23
1.875e-06
-1.21853e-23
1.10045e-23
1.875e-06
-1.94289e-23
6.79396e-24
1.875e-06
-4.89772e-24
6.10152e-23
1.875e-06
-6.20496e-23
5.49051e-23
1.875e-06
-7.43923e-23
-7.32546e-23
1.875e-06
-1.5232e-22
-2.1512e-22
1.875e-06
-1.10074e-22
-2.46561e-22
1.875e-06
9.27463e-23
-2.42386e-22
1.55872e-22
-3.478e-22
1.875e-06
-2.52338e-24
6.76214e-22
1.875e-06
-4.48293e-23
1.06993e-21
1.875e-06
3.69937e-24
1.10535e-21
1.875e-06
2.56818e-23
1.16403e-21
1.875e-06
2.01613e-23
1.20279e-21
1.875e-06
-1.04002e-22
1.24723e-21
1.875e-06
-1.92489e-22
1.11969e-21
1.875e-06
-4.91759e-23
1.1262e-21
1.875e-06
3.66681e-24
1.10025e-21
1.875e-06
5.69869e-23
9.82624e-22
1.875e-06
4.27008e-23
9.54347e-22
1.875e-06
-2.62625e-24
9.4369e-22
1.875e-06
1.97326e-23
9.4905e-22
1.875e-06
4.45183e-23
9.57888e-22
1.875e-06
1.28808e-22
7.81268e-22
1.875e-06
5.21045e-23
5.66316e-22
1.875e-06
-8.96348e-23
3.75362e-22
1.875e-06
-8.16879e-23
3.47745e-22
1.875e-06
-2.27605e-23
2.13805e-22
1.875e-06
5.51687e-23
3.11339e-22
1.875e-06
-1.03218e-23
3.27081e-22
1.875e-06
-1.46463e-23
3.88912e-22
1.875e-06
-2.84022e-23
3.57264e-22
1.875e-06
-1.36261e-24
2.78012e-22
1.875e-06
-7.79404e-24
3.33054e-22
1.875e-06
-5.01482e-23
1.56664e-22
1.875e-06
8.01901e-23
2.05985e-22
1.875e-06
1.00811e-22
1.11851e-22
1.875e-06
6.04522e-24
6.28787e-23
1.875e-06
-2.16536e-23
2.01177e-23
1.875e-06
-7.00493e-23
-7.21777e-23
1.875e-06
-1.81772e-23
-3.58452e-23
1.875e-06
2.05851e-23
-7.05894e-24
1.875e-06
2.16451e-23
8.1784e-23
1.875e-06
1.53795e-23
4.89189e-23
1.875e-06
-6.39633e-23
1.2001e-23
1.875e-06
-1.17798e-23
-3.28656e-23
1.875e-06
-6.75075e-24
-1.63835e-22
1.875e-06
-8.44097e-25
-2.29011e-22
-4.21279e-23
-3.19937e-22
1.875e-06
7.89297e-23
7.5685e-22
1.875e-06
1.31332e-22
1.10866e-21
1.875e-06
-2.49326e-24
9.46475e-22
1.875e-06
-7.25322e-23
1.0942e-21
1.875e-06
-5.00395e-23
1.24071e-21
1.875e-06
-4.41635e-23
1.24771e-21
1.875e-06
-1.29519e-22
1.1674e-21
1.875e-06
-2.02611e-22
1.0189e-21
1.875e-06
-9.00039e-23
1.06664e-21
1.875e-06
2.50531e-23
1.13353e-21
1.875e-06
-1.13548e-22
9.59591e-22
1.875e-06
4.00015e-22
9.94755e-22
1.875e-06
-3.10683e-23
9.59439e-22
1.875e-06
9.3979e-23
8.80675e-22
1.875e-06
8.31482e-23
8.19848e-22
1.875e-06
-9.09389e-23
6.15822e-22
1.875e-06
-1.26047e-23
3.94142e-22
1.875e-06
-1.16563e-22
2.75013e-22
1.875e-06
-2.11215e-22
3.08794e-22
1.875e-06
-5.38007e-23
3.12121e-22
1.875e-06
-4.55669e-23
2.76294e-22
1.875e-06
-1.13712e-22
3.57162e-22
1.875e-06
2.04597e-23
4.74638e-22
1.875e-06
1.23071e-22
2.20645e-22
1.875e-06
1.78261e-22
2.57379e-22
1.875e-06
6.85552e-23
2.02567e-22
1.875e-06
-8.00543e-23
7.98587e-23
1.875e-06
1.68031e-23
4.5094e-23
1.875e-06
-6.88792e-23
8.64109e-23
1.875e-06
1.68257e-22
2.44277e-23
1.875e-06
-6.84123e-23
3.33672e-23
1.875e-06
-6.60171e-24
-2.24148e-23
1.875e-06
1.08419e-22
-3.80998e-23
1.875e-06
-1.65355e-22
5.02962e-23
1.875e-06
1.10307e-24
-1.56188e-23
1.875e-06
1.0584e-22
3.83176e-23
1.875e-06
-1.11564e-23
-6.53489e-26
1.875e-06
1.37156e-23
-1.33562e-22
1.875e-06
-1.14072e-22
-3.51977e-22
-8.08326e-23
-2.62079e-22
1.875e-06
1.46004e-22
6.8146e-22
1.875e-06
1.16626e-22
9.8202e-22
1.875e-06
-5.86199e-24
9.93508e-22
1.875e-06
-4.14731e-23
1.13082e-21
1.875e-06
-3.50608e-23
1.14891e-21
1.875e-06
2.54708e-23
1.20665e-21
1.875e-06
5.16e-23
1.22046e-21
1.875e-06
-1.03421e-22
1.126e-21
1.875e-06
-2.1827e-22
1.05124e-21
1.875e-06
-1.06064e-22
1.17985e-21
1.875e-06
-2.45113e-23
9.94375e-22
1.875e-06
1.25463e-22
1.08456e-21
1.875e-06
9.11805e-23
9.94296e-22
1.875e-06
2.74178e-23
8.39316e-22
1.875e-06
-5.05408e-23
7.30459e-22
1.875e-06
-2.711e-23
6.62337e-22
1.875e-06
-1.16596e-22
4.14193e-22
1.875e-06
-9.88985e-23
3.22761e-22
1.875e-06
-1.11832e-22
3.99633e-22
1.875e-06
-9.18629e-23
2.42716e-22
1.875e-06
-9.39676e-23
3.15181e-22
1.875e-06
-4.22354e-23
4.0583e-22
1.875e-06
1.77492e-23
3.76978e-22
1.875e-06
3.07295e-23
3.10444e-22
1.875e-06
3.8713e-23
1.88159e-22
1.875e-06
1.21611e-22
2.22229e-22
1.875e-06
7.8784e-23
5.21209e-23
1.875e-06
8.7154e-23
2.29644e-23
1.875e-06
2.53402e-23
4.29274e-23
1.875e-06
1.07571e-23
-1.07227e-23
1.875e-06
3.10596e-23
-1.50276e-23
1.875e-06
-1.04155e-23
-9.89082e-24
1.875e-06
-4.70888e-23
-1.37463e-22
1.875e-06
3.62595e-23
6.95487e-23
1.875e-06
8.09265e-23
9.57679e-23
1.875e-06
1.30637e-22
-8.90349e-23
1.875e-06
1.63091e-23
-8.12056e-23
1.875e-06
2.87699e-23
-1.13231e-22
1.875e-06
-1.00324e-22
-2.44281e-22
-1.41079e-22
-1.41522e-22
1.875e-06
8.66491e-23
5.71868e-22
1.875e-06
1.23417e-22
9.38685e-22
1.875e-06
-3.47575e-24
1.0884e-21
1.875e-06
-1.04585e-23
1.10847e-21
1.875e-06
-1.04052e-23
1.12216e-21
1.875e-06
8.37994e-23
1.15889e-21
1.875e-06
1.45489e-23
1.11639e-21
1.875e-06
-7.50463e-23
1.09407e-21
1.875e-06
-1.85309e-23
1.15215e-21
1.875e-06
-1.39211e-22
1.32756e-21
1.875e-06
-1.16707e-22
1.11324e-21
1.875e-06
-3.49026e-23
9.29002e-22
1.875e-06
-2.22687e-23
9.01439e-22
1.875e-06
-1.47534e-22
8.2062e-22
1.875e-06
-1.21544e-22
7.47534e-22
1.875e-06
-3.88426e-23
7.14948e-22