/*--------------------------------*- C++ -*----------------------------------*\
| =========                 |                                                 |
| \\      /  F ield         | OpenFOAM: The Open Source CFD Toolbox           |
|  \\    /   O peration     | Version:  v2012                                 |
|   \\  /    A nd           | Website:  www.openfoam.com                      |
|    \\/     M anipulation  |                                                 |
\*---------------------------------------------------------------------------*/
FoamFile
{
    version     2.0;
    format      ascii;
    class       volVectorField;
    location    "25";
    object      U;
}
// * * * * * * * * * * * * * * * * * * * * * * * * * * * * * * * * * * * * * //

dimensions      [0 1 -1 0 0 0 0];


internalField   nonuniform List<vector> 
64000
(
(0.003 2.3136e-19 2.19046e-19)
(0.003 3.80712e-19 3.4373e-19)
(0.003 4.07294e-19 4.43634e-19)
(0.003 4.08731e-19 4.93758e-19)
(0.003 5.04769e-19 4.62121e-19)
(0.003 4.95478e-19 3.74817e-19)
(0.003 4.20235e-19 3.24152e-19)
(0.003 2.33088e-19 3.01891e-19)
(0.003 2.69632e-19 4.27941e-19)
(0.003 4.40028e-19 3.65049e-19)
(0.003 4.6408e-19 3.00605e-19)
(0.003 4.15931e-19 4.43855e-19)
(0.003 3.38764e-19 3.59014e-19)
(0.003 3.29084e-19 2.37108e-19)
(0.003 2.93667e-19 2.99391e-19)
(0.003 2.57227e-19 3.2981e-19)
(0.003 1.80355e-19 2.35375e-19)
(0.003 7.50439e-20 1.37956e-19)
(0.003 1.10712e-19 7.49012e-20)
(0.003 1.17343e-19 1.35185e-19)
(0.003 3.86634e-20 1.41022e-19)
(0.003 1.49303e-19 1.50775e-19)
(0.003 2.45846e-19 1.38177e-19)
(0.003 2.82353e-19 9.55965e-20)
(0.003 3.14018e-19 1.52665e-19)
(0.003 1.7746e-19 1.35009e-19)
(0.003 5.56523e-20 1.43415e-19)
(0.003 1.20716e-19 1.6375e-19)
(0.003 1.70883e-19 2.09284e-19)
(0.003 4.08203e-20 2.58561e-19)
(0.003 -6.94253e-20 2.49651e-19)
(0.003 -6.10818e-22 9.53516e-20)
(0.003 1.40139e-19 9.04998e-20)
(0.003 1.02583e-19 9.53855e-20)
(0.003 8.51217e-20 1.23409e-19)
(0.003 1.01489e-19 1.59193e-19)
(0.003 1.30613e-20 3.78274e-20)
(0.003 -1.77608e-19 3.65978e-20)
(0.003 -2.35442e-19 1.34368e-19)
(0.003 -1.92477e-19 1.19708e-19)
(0.003 2.70091e-19 3.38993e-19)
(0.003 3.80975e-19 7.12516e-19)
(0.003 5.60349e-19 9.2727e-19)
(0.003 5.25168e-19 9.32028e-19)
(0.003 4.48608e-19 8.54453e-19)
(0.003 6.07951e-19 8.72134e-19)
(0.003 5.59942e-19 7.92681e-19)
(0.003 5.06165e-19 6.07671e-19)
(0.003 5.04042e-19 7.26907e-19)
(0.003 4.67441e-19 9.70086e-19)
(0.003 4.00635e-19 8.92739e-19)
(0.003 3.49567e-19 8.11588e-19)
(0.003 2.79998e-19 6.8626e-19)
(0.003 1.89349e-19 5.63463e-19)
(0.003 1.62391e-19 5.34228e-19)
(0.003 1.14588e-19 4.74158e-19)
(0.003 3.25014e-19 4.7643e-19)
(0.003 2.75932e-19 4.21943e-19)
(0.003 1.48431e-19 3.01117e-19)
(0.003 4.70436e-20 2.44675e-19)
(0.003 1.68634e-19 2.2834e-19)
(0.003 2.59203e-19 2.79441e-19)
(0.003 2.52786e-19 2.31048e-19)
(0.003 2.97878e-19 2.95321e-19)
(0.003 1.37902e-19 3.43808e-19)
(0.003 1.12789e-19 1.82862e-19)
(0.003 1.72461e-19 9.97027e-20)
(0.003 7.97126e-20 1.73831e-19)
(0.003 -4.08752e-21 3.26896e-19)
(0.003 2.93741e-20 2.90063e-19)
(0.003 3.69393e-20 1.4304e-19)
(0.003 9.02637e-20 1.05462e-19)
(0.003 1.42355e-19 2.19957e-19)
(0.003 2.29998e-20 1.76897e-19)
(0.003 -2.4384e-20 2.27546e-19)
(0.003 -1.11567e-19 1.5696e-19)
(0.003 -2.01314e-19 -4.81866e-20)
(0.003 -1.63329e-19 -8.50029e-20)
(0.003 -4.81562e-20 2.78019e-20)
(0.003 -1.0545e-20 4.76382e-20)
(0.003 1.89512e-19 4.5761e-19)
(0.003 2.18e-19 7.96398e-19)
(0.003 3.29081e-19 1.05676e-18)
(0.003 4.5864e-19 1.12958e-18)
(0.003 4.44234e-19 1.02718e-18)
(0.003 4.66619e-19 9.75243e-19)
(0.003 4.71115e-19 9.60531e-19)
(0.003 4.71172e-19 9.08607e-19)
(0.003 4.72786e-19 1.00894e-18)
(0.003 4.08773e-19 1.10103e-18)
(0.003 3.31211e-19 9.67442e-19)
(0.003 2.73347e-19 8.57824e-19)
(0.003 3.3741e-19 6.79126e-19)
(0.003 2.16999e-19 6.28927e-19)
(0.003 1.20858e-19 6.35403e-19)
(0.003 2.99838e-20 5.4262e-19)
(0.003 1.57813e-19 6.05152e-19)
(0.003 2.76539e-19 5.49148e-19)
(0.003 9.24772e-20 3.34486e-19)
(0.003 1.33741e-19 2.24254e-19)
(0.003 2.21397e-19 3.62463e-19)
(0.003 1.95173e-19 3.63801e-19)
(0.003 2.22965e-19 2.50734e-19)
(0.003 1.37167e-19 2.80836e-19)
(0.003 8.05443e-20 2.83403e-19)
(0.003 1.54963e-19 2.50968e-19)
(0.003 1.47555e-19 1.64591e-19)
(0.003 -4.68151e-20 2.11364e-19)
(0.003 -7.18178e-20 2.55406e-19)
(0.003 2.53073e-20 3.10838e-19)
(0.003 7.3159e-20 3.22794e-19)
(0.003 1.38704e-19 2.48441e-19)
(0.003 8.74235e-20 2.00824e-19)
(0.003 -5.57122e-20 1.3299e-19)
(0.003 -1.17808e-19 2.59852e-19)
(0.003 -1.45518e-19 1.74634e-19)
(0.003 -2.0815e-19 -4.22438e-20)
(0.003 -3.92661e-20 -1.40536e-19)
(0.003 1.02887e-19 -9.02811e-20)
(0.003 1.16626e-19 2.41517e-20)
(0.003 3.5344e-19 6.01435e-19)
(0.003 3.07335e-19 9.87071e-19)
(0.003 2.00996e-19 1.13309e-18)
(0.003 2.79822e-19 1.2578e-18)
(0.003 4.06927e-19 1.19636e-18)
(0.003 3.7915e-19 1.17061e-18)
(0.003 3.67056e-19 1.11781e-18)
(0.003 3.1138e-19 9.57239e-19)
(0.003 2.84504e-19 1.00852e-18)
(0.003 3.44762e-19 1.12442e-18)
(0.003 3.47585e-19 1.08716e-18)
(0.003 3.11838e-19 1.07515e-18)
(0.003 2.85297e-19 8.9414e-19)
(0.003 1.89265e-19 6.60028e-19)
(0.003 3.04704e-19 6.61252e-19)
(0.003 4.48925e-19 5.73021e-19)
(0.003 1.68967e-19 5.85818e-19)
(0.003 -2.66439e-21 5.79837e-19)
(0.003 6.36715e-20 3.59507e-19)
(0.003 1.3185e-19 2.87481e-19)
(0.003 5.62689e-20 3.78018e-19)
(0.003 1.84861e-19 4.09855e-19)
(0.003 2.57842e-19 3.52599e-19)
(0.003 1.48745e-19 3.49042e-19)
(0.003 1.30284e-19 3.15383e-19)
(0.003 1.15779e-19 2.48313e-19)
(0.003 2.97613e-20 1.47604e-19)
(0.003 -2.12189e-20 1.09458e-19)
(0.003 3.62906e-20 2.174e-19)
(0.003 -5.61638e-20 3.42938e-19)
(0.003 -6.76649e-20 3.13568e-19)
(0.003 4.36787e-22 2.92535e-19)
(0.003 -1.56037e-19 2.93156e-19)
(0.003 -1.2647e-19 1.98991e-19)
(0.003 -4.55884e-20 1.65671e-19)
(0.003 -1.04771e-19 9.75724e-20)
(0.003 -6.52229e-20 1.22791e-20)
(0.003 8.16148e-20 -5.3697e-20)
(0.003 2.45708e-19 1.62844e-20)
(0.003 2.20237e-19 1.58602e-19)
(0.003 1.56025e-19 6.29217e-19)
(0.003 2.52027e-19 1.10903e-18)
(0.003 1.76036e-19 1.20506e-18)
(0.003 1.5097e-19 1.21359e-18)
(0.003 2.26624e-19 1.34089e-18)
(0.003 2.24094e-19 1.33646e-18)
(0.003 2.26416e-19 1.24422e-18)
(0.003 4.07554e-19 1.00908e-18)
(0.003 4.17116e-19 9.88217e-19)
(0.003 3.37645e-19 1.20067e-18)
(0.003 2.54776e-19 1.20178e-18)
(0.003 2.36824e-19 1.06088e-18)
(0.003 2.63389e-19 9.25354e-19)
(0.003 1.97839e-19 7.84969e-19)
(0.003 3.06848e-19 8.40776e-19)
(0.003 4.80624e-19 8.37056e-19)
(0.003 1.93823e-19 6.47985e-19)
(0.003 -3.41058e-20 4.65616e-19)
(0.003 1.46237e-20 3.93827e-19)
(0.003 6.58761e-20 3.01025e-19)
(0.003 -5.74119e-20 3.13789e-19)
(0.003 6.01002e-20 4.10777e-19)
(0.003 2.81707e-19 4.89455e-19)
(0.003 2.20694e-19 3.69364e-19)
(0.003 1.40067e-19 3.51766e-19)
(0.003 9.73354e-20 3.10504e-19)
(0.003 8.39916e-20 1.99344e-19)
(0.003 5.95067e-20 1.99661e-19)
(0.003 4.28234e-20 2.47692e-19)
(0.003 -5.71793e-21 1.96237e-19)
(0.003 2.79268e-20 1.36675e-19)
(0.003 -2.63607e-20 2.62712e-19)
(0.003 -1.95633e-19 1.80455e-19)
(0.003 -1.41801e-19 1.40348e-19)
(0.003 -2.75695e-20 1.30878e-19)
(0.003 4.49475e-21 5.0188e-20)
(0.003 7.76538e-20 4.74407e-20)
(0.003 4.98689e-20 -2.41618e-20)
(0.003 3.70104e-20 6.29176e-20)
(0.003 5.48439e-20 9.74089e-20)
(0.003 -6.58565e-21 6.69182e-19)
(0.003 1.3082e-19 1.11682e-18)
(0.003 1.34592e-19 1.20331e-18)
(0.003 1.67687e-19 1.29146e-18)
(0.003 1.76624e-19 1.35663e-18)
(0.003 1.81734e-19 1.33247e-18)
(0.003 2.15276e-19 1.28309e-18)
(0.003 4.7649e-19 1.30533e-18)
(0.003 5.02409e-19 1.20151e-18)
(0.003 2.84277e-19 1.11393e-18)
(0.003 2.16479e-19 1.11334e-18)
(0.003 2.61386e-19 1.15407e-18)
(0.003 2.96535e-19 1.06227e-18)
(0.003 3.40726e-19 8.22069e-19)
(0.003 2.63024e-19 9.20808e-19)
(0.003 1.59221e-19 9.19683e-19)
(0.003 7.48387e-20 6.66904e-19)
(0.003 -6.23509e-20 4.80602e-19)
(0.003 -1.08091e-19 4.00246e-19)
(0.003 -7.19224e-21 3.07826e-19)
(0.003 1.25576e-19 2.63692e-19)
(0.003 1.6593e-19 4.31516e-19)
(0.003 2.51606e-19 5.13628e-19)
(0.003 2.8976e-19 3.97917e-19)
(0.003 1.57424e-19 3.07636e-19)
(0.003 1.05954e-19 3.11661e-19)
(0.003 9.61465e-20 3.30565e-19)
(0.003 -5.73556e-21 1.91466e-19)
(0.003 -1.42253e-19 1.80921e-19)
(0.003 -6.96771e-20 3.09111e-19)
(0.003 1.62268e-19 2.86237e-19)
(0.003 1.44908e-19 1.85514e-19)
(0.003 -3.08709e-20 3.87382e-20)
(0.003 -1.61423e-20 1.07752e-19)
(0.003 2.99715e-20 1.37554e-19)
(0.003 1.45917e-19 6.89036e-20)
(0.003 1.60829e-19 3.60296e-20)
(0.003 2.37174e-20 -8.25491e-20)
(0.003 -2.86456e-20 2.11369e-20)
(0.003 1.35099e-20 1.26965e-19)
(0.003 6.85416e-20 8.17822e-19)
(0.003 1.67468e-19 1.23603e-18)
(0.003 1.76653e-19 1.27914e-18)
(0.003 7.59121e-20 1.30554e-18)
(0.003 1.7101e-19 1.40022e-18)
(0.003 1.79235e-19 1.44248e-18)
(0.003 2.47074e-19 1.34687e-18)
(0.003 4.54764e-19 1.31502e-18)
(0.003 4.33834e-19 1.29261e-18)
(0.003 3.47992e-19 1.25357e-18)
(0.003 2.85287e-19 1.20836e-18)
(0.003 2.29989e-19 1.12811e-18)
(0.003 2.32736e-19 1.05235e-18)
(0.003 3.49376e-19 9.2237e-19)
(0.003 2.20685e-19 9.80814e-19)
(0.003 1.41551e-19 8.7328e-19)
(0.003 7.91983e-20 5.86428e-19)
(0.003 5.22852e-20 4.12301e-19)
(0.003 2.6842e-20 2.98595e-19)
(0.003 1.02908e-20 2.6866e-19)
(0.003 2.20826e-19 3.57523e-19)
(0.003 2.29999e-19 5.1753e-19)
(0.003 1.12492e-19 5.39503e-19)
(0.003 1.26319e-19 5.06963e-19)
(0.003 6.87358e-20 3.95267e-19)
(0.003 9.90747e-20 3.50545e-19)
(0.003 5.24344e-20 3.03306e-19)
(0.003 -4.32354e-20 2.08526e-19)
(0.003 -1.19593e-19 1.20665e-19)
(0.003 -5.84639e-20 1.55051e-19)
(0.003 9.28921e-20 2.90967e-19)
(0.003 2.10767e-20 2.47537e-19)
(0.003 1.66853e-20 9.76644e-20)
(0.003 1.85946e-19 7.19992e-20)
(0.003 2.07638e-19 1.17734e-19)
(0.003 2.3979e-19 1.28754e-19)
(0.003 7.23969e-20 -6.4786e-20)
(0.003 -5.44799e-20 -1.90373e-19)
(0.003 -8.02241e-20 5.96788e-20)
(0.003 -3.00614e-20 1.51199e-19)
(0.003 2.09558e-19 7.11179e-19)
(0.003 1.99851e-19 1.16243e-18)
(0.003 1.87805e-19 1.29532e-18)
(0.003 1.57057e-19 1.4086e-18)
(0.003 1.607e-19 1.49995e-18)
(0.003 1.90802e-19 1.42432e-18)
(0.003 3.18345e-19 1.38108e-18)
(0.003 3.01034e-19 1.47415e-18)
(0.003 3.05452e-19 1.4246e-18)
(0.003 4.06538e-19 1.38273e-18)
(0.003 2.66149e-19 1.23681e-18)
(0.003 1.5368e-19 1.08704e-18)
(0.003 1.44035e-19 9.68835e-19)
(0.003 3.09281e-19 8.81515e-19)
(0.003 2.29304e-19 9.52906e-19)
(0.003 1.40288e-19 8.98179e-19)
(0.003 7.52075e-20 6.27331e-19)
(0.003 1.50419e-19 4.06855e-19)
(0.003 3.14807e-19 2.79417e-19)
(0.003 2.7189e-19 2.69131e-19)
(0.003 1.80381e-19 3.82823e-19)
(0.003 4.2858e-20 5.89302e-19)
(0.003 -5.84494e-20 6.02046e-19)
(0.003 3.71205e-20 5.13142e-19)
(0.003 1.70289e-21 4.35687e-19)
(0.003 3.00391e-20 3.75836e-19)
(0.003 1.00446e-19 2.54242e-19)
(0.003 4.17778e-20 1.39589e-19)
(0.003 -5.53005e-20 1.01307e-19)
(0.003 -1.44549e-20 2.04116e-19)
(0.003 -8.17542e-20 3.65162e-19)
(0.003 -6.73522e-20 2.80562e-19)
(0.003 5.638e-20 1.97965e-19)
(0.003 1.14936e-19 2.20817e-19)
(0.003 2.78794e-19 1.59723e-19)
(0.003 1.09695e-19 -9.41382e-20)
(0.003 -6.35347e-20 -4.06671e-19)
(0.003 -5.39643e-20 -1.86506e-19)
(0.003 -1.11032e-19 1.25484e-19)
(0.003 -4.96629e-20 1.14603e-19)
(0.003 -8.91128e-20 7.08219e-19)
(0.003 4.70951e-21 1.33626e-18)
(0.003 1.55372e-19 1.43589e-18)
(0.003 2.00665e-19 1.45815e-18)
(0.003 1.74508e-19 1.50975e-18)
(0.003 3.24098e-19 1.52428e-18)
(0.003 3.64101e-19 1.53267e-18)
(0.003 1.41307e-19 1.47838e-18)
(0.003 1.59063e-19 1.42357e-18)
(0.003 2.47798e-19 1.41924e-18)
(0.003 1.97332e-19 1.27179e-18)
(0.003 9.23091e-20 1.1266e-18)
(0.003 7.98127e-20 9.25096e-19)
(0.003 2.57534e-19 9.17113e-19)
(0.003 2.7762e-19 9.31688e-19)
(0.003 9.81954e-20 8.45048e-19)
(0.003 1.5417e-19 6.75355e-19)
(0.003 1.69281e-19 4.12595e-19)
(0.003 1.13102e-19 3.94341e-19)
(0.003 1.63032e-19 4.16614e-19)
(0.003 1.39973e-19 3.81776e-19)
(0.003 8.10556e-20 6.12219e-19)
(0.003 1.14097e-19 6.69956e-19)
(0.003 1.31246e-19 6.25899e-19)
(0.003 9.14125e-20 3.89707e-19)
(0.003 -1.39471e-20 2.72742e-19)
(0.003 -3.82132e-20 2.8247e-19)
(0.003 4.51894e-20 1.75337e-19)
(0.003 9.57574e-21 2.76995e-20)
(0.003 -6.59149e-20 1.38686e-19)
(0.003 -1.59886e-19 3.22032e-19)
(0.003 -1.35665e-19 3.45451e-19)
(0.003 4.19432e-20 2.38982e-19)
(0.003 8.78166e-20 1.71953e-19)
(0.003 7.81549e-20 -1.08405e-20)
(0.003 1.43993e-20 -3.1427e-19)
(0.003 3.72521e-20 -2.99514e-19)
(0.003 -5.4738e-21 -3.03075e-19)
(0.003 9.5057e-21 4.05474e-20)
(0.003 3.01173e-20 1.99712e-19)
(0.003 -2.20191e-19 8.26042e-19)
(0.003 5.24822e-21 1.25886e-18)
(0.003 2.22253e-19 1.49193e-18)
(0.003 3.21998e-19 1.60438e-18)
(0.003 1.91844e-19 1.63618e-18)
(0.003 2.1881e-19 1.61561e-18)
(0.003 3.23707e-19 1.6188e-18)
(0.003 1.92108e-19 1.5045e-18)
(0.003 1.61153e-19 1.31464e-18)
(0.003 1.61721e-19 1.30522e-18)
(0.003 2.44546e-19 1.24919e-18)
(0.003 9.31041e-20 1.12332e-18)
(0.003 5.82554e-20 1.02818e-18)
(0.003 1.44342e-19 1.0411e-18)
(0.003 2.53225e-19 9.37625e-19)
(0.003 2.0677e-19 7.33714e-19)
(0.003 1.95895e-19 6.24244e-19)
(0.003 1.11401e-19 5.20889e-19)
(0.003 -1.47038e-19 3.21966e-19)
(0.003 -5.91869e-20 3.13479e-19)
(0.003 1.28436e-19 4.80664e-19)
(0.003 2.32445e-19 6.56606e-19)
(0.003 2.05559e-19 7.62272e-19)
(0.003 1.21892e-19 6.70709e-19)
(0.003 1.75332e-19 4.26888e-19)
(0.003 3.66973e-20 3.13706e-19)
(0.003 -1.74047e-19 2.32983e-19)
(0.003 -1.03395e-19 1.32011e-19)
(0.003 1.62621e-20 4.36502e-20)
(0.003 -2.80345e-20 1.34065e-19)
(0.003 -4.15475e-20 2.57756e-19)
(0.003 -1.0148e-19 3.35452e-19)
(0.003 -2.25754e-20 3.05528e-19)
(0.003 -1.03388e-20 1.90802e-19)
(0.003 -6.99129e-20 7.0755e-21)
(0.003 -4.26163e-21 -3.18992e-19)
(0.003 4.22421e-20 -4.11232e-19)
(0.003 1.73512e-19 -3.39362e-19)
(0.003 3.07314e-19 -1.26197e-19)
(0.003 1.69508e-19 1.39507e-20)
(0.003 1.36326e-19 8.66201e-19)
(0.003 2.3668e-19 1.43394e-18)
(0.003 2.59391e-19 1.65525e-18)
(0.003 2.27615e-19 1.66671e-18)
(0.003 1.86225e-19 1.62476e-18)
(0.003 2.54141e-19 1.59134e-18)
(0.003 1.89012e-19 1.60607e-18)
(0.003 1.69479e-19 1.50606e-18)
(0.003 1.24465e-19 1.41844e-18)
(0.003 1.98423e-19 1.27771e-18)
(0.003 3.13618e-19 1.19363e-18)
(0.003 2.02959e-19 1.14671e-18)
(0.003 1.5072e-19 1.01856e-18)
(0.003 1.14334e-19 9.66824e-19)
(0.003 1.19178e-19 9.92882e-19)
(0.003 2.19237e-19 9.09939e-19)
(0.003 1.29201e-19 6.09044e-19)
(0.003 4.58545e-21 3.64874e-19)
(0.003 -2.86263e-21 2.63977e-19)
(0.003 1.53848e-20 4.05231e-19)
(0.003 1.53261e-19 5.26141e-19)
(0.003 2.50496e-19 6.77946e-19)
(0.003 1.03658e-19 7.9138e-19)
(0.003 5.86397e-20 7.79216e-19)
(0.003 1.08173e-19 4.3367e-19)
(0.003 -7.19339e-20 1.67371e-19)
(0.003 -1.74661e-19 1.49363e-19)
(0.003 -1.0596e-19 1.52982e-19)
(0.003 6.09557e-21 4.24604e-20)
(0.003 -3.99963e-20 1.72427e-19)
(0.003 -1.21626e-19 3.45646e-19)
(0.003 -6.3068e-20 2.75892e-19)
(0.003 7.98662e-21 2.27935e-19)
(0.003 -5.54856e-20 1.79737e-19)
(0.003 -2.08261e-19 4.57111e-20)
(0.003 -1.64659e-19 -2.69649e-19)
(0.003 2.21164e-20 -4.05732e-19)
(0.003 2.83874e-19 -2.71864e-19)
(0.003 3.63969e-19 -1.88327e-19)
(0.003 2.55483e-19 -1.50159e-19)
(0.003 2.74613e-19 9.69204e-19)
(0.003 2.79775e-19 1.51906e-18)
(0.003 2.138e-19 1.63637e-18)
(0.003 1.57323e-19 1.59592e-18)
(0.003 2.23167e-19 1.6073e-18)
(0.003 1.89796e-19 1.66983e-18)
(0.003 1.3329e-19 1.58641e-18)
(0.003 2.68802e-19 1.49054e-18)
(0.003 2.11095e-19 1.30266e-18)
(0.003 9.53116e-20 1.34962e-18)
(0.003 1.59524e-19 1.31217e-18)
(0.003 2.00276e-19 1.17099e-18)
(0.003 2.30441e-19 1.07932e-18)
(0.003 1.82159e-19 9.63855e-19)
(0.003 5.89861e-20 9.80205e-19)
(0.003 -1.29065e-20 8.93405e-19)
(0.003 -8.35364e-21 6.95345e-19)
(0.003 8.63359e-20 3.94652e-19)
(0.003 2.72419e-19 3.37397e-19)
(0.003 2.02654e-19 4.22817e-19)
(0.003 9.09771e-20 5.2321e-19)
(0.003 -3.3723e-20 6.49203e-19)
(0.003 -7.71017e-20 7.02192e-19)
(0.003 -3.94906e-20 7.31513e-19)
(0.003 -8.10632e-20 5.23315e-19)
(0.003 -1.15772e-19 2.23385e-19)
(0.003 -5.88724e-20 1.73267e-19)
(0.003 -4.4137e-20 1.3584e-19)
(0.003 -6.53345e-20 -2.31392e-20)
(0.003 -1.37537e-19 1.33391e-19)
(0.003 -3.73827e-20 3.13661e-19)
(0.003 -9.09456e-21 3.07036e-19)
(0.003 -1.5135e-19 2.46981e-19)
(0.003 -6.36537e-20 1.58064e-19)
(0.003 -8.53532e-20 1.50757e-19)
(0.003 -1.05068e-19 -9.36813e-20)
(0.003 2.62497e-20 -5.30175e-19)
(0.003 2.41491e-19 -3.42117e-19)
(0.003 2.73212e-19 -2.38871e-19)
(0.003 2.0569e-19 -2.78128e-19)
(0.003 2.77393e-19 1.01233e-18)
(0.003 2.99281e-19 1.55606e-18)
(0.003 1.64155e-19 1.61735e-18)
(0.003 1.85709e-19 1.64819e-18)
(0.003 9.77378e-20 1.67405e-18)
(0.003 -3.25244e-20 1.63796e-18)
(0.003 1.41013e-19 1.57587e-18)
(0.003 1.76039e-19 1.54499e-18)
(0.003 1.75366e-19 1.45003e-18)
(0.003 1.44604e-19 1.35866e-18)
(0.003 2.15839e-20 1.25473e-18)
(0.003 8.80489e-20 1.16379e-18)
(0.003 2.40544e-19 1.10165e-18)
(0.003 2.74702e-19 1.0221e-18)
(0.003 1.20246e-19 9.7254e-19)
(0.003 -3.65668e-20 8.36536e-19)
(0.003 -2.18138e-21 6.30121e-19)
(0.003 8.11344e-20 4.24001e-19)
(0.003 1.84314e-19 4.74313e-19)
(0.003 1.96622e-19 5.39803e-19)
(0.003 1.19803e-19 5.31011e-19)
(0.003 2.07575e-20 6.15293e-19)
(0.003 3.76323e-20 6.81869e-19)
(0.003 -1.20306e-20 6.46175e-19)
(0.003 -1.87642e-19 4.30359e-19)
(0.003 -9.19015e-20 1.50014e-19)
(0.003 -4.43818e-20 7.18005e-20)
(0.003 -5.86837e-20 1.32228e-19)
(0.003 -1.73398e-19 3.63085e-20)
(0.003 -2.35646e-19 6.64197e-20)
(0.003 -5.1646e-20 2.84005e-19)
(0.003 1.41879e-20 2.94612e-19)
(0.003 -9.25678e-20 1.36285e-19)
(0.003 -4.45657e-20 2.14546e-19)
(0.003 -3.35092e-20 3.1092e-19)
(0.003 -3.08704e-20 -8.27639e-20)
(0.003 1.21941e-19 -5.43857e-19)
(0.003 2.19884e-19 -3.30428e-19)
(0.003 1.54851e-19 -2.78338e-19)
(0.003 7.92796e-20 -3.82478e-19)
(0.003 1.09316e-20 1.09068e-18)
(0.003 1.59807e-19 1.62865e-18)
(0.003 1.77904e-19 1.61551e-18)
(0.003 3.04603e-20 1.63479e-18)
(0.003 -1.23404e-19 1.61954e-18)
(0.003 -6.13386e-20 1.6271e-18)
(0.003 1.82798e-19 1.5751e-18)
(0.003 2.4993e-19 1.48686e-18)
(0.003 1.3025e-19 1.39878e-18)
(0.003 1.15298e-21 1.42951e-18)
(0.003 -4.64688e-20 1.30166e-18)
(0.003 1.81561e-19 1.13628e-18)
(0.003 2.4369e-19 1.18255e-18)
(0.003 2.03745e-19 1.11572e-18)
(0.003 8.49962e-20 1.04447e-18)
(0.003 3.14699e-20 8.35014e-19)
(0.003 1.62167e-20 6.68358e-19)
(0.003 1.93492e-19 4.92626e-19)
(0.003 1.97801e-19 4.40082e-19)
(0.003 1.07561e-19 4.62093e-19)
(0.003 2.03686e-19 5.47893e-19)
(0.003 7.90854e-20 6.30766e-19)
(0.003 -6.23254e-20 6.31981e-19)
(0.003 -4.66011e-20 6.21304e-19)
(0.003 -1.24985e-19 4.15128e-19)
(0.003 -3.62878e-20 4.4565e-20)
(0.003 2.94902e-20 -7.06575e-20)
(0.003 8.01343e-21 1.09943e-19)
(0.003 -1.07353e-19 -1.58466e-20)
(0.003 -1.94606e-19 2.36175e-20)
(0.003 -2.6429e-19 3.86924e-19)
(0.003 -1.44767e-19 2.95611e-19)
(0.003 -4.59393e-21 1.58103e-19)
(0.003 -1.04288e-19 2.1828e-19)
(0.003 -9.15231e-20 2.48766e-19)
(0.003 3.88659e-20 -8.19547e-20)
(0.003 1.49761e-19 -5.86075e-19)
(0.003 1.3313e-19 -3.69816e-19)
(0.003 5.04252e-20 -4.01933e-19)
(0.003 -2.95503e-20 -5.0008e-19)
(0.003 -2.17446e-19 1.0912e-18)
(0.003 -2.11231e-19 1.5729e-18)
(0.003 9.41711e-21 1.71264e-18)
(0.003 1.59879e-21 1.59568e-18)
(0.003 3.1267e-20 1.54069e-18)
(0.003 8.49232e-21 1.59296e-18)
(0.003 1.30499e-19 1.65384e-18)
(0.003 2.78557e-19 1.57512e-18)
(0.003 8.6419e-20 1.43326e-18)
(0.003 -1.13133e-19 1.40463e-18)
(0.003 1.14306e-19 1.28429e-18)
(0.003 2.86918e-19 1.19752e-18)
(0.003 1.60008e-19 1.25271e-18)
(0.003 -1.36168e-20 1.15845e-18)
(0.003 1.13636e-22 9.6729e-19)
(0.003 1.77013e-20 8.47412e-19)
(0.003 9.87873e-20 5.81534e-19)
(0.003 3.15733e-19 5.26005e-19)
(0.003 2.13314e-19 5.53231e-19)
(0.003 1.17297e-19 4.63115e-19)
(0.003 2.15805e-19 5.80291e-19)
(0.003 6.1877e-20 6.61816e-19)
(0.003 -1.86209e-19 6.59657e-19)
(0.003 -2.6288e-19 5.57383e-19)
(0.003 -2.16845e-19 3.20538e-19)
(0.003 2.86547e-21 6.14787e-20)
(0.003 2.48509e-19 -1.54125e-19)
(0.003 1.58518e-19 -4.53569e-21)
(0.003 -4.62708e-20 1.08846e-19)
(0.003 -9.54405e-20 1.66849e-19)
(0.003 -1.13767e-19 2.91118e-19)
(0.003 -1.1197e-19 2.47558e-19)
(0.003 -9.05349e-20 1.48562e-19)
(0.003 -9.71294e-20 9.64301e-20)
(0.003 -9.92483e-20 1.86937e-19)
(0.003 -8.47252e-20 -1.76668e-20)
(0.003 2.49319e-20 -4.42651e-19)
(0.003 9.29258e-20 -3.62568e-19)
(0.003 -6.52508e-20 -4.5595e-19)
(0.003 -1.67657e-19 -5.84857e-19)
(0.003 -8.80461e-20 1.01596e-18)
(0.003 -2.85194e-19 1.58423e-18)
(0.003 -2.09947e-19 1.74845e-18)
(0.003 -1.21531e-19 1.63223e-18)
(0.003 3.9487e-20 1.617e-18)
(0.003 5.96704e-20 1.64046e-18)
(0.003 1.11205e-20 1.63973e-18)
(0.003 7.46826e-20 1.58939e-18)
(0.003 1.81279e-20 1.4333e-18)
(0.003 3.49736e-20 1.27807e-18)
(0.003 1.91183e-19 1.34225e-18)
(0.003 2.39988e-19 1.36002e-18)
(0.003 2.66954e-20 1.2981e-18)
(0.003 -5.00159e-20 1.19516e-18)
(0.003 2.55512e-20 1.04945e-18)
(0.003 7.00711e-20 8.06837e-19)
(0.003 1.34047e-19 5.68806e-19)
(0.003 7.115e-20 5.40024e-19)
(0.003 1.36412e-19 5.58715e-19)
(0.003 2.1216e-19 4.8867e-19)
(0.003 8.12476e-20 5.65713e-19)
(0.003 1.7716e-20 6.99233e-19)
(0.003 -1.55253e-19 6.32789e-19)
(0.003 -3.55659e-19 4.04701e-19)
(0.003 -2.11043e-19 1.37958e-19)
(0.003 -5.84644e-20 1.75947e-19)
(0.003 1.08882e-19 2.80796e-21)
(0.003 1.02318e-19 -1.28471e-19)
(0.003 9.60602e-20 1.39432e-19)
(0.003 9.97302e-20 2.07843e-19)
(0.003 2.84446e-20 2.32645e-19)
(0.003 1.37348e-20 2.05936e-19)
(0.003 -9.56594e-20 1.34106e-19)
(0.003 -1.29895e-19 1.46513e-19)
(0.003 -1.08413e-19 1.65796e-19)
(0.003 -1.38328e-19 -4.56018e-20)
(0.003 -1.922e-19 -3.34447e-19)
(0.003 -2.08627e-19 -3.12594e-19)
(0.003 -1.88804e-19 -4.21299e-19)
(0.003 -3.3759e-20 -5.32767e-19)
(0.003 -1.611e-19 9.27121e-19)
(0.003 -1.45707e-19 1.49314e-18)
(0.003 -2.05925e-20 1.69199e-18)
(0.003 -1.11567e-19 1.65891e-18)
(0.003 -1.55159e-19 1.68624e-18)
(0.003 -2.03732e-20 1.66832e-18)
(0.003 -2.44583e-20 1.68981e-18)
(0.003 -4.78397e-21 1.6761e-18)
(0.003 8.91808e-20 1.48531e-18)
(0.003 1.70924e-19 1.34018e-18)
(0.003 1.22751e-19 1.37336e-18)
(0.003 1.19178e-19 1.39711e-18)
(0.003 3.85417e-20 1.2963e-18)
(0.003 -6.39833e-20 1.22459e-18)
(0.003 -1.09477e-19 9.95365e-19)
(0.003 9.50083e-20 7.19741e-19)
(0.003 1.72026e-19 5.3936e-19)
(0.003 -3.67752e-20 6.11913e-19)
(0.003 5.72975e-20 6.89323e-19)
(0.003 1.74817e-19 5.90264e-19)
(0.003 7.74116e-20 6.28161e-19)
(0.003 -7.60511e-21 5.48106e-19)
(0.003 -1.69408e-19 4.30148e-19)
(0.003 -2.83578e-19 2.51575e-19)
(0.003 -1.88502e-19 1.26794e-19)
(0.003 -7.76078e-20 2.25105e-19)
(0.003 -1.14152e-19 1.33358e-19)
(0.003 -9.28301e-20 1.51415e-19)
(0.003 7.21571e-20 1.40944e-19)
(0.003 1.70533e-19 9.67994e-20)
(0.003 1.0223e-19 1.37417e-19)
(0.003 -1.16222e-20 1.67766e-19)
(0.003 -1.21103e-19 1.37665e-19)
(0.003 -1.80368e-19 1.80194e-19)
(0.003 -1.25385e-19 9.84757e-20)
(0.003 -5.59707e-20 -1.07927e-19)
(0.003 -1.13334e-19 -2.97009e-19)
(0.003 -2.23064e-19 -3.00197e-19)
(0.003 -1.66072e-19 -5.38412e-19)
(0.003 -1.31111e-20 -6.21608e-19)
(0.003 -1.94027e-19 8.80989e-19)
(0.003 -2.1134e-19 1.51856e-18)
(0.003 -1.5361e-19 1.81872e-18)
(0.003 5.2011e-21 1.72776e-18)
(0.003 3.63716e-20 1.61931e-18)
(0.003 -2.54325e-20 1.65788e-18)
(0.003 -1.37855e-19 1.70087e-18)
(0.003 -2.0378e-19 1.65184e-18)
(0.003 4.23376e-20 1.55848e-18)
(0.003 1.68787e-19 1.41077e-18)
(0.003 9.03487e-20 1.36877e-18)
(0.003 9.81195e-21 1.37745e-18)
(0.003 5.0447e-20 1.26623e-18)
(0.003 3.88589e-21 1.1993e-18)
(0.003 1.32398e-21 1.01584e-18)
(0.003 6.25727e-20 8.61918e-19)
(0.003 1.35208e-19 6.49462e-19)
(0.003 2.29532e-19 4.7533e-19)
(0.003 2.64052e-19 5.43076e-19)
(0.003 6.54456e-20 5.16966e-19)
(0.003 -1.23571e-19 6.1979e-19)
(0.003 -1.85545e-19 6.80939e-19)
(0.003 -1.32618e-19 4.28094e-19)
(0.003 -7.80526e-20 2.60473e-19)
(0.003 -1.27405e-19 1.52196e-19)
(0.003 -1.43398e-19 2.26743e-19)
(0.003 -8.48271e-20 2.7659e-19)
(0.003 -1.09119e-19 1.47972e-19)
(0.003 -3.73996e-20 1.37095e-19)
(0.003 4.53189e-20 1.36834e-19)
(0.003 1.45941e-19 1.10915e-19)
(0.003 -5.91981e-20 8.19978e-20)
(0.003 -1.10482e-19 3.90766e-20)
(0.003 -3.89946e-20 1.23431e-19)
(0.003 -7.13013e-20 1.03318e-19)
(0.003 -1.02055e-19 -3.92756e-20)
(0.003 -1.71657e-19 -2.09284e-19)
(0.003 -1.52461e-19 -3.09554e-19)
(0.003 4.55663e-20 -4.42286e-19)
(0.003 1.35622e-19 -5.16199e-19)
(0.003 -1.15991e-19 8.57208e-19)
(0.003 -2.23802e-19 1.46232e-18)
(0.003 -2.11112e-19 1.67567e-18)
(0.003 6.39964e-20 1.73221e-18)
(0.003 1.36113e-19 1.69774e-18)
(0.003 -1.16986e-19 1.66815e-18)
(0.003 -2.82317e-19 1.6737e-18)
(0.003 -1.60369e-19 1.67742e-18)
(0.003 6.03438e-20 1.60998e-18)
(0.003 1.29588e-19 1.49563e-18)
(0.003 2.67884e-20 1.36694e-18)
(0.003 3.0348e-20 1.339e-18)
(0.003 -4.88494e-21 1.27698e-18)
(0.003 -3.90149e-21 1.22281e-18)
(0.003 1.66423e-19 1.01188e-18)
(0.003 6.71471e-20 8.93538e-19)
(0.003 5.38034e-22 7.88911e-19)
(0.003 1.35735e-19 6.27595e-19)
(0.003 2.25395e-19 5.79158e-19)
(0.003 1.87698e-20 4.22277e-19)
(0.003 -1.5949e-19 5.21892e-19)
(0.003 -1.64485e-19 5.44741e-19)
(0.003 -4.24051e-20 4.60235e-19)
(0.003 -6.41281e-20 3.15469e-19)
(0.003 -2.81014e-20 2.02148e-19)
(0.003 -1.24508e-19 2.33076e-19)
(0.003 1.53488e-20 2.56269e-19)
(0.003 3.9841e-20 1.30544e-19)
(0.003 -5.11235e-20 7.89281e-20)
(0.003 2.06652e-20 8.72318e-20)
(0.003 7.06719e-20 1.53482e-19)
(0.003 -8.51508e-21 9.05141e-22)
(0.003 2.83206e-20 -9.51911e-21)
(0.003 2.12035e-20 1.61807e-19)
(0.003 -5.94466e-21 1.0221e-19)
(0.003 -1.26373e-19 6.76333e-20)
(0.003 -1.57993e-19 -3.62715e-21)
(0.003 -1.4817e-19 -2.1454e-19)
(0.003 2.96835e-20 -2.48695e-19)
(0.003 1.27123e-19 -2.99724e-19)
(0.003 3.83057e-20 9.13432e-19)
(0.003 4.87429e-20 1.46028e-18)
(0.003 3.06874e-20 1.61964e-18)
(0.003 -4.7012e-20 1.69855e-18)
(0.003 -2.31372e-20 1.73145e-18)
(0.003 -1.37689e-19 1.6088e-18)
(0.003 -2.93525e-19 1.5557e-18)
(0.003 -2.62974e-19 1.65378e-18)
(0.003 -1.02981e-19 1.67716e-18)
(0.003 1.2642e-19 1.55882e-18)
(0.003 2.0312e-19 1.35902e-18)
(0.003 8.78582e-20 1.38296e-18)
(0.003 2.25483e-20 1.2171e-18)
(0.003 5.95786e-20 1.18869e-18)
(0.003 1.30924e-19 1.14833e-18)
(0.003 4.40077e-21 9.54104e-19)
(0.003 -1.06309e-19 6.79921e-19)
(0.003 -2.19032e-19 4.75816e-19)
(0.003 -1.68018e-19 6.11136e-19)
(0.003 -1.64126e-20 4.96313e-19)
(0.003 -5.23488e-20 4.79588e-19)
(0.003 -5.86749e-20 5.66026e-19)
(0.003 -1.84536e-20 5.84082e-19)
(0.003 6.25495e-20 3.03995e-19)
(0.003 1.42587e-19 1.30827e-19)
(0.003 2.32305e-20 1.73943e-19)
(0.003 4.95485e-20 2.99484e-19)
(0.003 1.29556e-19 1.84518e-19)
(0.003 9.85989e-20 8.66455e-20)
(0.003 -4.19012e-20 6.05617e-20)
(0.003 -1.09279e-19 1.69552e-19)
(0.003 -3.18459e-20 6.44489e-20)
(0.003 4.66194e-20 -2.89799e-21)
(0.003 -2.55036e-20 8.86605e-20)
(0.003 3.03035e-22 7.01098e-20)
(0.003 3.98953e-20 6.55433e-20)
(0.003 -1.59884e-20 5.28484e-20)
(0.003 -9.07428e-20 -1.74923e-19)
(0.003 -1.05191e-19 -3.43341e-19)
(0.003 -9.27269e-20 -3.23864e-19)
(0.003 2.01844e-19 8.52775e-19)
(0.003 1.74426e-19 1.40619e-18)
(0.003 -2.96649e-20 1.6265e-18)
(0.003 -1.19758e-19 1.68144e-18)
(0.003 -7.98817e-20 1.66682e-18)
(0.003 1.91651e-20 1.58627e-18)
(0.003 -5.89338e-20 1.54463e-18)
(0.003 -2.94089e-19 1.52195e-18)
(0.003 -2.94724e-19 1.56334e-18)
(0.003 -5.33031e-20 1.66927e-18)
(0.003 2.05266e-19 1.62903e-18)
(0.003 3.4689e-20 1.45977e-18)
(0.003 7.8827e-20 1.28827e-18)
(0.003 2.05405e-19 1.17556e-18)
(0.003 5.76724e-20 1.141e-18)
(0.003 -7.98082e-20 8.84575e-19)
(0.003 -1.17616e-19 6.53159e-19)
(0.003 -1.81452e-19 4.8999e-19)
(0.003 -2.80186e-19 5.74701e-19)
(0.003 -1.32285e-19 4.84181e-19)
(0.003 -1.13155e-19 4.59323e-19)
(0.003 -1.85916e-19 4.82236e-19)
(0.003 -3.6136e-20 5.15423e-19)
(0.003 1.37195e-19 4.31365e-19)
(0.003 2.1462e-19 2.97487e-19)
(0.003 1.80958e-19 1.81414e-19)
(0.003 1.33937e-21 2.01874e-19)
(0.003 1.19819e-19 1.97873e-19)
(0.003 1.01665e-19 1.04041e-19)
(0.003 -7.04143e-20 -7.06055e-20)
(0.003 -5.68475e-20 4.21062e-20)
(0.003 -3.53856e-20 1.88359e-20)
(0.003 -1.95045e-20 -3.96902e-20)
(0.003 -4.03145e-20 3.26489e-20)
(0.003 6.41999e-20 1.1703e-19)
(0.003 2.18745e-19 1.25133e-19)
(0.003 4.9824e-20 3.57295e-20)
(0.003 -1.20727e-20 -1.49245e-19)
(0.003 -1.53362e-19 -2.6084e-19)
(0.003 -2.52705e-19 -1.18661e-19)
(0.003 2.29641e-19 8.6113e-19)
(0.003 2.50604e-19 1.4207e-18)
(0.003 -1.50123e-20 1.61499e-18)
(0.003 -4.68849e-20 1.62301e-18)
(0.003 -4.15271e-20 1.62062e-18)
(0.003 6.79128e-20 1.55247e-18)
(0.003 5.09222e-20 1.51868e-18)
(0.003 -1.25251e-19 1.46937e-18)
(0.003 -1.98111e-19 1.49294e-18)
(0.003 -2.07499e-19 1.68168e-18)
(0.003 -1.28465e-19 1.66956e-18)
(0.003 1.44331e-20 1.47078e-18)
(0.003 6.03591e-20 1.30849e-18)
(0.003 -6.17011e-20 1.28364e-18)
(0.003 -1.1166e-19 1.11983e-18)
(0.003 -8.31822e-20 9.09875e-19)
(0.003 -1.67766e-19 6.8227e-19)
(0.003 -2.23568e-19 4.94736e-19)
(0.003 -3.00833e-19 5.30555e-19)
(0.003 -1.84774e-19 5.03471e-19)
(0.003 -1.15335e-19 4.17521e-19)
(0.003 -5.16442e-20 4.36192e-19)
(0.003 1.14775e-19 5.47271e-19)
(0.003 1.49382e-19 4.19795e-19)
(0.003 1.14649e-19 2.40913e-19)
(0.003 1.82488e-19 2.40158e-19)
(0.003 6.07786e-20 2.14967e-19)
(0.003 4.86461e-20 2.03245e-19)
(0.003 5.42865e-20 1.32202e-19)
(0.003 9.53677e-20 -1.02445e-19)
(0.003 1.32346e-19 -1.75211e-19)
(0.003 1.03276e-19 -8.93579e-20)
(0.003 -1.26002e-20 -3.13492e-20)
(0.003 3.97355e-20 3.01972e-20)
(0.003 1.10877e-19 2.04984e-19)
(0.003 1.3045e-19 1.49774e-19)
(0.003 9.87941e-20 -1.13726e-19)
(0.003 2.63613e-21 -2.31392e-19)
(0.003 -2.4006e-20 -1.50187e-19)
(0.003 -4.61071e-20 3.98319e-20)
(0.003 -8.71793e-20 8.90402e-19)
(0.003 -3.55453e-20 1.46262e-18)
(0.003 3.97528e-20 1.55489e-18)
(0.003 -2.01169e-20 1.56399e-18)
(0.003 -2.25276e-20 1.56657e-18)
(0.003 8.33318e-20 1.63055e-18)
(0.003 8.7819e-20 1.56131e-18)
(0.003 9.27426e-20 1.38885e-18)
(0.003 -6.86728e-20 1.40728e-18)
(0.003 -2.03818e-19 1.57258e-18)
(0.003 -2.17968e-19 1.60884e-18)
(0.003 -1.06653e-19 1.54771e-18)
(0.003 -2.06971e-19 1.42419e-18)
(0.003 -2.27514e-19 1.14557e-18)
(0.003 -1.29432e-19 9.44752e-19)
(0.003 -1.62334e-19 8.80521e-19)
(0.003 -2.16487e-19 7.68e-19)
(0.003 -1.17888e-19 5.2257e-19)
(0.003 -1.80625e-19 4.4019e-19)
(0.003 -2.21225e-19 4.85517e-19)
(0.003 -1.28103e-19 4.47211e-19)
(0.003 1.37816e-20 4.84788e-19)
(0.003 5.3715e-20 5.83378e-19)