/*--------------------------------*- C++ -*----------------------------------*\
| =========                 |                                                 |
| \\      /  F ield         | OpenFOAM: The Open Source CFD Toolbox           |
|  \\    /   O peration     | Version:  v2012                                 |
|   \\  /    A nd           | Website:  www.openfoam.com                      |
|    \\/     M anipulation  |                                                 |
\*---------------------------------------------------------------------------*/
FoamFile
{
    version     2.0;
    format      ascii;
    class       volScalarField;
    location    "80/rightSolid";
    object      T;
}
// * * * * * * * * * * * * * * * * * * * * * * * * * * * * * * * * * * * * * //

dimensions      [0 0 0 1 0 0 0];


internalField   nonuniform List<scalar> 
130
(
536.17662
538.29471
540.40578
542.37837
544.13719
545.65716
546.94906
548.00623
548.82285
549.43699
549.86715
550.1153
550.16115
533.91279
536.60083
539.19913
541.5659
543.61313
545.32935
546.75663
547.90465
548.78224
549.43388
549.9026
550.20657
550.33713
529.21035
533.21735
536.87429
540.02622
542.61746
544.7118
546.38352
547.69467
548.68304
549.39106
549.88617
550.22388
550.3692
521.91166
528.45629
533.84559
538.11526
541.42111
543.9685
545.93674
547.44143
548.55463
549.3339
549.8565
550.18263
550.33315
513.04836
523.80928
531.27553
536.63094
540.54544
543.46693
545.65524
547.2802
548.4515
549.26548
549.80163
550.12902
550.28116
513.04939
523.80968
531.27563
536.63095
540.54533
543.46698
545.65533
547.28031
548.45163
549.26561
549.80178
550.12918
550.2813
521.91174
528.45672
533.84596
538.11555
541.42111
543.9685
545.93682
547.44154
548.55481
549.33412
549.85681
550.18284
550.33327
529.21135
533.21819
536.87485
540.02654
542.61755
544.71175
546.38357
547.69472
548.68324
549.39143
549.88618
550.22382
550.36914
533.91455
536.60216
539.20008
541.56646
543.61333
545.32935
546.75658
547.90463
548.7823
549.43393
549.90245
550.20659
550.33731
536.1788
538.29583
540.40683
542.37935
544.13773
545.65734
546.94901
548.00614
548.82275
549.43682
549.86695
550.11529
550.16134
)
;

boundaryField
{
    maxX
    {
        type            zeroGradient;
    }
    minZ
    {
        type            zeroGradient;
    }
    maxZ
    {
        type            zeroGradient;
    }
    rightSolid_to_bottomWater
    {
        type            compressible::turbulentTemperatureCoupledBaffleMixed;
        refValue        nonuniform List<scalar> 
130
(
1013.1403
1013.4326
1016.3654
1018.0699
1017.85
1016.6312
1017.9942
1021.0374
1021.3014
1023.1494
1024.8653
1026.5988
1009.6924
1014.3384
1015.9596
1017.8105
1022.0659
1023.0744
1020.3665
1021.8415
1024.2394
1024.1923
1024.3754
1026.8958
1030.9709
1030.9115
1012.2722
1015.3677
1017.6609
1023.6557
1023.1275
1023.4618
1023.5326
1026.078
1027.7826
1025.394
1023.8321
1031.9389
1028.9699
1003.0212
1011.9211
1015.3746
1020.1585
1020.2865
1018.7107
1020.7411
1025.2284
1029.1837
1028.5603
1027.2893
1027.2094
1026.0094
983.98835
1008.7597
1012.2935
1016.0537
1015.9629
1019.9126
1023.4277
1026.5067
1026.669
1026.0497
1023.9146
1023.2767
1022.248
984.24242
1008.7749
1012.2879
1016.0645
1015.9401
1019.9375
1023.4388
1026.5218
1026.6772
1026.0574
1023.9197
1023.2894
1022.2544
1002.903
1011.9387
1015.3823
1020.207
1020.2736
1018.7059
1020.7391
1025.2191
1029.1837
1028.5439
1027.3144
1027.2153
1026.0023
1012.2626
1015.3547
1017.6359
1023.644
1023.1227
1023.428
1023.5456
1026.0637
1027.7817
1025.4488
1023.7911
1031.9116
1028.9468
1014.3877
1015.9833
1017.8294
1022.0686
1023.0544
1020.3501
1021.8309
1024.2276
1024.1888
1024.3731
1026.8376
1030.9641
1030.9247
1013.2587
1013.315
1016.3805
1018.1399
1017.8721
1016.6389
1017.982
1021.0261
1021.2878
1023.1231
1024.8322
1026.5922
1009.6807
)
;
        refGradient     uniform 0;
        valueFraction   nonuniform List<scalar> 
130
(
0.0075140686
0.0075140686
0.0075140686
0.0075140686
0.0075140686
0.0075140686
0.0075140686
0.0075140686
0.0075140686
0.0075140686
0.0075140686
0.0075140686
0.0075140686
0.0075140686
0.0075140686
0.0075140686
0.0075140686
0.0075140686
0.0075140686
0.0075140686
0.0075140686
0.0075140686
0.0075140686
0.0075140686
0.0075140686
0.0075140686
0.0075140686
0.0075140686
0.0075140686
0.0075140686
0.0075140686
0.0075140686
0.0075140686
0.0075140686
0.0075140686
0.0075140686
0.0075140686
0.0075140686
0.0075140686
0.0075140686
0.0075140686
0.0075140686
0.0075140686
0.0075140686
0.0075140686
0.0075140686
0.0075140686
0.0075140686
0.0075140686
0.0075140686
0.0075140686
0.0075140686
0.0075140686
0.0075140686
0.0075140686
0.0075140686
0.0075140686
0.0075140686
0.0075140686
0.0075140686
0.0075140686
0.0075140686
0.0075140686
0.0075140686
0.0075140686
0.0075140686
0.0075140686
0.0075140686
0.0075140686
0.0075140686
0.0075140686
0.0075140686
0.0075140686
0.0075140686
0.0075140686
0.0075140686
0.0075140686
0.0075140686
0.0075140686
0.0075140686
0.0075140686
0.0075140686
0.0075140686
0.0075140686
0.0075140686
0.0075140686
0.0075140686
0.0075140686
0.0075140686
0.0075140686
0.0075140686
0.0075140686
0.0075140686
0.0075140686
0.0075140686
0.0075140686
0.0075140686
0.0075140686
0.0075140686
0.0075140686
0.0075140686
0.0075140686
0.0075140686
0.0075140686
0.0075140686
0.0075140686
0.0075140686
0.0075140686
0.0075140686
0.0075140686
0.0075140686
0.0075140686
0.0075140686
0.0075140686
0.0075140686
0.0075140686
0.0075140686
0.0075140686
0.0075140686
0.0075140686
0.0075140686
0.0075140686
0.0075140686
0.0075140686
0.0075140686
0.0075140686
0.0075140686
0.0075140686
0.0075140686
0.0075140686
)
;
        value           nonuniform List<scalar> 
130
(
539.72716
541.83081
543.94729
545.91708
547.66036
549.15919
550.45118
551.52282
552.3348
552.95782
553.39737
553.65651
553.57483
537.4898
540.16902
542.76086
545.14096
547.17965
548.862
550.28917
551.44613
552.31631
552.96404
553.44788
553.78001
553.90904
532.80816
536.80725
540.45289
543.62521
546.19215
548.27254
549.93168
551.25158
552.24487
552.92928
553.40864
553.80449
553.92629
525.49625
532.05704
537.43041
541.70275
544.98372
547.4993
549.46734
550.99388
552.12796
552.89632
553.40514
553.72801
553.86829
516.55827
527.42207
534.85698
540.19901
544.08229
547.01065
549.20822
550.84352
552.00676
552.80955
553.32533
553.64527
553.78844
516.5612
527.42258
534.85704
540.19909
544.08201
547.01089
549.20839
550.84375
552.00694
552.80974
553.32552
553.64553
553.78862
525.49544
532.0576
537.43085
541.7034
544.98362
547.49927
549.46741
550.99391
552.12814
552.89641
553.40564
553.72827
553.86835
532.80908
536.80799
540.45327
543.62543
546.1922
548.27224
549.93183
551.25153
552.24506
552.93006
553.40834
553.80423
553.92606
537.49192
540.17052
542.76195
545.14154
547.17969
548.86188
550.28904
551.44602
552.31633
552.96407
553.4473
553.77997
553.90932
539.73022
541.83104
543.94844
545.91858
547.66106
549.15943
550.45104
551.52266
552.33461
552.95745
553.39693
553.65646
553.57493
)
;
        Tnbr            T;
        thicknessLayers List<scalar> 0();
        kappaLayers     List<scalar> 0();
        kappaMethod     solidThermo;
        kappa           none;
        alphaAni        none;
        alpha           none;
        field           T;
    }
    rightSolid_to_topAir
    {
        type            compressible::turbulentTemperatureCoupledBaffleMixed;
        refValue        nonuniform List<scalar> 
130
(
401.65854
401.21073
400.3046
399.15959
397.96662
396.87595
396.00261
395.43807
395.27523
395.65521
396.84598
399.23459
403.01522
381.61039
379.91286
378.43997
377.28037
376.42315
375.85836
375.6003
375.68716
376.21493
377.4318
379.92182
384.20531
389.12536
387.05163
384.21358
380.78373
377.35485
374.43227
372.25708
370.84781
370.13883
370.12846
371.01128
373.52058
379.49737
387.90692
402.40455
404.1723
405.15707
405.12959
404.13194
402.46346
400.61194
399.01522
398.01945
398.15736
400.73609
405.74069
411.96912
401.49417
404.57408
407.75363
410.92018
413.98267
416.26037
417.38825
417.75699
418.15205
419.57148
422.42066
425.6301
430.00828
401.49405
404.57397
407.75351
410.92003
413.98229
416.25447
417.3744
417.73362
418.11849
419.5284
422.38073
425.59234
429.97094
402.40394
404.1716
405.15622
405.12842
404.12993
402.45987
400.60606
399.00645
398.00731
398.14152
400.71551
405.72022
411.94679
387.05222
384.21446
380.78498
377.35653
374.43442
372.2597
370.85089
370.14231
370.13231
371.01554
373.525
379.5005
387.90651
381.61078
379.91337
378.44062
377.2812
376.42419
375.85966
375.60189
375.68907
376.21727
377.43471
379.92538
384.20855
389.12796
401.65874
401.21101
400.30498
399.16007
397.9672
396.87664
396.00342
395.43904
395.27641
395.65668
396.84781
399.23669
403.01752
)
;
        refGradient     uniform 0;
        valueFraction   nonuniform List<scalar> 
130
(
0.00032132529
0.00032132529
0.00032132529
0.00032132529
0.00032132529
0.00032132529
0.00032132529
0.00032132529
0.00032132529
0.00032132529
0.00032132529
0.00032132529
0.00032132529
0.00032132529
0.00032132529
0.00032132529
0.00032132529
0.00032132529
0.00032132529
0.00032132529
0.00032132529
0.00032132529
0.00032132529
0.00032132529
0.00032132529
0.00032132529
0.00032132529
0.00032132529
0.00032132529
0.00032132529
0.00032132529
0.00032132529
0.00032132529
0.00032132529
0.00032132529
0.00032132529
0.00032132529
0.00032132529
0.00032132529
0.00032132529
0.00032132529
0.00032132529
0.00032132529
0.00032132529
0.00032132529
0.00032132529
0.00032132529
0.00032132529
0.00032132529
0.00032132529
0.00032132529
0.00032132529
0.00032132529
0.00032132529
0.00032132529
0.00032132529
0.00032132529
0.00032132529
0.00032132529
0.00032132529
0.00032132529
0.00032132529
0.00032132529
0.00032132529
0.00032132529
0.00032132529
0.00032132529
0.00032132529
0.00032132529
0.00032132529
0.00032132529
0.00032132529
0.00032132529
0.00032132529
0.00032132529
0.00032132529
0.00032132529
0.00032132529
0.00032132529
0.00032132529
0.00032132529
0.00032132529
0.00032132529
0.00032132529
0.00032132529
0.00032132529
0.00032132529
0.00032132529
0.00032132529
0.00032132529
0.00032132529
0.00032132529
0.00032132529
0.00032132529
0.00032132529
0.00032132529
0.00032132529
0.00032132529
0.00032132529
0.00032132529
0.00032132529
0.00032132529
0.00032132529
0.00032132529
0.00032132529
0.00032132529
0.00032132529
0.00032132529
0.00032132529
0.00032132529
0.00032132529
0.00032132529
0.00032132529
0.00032132529
0.00032132529
0.00032132529
0.00032132529
0.00032132529
0.00032132529
0.00032132529
0.00032132529
0.00032132529
0.00032132529
0.00032132529
0.00032132529
0.00032132529
0.00032132529
0.00032132529
0.00032132529
0.00032132529
)
;
        value           nonuniform List<scalar> 
130
(
536.09975
538.2163
540.32563
542.29642
544.05362
545.57218
546.86294
547.91914
548.73495
549.34862
549.77875
550.02742
550.07431
533.83067
536.51649
539.11264
541.47741
543.52296
545.23782
546.66408
547.81131
548.68832
549.33975
549.80882
550.11389
550.24589
529.13249
533.13622
536.78983
539.93866
542.52726
544.6195
546.28967
547.59965
548.58724
549.29496
549.79043
550.12971
550.27757
521.84254
528.38408
533.77058
538.03766
541.34112
543.88632
545.85266
547.35579
548.46784
549.24652
549.76948
550.0969
550.24928
512.98354
523.73958
531.20265
536.55595
540.46905
543.38947
545.57672
547.20069
548.37125
549.18501
549.7216
550.04972
550.20312
512.98456
523.73998
531.20275
536.55595
540.46893
543.38952
545.57681
547.2008
548.37136
549.18513
549.72174
550.04987
550.20324
521.84262
528.38452
533.77096
538.03795
541.34111
543.88633
545.85274
547.35589
548.46801
549.24674
549.76978
550.09711
550.24939
529.13349
533.13706
536.79039
539.93898
542.52735
544.61946
546.28973
547.5997
548.58744
549.29533
549.79044
550.12965
550.27751
533.83243
536.51782
539.11359
541.47797
543.52315
545.23782
546.66403
547.81128
548.68837
549.3398
549.80867
550.11391
550.24607
536.10194
538.21742
540.32667
542.2974
544.05415
545.57237
546.86289
547.91906
548.73486
549.34845
549.77855
550.02741
550.0745
)
;
        Tnbr            T;
        thicknessLayers List<scalar> 0();
        kappaLayers     List<scalar> 0();
        kappaMethod     solidThermo;
        kappa           none;
        alphaAni        none;
        alpha           none;
        field           T;
    }
    rightSolid_to_heater
    {
        type            compressible::turbulentTemperatureCoupledBaffleMixed;
        refValue        nonuniform List<scalar> 10(534.19682 531.35753 525.254 514.79348 496.97185 496.97234 514.79329 525.25493 531.35933 534.19919);
        refGradient     uniform 0;
        valueFraction   nonuniform List<scalar> 10(0.50000003 0.50000003 0.50000003 0.50000003 0.50000003 0.50000003 0.50000003 0.50000003 0.50000003 0.50000003);
        value           nonuniform List<scalar> 10(535.16989 532.61856 527.21608 518.3372 504.99561 504.99637 518.33715 527.21704 532.62034 535.17217);
        Tnbr            T;
        thicknessLayers List<scalar> 0();
        kappaLayers     List<scalar> 0();
        kappaMethod     solidThermo;
        kappa           none;
        alphaAni        none;
        alpha           none;
        field           T;
    }
}


// ************************************************************************* //
