/*--------------------------------*- C++ -*----------------------------------*\
| =========                 |                                                 |
| \\      /  F ield         | OpenFOAM: The Open Source CFD Toolbox           |
|  \\    /   O peration     | Version:  v2012                                 |
|   \\  /    A nd           | Website:  www.openfoam.com                      |
|    \\/     M anipulation  |                                                 |
\*---------------------------------------------------------------------------*/
FoamFile
{
    version     2.0;
    format      ascii;
    class       volScalarField;
    location    "22";
    object      p;
}
// * * * * * * * * * * * * * * * * * * * * * * * * * * * * * * * * * * * * * //

dimensions      [0 2 -2 0 0 0 0];


internalField   nonuniform List<scalar> 
64000
(
1.43178e-21
-2.57745e-21
-1.85525e-21
-4.12897e-21
-6.93669e-21
-1.75124e-21
-3.02393e-21
-2.37953e-21
-3.75151e-21
-3.10632e-21
-2.81877e-21
-5.44492e-21
-3.15352e-21
-5.45965e-21
-3.16428e-21
-4.71241e-21
-9.49631e-22
-6.15791e-22
-7.43133e-23
-5.34066e-22
-1.72261e-21
-2.70822e-21
-1.49171e-21
1.20504e-21
-4.38725e-21
-9.69104e-22
4.61835e-22
-3.39133e-21
-2.12766e-21
-1.71847e-21
-1.9069e-21
-1.13282e-21
-1.34798e-21
-6.89472e-22
-5.07434e-22
-4.52898e-21
-1.71716e-21
8.72182e-22
1.04778e-21
1.31303e-21
-4.90976e-21
-8.03967e-21
-8.57273e-21
-6.21022e-21
-8.43758e-21
-1.01902e-20
-6.19085e-21
-1.92512e-21
-2.8378e-21
-6.38911e-21
-6.17445e-21
-8.22464e-21
-3.00238e-21
-3.52632e-21
-5.93382e-21
-6.28271e-21
-4.40981e-21
1.22469e-21
-1.37442e-21
-1.2546e-21
6.65757e-22
-2.94719e-21
-5.54218e-21
-5.97015e-21
-4.73972e-21
-7.57102e-22
-1.29894e-21
-3.73888e-21
-2.63776e-21
-1.24119e-21
1.84292e-21
-2.81506e-22
-4.72001e-21
-2.65579e-21
-6.6776e-22
-1.44884e-21
-1.91055e-21
1.18067e-21
6.66844e-24
8.60503e-22
-4.38672e-21
-6.24833e-21
-1.19185e-20
-8.8148e-21
-7.30905e-21
-9.83585e-21
-7.17729e-21
-5.97625e-21
-6.48115e-21
-6.76832e-21
-4.99327e-21
-7.09909e-21
-4.27608e-21
-3.51003e-21
-2.73936e-21
-2.09828e-21
-7.98881e-21
-2.54786e-21
-1.13849e-21
-9.88749e-22
-1.32498e-21
-4.86904e-21
-6.61217e-21
-3.97337e-21
-1.84378e-21
-2.39356e-21
-3.52138e-21
-3.64335e-21
-7.76398e-22
-2.40677e-21
-7.92041e-22
-1.92314e-21
-4.89631e-21
-9.46618e-23
-8.09839e-22
-1.93296e-21
9.71078e-22
1.59285e-21
-4.72229e-22
6.73184e-22
-8.35024e-21
-7.95511e-21
-9.09625e-21
-1.20711e-20
-1.10507e-20
-1.14297e-20
-7.57379e-21
-4.28445e-21
-6.95498e-21
-7.4269e-21
-6.71599e-21
-7.03176e-21
-6.73203e-21
-3.7525e-21
-3.96724e-21
-3.53675e-21
-5.12158e-21
-2.31306e-21
-1.17224e-22
-6.52636e-22
-1.56341e-21
-5.36751e-21
-8.58742e-21
-4.76848e-21
-3.05753e-21
-4.05349e-21
-1.90006e-21
-1.05925e-22
-1.70077e-21
-4.05761e-21
-2.03616e-22
-2.57041e-21
-4.95031e-21
2.00532e-22
2.29999e-22
-3.53095e-22
6.47757e-22
-2.69662e-22
-1.3503e-21
-5.55168e-22
-1.44898e-20
-8.79747e-21
-1.01116e-20
-9.35163e-21
-1.14105e-20
-1.23256e-20
-8.26492e-21
-2.15614e-21
-5.88578e-21
-8.82709e-21
-6.70287e-21
-6.82123e-21
-5.55596e-21
-1.3813e-21
-5.99999e-21
-8.752e-21
-4.86013e-21
4.89747e-22
-1.26182e-21
-2.37693e-21
3.20785e-23
-6.48474e-21
-1.02504e-20
-5.32318e-21
-2.65652e-21
-2.62877e-21
-6.92157e-22
-1.45618e-21
-4.31268e-21
-1.19434e-21
-7.48018e-22
-8.78693e-22
-1.84646e-21
1.7476e-21
-1.88611e-21
-4.18849e-22
-1.56838e-22
9.25877e-22
-1.53063e-21
-2.20066e-21
-1.04942e-20
-9.95828e-21
-9.3271e-21
-1.16526e-20
-1.10157e-20
-9.98635e-21
-6.73468e-21
-8.86321e-21
-8.56727e-21
-7.78228e-21
-5.35629e-21
-7.10029e-21
-7.36647e-21
-1.77165e-21
-4.70344e-21
-8.00196e-21
-4.20127e-21
5.16836e-22
3.30522e-22
-2.65718e-21
1.0388e-21
-5.33634e-21
-1.12374e-20
-7.20194e-21
-3.91527e-21
-2.24902e-21
-2.88242e-21
-4.75827e-22
-1.47108e-21
-2.87246e-21
-3.34319e-21
-2.66955e-21
-1.44657e-21
6.53259e-22
-4.14253e-23
-3.19592e-22
-2.72089e-21
-2.0512e-21
-5.60844e-22
4.34968e-22
-1.15214e-20
-1.17121e-20
-8.66797e-21
-1.03564e-20
-1.14776e-20
-1.18209e-20
-7.27084e-21
-8.49953e-21
-9.12232e-21
-6.57752e-21
-6.53637e-21
-8.23788e-21
-6.45049e-21
-4.63845e-21
-5.61608e-21
-7.3738e-21
-3.06506e-21
2.06135e-21
2.39668e-21
-7.94365e-22
-3.07622e-21
-6.16001e-21
-1.17495e-20
-8.58962e-21
-3.61259e-21
-2.88301e-21
-1.82894e-21
6.25991e-22
-5.65503e-23
-1.25749e-21
-4.79434e-21
-4.39645e-21
1.48772e-22
-3.14066e-22
-4.02963e-22
-3.01015e-21
-3.40548e-21
-3.76528e-22
-8.27778e-22
-8.29793e-22
-1.28876e-20
-1.16733e-20
-1.02233e-20
-7.58433e-21
-1.25166e-20
-9.60958e-21
-6.482e-21
-1.25765e-20
-1.02286e-20
-8.61199e-21
-7.24556e-21
-7.88379e-21
-8.24271e-21
-7.17326e-21
-4.92779e-21
-7.67363e-21
-2.53743e-21
5.10391e-22
1.50037e-21
5.78234e-22
-4.41782e-21
-7.96888e-21
-7.96873e-21
-4.83373e-21
-3.34216e-21
-4.83974e-21
-1.36926e-21
1.01328e-21
2.03879e-22
-1.97373e-21
-4.23861e-21
-3.38585e-21
-2.09958e-22
-1.9728e-21
-3.57083e-21
-4.21942e-21
-2.35859e-21
-6.75934e-22
4.69479e-22
-2.76767e-22
-1.82345e-20
-1.34492e-20
-1.11023e-20
-8.94769e-21
-9.82217e-21
-1.11465e-20
-9.91173e-21
-9.71561e-21
-1.09416e-20
-1.25236e-20
-5.64965e-21
-7.22551e-21
-5.90968e-21
-9.99949e-21
-6.6651e-21
-7.4061e-21
-2.71655e-21
2.94527e-21
-2.77541e-21
-3.42694e-21
-3.90882e-21
-6.23914e-21
-6.45121e-21
-7.26518e-21
-9.29759e-23
-1.98719e-21
-4.13394e-21
-1.11748e-21
6.07257e-22
-1.81191e-21
-1.8516e-21
-1.70373e-21
-2.13123e-21
-2.12894e-21
-5.67475e-21
-2.21643e-21
-1.16352e-21
1.14366e-21
9.44362e-22
-1.17481e-21
-9.1118e-21
-1.2277e-20
-1.20509e-20
-9.06738e-21
-1.03145e-20
-1.2152e-20
-9.92155e-21
-9.67233e-21
-1.09738e-20
-1.10493e-20
-7.37772e-21
-5.80838e-21
-5.96128e-21
-9.88212e-21
-8.69126e-21
-5.47996e-21
-2.96071e-21
-1.04359e-21
1.52004e-21
-2.24956e-21
-4.27636e-21
-4.15866e-21
-8.62708e-21
-5.65381e-21
-2.28689e-21
-2.75777e-21
-2.33434e-21
-2.96648e-22
2.39351e-22
-1.72443e-21
-2.75189e-21
-9.19443e-22
-2.05031e-21
-2.98325e-21
-6.48077e-21
-3.78317e-21
-1.1698e-22
2.07395e-21
1.07103e-21
-1.06728e-21
-8.32355e-21
-1.28355e-20
-1.36e-20
-1.31953e-20
-9.31049e-21
-1.14724e-20
-1.40697e-20
-7.63299e-21
-1.15434e-20
-1.38575e-20
-8.43019e-21
-4.5829e-21
-5.20147e-21
-7.62076e-21
-8.48322e-21
-9.4582e-21
-4.84034e-21
9.95711e-22
3.62502e-21
-1.13876e-21
-5.34314e-21
-1.03186e-20
-7.67543e-21
-5.65152e-21
-3.17938e-21
-3.15385e-21
-7.31953e-23
1.06818e-21
-1.25722e-21
-2.53739e-21
-2.59392e-21
5.95506e-22
-3.80288e-21
-2.3017e-21
-3.68007e-21
-3.95631e-21
-1.49139e-21
-7.12533e-22
-7.59401e-22
-8.08567e-22
-1.09055e-20
-1.50415e-20
-1.57182e-20
-9.86572e-21
-1.04956e-20
-1.49454e-20
-1.01246e-20
-9.74211e-21
-8.30181e-21
-1.18519e-20
-1.43302e-20
-6.56383e-21
-5.14595e-21
-8.01756e-21
-8.72813e-21
-8.32823e-21
-3.963e-21
1.8435e-21
1.19356e-21
-5.35915e-22
-5.34712e-21
-9.28933e-21
-7.73563e-21
-6.92551e-21
-6.10466e-21
-1.26947e-22
9.33177e-22
-1.68679e-22
-2.58122e-21
-6.27046e-22
-2.46619e-23
-8.67908e-22
-1.65217e-21
-2.95883e-21
-3.05618e-21
-9.73315e-22
-3.34997e-22
-2.14861e-21
-1.5663e-21
-2.00193e-21
-1.62614e-20
-1.51235e-20
-1.48129e-20
-1.17256e-20
-1.2855e-20
-1.28429e-20
-1.26336e-20
-1.15359e-20
-1.28926e-20
-1.11514e-20
-1.03127e-20
-5.38313e-21
-7.08041e-21
-9.3215e-21
-6.62024e-21
-5.51392e-21
-3.46836e-21
-2.72216e-22
-8.43806e-22
-2.63337e-21
-4.74337e-21
-5.98211e-21
-7.25779e-21
-6.10827e-21
-3.24529e-21
-4.10022e-22
-7.02035e-24
-1.03062e-21
-2.19463e-22
4.20977e-22
-3.6598e-21
-1.35571e-21
7.5226e-22
-3.77631e-21
-2.76758e-21
-7.8276e-22
-1.3545e-21
-3.92135e-21
-2.09764e-21
-1.2821e-21
-1.82664e-20
-1.74742e-20
-1.35563e-20
-1.29136e-20
-1.07932e-20
-1.17913e-20
-1.23058e-20
-9.11219e-21
-1.08574e-20
-1.34739e-20
-8.75881e-21
-5.0699e-21
-9.73531e-21
-1.4143e-20
-7.89361e-21
-5.23124e-21
-1.76795e-21
1.6553e-21
-1.76142e-21
-3.10557e-21
-6.17541e-21
-7.4714e-21
-7.15597e-21
-9.19652e-21
-1.9971e-21
-6.56223e-22
-6.96633e-22
-7.01745e-22
1.53288e-21
1.87632e-21
-8.02363e-22
-2.76523e-21
-1.1977e-21
-1.54732e-21
-1.90196e-21
-2.91582e-21
-3.24116e-21
-3.19254e-21
-1.32496e-21
-1.64202e-21
-1.16464e-20
-1.8531e-20
-1.69318e-20
-1.11992e-20
-8.55932e-21
-1.14668e-20
-1.62348e-20
-1.60921e-20
-1.14266e-20
-8.86303e-21
-6.52797e-21
-8.59136e-21
-1.02823e-20
-1.19167e-20
-4.56831e-21
-5.10069e-21
-2.87735e-21
-3.01303e-21
-4.27845e-21
-2.46763e-21
-8.18133e-21
-4.89612e-21
-5.34545e-21
-8.94377e-21
-1.02626e-21
-1.26996e-21
-1.60541e-21
-7.63031e-22
2.11241e-21
1.83914e-21
4.94081e-22
-1.46613e-21
-1.66762e-21
-9.44735e-22
-1.8431e-21
-3.76169e-21
-4.35127e-21
-4.48228e-21
-2.40649e-21
2.18869e-22
-1.29448e-20
-1.3125e-20
-1.60612e-20
-1.21299e-20
-1.24426e-20
-1.05838e-20
-1.48254e-20
-1.61941e-20
-9.64178e-21
-6.73537e-21
-1.10882e-20
-1.07101e-20
-8.02001e-21
-8.61707e-21
-7.79316e-21
-6.35868e-21
-2.67531e-21
-3.5955e-21
-3.24386e-21
-3.97492e-21
-8.68715e-21
-6.32389e-21
-4.21424e-21
-3.92342e-21
-9.53028e-22
-2.78399e-21
-4.0111e-21
-2.83578e-21
3.33288e-21
3.26303e-21
-1.25392e-21
-2.27715e-21
4.15495e-22
-7.99979e-22
-1.817e-21
-2.18105e-21
-5.33348e-21
-4.01499e-21
-1.40033e-21
-9.30475e-23
-1.37021e-20
-1.19621e-20
-1.47285e-20
-1.01038e-20
-9.87191e-21
-1.18946e-20
-1.51185e-20
-1.65091e-20
-9.2901e-21
-9.37582e-21
-1.08431e-20
-1.32126e-20
-4.80745e-21
-7.61954e-21
-6.40013e-21
-5.56867e-21
-4.29979e-21
-2.57836e-21
-5.06443e-21
-5.78495e-21
-8.06441e-21
-5.20681e-21
-3.79067e-21
-1.63847e-21
-9.47742e-22
-1.29758e-21
-2.48095e-21
-3.15437e-21
2.11559e-21
1.01166e-21
-1.25126e-21
-2.19914e-21
1.05464e-21
-1.13596e-21
-2.91252e-21
-2.03387e-21
-3.57826e-21
-2.6016e-21
-2.04193e-22
-1.74246e-21
-1.02565e-20
-1.31331e-20
-1.81272e-20
-1.03229e-20
-6.73998e-21
-1.1998e-20
-1.61045e-20
-1.48096e-20
-1.13363e-20
-9.01266e-21
-1.08118e-20
-1.17034e-20
-7.90583e-21
-7.68903e-21
-2.90736e-21
-8.57968e-21
-6.70141e-21
4.61482e-22
-2.20584e-21
-7.67178e-21
-8.97283e-21
-8.2736e-21
-8.75315e-22
-4.85127e-22
1.69738e-21
-3.76834e-21
-2.50491e-21
-4.37988e-22
3.48877e-22
5.3697e-22
-5.36328e-22
-4.17605e-23
2.95828e-23
-5.35403e-22
-6.85515e-22
-3.15732e-21
-2.78633e-21
-3.20849e-21
1.66533e-22
-7.95277e-22
-8.20072e-21
-1.00493e-20
-1.3355e-20
-1.23646e-20
-1.14069e-20
-1.19093e-20
-1.32881e-20
-1.24862e-20
-1.16441e-20
-1.0294e-20
-1.12835e-20
-1.02756e-20
-7.00131e-21
-7.57721e-21
-4.10071e-21
-7.00477e-21
-6.59338e-21
-8.17893e-21
-9.98717e-21
-5.2294e-21
-5.36834e-21
-1.98656e-21
-1.67313e-21
-6.74418e-22
1.13897e-21
-1.02362e-21
-1.21472e-21
1.28839e-21
9.37395e-22
-4.50841e-22
-3.59779e-21
-1.35256e-21
1.16117e-21
-3.88218e-22
-1.1212e-21
-1.12111e-21
-7.75305e-22
-2.03116e-21
-3.33335e-21
-2.98713e-21
-6.26201e-21
-8.78678e-21
-1.58708e-20
-1.40238e-20
-1.22361e-20
-9.64689e-21
-9.52314e-21
-1.48037e-20
-1.29074e-20
-1.20329e-20
-9.23459e-21
-1.02738e-20
-5.09402e-21
-6.40683e-21
-8.40668e-21
-8.40888e-21
-5.0164e-21
-4.3967e-21
-1.02074e-20
-5.04933e-21
-5.80258e-21
-4.96152e-21
-2.53737e-21
5.14553e-22
1.75499e-21
1.47239e-21
-5.35494e-21
-8.10625e-22
5.58575e-22
-4.35907e-22
-3.5885e-21
-4.67423e-22
-1.57393e-22
-4.2137e-22
-1.60142e-21
1.20607e-22
-1.30977e-21
-1.09132e-21
-1.90854e-21
-2.61657e-21
-8.69188e-21
-9.46343e-21
-1.43685e-20
-1.36127e-20
-1.20923e-20
-9.85537e-21
-9.94454e-21
-1.03449e-20
-1.12832e-20
-1.30433e-20
-1.51601e-20
-9.58966e-21
-7.03399e-21
-5.49773e-21
-8.09601e-21
-6.92637e-21
-7.0716e-21
-3.28038e-21
-5.98151e-21
-5.17054e-21
-5.61537e-21
-4.81679e-21
-2.12296e-22
-2.07577e-21
-2.95955e-21
3.53907e-22
-2.79168e-21
-1.63716e-21
-3.89783e-22
8.58317e-22
-1.92438e-21
-4.58735e-22
-2.33553e-21
1.73743e-21
-1.86665e-21
-1.4388e-21
-2.84652e-22
-2.18254e-21
-1.32797e-21
-3.27961e-21
-1.43717e-20
-1.26579e-20
-1.26108e-20
-1.23112e-20
-1.14127e-20
-1.00529e-20
-1.05088e-20
-8.81127e-21
-9.578e-21
-1.3567e-20
-1.52381e-20
-8.32648e-21
-7.04807e-21
-1.22374e-20
-8.61465e-21
-6.67753e-21
-3.36618e-21
-2.30738e-21
-6.07885e-21
-4.91955e-21
-6.31225e-21
-5.11016e-22
-1.44637e-21
-2.59904e-21
-1.08023e-21
-1.07713e-21
-4.06544e-21
-3.32846e-21
-1.67109e-23
1.10206e-21
-3.18572e-21
-8.56253e-25
6.12946e-23
5.82226e-22
-2.96455e-21
-5.34208e-21
-8.62843e-22
-1.49208e-21
-3.69968e-22
5.03434e-22
-1.53497e-20
-1.63837e-20
-1.19426e-20
-1.16029e-20
-1.15626e-20
-1.28008e-20
-9.07003e-21
-8.74093e-21
-1.23954e-20
-1.11019e-20
-1.32701e-20
-1.06418e-20
-8.23001e-21
-6.81163e-21
-7.0135e-21
-6.91989e-21
-4.59146e-21
2.51166e-22
-2.57979e-22
-4.97026e-21
-6.04247e-21
-2.50712e-21
-5.07494e-21
-4.70344e-21
-2.54086e-21
-2.31658e-21
-2.72802e-21
-2.16272e-21
2.19946e-22
5.79812e-22
-4.02008e-21
-1.1848e-21
7.97965e-22
9.5156e-22
-2.93293e-21
-4.37874e-21
-2.60013e-21
-2.61664e-22
-1.7008e-21
-1.36803e-21
-1.03125e-20
-1.24286e-20
-1.54032e-20
-1.0867e-20
-1.11938e-20
-1.23635e-20
-1.19396e-20
-1.26084e-20
-8.6711e-21
-1.00002e-20
-1.24147e-20
-1.20197e-20
-4.06587e-21
-8.75726e-21
-1.01837e-20
-4.68999e-21
5.04315e-22
-1.98945e-21
-3.20449e-21
-3.8282e-21
-5.32522e-21
-4.39638e-21
-3.5798e-21
-2.57041e-21
-5.08513e-21
-2.55555e-21
-2.78625e-21
-3.80867e-21
2.34732e-21
-1.44402e-22
-3.70305e-21
-1.5151e-21
-1.78458e-22
-2.42189e-21
-4.36959e-21
-3.42764e-21
-1.65826e-21
-5.76869e-22
-2.54527e-21
-2.486e-21
-8.06889e-21
-1.25257e-20
-1.33676e-20
-1.24737e-20
-9.90107e-21
-1.28831e-20
-1.16984e-20
-1.0841e-20
-7.76953e-21
-1.17393e-20
-1.44695e-20
-1.05565e-20
-3.51463e-21
-6.37419e-21
-7.61601e-21
-2.97724e-21
-2.60907e-21
-6.01038e-21
-2.14676e-21
-8.10042e-22
-4.44515e-21
-5.04643e-21
-2.25817e-21
-4.7866e-21
-5.94042e-21
-4.25176e-21
-1.89327e-21
-2.71332e-22
-1.46834e-22
-1.29909e-21
-1.67214e-22
-2.83344e-21
-3.93739e-21
3.78592e-22
-4.42583e-21
-2.0314e-21
-9.2396e-22
-1.24609e-21
-2.39412e-21
-1.03766e-21
-1.11853e-20
-1.51233e-20
-1.38687e-20
-9.91814e-21
-9.99854e-21
-1.16329e-20
-1.12963e-20
-1.17263e-20
-8.16655e-21
-9.13399e-21
-1.41043e-20
-1.31314e-20
-4.56659e-21
-7.38533e-21
-2.3443e-21
-4.736e-21
-5.03037e-21
-8.67433e-22
1.44581e-21
-2.90218e-21
-3.26033e-21
-3.87387e-21
-8.86897e-21
-8.88913e-21
-6.80389e-21
-5.80194e-21
9.66202e-22
-3.05096e-21
-2.61982e-21
4.24826e-22
-7.64474e-22
-2.54823e-21
-3.24289e-21
-4.93567e-22
-7.94113e-22
4.29713e-22
4.53713e-22
-4.91847e-21
-5.84308e-22
-4.68188e-22
-6.39924e-21
-1.08476e-20
-1.31124e-20
-1.57467e-20
-1.34447e-20
-1.34525e-20
-1.05919e-20
-6.18887e-21
-8.23237e-21
-1.07424e-20
-1.42957e-20
-1.13e-20
-4.74256e-21
-6.56271e-21
-4.86473e-21
-7.72528e-21
-4.96312e-21
-2.38046e-21
4.43668e-21
4.38278e-22
-1.55569e-21
-6.59829e-21
-6.68049e-21
-7.53253e-21
-7.67119e-21
-4.46248e-21
1.44958e-21
6.88078e-22
-4.66291e-21
-1.06139e-21
1.52933e-21
-1.21809e-21
-1.71981e-21
-7.19147e-22
-4.14064e-21
1.35891e-21
-6.15112e-22
-6.67202e-21
-3.75498e-21
-1.38685e-21
-7.8018e-21
-1.1636e-20
-1.32294e-20
-1.47864e-20
-1.17854e-20
-1.19571e-20
-1.03665e-20
-9.88933e-21
-8.37021e-21
-9.66162e-21
-1.18235e-20
-6.53573e-21
-6.44479e-21
-5.55759e-21
-7.39807e-21
-4.30755e-21
-4.37983e-21
-1.72484e-21
1.03773e-21
8.66337e-22
-2.59688e-21
-1.55837e-21
-4.69541e-21
-8.37333e-21
-7.4259e-21
-2.55035e-21
1.10692e-22
-1.702e-21
-2.46678e-21
-9.48033e-22
-6.28035e-22
-9.67183e-22
-2.75684e-21
-4.14378e-21
-2.15701e-21
-1.00376e-21
-2.3516e-21
-4.1561e-21
-2.10189e-21
-5.25251e-22
-1.02982e-20
-1.53749e-20
-1.49034e-20
-1.12202e-20
-1.52113e-20
-1.29252e-20
-9.65684e-21
-7.38117e-21
-6.80611e-21
-1.01903e-20
-1.31823e-20
-3.93045e-21
-5.90082e-21
-7.95955e-21
-5.75987e-21
-5.68232e-21
-5.2801e-21
1.44982e-21
6.10169e-22
1.06817e-21
-4.77404e-21
-4.36778e-21
-3.84184e-21
-5.33566e-21
-5.29351e-21
-2.7696e-21
-1.29505e-21
-4.40889e-21
-1.24832e-22
-5.20099e-23
-4.90664e-22
-7.26476e-22
-2.10104e-21
-1.43993e-21
-1.52524e-21
-4.58047e-21
-3.46751e-21
-4.49265e-21
-1.39384e-21
6.81884e-22
-9.67246e-21
-1.32403e-20
-1.50894e-20
-1.36168e-20
-1.20693e-20
-1.46897e-20
-9.67192e-21
-5.03403e-21
-7.64379e-21
-1.05289e-20
-1.15086e-20
-7.19822e-21
-3.48229e-21
-8.39126e-21
-7.30973e-21
-5.20892e-21
-3.0231e-21
-3.02567e-21
1.46088e-22
4.38513e-21
-2.41568e-21
-5.95754e-21
-6.7282e-21
-5.25922e-21
-7.2347e-21
-4.44384e-21
2.66027e-22
-3.60993e-22
3.06536e-22
9.08214e-22
-1.47549e-21
-1.24161e-21
-2.95265e-21
-1.1399e-21
-2.72346e-21
-3.29564e-21
-3.15053e-21
-1.14421e-21
-5.76548e-22
6.08381e-22
-1.13539e-20
-1.20935e-20
-1.1942e-20
-1.39005e-20
-1.13069e-20
-1.20806e-20
-8.99082e-21
-8.3127e-21
-7.94183e-21
-9.01382e-21
-7.94767e-21
-6.67814e-21
-6.72805e-21
-7.86721e-21
-5.75598e-21
-6.29835e-21
-2.92356e-21
-1.53225e-21
1.96437e-22
7.30621e-22
-4.87284e-22
-7.36565e-21
-7.62894e-21
-5.6722e-21
-4.14663e-21
-2.95296e-21
-1.23392e-21
-1.01564e-21
-2.25168e-21
-8.05564e-22
-1.20034e-21
-5.55641e-22
1.28841e-21
-1.51849e-21
-2.73113e-21
-6.18355e-21
-2.63855e-21
8.56741e-22
-5.92883e-22
-1.29771e-21
-1.48677e-20
-1.3843e-20
-1.10132e-20
-1.18869e-20
-1.22624e-20
-1.32658e-20
-9.59602e-21
-8.5373e-21
-7.915e-21
-7.98725e-21
-5.00272e-21
-8.12373e-21
-1.05437e-20
-8.80249e-21
-4.44895e-21
-4.6133e-21
-1.99085e-21
-6.91841e-22
1.44591e-21
-2.00186e-21
-1.79301e-22
-3.9639e-21
-1.14882e-20
-6.7672e-21
-4.92863e-21
-5.96161e-21
1.55052e-22
2.3997e-22
-1.04643e-21
-5.93944e-22
-1.46825e-21
-1.71719e-21
2.98623e-21
-1.28915e-21
-5.89953e-21
-3.12886e-21
-1.13679e-21
1.78374e-21
-1.59131e-21
-1.59624e-21
-9.61287e-21
-9.01648e-21
-1.03538e-20
-8.46134e-21
-1.5726e-20
-1.40931e-20
-1.05867e-20
-9.53134e-21
-7.51345e-21
-7.1791e-21
-7.54483e-21
-6.82385e-21
-9.80698e-21
-6.49371e-21
-2.91815e-21
-4.66346e-21
-2.48053e-21
-1.61522e-21
1.8205e-21
-1.08541e-21
-1.50461e-21
-4.17621e-21
-8.40402e-21
-5.00988e-21
-7.57925e-21
-6.77338e-21
1.18076e-21
-3.48103e-22
-1.41409e-21
-4.4111e-22
-1.34321e-21
2.28603e-22
2.39562e-21
-6.82776e-23
-3.31602e-21
-2.82361e-21
-6.44307e-22
-1.68307e-21
-1.40551e-21
-5.24023e-22
-1.05017e-20
-9.64677e-21
-1.04757e-20
-1.38902e-20
-1.33022e-20
-1.04394e-20
-8.99695e-21
-7.46635e-21
-8.94114e-21
-5.64876e-21
-6.44177e-21
-1.03155e-20
-8.49954e-21
-5.43645e-21
-4.74168e-21
-2.74179e-21
-1.47128e-21
-1.12175e-21
-4.64041e-22
-8.19109e-22
1.15322e-21
-6.26607e-21
-5.95948e-21
-5.87918e-21
-3.73649e-21
-3.80856e-21
-1.82188e-21
-2.57543e-21
-1.20314e-21
-1.45064e-22
-5.88428e-22
4.88219e-22
1.82481e-21
1.88599e-22
-1.66125e-21
-2.01179e-21
-1.40529e-21
1.51545e-21
-2.58849e-21
-2.62621e-21
-1.17331e-20
-9.07252e-21
-8.75724e-21
-9.37855e-21
-1.23665e-20
-1.33222e-20
-1.0086e-20
-1.05288e-20
-8.60624e-21
-6.53576e-21
-4.13399e-21
-9.27463e-21
-2.4356e-21
-3.2507e-21
-4.68323e-21
-5.1437e-21
-4.41691e-21
5.37016e-22
2.6604e-21
7.67922e-22
-7.54151e-23
-7.73616e-21
-3.63589e-21
-4.70412e-21
-3.32835e-21
-3.00428e-21
-3.34115e-21
-5.41586e-21
-1.43399e-21
-1.13874e-21
1.47581e-22
3.73935e-22
9.58191e-22
6.15839e-23
-7.88977e-22
-5.23215e-22
-1.43761e-21
1.21783e-21
4.62372e-22
4.13025e-22
-7.95745e-21
-9.03605e-21
-1.02235e-20
-8.72317e-21
-8.43091e-21
-1.64154e-20
-9.22119e-21
-9.59958e-21
-9.01178e-21
-8.80044e-21
-8.71799e-21
-2.83589e-21
-3.97682e-21
-3.08306e-21
-3.24553e-21
-4.97885e-21
-4.26476e-21
-2.74488e-22
1.33977e-21
5.30029e-22
-8.17049e-22
-3.6357e-21
-3.89365e-21
-3.9388e-21
-3.5084e-21
-1.95664e-21
1.89624e-23
-2.03229e-21
-3.35007e-21
-1.63504e-21
-2.22334e-21
-4.96648e-22
1.28209e-21
4.29274e-22
-1.80374e-22
-1.05239e-21
5.82245e-22
3.05051e-21
-5.07518e-22
-1.63262e-21
-6.65274e-21
-8.4161e-21
-9.44563e-21
-1.07983e-20
-9.36704e-21
-1.11015e-20
-9.12987e-21
-9.20724e-21
-1.15775e-20
-8.39626e-21
-6.51292e-21
-4.31739e-21
-4.97682e-21
-3.10353e-21
-5.05356e-21
-4.77937e-21
-3.24407e-21
2.09855e-21
3.72538e-21
-1.1281e-21
-9.15932e-22
-1.23852e-21
-3.07943e-21
-5.14388e-21
-5.07962e-21
-3.19824e-21
-2.53666e-21
-1.03801e-21
-4.28348e-22
-1.74979e-21
-4.44029e-21
-1.16923e-21
-2.958e-22
3.35416e-22
-1.61073e-21
-2.01676e-22
2.46612e-21
2.70592e-21
-7.47444e-22
-1.79864e-21
-4.7056e-21
-6.50028e-21
-1.10971e-20
-7.13455e-21
-6.51867e-21
-1.00921e-20
-9.05681e-21
-8.00257e-21
-9.99946e-21
-8.33296e-21
-4.20144e-21
-6.95562e-21
-5.27805e-21
-3.65804e-21
-2.50235e-21
-2.13723e-21
-1.31806e-22
-1.93273e-21
8.72789e-22
3.14873e-23
-5.37281e-22
2.05223e-21
-3.64846e-21
-5.65584e-21
-2.99979e-21
-1.77374e-21
-2.76539e-21
-8.30908e-22
1.21854e-21
-2.59995e-21
-6.35013e-21
-4.07072e-21
-2.06259e-21
-2.01367e-22
-1.79508e-21
-4.2038e-22
1.61616e-21
2.1626e-21
2.39454e-22
-1.10093e-21
-6.28359e-21
-5.56103e-21
-9.3064e-21
-6.24837e-21
-5.91709e-21
-1.14307e-20
-7.14161e-21
-3.90194e-21
-8.92571e-21
-8.9902e-21
-5.3906e-21
-4.77426e-21
-3.00126e-21
-2.68818e-21
-3.76977e-21
-2.94891e-21
-1.76551e-21
4.87829e-22
3.16735e-22
1.98379e-21
1.80775e-21
-2.40766e-21
-2.32842e-21
-4.46785e-21
-4.97391e-21
7.90525e-23
8.25533e-22
4.65955e-22
6.56793e-22
-5.23713e-21
-2.65689e-21
-4.27742e-21
-2.92561e-21
-1.20571e-21
-6.77852e-23
-1.75497e-22
-2.56924e-21
-4.83503e-22
1.49142e-21
5.99374e-22
-6.77913e-21
-4.94302e-21
-5.98479e-21
-2.50668e-21
-1.07336e-21
-4.81937e-21
-7.55182e-21
-4.45802e-21
-6.15238e-21
-6.0305e-21
-2.28516e-21
-1.2853e-21
-3.74696e-21
-1.18137e-21
-9.23624e-22
-2.47149e-21
-4.82084e-22
-1.03713e-21
1.35245e-21
3.15711e-21
5.09306e-22
-4.10402e-21
-2.74372e-21
-6.37987e-22
-6.98161e-22
1.2939e-22
-1.4638e-21
1.11232e-21
3.12391e-21
-4.00492e-22
-4.2432e-21
-1.97415e-21
-2.96996e-21
-2.72107e-21
-8.07176e-22
-1.66606e-21
-3.48827e-21
-1.22117e-21
9.89405e-23
7.23642e-22
-4.28661e-21
-6.89616e-21
-1.07748e-20
-7.2905e-21
-6.10404e-21
-8.43088e-21
-3.99065e-21
-9.36496e-22
-9.10358e-21
-7.171e-21
-2.9984e-21
-7.41995e-21
-5.21893e-21
-2.03893e-21
-3.72257e-21
-6.83034e-21
-5.18421e-21
-1.66027e-21
7.44479e-22
-1.02601e-21
-2.86229e-21
-3.12212e-21
-2.2914e-21
-1.89633e-21
-2.58808e-21
-1.56293e-21
-1.96761e-21
-3.29755e-21
-5.39436e-21
-4.80929e-21
-4.65932e-21
-5.5177e-22
-1.15573e-21
-1.84969e-21
-2.59888e-21
-2.98921e-21
4.93651e-22
-6.65418e-22
7.60469e-22
1.12144e-21
-5.8766e-21
-9.16399e-21
-1.37491e-20
-1.26984e-20
-8.30282e-21
-1.27629e-20
-1.00836e-20
-4.58623e-21
-7.21576e-21
-1.247e-20
-1.09776e-20
-8.63983e-21
-7.74418e-21
-5.29833e-21
-6.02622e-21
-5.59247e-21
-6.12719e-21
-5.04981e-21
-1.0761e-21
-2.75464e-21
-3.62569e-21
-3.90037e-21
-3.04147e-21
-4.4391e-21
-3.01026e-21
-1.25578e-21
-7.12524e-22
-5.90161e-22
-6.6203e-21
-1.86578e-21
-9.42978e-22
-1.34292e-21
-4.42567e-21
-2.10469e-21
-4.97213e-21
-2.22989e-21
6.11623e-22
1.59875e-21
-2.71462e-22
2.14315e-22
-8.99496e-21
-9.89859e-21
-1.23869e-20
-1.35752e-20
-1.23441e-20
-1.09553e-20
-9.84751e-21
-9.15661e-21
-1.07432e-20
-1.29561e-20
-8.85327e-21
-8.07287e-21
-3.2388e-21
-4.26359e-21
-7.82486e-21
-7.22849e-21
-9.64748e-21
-5.65033e-21
1.27112e-21
-2.23521e-21
-5.48532e-21
-5.62462e-21
-1.37694e-21
-2.53901e-21
-3.91665e-21
-1.77619e-21
-7.78913e-22
-3.70595e-21
-2.67964e-21
-3.9686e-21
-4.87094e-21
-3.68582e-21
-1.68016e-21
-1.3448e-21
-6.19253e-21
-3.58241e-21
1.91019e-21
4.89469e-21
9.46845e-22
-1.91311e-22
-1.40587e-20
-1.36353e-20
-1.25433e-20
-1.50623e-20
-1.43338e-20
-1.2823e-20
-1.13639e-20
-6.65917e-21
-1.03968e-20
-1.14069e-20
-1.05546e-20
-1.15215e-20
-8.78998e-21
-3.757e-21
-4.83099e-21
-6.78465e-21
-6.977e-21
-5.45224e-21
-2.69755e-21
-1.27991e-21
-5.61362e-21
-5.76031e-21
-6.02818e-21
-4.10355e-21
-2.67745e-21
-1.99268e-21
-1.07513e-21
2.88406e-22
-2.41662e-21
-8.1775e-21
-6.19111e-21
-2.90347e-21
-3.61767e-21
-3.22925e-21
-2.38929e-21
-1.19558e-21
3.72362e-22
2.89334e-21
7.81739e-23
-1.32973e-21
-1.52028e-20
-1.46958e-20
-1.43273e-20
-1.27216e-20
-1.69006e-20
-1.48483e-20
-1.09545e-20
-6.11785e-21
-7.95531e-21
-1.16265e-20
-1.07978e-20
-1.14842e-20
-8.81195e-21
-6.6489e-21
-6.33549e-21
-6.49396e-21
-8.78183e-21
-4.666e-21
-4.0298e-21
-1.27674e-21
-4.20101e-21
-5.51333e-21
-7.00038e-21
-3.77303e-21
-4.09973e-21
-2.53558e-21
-2.3414e-21
-2.86203e-21
-2.27595e-21
-3.41287e-21
-4.07298e-21
-4.50109e-21
-5.48912e-22
8.47382e-22
-1.78318e-21
-1.88499e-21
1.27594e-21
5.92741e-22
-1.89056e-21
-8.17975e-24
-1.37925e-20
-1.45283e-20
-1.35808e-20
-1.32002e-20
-1.53887e-20
-1.64422e-20
-1.01906e-20
-1.04786e-20
-1.0913e-20
-1.12816e-20
-1.01382e-20
-1.25875e-20
-1.06006e-20
-5.53122e-21
-9.53855e-21
-8.64437e-21
-6.07395e-21
-4.13534e-21
-2.81068e-21
-2.21859e-21
-4.21134e-21
-6.4389e-21
-6.43728e-21
-4.4873e-21
-4.92466e-21
-4.18736e-21
-2.00674e-21
-2.02344e-21
-3.22308e-21
-2.24073e-21
-6.18361e-21
-2.7692e-21
3.16121e-21
-1.04632e-21
-1.16167e-21
-1.72507e-21
-8.93851e-22
-3.99424e-22
1.16575e-21
7.33099e-22
-1.66273e-20
-1.81385e-20
-1.54369e-20
-1.34854e-20
-1.48702e-20
-1.5092e-20
-1.39878e-20
-1.18801e-20
-1.24804e-20
-1.08082e-20
-1.09011e-20
-1.20636e-20
-1.1131e-20
-6.16816e-21
-1.13419e-20
-8.95281e-21
-2.97809e-21
-8.93471e-22
-6.36748e-22
-2.10982e-21
-4.4794e-21
-5.23158e-21
-4.01487e-21
-7.39084e-21
-4.13601e-21
-3.73787e-21
-3.23412e-21
-7.39466e-22
-1.0243e-22
-2.71307e-21
-6.05515e-21
-2.58652e-21
-1.04122e-21
4.16216e-22
-3.38058e-21
-3.04131e-21
7.2539e-23
2.10727e-21
1.50646e-22
-1.58607e-21
-1.61355e-20
-1.68915e-20
-1.50714e-20
-1.48808e-20
-1.68436e-20
-1.53662e-20
-1.20585e-20
-1.47341e-20
-1.46426e-20
-1.35322e-20
-8.22247e-21
-1.24937e-20
-9.48319e-21
-5.96065e-21
-1.15993e-20
-9.81765e-21
-5.36266e-21
-1.36779e-21
1.07945e-21
-1.20722e-21
-3.84291e-21
-8.08069e-21
-7.73558e-21
-3.52059e-21
-3.68519e-21
-1.85477e-21
-2.11609e-21
-7.68979e-22
-3.60546e-22
-2.72812e-21
-7.50999e-21
-2.33634e-21
-2.35154e-21
-4.10487e-21
-2.6419e-21
-5.73276e-22
1.1335e-21
1.97096e-21
-5.63094e-22
-5.37789e-22
-1.80781e-20
-2.02329e-20
-1.9256e-20
-1.50451e-20
-1.4464e-20
-1.47419e-20
-1.54531e-20
-1.43037e-20
-1.38624e-20
-1.32301e-20
-1.15974e-20
-1.31315e-20
-8.14809e-21
-8.59439e-21
-8.6263e-21
-8.57982e-21
-7.27578e-21
-2.14996e-21
-2.57564e-21
-4.21895e-21
-1.65062e-21
-8.96724e-21
-7.12495e-21
-6.09e-21
-1.30347e-21
6.57389e-22
-2.16033e-21
-2.49852e-21
1.96497e-21
-1.39945e-21
-5.35177e-21
-3.87213e-21
-4.24337e-21
-1.30787e-21
-2.89005e-21
6.88629e-22
1.15251e-21
1.63636e-21
3.64784e-22
-1.88491e-21
-1.83673e-20
-1.78832e-20
-1.76607e-20
-1.80786e-20
-1.60917e-20
-1.56168e-20
-1.85359e-20
-1.47403e-20
-1.11459e-20
-1.37396e-20
-1.2918e-20
-9.47446e-21
-1.00756e-20
-1.22139e-20
-1.03152e-20
-6.89284e-21
-5.42401e-21
-3.25899e-21
7.61502e-22
-6.53735e-22
-4.95977e-21
-9.77676e-21
-8.49354e-21
-6.83117e-21
-2.66983e-21
-1.36651e-21
-5.9703e-22
-1.45804e-21
1.72542e-22
-2.58284e-21
-2.93172e-21
-3.75599e-21
-4.26069e-21
-1.58068e-21
-2.42839e-21
5.42548e-22
1.86452e-22
9.86687e-22
2.76384e-21
-3.8014e-22
-1.78098e-20
-2.10948e-20
-2.14346e-20
-1.78911e-20
-1.61665e-20
-1.49575e-20
-1.61449e-20
-1.56724e-20
-1.34444e-20
-1.45079e-20
-1.29855e-20
-1.11709e-20
-8.49998e-21
-9.96361e-21
-1.12356e-20
-1.06309e-20
-3.31416e-21
-7.35269e-22
1.17422e-21
-2.28663e-21
-6.54814e-21
-7.1512e-21
-9.40668e-21
-1.12797e-20
-1.86974e-21
-1.0573e-22
8.01743e-22
-2.71275e-21
3.67311e-22
-1.95069e-21
-3.62259e-21
-2.60459e-21
-1.8498e-21
-2.94124e-21
-3.41972e-21
4.1509e-22
-1.233e-21
-9.20227e-22
-1.3074e-21
-2.26132e-21
-2.0841e-20
-2.24456e-20
-2.01739e-20
-1.76981e-20
-1.42899e-20
-1.64816e-20
-1.70868e-20
-1.4798e-20
-1.2166e-20
-1.53527e-20
-1.43858e-20
-1.14777e-20
-1.19103e-20
-6.61981e-21
-1.05395e-20
-1.01918e-20
-6.89669e-21
-6.59722e-22
1.42454e-21
-3.12407e-21
-5.29894e-21
-7.0889e-21
-8.77556e-21
-9.89839e-21
-5.29387e-22
-3.46409e-21
-1.42634e-21
-1.05481e-21
2.15706e-21
-2.91264e-21
-3.39859e-21
-2.148e-21
-2.10244e-21
-2.40643e-21
-3.89587e-21
3.3395e-23
1.25869e-21
-1.18813e-21
-2.22511e-21
-1.25212e-21
-2.29436e-20
-2.21652e-20
-1.84558e-20
-1.9438e-20
-1.92376e-20
-1.63768e-20
-1.52931e-20
-1.46639e-20
-1.54278e-20
-1.55241e-20
-1.18087e-20
-1.03778e-20
-1.17008e-20
-7.43927e-21
-1.04905e-20
-6.82815e-21
-3.63743e-21
-2.59827e-21
-4.95756e-21
-4.49508e-21
-5.64128e-21
-4.66624e-21
-8.40178e-21
-8.69947e-21
-4.16132e-21
-9.33129e-22
-5.70049e-22
4.94286e-22
8.81754e-22
9.8545e-23
-4.38327e-21
-2.86152e-21
1.98489e-22
-2.8172e-21
-7.31722e-21
8.10301e-22
1.52548e-21
-1.30871e-21
-1.84595e-21
4.23763e-22
-2.44561e-20
-2.3023e-20
-1.89163e-20
-1.88742e-20
-1.61533e-20
-1.64698e-20
-1.56112e-20
-1.39677e-20
-1.64385e-20
-1.66148e-20
-1.22287e-20
-8.79252e-21
-1.22775e-20
-1.08483e-20
-1.23133e-20
-7.58266e-21
-5.83916e-21
-2.91091e-21
-3.288e-21
-1.74911e-21
-6.69132e-21
-7.51731e-21
-6.78103e-21
-8.43798e-21
-4.23334e-21
-1.18225e-21
-2.22145e-22
2.83351e-22
1.58487e-21
2.48877e-22
-3.51064e-21
-2.48754e-21
-1.13991e-21
-3.25467e-21
-5.0557e-21
-2.03032e-21
8.17207e-22
-1.65012e-21
-2.22769e-21
4.804e-22
-2.50604e-20
-2.24351e-20
-1.90099e-20
-1.7596e-20
-1.55804e-20
-1.47697e-20
-1.78121e-20
-1.5719e-20
-1.51711e-20
-1.47349e-20
-1.19581e-20
-1.1012e-20
-1.46413e-20
-1.15872e-20
-9.06119e-21
-8.41975e-21
-1.14073e-21
-3.19886e-21
-6.92163e-21
-5.21745e-21
-6.9631e-21
-8.9622e-21
-8.90228e-21
-4.60518e-21
-2.21186e-21
-2.59056e-21
5.78463e-22
6.35302e-22
8.83982e-22
8.09323e-22
-4.51691e-21
-2.58488e-21
1.10739e-21
-1.74538e-21
-5.31747e-21
-3.5281e-21
-2.67465e-21
-2.01478e-22
-5.49865e-22
1.18668e-21
-2.2351e-20
-2.19167e-20
-2.01338e-20
-1.75208e-20
-1.64342e-20
-1.65169e-20
-1.71157e-20
-1.7551e-20
-1.4762e-20
-1.20449e-20
-1.37152e-20
-1.48257e-20
-1.54121e-20
-1.15145e-20
-8.71138e-21
-4.46713e-21
-3.5126e-21
-5.07228e-21
-6.35513e-21
-6.09813e-21
-6.49873e-21
-9.1242e-21
-8.14135e-21
-3.75384e-21
-5.17562e-22
-2.91582e-21
-6.21005e-22
-2.4317e-22
-5.80608e-22
5.76444e-22
-8.90884e-22
-2.36836e-21
5.63446e-22
-1.1193e-21
-4.54511e-21
-1.43826e-21
-1.87141e-21
-3.28547e-21
-1.31046e-21
-3.92092e-22
-1.96999e-20
-1.92885e-20
-1.98523e-20
-1.66471e-20
-1.98132e-20
-1.76736e-20
-1.86348e-20
-1.85254e-20
-1.4909e-20
-1.21765e-20
-1.33276e-20
-1.48929e-20
-1.362e-20
-1.11124e-20
-8.23273e-21
-3.76379e-21
-2.05206e-21
-5.69941e-21
-1.06024e-20
-8.33211e-21
-8.23313e-21
-5.16232e-21
-2.5802e-21
-3.09982e-21
5.80082e-22
-2.2997e-21
-1.07977e-21
-1.25705e-21
-1.29422e-21
2.31209e-22
-2.98527e-22
-1.62532e-21
-4.02722e-22
-3.46214e-21
-4.14561e-21
-2.15043e-21
-7.75449e-22
-2.09173e-21
3.12694e-21