/*--------------------------------*- C++ -*----------------------------------*\
| =========                 |                                                 |
| \\      /  F ield         | OpenFOAM: The Open Source CFD Toolbox           |
|  \\    /   O peration     | Version:  v2012                                 |
|   \\  /    A nd           | Website:  www.openfoam.com                      |
|    \\/     M anipulation  |                                                 |
\*---------------------------------------------------------------------------*/
FoamFile
{
    version     2.0;
    format      ascii;
    class       volVectorField;
    location    "22";
    object      U;
}
// * * * * * * * * * * * * * * * * * * * * * * * * * * * * * * * * * * * * * //

dimensions      [0 1 -1 0 0 0 0];


internalField   nonuniform List<vector> 
64000
(
(0.003 2.17036e-19 2.13214e-19)
(0.003 3.68054e-19 3.43408e-19)
(0.003 3.91469e-19 4.27425e-19)
(0.003 3.9383e-19 4.74363e-19)
(0.003 4.8636e-19 4.41049e-19)
(0.003 4.792e-19 3.59762e-19)
(0.003 3.99051e-19 3.01137e-19)
(0.003 2.17364e-19 2.69454e-19)
(0.003 2.41809e-19 3.85853e-19)
(0.003 3.91811e-19 3.12889e-19)
(0.003 3.84453e-19 2.40687e-19)
(0.003 3.52666e-19 3.80645e-19)
(0.003 2.94278e-19 3.08993e-19)
(0.003 2.94298e-19 2.04934e-19)
(0.003 2.52581e-19 2.64343e-19)
(0.003 2.29661e-19 2.92988e-19)
(0.003 1.82117e-19 2.216e-19)
(0.003 5.23145e-20 1.3771e-19)
(0.003 3.37719e-20 2.07445e-20)
(0.003 9.25711e-20 5.19373e-20)
(0.003 1.95739e-20 7.10863e-20)
(0.003 1.19584e-19 1.01808e-19)
(0.003 2.37766e-19 1.06095e-19)
(0.003 2.74486e-19 7.92327e-20)
(0.003 2.90242e-19 1.2876e-19)
(0.003 1.50703e-19 9.26236e-20)
(0.003 4.55133e-20 1.20324e-19)
(0.003 1.03676e-19 1.70355e-19)
(0.003 1.48854e-19 1.87689e-19)
(0.003 1.74722e-20 2.27076e-19)
(0.003 -8.90784e-20 2.34909e-19)
(0.003 1.33594e-21 1.10057e-19)
(0.003 1.50452e-19 1.04101e-19)
(0.003 1.04562e-19 8.72554e-20)
(0.003 5.21242e-20 8.96359e-20)
(0.003 4.25834e-20 9.27321e-20)
(0.003 -1.49659e-19 -1.19491e-19)
(0.003 -2.48098e-19 -1.57951e-19)
(0.003 -1.18181e-19 7.43814e-20)
(0.003 -1.2511e-19 -1.44572e-20)
(0.003 2.47278e-19 3.16057e-19)
(0.003 3.29408e-19 6.85166e-19)
(0.003 5.48124e-19 8.95941e-19)
(0.003 5.02405e-19 8.90905e-19)
(0.003 4.27127e-19 8.2781e-19)
(0.003 5.83734e-19 8.82607e-19)
(0.003 5.25082e-19 7.75554e-19)
(0.003 4.70467e-19 5.99452e-19)
(0.003 4.57426e-19 6.94949e-19)
(0.003 3.97704e-19 8.50309e-19)
(0.003 3.54621e-19 7.80578e-19)
(0.003 3.28205e-19 7.02462e-19)
(0.003 2.46567e-19 5.88537e-19)
(0.003 1.62933e-19 4.83311e-19)
(0.003 1.22388e-19 4.63287e-19)
(0.003 9.38915e-20 4.12825e-19)
(0.003 2.9072e-19 4.18136e-19)
(0.003 2.48782e-19 3.32028e-19)
(0.003 1.77902e-19 1.37239e-19)
(0.003 1.22116e-19 1.09388e-19)
(0.003 1.27005e-19 1.43573e-19)
(0.003 1.67942e-19 2.07525e-19)
(0.003 2.4023e-19 2.05439e-19)
(0.003 2.80411e-19 2.62854e-19)
(0.003 8.27344e-20 2.5873e-19)
(0.003 9.69432e-20 1.32408e-19)
(0.003 1.35394e-19 6.01797e-20)
(0.003 5.47107e-20 1.1532e-19)
(0.003 -1.59518e-20 2.61219e-19)
(0.003 2.24303e-20 2.35596e-19)
(0.003 -1.53809e-20 1.30971e-19)
(0.003 4.1168e-20 1.3007e-19)
(0.003 1.29321e-19 2.47104e-19)
(0.003 4.22547e-20 1.79493e-19)
(0.003 -2.25787e-20 1.96061e-19)
(0.003 -1.43312e-19 6.37695e-20)
(0.003 -2.50495e-19 -2.40488e-19)
(0.003 -1.69458e-19 -2.44316e-19)
(0.003 1.20081e-20 -4.46983e-20)
(0.003 3.5696e-20 -6.49823e-20)
(0.003 1.73255e-19 4.29958e-19)
(0.003 2.12945e-19 7.47661e-19)
(0.003 2.98691e-19 1.01635e-18)
(0.003 4.19459e-19 1.089e-18)
(0.003 4.21859e-19 9.91715e-19)
(0.003 4.5641e-19 9.54156e-19)
(0.003 4.16632e-19 9.28336e-19)
(0.003 4.0633e-19 8.69718e-19)
(0.003 4.21663e-19 9.49766e-19)
(0.003 3.79638e-19 9.90097e-19)
(0.003 3.28741e-19 8.27369e-19)
(0.003 2.64881e-19 7.74278e-19)
(0.003 3.21329e-19 5.89903e-19)
(0.003 1.75779e-19 4.98031e-19)
(0.003 9.07067e-20 5.11003e-19)
(0.003 7.14167e-20 4.79969e-19)
(0.003 1.50642e-19 5.44102e-19)
(0.003 2.13322e-19 4.23888e-19)
(0.003 1.46503e-19 1.40738e-19)
(0.003 1.53776e-19 1.26751e-19)
(0.003 1.09335e-19 2.83487e-19)
(0.003 1.39126e-19 3.02708e-19)
(0.003 2.39e-19 2.64607e-19)
(0.003 1.86859e-19 2.57362e-19)
(0.003 8.62303e-20 1.92109e-19)
(0.003 1.51849e-19 1.6178e-19)
(0.003 8.21027e-20 9.40331e-20)
(0.003 -7.59383e-20 1.29835e-19)
(0.003 -4.79747e-20 1.77311e-19)
(0.003 6.75386e-20 2.85624e-19)
(0.003 7.82562e-20 3.13382e-19)
(0.003 1.0755e-19 3.17227e-19)
(0.003 1.51033e-20 2.2433e-19)
(0.003 -9.59122e-20 1.02468e-19)
(0.003 -6.533e-20 2.39288e-19)
(0.003 -1.17454e-19 1.13288e-19)
(0.003 -1.41394e-19 -2.48428e-19)
(0.003 2.07038e-21 -3.68115e-19)
(0.003 1.18938e-19 -1.75554e-19)
(0.003 1.40748e-19 -9.10928e-20)
(0.003 3.51161e-19 5.61103e-19)
(0.003 2.99723e-19 9.26276e-19)
(0.003 1.85154e-19 1.06695e-18)
(0.003 2.54409e-19 1.16259e-18)
(0.003 3.75887e-19 1.15273e-18)
(0.003 3.54185e-19 1.15261e-18)
(0.003 3.26654e-19 1.06099e-18)
(0.003 2.64854e-19 8.89654e-19)
(0.003 2.48158e-19 9.40699e-19)
(0.003 3.33799e-19 1.0339e-18)
(0.003 3.51805e-19 9.80313e-19)
(0.003 3.01125e-19 9.48617e-19)
(0.003 2.6905e-19 7.96432e-19)
(0.003 1.55213e-19 5.58262e-19)
(0.003 2.37126e-19 5.03459e-19)
(0.003 3.17623e-19 4.54791e-19)
(0.003 1.08554e-19 4.8961e-19)
(0.003 6.18717e-21 4.73959e-19)
(0.003 6.0271e-20 2.59608e-19)
(0.003 9.05519e-20 1.27742e-19)
(0.003 1.95211e-20 2.56838e-19)
(0.003 1.35344e-19 3.5465e-19)
(0.003 2.91363e-19 3.67626e-19)
(0.003 1.95033e-19 3.10044e-19)
(0.003 1.61658e-19 2.2846e-19)
(0.003 9.4198e-20 1.59386e-19)
(0.003 -1.04976e-20 -2.24532e-20)
(0.003 -5.87073e-20 -3.43639e-20)
(0.003 3.55376e-20 2.35612e-19)
(0.003 1.15443e-20 4.36642e-19)
(0.003 1.89077e-21 3.72327e-19)
(0.003 -9.57548e-21 2.61203e-19)
(0.003 -1.17889e-19 2.57904e-19)
(0.003 -1.54051e-19 1.77795e-19)
(0.003 -4.43182e-20 1.65561e-19)
(0.003 -6.20247e-20 1.11257e-19)
(0.003 4.69471e-20 -1.07811e-19)
(0.003 2.02008e-19 -2.32624e-19)
(0.003 2.83531e-19 -1.61096e-19)
(0.003 2.68861e-19 1.42109e-22)
(0.003 1.17175e-19 6.05902e-19)
(0.003 2.10144e-19 1.06066e-18)
(0.003 1.60213e-19 1.15824e-18)
(0.003 1.43848e-19 1.14753e-18)
(0.003 1.94615e-19 1.26673e-18)
(0.003 1.68074e-19 1.25911e-18)
(0.003 2.06033e-19 1.15174e-18)
(0.003 3.69443e-19 9.18708e-19)
(0.003 3.8089e-19 9.11991e-19)
(0.003 3.1621e-19 1.10167e-18)
(0.003 2.58633e-19 1.08645e-18)
(0.003 2.47512e-19 9.70421e-19)
(0.003 2.35799e-19 8.18183e-19)
(0.003 1.52188e-19 6.5045e-19)
(0.003 2.22681e-19 6.05937e-19)
(0.003 3.47326e-19 6.33573e-19)
(0.003 1.26974e-19 5.43998e-19)
(0.003 -8.83704e-20 3.63918e-19)
(0.003 -3.40137e-20 3.0498e-19)
(0.003 6.7516e-20 2.22861e-19)
(0.003 1.0509e-20 2.08266e-19)
(0.003 1.06476e-19 3.63828e-19)
(0.003 2.2999e-19 4.5677e-19)
(0.003 2.12827e-19 3.4607e-19)
(0.003 1.33568e-19 2.94327e-19)
(0.003 5.14561e-20 2.01463e-19)
(0.003 4.69083e-20 4.92114e-20)
(0.003 3.55535e-20 9.88141e-20)
(0.003 2.87358e-21 2.11184e-19)
(0.003 -4.60662e-20 2.03052e-19)
(0.003 8.94291e-20 2.37759e-19)
(0.003 5.34147e-20 2.72652e-19)
(0.003 -1.57913e-19 1.44318e-19)
(0.003 -7.69748e-20 5.24171e-20)
(0.003 -4.38041e-20 1.20848e-19)
(0.003 2.1893e-20 1.36854e-19)
(0.003 1.90036e-19 2.22107e-20)
(0.003 2.23428e-19 -7.67558e-20)
(0.003 1.36606e-19 4.31742e-21)
(0.003 9.77899e-20 7.57871e-20)
(0.003 2.13452e-22 6.74428e-19)
(0.003 1.54428e-19 1.0378e-18)
(0.003 1.17948e-19 1.11946e-18)
(0.003 1.3396e-19 1.19209e-18)
(0.003 1.36047e-19 1.25551e-18)
(0.003 1.65186e-19 1.24113e-18)
(0.003 2.00738e-19 1.17584e-18)
(0.003 4.60537e-19 1.16006e-18)
(0.003 4.53144e-19 1.10889e-18)
(0.003 2.5983e-19 1.05999e-18)
(0.003 2.07914e-19 1.01026e-18)
(0.003 2.48467e-19 1.04646e-18)
(0.003 2.77913e-19 9.82404e-19)
(0.003 2.84871e-19 6.79746e-19)
(0.003 2.37881e-19 6.89578e-19)
(0.003 1.82948e-19 7.29405e-19)
(0.003 1.1773e-20 5.21542e-19)
(0.003 -9.23263e-20 3.40207e-19)
(0.003 -1.44486e-19 2.59207e-19)
(0.003 -6.26456e-20 2.35342e-19)
(0.003 1.24262e-19 2.74214e-19)
(0.003 1.25834e-19 3.705e-19)
(0.003 1.47728e-19 4.39346e-19)
(0.003 2.22528e-19 3.35564e-19)
(0.003 1.5207e-19 2.37994e-19)
(0.003 1.06139e-19 2.43281e-19)
(0.003 7.69023e-20 2.09643e-19)
(0.003 -5.71699e-20 8.89492e-20)
(0.003 -1.63185e-19 1.43936e-19)
(0.003 -7.56879e-20 2.56902e-19)
(0.003 1.25798e-19 3.34078e-19)
(0.003 1.44097e-19 2.34493e-19)
(0.003 2.1027e-20 3.99132e-20)
(0.003 4.45277e-20 7.49029e-20)
(0.003 1.32156e-20 9.74812e-20)
(0.003 1.10126e-19 4.2115e-20)
(0.003 1.56915e-19 7.23965e-20)
(0.003 1.20924e-19 -2.4626e-20)
(0.003 7.50278e-20 -7.04584e-20)
(0.003 6.66257e-20 4.53054e-20)
(0.003 1.08196e-19 7.72956e-19)
(0.003 1.9427e-19 1.1857e-18)
(0.003 1.60159e-19 1.18891e-18)
(0.003 5.75285e-20 1.19434e-18)
(0.003 1.55967e-19 1.30291e-18)
(0.003 1.56274e-19 1.33565e-18)
(0.003 2.17286e-19 1.23897e-18)
(0.003 4.23706e-19 1.21436e-18)
(0.003 4.18538e-19 1.20226e-18)
(0.003 3.03819e-19 1.11732e-18)
(0.003 2.48374e-19 1.0779e-18)
(0.003 2.29052e-19 1.03268e-18)
(0.003 2.34664e-19 9.18312e-19)
(0.003 3.61488e-19 7.77038e-19)
(0.003 2.46708e-19 8.02945e-19)
(0.003 1.4608e-19 7.23003e-19)
(0.003 5.55486e-20 4.58186e-19)
(0.003 2.02701e-20 2.81901e-19)
(0.003 -2.82049e-20 1.81785e-19)
(0.003 -5.43064e-20 1.61154e-19)
(0.003 2.35702e-19 2.70533e-19)
(0.003 2.28221e-19 3.64263e-19)
(0.003 3.54839e-20 3.97513e-19)
(0.003 -1.59374e-20 4.6901e-19)
(0.003 3.50012e-21 3.43927e-19)
(0.003 7.6057e-20 2.22531e-19)
(0.003 4.27138e-20 1.59062e-19)
(0.003 -5.4185e-20 7.57099e-20)
(0.003 -1.35582e-19 7.97635e-20)
(0.003 -9.02371e-20 1.43182e-19)
(0.003 3.16346e-20 2.77662e-19)
(0.003 -8.7987e-21 2.41115e-19)
(0.003 -2.0557e-20 9.40723e-20)
(0.003 1.66181e-19 4.82629e-20)
(0.003 2.77282e-19 1.40492e-19)
(0.003 2.16118e-19 1.6923e-19)
(0.003 9.85026e-20 -3.26011e-20)
(0.003 2.63987e-20 -1.45561e-19)
(0.003 -2.69444e-21 1.87355e-20)
(0.003 1.17896e-20 8.08281e-20)
(0.003 2.27387e-19 6.90702e-19)
(0.003 2.23593e-19 1.11992e-18)
(0.003 2.20047e-19 1.22689e-18)
(0.003 1.74138e-19 1.29985e-18)
(0.003 1.38525e-19 1.4018e-18)
(0.003 1.50506e-19 1.33636e-18)
(0.003 2.94956e-19 1.24266e-18)
(0.003 2.95812e-19 1.3478e-18)
(0.003 3.08001e-19 1.31591e-18)
(0.003 4.09226e-19 1.22064e-18)
(0.003 2.49652e-19 1.06236e-18)
(0.003 1.32816e-19 1.00935e-18)
(0.003 1.19219e-19 8.66928e-19)
(0.003 3.07615e-19 7.49102e-19)
(0.003 2.46143e-19 8.04602e-19)
(0.003 1.25491e-19 7.63116e-19)
(0.003 5.80246e-20 5.15063e-19)
(0.003 1.16443e-19 2.3523e-19)
(0.003 2.41586e-19 1.16023e-19)
(0.003 2.68314e-19 1.42805e-19)
(0.003 2.25623e-19 2.90107e-19)
(0.003 1.00029e-19 4.89485e-19)
(0.003 -6.65672e-20 4.68238e-19)
(0.003 -9.4164e-20 3.95727e-19)
(0.003 -1.12524e-19 3.17939e-19)
(0.003 -7.58522e-21 2.22634e-19)
(0.003 8.44679e-20 9.29255e-20)
(0.003 1.59604e-20 5.65836e-20)
(0.003 -7.11477e-20 9.02768e-20)
(0.003 -2.03207e-20 1.31161e-19)
(0.003 -1.58617e-19 3.22128e-19)
(0.003 -1.27418e-19 2.49549e-19)
(0.003 6.65141e-20 1.47912e-19)
(0.003 1.088e-19 2.06629e-19)
(0.003 2.44455e-19 1.30908e-19)
(0.003 1.28613e-19 -9.04911e-20)
(0.003 -1.00075e-20 -3.16065e-19)
(0.003 -7.28634e-20 -4.37444e-20)
(0.003 -9.23407e-20 1.72954e-19)
(0.003 -1.17048e-20 1.13069e-19)
(0.003 -8.29647e-20 7.06549e-19)
(0.003 1.79088e-20 1.32296e-18)
(0.003 1.78034e-19 1.37447e-18)
(0.003 2.38005e-19 1.37316e-18)
(0.003 1.67166e-19 1.38322e-18)
(0.003 2.86526e-19 1.38267e-18)
(0.003 3.52558e-19 1.3909e-18)
(0.003 1.5357e-19 1.36128e-18)
(0.003 1.6501e-19 1.33153e-18)
(0.003 2.69775e-19 1.26739e-18)
(0.003 2.13858e-19 1.09384e-18)
(0.003 3.7434e-20 1.00898e-18)
(0.003 3.5906e-20 8.52524e-19)
(0.003 2.04144e-19 7.63874e-19)
(0.003 2.36238e-19 7.77247e-19)
(0.003 1.10012e-19 7.49564e-19)
(0.003 1.83385e-19 5.55015e-19)
(0.003 1.89781e-19 2.62589e-19)
(0.003 1.17015e-19 2.21366e-19)
(0.003 1.5875e-19 2.69888e-19)
(0.003 1.23168e-19 3.3027e-19)
(0.003 4.98655e-20 4.80866e-19)
(0.003 7.68618e-20 5.16737e-19)
(0.003 1.18846e-19 4.75101e-19)
(0.003 6.02218e-20 2.31867e-19)
(0.003 -7.5527e-20 1.08105e-19)
(0.003 -7.20212e-20 1.49394e-19)
(0.003 3.32905e-20 8.64056e-20)
(0.003 7.39879e-21 3.72607e-21)
(0.003 -7.12399e-20 1.07034e-19)
(0.003 -1.35587e-19 2.40429e-19)
(0.003 -1.36716e-19 2.82203e-19)
(0.003 1.67156e-20 2.14571e-19)
(0.003 5.59426e-20 1.28073e-19)
(0.003 7.86885e-20 -5.90435e-20)
(0.003 8.27449e-20 -3.03693e-19)
(0.003 1.64552e-20 -2.47604e-19)
(0.003 -7.25278e-20 -2.2548e-20)
(0.003 -3.80595e-20 1.58542e-19)
(0.003 1.46217e-21 1.72282e-19)
(0.003 -2.54489e-19 8.15598e-19)
(0.003 -2.56539e-20 1.24226e-18)
(0.003 1.94456e-19 1.41927e-18)
(0.003 3.01729e-19 1.48174e-18)
(0.003 2.21054e-19 1.49726e-18)
(0.003 2.35021e-19 1.45681e-18)
(0.003 3.25646e-19 1.46551e-18)
(0.003 1.76775e-19 1.37913e-18)
(0.003 1.64833e-19 1.2124e-18)
(0.003 1.73712e-19 1.22266e-18)
(0.003 2.54544e-19 1.14323e-18)
(0.003 6.99563e-20 9.51741e-19)
(0.003 -3.57996e-21 8.65923e-19)
(0.003 3.34172e-20 8.74121e-19)
(0.003 2.10589e-19 8.28252e-19)
(0.003 2.47249e-19 7.05582e-19)
(0.003 2.25804e-19 5.25921e-19)
(0.003 1.17944e-19 3.30386e-19)
(0.003 -9.7632e-20 1.49779e-19)
(0.003 -6.26092e-20 1.89104e-19)
(0.003 6.90193e-20 3.3367e-19)
(0.003 2.00277e-19 5.11017e-19)
(0.003 1.69232e-19 6.24164e-19)
(0.003 1.05689e-19 5.45422e-19)
(0.003 1.50852e-19 3.0255e-19)
(0.003 6.65527e-20 1.67885e-19)
(0.003 -1.24851e-19 7.46527e-20)
(0.003 -1.252e-19 4.58446e-20)
(0.003 5.12801e-20 1.55478e-20)
(0.003 2.21969e-20 1.32587e-19)
(0.003 -2.83459e-20 2.27583e-19)
(0.003 -9.11628e-20 2.56748e-19)
(0.003 -6.39003e-20 2.63522e-19)
(0.003 -4.20163e-20 1.51466e-19)
(0.003 -6.86575e-20 3.53007e-20)
(0.003 5.65475e-20 -2.54353e-19)
(0.003 1.08561e-19 -2.9314e-19)
(0.003 1.43622e-19 -1.66033e-19)
(0.003 1.97403e-19 -5.2437e-20)
(0.003 9.96451e-20 5.92904e-20)
(0.003 1.06709e-19 8.38807e-19)
(0.003 1.93126e-19 1.36799e-18)
(0.003 2.4653e-19 1.57788e-18)
(0.003 2.15608e-19 1.56785e-18)
(0.003 2.07923e-19 1.47644e-18)
(0.003 2.7587e-19 1.43993e-18)
(0.003 1.92076e-19 1.46062e-18)
(0.003 1.45015e-19 1.36123e-18)
(0.003 9.608e-20 1.25807e-18)
(0.003 1.66476e-19 1.2002e-18)
(0.003 3.12276e-19 1.10235e-18)
(0.003 1.992e-19 9.85235e-19)
(0.003 1.39888e-19 8.20174e-19)
(0.003 8.11883e-20 7.79964e-19)
(0.003 8.70086e-20 8.62153e-19)
(0.003 1.46727e-19 8.45446e-19)
(0.003 1.11729e-19 5.07435e-19)
(0.003 1.10064e-20 2.28686e-19)
(0.003 4.77048e-21 1.32493e-19)
(0.003 1.21266e-20 2.25414e-19)
(0.003 1.32967e-19 3.84009e-19)
(0.003 2.4139e-19 5.70947e-19)
(0.003 8.65518e-20 6.57253e-19)
(0.003 6.32789e-20 6.41446e-19)
(0.003 1.16357e-19 2.87707e-19)
(0.003 -3.20777e-20 8.19211e-20)
(0.003 -1.49255e-19 5.62685e-20)
(0.003 -6.97876e-20 8.91494e-20)
(0.003 4.93959e-20 3.06503e-20)
(0.003 -1.92996e-20 1.38183e-19)
(0.003 -7.98946e-20 2.60522e-19)
(0.003 -4.51157e-20 2.23095e-19)
(0.003 -8.64103e-21 2.00421e-19)
(0.003 -5.66369e-20 1.69376e-19)
(0.003 -1.0418e-19 1.02588e-19)
(0.003 -1.41154e-19 -1.52431e-19)
(0.003 -2.87754e-20 -2.75941e-19)
(0.003 1.99151e-19 -1.22307e-19)
(0.003 2.59889e-19 -8.959e-20)
(0.003 1.87557e-19 -9.98723e-20)
(0.003 2.76672e-19 9.32062e-19)
(0.003 2.55721e-19 1.44784e-18)
(0.003 1.68429e-19 1.57043e-18)
(0.003 1.46126e-19 1.48679e-18)
(0.003 2.18128e-19 1.47611e-18)
(0.003 2.04628e-19 1.51934e-18)
(0.003 1.53078e-19 1.43214e-18)
(0.003 2.54158e-19 1.3416e-18)
(0.003 1.74203e-19 1.1745e-18)
(0.003 5.05011e-20 1.22733e-18)
(0.003 1.30773e-19 1.18502e-18)
(0.003 1.5873e-19 1.00551e-18)
(0.003 2.11962e-19 8.93594e-19)
(0.003 2.13534e-19 7.48067e-19)
(0.003 5.94548e-20 8.17063e-19)
(0.003 -8.47201e-20 7.88972e-19)
(0.003 -5.91338e-20 5.6775e-19)
(0.003 9.89029e-20 2.84001e-19)
(0.003 3.04122e-19 1.87142e-19)
(0.003 2.44031e-19 2.5647e-19)
(0.003 1.12222e-19 3.8149e-19)
(0.003 -7.34802e-20 5.24061e-19)
(0.003 -8.2986e-20 5.68945e-19)
(0.003 -3.20443e-21 5.97469e-19)
(0.003 -1.68033e-20 4.02508e-19)
(0.003 -9.23035e-20 1.44956e-19)
(0.003 -4.16026e-20 7.86027e-20)
(0.003 2.43063e-20 1.06251e-19)
(0.003 -4.07754e-20 -1.86596e-20)
(0.003 -1.52946e-19 1.28689e-19)
(0.003 -3.52328e-20 2.51363e-19)
(0.003 -6.73098e-21 2.28599e-19)
(0.003 -1.17688e-19 1.97992e-19)
(0.003 -3.34674e-20 1.32331e-19)
(0.003 -2.50636e-20 8.1595e-20)
(0.003 -1.58817e-19 5.0898e-20)
(0.003 -9.16069e-20 -9.48538e-20)
(0.003 1.32023e-19 -1.90351e-19)
(0.003 1.71567e-19 -2.77585e-19)
(0.003 1.05374e-19 -3.50716e-19)
(0.003 2.4704e-19 9.68921e-19)
(0.003 2.23426e-19 1.42938e-18)
(0.003 1.19955e-19 1.51734e-18)
(0.003 1.8157e-19 1.567e-18)
(0.003 1.20639e-19 1.56293e-18)
(0.003 3.29489e-20 1.50363e-18)
(0.003 1.6484e-19 1.44289e-18)
(0.003 1.52357e-19 1.34777e-18)
(0.003 2.15607e-19 1.27504e-18)
(0.003 1.41129e-19 1.23383e-18)
(0.003 -4.08528e-20 1.11587e-18)
(0.003 4.21334e-20 9.65852e-19)
(0.003 2.22991e-19 8.99202e-19)
(0.003 3.01749e-19 8.35914e-19)
(0.003 1.04022e-19 8.28403e-19)
(0.003 -5.75939e-20 7.15478e-19)
(0.003 -4.48796e-20 4.89215e-19)
(0.003 5.29548e-20 3.07376e-19)
(0.003 2.14628e-19 3.48408e-19)
(0.003 2.39276e-19 3.83483e-19)
(0.003 1.50225e-19 3.94242e-19)
(0.003 3.48336e-20 4.78022e-19)
(0.003 4.61187e-20 5.49685e-19)
(0.003 2.13018e-20 5.69418e-19)
(0.003 -1.39345e-19 3.60984e-19)
(0.003 -4.28535e-20 7.89899e-20)
(0.003 9.49066e-20 1.52355e-20)
(0.003 1.17389e-20 1.02537e-19)
(0.003 -2.11303e-19 2.35676e-20)
(0.003 -2.56381e-19 6.90296e-20)
(0.003 -9.12282e-20 2.59422e-19)
(0.003 9.8234e-21 2.37201e-19)
(0.003 -4.45844e-20 1.13527e-19)
(0.003 -2.07779e-20 1.74495e-19)
(0.003 -8.34536e-20 1.59931e-19)
(0.003 -6.54209e-20 2.83914e-20)
(0.003 9.46493e-20 3.68246e-21)
(0.003 1.28575e-19 -1.65616e-19)
(0.003 5.87117e-20 -4.18318e-19)
(0.003 -5.70903e-21 -4.54525e-19)
(0.003 -5.75782e-21 1.00678e-18)
(0.003 1.88363e-19 1.51175e-18)
(0.003 1.90577e-19 1.5225e-18)
(0.003 3.18363e-20 1.55938e-18)
(0.003 -9.09749e-20 1.52259e-18)
(0.003 -6.60323e-20 1.50622e-18)
(0.003 1.7359e-19 1.43166e-18)
(0.003 2.86776e-19 1.29957e-18)
(0.003 1.62128e-19 1.27287e-18)
(0.003 8.50208e-21 1.27701e-18)
(0.003 -6.35449e-20 1.11209e-18)
(0.003 1.34701e-19 9.26423e-19)
(0.003 2.30113e-19 9.73424e-19)
(0.003 1.72077e-19 9.46422e-19)
(0.003 3.08444e-20 8.90744e-19)
(0.003 -1.23262e-20 7.32261e-19)
(0.003 -2.1869e-20 5.07283e-19)
(0.003 1.49415e-19 3.52984e-19)
(0.003 2.15363e-19 3.19478e-19)
(0.003 1.44186e-19 3.34215e-19)
(0.003 2.29518e-19 4.3047e-19)
(0.003 1.1063e-19 5.2637e-19)
(0.003 -1.96339e-20 5.56038e-19)
(0.003 -2.5824e-20 5.73549e-19)
(0.003 -1.17267e-19 2.77651e-19)
(0.003 -5.48222e-20 -1.9434e-20)
(0.003 2.60697e-20 -1.16368e-19)
(0.003 5.76013e-20 1.02318e-19)
(0.003 -1.05923e-19 9.61416e-20)
(0.003 -2.04211e-19 8.57679e-20)
(0.003 -2.33869e-19 2.89559e-19)
(0.003 -8.03461e-20 2.60569e-19)
(0.003 1.67446e-20 1.4617e-19)
(0.003 -8.50218e-20 1.49553e-19)
(0.003 -1.00755e-19 1.84166e-19)
(0.003 4.77543e-20 -5.53498e-20)
(0.003 1.75466e-19 -3.83896e-19)
(0.003 1.1619e-19 -2.48191e-19)
(0.003 4.49745e-20 -3.38968e-19)
(0.003 -3.58086e-20 -5.13672e-19)
(0.003 -1.91158e-19 1.00557e-18)
(0.003 -1.64304e-19 1.49454e-18)
(0.003 5.81026e-20 1.61479e-18)
(0.003 3.43797e-20 1.48814e-18)
(0.003 3.35604e-20 1.45364e-18)
(0.003 6.09859e-22 1.49442e-18)
(0.003 1.3461e-19 1.532e-18)
(0.003 2.99238e-19 1.42178e-18)
(0.003 4.88556e-20 1.29831e-18)
(0.003 -1.48894e-19 1.22505e-18)
(0.003 7.32201e-20 1.07971e-18)
(0.003 2.50802e-19 9.8718e-19)
(0.003 1.08917e-19 1.07296e-18)
(0.003 -7.85409e-20 9.90426e-19)
(0.003 -4.95417e-20 7.79955e-19)
(0.003 -3.39476e-20 6.95642e-19)
(0.003 5.10749e-20 4.52297e-19)
(0.003 2.68499e-19 3.91331e-19)
(0.003 1.94712e-19 4.5588e-19)
(0.003 1.45792e-19 3.67347e-19)
(0.003 2.3019e-19 5.00135e-19)
(0.003 7.95832e-20 5.70247e-19)
(0.003 -1.38956e-19 6.10722e-19)
(0.003 -2.49569e-19 5.13425e-19)
(0.003 -2.09773e-19 2.08694e-19)
(0.003 -3.85441e-20 9.08934e-21)
(0.003 1.44021e-19 -1.11423e-19)
(0.003 7.57976e-20 4.53959e-20)
(0.003 -5.05032e-20 6.25472e-20)
(0.003 -8.88729e-20 6.90435e-20)
(0.003 -4.38337e-20 2.67214e-19)
(0.003 -1.34626e-20 2.0131e-19)
(0.003 -8.198e-20 9.07166e-20)
(0.003 -1.20675e-19 8.84899e-20)
(0.003 -1.12276e-19 2.15828e-19)
(0.003 -6.84275e-20 -7.10271e-21)
(0.003 7.40032e-20 -3.31468e-19)
(0.003 1.57398e-19 -2.85723e-19)
(0.003 1.06149e-20 -4.00295e-19)
(0.003 -9.34127e-20 -5.56285e-19)
(0.003 -6.45998e-20 9.59272e-19)
(0.003 -2.66655e-19 1.49175e-18)
(0.003 -1.73425e-19 1.6514e-18)
(0.003 -9.3594e-20 1.53945e-18)
(0.003 4.68092e-20 1.52471e-18)
(0.003 6.46228e-20 1.53971e-18)
(0.003 1.41041e-20 1.53441e-18)
(0.003 5.35209e-20 1.49227e-18)
(0.003 -6.00322e-21 1.31447e-18)
(0.003 1.02884e-20 1.11681e-18)
(0.003 1.57634e-19 1.1338e-18)
(0.003 2.15059e-19 1.1383e-18)
(0.003 -2.19667e-20 1.10906e-18)
(0.003 -7.73683e-20 1.01683e-18)
(0.003 -1.48881e-21 8.66504e-19)
(0.003 2.75949e-20 6.53411e-19)
(0.003 6.04723e-20 4.41319e-19)
(0.003 1.21263e-21 3.98389e-19)
(0.003 1.08953e-19 4.64781e-19)
(0.003 2.37593e-19 4.3529e-19)
(0.003 1.03306e-19 5.03361e-19)
(0.003 4.37785e-20 6.45974e-19)
(0.003 -1.2288e-19 5.93511e-19)
(0.003 -3.29526e-19 3.8643e-19)
(0.003 -2.15424e-19 1.33838e-19)
(0.003 -7.67384e-20 1.5562e-19)
(0.003 7.90875e-20 -6.32943e-20)
(0.003 5.40822e-20 -2.27531e-19)
(0.003 1.34781e-20 7.84595e-20)
(0.003 4.63989e-20 1.34383e-19)
(0.003 5.5604e-20 1.88493e-19)
(0.003 1.5952e-20 1.39228e-19)
(0.003 -1.58313e-19 2.89394e-20)
(0.003 -1.10769e-19 1.48853e-19)
(0.003 -3.5708e-20 2.27568e-19)
(0.003 -1.02557e-19 2.44281e-22)
(0.003 -1.15338e-19 -2.9597e-19)
(0.003 -9.61557e-20 -2.37219e-19)
(0.003 -9.13108e-20 -3.21959e-19)
(0.003 1.72958e-20 -5.04852e-19)
(0.003 -1.55025e-19 8.87675e-19)
(0.003 -1.26701e-19 1.41663e-18)
(0.003 1.20478e-20 1.61242e-18)
(0.003 -9.80046e-20 1.57543e-18)
(0.003 -1.58792e-19 1.6005e-18)
(0.003 -1.79996e-20 1.59252e-18)
(0.003 -2.43231e-20 1.60128e-18)
(0.003 -6.53009e-20 1.56451e-18)
(0.003 7.48081e-20 1.3498e-18)
(0.003 2.07767e-19 1.2108e-18)
(0.003 1.33404e-19 1.19646e-18)
(0.003 1.15131e-19 1.19486e-18)
(0.003 2.47097e-20 1.10471e-18)
(0.003 -4.67399e-20 1.02666e-18)
(0.003 -1.37988e-19 7.98379e-19)
(0.003 7.33528e-20 5.56458e-19)
(0.003 1.39576e-19 3.93309e-19)
(0.003 -8.46157e-20 4.60186e-19)
(0.003 2.1902e-21 6.19312e-19)
(0.003 1.96704e-19 5.7394e-19)
(0.003 1.44655e-19 5.80734e-19)
(0.003 5.63344e-20 5.03714e-19)
(0.003 -1.24404e-19 4.10933e-19)
(0.003 -2.60743e-19 2.49348e-19)
(0.003 -1.82313e-19 1.13184e-19)
(0.003 -8.10212e-20 2.11655e-19)
(0.003 -1.39262e-19 7.92688e-20)
(0.003 -1.23713e-19 1.44302e-20)
(0.003 5.43165e-20 5.04332e-20)
(0.003 1.59076e-19 1.13187e-19)
(0.003 2.76301e-20 1.12642e-19)
(0.003 -9.46175e-20 1.31214e-19)
(0.003 -9.60146e-20 9.40908e-20)
(0.003 -1.17146e-19 1.52839e-19)
(0.003 -8.38643e-20 2.08201e-19)
(0.003 -6.86613e-21 8.45895e-21)
(0.003 -1.08519e-19 -3.42634e-19)
(0.003 -1.91637e-19 -3.0642e-19)
(0.003 -1.56088e-19 -4.75842e-19)
(0.003 4.44895e-22 -6.34319e-19)
(0.003 -1.95104e-19 8.25144e-19)
(0.003 -1.94314e-19 1.44541e-18)
(0.003 -1.3548e-19 1.75398e-18)
(0.003 1.09985e-20 1.65546e-18)
(0.003 3.8055e-20 1.54166e-18)
(0.003 -2.98792e-20 1.59507e-18)
(0.003 -1.2418e-19 1.6157e-18)
(0.003 -1.48452e-19 1.51574e-18)
(0.003 3.72931e-20 1.43035e-18)
(0.003 1.11005e-19 1.28474e-18)
(0.003 1.03162e-19 1.1824e-18)
(0.003 1.63387e-20 1.1921e-18)
(0.003 3.81556e-20 1.1029e-18)
(0.003 2.00941e-20 1.01558e-18)
(0.003 2.22629e-20 8.26223e-19)
(0.003 7.37907e-20 7.21978e-19)
(0.003 1.71382e-19 5.65116e-19)
(0.003 3.12084e-19 3.68595e-19)
(0.003 2.58109e-19 4.06074e-19)
(0.003 4.86516e-20 5.35206e-19)
(0.003 -1.3941e-19 6.46395e-19)
(0.003 -1.66602e-19 6.83776e-19)
(0.003 -8.21813e-20 4.1555e-19)
(0.003 -5.71391e-20 2.41745e-19)
(0.003 -1.11213e-19 1.19168e-19)
(0.003 -1.38092e-19 1.88925e-19)
(0.003 -1.37866e-19 1.7468e-19)
(0.003 -2.50205e-19 7.14427e-20)
(0.003 -1.24743e-19 1.08484e-19)
(0.003 8.67287e-21 4.78394e-20)
(0.003 9.11106e-20 -5.43394e-21)
(0.003 -5.3191e-20 7.55465e-20)
(0.003 -3.12874e-20 4.63245e-20)
(0.003 -2.4303e-20 8.77749e-20)
(0.003 -8.31013e-20 1.14894e-19)
(0.003 -1.13588e-19 1.42317e-19)
(0.003 -2.00442e-19 -1.39401e-19)
(0.003 -2.13955e-19 -4.13995e-19)
(0.003 5.57002e-21 -4.63125e-19)
(0.003 1.12034e-19 -5.21481e-19)
(0.003 -1.19901e-19 8.12403e-19)
(0.003 -2.45539e-19 1.40112e-18)
(0.003 -2.15333e-19 1.60842e-18)
(0.003 6.25633e-20 1.66413e-18)
(0.003 1.39344e-19 1.63286e-18)
(0.003 -1.12982e-19 1.59153e-18)
(0.003 -2.62933e-19 1.59925e-18)
(0.003 -1.1967e-19 1.58671e-18)
(0.003 7.79605e-20 1.50739e-18)
(0.003 1.01521e-19 1.37825e-18)
(0.003 2.27266e-20 1.21473e-18)
(0.003 5.28788e-20 1.14042e-18)
(0.003 7.09076e-21 1.08697e-18)
(0.003 -1.6299e-20 1.06037e-18)
(0.003 1.82755e-19 8.66229e-19)
(0.003 8.4743e-20 7.75186e-19)
(0.003 2.32742e-20 6.84795e-19)
(0.003 1.71486e-19 5.7305e-19)
(0.003 2.58427e-19 5.2312e-19)
(0.003 1.15934e-20 3.84834e-19)
(0.003 -1.37324e-19 4.7497e-19)
(0.003 -1.25424e-19 5.82223e-19)
(0.003 -3.02351e-20 5.14673e-19)
(0.003 -6.0809e-20 2.89934e-19)
(0.003 -2.38792e-20 1.25633e-19)
(0.003 -1.23785e-19 1.86503e-19)
(0.003 -2.96542e-20 1.59824e-19)
(0.003 -6.63747e-20 3.35572e-20)
(0.003 -1.11013e-19 4.10997e-21)
(0.003 1.59565e-20 5.93914e-22)
(0.003 9.95782e-20 4.84525e-20)
(0.003 2.06466e-20 -1.55852e-20)
(0.003 2.63489e-20 -5.37545e-20)
(0.003 2.16237e-20 1.18431e-19)
(0.003 -2.40179e-20 9.25585e-20)
(0.003 -2.10192e-19 2.13472e-20)
(0.003 -2.14089e-19 -2.40025e-20)
(0.003 -2.32276e-19 -1.58425e-19)
(0.003 -2.63765e-20 -2.5957e-19)
(0.003 8.3592e-20 -3.3218e-19)
(0.003 4.72792e-20 8.30335e-19)
(0.003 2.81681e-20 1.42543e-18)
(0.003 -1.20704e-20 1.60713e-18)
(0.003 -1.82175e-20 1.64911e-18)
(0.003 -4.58728e-21 1.67545e-18)
(0.003 -1.17729e-19 1.54414e-18)
(0.003 -2.06694e-19 1.49165e-18)
(0.003 -2.44102e-19 1.59317e-18)
(0.003 -1.34712e-19 1.58501e-18)
(0.003 1.29761e-19 1.44496e-18)
(0.003 1.78198e-19 1.21946e-18)
(0.003 9.46669e-20 1.21707e-18)
(0.003 6.21674e-20 1.03857e-18)
(0.003 3.69074e-20 1.04785e-18)
(0.003 1.2047e-19 1.05929e-18)
(0.003 2.83749e-20 8.58415e-19)
(0.003 -7.40899e-20 5.75417e-19)
(0.003 -2.06631e-19 4.08044e-19)
(0.003 -1.47616e-19 5.47031e-19)
(0.003 -2.85997e-20 4.66526e-19)
(0.003 1.00314e-20 4.67632e-19)
(0.003 1.12623e-20 5.89675e-19)
(0.003 -4.62752e-20 6.07375e-19)
(0.003 3.7668e-20 2.74957e-19)
(0.003 1.3997e-19 9.28848e-20)
(0.003 2.76772e-20 1.48267e-19)
(0.003 6.26766e-20 2.23063e-19)
(0.003 1.02609e-19 8.07016e-20)
(0.003 8.6514e-20 1.92434e-20)
(0.003 -1.84599e-20 -4.9564e-20)
(0.003 -8.4611e-20 8.63797e-20)
(0.003 -6.90048e-20 4.00484e-20)
(0.003 2.5826e-20 3.57736e-21)
(0.003 -2.75722e-20 5.24419e-20)
(0.003 -8.14917e-21 6.13248e-20)
(0.003 -1.83523e-21 3.79015e-20)
(0.003 -3.24151e-20 1.46417e-22)
(0.003 -7.38814e-20 -2.55993e-19)
(0.003 -1.45974e-19 -3.92092e-19)
(0.003 -1.27908e-19 -3.90329e-19)
(0.003 2.59406e-19 8.20621e-19)
(0.003 2.66308e-19 1.3559e-18)
(0.003 -1.41377e-20 1.58611e-18)
(0.003 -1.37137e-19 1.61799e-18)
(0.003 -8.66661e-20 1.60793e-18)
(0.003 1.25386e-20 1.56844e-18)
(0.003 -3.73932e-20 1.53842e-18)
(0.003 -2.51192e-19 1.50271e-18)
(0.003 -2.6804e-19 1.457e-18)
(0.003 -2.63496e-21 1.54628e-18)
(0.003 2.33759e-19 1.45642e-18)
(0.003 1.494e-20 1.31107e-18)
(0.003 4.99307e-20 1.17152e-18)
(0.003 1.92463e-19 1.03195e-18)
(0.003 7.22652e-20 9.9902e-19)
(0.003 -3.31274e-20 8.16247e-19)
(0.003 -1.17766e-19 5.78771e-19)
(0.003 -1.87684e-19 4.31051e-19)
(0.003 -2.47958e-19 5.16275e-19)
(0.003 -1.56309e-19 4.85465e-19)
(0.003 -5.2486e-20 5.18061e-19)
(0.003 -1.57297e-19 5.19515e-19)
(0.003 -7.6618e-20 5.08692e-19)
(0.003 1.19826e-19 3.98e-19)
(0.003 1.88469e-19 2.64276e-19)
(0.003 1.38592e-19 1.70837e-19)
(0.003 1.23326e-20 1.49389e-19)
(0.003 1.44585e-19 5.72975e-20)
(0.003 1.40857e-19 -4.95522e-20)
(0.003 -6.73025e-20 -2.34369e-19)
(0.003 -5.01498e-20 6.67823e-22)
(0.003 -5.66191e-20 1.90853e-20)
(0.003 -1.80782e-20 3.05055e-20)
(0.003 -2.02645e-20 6.56292e-20)
(0.003 5.07711e-20 8.51158e-20)
(0.003 1.76624e-19 3.80997e-20)
(0.003 5.04144e-20 -1.76142e-20)
(0.003 -4.18602e-20 -1.29342e-19)
(0.003 -1.37816e-19 -3.16462e-19)
(0.003 -2.82641e-19 -2.4778e-19)
(0.003 2.67581e-19 8.8608e-19)
(0.003 2.8731e-19 1.44634e-18)
(0.003 4.26278e-20 1.57991e-18)
(0.003 -4.68462e-20 1.57493e-18)
(0.003 -6.67089e-20 1.55573e-18)
(0.003 5.68772e-20 1.51594e-18)
(0.003 -6.54676e-21 1.52124e-18)
(0.003 -8.40881e-20 1.47471e-18)
(0.003 -1.14596e-19 1.44779e-18)
(0.003 -1.14591e-19 1.58517e-18)
(0.003 -4.11839e-20 1.51777e-18)
(0.003 -6.06727e-21 1.27073e-18)
(0.003 -8.66806e-21 1.18466e-18)
(0.003 -5.34602e-20 1.15292e-18)
(0.003 -8.27119e-20 9.96416e-19)
(0.003 -8.14837e-20 8.06172e-19)
(0.003 -1.54994e-19 5.9687e-19)
(0.003 -2.12422e-19 4.41131e-19)
(0.003 -3.01351e-19 4.49765e-19)
(0.003 -1.83587e-19 4.78744e-19)
(0.003 -1.50602e-19 5.58025e-19)
(0.003 -1.22846e-19 4.89833e-19)
(0.003 1.58151e-19 4.77008e-19)
(0.003 1.69395e-19 3.67132e-19)
(0.003 1.03105e-19 2.08066e-19)
(0.003 1.52478e-19 1.93628e-19)
(0.003 7.43037e-20 1.25067e-19)
(0.003 8.51802e-20 4.85692e-20)
(0.003 1.24278e-19 -1.41955e-20)
(0.003 7.52087e-20 -1.75477e-19)
(0.003 4.12062e-20 -7.66461e-20)
(0.003 6.62322e-20 -1.69171e-20)
(0.003 2.02772e-21 -5.243e-20)
(0.003 -1.25046e-20 5.42452e-20)
(0.003 7.62851e-20 1.83225e-19)
(0.003 1.80129e-19 1.06973e-19)
(0.003 1.37345e-19 -1.26578e-19)
(0.003 -6.10454e-20 -2.85501e-19)
(0.003 -5.6578e-20 -2.51792e-19)
(0.003 -9.08489e-20 -8.7805e-20)
(0.003 -9.78842e-20 8.85793e-19)
(0.003 -4.62731e-20 1.47809e-18)
(0.003 6.27797e-20 1.5487e-18)
(0.003 -4.46821e-21 1.5136e-18)
(0.003 -2.78603e-20 1.51281e-18)
(0.003 6.25863e-20 1.57279e-18)
(0.003 7.10219e-20 1.55041e-18)
(0.003 1.22721e-19 1.40327e-18)
(0.003 -3.54097e-20 1.34095e-18)
(0.003 -2.10798e-19 1.48274e-18)
(0.003 -2.2247e-19 1.53009e-18)
(0.003 -9.12223e-20 1.40868e-18)
(0.003 -1.53992e-19 1.25621e-18)
(0.003 -2.00281e-19 1.01218e-18)
(0.003 -1.32303e-19 8.47159e-19)
(0.003 -1.95477e-19 8.29272e-19)
(0.003 -1.86799e-19 7.10489e-19)
(0.003 -1.22899e-19 4.55115e-19)
(0.003 -2.099e-19 3.8897e-19)
(0.003 -1.69534e-19 4.69217e-19)
(0.003 -1.4143e-19 4.62837e-19)
(0.003 -2.74958e-20 4.94713e-19)
(0.003 3.08177e-20 5.45029e-19)
(0.003 7.95186e-20 4.10709e-19)