/*--------------------------------*- C++ -*----------------------------------*\
| =========                 |                                                 |
| \\      /  F ield         | OpenFOAM: The Open Source CFD Toolbox           |
|  \\    /   O peration     | Version:  v2012                                 |
|   \\  /    A nd           | Website:  www.openfoam.com                      |
|    \\/     M anipulation  |                                                 |
\*---------------------------------------------------------------------------*/
FoamFile
{
    version     2.0;
    format      ascii;
    class       volScalarField;
    location    "23";
    object      p;
}
// * * * * * * * * * * * * * * * * * * * * * * * * * * * * * * * * * * * * * //

dimensions      [0 2 -2 0 0 0 0];


internalField   nonuniform List<scalar> 
64000
(
8.72752e-22
-3.49249e-21
-2.29814e-21
-4.36397e-21
-7.05999e-21
-1.79936e-21
-3.19004e-21
-2.60059e-21
-4.07623e-21
-3.13583e-21
-3.08963e-21
-5.67296e-21
-3.23444e-21
-5.54421e-21
-3.3032e-21
-4.83758e-21
-1.05825e-21
-7.4098e-22
-5.36166e-22
-7.22127e-22
-1.5364e-21
-2.50807e-21
-1.63077e-21
9.25483e-22
-4.84687e-21
-1.57677e-21
3.79518e-22
-2.77857e-21
-1.93343e-21
-1.60152e-21
-1.51194e-21
-9.21867e-22
-1.37394e-21
-9.68659e-22
-1.09949e-21
-5.54561e-21
-2.65825e-21
9.59496e-22
1.28362e-21
1.06312e-21
-6.03757e-21
-9.65427e-21
-9.10111e-21
-6.53771e-21
-8.62258e-21
-1.02283e-20
-6.50983e-21
-2.20857e-21
-3.58969e-21
-7.09845e-21
-6.00213e-21
-8.45996e-21
-3.08912e-21
-3.67176e-21
-6.25599e-21
-6.4432e-21
-4.55295e-21
1.01301e-21
-1.77448e-21
-1.31972e-21
1.11569e-21
-3.02576e-21
-5.77299e-21
-6.61405e-21
-5.98868e-21
-6.10465e-22
-1.06382e-21
-3.68697e-21
-2.45487e-21
-1.27437e-21
1.91705e-21
-1.25633e-23
-4.54786e-21
-2.85692e-21
-1.25445e-21
-2.63561e-21
-3.57091e-21
7.07551e-22
1.34708e-21
1.0531e-21
-5.11204e-21
-7.30326e-21
-1.22417e-20
-9.19757e-21
-7.45565e-21
-9.95902e-21
-7.55099e-21
-6.41935e-21
-7.03754e-21
-7.55952e-21
-5.41199e-21
-7.37132e-21
-4.29701e-21
-3.54889e-21
-3.32534e-21
-1.9643e-21
-8.07517e-21
-3.00154e-21
-9.36366e-22
-3.1215e-22
-1.50688e-21
-4.71314e-21
-6.89797e-21
-4.261e-21
-2.28667e-21
-2.55908e-21
-3.72066e-21
-3.70228e-21
-6.56967e-22
-2.16613e-21
-8.43924e-22
-1.44703e-21
-4.92733e-21
-1.23399e-22
-1.1785e-21
-2.63905e-21
-1.96911e-22
1.09255e-21
-3.81134e-23
8.45606e-22
-9.00499e-21
-8.54637e-21
-9.53199e-21
-1.25312e-20
-1.11747e-20
-1.11936e-20
-8.25464e-21
-4.9171e-21
-7.55171e-21
-8.18469e-21
-7.25247e-21
-7.31417e-21
-6.79306e-21
-3.81725e-21
-4.68784e-21
-3.64738e-21
-4.8582e-21
-2.93384e-21
5.15861e-22
-8.87404e-22
-2.25555e-21
-6.07012e-21
-7.7776e-21
-4.5201e-21
-3.14143e-21
-3.83661e-21
-2.54407e-21
-1.83362e-22
-1.48624e-21
-3.09044e-21
5.53674e-22
-2.13638e-21
-4.91684e-21
-2.2189e-22
-2.25602e-22
-7.43528e-22
-3.30743e-22
-1.09824e-21
-1.44234e-21
-5.58696e-22
-1.49458e-20
-9.26464e-21
-1.0359e-20
-9.74605e-21
-1.17358e-20
-1.25561e-20
-8.73786e-21
-2.7076e-21
-6.40422e-21
-9.46279e-21
-7.20058e-21
-7.17524e-21
-5.90091e-21
-1.60158e-21
-6.49697e-21
-9.29401e-21
-4.99981e-21
1.72562e-22
-1.464e-21
-1.98756e-21
-1.01443e-21
-6.64138e-21
-9.80712e-21
-4.81999e-21
-2.47197e-21
-2.69758e-21
-9.57301e-22
-1.45453e-21
-4.0481e-21
-3.9974e-22
8.79579e-22
-6.65463e-22
-1.44732e-21
1.57189e-21
-2.06008e-21
-4.96e-22
-1.1442e-21
1.29149e-22
-1.2141e-21
-2.26346e-21
-1.11389e-20
-1.05228e-20
-1.00511e-20
-1.20842e-20
-1.14122e-20
-1.02832e-20
-7.11002e-21
-9.54018e-21
-9.18395e-21
-8.22588e-21
-5.70403e-21
-7.3513e-21
-7.65326e-21
-2.16312e-21
-5.40564e-21
-8.4352e-21
-4.19945e-21
-7.45901e-23
-4.52844e-22
-2.9012e-21
7.44625e-22
-5.77584e-21
-1.12651e-20
-6.3135e-21
-3.71484e-21
-2.63437e-21
-3.25251e-21
-4.58267e-22
-1.25192e-21
-2.27311e-21
-2.31235e-21
-1.94095e-21
-8.05812e-22
9.50976e-22
-1.74752e-22
-9.10612e-22
-2.89964e-21
-2.01936e-21
-5.12789e-22
1.72069e-22
-1.17835e-20
-1.18413e-20
-9.31364e-21
-1.08824e-20
-1.17919e-20
-1.18939e-20
-7.72905e-21
-9.41637e-21
-9.74344e-21
-7.07219e-21
-6.63e-21
-8.47825e-21
-6.75382e-21
-5.04552e-21
-6.00266e-21
-7.56435e-21
-3.61695e-21
1.58956e-21
2.3943e-21
-1.43432e-21
-3.88261e-21
-7.24309e-21
-1.22641e-20
-7.97717e-21
-3.49381e-21
-3.089e-21
-2.25056e-21
-2.47251e-23
7.30377e-23
-4.57967e-22
-3.69701e-21
-3.65899e-21
1.08839e-22
7.81482e-23
-1.10076e-21
-3.07926e-21
-2.51738e-21
1.78825e-22
-3.79055e-22
-1.01214e-21
-1.28999e-20
-1.12388e-20
-1.05819e-20
-8.73674e-21
-1.31365e-20
-1.01624e-20
-6.97733e-21
-1.32156e-20
-1.08723e-20
-9.06778e-21
-7.3124e-21
-8.27344e-21
-8.1877e-21
-7.49929e-21
-5.16989e-21
-7.96842e-21
-2.95438e-21
-7.36905e-23
6.28755e-22
1.93996e-22
-5.36391e-21
-8.9519e-21
-8.16986e-21
-5.47307e-21
-3.35947e-21
-4.70878e-21
-1.91567e-21
5.91319e-22
1.38524e-22
-1.65719e-21
-3.8905e-21
-3.18536e-21
-8.42991e-23
-1.72547e-21
-3.55217e-21
-5.05292e-21
-1.89513e-21
6.65084e-22
9.71595e-22
-4.97841e-22
-1.81011e-20
-1.32573e-20
-1.10512e-20
-9.4934e-21
-1.05754e-20
-1.1813e-20
-1.03569e-20
-1.05711e-20
-1.20821e-20
-1.20707e-20
-4.78166e-21
-7.18017e-21
-7.06309e-21
-1.03333e-20
-6.90777e-21
-7.75039e-21
-3.29164e-21
2.34728e-21
-3.93686e-21
-4.75093e-21
-3.73931e-21
-6.69444e-21
-6.91623e-21
-7.81541e-21
-4.34429e-22
-2.33603e-21
-4.70483e-21
-1.8847e-21
6.77985e-22
-1.97262e-21
-1.38321e-21
-1.61615e-21
-1.89975e-21
-2.1714e-21
-5.9371e-21
-2.95934e-21
-1.60886e-21
2.30206e-21
1.84068e-21
-9.5664e-22
-8.81028e-21
-1.18028e-20
-1.20007e-20
-9.50029e-21
-1.12985e-20
-1.2619e-20
-1.03095e-20
-1.01127e-20
-1.15619e-20
-1.10783e-20
-7.20524e-21
-6.16069e-21
-6.62436e-21
-1.05881e-20
-9.40176e-21
-5.24262e-21
-3.71419e-21
-1.91108e-21
7.68822e-22
-3.03934e-21
-4.85288e-21
-4.70471e-21
-9.13573e-21
-5.98565e-21
-2.85392e-21
-3.35843e-21
-2.90977e-21
-1.24353e-21
1.5222e-22
-1.77406e-21
-2.25172e-21
-9.5286e-22
-2.00133e-21
-2.86812e-21
-6.83995e-21
-3.8041e-21
-2.31441e-22
2.39046e-21
2.05688e-21
-1.36317e-22
-8.39241e-21
-1.26451e-20
-1.32161e-20
-1.34826e-20
-9.76946e-21
-1.18266e-20
-1.44657e-20
-8.1047e-21
-1.26955e-20
-1.37674e-20
-8.25057e-21
-5.01247e-21
-5.66645e-21
-8.65624e-21
-9.53152e-21
-9.37022e-21
-4.86734e-21
1.37459e-22
2.91757e-21
-1.83344e-21
-6.10766e-21
-1.10321e-20
-8.34809e-21
-6.03628e-21
-3.47593e-21
-2.81529e-21
-3.4545e-22
1.17933e-22
-1.80424e-21
-3.11009e-21
-2.11169e-21
8.59814e-22
-4.00018e-21
-2.41323e-21
-3.82242e-21
-3.8849e-21
-1.31454e-21
-4.06065e-22
-1.67237e-22
-6.5421e-22
-1.05328e-20
-1.45678e-20
-1.56421e-20
-1.06373e-20
-1.09157e-20
-1.53586e-20
-1.04447e-20
-1.04612e-20
-8.93016e-21
-1.21767e-20
-1.47133e-20
-7.14808e-21
-5.85185e-21
-8.7914e-21
-9.29609e-21
-8.97406e-21
-4.22815e-21
1.75137e-21
4.12515e-22
-1.22803e-21
-6.03371e-21
-1.00443e-20
-8.40923e-21
-7.40631e-21
-6.39311e-21
-2.50165e-22
3.55215e-22
-4.21149e-22
-2.34042e-21
-7.52413e-22
-3.30963e-23
-8.73985e-22
-1.64029e-21
-2.74083e-21
-2.56596e-21
-1.19251e-21
-8.09664e-22
-1.8048e-21
-9.66536e-22
-1.42145e-21
-1.4892e-20
-1.48656e-20
-1.50437e-20
-1.20078e-20
-1.34288e-20
-1.32744e-20
-1.28216e-20
-1.21215e-20
-1.36991e-20
-1.17239e-20
-1.05397e-20
-5.78201e-21
-7.76342e-21
-9.84381e-21
-7.1352e-21
-5.84458e-21
-3.61587e-21
-4.11417e-22
-9.08912e-22
-3.07235e-21
-5.43188e-21
-6.67627e-21
-7.91738e-21
-6.64556e-21
-3.24451e-21
-4.35505e-22
-7.1332e-23
-1.123e-21
-1.5682e-22
1.90665e-22
-3.95231e-21
-1.38217e-21
1.03146e-21
-3.87313e-21
-2.38725e-21
-6.05166e-22
-1.85727e-21
-3.77687e-21
-1.93127e-21
-1.13211e-21
-1.82872e-20
-1.77993e-20
-1.41518e-20
-1.33596e-20
-1.08108e-20
-1.20545e-20
-1.27248e-20
-1.00113e-20
-1.02398e-20
-1.37692e-20
-9.31844e-21
-5.74698e-21
-9.97359e-21
-1.41113e-20
-8.37212e-21
-5.53297e-21
-2.2223e-21
1.42407e-21
-1.37817e-21
-3.08736e-21
-6.59178e-21
-7.91179e-21
-7.49238e-21
-9.57595e-21
-2.12665e-21
-5.83313e-22
-9.18045e-23
-3.1985e-22
1.2223e-21
1.6291e-21
-1.92033e-21
-2.82996e-21
-1.04661e-21
-1.43199e-21
-1.58842e-21
-2.70063e-21
-3.19898e-21
-2.99796e-21
-1.5609e-21
-2.18462e-21
-1.22781e-20
-1.93227e-20
-1.74771e-20
-1.08125e-20
-8.57029e-21
-1.16819e-20
-1.66502e-20
-1.65366e-20
-1.15501e-20
-9.15804e-21
-7.25201e-21
-9.53216e-21
-1.05079e-20
-1.245e-20
-5.17792e-21
-5.60927e-21
-3.3201e-21
-3.30806e-21
-3.83616e-21
-2.60763e-21
-8.35922e-21
-5.20632e-21
-5.54407e-21
-9.26307e-21
-1.12145e-21
-1.27215e-21
-1.39267e-21
-5.38019e-22
1.58803e-21
1.39923e-21
3.3362e-22
-1.26786e-21
-1.66066e-21
-8.76691e-22
-1.54031e-21
-3.51678e-21
-4.18849e-21
-4.24541e-21
-2.32584e-21
5.6029e-23
-1.35148e-20
-1.3611e-20
-1.63539e-20
-1.22065e-20
-1.25793e-20
-1.08647e-20
-1.52076e-20
-1.66405e-20
-9.93659e-21
-7.41889e-21
-1.20511e-20
-1.16594e-20
-8.71804e-21
-9.19456e-21
-8.42876e-21
-6.94931e-21
-3.22797e-21
-3.99352e-21
-3.29673e-21
-3.76593e-21
-9.11452e-21
-6.7231e-21
-4.30985e-21
-3.99822e-21
-9.19697e-22
-3.01333e-21
-4.27288e-21
-2.94165e-21
2.83103e-21
2.39022e-21
-1.07611e-21
-1.32651e-21
-8.80706e-23
-1.05431e-21
-1.45828e-21
-1.94527e-21
-5.08412e-21
-3.65319e-21
-1.01836e-21
-2.86255e-23
-1.40316e-20
-1.22661e-20
-1.49459e-20
-1.02536e-20
-1.0013e-20
-1.20356e-20
-1.53972e-20
-1.70672e-20
-9.31515e-21
-9.98504e-21
-1.17926e-20
-1.41506e-20
-5.54935e-21
-8.21151e-21
-7.24416e-21
-6.35004e-21
-5.3222e-21
-2.93536e-21
-4.84728e-21
-5.86035e-21
-8.17729e-21
-5.20235e-21
-3.72519e-21
-1.64488e-21
-1.21183e-21
-1.62222e-21
-2.6256e-21
-2.4654e-21
1.12695e-21
-7.64255e-22
-1.86452e-21
-1.86048e-21
6.2774e-22
-8.17203e-22
-1.93017e-21
-1.62342e-21
-3.40128e-21
-2.89735e-21
3.60974e-22
-1.80703e-21
-1.03908e-20
-1.33012e-20
-1.82325e-20
-1.04422e-20
-6.76891e-21
-1.20851e-20
-1.63231e-20
-1.53209e-20
-1.1552e-20
-9.24164e-21
-1.16532e-20
-1.25686e-20
-8.61427e-21
-8.02876e-21
-4.23848e-21
-9.41342e-21
-7.28097e-21
4.08809e-22
-2.73476e-21
-6.80211e-21
-8.64355e-21
-8.12148e-21
-8.607e-22
-5.79661e-22
1.66828e-21
-4.05145e-21
-2.85017e-21
-9.36943e-22
-1.59363e-22
-3.82497e-22
-1.22644e-21
-5.93132e-22
-1.59399e-22
-3.1313e-22
-2.61327e-24
-2.78344e-21
-2.9142e-21
-4.02837e-21
-7.40885e-22
-8.60915e-22
-8.08086e-21
-1.00413e-20
-1.3397e-20
-1.25133e-20
-1.13291e-20
-1.1992e-20
-1.33197e-20
-1.26978e-20
-1.1902e-20
-1.05503e-20
-1.22438e-20
-1.11018e-20
-7.62607e-21
-8.14478e-21
-4.91129e-21
-7.90248e-21
-7.91356e-21
-7.71069e-21
-1.03345e-20
-3.96935e-21
-4.59432e-21
-1.89393e-21
-1.60322e-21
-6.58306e-22
9.41161e-22
-1.36311e-21
-1.81585e-21
7.10545e-22
3.40792e-22
-1.14195e-21
-4.25564e-21
-1.74521e-21
7.07685e-22
-6.29316e-22
-9.3329e-22
-1.11137e-21
-1.40067e-21
-3.10743e-21
-4.1043e-21
-2.80565e-21
-5.64114e-21
-9.58705e-21
-1.61148e-20
-1.41353e-20
-1.22181e-20
-9.53222e-21
-8.99661e-21
-1.50441e-20
-1.332e-20
-1.26564e-20
-9.93546e-21
-1.08757e-20
-5.55279e-21
-6.93494e-21
-9.06559e-21
-8.97529e-21
-5.43915e-21
-4.31262e-21
-1.00072e-20
-4.53386e-21
-5.35033e-21
-4.72447e-21
-2.60712e-21
5.68772e-22
1.69025e-21
1.36142e-21
-5.85696e-21
-1.48588e-21
-4.70991e-24
-7.50884e-22
-4.17879e-21
-7.9072e-22
-7.84434e-22
-9.10759e-22
-1.51422e-21
-1.13111e-22
-1.91791e-21
-1.71097e-21
-2.58175e-21
-2.63151e-21
-8.56863e-21
-1.02736e-20
-1.45806e-20
-1.29907e-20
-1.24216e-20
-9.45337e-21
-8.96537e-21
-1.05467e-20
-1.25847e-20
-1.37687e-20
-1.61064e-20
-9.87103e-21
-7.26394e-21
-5.92902e-21
-8.58597e-21
-7.19922e-21
-7.17568e-21
-3.0623e-21
-5.39825e-21
-4.77983e-21
-5.1562e-21
-4.70399e-21
-1.21093e-21
-1.98006e-21
-2.95364e-21
5.00028e-22
-2.79012e-21
-2.50778e-21
-7.77746e-22
6.80009e-22
-2.33262e-21
-7.95302e-22
-2.84875e-21
1.39403e-21
-1.94743e-21
-2.13858e-21
-5.80356e-22
-2.47821e-21
-1.42299e-21
-3.13816e-21
-1.41609e-20
-1.22903e-20
-1.26157e-20
-1.22119e-20
-1.15528e-20
-1.00239e-20
-1.03712e-20
-8.2626e-21
-1.04105e-20
-1.41672e-20
-1.56163e-20
-8.25511e-21
-7.88257e-21
-1.2573e-20
-9.10066e-21
-6.21756e-21
-3.60535e-21
-2.18971e-21
-5.73143e-21
-5.21916e-21
-5.38295e-21
-1.15238e-21
-2.21214e-21
-2.67787e-21
-1.05306e-21
-1.19741e-21
-4.13361e-21
-3.64924e-21
-3.39575e-22
9.67325e-22
-3.16304e-21
-5.64677e-22
-4.02091e-22
1.43674e-22
-2.92955e-21
-5.62591e-21
-9.33286e-22
-1.72356e-21
-6.49917e-22
4.80382e-22
-1.5086e-20
-1.62553e-20
-1.17561e-20
-1.15737e-20
-1.17888e-20
-1.30344e-20
-9.35252e-21
-8.46426e-21
-1.2738e-20
-1.07461e-20
-1.37233e-20
-1.05099e-20
-8.7896e-21
-7.01337e-21
-7.27298e-21
-6.95418e-21
-4.6434e-21
5.47782e-22
3.26639e-22
-5.30334e-21
-6.16507e-21
-3.02518e-21
-5.26767e-21
-4.82807e-21
-2.59642e-21
-2.67858e-21
-2.58387e-21
-2.23477e-21
-2.32672e-22
4.11393e-22
-4.195e-21
-1.54476e-21
4.08716e-22
5.48568e-22
-2.83592e-21
-4.35137e-21
-2.71777e-21
-2.31868e-22
-1.69785e-21
-1.37314e-21
-1.00872e-20
-1.24688e-20
-1.49972e-20
-1.07126e-20
-1.13932e-20
-1.26214e-20
-1.19829e-20
-1.23559e-20
-8.8163e-21
-1.05209e-20
-1.25696e-20
-1.21058e-20
-4.42378e-21
-8.89767e-21
-1.09411e-20
-5.45385e-21
5.27728e-22
-1.76895e-21
-3.13148e-21
-3.93208e-21
-5.25903e-21
-4.59094e-21
-3.88906e-21
-3.37136e-21
-5.99478e-21
-3.05872e-21
-1.87974e-21
-3.73735e-21
2.21795e-21
-4.78919e-22
-3.17004e-21
-1.72765e-21
-9.59403e-22
-3.23686e-21
-4.49049e-21
-3.55678e-21
-2.29336e-21
-1.99367e-23
-2.73829e-21
-2.79228e-21
-7.41975e-21
-1.28798e-20
-1.30893e-20
-1.21029e-20
-1.00099e-20
-1.32047e-20
-1.18077e-20
-1.07724e-20
-7.70307e-21
-1.17136e-20
-1.4404e-20
-1.07031e-20
-3.49775e-21
-6.59785e-21
-8.5398e-21
-3.46305e-21
-2.7603e-21
-5.98322e-21
-2.51727e-21
-1.02157e-21
-4.95073e-21
-4.91824e-21
-2.1955e-21
-5.05815e-21
-6.47609e-21
-4.66582e-21
-1.82019e-21
-5.73763e-22
-7.17761e-22
-1.9046e-21
-6.43197e-22
-2.58822e-21
-4.17069e-21
1.09641e-22
-4.62829e-21
-2.55452e-21
-1.22074e-21
-1.41419e-21
-2.80137e-21
-1.32146e-21
-1.13078e-20
-1.57604e-20
-1.41143e-20
-1.02305e-20
-9.17577e-21
-1.17218e-20
-1.14729e-20
-1.23355e-20
-7.82738e-21
-9.51732e-21
-1.47388e-20
-1.23208e-20
-4.46011e-21
-7.15667e-21
-3.17318e-21
-4.56581e-21
-5.24609e-21
-4.81055e-22
3.06607e-22
-3.74778e-21
-3.62096e-21
-3.53515e-21
-8.98123e-21
-9.11781e-21
-7.52053e-21
-5.28129e-21
1.09188e-21
-3.40569e-21
-3.14395e-21
1.71616e-22
-9.04411e-22
-2.79023e-21
-3.08979e-21
-9.6228e-22
-1.67424e-21
2.91098e-24
1.40143e-22
-4.95592e-21
-6.07897e-22
-2.85096e-22
-6.82153e-21
-1.15295e-20
-1.33222e-20
-1.57863e-20
-1.3122e-20
-1.3431e-20
-1.06077e-20
-6.17971e-21
-8.99523e-21
-1.09411e-20
-1.444e-20
-1.13034e-20
-5.15821e-21
-6.4617e-21
-4.29456e-21
-7.89814e-21
-5.24261e-21
-2.42375e-21
3.35965e-21
-1.75696e-22
-1.0899e-21
-6.22329e-21
-6.68312e-21
-7.62576e-21
-7.90885e-21
-4.42386e-21
1.18747e-21
5.42946e-22
-4.75849e-21
-1.02208e-21
1.58455e-21
-1.50657e-21
-2.14741e-21
-1.33506e-21
-4.18085e-21
1.09327e-21
-9.04433e-22
-6.86902e-21
-3.46407e-21
-1.07201e-21
-8.31471e-21
-1.2231e-20
-1.34741e-20
-1.47683e-20
-1.16825e-20
-1.1775e-20
-1.03772e-20
-9.89583e-21
-9.76608e-21
-1.03603e-20
-1.16184e-20
-7.05978e-21
-6.38195e-21
-5.30824e-21
-7.13897e-21
-4.57539e-21
-5.21326e-21
-2.0943e-21
4.20177e-22
1.1363e-21
-2.13169e-21
-1.08194e-21
-4.59733e-21
-8.38208e-21
-7.62217e-21
-2.8158e-21
8.24295e-23
-1.97809e-21
-2.29245e-21
-1.02318e-21
-7.97205e-22
-1.47553e-21
-3.44181e-21
-4.52285e-21
-2.19356e-21
-6.93692e-22
-2.20284e-21
-4.01118e-21
-1.78133e-21
-2.97994e-22
-1.1137e-20
-1.63212e-20
-1.47694e-20
-1.10747e-20
-1.54285e-20
-1.23163e-20
-9.64746e-21
-7.43198e-21
-7.45057e-21
-1.09558e-20
-1.35548e-20
-4.27244e-21
-6.08962e-21
-7.85047e-21
-5.72732e-21
-6.07796e-21
-5.89457e-21
1.25492e-21
9.34189e-22
1.21457e-21
-4.5129e-21
-4.18065e-21
-3.81009e-21
-5.35043e-21
-5.5575e-21
-2.95789e-21
-9.66158e-22
-3.94681e-21
-4.29981e-22
-5.20443e-22
-6.82023e-22
-1.2948e-21
-3.45651e-21
-1.93829e-21
-1.75192e-21
-3.28323e-21
-2.98599e-21
-4.46371e-21
-1.10983e-21
9.69294e-22
-1.02983e-20
-1.41171e-20
-1.57329e-20
-1.31149e-20
-1.14911e-20
-1.47607e-20
-9.65183e-21
-4.9331e-21
-8.42097e-21
-1.22993e-20
-1.13661e-20
-7.47955e-21
-3.59522e-21
-8.70283e-21
-7.09807e-21
-5.92048e-21
-3.3395e-21
-2.427e-21
6.51132e-22
4.72265e-21
-2.37727e-21
-6.19885e-21
-6.88516e-21
-5.43784e-21
-7.58852e-21
-4.54386e-21
-2.13774e-23
8.52429e-22
-4.08177e-23
1.17868e-22
-1.2111e-21
-1.61648e-21
-3.70967e-21
-1.28535e-21
-1.52733e-21
-3.8848e-21
-3.2937e-21
-6.18714e-22
-4.69437e-22
8.23576e-22
-1.16996e-20
-1.22968e-20
-1.20891e-20
-1.38105e-20
-1.14762e-20
-1.18211e-20
-9.31572e-21
-8.9098e-21
-8.61643e-21
-9.87037e-21
-8.71756e-21
-6.64853e-21
-6.80473e-21
-7.86817e-21
-5.71997e-21
-6.85566e-21
-3.47841e-21
-1.87071e-21
1.30834e-22
1.31062e-21
-4.47389e-22
-7.83893e-21
-8.03523e-21
-6.07657e-21
-4.48028e-21
-3.04616e-21
-6.9447e-22
-7.78813e-22
-2.5116e-21
-1.2347e-21
-1.14215e-21
-6.8925e-22
1.12818e-21
-1.69411e-21
-2.42912e-21
-6.2149e-21
-2.63959e-21
3.06892e-22
-5.32416e-22
-7.40313e-22
-1.50735e-20
-1.40752e-20
-1.12748e-20
-1.2236e-20
-1.23689e-20
-1.29837e-20
-9.75957e-21
-8.94372e-21
-8.76891e-21
-8.19327e-21
-5.15223e-21
-7.87174e-21
-1.06261e-20
-9.71068e-21
-4.26144e-21
-4.78624e-21
-2.53555e-21
-1.17426e-21
1.64108e-21
-1.6667e-21
-6.19813e-22
-4.63751e-21
-1.18598e-20
-6.73256e-21
-5.30336e-21
-6.20918e-21
7.62717e-22
3.43873e-22
-1.42361e-21
-1.05949e-21
-1.39159e-21
-1.45002e-21
2.86869e-21
-1.23861e-21
-5.07651e-21
-3.37985e-21
-1.1797e-21
1.4938e-21
-1.76265e-21
-1.54281e-21
-1.02517e-20
-9.83914e-21
-1.09758e-20
-8.66779e-21
-1.58865e-20
-1.42774e-20
-1.09297e-20
-9.86052e-21
-7.92951e-21
-7.21928e-21
-7.28659e-21
-6.81035e-21
-9.80747e-21
-6.67164e-21
-3.26766e-21
-5.18941e-21
-2.87766e-21
-1.71756e-21
1.93436e-21
-9.31833e-22
-1.75931e-21
-4.62333e-21
-8.88738e-21
-5.65892e-21
-7.68871e-21
-6.40541e-21
1.55789e-21
2.78499e-22
-1.88112e-21
-1.13405e-21
-1.60566e-21
-3.38301e-22
2.78152e-21
5.77529e-22
-3.03198e-21
-2.93508e-21
-4.36033e-22
-1.83865e-21
-1.54887e-21
-5.6996e-22
-1.10368e-20
-1.01189e-20
-1.10722e-20
-1.41764e-20
-1.32652e-20
-1.06669e-20
-9.28975e-21
-7.76193e-21
-9.33033e-21
-5.91721e-21
-6.58104e-21
-1.0752e-20
-8.59081e-21
-5.87324e-21
-5.49522e-21
-3.27296e-21
-1.91362e-21
-1.18662e-21
-3.97791e-22
-7.8885e-22
9.41624e-22
-6.77395e-21
-6.67954e-21
-6.6303e-21
-4.2618e-21
-3.87066e-21
-1.89381e-21
-2.44896e-21
-8.52737e-22
-7.11889e-22
-9.92182e-22
4.18902e-22
1.592e-21
3.20892e-22
-1.52916e-21
-2.232e-21
-1.26387e-21
1.76061e-21
-2.16819e-21
-2.65676e-21
-1.19561e-20
-9.36718e-21
-9.11442e-21
-9.57154e-21
-1.26207e-20
-1.36033e-20
-1.07125e-20
-1.11738e-20
-9.30867e-21
-7.05208e-21
-3.85588e-21
-9.3728e-21
-2.31899e-21
-3.80847e-21
-5.64246e-21
-6.21166e-21
-4.78159e-21
4.39599e-22
2.94912e-21
3.24443e-22
-5.34235e-22
-8.55652e-21
-4.86086e-21
-5.35391e-21
-3.70866e-21
-2.86563e-21
-3.87162e-21
-5.8015e-21
-1.03545e-21
-1.32896e-21
2.30827e-22
1.96147e-22
3.18792e-22
-2.15808e-22
-1.39886e-21
-9.78265e-22
-8.45834e-22
1.949e-21
1.10621e-21
-4.43118e-23
-8.05211e-21
-9.31455e-21
-1.04261e-20
-8.8184e-21
-8.49373e-21
-1.67049e-20
-9.58805e-21
-1.00971e-20
-9.44998e-21
-8.84475e-21
-9.17346e-21
-2.85584e-21
-3.72939e-21
-3.40991e-21
-4.66268e-21
-6.53002e-21
-4.61375e-21
-5.70029e-22
1.05388e-21
3.19423e-22
-1.43888e-21
-4.4944e-21
-4.35625e-21
-5.18394e-21
-4.15681e-21
-1.37174e-21
-7.34877e-22
-2.22448e-21
-3.33658e-21
-1.44518e-21
-2.22961e-21
-7.19398e-22
1.17117e-21
-3.56596e-23
-1.3053e-21
-1.54313e-21
1.0045e-21
2.96278e-21
6.61217e-23
-1.25631e-21
-6.72575e-21
-8.47494e-21
-9.97393e-21
-1.04874e-20
-9.51572e-21
-1.14022e-20
-9.49726e-21
-9.84283e-21
-1.13516e-20
-8.52685e-21
-6.9179e-21
-4.82735e-21
-5.68485e-21
-3.96417e-21
-5.80859e-21
-5.57417e-21
-3.19736e-21
2.12429e-21
3.63452e-21
-1.83427e-21
-1.92747e-21
-3.36476e-21
-3.20379e-21
-5.40856e-21
-5.83587e-21
-3.73073e-21
-2.41592e-21
-6.99178e-22
-3.21072e-22
-1.46971e-21
-4.39083e-21
-1.01065e-21
-3.1724e-22
-3.55829e-22
-2.5406e-21
-6.55289e-22
2.41254e-21
2.03568e-21
2.18731e-22
-1.04058e-21
-4.98202e-21
-7.56839e-21
-1.13851e-20
-7.07599e-21
-6.81017e-21
-1.03073e-20
-9.37679e-21
-8.48362e-21
-9.56589e-21
-7.8886e-21
-4.6996e-21
-7.6043e-21
-6.52594e-21
-4.08995e-21
-2.98354e-21
-2.12533e-21
4.98954e-22
-2.03524e-21
3.50022e-22
-7.22595e-22
-1.40751e-21
-8.34539e-23
-3.74207e-21
-5.824e-21
-2.71963e-21
-1.88285e-21
-3.22902e-21
-7.61792e-22
1.21088e-21
-2.37179e-21
-6.19061e-21
-4.10658e-21
-1.32957e-21
-4.0515e-22
-3.29566e-21
-1.2161e-21
1.42547e-21
2.59531e-21
8.73204e-22
-8.33509e-22
-6.72979e-21
-7.37018e-21
-9.44124e-21
-6.06769e-21
-6.732e-21
-1.08845e-20
-7.1854e-21
-3.91647e-21
-8.90174e-21
-8.95406e-21
-5.70866e-21
-5.38803e-21
-4.17205e-21
-3.23959e-21
-3.98954e-21
-2.40945e-21
-1.1872e-21
1.19058e-21
-2.71897e-22
9.19396e-22
1.44648e-21
-2.61936e-21
-2.50096e-21
-4.94579e-21
-5.56262e-21
-2.79174e-22
8.90755e-23
5.18176e-23
7.17307e-23
-4.78852e-21
-2.17804e-21
-4.35979e-21
-2.69799e-21
-1.3041e-21
-7.85399e-22
-7.94754e-22
-2.23921e-21
-7.6132e-22
1.74996e-21
7.8088e-22
-5.9809e-21
-6.43071e-21
-6.37764e-21
-2.56056e-21
-1.26575e-21
-4.79295e-21
-7.51108e-21
-4.34386e-21
-6.19071e-21
-6.01194e-21
-2.41168e-21
-1.77799e-21
-4.4672e-21
-2.10888e-21
-1.17105e-21
-1.72076e-21
5.60566e-22
4.62769e-22
-4.41693e-22
2.13723e-21
9.13001e-22
-4.39605e-21
-2.8323e-21
-6.96482e-22
-9.64112e-22
-3.40083e-22
-1.81783e-21
8.65775e-22
2.53074e-21
6.16377e-22
-3.95411e-21
-1.84355e-21
-2.79895e-21
-2.73416e-21
-8.18489e-22
-3.09516e-21
-3.38998e-21
-9.40993e-22
7.51935e-23
6.36871e-22
-5.10101e-21
-8.29301e-21
-1.16243e-20
-7.68288e-21
-6.30768e-21
-8.42402e-21
-4.24685e-21
-1.21347e-21
-9.46263e-21
-7.3703e-21
-3.39931e-21
-7.96108e-21
-5.5101e-21
-2.15199e-21
-3.94679e-21
-7.09512e-21
-5.35458e-21
-1.3174e-21
1.36557e-22
-1.50129e-21
-2.96461e-21
-3.31038e-21
-2.67328e-21
-2.26529e-21
-2.92e-21
-1.89686e-21
-2.12053e-21
-3.32038e-21
-5.28735e-21
-4.8213e-21
-4.29943e-21
-3.56175e-22
-1.41816e-21
-1.97269e-21
-3.16746e-21
-4.13266e-21
-5.94121e-22
-8.47466e-22
2.47029e-22
1.29002e-21
-6.82369e-21
-1.08036e-20
-1.54125e-20
-1.30136e-20
-8.50427e-21
-1.19478e-20
-1.05516e-20
-4.60572e-21
-7.50754e-21
-1.29558e-20
-1.16952e-20
-9.27866e-21
-8.13891e-21
-5.56078e-21
-6.24823e-21
-5.92181e-21
-6.50706e-21
-4.89196e-21
-2.09641e-21
-2.84393e-21
-3.13307e-21
-4.03288e-21
-3.55418e-21
-5.01972e-21
-3.71182e-21
-1.77636e-21
-1.06787e-21
-1.31653e-21
-6.01923e-21
-2.2502e-21
-7.81165e-22
-4.87622e-22
-4.34791e-21
-2.04673e-21
-5.0004e-21
-2.88705e-21
-4.50246e-22
9.46572e-22
-3.30211e-22
2.64121e-22
-1.00728e-20
-1.10478e-20
-1.33776e-20
-1.42197e-20
-1.2224e-20
-1.11199e-20
-1.00631e-20
-9.47347e-21
-1.14146e-20
-1.43014e-20
-9.79161e-21
-8.2886e-21
-3.27584e-21
-4.59427e-21
-8.4277e-21
-7.16204e-21
-9.53362e-21
-5.7938e-21
2.95569e-22
-1.23974e-21
-4.51607e-21
-4.86613e-21
-1.90454e-21
-3.25862e-21
-4.5437e-21
-2.07053e-21
-1.22571e-21
-4.09379e-21
-2.65893e-21
-3.61459e-21
-4.57806e-21
-3.21875e-21
-1.76902e-21
-1.35602e-21
-6.3803e-21
-4.35032e-21
6.64675e-22
3.80947e-21
6.49764e-22
1.64745e-22
-1.55816e-20
-1.47623e-20
-1.34792e-20
-1.61753e-20
-1.41826e-20
-1.22215e-20
-1.18775e-20
-7.78253e-21
-1.13338e-20
-1.28015e-20
-1.15803e-20
-1.19326e-20
-8.49628e-21
-4.17979e-21
-5.89553e-21
-7.34617e-21
-6.7644e-21
-5.76949e-21
-2.80135e-21
-1.19597e-21
-5.57515e-21
-5.20575e-21
-5.98663e-21
-4.27002e-21
-3.04339e-21
-2.23993e-21
-1.59981e-21
8.90942e-23
-1.87991e-21
-7.48391e-21
-5.62145e-21
-2.00962e-21
-3.47217e-21
-3.5551e-21
-2.33641e-21
-1.35599e-21
-3.95548e-22
2.20757e-21
-6.90465e-22
-1.68998e-21
-1.58442e-20
-1.52048e-20
-1.42895e-20
-1.3449e-20
-1.75175e-20
-1.53846e-20
-1.1453e-20
-6.94404e-21
-8.37944e-21
-1.26603e-20
-1.16056e-20
-1.2146e-20
-9.97486e-21
-7.39645e-21
-7.56108e-21
-7.73176e-21
-8.35664e-21
-4.80645e-21
-4.33215e-21
-1.54287e-21
-4.32752e-21
-5.12476e-21
-6.89786e-21
-3.24714e-21
-4.19989e-21
-2.69132e-21
-2.82006e-21
-2.6782e-21
-1.9364e-21
-2.45188e-21
-2.745e-21
-3.27218e-21
-1.17225e-22
9.95188e-22
-2.47709e-21
-1.84285e-21
3.29321e-22
8.31254e-22
-2.09672e-21
-6.26085e-23
-1.43706e-20
-1.52806e-20
-1.42003e-20
-1.37359e-20
-1.58817e-20
-1.71318e-20
-1.07951e-20
-1.12922e-20
-1.18596e-20
-1.15828e-20
-1.07475e-20
-1.288e-20
-1.15781e-20
-7.04162e-21
-1.07985e-20
-9.44159e-21
-6.96968e-21
-4.87349e-21
-3.55213e-21
-2.17009e-21
-3.94001e-21
-7.28168e-21
-6.82132e-21
-3.47715e-21
-4.4988e-21
-4.34672e-21
-3.13298e-21
-2.71641e-21
-2.76081e-21
-1.73931e-21
-4.31065e-21
-1.43483e-21
3.91799e-21
-3.65681e-22
-1.56235e-21
-1.99715e-21
-1.25667e-21
-2.32319e-23
1.01496e-21
4.5047e-22
-1.72293e-20
-1.91388e-20
-1.62839e-20
-1.3882e-20
-1.50578e-20
-1.60596e-20
-1.47174e-20
-1.25609e-20
-1.30914e-20
-1.17287e-20
-1.20407e-20
-1.22508e-20
-1.18939e-20
-6.90341e-21
-1.21474e-20
-9.82511e-21
-4.45485e-21
-1.89304e-21
-7.33635e-22
-2.11937e-21
-4.96181e-21
-6.47581e-21
-5.36781e-21
-6.69577e-21
-3.92742e-21
-4.3778e-21
-4.00351e-21
-2.18364e-21
3.45005e-22
-1.78138e-21
-5.20239e-21
-1.69692e-21
-2.25774e-22
1.47047e-21
-3.5349e-21
-3.44134e-21
3.59457e-22
2.78906e-21
2.64594e-22
-1.94853e-21
-1.62051e-20
-1.72577e-20
-1.54737e-20
-1.55508e-20
-1.73521e-20
-1.58921e-20
-1.2964e-20
-1.57307e-20
-1.55952e-20
-1.45568e-20
-9.7411e-21
-1.29849e-20
-8.62189e-21
-7.11493e-21
-1.20879e-20
-1.0135e-20
-5.89576e-21
-2.21369e-21
9.25586e-23
-2.2778e-21
-5.03511e-21
-9.31278e-21
-8.92801e-21
-3.94898e-21
-3.98679e-21
-2.56737e-21
-2.9733e-21
-1.39424e-21
-4.32853e-22
-2.58845e-21
-7.24982e-21
-2.23274e-21
-2.1049e-21
-2.81141e-21
-2.33539e-21
-6.88785e-22
1.40169e-21
3.06715e-21
-3.4064e-23
-6.23667e-22
-1.80156e-20
-2.00021e-20
-1.95108e-20
-1.55306e-20
-1.54175e-20
-1.54396e-20
-1.57057e-20
-1.53585e-20
-1.4962e-20
-1.41996e-20
-1.1609e-20
-1.3481e-20
-8.11079e-21
-9.65205e-21
-9.50049e-21
-8.99503e-21
-8.5077e-21
-3.53233e-21
-3.32595e-21
-5.13278e-21
-2.48965e-21
-1.02361e-20
-8.16188e-21
-7.03386e-21
-1.901e-21
1.65299e-22
-2.94857e-21
-3.28874e-21
1.81877e-21
-1.47159e-21
-5.33256e-21
-4.14932e-21
-3.52404e-21
-1.18891e-21
-2.81268e-21
3.41272e-22
8.82105e-22
3.35938e-21
1.19317e-21
-1.87328e-21
-1.8016e-20
-1.74238e-20
-1.77806e-20
-1.82838e-20
-1.71878e-20
-1.628e-20
-1.92001e-20
-1.52263e-20
-1.17758e-20
-1.37054e-20
-1.24651e-20
-1.01689e-20
-1.11759e-20
-1.32893e-20
-1.15936e-20
-7.32927e-21
-6.21903e-21
-4.71391e-21
-7.18034e-22
-1.52384e-21
-6.02178e-21
-1.10493e-20
-9.38347e-21
-7.28822e-21
-3.0718e-21
-1.90639e-21
-1.45121e-21
-2.18769e-21
-2.00057e-22
-2.796e-21
-2.88327e-21
-3.67856e-21
-3.84831e-21
-2.02983e-21
-2.51192e-21
1.24472e-22
7.74139e-22
2.34666e-21
3.4727e-21
-2.28004e-23
-1.77921e-20
-2.12026e-20
-2.17203e-20
-1.79619e-20
-1.67807e-20
-1.54813e-20
-1.65241e-20
-1.63397e-20
-1.41416e-20
-1.46653e-20
-1.34453e-20
-1.19437e-20
-1.02367e-20
-1.11117e-20
-1.20904e-20
-1.11561e-20
-3.94186e-21
-2.18929e-21
-5.48701e-23
-3.58486e-21
-7.69642e-21
-8.29448e-21
-1.04344e-20
-1.192e-20
-2.2883e-21
-1.96066e-22
7.53743e-22
-3.54825e-21
-3.13751e-22
-2.40413e-21
-3.50929e-21
-2.57049e-21
-1.798e-21
-3.1378e-21
-3.26057e-21
5.38828e-22
-8.59434e-22
-3.17447e-23
-1.0483e-21
-2.17454e-21
-2.0792e-20
-2.25393e-20
-2.06334e-20
-1.8081e-20
-1.448e-20
-1.70505e-20
-1.75167e-20
-1.53317e-20
-1.2811e-20
-1.58687e-20
-1.53819e-20
-1.26273e-20
-1.33443e-20
-8.04579e-21
-1.16487e-20
-1.04081e-20
-7.56968e-21
-1.24122e-21
-2.62012e-22
-4.44985e-21
-6.55369e-21
-8.42569e-21
-1.0045e-20
-1.07632e-20
-9.13453e-22
-3.69612e-21
-2.04774e-21
-1.11266e-21
2.05557e-21
-2.8934e-21
-3.42907e-21
-2.54385e-21
-2.27825e-21
-2.57336e-21
-3.44997e-21
7.1771e-22
1.86326e-21
-3.22105e-22
-1.62473e-21
-6.48862e-22
-2.27702e-20
-2.23189e-20
-1.87156e-20
-1.93257e-20
-1.93222e-20
-1.77767e-20
-1.60244e-20
-1.53601e-20
-1.61047e-20
-1.63895e-20
-1.2872e-20
-1.14124e-20
-1.33759e-20
-9.03349e-21
-1.14605e-20
-7.26678e-21
-4.12858e-21
-2.65652e-21
-5.35281e-21
-5.91886e-21
-6.14973e-21
-6.21847e-21
-9.73775e-21
-8.91128e-21
-4.46541e-21
-1.12953e-21
-9.26963e-22
3.14482e-22
7.82e-22
7.51454e-23
-4.51879e-21
-2.91291e-21
1.39261e-24
-2.71453e-21
-6.93221e-21
1.92806e-21
1.87367e-21
-1.15819e-21
-1.63638e-21
4.88088e-22
-2.4705e-20
-2.36083e-20
-1.96486e-20
-1.89923e-20
-1.62603e-20
-1.6983e-20
-1.61731e-20
-1.45687e-20
-1.6581e-20
-1.76774e-20
-1.34134e-20
-1.012e-20
-1.43592e-20
-1.14786e-20
-1.33925e-20
-7.48543e-21
-7.18204e-21
-3.59228e-21
-3.54734e-21
-2.48695e-21
-7.65309e-21
-8.29897e-21
-7.04689e-21
-9.19205e-21
-4.38826e-21
-1.50325e-21
-4.18615e-22
4.96607e-22
1.64587e-21
1.32865e-22
-3.90155e-21
-2.45356e-21
-1.06962e-21
-3.09454e-21
-4.47759e-21
-8.11609e-22
1.83265e-21
-8.90306e-22
-1.90088e-21
5.01181e-22
-2.65141e-20
-2.33447e-20
-1.94254e-20
-1.74774e-20
-1.55392e-20
-1.49251e-20
-1.82769e-20
-1.6315e-20
-1.56037e-20
-1.59314e-20
-1.36507e-20
-1.28049e-20
-1.61521e-20
-1.2609e-20
-1.05082e-20
-9.33523e-21
-1.6861e-21
-3.89508e-21
-6.74473e-21
-6.19478e-21
-7.94809e-21
-9.50144e-21
-9.12069e-21
-5.19778e-21
-1.88768e-21
-3.06017e-21
-8.88656e-23
1.09437e-21
7.39781e-22
6.00666e-22
-4.69219e-21
-2.19305e-21
1.16839e-21
-1.50583e-21
-4.52479e-21
-3.19513e-21
-2.03124e-21
1.21476e-21
-2.58983e-22
1.02665e-21
-2.3668e-20
-2.28666e-20
-2.05188e-20
-1.78389e-20
-1.66026e-20
-1.68442e-20
-1.74666e-20
-1.75796e-20
-1.55972e-20
-1.34718e-20
-1.55035e-20
-1.66673e-20
-1.68856e-20
-1.24208e-20
-9.7941e-21
-5.22225e-21
-3.95003e-21
-5.7185e-21
-6.87638e-21
-6.75244e-21
-7.01946e-21
-9.38679e-21
-8.21604e-21
-3.80538e-21
5.69993e-23
-3.69267e-21
-1.63436e-21
-5.63761e-22
-7.59646e-22
-8.30416e-23
-1.1768e-21
-2.12814e-21
1.08127e-21
-1.09237e-21
-4.33385e-21
-1.60469e-21
-1.83019e-21
-2.4175e-21
-2.78241e-22
-2.43859e-22
-2.00761e-20
-1.98894e-20
-2.02236e-20
-1.69263e-20
-1.99287e-20
-1.75086e-20
-1.87299e-20
-1.84882e-20
-1.52864e-20
-1.32565e-20
-1.50913e-20
-1.66449e-20
-1.50255e-20
-1.21491e-20
-9.67581e-21
-4.70347e-21
-2.5928e-21
-6.23838e-21
-1.09773e-20
-8.7516e-21
-8.51592e-21
-4.85586e-21
-2.35775e-21
-2.75185e-21
6.94885e-22
-3.20227e-21
-1.70665e-21
-1.1388e-21
-1.94078e-21
-7.89462e-22
-9.02071e-22
-1.72818e-21
-5.57176e-22
-3.40545e-21
-3.80791e-21
-1.75221e-21
-5.42737e-22
-1.87945e-21
3.61375e-21
2.42971e-21