/*--------------------------------*- C++ -*----------------------------------*\
| =========                 |                                                 |
| \\      /  F ield         | OpenFOAM: The Open Source CFD Toolbox           |
|  \\    /   O peration     | Version:  v2012                                 |
|   \\  /    A nd           | Website:  www.openfoam.com                      |
|    \\/     M anipulation  |                                                 |
\*---------------------------------------------------------------------------*/
FoamFile
{
    version     2.0;
    format      ascii;
    class       surfaceScalarField;
    location    "23";
    object      phi;
}
// * * * * * * * * * * * * * * * * * * * * * * * * * * * * * * * * * * * * * //

dimensions      [0 3 -1 0 0 0 0];
oriented        oriented;


internalField   nonuniform List<scalar> 
187200
(
1.875e-06
2.61137e-22
2.35218e-22
1.875e-06
3.19074e-22
3.08752e-22
1.875e-06
3.43319e-22
4.50177e-22
1.875e-06
2.75334e-22
3.09651e-22
1.875e-06
2.80823e-22
1.78109e-22
1.875e-06
4.21845e-22
2.91242e-22
1.875e-06
3.15283e-22
2.08814e-22
1.875e-06
1.74359e-22
1.75962e-22
1.875e-06
2.0073e-22
3.30091e-22
1.875e-06
3.14651e-22
2.9578e-22
1.875e-06
2.34174e-22
1.85744e-22
1.875e-06
2.27114e-22
2.2599e-22
1.875e-06
1.49345e-22
1.90857e-22
1.875e-06
1.0297e-22
4.58007e-23
1.875e-06
1.62239e-22
1.43762e-22
1.875e-06
1.27212e-22
1.75198e-22
1.875e-06
1.698e-22
1.96855e-22
1.875e-06
6.51519e-23
8.57251e-23
1.875e-06
8.36218e-23
4.23095e-23
1.875e-06
4.94826e-23
7.69683e-23
1.875e-06
-9.74317e-24
9.52412e-23
1.875e-06
1.0156e-22
9.34665e-23
1.875e-06
1.9172e-22
7.02279e-23
1.875e-06
2.87204e-22
9.18802e-23
1.875e-06
1.76279e-22
-2.05129e-24
1.875e-06
7.71029e-24
2.92357e-23
1.875e-06
4.18761e-23
1.1518e-22
1.875e-06
8.75932e-23
1.26918e-22
1.875e-06
5.24994e-23
1.58102e-22
1.875e-06
7.81342e-24
1.66162e-22
1.875e-06
-7.14463e-23
1.57507e-22
1.875e-06
-3.37667e-24
5.64558e-23
1.875e-06
1.04033e-22
6.27642e-23
1.875e-06
7.1551e-23
5.976e-23
1.875e-06
1.37701e-23
7.27117e-23
1.875e-06
-6.9229e-23
-4.20692e-23
1.875e-06
-3.2101e-23
-1.09477e-22
1.875e-06
-6.04544e-23
4.87836e-23
1.875e-06
-1.08985e-22
1.15594e-22
-7.10178e-23
-1.54076e-23
1.875e-06
5.56172e-23
2.10722e-22
1.875e-06
8.41287e-23
4.38754e-22
1.875e-06
2.72857e-22
7.16958e-22
1.875e-06
2.98548e-22
6.43708e-22
1.875e-06
2.25197e-22
4.48523e-22
1.875e-06
2.69755e-22
4.28491e-22
1.875e-06
2.95462e-22
5.55849e-22
1.875e-06
3.46899e-22
5.08846e-22
1.875e-06
3.05116e-22
5.50325e-22
1.875e-06
2.35034e-22
6.18393e-22
1.875e-06
2.21316e-22
6.2305e-22
1.875e-06
1.60481e-22
4.39563e-22
1.875e-06
1.77179e-22
4.6544e-22
1.875e-06
1.15309e-22
3.47774e-22
1.875e-06
3.01325e-23
2.80241e-22
1.875e-06
-2.97365e-23
2.46591e-22
1.875e-06
1.74932e-22
2.98623e-22
1.875e-06
2.19407e-22
3.62029e-22
1.875e-06
5.37414e-23
2.25842e-22
1.875e-06
7.55668e-24
1.51891e-22
1.875e-06
1.6675e-22
2.29702e-22
1.875e-06
1.05934e-22
1.52275e-22
1.875e-06
1.38703e-22
-6.23942e-24
1.875e-06
5.4453e-23
4.27997e-24
1.875e-06
-4.1276e-23
-1.13472e-23
1.875e-06
1.16571e-22
1.32238e-22
1.875e-06
1.31024e-22
8.69957e-23
1.875e-06
2.18116e-23
6.95684e-23
1.875e-06
-4.23781e-23
1.83002e-22
1.875e-06
2.32444e-23
2.04829e-22
1.875e-06
9.38915e-23
1.92304e-22
1.875e-06
6.16124e-23
1.10855e-22
1.875e-06
5.85485e-23
1.0482e-22
1.875e-06
-5.88256e-23
4.88559e-23
1.875e-06
-4.88748e-23
1.17102e-22
1.875e-06
-8.31463e-23
-2.95487e-23
1.875e-06
-2.18547e-22
-2.17528e-22
1.875e-06
-7.07907e-23
-4.01249e-23
1.875e-06
1.05511e-22
1.48888e-22
4.62702e-23
3.62306e-23
1.875e-06
1.83076e-22
3.5658e-22
1.875e-06
1.60674e-22
5.43355e-22
1.875e-06
1.12001e-22
6.57305e-22
1.875e-06
2.59621e-22
7.55606e-22
1.875e-06
2.94914e-22
6.57553e-22
1.875e-06
2.3303e-22
5.63764e-22
1.875e-06
2.55528e-22
6.20334e-22
1.875e-06
2.04669e-22
6.65001e-22
1.875e-06
2.07696e-22
7.11498e-22
1.875e-06
2.19575e-22
7.7782e-22
1.875e-06
2.45083e-22
6.62477e-22
1.875e-06
1.81874e-22
4.93284e-22
1.875e-06
2.18282e-22
3.87083e-22
1.875e-06
1.28765e-22
3.95404e-22
1.875e-06
1.38193e-22
4.6344e-22
1.875e-06
1.49361e-22
4.21923e-22
1.875e-06
8.49557e-24
3.29745e-22
1.875e-06
7.55533e-23
3.47416e-22
1.875e-06
1.2332e-23
2.58931e-22
1.875e-06
1.35636e-22
1.63402e-22
1.875e-06
9.27229e-23
1.82416e-22
1.875e-06
1.44832e-22
1.21272e-22
1.875e-06
8.50841e-23
-4.82952e-23
1.875e-06
9.75029e-23
2.97928e-23
1.875e-06
7.68145e-23
1.3004e-22
1.875e-06
7.38053e-23
9.21388e-23
1.875e-06
4.30349e-23
1.2984e-23
1.875e-06
-7.95957e-23
8.81921e-23
1.875e-06
-4.44762e-24
1.89473e-22
1.875e-06
2.81284e-24
2.30964e-22
1.875e-06
-4.59624e-23
2.76928e-22
1.875e-06
4.40464e-23
2.17919e-22
1.875e-06
-1.32428e-23
6.11464e-23
1.875e-06
-2.00233e-23
9.0265e-23
1.875e-06
-6.20427e-23
1.7457e-22
1.875e-06
-9.98595e-23
7.91752e-23
1.875e-06
-3.86773e-23
-7.37787e-23
1.875e-06
1.23071e-22
-1.19686e-22
1.875e-06
1.69518e-22
9.77441e-26
1.41017e-22
9.44852e-24
1.875e-06
1.99896e-22
4.35125e-22
1.875e-06
1.45194e-22
7.05507e-22
1.875e-06
1.26158e-22
7.50882e-22
1.875e-06
6.05292e-23
7.84971e-22
1.875e-06
1.79866e-22
6.992e-22
1.875e-06
2.15082e-22
6.1186e-22
1.875e-06
1.67089e-22
6.77988e-22
1.875e-06
1.47724e-22
7.21846e-22
1.875e-06
1.65556e-22
7.4837e-22
1.875e-06
2.10471e-22
7.9848e-22
1.875e-06
1.80789e-22
7.52225e-22
1.875e-06
1.71114e-22
7.02919e-22
1.875e-06
1.47138e-22
5.11479e-22
1.875e-06
7.93051e-23
4.26527e-22
1.875e-06
1.59841e-22
4.00508e-22
1.875e-06
3.00436e-22
4.21825e-22
1.875e-06
1.2283e-22
3.52178e-22
1.875e-06
-7.11188e-23
3.68158e-22
1.875e-06
9.28919e-23
3.7507e-22
1.875e-06
3.57973e-23
1.77782e-22
1.875e-06
1.58493e-23
2.22539e-22
1.875e-06
5.39314e-23
7.52317e-23
1.875e-06
1.85312e-22
5.64071e-23
1.875e-06
1.05755e-22
7.23138e-23
1.875e-06
6.07518e-23
1.1373e-22
1.875e-06
5.9537e-23
9.48752e-23
1.875e-06
-2.2131e-23
1.28331e-23
1.875e-06
3.12133e-23
2.84995e-23
1.875e-06
4.83768e-23
1.21363e-22
1.875e-06
-5.18987e-23
3.19202e-22
1.875e-06
-4.08544e-23
3.63343e-22
1.875e-06
-4.05337e-24
1.90493e-22
1.875e-06
-1.53928e-22
1.44068e-22
1.875e-06
-1.39749e-22
1.84364e-22
1.875e-06
-4.5111e-24
7.75385e-23
1.875e-06
-2.79281e-23
3.94111e-23
1.875e-06
5.25295e-23
-2.89099e-23
1.875e-06
6.70187e-23
-1.56039e-22
1.875e-06
8.51233e-23
3.80116e-25
1.26617e-22
7.29718e-23
1.875e-06
-3.39801e-23
2.70274e-22
1.875e-06
1.20309e-22
7.00719e-22
1.875e-06
1.10658e-22
7.34686e-22
1.875e-06
1.33663e-22
7.84602e-22
1.875e-06
1.02183e-22
8.28046e-22
1.875e-06
7.59829e-23
7.74317e-22
1.875e-06
9.87109e-23
7.78353e-22
1.875e-06
3.63013e-22
7.93893e-22
1.875e-06
3.03059e-22
7.35738e-22
1.875e-06
1.52664e-22
7.91314e-22
1.875e-06
1.13626e-22
7.89357e-22
1.875e-06
1.4692e-22
7.3986e-22
1.875e-06
1.90195e-22
6.64109e-22
1.875e-06
1.58357e-22
5.90494e-22
1.875e-06
1.41849e-22
4.51647e-22
1.875e-06
1.33544e-22
3.54266e-22
1.875e-06
3.81086e-23
3.61467e-22
1.875e-06
-1.38514e-23
4.29815e-22
1.875e-06
-2.5068e-23
3.61809e-22
1.875e-06
5.02541e-23
2.40172e-22
1.875e-06
-4.97559e-23
2.05047e-22
1.875e-06
6.52615e-23
8.11527e-23
1.875e-06
1.60908e-22
3.19094e-23
1.875e-06
1.27641e-22
3.5168e-23
1.875e-06
1.17428e-22
1.90417e-22
1.875e-06
7.74963e-23
1.44998e-22
1.875e-06
8.97089e-23
1.25748e-22
1.875e-06
-1.86333e-23
7.91568e-23
1.875e-06
-8.72761e-23
5.69422e-23
1.875e-06
1.34861e-23
1.89617e-22
1.875e-06
1.2027e-22
3.05494e-22
1.875e-06
4.11462e-23
1.97586e-22
1.875e-06
-4.68967e-23
1.19215e-22
1.875e-06
-6.61373e-23
1.01936e-22
1.875e-06
-4.47128e-23
1.05376e-22
1.875e-06
7.07338e-23
4.5234e-23
1.875e-06
6.73021e-23
-3.70832e-23
1.875e-06
8.70685e-23
-1.11143e-22
1.875e-06
6.07615e-23
4.87691e-23
2.6299e-24
-2.56356e-23
1.875e-06
3.02622e-23
3.47882e-22
1.875e-06
9.01584e-23
6.86355e-22
1.875e-06
6.89223e-23
7.31642e-22
1.875e-06
5.54463e-23
7.19271e-22
1.875e-06
8.9851e-23
8.07436e-22
1.875e-06
1.35711e-22
9.04967e-22
1.875e-06
1.59808e-22
8.91406e-22
1.875e-06
2.32638e-22
8.71064e-22
1.875e-06
2.63297e-22
8.23613e-22
1.875e-06
1.75196e-22
7.45809e-22
1.875e-06
1.45702e-22
8.04856e-22
1.875e-06
1.61824e-22
7.67213e-22
1.875e-06
1.33659e-22
6.84949e-22
1.875e-06
2.26013e-22
6.61021e-22
1.875e-06
1.57916e-22
5.97087e-22
1.875e-06
8.72177e-23
4.43524e-22
1.875e-06
6.06042e-23
4.51864e-22
1.875e-06
-6.03106e-23
4.34566e-22
1.875e-06
-1.35775e-22
3.46399e-22
1.875e-06
-2.78955e-23
1.9122e-22
1.875e-06
1.86919e-22
2.4804e-22
1.875e-06
1.61278e-22
1.98585e-22
1.875e-06
1.22934e-22
1.14442e-23
1.875e-06
1.21137e-22
2.17914e-23
1.875e-06
5.22799e-23
1.24889e-22
1.875e-06
3.87249e-23
1.57691e-22
1.875e-06
1.65393e-23
1.46104e-22
1.875e-06
1.07133e-23
1.5443e-22
1.875e-06
-8.64413e-23
1.07428e-22
1.875e-06
-1.0202e-22
1.46429e-22
1.875e-06
4.84338e-23
1.79336e-22
1.875e-06
5.24416e-23
1.1864e-22
1.875e-06
2.70267e-23
5.61164e-24
1.875e-06
4.19954e-23
1.06853e-22
1.875e-06
1.15304e-22
1.21933e-22
1.875e-06
9.26786e-23
1.40621e-23
1.875e-06
-4.27043e-25
-5.82021e-23
1.875e-06
-6.26849e-23
-1.11069e-22
1.875e-06
-3.38731e-24
-3.89835e-23
4.87052e-23
2.0924e-23
1.875e-06
6.72745e-23
4.16322e-22
1.875e-06
6.62853e-23
7.64173e-22
1.875e-06
1.1052e-22
8.42612e-22
1.875e-06
8.97316e-23
7.82055e-22
1.875e-06
1.37432e-22
8.11279e-22
1.875e-06
9.11725e-23
9.33897e-22
1.875e-06
1.36128e-22
9.87968e-22
1.875e-06
2.67576e-22
9.00501e-22
1.875e-06
2.41823e-22
8.89146e-22
1.875e-06
2.40083e-22
8.80058e-22
1.875e-06
1.73549e-22
8.82105e-22
1.875e-06
1.2163e-22
7.03958e-22
1.875e-06
1.23681e-22
6.93668e-22
1.875e-06
2.01417e-22
5.89204e-22
1.875e-06
1.22059e-22
6.42514e-22
1.875e-06
1.04891e-22
5.05796e-22
1.875e-06
2.89385e-23
4.02551e-22
1.875e-06
9.22666e-23
3.78704e-22
1.875e-06
1.25254e-22
3.08525e-22
1.875e-06
1.65493e-23
1.83494e-22
1.875e-06
1.39515e-22
2.25321e-22
1.875e-06
1.09515e-22
1.56286e-22
1.875e-06
-6.52659e-23
1.01981e-23
1.875e-06
3.31447e-24
1.00901e-22
1.875e-06
8.41823e-24
1.60631e-22
1.875e-06
3.52247e-23
1.73724e-22
1.875e-06
2.10822e-23
1.49273e-22
1.875e-06
-3.49506e-23
1.5113e-22
1.875e-06
-3.87518e-23
3.71945e-23
1.875e-06
6.49199e-24
1.15785e-22
1.875e-06
2.28116e-23
1.90083e-22
1.875e-06
-1.16109e-23
9.3798e-23
1.875e-06
-2.69744e-24
5.74089e-23
1.875e-06
1.12357e-22
3.68123e-23
1.875e-06
1.24258e-22
9.48263e-23
1.875e-06
1.66092e-22
5.17374e-23
1.875e-06
3.08312e-23
-1.38616e-22
1.875e-06
-8.63521e-23
-1.99652e-22
1.875e-06
-5.05105e-23
2.96197e-23
-1.95952e-23
8.91684e-23
1.875e-06
1.37521e-22
2.97128e-22
1.875e-06
1.23893e-22
7.0272e-22
1.875e-06
9.32586e-23
8.02814e-22
1.875e-06
1.10635e-22
9.17606e-22
1.875e-06
5.98893e-23
9.30373e-22
1.875e-06
1.652e-22
9.49844e-22
1.875e-06
2.42167e-22
9.96115e-22
1.875e-06
1.0941e-22
9.47704e-22
1.875e-06
1.959e-22
9.69663e-22
1.875e-06
1.85969e-22
9.10173e-22
1.875e-06
5.37181e-23
8.18279e-22
1.875e-06
3.65455e-23
7.27392e-22
1.875e-06
1.05353e-22
5.08863e-22
1.875e-06
1.85413e-22
5.27704e-22
1.875e-06
1.64191e-22
6.34528e-22
1.875e-06
8.24817e-23
4.73092e-22
1.875e-06
8.9415e-23
4.12358e-22
1.875e-06
3.76463e-23
3.33768e-22
1.875e-06
2.03587e-22
2.31885e-22
1.875e-06
2.54733e-22
2.62509e-22
1.875e-06
7.34572e-24
2.0016e-22
1.875e-06
-1.61447e-23
2.43211e-22
1.875e-06
1.65439e-23
2.63602e-22
1.875e-06
6.52562e-23
1.42143e-22
1.875e-06
-3.85013e-23
2.03675e-22
1.875e-06
-3.31495e-23
1.24474e-22
1.875e-06
5.11198e-23
1.10589e-22
1.875e-06
7.0655e-23
1.00913e-22
1.875e-06
-3.45719e-23
5.78758e-23
1.875e-06
-5.39013e-24
1.27561e-22
1.875e-06
-1.28188e-22
2.14037e-22
1.875e-06
-7.44392e-23
1.37971e-22
1.875e-06
3.66626e-23
1.67158e-22
1.875e-06
7.08406e-23
6.66632e-23
1.875e-06
1.33685e-22
-7.64645e-24
1.875e-06
-2.73011e-24
-2.30739e-22
1.875e-06
5.86741e-23
-2.80947e-22
1.875e-06
-4.34288e-23
-1.28065e-22
1.875e-06
-5.89571e-23
4.5074e-23
-2.59281e-23
1.92274e-23
1.875e-06
-2.35424e-22
2.2718e-22
1.875e-06
-3.81863e-23
7.04928e-22
1.875e-06
1.25119e-22
9.50712e-22
1.875e-06
1.26728e-22
9.54859e-22
1.875e-06
1.57612e-22
9.83656e-22
1.875e-06
1.51409e-22
9.57639e-22
1.875e-06
1.6628e-22
1.00657e-21
1.875e-06
1.06424e-22
1.00831e-21
1.875e-06
5.7536e-23
9.10291e-22
1.875e-06
1.27515e-22
8.89372e-22
1.875e-06
2.24088e-22
8.9047e-22
1.875e-06
6.97338e-23
7.92126e-22
1.875e-06
7.15925e-24
4.9087e-22
1.875e-06
1.09387e-22
5.05334e-22
1.875e-06
1.81278e-22
5.39564e-22
1.875e-06
2.56247e-23
4.42776e-22
1.875e-06
1.2954e-22
5.09812e-22
1.875e-06
1.78197e-22
4.5678e-22
1.875e-06
-8.36197e-23
2.05646e-22
1.875e-06
-3.0788e-23
2.01282e-22
1.875e-06
1.19173e-22
2.51727e-22
1.875e-06
3.76216e-23
3.52047e-22
1.875e-06
1.20032e-22
2.77006e-22
1.875e-06
2.77999e-23
2.33367e-22
1.875e-06
1.05514e-22
2.38404e-22
1.875e-06
3.46538e-23
7.90058e-23
1.875e-06
-7.16018e-23
3.67324e-23
1.875e-06
-2.58397e-23
5.81528e-23
1.875e-06
2.27361e-23
6.71041e-24
1.875e-06
-2.19053e-23
6.4525e-23
1.875e-06
-4.13926e-23
2.54688e-22
1.875e-06
-5.78937e-23
2.45477e-22
1.875e-06
-1.69744e-23
1.48469e-22
1.875e-06
2.19394e-23
5.25124e-23
1.875e-06
3.75177e-23
-1.62769e-22
1.875e-06
-6.36096e-24
-3.11156e-22
1.875e-06
-3.26061e-23
-2.5108e-22
1.875e-06
9.74692e-23
-1.37443e-22
1.875e-06
4.07642e-23
4.38443e-23
-2.98073e-23
7.39701e-23
1.875e-06
1.46124e-23
5.06939e-22
1.875e-06
8.43282e-23
7.19497e-22
1.875e-06
1.20608e-22
9.20104e-22
1.875e-06
2.16239e-22
1.07534e-21
1.875e-06
7.61123e-23
1.06895e-21
1.875e-06
1.16484e-22
9.95668e-22
1.875e-06
2.26963e-22
1.10998e-21
1.875e-06
7.17637e-23
1.02355e-21
1.875e-06
1.44257e-22
8.19989e-22
1.875e-06
1.56555e-22
7.74199e-22
1.875e-06
1.53055e-22
7.78006e-22
1.875e-06
8.07271e-23
7.6891e-22
1.875e-06
2.7946e-23
7.19973e-22
1.875e-06
3.71742e-23
5.90919e-22
1.875e-06
1.0247e-22
5.32908e-22
1.875e-06
1.97884e-22
4.57177e-22
1.875e-06
8.17538e-23
3.85963e-22
1.875e-06
7.91696e-25
4.06829e-22
1.875e-06
-4.7452e-23
3.31869e-22
1.875e-06
-1.31501e-23
2.23321e-22
1.875e-06
9.34229e-23
3.06076e-22
1.875e-06
2.31993e-22
4.00416e-22
1.875e-06
7.38979e-23
2.56389e-22
1.875e-06
5.97988e-23
2.90535e-22
1.875e-06
4.54669e-23
2.11585e-22
1.875e-06
-4.5842e-23
9.84589e-23
1.875e-06
-1.16065e-22
3.71305e-23
1.875e-06
-6.72519e-23
-3.53333e-24
1.875e-06
7.41148e-23
2.24344e-23
1.875e-06
5.30184e-23
1.1059e-22
1.875e-06
-3.75483e-23
1.87781e-22
1.875e-06
-9.41733e-23
2.23923e-22
1.875e-06
1.85309e-23
1.75044e-22
1.875e-06
-2.07541e-23
1.03296e-22
1.875e-06
-9.47932e-23
-1.5564e-22
1.875e-06
-3.24919e-23
-2.72685e-22
1.875e-06
3.17357e-23
-2.52267e-22
1.875e-06
1.61268e-22
-1.69636e-22
1.875e-06
2.16201e-22
-4.61616e-23
1.75004e-22
4.27537e-23
1.875e-06
9.92711e-23
5.56751e-22
1.875e-06
1.43557e-22
8.65494e-22
1.875e-06
1.73817e-22
1.03914e-21
1.875e-06
8.61735e-23
9.93357e-22
1.875e-06
1.39589e-22
1.09919e-21
1.875e-06
2.03685e-22
9.87133e-22
1.875e-06
2.09406e-23
9.25937e-22
1.875e-06
1.63434e-22
1.04973e-21
1.875e-06
-9.47574e-24
8.16909e-22
1.875e-06
6.80316e-23
7.58005e-22
1.875e-06
2.61678e-22
8.26789e-22
1.875e-06
1.59987e-22
8.33108e-22
1.875e-06
1.15159e-22
7.89782e-22
1.875e-06
7.37375e-23
6.07756e-22
1.875e-06
4.04727e-23
5.39998e-22
1.875e-06
6.53094e-23
4.7487e-22
1.875e-06
2.26081e-23
3.40891e-22
1.875e-06
-2.39422e-23
3.59563e-22
1.875e-06
1.24587e-22
3.61826e-22
1.875e-06
6.4335e-23
3.50674e-22
1.875e-06
7.02016e-23
3.09648e-22
1.875e-06
3.96634e-23
1.83755e-22
1.875e-06
1.67829e-23
2.98259e-22
1.875e-06
4.5671e-23
3.93652e-22
1.875e-06
7.54462e-23
1.67433e-22
1.875e-06
-3.96488e-23
5.8347e-23
1.875e-06
-4.16492e-23
1.34006e-23
1.875e-06
-4.93273e-23
7.75841e-23
1.875e-06
-4.0968e-23
-3.01482e-23
1.875e-06
-1.14489e-22
3.52515e-23
1.875e-06
-5.37634e-23
2.05175e-22
1.875e-06
1.76627e-23
2.58903e-22
1.875e-06
-7.99887e-23
9.09453e-23
1.875e-06
-5.34863e-23
1.26198e-22
1.875e-06
-9.37186e-23
-4.27173e-23
1.875e-06
-1.01686e-22
-2.78562e-22
1.875e-06
7.59346e-24
-2.18041e-22
1.875e-06
1.18177e-22
-1.74109e-22
1.875e-06
1.52942e-22
-5.22514e-23
9.87443e-23
-5.0591e-23
1.875e-06
1.29861e-22
5.98827e-22
1.875e-06
1.4478e-22
8.8482e-22
1.875e-06
9.87178e-23
9.74353e-22
1.875e-06
1.05194e-22
1.02927e-21
1.875e-06
1.49638e-22
1.01317e-21
1.875e-06
2.87718e-23
9.74933e-22
1.875e-06
1.37326e-22
1.03003e-21
1.875e-06
1.41339e-22
9.3661e-22
1.875e-06
2.14956e-22
8.46002e-22
1.875e-06
6.80767e-23
8.16018e-22
1.875e-06
-4.85595e-23
7.40233e-22
1.875e-06
2.87317e-23
8.11865e-22
1.875e-06
1.41823e-22
8.16285e-22
1.875e-06
1.31261e-22
5.59584e-22
1.875e-06
2.31707e-23
5.81067e-22
1.875e-06
-8.42908e-23
4.618e-22
1.875e-06
-3.36496e-23
4.4265e-22
1.875e-06
9.40441e-23
3.8044e-22
1.875e-06
1.16672e-22
3.68346e-22
1.875e-06
1.48469e-22
4.01382e-22
1.875e-06
6.66463e-23
3.00216e-22
1.875e-06
-3.8761e-23
2.37655e-22
1.875e-06
-9.82103e-24
2.79923e-22
1.875e-06
-1.71516e-23
3.02678e-22
1.875e-06
-1.1037e-22
5.73818e-23
1.875e-06
-3.17472e-23
1.37727e-22
1.875e-06
-1.47033e-23
9.73731e-23
1.875e-06
-5.79784e-24
3.71004e-23
1.875e-06
-1.0049e-22
-6.83704e-23
1.875e-06
-1.11052e-22
1.09285e-22
1.875e-06
5.30863e-23
2.20611e-22
1.875e-06
-1.44032e-23
2.15079e-22
1.875e-06
-9.72479e-23
1.77136e-22
1.875e-06
1.02995e-23
1.28909e-22
1.875e-06
-3.40911e-23
6.61272e-23
1.875e-06
-7.61526e-23
-1.76776e-22
1.875e-06
3.18817e-23
-3.16918e-22
1.875e-06
1.55809e-22
-2.22327e-22
1.875e-06
1.43575e-22
-1.43017e-22
6.36631e-23
-2.26485e-22
1.875e-06
1.9735e-22
5.79161e-22
1.875e-06
1.83924e-22
8.53649e-22
1.875e-06
8.93072e-23
8.94771e-22
1.875e-06
9.24526e-23
1.06671e-21
1.875e-06
-5.75929e-23
1.05982e-21
1.875e-06
-2.26051e-23
1.05637e-21
1.875e-06
7.99165e-23
9.70405e-22
1.875e-06
9.0523e-23
9.0655e-22
1.875e-06
-3.71281e-23
8.31165e-22
1.875e-06
7.97024e-23
8.29494e-22
1.875e-06
9.6696e-24
7.62582e-22
1.875e-06
6.40155e-23
8.13722e-22
1.875e-06
1.33244e-22
7.90502e-22
1.875e-06
1.8056e-22
6.1983e-22
1.875e-06
8.97479e-23
6.39401e-22
1.875e-06
-9.92763e-24
4.72459e-22
1.875e-06
-1.97353e-23
3.76686e-22
1.875e-06
1.50481e-23
3.58942e-22
1.875e-06
9.50395e-23
4.48255e-22
1.875e-06
8.85754e-23
4.42949e-22
1.875e-06
1.09238e-22
2.85454e-22
1.875e-06
8.00815e-23
2.90245e-22
1.875e-06
-1.52754e-24
3.10628e-22
1.875e-06
3.05964e-23
2.47186e-22
1.875e-06
-5.79326e-23
1.88822e-22
1.875e-06
-4.38027e-23
6.39136e-23
1.875e-06
-2.97784e-23
1.47894e-23
1.875e-06
-4.54953e-23
-1.45145e-23
1.875e-06
-8.32995e-23
1.8599e-23
1.875e-06
-1.38113e-22
7.71105e-23
1.875e-06
-8.27387e-23
1.42461e-22
1.875e-06
-7.55698e-24
1.77506e-22
1.875e-06
2.36005e-23
1.5645e-22
1.875e-06
-8.11199e-23
5.77108e-23
1.875e-06
-5.75872e-23
1.57617e-22
1.875e-06
3.04516e-23
-1.14192e-22
1.875e-06
7.03969e-23
-2.55528e-22
1.875e-06
6.66992e-23
-2.36213e-22
1.875e-06
5.63761e-23
-2.05723e-22
9.0716e-23
-2.86654e-22
1.875e-06
-1.21627e-22
5.05287e-22
1.875e-06
4.92597e-23
8.01806e-22
1.875e-06
1.10093e-22
9.31152e-22
1.875e-06
-7.64471e-23
1.04017e-21
1.875e-06
-5.54688e-23
1.09102e-21
1.875e-06
-1.10894e-23
1.03721e-21
1.875e-06
1.50435e-22
9.45464e-22
1.875e-06
2.42499e-22
9.14014e-22
1.875e-06
1.56244e-22
9.70428e-22
1.875e-06
-9.4664e-23
8.74707e-22
1.875e-06
-2.5031e-23
8.25465e-22
1.875e-06
1.76074e-22
7.85118e-22
1.875e-06
1.18766e-22
8.24267e-22
1.875e-06
4.8565e-23
5.72319e-22
1.875e-06
-4.74406e-23
6.8476e-22
1.875e-06
-5.90324e-25
4.9867e-22
1.875e-06
3.74324e-23
5.24475e-22
1.875e-06
2.00285e-22
4.56393e-22
1.875e-06
1.59703e-22
4.11633e-22
1.875e-06
9.38554e-23
3.30184e-22
1.875e-06
1.40327e-22
3.17203e-22
1.875e-06
6.08509e-24
2.97961e-22
1.875e-06
-7.48982e-23
2.40728e-22
1.875e-06
-8.42165e-23
2.19039e-22
1.875e-06
-1.03111e-22
1.48981e-22
1.875e-06
-2.37475e-23
2.42268e-23
1.875e-06
7.9054e-23
8.05915e-24
1.875e-06
3.48657e-23
-7.17706e-24
1.875e-06
-1.08886e-23
8.80013e-24
1.875e-06
-5.91497e-23
1.22974e-22
1.875e-06
-1.75978e-22
1.68639e-22
1.875e-06
-8.78883e-23
1.20467e-22
1.875e-06
-1.47466e-23
9.37979e-23
1.875e-06
-5.18921e-23
1.05027e-22
1.875e-06
-5.37226e-23
1.12116e-22
1.875e-06
7.13476e-24
-1.67797e-22
1.875e-06
7.26744e-23
-4.20594e-22
1.875e-06
1.12961e-22
-2.67098e-22
1.875e-06
5.81398e-24
-2.17128e-22
-1.34937e-22
-3.72409e-22
1.875e-06
-4.85538e-23
7.08637e-22
1.875e-06
-2.27592e-22
7.98809e-22
1.875e-06
-8.74851e-23
8.63658e-22
1.875e-06
3.83819e-23
1.09588e-21
1.875e-06
1.01582e-22
1.09832e-21
1.875e-06
1.05836e-23
9.81653e-22
1.875e-06
1.08071e-23
9.28329e-22
1.875e-06
8.14301e-23
8.64294e-22
1.875e-06
1.56947e-23
8.97999e-22
1.875e-06
-2.47967e-23
9.62405e-22
1.875e-06
1.59919e-22
9.20607e-22
1.875e-06
1.42925e-22
8.09833e-22
1.875e-06
5.66911e-23
8.6532e-22
1.875e-06
-5.85328e-23
6.52098e-22
1.875e-06
5.22599e-23
6.97686e-22
1.875e-06
2.98994e-23
5.40849e-22
1.875e-06
3.45668e-23
3.17051e-22
1.875e-06
8.85691e-23
3.45247e-22
1.875e-06
1.06166e-22
4.18222e-22
1.875e-06
1.10196e-22
4.3662e-22
1.875e-06
1.21979e-22
3.252e-22
1.875e-06
7.99777e-23
4.07132e-22
1.875e-06
-9.26788e-23
3.79373e-22
1.875e-06
-2.40961e-22
1.51871e-22
1.875e-06
-1.38022e-22
5.91107e-23
1.875e-06
5.35672e-24
4.22597e-23
1.875e-06
1.38307e-22
-3.35496e-23
1.875e-06
1.11461e-22
-1.0707e-22
1.875e-06
-1.85559e-23
-6.80227e-25
1.875e-06
-2.13732e-23
1.09912e-22
1.875e-06
-9.94448e-24
2.41988e-22
1.875e-06
-5.97143e-23
1.40301e-22
1.875e-06
-5.97552e-23
1.4809e-23
1.875e-06
-4.21591e-23
6.66325e-23
1.875e-06
-5.61319e-23
1.09034e-22
1.875e-06
-7.36844e-23
-6.54209e-23
1.875e-06
-9.45538e-24
-3.00222e-22
1.875e-06
-2.07249e-23
-3.97123e-22
1.875e-06
-9.04305e-23
-2.95344e-22
-5.58066e-23
-3.24697e-22
1.875e-06
-6.98978e-23
6.36779e-22
1.875e-06
-1.29595e-22
9.38355e-22
1.875e-06
-9.137e-23
9.65005e-22
1.875e-06
-8.7746e-23
1.08436e-21
1.875e-06
-6.81139e-23
1.05581e-21
1.875e-06
2.60839e-23
1.06394e-21
1.875e-06
6.68878e-25
9.51664e-22
1.875e-06
3.20358e-23
8.80499e-22
1.875e-06
4.03567e-24
9.72368e-22
1.875e-06
9.92725e-23
9.47897e-22
1.875e-06
6.3915e-23
8.77955e-22
1.875e-06
1.28495e-22
8.69897e-22
1.875e-06
-3.19749e-23
9.22833e-22
1.875e-06
-3.25102e-23
7.45107e-22
1.875e-06
-4.12318e-23
6.08205e-22
1.875e-06
2.00179e-23
4.07447e-22
1.875e-06
1.12787e-22
3.58526e-22
1.875e-06
-5.94284e-24
3.83762e-22
1.875e-06
6.38211e-23
4.46405e-22
1.875e-06
1.57682e-22
4.14265e-22
1.875e-06
4.01022e-23
2.49388e-22
1.875e-06
-3.94968e-23
3.61276e-22
1.875e-06
-7.78396e-23
3.66623e-22
1.875e-06
-1.85746e-22
2.05295e-22
1.875e-06
-9.20098e-23
5.61201e-23
1.875e-06
-8.19429e-23
8.96659e-23
1.875e-06
-5.50107e-23
-1.265e-22
1.875e-06
-7.37443e-23
-2.26093e-22
1.875e-06
8.48128e-23
6.71835e-23
1.875e-06
1.66573e-22
1.63649e-22
1.875e-06
9.19829e-23
1.43115e-22
1.875e-06
1.82678e-23
1.33689e-22
1.875e-06
-9.21479e-23
-4.7479e-24
1.875e-06
-1.06351e-22
6.79089e-23
1.875e-06
-7.14134e-23
1.25555e-22
1.875e-06
-5.27149e-23
-4.06385e-23
1.875e-06
-1.0177e-22
-2.62788e-22
1.875e-06
-8.25239e-23
-2.46125e-22
1.875e-06
-1.13085e-22
-2.3058e-22
5.35153e-23
-2.42849e-22
1.875e-06
-1.55206e-22
4.83687e-22
1.875e-06
-7.56902e-23
8.88532e-22
1.875e-06
2.20791e-23
1.0147e-21
1.875e-06
-2.77845e-23
1.13504e-21
1.875e-06
-8.92378e-23
1.2063e-21
1.875e-06
-1.97798e-23
1.07782e-21
1.875e-06
-2.2569e-23
9.9807e-22
1.875e-06
-7.6698e-23
9.09454e-22
1.875e-06
7.08807e-23
9.94509e-22
1.875e-06
4.39999e-23
8.89904e-22
1.875e-06
6.03282e-23
8.71984e-22
1.875e-06
1.8755e-23
8.26829e-22
1.875e-06
7.87445e-23
9.64982e-22
1.875e-06
-2.22498e-23
8.14255e-22
1.875e-06
-3.93209e-23
6.72243e-22
1.875e-06
1.01632e-22
3.84935e-22
1.875e-06
9.24425e-23
2.47311e-22
1.875e-06
-1.77753e-23
4.30538e-22
1.875e-06
5.66685e-23
5.40079e-22
1.875e-06
3.39435e-23
4.24788e-22
1.875e-06
6.01975e-24
3.40377e-22
1.875e-06
2.82589e-23
2.63535e-22
1.875e-06
-1.07049e-22
1.85626e-22
1.875e-06
-1.02745e-22
1.72144e-22
1.875e-06
-1.49157e-22
6.98052e-23
1.875e-06
-2.34457e-23
1.41174e-22
1.875e-06
-4.94964e-23
-3.68766e-23
1.875e-06
-3.33101e-23
-8.14391e-23
1.875e-06
-3.61772e-23
6.80081e-23
1.875e-06
-2.21288e-23
2.30682e-23
1.875e-06
1.69669e-23
4.14085e-24
1.875e-06
5.30164e-24
6.57026e-23
1.875e-06
-5.41262e-23
7.83493e-23
1.875e-06
-6.00961e-23
1.50263e-22
1.875e-06
-7.14569e-23
1.24797e-22
1.875e-06
-2.68826e-23
-4.58699e-23
1.875e-06
-7.67856e-23
-2.71875e-22
1.875e-06
-6.51516e-23
-2.55171e-22
1.875e-06
8.14126e-23
-2.69036e-22
-1.29426e-23
-3.93528e-22
1.875e-06
-1.14728e-22
5.73573e-22
1.875e-06
-1.80359e-22
9.14257e-22
1.875e-06
-1.98159e-22
9.60463e-22
1.875e-06
4.06632e-23
1.15234e-21
1.875e-06
1.1722e-22
1.17911e-21
1.875e-06
-2.8916e-23
1.1077e-21
1.875e-06
-1.47586e-22
1.02951e-21
1.875e-06
-1.48689e-22
9.45267e-22
1.875e-06
1.59006e-23
9.97687e-22
1.875e-06
8.41653e-23
1.02036e-21
1.875e-06
6.28431e-23
8.92364e-22
1.875e-06
1.35129e-23
7.95181e-22
1.875e-06
-1.51557e-23
8.32649e-22
1.875e-06
2.41904e-23
8.831e-22
1.875e-06
4.14715e-23
8.31127e-22
1.875e-06
1.96689e-23
4.22685e-22
1.875e-06
1.08232e-22
3.23767e-22
1.875e-06
2.37663e-22
4.33269e-22
1.875e-06
2.60873e-22
3.45682e-22
1.875e-06
-4.71216e-23
3.26989e-22
1.875e-06
-1.67541e-22
2.74938e-22
1.875e-06
-1.88824e-22
2.598e-22
1.875e-06
-2.62731e-23
2.80742e-22
1.875e-06
-3.69548e-23
2.19084e-22
1.875e-06
-1.426e-23
2.07635e-22
1.875e-06
-1.10031e-22
9.23286e-23
1.875e-06
-6.56965e-23
5.61086e-23
1.875e-06
-8.21142e-23
-2.58711e-23
1.875e-06
-6.42604e-23
6.94719e-23
1.875e-06
1.26001e-23
4.65998e-23
1.875e-06
9.35749e-23
1.01864e-23
1.875e-06
2.33119e-23
4.20321e-23
1.875e-06
-2.09531e-23
5.36548e-23
1.875e-06
1.89511e-23
4.11762e-23
1.875e-06
1.89097e-23
6.53481e-23
1.875e-06
-9.58255e-23
-3.05833e-24
1.875e-06
-1.36662e-22
-1.40302e-22
1.875e-06
-1.25979e-22
-3.00951e-22
1.875e-06
2.88819e-23
-3.20576e-22
5.9557e-23
-3.33416e-22
1.875e-06
-8.69824e-23
5.98891e-22
1.875e-06
-1.23991e-23
9.85492e-22
1.875e-06
1.23775e-23
1.0558e-21
1.875e-06
2.7768e-23
1.14868e-21
1.875e-06
3.84994e-23
1.07437e-21
1.875e-06
-1.07511e-22
1.1646e-21
1.875e-06
-2.26259e-22
1.07916e-21
1.875e-06
-5.32417e-23
1.09066e-21
1.875e-06
1.20771e-23
1.05634e-21
1.875e-06
1.11994e-22
9.73881e-22
1.875e-06
-8.71775e-24
8.7006e-22
1.875e-06
3.67729e-23
8.67145e-22
1.875e-06
-2.7965e-23
8.91518e-22
1.875e-06
-8.83197e-25
8.46173e-22
1.875e-06
1.37294e-22
7.62595e-22
1.875e-06
5.26433e-23
5.94071e-22
1.875e-06
-1.03362e-22
4.24979e-22
1.875e-06
-6.39719e-23
2.45548e-22
1.875e-06
-1.98148e-23
1.78008e-22
1.875e-06
5.31754e-23
2.71772e-22
1.875e-06
-2.27579e-25
2.81692e-22
1.875e-06
5.78677e-24
3.42446e-22
1.875e-06
2.48949e-24
3.09211e-22
1.875e-06
-4.35181e-23
2.20895e-22
1.875e-06
-1.46867e-23
2.36542e-22
1.875e-06
-6.39258e-23
1.7909e-22
1.875e-06
7.52737e-23
1.43424e-22
1.875e-06
7.82745e-23
7.37243e-23
1.875e-06
3.03506e-24
6.81595e-24
1.875e-06
-2.35386e-23
6.19075e-23
1.875e-06
4.74482e-25
-7.25005e-23
1.875e-06
-3.39619e-23
-1.11817e-22
1.875e-06
4.64188e-23
4.45348e-23
1.875e-06
2.78155e-23
1.17323e-22
1.875e-06
7.19695e-24
6.23162e-23
1.875e-06
-3.97926e-23
4.62667e-24
1.875e-06
-6.20009e-23
5.78795e-23
1.875e-06
-1.53762e-22
-1.18893e-22
1.875e-06
-1.25131e-22
-3.36139e-22
-3.43224e-23
-2.92447e-22
1.875e-06
1.38272e-22
7.07891e-22
1.875e-06
8.23613e-23
9.22906e-22
1.875e-06
-2.25471e-23
9.86994e-22
1.875e-06
-1.0876e-22
1.05901e-21
1.875e-06
-3.34734e-24
1.13239e-21
1.875e-06
-3.75567e-23
1.16413e-21
1.875e-06
-1.0341e-22
1.13676e-21
1.875e-06
-2.10894e-22
9.76266e-22
1.875e-06
-7.74343e-23
1.01702e-21
1.875e-06
4.48632e-23
1.08491e-21
1.875e-06
-1.19615e-22
8.86812e-22
1.875e-06
3.53435e-22
8.82309e-22
1.875e-06
5.70088e-23
8.62343e-22
1.875e-06
3.33057e-23
8.69057e-22
1.875e-06
2.14947e-23
8.69639e-22
1.875e-06
-3.77453e-23
5.89077e-22
1.875e-06
-1.95842e-23
3.58864e-22
1.875e-06
-1.16138e-22
2.21737e-22
1.875e-06
-2.15997e-22
2.6223e-22
1.875e-06
-4.90324e-23
2.62044e-22
1.875e-06
-3.48307e-23
2.18168e-22
1.875e-06
-4.8501e-23
2.96454e-22
1.875e-06
-1.20622e-23
4.08018e-22
1.875e-06
7.59469e-23
2.09661e-22
1.875e-06
1.69904e-22
2.10195e-22
1.875e-06
6.14357e-23
1.78899e-22
1.875e-06
-6.77549e-23
5.97512e-23
1.875e-06
8.67974e-23
5.89258e-23
1.875e-06
-9.50523e-23
8.79235e-23
1.875e-06
1.24285e-22
-1.78805e-23
1.875e-06
-7.58637e-23
-3.60995e-23
1.875e-06
-2.51991e-23
-5.41203e-23
1.875e-06
1.19076e-22
-2.11481e-23
1.875e-06
-1.46506e-22
4.79992e-23
1.875e-06
2.01591e-23
5.12965e-23
1.875e-06
1.05419e-22
5.70908e-23
1.875e-06
-7.23261e-23
-3.9602e-24
1.875e-06
1.2705e-23
-1.50829e-22
1.875e-06
-1.25086e-22
-3.90285e-22
-6.68831e-23
-2.53055e-22
1.875e-06
2.01734e-22
5.43248e-22
1.875e-06
9.83753e-23
8.43281e-22
1.875e-06
-1.30623e-23
9.96882e-22
1.875e-06
-2.86714e-23
1.13221e-21
1.875e-06
-7.21368e-23
1.12393e-21
1.875e-06
2.86244e-23
1.08829e-21
1.875e-06
6.04255e-23
1.13638e-21
1.875e-06
-1.54808e-22
1.04847e-21
1.875e-06
-1.87024e-22
1.0082e-21
1.875e-06
-3.56455e-23
1.10864e-21
1.875e-06
-3.11324e-24
9.20067e-22
1.875e-06
-4.85844e-23
9.92466e-22
1.875e-06
5.30549e-23
9.13956e-22
1.875e-06
1.50317e-22
8.70366e-22
1.875e-06
1.16529e-23
7.9123e-22
1.875e-06
-7.10003e-23
5.99196e-22
1.875e-06
-1.33202e-22
3.20401e-22
1.875e-06
-1.17534e-22
2.63426e-22
1.875e-06
-1.05728e-22
3.54751e-22
1.875e-06
-6.4007e-23
1.98708e-22
1.875e-06
-1.05185e-22
2.40813e-22
1.875e-06
-9.48746e-23
2.90201e-22
1.875e-06
1.39156e-23
3.1208e-22
1.875e-06
8.55799e-23
3.24196e-22
1.875e-06
4.68685e-23
1.55759e-22
1.875e-06
1.23411e-22
1.97893e-22
1.875e-06
6.94092e-23
2.39687e-23
1.875e-06
4.43102e-23
3.44703e-23
1.875e-06
7.15126e-23
1.61388e-22
1.875e-06
1.44705e-23
-8.35185e-23
1.875e-06
2.27159e-24
-9.51638e-23
1.875e-06
1.78622e-23
-7.67483e-23
1.875e-06
-4.66452e-23
-8.68195e-23
1.875e-06
4.00811e-23
1.21478e-22
1.875e-06
3.72942e-23
1.02045e-22
1.875e-06
1.20878e-22
-6.23458e-23
1.875e-06
5.33242e-23
-5.03549e-24
1.875e-06
-2.23892e-23
-1.02117e-22
1.875e-06
-3.70126e-23
-2.18145e-22
-1.48855e-22
-1.40186e-22
1.875e-06
5.62552e-23
4.30711e-22
1.875e-06
1.39428e-22
8.75397e-22
1.875e-06
2.24049e-26
1.03316e-21
1.875e-06
-5.13478e-24
1.05466e-21
1.875e-06
-1.76438e-23
1.07888e-21
1.875e-06
8.15759e-23
1.10455e-21
1.875e-06
2.2433e-23
1.12272e-21
1.875e-06
1.14061e-23
1.04424e-21
1.875e-06
-2.71534e-23
1.01436e-21
1.875e-06
-1.99569e-22
1.16628e-21
1.875e-06
-1.02151e-22
9.89846e-22
1.875e-06
-4.99291e-24
1.00951e-21
1.875e-06
-3.59675e-23
8.60074e-22
1.875e-06
-1.95967e-22
7.44398e-22
1.875e-06