/*--------------------------------*- C++ -*----------------------------------*\
| =========                 |                                                 |
| \\      /  F ield         | OpenFOAM: The Open Source CFD Toolbox           |
|  \\    /   O peration     | Version:  v2012                                 |
|   \\  /    A nd           | Website:  www.openfoam.com                      |
|    \\/     M anipulation  |                                                 |
\*---------------------------------------------------------------------------*/
FoamFile
{
    version     2.0;
    format      ascii;
    class       volVectorField;
    location    "23";
    object      U;
}
// * * * * * * * * * * * * * * * * * * * * * * * * * * * * * * * * * * * * * //

dimensions      [0 1 -1 0 0 0 0];


internalField   nonuniform List<vector> 
64000
(
(0.003 2.2469e-19 2.2965e-19)
(0.003 3.64325e-19 3.35665e-19)
(0.003 3.9599e-19 4.3281e-19)
(0.003 3.97599e-19 4.8039e-19)
(0.003 4.93729e-19 4.46341e-19)
(0.003 4.94938e-19 3.62374e-19)
(0.003 4.08072e-19 3.08655e-19)
(0.003 2.09967e-19 2.77414e-19)
(0.003 2.55402e-19 3.91326e-19)
(0.003 4.09472e-19 3.21412e-19)
(0.003 3.8758e-19 2.60152e-19)
(0.003 3.70912e-19 3.97295e-19)
(0.003 3.04342e-19 3.199e-19)
(0.003 3.00401e-19 2.09077e-19)
(0.003 2.63355e-19 2.72142e-19)
(0.003 2.4066e-19 3.06814e-19)
(0.003 1.96222e-19 2.35252e-19)
(0.003 6.83281e-20 1.40207e-19)
(0.003 5.46283e-20 3.94516e-20)
(0.003 9.38219e-20 9.248e-20)
(0.003 2.69383e-20 1.01176e-19)
(0.003 1.31441e-19 1.20157e-19)
(0.003 2.47973e-19 1.14096e-19)
(0.003 2.70561e-19 7.73772e-20)
(0.003 3.11436e-19 1.29421e-19)
(0.003 1.32781e-19 9.54184e-20)
(0.003 3.20793e-20 1.26719e-19)
(0.003 1.33623e-19 1.84281e-19)
(0.003 1.58206e-19 1.98396e-19)
(0.003 2.39821e-20 2.45097e-19)
(0.003 -8.5043e-20 2.43702e-19)
(0.003 1.54144e-21 9.94197e-20)
(0.003 1.4963e-19 9.52274e-20)
(0.003 1.07984e-19 9.73897e-20)
(0.003 7.4417e-20 1.21028e-19)
(0.003 6.24191e-20 8.46314e-20)
(0.003 -8.06076e-20 -8.79261e-20)
(0.003 -2.06606e-19 -5.78095e-20)
(0.003 -1.61643e-19 5.28762e-20)
(0.003 -1.52167e-19 -7.13175e-21)
(0.003 2.67572e-19 3.39783e-19)
(0.003 3.57638e-19 7.01116e-19)
(0.003 5.54852e-19 9.22823e-19)
(0.003 5.119e-19 8.90715e-19)
(0.003 4.33431e-19 8.36142e-19)
(0.003 6.00519e-19 8.73793e-19)
(0.003 5.35234e-19 7.85972e-19)
(0.003 4.65734e-19 5.81655e-19)
(0.003 4.61085e-19 6.51436e-19)
(0.003 4.17982e-19 8.72059e-19)
(0.003 3.71724e-19 8.50017e-19)
(0.003 3.31912e-19 7.33241e-19)
(0.003 2.49178e-19 6.08019e-19)
(0.003 1.66227e-19 4.96435e-19)
(0.003 1.29853e-19 4.7583e-19)
(0.003 1.04843e-19 4.33982e-19)
(0.003 3.04208e-19 4.60349e-19)
(0.003 2.66836e-19 3.72009e-19)
(0.003 1.75167e-19 1.9674e-19)
(0.003 5.73595e-20 1.59158e-19)
(0.003 1.40541e-19 1.73042e-19)
(0.003 2.02031e-19 2.53242e-19)
(0.003 2.59232e-19 2.02204e-19)
(0.003 2.8654e-19 2.61573e-19)
(0.003 1.03578e-19 2.56398e-19)
(0.003 9.93773e-20 1.43904e-19)
(0.003 1.42334e-19 8.26903e-20)
(0.003 7.34943e-20 1.48904e-19)
(0.003 -1.05403e-20 2.71484e-19)
(0.003 2.92892e-20 2.59319e-19)
(0.003 7.31699e-21 1.39961e-19)
(0.003 6.63005e-20 1.17036e-19)
(0.003 1.36833e-19 2.45601e-19)
(0.003 3.77043e-20 1.8976e-19)
(0.003 -1.88111e-20 2.2218e-19)
(0.003 -1.27107e-19 8.84964e-20)
(0.003 -2.43377e-19 -2.17139e-19)
(0.003 -1.67568e-19 -1.68653e-19)
(0.003 7.05532e-21 -1.58253e-20)
(0.003 2.1049e-20 -9.7716e-20)
(0.003 1.94885e-19 4.5016e-19)
(0.003 2.1523e-19 7.77421e-19)
(0.003 3.135e-19 1.04055e-18)
(0.003 4.37703e-19 1.10503e-18)
(0.003 4.26913e-19 9.9767e-19)
(0.003 4.27545e-19 9.63636e-19)
(0.003 4.35309e-19 9.32992e-19)
(0.003 4.37489e-19 8.62002e-19)
(0.003 4.26918e-19 9.4184e-19)
(0.003 3.84968e-19 1.01225e-18)
(0.003 3.43791e-19 8.57209e-19)
(0.003 2.61572e-19 7.95404e-19)
(0.003 3.27417e-19 6.01817e-19)
(0.003 1.96392e-19 5.27792e-19)
(0.003 1.01737e-19 5.45043e-19)
(0.003 6.27332e-20 4.85284e-19)
(0.003 1.46298e-19 5.97431e-19)
(0.003 2.2309e-19 4.97625e-19)
(0.003 1.20903e-19 2.17955e-19)
(0.003 1.43977e-19 1.36009e-19)
(0.003 1.64479e-19 2.81093e-19)
(0.003 1.49017e-19 3.46926e-19)
(0.003 2.24192e-19 2.56227e-19)
(0.003 1.65072e-19 2.35533e-19)
(0.003 6.08709e-20 1.94639e-19)
(0.003 1.59768e-19 1.61532e-19)
(0.003 1.17474e-19 1.19132e-19)
(0.003 -6.80995e-20 1.71083e-19)
(0.003 -4.87771e-20 2.12712e-19)
(0.003 6.90858e-20 3.06938e-19)
(0.003 9.12055e-20 3.0934e-19)
(0.003 1.10616e-19 2.77052e-19)
(0.003 5.94267e-20 2.48249e-19)
(0.003 -6.71521e-20 1.33794e-19)
(0.003 -1.13253e-19 2.54911e-19)
(0.003 -1.44673e-19 1.36646e-19)
(0.003 -1.69272e-19 -1.97549e-19)
(0.003 9.50958e-21 -3.26929e-19)
(0.003 1.33666e-19 -1.44936e-19)
(0.003 1.49366e-19 -3.81975e-20)
(0.003 3.54349e-19 6.0204e-19)
(0.003 3.02585e-19 9.70685e-19)
(0.003 1.90981e-19 1.10223e-18)
(0.003 2.61424e-19 1.19328e-18)
(0.003 3.79555e-19 1.17128e-18)
(0.003 3.52792e-19 1.15149e-18)
(0.003 3.34201e-19 1.07291e-18)
(0.003 2.74161e-19 8.73819e-19)
(0.003 2.53398e-19 9.33586e-19)
(0.003 3.31699e-19 1.04613e-18)
(0.003 3.45472e-19 1.0173e-18)
(0.003 2.99256e-19 9.73116e-19)
(0.003 2.82591e-19 8.01645e-19)
(0.003 1.61041e-19 5.81675e-19)
(0.003 2.51068e-19 5.47842e-19)
(0.003 3.36701e-19 4.8941e-19)
(0.003 1.1501e-19 5.25804e-19)
(0.003 9.64028e-21 5.22364e-19)
(0.003 5.99319e-20 2.81381e-19)
(0.003 1.22485e-19 1.83292e-19)
(0.003 4.67609e-20 3.25139e-19)
(0.003 1.66072e-19 3.89628e-19)
(0.003 2.51693e-19 3.40009e-19)
(0.003 1.89539e-19 3.03829e-19)
(0.003 1.37093e-19 2.36108e-19)
(0.003 1.08362e-19 1.81616e-19)
(0.003 7.48696e-21 6.10741e-20)
(0.003 -4.37794e-20 1.51483e-20)
(0.003 3.44223e-20 2.21697e-19)
(0.003 -5.18506e-21 4.51524e-19)
(0.003 -1.43159e-20 3.64537e-19)
(0.003 -1.34465e-21 2.76116e-19)
(0.003 -1.45032e-19 3.01287e-19)
(0.003 -1.44079e-19 1.85841e-19)
(0.003 -3.52959e-20 1.48843e-19)
(0.003 -6.11093e-20 1.02566e-19)
(0.003 2.09845e-20 -7.94393e-20)
(0.003 1.7472e-19 -2.14794e-19)
(0.003 2.5694e-19 -2.90824e-20)
(0.003 2.35894e-19 8.47319e-20)
(0.003 1.13004e-19 6.20728e-19)
(0.003 2.00985e-19 1.08109e-18)
(0.003 1.61671e-19 1.17654e-18)
(0.003 1.39986e-19 1.16906e-18)
(0.003 2.02955e-19 1.27858e-18)
(0.003 1.93241e-19 1.28944e-18)
(0.003 2.01358e-19 1.16864e-18)
(0.003 3.82657e-19 8.93631e-19)
(0.003 3.8711e-19 9.01425e-19)
(0.003 3.06268e-19 1.10687e-18)
(0.003 2.47236e-19 1.09961e-18)
(0.003 2.43552e-19 9.79172e-19)
(0.003 2.47522e-19 8.60864e-19)
(0.003 1.59486e-19 6.57609e-19)
(0.003 2.38349e-19 6.7659e-19)
(0.003 3.70718e-19 7.05888e-19)
(0.003 1.3678e-19 5.78227e-19)
(0.003 -7.55709e-20 4.01173e-19)
(0.003 -1.1814e-20 3.31655e-19)
(0.003 8.16694e-20 2.41437e-19)
(0.003 -2.82032e-20 2.59286e-19)
(0.003 8.4387e-20 3.79874e-19)
(0.003 2.51197e-19 4.57374e-19)
(0.003 2.10747e-19 3.23718e-19)
(0.003 1.61427e-19 2.86376e-19)
(0.003 9.66279e-20 2.46257e-19)
(0.003 5.88578e-20 1.27395e-19)
(0.003 3.29382e-20 1.28826e-19)
(0.003 4.32961e-21 2.16693e-19)
(0.003 -4.58015e-20 2.18552e-19)
(0.003 6.87664e-20 2.42227e-19)
(0.003 3.82384e-20 3.09319e-19)
(0.003 -1.7758e-19 1.70776e-19)
(0.003 -1.67271e-19 6.12434e-20)
(0.003 -4.70975e-20 1.31317e-19)
(0.003 1.76324e-20 8.33482e-20)
(0.003 1.46206e-19 4.40522e-20)
(0.003 2.03832e-19 -5.872e-20)
(0.003 1.22467e-19 2.8022e-20)
(0.003 6.96889e-20 7.03446e-20)
(0.003 -6.15299e-21 6.82658e-19)
(0.003 1.5968e-19 1.06801e-18)
(0.003 1.26854e-19 1.14123e-18)
(0.003 1.29848e-19 1.20184e-18)
(0.003 1.40184e-19 1.26611e-18)
(0.003 1.70789e-19 1.25935e-18)
(0.003 2.06833e-19 1.19359e-18)
(0.003 4.78142e-19 1.19761e-18)
(0.003 4.58901e-19 1.10043e-18)
(0.003 2.59196e-19 1.02424e-18)
(0.003 2.08652e-19 1.01444e-18)
(0.003 2.5458e-19 1.0616e-18)
(0.003 2.77815e-19 9.67496e-19)
(0.003 3.11267e-19 7.08052e-19)
(0.003 2.62409e-19 7.78694e-19)
(0.003 1.88184e-19 7.93703e-19)
(0.003 2.86294e-20 5.84424e-19)
(0.003 -1.05849e-19 3.88843e-19)
(0.003 -1.4321e-19 3.20579e-19)
(0.003 -6.2878e-20 2.67927e-19)
(0.003 1.12988e-19 2.38324e-19)
(0.003 1.44241e-19 3.91051e-19)
(0.003 1.88678e-19 4.57673e-19)
(0.003 2.42774e-19 3.34254e-19)
(0.003 1.57784e-19 2.51388e-19)
(0.003 8.98184e-20 2.536e-19)
(0.003 8.52589e-20 2.70916e-19)
(0.003 -4.03757e-20 1.35736e-19)
(0.003 -1.71382e-19 1.43793e-19)
(0.003 -8.757e-20 2.89625e-19)
(0.003 1.25204e-19 3.28245e-19)
(0.003 1.37343e-19 2.43626e-19)
(0.003 1.26867e-20 4.90518e-20)
(0.003 -5.99561e-21 9.13119e-20)
(0.003 2.50969e-20 1.08962e-19)
(0.003 1.26619e-19 3.26928e-20)
(0.003 1.47436e-19 7.13279e-20)
(0.003 7.77318e-20 -2.17711e-20)
(0.003 4.62999e-20 -4.1359e-20)
(0.003 5.62355e-20 4.49184e-20)
(0.003 9.5909e-20 7.962e-19)
(0.003 1.65304e-19 1.19069e-18)
(0.003 1.49176e-19 1.21646e-18)
(0.003 7.76281e-20 1.21777e-18)
(0.003 1.65375e-19 1.30592e-18)
(0.003 1.73482e-19 1.36262e-18)
(0.003 2.27614e-19 1.2535e-18)
(0.003 4.17695e-19 1.22104e-18)
(0.003 4.31801e-19 1.19717e-18)
(0.003 3.46803e-19 1.12416e-18)
(0.003 2.52436e-19 1.09631e-18)
(0.003 2.25001e-19 1.04864e-18)
(0.003 2.34536e-19 9.5048e-19)
(0.003 3.6125e-19 8.18538e-19)
(0.003 2.39901e-19 8.6766e-19)
(0.003 1.53149e-19 7.72082e-19)
(0.003 6.95329e-20 4.92079e-19)
(0.003 2.42103e-20 3.17383e-19)
(0.003 -5.05615e-20 1.91322e-19)
(0.003 -5.22554e-20 1.87373e-19)
(0.003 2.34369e-19 3.0622e-19)
(0.003 2.29957e-19 4.20745e-19)
(0.003 4.38749e-20 4.43236e-19)
(0.003 2.37238e-20 4.38515e-19)
(0.003 2.33267e-20 3.5719e-19)
(0.003 7.47752e-20 2.60833e-19)
(0.003 2.86998e-20 2.13021e-19)
(0.003 -4.76847e-20 1.22882e-19)
(0.003 -1.23589e-19 7.49743e-20)
(0.003 -8.87162e-20 1.42812e-19)
(0.003 5.14506e-20 2.87877e-19)
(0.003 -1.42378e-20 2.76165e-19)
(0.003 -1.33212e-20 1.02638e-19)
(0.003 1.67729e-19 5.07044e-20)
(0.003 2.29036e-19 1.25692e-19)
(0.003 2.21152e-19 1.46022e-19)
(0.003 5.8912e-20 -7.38823e-20)
(0.003 -6.32105e-20 -2.04013e-19)
(0.003 -2.28836e-20 6.88623e-20)
(0.003 8.5558e-21 1.2857e-19)
(0.003 2.22423e-19 6.93781e-19)
(0.003 2.18571e-19 1.13144e-18)
(0.003 2.02284e-19 1.24241e-18)
(0.003 1.7448e-19 1.31318e-18)
(0.003 1.39081e-19 1.42408e-18)
(0.003 1.57619e-19 1.33758e-18)
(0.003 2.98331e-19 1.27732e-18)
(0.003 3.02334e-19 1.36839e-18)
(0.003 3.2977e-19 1.32784e-18)
(0.003 3.90287e-19 1.23412e-18)
(0.003 2.5527e-19 1.09747e-18)
(0.003 1.47572e-19 1.02415e-18)
(0.003 1.34133e-19 8.77366e-19)
(0.003 3.1071e-19 8.01917e-19)
(0.003 2.44408e-19 8.43648e-19)
(0.003 1.32219e-19 8.11822e-19)
(0.003 6.4059e-20 5.43064e-19)
(0.003 1.22816e-19 2.63317e-19)
(0.003 2.77465e-19 1.51276e-19)
(0.003 2.65032e-19 1.70422e-19)
(0.003 1.89935e-19 3.19038e-19)
(0.003 6.31245e-20 5.3884e-19)
(0.003 -6.24531e-20 5.0413e-19)
(0.003 -5.98854e-20 4.15453e-19)
(0.003 -6.90607e-20 3.68977e-19)
(0.003 2.67603e-21 2.6911e-19)
(0.003 6.14046e-20 1.45285e-19)
(0.003 3.06267e-20 7.16194e-20)
(0.003 -6.26696e-20 7.59177e-20)
(0.003 -3.77943e-20 1.7122e-19)
(0.003 -1.27427e-19 3.39127e-19)
(0.003 -9.15226e-20 2.67117e-19)
(0.003 4.07844e-20 1.88427e-19)
(0.003 1.28024e-19 1.89052e-19)
(0.003 2.5786e-19 1.31814e-19)
(0.003 1.17492e-19 -9.57348e-20)
(0.003 -2.88476e-20 -4.02575e-19)
(0.003 -1.09675e-19 -1.20897e-19)
(0.003 -1.00258e-19 1.56304e-19)
(0.003 -2.51909e-20 9.78419e-20)
(0.003 -8.08174e-20 7.14976e-19)
(0.003 3.14519e-20 1.32475e-18)
(0.003 1.85572e-19 1.41869e-18)
(0.003 2.14776e-19 1.3706e-18)
(0.003 1.56757e-19 1.38576e-18)
(0.003 2.78393e-19 1.40436e-18)
(0.003 3.52378e-19 1.40985e-18)
(0.003 1.63599e-19 1.38406e-18)
(0.003 1.84159e-19 1.34343e-18)
(0.003 2.65758e-19 1.3007e-18)
(0.003 2.12611e-19 1.14127e-18)
(0.003 5.737e-20 1.04547e-18)
(0.003 6.2223e-20 8.30856e-19)
(0.003 2.29478e-19 8.27664e-19)
(0.003 2.49115e-19 8.24118e-19)
(0.003 9.44094e-20 7.7519e-19)
(0.003 1.80183e-19 5.8847e-19)
(0.003 1.83969e-19 3.0234e-19)
(0.003 1.15109e-19 2.90845e-19)
(0.003 1.64628e-19 3.16731e-19)
(0.003 1.18406e-19 3.03275e-19)
(0.003 4.56999e-20 5.0775e-19)
(0.003 8.33204e-20 5.50704e-19)
(0.003 1.25259e-19 5.1128e-19)
(0.003 3.53903e-20 2.82208e-19)
(0.003 -5.77757e-20 1.46732e-19)
(0.003 -3.68842e-20 1.78571e-19)
(0.003 3.02133e-20 1.29045e-19)
(0.003 1.26254e-21 6.34467e-21)
(0.003 -5.10211e-20 1.16742e-19)
(0.003 -1.56635e-19 2.94838e-19)
(0.003 -1.30079e-19 3.28095e-19)
(0.003 3.53874e-20 2.032e-19)
(0.003 7.94579e-20 1.39052e-19)
(0.003 9.9177e-20 -3.50817e-20)
(0.003 3.02209e-20 -3.1982e-19)
(0.003 -1.26948e-20 -2.63723e-19)
(0.003 -6.27865e-21 -1.33909e-19)
(0.003 -2.09379e-20 9.65714e-20)
(0.003 -2.09363e-20 1.42312e-19)
(0.003 -2.40294e-19 8.09677e-19)
(0.003 -6.4217e-21 1.24226e-18)
(0.003 2.10897e-19 1.43747e-18)
(0.003 2.91992e-19 1.50642e-18)
(0.003 2.12847e-19 1.50886e-18)
(0.003 2.25512e-19 1.48131e-18)
(0.003 3.22775e-19 1.49637e-18)
(0.003 1.79369e-19 1.40602e-18)
(0.003 1.49562e-19 1.23418e-18)
(0.003 1.97987e-19 1.24516e-18)
(0.003 2.79775e-19 1.14812e-18)
(0.003 9.72001e-20 9.93298e-19)
(0.003 1.97587e-20 9.24134e-19)
(0.003 6.65933e-20 9.25563e-19)
(0.003 1.99798e-19 8.63979e-19)
(0.003 2.39086e-19 7.21451e-19)
(0.003 2.1648e-19 5.55514e-19)
(0.003 1.14652e-19 3.76885e-19)
(0.003 -1.08358e-19 1.9466e-19)
(0.003 -5.02958e-20 2.05766e-19)
(0.003 9.54458e-20 3.74345e-19)
(0.003 2.00885e-19 5.41076e-19)
(0.003 1.80103e-19 6.50873e-19)
(0.003 1.05463e-19 5.68136e-19)
(0.003 1.40227e-19 3.2682e-19)
(0.003 4.05693e-20 1.95326e-19)
(0.003 -1.26139e-19 1.41511e-19)
(0.003 -1.00284e-19 4.06266e-20)
(0.003 5.59809e-20 -5.07411e-21)
(0.003 3.49836e-20 1.57692e-19)
(0.003 -4.74445e-20 2.51514e-19)
(0.003 -1.10981e-19 2.81151e-19)
(0.003 -5.62779e-20 2.87473e-19)
(0.003 -8.05182e-21 2.17918e-19)
(0.003 -3.76791e-20 1.75251e-20)
(0.003 1.96801e-20 -2.91589e-19)
(0.003 6.2001e-20 -3.07104e-19)
(0.003 1.67279e-19 -2.37508e-19)
(0.003 2.13403e-19 -1.10158e-19)
(0.003 1.10421e-19 6.7747e-20)
(0.003 1.17663e-19 8.41874e-19)
(0.003 2.0857e-19 1.38308e-18)
(0.003 2.46177e-19 1.59575e-18)
(0.003 2.34506e-19 1.57715e-18)
(0.003 2.02912e-19 1.49499e-18)
(0.003 2.69461e-19 1.46395e-18)
(0.003 1.85251e-19 1.48435e-18)
(0.003 1.48785e-19 1.38975e-18)
(0.003 1.05023e-19 1.3124e-18)
(0.003 1.82977e-19 1.22169e-18)
(0.003 3.30236e-19 1.12664e-18)
(0.003 2.08284e-19 1.03378e-18)
(0.003 1.31194e-19 8.89086e-19)
(0.003 7.30017e-20 8.18794e-19)
(0.003 1.07889e-19 8.97931e-19)
(0.003 1.74191e-19 8.71411e-19)
(0.003 1.19732e-19 5.38639e-19)
(0.003 7.51374e-21 2.42063e-19)
(0.003 4.08641e-22 1.61984e-19)
(0.003 2.54279e-20 3.07726e-19)
(0.003 1.47007e-19 4.20211e-19)
(0.003 2.40193e-19 5.73636e-19)
(0.003 9.71099e-20 6.85707e-19)
(0.003 6.74094e-20 6.70737e-19)
(0.003 1.21211e-19 3.05227e-19)
(0.003 -4.16669e-20 9.70155e-20)
(0.003 -1.49559e-19 9.79804e-20)
(0.003 -6.95517e-20 7.66889e-20)
(0.003 3.59287e-20 1.30212e-20)
(0.003 -4.24712e-20 1.78647e-19)
(0.003 -9.19381e-20 3.07602e-19)
(0.003 -5.94075e-20 2.43896e-19)
(0.003 -3.43129e-20 2.09443e-19)
(0.003 -6.15407e-20 1.89447e-19)
(0.003 -1.30652e-19 8.58057e-20)
(0.003 -1.50205e-19 -2.21829e-19)
(0.003 8.78695e-21 -3.02977e-19)
(0.003 2.47509e-19 -1.9087e-19)
(0.003 3.03977e-19 -1.24312e-19)
(0.003 2.57625e-19 -1.03288e-19)
(0.003 2.65565e-19 9.36917e-19)
(0.003 2.49734e-19 1.4643e-18)
(0.003 1.85488e-19 1.58918e-18)
(0.003 1.55531e-19 1.50471e-18)
(0.003 2.27201e-19 1.49583e-18)
(0.003 1.98532e-19 1.54714e-18)
(0.003 1.49557e-19 1.46526e-18)
(0.003 2.45083e-19 1.37137e-18)
(0.003 1.8567e-19 1.20526e-18)
(0.003 6.18169e-20 1.26647e-18)
(0.003 1.33821e-19 1.23142e-18)
(0.003 1.5949e-19 1.05546e-18)
(0.003 2.08127e-19 9.44853e-19)
(0.003 1.85598e-19 7.84564e-19)
(0.003 7.28381e-20 8.41131e-19)
(0.003 -5.38306e-20 8.5879e-19)
(0.003 -5.44567e-20 5.94561e-19)
(0.003 9.97153e-20 2.65157e-19)
(0.003 2.83956e-19 2.46239e-19)
(0.003 2.13266e-19 3.20235e-19)
(0.003 1.04414e-19 4.21944e-19)
(0.003 -3.35651e-20 5.5145e-19)
(0.003 -6.81191e-20 6.085e-19)
(0.003 2.57852e-21 6.29639e-19)
(0.003 -2.49549e-20 4.21302e-19)
(0.003 -7.71054e-20 1.73895e-19)
(0.003 -4.66152e-20 1.1778e-19)
(0.003 -4.63378e-21 9.8911e-20)
(0.003 -6.09605e-20 -3.64923e-20)
(0.003 -1.61237e-19 1.21507e-19)
(0.003 -2.12884e-20 2.54181e-19)
(0.003 -1.1903e-20 2.47792e-19)
(0.003 -1.16536e-19 2.07276e-19)
(0.003 -5.53361e-20 1.54907e-19)
(0.003 -7.77749e-20 1.95765e-19)
(0.003 -1.29276e-19 -5.75043e-20)
(0.003 -5.25281e-20 -3.47142e-19)
(0.003 1.84334e-19 -2.30196e-19)
(0.003 2.23878e-19 -2.24675e-19)
(0.003 1.31971e-19 -3.47279e-19)
(0.003 2.56069e-19 9.72539e-19)
(0.003 2.52942e-19 1.48026e-18)
(0.003 1.28076e-19 1.54289e-18)
(0.003 1.86953e-19 1.57863e-18)
(0.003 1.12662e-19 1.57234e-18)
(0.003 4.08059e-21 1.51802e-18)
(0.003 1.56055e-19 1.46823e-18)
(0.003 1.75165e-19 1.41022e-18)
(0.003 1.79359e-19 1.34138e-18)
(0.003 1.39342e-19 1.2989e-18)
(0.003 -2.55729e-20 1.14993e-18)
(0.003 4.74404e-20 1.00041e-18)
(0.003 2.24436e-19 9.48212e-19)
(0.003 3.15834e-19 8.80302e-19)
(0.003 1.03246e-19 8.52401e-19)
(0.003 -6.70954e-20 7.38858e-19)
(0.003 -4.81438e-20 5.16502e-19)
(0.003 5.72999e-20 3.25668e-19)
(0.003 2.12283e-19 3.56087e-19)
(0.003 2.28256e-19 4.25077e-19)
(0.003 1.48658e-19 4.55048e-19)
(0.003 4.18378e-20 5.30792e-19)
(0.003 4.98435e-20 5.96199e-19)
(0.003 3.53082e-20 5.76412e-19)
(0.003 -1.39066e-19 3.75275e-19)
(0.003 -5.73527e-20 1.23114e-19)
(0.003 5.66986e-20 6.06168e-20)
(0.003 -1.69615e-20 9.34109e-20)
(0.003 -2.27992e-19 2.8617e-21)
(0.003 -2.44755e-19 5.20451e-20)
(0.003 -6.46555e-20 2.67377e-19)
(0.003 4.17053e-22 2.55137e-19)
(0.003 -6.2253e-20 9.70735e-20)
(0.003 -3.99005e-20 1.84882e-19)
(0.003 -7.90359e-20 2.71392e-19)
(0.003 -3.94016e-20 2.39083e-20)
(0.003 1.18446e-19 -2.24572e-19)
(0.003 1.94281e-19 -2.82006e-19)
(0.003 1.07239e-19 -3.14731e-19)
(0.003 2.71186e-20 -4.07346e-19)
(0.003 4.23175e-21 1.02414e-18)
(0.003 1.69363e-19 1.53889e-18)
(0.003 1.77105e-19 1.53297e-18)
(0.003 1.41096e-20 1.5639e-18)
(0.003 -1.09476e-19 1.54808e-18)
(0.003 -4.91904e-20 1.52466e-18)
(0.003 1.75721e-19 1.44931e-18)
(0.003 2.80595e-19 1.33102e-18)
(0.003 1.62452e-19 1.32078e-18)
(0.003 6.22999e-22 1.34754e-18)
(0.003 -6.44338e-20 1.17829e-18)
(0.003 1.55527e-19 9.87632e-19)
(0.003 2.40076e-19 1.02281e-18)
(0.003 1.92338e-19 9.9424e-19)
(0.003 5.2734e-20 9.27536e-19)
(0.003 -2.51838e-21 7.33781e-19)
(0.003 -7.84601e-21 5.52893e-19)
(0.003 1.60935e-19 3.79488e-19)
(0.003 2.14943e-19 3.44195e-19)
(0.003 1.53334e-19 3.82444e-19)
(0.003 2.25181e-19 4.72972e-19)
(0.003 1.06211e-19 5.63882e-19)
(0.003 -2.97434e-20 5.78986e-19)
(0.003 -3.30849e-20 5.79184e-19)
(0.003 -1.0124e-19 2.93513e-19)
(0.003 -5.09683e-20 2.19746e-20)
(0.003 1.17254e-20 4.48574e-20)
(0.003 -6.79835e-21 9.49523e-20)
(0.003 -9.59414e-20 -1.87284e-20)
(0.003 -1.62061e-19 6.20802e-20)
(0.003 -2.34714e-19 3.29542e-19)
(0.003 -1.0006e-19 2.49788e-19)
(0.003 7.9497e-21 1.34179e-19)
(0.003 -8.9335e-20 1.74211e-19)
(0.003 -9.21475e-20 2.22115e-19)
(0.003 7.35718e-20 -6.18004e-20)
(0.003 1.96929e-19 -4.69033e-19)
(0.003 1.40523e-19 -2.9652e-19)
(0.003 4.34416e-20 -3.30187e-19)
(0.003 -4.27013e-20 -4.96867e-19)
(0.003 -2.03666e-19 1.03666e-18)
(0.003 -1.90078e-19 1.5016e-18)
(0.003 3.15516e-20 1.60433e-18)
(0.003 1.47976e-20 1.51723e-18)
(0.003 3.59297e-20 1.46416e-18)
(0.003 -1.07244e-21 1.50395e-18)
(0.003 1.41709e-19 1.55391e-18)
(0.003 3.0594e-19 1.47014e-18)
(0.003 8.15311e-20 1.34552e-18)
(0.003 -1.36536e-19 1.29551e-18)
(0.003 9.25526e-20 1.16582e-18)
(0.003 2.68797e-19 1.06212e-18)
(0.003 1.307e-19 1.13306e-18)
(0.003 -5.33754e-20 1.03904e-18)
(0.003 -3.54165e-20 8.32268e-19)
(0.003 -1.78524e-20 7.27056e-19)
(0.003 6.50244e-20 4.75602e-19)
(0.003 2.83565e-19 4.22402e-19)
(0.003 2.18398e-19 4.85527e-19)
(0.003 1.58501e-19 4.07311e-19)
(0.003 2.34489e-19 5.39665e-19)
(0.003 7.75827e-20 6.07407e-19)
(0.003 -1.48195e-19 6.25329e-19)
(0.003 -2.56515e-19 5.25445e-19)
(0.003 -2.10993e-19 1.99062e-19)
(0.003 -2.94126e-20 3.32449e-20)
(0.003 1.63483e-19 7.68831e-21)
(0.003 1.1311e-19 -1.22481e-20)
(0.003 -1.75277e-20 -2.11108e-20)
(0.003 -1.09354e-19 1.35428e-19)
(0.003 -1.03748e-19 2.83e-19)
(0.003 -5.70374e-20 2.18125e-19)
(0.003 -9.13708e-20 9.37101e-20)
(0.003 -1.04653e-19 9.25492e-20)
(0.003 -9.52703e-20 2.05455e-19)
(0.003 -6.52994e-20 3.99414e-21)
(0.003 6.76508e-20 -3.59136e-19)
(0.003 1.40626e-19 -3.09654e-19)
(0.003 -3.06878e-20 -3.92511e-19)
(0.003 -1.36583e-19 -5.69273e-19)
(0.003 -7.98063e-20 9.7097e-19)
(0.003 -2.84954e-19 1.48695e-18)
(0.003 -1.9722e-19 1.65468e-18)
(0.003 -9.5447e-20 1.56733e-18)
(0.003 4.38697e-20 1.54099e-18)
(0.003 6.6819e-20 1.52879e-18)
(0.003 2.09737e-20 1.55273e-18)
(0.003 7.24798e-20 1.51974e-18)
(0.003 9.29246e-21 1.358e-18)
(0.003 1.87631e-20 1.18917e-18)
(0.003 1.71211e-19 1.22898e-18)
(0.003 2.22607e-19 1.21963e-18)
(0.003 -9.99522e-21 1.17474e-18)
(0.003 -7.34039e-20 1.07029e-18)
(0.003 7.75567e-21 9.21125e-19)
(0.003 4.39897e-20 6.91127e-19)
(0.003 8.67729e-20 4.68464e-19)
(0.003 2.33657e-20 4.33238e-19)
(0.003 1.29497e-19 5.04565e-19)
(0.003 2.389e-19 4.73528e-19)
(0.003 1.03124e-19 5.37305e-19)
(0.003 3.65886e-20 6.66417e-19)
(0.003 -1.32661e-19 5.95916e-19)
(0.003 -3.36794e-19 3.91221e-19)
(0.003 -2.15085e-19 1.41459e-19)
(0.003 -7.5782e-20 1.5142e-19)
(0.003 7.31824e-20 -3.28938e-20)
(0.003 7.58464e-20 -2.20886e-19)
(0.003 5.15104e-20 5.09401e-21)
(0.003 7.61343e-20 1.88176e-19)
(0.003 5.21656e-20 2.56413e-19)
(0.003 -3.10797e-20 1.62418e-19)
(0.003 -1.30009e-19 7.20703e-20)
(0.003 -1.03085e-19 1.56762e-19)
(0.003 -6.49057e-20 2.11416e-19)
(0.003 -1.08253e-19 -1.65317e-20)
(0.003 -1.367e-19 -3.08396e-19)
(0.003 -1.4118e-19 -2.65859e-19)
(0.003 -1.47322e-19 -3.44702e-19)
(0.003 -9.47794e-22 -4.97979e-19)
(0.003 -1.64549e-19 8.75208e-19)
(0.003 -1.34806e-19 1.40675e-18)
(0.003 4.38971e-21 1.60913e-18)
(0.003 -1.01128e-19 1.58099e-18)
(0.003 -1.59225e-19 1.60478e-18)
(0.003 -1.49519e-20 1.59488e-18)
(0.003 -1.76182e-20 1.61968e-18)
(0.003 -3.1953e-20 1.6084e-18)
(0.003 8.04356e-20 1.39691e-18)
(0.003 1.77638e-19 1.26302e-18)
(0.003 1.26232e-19 1.26621e-18)
(0.003 1.12665e-19 1.26432e-18)
(0.003 3.38835e-20 1.16786e-18)
(0.003 -5.8791e-20 1.08311e-18)
(0.003 -1.27976e-19 8.60897e-19)
(0.003 8.70324e-20 6.00273e-19)
(0.003 1.56643e-19 4.24427e-19)
(0.003 -4.51773e-20 4.97587e-19)
(0.003 1.80857e-20 6.63475e-19)
(0.003 1.82575e-19 6.04185e-19)
(0.003 1.3088e-19 6.07085e-19)
(0.003 3.40501e-20 5.13656e-19)
(0.003 -1.41408e-19 4.04281e-19)
(0.003 -2.74853e-19 2.62307e-19)
(0.003 -1.9222e-19 1.1479e-19)
(0.003 -8.0199e-20 2.03374e-19)
(0.003 -1.17936e-19 1.00059e-19)
(0.003 -1.12799e-19 -1.17954e-20)
(0.003 3.68957e-20 4.86705e-20)
(0.003 1.27646e-19 9.01158e-20)
(0.003 6.99479e-20 1.09224e-19)
(0.003 -5.0433e-20 9.98198e-20)
(0.003 -1.30551e-19 8.77348e-20)
(0.003 -1.40929e-19 2.53445e-19)
(0.003 -1.1338e-19 2.50577e-19)
(0.003 -2.78005e-20 -2.49057e-20)
(0.003 -1.17263e-19 -3.41336e-19)
(0.003 -2.17462e-19 -2.64842e-19)
(0.003 -1.15906e-19 -4.71859e-19)
(0.003 1.72573e-20 -6.36164e-19)
(0.003 -2.05385e-19 8.22534e-19)
(0.003 -2.02138e-19 1.43887e-18)
(0.003 -1.39986e-19 1.74326e-18)
(0.003 1.26622e-20 1.64557e-18)
(0.003 4.06231e-20 1.54686e-18)
(0.003 -2.23889e-20 1.59614e-18)
(0.003 -1.26524e-19 1.63964e-18)
(0.003 -1.83113e-19 1.57995e-18)
(0.003 3.2063e-20 1.4679e-18)
(0.003 1.19284e-19 1.31397e-18)
(0.003 9.51806e-20 1.21659e-18)
(0.003 3.26633e-20 1.24918e-18)
(0.003 4.3332e-20 1.17078e-18)
(0.003 2.00542e-20 1.0759e-18)
(0.003 1.88521e-20 9.01636e-19)
(0.003 8.52989e-20 7.63472e-19)
(0.003 1.90731e-19 5.85962e-19)
(0.003 2.78978e-19 4.09955e-19)
(0.003 2.75602e-19 4.82966e-19)
(0.003 3.46558e-20 5.34259e-19)
(0.003 -1.43018e-19 6.31328e-19)
(0.003 -1.5753e-19 6.68822e-19)
(0.003 -1.0632e-19 4.17671e-19)
(0.003 -7.0869e-20 2.41565e-19)
(0.003 -1.27869e-19 1.18171e-19)
(0.003 -1.4464e-19 1.94541e-19)
(0.003 -1.28113e-19 2.25668e-19)
(0.003 -1.7171e-19 8.54629e-20)
(0.003 -8.31399e-20 6.5903e-20)
(0.003 2.35572e-20 7.1617e-20)
(0.003 6.7028e-20 2.71873e-20)
(0.003 -4.19731e-21 3.58929e-20)
(0.003 -6.127e-20 4.11439e-20)
(0.003 -4.81077e-20 1.04836e-19)
(0.003 -7.21293e-20 1.1724e-19)
(0.003 -1.39792e-19 6.60133e-20)
(0.003 -2.4571e-19 -1.40153e-19)
(0.003 -1.95364e-19 -3.0284e-19)
(0.003 5.33052e-20 -4.31106e-19)
(0.003 9.5803e-20 -4.66976e-19)
(0.003 -1.45946e-19 7.85153e-19)
(0.003 -2.2179e-19 1.38626e-18)
(0.003 -2.09108e-19 1.61367e-18)
(0.003 7.17966e-20 1.66979e-18)
(0.003 1.50859e-19 1.61812e-18)
(0.003 -1.08412e-19 1.60628e-18)
(0.003 -2.69428e-19 1.62115e-18)
(0.003 -1.41245e-19 1.61562e-18)
(0.003 6.36917e-20 1.53273e-18)
(0.003 1.23604e-19 1.38214e-18)
(0.003 2.29034e-20 1.27436e-18)
(0.003 3.66498e-20 1.21179e-18)
(0.003 -2.61422e-20 1.13982e-18)
(0.003 -8.37112e-21 1.10689e-18)
(0.003 1.95533e-19 9.19649e-19)
(0.003 9.2601e-20 8.28324e-19)
(0.003 3.29466e-21 7.10047e-19)
(0.003 1.64064e-19 5.55528e-19)
(0.003 2.79825e-19 5.58807e-19)
(0.003 4.05579e-21 4.26859e-19)
(0.003 -1.5707e-19 5.26911e-19)
(0.003 -1.37461e-19 5.42289e-19)
(0.003 -2.73309e-20 4.85948e-19)
(0.003 -7.22121e-20 2.90987e-19)
(0.003 -3.44219e-20 1.38711e-19)
(0.003 -1.27648e-19 1.96592e-19)
(0.003 -1.29718e-20 1.83782e-19)
(0.003 -1.49909e-20 7.63255e-20)
(0.003 -9.08249e-20 8.99193e-21)
(0.003 1.3952e-20 3.32422e-20)
(0.003 1.19008e-19 7.50872e-20)
(0.003 2.54502e-20 -2.67834e-20)
(0.003 2.76061e-20 -7.11854e-20)
(0.003 1.79935e-20 1.44988e-19)
(0.003 -4.5161e-21 1.11919e-19)
(0.003 -1.64972e-19 -2.30892e-21)
(0.003 -2.28313e-19 3.12507e-22)
(0.003 -2.26664e-19 -4.82698e-20)
(0.003 -9.68046e-20 -2.78936e-19)
(0.003 2.02794e-20 -3.19048e-19)
(0.003 4.39524e-20 8.27169e-19)
(0.003 2.07587e-20 1.39385e-18)
(0.003 8.83744e-21 1.60083e-18)
(0.003 -1.74701e-20 1.63681e-18)
(0.003 1.48793e-20 1.66387e-18)
(0.003 -1.20145e-19 1.56803e-18)
(0.003 -2.6502e-19 1.5133e-18)
(0.003 -2.40826e-19 1.60223e-18)
(0.003 -1.06797e-19 1.60265e-18)
(0.003 1.4333e-19 1.47154e-18)
(0.003 1.90976e-19 1.2572e-18)
(0.003 8.23328e-20 1.26203e-18)
(0.003 4.91216e-20 1.06653e-18)
(0.003 3.88018e-20 1.09497e-18)
(0.003 1.26416e-19 1.09514e-18)
(0.003 3.48476e-20 9.05616e-19)
(0.003 -5.90728e-20 6.28867e-19)
(0.003 -1.92158e-19 4.35016e-19)
(0.003 -1.89816e-19 5.74377e-19)
(0.003 -2.07643e-20 4.73687e-19)
(0.003 2.87954e-21 4.7022e-19)
(0.003 -2.90684e-20 5.68969e-19)
(0.003 -3.41752e-20 5.75615e-19)
(0.003 2.82236e-20 2.67127e-19)
(0.003 1.29544e-19 8.44261e-20)
(0.003 2.39219e-20 1.46748e-19)
(0.003 5.65844e-20 2.70984e-19)
(0.003 1.37457e-19 1.13638e-19)
(0.003 1.01935e-19 2.75134e-20)
(0.003 -2.18052e-20 -3.46103e-20)
(0.003 -8.30177e-20 8.84692e-20)
(0.003 -6.90731e-20 2.93552e-20)
(0.003 4.34352e-20 -1.6671e-20)
(0.003 -1.42935e-20 6.94292e-20)
(0.003 1.4617e-20 9.69754e-20)
(0.003 3.89978e-20 6.28373e-20)
(0.003 -4.63116e-20 6.82843e-21)
(0.003 -1.05687e-19 -1.89498e-19)
(0.003 -1.61024e-19 -4.42924e-19)
(0.003 -1.03475e-19 -3.6386e-19)
(0.003 2.71159e-19 7.92057e-19)
(0.003 2.44505e-19 1.32839e-18)
(0.003 -8.82324e-21 1.56875e-18)
(0.003 -1.55724e-19 1.64425e-18)
(0.003 -8.91487e-20 1.64236e-18)
(0.003 1.66138e-20 1.53767e-18)
(0.003 -4.189e-20 1.52562e-18)
(0.003 -2.69032e-19 1.48715e-18)
(0.003 -2.73818e-19 1.49638e-18)
(0.003 -1.15232e-20 1.58057e-18)
(0.003 2.31073e-19 1.52401e-18)
(0.003 -6.20611e-21 1.33127e-18)
(0.003 8.52756e-20 1.18661e-18)
(0.003 2.14075e-19 1.07901e-18)
(0.003 6.86107e-20 1.0511e-18)
(0.003 -4.37888e-20 8.7092e-19)
(0.003 -1.18249e-19 6.17643e-19)
(0.003 -1.88584e-19 4.61682e-19)
(0.003 -2.77125e-19 5.45051e-19)
(0.003 -1.47573e-19 4.74256e-19)
(0.003 -8.91857e-20 5.02298e-19)
(0.003 -1.58372e-19 5.03537e-19)
(0.003 -7.22688e-20 4.51369e-19)
(0.003 1.22999e-19 3.8659e-19)
(0.003 2.1654e-19 2.62076e-19)
(0.003 1.66533e-19 1.68196e-19)
(0.003 1.07693e-20 1.71591e-19)
(0.003 1.3102e-19 9.94598e-20)
(0.003 1.48953e-19 1.50417e-20)
(0.003 -5.5555e-20 -1.88034e-19)
(0.003 -5.20778e-20 -5.17201e-21)
(0.003 -3.46595e-20 3.44615e-21)
(0.003 -1.03996e-20 -1.85984e-20)
(0.003 -2.16894e-20 6.2448e-20)
(0.003 3.46282e-20 1.28767e-19)
(0.003 1.9476e-19 6.22015e-20)
(0.003 8.45478e-20 -1.33804e-20)
(0.003 -7.74913e-21 -8.79526e-20)
(0.003 -1.13876e-19 -2.51399e-19)
(0.003 -2.0277e-19 -1.77259e-19)
(0.003 2.61458e-19 8.35963e-19)
(0.003 2.73717e-19 1.39587e-18)
(0.003 2.7834e-20 1.57165e-18)
(0.003 -2.54302e-20 1.57883e-18)
(0.003 -7.26096e-20 1.5567e-18)
(0.003 4.53515e-20 1.50606e-18)
(0.003 2.9969e-20 1.51192e-18)
(0.003 -9.88536e-20 1.42864e-18)
(0.003 -1.43885e-19 1.46414e-18)
(0.003 -1.36499e-19 1.64327e-18)
(0.003 -5.60154e-20 1.56808e-18)
(0.003 -1.30501e-20 1.31645e-18)
(0.003 9.82885e-21 1.19526e-18)
(0.003 -6.52808e-20 1.20857e-18)
(0.003 -8.91386e-20 1.04478e-18)
(0.003 -4.73854e-20 8.62136e-19)
(0.003 -1.5636e-19 6.56382e-19)
(0.003 -2.4324e-19 4.21538e-19)
(0.003 -2.98349e-19 4.68051e-19)
(0.003 -1.79748e-19 4.65824e-19)
(0.003 -1.68165e-19 4.98767e-19)
(0.003 -1.11644e-19 4.70745e-19)
(0.003 1.4887e-19 4.83079e-19)
(0.003 1.80195e-19 3.73192e-19)
(0.003 1.11927e-19 2.0392e-19)
(0.003 1.66379e-19 2.03801e-19)
(0.003 7.19684e-20 1.66704e-19)
(0.003 5.38126e-20 8.77323e-20)
(0.003 1.2964e-19 5.2654e-20)
(0.003 1.04322e-19 -2.06205e-19)
(0.003 8.64504e-20 -1.3647e-19)
(0.003 8.08331e-20 -1.64898e-20)
(0.003 -1.25163e-20 -9.24756e-21)
(0.003 8.83044e-21 3.22194e-20)
(0.003 7.5181e-20 2.04883e-19)
(0.003 1.51023e-19 1.28978e-19)
(0.003 1.28749e-19 -1.23572e-19)
(0.003 -3.1871e-20 -2.19514e-19)
(0.003 -1.12893e-20 -1.82229e-19)
(0.003 -5.13946e-20 -2.78056e-20)
(0.003 -9.46832e-20 8.57986e-19)
(0.003 -3.66213e-20 1.43315e-18)
(0.003 5.6014e-20 1.52995e-18)
(0.003 -8.83751e-21 1.50707e-18)
(0.003 -2.83595e-20 1.51691e-18)
(0.003 7.00205e-20 1.5837e-18)
(0.003 7.95321e-20 1.53341e-18)
(0.003 1.11972e-19 1.39004e-18)
(0.003 -5.1274e-20 1.36439e-18)
(0.003 -2.22852e-19 1.47535e-18)
(0.003 -2.45592e-19 1.58143e-18)
(0.003 -7.23933e-20 1.44877e-18)
(0.003 -1.77408e-19 1.28871e-18)
(0.003 -1.95663e-19 1.04303e-18)
(0.003 -1.28133e-19 8.84208e-19)
(0.003 -2.18879e-19 8.67191e-19)
(0.003 -1.91852e-19 7.42772e-19)
(0.003 -9.75596e-20 4.71639e-19)
(0.003 -1.85734e-19 3.95508e-19)
(0.003 -1.78736e-19 4.61662e-19)
(0.003 -1.2926e-19 4.46012e-19)
(0.003 -3.45131e-20 4.72832e-19)
(0.003 3.00942e-20 5.39758e-19)