/*--------------------------------*- C++ -*----------------------------------*\
| =========                 |                                                 |
| \\      /  F ield         | OpenFOAM: The Open Source CFD Toolbox           |
|  \\    /   O peration     | Version:  v2012                                 |
|   \\  /    A nd           | Website:  www.openfoam.com                      |
|    \\/     M anipulation  |                                                 |
\*---------------------------------------------------------------------------*/
FoamFile
{
    version     2.0;
    format      ascii;
    class       volScalarField;
    location    "60/topAir";
    object      rho;
}
// * * * * * * * * * * * * * * * * * * * * * * * * * * * * * * * * * * * * * //

dimensions      [1 -3 0 0 0 0 0];


internalField   nonuniform List<scalar> 
1200
(
1.1275778
1.0995604
1.0750025
1.053211
1.0335904
1.0157175
0.99927978
0.98406847
0.97006692
0.95736945
0.94588246
0.9355533
0.92639926
0.91948852
0.91373022
0.90924404
0.90614746
0.90449148
0.90420169
0.90505138
0.90670616
0.90880628
0.91103065
0.91310668
0.91479429
0.91584234
0.91591086
0.91442115
0.91055697
0.90399409
1.1579264
1.1565971
1.1547516
1.1524673
1.1498063
1.146818
1.143543
1.1400095
1.1359381
1.1308042
1.1244116
1.1162583
1.1059635
1.0935251
1.0788853
1.0625991
1.0458122
1.0299026
1.0160095
1.0047559
0.99626095
0.99031183
0.98646375
0.98409471
0.98249304
0.98088819
0.97830931
0.97325448
0.96302889
0.94397702
1.158604
1.1585598
1.1584773
1.1583482
1.1581653
1.1579224
1.1576142
1.1572354
1.1567736
1.1562036
1.1554939
1.1545828
1.1528627
1.1494
1.1429706
1.1323916
1.1172049
1.0983892
1.0780083
1.058233
1.0406215
1.0259544
1.0143795
1.0055968
0.99903332
0.99397699
0.98957453
0.98463886
0.97706345
0.96333592
1.1586181
1.1586167
1.1586132
1.1586064
1.1585947
1.1585762
1.1585487
1.1585097
1.1584559
1.1583829
1.158285
1.1581521
1.1579482
1.1575785
1.156615
1.1535949
1.1458674
1.1315262
1.1121009
1.0910744
1.0710832
1.0534201
1.0385215
1.0263561
1.0166105
1.0087897
1.0022661
0.99617268
0.98896198
0.9779661
1.1275623
1.0998378
1.0758161
1.0547558
1.0360546
1.0193101
1.0042453
0.9906679
0.97847105
0.96760997
0.95810689
0.95003221
0.94353347
0.94005526
0.93827146
0.93816078
0.93954658
0.94205516
0.94515648
0.94830093
0.9511072
0.95342336
0.95524422
0.95654583
0.95721759
0.95699989
0.95532337
0.95093439
0.94256456
0.93291109
1.1579268
1.1566221
1.1548458
1.1526891
1.150226
1.1475188
1.1446219
1.1415864
1.1384592
1.1352872
1.1321357
1.1290981
1.1262912
1.1238036
1.1217117
1.1200447
1.1187504
1.1176576
1.1164788
1.1149369
1.112935
1.1105576
1.1079526
1.1051489
1.1021229
1.0988745
1.0953851
1.0915928
1.0847312
1.0613056
1.1586041
1.158561
1.1584828
1.1583633
1.1581984
1.1579851
1.1577214
1.1574065
1.1570405
1.1566239
1.1561584
1.1556464
1.1550735
1.1543946
1.1535209
1.1523166
1.150585
1.1479691
1.1438899
1.1379374
1.1303827
1.1219963
1.1135895
1.1044794
1.093862
1.0823429
1.0698995
1.0562144
1.0409658
1.0234894
1.1586181
1.1586167
1.1586135
1.1586073
1.1585971
1.1585814
1.1585589
1.1585279
1.1584867
1.1584335
1.1583661
1.1582816
1.158174
1.1580267
1.1577739
1.157142
1.155253
1.1502267
1.1399185
1.1239886
1.1046946
1.0850601
1.0671056
1.0521823
1.0403027
1.0305232
1.0219914
1.0138957
1.0052899
0.99505503
1.1275528
1.0997581
1.0756612
1.0545295
1.0357491
1.0189063
1.0037123
0.98996041
0.97750798
0.9662624
0.95616586
0.94720663
0.93943581
0.93482339
0.93150247
0.92964505
0.92947549
0.93123191
0.93507419
0.94086008
0.94794795
0.95529881
0.96189116
0.96706848
0.97055863
0.97218068
0.97146926
0.96685095
0.95441557
0.93629314
1.1579265
1.1566167
1.1548321
1.1526666
1.1501957
1.1474819
1.1445784
1.141533
1.1383916
1.1352008
1.1320113
1.1288817
1.1258844
1.1231617
1.1208161
1.1189596
1.1177045
1.1171175
1.117152
1.1175529
1.1178405
1.1175246
1.1163644
1.1143817
1.1116828
1.1082413
1.1039635
1.0984679
1.0892307
1.0608955
1.1586041
1.1585608
1.1584821
1.1583622
1.1581971
1.1579842
1.157722
1.1574103
1.1570497
1.1566421
1.156191
1.1557017
1.1551818
1.1546434
1.1541015
1.1535749
1.1530816
1.1525918
1.1518995
1.150474
1.1475894
1.142917
1.1368307
1.1299653
1.1226208
1.1141157
1.1039555
1.0915573
1.0763633
1.0577896
1.1586181
1.1586167
1.1586134
1.1586073
1.158597
1.1585815
1.1585593
1.1585291
1.1584894
1.1584389
1.1583761
1.1582999
1.1582087
1.1581006
1.1579699
1.1577911
1.1574537
1.1565522
1.1539774
1.1477408
1.1360154
1.1190453
1.0994482
1.0804811
1.0639319
1.0499565
1.0380231
1.0273464
1.0169472
1.0058701
1.1275518
1.0997391
1.0756024
1.0544107
1.0355439
1.0185763
1.0032006
0.98918007
0.97632708
0.96448725
0.95353081
0.94334238
0.93388949
0.92782283
0.92213185
0.91672501
0.91154518
0.90662786
0.90227587
0.89895247
0.89717752
0.89732232
0.89934314
0.90272911
0.90672534
0.91023215
0.91161461
0.90785692
0.8981022
0.88587303
1.1579264
1.1566151
1.1548258
1.1526512
1.1501657
1.1474292
1.1444908
1.1413914
1.1381657
1.1348438
1.1314525
1.1280165
1.1245598
1.1211953
1.1179606
1.1148968
1.112062
1.1095394
1.107445
1.1059091
1.1049949
1.1045463
1.104126
1.1033032
1.1018563
1.0996413
1.0964377
1.0904929
1.0685646
1.0135735
1.1586041
1.1585607
1.1584818
1.1583612
1.158195
1.1579803
1.1577153
1.1573992
1.1570317
1.1566135
1.1561456
1.1556299
1.155069
1.1544693
1.1538394
1.1531914
1.152542
1.1519141
1.1513295
1.1507658
1.1500111
1.1484341
1.1451029
1.1395231
1.1318874
1.1225449
1.111853
1.10026
1.0874899
1.0659903
1.1586181
1.1586167
1.1586134
1.1586072
1.1585969
1.1585812
1.1585588
1.1585282
1.158488
1.1584367
1.1583729
1.1582952
1.1582021
1.1580923
1.1579646
1.157817
1.157644
1.1574218
1.1570434
1.1560893
1.1533135
1.1464237
1.1334449
1.1152206
1.095109
1.0760427
1.0592364
1.044606
1.0313086
1.0183886
1.1275537
1.0997358
1.0755861
1.0543758
1.0354848
1.0184854
1.0030653
0.98898534
0.97605415
0.9641118
0.95302005
0.94267274
0.93319034
0.92843988
0.9239037
0.91935471
0.91447363
0.90880803
0.90279541
0.8967205
0.89077806
0.88510798
0.87979556
0.87486808
0.87082779
0.86759501
0.86373589
0.85957337
0.85474807
0.84786132
1.1579264
1.1566145
1.1548232
1.1526448
1.1501532
1.1474078
1.1444564
1.1413381
1.138085
1.1347238
1.1312763
1.1277507
1.123747
1.1197927
1.1158844
1.1120105
1.1081521
1.1042021
1.1001013
1.0958643
1.0916629
1.0879565
1.0855821
1.0856679
1.0871579
1.0880696
1.0870316
1.0733095
1.0320291
0.96206735
1.1586041
1.1585607
1.1584816
1.1583608
1.158194
1.1579784
1.157712
1.1573937
1.1570232
1.1566003
1.1561255
1.1555991
1.155013
1.1543714
1.1536795
1.152942
1.1521648
1.1513546
1.1505222
1.1496883
1.1488867
1.1481357
1.1472481
1.1453332
1.1405484
1.1314416
1.1185642
1.1038544
1.0855482
1.0396816
1.1586181
1.1586167
1.1586134
1.1586072
1.1585968
1.1585811
1.1585585
1.1585277
1.1584872
1.1584354
1.1583708
1.1582919
1.1581968
1.1580838
1.1579511
1.1577969
1.157619
1.1574146
1.1571776
1.1568897
1.1564744
1.1555235
1.1525904
1.1446683
1.1290871
1.1073144
1.0847649
1.065329
1.0492404
1.0361369
1.1275536
1.0997357
1.0755861
1.0543758
1.0354848
1.0184853
1.0030653
0.98898533
0.97605414
0.96411177
0.95302001
0.94267266
0.93319022
0.92843974
0.92390356
0.91935456
0.91447347
0.90880783
0.90279519
0.89672028
0.89077785
0.88510778
0.87979537
0.8748678
0.8708244
0.86758766
0.86372304
0.85956145
0.85473677
0.84784999
1.1579264
1.1566145
1.1548232
1.1526448
1.1501532
1.1474078
1.1444564
1.1413381
1.138085
1.1347238
1.1312763
1.1277507
1.1237469
1.1197926
1.1158842
1.1120102
1.1081516
1.1042014
1.1001002
1.0958626
1.0916605
1.0879528
1.0855766
1.0856579
1.0871483
1.0880603
1.0870222
1.0732871
1.0319968
0.96203101
1.1586041
1.1585607
1.1584816
1.1583608
1.158194
1.1579784
1.157712
1.1573937
1.1570232
1.1566003
1.1561255
1.1555991
1.155013
1.1543714
1.1536795
1.152942
1.1521648
1.1513546
1.1505222
1.1496882
1.1488865
1.1481354
1.1472476
1.1453325
1.1405475
1.1314406
1.1185635
1.103854
1.0855392
1.0396438
1.1586181
1.1586167
1.1586134
1.1586072
1.1585968
1.1585811
1.1585585
1.1585277
1.1584872
1.1584354
1.1583708
1.1582919
1.1581968
1.1580838
1.1579511
1.1577969
1.157619
1.1574146
1.1571776
1.1568897
1.1564744
1.1555234
1.1525901
1.1446674
1.1290852
1.1073115
1.0847613
1.0653252
1.0492366
1.0361346
1.1275518
1.0997391
1.0756024
1.0544107
1.0355439
1.0185763
1.0032006
0.98918004
0.97632704
0.9644872
0.95353075
0.9433423
0.93388938
0.92782268
0.92213167
0.91672478
0.91154491
0.90662754
0.90227549
0.89895204
0.89717703
0.89732175
0.89934237
0.90272784
0.90672313
0.91022883
0.91161007
0.90785065
0.89809599
0.88586607
1.1579264
1.1566151
1.1548258
1.1526512
1.1501657
1.1474292
1.1444908
1.1413914
1.1381657
1.1348438
1.1314525
1.1280165
1.1245597
1.1211953
1.1179606
1.1148967
1.1120619
1.1095393
1.1074448
1.1059089
1.1049947
1.1045459
1.1041253
1.1033018
1.1018542
1.0996385
1.0964342
1.090487
1.0685503
1.0135525
1.1586041
1.1585607
1.1584818
1.1583612
1.158195
1.1579803
1.1577153
1.1573992
1.1570317
1.1566135
1.1561456
1.1556299
1.155069
1.1544693
1.1538394
1.1531914
1.152542
1.1519141
1.1513295
1.1507658
1.1500111
1.148434
1.1451027
1.1395227
1.131887
1.1225448
1.1118534
1.1002611
1.087492
1.0659839
1.1586181
1.1586167
1.1586134
1.1586072
1.1585969
1.1585812
1.1585588
1.1585282
1.158488
1.1584367
1.1583729
1.1582952
1.1582021
1.1580923
1.1579646
1.157817
1.157644
1.1574218
1.1570434
1.1560893
1.1533134
1.1464234
1.1334444
1.1152198
1.0951081
1.0760419
1.0592358
1.0446057
1.0313088
1.0183894
1.1275528
1.0997581
1.0756612
1.0545295
1.0357491
1.0189063
1.0037123
0.9899604
0.97750797
0.9662624
0.95616586
0.94720664
0.93943582
0.93482343
0.93150252
0.92964506
0.9294755
0.93123197
0.93507435
0.9408604
0.94794848
0.95529962
0.96189228
0.96706995
0.97056043
0.97218278
0.97147164
0.96685345
0.95441752
0.93629357
1.1579265
1.1566167
1.1548321
1.1526666
1.1501957
1.1474819
1.1445784
1.141533
1.1383916
1.1352008
1.1320113
1.1288817
1.1258844
1.1231617
1.1208161
1.1189596
1.1177045
1.1171175
1.1171521
1.117553
1.1178406
1.1175247
1.1163644
1.1143815
1.1116824
1.1082406
1.1039627
1.0984665
1.0892271
1.0608884
1.1586041
1.1585608
1.1584821
1.1583622
1.1581971
1.1579842
1.157722
1.1574103
1.1570497
1.1566421
1.156191
1.1557017
1.1551818
1.1546434
1.1541015
1.1535749
1.1530816
1.1525918
1.1518995
1.150474
1.1475893
1.1429168
1.1368305
1.129965
1.1226206
1.1141157
1.1039559
1.0915584
1.0763651
1.0577922
1.1586181
1.1586167
1.1586134
1.1586073
1.158597
1.1585815
1.1585593
1.1585291
1.1584894
1.1584389
1.1583761
1.1582999
1.1582087
1.1581006
1.1579699
1.1577911
1.1574537
1.1565522
1.1539773
1.1477407
1.1360152
1.1190449
1.0994476
1.0804806
1.0639314
1.0499562
1.038023
1.0273466
1.0169477
1.0058714
1.1275623
1.0998378
1.0758161
1.0547558
1.0360546
1.0193101
1.0042452
0.99066789
0.97847104
0.96760996
0.95810689
0.9500322
0.94353347
0.9400553
0.93827151
0.9381608
0.93954657
0.94205517
0.94515653
0.94830103
0.95110737
0.95342362
0.9552446
0.95654637
0.95721833
0.95700088
0.95532467
0.95093602
0.94256608
0.93291235
1.1579268
1.1566221
1.1548458
1.1526891
1.150226
1.1475188
1.1446219
1.1415863
1.1384592
1.1352872
1.1321357
1.1290981
1.1262912
1.1238036
1.1217117
1.1200447
1.1187504
1.1176576
1.1164788
1.114937
1.112935
1.1105576
1.1079526
1.1051489
1.1021227
1.0988743
1.0953848
1.0915924
1.0847312
1.0613067
1.1586041
1.158561
1.1584828
1.1583633
1.1581984
1.1579851
1.1577214
1.1574065
1.1570405
1.1566239
1.1561584
1.1556464
1.1550735
1.1543946
1.1535209
1.1523166
1.1505849
1.147969
1.1438899
1.1379373
1.1303826
1.121996
1.1135893
1.1044791
1.0938617
1.0823427
1.0698994
1.0562147
1.0409665
1.0234907
1.1586181
1.1586167
1.1586135
1.1586073
1.1585971
1.1585814
1.1585589
1.1585279
1.1584867
1.1584335
1.1583661
1.1582816
1.158174
1.1580267
1.1577739
1.157142
1.155253
1.1502267
1.1399185
1.1239885
1.1046944
1.0850598
1.0671052
1.052182
1.0403025
1.030523
1.0219914
1.0138959
1.0052904
0.995056
1.1275778
1.0995604
1.0750025
1.053211
1.0335904
1.0157175
0.99927977
0.98406846
0.97006691
0.95736944
0.94588246
0.9355533
0.92639926
0.91948855
0.91373026
0.90924404
0.90614744
0.90449145
0.90420167
0.90505137
0.90670618
0.90880634
0.91103075
0.91310686
0.91479456
0.91584272
0.91591138
0.91442184
0.91055777
0.90399494
1.1579264
1.1565971
1.1547516
1.1524673
1.1498063
1.146818
1.143543
1.1400095
1.1359381
1.1308042
1.1244116
1.1162583
1.1059635
1.0935251
1.0788854
1.0625991
1.0458122
1.0299026
1.0160094
1.0047558
0.99626087
0.99031172
0.98646362
0.98409457
0.98249292
0.98088816
0.97830949
0.97325509
0.96303024
0.94397842
1.158604
1.1585598
1.1584773
1.1583482
1.1581653
1.1579224
1.1576142
1.1572354
1.1567736
1.1562036
1.1554939
1.1545828
1.1528627
1.1494
1.1429707
1.1323916
1.117205
1.0983892
1.0780083
1.058233
1.0406214
1.0259543
1.0143793
1.0055966
0.99903315
0.99397686
0.9895745
0.98463906
0.97706413
0.96333706
1.1586181
1.1586167
1.1586132
1.1586064
1.1585947
1.1585762
1.1585487
1.1585097
1.1584559
1.1583829
1.158285
1.1581521
1.1579482
1.1575785
1.156615
1.1535949
1.1458674
1.1315262
1.1121008
1.0910743
1.071083
1.05342
1.0385213
1.0263559
1.0166102
1.0087895
1.002266
0.99617268
0.98896232
0.97796697
)
;

boundaryField
{
    maxY
    {
        type            calculated;
        value           nonuniform List<scalar> 
300
(
1.1586176
1.1586176
1.1586176
1.1586176
1.1586176
1.1586176
1.1586176
1.1586176
1.1586176
1.1586176
1.1586161
1.1586162
1.1586162
1.1586162
1.1586162
1.1586162
1.1586162
1.1586162
1.1586162
1.1586161
1.1586126
1.1586129
1.1586129
1.1586129
1.1586129
1.1586129
1.1586129
1.1586129
1.1586129
1.1586126
1.1586058
1.1586068
1.1586067
1.1586067
1.1586066
1.1586066
1.1586067
1.1586067
1.1586068
1.1586058
1.1585942
1.1585965
1.1585965
1.1585964
1.1585963
1.1585963
1.1585964
1.1585965
1.1585965
1.1585942
1.1585757
1.1585809
1.158581
1.1585807
1.1585806
1.1585806
1.1585807
1.158581
1.1585809
1.1585757
1.1585482
1.1585584
1.1585588
1.1585583
1.158558
1.158558
1.1585583
1.1585588
1.1585584
1.1585482
1.1585092
1.1585274
1.1585286
1.1585277
1.1585272
1.1585272
1.1585277
1.1585286
1.1585274
1.1585092
1.1584553
1.1584862
1.1584889
1.1584875
1.1584866
1.1584866
1.1584875
1.1584889
1.1584862
1.1584553
1.1583824
1.158433
1.1584384
1.1584362
1.1584349
1.1584349
1.1584362
1.1584384
1.158433
1.1583824
1.1582845
1.1583656
1.1583756
1.1583724
1.1583703
1.1583703
1.1583724
1.1583756
1.1583656
1.1582845
1.1581516
1.1582811
1.1582994
1.1582947
1.1582914
1.1582914
1.1582947
1.1582994
1.1582811
1.1581516
1.1579477
1.1581735
1.1582082
1.1582015
1.1581963
1.1581963
1.1582015
1.1582082
1.1581735
1.1579477
1.157578
1.1580262
1.1581001
1.1580918
1.1580833
1.1580833
1.1580918
1.1581001
1.1580262
1.157578
1.1566145
1.1577733
1.1579694
1.1579641
1.1579506
1.1579506
1.1579641
1.1579694
1.1577733
1.1566145
1.1535944
1.1571415
1.1577906
1.1578165
1.1577964
1.1577964
1.1578165
1.1577906
1.1571415
1.1535944
1.1458669
1.1552525
1.1574532
1.1576435
1.1576185
1.1576185
1.1576435
1.1574532
1.1552525
1.1458669
1.1315257
1.1502262
1.1565517
1.1574212
1.1574141
1.1574141
1.1574212
1.1565517
1.1502262
1.1315257
1.1121004
1.139918
1.1539769
1.1570428
1.1571771
1.1571771
1.1570428
1.1539768
1.139918
1.1121003
1.091074
1.1239881
1.1477403
1.1560888
1.1568892
1.1568891
1.1560888
1.1477402
1.123988
1.0910739
1.0710827
1.1046942
1.1360149
1.153313
1.1564739
1.1564739
1.1533129
1.1360147
1.1046939
1.0710826
1.0534197
1.0850596
1.1190448
1.1464231
1.155523
1.1555229
1.1464229
1.1190444
1.0850593
1.0534195
1.0385211
1.0671051
1.0994477
1.1334444
1.1525899
1.1525896
1.1334439
1.0994472
1.0671048
1.0385209
1.0263557
1.0521819
1.0804807
1.1152201
1.1446678
1.1446669
1.1152194
1.0804801
1.0521816
1.0263555
1.01661
1.0403023
1.0639315
1.0951085
1.1290866
1.1290847
1.0951076
1.063931
1.040302
1.0166098
1.0087893
1.0305227
1.0499561
1.0760423
1.1073139
1.107311
1.0760414
1.0499557
1.0305226
1.0087891
1.0022657
1.021991
1.0380227
1.059236
1.0847644
1.0847609
1.0592353
1.0380226
1.021991
1.0022656
0.99617229
1.0138952
1.027346
1.0446056
1.0653286
1.0653247
1.0446053
1.0273462
1.0138955
0.99617229
0.98896159
1.0052895
1.0169468
1.0313082
1.04924
1.0492362
1.0313084
1.0169473
1.00529
0.98896193
0.97796572
0.99505464
1.0058697
1.0183882
1.0361364
1.0361342
1.018389
1.005871
0.99505562
0.97796659
)
;
    }
    minX
    {
        type            calculated;
        value           nonuniform List<scalar> 
40
(
1.1586216
1.1586206
1.1586195
1.1586185
1.1586216
1.1586206
1.1586195
1.1586185
1.1586216
1.1586206
1.1586195
1.1586185
1.1586216
1.1586206
1.1586195
1.1586185
1.1586216
1.1586206
1.1586195
1.1586185
1.1586216
1.1586206
1.1586195
1.1586185
1.1586216
1.1586206
1.1586195
1.1586185
1.1586216
1.1586206
1.1586195
1.1586185
1.1586216
1.1586206
1.1586195
1.1586185
1.1586216
1.1586206
1.1586195
1.1586185
)
;
    }
    maxX
    {
        type            calculated;
        value           nonuniform List<scalar> 
40
(
0.90403481
0.94401145
0.96336781
0.97799651
0.93295045
1.0613275
1.0235162
0.99508396
0.93633438
1.0609197
1.0578148
1.0058991
0.88591626
1.0136011
1.0660201
1.0184191
0.84790099
0.96209043
1.0397135
1.0361731
0.84788966
0.96205411
1.0396758
1.0361709
0.88590931
1.0135802
1.0660138
1.0184199
0.93633481
1.0609126
1.0578174
1.0059003
0.93295171
1.0613286
1.0235175
0.99508493
0.90403567
0.94401285
0.96336894
0.97799738
)
;
    }
    minZ
    {
        type            calculated;
        value           nonuniform List<scalar> 
120
(
1.1275778
1.1579264
1.158604
1.1586181
1.0995604
1.1565971
1.1585598
1.1586167
1.0750025
1.1547516
1.1584773
1.1586132
1.053211
1.1524673
1.1583482
1.1586064
1.0335904
1.1498063
1.1581653
1.1585947
1.0157175
1.146818
1.1579224
1.1585762
0.99927978
1.143543
1.1576142
1.1585487
0.98406847
1.1400095
1.1572354
1.1585097
0.97006692
1.1359381
1.1567736
1.1584559
0.95736945
1.1308042
1.1562036
1.1583829
0.94588246
1.1244116
1.1554939
1.158285
0.9355533
1.1162583
1.1545828
1.1581521
0.92639926
1.1059635
1.1528627
1.1579482
0.91948852
1.0935251
1.1494
1.1575785
0.91373022
1.0788853
1.1429706
1.156615
0.90924404
1.0625991
1.1323916
1.1535949
0.90614746
1.0458122
1.1172049
1.1458674
0.90449148
1.0299026
1.0983892
1.1315262
0.90420169
1.0160095
1.0780083
1.1121009
0.90505138
1.0047559
1.058233
1.0910744
0.90670616
0.99626095
1.0406215
1.0710832
0.90880628
0.99031183
1.0259544
1.0534201
0.91103065
0.98646375
1.0143795
1.0385215
0.91310668
0.98409471
1.0055968
1.0263561
0.91479429
0.98249304
0.99903332
1.0166105
0.91584234
0.98088819
0.99397699
1.0087897
0.91591086
0.97830931
0.98957453
1.0022661
0.91442115
0.97325448
0.98463886
0.99617268
0.91055697
0.96302889
0.97706345
0.98896198
0.90399409
0.94397702
0.96333592
0.9779661
)
;
    }
    maxZ
    {
        type            calculated;
        value           nonuniform List<scalar> 
120
(
1.1275778
1.1579264
1.158604
1.1586181
1.0995604
1.1565971
1.1585598
1.1586167
1.0750025
1.1547516
1.1584773
1.1586132
1.053211
1.1524673
1.1583482
1.1586064
1.0335904
1.1498063
1.1581653
1.1585947
1.0157175
1.146818
1.1579224
1.1585762
0.99927977
1.143543
1.1576142
1.1585487
0.98406846
1.1400095
1.1572354
1.1585097
0.97006691
1.1359381
1.1567736
1.1584559
0.95736944
1.1308042
1.1562036
1.1583829
0.94588246
1.1244116
1.1554939
1.158285
0.9355533
1.1162583
1.1545828
1.1581521
0.92639926
1.1059635
1.1528627
1.1579482
0.91948855
1.0935251
1.1494
1.1575785
0.91373026
1.0788854
1.1429707
1.156615
0.90924404
1.0625991
1.1323916
1.1535949
0.90614744
1.0458122
1.117205
1.1458674
0.90449145
1.0299026
1.0983892
1.1315262
0.90420167
1.0160094
1.0780083
1.1121008
0.90505137
1.0047558
1.058233
1.0910743
0.90670618
0.99626087
1.0406214
1.071083
0.90880634
0.99031172
1.0259543
1.05342
0.91103075
0.98646362
1.0143793
1.0385213
0.91310686
0.98409457
1.0055966
1.0263559
0.91479456
0.98249292
0.99903315
1.0166102
0.91584272
0.98088816
0.99397686
1.0087895
0.91591138
0.97830949
0.9895745
1.002266
0.91442184
0.97325509
0.98463906
0.99617268
0.91055777
0.96303024
0.97706413
0.98896232
0.90399494
0.94397842
0.96333706
0.97796697
)
;
    }
    topAir_to_rightSolid
    {
        type            calculated;
        value           nonuniform List<scalar> 
130
(
0.70728428
0.70540397
0.70359398
0.70196261
0.70056219
0.69938455
0.6983867
0.69758698
0.69698681
0.6965932
0.69636781
0.69625734
0.69623605
0.70954977
0.70707782
0.7047617
0.70274674
0.70106017
0.69968207
0.69853922
0.69764243
0.69699281
0.69653718
0.69627772
0.69611626
0.6960709
0.71443392
0.71051957
0.70707725
0.70425541
0.70202283
0.70024557
0.69883339
0.69776299
0.69701231
0.69650373
0.69620576
0.69604581
0.69600334
0.72243382
0.71561522
0.71024288
0.7061964
0.7031726
0.70088648
0.69917716
0.69793462
0.69710007
0.69655129
0.69621929
0.69604638
0.695987
0.73257871
0.72078034
0.7130336
0.70775725
0.70402615
0.70134076
0.69941892
0.698075
0.69717063
0.69658418
0.69623311
0.69605104
0.69598532
0.7325778
0.72077995
0.71303335
0.70775711
0.70402611
0.70134073
0.6994189
0.69807496
0.69717057
0.69658415
0.69623311
0.69605105
0.69598532
0.72243352
0.71561506
0.71024276
0.70619632
0.70317255
0.70088645
0.69917712
0.69793459
0.69710003
0.69655129
0.6962193
0.69604637
0.69598697
0.71443345
0.71051933
0.70707715
0.70425537
0.70202282
0.70024555
0.69883337
0.69776296
0.69701228
0.69650367
0.69620567
0.69604568
0.69600319
0.70954937
0.70707761
0.7047616
0.70274667
0.70106013
0.69968204
0.6985392
0.69764239
0.69699275
0.69653709
0.69627758
0.69611606
0.69607066
0.70728405
0.70540389
0.70359393
0.70196254
0.70056213
0.69938451
0.69838667
0.69758694
0.69698673
0.69659307
0.69636761
0.69625704
0.6962356
)
;
    }
    topAir_to_heater
    {
        type            calculated;
        value           nonuniform List<scalar> 
40
(
0.71203472
0.71153691
0.71052395
0.70906946
0.71589549
0.71523928
0.71389105
0.711935
0.72462657
0.72364162
0.72153547
0.71835511
0.74034618
0.73900739
0.73567406
0.73001616
0.76585798
0.765303
0.76099258
0.75105382
0.7658576
0.76530273
0.76099232
0.75105335
0.74034578
0.73900702
0.7356738
0.73001594
0.72462675
0.72364157
0.72153446
0.71835432
0.71589588
0.71523936
0.71389028
0.71193425
0.71203519
0.71153708
0.71052346
0.7090689
)
;
    }
    topAir_to_leftSolid
    {
        type            calculated;
        value           nonuniform List<scalar> 
130
(
0.69609527
0.69601618
0.69593182
0.69586078
0.69584199
0.69589329
0.69598301
0.6960838
0.6961557
0.69622895
0.69631877
0.6964116
0.69647938
0.69590348
0.69584277
0.69579772
0.6957418
0.69575481
0.69580783
0.69591969
0.69605003
0.69614837
0.69625331
0.69637057
0.69649998
0.69659345
0.69581792
0.6957443
0.69567939
0.69563143
0.69564703
0.69571914
0.69587269
0.69606262
0.69623151
0.6963798
0.69655673
0.69675573
0.69691717
0.6958151
0.69575172
0.69568261
0.69563686
0.6956388
0.6957047
0.69588014
0.69611766
0.69638117
0.6966365
0.69691639
0.69723861
0.69753741
0.69583137
0.69577094
0.69570109
0.6956533
0.69565501
0.69572686
0.69589613
0.69616137
0.6964986
0.69686848
0.69725543
0.69770556
0.69819589
0.69583132
0.69577088
0.69570104
0.69565331
0.69565507
0.69572689
0.69589617
0.69616142
0.69649865
0.69686836
0.69725522
0.69770525
0.69819509
0.69581504
0.69575164
0.69568252
0.69563679
0.69563879
0.69570469
0.69588015
0.6961177
0.69638119
0.69663646
0.69691634
0.69723851
0.69753708
0.6958179
0.69574429
0.69567938
0.69563141
0.69564701
0.69571911
0.69587267
0.69606262
0.69623152
0.69637979
0.69655671
0.6967557
0.6969171
0.69590344
0.69584273
0.69579769
0.69574177
0.69575477
0.6958078
0.69591967
0.69605003
0.69614839
0.69625335
0.69637062
0.6965
0.69659343
0.69609525
0.69601616
0.69593179
0.69586073
0.69584193
0.69589324
0.69598297
0.69608379
0.69615572
0.69622898
0.69631881
0.69641163
0.69647942
)
;
    }
}


// ************************************************************************* //
