/*--------------------------------*- C++ -*----------------------------------*\
| =========                 |                                                 |
| \\      /  F ield         | OpenFOAM: The Open Source CFD Toolbox           |
|  \\    /   O peration     | Version:  v2012                                 |
|   \\  /    A nd           | Website:  www.openfoam.com                      |
|    \\/     M anipulation  |                                                 |
\*---------------------------------------------------------------------------*/
FoamFile
{
    version     2.0;
    format      ascii;
    class       surfaceScalarField;
    location    "360/topAir";
    object      phi;
}
// * * * * * * * * * * * * * * * * * * * * * * * * * * * * * * * * * * * * * //

dimensions      [1 0 -1 0 0 0 0];
oriented        oriented;


internalField   nonuniform List<scalar> 
3140
(
9.4895956e-06
-2.9278497e-07
7.218428e-08
9.6683894e-06
-2.6091474e-07
8.2160606e-08
9.8416936e-06
-2.4470575e-07
7.1462642e-08
9.9833613e-06
-1.9538286e-07
5.3792408e-08
1.0086759e-05
-1.3413008e-07
3.0822733e-08
1.0160084e-05
-7.6819893e-08
3.5953416e-09
1.0235014e-05
-2.8986465e-08
-4.584104e-08
1.0335084e-05
1.131021e-08
-1.1129445e-07
1.0466694e-05
7.445423e-08
-2.059986e-07
1.0652809e-05
1.5549027e-07
-3.4155679e-07
1.0890676e-05
2.9501003e-07
-5.3283841e-07
1.1153171e-05
5.3097397e-07
-7.9343147e-07
1.1386444e-05
8.9564774e-07
-1.1288705e-06
1.159272e-05
1.3344746e-06
-1.540665e-06
1.1748975e-05
1.829044e-06
-1.9851461e-06
1.1848376e-05
2.3128964e-06
-2.4120625e-06
1.1882697e-05
2.7418721e-06
-2.7758877e-06
1.1846963e-05
3.0920432e-06
-3.0559503e-06
1.1753102e-05
3.3486085e-06
-3.2543414e-06
1.163299e-05
3.5034376e-06
-3.3828604e-06
1.1524628e-05
3.563207e-06
-3.4543081e-06
1.1456519e-05
3.5474736e-06
-3.4787687e-06
1.144141e-05
3.4781794e-06
-3.4624901e-06
1.1475702e-05
3.3744628e-06
-3.4083343e-06
1.1539333e-05
3.2523774e-06
-3.3159376e-06
1.1587836e-05
3.1303996e-06
-3.1793631e-06
1.1531148e-05
3.0390891e-06
-2.9835349e-06
1.1190511e-05
3.0397349e-06
-2.7009986e-06
1.0200973e-05
3.270955e-06
-2.2841276e-06
4.080095e-06
-1.6648167e-06
9.1169944e-06
-2.2020144e-07
7.9391338e-08
9.0841469e-06
-3.3105154e-07
1.0298614e-07
9.0809842e-06
-3.5046684e-07
1.089279e-07
9.1215651e-06
-3.4645766e-07
1.1049959e-07
9.2047985e-06
-3.2462283e-07
1.0726599e-07
9.325007e-06
-2.9430491e-07
9.7283228e-08
9.484907e-06
-2.6742514e-07
7.8547004e-08
9.6990616e-06
-2.5079139e-07
4.804249e-08
9.9916661e-06
-2.2220317e-07
4.2899606e-09
1.0393496e-05
-1.658694e-07
-8.0120093e-08
1.0928608e-05
-3.4328568e-08
-2.0537766e-07
1.1588953e-05
2.6002963e-07
-3.8914551e-07
1.2288967e-05
8.4338491e-07
-6.4768581e-07
1.2915508e-05
1.6744926e-06
-9.6666191e-07
1.3403455e-05
2.6359045e-06
-1.2950288e-06
1.3698253e-05
3.5793961e-06
-1.5616171e-06
1.3785316e-05
4.3839544e-06
-1.7295441e-06
1.3690173e-05
5.0133772e-06
-1.8265953e-06
1.3474888e-05
5.4637865e-06
-1.9001787e-06
1.3220613e-05
5.7396885e-06
-1.9820373e-06
1.2991179e-05
5.8574971e-06
-2.064652e-06
1.2816954e-05
5.8484108e-06
-2.1263042e-06
1.2704065e-05
5.7430715e-06
-2.1515763e-06
1.2641747e-05
5.5664978e-06
-2.1295339e-06
1.2606782e-05
5.3354357e-06
-2.0484082e-06
1.2555422e-05
5.0696239e-06
-1.8888787e-06
1.2401694e-05
4.8125133e-06
-1.6215791e-06
1.1986743e-05
4.660448e-06
-1.208683e-06
1.105596e-05
4.807977e-06
-6.1029963e-07
5.4891929e-06
2.4596274e-07
9.1742569e-06
-2.0689952e-07
8.1401503e-08
9.0106409e-06
-2.7444801e-07
1.0701206e-07
8.8317336e-06
-2.8749859e-07
1.1593854e-07
8.6499576e-06
-2.8710967e-07
1.2242771e-07
8.4773405e-06
-2.7960038e-07
1.2759413e-07
8.319201e-06
-2.6719776e-07
1.3103148e-07
8.1733137e-06
-2.5506171e-07
1.3352219e-07
8.0343824e-06
-2.4891048e-07
1.3704986e-07
7.9180236e-06
-2.509321e-07
1.4508936e-07
7.8617707e-06
-2.6754532e-07
1.5793182e-07
7.9713398e-06
-3.1074656e-07
1.6685152e-07
8.4025388e-06
-3.2245353e-07
1.5139232e-07
9.2068587e-06
-5.1506117e-08
9.0722591e-08
1.0327846e-05
5.6199004e-07
-8.4623261e-09
1.1368168e-05
1.6601034e-06
-6.4662315e-08
1.2170637e-05
2.7902207e-06
-1.3631126e-08
1.2658085e-05
3.6532152e-06
2.4288771e-07
1.2844704e-05
4.2586622e-06
5.6765645e-07
1.2822456e-05
4.6630647e-06
8.2258784e-07
1.2707672e-05
4.9011529e-06
9.5311478e-07
1.2589634e-05
4.991839e-06
9.8375791e-07
1.2495569e-05
4.9504057e-06
9.924219e-07
1.242435e-05
4.8069334e-06
1.007933e-06
1.2355356e-05
4.5909909e-06
1.0451779e-06
1.2267538e-05
4.3290305e-06
1.0948537e-06
1.2139865e-05
4.0439463e-06
1.1538045e-06
1.1935933e-05
3.7720625e-06
1.244532e-06
1.1607744e-05
3.5944493e-06
1.3938719e-06
1.104954e-05
3.7001954e-06
1.6649179e-06
4.4841769e-06
2.0865384e-06
8.9825443e-06
7.9508193e-08
8.6041833e-06
1.039126e-07
8.2049802e-06
1.1170414e-07
7.8013456e-06
1.1652449e-07
7.4019292e-06
1.1981566e-07
7.0131457e-06
1.2158524e-07
6.6350216e-06
1.2306174e-07
6.2595522e-06
1.2655772e-07
5.8726595e-06
1.3595899e-07
5.4475424e-06
1.5756853e-07
4.9351253e-06
2.0166491e-07
4.3215572e-06
2.9110284e-07
3.8159504e-06
4.5405269e-07
3.6810255e-06
6.9672882e-07
4.2742078e-06
1.0663406e-06
5.3734056e-06
1.6902548e-06
6.422863e-06
2.6030448e-06
7.2692028e-06
3.4116645e-06
7.9323535e-06
3.9993519e-06
8.4823327e-06
4.3508083e-06
8.9617579e-06
4.5123411e-06
9.3854795e-06
4.5269359e-06
9.7334178e-06
4.459536e-06
9.9854618e-06
4.3396912e-06
1.0126032e-05
4.189306e-06
1.0164246e-05
4.0065794e-06
1.0132185e-05
3.8048822e-06
1.0129832e-05
3.5973612e-06
1.0455377e-05
3.3748025e-06
3.0335675e-06
9.6021579e-06
-2.9234161e-07
3.1362947e-08
9.8975249e-06
-2.6188564e-07
4.8713711e-08
1.0175998e-05
-2.5783367e-07
5.0872411e-08
1.0410296e-05
-2.2568694e-07
4.5243793e-08
1.0593276e-05
-1.861826e-07
3.4096522e-08
1.0736578e-05
-1.5567313e-07
1.6042522e-08
1.0842761e-05
-1.4188233e-07
-1.0068565e-08
1.0920426e-05
-1.4776573e-07
-4.1129251e-08
1.0978228e-05
-1.7873772e-07
-8.5011859e-08
1.1023191e-05
-2.4059405e-07
-1.4588104e-07
1.1062564e-05
-3.4268576e-07
-2.2946933e-07
1.1104471e-05
-4.9372358e-07
-3.4151711e-07
1.1161287e-05
-7.0025684e-07
-4.852349e-07
1.1304955e-05
-1.0192173e-06
-6.6474123e-07
1.1550772e-05
-1.3720498e-06
-8.5828961e-07
1.1877039e-05
-1.6952764e-06
-1.0422305e-06
1.2201925e-05
-1.8875991e-06
-1.2122911e-06
1.2442284e-05
-1.9115334e-06
-1.3839221e-06
1.2562356e-05
-1.8142846e-06
-1.5592881e-06
1.2582924e-05
-1.6786381e-06
-1.7238842e-06
1.2554325e-05
-1.5631878e-06
-1.861478e-06
1.2523522e-05
-1.4814271e-06
-1.9653859e-06
1.2518546e-05
-1.4275005e-06
-2.0289617e-06
1.2549361e-05
-1.3910585e-06
-2.0475161e-06
1.2618267e-05
-1.365132e-06
-2.0200415e-06
1.2721077e-05
-1.3376951e-06
-1.9460944e-06
1.2835834e-05
-1.2803037e-06
-1.821214e-06
1.2900597e-05
-1.1257361e-06
-1.6451736e-06
1.2775276e-05
-7.2426633e-07
-1.4417619e-06
4.1125933e-07
-1.2119391e-06
9.2424904e-06
-2.2168743e-07
3.5215941e-08
9.3571995e-06
-3.3504987e-07
6.1442688e-08
9.4955628e-06
-3.5964045e-07
7.2374285e-08
9.67139e-06
-3.6581035e-07
7.479992e-08
9.8812966e-06
-3.6035199e-07
7.1533527e-08
1.0113736e-05
-3.5243429e-07
6.1609294e-08
1.0360503e-05
-3.5304194e-07
4.294249e-08
1.0619024e-05
-3.7155849e-07
1.3315252e-08
1.0894891e-05
-4.1729805e-07
-3.3015121e-08
1.1181725e-05
-5.0623491e-07
-1.0130627e-07
1.1490295e-05
-6.5798846e-07
-1.9862588e-07
1.1834325e-05
-8.9328405e-07
-3.3356795e-07
1.2236315e-05
-1.2395515e-06
-5.1027918e-07
1.2696098e-05
-1.7277107e-06
-7.177626e-07
1.322986e-05
-2.2768141e-06
-9.2376069e-07
1.376105e-05
-2.6862171e-06
-1.1016527e-06
1.4167049e-05
-2.743304e-06
-1.2798173e-06
1.4374113e-05
-2.4633018e-06
-1.4820655e-06
1.4381494e-05
-2.0244746e-06
-1.6976622e-06
1.4258464e-05
-1.6299368e-06
-1.9080574e-06
1.4089926e-05
-1.3646027e-06
-2.0950945e-06
1.3909564e-05
-1.1844044e-06
-2.2434511e-06
1.3731167e-05
-1.0709578e-06
-2.3303574e-06
1.3561128e-05
-1.0132642e-06
-2.3380533e-06
1.3428876e-05
-1.023991e-06
-2.2579954e-06
1.3391156e-05
-1.1009046e-06
-2.0881953e-06
1.3551627e-05
-1.2315706e-06
-1.8301169e-06
1.4155045e-05
-1.416953e-06
-1.5189249e-06
1.5884545e-05
-1.7100391e-06
-1.350665e-06
-1.8631583e-06
-1.5502172e-06
9.3020427e-06
-2.0929045e-07
3.5922136e-08
9.2888023e-06
-2.7814082e-07
6.3342936e-08
9.261691e-06
-2.9301167e-07
7.6420584e-08
9.2331759e-06
-2.9672454e-07
8.1856593e-08
9.213448e-06
-2.9577896e-07
8.2748441e-08
9.2056166e-06
-2.9231831e-07
7.8746162e-08
9.2091497e-06
-2.9184005e-07
6.8785529e-08
9.2235792e-06
-3.008392e-07
5.189846e-08
9.2499019e-06
-3.2642467e-07
2.7888957e-08
9.2866466e-06
-3.8147334e-07
-3.5803951e-09
9.353373e-06
-4.8892493e-07
-6.8946005e-08
9.4605113e-06
-6.8577452e-07
-1.6326161e-07
9.6294955e-06
-1.0181317e-06
-2.9968371e-07
9.8849194e-06
-1.5249143e-06
-4.6668995e-07
1.0244057e-05
-2.0993757e-06
-6.0135209e-07
1.0614337e-05
-2.4493214e-06
-6.2128369e-07
1.0938393e-05
-2.290434e-06
-5.3504587e-07
1.1149207e-05
-1.7322858e-06
-3.7534527e-07
1.1206035e-05
-1.0260167e-06
-2.3354622e-07
1.113293e-05
-3.5850708e-07
-2.4531e-07
1.1027664e-05
5.8744682e-08
-3.3350498e-07
1.0954709e-05
2.4202857e-07
-3.5929524e-07
1.0920242e-05
2.7236829e-07
-2.9851449e-07
1.0890159e-05
2.1184052e-07
-1.4733258e-07
1.0861329e-05
6.190354e-08
3.9979418e-08
1.0787702e-05
-1.4953206e-07
2.7798802e-07
1.0748077e-05
-4.5832804e-07
5.1272852e-07
1.086074e-05
-7.8805007e-07
6.5382984e-07
1.153337e-05
-1.0872326e-06
3.7061394e-07
-1.3007147e-06
-6.578712e-07
9.1042614e-06
3.490841e-08
8.8689007e-06
6.1132081e-08
8.6142946e-06
7.3298133e-08
8.3561426e-06
7.7951574e-08
8.102081e-06
7.8097873e-08
7.8578655e-06
7.3481914e-08
7.6258222e-06
6.3264421e-08
7.4047296e-06
4.6810095e-08
7.1900005e-06
2.4261794e-08
6.9696379e-06
-3.5447865e-09
6.7386895e-06
-5.6315699e-08
6.4689792e-06
-1.2496819e-07
6.1364679e-06
-2.315836e-07
5.7226891e-06
-4.1448919e-07
5.3313178e-06
-6.4205995e-07
5.1055853e-06
-5.346436e-07
5.1278864e-06
2.8888919e-07
5.2440648e-06
1.5618353e-06
5.3695085e-06
2.8467949e-06
5.6794521e-06
3.6817504e-06
6.1179814e-06
4.1324779e-06
6.5723242e-06
4.3148362e-06
6.9618524e-06
4.3427512e-06
7.2573461e-06
4.2564589e-06
7.4524439e-06
4.0567304e-06
7.6000329e-06
3.7100241e-06
7.7209773e-06
3.2260909e-06
7.9006991e-06
2.6298669e-06
8.7087108e-06
1.4795288e-06
-5.8926913e-07
9.5791497e-06
-2.9406619e-07
1.5274378e-08
9.8652284e-06
-2.6237778e-07
2.505034e-08
1.0142792e-05
-2.5487295e-07
2.8238171e-08
1.0379501e-05
-2.1829751e-07
2.6901999e-08
1.0565216e-05
-1.7419834e-07
2.2658653e-08
1.070433e-05
-1.3907897e-07
1.6094416e-08
1.0803902e-05
-1.1681625e-07
7.2710112e-09
1.0873962e-05
-1.0703101e-07
-4.0533172e-09
1.0917906e-05
-1.117769e-07
-1.7055406e-08
1.0940571e-05
-1.3545202e-07
-3.2927876e-08
1.0947067e-05
-1.8493133e-07
-5.0782634e-08
1.0945288e-05
-2.7101786e-07
-6.8307502e-08
1.0951736e-05
-4.1162776e-07
-7.9366743e-08
1.1053806e-05
-6.9014216e-07
-7.5548766e-08
1.1260094e-05
-1.0206281e-06
-4.2307405e-08
1.1513783e-05
-1.3282694e-06
3.4209266e-08
1.1726406e-05
-1.5706141e-06
1.4744691e-07
1.1875523e-05
-1.7664407e-06
2.3484344e-07
1.1954088e-05
-1.9310003e-06
2.9427044e-07
1.197293e-05
-2.0793792e-06
3.3752043e-07
1.1962532e-05
-2.2298131e-06
3.7934427e-07
1.1949665e-05
-2.3833118e-06
4.3095187e-07
1.1941723e-05
-2.5207733e-06
4.9905631e-07
1.1930809e-05
-2.6212072e-06
5.8261929e-07
1.1910822e-05
-2.6781463e-06
6.7460171e-07
1.1896637e-05
-2.7049253e-06
7.6814064e-07
1.1941859e-05
-2.7168034e-06
8.443958e-07
1.2127328e-05
-2.6647415e-06
8.2724536e-07
1.2353954e-05
-2.1958238e-06
5.1958966e-07
-7.7955617e-07
-2.1807071e-07
9.2144343e-06
-2.2145227e-07
1.7136959e-08
9.316636e-06
-3.3409924e-07
3.0964111e-08
9.4528295e-06
-3.5662687e-07
3.7938217e-08
9.6295881e-06
-3.592744e-07
3.9023209e-08
9.8402982e-06
-3.4876192e-07
3.5393009e-08
1.0070018e-05
-3.339825e-07
2.6799916e-08
1.0308473e-05
-3.2427075e-07
1.1949664e-08
1.0551571e-05
-3.2612496e-07
-1.0678465e-08
1.0796385e-05
-3.4663285e-07
-4.2954418e-08
1.1044389e-05
-3.9626328e-07
-8.8460428e-08
1.1301256e-05
-4.9048621e-07
-1.4985193e-07
1.1584619e-05
-6.6093009e-07
-2.2684159e-07
1.1932404e-05
-9.5864846e-07
-3.1070597e-07
1.2347481e-05
-1.448352e-06
-3.7408206e-07
1.2791333e-05
-2.0086239e-06
-3.7893596e-07
1.3091721e-05
-2.3497485e-06
-3.8015276e-07
1.3179395e-05
-2.4753013e-06
-4.6283071e-07
1.3101671e-05
-2.5289655e-06
-6.4223548e-07
1.2889364e-05
-2.5245111e-06
-8.9254196e-07
1.2580542e-05
-2.5100314e-06
-1.1694812e-06
1.2220287e-05
-2.5420012e-06
-1.4237709e-06
1.183345e-05
-2.6243115e-06
-1.6170856e-06
1.1418953e-05
-2.7116717e-06
-1.7269172e-06
1.0969569e-05
-2.7685497e-06
-1.7436314e-06
1.0487475e-05
-2.7969005e-06
-1.6591723e-06
1.0020502e-05
-2.863344e-06
-1.4635897e-06
9.7809803e-06
-3.0713832e-06
-1.2348052e-06
1.0221717e-05
-3.4251554e-06
-1.1957965e-06
1.1810337e-05
-3.5101133e-06
-1.6209518e-06
-2.5957056e-06
-2.5724518e-06
9.2749859e-06
-2.0894601e-07
1.7390216e-08
9.2500793e-06
-2.7744828e-07
3.1598193e-08
9.2216848e-06
-2.912417e-07
3.9429431e-08
9.1960345e-06
-2.9338569e-07
4.1617837e-08
9.1812462e-06
-2.9032064e-07
3.9095068e-08
9.1784891e-06
-2.8386018e-07
3.1380289e-08
9.1848362e-06
-2.787688e-07
1.6935499e-08
9.1973499e-06
-2.8011587e-07
-6.6257781e-09
9.2135864e-06
-2.9335564e-07
-4.1626781e-08
9.2355003e-06
-3.280318e-07
-9.3727028e-08
9.250667e-06
-4.043046e-07
-1.7029226e-07
9.2607897e-06
-5.5897654e-07
-2.7532542e-07
9.2779381e-06
-8.686382e-07
-4.0681285e-07
9.3543142e-06
-1.4598807e-06
-5.3159449e-07
9.4001945e-06
-2.1098513e-06
-5.4651399e-07
9.1268449e-06
-2.2051041e-06
-4.9447755e-07
8.6388661e-06
-1.9697984e-06
-5.551446e-07
8.2240538e-06
-1.7947585e-06
-6.9735536e-07
7.7954691e-06
-1.4046362e-06
-9.2720223e-07
7.2959422e-06
-1.0409371e-06
-1.2170181e-06
6.7243615e-06
-8.2970955e-07
-1.4765292e-06
6.1277545e-06
-7.8554484e-07
-1.6045386e-06
5.5337645e-06
-8.6021062e-07
-1.5601358e-06
4.9959039e-06
-1.018802e-06
-1.3637041e-06
4.5493778e-06
-1.2646703e-06
-1.0487329e-06
4.2460421e-06
-1.6295775e-06
-6.5223334e-07
4.3175987e-06
-2.1204537e-06
-5.0612059e-07
4.9514201e-06
-2.738377e-06
-6.6000306e-07
6.3590592e-06
-3.0586625e-06
-1.477266e-06
-1.9981937e-06
-3.2249256e-06
9.0779442e-06
1.6970248e-08
8.8309783e-06
3.0649246e-08
8.5750319e-06
3.8002441e-08
8.3198216e-06
3.9775848e-08
8.0707237e-06
3.6874732e-08
7.8315592e-06
2.8785805e-08
7.6022915e-06
1.3762725e-08
7.3794482e-06
-1.0463279e-08
7.1576295e-06
-4.7276407e-08
6.9304266e-06
-1.0437564e-07
6.6645553e-06
-1.9475193e-07
6.3182957e-06
-3.3769083e-07
5.7941403e-06
-5.761071e-07
4.912263e-06
-9.9314426e-07
3.7342908e-06
-1.5759801e-06
2.7594995e-06
-1.7729301e-06
2.4627479e-06
-1.3915784e-06
2.443735e-06
-2.1907194e-07
2.5981383e-06
1.283962e-06
2.8903698e-06
2.3464297e-06
3.2834752e-06
2.9089893e-06
3.6666318e-06
3.146399e-06
3.9534957e-06
3.1964343e-06
4.0707134e-06
3.121418e-06
3.9511654e-06
2.9128366e-06
3.6959019e-06
2.3371582e-06
3.4593383e-06
1.3437375e-06
3.1179079e-06
2.3467235e-07
2.9183328e-06
-1.3660611e-06
-4.1557889e-06
9.5734481e-06
-2.9427297e-07
5.0939936e-09
9.8519522e-06
-2.6205532e-07
8.6386085e-09
1.0123452e-05
-2.5294835e-07
9.7425064e-09
1.0355241e-05
-2.1360852e-07
8.7904681e-09
1.0536585e-05
-1.6488831e-07
6.2845625e-09
1.0672564e-05
-1.222981e-07
2.5080523e-09
1.0771308e-05
-8.8699087e-08
-2.6585381e-09
1.0839947e-05
-6.3120336e-08
-9.4328951e-09
1.0885262e-05
-4.4577585e-08
-1.7621882e-08
1.0914375e-05
-3.4212395e-08
-2.7596994e-08
1.0939168e-05
-3.6216256e-08
-3.9013808e-08
1.0982742e-05
-6.1375856e-08
-4.99425e-08
1.1090897e-05
-1.3211138e-07
-5.4497298e-08
1.1368649e-05
-3.0741315e-07
-4.4618345e-08
1.1727357e-05
-3.9773405e-07
-1.8145073e-09
1.2025451e-05
-3.184553e-07
5.5963894e-08
1.2223643e-05
-1.7482549e-07
1.2530917e-07
1.2347253e-05
-9.2731483e-08
2.0521067e-07
1.2435997e-05
-9.4530681e-08
3.0155994e-07
1.2515631e-05
-1.5934595e-07
4.1928902e-07
1.2605934e-05
-2.7118353e-07
5.6308218e-07
1.2713502e-05
-4.0537249e-07
7.3228571e-07
1.2823194e-05
-5.3622152e-07
9.289829e-07
1.2919517e-05
-6.5689843e-07
1.145187e-06
1.299948e-05
-7.6352336e-07
1.3576633e-06
1.3037149e-05
-7.9740832e-07
1.5244919e-06
1.290391e-05
-6.2025966e-07
1.5914363e-06
1.2386458e-05
-1.577258e-07
1.4935343e-06
1.0839596e-05
9.587751e-07
1.101389e-06
3.1551465e-06
4.4165125e-07
9.207059e-06
-2.2124821e-07
6.0224423e-09
9.2979565e-06
-3.3353264e-07
1.1545521e-08
9.4234901e-06
-3.5506359e-07
1.4523462e-08
9.5898979e-06
-3.5567698e-07
1.4689028e-08
9.7895987e-06
-3.4141949e-07
1.2230202e-08
1.0007273e-05
-3.2021917e-07
7.0554272e-09
1.0231481e-05
-3.0012527e-07
-8.2014981e-10
1.0458057e-05
-2.859025e-07
-1.4453858e-08
1.0685483e-05
-2.8204759e-07
-3.2876303e-08
1.0918182e-05
-2.9705633e-07
-5.8249252e-08
1.1172857e-05
-3.494142e-07
-9.1191609e-08
1.1491734e-05
-4.785272e-07
-1.2828686e-07
1.1960982e-05
-7.5355002e-07
-1.5800132e-07
1.2633996e-05
-1.1960678e-06
-1.5783687e-07
1.3310849e-05
-1.3386415e-06
-1.1439045e-07
1.3773087e-05
-1.0687004e-06
-9.1939356e-08
1.4039944e-05
-7.8927961e-07
-1.152556e-07
1.4163367e-05
-6.9565423e-07
-1.6291216e-07
1.4160884e-05
-7.5130191e-07
-2.3353612e-07
1.4061436e-05
-8.9291966e-07
-3.3665494e-07
1.3892079e-05
-1.0774502e-06
-4.4823901e-07
1.3658468e-05
-1.2579645e-06
-5.3110005e-07
1.3335046e-05
-1.3935955e-06
-5.4696962e-07
1.2918848e-05
-1.5001585e-06
-4.8601912e-07
1.2488928e-05
-1.623236e-06
-3.7207254e-07
1.2215703e-05
-1.7099004e-06
-2.8021115e-07
1.2179503e-05
-1.4625504e-06
-3.5693709e-07
1.2098225e-05
-6.2418589e-07
-6.4538894e-07
1.1571249e-05
9.7389122e-07
-1.118244e-06
3.0059058e-06
-1.8028725e-06
9.2679538e-06
-2.0892532e-07
6.0738013e-09
9.2317905e-06
-2.7745611e-07
1.1684512e-08
9.1921711e-06
-2.9092295e-07
1.4907752e-08
9.1549639e-06
-2.9221794e-07
1.5365749e-08
9.1271833e-06
-2.8760148e-07
1.3057322e-08
9.1091738e-06
-2.7851661e-07
7.6868099e-09
9.0961584e-06
-2.6928929e-07
-8.857883e-10
9.0849181e-06
-2.6420025e-07
-1.7088204e-08
9.0699308e-06
-2.6845109e-07
-4.0236124e-08
9.0458128e-06
-2.9221607e-07
-7.4446941e-08
9.0087773e-06
-3.5872048e-07
-1.2394024e-07
8.9706391e-06
-5.2468053e-07
-1.9100216e-07
9.0001533e-06
-9.2849225e-07
-2.6134957e-07
9.3247345e-06
-1.7532744e-06
-2.9974078e-07
9.5527318e-06
-1.8872137e-06
-2.2769705e-07
9.2659105e-06
-1.0776737e-06
-2.005924e-07
8.7362391e-06
-5.6311612e-07
-2.5311766e-07
8.0743832e-06
-3.7376647e-07
-3.5854016e-07
7.3975525e-06
-4.6357568e-07
-5.392587e-07
6.6710143e-06
-5.7883335e-07
-8.0604209e-07
5.9056643e-06
-7.1874812e-07
-1.0721761e-06
5.1117789e-06
-8.8824805e-07
-1.184456e-06
4.2784676e-06
-1.0664197e-06
-1.0608131e-06
3.4087512e-06
-1.2668922e-06
-7.3573272e-07
2.6888763e-06
-1.5498563e-06
-4.0834338e-07
2.5307656e-06
-1.9274817e-06
-2.784767e-07
3.1468618e-06
-2.0041649e-06
-5.7736625e-07
4.2947802e-06
-1.1538068e-06
-1.2680426e-06
5.3623651e-06
5.2456776e-07
-2.0838675e-06
2.3310992e-06
-2.8757675e-06
9.0711091e-06
5.887819e-09
8.8130881e-06
1.1213769e-08
8.5460403e-06
1.4126902e-08
8.2793482e-06
1.4249585e-08
8.017061e-06
1.156012e-08
7.7615346e-06
5.7951547e-09
7.5102128e-06
-4.2052372e-09
7.2572903e-06
-2.1741827e-08
6.990004e-06
-4.8442192e-08
6.6839283e-06
-9.0517718e-08
6.2890086e-06
-1.585557e-07
5.6995211e-06
-2.7289684e-07
4.6738961e-06
-4.792289e-07
2.8229008e-06
-8.9998407e-07
8.3480412e-07
-1.4802196e-06
-8.5847953e-07
-1.1735588e-06
-1.9680326e-06
-8.5013856e-07
-2.1761368e-06
-3.8931461e-07
-1.7174483e-06
3.5673078e-07
-1.0156432e-06
1.062586e-06
-3.4627175e-07
1.5197079e-06
1.3107491e-07
1.7808966e-06
3.2835851e-07
1.933546e-06
1.5552098e-07
2.0292641e-06
-5.4050149e-07
2.0675886e-06
-1.7030028e-06
1.5829974e-06
-2.6717565e-06
3.2395506e-07
-2.4643188e-06
-1.1000548e-06
-8.0154097e-07
-2.4677723e-06
-3.552247e-06
9.5703141e-06
-2.9458698e-07
-1.6384042e-09
9.8447305e-06
-2.6260396e-07
-3.1368097e-09
1.01126e-05
-2.5349788e-07
-4.5742981e-09
1.0341379e-05
-2.1393198e-07
-5.9872581e-09
1.051994e-05
-1.6478257e-07
-7.4132265e-09
1.0653081e-05
-1.2164723e-07
-8.8959425e-09
1.0748591e-05
-8.7579117e-08
-1.049384e-08
1.0812982e-05
-6.1452938e-08
-1.2255121e-08
1.0852754e-05
-4.3056939e-08
-1.4177353e-08
1.087644e-05
-3.4632598e-08
-1.6397616e-08
1.0900273e-05
-4.3093419e-08
-1.9303275e-08
1.0960533e-05
-8.5347166e-08
-2.4008382e-08
1.1128824e-05
-1.8750394e-07
-3.3889742e-08
1.1509521e-05
-3.6845157e-07
-5.5831897e-08
1.1916974e-05
-3.1991002e-07
-8.9402739e-08
1.2224085e-05
-1.2804746e-07
-1.2420777e-07
1.2449632e-05
5.5204354e-08
-1.5629603e-07
1.2626688e-05
2.2093942e-07
-1.9341721e-07
1.2789345e-05
3.8073254e-07
-2.4226333e-07
1.2971867e-05
5.4270513e-07
-3.061828e-07
1.3195665e-05
7.2304244e-07
-3.8381487e-07
1.3449107e-05
9.4795747e-07
-4.6900224e-07
1.3685637e-05
1.2431658e-06
-5.505188e-07
1.3844381e-05
1.6006758e-06
-6.1414478e-07
1.385687e-05
1.9932501e-06
-6.483397e-07
1.3627059e-05
2.4002033e-06
-6.4671061e-07
1.2970892e-05
2.8482505e-06
-6.0207926e-07
1.159822e-05
3.3660937e-06
-5.0186132e-07
9.018225e-06
4.0138984e-06
-3.3464383e-07
5.2399875e-06
-1.466289e-07
9.2028321e-06
-2.2129909e-07
-1.1283185e-09
9.2875613e-06
-3.3368664e-07
-2.0993051e-09
9.4067063e-06
-3.5517764e-07
-2.9380713e-09
9.566706e-06
-3.5554416e-07
-3.6928199e-09
9.7593595e-06
-3.4080308e-07
-4.3950156e-09
9.9687032e-06
-3.1884663e-07
-5.0785128e-09
1.0183888e-05
-2.9776542e-07
-5.8039806e-09
1.0397343e-05
-2.8254683e-07
-6.7923889e-09
1.0607917e-05
-2.7863246e-07
-7.8338636e-09
1.0821814e-05
-2.9716391e-07
-9.5214638e-09
1.1064411e-05
-3.6366725e-07
-1.2991614e-08
1.1405998e-05
-5.3305246e-07
-2.1662889e-08
1.1989405e-05
-8.8576741e-07
-4.2259577e-08
1.2819583e-05
-1.2707114e-06
-8.5789922e-08
1.3458095e-05
-9.3765638e-07
-1.3579504e-07
1.3935205e-05
-5.4305608e-07
-1.5501542e-07
1.4302406e-05
-2.7361897e-07
-1.5690924e-07
1.4599745e-05
-7.9029614e-08
-1.6520592e-07
1.4832673e-05
9.0616149e-08
-1.8124629e-07
1.5067775e-05
1.7373641e-07
-2.0620148e-07
1.5351785e-05
2.2301377e-07
-2.3225229e-07
1.5678105e-05
3.3917989e-07
-2.4375052e-07
1.5947643e-05
6.7260811e-07
-2.3588128e-07
1.6089532e-05
1.1960381e-06
-2.090137e-07
1.6030884e-05
1.8755635e-06
-1.7898183e-07
1.5682518e-05
2.6409268e-06
-1.5532853e-07
1.4756943e-05
3.5312123e-06
-9.8481545e-08
1.2962865e-05
4.5289052e-06
-1.0734762e-09
9.9906034e-06
5.6560666e-06
2.2000495e-07
7.130572e-06
4.7394006e-07
9.2637497e-06
-2.0893172e-07
-1.0830199e-09
9.2212681e-06
-2.7752481e-07
-1.9961394e-09
9.1746939e-06
-2.9095355e-07
-2.7425692e-09
9.1299384e-06
-2.9208126e-07
-3.3419172e-09
9.0931863e-06
-2.8719354e-07
-3.8002887e-09
9.0638743e-06
-2.777281e-07
-4.1195995e-09
9.037432e-06
-2.6789622e-07
-4.3125146e-09
9.0050342e-06
-2.6275877e-07
-4.4779131e-09
8.9587584e-06
-2.6821052e-07
-4.3806887e-09
8.8888268e-06
-2.9743537e-07
-4.2367685e-09
8.7887417e-06
-3.8282254e-07
-4.6742455e-09
8.6844869e-06
-6.1099204e-07
-8.7352779e-09
8.766354e-06
-1.2004547e-06
-2.8634915e-08
9.5330089e-06
-2.2426975e-06
-9.9880295e-08
9.4379876e-06
-8.7475554e-07
-1.9897436e-07
9.2854172e-06
-3.9428811e-07
-1.9811821e-07
8.9823637e-06
-7.9001347e-08
-1.4404114e-07
8.534437e-06
1.06751e-07
-9.6397943e-08
8.0380939e-06
1.120368e-07
-6.5562702e-08
7.4818256e-06
-3.4675292e-08
-4.1804728e-08
6.8730151e-06
-2.4625496e-07
7.3541234e-09
6.4961122e-06
-5.2187816e-07
5.3796594e-08
6.6836388e-06
-6.7800805e-07
9.7780296e-08
7.5943696e-06
-6.0747919e-07
1.479512e-07
8.8703351e-06
-1.1017452e-07
2.9131206e-07
1.0053808e-05
5.9693178e-07
5.7715659e-07
1.0346139e-05
1.8875122e-06
7.7485868e-07
9.4795957e-06
3.2036335e-06
9.2840774e-07
7.3661908e-06
4.5468654e-06
1.1434216e-06
6.1510498e-06
1.2915517e-06
9.0669617e-06
-1.0536232e-09
8.802589e-06
-1.9386732e-09
8.5284198e-06
-2.6578452e-09
8.2538059e-06
-3.2181295e-09
7.9817832e-06
-3.6110909e-09
7.7136709e-06
-3.8210793e-09
7.4454056e-06
-3.8365548e-09
7.1643842e-06
-3.479767e-09
6.8501641e-06
-2.433496e-09
6.4620256e-06
1.8384556e-10
5.9136024e-06
7.040696e-09
5.0090332e-06
2.0625944e-08
3.2833851e-06
4.4566854e-08
7.2370173e-08
4.1145781e-08
-2.308138e-06
9.7222087e-09
-3.8934897e-06
1.1256467e-08
-4.9530169e-06
1.2605502e-07
-5.515687e-06
2.7695248e-07
-5.475533e-06
4.2356276e-07
-4.9649188e-06
5.105293e-07
-4.2473986e-06
5.5044686e-07
-3.6061909e-06
6.1374005e-07
-3.1023797e-06
7.4887514e-07
-2.6158881e-06
9.3375257e-07
-1.7511509e-06
1.0929533e-06
-6.5979838e-07
1.0886007e-06
2.0844955e-07
1.3468501e-06
5.0880695e-07
1.8180014e-06
5.0285588e-07
2.1108381e-06
2.0742983e-06
9.57011e-06
-2.9450386e-07
-8.2496234e-09
9.8443487e-06
-2.6260153e-07
-1.4736249e-08
1.0112035e-05
-2.5352084e-07
-1.8683043e-08
1.0340633e-05
-2.1395715e-07
-2.0556584e-08
1.0519049e-05
-1.6478871e-07
-2.0957372e-08
1.0652046e-05
-1.2157454e-07
-2.0225415e-08
1.0747391e-05
-8.728714e-08
-1.8449703e-08
1.0811741e-05
-6.0841006e-08
-1.5656977e-08
1.0851156e-05
-4.1492779e-08
-1.1973645e-08
1.0873504e-05
-3.0907915e-08
-7.6862878e-09
1.0892724e-05
-3.4364693e-08
-3.9683262e-09
1.093757e-05
-6.5808947e-08
-2.8071327e-09
1.1066543e-05
-1.5349279e-07
-9.1631418e-09
1.1409186e-05
-3.6527522e-07
-3.3236568e-08
1.1814012e-05
-3.9786414e-07
-9.6300593e-08
1.2124987e-05
-2.4504928e-07
-1.8977358e-07
1.2320989e-05
-6.3138465e-08
-2.8858739e-07
1.2438061e-05
7.7325618e-08
-3.874723e-07
1.251996e-05
1.6790729e-07
-4.9196677e-07
1.2615551e-05
2.0255816e-07
-6.0451574e-07
1.276536e-05
1.9304103e-07
-7.2722271e-07
1.2983266e-05
1.7689901e-07
-8.6483805e-07
1.3244383e-05
2.1056438e-07
-1.0237726e-06
1.3488736e-05
3.4521321e-07
-1.2058204e-06
1.3635802e-05
5.9968525e-07
-1.3976564e-06
1.3585937e-05
9.5952143e-07
-1.5592477e-06
1.3160148e-05
1.4404792e-06
-1.6197825e-06
1.207481e-05
2.0820301e-06
-1.5015017e-06
9.8617791e-06
3.0183113e-06
-1.1426411e-06
4.7340512e-06
-4.4249435e-07
9.2027711e-06
-2.212613e-07
-8.1728097e-09
9.2872898e-06
-3.3364738e-07
-1.5570354e-08
9.4061861e-06
-3.5515283e-07
-2.0198445e-08
9.5659558e-06
-3.5550163e-07
-2.1911754e-08
9.758465e-06
-3.4068745e-07
-2.0996332e-08
9.967785e-06
-3.1854161e-07
-1.7418542e-08
1.0182493e-05
-2.970296e-07
-1.075051e-08
1.0396573e-05
-2.8083694e-07
-8.4764378e-10
1.0607198e-05
-2.7484219e-07
1.49331e-08
1.0819462e-05
-2.8849295e-07
3.5863939e-08
1.105321e-05
-3.4367833e-07
6.2669774e-08
1.136262e-05
-4.886097e-07
9.1846942e-08
1.1866799e-05
-8.1033332e-07
1.1047294e-07
1.2644212e-05
-1.3160808e-06
8.7431312e-08
1.3295097e-05
-1.1887618e-06
4.2926875e-09
1.3744422e-05
-7.6791564e-07
-8.1224084e-08
1.4046914e-05
-4.4201284e-07
-8.0196801e-08
1.4260349e-05
-2.6864598e-07
-3.1743778e-08
1.4373575e-05
-1.9293601e-07
6.7596325e-08
1.4422004e-05
-2.5912609e-07
2.0794792e-07
1.4456692e-05
-4.5512633e-07
3.8110535e-07
1.4507892e-05
-6.6467154e-07
5.4513794e-07
1.4607183e-05
-7.7022905e-07
6.4258212e-07
1.4793861e-05
-6.8669273e-07
6.3109387e-07
1.5029443e-05
-3.4291808e-07
5.1964358e-07
1.5142678e-05
2.922814e-07
3.8562203e-07
1.4704245e-05
1.3697134e-06
3.9246724e-07
1.3475372e-05
2.5578387e-06
7.2931905e-07
1.1257424e-05
4.0879807e-06
1.3448873e-06
6.0115273e-06
2.0201208e-06
9.2636865e-06
-2.0892165e-07
-8.1488593e-09
9.2210876e-06
-2.7751135e-07
-1.5533712e-08
9.1743799e-06
-2.9094141e-07
-2.0246625e-08
9.1295735e-06
-2.9205177e-07
-2.1985603e-08
9.092994e-06
-2.870995e-07
-2.0808768e-08
9.0642347e-06
-2.7748082e-07
-1.6420722e-08
9.0383949e-06
-2.6737461e-07
-8.1267443e-09
9.0086688e-06
-2.6121387e-07
5.6271941e-09
8.9668106e-06
-2.6437286e-07
2.7012199e-08
8.9038041e-06
-2.881146e-07
5.839914e-08
8.8111812e-06
-3.594465e-07
1.0373062e-07
8.6960766e-06
-5.478287e-07
1.6560997e-07
8.6617038e-06
-1.0413983e-06
2.3680455e-07
9.154706e-06
-2.1787926e-06
2.6967195e-07
9.1371661e-06
-1.513997e-06
1.4559026e-07
8.7811026e-06
-6.5397179e-07
4.5767521e-08
8.3767625e-06
-2.6814843e-07
8.7956706e-08
7.7893717e-06
-2.4518966e-08
2.4839797e-07
7.0141411e-06
1.8730964e-09
5.1658916e-07
6.0258986e-06
-1.5555763e-07
8.4556559e-07
4.853889e-06
-4.3996296e-07
1.1693113e-06
3.6565728e-06
-7.9103874e-07
1.3862272e-06
2.7286842e-06
-1.1360825e-06
1.4036291e-06
2.3983944e-06
-1.4064221e-06
1.2107813e-06
3.1248911e-06
-1.5835463e-06
8.1544908e-07
4.9243969e-06
-1.3921668e-06
4.6921883e-07
6.7103744e-06
-1.7637966e-07
5.3880127e-07
7.5740735e-06
1.1417519e-06
1.4780462e-06
7.2415183e-06
2.9312682e-06
2.6233899e-06
4.7700124e-06
3.5052319e-06
9.0668889e-06
-7.9121313e-09
8.8024065e-06
-1.4967974e-08
8.5281439e-06
-1.9337017e-08
8.2535728e-06
-2.0699206e-08
7.9819248e-06
-1.9062941e-08
7.7146928e-06
-1.4070238e-08
7.4484961e-06
-5.0147891e-09
7.1727901e-06
1.1012184e-08
6.8697161e-06
3.6267516e-08
6.5055117e-06
7.6273891e-08
6.0112045e-06
1.4190219e-07
5.2296666e-06
2.5433215e-07
3.7706945e-06
4.6204073e-07
7.5361062e-07
8.7872328e-07
-2.1482814e-06
1.4163154e-06
-4.1224521e-06
1.3388642e-06
-5.4565121e-06
1.1989711e-06
-6.198071e-06
1.0015995e-06
-6.2816679e-06
5.1730634e-07
-5.6994125e-06
-2.177677e-07
-4.9026869e-06
-6.7621836e-07
-4.1739216e-06
-8.9643317e-07
-3.6276391e-06
-9.2435794e-07
-3.2162865e-06
-8.7557201e-07
-2.9309497e-06
-7.678448e-07
-2.6698601e-06
-5.563925e-07
-1.8905787e-06
4.0184959e-07
-7.4720615e-07
1.8407431e-06
8.0384717e-07
3.5079611e-06
4.6492326e-06
9.5728119e-06
-2.9406942e-07
-1.7996948e-08
9.8506614e-06
-2.6214371e-07
-3.0403786e-08
1.0121382e-05
-2.5320198e-07
-3.6144369e-08
1.0352237e-05
-2.1400784e-07
-3.7332711e-08
1.0532498e-05
-1.6544506e-07
-3.5690835e-08
1.0667265e-05
-1.2300631e-07
-3.1895792e-08
1.0764605e-05
-8.9544646e-08
-2.6146438e-08
1.0831937e-05
-6.3787467e-08
-1.908664e-08
1.0874767e-05
-4.5387602e-08
-9.2861396e-09
1.0898507e-05
-3.4921483e-08
3.6319756e-09
1.091428e-05
-3.5343522e-08
1.5729802e-08
1.0939109e-05
-5.5748895e-08
2.8164241e-08
1.1010522e-05
-1.1649544e-07
3.5788861e-08
1.123555e-05
-2.9220731e-07
3.3375084e-08
1.1580959e-05
-4.4546769e-07
2.715007e-09
1.1909311e-05
-4.3368824e-07
-8.5629459e-08
1.2131889e-05
-3.1478972e-07
-1.9756049e-07
1.2255573e-05
-2.2753562e-07
-2.8489121e-07
1.2330488e-05
-2.3702592e-07
-3.3140604e-07
1.240041e-05
-3.3594975e-07
-3.4063533e-07
1.2494978e-05
-4.9896764e-07
-3.2590426e-07
1.2619539e-05
-6.9015533e-07
-3.0340352e-07
1.2754706e-05
-8.7490085e-07
-2.8917013e-07
1.286994e-05
-1.0323261e-06
-2.9457965e-07