/*--------------------------------*- C++ -*----------------------------------*\
| =========                 |                                                 |
| \\      /  F ield         | OpenFOAM: The Open Source CFD Toolbox           |
|  \\    /   O peration     | Version:  v2012                                 |
|   \\  /    A nd           | Website:  www.openfoam.com                      |
|    \\/     M anipulation  |                                                 |
\*---------------------------------------------------------------------------*/
FoamFile
{
    version     2.0;
    format      ascii;
    class       volScalarField;
    location    "360/topAir";
    object      rho;
}
// * * * * * * * * * * * * * * * * * * * * * * * * * * * * * * * * * * * * * //

dimensions      [1 -3 0 0 0 0 0];


internalField   nonuniform List<scalar> 
1200
(
1.0755028
1.0085302
0.95473456
0.9099431
0.87143416
0.83758323
0.80746328
0.7807318
0.75745848
0.73722976
0.71982878
0.70521666
0.69369613
0.6921976
0.69379813
0.69860079
0.70595642
0.71466355
0.72347504
0.73147173
0.73815306
0.74333278
0.74699344
0.7491685
0.74988213
0.74910863
0.74671638
0.74235357
0.73518879
0.72409677
1.1566946
1.1530756
1.1481554
1.1421796
1.1353298
1.12775
1.1195705
1.1104085
1.0979939
1.0818011
1.0597421
1.03094
0.99584515
0.95979369
0.92649942
0.89858445
0.87668562
0.86042384
0.84919275
0.84232975
0.83887684
0.83763327
0.83741935
0.83721746
0.83618575
0.83355512
0.8284557
0.81962295
0.80479999
0.78212246
1.1585772
1.1584559
1.1582309
1.1578803
1.1573854
1.1567305
1.1559031
1.1548813
1.1535863
1.1519286
1.1496608
1.1428904
1.1250583
1.0943015
1.0550434
1.0128168
0.97318521
0.93895696
0.91108076
0.88960922
0.87397851
0.86315732
0.8559041
0.85099663
0.84735658
0.84405307
0.84021552
0.83481072
0.82606317
0.81144701
1.158618
1.158614
1.1586044
1.1585854
1.1585526
1.1585004
1.1584223
1.15831
1.1581518
1.1579294
1.1576009
1.1569104
1.1547604
1.1429967
1.1116617
1.0693317
1.0276568
0.98996992
0.95728037
0.93005412
0.90834182
0.89169268
0.87925772
0.8700445
0.86310693
0.8576194
0.85284299
0.84798447
0.84182458
0.83244286
1.0755371
1.0092524
0.95658181
0.91324037
0.8765041
0.84479395
0.81722047
0.79328371
0.77280371
0.75582828
0.74262288
0.73359207
0.72937976
0.7388007
0.7527611
0.76949533
0.78588795
0.79928441
0.80872181
0.81472729
0.81837846
0.82051823
0.82155831
0.82154366
0.82034682
0.81775688
0.81342644
0.80660039
0.79538455
0.77771094
1.1566976
1.1531469
1.1484133
1.1427768
1.1364529
1.1296216
1.1224595
1.1151582
1.1079346
1.101055
1.0948661
1.0897905
1.0863211
1.0852286
1.0860424
1.0868736
1.08524
1.0802826
1.072883
1.0643475
1.055365
1.0459868
1.0360315
1.0252122
1.0132764
1.0001046
0.98577789
0.97057105
0.95417836
0.93080446
1.1585774
1.1584594
1.1582461
1.1579224
1.157478
1.1569066
1.1562068
1.1553836
1.1544488
1.1534262
1.1523555
1.1512224
1.1500168
1.1487905
1.1457914
1.1380083
1.1219572
1.0992381
1.0745274
1.0520843
1.0327317
1.0144072
0.99704812
0.98038633
0.96452937
0.94874332
0.93223716
0.91525847
0.89783485
0.87928659
1.158618
1.1586142
1.1586051
1.158588
1.1585595
1.1585156
1.1584522
1.1583651
1.1582496
1.1581007
1.1579106
1.1576474
1.1571216
1.1549052
1.1455784
1.1224995
1.0874737
1.0465001
1.006897
0.97241619
0.94507509
0.92503339
0.90941377
0.89670066
0.88585154
0.87701298
0.86987076
0.86364701
0.85750592
0.85051188
1.0755752
1.0091959
0.95640612
0.91292887
0.87602878
0.84410962
0.8162024
0.79168046
0.77018673
0.75159284
0.7359989
0.72377763
0.71590279
0.72292295
0.73530029
0.75127345
0.76833821
0.78494217
0.80017982
0.81363077
0.82522688
0.83486911
0.84219266
0.84671049
0.84811822
0.84646832
0.84203919
0.83483383
0.82284716
0.80079642
1.1566982
1.1531372
1.1483841
1.1427224
1.1363659
1.1294868
1.12224
1.1147808
1.1072889
1.0999978
1.0932314
1.0874877
1.0835289
1.0825409
1.0837818
1.0845646
1.0834778
1.0805445
1.0757615
1.0692846
1.0612305
1.0513479
1.0391495
1.0243457
1.0070862
0.98781767
0.96704496
0.94546074
0.92172965
0.89246923
1.1585774
1.1584589
1.1582445
1.1579194
1.1574735
1.156901
1.1561999
1.1553739
1.1544334
1.1534011
1.152323
1.1512837
1.1504151
1.1495229
1.1452171
1.1336171
1.1190144
1.1053223
1.0913534
1.0770612
1.0620659
1.044708
1.0236809
0.99922355
0.97280091
0.94666501
0.9230912
0.9029768
0.88275648
0.85614031
1.158618
1.1586141
1.1586051
1.1585879
1.1585593
1.1585156
1.1584528
1.1583669
1.1582538
1.1581097
1.1579312
1.1577087
1.1573196
1.1550692
1.1378731
1.0989812
1.0684763
1.0552917
1.0287475
0.99656054
0.96793242
0.94553805
0.92790016
0.91350023
0.90122558
0.89068124
0.88172818
0.87384612
0.85978016
0.82902299
1.0756142
1.0092203
0.95636053
0.91276045
0.87566176
0.84342187
0.81500865
0.78972125
0.76707258
0.74675916
0.7286813
0.71305622
0.70086735
0.70330286
0.70703338
0.70859697
0.7073307
0.70459367
0.70201151
0.70065271
0.70118323
0.70372814
0.70789232
0.71310667
0.71871066
0.72337156
0.72449885
0.71915323
0.70948972
0.69480902
1.156699
1.1531353
1.14837
1.1426816
1.1362761
1.1293109
1.1219169
1.1142127
1.106325
1.0984222
1.0907885
1.0839657
1.0789095
1.0766865
1.0744525
1.0703796
1.0651744
1.0595081
1.0535248
1.0469375
1.0391688
1.0295058
1.0174744
1.0031449
0.98683826
0.96851267
0.94855165
0.9273753
0.88445188
0.81687085
1.1585774
1.1584588
1.1582436
1.1579166
1.1574667
1.1568866
1.1561721
1.1553227
1.1543437
1.153251
1.1520873
1.1509544
1.1499876
1.1479438
1.1361763
1.1211532
1.1106057
1.1026093
1.0937648
1.0823008
1.0668234
1.0460063
1.0198164
0.99011551
0.95857383
0.92580374
0.89762506
0.87631102
0.85530752
0.81726449
1.158618
1.1586141
1.158605
1.1585877
1.1585588
1.1585145
1.1584504
1.1583622
1.1582451
1.158094
1.1579026
1.1576422
1.156873
1.1494896
1.0950575
1.0286596
1.0085703
1.008762
1.0081856
0.99128061
0.97044958
0.95074566
0.93365048
0.91936515
0.90428257
0.88437569
0.86392497
0.8452228
0.82576114
0.79560873
1.075657
1.0092764
0.9564098
0.91279157
0.87566511
0.8433856
0.81492167
0.7895703
0.76685521
0.74650531
0.72850761
0.71328752
0.70211284
0.7075665
0.71116748
0.71032969
0.70640194
0.70100087
0.69483295
0.6884007
0.68213898
0.67644141
0.67163221
0.66791847
0.66533298
0.66360955
0.66201015
0.6592569
0.65369566
0.64321385
1.1567
1.1531362
1.1483673
1.1426701
1.1362493
1.12926
1.1218303
1.1140772
1.1061276
1.0981677
1.0905465
1.0839679
1.0795504
1.0772613
1.072777
1.0668365
1.0580346
1.0433322
1.0243341
1.0023153
0.97793673
0.95137201
0.92254286
0.89193123
0.86073788
0.83017567
0.80050997
0.77114834
0.74081379
0.70561212
1.1585774
1.1584587
1.1582433
1.1579154
1.1574637
1.1568804
1.1561606
1.1553031
1.1543122
1.1532057
1.152036
1.1509332
1.149898
1.1446982
1.1280772
1.1172842
1.1112386
1.1058357
1.0987542
1.0890684
1.0736669
1.0500728
1.0188888
0.98470493
0.95189286
0.91811346
0.88305728
0.84520804
0.80280569
0.75310204
1.158618
1.1586141
1.158605
1.1585876
1.1585586
1.1585139
1.1584491
1.1583597
1.1582402
1.1580848
1.1578839
1.1575636
1.1558911
1.136094
1.0099888
0.98714539
0.97986572
0.97494902
0.96820853
0.95909847
0.94833252
0.93595408
0.92351028
0.91187566
0.90094504
0.89094888
0.87848117
0.84999715
0.81183063
0.76570864
1.0757015
1.00935
0.9565023
0.91289766
0.87578271
0.84351259
0.81505347
0.78969991
0.76696272
0.74654337
0.72836087
0.71272089
0.70085545
0.70637502
0.71162973
0.71298752
0.71008037
0.70460492
0.69850353
0.69230291
0.68645037
0.68132578
0.67721441
0.67427729
0.67251275
0.67165264
0.67093757
0.66894705
0.66384157
0.65374535
1.1567011
1.1531393
1.1483729
1.1426786
1.1362607
1.1292741
1.121846
1.1140901
1.1061271
1.0981239
1.0903827
1.0835174
1.0786538
1.0769121
1.0734611
1.0681813
1.061946
1.0526792
1.0404453
1.0276889
1.0159524
1.004714
0.99150799
0.9736375
0.95001243
0.92097547
0.8871223
0.84857192
0.80348324
0.7501873
1.1585774
1.1584588
1.1582435
1.1579158
1.1574643
1.1568813
1.1561618
1.1553043
1.1543124
1.153201
1.1520139
1.1508656
1.149923
1.1474493
1.1287922
1.1144584
1.1056178
1.1002937
1.094619
1.0849873
1.0683495
1.0428137
1.0095861
0.97437815
0.94452853
0.92446765
0.90919328
0.88470076
0.84718892
0.79519784
1.158618
1.1586141
1.158605
1.1585877
1.1585586
1.1585139
1.1584493
1.1583599
1.1582407
1.158086
1.1578884
1.1576168
1.156788
1.1475294
1.0433158
0.98797107
0.97573494
0.96880602
0.9624844
0.95588576
0.94724994
0.93555918
0.92297097
0.91046702
0.89828706
0.88648619
0.874958
0.86305135
0.83441106
0.79660644
1.075751
1.0094466
0.95664766
0.9130942
0.87603645
0.84383406
0.8154563
0.79019846
0.76757872
0.74728101
0.72916146
0.71335662
0.70073976
0.70282101
0.70749845
0.71131889
0.71254217
0.71196568
0.71135597
0.71199693
0.71452437
0.71889991
0.72456957
0.73077893
0.73688812
0.74214693
0.74455969
0.74013794
0.72646014
0.71090405
1.1567024
1.1531447
1.1483872
1.1427077
1.1363121
1.1293573
1.1219735
1.1142777
1.1063906
1.0984697
1.0907671
1.083755
1.0783214
1.075931
1.0748328
1.0718509
1.0672777
1.062066
1.0566359
1.0508526
1.0441805
1.0358492
1.0251091
1.0116324
0.99560498
0.97719591
0.95653337
0.93559575
0.90575855
0.84292322
1.1585774
1.158459
1.1582443
1.1579177
1.1574685
1.1568893
1.1561758
1.1553273
1.1543483
1.1532529
1.1520771
1.1509081
1.1499122
1.14872
1.1402753
1.1227048
1.108556
1.0982403
1.0888626
1.0774188
1.0615232
1.0400924
1.0134356
0.98443721
0.95646618
0.93058006
0.9056942
0.88736389
0.87065525
0.84071635
1.158618
1.1586141
1.158605
1.1585878
1.1585589
1.1585146
1.1584507
1.1583627
1.1582458
1.1580951
1.1579052
1.1576622
1.1571868
1.1535982
1.1165201
1.0441546
1.0049658
1.0023404
1.0046183
0.99835483
0.97926465
0.95835268
0.94166882
0.9275423
0.91444045
0.90103612
0.88143294
0.86202603
0.83966029
0.81775331
1.0757996
1.00957
0.95688362
0.91348615
0.87665585
0.84480212
0.81696808
0.7925181
0.77108414
0.75253109
0.73694378
0.72463782
0.71649111
0.723123
0.73553702
0.75256324
0.77133025
0.7894792
0.80582047
0.81986383
0.83147169
0.84059293
0.84708387
0.85075457
0.85154768
0.8496339
0.84530844
0.83854464
0.82766282
0.8062954
1.1567038
1.1531528
1.1484128
1.1427663
1.136427
1.1295665
1.1223398
1.1149006
1.1074232
1.1001317
1.0933306
1.0874761
1.0832721
1.0819805
1.0835091
1.0853478
1.0850817
1.0824969
1.077844
1.0713652
1.0632645
1.0534723
1.0416789
1.0276992
1.0117058
0.99411865
0.97517987
0.95518627
0.93407854
0.90855925
1.1585775
1.1584594
1.1582456
1.1579213
1.1574767
1.1569056
1.1562064
1.1553823
1.1544435
1.1534109
1.1523267
1.1512665
1.1503594
1.1496355
1.1469824
1.1370976
1.1214334
1.1062089
1.0916184
1.0767602
1.0611635
1.0436482
1.0232265
1.0004033
0.97678832
0.95414749
0.93318103
0.91382371
0.89549196
0.87462028
1.158618
1.1586142
1.1586051
1.158588
1.1585595
1.1585159
1.1584532
1.1583676
1.1582549
1.1581114
1.1579339
1.1577166
1.1574052
1.1561922
1.1456794
1.1119482
1.0733
1.0544878
1.0334699
1.0043138
0.97617774
0.95315808
0.93494855
0.92020971
0.907857
0.89737567
0.88831231
0.88024691
0.86853556
0.84973286
1.075828
1.0097406
0.95720857
0.91397318
0.8773279
0.84569883
0.81818555
0.79430225
0.77386514
0.75692613
0.74373565
0.73467368
0.73032835
0.73948011
0.75306725
0.76962284
0.78633505
0.80044196
0.81072337
0.81745342
0.82158501
0.82393566
0.8249599
0.82478008
0.82334664
0.82053368
0.81607205
0.80918918
0.7980464
0.78144188
1.1567048
1.1531673
1.1484507
1.142834
1.1365322
1.1297242
1.1225844
1.1153043
1.1080974
1.1012286
1.0950314
1.0899089
1.0863185
1.085014
1.085665
1.0866266
1.0855759
1.0812896
1.0744229
1.0662252
1.0575265
1.0484647
1.0389194
1.0286735
1.0175347
1.0053775
0.99217862
0.97810034
0.96302553
0.93952182
1.1585775
1.15846
1.1582474
1.1579249
1.157482
1.1569124
1.1562149
1.1553941
1.1544618
1.1534411
1.1523697
1.151231
1.1500011
1.1487635
1.1460024
1.1388409
1.1243253
1.1025614
1.0783545
1.0557676
1.0367663
1.0193038
1.0028063
0.98694132
0.97158004
0.95619275
0.94023458
0.9235338
0.90599952
0.8873132
1.158618
1.1586142
1.1586052
1.1585882
1.1585597
1.1585159
1.1584528
1.1583659
1.1582509
1.1581027
1.1579138
1.1576525
1.1571329
1.1549644
1.1462666
1.1242848
1.0896614
1.0495552
1.0111979
0.9775176
0.94995785
0.92934329
0.91356905
0.9008314
0.89014596
0.88145457
0.87433379
0.86810181
0.8619793
0.85536199
1.0758272
1.009076
0.95543802
0.91077031
0.87236575
0.83860336
0.80854726
0.78181624
0.75853921
0.73830398
0.72089172
0.70625922
0.69470044
0.69315632
0.69467931
0.6994315
0.70685567
0.71578407
0.72494007
0.73334069
0.74042086
0.74594415
0.74986893
0.75223238
0.75308197
0.75243113
0.75018858
0.74602035
0.73912475
0.72851202
1.1567027
1.1530984
1.148198
1.1422455
1.135422
1.12787
1.1197207
1.1107387
1.0985774
1.0826663
1.0609365
1.0322876
0.99711649
0.96079775
0.92725695
0.89936473
0.87779535
0.86199639
0.85119648
0.84466972
0.84151348
0.84057685
0.84069838
0.84086393
0.84023525
0.83805613
0.83344478
0.82504223
0.81048173
0.78771098
1.1585774
1.1584566
1.1582325
1.1578832
1.1573902
1.1567377
1.1559133
1.1548986
1.1536162
1.1519768
1.1497367
1.1431481
1.12538
1.0944614
1.0549791
1.0129591
0.9734235
0.93964427
0.91234254
0.89140122
0.87619802
0.86571941
0.85876083
0.85413363
0.85078327
0.84779883
0.84432105
0.83930505
0.83096841
0.81673181
1.158618
1.158614
1.1586044
1.1585855
1.1585529
1.1585009
1.158423
1.1583114
1.1581542
1.1579339
1.1576094
1.1569311
1.1547949
1.1427929
1.1112005
1.0690423
1.0276822
0.99069067
0.95882048
0.93229507
0.91106698
0.89471132
0.88245536
0.87337251
0.86655929
0.86121286
0.85660872
0.85197044
0.84611837
0.83716365
)
;

boundaryField
{
    maxY
    {
        type            calculated;
        value           nonuniform List<scalar> 
300
(
1.1586175
1.1586175
1.1586175
1.1586175
1.1586175
1.1586175
1.1586175
1.1586175
1.1586175
1.1586175
1.1586135
1.1586136
1.1586136
1.1586136
1.1586136
1.1586136
1.1586136
1.1586136
1.1586137
1.1586135
1.1586038
1.1586046
1.1586045
1.1586045
1.1586045
1.1586045
1.1586045
1.1586046
1.1586047
1.1586039
1.1585849
1.1585875
1.1585874
1.1585872
1.1585871
1.1585871
1.1585873
1.1585875
1.1585876
1.158585
1.1585521
1.1585589
1.1585588
1.1585583
1.1585581
1.1585581
1.1585584
1.1585589
1.1585591
1.1585524
1.1584999
1.158515
1.1585151
1.1585139
1.1585133
1.1585134
1.1585141
1.1585153
1.1585154
1.1585004
1.1584218
1.1584517
1.1584523
1.1584499
1.1584486
1.1584488
1.1584502
1.1584527
1.1584523
1.1584225
1.1583095
1.1583645
1.1583663
1.1583617
1.1583592
1.1583594
1.1583622
1.1583671
1.1583654
1.1583108
1.1581513
1.158249
1.1582532
1.1582446
1.1582397
1.1582402
1.1582453
1.1582544
1.1582504
1.1581537
1.1579289
1.1581001
1.1581092
1.1580934
1.1580843
1.1580855
1.1580946
1.1581109
1.1581022
1.1579334
1.1576004
1.1579101
1.1579307
1.1579021
1.1578834
1.1578879
1.1579047
1.1579333
1.1579132
1.1576088
1.1569098
1.1576469
1.1577082
1.1576417
1.1575631
1.1576162
1.1576617
1.157716
1.157652
1.1569306
1.1547599
1.1571211
1.157319
1.1568724
1.1558906
1.1567874
1.1571863
1.1574047
1.1571324
1.1547944
1.1429961
1.1549047
1.1550687
1.1494891
1.1360935
1.1475288
1.1535977
1.1561916
1.1549639
1.1427924
1.1116612
1.1455779
1.1378726
1.095057
1.0099884
1.0433154
1.1165196
1.1456789
1.1462661
1.1112
1.0693312
1.1224991
1.0989808
1.0286592
0.98714501
0.98797068
1.0441542
1.1119477
1.1242843
1.0690419
1.0276563
1.0874733
1.0684759
1.0085699
0.97986535
0.97573457
1.0049654
1.0732996
1.0896609
1.0276818
0.98996954
1.0464996
1.0552913
1.0087616
0.97494865
0.96880566
1.00234
1.0544874
1.0495548
0.99069028
0.95728001
1.0068966
1.028747
1.0081852
0.96820816
0.96248404
1.004618
1.0334695
1.0111975
0.95882012
0.93005378
0.97241582
0.99656015
0.99128023
0.9590981
0.9558854
0.99835443
1.0043134
0.97751722
0.93229473
0.90834149
0.94507474
0.96793205
0.97044921
0.94833217
0.94724959
0.97926427
0.97617736
0.9499575
0.91106666
0.89169237
0.92503305
0.9455377
0.9507453
0.93595373
0.93555884
0.95835232
0.95315772
0.92934295
0.89471101
0.87925741
0.90941344
0.92789982
0.93365014
0.92350994
0.92297064
0.94166848
0.93494821
0.91356872
0.88245505
0.8700442
0.89670035
0.9134999
0.91936482
0.91187533
0.91046669
0.92754196
0.92020937
0.90083108
0.87337221
0.86310664
0.88585124
0.90122526
0.90428225
0.90094472
0.89828675
0.91444012
0.90785667
0.89014565
0.86655899
0.85761911
0.87701267
0.89068093
0.88437539
0.89094857
0.88648588
0.9010358
0.89737536
0.88145426
0.86121256
0.85284271
0.86987047
0.88172788
0.86392467
0.87848087
0.8749577
0.88143263
0.888312
0.87433349
0.85660843
0.84798419
0.86364672
0.87384582
0.84522252
0.84999687
0.86305106
0.86202574
0.88024661
0.86810152
0.85197016
0.8418243
0.85750564
0.85977987
0.82576087
0.81183037
0.83441079
0.83966001
0.86853527
0.86197901
0.84611809
0.83244259
0.8505116
0.82902272
0.79560848
0.76570841
0.7966062
0.81775305
0.84973258
0.8553617
0.83716337
)
;
    }
    minX
    {
        type            calculated;
        value           nonuniform List<scalar> 
40
(
1.1586222
1.1586212
1.1586201
1.1586191
1.1586222
1.1586211
1.1586201
1.1586191
1.1586222
1.1586211
1.1586201
1.158619
1.1586222
1.1586211
1.1586201
1.158619
1.1586222
1.1586211
1.1586201
1.158619
1.1586222
1.1586211
1.1586201
1.158619
1.1586222
1.1586211
1.1586201
1.158619
1.1586222
1.1586211
1.1586201
1.158619
1.1586222
1.1586211
1.1586201
1.1586191
1.1586222
1.1586212
1.1586201
1.1586191
)
;
    }
    maxX
    {
        type            calculated;
        value           nonuniform List<scalar> 
40
(
0.72401279
0.78201583
0.81139481
0.83242682
0.77755417
0.9307285
0.8793348
0.85063723
0.80055937
0.89255063
0.85656947
0.83025252
0.69469101
0.81646233
0.81739098
0.79707141
0.64315262
0.70564731
0.75311017
0.76680472
0.65366758
0.74962596
0.79478771
0.79753017
0.71077743
0.84260642
0.84069693
0.81900547
0.80637037
0.90850173
0.87462569
0.85016322
0.78139872
0.93942886
0.88718584
0.85529299
0.72846683
0.78762753
0.8166824
0.83712547
)
;
    }
    minZ
    {
        type            calculated;
        value           nonuniform List<scalar> 
120
(
1.0755028
1.1566946
1.1585772
1.158618
1.0085302
1.1530756
1.1584559
1.158614
0.95473456
1.1481554
1.1582309
1.1586044
0.9099431
1.1421796
1.1578803
1.1585854
0.87143416
1.1353298
1.1573854
1.1585526
0.83758323
1.12775
1.1567305
1.1585004
0.80746328
1.1195705
1.1559031
1.1584223
0.7807318
1.1104085
1.1548813
1.15831
0.75745848
1.0979939
1.1535863
1.1581518
0.73722976
1.0818011
1.1519286
1.1579294
0.71982878
1.0597421
1.1496608
1.1576009
0.70521666
1.03094
1.1428904
1.1569104
0.69369613
0.99584515
1.1250583
1.1547604
0.6921976
0.95979369
1.0943015
1.1429967
0.69379813
0.92649942
1.0550434
1.1116617
0.69860079
0.89858445
1.0128168
1.0693317
0.70595642
0.87668562
0.97318521
1.0276568
0.71466355
0.86042384
0.93895696
0.98996992
0.72347504
0.84919275
0.91108076
0.95728037
0.73147173
0.84232975
0.88960922
0.93005412
0.73815306
0.83887684
0.87397851
0.90834182
0.74333278
0.83763327
0.86315732
0.89169268
0.74699344
0.83741935
0.8559041
0.87925772
0.7491685
0.83721746
0.85099663
0.8700445
0.74988213
0.83618575
0.84735658
0.86310693
0.74910863
0.83355512
0.84405307
0.8576194
0.74671638
0.8284557
0.84021552
0.85284299
0.74235357
0.81962295
0.83481072
0.84798447
0.73518879
0.80479999
0.82606317
0.84182458
0.72409677
0.78212246
0.81144701
0.83244286
)
;
    }
    maxZ
    {
        type            calculated;
        value           nonuniform List<scalar> 
120
(
1.0758272
1.1567027
1.1585774
1.158618
1.009076
1.1530984
1.1584566
1.158614
0.95543802
1.148198
1.1582325
1.1586044
0.91077031
1.1422455
1.1578832
1.1585855
0.87236575
1.135422
1.1573902
1.1585529
0.83860336
1.12787
1.1567377
1.1585009
0.80854726
1.1197207
1.1559133
1.158423
0.78181624
1.1107387
1.1548986
1.1583114
0.75853921
1.0985774
1.1536162
1.1581542
0.73830398
1.0826663
1.1519768
1.1579339
0.72089172
1.0609365
1.1497367
1.1576094
0.70625922
1.0322876
1.1431481
1.1569311
0.69470044
0.99711649
1.12538
1.1547949
0.69315632
0.96079775
1.0944614
1.1427929
0.69467931
0.92725695
1.0549791
1.1112005
0.6994315
0.89936473
1.0129591
1.0690423
0.70685567
0.87779535
0.9734235
1.0276822
0.71578407
0.86199639
0.93964427
0.99069067
0.72494007
0.85119648
0.91234254
0.95882048
0.73334069
0.84466972
0.89140122
0.93229507
0.74042086
0.84151348
0.87619802
0.91106698
0.74594415
0.84057685
0.86571941
0.89471132
0.74986893
0.84069838
0.85876083
0.88245536
0.75223238
0.84086393
0.85413363
0.87337251
0.75308197
0.84023525
0.85078327
0.86655929
0.75243113
0.83805613
0.84779883
0.86121286
0.75018858
0.83344478
0.84432105
0.85660872
0.74602035
0.82504223
0.83930505
0.85197044
0.73912475
0.81048173
0.83096841
0.84611837
0.72851202
0.78771098
0.81673181
0.83716365
)
;
    }
    topAir_to_rightSolid
    {
        type            calculated;
        value           nonuniform List<scalar> 
130
(
0.46641267
0.46160685
0.45670129
0.45194493
0.44750009
0.44347348
0.43992181
0.43686821
0.43431433
0.43226536
0.4307292
0.42970541
0.4291921
0.47004305
0.46434656
0.45868441
0.45334319
0.44846662
0.44413864
0.44038174
0.43719093
0.43454623
0.43243873
0.43086405
0.42981701
0.42929351
0.47750643
0.46971244
0.46240295
0.45586291
0.45016003
0.44527765
0.44115234
0.43772094
0.43492061
0.43271295
0.43107354
0.42998701
0.4294437
0.48912091
0.47719512
0.4671509
0.45887713
0.45208917
0.44652588
0.4419747
0.43827514
0.43530616
0.43299339
0.43128611
0.43015777
0.42959438
0.50365678
0.48461673
0.47123455
0.46126498
0.45355555
0.44746092
0.4425943
0.43870541
0.4356212
0.43323632
0.43148376
0.43032885
0.42975358
0.50398857
0.48492179
0.47150124
0.46149137
0.45374478
0.44762004
0.44273965
0.43884628
0.43576793
0.43338915
0.43163118
0.43047595
0.42990211
0.48998832
0.47798324
0.4678555
0.45949861
0.45263218
0.44699417
0.44240241
0.43868478
0.43571779
0.43341121
0.43170258
0.43057488
0.43001488
0.47868935
0.47079509
0.46338444
0.45674227
0.45094427
0.4459808
0.44180371
0.43834298
0.4355342
0.43332725
0.4316965
0.43061882
0.43008091
0.47140448
0.46560024
0.45982891
0.4543738
0.44939922
0.44499546
0.44118166
0.43794393
0.435286
0.43318717
0.4316284
0.43059506
0.43007899
0.46784444
0.46292883
0.45790983
0.45304107
0.44849931
0.44439582
0.44078392
0.43767941
0.43511289
0.43307706
0.43156057
0.43055323
0.43004894
)
;
    }
    topAir_to_heater
    {
        type            calculated;
        value           nonuniform List<scalar> 
40
(
0.47831165
0.47697545
0.47439949
0.47078976
0.48449578
0.48287888
0.47974792
0.47534401
0.49798039
0.49577085
0.49140558
0.48511294
0.52166697
0.51861129
0.5121795
0.5021413
0.56048477
0.55729278
0.54908647
0.5332604
0.56076701
0.55758458
0.54939079
0.53357947
0.52258307
0.51955186
0.51312866
0.50307228
0.49936012
0.4971486
0.4927556
0.48639306
0.48609047
0.48446273
0.48129435
0.47681147
0.48002042
0.47865624
0.47602435
0.47232896
)
;
    }
    topAir_to_leftSolid
    {
        type            calculated;
        value           nonuniform List<scalar> 
130
(
0.3997921
0.39982836
0.39989138
0.39997284
0.40006601
0.4001653
0.40026402
0.40034861
0.40041724
0.40047659
0.40052787
0.40056979
0.40059294
0.39984597
0.39988203
0.39994804
0.40003991
0.40013716
0.40023626
0.40033947
0.4004373
0.40051801
0.40059034
0.40065632
0.40071339
0.40075476
0.39994693
0.39998857
0.40005945
0.40014748
0.40024675
0.40035559
0.40047215
0.40058841
0.40069395
0.4007928
0.40088416
0.40096042
0.40101741
0.40007904
0.40011815
0.40018457
0.40027275
0.40038065
0.40050395
0.4006434
0.40077993
0.40091696
0.40105849
0.40120892
0.40132199
0.401384
0.40021844
0.40025088
0.40031555
0.40041119
0.4005321
0.40066654
0.40082312
0.40098076
0.4011453
0.40132217
0.40149449
0.40160969
0.40167343
0.40037189
0.40039961
0.40045946
0.40055508
0.40068564
0.40083266
0.40100127
0.40117573
0.40136067
0.40155789
0.40171175
0.4018226
0.40188563
0.4005497
0.40057417
0.4006322
0.40072642
0.40085623
0.40100262
0.40116926
0.40134161
0.40151844
0.40170362
0.40184683
0.40194471
0.40199757
0.40071715
0.40074071
0.40079571
0.40088471
0.40100772
0.40114504
0.40130131
0.40145789
0.40161501
0.40177403
0.40191278
0.40200462
0.402054
0.40084488
0.40086784
0.40092075
0.40100701
0.40111814
0.40124124
0.40137786
0.4015212
0.40166005
0.40179355
0.4019152
0.40200406
0.40205094
0.40090568
0.40092841
0.40098158
0.40106858
0.40117901
0.40129822
0.4014258
0.40155591
0.40168002
0.40179703
0.40189906
0.40197766
0.40201989
)
;
    }
}


// ************************************************************************* //
