/*--------------------------------*- C++ -*----------------------------------*\
| =========                 |                                                 |
| \\      /  F ield         | OpenFOAM: The Open Source CFD Toolbox           |
|  \\    /   O peration     | Version:  v2012                                 |
|   \\  /    A nd           | Website:  www.openfoam.com                      |
|    \\/     M anipulation  |                                                 |
\*---------------------------------------------------------------------------*/
FoamFile
{
    version     2.0;
    format      ascii;
    class       volScalarField;
    location    "360/topAir";
    object      T;
}
// * * * * * * * * * * * * * * * * * * * * * * * * * * * * * * * * * * * * * //

dimensions      [0 0 0 1 0 0 0];


internalField   nonuniform List<scalar> 
1200
(
323.18526
344.64673
364.06625
381.98721
398.86733
414.98755
430.46738
445.20615
458.88534
471.4766
482.87396
492.87912
501.06458
502.14931
500.99089
497.54672
492.36258
486.36386
480.44023
475.1879
470.88677
467.60551
465.31399
463.96304
463.52151
464.00011
465.48662
468.22228
472.78534
480.02766
300.49966
301.44281
302.73457
304.31847
306.15452
308.21223
310.464
313.02566
316.56492
321.30336
327.99142
337.15476
349.03651
362.1469
375.16084
386.81539
396.47769
403.971
409.31376
412.64869
414.3472
414.96235
415.06835
415.16844
415.68068
416.99253
419.55925
424.08067
431.89147
444.4141
300.01111
300.04251
300.1008
300.19168
300.32004
300.49007
300.70516
300.97122
301.30909
301.74268
302.33788
304.12891
308.94935
317.63278
329.45187
343.18745
357.16327
370.18311
381.50955
390.71763
397.70544
402.69138
406.10392
408.44581
410.2004
411.80587
413.68673
416.36505
420.77413
428.35331
300.00027
300.0013
300.0038
300.00871
300.0172
300.03071
300.05096
300.08003
300.12104
300.17866
300.26386
300.44308
301.00244
304.10038
312.67221
325.0495
338.23135
351.10738
363.09713
373.72639
382.65966
389.80445
395.3173
399.50346
402.71463
405.29142
407.56129
409.89641
412.89575
417.54912
323.17496
344.40012
363.36321
380.60804
396.56017
411.44543
425.32782
438.16177
449.77345
459.87507
468.05262
473.81452
476.55089
470.47406
461.74884
451.70717
442.28513
434.87217
429.79741
426.6293
424.7259
423.61828
423.08198
423.08952
423.70678
425.0487
427.31152
430.92774
437.00431
446.9353
300.49888
301.42415
302.66658
304.15944
305.85196
307.70157
309.66492
311.6924
313.72461
315.68481
317.46926
318.94785
319.96647
320.28858
320.04857
319.80379
320.28519
321.75496
323.97408
326.57216
329.35173
332.30465
335.49779
339.03836
343.03203
347.5499
352.60098
358.1255
364.27804
373.42559
300.01107
300.04163
300.09688
300.18076
300.29602
300.44434
300.62617
300.84036
301.08396
301.35089
301.63089
301.92777
302.24431
302.56694
303.3589
305.43364
309.80326
316.20628
323.47801
330.37844
336.56951
342.64935
348.61505
354.53981
360.36848
366.36462
372.85146
379.76811
387.13799
395.30453
300.00027
300.00127
300.0036
300.00803
300.01543
300.02679
300.0432
300.06577
300.0957
300.13428
300.18355
300.2518
300.38823
300.96472
303.41503
309.65332
319.62677
332.14113
345.20485
357.44543
367.78636
375.7548
382.20857
387.6274
392.37472
396.32909
399.58322
402.46277
405.34503
408.67832
323.1635
344.41939
363.42995
380.7379
396.77534
411.779
425.85834
439.04911
451.30172
462.4666
472.26508
480.23946
485.52202
480.80721
472.71376
462.66317
452.38744
442.81804
434.38554
427.20427
421.20118
416.33656
412.71617
410.51401
409.83262
410.63144
412.79136
416.3541
422.41925
434.05098
300.49873
301.4267
302.67429
304.17392
305.87536
307.73829
309.7255
311.79792
313.90754
315.9882
317.94396
319.62323
320.79101
321.08378
320.71614
320.48464
320.80611
321.67699
323.10722
325.06432
327.53137
330.61014
334.49112
339.32518
345.14052
351.87289
359.43133
367.63689
377.10215
389.46577
300.01107
300.04175
300.09728
300.18154
300.29717
300.4458
300.62796
300.8429
301.088
301.35747
301.6394
301.91171
302.13967
302.37416
303.51103
306.61676
310.618
314.46574
318.4908
322.71704
327.27347
332.71115
339.54526
347.85609
357.30435
367.16895
376.54568
384.93348
393.75072
405.99185
300.00027
300.00127
300.00362
300.00806
300.01547
300.02679
300.04305
300.06531
300.09461
300.13194
300.17821
300.2359
300.33685
300.92197
305.46966
316.27993
325.3097
329.37405
337.87273
348.78535
359.10123
367.60628
374.5939
380.4988
385.68119
390.24709
394.20966
397.76543
404.27286
419.27159
323.15177
344.41108
363.44728
380.80816
396.94164
412.11477
426.4821
440.13834
453.1339
465.46009
477.00769
487.46027
495.93774
494.22032
491.61266
490.52786
491.40599
493.31488
495.1294
496.08961
495.71426
493.92158
491.01608
487.42568
483.62508
480.50893
479.76127
483.32743
489.91052
500.2619
300.49852
301.42721
302.67802
304.18479
305.89955
307.78622
309.81469
311.95689
314.18103
316.44147
318.65602
320.66175
322.16449
322.82965
323.50088
324.73182
326.31869
328.06386
329.92702
332.0029
334.4849
337.6244
341.61675
346.49659
352.22212
358.88664
366.43893
374.80645
392.99622
425.50942
300.01106
300.04178
300.09751
300.18228
300.29895
300.44953
300.6352
300.85622
301.1114
301.39668
301.70111
301.99808
302.25199
302.79011
305.92613
310.02544
312.96976
315.23949
317.78862
321.15472
325.81401
332.2982
340.83195
351.05601
362.60744
375.44243
387.2285
396.64685
406.38717
425.30419
300.00027
300.00127
300.00363
300.00811
300.01559
300.02708
300.04366
300.06651
300.09686
300.13602
300.18562
300.25314
300.45279
302.38266
317.41322
337.90158
344.63211
344.56662
344.76362
350.64312
358.1698
365.59277
372.28679
378.07149
384.37737
393.02953
402.33329
411.23569
420.92777
436.88034
323.13893
344.39192
363.42855
380.79517
396.94012
412.13249
426.52762
440.22249
453.26235
465.61837
477.12141
487.3022
495.05799
491.24226
488.75486
489.33131
492.05208
495.84324
500.24475
504.9189
509.55382
513.84571
517.52507
520.40258
522.42486
523.78161
525.04705
527.2398
531.72524
540.39026
300.49825
301.42696
302.67872
304.18782
305.90676
307.8001
309.8386
311.99485
314.23711
316.51481
318.72675
320.66109
321.97324
322.65738
324.00612
325.81029
328.52075
333.15017
339.32903
346.7834
355.4282
365.35265
376.76979
389.70075
403.82359
418.69001
434.20603
450.73852
469.1952
492.60248
300.01106
300.04179
300.09759
300.18258
300.29972
300.45113
300.63819
300.86134
301.1196
301.40853
301.71455
302.00364
302.27553
303.64861
308.12255
311.09902
312.79153
314.31975
316.34555
319.15903
323.73729
331.01136
341.14224
352.98494
365.15245
378.5872
393.61661
411.24315
432.96409
461.53912
300.00027
300.00127
300.00364
300.00813
300.01566
300.02724
300.044
300.06717
300.09812
300.13839
300.19047
300.27352
300.70802
305.94802
344.14811
352.11198
354.72791
356.51681
358.99882
362.4088
366.52305
371.37051
376.37453
381.1767
385.80129
390.12986
395.66673
408.92583
428.15065
453.94008
323.12555
344.36682
363.39341
380.75092
396.88682
412.07045
426.45865
440.15023
453.19881
465.59463
477.21754
487.68962
495.94617
492.07086
488.43738
487.50721
489.50311
493.307
497.61601
502.0729
506.35347
510.162
513.25917
515.4949
516.84744
517.5093
518.06083
519.60238
523.59855
531.68485
300.49797
301.42616
302.67725
304.18558
305.90369
307.79625
309.83428
311.99123
314.23726
316.52743
318.77461
320.79441
322.24086
322.76203
323.79964
325.40011
327.31073
330.19204
334.07455
338.22131
342.12852
345.95544
350.56327
356.99762
365.87549
377.41099
391.81323
409.6132
432.59927
463.33265
300.01105
300.04176
300.09754
300.18248
300.29956
300.4509
300.63788
300.86102
301.11955
301.40975
301.72034
302.0214
302.26895
302.92059
307.92736
311.88784
314.3817
315.90292
317.54063
320.3595
325.34858
333.31553
344.28565
356.72599
367.99948
375.98503
382.30155
392.88539
410.28159
437.10635
300.00027
300.00127
300.00363
300.00813
300.01565
300.02722
300.04396
300.06711
300.09799
300.13808
300.1893
300.25975
300.47487
302.89919
333.15484
351.81771
356.22965
358.77741
361.13388
363.62685
366.94194
371.52726
376.59445
381.76644
386.94285
392.09383
397.25994
402.74055
416.56422
436.33317
323.11067
344.33386
363.33819
380.66896
396.77187
411.91346
426.24799
439.87254
452.83511
465.13504
476.69357
487.255
496.02805
494.55916
491.2895
488.65082
487.8119
488.20688
488.62532
488.18543
486.45861
483.49779
479.71448
475.63838
471.69508
468.35267
466.83495
469.62392
478.466
488.93585
300.49764
301.42474
302.67348
304.17782
305.88985
307.77358
309.79906
311.93871
314.16242
316.42778
318.66229
320.72409
322.34021
323.05634
323.38641
324.28607
325.67561
327.27374
328.95561
330.76599
332.87951
335.55685
339.07248
343.58952
349.12066
355.69762
363.38121
371.51328
383.75154
412.35811
300.01104
300.04171
300.09734
300.18198
300.29847
300.44883
300.63424
300.85502
301.11018
301.39619
301.7038
302.01023
302.27179
302.58552
304.82641
309.59698
313.54845
316.49357
319.21935
322.60994
327.44081
334.18763
342.97787
353.08093
363.40647
373.51542
383.77854
391.70627
399.22345
413.44027
300.00027
300.00127
300.00362
300.00809
300.01557
300.02704
300.04359
300.06639
300.09667
300.13571
300.18494
300.24796
300.37131
301.3057
311.31166
332.88722
345.86819
346.77412
345.98782
348.1585
354.94565
362.69084
369.11676
374.73843
380.10759
385.76229
394.34171
403.21958
413.96001
425.04969
323.0961
344.29177
363.24859
380.50563
396.49153
411.44145
425.45922
438.58506
450.77648
461.89
471.65957
479.66938
485.12336
480.6742
472.56162
461.87023
450.6326
440.27322
431.34489
423.95643
418.03773
413.50161
410.33307
408.56262
408.18209
409.1015
411.19487
414.51161
419.96145
431.09072
300.49728
301.42262
302.66673
304.16222
305.85893
307.71658
309.69796
311.76443
313.86949
315.94974
317.91513
319.62664
320.86706
321.25009
320.79686
320.2534
320.33194
321.0968
322.48294
324.43305
326.90481
329.94344
333.67891
338.2179
343.56457
349.64263
356.43296
363.89368
372.11671
382.56856
300.01104
300.04163
300.097
300.18104
300.29636
300.4446
300.62629
300.8407
301.08536
301.3549
301.63844
301.91622
302.15429
302.34456
303.04389
305.67827
309.94798
314.21371
318.41345
322.80726
327.55178
333.049
339.69603
347.44588
355.84577
364.28959
372.47434
380.36438
388.15088
397.41358
300.00027
300.00127
300.00361
300.00804
300.01543
300.02672
300.04294
300.06512
300.09432
300.1315
300.17752
300.23386
300.31462
300.62971
303.38829
312.59164
323.84767
329.62515
336.32882
346.09273
356.06807
364.66745
371.7699
377.72449
382.86398
387.33583
391.28778
394.87303
400.19751
409.05299
323.08755
344.23359
363.12528
380.30287
396.18781
411.00519
424.82614
437.59992
449.15655
459.20807
467.35232
473.11696
475.93192
470.0418
461.56112
451.63233
442.03365
434.24328
428.7363
425.20653
423.06824
421.86124
421.33747
421.42932
422.16302
423.61027
425.92623
429.5491
435.5467
444.80144
300.49701
301.41885
302.65673
304.1442
305.83062
307.67362
309.63047
311.65158
313.67851
315.63503
317.42133
318.91321
319.96724
320.35193
320.15982
319.87648
320.18608
321.45531
323.50974
325.99704
328.67853
331.51929
334.56519
337.89754
341.59646
345.72711
350.32628
355.36869
360.93147
369.96075
300.01103
300.04147
300.09652
300.18012
300.29498
300.44281
300.62407
300.83763
301.08058
301.34702
301.62718
301.92551
302.24843
302.57405
303.30303
305.21032
309.15074
315.25318
322.32999
329.22585
335.25971
341.00332
346.61329
352.18505
357.75331
363.51037
369.68006
376.36519
383.64918
391.72861
300.00027
300.00126
300.00359
300.008
300.01537
300.0267
300.04306
300.06555
300.09535
300.13374
300.18273
300.25048
300.38529
300.94929
303.23286
309.16163
318.98506
331.17429
343.73658
355.58001
365.89594
374.0122
380.47013
385.84994
390.48174
394.33201
397.54354
400.39745
403.24142
406.361
323.08781
344.46032
363.7982
381.64027
398.44139
414.48273
429.89028
444.58861
458.23154
470.79061
482.16197
492.15155
500.3402
501.45478
500.3554
496.95579
491.73621
485.60248
479.46931
473.97685
469.44451
465.96854
463.52968
462.0733
461.552
461.95123
463.33214
465.92091
470.26767
477.11839
300.49757
301.43683
302.72336
304.3009
306.12965
308.17944
310.42236
312.93258
316.39677
321.04661
327.62219
336.71462
348.59149
361.76845
374.85436
386.4798
395.97645
403.23403
408.35023
411.50554
413.04896
413.50921
413.44943
413.36802
413.67731
414.75295
417.04773
421.2951
428.86376
441.26114
300.01106
300.04234
300.10039
300.19092
300.31879
300.4882
300.70251
300.96671
301.30127
301.73005
302.31794
304.06036
308.86103
317.58637
329.47195
343.13924
357.07584
369.91234
380.98192
389.93216
396.69801
401.49961
404.75299
406.9457
408.54824
409.98642
411.67516
414.13549
418.29028
425.58157
300.00027
300.0013
300.00379
300.00868
300.01713
300.0306
300.05076
300.07969
300.12041
300.1775
300.26167
300.4377
300.99345
304.15459
312.80197
325.13749
338.22297
350.85194
362.5139
372.82806
381.51505
388.4893
393.88483
397.98113
401.11021
403.60032
405.76961
407.97869
410.80042
415.19455
)
;

boundaryField
{
    maxY
    {
        type            zeroGradient;
    }
    minX
    {
        type            fixedValue;
        value           uniform 300;
    }
    maxX
    {
        type            inletOutlet;
        inletValue      uniform 300;
        value           nonuniform List<scalar> 
40
(
480.08337
444.47471
428.38088
417.55715
447.02542
373.45602
395.28284
408.61808
434.1795
389.43022
405.78843
418.65067
500.34693
425.72232
425.23838
436.07864
540.44176
492.57796
461.53417
453.29123
531.74815
463.67962
437.33192
435.82779
489.02299
412.51314
413.44982
424.39984
431.05064
382.59275
397.4111
408.8459
444.82601
369.99731
391.78482
406.39377
477.14801
441.30791
425.60733
415.21347
)
;
    }
    minZ
    {
        type            zeroGradient;
    }
    maxZ
    {
        type            zeroGradient;
    }
    topAir_to_rightSolid
    {
        type            compressible::turbulentTemperatureCoupledBaffleMixed;
        refValue        nonuniform List<scalar> 
130
(
745.31729
753.08036
761.17276
769.18647
776.82905
783.88453
790.21479
795.73937
800.41922
804.21349
807.08129
809.00308
809.96849
739.57625
748.65252
757.89686
766.82849
775.16872
782.72396
789.40253
795.16472
800.00455
803.90331
806.84066
808.80448
809.78774
728.01201
740.09706
751.80074
762.59036
772.25454
780.72477
788.02744
794.2062
799.32045
803.39846
806.45317
808.48936
809.50861
710.70527
728.47017
744.13614
757.55624
768.93364
778.51673
786.53617
793.17799
798.58984
802.85642
806.03403
808.14662
809.20336
690.18843
717.31001
737.68332
753.62927
766.44067
776.88101
785.42421
792.38738
797.99823
802.39157
805.65062
807.81184
808.89065
689.73479
716.8595
737.26689
753.26052
766.12216
776.60616
785.16789
792.13477
797.73151
802.1108
805.37787
807.53835
808.61391
709.44849
727.27087
743.01774
756.53437
768.0143
777.70455
785.77936
792.44098
797.83915
802.08645
805.26068
807.36727
808.41553
726.21343
738.39578
750.20911
761.1229
770.91219
779.49442
786.86604
793.07952
798.19466
802.25987
805.28984
807.30374
808.31003
737.44013
746.63666
756.01058
765.08939
773.56036
781.21716
787.97153
793.79776
798.64518
802.51458
805.41205
807.34327
808.30922
743.03612
750.92966
759.16381
767.32551
775.09852
782.25784
788.66955
794.26488
798.95061
802.70659
805.52694
807.41054
808.35531
)
;
        refGradient     uniform 0;
        valueFraction   uniform 0.99967867;
        value           nonuniform List<scalar> 
130
(
745.23408
752.99276
761.08086
769.09062
776.72969
783.78217
790.10996
795.63262
800.31112
804.10466
806.97241
808.89506
809.86249
739.47834
748.55007
757.79041
766.71856
775.05575
782.6084
789.28482
795.04537
799.88408
803.78232
806.71989
808.68504
809.67117
727.92036
739.99882
751.69643
762.48066
772.14017
780.60652
787.90614
794.08271
799.19557
803.27297
806.32785
808.36534
809.38801
710.63541
728.39518
744.05642
757.47209
768.84525
778.42433
786.44005
793.07852
798.48765
802.75264
805.93038
808.0444
809.10411
690.12599
717.24026
737.60853
753.55084
766.3595
776.79767
785.33905
792.30064
797.91013
802.30246
805.56118
807.72314
808.80439
689.67167
716.78905
737.19132
753.18118
766.03992
776.52154
785.08125
792.04633
797.64148
802.01955
805.28606
807.44713
808.52495
709.3774
727.19419
742.93587
756.44761
767.9229
777.60883
785.67973
792.33795
797.73331
801.97877
805.15288
807.26162
808.3129
726.12156
738.29712
750.10428
761.01266
770.79735
779.3758
786.74449
792.95585
798.06963
802.13422
805.16427
807.17928
808.1888
737.34271
746.53452
755.90429
764.97949
773.44735
781.10152
787.85376
793.67835
798.52468
802.39358
805.29129
807.22382
808.19242
742.9534
750.84244
759.07217
767.2298
774.9992
782.15543
788.56461
794.15798
798.84232
802.59754
805.41783
807.30222
808.24888
)
;
        Tnbr            T;
        thicknessLayers List<scalar> 0();
        kappaLayers     List<scalar> 0();
        kappaMethod     fluidThermo;
        kappa           none;
        alphaAni        none;
        alpha           none;
        field           T;
    }
    topAir_to_heater
    {
        type            compressible::turbulentTemperatureCoupledBaffleMixed;
        refValue        nonuniform List<scalar> 
40
(
726.76709
728.80386
732.76319
738.38446
717.49876
719.90458
724.60707
731.32468
698.06249
701.17689
707.41019
716.59158
666.35524
670.28321
678.70273
692.27338
620.19506
623.74903
633.07334
651.86544
619.88257
623.42262
632.72318
651.47637
665.18671
669.06956
677.44759
690.99312
696.13336
699.23333
705.4719
714.70577
715.14455
717.55058
722.27841
729.07356
724.1796
726.24433
730.26162
735.97794
)
;
        refGradient     uniform 0;
        valueFraction   uniform 0.99967867;
        value           nonuniform List<scalar> 
40
(
726.69492
728.73066
732.6876
738.30541
717.41938
719.82163
724.51937
731.2318
697.99267
701.10347
707.33154
716.50667
666.29992
670.22579
678.64226
692.20883
620.15362
623.70565
633.02716
651.81409
619.8415
623.37925
632.67651
651.42432
665.13189
669.01244
677.38693
690.92784
696.06413
699.1605
705.39363
714.62093
715.06579
717.46833
722.19145
728.98133
724.10804
726.17174
730.18666
735.89946
)
;
        Tnbr            T;
        thicknessLayers List<scalar> 0();
        kappaLayers     List<scalar> 0();
        kappaMethod     fluidThermo;
        kappa           none;
        alphaAni        none;
        alpha           none;
        field           T;
    }
    topAir_to_leftSolid
    {
        type            compressible::turbulentTemperatureCoupledBaffleMixed;
        refValue        nonuniform List<scalar> 
130
(
869.59443
869.50863
869.36529
869.18243
868.97452
868.75366
868.53437
868.34606
868.19277
868.06001
867.94516
867.85108
867.79825
869.47728
869.39198
869.24236
869.03712
868.82072
868.60076
868.37231
868.15597
867.97725
867.81724
867.67165
867.54618
867.45572
869.25775
869.16037
869.00022
868.80343
868.58274
868.34172
868.08439
867.82815
867.59557
867.37796
867.17707
867.00955
866.88458
868.97069
868.87887
868.72848
868.53146
868.29215
868.01991
867.71309
867.41303
867.11229
866.80227
866.47348
866.22594
866.08935
868.66799
868.59071
868.44421
868.23115
867.96378
867.66761
867.32394
866.97848
866.61861
866.23261
865.85704
865.60535
865.46546
868.33502
868.26803
868.13209
867.91923
867.63116
867.30796
866.93858
866.55709
866.15352
865.72403
865.38865
865.14648
865.00811
867.94952
867.88961
867.75776
867.54809
867.26191
866.94036
866.57557
866.19895
865.81323
865.41007
865.09787
864.88374
864.76716
867.58678
867.52892
867.40371
867.20555
866.93432
866.63268
866.29062
865.94845
865.60567
865.25943
864.95751
864.75727
864.64928
867.3103
867.25378
867.1332
866.94109
866.69574
866.42501
866.12557
865.81219
865.50912
865.21824
864.95368
864.76058
864.65881
867.17875
867.12267
867.00141
866.80754
866.56348
866.30085
866.02049
865.7351
865.46314
865.207
864.98363
864.81123
864.71773
)
;
        refGradient     uniform 0;
        valueFraction   uniform 0.99967867;
        value           nonuniform List<scalar> 
130
(
869.41886
869.33998
869.20293
869.02588
868.82346
868.60785
868.39361
868.2101
868.06125
867.93258
867.82143
867.73059
867.68041
869.30174
869.22329
869.0798
868.88018
868.66897
868.45386
868.22995
868.0178
867.84287
867.68615
867.54324
867.41967
867.33011
869.08228
868.99176
868.83777
868.6466
868.43113
868.19501
867.94229
867.69037
867.46181
867.24785
867.05018
866.88526
866.76204
868.7953
868.71035
868.56612
868.37475
868.14069
867.87341
867.57131
867.27573
866.97927
866.6733
866.34833
866.10423
865.9704
868.49269
868.42227
868.28194
868.07452
867.81243
867.52123
867.1823
866.84135
866.48579
866.10389
865.73213
865.48379
865.34643
868.15983
868.09969
867.96991
867.76269
867.4799
867.16168
866.79704
866.42007
866.02082
865.59546
865.26392
865.02519
864.88952
867.77445
867.72138
867.59567
867.39164
867.11073
866.79415
866.43408
866.06196
865.68053
865.28145
864.97306
864.7624
864.64867
867.41182
867.36079
867.24171
867.04916
866.78315
866.48641
866.14897
865.81113
865.47238
865.12982
864.83113
864.63353
864.52733
867.13542
867.08572
866.97125
866.78472
866.54455
866.27867
865.98377
865.6746
865.37534
865.08778
864.82592
864.63473
864.53391
867.00392
866.95472
866.83972
866.65165
866.41306
866.15567
865.88035
865.59978
865.33229
865.08026
864.86062
864.69149
864.60064
)
;
        Tnbr            T;
        thicknessLayers List<scalar> 0();
        kappaLayers     List<scalar> 0();
        kappaMethod     fluidThermo;
        kappa           none;
        alphaAni        none;
        alpha           none;
        field           T;
    }
}


// ************************************************************************* //
