/*--------------------------------*- C++ -*----------------------------------*\
| =========                 |                                                 |
| \\      /  F ield         | OpenFOAM: The Open Source CFD Toolbox           |
|  \\    /   O peration     | Version:  v2012                                 |
|   \\  /    A nd           | Website:  www.openfoam.com                      |
|    \\/     M anipulation  |                                                 |
\*---------------------------------------------------------------------------*/
FoamFile
{
    version     2.0;
    format      ascii;
    class       surfaceScalarField;
    location    "550/topAir";
    object      phi;
}
// * * * * * * * * * * * * * * * * * * * * * * * * * * * * * * * * * * * * * //

dimensions      [1 0 -1 0 0 0 0];
oriented        oriented;


internalField   nonuniform List<scalar> 
3140
(
9.5033075e-06
-3.0597147e-07
7.1627235e-08
9.6896797e-06
-2.6734381e-07
8.0982751e-08
9.8677865e-06
-2.4767238e-07
6.9594037e-08
1.0011693e-05
-1.9525428e-07
5.1389993e-08
1.0115272e-05
-1.3139193e-07
2.7876214e-08
1.0188563e-05
-7.2658739e-08
-5.462211e-10
1.0266241e-05
-2.5408563e-08
-5.2170217e-08
1.0369142e-05
1.7662079e-08
-1.2046759e-07
1.0506763e-05
8.2067249e-08
-2.1960128e-07
1.0701229e-05
1.6706766e-07
-3.6145472e-07
1.0947968e-05
3.142377e-07
-5.6089983e-07
1.1220173e-05
5.5837631e-07
-8.3049894e-07
1.1466092e-05
9.2796414e-07
-1.173781e-06
1.169656e-05
1.3613177e-06
-1.5916589e-06
1.1880081e-05
1.8500661e-06
-2.0334304e-06
1.1997786e-05
2.3311832e-06
-2.4487308e-06
1.203426e-05
2.7610608e-06
-2.7974379e-06
1.1986042e-05
3.1119218e-06
-3.063732e-06
1.1871196e-05
3.3651872e-06
-3.2505186e-06
1.1726639e-05
3.5128267e-06
-3.36857e-06
1.1591219e-05
3.5647488e-06
-3.429691e-06
1.1492407e-05
3.5428012e-06
-3.4443355e-06
1.1443756e-05
3.4687955e-06
-3.4204189e-06
1.1446161e-05
3.3599368e-06
-3.3625477e-06
1.14857e-05
3.2311188e-06
-3.2708711e-06
1.1522921e-05
3.1009342e-06
-3.138501e-06
1.1471689e-05
2.9995475e-06
-2.948917e-06
1.1158366e-05
2.985822e-06
-2.6734431e-06
1.022696e-05
3.1949742e-06
-2.264898e-06
3.9596414e-06
-1.6581952e-06
9.1128797e-06
-2.2859213e-07
7.8710082e-08
9.0857966e-06
-3.4196031e-07
1.0170113e-07
9.0915662e-06
-3.6025214e-07
1.0681335e-07
9.143925e-06
-3.5481241e-07
1.0720485e-07
9.241505e-06
-3.3133781e-07
1.0237514e-07
9.3785504e-06
-2.9993712e-07
9.0246505e-08
9.5582175e-06
-2.7365423e-07
6.8598197e-08
9.7968331e-06
-2.5561013e-07
3.4786048e-08
1.0119696e-05
-2.238527e-07
-1.6650334e-08
1.055561e-05
-1.6164179e-07
-1.0665705e-07
1.1129124e-05
-1.9558868e-08
-2.3875941e-07
1.182656e-05
2.9050569e-07
-4.2833004e-07
1.2560761e-05
8.8280268e-07
-6.8760499e-07
1.3215823e-05
1.7009586e-06
-9.9327757e-07
1.3717593e-05
2.6403379e-06
-1.2908375e-06
1.4001257e-05
3.5688901e-06
-1.5205365e-06
1.4051215e-05
4.3727334e-06
-1.6612124e-06
1.3904608e-05
5.0058821e-06
-1.7472828e-06
1.3635758e-05
5.4563659e-06
-1.8224389e-06
1.3332446e-05
5.726821e-06
-1.9107752e-06
1.3057253e-05
5.8373879e-06
-1.9973959e-06
1.2838333e-05
5.8215538e-06
-2.0595799e-06
1.2682516e-05
5.709278e-06
-2.0842297e-06
1.2584227e-05
5.521508e-06
-2.0627506e-06
1.2526071e-05
5.2734864e-06
-1.983746e-06
1.2467482e-05
4.9867974e-06
-1.827094e-06
1.2326544e-05
4.7036998e-06
-1.5635451e-06
1.1952846e-05
4.5163568e-06
-1.1578491e-06
1.1103724e-05
4.6142031e-06
-5.7185428e-07
5.2251923e-06
2.7677421e-07
9.1697513e-06
-2.1013786e-07
8.075506e-08
9.0013633e-06
-2.7940543e-07
1.0583274e-07
8.8196223e-06
-2.9255557e-07
1.1404416e-07
8.6369755e-06
-2.917839e-07
1.1961817e-07
8.4658837e-06
-2.8388661e-07
1.2364057e-07
8.3115649e-06
-2.7130684e-07
1.2568851e-07
8.1707868e-06
-2.5948525e-07
1.2660889e-07
8.0405159e-06
-2.5408797e-07
1.2875077e-07
7.9383088e-06
-2.570806e-07
1.3544166e-07
7.9065369e-06
-2.7558977e-07
1.4573721e-07
8.0576802e-06
-3.2344016e-07
1.5278608e-07
8.5498137e-06
-3.3565844e-07
1.3458794e-07
9.4316369e-06
-7.0985184e-08
7.3244539e-08
1.0619647e-05
5.2507222e-07
-1.0570265e-08
1.1708898e-05
1.5938508e-06
-4.1337959e-08
1.2518292e-05
2.7116238e-06
4.8947166e-08
1.2956896e-05
3.5863082e-06
3.4839652e-07
1.3079232e-05
4.219962e-06
6.6365929e-07
1.2994803e-05
4.6453208e-06
8.9519103e-07
1.2829395e-05
4.8902559e-06
1.0015571e-06
1.2665557e-05
4.974843e-06
1.0260393e-06
1.2525052e-05
4.9208658e-06
1.0410663e-06
1.2404269e-05
4.7638223e-06
1.0663878e-06
1.2292347e-05
4.5371871e-06
1.096657e-06
1.2179157e-05
4.2665138e-06
1.1207639e-06
1.2042665e-05
3.9694231e-06
1.1545289e-06
1.1849144e-05
3.6792452e-06
1.2185463e-06
1.1560109e-05
3.4718657e-06
1.3338191e-06
1.1092971e-05
3.5266239e-06
1.5544708e-06
4.2126317e-06
1.8337148e-06
8.9799392e-06
7.8875359e-08
8.5977828e-06
1.0275059e-07
8.1953839e-06
1.0984306e-07
7.7898534e-06
1.1374631e-07
7.3900808e-06
1.1588572e-07
7.0025166e-06
1.1625699e-07
6.6269323e-06
1.1609853e-07
6.2551001e-06
1.1774324e-07
5.8731209e-06
1.2489704e-07
5.4549307e-06
1.4259753e-07
4.948836e-06
1.826499e-07
4.3483282e-06
2.6484791e-07
3.8673281e-06
4.0999471e-07
3.7788227e-06
6.1371569e-07
4.42912e-06
9.4326125e-07
5.5574462e-06
1.5824919e-06
6.5528294e-06
2.5897776e-06
7.3308586e-06
3.4404801e-06
7.9452688e-06
4.0292561e-06
8.4659364e-06
4.3679393e-06
8.9244756e-06
4.5148765e-06
9.3257018e-06
4.5185605e-06
9.6493976e-06
4.4394332e-06
9.8808874e-06
4.3053615e-06
1.0008096e-05
4.1392552e-06
1.0042771e-05
3.9348818e-06
1.0017395e-05
3.7048141e-06
1.0043945e-05
3.4454093e-06
1.0443769e-05
3.1265564e-06
2.4651519e-06
9.6153669e-06
-3.0566602e-07
3.0889617e-08
9.9172444e-06
-2.6849337e-07
4.7597745e-08
1.0199039e-05
-2.6139543e-07
4.9205859e-08
1.0433942e-05
-2.2652476e-07
4.3030988e-08
1.061545e-05
-1.8473124e-07
3.1131568e-08
1.0756276e-05
-1.5304717e-07
1.1718433e-08
1.0858291e-05
-1.396784e-07
-1.4455252e-08
1.0932645e-05
-1.4735936e-07
-4.7412271e-08
1.09883e-05
-1.8177903e-07
-9.3441355e-08
1.1033876e-05
-2.5012821e-07
-1.568878e-07
1.1078593e-05
-3.6249047e-07
-2.4312315e-07
1.1134073e-05
-5.2950376e-07
-3.5644511e-07
1.1219395e-05
-7.6268757e-07
-4.9626611e-07
1.1415454e-05
-1.1272703e-06
-6.6010226e-07
1.1720554e-05
-1.5192131e-06
-8.1881258e-07
1.2088467e-05
-1.8580698e-06
-9.5813159e-07
1.2428379e-05
-2.0423958e-06
-1.094861e-06
1.26605e-05
-2.0492053e-06
-1.2470666e-06
1.2757534e-05
-1.9352689e-06
-1.4131696e-06
1.2749286e-05
-1.785498e-06
-1.5759604e-06
1.2686407e-05
-1.6536818e-06
-1.714284e-06
1.2612313e-05
-1.5514529e-06
-1.8197667e-06
1.2555007e-05
-1.4760843e-06
-1.887768e-06
1.2531378e-05
-1.4241619e-06
-1.9153764e-06
1.2553345e-05
-1.3918708e-06
-1.9017628e-06
1.2622314e-05
-1.3644632e-06
-1.8443463e-06
1.271941e-05
-1.3157043e-06
-1.7324828e-06
1.2789977e-05
-1.1888374e-06
-1.5583877e-06
1.2705574e-05
-8.4182972e-07
-1.3430317e-06
1.5208541e-07
-1.1215281e-06
9.2378546e-06
-2.3014695e-07
3.4305467e-08
9.3578411e-06
-3.4604746e-07
5.9269376e-08
9.5041965e-06
-3.6958821e-07
6.8652667e-08
9.6904861e-06
-3.7476202e-07
6.9156352e-08
9.9128523e-06
-3.6819183e-07
6.3476459e-08
1.0159238e-05
-3.5970901e-07
5.05333e-08
1.0421007e-05
-3.6105225e-07
2.8218001e-08
1.0696298e-05
-3.8217101e-07
-5.6750102e-09
1.098975e-05
-4.3377788e-07
-5.8080827e-08
1.1299651e-05
-5.3504215e-07
-1.3161554e-07
1.1638347e-05
-7.0589812e-07
-2.3399957e-07
1.2023769e-05
-9.741366e-07
-3.6901843e-07
1.2482153e-05
-1.3768979e-06
-5.3157025e-07
1.2998185e-05
-1.9407996e-06
-6.9544559e-07
1.3558622e-05
-2.5397574e-06
-8.304153e-07
1.4067695e-05
-2.9315532e-06
-9.5606503e-07
1.4418574e-05
-2.9267042e-06
-1.1281236e-06
1.4558374e-05
-2.5846678e-06
-1.3523168e-06
1.4503368e-05
-2.1062935e-06
-1.597299e-06
1.4332161e-05
-1.6956276e-06
-1.8303797e-06
1.4120665e-05
-1.4129928e-06
-2.027583e-06
1.3892062e-05
-1.2105964e-06
-2.1729216e-06
1.3654098e-05
-1.0743723e-06
-2.2492155e-06
1.3421972e-05
-1.011411e-06
-2.2448284e-06
1.3234265e-05
-1.0344601e-06
-2.1550536e-06
1.3148248e-05
-1.1325794e-06
-1.9744945e-06
1.3255509e-05
-1.2973434e-06
-1.6902684e-06
1.3786842e-05
-1.5442008e-06
-1.3341057e-06
1.5476133e-05
-1.9419203e-06
-1.1602563e-06
-2.2760137e-06
-1.3518499e-06
9.2971477e-06
-2.1254213e-07
3.496317e-08
9.2789893e-06
-2.8314595e-07
6.1089214e-08
9.249073e-06
-2.9816732e-07
7.2539244e-08
9.2196813e-06
-3.0163001e-07
7.5877644e-08
9.2015622e-06
-3.0049303e-07
7.4060833e-08
9.1980674e-06
-2.9711535e-07
6.6589595e-08
9.2087447e-06
-2.9743923e-07
5.2318336e-08
9.2331417e-06
-3.0849143e-07
3.0673286e-08
9.2697027e-06
-3.3860734e-07
3.7080125e-09
9.3309103e-06
-4.0229177e-07
-4.822345e-08
9.4252213e-06
-5.275488e-07
-1.1987453e-07
9.5671031e-06
-7.5790415e-07
-2.235056e-07
9.7775007e-06
-1.1547959e-06
-3.5918966e-07
1.007338e-05
-1.7569472e-06
-4.9031624e-07
1.0414965e-05
-2.375884e-06
-5.472571e-07
1.0710397e-05
-2.6718157e-06
-5.0731932e-07
1.0973466e-05
-2.4285458e-06
-4.1452916e-07
1.1116558e-05
-1.7798116e-06
-2.8617533e-07
1.1128923e-05
-1.0164044e-06
-2.0851667e-07
1.1034681e-05
-3.3135122e-07
-2.6883988e-07
1.0916347e-05
6.8554739e-08
-3.371023e-07
1.0817247e-05
2.3920341e-07
-3.0890396e-07
1.0727826e-05
2.6862875e-07
-1.8572956e-07
1.0659061e-05
2.0978363e-07
-5.3858486e-08
1.056691e-05
4.9465039e-08
1.3067725e-07
1.0428195e-05
-1.806545e-07
3.4238717e-07
1.0311045e-05
-5.4137923e-07
5.8019807e-07
1.0329203e-05
-9.3378459e-07
7.0536006e-07
1.0997848e-05
-1.3599068e-06
3.0389493e-07
-1.7134556e-06
-8.7378401e-07
9.1013215e-06
3.3964015e-08
8.8620047e-06
5.8921141e-08
8.6041919e-06
6.948825e-08
8.3442587e-06
7.2049252e-08
8.0902217e-06
6.9429433e-08
7.848194e-06
6.1168989e-08
7.6205767e-06
4.6276082e-08
7.4055248e-06
2.4302829e-08
7.1959908e-06
-4.177812e-09
6.9944925e-06
-5.8198694e-08
6.7800315e-06
-1.3044218e-07
6.5263159e-06
-2.3934782e-07
6.2029439e-06
-4.2146372e-07
5.7839577e-06
-7.2463538e-07
5.3602002e-06
-1.0106344e-06
5.101045e-06
-8.3295409e-07
5.0544102e-06
2.0457796e-07
5.0563956e-06
1.654979e-06
5.1311229e-06
2.9342803e-06
5.4416233e-06
3.7226943e-06
5.8845359e-06
4.1384693e-06
6.3365368e-06
4.3042993e-06
6.7212999e-06
4.3222479e-06
7.0138589e-06
4.2217146e-06
7.2047895e-06
3.9971309e-06
7.3387485e-06
3.6199074e-06
7.3908931e-06
3.1111131e-06
7.4450205e-06
2.4573225e-06
8.1899446e-06
1.0214834e-06
-1.4319945e-06
9.5925669e-06
-3.0763263e-07
1.4919571e-08
9.8850022e-06
-2.6917448e-07
2.4344779e-08
1.0165562e-05
-2.5857855e-07
2.7247169e-08
1.0402312e-05
-2.1931547e-07
2.562673e-08
1.0585514e-05
-1.7307039e-07
2.104242e-08
1.0720129e-05
-1.3687333e-07
1.4032964e-08
1.0815657e-05
-1.1442802e-07
4.5170766e-09
1.0881373e-05
-1.0581263e-07
-7.2263479e-09
1.0922871e-05
-1.134781e-07
-2.1352979e-08
1.094698e-05
-1.4273998e-07
-3.8114963e-08
1.0963314e-05
-2.0329573e-07
-5.5946345e-08
1.0988987e-05
-3.1126167e-07
-7.0480319e-08
1.1055309e-05
-4.9109694e-07
-7.0802012e-08
1.1252109e-05
-8.1327166e-07
-4.2596023e-08
1.1536803e-05
-1.1316075e-06
2.9182495e-08
1.1798485e-05
-1.3799223e-06
1.6084302e-07
1.1986767e-05
-1.5621079e-06
2.7911139e-07
1.2095609e-05
-1.7280158e-06
3.7160924e-07
1.2131644e-05
-1.8903588e-06
4.4011432e-07
1.2107279e-05
-2.0503309e-06
4.9736519e-07
1.204857e-05
-2.2144151e-06
5.5735039e-07
1.1975941e-05
-2.3773574e-06
6.287032e-07
1.1895919e-05
-2.5209371e-06
7.1155343e-07
1.1807051e-05
-2.6275014e-06
7.9897634e-07
1.1712485e-05
-2.6930247e-06
8.8315023e-07
1.1638971e-05
-2.7345546e-06
9.6022737e-07
1.1655827e-05
-2.7703942e-06
1.0168651e-06
1.1880371e-05
-2.7712882e-06
9.836961e-07
1.2247934e-05
-2.3874635e-06
6.7184297e-07
-1.1321961e-06
-2.9217395e-08
9.2096191e-06
-2.3003927e-07
1.6062105e-08
9.316546e-06
-3.4529373e-07
2.8462783e-08
9.4597504e-06
-3.6681102e-07
3.368309e-08
9.6454531e-06
-3.6849209e-07
3.2633961e-08
9.8664103e-06
-3.5694744e-07
2.6402261e-08
1.0107279e-05
-3.4175073e-07
1.455099e-08
1.035829e-05
-3.3287209e-07
-4.33633e-09
1.0615325e-05
-3.3770411e-07
-3.080148e-08
1.08775e-05
-3.6499621e-07
-6.8710296e-08
1.1149521e-05
-4.2658025e-07
-1.1974585e-07
1.1444981e-05
-5.4811824e-07
-1.8453011e-07
1.179457e-05
-7.7241905e-07
-2.5722154e-07
1.2250577e-05
-1.1618267e-06
-3.1640572e-07
1.2771928e-05
-1.7103805e-06
-3.191262e-07
1.3233552e-05
-2.1493556e-06
-2.7403066e-07
1.3474491e-05
-2.3034169e-06
-2.7372729e-07
1.3483521e-05
-2.3253411e-06
-3.745691e-07
1.3338096e-05
-2.3676113e-06
-5.6830714e-07
1.3070442e-05
-2.3988743e-06
-8.224075e-07
1.2710601e-05
-2.43282e-06
-1.0895165e-06
1.2290067e-05
-2.5074752e-06
-1.3156546e-06
1.182259e-05
-2.6170286e-06
-1.4677663e-06
1.1309324e-05
-2.7222071e-06
-1.5371784e-06
1.0750137e-05
-2.7896798e-06
-1.5265597e-06
1.0156558e-05
-2.8301048e-06
-1.4279356e-06
9.5938946e-06
-2.9203463e-06
-1.2294781e-06
9.3011748e-06
-3.1602536e-06
-1.0102767e-06
9.7471228e-06
-3.5919005e-06
-9.6061653e-07
1.1332633e-05
-3.7212469e-06
-1.4124998e-06
-2.9842857e-06
-2.3066432e-06
9.2698956e-06
-2.1225904e-07
1.6247907e-08
9.2393318e-06
-2.8257795e-07
2.8936907e-08
9.2068259e-06
-2.9658483e-07
3.4818635e-08
9.1782886e-06
-2.9855849e-07
3.448116e-08
9.1621671e-06
-2.9543288e-07
2.8667558e-08
9.1597263e-06
-2.8928572e-07
1.6565331e-08
9.1682107e-06
-2.8530485e-07
-3.7335499e-09
9.184517e-06
-2.8951097e-07
-3.38266e-08
9.2108644e-06
-3.0886883e-07
-7.8767443e-08
9.2382485e-06
-3.5771166e-07
-1.4447539e-07
9.2694078e-06
-4.6423562e-07
-2.3490958e-07
9.3122335e-06
-6.8706841e-07
-3.5165698e-07
9.4116721e-06
-1.1424883e-06
-4.7794145e-07
9.5779832e-06
-1.8316335e-06
-5.3589069e-07
9.5422149e-06
-2.1947321e-06
-4.680368e-07
9.1317341e-06
-1.9665958e-06
-4.3621974e-07
8.5461245e-06
-1.5966779e-06
-5.6001393e-07
8.1127142e-06
-1.482158e-06
-7.4049687e-07
7.6727374e-06
-1.180361e-06
-9.8909841e-07
7.1435388e-06
-9.1178472e-07
-1.2624798e-06
6.5337099e-06
-7.7996568e-07
-1.4567177e-06
5.891637e-06
-7.8498098e-07
-1.5014578e-06
5.2659874e-06
-8.8153925e-07
-1.4043043e-06
4.6818953e-06
-1.0466486e-06
-1.2172445e-06
4.193713e-06
-1.2774124e-06
-9.3847485e-07
3.8688346e-06
-1.6327939e-06
-6.2385137e-07
3.9321583e-06
-2.1441152e-06
-5.0058105e-07
4.553686e-06
-2.8871043e-06
-6.1998414e-07
5.823777e-06
-3.1794553e-06
-1.5040266e-06
-2.188189e-06
-3.133477e-06
9.0748084e-06
1.5848906e-08
8.823114e-06
2.8037345e-08
8.5625488e-06
3.3468299e-08
8.3033268e-06
3.27125e-08
8.0508946e-06
2.6428482e-08
7.8091749e-06
1.3602605e-08
7.5777316e-06
-7.5859487e-09
7.3524694e-06
-3.994664e-08
7.1297754e-06
-9.0353904e-08
6.8836019e-06
-1.6973892e-07
6.5824873e-06
-2.9356708e-07
6.1518189e-06
-4.9576298e-07
5.4359073e-06
-8.4825305e-07
4.2902565e-06
-1.4134381e-06
2.9476075e-06
-1.8709103e-06
1.8986897e-06
-1.7577739e-06
1.7894843e-06
-1.2883719e-06
1.8986917e-06
5.8227254e-08
2.1254004e-06
1.5213208e-06
2.4776142e-06
2.4536883e-06
2.8994172e-06
2.93351e-06
3.2846858e-06
3.1321977e-06
3.552495e-06
3.1718946e-06
3.6241266e-06
3.1029271e-06
3.4621978e-06
2.8815238e-06
3.145885e-06
2.3037328e-06
2.7246678e-06
1.3888763e-06
2.2534695e-06
4.2168708e-08
1.7358946e-06
-1.6328775e-06
-4.1303622e-06
9.5869029e-06
-3.0791706e-07
4.8976401e-09
9.8716763e-06
-2.6876903e-07
8.3476422e-09
1.0145974e-05
-2.5642992e-07
9.4000556e-09
1.0377451e-05
-2.1420778e-07
8.3861466e-09
1.0555781e-05
-1.6304055e-07
5.7915893e-09
1.0686952e-05
-1.190048e-07
1.9148971e-09
1.0780197e-05
-8.5030828e-08
-3.6376003e-09
1.0843987e-05
-6.0113953e-08
-1.0827036e-08
1.0886549e-05
-4.4094153e-08
-1.9712065e-08
1.0918814e-05
-3.9896953e-08
-3.030547e-08
1.0960679e-05
-5.6091747e-08
-4.1399061e-08
1.1051767e-05
-1.1228901e-07
-4.8676894e-08
1.1255803e-05
-2.3339331e-07
-4.0425032e-08
1.1619087e-05
-4.0394464e-07
-8.9986087e-10
1.1982943e-05
-3.9882826e-07
6.4553325e-08
1.2250885e-05
-2.4796662e-07
1.403899e-07
1.2410715e-05
-1.0299203e-07
2.2101514e-07
1.2512433e-05
-4.7425427e-08
3.1545215e-07
1.2585469e-05
-6.7011981e-08
4.3165131e-07
1.2646151e-05
-1.4250718e-07
5.7619931e-07
1.2706563e-05
-2.5659492e-07
7.5009656e-07
1.276382e-05
-3.8887803e-07
9.565427e-07
1.2809114e-05
-5.2926062e-07
1.1913602e-06
1.2841519e-05
-6.7694697e-07
1.4387061e-06
1.286916e-05
-8.1957721e-07
1.6691084e-06
1.2877945e-05
-8.9611708e-07
1.8398136e-06
1.2760526e-05
-7.7059638e-07
1.8949905e-06
1.2319722e-05
-3.5417915e-07
1.7674765e-06
1.1005306e-05
6.3465729e-07
1.3463668e-06
2.7884406e-06
6.3989565e-07
9.2019753e-06
-2.2989041e-07
5.0291696e-09
9.2971912e-06
-3.4478916e-07
9.2681264e-09
9.4290733e-06
-3.6527482e-07
1.0647987e-08
9.6034413e-06
-3.6485049e-07
8.9120057e-09
9.8118947e-06
-3.4942885e-07
4.3423995e-09
1.0038597e-05
-3.2767366e-07
-3.4742274e-09
1.0273137e-05
-3.0828361e-07
-1.561208e-08
1.0511656e-05
-2.971455e-07
-3.2270064e-08
1.0755198e-05
-3.0132022e-07
-5.4990571e-08
1.1015112e-05
-3.3498373e-07
-8.4499455e-08
1.1322745e-05
-4.2931684e-07
-1.1877509e-07
1.1747278e-05
-6.4481297e-07
-1.4887873e-07
1.2400846e-05
-1.0493895e-06
-1.533722e-07
1.3172798e-05
-1.3918349e-06
-1.0286292e-07
1.3796621e-05
-1.2529999e-06
-4.3909226e-08
1.4201565e-05
-8.9922238e-07
-2.7976126e-08
1.4437526e-05
-6.6209485e-07
-5.2236241e-08
1.4542907e-05
-6.2073554e-07
-1.0144747e-07
1.4532648e-05
-7.0712035e-07
-1.7342784e-07
1.4433022e-05
-8.7209673e-07
-2.6206134e-07
1.425089e-05
-1.0516005e-06
-3.4069702e-07
1.3979161e-05
-1.2114677e-06
-3.7614809e-07
1.3609857e-05
-1.3505315e-06
-3.5006195e-07
1.3163696e-05
-1.4911396e-06
-2.7075291e-07
1.272989e-05
-1.6493464e-06
-1.7021536e-07
1.2469864e-05
-1.7720296e-06
-1.0061447e-07
1.244293e-05
-1.5715015e-06
-1.8954767e-07
1.2436452e-05
-8.3086001e-07
-4.8325875e-07
1.214503e-05
5.0714759e-07
-1.0131246e-06
2.2872529e-06
-1.7674117e-06
9.2625884e-06
-2.1226505e-07
4.994777e-09
9.2201525e-06
-2.8262977e-07
9.2130078e-09
9.1753917e-06
-2.9631817e-07
1.0622441e-08
9.1336776e-06
-2.9745023e-07
8.7948161e-09
9.1019053e-06
-2.9280334e-07
3.8141406e-09
9.0804017e-06
-2.8420601e-07
-5.3986798e-09
9.0650004e-06
-2.764712e-07
-2.0144701e-08
9.0510986e-06
-2.7539433e-07
-4.1675898e-08
9.033222e-06
-2.8915217e-07
-7.3058229e-08
9.0070295e-06
-3.3516252e-07
-1.1810007e-07
8.977488e-06
-4.5447561e-07
-1.8019363e-07
8.984891e-06
-7.4914905e-07
-2.5468164e-07
9.2017379e-06
-1.4320134e-06
-3.1223609e-07
9.5936449e-06
-2.0403973e-06
-2.8122697e-07
9.6206175e-06
-1.5531404e-06
-1.9735513e-07
9.2271542e-06
-7.2889831e-07
-2.1435861e-07
8.7075876e-06
-4.1606224e-07
-2.8681702e-07
8.080438e-06
-2.9909353e-07
-4.3513458e-07
7.4314653e-06
-4.2000247e-07
-6.2769131e-07
6.745572e-06
-5.8919933e-07
-8.6054678e-07
6.0430067e-06
-7.6130786e-07
-1.046286e-06
5.3503847e-06
-9.4063344e-07
-1.08245e-06
4.682129e-06
-1.1071219e-06
-9.8340914e-07
4.0772267e-06
-1.2697843e-06
-8.3890572e-07
3.6565928e-06
-1.5153987e-06
-6.5810674e-07
3.7225953e-06
-1.9053137e-06
-5.6306376e-07
4.4795953e-06
-1.9632935e-06
-8.70406e-07
5.5444401e-06
-1.0522556e-06
-1.4646638e-06
6.3512724e-06
3.8412241e-07
-2.1876935e-06
1.763702e-06
-2.9129671e-06
9.0677178e-06
4.8184248e-09
8.8043442e-06
8.7808607e-09
8.5315815e-06
9.9125222e-09
8.2590676e-06
7.7759208e-09
7.9901927e-06
2.499738e-09
7.7273708e-06
-7.7818653e-09
7.4673215e-06
-2.4008274e-08
7.2006836e-06
-4.8703683e-08
6.9081792e-06
-8.7002602e-08
6.5513733e-06
-1.4809736e-07
6.0527104e-06
-2.4938435e-07
5.2370836e-06
-4.2932878e-07
3.745113e-06
-7.8910166e-07
1.6633658e-06
-1.3826032e-06
-3.6101996e-07
-1.4157423e-06
-1.7665504e-06
-1.0834578e-06
-2.7025946e-06
-7.6933786e-07
-2.6931079e-06
-2.5149914e-07
-2.0880153e-06
4.9209676e-07
-1.3673412e-06
1.1397595e-06
-7.4024186e-07
1.542339e-06
-3.0903259e-07
1.7588256e-06
-1.2270147e-07
1.8778335e-06
-2.3445058e-07
1.9450283e-06
-7.3191478e-07
1.864391e-06
-1.3873407e-06
1.0549456e-06
-1.8883627e-06
-6.9417022e-08
-1.3428898e-06
-1.5434348e-06
1.2389047e-07
-2.7055939e-06
-3.5458324e-06
9.5837456e-06
-3.0839523e-07
-1.4889346e-09
9.8642969e-06
-2.6948408e-07
-2.7122429e-09
1.0134718e-05
-2.5718472e-07
-3.815505e-09
1.0362824e-05
-2.148051e-07
-4.8876817e-09
1.0537907e-05
-1.6328317e-07
-5.97432e-09
1.0665694e-05
-1.1869905e-07
-7.1315962e-09
1.0754821e-05
-8.4251756e-08
-8.4629292e-09
1.0813486e-05
-5.9388558e-08
-1.0039583e-08
1.0850693e-05
-4.4843373e-08
-1.1984242e-08
1.0880564e-05
-4.5539164e-08
-1.4477118e-08
1.0932474e-05
-7.5013897e-08
-1.797169e-08
1.1068384e-05
-1.6034994e-07
-2.3582112e-08
1.1373173e-05
-3.1087776e-07
-3.3347118e-08
1.1814438e-05
-3.919454e-07
-4.9807299e-08
1.2197319e-05
-2.5013265e-07
-6.8797737e-08
1.2476815e-05
-5.2375837e-08
-8.8150878e-08
1.2688075e-05
1.212712e-07
-1.1272856e-07
1.2865054e-05
2.8554951e-07
-1.4814074e-07
1.3041231e-05
4.5381995e-07
-1.993284e-07
1.3237274e-05
6.4825951e-07
-2.6906736e-07
1.3448173e-05
8.9102039e-07
-3.5282503e-07
1.3644088e-05
1.196715e-06
-4.3717126e-07
1.3785107e-05
1.5547465e-06
-5.0561007e-07
1.3835299e-05
1.934604e-06
-5.4747528e-07
1.3756084e-05
2.3072938e-06
-5.6061925e-07
1.3462676e-05
2.676119e-06
-5.4489027e-07
1.278878e-05
3.062958e-06
-4.9639592e-07
1.146751e-05
3.4926036e-06
-4.0627686e-07
9.0427588e-06
4.0343791e-06
-2.6496043e-07
5.0761729e-06
-1.0542464e-07
9.1974604e-06
-2.300585e-07
-1.7989294e-09
9.2861007e-06
-3.451541e-07
-3.701027e-09
9.4109743e-06
-3.6569592e-07
-5.7125407e-09
9.578113e-06
-3.6517271e-07
-7.8564671e-09
9.7787649e-06
-3.4944909e-07
-1.014001e-08
9.996347e-06
-3.2710865e-07
-1.264173e-08
1.0219177e-05
-3.0720871e-07
-1.5476873e-08
1.0442646e-05
-2.9640576e-07
-1.8707067e-08
1.066911e-05
-3.0369771e-07
-2.2569288e-08
1.0915617e-05
-3.4855984e-07
-2.7911293e-08
1.1232554e-05
-4.7454799e-07
-3.5993035e-08
1.1735638e-05
-7.626606e-07
-4.9241614e-08
1.2575795e-05
-1.2320869e-06
-7.1763027e-08
1.3362482e-05
-1.1818795e-06
-9.9736521e-08
1.394033e-05
-7.5579447e-07
-1.165752e-07
1.4383994e-05
-4.0069048e-07
-1.2400581e-07
1.4737038e-05
-1.5228052e-07
-1.3448232e-07
1.5007905e-05
6.04524e-08
-1.5165524e-07
1.5240422e-05
2.2472371e-07
-1.8318236e-07
1.548169e-05
3.7104432e-07
-2.3414755e-07
1.5732776e-05
5.7761985e-07
-2.8733602e-07
1.5942285e-05
9.1675213e-07
-3.1444996e-07
1.6066717e-05
1.3771178e-06
-3.0439676e-07
1.6075829e-05
1.9312607e-06
-2.8219922e-07
1.5941116e-05
2.5199426e-06
-2.5175245e-07
1.5526967e-05
3.1993064e-06
-2.1139328e-07
1.4602234e-05
3.9386169e-06
-1.4078969e-07
1.2910774e-05
4.7271688e-06
-2.5705899e-08
1.0096967e-05
5.6615616e-06
1.7449809e-07
6.9786858e-06
4.1150599e-07
9.2580511e-06
-2.1233022e-07
-1.8240058e-09
9.2086887e-06
-2.8281735e-07
-3.7616505e-09
9.1560372e-06
-2.9654792e-07
-5.8744683e-09
9.1054991e-06
-2.9763677e-07
-8.2032359e-09
9.0635244e-06
-2.9289469e-07
-1.0765804e-08
9.0287706e-06
-2.8408012e-07
-1.3673659e-08
8.9948389e-06
-2.7641202e-07
-1.7009829e-08
8.9540935e-06
-2.7646723e-07
-2.0868802e-08
8.8976008e-06
-2.947486e-07
-2.5513151e-08
8.8180602e-06
-3.5494754e-07
-3.2165148e-08
8.7237903e-06
-5.1777881e-07
-4.2669755e-08
8.7160991e-06
-9.483085e-07
-6.1297076e-08
9.2412501e-06
-1.9704795e-06
-9.9438426e-08
9.5621752e-06
-1.640181e-06
-1.4636324e-07
9.4001042e-06
-6.4112003e-07
-1.5061929e-07
9.2082853e-06
-2.8032671e-07
-1.4220686e-07
8.9203049e-06
-6.4766341e-09
-1.4374573e-07
8.5886501e-06
1.2070866e-07
-1.6424084e-07
8.3239883e-06
6.2724438e-08
-2.0323268e-07
8.1433705e-06
-7.5525823e-08
-2.3637065e-07
8.1686818e-06
-2.7262197e-07
-2.2460654e-07
8.5501701e-06
-3.8638186e-07
-1.6416458e-07
9.2977425e-06
-3.0160913e-07
-5.5933469e-08
1.0195681e-05
7.5146043e-08
1.146596e-07
1.1138004e-05
5.512538e-07
3.6396847e-07
1.169774e-05
1.4930226e-06
5.8037757e-07
1.158e-05
2.4435158e-06
7.4088061e-07
1.0590023e-05
3.3527799e-06
8.9970163e-07
8.5059373e-06
4.4845835e-06
1.0747489e-06
5.9684437e-06
1.1986577e-06
9.0632243e-06
-1.7837398e-09
8.7928499e-06
-3.6624162e-09
8.5119269e-06
-5.7127118e-09
8.2300451e-06
-7.9792895e-09
7.9501331e-06
-1.0483258e-08
7.6716597e-06
-1.3388952e-08
7.3879497e-06
-1.6710629e-08
7.0832398e-06
-2.0461555e-08
6.7264893e-06
-2.500147e-08
6.2547198e-06
-3.1277066e-08
5.5282216e-06
-4.0673092e-08
4.2066022e-06
-5.6147696e-08
1.5311498e-06
-8.6619839e-08
-1.3718829e-06
-1.4851529e-07
-3.3236198e-06
-1.0922627e-07
-4.7095658e-06
2.0824279e-08
-5.608159e-06
1.2136356e-07
-5.9599571e-06
2.1869463e-07
-5.7354405e-06
3.2676032e-07
-5.1065929e-06
4.2980215e-07
-4.3522237e-06
5.0962074e-07
-3.5950267e-06
6.0971561e-07
-2.7518784e-06
7.2794828e-07
-1.5700296e-06
8.3439073e-07
-7.1121438e-08
9.1366023e-07
1.4141915e-06
1.0604697e-06
2.2063193e-06
1.5814906e-06
2.1131764e-06
1.9058905e-06
1.8692851e-06
2.0313319e-06
1.960846e-06
9.583644e-06
-3.0841128e-07
-7.7580185e-09
9.8640249e-06
-2.6950187e-07
-1.3583842e-08
1.0134202e-05
-2.5719469e-07
-1.6776823e-08
1.0361962e-05
-2.1479334e-07
-1.7829698e-08
1.0536557e-05
-1.6324231e-07
-1.7297348e-08
1.0663581e-05
-1.1867371e-07
-1.5452647e-08
1.0751746e-05
-8.4269263e-08
-1.2334259e-08
1.0809114e-05
-5.9383813e-08
-8.0170435e-09
1.0844619e-05
-4.4522482e-08
-2.9978719e-09
1.0871826e-05
-4.4454059e-08
2.6599523e-09
1.0917834e-05
-7.2191634e-08
7.9265824e-09
1.1041161e-05
-1.5420763e-07
6.6708e-09
1.1327151e-05
-3.0823255e-07
-1.2126584e-08
1.175998e-05
-4.148572e-07
-6.8221606e-08
1.2138488e-05
-2.9015873e-07
-1.5639845e-07
1.2392873e-05
-8.9413978e-08
-2.5126789e-07
1.2553084e-05
7.5024134e-08
-3.4631201e-07
1.2654699e-05
2.0194572e-07
-4.5022173e-07
1.2736569e-05
2.8966902e-07
-5.6952704e-07
1.2842691e-05
3.3175569e-07
-7.0569477e-07
1.3001916e-05
3.4978309e-07
-8.6060036e-07
1.3206097e-05
3.9801168e-07
-1.0380399e-06
1.3408731e-05
5.3305966e-07
-1.2397181e-06
1.3551786e-05
7.6857674e-07
-1.4569951e-06
1.3586104e-05
1.0713999e-06
-1.6633464e-06
1.3427356e-05
1.4294015e-06
-1.8113229e-06
1.2920459e-05
1.8503144e-06
-1.8341051e-06
1.1814197e-05
2.385456e-06
-1.6782704e-06
9.6836362e-06
3.1611927e-06
-1.2872104e-06
4.6341944e-06
-5.7268533e-07
9.1973139e-06
-2.3008516e-07
-8.4698898e-09
9.2856656e-06
-3.4519895e-07
-1.6354629e-08
9.4101027e-06
-3.6575958e-07
-2.1583061e-08
9.5766065e-06
-3.6524464e-07
-2.3907029e-08
9.7762312e-06
-3.495172e-07
-2.3487634e-08
9.9923056e-06
-3.2721824e-07
-2.0169605e-08
1.021336e-05
-3.0736159e-07
-1.3438023e-08
1.0434639e-05
-2.964934e-07
-2.8824134e-09
1.0657352e-05
-3.0323814e-07
1.3413803e-08
1.0896985e-05
-3.467129e-07
3.4653407e-08
1.1199706e-05
-4.6948899e-07
5.8410495e-08
1.167459e-05
-7.5325793e-07
7.4506662e-08
1.2478891e-05
-1.2439556e-06
5.9003013e-08
1.3256051e-05
-1.2770379e-06
-1.4546685e-08
1.3812175e-05
-8.4082161e-07
-1.2134503e-07
1.4208009e-05
-4.6290459e-07
-1.4532137e-07
1.4502225e-05
-2.2483765e-07
-1.2489406e-07
1.4710301e-05
-7.5301638e-08
-7.5289636e-08
1.4834909e-05
-9.7934564e-09
2.2026436e-09
1.4927182e-05
-1.021037e-07
1.215267e-07
1.5046359e-05
-2.9668417e-07
2.5669342e-07
1.521741e-05
-4.2803051e-07
3.5870412e-07
1.5447864e-05
-3.6577785e-07
3.8224379e-07
1.5687762e-05
-5.4719911e-08
3.1817519e-07
1.5799299e-05
5.2048065e-07
2.0192697e-07
1.5640173e-05
1.276381e-06
1.1194095e-07
1.5027319e-05
2.1221987e-06
2.0824861e-07
1.3721279e-05
3.0775427e-06
5.9357723e-07
1.1537127e-05
4.3111286e-06
1.212962e-06
5.9617959e-06
1.9014312e-06
9.2578905e-06
-2.1234813e-07
-8.4909135e-09
9.2082054e-06
-2.8284807e-07
-1.6427807e-08
9.1550452e-06
-2.9659494e-07
-2.1879195e-08
9.1037381e-06
-2.9769587e-07
-2.4445191e-08
9.0604373e-06
-2.9295793e-07
-2.4024557e-08
9.0238801e-06
-2.8420812e-07
-2.0126783e-08
8.9878718e-06
-2.7654831e-07
-1.1814892e-08
8.9448792e-06
-2.7635165e-07
1.9821164e-09
8.8841897e-06
-2.940725e-07
2.6009997e-08
8.7968668e-06
-3.525669e-07
6.1007106e-08
8.6846366e-06
-5.1041293e-07
1.1046557e-07
8.6277916e-06
-9.2752477e-07
1.6976684e-07
9.0253893e-06
-1.9437389e-06
2.0306767e-07
9.3286012e-06
-1.8595621e-06
1.3664216e-07
9.0450311e-06
-7.3208253e-07
2.5895075e-08
8.7560276e-06
-3.1566639e-07
-7.4276765e-10
8.2843464e-06
-2.7440214e-09
1.0438346e-07
7.5925339e-06
1.4273433e-07
3.0892585e-07
6.7629567e-06
4.4211399e-08
5.725939e-07
5.721097e-06
-1.6006137e-07
8.6336434e-07
4.5280532e-06
-4.4655119e-07
1.1179072e-06
3.4457059e-06
-7.6948514e-07
1.259434e-06
2.8854116e-06
-1.0892944e-06
1.2285563e-06
3.3356723e-06
-1.3380152e-06
9.4942491e-07
4.9589015e-06
-1.3032195e-06
5.6793403e-07
7.0407028e-06
-6.654272e-07
4.4465842e-07
8.4965572e-06
4.5165893e-07
9.599494e-07
8.9601505e-06
1.623735e-06
1.8933588e-06
8.5438034e-06
3.037232e-06
2.7676279e-06
4.6281326e-06
3.4464446e-06
9.0630609e-06
-8.2404623e-09
8.7923656e-06
-1.5815417e-08
8.5109305e-06
-2.0872844e-08
8.2282482e-06
-2.2993196e-08
7.9468096e-06
-2.2002889e-08
7.6665144e-06
-1.730207e-08
7.3810827e-06
-7.8275271e-09
7.0746573e-06
9.6121429e-09
6.7156233e-06
3.9960262e-08
6.2409566e-06
9.0823616e-08
5.5097647e-06
1.8011108e-07
4.1786573e-06
3.4752042e-07
1.4551682e-06
6.9507562e-07
-1.7543788e-06
1.2299113e-06
-3.9117172e-06
1.3232534e-06
-5.3730141e-06
1.1696883e-06
-6.3099061e-06
1.0568215e-06
-6.7106912e-06
7.6207202e-07
-6.4674177e-06
1.2874808e-07
-5.7529683e-06
-4.4282841e-07
-4.894394e-06
-7.9367698e-07
-4.0840335e-06
-9.6876906e-07
-3.3801301e-06
-1.0643095e-06
-2.8017276e-06
-1.0813303e-06
-2.2029283e-06
-9.8761618e-07
-1.4700386e-06
-3.3659966e-07
-4.6398798e-07
1.0320556e-06
5.4382678e-07
2.5260351e-06
1.7287453e-06
3.8928148e-06
4.6834693e-06
9.5865079e-06
-3.0802852e-07
-1.7274044e-08
9.870616e-06
-2.6894955e-07
-2.8734881e-08
1.0143987e-05
-2.5668623e-07
-3.3441037e-08
1.0374246e-05
-2.1453871e-07
-3.3527349e-08
1.0551045e-05
-1.6343539e-07
-3.0637508e-08
1.0680387e-05
-1.1939934e-07
-2.5377057e-08
1.0771398e-05
-8.5400406e-08
-1.7936839e-08
1.0832151e-05
-6.0493503e-08
-8.2883535e-09
1.0869556e-05
-4.4922871e-08
4.4752782e-09
1.0895026e-05
-4.0959293e-08
1.8039105e-08
1.0926629e-05
-5.6764496e-08
3.2837893e-08
1.0999711e-05
-1.1134656e-07
4.4391675e-08
1.1176201e-05
-2.3279108e-07
4.3130557e-08
1.1524181e-05
-4.353834e-07
1.7801725e-08
1.1900758e-05
-4.6108052e-07
-7.2878344e-08
1.2173087e-05
-3.2203686e-07
-2.0185386e-07
1.2320861e-05
-1.7353916e-07
-3.2028368e-07
1.2392452e-05
-1.1760186e-07
-4.0360167e-07
1.2435184e-05
-1.6385877e-07
-4.4758208e-07
1.2485927e-05
-2.9502521e-07
-4.6040526e-07
1.2563476e-05
-4.8090554e-07
-4.5601041e-07
1.2656519e-05
-6.7948746e-07
-4.4999214e-07
1.2732864e-05
-8.5836978e-07
-4.5541057e-07
1.2770424e-05
-1.0141802e-06
-4.7691568e-07
1.2781954e-05