/*--------------------------------*- C++ -*----------------------------------*\
| =========                 |                                                 |
| \\      /  F ield         | OpenFOAM: The Open Source CFD Toolbox           |
|  \\    /   O peration     | Version:  v2012                                 |
|   \\  /    A nd           | Website:  www.openfoam.com                      |
|    \\/     M anipulation  |                                                 |
\*---------------------------------------------------------------------------*/
FoamFile
{
    version     2.0;
    format      ascii;
    class       volScalarField;
    location    "550/topAir";
    object      rho;
}
// * * * * * * * * * * * * * * * * * * * * * * * * * * * * * * * * * * * * * //

dimensions      [1 -3 0 0 0 0 0];


internalField   nonuniform List<scalar> 
1200
(
1.069473
0.99843794
0.94182939
0.89496214
0.85484082
0.8197084
0.78859586
0.76117057
0.73738643
0.71680212
0.69918784
0.68451478
0.67315664
0.67333873
0.67680316
0.68354218
0.69273763
0.70307145
0.71324033
0.72230134
0.72974408
0.73539499
0.73928251
0.74151823
0.74221142
0.74140047
0.73899853
0.73470276
0.72775452
0.71696869
1.1565453
1.1526507
1.1473643
1.1409536
1.1336164
1.1255113
1.1167798
1.1067259
1.0932143
1.0756283
1.0517298
1.0210486
0.98428444
0.94742065
0.91382542
0.88578132
0.86382497
0.84766171
0.83675772
0.83041179
0.82752841
0.82678801
0.826964
0.82705246
0.82624056
0.82377952
0.81883629
0.8102489
0.79595603
0.77447008
1.1585739
1.1584433
1.1582011
1.1578239
1.1572919
1.1565884
1.1557007
1.1545987
1.1531998
1.1514094
1.1489581
1.1413186
1.1220137
1.0897129
1.0490814
1.0057493
0.96511862
0.92989721
0.90122129
0.87924925
0.86339472
0.85253714
0.84535175
0.84056796
0.83708314
0.83395072
0.83030555
0.82517112
0.81692634
0.80336225
1.158618
1.1586137
1.1586032
1.1585828
1.1585475
1.1584913
1.1584072
1.1582864
1.1581159
1.1578763
1.1575223
1.1567706
1.1544958
1.1425459
1.1104278
1.0668902
1.0237479
0.9842574
0.949862
0.92132949
0.89876982
0.88163602
0.86895544
0.85964534
0.85270737
0.84728903
0.84264015
0.83799001
0.83222124
0.82365384
1.069487
0.99915982
0.94371435
0.89834203
0.86004512
0.82711056
0.7985841
0.77393419
0.75297593
0.7357845
0.72266832
0.71411738
0.71098717
0.72372941
0.74126668
0.76110178
0.77964902
0.79426457
0.80421629
0.81027027
0.81364129
0.81526427
0.81566024
0.81502142
0.81333323
0.81041001
0.80592257
0.7992309
0.78866173
0.77108223
1.1565479
1.1527255
1.1476376
1.1415885
1.134812
1.1275047
1.1198624
1.1120962
1.1044503
1.0972366
1.0908632
1.0858475
1.0828077
1.0825328
1.0840109
1.0847839
1.0824065
1.0764052
1.0679719
1.0585425
1.0487672
1.0386622
1.0280186
1.0165124
1.0038449
0.98984234
0.97456621
0.95830817
0.94080697
0.91885639
1.1585741
1.158447
1.1582173
1.157869
1.1573911
1.1567773
1.1560271
1.155147
1.154152
1.1530723
1.1519609
1.1508181
1.1496657
1.1482765
1.144141
1.1340767
1.1156331
1.0910593
1.0650772
1.041943
1.0217679
1.0024855
0.98409971
0.96680583
0.9508647
0.93501848
0.91841133
0.90142915
0.8841325
0.86592182
1.158618
1.1586138
1.1586041
1.1585857
1.1585549
1.1585076
1.1584395
1.158346
1.1582224
1.1580637
1.1578628
1.1575844
1.156979
1.1539189
1.1412473
1.1153046
1.0809967
1.0393512
0.9982497
0.96248223
0.93452737
0.91408729
0.89824461
0.88545134
0.87456202
0.86588877
0.85895245
0.85296916
0.84708017
0.83851967
1.0694873
0.9990343
0.94344566
0.89792078
0.85944875
0.8262933
0.79740642
0.77213005
0.75010111
0.73121819
0.71567186
0.70403994
0.69763333
0.70821657
0.72340027
0.74049804
0.75750705
0.77367578
0.78863698
0.80214233
0.81406722
0.82417369
0.83199758
0.83700022
0.83882552
0.83748205
0.83323789
0.82625968
0.81499438
0.796646
1.1565476
1.1527123
1.1476008
1.1415209
1.1347044
1.1273388
1.1195954
1.1116508
1.1037183
1.0960794
1.0891671
1.0836593
1.0805036
1.0804025
1.0811978
1.0805366
1.0780938
1.074265
1.0689876
1.0622182
1.0538326
1.0434391
1.0305813
1.0150506
0.99695111
0.97662602
0.95455156
0.93158389
0.90767451
0.88066994
1.158574
1.1584464
1.1582154
1.1578653
1.1573853
1.1567694
1.1560163
1.155131
1.1541279
1.1530389
1.1519285
1.1509162
1.1500663
1.1476916
1.1386312
1.1235454
1.1085631
1.0957655
1.0825906
1.0684971
1.0527007
1.0338356
1.0113783
0.98594239
0.95876334
0.93205068
0.90813052
0.88768677
0.86604192
0.84052629
1.158618
1.1586138
1.158604
1.1585855
1.1585546
1.1585075
1.1584397
1.1583471
1.1582252
1.1580704
1.1578772
1.1576048
1.1566006
1.1474265
1.1136102
1.0692995
1.04441
1.0398713
1.014177
0.98215303
0.95405092
0.93212256
0.91478667
0.90057176
0.8883897
0.87805222
0.86930587
0.86117656
0.84301211
0.81030324
1.0694758
0.99897083
0.94328259
0.89760667
0.85890271
0.8253855
0.79594474
0.76984173
0.74658865
0.72593177
0.70792192
0.69311554
0.68282218
0.68800569
0.6923675
0.69355282
0.69214944
0.68992367
0.68824794
0.68801622
0.68973128
0.69345733
0.69896182
0.70582654
0.71331357
0.71994643
0.7231022
0.71984513
0.7103579
0.69546029
1.1565471
1.1527063
1.147578
1.1414646
1.1345886
1.1271214
1.1192082
1.1109896
1.1026297
1.0943756
1.0866804
1.0803832
1.0765725
1.0744165
1.0706807
1.0654083
1.0594356
1.053258
1.0468646
1.0398629
1.031596
1.0215067
1.0094613
0.99567137
0.98022101
0.9629033
0.94359858
0.92237471
0.88469152
0.82068025
1.158574
1.1584461
1.1582142
1.1578616
1.1573767
1.1567517
1.1559826
1.1550706
1.1540256
1.1528766
1.1516986
1.150644
1.1494594
1.1419978
1.1253031
1.1119386
1.1029094
1.0954414
1.0862173
1.0732115
1.0554044
1.0327145
1.0064215
0.97804493
0.94809843
0.91775167
0.89057952
0.86799243
0.84510374
0.81245172
1.158618
1.1586138
1.1586039
1.1585853
1.158554
1.1585061
1.1584368
1.1583413
1.1582144
1.1580506
1.157838
1.1574393
1.1545528
1.1227195
1.0496446
1.0002081
0.99652079
0.99693321
0.99298223
0.97483711
0.95421237
0.9355277
0.91908843
0.90407981
0.8889915
0.87283997
0.85530672
0.83684694
0.81440155
0.78781468
1.069466
0.99894029
0.94322209
0.89751003
0.85876206
0.82518957
0.79568474
0.76951822
0.74622649
0.72562066
0.70791992
0.69397773
0.68501883
0.69154527
0.69438568
0.69286176
0.68965622
0.6849884
0.67956523
0.67391203
0.66848914
0.66371828
0.65995758
0.65744856
0.65622696
0.65597795
0.65586066
0.65447261
0.65000119
0.64046477
1.1565469
1.1527035
1.147568
1.1414411
1.134544
1.1270458
1.1190907
1.1108199
1.1024096
1.0941531
1.0866304
1.0809089
1.077817
1.0737697
1.0679302
1.0610966
1.0492711
1.0319923
1.0106287
0.98561961
0.95729474
0.9261515
0.89324048
0.86022704
0.82876137
0.79976705
0.77319512
0.74820139
0.72332739
0.69503387
1.158574
1.158446
1.1582135
1.1578597
1.1573725
1.1567434
1.1559678
1.1550463
1.1539894
1.1528322
1.1516716
1.1506765
1.1486325
1.1320776
1.1175724
1.1084202
1.1033061
1.0971111
1.0883914
1.0754797
1.055705
1.0297637
1.0002426
0.96876624
0.9344288
0.89875625
0.86246925
0.82551985
0.78678565
0.74394573
1.158618
1.1586138
1.1586039
1.1585851
1.1585537
1.1585053
1.1584351
1.1583379
1.1582081
1.1580385
1.1578067
1.1571751
1.1501311
1.0625294
0.98589391
0.97233385
0.96613407
0.96118319
0.95433949
0.94548062
0.93496067
0.92393931
0.91382382
0.90557058
0.89886872
0.8864856
0.8693183
0.84175138
0.80427423
0.76090866
1.0694567
0.99892425
0.94320063
0.89748312
0.85872867
0.82514859
0.79563548
0.76945762
0.74614207
0.72548612
0.70767728
0.6935237
0.68441758
0.69143279
0.69516666
0.69449381
0.691398
0.68688783
0.68171165
0.67645774
0.67164522
0.66770568
0.66493628
0.66347228
0.66325091
0.66387736
0.66443689
0.66351705
0.65938033
0.6502487
1.1565466
1.1527028
1.1475665
1.1414383
1.1345393
1.1270383
1.1190786
1.1107999
1.1023736
1.0940815
1.0864787
1.0806121
1.0775078
1.0738711
1.0682867
1.0617048
1.0522493
1.0385905
1.0227133
1.0069711
0.99220448
0.97678228
0.957935
0.93434511
0.9072241
0.8778303
0.84703081
0.81470968
0.77881083
0.73652789
1.158574
1.158446
1.1582135
1.1578596
1.1573721
1.1567427
1.1559666
1.155044
1.1539847
1.1528216
1.1516466
1.150639
1.148888
1.1320008
1.1157048
1.1053972
1.0999446
1.0941274
1.087341
1.0757338
1.0558174
1.0265932
0.99112326
0.95816699
0.93336788
0.91391822
0.89292818
0.8656965
0.83029111
0.78558306
1.158618
1.1586138
1.1586039
1.1585851
1.1585537
1.1585052
1.158435
1.1583378
1.1582078
1.1580383
1.1578117
1.1572762
1.1514711
1.0673607
0.98206863
0.96670098
0.95998507
0.9547314
0.94744508
0.94106258
0.93247052
0.92212583
0.91152559
0.90147385
0.89174966
0.88144303
0.87211523
0.85283014
0.82365542
0.78905318
1.0694499
0.99892667
0.94322466
0.89753617
0.85881728
0.8252814
0.79582069
0.76969768
0.74642772
0.72574489
0.70767596
0.69273313
0.68227409
0.68801111
0.69364695
0.69630112
0.69625774
0.69527975
0.69507365
0.69677535
0.70081421
0.7068527
0.71409692
0.72180771
0.72942889
0.73588358
0.73886908
0.73517424
0.72313847
0.70797073
1.1565465
1.1527044
1.1475739
1.141457
1.1345761
1.1271017
1.1191787
1.1109456
1.1025635
1.0942717
1.0865015
1.0800599
1.0761214
1.0745617
1.0714177
1.0664092
1.0605809
1.054618
1.0487359
1.0424962
1.0351177
1.0256796
1.0135546
0.9987886
0.98168775
0.96217415
0.94170229
0.92116804
0.89222642
0.83381144
1.158574
1.1584461
1.158214
1.1578611
1.1573757
1.1567498
1.1559793
1.155065
1.1540157
1.1528588
1.1516639
1.1505822
1.1495371
1.143485
1.1250334
1.1090656
1.0981456
1.0899155
1.0803943
1.0668273
1.047708
1.0226942
0.99330927
0.96332314
0.93527362
0.90849317
0.8881257
0.87256973
0.85593538
0.83002764
1.158618
1.1586138
1.1586039
1.1585852
1.158554
1.1585059
1.1584364
1.1583406
1.1582133
1.1580488
1.1578377
1.1574884
1.1553497
1.1296527
1.0497639
0.9944387
0.98888783
0.98993731
0.99158339
0.9789257
0.96018245
0.9415827
0.92465946
0.9108642
0.89757337
0.88099225
0.86498639
0.84840953
0.82676486
0.80647765
1.0694493
0.9989697
0.94336046
0.8978158
0.85931922
0.826134
0.79722162
0.77191508
0.74985113
0.73093551
0.71535771
0.70367694
0.69720494
0.70805553
0.72424638
0.74282248
0.76115535
0.77821518
0.79367535
0.80733169
0.81898706
0.82833277
0.83494379
0.83849774
0.83898892
0.83672258
0.83210123
0.8251833
0.81438244
0.79536346
1.1565467
1.1527094
1.1475947
1.1415098
1.1346858
1.1273093
1.1195514
1.1115883
1.1036313
1.095966
1.0890152
1.0834407
1.0802077
1.080331
1.0817836
1.0815342
1.0790193
1.0748856
1.0692702
1.0621624
1.0534393
1.0427446
1.0297192
1.0143708
0.99708087
0.97813986
0.95769277
0.93654688
0.91529888
0.89162291
1.158574
1.1584463
1.1582151
1.1578646
1.1573839
1.1567666
1.1560114
1.1551231
1.1541156
1.1530196
1.151898
1.1508672
1.1500418
1.148258
1.139689
1.123218
1.1062799
1.0925074
1.0790774
1.0646754
1.0483138
1.0287939
1.0060046
0.98139943
0.9570078
0.93413823
0.91310379
0.894713
0.87681871
0.85724768
1.158618
1.1586138
1.158604
1.1585855
1.1585545
1.1585072
1.1584392
1.1583461
1.1582236
1.1580677
1.157874
1.1576162
1.1568658
1.1500904
1.1177114
1.0684294
1.0383247
1.0338477
1.0126179
0.98395915
0.95740255
0.93602382
0.91888249
0.90478092
0.89282573
0.88274325
0.87421154
0.86623797
0.85204852
0.83180007
1.0694401
0.99908201
0.94361461
0.89822391
0.8599071
0.82694578
0.79837906
0.77368918
0.7527022
0.73549404
0.72239019
0.71388016
0.71077927
0.72354548
0.74114138
0.76109522
0.77977216
0.79456713
0.80479426
0.81118281
0.81488154
0.81672502
0.81713461
0.8162403
0.81407758
0.81060302
0.80561462
0.79847493
0.78752507
0.77093278
1.1565468
1.1527221
1.1476304
1.1415754
1.13479
1.1274699
1.1198099
1.1120233
1.104362
1.097136
1.0907566
1.0857313
1.0826615
1.0823486
1.0838304
1.0846309
1.0822159
1.0761867
1.0677913
1.0584444
1.0488169
1.0389058
1.0285145
1.017401
1.0053555
0.99221638
0.9779844
0.96291499
0.9468504
0.92408942
1.158574
1.1584469
1.158217
1.1578681
1.1573892
1.1567737
1.1560207
1.1551365
1.1541364
1.1530509
1.151932
1.1507718
1.1496046
1.148186
1.144009
1.1338207
1.1148757
1.0900203
1.0642605
1.0415818
1.0225019
1.0045065
0.98739374
0.97096509
0.9555069
0.93994311
0.92380535
0.90726346
0.890238
0.87270965
1.158618
1.1586138
1.1586041
1.1585856
1.1585547
1.1585073
1.1584388
1.1583446
1.1582199
1.1580595
1.1578554
1.1575681
1.1569392
1.1538364
1.1408494
1.1130335
1.0770042
1.0355165
0.99586729
0.96168031
0.93454834
0.91468275
0.89929566
0.88682038
0.87635774
0.86821351
0.86162554
0.85591534
0.85032782
0.84432675
1.0694205
0.99834891
0.9417132
0.89482261
0.85467591
0.81951324
0.78835867
0.76087562
0.73703957
0.71641352
0.69877607
0.68410503
0.67277778
0.67303138
0.67663401
0.68358003
0.69302042
0.7036104
0.71403971
0.72336218
0.73105747
0.73692671
0.74096415
0.74325246
0.74390343
0.74299512
0.74049583
0.73614689
0.72924516
0.71879042
1.156544
1.1526467
1.1473558
1.140938
1.1335902
1.1254703
1.1167227
1.1067633
1.0933331
1.0758263
1.0517821
1.02047
0.98276665
0.94510206
0.9111887
0.88330751
0.86181215
0.84626646
0.83605931
0.83043076
0.82824961
0.82814361
0.82883075
0.82927872
0.82869686
0.82638651
0.82153689
0.81295764
0.79857471
0.77705455
1.1585739
1.1584432
1.1582007
1.1578229
1.1572896
1.1565842
1.1556933
1.1545897
1.1531891
1.151395
1.1489174
1.1409701
1.1202044
1.0861615
1.0442364
1.0001942
0.95975736
0.92531274
0.89769637
0.876858
0.86208532
0.85218552
0.84579662
0.84163866
0.8386299
0.83586596
0.83252232
0.82764427
0.81962979
0.80629368
1.158618
1.1586137
1.1586032
1.1585828
1.1585473
1.1584909
1.1584063
1.1582847
1.1581128
1.1578707
1.1575085
1.1567067
1.1541144
1.1395856
1.1042128
1.0596223
1.0169838
0.97864321
0.94560734
0.91841007
0.89703584
0.88089468
0.86901857
0.86034723
0.85391272
0.8489006
0.8445996
0.84027908
0.83487018
0.82670947
)
;

boundaryField
{
    maxY
    {
        type            calculated;
        value           nonuniform List<scalar> 
300
(
1.1586174
1.1586174
1.1586174
1.1586174
1.1586174
1.1586174
1.1586174
1.1586174
1.1586174
1.1586174
1.1586131
1.1586133
1.1586133
1.1586132
1.1586132
1.1586132
1.1586132
1.1586133
1.1586133
1.1586131
1.1586027
1.1586036
1.1586035
1.1586034
1.1586034
1.1586034
1.1586034
1.1586035
1.1586035
1.1586027
1.1585823
1.1585851
1.158585
1.1585847
1.1585846
1.1585846
1.1585847
1.1585849
1.1585851
1.1585822
1.158547
1.1585544
1.1585541
1.1585535
1.1585532
1.1585531
1.1585534
1.158554
1.1585542
1.1585468
1.1584908
1.1585071
1.1585069
1.1585055
1.1585047
1.1585047
1.1585054
1.1585067
1.1585067
1.1584904
1.1584067
1.158439
1.1584392
1.1584362
1.1584346
1.1584344
1.1584359
1.1584387
1.1584382
1.1584058
1.1582858
1.1583455
1.1583465
1.1583408
1.1583374
1.1583372
1.1583401
1.1583456
1.158344
1.1582842
1.1581153
1.1582218
1.1582247
1.1582139
1.1582076
1.1582073
1.1582128
1.1582231
1.1582194
1.1581123
1.1578758
1.1580632
1.1580698
1.1580501
1.158038
1.1580378
1.1580483
1.1580672
1.158059
1.1578701
1.1575218
1.1578623
1.1578767
1.1578375
1.1578062
1.1578112
1.1578372
1.1578734
1.1578548
1.157508
1.1567701
1.1575839
1.1576042
1.1574388
1.1571746
1.1572756
1.1574878
1.1576157
1.1575676
1.1567062
1.1544953
1.1569784
1.1566001
1.1545523
1.1501305
1.1514705
1.1553492
1.1568652
1.1569386
1.1541139
1.1425454
1.1539184
1.147426
1.122719
1.062529
1.0673603
1.1296522
1.1500899
1.1538358
1.1395851
1.1104273
1.1412468
1.1136097
1.0496442
0.98589353
0.98206825
1.0497635
1.1177109
1.1408489
1.1042123
1.0668897
1.1153042
1.069299
1.0002077
0.97233347
0.96670061
0.99443831
1.0684289
1.113033
1.0596219
1.0237475
1.0809963
1.0444095
0.9965204
0.9661337
0.95998471
0.98888745
1.0383243
1.0770038
1.0169834
0.98425702
1.0393508
1.0398708
0.99693282
0.96118283
0.95473104
0.98993693
1.0338473
1.0355161
0.97864283
0.94986164
0.99824931
1.0141766
0.99298185
0.95433913
0.94744473
0.991583
1.0126175
0.9958669
0.94560699
0.92132915
0.96248187
0.98215265
0.97483673
0.94548027
0.94106224
0.97892532
0.98395877
0.96167995
0.91840974
0.8987695
0.93452703
0.95405056
0.95421201
0.93496033
0.93247018
0.96018209
0.95740219
0.934548
0.89703553
0.88163572
0.91408696
0.93212222
0.93552735
0.92393897
0.9221255
0.94158235
0.93602348
0.91468242
0.88089438
0.86895515
0.89824429
0.91478635
0.9190881
0.91382349
0.91152526
0.92465912
0.91888216
0.89929534
0.86901827
0.85964505
0.88545103
0.90057144
0.90407949
0.90557026
0.90147353
0.91086387
0.9047806
0.88682008
0.86034694
0.85270709
0.87456172
0.88838939
0.88899119
0.8988684
0.89174934
0.89757306
0.89282542
0.87635744
0.85391244
0.84728875
0.86588847
0.87805192
0.87283967
0.88648529
0.88144273
0.88099194
0.88274295
0.86821322
0.84890032
0.84263987
0.85895216
0.86930558
0.85530644
0.869318
0.87211493
0.8649861
0.87421124
0.86162525
0.84459932
0.83798973
0.85296888
0.86117627
0.83684667
0.8417511
0.85282985
0.84840925
0.86623768
0.85591505
0.84027881
0.83222097
0.84707989
0.84301184
0.81440129
0.80427398
0.82365516
0.82676459
0.85204824
0.85032754
0.83486991
0.82365357
0.8385194
0.81030299
0.78781444
0.76090844
0.78905294
0.8064774
0.8317998
0.84432647
0.8267092
)
;
    }
    minX
    {
        type            calculated;
        value           nonuniform List<scalar> 
40
(
1.1586222
1.1586212
1.1586201
1.1586191
1.1586222
1.1586212
1.1586201
1.1586191
1.1586222
1.1586212
1.1586201
1.1586191
1.1586222
1.1586212
1.1586201
1.1586191
1.1586222
1.1586212
1.1586201
1.1586191
1.1586222
1.1586212
1.1586201
1.1586191
1.1586222
1.1586212
1.1586201
1.1586191
1.1586222
1.1586212
1.1586201
1.1586191
1.1586222
1.1586212
1.1586201
1.1586191
1.1586222
1.1586212
1.1586201
1.1586191
)
;
    }
    maxX
    {
        type            calculated;
        value           nonuniform List<scalar> 
40
(
0.71692898
0.77442758
0.8033377
0.8236313
0.770991
0.91881024
0.86595689
0.83868628
0.79652337
0.88069518
0.84069125
0.81094536
0.69542497
0.82020254
0.81242314
0.78890802
0.64045739
0.69507668
0.74402888
0.76123094
0.65046789
0.73663249
0.78563082
0.78930487
0.70830927
0.83391998
0.82994553
0.8070928
0.79570598
0.89153137
0.85712213
0.83202565
0.7711709
0.92412717
0.87267981
0.84429223
0.71894919
0.77725451
0.80648068
0.82682653
)
;
    }
    minZ
    {
        type            calculated;
        value           nonuniform List<scalar> 
120
(
1.069473
1.1565453
1.1585739
1.158618
0.99843794
1.1526507
1.1584433
1.1586137
0.94182939
1.1473643
1.1582011
1.1586032
0.89496214
1.1409536
1.1578239
1.1585828
0.85484082
1.1336164
1.1572919
1.1585475
0.8197084
1.1255113
1.1565884
1.1584913
0.78859586
1.1167798
1.1557007
1.1584072
0.76117057
1.1067259
1.1545987
1.1582864
0.73738643
1.0932143
1.1531998
1.1581159
0.71680212
1.0756283
1.1514094
1.1578763
0.69918784
1.0517298
1.1489581
1.1575223
0.68451478
1.0210486
1.1413186
1.1567706
0.67315664
0.98428444
1.1220137
1.1544958
0.67333873
0.94742065
1.0897129
1.1425459
0.67680316
0.91382542
1.0490814
1.1104278
0.68354218
0.88578132
1.0057493
1.0668902
0.69273763
0.86382497
0.96511862
1.0237479
0.70307145
0.84766171
0.92989721
0.9842574
0.71324033
0.83675772
0.90122129
0.949862
0.72230134
0.83041179
0.87924925
0.92132949
0.72974408
0.82752841
0.86339472
0.89876982
0.73539499
0.82678801
0.85253714
0.88163602
0.73928251
0.826964
0.84535175
0.86895544
0.74151823
0.82705246
0.84056796
0.85964534
0.74221142
0.82624056
0.83708314
0.85270737
0.74140047
0.82377952
0.83395072
0.84728903
0.73899853
0.81883629
0.83030555
0.84264015
0.73470276
0.8102489
0.82517112
0.83799001
0.72775452
0.79595603
0.81692634
0.83222124
0.71696869
0.77447008
0.80336225
0.82365384
)
;
    }
    maxZ
    {
        type            calculated;
        value           nonuniform List<scalar> 
120
(
1.0694205
1.156544
1.1585739
1.158618
0.99834891
1.1526467
1.1584432
1.1586137
0.9417132
1.1473558
1.1582007
1.1586032
0.89482261
1.140938
1.1578229
1.1585828
0.85467591
1.1335902
1.1572896
1.1585473
0.81951324
1.1254703
1.1565842
1.1584909
0.78835867
1.1167227
1.1556933
1.1584063
0.76087562
1.1067633
1.1545897
1.1582847
0.73703957
1.0933331
1.1531891
1.1581128
0.71641352
1.0758263
1.151395
1.1578707
0.69877607
1.0517821
1.1489174
1.1575085
0.68410503
1.02047
1.1409701
1.1567067
0.67277778
0.98276665
1.1202044
1.1541144
0.67303138
0.94510206
1.0861615
1.1395856
0.67663401
0.9111887
1.0442364
1.1042128
0.68358003
0.88330751
1.0001942
1.0596223
0.69302042
0.86181215
0.95975736
1.0169838
0.7036104
0.84626646
0.92531274
0.97864321
0.71403971
0.83605931
0.89769637
0.94560734
0.72336218
0.83043076
0.876858
0.91841007
0.73105747
0.82824961
0.86208532
0.89703584
0.73692671
0.82814361
0.85218552
0.88089468
0.74096415
0.82883075
0.84579662
0.86901857
0.74325246
0.82927872
0.84163866
0.86034723
0.74390343
0.82869686
0.8386299
0.85391272
0.74299512
0.82638651
0.83586596
0.8489006
0.74049583
0.82153689
0.83252232
0.8445996
0.73614689
0.81295764
0.82764427
0.84027908
0.72924516
0.79857471
0.81962979
0.83487018
0.71879042
0.77705455
0.80629368
0.82670947
)
;
    }
    topAir_to_rightSolid
    {
        type            calculated;
        value           nonuniform List<scalar> 
130
(
0.46156966
0.45675691
0.45182767
0.44703077
0.44253954
0.43846308
0.43486739
0.43178596
0.42922728
0.42718785
0.42566295
0.42464881
0.42414234
0.4652123
0.45950359
0.45380773
0.44841202
0.44347935
0.43909169
0.43528825
0.43207049
0.4294227
0.4273251
0.42576462
0.42473035
0.42421424
0.47262992
0.46480669
0.45743946
0.45083498
0.44506897
0.44012701
0.43596135
0.43251128
0.42971629
0.42752532
0.42590595
0.42483838
0.42430638
0.48409071
0.47210878
0.46199296
0.45365087
0.44681034
0.44120623
0.43663043
0.43292567
0.4299735
0.42768618
0.42601005
0.42490927
0.42436225
0.49833495
0.47922712
0.46578145
0.45576676
0.44803029
0.44192377
0.43705753
0.43318016
0.43012633
0.42778121
0.42607078
0.42495196
0.42439712
0.49821038
0.47911401
0.46569215
0.45569903
0.44798009
0.44188766
0.43703218
0.43316436
0.43011914
0.42778299
0.4260779
0.42496212
0.42440874
0.4836928
0.4717569
0.46171129
0.45343446
0.4466454
0.44108444
0.43654379
0.43286801
0.42994206
0.42768074
0.42602252
0.42493273
0.42439078
0.47207504
0.4642859
0.45699935
0.4504745
0.4447813
0.43990907
0.43580226
0.43240068
0.42964757
0.42749416
0.42590404
0.4248545
0.4243313
0.46460705
0.45892735
0.45329405
0.44796909
0.44311171
0.4388035
0.43507299
0.43191959
0.42932701
0.42727495
0.42574888
0.42473661
0.4242299
0.46102762
0.45624044
0.45134205
0.44658138
0.44213726
0.43813172
0.43461469
0.43160958
0.42911411
0.42712388
0.4256366
0.42464677
0.42415074
)
;
    }
    topAir_to_heater
    {
        type            calculated;
        value           nonuniform List<scalar> 
40
(
0.47350831
0.47216583
0.46957815
0.46595482
0.47967617
0.47806276
0.47492914
0.47051318
0.49310981
0.49090895
0.48654184
0.48024154
0.51659455
0.51356253
0.5071525
0.49713152
0.55523937
0.55202767
0.54382637
0.52801022
0.55513256
0.55191189
0.54370137
0.52788133
0.51621624
0.51316842
0.50674363
0.49671726
0.49257059
0.4903628
0.48598679
0.47968035
0.47906058
0.47746113
0.47433268
0.4699078
0.4728904
0.47158306
0.46901715
0.4653939
)
;
    }
    topAir_to_leftSolid
    {
        type            calculated;
        value           nonuniform List<scalar> 
130
(
0.37991268
0.37992448
0.37995511
0.38000644
0.38007882
0.38016621
0.38026202
0.38036875
0.38048855
0.38060744
0.38071073
0.3807898
0.3808359
0.3798916
0.37990425
0.37993686
0.37999282
0.38007428
0.3801728
0.38027825
0.380394
0.38051886
0.38064952
0.38075868
0.38083975
0.38088707
0.37985862
0.37987263
0.37990831
0.37997005
0.38006329
0.38017185
0.38028752
0.38041281
0.38054716
0.3806883
0.38080455
0.38089038
0.38094335
0.37982028
0.37983496
0.3798719
0.37993515
0.38002932
0.38014713
0.38027444
0.38041358
0.38056421
0.38072169
0.38085112
0.38094695
0.38101223
0.37978008
0.37979567
0.37983331
0.37989614
0.37998709
0.38010229
0.38023751
0.38039941
0.38058025
0.38076111
0.38091571
0.3810298
0.38110697
0.37975091
0.37976638
0.37980389
0.37986534
0.37995298
0.38006231
0.38019599
0.38036022
0.38053899
0.38072201
0.38088423
0.38100165
0.38107427
0.37973737
0.37975189
0.37978749
0.37984456
0.37992066
0.38001792
0.38013967
0.38029108
0.38045431
0.38062406
0.38077439
0.38088932
0.38095478
0.37973741
0.3797523
0.37978661
0.37983939
0.37990796
0.37999283
0.38009622
0.38022466
0.38037445
0.3805154
0.38064303
0.38074178
0.38079937
0.37974076
0.37975487
0.37978845
0.37984008
0.37990296
0.37997618
0.38006144
0.38016326
0.38028085
0.3803982
0.38050513
0.38058745
0.38063284
0.37974422
0.37975719
0.37978853
0.37983698
0.37989532
0.37996131
0.38003657
0.38012304
0.3802197
0.38031672
0.38040537
0.38047503
0.38051482
)
;
    }
}


// ************************************************************************* //
