/*--------------------------------*- C++ -*----------------------------------*\
| =========                 |                                                 |
| \\      /  F ield         | OpenFOAM: The Open Source CFD Toolbox           |
|  \\    /   O peration     | Version:  v2012                                 |
|   \\  /    A nd           | Website:  www.openfoam.com                      |
|    \\/     M anipulation  |                                                 |
\*---------------------------------------------------------------------------*/
FoamFile
{
    version     2.0;
    format      ascii;
    class       volScalarField;
    location    "550/topAir";
    object      T;
}
// * * * * * * * * * * * * * * * * * * * * * * * * * * * * * * * * * * * * * //

dimensions      [0 0 0 1 0 0 0];


internalField   nonuniform List<scalar> 
1200
(
325.00742
348.13045
369.05478
388.38138
406.60976
424.03691
440.76646
456.64745
471.37644
484.91289
497.12904
507.78534
516.35316
516.21351
513.5711
508.50781
501.75782
494.38293
487.33436
481.22092
476.31289
472.65281
470.16736
468.74977
468.31198
468.82422
470.34801
473.0981
477.61501
484.80009
300.53848
301.55395
302.94332
304.64547
306.61726
308.82529
311.23983
314.06723
317.94895
323.14726
330.49015
340.42096
353.13606
366.87644
380.36402
392.40645
402.38046
410.05307
415.39656
418.57098
420.02941
420.40556
420.31609
420.27112
420.6841
421.94089
424.4881
428.98701
436.69027
448.80528
300.01197
300.04578
300.10853
300.2063
300.34432
300.52699
300.75784
301.04488
301.41009
301.87876
302.52281
304.54777
309.7877
318.97027
331.32417
345.59907
360.1485
373.78972
385.68332
395.32137
402.58066
407.70777
411.17324
413.51328
415.23476
416.79444
418.62423
421.22902
425.48025
432.66412
300.00029
300.0014
300.0041
300.00938
300.01853
300.03308
300.05486
300.08617
300.13036
300.19244
300.28425
300.47938
301.07145
304.22037
313.01966
325.79336
339.52279
353.14518
365.93291
377.26544
386.73504
394.25089
400.00416
404.33628
407.62612
410.23286
412.49613
414.78514
417.66034
422.00471
325.00317
347.87893
368.31764
386.92015
404.14929
420.24203
435.25361
449.11648
461.61714
472.40271
480.97665
486.73592
488.87883
480.27145
468.90892
456.68867
445.82439
437.62061
432.2053
428.97604
427.19874
426.34829
426.14131
426.47531
427.36052
428.90204
431.29019
434.90122
440.72949
450.77745
300.53778
301.53435
302.87117
304.47605
306.29422
308.27929
310.38307
312.5506
314.71435
316.78341
318.63421
320.10604
321.00467
321.08619
320.64837
320.41987
321.12363
322.91399
325.46389
328.36309
331.42367
334.64803
338.11282
341.94
346.25494
351.15315
356.6574
362.70822
369.45542
378.28132
300.01193
300.04484
300.10434
300.19462
300.31857
300.47791
300.6729
300.902
301.1614
301.4434
301.73423
302.03385
302.33661
302.70237
303.7965
306.49251
311.55943
318.57663
326.34818
333.59407
340.18096
346.72422
353.20201
359.51996
365.54727
371.74238
378.4644
385.59436
393.1379
401.40574
300.00029
300.00136
300.00388
300.00865
300.01662
300.02886
300.0465
300.07073
300.10275
300.14386
300.19595
300.26815
300.42527
301.22196
304.56653
311.65092
321.54187
334.42566
348.19517
361.1347
371.93746
380.25443
386.96113
392.55207
397.43981
401.42081
404.66242
407.50099
410.33399
414.52311
325.00306
347.92264
368.42253
387.10166
404.42972
420.65767
435.89643
450.16588
463.38633
475.35277
485.67871
493.70293
498.23677
490.79135
480.48996
469.39565
458.85587
449.26642
440.7434
433.32277
426.97523
421.73942
417.77349
415.2765
414.37285
415.03757
417.15158
420.67464
426.48942
436.31233
300.53787
301.53782
302.8809
304.49408
306.32325
308.32465
310.4571
312.67584
314.92305
317.11785
319.13041
320.7524
321.68919
321.71929
321.48264
321.67937
322.40821
323.55732
325.15467
327.22682
329.83065
333.11601
337.27205
342.43247
348.64926
355.90519
364.13566
373.11321
382.9415
394.68387
300.01193
300.04499
300.10483
300.19558
300.32007
300.47998
300.67573
300.90616
301.16769
301.45213
301.74273
302.00812
302.23131
302.85665
305.26656
309.36536
313.54643
317.20838
321.06874
325.30366
330.18503
336.21013
343.67556
352.5419
362.53577
372.92608
382.74896
391.56381
401.3501
413.53377
300.00029
300.00137
300.0039
300.0087
300.01669
300.0289
300.04645
300.07045
300.10201
300.14214
300.19221
300.26286
300.52355
302.92634
312.12512
325.05928
332.80583
334.25841
342.72688
353.9018
364.32619
372.89704
379.96372
385.9612
391.25371
395.86002
399.8429
403.61734
412.31412
428.95768
325.00656
347.94474
368.48622
387.23713
404.68684
421.12033
436.69691
451.50398
465.56641
478.81441
490.99565
501.48432
509.04406
505.20886
502.02611
501.16811
502.18425
503.80434
505.03099
505.20108
503.94485
501.23707
497.2897
492.45316
487.2843
482.79495
480.68791
482.86287
489.31177
499.79343
300.53799
301.53938
302.8869
304.50911
306.35453
308.38413
310.5645
312.86192
315.23397
317.61156
319.8607
321.72504
322.86385
323.51172
324.64049
326.24705
328.08631
330.01061
332.02604
334.26166
336.94032
340.26825
344.32849
349.09739
354.5999
360.97734
368.36242
376.83845
392.88977
423.53431
300.01194
300.04506
300.10515
300.19654
300.32231
300.48457
300.68449
300.92189
301.19439
301.49457
301.80296
302.07957
302.39087
304.36663
308.88213
312.5946
315.15372
317.30223
319.99677
323.87466
329.33917
336.57513
345.36823
355.38859
366.61385
378.73646
390.29194
400.44821
411.2939
427.82359
300.00029
300.00137
300.00392
300.00875
300.01684
300.02927
300.04721
300.07195
300.10481
300.14727
300.20237
300.30579
301.05659
309.59268
331.1461
347.5134
348.79927
348.65497
350.04224
356.55776
364.26455
371.53977
378.18532
384.46358
390.98886
398.22395
406.38729
415.35169
426.79904
441.20252
325.00954
347.95538
368.50986
387.27882
404.75312
421.22032
436.83961
451.69379
465.79236
479.0197
490.99705
500.86129
507.41171
502.62301
500.56701
501.66797
503.99972
507.4342
511.48369
515.77433
519.95837
523.69586
526.68007
528.69002
529.6742
529.87525
529.97
531.094
534.74746
542.70979
300.53806
301.54012
302.88955
304.51537
306.36658
308.4048
310.59711
312.90972
315.29691
317.67616
319.87542
321.56857
322.49105
323.7066
325.47662
327.57272
331.26453
336.81095
343.93075
352.65765
363.09224
375.30176
389.12957
404.06341
419.40453
434.60939
449.54534
464.56244
480.53797
500.09979
300.01194
300.0451
300.10532
300.19702
300.3234
300.48673
300.68833
300.92822
301.20384
301.5062
301.81003
302.07103
302.60857
307.03376
311.0188
313.58686
315.04043
316.81935
319.35755
323.19162
329.24541
337.53959
347.50172
358.79245
371.977
386.74115
403.01266
421.05109
441.77985
467.21965
300.00029
300.00137
300.00393
300.00879
300.01693
300.02948
300.04765
300.07281
300.10645
300.15039
300.21049
300.37435
302.21402
327.13045
352.55896
357.47571
359.76966
361.62277
364.21602
367.62862
371.7651
376.19977
380.36408
383.83067
386.69248
392.0941
399.83719
412.93168
432.17328
456.80365
325.01236
347.96097
368.51824
387.29044
404.76886
421.24124
436.86665
451.72937
465.84506
479.10854
491.16539
501.18919
507.85746
502.70478
500.00465
500.48906
502.73005
506.03101
509.87325
513.83332
517.51507
520.56846
522.73657
523.89002
524.06486
523.57033
523.12941
523.85463
527.14112
534.54394
300.53812
301.54031
302.88995
304.51611
306.36784
308.40688
310.60049
312.91537
315.3072
317.69693
319.92008
321.65689
322.5836
323.67603
325.368
327.38509
330.32694
334.67116
339.86682
345.18001
350.3172
355.84828
362.84955
372.01059
383.13165
395.96066
410.35846
426.63819
446.30385
471.92548
300.01194
300.0451
300.10533
300.19706
300.32349
300.4869
300.68865
300.92884
301.20507
301.50895
301.81657
302.08088
302.54127
307.05457
311.53942
314.44445
316.00319
317.6833
319.66607
323.11526
329.21034
338.58204
350.69908
362.76142
372.3998
380.32507
389.26536
401.51025
418.63152
442.45612
300.00029
300.00137
300.00393
300.00879
300.01694
300.02949
300.04768
300.07286
300.10653
300.15044
300.2092
300.34813
301.86232
325.64973
353.93222
359.55868
362.0741
364.06651
366.86637
369.35454
372.75789
376.93961
381.3231
385.57498
389.77954
394.3372
398.55488
407.56743
422.00391
440.51001
325.01443
347.96012
368.50885
387.26755
404.7271
421.17345
436.76499
451.58848
465.66679
478.93771
491.1663
501.76116
509.45299
505.20488
501.10011
499.19
499.22109
499.92329
500.07152
498.85021
495.97529
491.73827
486.74977
481.55001
476.5187
472.33898
470.43042
472.7947
480.66379
490.96165
300.53815
301.53989
302.888
304.51111
306.3579
308.38952
310.57271
312.87432
315.25292
317.6417
319.91337
321.82136
322.99918
323.468
324.41718
325.94084
327.73202
329.58503
331.43359
333.41733
335.79399
338.88389
342.9379
348.00785
354.07009
361.25089
369.10418
377.33207
389.57179
416.86432
300.01194
300.04508
300.1052
300.19666
300.32256
300.48506
300.68534
300.92337
301.19697
301.49924
301.81206
302.0958
302.37044
303.97077
308.95617
313.40438
316.52087
318.91097
321.72145
325.81282
331.75848
339.87288
349.92728
360.81974
371.64099
382.59617
391.37028
398.34754
406.08907
418.76437
300.00029
300.00137
300.00392
300.00876
300.01686
300.02931
300.0473
300.07211
300.10511
300.14774
300.20246
300.29306
300.84893
307.69257
331.10847
349.52957
351.49156
351.11893
350.53605
355.06856
361.99968
369.15053
375.90678
381.59998
387.25053
394.53897
401.83959
409.69104
420.41674
430.99248
325.01461
347.94514
368.4558
387.14693
404.49069
420.73879
435.99747
450.29125
463.54081
475.5366
485.892
493.95761
498.5429
490.90299
479.92862
467.92682
456.65653
446.64581
437.9455
430.53747
424.4103
419.62186
416.29932
414.53483
414.29214
415.41428
417.72141
421.22337
426.80989
437.01589
300.53811
301.53858
302.8825
304.49703
306.32829
308.33273
310.46931
312.69343
314.94789
317.15065
319.17492
320.81714
321.77732
321.74058
321.30854
321.38265
322.13168
323.37051
325.06871
327.24402
329.95379
333.33789
337.55444
342.66195
348.60389
355.35436
362.9413
371.13599
379.75163
389.83545
300.01194
300.04502
300.1049
300.19576
300.32045
300.4807
300.677
300.90823
301.17092
301.45719
301.75071
302.02099
302.23775
302.70725
304.98322
309.45552
314.19357
318.15438
322.11406
326.47133
331.56674
337.85777
345.51136
354.17384
363.2008
372.09269
380.66429
388.48883
396.41718
405.46741
300.00029
300.00137
300.0039
300.00871
300.01671
300.02897
300.04658
300.0707
300.10243
300.14284
300.19306
300.25989
300.45467
302.2247
310.97984
325.324
334.75627
336.20593
343.25457
353.2522
363.05077
371.34284
378.27007
384.16565
389.30975
393.75636
397.59916
401.259
407.9413
417.87179
325.0174
347.90602
368.35657
386.97103
404.21416
420.32576
435.36539
449.25871
461.78501
472.58927
481.16183
486.89766
489.02182
480.39353
468.9882
456.69261
445.75399
437.45397
431.89491
428.49347
426.54854
425.58575
425.37241
425.83846
426.96976
428.79991
431.45505
435.31296
441.36561
450.86483
300.53808
301.53525
302.87308
304.47955
306.30015
308.2888
310.39765
312.57111
314.73949
316.81245
318.66534
320.14029
321.04803
321.14083
320.70176
320.46505
321.18019
322.97954
325.51892
328.39352
331.40796
334.56958
337.94981
341.64137
345.73467
350.31296
355.41083
360.97292
367.0973
376.13915
300.01193
300.04487
300.10443
300.19484
300.31906
300.47886
300.67459
300.90474
301.16548
301.44899
301.74179
302.04602
302.35267
302.72623
303.83156
306.56171
311.77107
318.88029
326.5986
333.70974
339.93676
346.02661
352.02369
357.9799
363.7713
369.79471
376.25457
383.11472
390.44164
398.28364
300.00029
300.00136
300.00388
300.00866
300.01666
300.02895
300.0467
300.07109
300.1034
300.14495
300.19788
300.27238
300.43561
301.24351
304.67274
312.28684
322.73385
335.6641
349.02816
361.43584
371.92911
380.00689
386.50887
391.94606
396.62542
400.34595
403.40699
406.09831
408.76679
411.67211
325.02337
348.16149
369.10031
388.44194
406.68822
424.13789
440.89908
456.82447
471.59828
485.17592
497.42198
508.08948
516.64394
516.44925
513.69949
508.47965
501.55308
494.00424
486.78877
480.51518
475.45717
471.67039
469.1003
467.65603
467.2468
467.818
469.39695
472.17001
476.63872
483.57139
300.53881
301.55499
302.94557
304.64964
306.62434
308.83653
311.25575
314.05664
317.91439
323.08778
330.47371
340.61395
353.68144
367.77649
381.46468
393.50543
403.32025
410.72913
415.74357
418.56142
419.66368
419.71739
419.36942
419.14288
419.43716
420.60979
423.0927
427.55765
435.25828
447.31255
300.01198
300.04582
300.10863
300.20657
300.3449
300.5281
300.75975
301.04724
301.41287
301.88252
302.53354
304.64079
310.28805
320.01321
332.86143
347.51852
362.16031
375.64166
387.19775
396.39944
403.19213
407.876
410.95697
412.98723
414.46891
415.83942
417.50955
419.9703
424.07685
431.09109
300.00029
300.00141
300.0041
300.0094
300.01858
300.03319
300.05509
300.0866
300.13113
300.19391
300.28783
300.49599
301.17095
305.01063
314.78147
328.02795
341.781
355.17107
367.57939
378.46468
387.4826
394.58268
399.9751
404.00641
407.05073
409.45406
411.53915
413.65518
416.33515
420.44492
)
;

boundaryField
{
    maxY
    {
        type            zeroGradient;
    }
    minX
    {
        type            fixedValue;
        value           uniform 300;
    }
    maxX
    {
        type            inletOutlet;
        inletValue      uniform 300;
        value           nonuniform List<scalar> 
40
(
484.82697
448.82992
432.67735
422.01624
450.83079
378.30028
401.38946
414.44074
436.3795
394.67253
413.45261
428.61803
499.81885
423.78098
427.83865
440.59107
542.71609
500.06903
467.16746
456.61027
534.36385
471.85849
442.42924
440.36954
490.72703
416.81005
418.8058
430.66399
436.82777
389.87544
405.52678
417.75848
450.72562
376.12374
398.29724
411.68892
483.46462
447.19749
430.99114
420.38537
)
;
    }
    minZ
    {
        type            zeroGradient;
    }
    maxZ
    {
        type            zeroGradient;
    }
    topAir_to_rightSolid
    {
        type            compressible::turbulentTemperatureCoupledBaffleMixed;
        refValue        nonuniform List<scalar> 
130
(
753.13657
761.07615
769.38283
777.64198
785.53682
792.84227
799.39957
805.10567
809.90574
813.77251
816.68742
818.63672
819.61213
747.25655
756.54368
766.04203
775.26198
783.88676
791.72123
798.64017
804.58861
809.54998
813.52367
816.50466
818.4914
819.48412
735.5229
747.90775
759.95774
771.09478
781.088
789.86123
797.41051
803.77266
809.00126
813.14717
816.23826
818.28781
819.31078
718.08849
736.31698
752.44289
766.28278
778.01767
787.9032
796.16348
802.97966
808.49534
812.82077
816.01869
818.13103
819.18249
697.55709
725.37539
746.31809
762.71942
775.89153
786.61418
795.37363
802.49416
808.19286
812.62432
815.88686
818.03423
819.1014
697.73201
725.54722
746.46188
762.83362
775.97952
786.67977
795.42136
802.52528
808.20846
812.62319
815.87561
818.0172
819.08165
718.68061
736.86794
752.9041
766.65118
778.30813
788.12424
796.32509
803.09015
808.55793
812.8345
815.99815
818.08874
819.13034
736.38845
748.74774
760.69065
771.71277
781.59397
790.2531
797.7019
803.97834
809.13057
813.2063
816.24177
818.2567
819.2625
748.23025
757.49389
766.91044
776.02888
784.53747
792.24153
799.03559
804.86988
809.73048
813.61914
816.53475
818.47917
819.45389
754.02236
761.93804
770.21104
778.42493
786.25199
793.44236
799.86481
805.43509
810.1197
813.89473
816.73829
818.64099
819.59634
)
;
        refGradient     uniform 0;
        valueFraction   uniform 0.99967867;
        value           nonuniform List<scalar> 
130
(
753.05343
760.98819
769.29024
777.54516
785.43628
792.73859
799.29332
804.99745
809.79614
813.66216
816.57702
818.52715
819.50456
747.15706
756.43946
765.93372
775.15014
783.77187
791.60376
798.52059
804.4674
809.42767
813.40086
816.38206
818.37004
819.36566
735.43092
747.80905
759.85279
770.98421
780.97254
789.74168
797.28773
803.64754
808.87468
813.01995
816.11118
818.16194
819.18773
718.01964
736.24267
752.36346
766.19851
777.92876
787.80984
796.06592
802.87825
808.39073
812.7141
815.9117
818.0254
819.07987
697.496
725.30667
746.24402
762.64142
775.8105
786.53066
795.28794
802.40651
808.10344
812.53352
815.79536
817.94322
819.01259
697.67041
725.47791
746.38712
762.75479
775.89744
786.59495
795.3341
802.43579
808.11697
812.53013
815.78173
817.92368
818.99016
718.61032
736.79184
752.82246
766.5642
778.21604
788.02738
796.22393
802.98519
808.44986
812.72443
815.88781
817.98024
819.02481
736.29535
748.64787
760.58457
771.60118
781.47766
790.13294
797.57878
803.85311
809.00405
813.07921
816.11483
818.13089
819.13961
748.1304
757.38927
766.8017
775.91658
784.42214
792.12365
798.91567
804.74845
809.60807
813.49634
816.41224
818.35797
819.33541
753.93881
761.84963
770.11795
778.32758
786.15091
793.33814
799.75806
805.32642
810.00971
813.78403
816.62756
818.53108
819.48834
)
;
        Tnbr            T;
        thicknessLayers List<scalar> 0();
        kappaLayers     List<scalar> 0();
        kappaMethod     fluidThermo;
        kappa           none;
        alphaAni        none;
        alpha           none;
        field           T;
    }
    topAir_to_heater
    {
        type            compressible::turbulentTemperatureCoupledBaffleMixed;
        refValue        nonuniform List<scalar> 
40
(
734.13664
736.22527
740.28488
746.04486
724.7063
727.15627
731.95903
738.83363
704.95576
708.12027
714.48117
723.85981
672.89618
676.87086
685.4283
699.2478
626.05194
629.69589
639.19422
658.34488
626.17239
629.82822
639.34161
658.50609
673.38943
677.3911
685.98211
699.83207
705.72762
708.90928
715.29782
724.70756
725.6377
728.0727
732.87963
739.78566
735.09605
737.13524
741.17054
746.94429
)
;
        refGradient     uniform 0;
        valueFraction   uniform 0.99967867;
        value           nonuniform List<scalar> 
40
(
734.06661
736.15372
740.2104
745.96637
724.62775
727.07329
731.87057
738.73948
704.88694
708.04712
714.40241
723.77466
672.8423
676.81468
685.36909
699.18449
626.01228
629.6544
639.15004
658.2953
626.13272
629.7865
639.29699
658.45603
673.33539
677.33446
685.92209
699.7676
705.65859
708.83571
715.21834
724.62144
725.5589
727.98946
732.79089
739.69119
735.0258
737.06345
741.09577
746.86544
)
;
        Tnbr            T;
        thicknessLayers List<scalar> 0();
        kappaLayers     List<scalar> 0();
        kappaMethod     fluidThermo;
        kappa           none;
        alphaAni        none;
        alpha           none;
        field           T;
    }
    topAir_to_leftSolid
    {
        type            compressible::turbulentTemperatureCoupledBaffleMixed;
        refValue        nonuniform List<scalar> 
130
(
915.10196
915.06605
914.98552
914.85565
914.67551
914.45959
914.22373
913.96204
913.66947
913.37964
913.12784
912.93473
912.82141
915.15275
915.11486
915.0297
914.88891
914.68722
914.44496
914.18649
913.9038
913.59982
913.28268
913.01803
912.82177
912.70765
915.23221
915.19103
915.09844
914.94369
914.71359
914.44712
914.16399
913.85827
913.53131
913.18869
912.90654
912.69818
912.56978
915.3246
915.2818
915.18613
915.02771
914.7953
914.50643
914.1952
913.85599
913.48967
913.10747
912.79317
912.56012
912.40129
915.4215
915.3765
915.27912
915.12165
914.89694
914.6143
914.28396
913.88996
913.45109
913.01286
912.63838
912.36187
912.17498
915.49183
915.44711
915.35003
915.19587
914.9791
914.71052
914.38379
913.98414
913.55014
913.10662
912.71375
912.42918
912.2531
915.52448
915.48203
915.38956
915.24594
915.05695
914.81742
914.51933
914.15038
913.75356
913.34168
912.97708
912.69812
912.53877
915.52436
915.48105
915.3917
915.25845
915.08761
914.87795
914.62413
914.31052
913.9461
913.60365
913.29391
913.05439
912.91478
915.51628
915.47486
915.38729
915.25685
915.09975
914.9182
914.70806
914.45853
914.17167
913.88612
913.62648
913.42696
913.31732
915.50795
915.46919
915.38686
915.26384
915.11736
914.95277
914.76613
914.55287
914.31554
914.07786
913.86086
913.69004
913.59172
)
;
        refGradient     uniform 0;
        valueFraction   uniform 0.99967867;
        value           nonuniform List<scalar> 
130
(
914.91234
914.88388
914.81009
914.68648
914.51226
914.302
914.0716
913.81509
913.52735
913.24196
912.99416
912.80454
912.69402
914.96312
914.93259
914.85402
914.71926
914.52317
914.28616
914.0326
913.75445
913.45459
913.14101
912.8792
912.68486
912.57146
915.04255
915.00875
914.92277
914.77408
914.54962
914.28845
914.01031
913.70927
913.38666
913.048
912.76926
912.56355
912.43664
915.13492
915.0995
915.01047
914.85811
914.63139
914.3479
914.04177
913.70742
913.34574
912.96792
912.65764
912.42803
912.27167
915.23178
915.19418
915.10343
914.95205
914.73302
914.45576
914.13055
913.74144
913.30724
912.87341
912.50289
912.22964
912.04491
915.3021
915.26476
915.17432
915.02625
914.81516
914.55195
914.23036
913.83561
913.40628
912.96717
912.57829
912.29704
912.12316
915.33473
915.29967
915.21383
915.07629
914.89297
914.6588
914.36582
914.00175
913.60958
913.20209
912.84154
912.56608
912.40925
915.33462
915.29868
915.21596
915.08875
914.92354
914.71917
914.47033
914.16142
913.80138
913.46289
913.15658
912.91972
912.78164
915.32654
915.29249
915.21152
915.0871
914.93559
914.75927
914.55403
914.30905
914.0263
913.74432
913.48752
913.28991
913.18098
915.31822
915.2869
915.21133
915.09456
914.95399
914.79506
914.61386
914.40579
914.17328
913.94004
913.72705
913.55971
913.46417
)
;
        Tnbr            T;
        thicknessLayers List<scalar> 0();
        kappaLayers     List<scalar> 0();
        kappaMethod     fluidThermo;
        kappa           none;
        alphaAni        none;
        alpha           none;
        field           T;
    }
}


// ************************************************************************* //
