/*--------------------------------*- C++ -*----------------------------------*\
| =========                 |                                                 |
| \\      /  F ield         | OpenFOAM: The Open Source CFD Toolbox           |
|  \\    /   O peration     | Version:  v2012                                 |
|   \\  /    A nd           | Website:  www.openfoam.com                      |
|    \\/     M anipulation  |                                                 |
\*---------------------------------------------------------------------------*/
FoamFile
{
    version     2.0;
    format      ascii;
    class       volVectorField;
    location    "550/topAir";
    object      U;
}
// * * * * * * * * * * * * * * * * * * * * * * * * * * * * * * * * * * * * * //

dimensions      [0 1 -1 0 0 0 0];


internalField   nonuniform List<vector> 
1200
(
(0.10459229 -0.0024532921 0.00087303425)
(0.11831639 -0.0025322983 0.0013094359)
(0.13010801 -0.0023137809 0.0013861148)
(0.1393126 -0.0017572118 0.0012431841)
(0.14735338 -0.00092623265 0.00089465622)
(0.15487299 6.5997455e-06 0.00030064142)
(0.16213386 0.00093814889 -0.000569073)
(0.16939067 0.0018024006 -0.0018715086)
(0.17683196 0.0026958537 -0.0038711817)
(0.18476106 0.0038034028 -0.006879536)
(0.1933461 0.0054449417 -0.011293735)
(0.20228498 0.0079791265 -0.017518296)
(0.21012532 0.011790664 -0.025806224)
(0.21534042 0.016307394 -0.035989493)
(0.21795121 0.02139768 -0.047278307)
(0.21847798 0.026360695 -0.058472239)
(0.21707849 0.030610424 -0.068408148)
(0.21391323 0.033859929 -0.076359806)
(0.20944582 0.03600478 -0.082118477)
(0.20444832 0.03703344 -0.085845349)
(0.19977852 0.037073949 -0.087872254)
(0.19609537 0.036369866 -0.088556567)
(0.19372983 0.035165085 -0.088203289)
(0.19273114 0.033656181 -0.087034468)
(0.19293361 0.032026863 -0.085167208)
(0.19389789 0.030527812 -0.082564673)
(0.19466743 0.02957733 -0.078965234)
(0.19331697 0.030002433 -0.073794497)
(0.18633978 0.033773568 -0.06605801)
(0.14684739 0.046955446 -0.05371574)
(0.098690085 -0.0038856332 0.00084452852)
(0.098467294 -0.0046977758 0.001272919)
(0.098905157 -0.0047459717 0.0014500569)
(0.099808348 -0.0042761832 0.0015272337)
(0.1012583 -0.003479689 0.0015317544)
(0.1032861 -0.0026061149 0.0014491795)
(0.10586953 -0.0018216109 0.0012552643)
(0.1091633 -0.0011851815 0.00089317388)
(0.11366247 -0.00038050282 0.00024166522)
(0.11985259 0.00096376482 -0.00087280565)
(0.12866271 0.0036520674 -0.0027490909)
(0.14038519 0.0086596231 -0.0057514802)
(0.15480818 0.016795574 -0.010371634)
(0.17020892 0.027079905 -0.016720147)
(0.18454787 0.038992652 -0.024370672)
(0.19605934 0.051267131 -0.032401165)
(0.2035722 0.062807148 -0.039890838)
(0.20675211 0.072712701 -0.046309025)
(0.20619142 0.080248091 -0.051482442)
(0.20319673 0.084960169 -0.055414437)
(0.19928077 0.086975962 -0.058152672)
(0.19557706 0.086896101 -0.059734971)
(0.19266337 0.085378063 -0.060248838)
(0.19073867 0.082918573 -0.059823233)
(0.1897921 0.079888624 -0.058537156)
(0.18958469 0.076736082 -0.056288185)
(0.1894668 0.074228803 -0.052673403)
(0.1881561 0.073909749 -0.046809925)
(0.1843259 0.079084504 -0.036711955)
(0.15840929 0.094773558 -0.017404044)
(0.098821099 -0.0029129962 0.000871466)
(0.097977743 -0.0042141568 0.0013208821)
(0.096354507 -0.0046191579 0.0015191057)
(0.094321589 -0.004705556 0.001636073)
(0.092344493 -0.0046636176 0.0017244615)
(0.090603624 -0.0045809492 0.0017969663)
(0.089084724 -0.0045611256 0.0018722052)
(0.087719719 -0.0046462711 0.0019926488)
(0.086558785 -0.0046639037 0.0022255906)
(0.085907271 -0.0045199665 0.0026016681)
(0.086282336 -0.0039701495 0.0030767706)
(0.089717389 -0.0016021632 0.0032619224)
(0.099263869 0.0053442654 0.0025348386)
(0.11468756 0.018077605 0.00067724669)
(0.13319981 0.0348965 -0.0021713522)
(0.15127702 0.053047739 -0.0052339967)
(0.16597591 0.069768741 -0.0078910975)
(0.17600274 0.083802757 -0.0098923135)
(0.18158331 0.094557014 -0.011453387)
(0.18394685 0.10179673 -0.01293259)
(0.1845954 0.10561088 -0.014514701)
(0.18454273 0.10642093 -0.015978752)
(0.18416376 0.10486639 -0.016971788)
(0.18353464 0.10156418 -0.017350355)
(0.18269163 0.097013065 -0.017026192)
(0.18161039 0.091669566 -0.015866366)
(0.18008686 0.086283246 -0.013593942)
(0.17776714 0.082474551 -0.0096551531)
(0.17517119 0.083910868 -0.0031118911)
(0.16150647 0.096893141 0.0092918121)
(0.096862964 -0.0015534834 0.0008370136)
(0.094652423 -0.0022950803 0.0012483125)
(0.090950831 -0.0025206411 0.0014078193)
(0.08642242 -0.0025512254 0.001484046)
(0.0818863 -0.0024889639 0.0015334095)
(0.077586979 -0.0023652685 0.0015725561)
(0.073486797 -0.0022200734 0.0016258444)
(0.069488495 -0.0020908281 0.0017385948)
(0.065466906 -0.0020136472 0.0019839915)
(0.061219928 -0.0021542833 0.0024678404)
(0.056350529 -0.0029981175 0.0034156697)
(0.050454143 -0.0046245948 0.0052459132)
(0.043042506 -0.0053862976 0.0085830094)
(0.038441806 0.00025530789 0.013380494)
(0.044415997 0.014936036 0.019011876)
(0.058981179 0.032297322 0.025005888)
(0.075006897 0.04741581 0.030778798)
(0.089314387 0.059769615 0.036090034)
(0.10142836 0.069338545 0.040559383)
(0.11188083 0.076078083 0.043729149)
(0.12119621 0.079938444 0.045661989)
(0.12950174 0.081023039 0.04655244)
(0.13658854 0.079764537 0.046587509)
(0.14215181 0.076727832 0.046005326)
(0.14599771 0.072450003 0.04511034)
(0.14815812 0.067368809 0.044205706)
(0.14899143 0.062110594 0.043563447)
(0.14953567 0.057926482 0.043080178)
(0.15390463 0.05763076 0.042072844)
(0.17794465 0.067062976 0.041153338)
(0.1058553 -0.0024542192 0.00099601543)
(0.12043465 -0.002543204 0.0013854914)
(0.13347603 -0.0024138655 0.0013743722)
(0.14401801 -0.0020422337 0.0011318124)
(0.15320532 -0.0014982325 0.00067683643)
(0.16161744 -0.00096295067 -3.3022193e-05)
(0.16927055 -0.00058400541 -0.0010575455)
(0.17608347 -0.00043029883 -0.0025574115)
(0.18203507 -0.00056567621 -0.0047834277)
(0.18710672 -0.0010693869 -0.0080177368)
(0.19123826 -0.0020679724 -0.012592633)
(0.19433869 -0.0037042429 -0.01876409)
(0.19583371 -0.0061214112 -0.026499292)
(0.19545867 -0.0099905616 -0.035108553)
(0.19485316 -0.014539139 -0.043422099)
(0.19529996 -0.018858714 -0.050400725)
(0.19660222 -0.021932402 -0.055804563)
(0.19778208 -0.023350225 -0.059917147)
(0.19802717 -0.023516579 -0.063009988)
(0.19717211 -0.023209057 -0.065185393)
(0.19563558 -0.022964727 -0.066517655)
(0.19402289 -0.022888848 -0.06709064)
(0.19280678 -0.022940009 -0.066965656)
(0.19227292 -0.023089319 -0.066167803)
(0.1926136 -0.023285909 -0.064678685)
(0.19396245 -0.023346253 -0.062393222)
(0.19629361 -0.022828972 -0.058999202)
(0.19934792 -0.020642199 -0.053892403)
(0.20260981 -0.013355045 -0.046226187)
(0.19753632 0.0093502802 -0.036035329)
(0.099979582 -0.0038969042 0.0010483622)
(0.10069626 -0.0047444245 0.0015847778)
(0.1025146 -0.0049297793 0.0017711338)
(0.10497101 -0.0047158219 0.0018020236)
(0.10788426 -0.0042972296 0.0017195354)
(0.11119529 -0.0039254452 0.0015013778)
(0.11481197 -0.0037979966 0.0011043188)
(0.11865634 -0.0040258371 0.00045581391)
(0.12271421 -0.0047296075 -0.00056249901)
(0.12696042 -0.0060943761 -0.0020988057)
(0.13141888 -0.0083605323 -0.0043053178)
(0.13617945 -0.011802952 -0.0073409139)
(0.14139434 -0.016733931 -0.011240366)
(0.14701581 -0.023788937 -0.015442039)
(0.15299034 -0.031508607 -0.01895605)
(0.15904167 -0.037714803 -0.021076125)
(0.16458267 -0.040403998 -0.02200985)
(0.16866734 -0.039218969 -0.022796689)
(0.17067746 -0.035517749 -0.024133083)
(0.17079049 -0.031290316 -0.026061464)
(0.16984667 -0.027851013 -0.02821655)
(0.16864611 -0.025386144 -0.030192028)
(0.16749548 -0.023697917 -0.031579939)
(0.16648445 -0.022738095 -0.031973731)
(0.16589721 -0.02257485 -0.031008774)
(0.16632352 -0.023226606 -0.028326435)
(0.16876525 -0.024551905 -0.023420299)
(0.1754492 -0.025976008 -0.015435751)
(0.19243163 -0.025955677 -0.002978409)
(0.25237647 -0.018153666 0.011888191)
(0.10012118 -0.0029411321 0.0010686234)
(0.1002326 -0.0042670085 0.0016317961)
(0.10005416 -0.0047150022 0.0018649782)
(0.099724463 -0.0048784246 0.0019711623)
(0.09945794 -0.0049520506 0.0020103943)
(0.099370588 -0.0050231176 0.0019835626)
(0.099476396 -0.0051789308 0.0018885518)
(0.099754067 -0.0055164109 0.0017375318)
(0.10018475 -0.006172247 0.0015543612)
(0.10081699 -0.0073942471 0.0013213711)
(0.10176488 -0.0095125995 0.00090293998)
(0.10319551 -0.013005848 8.7554427e-05)
(0.10533 -0.01857466 -0.0010525134)
(0.10819766 -0.02679057 -0.0017341748)
(0.11172848 -0.035861347 -0.00062690652)
(0.11562517 -0.042536142 0.0039893722)
(0.12086454 -0.043430267 0.012311058)
(0.12647078 -0.039132477 0.020849529)
(0.13103068 -0.032451717 0.027519974)
(0.13384054 -0.026618434 0.031433023)
(0.13493403 -0.022377702 0.03375289)
(0.13545427 -0.019117503 0.036088429)
(0.13661653 -0.017158221 0.038430365)
(0.13821438 -0.016673377 0.040552321)
(0.13974624 -0.017949571 0.041924627)
(0.14060173 -0.020499982 0.042907349)
(0.14118221 -0.023792519 0.043843816)
(0.14271288 -0.028240075 0.044882064)
(0.1501505 -0.034316649 0.047705567)
(0.18209933 -0.042186768 0.046499575)
(0.098106863 -0.0015804043 0.0010438176)
(0.096792963 -0.0023512494 0.0015885121)
(0.094464603 -0.0026096248 0.0018077965)
(0.091559876 -0.0026857057 0.0018967184)
(0.088653574 -0.0026849816 0.0019148535)
(0.085937428 -0.0026414688 0.0018666666)
(0.083410919 -0.0025980685 0.001755897)
(0.081040474 -0.002610852 0.0015975442)
(0.078777156 -0.0027607677 0.0014231636)
(0.076592587 -0.0031870205 0.0012763328)
(0.074415957 -0.0041544341 0.001206977)
(0.072031793 -0.0061434541 0.0012931585)
(0.069091164 -0.0098754542 0.0014537718)
(0.065239827 -0.015664247 0.0015687639)
(0.060522595 -0.020847133 0.0039780568)
(0.05667663 -0.020271004 0.015211146)
(0.058233518 -0.011572502 0.040112245)
(0.060768655 0.0018701688 0.064180286)
(0.063908491 0.015525172 0.082705926)
(0.068603692 0.02648365 0.095742494)
(0.075608993 0.033550365 0.1036974)
(0.083772958 0.036270722 0.10721367)
(0.091181037 0.035898554 0.10811633)
(0.097336309 0.03337884 0.10702536)
(0.10187514 0.029612516 0.10425113)
(0.10520054 0.024380898 0.099047806)
(0.10733789 0.018112326 0.091676192)
(0.1084833 0.010969296 0.082638137)
(0.11530977 0.0032655966 0.07306084)
(0.14681352 -0.0034530952 0.048282657)
(0.10572956 -0.0024749297 0.00033982849)
(0.12010853 -0.0025622669 0.00055196148)
(0.13305673 -0.0024070173 0.00062693071)
(0.14361364 -0.0019880183 0.00060671359)
(0.15285988 -0.0013860911 0.00051586842)
(0.16128594 -0.00079067434 0.00035518772)
(0.16891951 -0.00031104129 9.0969196e-05)
(0.17574564 1.7875732e-05 -0.00029462036)
(0.18177666 0.00016944169 -0.00081682367)
(0.18700192 9.8013788e-05 -0.0014953812)
(0.19137646 -0.00028001614 -0.0023388692)
(0.19482536 -0.0011101513 -0.003295921)
(0.19675127 -0.0026245865 -0.004156625)
(0.19686442 -0.0056097059 -0.0045108243)
(0.1967221 -0.0091186378 -0.0039828064)
(0.19689263 -0.012517389 -0.0029269631)
(0.19648239 -0.015777798 -0.0023076558)
(0.19492129 -0.019129616 -0.002874867)
(0.1923554 -0.02253243 -0.0046560246)
(0.18914317 -0.025945682 -0.0071867868)
(0.18565739 -0.029378186 -0.00993733)
(0.18230408 -0.032726294 -0.012489583)
(0.17939191 -0.035759763 -0.01456519)
(0.17704271 -0.038243778 -0.0160118)
(0.1752809 -0.040084951 -0.016717249)
(0.17421367 -0.041423127 -0.016504713)
(0.17433262 -0.042504496 -0.015304111)
(0.17696721 -0.042947466 -0.014170474)
(0.18377851 -0.038900353 -0.016522812)
(0.19364198 -0.021967771 -0.023750875)
(0.099856296 -0.0039102447 0.00033320005)
(0.1003388 -0.0047460404 0.00055903871)
(0.10202583 -0.0048901106 0.00064597933)
(0.104463 -0.0046085744 0.00062969935)
(0.10738619 -0.0041063761 0.00052342899)
(0.11067574 -0.0036385678 0.00030969222)
(0.11421507 -0.0033481542 -4.6378095e-05)
(0.11791002 -0.0032980627 -0.00058563037)
(0.12171177 -0.0035688717 -0.0013567091)
(0.12561455 -0.0042837765 -0.0024396673)
(0.12966813 -0.0056900713 -0.0038972963)
(0.1340315 -0.0082031725 -0.0057205477)
(0.13901915 -0.012423664 -0.0076898831)
(0.14461554 -0.018895571 -0.0092526173)
(0.15027165 -0.024986609 -0.010274691)
(0.15478094 -0.028893843 -0.011911277)
(0.15685538 -0.031248663 -0.015494167)
(0.15653365 -0.033338329 -0.020874233)
(0.15474534 -0.035111768 -0.027120773)
(0.15201946 -0.036647664 -0.033222142)
(0.1485674 -0.038315672 -0.038341798)
(0.14463283 -0.040261221 -0.042009541)
(0.1404102 -0.042288889 -0.044057533)
(0.13591692 -0.044122305 -0.044491555)
(0.13116469 -0.045781949 -0.043152584)
(0.12633667 -0.047871042 -0.039478507)
(0.12293591 -0.051240183 -0.03320856)
(0.12577759 -0.055793511 -0.027469033)
(0.14226148 -0.054241661 -0.034624994)
(0.19253981 -0.035773817 -0.056960254)
(0.10000228 -0.0029366873 0.00033756143)
(0.099890339 -0.0042567104 0.00056961285)
(0.099586997 -0.004685255 0.00067045901)
(0.099246802 -0.0048174703 0.00067188851)
(0.099012908 -0.0048478014 0.00058401397)
(0.098952921 -0.0048561172 0.00038738482)
(0.09905742 -0.0049120223 4.6110925e-05)
(0.099283543 -0.0050948965 -0.0004900649)
(0.099617248 -0.0055229417 -0.0012888855)
(0.10003485 -0.0063870929 -0.0024277366)
(0.10051319 -0.0080732487 -0.0040376029)
(0.10113189 -0.011284751 -0.0062348223)
(0.10217192 -0.017141718 -0.008923404)
(0.10360262 -0.025598388 -0.011467828)
(0.1045813 -0.03205105 -0.013395692)
(0.10382112 -0.033480581 -0.01575775)
(0.099991699 -0.032037012 -0.019932887)
(0.095230702 -0.031347494 -0.023446359)
(0.09111619 -0.031190055 -0.027281226)
(0.086936072 -0.031861335 -0.031897027)
(0.081609769 -0.03366921 -0.035693004)
(0.075327151 -0.036278337 -0.037392416)
(0.068906183 -0.03905254 -0.036836691)
(0.062642777 -0.041593465 -0.034252899)
(0.057287471 -0.043986547 -0.028702414)
(0.053541576 -0.047391275 -0.018865527)
(0.053210767 -0.052978779 -0.0061715857)
(0.060335633 -0.061807146 0.00089191571)
(0.072115281 -0.065676196 -0.024035726)
(0.10508227 -0.054894577 -0.072341186)
(0.09799042 -0.0015756391 0.00032891608)
(0.096456797 -0.0023415956 0.00055034792)
(0.094005321 -0.002592094 0.00064208769)
(0.091088748 -0.0026582817 0.00063528704)
(0.088212033 -0.0026450365 0.00053966783)
(0.085517862 -0.0025840851 0.00033455307)
(0.082978971 -0.0025143053 -1.8660999e-05)
(0.080538368 -0.0024865458 -0.00057746925)
(0.078148557 -0.0025700151 -0.0014253557)
(0.075680478 -0.0028939959 -0.0026804915)
(0.072859354 -0.0037405256 -0.0046080276)
(0.069194689 -0.0057780654 -0.0076923328)
(0.063822816 -0.010584665 -0.012935797)
(0.05475962 -0.018635286 -0.021629847)
(0.040755156 -0.022264192 -0.0318735)
(0.02610653 -0.017104306 -0.036763127)
(0.015349336 -0.011051507 -0.028857095)
(0.024061017 -0.0083084439 0.0084254016)
(0.025592518 0.00062540512 0.043927213)
(0.029350597 0.0098186519 0.06642278)
(0.035278669 0.016224195 0.079140514)
(0.041720088 0.019145796 0.08536571)
(0.047115206 0.019199471 0.087532715)
(0.050394074 0.016804657 0.086582883)
(0.050629072 0.012175423 0.082699129)
(0.047874634 0.0046794414 0.075485414)
(0.0428978 -0.0059748235 0.065111118)
(0.039763159 -0.020923932 0.048326059)
(0.024486366 -0.027965508 -0.011639726)
(0.033246588 -0.0061467346 -0.10079532)
(0.10570064 -0.0024763365 0.00016937004)
(0.1200013 -0.0025585381 0.00030097887)
(0.13286259 -0.0023883801 0.00036983232)
(0.14335148 -0.0019385238 0.00037671967)
(0.15255695 -0.0012795038 0.00032750394)
(0.16098461 -0.00058802394 0.0002230221)
(0.16868754 3.8298982e-05 6.4619699e-05)
(0.1756745 0.00057937507 -0.00014824287)
(0.18201147 0.0010394284 -0.00042103763)
(0.18779477 0.0014093211 -0.00074415166)
(0.1931597 0.0016442164 -0.0010643958)
(0.19833853 0.0016307658 -0.0012162765)
(0.20316061 0.0012245815 -0.00077314397)
(0.20770695 0.00026214758 0.00094247076)
(0.21304043 0.00047586604 0.0041198397)
(0.21858921 0.0016720376 0.0081273291)
(0.22309724 0.0028260681 0.012468929)
(0.22614681 0.0033771566 0.017056068)
(0.22810801 0.0031791402 0.022007729)
(0.22927823 0.002220686 0.027467783)
(0.22976009 0.0006179578 0.033530972)
(0.2295872 -0.0014769132 0.040128147)
(0.22873185 -0.003939204 0.046920818)
(0.22722784 -0.0066403721 0.05330239)
(0.22535019 -0.0092772003 0.058542331)
(0.22352239 -0.011085269 0.061978301)
(0.22176179 -0.010809397 0.062998947)
(0.21875073 -0.0073283247 0.060580859)
(0.20943548 0.0022088354 0.050744048)
(0.14940601 0.030991697 0.028319684)
(0.099825836 -0.0039119732 0.00016618352)
(0.10020713 -0.0047411894 0.00030163096)
(0.101761 -0.0048638222 0.00036775238)
(0.10406846 -0.0045375755 0.00035920473)
(0.10686418 -0.0039540116 0.0002781629)
(0.11001541 -0.0033508417 0.0001185577)
(0.1133977 -0.0028525751 -0.00013544133)
(0.11692037 -0.0024992534 -0.0005098537)
(0.120551 -0.0023306751 -0.0010378526)
(0.12433612 -0.0024601569 -0.0017454712)
(0.12846254 -0.0031600262 -0.0026127956)
(0.13338309 -0.0049687481 -0.0034754795)
(0.13985465 -0.0084894189 -0.0038299404)
(0.14811675 -0.012283098 -0.0028224615)
(0.15714825 -0.011808514 -0.00097184869)
(0.16471397 -0.0084328942 0.00022836143)
(0.16972259 -0.0054983449 2.6394213e-05)
(0.17261488 -0.0043937822 -0.0014609845)
(0.17405232 -0.0051016648 -0.0039366402)
(0.17441938 -0.006930588 -0.0069194015)
(0.17402514 -0.009239163 -0.0097090772)
(0.17296663 -0.011649993 -0.011609449)
(0.17111662 -0.014103418 -0.012267026)
(0.16837763 -0.016804669 -0.01178924)
(0.16512222 -0.019759998 -0.010638926)
(0.16245467 -0.02198029 -0.0098770169)
(0.16313208 -0.020143307 -0.01205145)
(0.16864767 -0.010507767 -0.019392131)
(0.17983097 0.01113144 -0.032449933)
(0.18163467 0.049717345 -0.050143359)
(0.099972929 -0.0029342843 0.00016669602)
(0.099762392 -0.0042514167 0.00030218997)
(0.099322304 -0.0046710807 0.00037040459)
(0.098838213 -0.0047851971 0.00036249318)
(0.098449985 -0.0047843525 0.00027596714)
(0.098207254 -0.0047418289 9.9151279e-05)
(0.09808368 -0.0047163003 -0.00019284391)
(0.098023539 -0.0047741383 -0.00063920381)
(0.097969975 -0.0050274266 -0.0012967905)
(0.097879772 -0.0057116841 -0.0022548203)
(0.097789811 -0.0073498408 -0.0035858533)
(0.098053606 -0.011037758 -0.0052627318)
(0.099424974 -0.018465078 -0.0068133312)
(0.10170165 -0.025722382 -0.0067792808)
(0.10515846 -0.024559353 -0.0047490054)
(0.1069786 -0.01882481 -0.0026849614)
(0.10325406 -0.013837542 -0.0033621945)
(0.096892538 -0.011236875 -0.0066336879)
(0.089491175 -0.012101698 -0.011499412)
(0.082343961 -0.015303723 -0.016525413)
(0.075521896 -0.019360415 -0.020132888)
(0.0687809 -0.023249063 -0.02099346)
(0.062219638 -0.026459016 -0.019081454)
(0.056296642 -0.028974593 -0.015709649)
(0.051187326 -0.03160562 -0.012301187)
(0.047895062 -0.034805345 -0.012390895)
(0.052711943 -0.032582471 -0.024031129)
(0.069880452 -0.020642215 -0.041610331)
(0.092880986 0.0021119374 -0.062098327)
(0.10218294 0.036277161 -0.085470201)
(0.097961627 -0.0015773894 0.00016209105)
(0.096331921 -0.002345573 0.00029127034)
(0.093746318 -0.0025959322 0.00035290775)
(0.090685936 -0.0026583234 0.00033767162)
(0.087650518 -0.0026363992 0.00024185132)
(0.084759792 -0.0025601708 5.1610681e-05)
(0.081959588 -0.002466408 -0.00026476779)
(0.079153579 -0.0024059488 -0.00076197207)
(0.076193968 -0.0024596532 -0.0015352151)
(0.072803112 -0.0027995179 -0.0027680346)
(0.068437957 -0.00386157 -0.0047675389)
(0.061955646 -0.0068660878 -0.0081581928)
(0.051759022 -0.014856788 -0.014374481)
(0.0322904 -0.022322545 -0.024762539)
(0.006252797 -0.013065927 -0.032179835)
(-0.017095286 0.0019057631 -0.026996596)
(-0.031598589 0.0035200219 -0.018422325)
(-0.037461532 0.0018714214 -0.0054894866)
(-0.028412043 -0.0004802329 0.016228052)
(-0.02132371 0.00047612823 0.033572957)
(-0.013136289 0.0014243309 0.043984693)
(-0.0063861399 0.0011737968 0.049305982)
(-0.0021412078 -0.00031958242 0.0516506)
(-0.0012043318 -0.0033597087 0.052081265)
(-0.0048961138 -0.0095418425 0.047928008)
(-0.014803905 -0.019206963 0.028268089)
(-0.028433343 -0.02219645 -0.01235786)
(-0.031226284 -0.0025612494 -0.052863761)
(-0.011639686 0.023433116 -0.080666262)
(0.020610721 0.052356336 -0.10584344)
(0.10568395 -0.0024804959 2.5849244e-05)
(0.11994162 -0.0025658248 4.0458672e-05)
(0.13274906 -0.0023977183 3.4458335e-05)
(0.14318603 -0.0019481583 6.6699709e-06)
(0.15234428 -0.0012868562 -4.1301806e-05)
(0.16072625 -0.00059018118 -0.00010957192)
(0.16837778 4.1675773e-05 -0.00020099092)
(0.17529769 0.00058339947 -0.00032179977)
(0.18154648 0.0010294536 -0.00048123278)
(0.18723131 0.0013519933 -0.00068646474)
(0.19254159 0.0014685813 -0.00093177705)
(0.19789351 0.0012198384 -0.0011739538)
(0.20344982 0.0006022738 -0.0012664405)
(0.20948868 0.000216776 -0.0009816073)
(0.21627157 0.0011199934 -0.00036170735)
(0.22291086 0.0024268878 0.00032863919)
(0.22849026 0.0038073611 0.00090162965)
(0.23340325 0.0055409852 0.0014569124)
(0.23832908 0.007762208 0.0021504172)
(0.24366604 0.010519524 0.0031406038)
(0.24941801 0.013838964 0.0046919488)
(0.25510968 0.017704272 0.0071696781)
(0.25989729 0.021920957 0.010887362)
(0.26286858 0.026167033 0.015863339)
(0.26324562 0.030204383 0.021643125)
(0.26008933 0.034218101 0.027315731)
(0.25161327 0.038794507 0.031574121)
(0.23465943 0.044905618 0.032809609)
(0.20561402 0.054616482 0.028504911)
(0.10798348 0.076418491 0.016507942)
(0.099806663 -0.003916843 2.121003e-05)
(0.10013109 -0.0047495896 3.0074749e-05)
(0.10160716 -0.0048735033 1.3721764e-05)
(0.10383329 -0.0045453329 -3.076166e-05)
(0.10654646 -0.0039558131 -0.00010280439)
(0.10960659 -0.0033421936 -0.00020420543)
(0.11287747 -0.0028337116 -0.00034140896)
(0.11625525 -0.0024797664 -0.00052592057)
(0.11970745 -0.0023421286 -0.00077321765)
(0.12331303 -0.0025871074 -0.0010982224)
(0.12737632 -0.0036040727 -0.0014989064)
(0.13265842 -0.006101435 -0.0019159064)
(0.14021656 -0.010222308 -0.002157915)
(0.15019036 -0.010736626 -0.0017394872)
(0.15994391 -0.0068986742 -0.0010925806)
(0.16746942 -0.002685359 -0.0010131674)
(0.17399249 0.00052973426 -0.0014837531)
(0.18053663 0.0031287045 -0.0022138469)
(0.18726201 0.0057591482 -0.0031261484)
(0.19487982 0.0091253071 -0.0042150437)
(0.20379149 0.014027104 -0.0052109696)
(0.21379645 0.021057709 -0.0054555818)
(0.22413862 0.03016423 -0.0043179788)
(0.23386304 0.040574274 -0.0017403099)
(0.24194442 0.051593177 0.0018545625)
(0.24676959 0.063466731 0.0056441608)
(0.24524768 0.076379238 0.0083961931)
(0.23297421 0.090685961 0.0087573976)
(0.20793757 0.10776436 0.0045479466)
(0.12024676 0.13393997 -0.0075710033)
(0.099953495 -0.0029354184 2.028897e-05)
(0.099685188 -0.00425446 2.7911845e-05)
(0.099162099 -0.0046748833 9.7666828e-06)
(0.098584473 -0.0047880591 -3.8600613e-05)
(0.098093443 -0.0047847138 -0.00011870299)
(0.097727089 -0.0047373757 -0.00023476665)
(0.097438254 -0.0047094308 -0.00039794974)
(0.097142022 -0.0047777512 -0.00062793891)
(0.096748729 -0.0050831448 -0.0009548128)
(0.09619136 -0.0059433493 -0.0014261184)
(0.095567468 -0.0080976734 -0.0021023356)
(0.095688601 -0.013155723 -0.0030490239)
(0.097212382 -0.023199342 -0.0043555429)
(0.10085282 -0.023848093 -0.0047500432)
(0.10644299 -0.017321386 -0.0031757727)
(0.10619455 -0.010972627 -0.0031564386)
(0.10402073 -0.005287451 -0.0044361689)
(0.09994482 -0.00036897732 -0.0066371792)
(0.097130006 0.0027415432 -0.0096825892)
(0.0957121 0.0038257427 -0.0133863)
(0.095573107 0.0041060204 -0.016519298)
(0.099662815 0.0055204727 -0.018083513)
(0.10992495 0.0099381898 -0.017775195)
(0.126185 0.01843 -0.015309831)
(0.14318121 0.030338558 -0.010173038)
(0.15966554 0.045249384 -0.0048438015)
(0.17069539 0.061335371 -0.0015583343)
(0.17106538 0.079807194 -0.002023698)
(0.16057381 0.10327092 -0.0071123989)
(0.098230545 0.13736361 -0.017387533)
(0.097942236 -0.0015776074 1.9336689e-05)
(0.096254855 -0.0023461683 2.5622938e-05)
(0.09358518 -0.0025964089 5.7951932e-06)
(0.090427172 -0.0026581967 -4.5129388e-05)
(0.087281516 -0.0026354702 -0.00012956802)
(0.084251282 -0.0025576398 -0.00025305069)
(0.081248585 -0.0024641386 -0.00043100626)
(0.078124559 -0.0024124926 -0.00069156849)
(0.074640763 -0.0025036055 -0.0010863735)
(0.070342343 -0.0029733742 -0.0017152516)
(0.064280961 -0.0044716573 -0.0027811681)
(0.054315443 -0.00901012 -0.0047912318)
(0.03844333 -0.021291671 -0.0093559708)
(-0.0018015307 -0.015225991 -0.019393088)
(-0.035241073 0.0033701819 -0.017848585)
(-0.054067472 0.0057475016 -0.012461885)
(-0.069434369 0.0054546324 -0.0077415142)
(-0.076616702 0.0023023862 -0.0017849424)
(-0.077516728 -0.0024811389 0.0056613454)
(-0.071806898 -0.0071056193 0.013801837)
(-0.062879162 -0.010902172 0.019867727)
(-0.053565788 -0.013914245 0.024285272)
(-0.043756748 -0.015249197 0.027633947)
(-0.031726777 -0.013283631 0.029455782)
(-0.014433163 -0.0063664714 0.027589922)
(0.011142871 0.013100333 0.017199144)
(0.029209466 0.034663688 0.012631767)
(0.033266406 0.054380877 0.0052942606)
(0.037519646 0.081207966 -0.0082494566)
(0.034295439 0.11819389 -0.023702933)
(0.10568426 -0.0024806314 -7.8418142e-05)
(0.11994167 -0.0025659534 -0.00014309193)
(0.13274725 -0.0023977265 -0.00018757704)
(0.14318095 -0.0019478133 -0.00021303362)
(0.15233441 -0.0012859813 -0.00022248218)
(0.16070856 -0.00058918864 -0.00021770554)
(0.16834821 4.222551e-05 -0.00019890359)
(0.17525195 0.00058373737 -0.00016401559)
(0.18148098 0.0010325305 -0.00011102372)
(0.1871417 0.0013623542 -4.7776853e-05)
(0.19241099 0.001494549 1.2354894e-06)
(0.19766689 0.0012777608 -4.697083e-05)
(0.20298809 0.00065914732 -0.00042878807)
(0.20860899 0.00014128841 -0.0014813215)
(0.21497963 0.00099090229 -0.003060635)
(0.22112954 0.0023246379 -0.0047166066)
(0.2260167 0.0035946085 -0.0063638768)
(0.22971885 0.0049814201 -0.0083504496)
(0.23293855 0.006515106 -0.01111024)
(0.2363038 0.0078809994 -0.014935652)
(0.2403269 0.0089128454 -0.019933459)
(0.24511043 0.0099260895 -0.025990332)
(0.25006705 0.011362133 -0.032782978)
(0.25409891 0.013194343 -0.039833663)
(0.25608531 0.015252664 -0.046491441)
(0.25495344 0.017756176 -0.05178882)
(0.24908304 0.021436759 -0.054267383)
(0.23561435 0.027720404 -0.052067681)
(0.21097577 0.039208556 -0.04282541)
(0.12217621 0.065675972 -0.024601263)
(0.099806033 -0.0039171756 -8.0051596e-05)
(0.1001283 -0.0047500846 -0.00015135188)
(0.10160057 -0.0048740643 -0.00020196807)
(0.10382094 -0.0045457225 -0.00022986371)
(0.10652526 -0.0039558257 -0.00023566923)
(0.10957183 -0.0033424605 -0.00021835934)
(0.11282452 -0.0028345892 -0.00017402045)
(0.11617999 -0.0024799706 -9.6176671e-05)
(0.11960076 -0.0023352929 1.8160802e-05)
(0.12315226 -0.0025627988 0.00016689154)
(0.12711266 -0.0035422619 0.00031437794)
(0.13219191 -0.0059842241 0.00033015862)
(0.1394662 -0.010283274 -0.00011192252)
(0.14892136 -0.011546629 -0.0014897756)
(0.15842715 -0.0078788689 -0.0028966811)
(0.16560214 -0.0035482768 -0.003367071)
(0.17113097 -0.00054223445 -0.0031497138)
(0.17614535 0.0011475678 -0.0028562707)
(0.18094292 0.0017548202 -0.0028243381)
(0.18510734 0.0016949352 -0.003067555)
(0.18888255 0.0015887047 -0.003469423)
(0.19323678 0.0023400394 -0.0040662107)
(0.19927556 0.0052626632 -0.0051948197)
(0.20842994 0.011481699 -0.0074040744)
(0.21743792 0.020231611 -0.010278574)
(0.22461613 0.0306217 -0.013001058)
(0.22768798 0.042742493 -0.013780442)
(0.22311851 0.057646264 -0.010229621)
(0.2098339 0.078378329 0.00011310327)
(0.1544299 0.11161333 0.018526541)
(0.099952835 -0.0029357264 -8.0026649e-05)
(0.099682137 -0.0042550123 -0.00015082255)
(0.099154613 -0.0046757047 -0.00020193552)
(0.098570132 -0.0047891236 -0.00023015809)
(0.098068121 -0.0047859553 -0.00023401693)
(0.097685113 -0.0047393933 -0.00020971749)
(0.097374728 -0.0047117458 -0.00014862172)
(0.097053998 -0.0047777322 -3.691792e-05)
(0.096626247 -0.0050750045 0.00014247142)
(0.096004487 -0.0059135419 0.00041648532)
(0.095237612 -0.008014046 0.00080411122)
(0.094985912 -0.012973775 0.0012645935)
(0.096268218 -0.02316442 0.0016044693)
(0.097996461 -0.025626658 0.00057353048)
(0.1029848 -0.019006091 -0.0019424516)
(0.1019875 -0.012258892 -0.0019296274)
(0.098632002 -0.0064170489 -0.00039047904)
(0.091655266 -0.0018664262 0.0018162684)
(0.08364396 -0.00018852386 0.0042293346)
(0.073527832 -0.0021034186 0.007333388)
(0.060954987 -0.0066950816 0.011103536)
(0.047752518 -0.011743006 0.014678034)
(0.037518642 -0.014627388 0.017284069)
(0.034293056 -0.014223482 0.01919617)
(0.051695738 -0.0082679161 0.020017406)
(0.081841767 0.0043211016 0.021216338)
(0.11177066 0.021120932 0.023688567)
(0.12920954 0.041745182 0.030195876)
(0.13861175 0.069193545 0.041730231)
(0.12250135 0.10666457 0.056186191)
(0.097941625 -0.0015777613 -7.7858868e-05)
(0.096251875 -0.0023464641 -0.00014554033)
(0.09357767 -0.0025968582 -0.00019311915)
(0.090412569 -0.0026587474 -0.00021703448)
(0.087254858 -0.0026360092 -0.00021484762)
(0.084206606 -0.002558529 -0.0001813597)
(0.081183243 -0.0024650497 -0.00010367)
(0.07803871 -0.002411255 4.0389824e-05)
(0.074531311 -0.0024960397 0.0002922808)
(0.07019836 -0.0029446052 0.00073942728)
(0.064075009 -0.004371153 0.0015666632)
(0.053981376 -0.0086699999 0.0032334904)
(0.038256694 -0.020549157 0.0071403073)
(-0.0033539985 -0.018438163 0.015147076)
(-0.042769892 0.0029114084 0.014750258)
(-0.062593146 0.0064483664 0.013825425)
(-0.078643593 0.0068641146 0.013534327)
(-0.086396865 0.0042725364 0.011811478)
(-0.08861187 -0.00026059992 0.0089939533)
(-0.081290525 -0.0053281665 0.0048537401)
(-0.070889435 -0.0095633062 0.0018085457)
(-0.060425557 -0.013117927 0.00077063899)
(-0.050832131 -0.016793174 0.0011014828)
(-0.042521504 -0.021141966 0.0027389876)
(-0.035131205 -0.023274696 0.0072689312)
(-0.030129127 -0.016799595 0.020551038)
(-0.016604359 0.0029746302 0.039353493)
(0.0010674968 0.029392884 0.05604989)
(0.01871708 0.058110893 0.073446853)
(0.051683646 0.090646914 0.088148091)
(0.10570071 -0.0024772506 -0.00021627262)
(0.11999866 -0.0025600642 -0.0003927286)
(0.13285174 -0.0023905685 -0.00050677709)
(0.14332744 -0.0019413145 -0.00056120168)
(0.15251515 -0.0012827732 -0.00056311558)
(0.16092022 -0.00059120519 -0.00051446336)
(0.16859437 3.5422362e-05 -0.0004153346)
(0.175542 0.00057597001 -0.00027626938)
(0.18181442 0.0010289806 -9.6700822e-05)
(0.18750024 0.0013912123 0.00011120644)
(0.19272905 0.001622502 0.00028461694)
(0.19769569 0.0016148787 0.00025144107)