/*--------------------------------*- C++ -*----------------------------------*\
| =========                 |                                                 |
| \\      /  F ield         | OpenFOAM: The Open Source CFD Toolbox           |
|  \\    /   O peration     | Version:  v2012                                 |
|   \\  /    A nd           | Website:  www.openfoam.com                      |
|    \\/     M anipulation  |                                                 |
\*---------------------------------------------------------------------------*/
FoamFile
{
    version     2.0;
    format      ascii;
    class       surfaceScalarField;
    location    "660/topAir";
    object      phi;
}
// * * * * * * * * * * * * * * * * * * * * * * * * * * * * * * * * * * * * * //

dimensions      [1 0 -1 0 0 0 0];
oriented        oriented;


internalField   nonuniform List<scalar> 
3140
(
9.5052226e-06
-3.0821969e-07
7.1951e-08
9.6922023e-06
-2.6852657e-07
8.1549645e-08
9.8701706e-06
-2.4830653e-07
7.0365342e-08
1.0013286e-05
-1.9544416e-07
5.2375276e-08
1.0115564e-05
-1.3121442e-07
2.9010169e-08
1.0187092e-05
-7.2301737e-08
8.825978e-10
1.0262815e-05
-2.5119236e-08
-5.045518e-08
1.0364588e-05
1.7067992e-08
-1.1868994e-07
1.0502673e-05
8.0065554e-08
-2.1799443e-07
1.0699518e-05
1.6408407e-07
-3.6077119e-07
1.0948833e-05
3.1329088e-07
-5.6245877e-07
1.1221322e-05
5.6335422e-07
-8.3573227e-07
1.1463745e-05
9.4110234e-07
-1.183477e-06
1.1690399e-05
1.3794424e-06
-1.6061553e-06
1.1871068e-05
1.8700832e-06
-2.0509684e-06
1.1988079e-05
2.3499345e-06
-2.4673693e-06
1.2027027e-05
2.7764335e-06
-2.8160403e-06
1.1985412e-05
3.1227404e-06
-3.0820123e-06
1.1881758e-05
3.371168e-06
-3.2686028e-06
1.1752203e-05
3.5147932e-06
-3.3864886e-06
1.1634347e-05
3.5636461e-06
-3.4471625e-06
1.155307e-05
3.5404291e-06
-3.460605e-06
1.1518619e-05
3.4677827e-06
-3.4348231e-06
1.1529344e-05
3.3628408e-06
-3.3750606e-06
1.1570913e-05
3.2392421e-06
-3.2822832e-06
1.1605545e-05
3.1139655e-06
-3.1500431e-06
1.1549641e-05
3.0159984e-06
-2.9615179e-06
1.1232099e-05
3.0032465e-06
-2.6870995e-06
1.0300712e-05
3.2089025e-06
-2.2788545e-06
3.9635939e-06
-1.6729172e-06
9.1119038e-06
-2.301548e-07
7.9000293e-08
9.0851288e-06
-3.4402363e-07
1.0227373e-07
9.0914465e-06
-3.6222021e-07
1.0760013e-07
9.1444784e-06
-3.5661205e-07
1.081432e-07
9.2428091e-06
-3.3291887e-07
1.0338641e-07
9.3806828e-06
-3.0136025e-07
9.1206001e-08
9.5614268e-06
-2.7517887e-07
6.9351432e-08
9.8017956e-06
-2.5830968e-07
3.5221834e-08
1.0127892e-05
-2.2883689e-07
-1.7066043e-08
1.0568944e-05
-1.6858011e-07
-1.0878007e-07
1.1148952e-05
-2.4145998e-08
-2.4365919e-07
1.185097e-05
2.9716757e-07
-4.3700928e-07
1.2582782e-05
9.0906559e-07
-7.0042741e-07
1.3232234e-05
1.7381902e-06
-1.0080968e-06
1.3728626e-05
2.6785832e-06
-1.3042264e-06
1.4010721e-05
3.5991967e-06
-1.5304672e-06
1.4063598e-05
4.3922104e-06
-1.6678095e-06
1.3924676e-05
5.0145198e-06
-1.752222e-06
1.3667709e-05
5.4553528e-06
-1.8268672e-06
1.3378624e-05
5.7191956e-06
-1.9152678e-06
1.3119962e-05
5.8259388e-06
-2.0038759e-06
1.2917391e-05
5.8102976e-06
-2.0678122e-06
1.2774769e-05
5.702788e-06
-2.0931234e-06
1.2684248e-05
5.524207e-06
-2.0717774e-06
1.262854e-05
5.2871718e-06
-1.9933372e-06
1.256857e-05
5.0107468e-06
-1.8381449e-06
1.2424044e-05
4.7356457e-06
-1.5767088e-06
1.2045737e-05
4.5520922e-06
-1.172303e-06
1.1192448e-05
4.6453947e-06
-5.8488428e-07
5.240114e-06
2.6611226e-07
9.1684667e-06
-2.1071696e-07
8.1056211e-08
8.9983591e-06
-2.8035111e-07
1.064348e-07
8.8148349e-06
-2.935861e-07
1.1488998e-07
8.6303703e-06
-2.9281678e-07
1.2066937e-07
8.4575342e-06
-2.849239e-07
1.2484157e-07
8.3016273e-06
-2.7240028e-07
1.2694804e-07
8.1595037e-06
-2.6083235e-07
1.2777889e-07
8.0277843e-06
-2.5621319e-07
1.2962626e-07
7.9239512e-06
-2.6083439e-07
1.3582506e-07
7.8915766e-06
-2.8173469e-07
1.4549641e-07
8.0477693e-06
-3.3210649e-07
1.5170039e-07
8.5530918e-06
-3.4020112e-07
1.3186653e-07
9.4454715e-06
-5.1203948e-08
6.8526676e-08
1.0640798e-05
5.5814729e-07
-1.3440924e-08
1.1732365e-05
1.6316179e-06
-4.1754734e-08
1.2549225e-05
2.736109e-06
4.964836e-08
1.2997188e-05
3.5992233e-06
3.4837019e-07
1.3131879e-05
4.2253031e-06
6.5738778e-07
1.3063459e-05
4.6461174e-06
8.7985718e-07
1.2913101e-05
4.888996e-06
9.8208641e-07
1.2766379e-05
4.9760346e-06
9.9755325e-07
1.2641971e-05
4.9256219e-06
1.0095201e-06
1.2533538e-05
4.7721103e-06
1.0391727e-06
1.2425617e-05
4.5492188e-06
1.082713e-06
1.2310102e-05
4.2835977e-06
1.1187275e-06
1.2168442e-05
3.9932118e-06
1.1587433e-06
1.1968173e-05
3.7098668e-06
1.2255598e-06
1.1668803e-05
3.5069551e-06
1.3440426e-06
1.1183745e-05
3.5596418e-06
1.5704308e-06
4.2322938e-06
1.8706046e-06
8.9790618e-06
7.9173741e-08
8.5953666e-06
1.0334383e-07
8.1911009e-06
1.1067939e-07
7.7834985e-06
1.1478543e-07
7.3815011e-06
1.1707336e-07
6.9915867e-06
1.1751386e-07
6.6134363e-06
1.1731801e-07
6.2383916e-06
1.1883131e-07
5.8516999e-06
1.2585696e-07
5.4263192e-06
1.4364498e-07
4.9096995e-06
1.8451432e-07
4.3005098e-06
2.6901006e-07
3.8317502e-06
4.1773209e-07
3.770166e-06
6.2129102e-07
4.4576291e-06
9.4742597e-07
5.6250088e-06
1.5725127e-06
6.6443781e-06
2.5833355e-06
7.4426386e-06
3.4298623e-06
8.0743492e-06
4.0164552e-06
8.6101981e-06
4.3544809e-06
9.077198e-06
4.509787e-06
9.4832158e-06
4.5199098e-06
9.8076988e-06
4.4476014e-06
1.0034943e-05
4.3217155e-06
1.0156228e-05
4.1619031e-06
1.0184874e-05
3.9640743e-06
1.0153427e-05
3.7407968e-06
1.0168867e-05
3.4910102e-06
1.0538467e-05
3.1895689e-06
2.6134675e-06
9.6172466e-06
-3.0792801e-07
3.1586275e-08
9.9196011e-06
-2.6965597e-07
4.8838713e-08
1.0201087e-05
-2.6204566e-07
5.092722e-08
1.0435042e-05
-2.2677124e-07
4.5203263e-08
1.0614971e-05
-1.8467362e-07
3.3778731e-08
1.0753549e-05
-1.5280329e-07
1.5143033e-08
1.0853689e-05
-1.3922742e-07
-1.1320418e-08
1.0925698e-05
-1.4705901e-07
-4.3582558e-08
1.0979042e-05
-1.8212525e-07
-8.9158328e-08
1.102248e-05
-2.5173138e-07
-1.5243328e-07
1.106525e-05
-3.6623544e-07
-2.3898086e-07
1.1119019e-05
-5.363858e-07
-3.5317271e-07
1.1203337e-05
-7.7381646e-07
-4.9412116e-07
1.1401669e-05
-1.1461227e-06
-6.5862936e-07
1.1710484e-05
-1.5449758e-06
-8.1523627e-07
1.2082483e-05
-1.8884074e-06
-9.5161304e-07
1.2426918e-05
-2.0773203e-06
-1.0840457e-06
1.2666937e-05
-2.0904129e-06
-1.2327431e-06
1.2777232e-05
-1.9817435e-06
-1.3985005e-06
1.2786437e-05
-1.8323298e-06
-1.5648953e-06
1.2744639e-05
-1.6980586e-06
-1.7089815e-06
1.2691794e-05
-1.5893818e-06
-1.8201378e-06
1.2651828e-05
-1.50342e-06
-1.8932051e-06
1.2638232e-05
-1.4376177e-06
-1.9255691e-06
1.2662544e-05
-1.3918134e-06
-1.9164457e-06
1.2728721e-05
-1.3549391e-06
-1.8629491e-06
1.2821255e-05
-1.3019972e-06
-1.7538227e-06
1.288694e-05
-1.1740298e-06
-1.580711e-06
1.2797974e-05
-8.2761596e-07
-1.3644952e-06
1.5333081e-07
-1.1336802e-06
9.2367968e-06
-2.317127e-07
3.4957045e-08
9.357043e-06
-3.4809982e-07
6.0472059e-08
9.5038269e-06
-3.7153555e-07
7.0308057e-08
9.69061e-06
-3.7659657e-07
7.1189516e-08
9.9134195e-06
-3.6989286e-07
6.5803894e-08
1.0160127e-05
-3.6133935e-07
5.3046953e-08
1.0422289e-05
-3.6275212e-07
3.0733704e-08
1.0697695e-05
-3.8432108e-07
-2.895777e-09
1.0991499e-05
-4.3696958e-07
-5.5997067e-08
1.1301787e-05
-5.404489e-07
-1.3033197e-07
1.1641118e-05
-7.1520632e-07
-2.3402932e-07
1.2027703e-05
-9.8935832e-07
-3.7066351e-07
1.2488456e-05
-1.400634e-06
-5.344203e-07
1.3007126e-05
-1.9756467e-06
-6.9730143e-07
1.3568482e-05
-2.5835915e-06
-8.270601e-07
1.4073797e-05
-2.9786349e-06
-9.456982e-07
1.4419847e-05
-2.9789727e-06
-1.1123501e-06
1.4561311e-05
-2.6472847e-06
-1.336915e-06
1.4517736e-05
-2.1773035e-06
-1.5877973e-06
1.4361348e-05
-1.7615325e-06
-1.8297369e-06
1.4173024e-05
-1.4793801e-06
-2.0343682e-06
1.3973739e-05
-1.2734302e-06
-2.1847603e-06
1.376679e-05
-1.1253597e-06
-2.2647128e-06
1.3559687e-05
-1.0399202e-06
-2.2630856e-06
1.3387129e-05
-1.0397171e-06
-2.1738715e-06
1.3306745e-05
-1.1206082e-06
-1.9933681e-06
1.3412016e-05
-1.2742605e-06
-1.7111834e-06
1.3936483e-05
-1.5120619e-06
-1.3602378e-06
1.5608676e-05
-1.9011423e-06
-1.1849908e-06
-2.2423977e-06
-1.3615445e-06
9.2958028e-06
-2.1311713e-07
3.5618586e-08
9.2759224e-06
-2.8408985e-07
6.230496e-08
9.2442514e-06
-2.9919613e-07
7.4221319e-08
9.213056e-06
-3.0267231e-07
7.7940445e-08
9.1931684e-06
-3.0155854e-07
7.6395079e-08
9.1879763e-06
-2.9824314e-07
6.9044759e-08
9.1971144e-06
-2.9875147e-07
5.4641482e-08
9.2200671e-06
-3.1024869e-07
3.2603411e-08
9.2552893e-06
-3.4128924e-07
4.9251214e-09
9.3153109e-06
-4.069011e-07
-4.8071523e-08
9.4090467e-06
-5.357776e-07
-1.214653e-07
9.5511543e-06
-7.7208554e-07
-2.2751775e-07
9.7630378e-06
-1.1780064e-06
-3.6598977e-07
1.0063634e-05
-1.7911879e-06
-4.9848951e-07
1.0406695e-05
-2.4158987e-06
-5.5254162e-07
1.0696064e-05
-2.7060962e-06
-5.12258e-07
1.0955793e-05
-2.467105e-06
-4.2290431e-07
1.1108417e-05
-1.8285055e-06
-3.1331692e-07
1.1144949e-05
-1.0737555e-06
-2.5925681e-07
1.1097908e-05
-4.0292223e-07
-3.2833912e-07
1.1016927e-05
1.500683e-08
-4.1518886e-07
1.095297e-05
1.9429954e-07
-3.9420365e-07
1.0893454e-05
2.3139277e-07
-2.585592e-07
1.0839068e-05
1.7515298e-07
-7.8858663e-08
1.0747128e-05
3.6617907e-08
1.3315558e-07
1.0604581e-05
-1.7152368e-07
3.508231e-07
1.0479231e-05
-5.0719727e-07
5.8214672e-07
1.0489495e-05
-8.8164655e-07
7.0151838e-07
1.1124249e-05
-1.2851925e-06
3.1812358e-07
-1.635217e-06
-7.9849812e-07
9.1004013e-06
3.4607764e-08
8.8595411e-06
6.0113949e-08
8.5998842e-06
7.1139921e-08
8.3379223e-06
7.407483e-08
8.0817238e-06
7.171307e-08
7.8374477e-06
6.3546682e-08
7.6075346e-06
4.8479564e-08
7.3900904e-06
2.6026788e-08
7.1777627e-06
-3.1044888e-09
6.9729667e-06
-5.8459904e-08
6.754381e-06
-1.3267675e-07
6.4961168e-06
-2.4480775e-07
6.1695767e-06
-4.3372823e-07
5.7511072e-06
-7.5149248e-07
5.3378518e-06
-1.0553919e-06
5.1205395e-06
-9.1573541e-07
5.1193461e-06
1.1870946e-07
5.1947083e-06
1.5270727e-06
5.3047109e-06
2.832975e-06
5.6194071e-06
3.63646e-06
6.0654662e-06
4.0783418e-06
6.5177549e-06
4.2615317e-06
6.9019421e-06
4.2941907e-06
7.1861045e-06
4.2120997e-06
7.3709065e-06
4.0130336e-06
7.497452e-06
3.6651504e-06
7.5518543e-06
3.1783367e-06
7.6172217e-06
2.5431555e-06
8.3653571e-06
1.1554007e-06
-1.0941626e-06
9.594548e-06
-3.0989449e-07
1.588766e-08
9.8875792e-06
-2.7025158e-07
2.6056892e-08
1.0167973e-05
-2.590515e-07
2.9601953e-08
1.0403886e-05
-2.1928359e-07
2.8602022e-08
1.058567e-05
-1.7262381e-07
2.4662144e-08
1.0718674e-05
-1.3616167e-07
1.8361371e-08
1.0811473e-05
-1.1383349e-07
9.7868534e-09
1.0875042e-05
-1.0516633e-07
-1.8877422e-09
1.091378e-05
-1.1314447e-07
-1.4620816e-08
1.0934977e-05
-1.4329137e-07
-3.016374e-08
1.0948451e-05
-2.0570447e-07
-4.6515037e-08
1.0972021e-05
-3.1725924e-07
-5.9162476e-08
1.1038989e-05
-5.0354683e-07
-5.7124095e-08
1.1245084e-05
-8.3717305e-07
-2.7249049e-08
1.1532714e-05
-1.1649762e-06
6.1889856e-08
1.1799428e-05
-1.4120903e-06
1.9273675e-07
1.1987164e-05
-1.5862393e-06
3.1265468e-07
1.2094077e-05
-1.7454195e-06
4.0339948e-07
1.2133996e-05
-1.9061967e-06
4.650641e-07
1.2122375e-05
-2.0657021e-06
5.0954626e-07
1.2082742e-05
-2.2252968e-06
5.5307194e-07
1.2030672e-05
-2.3788916e-06
6.0811332e-07
1.1967905e-05
-2.5112001e-06
6.783368e-07
1.189144e-05
-2.6092423e-06
7.5803956e-07
1.1806698e-05
-2.6718107e-06
8.3829369e-07
1.1745016e-05
-2.7151817e-06
9.1226895e-07
1.1778484e-05
-2.7530758e-06
9.6414985e-07
1.2015802e-05
-2.7477128e-06
9.2783984e-07
1.2382871e-05
-2.3620733e-06
6.2795478e-07
-1.1212449e-06
-6.700312e-08
9.2086153e-06
-2.3159845e-07
1.7014612e-08
9.3159074e-06
-3.4730515e-07
3.0234713e-08
9.4596672e-06
-3.6866652e-07
3.6165907e-08
9.6459827e-06
-3.7016108e-07
3.5756039e-08
9.8674508e-06
-3.5839303e-07
3.0112568e-08
1.0108521e-05
-3.4303678e-07
1.8863911e-08
1.0359871e-05
-3.3418393e-07
-2.4688172e-10
1.0616892e-05
-3.3933414e-07
-2.5721657e-08
1.0878675e-05
-3.6757739e-07
-6.3307121e-08
1.1150229e-05
-4.3123115e-07
-1.1388944e-07
1.1445373e-05
-5.5691288e-07
-1.7787871e-07
1.1795674e-05
-7.8920886e-07
-2.4888184e-07
1.2255309e-05
-1.1929277e-06
-3.0448386e-07
1.2782279e-05
-1.7604023e-06
-3.0096266e-07
1.32441e-05
-2.2043026e-06
-2.4982568e-07
1.3478836e-05
-2.3453908e-06
-2.4767504e-07
1.347313e-05
-2.3436458e-06
-3.4983615e-07
1.3316918e-05
-2.3771159e-06
-5.4955188e-07
1.305371e-05
-2.4164349e-06
-8.1485611e-07
1.2715946e-05
-2.4587451e-06
-1.0994395e-06
1.2329443e-05
-2.5282819e-06
-1.3454602e-06
1.1900273e-05
-2.6233079e-06
-1.5118977e-06
1.1420864e-05
-2.7126718e-06
-1.5847663e-06
1.0887929e-05
-2.7731143e-06
-1.5674997e-06
1.0313149e-05
-2.8142259e-06
-1.4583229e-06
9.7702865e-06
-2.9067669e-06
-1.2610847e-06
9.498549e-06
-3.1394347e-06
-1.05569e-06
9.9482417e-06
-3.5414858e-06
-1.0187294e-06
1.151856e-05
-3.6525394e-06
-1.4681586e-06
-2.947423e-06
-2.3481388e-06
9.2686117e-06
-2.1282609e-07
1.7195211e-08
9.236413e-06
-2.8350048e-07
3.0698779e-08
9.2022488e-06
-2.975718e-07
3.7290551e-08
9.171984e-06
-2.9953227e-07
3.7576369e-08
9.1540889e-06
-2.9639732e-07
3.2294707e-08
9.1496924e-06
-2.9027126e-07
2.0676219e-08
9.156546e-06
-2.864015e-07
6.6521951e-12
9.170636e-06
-2.9106627e-07
-2.9752525e-08
9.1944363e-06
-3.1137736e-07
-7.5072319e-08
9.218666e-06
-3.6217108e-07
-1.4135604e-07
9.2455007e-06
-4.7270386e-07
-2.324987e-07
9.2825297e-06
-7.0383406e-07
-3.4990148e-07
9.3764718e-06
-1.1764172e-06
-4.7643932e-07
9.5404726e-06
-1.8913132e-06
-5.3196636e-07
9.4914882e-06
-2.249319e-06
-4.5940234e-07
9.0731039e-06
-2.0012687e-06
-4.3843884e-07
8.4645563e-06
-1.5764182e-06
-5.8119692e-07
8.0261047e-06
-1.4623422e-06
-7.8880459e-07
7.6165401e-06
-1.1975491e-06
-1.0678162e-06
7.1512618e-06
-9.5423676e-07
-1.3669454e-06
6.6112175e-06
-8.2652733e-07
-1.5764651e-06
6.0354017e-06
-8.2843724e-07
-1.6130871e-06
5.461753e-06
-9.1989312e-07
-1.4778505e-06
4.9212823e-06
-1.0790394e-06
-1.2331483e-06
4.4515553e-06
-1.2979546e-06
-9.1495598e-07
4.1297921e-06
-1.6253203e-06
-6.1126483e-07
4.1829579e-06
-2.0973184e-06
-5.1575215e-07
4.7955226e-06
-2.7835993e-06
-6.7107728e-07
6.051528e-06
-3.0381829e-06
-1.554404e-06
-2.1135431e-06
-3.1493866e-06
9.0739605e-06
1.6773621e-08
8.8208192e-06
2.9754496e-08
8.5585135e-06
3.5873681e-08
8.2973401e-06
3.5715726e-08
8.0427328e-06
2.992286e-08
7.7984892e-06
1.751878e-08
7.5644461e-06
-3.8789971e-09
7.3358291e-06
-3.6422588e-08
7.1089548e-06
-8.7607571e-08
6.8567241e-06
-1.6840031e-07
6.5459824e-06
-2.9463925e-07
6.0988619e-06
-5.015314e-07
5.3534834e-06
-8.6493851e-07
4.1542521e-06
-1.4454454e-06
2.7435586e-06
-1.8976368e-06
1.6354198e-06
-1.8103323e-06
1.6086295e-06
-1.4299241e-06
1.8698547e-06
-1.9449458e-07
2.2152106e-06
1.2893318e-06
2.6318389e-06
2.2633362e-06
3.0890383e-06
2.7921748e-06
3.4950989e-06
3.0248575e-06
3.7794731e-06
3.0880133e-06
3.8688125e-06
3.0420397e-06
3.7166761e-06
2.8656795e-06
3.4016578e-06
2.3534328e-06
2.9931933e-06
1.4881578e-06
2.6034524e-06
1.472519e-07
2.330505e-06
-1.6121243e-06
-3.9527903e-06
9.5889743e-06
-3.1019119e-07
6.0588405e-09
9.8744814e-06
-2.698286e-07
1.0374102e-08
1.0148791e-05
-2.5685512e-07
1.2159122e-08
1.0379656e-05
-2.1408043e-07
1.1838001e-08
1.0556865e-05
-1.6244476e-07
9.9291872e-09
1.0686616e-05
-1.1802148e-07
6.6757198e-09
1.0778132e-05
-8.3878977e-08
2.2121509e-09
1.0839463e-05
-5.9187342e-08
-3.9627219e-09
1.0879939e-05
-4.3409929e-08
-1.1602125e-08
1.0910246e-05
-3.9844914e-08
-2.0503749e-08
1.0950821e-05
-5.7636395e-08
-2.9255741e-08
1.1042458e-05
-1.1749672e-07
-3.2953878e-08
1.1250231e-05
-2.4561887e-07
-1.8730226e-08
1.1617588e-05
-4.2428508e-07
3.0021465e-08
1.1989085e-05
-4.1676504e-07
1.0688164e-07
1.225422e-05
-2.6413427e-07
1.9062924e-07
1.2407964e-05
-1.1927394e-07
2.7627456e-07
1.25021e-05
-6.6436351e-08
3.7307798e-07
1.2574242e-05
-9.9058347e-08
4.8857094e-07
1.2648157e-05
-1.9843134e-07
6.2968563e-07
1.2730945e-05
-3.4005084e-07
8.0481539e-07
1.281142e-05
-4.9428723e-07
1.0151917e-06
1.287172e-05
-6.4578381e-07
1.2559805e-06
1.2906989e-05
-7.9652495e-07
1.5105205e-06
1.2928379e-05
-9.3888427e-07
1.7461726e-06
1.293059e-05
-1.0154644e-06
1.9149182e-06
1.2818742e-05
-8.9447425e-07
1.9582085e-06
1.2388786e-05
-4.6586433e-07
1.8097287e-06
1.1110702e-05
5.1462568e-07
1.3823064e-06
2.694472e-06
6.5236218e-07
9.2010163e-06
-2.3145493e-07
6.231003e-09
9.2967094e-06
-3.4679772e-07
1.1511759e-08
9.4293234e-06
-3.6711198e-07
1.3811002e-08
9.604573e-06
-3.6647394e-07
1.2903398e-08
9.8140244e-06
-3.5078498e-07
9.0069246e-09
1.0041431e-05
-3.2877315e-07
2.2181234e-09
1.0276022e-05
-3.0946478e-07
-9.2387831e-09
1.0514828e-05
-2.9866467e-07
-2.5030421e-08
1.0758531e-05
-3.0379369e-07
-4.6595275e-08
1.1018892e-05
-3.3968863e-07
-7.4351754e-08
1.1328125e-05
-4.3902907e-07
-1.0561316e-07
1.1757504e-05
-6.6512597e-07
-1.3042814e-07
1.2421415e-05
-1.0894194e-06
-1.2429076e-07
1.3201123e-05
-1.4486121e-06
-5.6351331e-08
1.3815538e-05
-1.2978989e-06
1.6538244e-08
1.4201686e-05
-9.3607971e-07
3.7596064e-08
1.4408186e-05
-6.9075874e-07
1.4508192e-08
1.4484581e-05
-6.4764608e-07
-4.5619459e-08
1.4446692e-05
-7.5270087e-07
-1.2457289e-07
1.4328103e-05
-9.5327257e-07
-2.27774e-07
1.4136395e-05
-1.1677233e-06
-3.2845968e-07
1.3858498e-05
-1.3469549e-06
-3.842442e-07
1.347806e-05
-1.4838135e-06
-3.6949201e-07
1.3015671e-05
-1.6160028e-06
-2.8883559e-07
1.256592e-05
-1.7700628e-06
-1.8046302e-07
1.2309887e-05
-1.9001382e-06
-1.2306245e-07
1.2313674e-05
-1.7385682e-06
-2.1696093e-07
1.2385121e-05
-1.0237277e-06
-5.3214019e-07
1.2171007e-05
3.3647966e-07
-1.0925055e-06
2.1999571e-06
-1.8549345e-06
9.2613466e-06
-2.1283252e-07
6.1869202e-09
9.2173593e-06
-2.8355008e-07
1.1438202e-08
9.1710677e-06
-2.9730049e-07
1.3770379e-08
9.127829e-06
-2.9842328e-07
1.2764255e-08
9.0947606e-06
-2.9379071e-07
8.3688741e-09
9.0712373e-06
-2.8527273e-07
6.9932843e-10
9.0536251e-06
-2.7773039e-07
-1.4114991e-08
9.037427e-06
-2.7710245e-07
-3.5115231e-08
9.0165654e-06
-2.9200753e-07
-6.5994053e-08
8.9864193e-06
-3.4057518e-07
-1.1031688e-07
8.9514865e-06
-4.6556349e-07
-1.7101603e-07
8.9524672e-06
-7.7307344e-07
-2.429041e-07
9.1668067e-06
-1.4857468e-06
-2.9451433e-07
9.548679e-06
-2.1279939e-06
-2.3553943e-07
9.5095533e-06
-1.5810687e-06
-1.376911e-07
9.0738192e-06
-7.7731425e-07
-1.6098344e-07
8.5136608e-06
-4.3960284e-07
-2.7095851e-07
7.8393034e-06
-2.8762442e-07
-4.7303231e-07
7.174186e-06
-4.2528259e-07
-7.2884595e-07
6.4965272e-06
-6.2376744e-07
-1.0178465e-06
5.8147805e-06
-8.2391664e-07
-1.2378484e-06
5.1537294e-06
-1.0287255e-06
-1.2694066e-06
4.5220049e-06
-1.219523e-06
-1.1089164e-06
3.9572692e-06
-1.411095e-06
-8.7137002e-07
3.6177828e-06
-1.657448e-06
-6.8671352e-07
3.8041246e-06
-2.0332302e-06
-6.6423111e-07
4.6623871e-06
-2.097701e-06
-1.015461e-06
5.7896618e-06
-1.1803747e-06
-1.6412335e-06
6.5486671e-06
4.1242498e-07
-2.3887543e-06
1.8682607e-06
-3.1117477e-06
9.0669122e-06
5.9813449e-09
8.8021736e-06
1.0942817e-08
8.5277855e-06
1.2961017e-08
8.2534834e-06
1.1594327e-08
7.9828533e-06
6.762111e-09
7.7173009e-06
-2.2018006e-09
7.4541146e-06
-1.842323e-08
7.1835314e-06
-4.2942006e-08
6.8853602e-06
-8.144407e-08
6.519822e-06
-1.434375e-07
6.0068881e-06
-2.4727058e-07
5.166601e-06
-4.3434997e-07
3.6287346e-06
-8.1334673e-07
1.4440733e-06
-1.3942112e-06
-6.3209886e-07
-1.4067529e-06
-2.0505539e-06
-1.1682466e-06
-2.9491859e-06
-9.6916507e-07
-2.8580996e-06
-5.7229477e-07
-2.153907e-06
1.5812785e-07
-1.3229255e-06
8.052141e-07
-6.1133656e-07
1.2530622e-06
-1.2160064e-07
1.503221e-06
1.1623563e-07
1.6284554e-06
4.6872465e-08
1.6975338e-06
-4.0501239e-07
1.6572882e-06
-9.9038739e-07
9.0166919e-07
-1.2926173e-06
-3.1314267e-07
-5.3388475e-07
-1.7996406e-06
1.2637695e-06
-2.997982e-06
-3.7088506e-06
9.5859388e-06
-3.1070614e-07
-2.1942387e-10
9.8673972e-06
-2.7059971e-07
-4.8948249e-10
1.0138034e-05
-2.5769088e-07
-7.7644846e-10
1.0365751e-05
-2.1478919e-07
-1.0733313e-09
1.053993e-05
-1.6284456e-07
-1.3809838e-09
1.0666412e-05
-1.1805557e-07
-1.7216082e-09
1.0754272e-05
-8.3467462e-08
-2.1490389e-09
1.0811705e-05
-5.8616045e-08
-2.7400781e-09
1.0847936e-05
-4.4373032e-08
-3.4011698e-09
1.0877716e-05
-4.5833986e-08
-4.3481627e-09
1.0931298e-05
-7.7114373e-08
-5.5301717e-09
1.1071753e-05
-1.6651331e-07
-6.527128e-09
1.1384146e-05
-3.2468734e-07
-5.9195776e-09
1.182682e-05
-4.0919014e-07
-3.2958265e-09
1.2203701e-05
-2.6865183e-07
-1.8413249e-09
1.2469698e-05
-7.3896978e-08
-2.556099e-09
1.2661916e-05
9.0571724e-08
-7.6134291e-09
1.2817294e-05
2.3601695e-07
-1.944795e-08
1.297703e-05
3.6637533e-07
-3.8751149e-08
1.316949e-05
5.0339303e-07
-6.7529042e-08
1.3396478e-05
6.8181521e-07
-1.055978e-07
1.3621328e-05
9.3636445e-07
-1.4799832e-07
1.3792384e-05
1.2687711e-06
-1.8629634e-07
1.3863766e-05
1.6513141e-06
-2.1518502e-07
1.3793131e-05
2.0470616e-06
-2.338718e-07
1.3508559e-05
2.4370431e-06
-2.4178202e-07
1.2855176e-05
2.8422397e-06
-2.3545911e-07
1.156548e-05
3.3006177e-06
-2.0643847e-07
9.2022566e-06
3.8848072e-06
-1.4446828e-07
4.9838663e-06
-6.8372593e-08
9.1966067e-06
-2.3163452e-07
-4.7837481e-10
9.2859363e-06
-3.4718531e-07
-1.2313417e-09
9.4118235e-06
-3.6756432e-07
-2.2008823e-09
9.5801497e-06
-3.6685291e-07
-3.3567509e-09
9.7819369e-06
-3.5092997e-07
-4.6920013e-09
1.0000911e-05
-3.285605e-07
-6.2478859e-09
1.0225098e-05
-3.0869563e-07
-8.1925311e-09
1.0450169e-05
-2.9832097e-07
-1.0386738e-08
1.0679057e-05
-3.0686002e-07
-1.2973781e-08
1.0929737e-05
-3.5463623e-07
-1.6182509e-08
1.1253953e-05
-4.8706956e-07
-1.9771428e-08
1.1768123e-05
-7.8851916e-07
-2.2391162e-08
1.2620065e-05
-1.2803054e-06
-2.0379282e-08
1.3394002e-05
-1.2257225e-06
-1.3825437e-08
1.3948498e-05
-7.9305416e-07
-1.3827758e-08
1.4368791e-05
-4.3499538e-07
-2.2046455e-08
1.4711467e-05
-2.0591213e-07
-3.372716e-08
1.4970548e-05
-2.3193215e-08
-4.9650743e-08
1.5198718e-05
7.8949955e-08
-7.168169e-08
1.5449653e-05
1.1568126e-07
-1.0047356e-07
1.5744406e-05
1.7685995e-07
-1.314815e-07
1.6011767e-05
4.2346981e-07
-1.5543449e-07
1.6189674e-05
8.6439515e-07
-1.6206412e-07
1.6232456e-05
1.4541648e-06
-1.5424989e-07
1.6095438e-05
2.1295167e-06
-1.4505003e-07
1.5691432e-05
2.8330251e-06
-1.3282312e-07
1.4798967e-05
3.6115634e-06
-1.1012129e-07
1.3140362e-05
4.463167e-06
-5.1226791e-08
1.039424e-05
5.4883842e-06
3.5426579e-08
6.8963559e-06
1.735756e-07
9.2569219e-06
-2.1289767e-07
-5.1108931e-10
9.2062186e-06
-2.8373825e-07
-1.3058103e-09
9.1523159e-06
-2.9752549e-07
-2.3660691e-09
9.1005144e-06
-2.9859596e-07
-3.691351e-09
9.0571126e-06
-2.9385479e-07
-5.3047406e-09
9.0216688e-06
-2.8512536e-07
-7.2919873e-09
8.9866197e-06
-2.7777558e-07
-9.9858731e-09
8.9448302e-06
-2.7849349e-07
-1.3152717e-08
8.8876433e-06
-2.9831036e-07
-1.7355022e-08
8.8079175e-06
-3.6198213e-07
-2.3239841e-08
8.7138517e-06
-5.3273613e-07
-3.1269567e-08
8.7049203e-06
-9.8219201e-07
-4.0278341e-08
9.21801e-06
-2.050529e-06
-3.7584725e-08
9.4681687e-06
-1.6897033e-06
-2.2413323e-08
9.2353806e-06
-6.7936254e-07
-1.8438352e-08
8.9803634e-06
-3.0429065e-07
-3.5704205e-08
8.5937705e-06
-2.152535e-08
-6.7423299e-08
8.1181399e-06
8.8534611e-08
-1.0798045e-07
7.6235639e-06
4.5125322e-09
-1.6017105e-07
7.0977638e-06
-1.6179339e-07
-2.1590988e-07
6.7342802e-06
-4.4849434e-07
-2.5128913e-07
6.8216573e-06
-6.9122758e-07
-2.4389482e-07
7.5167874e-06
-7.5123102e-07
-1.8909574e-07
8.7119839e-06
-5.0291746e-07
-1.0987736e-07
1.0033274e-05
1.4015005e-07
-2.3558761e-08
1.1002787e-05
1.0877954e-06
1.0311068e-07
1.1219306e-05
2.1599415e-06
2.0839286e-07
1.0509899e-05
3.1801058e-06
3.3765326e-07
8.6642152e-06
4.4416496e-06
4.8787854e-07
6.0719372e-06
6.0927828e-07
9.0625385e-06
-5.0241221e-10
8.7910175e-06
-1.274625e-09
8.5087639e-06
-2.3111075e-09
8.2253859e-06
-3.6237885e-09
7.9435554e-06
-5.2624078e-09
7.6636295e-06
-7.4015226e-09
7.3777712e-06
-1.0340759e-08
7.0702602e-06
-1.3924749e-08
6.7097952e-06
-1.9289739e-08
6.2321918e-06
-2.7816819e-08
5.4942189e-06
-4.2037978e-08
4.1442999e-06
-6.6688639e-08
1.3873301e-06
-1.07937e-07
-1.5800593e-06
-1.2521269e-07
-3.6067026e-06
-6.0152802e-08
-5.0189763e-06
-5.9491334e-08
-5.9137915e-06
-9.4555805e-08
-6.2646597e-06
-1.3128598e-07
-5.9647378e-06
-1.3598003e-07
-5.2375498e-06
-8.4242473e-08
-4.444964e-06
1.0746935e-08
-3.7224196e-06
8.8531637e-08
-3.0237919e-06
1.7851892e-07
-2.07984e-06
2.5156807e-07
-5.6077315e-07
2.8213248e-07
1.1172814e-06
3.0966893e-07
2.2249781e-06
7.3537617e-07
2.6312643e-06
9.6801919e-07
2.9752396e-06
1.0939897e-06
1.1247733e-06
9.5859548e-06
-3.107575e-07
-6.4622764e-09
9.8673912e-06
-2.7066737e-07
-1.126413e-08
1.0137954e-05
-2.577735e-07
-1.3557572e-08
1.0365516e-05
-2.1488231e-07
-1.3740852e-08
1.0539405e-05
-1.6294685e-07
-1.2306673e-08
1.0665363e-05
-1.1818871e-07
-9.4737462e-09
1.0752309e-05
-8.3805188e-08
-5.2728466e-09
1.0809052e-05
-5.9180566e-08
-2.8331135e-10
1.0844153e-05
-4.5527948e-08
7.0317636e-09
1.087301e-05
-4.8306971e-08
1.5081915e-08
1.0927242e-05
-8.247185e-08
2.263472e-08
1.1073082e-05
-1.7705291e-07
2.4495237e-08
1.139829e-05
-3.3826353e-07
6.8870258e-09
1.1838425e-05
-3.9579703e-07
-4.7548404e-08
1.2201367e-05
-2.3687159e-07
-1.2738553e-07
1.2451564e-05
-3.9469535e-08
-2.1236186e-07
1.2624701e-05
1.2321382e-07
-3.029715e-07
1.2750734e-05
2.6488519e-07
-4.0926802e-07
1.2868848e-05
3.8109672e-07
-5.367014e-07
1.3012276e-05
4.7873358e-07
-6.8818195e-07
1.3197949e-05
5.7660131e-07
-8.660187e-07
1.3404992e-05
7.1973282e-07
-1.0724904e-06
1.3578355e-05
9.4811382e-07
-1.3049988e-06
1.3663556e-05
1.2509037e-06
-1.5479897e-06
1.3616277e-05
1.5890849e-06
-1.7718443e-06
1.3367429e-05
1.9405131e-06
-1.9291062e-06
1.2775809e-05
2.3157781e-06
-1.9548544e-06
1.1581882e-05
2.7840142e-06
-1.7915153e-06
9.3688685e-06
3.453288e-06
-1.379737e-06
4.7438893e-06
-6.5093794e-07
9.1965665e-06
-2.3167358e-07
-7.1598338e-09
9.2858058e-06
-3.4725606e-07
-1.3881177e-08
9.4115179e-06
-3.6766888e-07
-1.8016132e-08
9.5795293e-06
-3.6700086e-07
-1.9248243e-08
9.7807377e-06
-3.5114172e-07
-1.7704515e-08
9.9984104e-06
-3.2890207e-07
-1.3206889e-08
1.0221244e-05
-3.0949363e-07
-5.3384464e-09
1.0444365e-05
-2.9976962e-07
7.0776139e-09
1.0670399e-05
-3.0970158e-07
2.5157715e-08
1.091795e-05
-3.6078592e-07
4.8720096e-08
1.1241423e-05
-5.0085588e-07
7.50673e-08
1.1766045e-05
-8.1750831e-07
9.3272993e-08
1.2647717e-05
-1.3202756e-06
7.9775562e-08
1.3391864e-05
-1.168138e-06
1.4422075e-08
1.393415e-05
-7.2119071e-07
-7.1585557e-08
1.4339258e-05
-3.8169427e-07
-8.4598388e-08
1.4654606e-05
-1.5878939e-07
-6.5681223e-08
1.4876683e-05
1.9315468e-08
-2.3318327e-08
1.5060424e-05
8.464667e-08
4.5820647e-08
1.5257704e-05
4.8177872e-08
1.4057824e-07
1.5512185e-05
-4.3731262e-08
2.4736867e-07
1.5809747e-05
-3.7491882e-08
3.2387748e-07
1.604943e-05
2.4378369e-07
3.2668694e-07
1.6141333e-05
7.7999348e-07
2.5250389e-07
1.6067311e-05
1.4164992e-06
1.3143472e-07
1.5734096e-05
2.1338392e-06
3.7609968e-08
1.4989698e-05
2.8667928e-06
1.1253372e-07
1.3544375e-05
3.7294161e-06
4.746238e-07
1.1165902e-05
4.8209716e-06
1.0671055e-06
6.3282841e-06
1.7887639e-06
9.2568726e-06
-2.1291845e-07
-7.1781038e-09
9.2060374e-06
-2.8377767e-07
-1.3949282e-08
9.1518801e-06
-2.9758981e-07
-1.8288117e-08
9.0996145e-06
-2.9869941e-07
-1.9727389e-08
9.0553438e-06
-2.9403764e-07
-1.8138513e-08
9.0177281e-06
-2.8554675e-07
-1.303187e-08
8.9805876e-06
-2.785781e-07
-3.7614234e-09
8.9347824e-06
-2.7979798e-07
1.268009e-08
8.8705605e-06
-3.0106986e-07
3.8233753e-08
8.7790332e-06
-3.6858078e-07
7.6078712e-08
8.6676878e-06
-5.4995066e-07
1.2915935e-07
8.6505414e-06
-1.0315475e-06
1.9088974e-07
9.2559245e-06
-2.1842906e-06
2.2126912e-07
9.4083242e-06
-1.4950078e-06
1.5202451e-07
9.190671e-06
-5.8884661e-07
6.5875938e-08
8.9025625e-06
-2.0316367e-07
7.2192535e-08
8.4108955e-06
8.7338674e-08
1.7642654e-07
7.7475239e-06
2.0517904e-07
3.6825827e-07
6.944309e-06
1.0383343e-07
6.231891e-07
5.9614214e-06
-1.1368136e-07
9.2830702e-07
4.8764024e-06
-3.8991346e-07
1.1781145e-06
4.0892272e-06
-7.4465991e-07
1.2486898e-06
4.0650536e-06
-1.0080023e-06
1.0867393e-06
5.0158791e-06
-1.0331672e-06
7.5180692e-07
6.7329344e-06
-7.2420929e-07
4.0212361e-07
8.4931923e-06
1.4660693e-07
3.3922131e-07
9.5218924e-06
1.1814723e-06
8.787654e-07
9.5716608e-06
2.3565945e-06
1.6765589e-06
8.7524579e-06
3.6290156e-06
2.5142127e-06
5.1868972e-06
3.2121731e-06
9.0624859e-06
-6.9542856e-09
8.7908245e-06
-1.3391159e-08
8.5082845e-06
-1.7361152e-08
8.2243391e-06
-1.8378024e-08
7.9412861e-06
-1.6247216e-08
7.6587367e-06
-1.0399157e-08
7.3703869e-06
-5.6925085e-10
7.0566795e-06
1.9984344e-08
6.6839033e-06
5.2416405e-08
6.1805297e-06
1.0697598e-07
5.3864833e-06
2.0206147e-07
3.9094652e-06
3.788537e-07
8.7128339e-07
7.4704569e-07
-2.0604321e-06
1.3183921e-06
-3.9792433e-06
1.2679001e-06
-5.3020064e-06
1.0568519e-06
-6.1472464e-06
8.3440385e-07
-6.4759126e-06
3.9942865e-07
-6.2017305e-06
-3.0868762e-07
-5.5498391e-06
-8.4990384e-07
-4.7731866e-06
-1.1548062e-06
-4.1292131e-06
-1.2982181e-06
-3.6108157e-06
-1.3453068e-06
-3.0726587e-06
-1.3171619e-06
-2.2968845e-06
-1.216432e-06
-1.1221018e-06
-7.2066895e-07
2.2364543e-07
5.6990966e-07
1.3008344e-06
2.2501473e-06
2.4966263e-06
3.5305314e-06
4.2628752e-06
9.5889657e-06
-3.1036403e-07
-1.610924e-08
9.8743413e-06
-2.7006855e-07
-2.6576623e-08
1.0148383e-05
-2.5719316e-07
-3.0399554e-08
1.0378821e-05
-2.1452754e-07
-2.9641415e-08
1.0555423e-05
-1.630131e-07
-2.5885656e-08
1.0684417e-05
-1.1875733e-07
-1.9704015e-08
1.0775206e-05
-8.4797605e-08
-1.1266183e-08
1.0834615e-05
-6.0438357e-08
7.2374506e-10
1.0873469e-05
-4.522629e-08
1.3370099e-08
1.0902221e-05
-4.2749386e-08
2.9032273e-08
1.0941983e-05
-6.2619272e-08
4.5414108e-08
1.1034668e-05
-1.2614454e-07
5.7806796e-08
1.1246126e-05
-2.5962671e-07
5.483797e-08
1.1614241e-05
-4.3873519e-07
2.3155424e-08
1.197515e-05
-4.1413609e-07
-7.3370995e-08
1.2221122e-05
-2.5295684e-07
-2.0375833e-07
1.2352068e-05
-1.1156237e-07
-3.1994994e-07
1.24206e-05
-7.0933566e-08
-4.0371011e-07
1.2467004e-05
-1.2423548e-07
-4.5483357e-07
1.2523543e-05
-2.5696834e-07
-4.827563e-07
1.2605866e-05
-4.417498e-07
-5.0075923e-07
1.2697038e-05
-6.3496025e-07
-5.2223394e-07
1.2758419e-05
-8.0286034e-07
-5.5659303e-07
1.2768681e-05
-9.4743685e-07
-6.0360185e-07
1.2745136e-05