/*--------------------------------*- C++ -*----------------------------------*\
| =========                 |                                                 |
| \\      /  F ield         | OpenFOAM: The Open Source CFD Toolbox           |
|  \\    /   O peration     | Version:  v2012                                 |
|   \\  /    A nd           | Website:  www.openfoam.com                      |
|    \\/     M anipulation  |                                                 |
\*---------------------------------------------------------------------------*/
FoamFile
{
    version     2.0;
    format      ascii;
    class       volScalarField;
    location    "660/topAir";
    object      rho;
}
// * * * * * * * * * * * * * * * * * * * * * * * * * * * * * * * * * * * * * //

dimensions      [1 -3 0 0 0 0 0];


internalField   nonuniform List<scalar> 
1200
(
1.0683467
0.99656512
0.93945131
0.8922213
0.85182301
0.81647314
0.78519157
0.75763939
0.73375902
0.71310594
0.6954505
0.68076546
0.66943763
0.67005462
0.67398541
0.68121439
0.69090802
0.70173671
0.71238127
0.72187428
0.72968321
0.73561492
0.7396887
0.74202457
0.74276033
0.74197514
0.73961836
0.73540595
0.72858759
0.71797874
1.1565172
1.1525709
1.147216
1.140724
1.1332955
1.1250918
1.1162593
1.1061378
1.092571
1.0748557
1.0505555
1.019198
0.98168707
0.94437743
0.91067372
0.88278504
0.86115613
0.84542224
0.83498702
0.82909424
0.82663086
0.82624696
0.82669313
0.82696984
0.82629312
0.82395161
0.81914426
0.81073278
0.79668611
0.77544832
1.1585733
1.158441
1.1581955
1.1578132
1.157274
1.1565612
1.1556619
1.1545469
1.1531326
1.1513196
1.1488196
1.1408392
1.1206821
1.0875836
1.0464455
1.0029843
0.962512
0.92761543
0.89933849
0.87776737
0.86227768
0.85172675
0.84477844
0.84016522
0.83680238
0.83376951
0.83022853
0.82523263
0.81721047
0.80398178
1.158618
1.1586136
1.158603
1.1585823
1.1585465
1.1584896
1.1584043
1.1582818
1.1581089
1.1578659
1.1575056
1.1567317
1.1543917
1.1419522
1.1093622
1.0657021
1.0226499
0.9833136
0.94910967
0.92076679
0.89835752
0.88132864
0.86871373
0.85943631
0.85250836
0.84709253
0.84245682
0.83785463
0.83221221
0.82390379
1.0683515
0.99727739
0.94132899
0.8955983
0.8570307
0.82388317
0.79518649
0.77040776
0.74936155
0.7321292
0.71903173
0.71056905
0.7076151
0.72106445
0.7393523
0.75990162
0.77910194
0.79431361
0.8047757
0.8112
0.81479907
0.81649893
0.81682743
0.81601729
0.81413626
0.81108867
0.80659495
0.8000049
0.78962425
0.77229135
1.1565197
1.152646
1.1474912
1.1413642
1.1345019
1.1271037
1.1193683
1.1115121
1.1037848
1.0965063
1.0900925
1.0850697
1.0820679
1.0818958
1.0834864
1.0843162
1.0819697
1.0759858
1.0675496
1.0580963
1.0483488
1.0383105
1.0277845
1.016477
1.0040936
0.99041396
0.97543181
0.95937889
0.94201135
0.92041373
1.1585734
1.1584446
1.1582118
1.1578588
1.1573744
1.1567523
1.155992
1.1551005
1.1540933
1.1530017
1.1518799
1.1507244
1.149559
1.1481353
1.1438515
1.1335057
1.1149675
1.0904418
1.0645979
1.0414771
1.0219245
1.0031677
0.98506517
0.96773267
0.95163386
0.9357078
0.9191491
0.90221968
0.8849701
0.86695671
1.158618
1.1586137
1.1586039
1.1585852
1.158554
1.1585061
1.158437
1.1583421
1.1582169
1.1580562
1.1578529
1.1575701
1.1569491
1.1537632
1.1405905
1.1140357
1.0804736
1.0395246
0.99903254
0.96351649
0.93508137
0.9143423
0.89833569
0.88541829
0.87452445
0.8658436
0.85886789
0.85286307
0.84702602
0.83936529
1.0683389
0.99712851
0.94102771
0.89513452
0.85638246
0.82300517
0.79394443
0.76852808
0.74639262
0.72744185
0.71188498
0.70033171
0.69414744
0.70553246
0.72154587
0.73931288
0.75674542
0.77317594
0.78834849
0.80203196
0.81405258
0.82414903
0.83190347
0.836882
0.83882444
0.83775971
0.83388622
0.82724374
0.81626798
0.79800746
1.156519
1.1526316
1.1474521
1.1412928
1.1343885
1.1269292
1.1190892
1.1110485
1.1030259
1.0953115
1.0883533
1.0828536
1.0797899
1.0798613
1.0807419
1.0800007
1.0773902
1.0734541
1.0681794
1.0614717
1.0531802
1.0429294
1.0303081
1.0151539
0.99757086
0.97777175
0.95609891
0.9333492
0.90969295
0.88291321
1.1585734
1.158444
1.1582099
1.1578549
1.1573683
1.1567439
1.1559805
1.1550833
1.1540672
1.1529656
1.1518451
1.1508297
1.1499808
1.1474937
1.1378503
1.1219723
1.1064548
1.0937718
1.0810376
1.0672084
1.0515478
1.0328501
1.0107578
0.98601615
0.95980046
0.93387243
0.91014165
0.8894167
0.86786722
0.84308979
1.158618
1.1586137
1.1586038
1.158585
1.1585537
1.1585059
1.1584371
1.1583431
1.1582196
1.1580626
1.1578668
1.1575893
1.1565454
1.1468941
1.110998
1.0648579
1.0380755
1.0364741
1.0145106
0.9839835
0.95585648
0.93352363
0.91578705
0.90126236
0.88888392
0.87839298
0.8695253
0.86130333
0.84417481
0.81534617
1.0683187
0.9970493
0.94084223
0.89479045
0.85579908
0.82205146
0.79242387
0.76616995
0.74279244
0.72204033
0.70398229
0.68921314
0.67910696
0.68495974
0.68996715
0.69174872
0.69093615
0.68931621
0.68837895
0.68909657
0.69190754
0.69669528
0.70304872
0.71049423
0.71834299
0.7251959
0.72851927
0.72525665
0.71477369
0.69931307
1.1565183
1.152625
1.1474279
1.1412337
1.1342682
1.1267048
1.1186912
1.1103707
1.1019124
1.0935724
1.0858234
1.0795404
1.0758533
1.073859
1.0701336
1.0648265
1.0588586
1.0527636
1.0465862
1.0399409
1.0320654
1.0222385
1.0102302
0.99633528
0.98078656
0.96329159
0.94390151
0.92243083
0.8867728
0.82363091
1.1585734
1.1584437
1.1582086
1.1578511
1.1573595
1.1567258
1.155946
1.1550215
1.1539627
1.1528002
1.1516124
1.1505578
1.149365
1.1415155
1.1237867
1.1096588
1.1002595
1.0929682
1.0840856
1.0713702
1.0536329
1.030689
1.0040461
0.97589438
0.94701776
0.91829878
0.892882
0.87100628
0.84764158
0.8149235
1.158618
1.1586137
1.1586037
1.1585848
1.1585531
1.1585044
1.1584341
1.1583372
1.1582085
1.1580422
1.1578265
1.1574197
1.1544342
1.1211761
1.0436755
0.99612039
0.99196657
0.99283099
0.99271651
0.97640804
0.95614634
0.93719103
0.92012168
0.90528603
0.89027557
0.87512196
0.85977958
0.84217391
0.81802229
0.79555832
1.0683068
0.99701508
0.94077675
0.89468709
0.85564908
0.82184728
0.79215632
0.76583537
0.74241759
0.72171929
0.70397961
0.6900971
0.68136459
0.68848235
0.69189549
0.69094707
0.68789565
0.68340297
0.67818292
0.67277933
0.66767608
0.66330351
0.66000712
0.65800204
0.65728893
0.65750653
0.65776478
0.65660469
0.65217329
0.64248609
1.156518
1.152622
1.1474176
1.14121
1.1342234
1.1266296
1.118575
1.1102043
1.1016999
1.0933676
1.0858122
1.0801433
1.0772151
1.0732065
1.0673567
1.0605492
1.049907
1.0340703
1.0148304
0.992738
0.9675704
0.9389466
0.90731226
0.87420169
0.84159968
0.81099734
0.78281446
0.75635365
0.72983357
0.69976946
1.1585734
1.1584436
1.1582079
1.1578492
1.1573552
1.1567174
1.1559313
1.1549975
1.1539274
1.1527583
1.1515919
1.1506037
1.1485118
1.1308339
1.1155839
1.1059895
1.1007212
1.0951973
1.087846
1.0758468
1.0565596
1.0299561
0.99934469
0.96840443
0.93706038
0.90353319
0.86853934
0.83199798
0.79279269
0.74879974
1.158618
1.1586137
1.1586037
1.1585847
1.1585528
1.1585036
1.1584324
1.1583339
1.1582021
1.1580302
1.1577954
1.1571554
1.149907
1.057753
0.98279293
0.96942101
0.96312167
0.95788356
0.95124508
0.94477647
0.93508797
0.92408377
0.91342196
0.90418018
0.89678589
0.88860918
0.87262927
0.84627541
0.81092291
0.77023382
1.0682945
0.99699407
0.94074833
0.89465143
0.85560527
0.82179408
0.79209609
0.76577207
0.74236261
0.72169565
0.70403503
0.69031167
0.68176385
0.6885826
0.69147788
0.69010224
0.6872552
0.68297345
0.67800407
0.6729444
0.66833606
0.66463964
0.66217071
0.66105712
0.66120767
0.66219174
0.6630557
0.66232697
0.6582356
0.64891861
1.1565177
1.1526211
1.1474159
1.1412071
1.134219
1.1266234
1.118567
1.1101956
1.1016947
1.0933781
1.0858707
1.0803127
1.0775009
1.0731215
1.067054
1.0601539
1.0485216
1.0322697
1.0134834
0.9933635
0.97266017
0.95052221
0.92564803
0.89835165
0.86983489
0.841479
0.81389197
0.78644794
0.757198
0.7224575
1.1585734
1.1584435
1.1582078
1.1578491
1.1573549
1.156717
1.1559305
1.1549962
1.1539258
1.1527574
1.1515964
1.1506205
1.1483064
1.1290709
1.1147449
1.1062858
1.1008642
1.0947028
1.0869229
1.0755399
1.0563016
1.0270647
0.99091924
0.95602974
0.92794156
0.9041172
0.87874367
0.84988058
0.81545458
0.77359124
1.158618
1.1586137
1.1586037
1.1585847
1.1585527
1.1585036
1.1584323
1.1583336
1.1582016
1.1580291
1.1577924
1.1571133
1.1487609
1.0400693
0.97921157
0.96797535
0.96268615
0.95678306
0.94887314
0.94032805
0.93025583
0.91895732
0.90763306
0.89741569
0.88820417
0.87994522
0.87295324
0.84992704
0.82136207
0.787037
1.0682799
0.99698366
0.9407562
0.89468605
0.85567444
0.82190684
0.79226186
0.76599674
0.74261783
0.72188416
0.70388052
0.68922743
0.67932722
0.68543775
0.69045777
0.69220741
0.69152057
0.69028123
0.69007591
0.69199136
0.69643993
0.70300728
0.71077802
0.718946
0.72693037
0.7336207
0.73672374
0.73311534
0.72162578
0.70592526
1.1565174
1.1526222
1.1474225
1.141225
1.1342551
1.1266864
1.118667
1.1103413
1.1018806
1.0935476
1.0858264
1.0796122
1.0760504
1.0740781
1.0701684
1.0647478
1.0587212
1.0526694
1.0466784
1.04031
1.0326729
1.0227668
1.0100987
0.99495723
0.97780685
0.95861264
0.93843451
0.91744704
0.88623482
0.82678707
1.1585734
1.1584436
1.1582083
1.1578506
1.1573586
1.1567242
1.1559435
1.1550177
1.1539572
1.1527933
1.1516062
1.1505593
1.149352
1.1406582
1.1221129
1.1082772
1.0990843
1.091467
1.0818236
1.0678502
1.0481504
1.0221737
0.99146584
0.95992705
0.93042905
0.9033424
0.88295107
0.86650661
0.84886715
0.82270429
1.158618
1.1586137
1.1586037
1.1585848
1.158553
1.1585043
1.1584338
1.1583366
1.1582074
1.1580402
1.1578233
1.157413
1.1542273
1.1167317
1.0329335
0.99393822
0.99100105
0.99199194
0.99002603
0.97316386
0.95378365
0.93581788
0.91883473
0.90535584
0.89255919
0.87702617
0.86247273
0.8461142
0.82457432
0.80500484
1.0682667
0.99700608
0.94086713
0.89493866
0.85614874
0.82273257
0.79363254
0.76817832
0.74601156
0.72704219
0.7114879
0.69997206
0.69389102
0.70554382
0.72189309
0.74000229
0.75777734
0.77455993
0.79008781
0.8040976
0.81631314
0.82627331
0.83335635
0.83710487
0.83750952
0.83499759
0.83010726
0.82305438
0.81233467
0.79427306
1.1565172
1.1526264
1.1474421
1.1412763
1.1343636
1.1268937
1.119041
1.1109862
1.1029502
1.0952318
1.088286
1.0828289
1.0798607
1.0800832
1.0809821
1.0801316
1.0773761
1.073226
1.0676414
1.0605595
1.0517738
1.0408034
1.0272384
1.0111632
0.99312678
0.97352883
0.95242472
0.93045203
0.90818171
0.88339938
1.1585734
1.1584438
1.1582095
1.1578541
1.1573667
1.1567412
1.155976
1.1550765
1.1540577
1.152953
1.1518314
1.1508198
1.1499846
1.1473752
1.1369689
1.1205009
1.1048985
1.0918956
1.0785389
1.064096
1.047424
1.0270779
1.0030281
0.9770317
0.95159996
0.92839252
0.90738559
0.88894038
0.87024285
0.8485631
1.158618
1.1586137
1.1586038
1.158585
1.1585536
1.1585056
1.1584367
1.1583422
1.158218
1.1580598
1.1578626
1.1575847
1.1565235
1.1461023
1.1070446
1.0612207
1.0368639
1.0337908
1.008407
0.97785283
0.95137315
0.93048369
0.91377263
0.90000113
0.88829298
0.87843643
0.87012228
0.86264452
0.84873768
0.82460005
1.0682456
0.99709893
0.94109639
0.89531736
0.85670369
0.82351242
0.79477253
0.76995096
0.74886643
0.73159852
0.7184801
0.71003366
0.70715732
0.72077652
0.73915405
0.75955616
0.77830041
0.79292526
0.80295633
0.80929296
0.81308576
0.8151154
0.81570682
0.81491268
0.81274234
0.80916282
0.80401104
0.79672822
0.78571857
0.76886394
1.156517
1.1526384
1.1474766
1.1413402
1.1344661
1.1270531
1.1193004
1.1114233
1.1036772
1.0963827
1.0899694
1.0849787
1.0820553
1.0819699
1.0835128
1.0840688
1.0812387
1.0748345
1.0662107
1.0567657
1.0470068
1.0368986
1.0262169
1.0147148
1.0022092
0.98858104
0.97385856
0.95830228
0.94171467
0.91907108
1.1585734
1.1584444
1.1582113
1.1578576
1.1573721
1.1567483
1.1559854
1.1550901
1.1540779
1.1529812
1.1518563
1.1507058
1.1495706
1.1480708
1.1433669
1.1323021
1.1125926
1.0873439
1.0616067
1.0395013
1.0200611
1.0015923
0.98382868
0.96674715
0.95085675
0.93504187
0.91873513
0.90217453
0.88530945
0.86795954
1.158618
1.1586137
1.1586039
1.1585851
1.1585538
1.1585057
1.1584363
1.1583408
1.1582144
1.158052
1.1578456
1.1575553
1.1568929
1.153358
1.1387928
1.1104772
1.0741882
1.0319918
0.99143821
0.95688646
0.9304181
0.91090487
0.8957194
0.88338354
0.87299847
0.86488221
0.85835788
0.85272617
0.84723384
0.84087885
1.068218
0.99634617
0.93916165
0.89186968
0.85141478
0.81601124
0.78468056
0.75708504
0.73316324
0.7124712
0.69478382
0.680084
0.66877255
0.66947908
0.67353627
0.6808837
0.69063353
0.70144238
0.71203016
0.72149015
0.72932186
0.73532831
0.73948574
0.74185231
0.74252286
0.74157192
0.73897676
0.73449776
0.72744542
0.7168066
1.156514
1.1525615
1.1471975
1.1406933
1.133249
1.1250258
1.1161674
1.105912
1.0921175
1.0741649
1.0497642
1.018393
0.98081969
0.9433801
0.90951567
0.88144932
0.85965711
0.84386784
0.83357228
0.82800609
0.82593684
0.8259161
0.82661752
0.82699922
0.82628947
0.823823
0.81882802
0.81017316
0.79584207
0.7744155
1.1585732
1.1584407
1.1581948
1.1578117
1.1572711
1.156556
1.1556531
1.1545303
1.153103
1.1512767
1.1487735
1.1408334
1.1204192
1.0866295
1.0446579
1.0003393
0.95929692
0.92414743
0.89594568
0.87474553
0.85980762
0.84986075
0.84346755
0.83929838
0.83625042
0.83341714
0.82998285
0.8250107
0.81691511
0.80350388
1.1586179
1.1586136
1.158603
1.1585823
1.1585463
1.1584891
1.1584033
1.1582799
1.1581053
1.1578595
1.1574929
1.1566886
1.1541097
1.1400973
1.1048056
1.0598226
1.016451
0.97722169
0.94340692
0.91570967
0.89412206
0.87795507
0.86613825
0.8575445
0.85117156
0.84619347
0.84189826
0.83755747
0.83209997
0.82386613
)
;

boundaryField
{
    maxY
    {
        type            calculated;
        value           nonuniform List<scalar> 
300
(
1.1586174
1.1586174
1.1586174
1.1586174
1.1586174
1.1586174
1.1586174
1.1586174
1.1586174
1.1586174
1.1586131
1.1586132
1.1586132
1.1586132
1.1586132
1.1586132
1.1586132
1.1586132
1.1586132
1.158613
1.1586025
1.1586034
1.1586033
1.1586032
1.1586032
1.1586032
1.1586032
1.1586033
1.1586033
1.1586025
1.1585818
1.1585847
1.1585845
1.1585843
1.1585841
1.1585841
1.1585842
1.1585845
1.1585846
1.1585817
1.158546
1.1585535
1.1585532
1.1585526
1.1585522
1.1585522
1.1585525
1.1585531
1.1585533
1.1585458
1.158489
1.1585055
1.1585053
1.1585039
1.1585031
1.158503
1.1585038
1.1585051
1.1585052
1.1584886
1.1584038
1.1584364
1.1584366
1.1584336
1.1584319
1.1584318
1.1584333
1.1584361
1.1584357
1.1584028
1.1582812
1.1583416
1.1583426
1.1583367
1.1583333
1.1583331
1.1583361
1.1583417
1.1583402
1.1582793
1.1581084
1.1582164
1.1582191
1.1582079
1.1582016
1.1582011
1.1582068
1.1582175
1.1582139
1.1581048
1.1578653
1.1580557
1.1580621
1.1580417
1.1580296
1.1580285
1.1580397
1.1580593
1.1580514
1.1578589
1.1575051
1.1578523
1.1578663
1.157826
1.1577949
1.1577918
1.1578228
1.157862
1.157845
1.1574924
1.1567312
1.1575696
1.1575888
1.1574192
1.1571549
1.1571128
1.1574124
1.1575842
1.1575548
1.156688
1.1543912
1.1569486
1.1565449
1.1544337
1.1499065
1.1487603
1.1542268
1.156523
1.1568923
1.1541092
1.1419517
1.1537627
1.1468936
1.1211756
1.0577526
1.0400688
1.1167312
1.1461018
1.1533575
1.1400968
1.1093617
1.14059
1.1109976
1.043675
0.98279255
0.9792112
1.0329331
1.1070442
1.1387923
1.1048052
1.0657017
1.1140352
1.0648575
0.99612
0.96942064
0.96797498
0.99393783
1.0612202
1.1104767
1.0598222
1.0226495
1.0804731
1.038075
0.99196618
0.96312131
0.96268579
0.99100067
1.0368634
1.0741878
1.0164506
0.98331322
1.0395241
1.0364737
0.9928306
0.9578832
0.9567827
0.99199155
1.0337904
1.0319914
0.97722131
0.94910931
0.99903215
1.0145102
0.99271613
0.95124472
0.94887279
0.99002564
1.0084066
0.99143783
0.94340657
0.92076646
0.96351612
0.98398312
0.97640766
0.94477612
0.9403277
0.97316349
0.97785245
0.9568861
0.91570934
0.8983572
0.93508103
0.95585612
0.95614599
0.93508762
0.93025549
0.95378329
0.9513728
0.93041776
0.89412175
0.88132834
0.91434197
0.93352329
0.93719068
0.92408343
0.91895699
0.93581753
0.93048335
0.91090455
0.87795477
0.86871344
0.89833537
0.91578673
0.92012135
0.91342163
0.90763274
0.9188344
0.9137723
0.89571908
0.86613796
0.85943602
0.88541798
0.90126204
0.90528571
0.90417986
0.89741537
0.90535552
0.90000081
0.88338324
0.85754421
0.85250807
0.87452415
0.88888361
0.89027526
0.89678557
0.88820386
0.89255888
0.88829267
0.87299817
0.85117127
0.84709225
0.86584331
0.87839267
0.87512166
0.88860887
0.87994492
0.87702587
0.87843612
0.86488192
0.84619319
0.84245654
0.8588676
0.869525
0.85977929
0.87262897
0.87295294
0.86247244
0.87012198
0.85835759
0.84189798
0.83785436
0.85286279
0.86130304
0.84217364
0.84627513
0.84992676
0.84611391
0.86264423
0.85272589
0.83755719
0.83221194
0.84702574
0.84417453
0.81802202
0.81092265
0.82136181
0.82457405
0.8487374
0.84723356
0.83209969
0.82390353
0.83936502
0.81534591
0.79555807
0.77023359
0.78703676
0.80500458
0.82459978
0.84087858
0.82386587
)
;
    }
    minX
    {
        type            calculated;
        value           nonuniform List<scalar> 
40
(
1.1586222
1.1586212
1.1586201
1.1586191
1.1586222
1.1586212
1.1586201
1.1586191
1.1586222
1.1586212
1.1586201
1.1586191
1.1586222
1.1586212
1.1586201
1.1586191
1.1586222
1.1586212
1.1586201
1.1586191
1.1586222
1.1586212
1.1586201
1.1586191
1.1586222
1.1586212
1.1586201
1.1586191
1.1586222
1.1586212
1.1586201
1.1586191
1.1586222
1.1586212
1.1586201
1.1586191
1.1586222
1.1586212
1.1586201
1.1586191
)
;
    }
    maxX
    {
        type            calculated;
        value           nonuniform List<scalar> 
40
(
0.71794859
0.77542611
0.80397696
0.8238926
0.77224942
0.92034729
0.86693776
0.83940532
0.79795308
0.88282753
0.84301454
0.81532423
0.69913509
0.82307113
0.81479833
0.79613182
0.6423578
0.69941032
0.74832518
0.77030995
0.64903022
0.72279994
0.77387601
0.78709141
0.70606976
0.826738
0.82282346
0.80542456
0.79448798
0.88332184
0.84838751
0.82433491
0.76899249
0.91912624
0.86799166
0.84090321
0.71690007
0.77456373
0.80364766
0.82396579
)
;
    }
    minZ
    {
        type            calculated;
        value           nonuniform List<scalar> 
120
(
1.0683467
1.1565172
1.1585733
1.158618
0.99656512
1.1525709
1.158441
1.1586136
0.93945131
1.147216
1.1581955
1.158603
0.8922213
1.140724
1.1578132
1.1585823
0.85182301
1.1332955
1.157274
1.1585465
0.81647314
1.1250918
1.1565612
1.1584896
0.78519157
1.1162593
1.1556619
1.1584043
0.75763939
1.1061378
1.1545469
1.1582818
0.73375902
1.092571
1.1531326
1.1581089
0.71310594
1.0748557
1.1513196
1.1578659
0.6954505
1.0505555
1.1488196
1.1575056
0.68076546
1.019198
1.1408392
1.1567317
0.66943763
0.98168707
1.1206821
1.1543917
0.67005462
0.94437743
1.0875836
1.1419522
0.67398541
0.91067372
1.0464455
1.1093622
0.68121439
0.88278504
1.0029843
1.0657021
0.69090802
0.86115613
0.962512
1.0226499
0.70173671
0.84542224
0.92761543
0.9833136
0.71238127
0.83498702
0.89933849
0.94910967
0.72187428
0.82909424
0.87776737
0.92076679
0.72968321
0.82663086
0.86227768
0.89835752
0.73561492
0.82624696
0.85172675
0.88132864
0.7396887
0.82669313
0.84477844
0.86871373
0.74202457
0.82696984
0.84016522
0.85943631
0.74276033
0.82629312
0.83680238
0.85250836
0.74197514
0.82395161
0.83376951
0.84709253
0.73961836
0.81914426
0.83022853
0.84245682
0.73540595
0.81073278
0.82523263
0.83785463
0.72858759
0.79668611
0.81721047
0.83221221
0.71797874
0.77544832
0.80398178
0.82390379
)
;
    }
    maxZ
    {
        type            calculated;
        value           nonuniform List<scalar> 
120
(
1.068218
1.156514
1.1585732
1.1586179
0.99634617
1.1525615
1.1584407
1.1586136
0.93916165
1.1471975
1.1581948
1.158603
0.89186968
1.1406933
1.1578117
1.1585823
0.85141478
1.133249
1.1572711
1.1585463
0.81601124
1.1250258
1.156556
1.1584891
0.78468056
1.1161674
1.1556531
1.1584033
0.75708504
1.105912
1.1545303
1.1582799
0.73316324
1.0921175
1.153103
1.1581053
0.7124712
1.0741649
1.1512767
1.1578595
0.69478382
1.0497642
1.1487735
1.1574929
0.680084
1.018393
1.1408334
1.1566886
0.66877255
0.98081969
1.1204192
1.1541097
0.66947908
0.9433801
1.0866295
1.1400973
0.67353627
0.90951567
1.0446579
1.1048056
0.6808837
0.88144932
1.0003393
1.0598226
0.69063353
0.85965711
0.95929692
1.016451
0.70144238
0.84386784
0.92414743
0.97722169
0.71203016
0.83357228
0.89594568
0.94340692
0.72149015
0.82800609
0.87474553
0.91570967
0.72932186
0.82593684
0.85980762
0.89412206
0.73532831
0.8259161
0.84986075
0.87795507
0.73948574
0.82661752
0.84346755
0.86613825
0.74185231
0.82699922
0.83929838
0.8575445
0.74252286
0.82628947
0.83625042
0.85117156
0.74157192
0.823823
0.83341714
0.84619347
0.73897676
0.81882802
0.82998285
0.84189826
0.73449776
0.81017316
0.8250107
0.83755747
0.72744542
0.79584207
0.81691511
0.83209997
0.7168066
0.7744155
0.80350388
0.82386613
)
;
    }
    topAir_to_rightSolid
    {
        type            calculated;
        value           nonuniform List<scalar> 
130
(
0.4623543
0.4574419
0.45243647
0.44758759
0.44306711
0.43897908
0.43537906
0.4322891
0.42972294
0.42768669
0.42616944
0.42516288
0.42465988
0.46596767
0.4601693
0.45441308
0.44898049
0.44403138
0.43964025
0.43583112
0.43259789
0.42993769
0.42783695
0.42627573
0.4252421
0.42472526
0.47336224
0.46547439
0.45807408
0.45145201
0.44568022
0.44073117
0.43655625
0.43308833
0.43026888
0.4280636
0.42643346
0.42535577
0.42481832
0.48485544
0.47284621
0.46271004
0.45435594
0.44750273
0.4418808
0.43728659
0.43355984
0.43057934
0.42827124
0.42657615
0.42546415
0.42491241
0.49919897
0.48006901
0.46659659
0.45655198
0.44878703
0.44265793
0.43776809
0.43386726
0.43078391
0.42841118
0.42668175
0.42555332
0.42499534
0.49916609
0.48003126
0.46656268
0.45652997
0.44877961
0.44266206
0.43778327
0.43389339
0.43082443
0.42846083
0.42674171
0.42562076
0.42506673
0.48474553
0.47277198
0.46266435
0.45433237
0.44750139
0.44190735
0.43733954
0.43364197
0.43069666
0.4284164
0.4267472
0.42565729
0.42511858
0.47321423
0.46539646
0.45804525
0.45145478
0.4457112
0.44079674
0.43665694
0.43322945
0.43045633
0.42828921
0.42669087
0.42563885
0.42511473
0.46580978
0.46009942
0.45440848
0.44901972
0.44410327
0.43974576
0.43597781
0.43279613
0.4301831
0.42811943
0.42658832
0.42557563
0.42507051
0.46221328
0.45739252
0.45245993
0.44765973
0.44317404
0.43912022
0.43556117
0.43252096
0.43000321
0.42800297
0.42651255
0.4255247
0.42503077
)
;
    }
    topAir_to_heater
    {
        type            calculated;
        value           nonuniform List<scalar> 
40
(
0.47463991
0.47325706
0.47058582
0.46684734
0.48069543
0.47907174
0.47587831
0.47137083
0.49397268
0.4917785
0.48739221
0.48104026
0.51734299
0.51431337
0.50791165
0.49789483
0.55602026
0.55283082
0.54465624
0.52886593
0.55600596
0.55280627
0.54462414
0.52883461
0.51724267
0.51419049
0.50777493
0.49777483
0.49368954
0.49147698
0.48710411
0.48081622
0.4802493
0.47865834
0.47552524
0.47110992
0.4740701
0.47280384
0.4702372
0.46660371
)
;
    }
    topAir_to_leftSolid
    {
        type            calculated;
        value           nonuniform List<scalar> 
130
(
0.37639484
0.37641639
0.3764698
0.37654823
0.37663277
0.37672718
0.37683307
0.37695124
0.37706588
0.37717526
0.37727621
0.37736021
0.37741397
0.37634468
0.37636706
0.37641954
0.37650518
0.37660283
0.37670313
0.37681356
0.37693768
0.37705255
0.37716209
0.37726573
0.37735262
0.37740094
0.37627205
0.37629492
0.37634624
0.37642891
0.37653842
0.37664845
0.37676701
0.376893
0.37700837
0.37711774
0.37721802
0.3773054
0.37735672
0.37620763
0.37622803
0.37627537
0.37635131
0.37646035
0.37657867
0.3767011
0.37682635
0.37694857
0.37706744
0.37717398
0.37725598
0.37730589
0.37616098
0.3761785
0.37622125
0.37628738
0.37637778
0.37649172
0.37662378
0.37675417
0.3768836
0.37700887
0.37711442
0.37719608
0.37725086
0.37612249
0.37613656
0.37617225
0.37622979
0.37630782
0.37640442
0.37651924
0.37664599
0.37678251
0.3769192
0.37703066
0.37711546
0.37717912
0.37608541
0.37609787
0.37613061
0.37618325
0.37625198
0.37633559
0.37643889
0.37654865
0.37666491
0.37678059
0.37688419
0.37697696
0.37706677
0.37604734
0.37606069
0.37609619
0.37614723
0.37620881
0.37628179
0.37636909
0.37646473
0.37656447
0.37666046
0.37674612
0.37681897
0.37688012
0.37601565
0.37602972
0.37606595
0.37611698
0.37617631
0.37624376
0.37632039
0.3764032
0.3764872
0.37656658
0.37663378
0.37668536
0.37671703
0.37599646
0.37600918
0.3760408
0.37609095
0.37615194
0.37621693
0.37628632
0.37635959
0.37643346
0.37650087
0.37655821
0.37660114
0.37662427
)
;
    }
}


// ************************************************************************* //
