/*--------------------------------*- C++ -*----------------------------------*\
| =========                 |                                                 |
| \\      /  F ield         | OpenFOAM: The Open Source CFD Toolbox           |
|  \\    /   O peration     | Version:  v2012                                 |
|   \\  /    A nd           | Website:  www.openfoam.com                      |
|    \\/     M anipulation  |                                                 |
\*---------------------------------------------------------------------------*/
FoamFile
{
    version     2.0;
    format      ascii;
    class       volScalarField;
    location    "660/topAir";
    object      T;
}
// * * * * * * * * * * * * * * * * * * * * * * * * * * * * * * * * * * * * * //

dimensions      [0 0 0 1 0 0 0];


internalField   nonuniform List<scalar> 
1200
(
325.35004
348.78468
369.98898
389.57446
408.05029
425.71715
442.67746
458.77578
473.70674
487.4263
499.8006
510.58197
519.22172
518.74361
515.7182
510.24544
503.08654
495.32327
487.92203
481.5056
476.35262
472.5115
469.90917
468.42991
467.96589
468.4611
469.95384
472.64573
477.0689
484.11807
300.54577
301.57482
302.98248
304.7068
306.70409
308.94044
311.38496
314.23421
318.13617
323.37953
330.85957
341.03907
354.07039
368.05869
381.6804
393.73832
403.62749
411.13927
416.27747
419.23615
420.48548
420.68085
420.4538
420.31311
420.65734
421.85276
424.3285
428.73098
436.29009
448.2391
300.01213
300.0464
300.10998
300.20907
300.34895
300.53406
300.76794
301.05838
301.42765
301.90231
302.55928
304.67574
310.15579
319.59477
332.15875
346.5518
361.12383
374.70918
386.49076
395.98877
403.10219
408.09569
411.45228
413.71151
415.37408
416.88502
418.66306
421.19762
425.33232
432.33072
300.00029
300.00142
300.00415
300.00951
300.01878
300.03354
300.05563
300.08737
300.13216
300.19516
300.28858
300.48949
301.09859
304.37852
313.32034
326.15656
339.88732
353.48413
366.22297
377.49599
386.91253
394.38839
400.11546
404.43462
407.72128
410.32802
412.5859
414.85216
417.66487
421.87668
325.34858
348.53557
369.25096
388.1055
405.57079
421.88824
437.11332
451.17225
463.84365
474.76128
483.40925
489.1665
491.20853
482.04646
470.12306
457.40994
446.13745
437.59359
431.90486
428.48439
426.59171
425.70359
425.53238
425.95484
426.93899
428.54316
430.93066
434.48045
440.19226
450.07169
300.54513
301.55516
302.90981
304.53589
306.37793
308.38898
310.5201
312.71486
314.90409
316.99438
318.85949
320.3355
321.22413
321.27524
320.80357
320.55808
321.25327
323.03986
325.59263
328.50156
331.55595
334.76141
338.18983
341.95193
346.16918
350.95048
356.3409
362.30341
368.98306
377.64127
300.01209
300.04545
300.10575
300.19726
300.32291
300.48442
300.68203
300.91412
301.17671
301.46185
301.75545
302.05844
302.36467
302.73961
303.87338
306.64691
311.74542
318.75702
326.49511
333.74329
340.12884
346.48842
352.85583
359.17563
365.25181
371.46852
378.16062
385.2565
392.76581
400.92658
300.00029
300.00138
300.00393
300.00877
300.01686
300.02927
300.04716
300.07172
300.10417
300.1458
300.19852
300.27184
300.43303
301.26261
304.7419
312.0059
321.69757
334.3699
347.92232
360.74705
371.7171
380.14838
386.9219
392.56672
397.45688
401.44174
404.70225
407.55168
410.36021
414.10549
325.35242
348.58761
369.36918
388.30658
405.8778
422.33831
437.79715
452.27573
465.68869
477.82045
488.26228
496.31706
500.73883
492.65851
481.72484
470.14812
459.31769
449.55686
440.90469
433.38241
426.98291
421.75204
417.82075
415.33516
414.37338
414.90001
416.82725
420.17422
425.82398
435.56795
300.5453
301.55892
302.92013
304.55493
306.40856
308.43672
310.59755
312.84534
315.12074
317.34018
319.36903
320.99107
321.90183
321.88053
321.61826
321.83898
322.61878
323.80175
325.40068
327.45694
330.03497
333.27883
337.36148
342.39761
348.43266
355.48814
363.54634
372.40751
382.09183
393.68107
300.0121
300.04561
300.10626
300.19827
300.32448
300.4866
300.68504
300.91859
301.18352
301.4713
301.76456
302.03082
302.25377
302.90888
305.47607
309.79912
314.1439
317.7866
321.52999
325.69648
330.54703
336.53095
343.88656
352.51553
362.14403
372.1986
381.9032
390.80221
400.50598
412.27637
300.00029
300.00139
300.00396
300.00882
300.01692
300.02932
300.04712
300.07146
300.10347
300.14416
300.19491
300.26688
300.53789
303.06698
312.85899
326.41512
334.83666
335.35399
342.61419
353.24345
363.638
372.33738
379.54866
385.66545
391.03617
395.70645
399.742
403.55793
411.74623
426.30457
325.35858
348.6153
369.442
388.4559
406.15447
422.8283
438.63723
453.66776
467.94579
481.39498
493.74337
504.32378
511.82891
507.45547
503.77262
502.47517
503.06609
504.24832
504.93487
504.40902
502.35979
498.90753
494.3989
489.21792
483.87261
479.30014
477.11365
479.25997
486.28885
497.03988
300.54548
301.56066
302.92654
304.5707
306.44107
308.49816
310.70803
313.0363
315.43918
317.84483
320.11314
321.97623
323.07968
323.67966
324.80647
326.42529
328.26507
330.16557
332.11437
334.2366
336.78709
340.02465
344.06641
348.86477
354.39543
360.83183
368.2442
376.81552
391.96764
422.01699
300.0121
300.04569
300.10661
300.19926
300.32678
300.49131
300.69401
300.93469
301.2108
301.51454
301.82554
302.10219
302.41571
304.49524
309.29893
313.23684
315.91276
318.02025
320.62598
324.43129
329.89291
337.23654
346.1853
356.17175
367.0322
378.51081
389.2855
399.06258
410.06248
426.52594
300.00029
300.00139
300.00397
300.00888
300.01708
300.02969
300.0479
300.073
300.10636
300.14944
300.20536
300.31087
301.08752
310.01884
333.04005
348.93948
350.40064
350.09556
350.13594
355.9841
363.52776
370.88036
377.76064
383.95132
390.42492
397.18553
404.27313
412.72448
424.90994
436.90802
325.36221
348.62727
369.46771
388.50078
406.22567
422.93334
438.78538
453.86596
468.18206
481.60912
493.74525
503.67779
510.13302
504.85908
502.36859
503.05815
505.28964
508.6114
512.52623
516.6427
520.59154
524.02333
526.64053
528.24532
528.81841
528.64339
528.43583
529.36947
532.96645
541.00237
300.54557
301.56144
302.92925
304.57703
306.45316
308.51874
310.74031
313.08323
315.50002
317.90438
320.11643
321.79651
322.67123
323.87646
325.65151
327.7418
331.06391
336.13413
342.50679
350.12893
359.23618
370.18749
383.09444
397.60421
413.00666
428.59113
444.02126
459.55522
476.25417
496.71543
300.0121
300.04572
300.10677
300.19974
300.32788
300.49347
300.69784
300.94094
301.22002
301.52552
301.83093
302.09015
302.64038
307.37142
311.57316
314.27604
315.78024
317.37297
319.51766
323.08134
328.97909
337.47655
347.81394
358.9265
370.93236
384.69646
400.19606
417.77269
438.43245
464.19094
300.00029
300.00139
300.00398
300.00891
300.01717
300.0299
300.04834
300.07387
300.108
300.15256
300.21342
300.37946
302.2729
328.60765
353.67138
358.54982
360.89493
362.86846
365.40082
367.90262
371.71449
376.14096
380.53142
384.42091
387.59059
391.15709
398.32011
410.72421
428.62992
451.27316
325.36595
348.63462
369.47888
388.51626
406.24647
422.96072
438.81874
453.90347
468.21674
481.62489
493.70638
503.52123
509.83427
504.78558
502.67198
503.674
505.76052
508.93126
512.66143
516.51597
520.07746
522.96988
524.91978
525.80403
525.68429
524.90308
524.21913
524.7959
528.05787
535.63959
300.54564
301.56167
302.9297
304.5778
306.45435
308.52045
310.74253
313.08568
315.50152
317.90132
320.09919
321.74604
322.58564
323.90212
325.74389
327.86401
331.50134
336.72045
342.962
349.90847
357.35636
365.67929
375.50588
386.91561
399.60028
413.06588
427.06683
441.96983
459.04277
481.11658
300.01211
300.04573
300.10679
300.19978
300.32795
300.4936
300.69805
300.94128
301.22044
301.52575
301.82975
302.08573
302.6945
307.85137
311.80767
314.19189
315.73922
317.51633
319.78904
323.17352
329.05945
338.42661
350.77129
363.57239
374.57748
384.44796
395.54881
408.98219
426.24818
449.31487
300.00029
300.00139
300.00398
300.00891
300.01718
300.02991
300.04837
300.07394
300.10814
300.15285
300.21421
300.3904
302.57449
334.19479
354.96489
359.08531
361.0582
363.28583
366.31423
369.64306
373.64533
378.23928
382.95846
387.31858
391.33544
395.00843
398.17228
408.95957
423.1822
441.63849
325.37041
348.63826
369.47579
388.50123
406.21363
422.90269
438.72692
453.77034
468.05582
481.49913
493.81475
504.31333
511.66296
507.10158
503.41465
502.14221
502.64094
503.54338
503.69319
502.29895
499.09046
494.42805
489.0226
483.46678
478.15653
473.79592
471.80031
474.1225
481.67137
492.38425
300.54573
301.56139
302.92795
304.57303
306.4446
308.5032
310.71477
313.0446
315.44829
317.85206
320.11227
321.9548
323.02049
323.61364
324.79592
326.44942
328.30768
330.19511
332.08511
334.11798
336.58895
339.84901
344.1112
349.34796
355.47539
362.59303
370.38946
378.86247
392.20558
420.40599
300.01211
300.04571
300.10666
300.19938
300.32701
300.49171
300.69467
300.93569
301.21224
301.51635
301.82718
302.1018
302.41913
304.72409
309.7603
313.62732
316.25054
318.45763
321.29638
325.50073
331.61846
340.04594
350.5779
362.09628
373.57605
384.7777
393.66396
401.13486
409.47044
422.49203
300.00029
300.00139
300.00398
300.00888
300.0171
300.02973
300.04797
300.07315
300.10664
300.14996
300.20618
300.31262
301.14148
311.25268
336.50349
349.70556
350.74203
350.39168
351.08747
357.17082
364.42829
371.42457
378.28975
383.92171
389.42602
396.32315
403.01075
410.80245
421.53362
431.78101
325.37443
348.63042
369.43222
388.39157
405.98859
422.47825
437.9692
452.48166
465.92656
478.08311
488.53478
496.57208
500.92387
492.65058
481.49313
469.71011
458.6922
448.75359
439.93407
432.26909
425.80049
420.66775
417.09231
415.22458
415.02396
416.27247
418.7248
422.31291
427.88581
437.61584
300.54577
301.56028
302.92278
304.55934
306.41529
308.44643
310.61091
312.86288
315.14237
317.36326
319.38878
320.9984
321.88071
321.81441
321.5468
321.79998
322.62299
323.87056
325.56464
327.7386
330.47628
333.95961
338.36964
343.74892
349.99184
357.03746
364.9488
373.56708
382.72764
393.46442
300.01211
300.04565
300.10637
300.19849
300.32489
300.4873
300.68619
300.92035
301.186
301.47458
301.76816
302.03341
302.25278
302.94017
305.71287
310.20593
314.58637
318.33264
322.27489
326.64911
331.84842
338.42224
346.53667
355.75714
365.26484
374.39552
383.06318
391.01161
399.41265
409.61715
300.00029
300.00139
300.00396
300.00883
300.01695
300.02938
300.04724
300.0717
300.10389
300.14488
300.19601
300.26807
300.54358
303.27634
313.97625
327.53388
335.22792
336.22442
344.68794
355.45812
365.35163
373.55383
380.38538
386.20591
391.2963
395.68688
399.46774
402.9305
409.53265
421.52046
325.38085
348.59795
369.34223
388.22729
405.7256
422.07817
437.341
451.43993
464.15032
475.10565
483.78039
489.53536
491.52651
482.23903
470.24915
457.61798
446.5969
438.35979
432.88349
429.49408
427.49061
426.42616
426.11697
426.53222
427.67122
429.56312
432.31558
436.26732
442.38038
452.07801
300.54581
301.55715
302.91367
304.54227
306.38762
308.4028
310.53893
312.73985
314.93478
317.03011
318.8955
320.36236
321.22789
321.25323
320.79576
320.63124
321.47047
323.38588
326.00148
328.91519
331.98093
335.21721
338.70644
342.54578
346.82008
351.60117
356.91656
362.71044
369.09931
378.19296
300.0121
300.04551
300.1059
300.19758
300.3235
300.48546
300.68375
300.91683
301.18073
301.46721
301.76163
302.06335
302.36163
302.75662
304.00217
306.97286
312.41086
319.66519
327.41502
334.37764
340.75016
347.0334
353.29931
359.54178
365.55032
371.73307
378.33101
385.27578
392.61525
400.46335
300.00029
300.00138
300.00394
300.00879
300.0169
300.02936
300.04734
300.07208
300.10482
300.14691
300.20042
300.27569
300.44763
301.36844
305.22297
313.00572
323.57991
336.81055
350.58738
363.24658
373.58016
381.58292
388.05205
393.47094
398.15163
401.88798
404.94271
407.6171
410.25955
413.36011
325.38925
348.86133
370.1031
389.72805
408.24593
425.95812
442.96574
459.1117
474.09168
487.86054
500.28019
511.09358
519.73808
519.18956
516.06209
510.49325
503.28649
495.5311
488.16263
481.76196
476.58863
472.69567
470.03814
468.53868
468.11555
468.71582
470.36186
473.23014
477.81795
484.90972
300.54661
301.57728
302.98737
304.71501
306.71667
308.95856
311.41058
314.29839
318.26826
323.58749
331.10895
341.30865
354.38351
368.4478
382.16638
394.33498
404.33132
411.89659
416.98397
419.7871
420.83881
420.84937
420.49226
420.29818
420.65919
421.91861
424.49238
429.02712
436.7528
448.83691
300.01215
300.04647
300.11017
300.20948
300.34972
300.53541
300.77021
301.06272
301.43537
301.91355
302.57142
304.67729
310.22856
319.8754
332.72713
347.46814
362.33413
376.11533
387.95434
397.35672
404.26022
408.99173
412.09175
414.13879
415.64824
417.06128
418.78699
421.31092
425.48609
432.58786
300.00029
300.00143
300.00416
300.00953
300.01884
300.03366
300.05587
300.08785
300.13308
300.19681
300.29188
300.5007
301.17217
304.87373
314.61256
327.96594
341.96015
355.68772
368.43674
379.58076
388.74534
395.90385
401.30521
405.32683
408.36162
410.76398
412.85963
414.99935
417.72121
421.89597
)
;

boundaryField
{
    maxY
    {
        type            zeroGradient;
    }
    minX
    {
        type            fixedValue;
        value           uniform 300;
    }
    maxX
    {
        type            inletOutlet;
        inletValue      uniform 300;
        value           nonuniform List<scalar> 
40
(
484.13843
448.25195
432.33332
421.88239
450.09614
377.66848
400.93532
414.08573
435.59763
393.71925
412.31316
426.31604
497.16645
422.30401
426.59147
436.5933
541.11047
496.97053
464.48535
451.22856
535.54752
480.88867
449.14954
441.60796
492.28352
420.43094
422.43084
431.55601
437.49745
393.49892
409.70191
421.65603
452.00244
378.17022
400.44851
413.34812
484.84651
448.75103
432.51047
421.84492
)
;
    }
    minZ
    {
        type            zeroGradient;
    }
    maxZ
    {
        type            zeroGradient;
    }
    topAir_to_rightSolid
    {
        type            compressible::turbulentTemperatureCoupledBaffleMixed;
        refValue        nonuniform List<scalar> 
130
(
751.85789
759.93606
768.34723
776.67435
784.60131
791.91022
798.46002
804.16854
808.97148
812.82329
815.71678
817.64689
818.6133
746.04496
755.44911
765.02152
774.2804
782.91224
790.73338
797.64537
803.60766
808.58022
812.55036
815.52563
817.5064
818.49819
734.38467
746.83466
758.90467
770.04067
780.01655
788.77828
796.32367
802.70155
807.96214
812.12462
815.22856
817.29253
818.32352
716.95548
735.16843
751.2768
765.09392
776.81439
786.70107
794.96959
801.80598
807.35865
811.71131
814.9367
817.06478
818.12249
696.34908
724.10268
745.01371
761.40713
774.58283
785.30928
794.08248
801.22326
806.95931
811.4296
814.71888
816.87856
817.94872
696.39487
724.15961
745.06793
761.44404
774.59602
785.30254
794.05577
801.17607
806.88466
811.33697
814.60591
816.75074
817.81311
717.11835
735.28433
751.35174
765.13473
776.81823
786.6556
794.87527
801.65601
807.14057
811.43802
814.61175
816.69556
817.72722
734.6147
746.96007
758.95282
770.03636
779.9627
788.66117
796.14007
802.43981
807.6098
811.69613
814.736
816.74824
817.75224
746.29765
755.56356
765.02894
774.21247
782.78525
790.54345
797.37677
803.23927
808.11855
812.01369
814.92738
816.86493
817.83267
752.08727
760.01805
768.30731
776.5491
784.41192
791.65561
798.12609
803.73734
808.44405
812.22241
815.06026
816.9513
817.89859
)
;
        refGradient     uniform 0;
        valueFraction   uniform 0.99967867;
        value           nonuniform List<scalar> 
130
(
751.77546
759.84866
768.25506
776.57785
784.50103
791.80676
798.35398
804.06051
808.86208
812.71312
815.60655
817.53746
818.50582
745.94585
755.34516
764.91339
774.16869
782.79746
790.61604
797.52594
803.48663
808.45811
812.42775
815.4032
817.38517
818.37981
734.29316
746.73637
758.80009
769.93045
779.90144
788.65909
796.20126
802.57677
807.83584
811.99761
815.10163
817.16675
818.20054
716.88715
735.09447
751.1975
765.00952
776.72513
786.60719
794.8714
801.70387
807.25329
811.60386
814.82892
816.95855
818.01935
696.28877
724.0347
744.94034
761.32976
774.50233
785.22618
793.99708
801.13576
806.86991
811.3387
814.62723
816.78736
817.85976
696.33462
724.09164
744.99448
761.36647
774.51515
785.21886
793.96955
801.08752
806.79403
811.24468
814.51276
816.65795
817.72241
717.0497
735.20989
751.27168
765.04921
776.72745
786.55993
794.77517
801.55203
807.03342
811.32885
814.50231
816.58787
817.62265
734.52284
746.8614
758.84784
769.92573
779.84723
788.54177
796.01767
802.31532
807.48405
811.56985
814.6099
816.62327
817.63005
746.19871
755.45987
764.92112
774.10105
782.67074
790.42634
797.25761
803.11859
807.9969
811.89168
814.8057
816.74458
817.71512
752.00483
759.9307
768.21523
776.45271
784.31176
791.55226
798.02018
803.62949
808.33489
812.11255
814.95041
816.84232
817.79157
)
;
        Tnbr            T;
        thicknessLayers List<scalar> 0();
        kappaLayers     List<scalar> 0();
        kappaMethod     fluidThermo;
        kappa           none;
        alphaAni        none;
        alpha           none;
        field           T;
    }
    topAir_to_heater
    {
        type            compressible::turbulentTemperatureCoupledBaffleMixed;
        refValue        nonuniform List<scalar> 
40
(
732.38515
734.52661
738.69877
744.61782
723.16874
725.62409
730.49855
737.48897
703.72347
706.8675
713.23406
722.65752
671.92174
675.88191
684.40315
698.17525
625.17174
628.78026
638.21962
657.27899
625.18785
628.8081
638.25706
657.31779
672.0522
676.04358
684.5876
698.34377
704.12716
707.30134
713.65615
722.99454
723.84061
726.25088
731.04098
737.89733
733.26551
735.23077
739.24647
745.00663
)
;
        refGradient     uniform 0;
        valueFraction   uniform 0.99967867;
        value           nonuniform List<scalar> 
40
(
732.31651
734.4563
738.62536
744.54021
723.09127
725.542
730.4108
737.39535
703.65565
706.79516
713.15596
722.57291
671.86889
675.8266
684.3447
698.11257
625.13308
628.73965
638.1762
657.23016
625.14916
628.76757
638.21381
657.26909
671.9992
675.9881
684.52897
698.28087
704.05921
707.22878
713.57776
722.9096
723.76298
726.16862
730.95313
737.80373
733.19672
735.16035
739.17296
744.92896
)
;
        Tnbr            T;
        thicknessLayers List<scalar> 0();
        kappaLayers     List<scalar> 0();
        kappaMethod     fluidThermo;
        kappa           none;
        alphaAni        none;
        alpha           none;
        field           T;
    }
    topAir_to_leftSolid
    {
        type            compressible::turbulentTemperatureCoupledBaffleMixed;
        refValue        nonuniform List<scalar> 
130
(
923.6555
923.59503
923.45712
923.25843
923.04518
922.80811
922.5433
922.24884
921.96357
921.69173
921.44106
921.2324
921.09835
923.77862
923.71617
923.58068
923.36448
923.11937
922.86828
922.59287
922.28446
921.99934
921.728
921.47196
921.25786
921.13921
923.95694
923.89328
923.76054
923.55152
923.2772
923.00213
922.70664
922.39346
922.10682
921.83543
921.58695
921.37089
921.24411
924.11519
924.05753
923.93453
923.74193
923.4686
923.17304
922.86783
922.5562
922.2524
921.95727
921.69281
921.48903
921.36467
924.2298
924.17921
924.06746
923.89886
923.67122
923.38624
923.05727
922.73289
922.41133
922.10047
921.83842
921.6356
921.49965
924.32439
924.28228
924.18783
924.04032
923.84295
923.60041
923.31359
922.99796
922.65885
922.31987
922.04325
921.83269
921.67503
924.41551
924.37737
924.29017
924.15465
923.98008
923.76939
923.51075
923.23664
922.94701
922.65927
922.4016
922.17118
921.94913
924.50911
924.46876
924.37478
924.2432
924.0862
923.90162
923.68228
923.44288
923.19392
922.95469
922.7414
922.56038
922.40926
924.58704
924.54494
924.44913
924.3176
924.16613
923.99514
923.80204
923.59421
923.38398
923.18576
923.01821
922.88993
922.81168
924.63423
924.59536
924.51072
924.38108
924.2252
924.05981
923.88388
923.69876
923.51263
923.34281
923.19816
923.0894
923.02988
)
;
        refGradient     uniform 0;
        valueFraction   uniform 0.99967867;
        value           nonuniform List<scalar> 
130
(
923.46325
923.41033
923.27928
923.08694
922.8797
922.64838
922.38911
922.09991
921.81953
921.55219
921.30558
921.10045
920.96922
923.58633
923.53135
923.40256
923.19249
922.95307
922.7073
922.43687
922.13308
921.85213
921.58437
921.3312
921.11902
921.00106
923.7646
923.70842
923.5824
923.37953
923.11094
922.84125
922.55083
922.2424
921.96016
921.69276
921.44771
921.23431
921.10899
923.92279
923.87263
923.75636
923.56993
923.30238
923.01226
922.71223
922.40554
922.10642
921.81571
921.5553
921.35498
921.23308
924.03737
923.99427
923.88925
923.72683
923.50495
923.22543
922.90167
922.58223
922.26538
921.95893
921.70086
921.5013
921.36746
924.13193
924.09731
924.00959
923.86824
923.67663
923.43954
923.15791
922.84723
922.51282
922.17826
921.90561
921.69828
921.5427
924.22303
924.19237
924.11189
923.98253
923.81371
923.60845
923.35498
923.08579
922.80085
922.51752
922.26389
922.03691
921.81729
924.31659
924.28373
924.19646
924.07101
923.91973
923.7405
923.52621
923.29155
923.04699
922.81174
922.60188
922.4235
922.27383
924.3945
924.35988
924.27076
924.14534
923.99954
923.83386
923.64573
923.44249
923.23642
923.04178
922.87707
922.75069
922.6731
924.44167
924.41036
924.33258
924.20928
924.0594
923.89976
923.72935
923.54948
923.36822
923.20288
923.06226
922.95702
922.90029
)
;
        Tnbr            T;
        thicknessLayers List<scalar> 0();
        kappaLayers     List<scalar> 0();
        kappaMethod     fluidThermo;
        kappa           none;
        alphaAni        none;
        alpha           none;
        field           T;
    }
}


// ************************************************************************* //
