/*--------------------------------*- C++ -*----------------------------------*\
| =========                 |                                                 |
| \\      /  F ield         | OpenFOAM: The Open Source CFD Toolbox           |
|  \\    /   O peration     | Version:  v2012                                 |
|   \\  /    A nd           | Website:  www.openfoam.com                      |
|    \\/     M anipulation  |                                                 |
\*---------------------------------------------------------------------------*/
FoamFile
{
    version     2.0;
    format      ascii;
    class       volVectorField;
    location    "660/topAir";
    object      U;
}
// * * * * * * * * * * * * * * * * * * * * * * * * * * * * * * * * * * * * * //

dimensions      [0 1 -1 0 0 0 0];


internalField   nonuniform List<vector> 
1200
(
(0.1046783 -0.0024747684 0.00087750931)
(0.11855928 -0.0025480413 0.0013181781)
(0.13047495 -0.002322278 0.0013983578)
(0.13977253 -0.0017570079 0.00125808)
(0.14789118 -0.00091646471 0.00091126485)
(0.15547882 2.4806886e-05 0.00031722814)
(0.16279837 0.00096246361 -0.0005557037)
(0.17011318 0.0018263356 -0.0018634832)
(0.17762876 0.0027129115 -0.0038769996)
(0.18566303 0.0038154708 -0.0069194586)
(0.1943759 0.005476252 -0.011403111)
(0.20342288 0.0080683014 -0.017741409)
(0.21126689 0.011974261 -0.026180553)
(0.21633743 0.016562778 -0.036523034)
(0.21872713 0.021689604 -0.047936563)
(0.21904447 0.02664169 -0.059199649)
(0.21748659 0.030838363 -0.069150845)
(0.21423297 0.034005342 -0.07708295)
(0.20976612 0.036057501 -0.082804724)
(0.20486482 0.03700761 -0.086484792)
(0.20037323 0.036992938 -0.088456977)
(0.19691876 0.036268027 -0.089077761)
(0.19478121 0.035084721 -0.088655724)
(0.19395323 0.033635255 -0.087421592)
(0.19423241 0.032082878 -0.0855026)
(0.19517937 0.030653768 -0.082867442)
(0.19586874 0.029748642 -0.079251105)
(0.19441776 0.030182035 -0.074068527)
(0.18736203 0.033898326 -0.066319857)
(0.14806264 0.046883823 -0.053984731)
(0.098687705 -0.0039165369 0.00084731129)
(0.098465005 -0.0047271729 0.0012779706)
(0.098912067 -0.0047700266 0.0014570396)
(0.099829833 -0.0042935662 0.0015356365)
(0.10129682 -0.0034902202 0.0015407728)
(0.10334353 -0.0026119416 0.0014575403)
(0.10594887 -0.0018272571 0.0012608939)
(0.10926678 -0.001205168 0.00089329591)
(0.11380201 -0.00042932359 0.00023005082)
(0.12005886 0.00089306466 -0.00090684236)
(0.12900576 0.0036210452 -0.0028260102)
(0.14092147 0.008771962 -0.00589865)
(0.15552367 0.017123282 -0.010617689)
(0.1710198 0.027564441 -0.017067132)
(0.18537366 0.039554975 -0.024791854)
(0.19686024 0.051821439 -0.03286003)
(0.20434623 0.063291497 -0.040368055)
(0.20752161 0.073077646 -0.046802452)
(0.20700112 0.080466128 -0.051984922)
(0.20409669 0.0850461 -0.055906252)
(0.20031429 0.086954596 -0.058621003)
(0.1967778 0.086822235 -0.060170836)
(0.19403195 0.085331877 -0.060641692)
(0.19223076 0.082980855 -0.06016257)
(0.19133384 0.080096925 -0.0588211)
(0.19110545 0.077078411 -0.056525842)
(0.19091811 0.074662004 -0.052879163)
(0.18950813 0.074365565 -0.046995025)
(0.18555736 0.07943917 -0.03687753)
(0.15965844 0.094881526 -0.017601946)
(0.098815667 -0.0029260317 0.00087434234)
(0.097957028 -0.0042322078 0.001326048)
(0.096313895 -0.0046389106 0.0015262761)
(0.094260852 -0.0047266269 0.0016450484)
(0.092264692 -0.0046861822 0.0017348866)
(0.090506418 -0.004605651 0.0018081904)
(0.088972591 -0.004590509 0.0018831008)
(0.08759391 -0.0046909631 0.0020016037)
(0.086417599 -0.0047361895 0.0022315156)
(0.085753222 -0.0046209136 0.002605363)
(0.086130888 -0.0040675409 0.0030793402)
(0.089670523 -0.0015651769 0.0032485464)
(0.09953547 0.0057180215 0.0024751429)
(0.1151364 0.018746252 0.00060613049)
(0.13380663 0.035679833 -0.002235297)
(0.15202664 0.053765998 -0.0052856673)
(0.16687258 0.0703519 -0.0079857586)
(0.17704774 0.084230848 -0.010096383)
(0.18279433 0.094830896 -0.011769346)
(0.18533632 0.10194396 -0.013285452)
(0.18617154 0.10568498 -0.014788517)
(0.18631844 0.10647463 -0.016133727)
(0.18612075 0.10495436 -0.017006026)
(0.18559687 0.10174435 -0.017286893)
(0.18474971 0.097328452 -0.016915679)
(0.18358767 0.092139126 -0.015761105)
(0.18195035 0.086893638 -0.013524265)
(0.17948169 0.083165393 -0.0096320066)
(0.17662673 0.084530216 -0.0031002448)
(0.16235461 0.097187004 0.0092798666)
(0.096859405 -0.0015576709 0.00083982687)
(0.094636951 -0.0023017368 0.0012533592)
(0.090916403 -0.0025280679 0.0014148507)
(0.086365691 -0.0025585271 0.0014928577)
(0.081805843 -0.0024957434 0.0015436844)
(0.077481761 -0.0023716867 0.001583832)
(0.073355329 -0.0022274226 0.0016376007)
(0.069326702 -0.0021028149 0.001750792)
(0.065263841 -0.0020363111 0.0019985401)
(0.060954073 -0.0021978893 0.00249115)
(0.055989086 -0.0030843664 0.003464311)
(0.049978391 -0.0047303299 0.0053539085)
(0.042477642 -0.0053806542 0.0087964872)
(0.038263318 0.0005880392 0.013655999)
(0.044656658 0.015343641 0.019364774)
(0.05961429 0.032539655 0.025450225)
(0.0760365 0.047500201 0.031204507)
(0.090683526 0.059753836 0.036354202)
(0.10309086 0.06926292 0.040687866)
(0.1138021 0.075978101 0.043778008)
(0.12332227 0.079882906 0.04568438)
(0.13175959 0.081046495 0.046629983)
(0.13891447 0.079872057 0.046769826)
(0.14447548 0.076916512 0.046307708)
(0.14825949 0.072728317 0.045503238)
(0.15033671 0.067755581 0.04464534)
(0.15108746 0.062607858 0.044010868)
(0.15152017 0.058495043 0.043553109)
(0.15560523 0.058158919 0.042679916)
(0.17793472 0.06733336 0.041808597)
(0.10594236 -0.0024758683 0.0010063726)
(0.12068063 -0.0025590119 0.0014045849)
(0.13384864 -0.002422879 0.001401832)
(0.14448549 -0.002043613 0.0011673392)
(0.15375066 -0.0014919348 0.00071991058)
(0.16222751 -0.00095016205 1.6493683e-05)
(0.16993683 -0.0005652804 -0.0010025977)
(0.17679588 -0.00040956118 -0.0025025659)
(0.18277828 -0.00054903809 -0.0047381971)
(0.18786405 -0.0010645619 -0.0080040006)
(0.19198936 -0.0020864925 -0.012647527)
(0.19505745 -0.0037605829 -0.018929407)
(0.19646396 -0.0062325032 -0.026797843)
(0.19592881 -0.010199338 -0.035506485)
(0.19515748 -0.014852454 -0.043825169)
(0.19547464 -0.019257044 -0.050743342)
(0.19667837 -0.022409232 -0.056046352)
(0.19780146 -0.023908098 -0.060057265)
(0.19807677 -0.024128045 -0.063081506)
(0.19736542 -0.023807168 -0.065232676)
(0.19607539 -0.023504171 -0.066568613)
(0.19477985 -0.023336917 -0.067163574)
(0.19389042 -0.023261538 -0.067082515)
(0.19361983 -0.023255645 -0.066360208)
(0.19410658 -0.023302094 -0.064975554)
(0.19547882 -0.023254071 -0.062804157)
(0.19775188 -0.022685185 -0.05950392)
(0.2007111 -0.020495875 -0.054442122)
(0.20385362 -0.013261255 -0.046776049)
(0.19871413 0.0092212205 -0.036541614)
(0.099976802 -0.0039279847 0.0010565856)
(0.10069297 -0.0047738445 0.0015995055)
(0.10251981 -0.0049543698 0.0017911988)
(0.1049895 -0.0047348952 0.0018263978)
(0.10791742 -0.0043114249 0.0017468402)
(0.1112431 -0.0039366517 0.0015295452)
(0.11487497 -0.0038076353 0.0011299259)
(0.11873429 -0.0040403728 0.00047476046)
(0.12280677 -0.0047580998 -0.00055794384)
(0.12706798 -0.0061508878 -0.002121566)
(0.13154086 -0.0084655129 -0.0043707515)
(0.13631633 -0.011980431 -0.0074620623)
(0.14154936 -0.017012315 -0.011415664)
(0.14718892 -0.024215139 -0.015622204)
(0.15317456 -0.032067539 -0.019059881)
(0.15920833 -0.038350623 -0.021061657)
(0.16469933 -0.041132403 -0.021863611)
(0.16874764 -0.040088005 -0.022556554)
(0.17081402 -0.036513621 -0.023864769)
(0.17108949 -0.032286789 -0.025830379)
(0.17038612 -0.028742127 -0.028051658)
(0.16949605 -0.026097038 -0.030086908)
(0.16870749 -0.024157244 -0.031543251)
(0.16804311 -0.022895416 -0.032039455)
(0.16769553 -0.022464434 -0.031197813)
(0.16822367 -0.022940618 -0.028635379)
(0.17066303 -0.02416901 -0.023821712)
(0.17726411 -0.025529844 -0.015883421)
(0.19405293 -0.02545007 -0.0034489464)
(0.25345837 -0.017902305 0.011615297)
(0.10011544 -0.0029541065 0.0010769729)
(0.10021115 -0.0042848802 0.0016468636)
(0.10001286 -0.0047345413 0.0018856819)
(0.099663357 -0.0048993665 0.0019965569)
(0.099377854 -0.0049747511 0.0020391068)
(0.099272408 -0.0050481319 0.0020134683)
(0.099361492 -0.0052075606 0.0019161661)
(0.09962408 -0.0055528301 0.0017593859)
(0.10004109 -0.0062237537 0.0015656767)
(0.100661 -0.0074759143 0.0013170493)
(0.10160017 -0.0096471199 0.00087641873)
(0.10303118 -0.013223373 3.0917675e-05)
(0.10517674 -0.018916105 -0.0011232172)
(0.10807529 -0.027286842 -0.0017707806)
(0.11164964 -0.036464477 -0.00059083497)
(0.11554824 -0.043118083 0.0040326345)
(0.12079071 -0.044027785 0.012412137)
(0.12640797 -0.039840578 0.020925192)
(0.13110904 -0.033273291 0.027430258)
(0.13422275 -0.027422416 0.031203287)
(0.13592212 -0.023511825 0.033057741)
(0.13686944 -0.020452055 0.035127041)
(0.13838016 -0.018469109 0.037455746)
(0.14036086 -0.017615234 0.039903512)
(0.14206662 -0.018369195 0.041672928)
(0.14290805 -0.020458065 0.042930442)
(0.14342352 -0.023439537 0.044038247)
(0.14487476 -0.027611573 0.045279355)
(0.15203214 -0.033386049 0.048303516)
(0.18285283 -0.041196447 0.047896264)
(0.098103014 -0.0015845838 0.0010520919)
(0.096776811 -0.0023579413 0.0016034051)
(0.094429574 -0.0026171445 0.0018282977)
(0.091502977 -0.0026932567 0.0019218806)
(0.088573573 -0.0026922466 0.0019432815)
(0.08583349 -0.0026485207 0.0018962934)
(0.083282447 -0.0026056215 0.0017836515)
(0.080886908 -0.0026209948 0.0016207159)
(0.07859606 -0.0027776433 0.0014389084)
(0.076379419 -0.0032191921 0.0012837768)
(0.07416445 -0.0042169555 0.0012079382)
(0.071734993 -0.0062605837 0.0012899984)
(0.068747753 -0.010078701 0.0014284405)
(0.064903482 -0.015980071 0.001443455)
(0.060257628 -0.021234268 0.0036318646)
(0.056528455 -0.020655641 0.014312612)
(0.058822118 -0.012069605 0.039303937)
(0.062024564 0.0011882458 0.063545576)
(0.065829027 0.014733489 0.082138199)
(0.070919345 0.025685256 0.095161048)
(0.077916798 0.033045603 0.10346135)
(0.086202918 0.035943599 0.10716834)
(0.093700653 0.035696158 0.10822531)
(0.09983557 0.033332872 0.10735282)
(0.10431529 0.029692726 0.10481019)
(0.107559 0.024651815 0.099916886)
(0.10966841 0.018615673 0.092898321)
(0.11093124 0.011756438 0.08425734)
(0.11743036 0.0044022371 0.075116577)
(0.1483434 -0.0020120676 0.054035994)
(0.10581771 -0.002496636 0.00035539617)
(0.12035849 -0.0025774901 0.00058154843)
(0.13343692 -0.0024143599 0.00067016611)
(0.14409281 -0.0019862075 0.00066405561)
(0.15342184 -0.0013747171 0.00058818003)
(0.16192138 -0.00077114969 0.00044397351)
(0.16961313 -0.00028801138 0.00019986471)
(0.17648511 4.4734696e-05 -0.00016427042)
(0.1825509 0.00019678602 -0.00066582439)
(0.18779198 0.0001198085 -0.0013235564)
(0.19215821 -0.00027383899 -0.0021458694)
(0.19556954 -0.0011377875 -0.0030798278)
(0.19740734 -0.0027168185 -0.0039075969)
(0.19740011 -0.0058279639 -0.0042040876)
(0.19713677 -0.0094622435 -0.0035854701)
(0.19719552 -0.01289727 -0.0024011963)
(0.19670099 -0.01611473 -0.0016670052)
(0.19504477 -0.019421378 -0.00218199)
(0.19241947 -0.022806874 -0.004016424)
(0.18927299 -0.026190139 -0.0067063436)
(0.18600723 -0.029532862 -0.0096497973)
(0.18296968 -0.032729255 -0.012353779)
(0.18037212 -0.035583778 -0.014505537)
(0.17825531 -0.037914839 -0.015966718)
(0.17662808 -0.03967124 -0.01665716)
(0.17564702 -0.041008465 -0.016439291)
(0.17589608 -0.042130633 -0.015264381)
(0.17871162 -0.042570993 -0.01415915)
(0.18563291 -0.038570003 -0.016439244)
(0.19561257 -0.021812404 -0.023277843)
(0.099853745 -0.0039413178 0.00034645609)
(0.10033657 -0.0047746513 0.00058332034)
(0.10203353 -0.0049125862 0.00067977456)
(0.10448556 -0.0046237938 0.00067199474)
(0.1074247 -0.0041146826 0.00057319541)
(0.11072902 -0.0036421098 0.00036613737)
(0.11428297 -0.0033524657 1.5472667e-05)
(0.11799219 -0.0033040555 -0.00052225347)
(0.12180487 -0.0035842992 -0.0012943816)
(0.12571496 -0.0043219306 -0.0023818037)
(0.12977358 -0.0057742095 -0.0038467095)
(0.13414292 -0.0083751714 -0.0056754822)
(0.13914687 -0.012751707 -0.0076352315)
(0.14477205 -0.019454125 -0.0091490581)
(0.15045073 -0.025690211 -0.010077563)
(0.15494267 -0.029550362 -0.011636801)
(0.15694525 -0.031709249 -0.015205386)
(0.15648236 -0.033676761 -0.02069127)
(0.15460971 -0.035483469 -0.027135697)
(0.15199305 -0.037086075 -0.033481138)
(0.14887226 -0.038715611 -0.038812746)
(0.14539018 -0.040501076 -0.042586675)
(0.14162075 -0.042309534 -0.044607427)
(0.13747216 -0.043967351 -0.044895636)
(0.13295385 -0.045553116 -0.043332271)
(0.12831207 -0.047644078 -0.039513343)
(0.12517419 -0.050954249 -0.033298607)
(0.12821327 -0.055182608 -0.027775793)
(0.14470238 -0.053408479 -0.034781994)
(0.19468159 -0.03533871 -0.056697756)
(0.099996812 -0.0029495349 0.00035075825)
(0.099869909 -0.0042741606 0.00059369606)
(0.099547783 -0.0047039494 0.00070382827)
(0.099188822 -0.0048370681 0.00071313002)
(0.098936452 -0.0048685961 0.00063133969)
(0.098857136 -0.0048785853 0.00043896916)
(0.098943075 -0.0049373466 9.7526717e-05)
(0.0991497 -0.0051267346 -0.00044514153)
(0.099459491 -0.0055695681 -0.0012567892)
(0.099848353 -0.0064631903 -0.0024157136)
(0.10028999 -0.0082082735 -0.0040541462)
(0.10086088 -0.011534642 -0.0062908984)
(0.10185233 -0.017602518 -0.0090286206)
(0.1032396 -0.026348242 -0.01160902)
(0.10414337 -0.032865096 -0.013526974)
(0.10328236 -0.03412685 -0.015967777)
(0.099405525 -0.032258665 -0.020374058)
(0.094488935 -0.031285246 -0.024291446)
(0.090408204 -0.031158699 -0.028358985)
(0.086642334 -0.031972037 -0.033121945)
(0.082113402 -0.033841876 -0.037053146)
(0.076716555 -0.036422817 -0.03869561)
(0.071084492 -0.039141149 -0.037768998)
(0.065421319 -0.041688722 -0.034534519)
(0.060576617 -0.044049633 -0.028327011)
(0.057025158 -0.047248625 -0.018486514)
(0.056633894 -0.052448243 -0.0064801184)
(0.063401857 -0.060540116 -8.2252461e-05)
(0.075457448 -0.063912401 -0.023969287)
(0.10864696 -0.05344181 -0.070612234)
(0.097986882 -0.0015797775 0.00034183799)
(0.096441819 -0.0023481852 0.00057388058)
(0.093972641 -0.0025994046 0.00067465028)
(0.091035293 -0.0026654712 0.00067541239)
(0.088135945 -0.0026517334 0.00058532362)
(0.085416466 -0.002590284 0.00038345017)
(0.082850048 -0.0025205306 2.8168628e-05)
(0.080377684 -0.0024953261 -0.00053987244)
(0.07794818 -0.002585606 -0.0014056161)
(0.075426898 -0.0029248357 -0.0026896725)
(0.072525728 -0.0038065582 -0.0046645762)
(0.068731673 -0.0059254187 -0.0078304188)
(0.063143169 -0.010927014 -0.013235291)
(0.05371336 -0.019315812 -0.022237362)
(0.03891649 -0.022850836 -0.032798031)
(0.023591684 -0.017350521 -0.038256764)
(0.01223334 -0.010397797 -0.032328401)
(0.022553765 -0.0081693494 0.0041926556)
(0.026462471 -0.0001506746 0.04052722)
(0.031015744 0.0085701772 0.063492885)
(0.037476347 0.015025596 0.076916981)
(0.044339639 0.018121676 0.083687799)
(0.050058358 0.018369205 0.086308051)
(0.053622983 0.016211866 0.085857225)
(0.054109567 0.011880546 0.082594286)
(0.051486625 0.0048747191 0.076065204)
(0.04667773 -0.00513868 0.065981634)
(0.043487474 -0.019239899 0.049689735)
(0.031184633 -0.025608448 -0.0077175859)
(0.044990471 -0.0059308019 -0.092124893)
(0.10578981 -0.0024981691 0.00018866086)
(0.12025478 -0.0025736875 0.00033718782)
(0.13324967 -0.0023952464 0.00042231204)
(0.14384192 -0.0019355003 0.00044604555)
(0.15313606 -0.0012658282 0.00041504578)
(0.16164415 -0.00056406331 0.00033077557)
(0.16941902 7.036346e-05 0.00019410927)
(0.17646409 0.00061499441 9.4967176e-06)
(0.18284873 0.001078326 -0.00022849704)
(0.18867445 0.001448966 -0.00050649078)
(0.19407478 0.0016771634 -0.00076446676)
(0.19928163 0.0016422111 -0.00082578224)
(0.20409967 0.0011915078 -0.00024905603)
(0.20857815 0.00017590914 0.001647476)
(0.21382754 0.00040783348 0.0049658565)
(0.219254 0.0016140448 0.0090552771)
(0.22351773 0.0027342197 0.013370524)
(0.22623835 0.0031770986 0.017799822)
(0.22785645 0.0028034849 0.022426295)
(0.22879532 0.001625395 0.027350702)
(0.22923198 -0.00020669876 0.032668887)
(0.2291503 -0.0024830885 0.038420318)
(0.2284041 -0.0050467512 0.044426597)
(0.22690734 -0.0077949145 0.050199257)
(0.22489376 -0.010471968 0.055034396)
(0.22286612 -0.012350898 0.058197313)
(0.22101799 -0.012128414 0.059005261)
(0.21818782 -0.0084627693 0.056517009)
(0.20959596 0.0013423174 0.047314262)
(0.15098224 0.029837884 0.025575181)
(0.099823496 -0.003943194 0.00018417622)
(0.10020592 -0.0047697025 0.00033505424)
(0.10177132 -0.0048857156 0.00041499068)
(0.10409614 -0.0045513973 0.00041936548)
(0.10691202 -0.0039597358 0.00035044751)
(0.11008396 -0.0033493138 0.00020209848)
(0.11348298 -0.0028481153 -4.0023933e-05)
(0.11702032 -0.002497967 -0.00040192992)
(0.12066683 -0.0023365063 -0.00091495297)
(0.12446919 -0.0024849282 -0.0016003297)
(0.12861882 -0.0032311115 -0.0024303108)
(0.13358121 -0.0051418426 -0.0032277265)
(0.1401288 -0.0088542617 -0.0034746538)
(0.14846519 -0.012845614 -0.0023211941)
(0.15751421 -0.012324572 -0.00036273668)
(0.16494309 -0.008894863 0.00085003357)
(0.16967749 -0.0059199775 0.00057958647)
(0.17221716 -0.0048883721 -0.0010185098)
(0.17325913 -0.0059175722 -0.0037362178)
(0.17324333 -0.008265747 -0.0071962266)
(0.17256711 -0.011140355 -0.010682073)
(0.17135066 -0.01398038 -0.01329291)
(0.16941781 -0.0166023 -0.014454836)
(0.16652639 -0.01927498 -0.014155242)
(0.16302337 -0.022217169 -0.012940945)
(0.16027059 -0.024559501 -0.01222012)
(0.16111954 -0.023175471 -0.014619266)
(0.16706803 -0.013864875 -0.022213042)
(0.1792885 0.0080233235 -0.035516015)
(0.1819911 0.047152939 -0.052813087)
(0.09996766 -0.0029471556 0.00018455721)
(0.099742795 -0.0042688245 0.00033522579)
(0.099285045 -0.0046896441 0.00041702182)
(0.098783977 -0.0048046334 0.0004215235)
(0.098380796 -0.0048050917 0.00034579468)
(0.098121666 -0.0047642692 0.00017718171)
(0.097976499 -0.0047432469 -0.00010727682)
(0.097892735 -0.0048085858 -0.00054827364)
(0.097812487 -0.0050780601 -0.0012011053)
(0.097688006 -0.0057983639 -0.0021515398)
(0.097553597 -0.007515111 -0.0034671899)
(0.097770434 -0.011368306 -0.0051139833)
(0.099124975 -0.019120705 -0.0066245826)
(0.10127471 -0.026742255 -0.0065606796)
(0.10447306 -0.025367941 -0.0044922272)
(0.10568681 -0.019557043 -0.0026569569)
(0.10146747 -0.014371708 -0.0037669272)
(0.094740177 -0.011425161 -0.0076668715)
(0.086853037 -0.01233377 -0.013417453)
(0.079492938 -0.015894577 -0.019274794)
(0.072712849 -0.020405931 -0.023393618)
(0.066201625 -0.024717878 -0.024191172)
(0.0600653 -0.028256815 -0.021438431)
(0.054402018 -0.031194398 -0.016529529)
(0.050032434 -0.033916761 -0.011936003)
(0.048231989 -0.036805866 -0.012329595)
(0.05492929 -0.034888725 -0.024209644)
(0.073040432 -0.022854103 -0.042596446)
(0.095615981 0.00055111036 -0.06385419)
(0.10480797 0.036888582 -0.087353022)
(0.097958288 -0.0015815297 0.0001795386)
(0.096317777 -0.0023521537 0.00032343071)
(0.093715524 -0.0026032292 0.00039819537)
(0.090635901 -0.0026655493 0.00039486607)
(0.087580858 -0.0026433338 0.00030911608)
(0.084666732 -0.0025670385 0.00012570793)
(0.081835329 -0.002474077 -0.00018562785)
(0.078991271 -0.0024162154 -0.00068098404)
(0.075981306 -0.0024783286 -0.0014558146)
(0.072515805 -0.0028397493 -0.0026946482)
(0.068033408 -0.00395471 -0.0047096606)
(0.061357234 -0.0070922381 -0.0081515902)
(0.050840974 -0.015443049 -0.01456461)
(0.030772547 -0.023344326 -0.025189226)
(0.0027991782 -0.013004541 -0.032257798)
(-0.020695702 0.0014980189 -0.02798961)
(-0.035125542 0.0035324648 -0.021146756)
(-0.040819894 0.0021981948 -0.010055545)
(-0.029707268 -0.00088961929 0.01068163)
(-0.021343725 -0.00051313198 0.028821519)
(-0.011894589 0.0003211917 0.040241502)
(-0.004224828 -8.2984383e-06 0.046331496)
(0.00081337656 -0.0016599295 0.049077469)
(0.0023449814 -0.0048021987 0.049714721)
(-0.00082797527 -0.010811107 0.046930518)
(-0.010120052 -0.020540219 0.029966993)
(-0.020089772 -0.02339909 -0.0073765849)
(-0.02167613 -0.0042059531 -0.049677446)
(0.0053032456 0.026010828 -0.081698524)
(0.043964241 0.053307542 -0.10440639)
(0.10577376 -0.002502652 4.7662957e-05)
(0.12019765 -0.0025815186 8.114472e-05)
(0.13314167 -0.0024054622 9.310739e-05)
(0.14368565 -0.0019464744 8.3744576e-05)
(0.15293647 -0.0012751395 5.5369932e-05)
(0.1614017 -0.00057004614 8.3042193e-06)
(0.16912972 6.9352609e-05 -6.0268206e-05)
(0.17612159 0.00061730179 -0.0001555395)
(0.18243888 0.0010674434 -0.00028001501)
(0.18819216 0.0013910612 -0.00043916082)
(0.19357729 0.0015027321 -0.0006183712)
(0.19901498 0.0012351815 -0.00074268948)
(0.20463942 0.00057809304 -0.00059060702)
(0.21065174 0.00017436911 0.00016740042)
(0.21725216 0.0010693283 0.0013480133)
(0.22356111 0.0023520444 0.0025079925)
(0.22879298 0.003652975 0.0035221042)
(0.23327719 0.0052775875 0.0046283914)
(0.2377702 0.0072690447 0.0060953014)
(0.2428082 0.0095838836 0.0081309954)
(0.24853917 0.012254451 0.010948953)
(0.25450993 0.015421972 0.014784538)
(0.25971304 0.019051419 0.01977895)
(0.26301233 0.022919239 0.025764033)
(0.2634889 0.026799027 0.032124124)
(0.2602916 0.030736995 0.037800551)
(0.25191058 0.0353383 0.041381101)
(0.23537647 0.041684151 0.041223965)
(0.2071793 0.051777546 0.034895017)
(0.11176235 0.074165746 0.020311238)
(0.099804812 -0.0039484383 4.2251367e-05)
(0.10013199 -0.0047787443 6.9430888e-05)
(0.10162227 -0.0048964105 6.9753053e-05)
(0.10386907 -0.0045607314 4.1070061e-05)
(0.10660509 -0.00396415 -1.6092973e-05)
(0.10968988 -0.0033467271 -0.00010407651)
(0.1129879 -0.0028357684 -0.00022838418)
(0.11639531 -0.002483154 -0.00039694722)
(0.11988302 -0.002354853 -0.00062385076)
(0.12353777 -0.0026242472 -0.00091634234)
(0.12767546 -0.0036977051 -0.001250791)
(0.13306833 -0.0063161161 -0.0015156235)
(0.1407434 -0.010648893 -0.0014046636)
(0.15071672 -0.011204571 -0.00035330201)
(0.16029369 -0.007374336 0.00066275489)
(0.1675397 -0.0031982912 0.00078588776)
(0.17358835 -0.00023219855 0.00023934196)
(0.17976983 0.0017808726 -0.00047318508)
(0.18600493 0.0033401542 -0.0012454752)
(0.1929939 0.0052593491 -0.0020247631)
(0.20144163 0.0086533611 -0.0026236976)
(0.21137468 0.014503388 -0.0025496981)
(0.22199564 0.023039879 -0.0012515448)
(0.23216538 0.033579284 0.001443629)
(0.2406386 0.045064835 0.0051060627)
(0.24584222 0.057134031 0.0087847576)
(0.24505093 0.07028015 0.011039129)
(0.23391213 0.085090906 0.010425921)
(0.21038201 0.10324839 0.0046513531)
(0.12644173 0.13084017 -0.0097696281)
(0.099948726 -0.0029483287 4.1177803e-05)
(0.099667727 -0.0042719321 6.681754e-05)
(0.09912965 -0.0046934932 6.5154657e-05)
(0.098538081 -0.0048075489 3.2238627e-05)
(0.098033249 -0.0048057678 -3.4061185e-05)
(0.097655696 -0.004761661 -0.000139663)
(0.097358092 -0.0047384654 -0.00029421568)
(0.097051886 -0.004816455 -0.00051590798)
(0.09665012 -0.0051433485 -0.00083805278)
(0.096089969 -0.006051139 -0.00130444)
(0.095474539 -0.0083101337 -0.0019611797)
(0.095625842 -0.013593265 -0.0028190137)
(0.0971176 -0.024092745 -0.0037608426)
(0.10027283 -0.024686247 -0.0029976464)
(0.10520211 -0.0180184 -0.0010154389)
(0.10423854 -0.011533317 -0.001386627)
(0.10125984 -0.0059108156 -0.003434994)
(0.095796509 -0.0014273534 -0.0065027224)
(0.091024941 0.000842164 -0.010284495)
(0.085908568 0.00045353913 -0.014762962)
(0.080703389 -0.0011425509 -0.018653159)
(0.079887561 -0.0015869191 -0.020156469)
(0.086962494 0.0012817854 -0.018660986)
(0.10325528 0.0088212498 -0.015683211)
(0.12627745 0.021560695 -0.012567358)
(0.14682728 0.037282401 -0.0094417481)
(0.16194322 0.054445708 -0.0080810936)
(0.16647901 0.074250266 -0.0097852825)
(0.16002765 0.099673479 -0.015989443)
(0.10288774 0.13628779 -0.027412776)
(0.097939395 -0.0015817195 3.9740326e-05)
(0.096242912 -0.0023527001 6.346813e-05)
(0.093559428 -0.0026036059 5.9528697e-05)
(0.090385477 -0.0026652347 2.3341373e-05)
(0.087221408 -0.0026421008 -4.8416069e-05)
(0.084172533 -0.0025642941 -0.00016363668)
(0.081150659 -0.0024724343 -0.00033743682)
(0.078000898 -0.0024256033 -0.00059831576)
(0.07448234 -0.0025292027 -0.0010079145)
(0.070133752 -0.0030300672 -0.0016795682)
(0.063985012 -0.0046047334 -0.0028447297)
(0.053822025 -0.0093422213 -0.0050675765)
(0.037673548 -0.02216831 -0.010034148)
(-0.0042891927 -0.015645643 -0.019526063)
(-0.038489496 0.0031288703 -0.017048142)
(-0.058113449 0.0057154868 -0.014131095)
(-0.073455785 0.0055552103 -0.012108893)
(-0.080900965 0.0025296837 -0.0084313759)
(-0.081912561 -0.00236227 -0.0026163495)
(-0.073877246 -0.007520571 0.005071897)
(-0.064253359 -0.011952976 0.011467784)
(-0.054901399 -0.015828165 0.016086638)
(-0.04592364 -0.018554892 0.019105477)
(-0.036265779 -0.018559734 0.02041005)
(-0.024064052 -0.013393201 0.018616823)
(0.004754955 0.0074031175 0.0057307803)
(0.026704308 0.030921714 -0.0011015333)
(0.036732826 0.05213695 -0.010700381)
(0.049538179 0.080316279 -0.024425209)
(0.062491912 0.11827354 -0.037759535)
(0.10577476 -0.002503086 -5.5543132e-05)
(0.12020034 -0.0025821341 -9.9865332e-05)
(0.13314534 -0.002406228 -0.00012458722)
(0.14368941 -0.0019473022 -0.00012944996)
(0.1529391 -0.0012759098 -0.00011647799)
(0.16140076 -0.00057081249 -8.6330141e-05)
(0.16911976 6.7031503e-05 -3.7466141e-05)
(0.17609906 0.00061331286 3.3436947e-05)
(0.18239853 0.0010585355 0.00012372522)
(0.18812513 0.0013711119 0.00023554833)
(0.19348133 0.0014607282 0.00035374202)
(0.19891845 0.0011595843 0.00041165644)
(0.20464822 0.00050433696 0.00022043821)
(0.21086595 0.00030725164 -0.00048536795)
(0.21750789 0.0012992681 -0.0015903119)
(0.22367411 0.0025851728 -0.0027935264)
(0.22852821 0.003911101 -0.0040588704)
(0.23250587 0.0055513083 -0.0056860227)
(0.23626448 0.0074727521 -0.0080157421)
(0.24031692 0.0095056179 -0.011326282)
(0.24495787 0.011491138 -0.015805969)
(0.25002734 0.013530261 -0.021490788)
(0.25470929 0.015825914 -0.028198938)
(0.25781692 0.01833378 -0.03552837)
(0.25832752 0.020857957 -0.042803633)
(0.25539332 0.023533334 -0.048935591)
(0.24769468 0.027041191 -0.052371428)
(0.23251119 0.032895313 -0.051225144)
(0.20638192 0.04348783 -0.042972048)
(0.11592727 0.067973058 -0.025560486)
(0.099804673 -0.0039491307 -5.8217515e-05)
(0.10013128 -0.0047798473 -0.0001101676)
(0.10162027 -0.0048979276 -0.00014264888)
(0.1038646 -0.0045626782 -0.000152604)
(0.10659603 -0.0039665981 -0.00014020654)
(0.10967129 -0.0033501987 -0.00010364436)
(0.11295463 -0.0028440189 -3.9057268e-05)
(0.11634314 -0.0024979683 6.0281643e-05)
(0.11980443 -0.0023845333 0.00020182399)
(0.12342469 -0.0026875992 0.0003892013)
(0.12753369 -0.0038338749 0.0005999553)
(0.13295885 -0.0065855362 0.00073789436)
(0.14076655 -0.010983479 0.00056029234)
(0.15092144 -0.010711417 -0.00037473073)
(0.16032186 -0.0065493193 -0.0012896431)
(0.1673685 -0.0024311648 -0.001536158)
(0.17331821 0.00044498801 -0.0013299849)
(0.17918826 0.0023317789 -0.0011425695)
(0.18481881 0.003525548 -0.0011137137)
(0.1908784 0.0044097302 -0.0012878359)
(0.19763008 0.0057935652 -0.0016962353)
(0.20569723 0.008942799 -0.0025927637)
(0.21516557 0.015020096 -0.0043168134)
(0.2242946 0.02369536 -0.0070348979)
(0.23197094 0.033808698 -0.010627551)
(0.2370143 0.044505785 -0.014166229)
(0.23733242 0.056146921 -0.015844157)
(0.22936782 0.070133184 -0.013458365)
(0.21143529 0.088814013 -0.00452026)
(0.14611982 0.11872581 0.013240235)
(0.099948553 -0.0029487103 -5.8233926e-05)
(0.099666711 -0.0042726448 -0.00010986216)
(0.09912666 -0.0046946188 -0.00014289177)
(0.098531391 -0.0048092971 -0.00015322017)
(0.098019769 -0.0048086327 -0.000139101)
(0.097627082 -0.0047671609 -9.6077775e-05)
(0.097306389 -0.004749942 -1.7542609e-05)
(0.09696811 -0.0048364253 0.00010978887)
(0.096511313 -0.0051834552 0.0003079801)
(0.095858741 -0.0061419365 0.00060676303)
(0.095115085 -0.0085287385 0.0010359212)
(0.095206675 -0.014126875 0.0016018448)
(0.096632813 -0.025240827 0.0023082986)
(0.10036031 -0.023954935 0.0017251424)
(0.1048343 -0.017080681 0.00010097833)
(0.10386836 -0.010707949 0.00021869428)
(0.099877504 -0.0050741836 0.0015265203)
(0.09288441 -0.00073889791 0.003418788)
(0.085491345 0.00091117128 0.0057761216)
(0.076140207 -0.00085994534 0.0088892038)
(0.064431793 -0.0049411603 0.012030873)
(0.05259884 -0.0083611424 0.013846771)
(0.04653915 -0.0081221029 0.013538705)
(0.05582713 -0.0028960545 0.01176788)
(0.07680961 0.0065378742 0.010884248)
(0.10751501 0.021554919 0.011412516)
(0.13026955 0.037886146 0.013505942)
(0.14326235 0.057037549 0.019418842)
(0.14748184 0.082204563 0.030623876)
(0.12066922 0.11792168 0.045697875)
(0.097939234 -0.0015818623 -5.6532211e-05)
(0.096241868 -0.0023529992 -0.00010557066)
(0.093556181 -0.0026041118 -0.00013558397)
(0.090377835 -0.0026660413 -0.00014215898)
(0.087204779 -0.0026434711 -0.00012272578)
(0.084136602 -0.0025673593 -7.1511927e-05)
(0.081086664 -0.0024785123 2.1924336e-05)
(0.077892503 -0.0024355528 0.00017641795)
(0.0742822 -0.0025499317 0.00043586764)
(0.06974445 -0.0030822143 0.00088205641)
(0.063199303 -0.0047547314 0.0016865416)
(0.052175632 -0.0098416197 0.0033022768)
(0.034736113 -0.023738752 0.0072856543)
(-0.013577389 -0.011704374 0.016339667)
(-0.043078869 0.0048542957 0.014475726)
(-0.062679144 0.0075803734 0.011758787)
(-0.076396316 0.0074545272 0.0087022745)
(-0.083596437 0.004593822 0.0041123669)
(-0.08466231 5.415753e-05 -0.001533661)
(-0.078170103 -0.0046882863 -0.0073095695)
(-0.068820702 -0.0090636876 -0.010470185)
(-0.060229786 -0.013418366 -0.011348057)
(-0.053071279 -0.01816776 -0.010678808)
(-0.04616388 -0.021954898 -0.0087843102)
(-0.038439806 -0.02166517 -0.0049312839)
(-0.031116725 -0.012725643 0.0058352936)
(-0.0061444469 0.01288262 0.024169919)
(0.012755881 0.039424687 0.040916829)
(0.031083446 0.065801927 0.058722605)
(0.065532107 0.098939722 0.074047679)
(0.10579255 -0.0024996306 -0.00019451311)
(0.12026192 -0.0025758913 -0.00035083014)
(0.13325888 -0.0023984053 -0.00044476074)
(0.1438507 -0.001939796 -0.00047779353)
(0.15314226 -0.0012713732 -0.00045588174)
(0.16164539 -0.00057123807 -0.00037990552)
(0.16941356 6.127354e-05 -0.00025034471)
(0.1764422 0.00060253143 -7.2259638e-05)
(0.18279864 0.0010604905 0.00015823898)
(0.18859 0.0014212544 0.00042662237)
(0.19395171 0.0016325496 0.00066944581)
(0.19912228 0.0015712786 0.00069969897)