/*--------------------------------*- C++ -*----------------------------------*\
| =========                 |                                                 |
| \\      /  F ield         | OpenFOAM: The Open Source CFD Toolbox           |
|  \\    /   O peration     | Version:  v2012                                 |
|   \\  /    A nd           | Website:  www.openfoam.com                      |
|    \\/     M anipulation  |                                                 |
\*---------------------------------------------------------------------------*/
FoamFile
{
    version     2.0;
    format      ascii;
    class       volScalarField;
    location    "180/heater";
    object      T;
}
// * * * * * * * * * * * * * * * * * * * * * * * * * * * * * * * * * * * * * //

dimensions      [0 0 0 1 0 0 0];


internalField   nonuniform List<scalar> 
80
(
656.13446
657.66442
660.66968
664.94205
648.99202
650.79745
654.35517
659.47208
633.85774
636.20342
640.93389
647.95238
609.01563
611.95308
618.38881
628.83594
341.37433
338.48823
338.54328
341.49887
408.95249
405.31969
405.541
409.48249
464.87126
461.62896
462.22325
466.31243
510.65734
508.29728
509.78254
514.34491
546.74457
546.02033
549.55519
556.27352
572.36991
574.90771
582.11497
596.94499
341.37438
338.48433
338.53232
341.50382
408.98881
405.34999
405.55973
409.51051
464.98909
461.71068
462.28131
466.37181
510.87531
508.42254
509.87682
514.46711
547.04314
546.19505
549.6943
556.45132
572.5896
575.09503
582.2828
597.11604
609.64841
612.5324
618.91173
629.32539
634.62455
636.9182
641.60209
648.53907
649.79398
651.5477
655.03239
660.04365
656.93756
658.41612
661.33972
665.5088
)
;

boundaryField
{
    minY
    {
        type            fixedValue;
        value           uniform 300;
    }
    minZ
    {
        type            zeroGradient;
    }
    maxZ
    {
        type            zeroGradient;
    }
    heater_to_topAir
    {
        type            compressible::turbulentTemperatureCoupledBaffleMixed;
        refValue        nonuniform List<scalar> 
40
(
456.60925
458.07446
458.04815
456.63536
434.96925
431.83433
427.63959
423.0873
443.34902
441.77576
438.12403
432.31082
454.0079
456.66028
458.4327
458.6429
453.47719
455.40829
456.64373
456.82911
453.53517
455.347
456.31644
456.22501
454.09321
456.67967
458.30254
458.31004
443.4964
441.91431
438.21941
432.32096
435.14332
432.0037
427.78001
423.1792
456.78138
458.26037
458.23721
456.81601
)
;
        refGradient     uniform 0;
        valueFraction   nonuniform List<scalar> 
40
(
0.00032132529
0.00032132529
0.00032132529
0.00032132529
0.00032132529
0.00032132529
0.00032132529
0.00032132529
0.00032132529
0.00032132529
0.00032132529
0.00032132529
0.00032132529
0.00032132529
0.00032132529
0.00032132529
0.00032132529
0.00032132529
0.00032132529
0.00032132529
0.00032132529
0.00032132529
0.00032132529
0.00032132529
0.00032132529
0.00032132529
0.00032132529
0.00032132529
0.00032132529
0.00032132529
0.00032132529
0.00032132529
0.00032132529
0.00032132529
0.00032132529
0.00032132529
0.00032132529
0.00032132529
0.00032132529
0.00032132529
)
;
        value           nonuniform List<scalar> 
40
(
656.05819
657.58804
660.59209
664.86233
648.9115
650.71521
654.27016
659.38361
633.78546
636.12972
640.8572
647.87113
608.95588
611.89309
618.32689
628.77017
572.32319
574.86062
582.06557
596.89018
572.54275
575.04777
582.23316
597.06091
609.58825
612.47195
618.84936
629.25914
634.55179
636.84402
641.52491
648.45739
649.71287
651.46489
654.9469
659.95477
656.86073
658.33918
661.26166
665.4287
)
;
        Tnbr            T;
        thicknessLayers List<scalar> 0();
        kappaLayers     List<scalar> 0();
        kappaMethod     solidThermo;
        kappa           none;
        alphaAni        none;
        alpha           none;
        field           T;
    }
    heater_to_rightSolid
    {
        type            compressible::turbulentTemperatureCoupledBaffleMixed;
        refValue        nonuniform List<scalar> 10(670.13153 665.69584 656.66908 643.07362 627.0743 627.26426 643.52551 657.15996 666.16991 670.60506);
        refGradient     uniform 0;
        valueFraction   nonuniform List<scalar> 10(0.49999997 0.49999997 0.49999997 0.49999997 0.49999997 0.49999997 0.49999997 0.49999997 0.49999997 0.49999997);
        value           nonuniform List<scalar> 10(667.5304 662.5777 652.30475 635.94924 612.00475 612.18522 636.4198 652.84341 663.10039 668.05041);
        Tnbr            T;
        thicknessLayers List<scalar> 0();
        kappaLayers     List<scalar> 0();
        kappaMethod     solidThermo;
        kappa           none;
        alphaAni        none;
        alpha           none;
        field           T;
    }
    heater_to_leftSolid
    {
        type            compressible::turbulentTemperatureCoupledBaffleMixed;
        refValue        nonuniform List<scalar> 10(726.92346 726.81621 726.66497 726.49905 726.4587 726.89002 727.33844 727.60767 727.74415 727.79812);
        refGradient     uniform 0;
        valueFraction   nonuniform List<scalar> 10(2.0832898e-05 2.0832898e-05 2.0832898e-05 2.0832898e-05 2.0832898e-05 2.0832898e-05 2.0832898e-05 2.0832898e-05 2.0832898e-05 2.0832898e-05);
        value           nonuniform List<scalar> 10(656.12377 648.98188 633.8486 609.00814 572.3646 572.58422 609.64068 634.61513 649.78346 656.92652);
        Tnbr            T;
        thicknessLayers List<scalar> 1(0.001);
        kappaLayers     List<scalar> 1(0.0005);
        kappaMethod     solidThermo;
        kappa           none;
        alphaAni        none;
        alpha           none;
        field           T;
    }
    heater_to_bottomWater
    {
        type            compressible::turbulentTemperatureCoupledBaffleMixed;
        refValue        nonuniform List<scalar> 
92
(
969.85503
966.27857
968.62074
974.33135
968.16413
965.79193
965.18328
973.34097
964.86749
963.74643
958.98153
963.32156
968.28728
967.43146
968.51829
970.43869
964.42867
963.51526
963.72284
965.41359
962.20377
957.53379
958.33612
962.32708
961.56786
958.89398
957.7956
957.18351
957.23861
957.23861
951.09641
951.09641
953.51816
953.51816
951.68825
951.68825
962.1665
958.83095
960.1459
958.52506
956.06339
955.32921
954.89721
945.01258
945.99057
944.13172
964.67993
958.73487
963.01119
958.29649
966.15078
955.84994
960.95627
963.51315
966.46551
962.02038
962.67999
960.35371
961.36537
968.83952
967.39078
962.46123
958.3388
960.57834
968.03457
977.27934
966.62001
962.19305
953.83783
962.55897
970.84959
977.82906
966.29394
963.74252
955.12417
964.65575
977.82906
966.29394
963.74252
964.65575
978.33554
971.869
972.63656
973.20992
980.04036
974.75459
973.56792
975.74565
979.99921
974.53316
974.90737
977.00537
)
;
        refGradient     uniform 0;
        valueFraction   nonuniform List<scalar> 
92
(
0.0075140686
0.0075140686
0.0075140686
0.0075140686
0.0075140686
0.0075140686
0.0075140686
0.0075140686
0.0075140686
0.0075140686
0.0075140686
0.0075140686
0.0075140686
0.0075140686
0.0075140686
0.0075140686
0.0075140686
0.0075140686
0.0075140686
0.0075140686
0.0075140686
0.0075140686
0.0075140686
0.0075140686
0.0075140686
0.0075140686
0.0075140686
0.0075140686
0.0075140686
0.0075140686
0.0075140686
0.0075140686
0.0075140686
0.0075140686
0.0075140686
0.0075140686
0.0075140679
0.0075140679
0.0075140679
0.0075140679
0.0075140679
0.0075140679
0.0075140679
0.0075140679
0.0075140679
0.0075140679
0.0075140679
0.0075140686
0.0075140686
0.0075140686
0.0075140679
0.0075140686
0.0075140679
0.0075140686
0.0075140686
0.0075140686
0.0075140679
0.0075140686
0.0075140679
0.0075140686
0.0075140686
0.0075140686
0.0075140679
0.0075140686
0.0075140679
0.0075140686
0.0075140686
0.0075140686
0.0075140679
0.0075140686
0.0075140679
0.0075140686
0.0075140686
0.0075140686
0.0075140679
0.0075140686
0.0075140686
0.0075140686
0.0075140686
0.0075140686
0.0075140686
0.0075140686
0.0075140686
0.0075140686
0.0075140686
0.0075140686
0.0075140686
0.0075140686
0.0075140686
0.0075140686
0.0075140686
0.0075140686
)
;
        value           nonuniform List<scalar> 
92
(
658.47971
659.97121
662.97126
667.25413
651.37863
653.15255
656.67868
661.81809
636.33398
638.65346
643.31229
650.31022
346.08425
343.21341
343.2762
346.22399
413.12418
409.51175
409.73292
413.65753
468.60452
465.35139
465.94717
470.03568
514.04012
511.67763
513.14343
517.66708
611.62234
549.82212
614.4914
549.05701
620.89655
552.58329
631.25088
559.2372
346.03825
346.13677
413.092
413.60577
468.55838
469.9831
513.98999
517.57563
549.73761
559.18042
346.05723
346.01256
343.17632
343.18851
346.19669
346.11928
413.13415
413.15336
409.564
409.73872
413.6648
413.64732
468.71521
468.77137
465.50657
466.03581
470.06465
470.08148
514.30506
514.37453
511.85996
513.26997
517.76303
517.82857
550.22069
550.27313
549.34455
552.79813
559.43942
559.51104
612.40484
615.18029
621.49212
631.83387
637.19595
639.42361
644.07776
650.96655
652.26342
653.96412
657.41351
662.40318
659.35264
660.77891
663.68319
667.83646
)
;
        Tnbr            T;
        thicknessLayers List<scalar> 0();
        kappaLayers     List<scalar> 0();
        kappaMethod     solidThermo;
        kappa           none;
        alphaAni        none;
        alpha           none;
        field           T;
    }
}


// ************************************************************************* //
