/*--------------------------------*- C++ -*----------------------------------*\
| =========                 |                                                 |
| \\      /  F ield         | OpenFOAM: The Open Source CFD Toolbox           |
|  \\    /   O peration     | Version:  v2012                                 |
|   \\  /    A nd           | Website:  www.openfoam.com                      |
|    \\/     M anipulation  |                                                 |
\*---------------------------------------------------------------------------*/
FoamFile
{
    version     2.0;
    format      ascii;
    class       volScalarField;
    location    "630/rightSolid";
    object      T;
}
// * * * * * * * * * * * * * * * * * * * * * * * * * * * * * * * * * * * * * //

dimensions      [0 0 0 1 0 0 0];


internalField   nonuniform List<scalar> 
130
(
752.59487
760.69653
769.14876
777.53841
785.53493
792.88137
799.42695
805.08365
809.80401
813.58037
816.40765
818.28648
819.22309
746.80384
756.22463
765.82395
775.11894
783.79762
791.65867
798.5695
804.47872
809.37509
813.27424
816.18057
818.10607
819.06374
735.13795
747.60635
759.68649
770.83544
780.82681
789.60072
797.16328
803.51178
808.71081
812.81141
815.84847
817.85197
818.8458
717.69086
735.93592
752.03526
765.84371
777.56392
787.45615
795.72752
802.55319
808.07186
812.38264
815.55377
817.63536
818.66647
697.0604
724.87257
745.77699
762.15608
775.32306
786.05762
794.82922
801.96234
807.68097
812.12367
815.37704
817.51086
818.56803
697.0927
724.90501
745.81568
762.19107
775.34725
786.0667
794.82847
801.95277
807.66179
812.09849
815.34874
817.48079
818.5358
717.80457
736.0307
752.12585
765.92493
777.62251
787.4772
795.71119
802.50349
807.99652
812.29187
815.45494
817.53662
818.57001
735.31618
747.73503
759.77567
770.89358
780.84755
789.57047
797.06963
803.38202
808.55629
812.64013
815.67108
817.67571
818.67388
747.02503
756.36963
765.89225
775.12547
783.73531
791.52609
798.38533
804.26451
809.14548
813.03059
815.9355
817.86739
818.83218
752.82805
760.83693
769.19653
777.49667
785.40434
792.68532
799.18628
804.81622
809.52625
813.29365
816.12111
818.00826
818.95344
)
;

boundaryField
{
    maxX
    {
        type            zeroGradient;
    }
    minZ
    {
        type            zeroGradient;
    }
    maxZ
    {
        type            zeroGradient;
    }
    rightSolid_to_bottomWater
    {
        type            compressible::turbulentTemperatureCoupledBaffleMixed;
        refValue        nonuniform List<scalar> 
130
(
928.06091
927.33966
926.50901
927.71712
931.59164
931.88168
931.89497
932.02082
930.86886
930.64299
930.5591
930.10756
929.52321
928.65119
927.62477
926.58506
925.36347
926.70852
930.537
930.52731
930.07601
928.81361
929.65292
929.6937
929.19138
928.2015
926.00552
926.01707
924.93566
923.88248
922.43464
922.43988
927.99962
926.95836
927.11904
928.1542
928.58481
928.28665
927.34645
922.76282
923.20159
920.68203
919.47146
918.68664
921.00782
921.7973
922.97313
924.59351
926.2685
927.21029
926.4904
925.69138
916.68364
921.05602
918.94546
919.29595
919.79032
922.56313
922.37459
921.64135
922.86609
925.09307
925.48211
925.80674
926.08318
916.84439
920.55998
920.42572
920.48894
920.45592
921.57539
921.94661
921.66834
922.47849
924.76348
925.28021
925.5951
925.15672
924.74479
922.79544
922.3749
922.46028
921.9799
922.30012
922.58602
922.33929
922.72042
924.04879
924.38991
924.30954
924.09315
927.20557
924.81008
923.59919
924.26386
924.078
923.87207
924.00466
923.78637
923.30988
923.24972
923.4917
923.33563
923.13392
929.04716
927.33413
923.74487
924.46642
924.58094
925.22565
924.82248
924.62998
923.98948
922.88671
923.02393
923.05792
922.86108
927.75101
925.61856
923.71728
924.29137
924.89688
925.18299
925.2019
924.89462
924.5233
922.98656
922.71141
922.80458
922.98474
)
;
        refGradient     uniform 0;
        valueFraction   nonuniform List<scalar> 
130
(
0.0075140686
0.0075140686
0.0075140686
0.0075140686
0.0075140686
0.0075140686
0.0075140686
0.0075140686
0.0075140686
0.0075140686
0.0075140686
0.0075140686
0.0075140686
0.0075140686
0.0075140686
0.0075140686
0.0075140686
0.0075140686
0.0075140686
0.0075140686
0.0075140686
0.0075140686
0.0075140686
0.0075140686
0.0075140686
0.0075140686
0.0075140686
0.0075140686
0.0075140686
0.0075140686
0.0075140686
0.0075140686
0.0075140686
0.0075140686
0.0075140686
0.0075140686
0.0075140686
0.0075140686
0.0075140686
0.0075140686
0.0075140686
0.0075140686
0.0075140686
0.0075140686
0.0075140686
0.0075140686
0.0075140686
0.0075140686
0.0075140686
0.0075140686
0.0075140686
0.0075140686
0.0075140686
0.0075140686
0.0075140686
0.0075140686
0.0075140686
0.0075140686
0.0075140686
0.0075140686
0.0075140686
0.0075140686
0.0075140686
0.0075140686
0.0075140686
0.0075140686
0.0075140686
0.0075140686
0.0075140686
0.0075140686
0.0075140686
0.0075140686
0.0075140686
0.0075140686
0.0075140686
0.0075140686
0.0075140686
0.0075140686
0.0075140686
0.0075140686
0.0075140686
0.0075140686
0.0075140686
0.0075140686
0.0075140686
0.0075140686
0.0075140686
0.0075140686
0.0075140686
0.0075140686
0.0075140686
0.0075140686
0.0075140686
0.0075140686
0.0075140686
0.0075140686
0.0075140686
0.0075140686
0.0075140686
0.0075140686
0.0075140686
0.0075140686
0.0075140686
0.0075140686
0.0075140686
0.0075140686
0.0075140686
0.0075140686
0.0075140686
0.0075140686
0.0075140686
0.0075140686
0.0075140686
0.0075140686
0.0075140686
0.0075140686
0.0075140686
0.0075140686
0.0075140686
0.0075140686
0.0075140686
0.0075140686
0.0075140686
0.0075140686
0.0075140686
0.0075140686
0.0075140686
0.0075140686
0.0075140686
0.0075140686
)
;
        value           nonuniform List<scalar> 
130
(
753.91345
761.94883
770.33135
778.6671
786.63266
793.92608
800.42256
806.03767
810.71386
814.4601
817.26547
819.12677
820.05193
748.17035
757.51268
767.0321
776.2481
784.87169
792.70245
799.56127
805.42268
810.27273
814.14884
817.0336
818.94084
819.88387
736.57225
748.94708
760.92835
771.98564
781.89106
790.59908
798.1466
804.43958
809.60071
813.67825
816.69569
818.68189
819.66118
719.23196
737.34322
753.30264
766.99824
778.62451
788.45985
796.67501
803.45824
808.94761
813.23857
816.39293
818.45346
819.47082
698.71082
726.34686
747.07833
763.33701
776.4088
787.08353
795.78779
802.86182
808.54671
812.97276
816.2046
818.32482
819.37612
698.74406
726.37533
747.12789
763.38073
776.43783
787.08516
795.78389
802.85258
808.52481
812.94533
816.17504
818.29343
819.33721
719.35967
737.43425
753.40533
767.10139
778.70747
788.49054
796.66482
803.40425
808.85888
813.13194
816.2738
818.33923
819.36322
736.75822
749.06579
761.00692
772.0463
781.9241
790.57994
798.02376
804.2871
809.41892
813.47163
816.48162
818.47001
819.45916
748.39296
757.6545
767.07864
776.24794
784.79396
792.53106
799.33575
805.16932
810.00882
813.85646
816.74056
818.65819
819.61425
754.14265
762.07535
770.35789
778.60002
786.45284
793.68129
800.13356
805.71891
810.39077
814.11832
816.92245
818.79612
819.73554
)
;
        Tnbr            T;
        thicknessLayers List<scalar> 0();
        kappaLayers     List<scalar> 0();
        kappaMethod     solidThermo;
        kappa           none;
        alphaAni        none;
        alpha           none;
        field           T;
    }
    rightSolid_to_topAir
    {
        type            compressible::turbulentTemperatureCoupledBaffleMixed;
        refValue        nonuniform List<scalar> 
130
(
495.03702
487.62097
481.17784
475.99007
472.1111
469.47384
467.96705
467.48213
467.95815
469.42651
472.07945
476.42941
483.33407
437.69282
431.92581
428.41905
426.44272
425.48555
425.27287
425.68835
426.69094
428.3227
430.73318
434.29935
440.00285
449.66665
448.45448
439.68867
432.15329
425.82058
420.72215
416.97034
414.67883
413.88972
414.54699
416.5586
419.96882
425.64246
435.52924
502.43082
502.69171
501.61843
498.8976
494.74128
489.6486
484.09118
478.57848
473.9976
471.81403
473.93836
481.45957
492.03549
507.55835
511.43751
515.45968
519.23335
522.39551
524.65354
525.83964
525.98031
525.40877
524.87479
525.54687
528.88862
536.54873
509.39057
513.23884
517.27535
521.09634
524.31494
526.61545
527.81121
527.90568
527.19714
526.4003
526.7191
529.69035
536.99648
505.17285
505.94119
505.26759
502.76257
498.62693
493.42792
487.73299
482.05443
477.21176
474.5902
476.2545
483.2163
493.81264
449.75434
441.24878
433.75123
427.28773
422.01163
418.18777
416.03175
415.5716
416.63288
418.97505
422.50836
428.05326
437.40505
437.92106
432.56962
429.31523
427.43587
426.46305
426.20127
426.61995
427.73065
429.58027
432.28271
436.16124
442.16597
452.11973
495.29572
488.05395
481.77154
476.70492
472.90215
470.31401
468.86212
468.46834
469.08638
470.74425
473.62156
478.22116
485.38007
)
;
        refGradient     uniform 0;
        valueFraction   nonuniform List<scalar> 
130
(
0.00032132529
0.00032132529
0.00032132529
0.00032132529
0.00032132529
0.00032132529
0.00032132529
0.00032132529
0.00032132529
0.00032132529
0.00032132529
0.00032132529
0.00032132529
0.00032132529
0.00032132529
0.00032132529
0.00032132529
0.00032132529
0.00032132529
0.00032132529
0.00032132529
0.00032132529
0.00032132529
0.00032132529
0.00032132529
0.00032132529
0.00032132529
0.00032132529
0.00032132529
0.00032132529
0.00032132529
0.00032132529
0.00032132529
0.00032132529
0.00032132529
0.00032132529
0.00032132529
0.00032132529
0.00032132529
0.00032132529
0.00032132529
0.00032132529
0.00032132529
0.00032132529
0.00032132529
0.00032132529
0.00032132529
0.00032132529
0.00032132529
0.00032132529
0.00032132529
0.00032132529
0.00032132529
0.00032132529
0.00032132529
0.00032132529
0.00032132529
0.00032132529
0.00032132529
0.00032132529
0.00032132529
0.00032132529
0.00032132529
0.00032132529
0.00032132529
0.00032132529
0.00032132529
0.00032132529
0.00032132529
0.00032132529
0.00032132529
0.00032132529
0.00032132529
0.00032132529
0.00032132529
0.00032132529
0.00032132529
0.00032132529
0.00032132529
0.00032132529
0.00032132529
0.00032132529
0.00032132529
0.00032132529
0.00032132529
0.00032132529
0.00032132529
0.00032132529
0.00032132529
0.00032132529
0.00032132529
0.00032132529
0.00032132529
0.00032132529
0.00032132529
0.00032132529
0.00032132529
0.00032132529
0.00032132529
0.00032132529
0.00032132529
0.00032132529
0.00032132529
0.00032132529
0.00032132529
0.00032132529
0.00032132529
0.00032132529
0.00032132529
0.00032132529
0.00032132529
0.00032132529
0.00032132529
0.00032132529
0.00032132529
0.00032132529
0.00032132529
0.00032132529
0.00032132529
0.00032132529
0.00032132529
0.00032132529
0.00032132529
0.00032132529
0.00032132529
0.00032132529
0.00032132529
0.00032132529
0.00032132529
0.00032132529
)
;
        value           nonuniform List<scalar> 
130
(
752.51223
760.60891
769.05641
777.44176
785.43447
792.7777
799.32068
804.97537
809.69433
813.46989
816.29709
818.17669
819.1152
746.70461
756.12056
765.71572
775.00711
783.68271
791.54118
798.44991
804.35754
809.25282
813.15144
816.05795
817.98464
818.94511
735.04594
747.50755
759.58141
770.72477
780.7113
789.48118
797.04059
803.3868
808.58433
812.68423
815.72138
817.72605
818.72273
717.62187
735.86115
751.95495
765.7581
777.47323
787.36064
795.62758
802.4493
807.96471
812.27339
815.44416
817.5275
818.56168
696.99966
724.80415
745.70313
762.0782
775.24199
785.97382
794.74297
801.87386
807.5905
812.0316
815.28414
817.41834
818.47762
697.03252
724.83715
745.74243
762.1138
775.26681
785.98357
794.74292
801.86497
807.57195
812.00696
815.25626
817.38858
818.44558
717.73638
735.95695
752.04675
765.84061
777.53312
787.38299
795.61252
802.40083
807.89055
812.18368
815.34626
817.42951
818.46596
735.22459
747.63676
759.67118
770.78346
780.73255
789.45146
796.94753
803.25776
808.43072
812.51401
815.54512
817.55088
818.55173
746.92591
756.26582
765.78438
775.01406
783.62084
791.40905
798.26624
804.1439
809.02391
812.90865
815.81387
817.74706
818.71474
752.74552
760.74952
769.10446
777.40034
785.30428
792.58211
799.08053
804.70856
809.41728
813.18401
816.01148
817.89949
818.84666
)
;
        Tnbr            T;
        thicknessLayers List<scalar> 0();
        kappaLayers     List<scalar> 0();
        kappaMethod     solidThermo;
        kappa           none;
        alphaAni        none;
        alpha           none;
        field           T;
    }
    rightSolid_to_heater
    {
        type            compressible::turbulentTemperatureCoupledBaffleMixed;
        refValue        nonuniform List<scalar> 10(745.33339 738.21869 723.35858 698.79009 657.83383 657.86057 698.91523 723.57506 738.51288 745.65467);
        refGradient     uniform 0;
        valueFraction   nonuniform List<scalar> 10(0.50000003 0.50000003 0.50000003 0.50000003 0.50000003 0.50000003 0.50000003 0.50000003 0.50000003 0.50000003);
        value           nonuniform List<scalar> 10(748.96419 742.51132 729.24832 708.24056 677.44719 677.4767 708.35997 729.4457 742.76905 749.24147);
        Tnbr            T;
        thicknessLayers List<scalar> 0();
        kappaLayers     List<scalar> 0();
        kappaMethod     solidThermo;
        kappa           none;
        alphaAni        none;
        alpha           none;
        field           T;
    }
}


// ************************************************************************* //
