/*--------------------------------*- C++ -*----------------------------------*\
| =========                 |                                                 |
| \\      /  F ield         | OpenFOAM: The Open Source CFD Toolbox           |
|  \\    /   O peration     | Version:  v2012                                 |
|   \\  /    A nd           | Website:  www.openfoam.com                      |
|    \\/     M anipulation  |                                                 |
\*---------------------------------------------------------------------------*/
FoamFile
{
    version     2.0;
    format      ascii;
    class       volScalarField;
    location    "640/bottomWater";
    object      p_rgh;
}
// * * * * * * * * * * * * * * * * * * * * * * * * * * * * * * * * * * * * * //

dimensions      [1 -1 -2 0 0 0 0];


internalField   nonuniform List<scalar> 
1460
(
0.27284871
0.29071186
0.27122382
0.29997086
0.29368591
0.28509087
0.29348761
0.29126752
0.29884298
0.27226593
0.27861607
0.27469196
0.266982
0.28912192
0.30316664
0.33587704
0.32250206
0.32853518
0.3098277
0.32853651
0.31042909
0.32195288
0.30599798
0.31850692
0.30690962
0.31862709
0.30962549
0.32829981
0.32528789
0.30001252
-0.22369481
-0.19915343
-0.19583801
-0.15279771
-0.19411151
-0.25236743
-0.2540782
-0.2346
-0.20822841
-0.23856658
-0.24652319
-0.24157744
-0.23028635
-0.20656718
-0.19272633
-0.22225514
-0.29893256
-0.28503054
-0.27174046
-0.2177813
-0.20487429
-0.21779408
-0.24054687
-0.22789221
-0.26540058
-0.27459886
-0.27543543
-0.21044153
-0.20725937
-0.2498702
0.10853489
0.069340537
0.063498173
0.045669205
0.046470275
0.06436576
0.078829958
0.10513846
0.036919402
0.12038837
0.10735048
0.11397951
0.087500893
0.066397323
0.051299788
0.017390812
0.071657199
0.090862288
0.056390457
0.037402726
0.075523896
0.084017587
0.11462175
0.074971201
0.095288677
0.11326362
0.097662305
0.068426271
0.032909803
0.11572193
-0.024568169
-0.035287822
-0.062839952
-0.066011881
-0.067415464
-0.066622304
-0.043568803
-0.095557849
-0.07484451
-0.068958831
-0.017313307
-0.050996475
-0.060226397
-0.052134049
-0.058000495
-0.094260745
-0.040028667
-0.021499491
-0.085702792
-0.061133372
-0.055755724
-0.029774352
-0.067193328
-0.080671052
-0.097312798
-0.061293445
-0.061599127
-0.083302899
-0.086473913
-0.041585768
-0.0023019785
-0.02102232
-0.019256048
0.0090200822
0.0065659103
0.012362781
0.026852971
0.031563205
0.017858175
-0.013481881
0.019772186
0.0090603776
0.023034709
-0.022229137
-0.0081855983
0.007355267
0.014400736
0.022983628
0.013735714
0.0012428766
-0.016819385
-0.0062143565
-0.013055758
0.011317898
0.013773828
0.024735538
0.018218948
0.023323157
0.0074636557
-0.0035794379
0.28101101
0.28062368
0.27636592
0.29916674
0.28529575
0.29226665
0.30317051
0.29714932
0.30356197
0.29281913
0.27023222
0.27756166
0.27238948
0.27089814
0.27523532
0.32694445
0.31649492
0.32746099
0.31539794
0.32220178
0.31412956
0.32025951
0.30040476
0.32951316
0.31101069
0.30890486
0.30534389
0.30578393
0.30000021
0.30061364
-0.2391783
-0.24057021
-0.21984898
-0.17098471
-0.22198127
-0.26117043
-0.25955274
-0.25538682
-0.19551722
-0.20947393
-0.24770196
-0.23073554
-0.24566214
-0.24429335
-0.24400533
-0.19920519
-0.23742452
-0.29373855
-0.27440822
-0.24821033
-0.21316081
-0.21725196
-0.26125318
-0.20415114
-0.24850155
-0.28872604
-0.28427865
-0.24654043
-0.27590987
-0.27151048
0.096078876
0.083408935
0.053622657
0.044265599
0.051308165
0.075942263
0.10875277
0.094438517
0.042137038
0.039614269
0.096590105
0.1086552
0.12599096
0.097814725
0.072794569
0.038545098
0.050511943
0.07156004
0.074820511
0.034087778
0.040839709
0.071160447
0.12133841
0.037959548
0.054641939
0.087487406
0.1095451
0.10013607
0.10101489
0.12562596
-0.046080325
-0.05445629
-0.082162799
-0.070130512
-0.089853888
-0.055149807
-0.044011368
-0.086296742
-0.079164416
-0.080134368
-0.06133465
-0.05355247
-0.041928761
-0.064423478
-0.092564477
-0.073084612
-0.095472406
-0.036185264
-0.072481825
-0.072752868
-0.081176528
-0.046730353
-0.045269644
-0.085306228
-0.082155213
-0.059216859
-0.056178661
-0.10117956
-0.09262908
-0.062076583
-0.0016926812
-0.013044351
-0.008877754
0.014810139
0.023266456
0.020324905
0.040626076
0.013418386
0.018794432
-0.0054360076
-0.0031994553
-0.0041122892
-0.0060227509
-0.015199152
0.00094900889
0.027187508
0.023940577
0.030874518
0.015395583
0.012742013
0.002237207
-0.012344514
-0.0073110831
0.010574252
0.009097064
0.01244473
0.008712377
0.040935145
0.025297055
-0.00019672356
0.27929764
0.28537576
0.267544
0.28928703
0.2778904
0.28188389
0.28382568
0.28108852
0.27757553
0.2734288
0.28189764
0.27304784
0.28082482
0.24604402
0.30492289
0.32243896
0.30585569
0.32154043
0.31354366
0.31334312
0.31300742
0.31862634
0.32606761
0.31553542
0.30631464
0.30518471
0.30358385
0.30339904
0.3028664
0.30283194
-0.25009745
-0.24095953
-0.23854539
-0.2229547
-0.25692925
-0.26427042
-0.27018187
-0.25719355
-0.23986734
-0.22800145
-0.24558331
-0.23932655
-0.23946413
-0.25021185
-0.21398287
-0.21517295
-0.29157178
-0.29135436
-0.28413737
-0.28040641
-0.25967379
-0.24289176
-0.23012134
-0.25099978
-0.28415446
-0.28994748
-0.28419513
-0.26382264
-0.28608011
-0.27437329
0.11877814
0.090650935
0.09678512
0.046726871
0.085840607
0.1015616
0.12785341
0.11426401
0.10237688
0.10230968
0.11723516
0.13540427
0.10711309
0.064810876
0.028136958
0.037807749
0.068673199
0.10637273
0.10942888
0.077402432
0.072784161
0.070226304
0.073228408
0.05998613
0.081324938
0.11298881
0.12775506
0.11274405
0.11558342
0.13836738
-0.044729784
-0.05073224
-0.063191918
-0.074970215
-0.080242674
-0.04753988
-0.042183693
-0.054336686
-0.070002289
-0.082826006
-0.045430258
-0.02688668
-0.030503783
-0.070948336
-0.065094945
-0.067174851
-0.0868715
-0.0354853
-0.056402814
-0.062640633
-0.098143766
-0.056287437
-0.051902998
-0.092371872
-0.058369432
-0.04542674
-0.048910775
-0.10552363
-0.07010723
-0.049770908
0.01449943
0.013059135
-0.0024289794
0.0092093811
0.021280327
0.016726242
0.028735641
0.021157875
0.025975266
0.014589831
-0.0071828242
-0.0066163471
-0.012663976
-0.0078677754
0.012223992
0.022926829
0.033162195
0.037530483
0.020820045
0.012283318
0.014709032
-0.005952771
-0.017833152
0.010263417
0.0012074013
0.013086797
0.012327448
0.041101821
0.0011388057
0.0012999799
0.28373428
0.28209429
0.27855254
0.27501915
0.27811976
0.28074899
0.30389437
0.27410337
0.2831389
0.27099064
0.26855619
0.2701571
0.27402764
0.26703934
0.27135429
0.27800011
0.2896002
0.30172837
0.30207341
0.30668261
0.30926912
0.31123693
0.30891632
0.30583592
0.30422841
0.30451796
0.3011397
0.32522914
0.31008625
0.30679942
-0.25664709
-0.26485944
-0.24302791
-0.24558265
-0.25629947
-0.24935537
-0.22231926
-0.23286064
-0.2372465
-0.24160673
-0.24453863
-0.24404074
-0.24410979
-0.24745592
-0.23507484
-0.25049224
-0.26593889
-0.28088799
-0.27235705
-0.27674175
-0.2850963
-0.29028783
-0.28004163
-0.2652179
-0.25384915
-0.26609856
-0.26616983
-0.21456388
-0.23109568
-0.26234466
0.1311198
0.11392312
0.080546078
0.14556651
0.092696795
0.10255238
0.05601396
0.093212669
0.093011465
0.10669989
0.13096292
0.12857007
0.1230419
0.11544516
0.10198823
0.10696831
0.1132209
0.10799433
0.10400725
0.10098967
0.096374873
0.11341659
0.10932311
0.090244761
0.084142416
0.095518012
0.10617419
0.061790315
0.084981357
0.11685751
-0.043902898
-0.056854397
-0.090544643
-0.061552123
-0.036815065
-0.098483583
-0.088851163
-0.10225176
-0.074537798
-0.069027972
-0.043013454
-0.048102262
-0.082795792
-0.074999911
-0.1001158
-0.063157421
-0.057325011
-0.050480549
-0.061469877
-0.057873789
-0.032264994
-0.035025601
-0.089877765
-0.079248222
-0.10642622
-0.066774771
-0.073340374
-0.086554445
-0.079349083
-0.059021127
0.023416924
0.016950498
0.01591725
0.001027997
0.0062160448
0.0028291952
0.023548864
0.024634589
0.00188328
-0.014550838
-0.012042131
-0.0078822802
0.0056541314
0.0073735524
0.043320608
0.01084528
0.0066468411
0.018244269
0.018517128
0.012881066
0.0052530175
0.0062642132
0.012175046
0.018374021
0.025149415
-0.012532345
-0.01486517
0.0031901673
-0.012070569
-0.015146118
0.28986225
0.28320653
0.29165393
0.28606658
0.28364335
0.28386408
0.29198452
0.29798606
0.29549265
0.29702835
0.28835605
0.27509947
0.2836009
0.29680129
0.30369278
0.3104027
0.31065026
0.31470301
0.3181997
0.32176597
0.31394236
0.31081877
0.30466557
0.30213634
0.3137716
0.30367419
-0.25728038
-0.26697555
-0.21657584
-0.23148689
-0.25541584
-0.25271435
-0.23367382
-0.2122079
-0.19054848
-0.17374303
-0.22732143
-0.24617057
-0.24276577
-0.24849397
-0.24501877
-0.24642924
-0.26213254
-0.28236509
-0.28158206
-0.22898846
-0.21505866
-0.23889157
-0.26255194
-0.26284103
-0.23249976
-0.25520098
0.11164729
0.07905921
0.050869098
0.06495357
0.099852497
0.091614333
0.073649844
0.065658566
0.058006456
0.034910612
0.037553589
0.083091173
0.09496449
0.083193078
0.078252751
0.069518912
0.070220578
0.083268492
0.087657001
0.030993524
0.056856564
0.071536111
0.13582422
0.13595986
0.084001153
0.12080424
-0.042698933
-0.066712288
-0.07209236
-0.059747339
-0.044771801
-0.032752517
-0.062798798
-0.055052658
-0.058490152
-0.068567321
-0.058345287
-0.04942101
-0.030166958
-0.089828859
-0.075413862
-0.067702628
-0.11546781
-0.054425134
-0.078661062
-0.10300692
-0.081382697
-0.053006869
-0.032091535
-0.070400749
-0.091586323
-0.09723568
0.020920697
0.014560003
0.013703154
-0.0009892399
-0.0074855917
-0.011377273
-0.010952326
-0.016948378
-0.0091776252
-0.00023803612
-0.018952137
-0.015362634
-0.0090051061
0.011313127
-0.008422524
-0.0034359791
0.019091675
0.017960525
0.0019730756
0.0028823788
-0.019768335
-0.022514049
-0.0080999553
-0.01597902
-0.0052898528
0.021864191
0.30396717
0.29762658
0.32158977
0.28629862
0.2908144
0.28730891
0.29763338
0.2892035
0.30510342
0.30965806
0.29039678
0.28937294
0.28162221
0.32992826
0.32963319
0.32854499
0.32953415
0.32911825
0.32784059
0.33421534
0.32181538
0.32203535
0.31812889
0.31383815
0.31247805
0.31249894
-0.26079102
-0.25254024
-0.19431401
-0.23249926
-0.2405021
-0.24608443
-0.26163965
-0.25484016
-0.20602877
-0.18942489
-0.25091504
-0.25657581
-0.25158417
-0.20964981
-0.19388543
-0.20124934
-0.2145619
-0.22860017
-0.29098489
-0.21297837
-0.1982115
-0.22334093
-0.233935
-0.26869934
-0.25875779
-0.28290775
0.095208109
0.061486766
0.041999098
0.099016597
0.10342869
0.13747846
0.086714734
0.071094065
0.051457386
0.040964017
0.062015156
0.078511028
0.10833786
0.069250242
0.068447815
0.077551982
0.053074703
0.059068066
0.059100383
0.062793751
0.040645268
0.069576189
0.08421757
0.10673301
0.10134184
0.12393801
-0.033548593
-0.091953115
-0.060464927
-0.094646241
-0.053335744
-0.056924253
-0.044196544
-0.077187832
-0.076019399
-0.071191744
-0.083646768
-0.050362962
-0.030596189
-0.045323455
-0.025575868
-0.05032744
-0.07140997
-0.083499369
-0.055969154
-0.089315284
-0.091853608
-0.065572688
-0.061315693
-0.087669597
-0.11095585
-0.056707069
0.026542905
0.019802102
0.023099
0.024172163
-0.0065010859
-0.0063008205
-0.00048458741
0.0046527941
0.020045061
0.016948676
-0.0067582672
-0.018226189
-0.01153162
-0.020018551
-0.011646358
-0.019391267
-0.0038708771
0.023792233
0.0045506989
0.024555703
0.0077516081
-0.018453417
-0.015654412
-0.0062778703
0.020545841
0.014341867
0.30466927
0.30306462
0.31012968
0.28127537
0.29200396
0.28858725
0.29555016
0.29138439
0.29171065
0.2927692
0.28705033
0.28721097
0.29912391
0.29557128
0.30178813
0.30658853
0.29838118
0.29648513
0.3063349
0.31314049
0.31449313
0.30854985
0.3113856
0.31376982
0.30593719
0.29151535
0.29470447
0.29210287
0.30285374
0.30109042
-0.26243139
-0.2237557
-0.1896131
-0.24501724
-0.21134308
-0.2265343
-0.25371885
-0.26827192
-0.26392568
-0.2671769
-0.26413303
-0.22811974
-0.22494193
-0.26820014
-0.27012653
-0.28314505
-0.27654424
-0.26679544
-0.23270325
-0.20689149
-0.24098183
-0.26233338
-0.28931581
-0.26498647
-0.24592352
-0.26619532
-0.25593292
-0.26013328
-0.26662634
-0.28373511
0.086089269
0.052942946
0.044325865
0.085153754
0.10638781
0.059487304
0.091249025
0.094968508
0.099845611
0.092548846
0.076761297
0.057406752
0.029908836
0.074520663
0.065705632
0.10640028
0.090225075
0.055107063
0.043698514
0.067508374
0.050541786
0.07858605
0.070879531
0.10403724
0.045685182
0.11503556
0.13154447
0.10260207
0.10506396
0.12379906
-0.047675605
-0.091087317
-0.077893609
-0.067739872
-0.062685618
-0.071208563
-0.094901693
-0.0514776
-0.06653993
-0.060932226
-0.04407779
-0.068222782
-0.05213398
-0.052759614
-0.060896712
-0.037593644
-0.044146498
-0.086249279
-0.05610767
-0.056675549
-0.084234916
-0.11430561
-0.067640465
-0.11086627
-0.11255266
-0.089033101
-0.095549136
-0.12576055
-0.12230206
-0.062819672
0.01405176
0.014409322
0.0095808935
0.0049803799
-0.013111029
-0.00064348226
0.0089569278
0.0096463178
0.013755463
0.0075492243
9.7134697e-05
0.011570495
-0.00054697827
-0.0066020624
0.0071359075
0.020580432
0.021341487
0.014062627
0.00061447979
-0.0092849767
-0.0024141413
0.025915093
0.018718661
0.027086475
0.016753353
-0.006597953
-0.014162374
0.019142793
0.037457792
0.023056879
0.30449061
0.3050682
0.30801796
0.29935112
0.30843507
0.31547501
0.30348367
0.30491888
0.30820948
0.30261693
0.29140236
0.31780708
0.31617346
0.30850726
0.30522402
0.31225263
0.31346041
0.31724783
0.30530231
0.33185098
0.32142872
0.32211854
0.32343853
0.3252631
0.31074207
0.31936511
0.30004608
0.32713428
0.31041087
0.31577864
-0.2555338
-0.21907857
-0.20161072
-0.23027006
-0.19586716
-0.19431076
-0.25966825
-0.27848949
-0.27098331
-0.2736439
-0.26605357
-0.19243477
-0.19147605
-0.26293021
-0.28768195
-0.29043004
-0.28392656
-0.28284239
-0.26992091
-0.25092657
-0.28508381
-0.29955309
-0.29438958
-0.3080673
-0.29785697
-0.28892121
-0.2650064
-0.24369075
-0.27097445
-0.28796637
0.10166491
0.056589868
0.086213422
0.097283142
0.054635015
0.048307717
0.057745659
0.080542909
0.11857748
0.067331078
0.049144879
0.031618858
0.047515716
0.059909465
0.066553457
0.11831006
0.1307973
0.091606644
0.076022339
0.047347541
0.079799988
0.086257312
0.13976782
0.10751897
0.097156874
0.088162146
0.095126881
0.046412769
0.077636093
0.1038618
-0.052624247
-0.078859574
-0.043916903
-0.058730244
-0.080852388
-0.070011889
-0.10016409
-0.046522635
-0.043177978
-0.051728164
-0.077392112
-0.068525124
-0.051603631
-0.067607047
-0.07161821
-0.048467892
-0.032999328
-0.040513216
-0.082754875
-0.046091954
-0.093702216
-0.040111618
-0.036939125
-0.032820484
-0.062210788
-0.029414322
-0.082277095
-0.076111221
-0.11212842
-0.041589972
0.0054574768
0.00054584714
-0.007359649
-0.011384255
0.0044270229
0.021482818
0.030130473
0.029983147
0.041128617
0.019518064
0.019026778
0.01580669
0.003246321
0.00086534203
0.012506389
0.027567286
0.039247009
0.022816054
0.035957194
0.013843994
0.033334853
0.038070327
0.042832026
0.027676192
0.017139571
0.005617196
-0.0045259798
0.021281578
0.036742172
0.033020929
0.30265317
0.3047555
0.30689032
0.2869852
0.29251142
0.29665197
0.29466583
0.29690206
0.29839244
0.29840674
0.28559252
0.31556255
0.2993566
0.30996649
0.31472933
0.31153999
0.31128926
0.30606673
0.30273977
0.31687756
0.31706268
0.31898521
0.31015464
0.31105442
0.30273679
0.30845142
0.29948128
0.34347234
0.31457317
0.32420057
-0.24276371
-0.21472119
-0.21079108
-0.2483735
-0.23571226
-0.23981951
-0.26414582
-0.28125128
-0.27419614
-0.27584185
-0.27026766
-0.21120231
-0.21544949
-0.22790139
-0.25591875
-0.29128642
-0.28693396
-0.28057046
-0.27011384
-0.26430136
-0.29863406
-0.29466154
-0.29786855
-0.28019131
-0.27105236
-0.26972514
-0.26257658
-0.21919248
-0.26948317
-0.28455621
0.07899466
0.049158978
0.065879346
0.084500075
0.076420768
0.064450413
0.086343305
0.0979894
0.11210188
0.082875313
0.053773449
0.025107741
0.070046634
0.060870462
0.03863973
0.069326246
0.10918322
0.072530401
0.092549304
0.051789045
0.093598006
0.12407473
0.094126263
0.09030469
0.093280177
0.10549364
0.092257139
0.044609708
0.066052036
0.093768098
-0.066450715
-0.070188967
-0.046424491
-0.073281383
-0.096726904
-0.075915775
-0.071047337
-0.04679132
-0.041200362
-0.042387216
-0.081653631
-0.076451595
-0.050955912
-0.05190808
-0.096417116
-0.069791943
-0.058079841
-0.05787734
-0.070810645
-0.089277812
-0.069794247
-0.055254426
-0.09121356
-0.11497981
-0.11827692
-0.080203489
-0.098339792
-0.10576474
-0.13217851
-0.042527235
-0.009337471
-0.017078422
-0.021188505
-0.019200575
0.011020862
0.015007046
0.012448696
0.018211198
0.02411707
0.012507242
0.0082855856
0.0011158416
-0.0071867689
-0.0075165456
0.0052062989
0.0096875575
0.015441248
0.0056490729
-0.00052092517
0.013880419
0.011625778
0.034419789
0.013005043
0.026111284
0.0052432347
-0.016718575
-0.0049524486
0.015155724
0.025870373
0.030460561
0.29402445
0.29253548
0.29358671
0.29265455
0.29495188
0.29900565
0.28969702
0.31623798
0.30266638
0.30448441
0.30153366
0.29837871
0.3168701
0.31338601
0.31640647
0.31804193
0.31266701
0.31644123
0.32432365
0.32645914
0.32663309
0.32040227
0.32178481
0.33174303
0.32483576
0.33978247
0.31997455
0.33837165
0.3201226
0.32545926
-0.2623383
-0.24825379
-0.24902108
-0.26605883
-0.26414861
-0.26432414
-0.24602226
-0.21770071
-0.24675376
-0.27708031
-0.26354914
-0.25533275
-0.20315542
-0.19748275
-0.2193928
-0.24096092
-0.26812484
-0.22579156
-0.21410917
-0.2350688
-0.26084216
-0.28792703
-0.24095563
-0.21579982
-0.21080772
-0.20274399
-0.20861532
-0.20918304
-0.25294561
-0.28067039
0.12037177
0.091807264
0.097825723
0.10953084
0.10711247
0.080423195
0.090403032
0.047933595
0.080622507
0.088475305
0.078093753
0.056233257
0.052449407
0.064332271
0.059123392
0.07229147
0.074681296
0.06607137
0.066402291
0.04526573
0.08567155
0.062019205
0.042172951
0.048717351
0.063861185
0.061372689
0.073367547
0.068107775
0.057565121
0.087566617
-0.046146311
-0.094874788
-0.074028224
-0.04484598
-0.025775785
-0.03006217
-0.082793915
-0.045458432
-0.074245934
-0.021826751
-0.045813276
-0.055419018
-0.018964326
-0.04031138
-0.06676861
-0.083839324
-0.064502366
-0.063330964
-0.044261154
-0.064498238
-0.10200093
-0.05045179
-0.092879928
-0.063906412
-0.057747108
-0.0055988083
-0.054369921
-0.067378956
-0.11014776
-0.046046313
0.010001884
0.024169448
-0.0022031478
-0.0070253957
0.0045163638
0.0038051721
0.023735784
0.034495741
0.025635797
-0.0022399236
-0.012040325
-0.020995771
-0.0077296614
-0.0078341753
-0.013253334
0.013637449
-0.0021862475
-0.0056625802
-0.010644804
-0.011440576
0.020940743
0.009429212
0.013442377
-0.0052340661
-0.019722053
-0.002623981
-0.024090814
-0.014422574
0.0068598249
0.011524786
)
;

boundaryField
{
    minX
    {
        type            fixedFluxPressure;
        gradient        uniform 0;
        value           nonuniform List<scalar> 
50
(
0.27284871
-0.22369481
0.10853489
-0.024568169
-0.0023019785
0.28101101
-0.2391783
0.096078876
-0.046080325
-0.0016926812
0.27929764
-0.25009745
0.11877814
-0.044729784
0.01449943
0.28373428
-0.25664709
0.1311198
-0.043902898
0.023416924
0.28986225
-0.25728038
0.11164729
-0.042698933
0.020920697
0.30396717
-0.26079102
0.095208109
-0.033548593
0.026542905
0.30466927
-0.26243139
0.086089269
-0.047675605
0.01405176
0.30449061
-0.2555338
0.10166491
-0.052624247
0.0054574768
0.30265317
-0.24276371
0.07899466
-0.066450715
-0.009337471
0.29402445
-0.2623383
0.12037177
-0.046146311
0.010001884
)
;
    }
    maxX
    {
        type            fixedFluxPressure;
        gradient        uniform 0;
        value           nonuniform List<scalar> 
50
(
0.30001252
-0.2498702
0.11572193
-0.041585768
-0.0035794379
0.30061364
-0.27151048
0.12562596
-0.062076583
-0.00019672356
0.30283194
-0.27437329
0.13836738
-0.049770908
0.0012999799
0.30679942
-0.26234466
0.11685751
-0.059021127
-0.015146118
0.30367419
-0.25520098
0.12080424
-0.09723568
0.021864191
0.31249894
-0.28290775
0.12393801
-0.056707069
0.014341867
0.30109042
-0.28373511
0.12379906
-0.062819672
0.023056879
0.31577864
-0.28796637
0.1038618
-0.041589972
0.033020929
0.32420057
-0.28455621
0.093768098
-0.042527235
0.030460561
0.32545926
-0.28067039
0.087566617
-0.046046313
0.011524786
)
;
    }
    minY
    {
        type            fixedValue;
        value           uniform 0;
    }
    minZ
    {
        type            fixedFluxPressure;
        gradient        uniform 0;
        value           nonuniform List<scalar> 
150
(
0.27284871
-0.22369481
0.10853489
-0.024568169
-0.0023019785
0.29071186
-0.19915343
0.069340537
-0.035287822
-0.02102232
0.27122382
-0.19583801
0.063498173
-0.062839952
-0.019256048
0.29997086
-0.15279771
0.045669205
-0.066011881
0.0090200822
0.29368591
-0.19411151
0.046470275
-0.067415464
0.0065659103
0.28509087
-0.25236743
0.06436576
-0.066622304
0.012362781
0.29348761
-0.2540782
0.078829958
-0.043568803
0.026852971
0.29126752
-0.2346
0.10513846
-0.095557849
0.031563205
0.29884298
-0.20822841
0.036919402
-0.07484451
0.017858175
0.27226593
-0.23856658
0.12038837
-0.068958831
-0.013481881
0.27861607
-0.24652319
0.10735048
-0.017313307
0.019772186
0.27469196
-0.24157744
0.11397951
-0.050996475
0.0090603776
0.266982
-0.23028635
0.087500893
-0.060226397
0.023034709
0.28912192
-0.20656718
0.066397323
-0.052134049
-0.022229137
0.30316664
-0.19272633
0.051299788
-0.058000495
-0.0081855983
0.33587704
-0.22225514
0.017390812
-0.094260745
0.007355267
0.32250206
-0.29893256
0.071657199
-0.040028667
0.014400736
0.32853518
-0.28503054
0.090862288
-0.021499491
0.022983628
0.3098277
-0.27174046
0.056390457
-0.085702792
0.013735714
0.32853651
-0.2177813
0.037402726
-0.061133372
0.0012428766
0.31042909
-0.20487429
0.075523896
-0.055755724
-0.016819385
0.32195288
-0.21779408
0.084017587
-0.029774352
-0.0062143565
0.30599798
-0.24054687
0.11462175
-0.067193328
-0.013055758
0.31850692
-0.22789221
0.074971201
-0.080671052
0.011317898
0.30690962
-0.26540058
0.095288677
-0.097312798
0.013773828
0.31862709
-0.27459886
0.11326362
-0.061293445
0.024735538
0.30962549
-0.27543543
0.097662305
-0.061599127
0.018218948
0.32829981
-0.21044153
0.068426271
-0.083302899
0.023323157
0.32528789
-0.20725937
0.032909803
-0.086473913
0.0074636557
0.30001252
-0.2498702
0.11572193
-0.041585768
-0.0035794379
)
;
    }
    maxZ
    {
        type            fixedFluxPressure;
        gradient        uniform 0;
        value           nonuniform List<scalar> 
150
(
0.29402445
-0.2623383
0.12037177
-0.046146311
0.010001884
0.29253548
-0.24825379
0.091807264
-0.094874788
0.024169448
0.29358671
-0.24902108
0.097825723
-0.074028224
-0.0022031478
0.29265455
-0.26605883
0.10953084
-0.04484598
-0.0070253957
0.29495188
-0.26414861
0.10711247
-0.025775785
0.0045163638
0.29900565
-0.26432414
0.080423195
-0.03006217
0.0038051721
0.28969702
-0.24602226
0.090403032
-0.082793915
0.023735784
0.31623798
-0.21770071
0.047933595
-0.045458432
0.034495741
0.30266638
-0.24675376
0.080622507
-0.074245934
0.025635797
0.30448441
-0.27708031
0.088475305
-0.021826751
-0.0022399236
0.30153366
-0.26354914
0.078093753
-0.045813276
-0.012040325
0.29837871
-0.25533275
0.056233257
-0.055419018
-0.020995771
0.3168701
-0.20315542
0.052449407
-0.018964326
-0.0077296614
0.31338601
-0.19748275
0.064332271
-0.04031138
-0.0078341753
0.31640647
-0.2193928
0.059123392
-0.06676861
-0.013253334
0.31804193
-0.24096092
0.07229147
-0.083839324
0.013637449
0.31266701
-0.26812484
0.074681296
-0.064502366
-0.0021862475
0.31644123
-0.22579156
0.06607137
-0.063330964
-0.0056625802
0.32432365
-0.21410917
0.066402291
-0.044261154
-0.010644804
0.32645914
-0.2350688
0.04526573
-0.064498238
-0.011440576
0.32663309
-0.26084216
0.08567155
-0.10200093
0.020940743
0.32040227
-0.28792703
0.062019205
-0.05045179
0.009429212
0.32178481
-0.24095563
0.042172951
-0.092879928
0.013442377
0.33174303
-0.21579982
0.048717351
-0.063906412
-0.0052340661
0.32483576
-0.21080772
0.063861185
-0.057747108
-0.019722053
0.33978247
-0.20274399
0.061372689
-0.0055988083
-0.002623981
0.31997455
-0.20861532
0.073367547
-0.054369921
-0.024090814
0.33837165
-0.20918304
0.068107775
-0.067378956
-0.014422574
0.3201226
-0.25294561
0.057565121
-0.11014776
0.0068598249
0.32545926
-0.28067039
0.087566617
-0.046046313
0.011524786
)
;
    }
    bottomWater_to_rightSolid
    {
        type            fixedFluxPressure;
        gradient        uniform 0;
        value           nonuniform List<scalar> 
130
(
0.022983628
0.013735714
0.0012428766
-0.016819385
-0.0062143565
-0.013055758
0.011317898
0.013773828
0.024735538
0.018218948
0.023323157
0.0074636557
-0.0035794379
0.030874518
0.015395583
0.012742013
0.002237207
-0.012344514
-0.0073110831
0.010574252
0.009097064
0.01244473
0.008712377
0.040935145
0.025297055
-0.00019672356
0.037530483
0.020820045
0.012283318
0.014709032
-0.005952771
-0.017833152
0.010263417
0.0012074013
0.013086797
0.012327448
0.041101821
0.0011388057
0.0012999799
0.018244269
0.018517128
0.012881066
0.0052530175
0.0062642132
0.012175046
0.018374021
0.025149415
-0.012532345
-0.01486517
0.0031901673
-0.012070569
-0.015146118
0.011313127
-0.008422524
-0.0034359791
0.019091675
0.017960525
0.0019730756
0.0028823788
-0.019768335
-0.022514049
-0.0080999553
-0.01597902
-0.0052898528
0.021864191
-0.020018551
-0.011646358
-0.019391267
-0.0038708771
0.023792233
0.0045506989
0.024555703
0.0077516081
-0.018453417
-0.015654412
-0.0062778703
0.020545841
0.014341867
0.014062627
0.00061447979
-0.0092849767
-0.0024141413
0.025915093
0.018718661
0.027086475
0.016753353
-0.006597953
-0.014162374
0.019142793
0.037457792
0.023056879
0.022816054
0.035957194
0.013843994
0.033334853
0.038070327
0.042832026
0.027676192
0.017139571
0.005617196
-0.0045259798
0.021281578
0.036742172
0.033020929
0.0056490729
-0.00052092517
0.013880419
0.011625778
0.034419789
0.013005043
0.026111284
0.0052432347
-0.016718575
-0.0049524486
0.015155724
0.025870373
0.030460561
-0.0056625802
-0.010644804
-0.011440576
0.020940743
0.009429212
0.013442377
-0.0052340661
-0.019722053
-0.002623981
-0.024090814
-0.014422574
0.0068598249
0.011524786
)
;
    }
    bottomWater_to_leftSolid
    {
        type            fixedFluxPressure;
        gradient        uniform 0;
        value           nonuniform List<scalar> 
130
(
-0.0023019785
-0.02102232
-0.019256048
0.0090200822
0.0065659103
0.012362781
0.026852971
0.031563205
0.017858175
-0.013481881
0.019772186
0.0090603776
0.023034709
-0.0016926812
-0.013044351
-0.008877754
0.014810139
0.023266456
0.020324905
0.040626076
0.013418386
0.018794432
-0.0054360076
-0.0031994553
-0.0041122892
-0.0060227509
0.01449943
0.013059135
-0.0024289794
0.0092093811
0.021280327
0.016726242
0.028735641
0.021157875
0.025975266
0.014589831
-0.0071828242
-0.0066163471
-0.012663976
0.023416924
0.016950498
0.01591725
0.001027997
0.0062160448
0.0028291952
0.023548864
0.024634589
0.00188328
-0.014550838
-0.012042131
-0.0078822802
0.0056541314
0.020920697
0.014560003
0.013703154
-0.0009892399
-0.0074855917
-0.011377273
-0.010952326
-0.016948378
-0.0091776252
-0.00023803612
-0.018952137
-0.015362634
-0.0090051061
0.026542905
0.019802102
0.023099
0.024172163
-0.0065010859
-0.0063008205
-0.00048458741
0.0046527941
0.020045061
0.016948676
-0.0067582672
-0.018226189
-0.01153162
0.01405176
0.014409322
0.0095808935
0.0049803799
-0.013111029
-0.00064348226
0.0089569278
0.0096463178
0.013755463
0.0075492243
9.7134697e-05
0.011570495
-0.00054697827
0.0054574768
0.00054584714
-0.007359649
-0.011384255
0.0044270229
0.021482818
0.030130473
0.029983147
0.041128617
0.019518064
0.019026778
0.01580669
0.003246321
-0.009337471
-0.017078422
-0.021188505
-0.019200575
0.011020862
0.015007046
0.012448696
0.018211198
0.02411707
0.012507242
0.0082855856
0.0011158416
-0.0071867689
0.010001884
0.024169448
-0.0022031478
-0.0070253957
0.0045163638
0.0038051721
0.023735784
0.034495741
0.025635797
-0.0022399236
-0.012040325
-0.020995771
-0.0077296614
)
;
    }
    bottomWater_to_heater
    {
        type            fixedFluxPressure;
        gradient        uniform 0;
        value           nonuniform List<scalar> 
92
(
-0.022229137
-0.0081855983
0.007355267
0.014400736
-0.015199152
0.00094900889
0.027187508
0.023940577
-0.0078677754
0.012223992
0.022926829
0.033162195
0.26703934
0.27135429
0.27800011
0.2896002
-0.24745592
-0.23507484
-0.25049224
-0.26593889
0.11544516
0.10198823
0.10696831
0.1132209
-0.074999911
-0.1001158
-0.063157421
-0.057325011
0.0073735524
0.0073735524
0.043320608
0.043320608
0.01084528
0.01084528
0.0066468411
0.0066468411
0.2836009
0.29680129
-0.24276577
-0.24849397
0.09496449
0.083193078
-0.030166958
-0.089828859
-0.0090051061
0.011313127
0.28162221
0.29557128
0.30178813
0.30658853
0.32992826
0.29838118
-0.25158417
-0.26820014
-0.27012653
-0.28314505
-0.20964981
-0.27654424
0.10833786
0.074520663
0.065705632
0.10640028
0.069250242
0.090225075
-0.030596189
-0.052759614
-0.060896712
-0.037593644
-0.045323455
-0.044146498
-0.01153162
-0.0066020624
0.0071359075
0.020580432
-0.020018551
0.021341487
-0.0066020624
0.0071359075
0.020580432
0.021341487
0.00086534203
0.012506389
0.027567286
0.039247009
-0.0075165456
0.0052062989
0.0096875575
0.015441248
-0.0078341753
-0.013253334
0.013637449
-0.0021862475
)
;
    }
}


// ************************************************************************* //
