/*--------------------------------*- C++ -*----------------------------------*\
| =========                 |                                                 |
| \\      /  F ield         | OpenFOAM: The Open Source CFD Toolbox           |
|  \\    /   O peration     | Version:  v2012                                 |
|   \\  /    A nd           | Website:  www.openfoam.com                      |
|    \\/     M anipulation  |                                                 |
\*---------------------------------------------------------------------------*/
FoamFile
{
    version     2.0;
    format      ascii;
    class       volVectorField;
    location    "640/bottomWater";
    object      U;
}
// * * * * * * * * * * * * * * * * * * * * * * * * * * * * * * * * * * * * * //

dimensions      [0 1 -1 0 0 0 0];


internalField   nonuniform List<vector> 
1460
(
(-0.0026659027 -0.014534764 0.0011066895)
(-0.00037961874 -0.011256545 0.002017686)
(-0.00171188 -0.012754583 0.00092771395)
(0.00084576593 -0.013498266 0.00038246655)
(0.0040753871 -0.012599416 0.00062703317)
(0.0037545599 -0.013580692 0.00049054188)
(0.0020428625 -0.016264487 0.00036898154)
(-0.0016737307 -0.016535409 0.00081418474)
(0.00036254114 -0.010786505 0.00059845393)
(0.0032329545 -0.012942583 -0.00046940781)
(0.00057689619 -0.015626959 0.0015580731)
(-0.0023220287 -0.014821232 0.0011236857)
(-0.0042300366 -0.01280105 0.0014167064)
(-0.0033054484 -0.010966101 0.0017326143)
(-0.0010613902 -0.012864266 0.0025746682)
(0.0014379024 -0.017730455 -9.0457322e-05)
(0.0021750434 -0.018953342 0.00028979638)
(0.00033174191 -0.018432174 0.0004756705)
(-0.0026173514 -0.014289786 0.00043686744)
(-0.0021844287 -0.012170741 0.0010098344)
(-0.00015321614 -0.012401824 0.00065126017)
(0.0015978359 -0.013963184 0.00025400289)
(0.0018705303 -0.015448236 0.0012419818)
(0.0029998304 -0.014986236 -5.3395941e-06)
(0.0031208527 -0.016483971 0.00028818747)
(0.0021112022 -0.018838514 0.0019894999)
(-0.0028427103 -0.014670772 0.0016026489)
(-0.001692726 -0.012476404 0.00087003888)
(-0.00025777858 -0.012500748 0.00072356578)
(0.0037191688 -0.015726216 0.0010562539)
(-0.0033891875 0.015395312 0.0025037182)
(0.00089499693 0.0028940424 0.0012634811)
(-0.00073411521 0.0087082216 0.0016093626)
(0.0033524257 0.0016717286 0.00015410394)
(0.0049637997 0.0047874677 5.309873e-05)
(0.0082002743 0.013810117 0.00045278719)
(0.0015829494 0.017805622 0.0010265796)
(-0.0059398667 0.015220176 0.0019168877)
(-0.00082768924 -0.0013339995 7.8866939e-05)
(0.0032611669 0.012094327 -0.00090420524)
(0.0019299821 0.016933275 -0.00034121124)
(-0.0036637602 0.016118343 -0.0010985459)
(-0.0027892835 0.011755951 -0.0006701476)
(4.2252919e-05 4.406046e-05 -0.00063407753)
(0.004185034 0.0030397297 -0.00012143047)
(0.0072150372 0.011340596 -0.0015151419)
(0.0087708048 0.018841645 -0.0030369353)
(-0.0029617097 0.019712594 0.00017866686)
(-0.0067453218 0.014894868 0.00060059323)
(-0.0018441361 0.0017031111 0.00047282143)
(-0.00089473184 0.0038620806 0.0010149322)
(0.0025128641 0.0069185699 0.00012987662)
(0.003641439 0.012947391 0.00057643686)
(0.0052588614 0.0099133606 -0.00054140419)
(0.0077947282 0.016530646 -0.0011505433)
(0.0059344059 0.019712037 -0.00011598804)
(-0.0065608253 0.014890092 -0.00040603758)
(-4.7621259e-05 0.00083131318 -0.0015613817)
(-0.0034015224 -0.0032069699 -0.0012139812)
(0.0057678234 0.016185973 0.0023325874)
(0.0035565444 -0.012894167 0.00012703359)
(0.0039813233 -0.013214181 -0.0010212958)
(0.0047360917 -0.01327072 -0.00056987191)
(0.0037815898 -0.014730564 -0.0011002671)
(-0.0041514585 -0.013575104 -0.002616228)
(0.0019338985 -0.0046986856 -0.00088459613)
(-0.00063996953 0.005465163 -0.00033698523)
(0.0050278532 -0.012892685 -0.00012194485)
(-0.0011609453 -0.014703439 0.00047940137)
(-0.004826121 -0.012122692 0.0030983527)
(0.0017352912 -0.00038285795 7.5107431e-05)
(-0.001459132 -0.0011948423 -0.00093677517)
(0.0040729237 -0.013468281 -0.0041648426)
(0.0024100804 -0.013082873 -0.0027800712)
(0.005078521 -0.014096104 -0.0020692666)
(-0.0035154393 -0.016383298 -0.00016793192)
(0.003923918 0.0059763782 -0.0020684307)
(-0.0012736728 0.0055299225 0.00064331298)
(0.0052836352 -0.012954037 -0.0011743244)
(0.002615292 -0.015218391 -0.0010381166)
(-0.0013718355 -0.013244901 0.00089230113)
(-0.00017578779 -0.014594998 -5.1845289e-05)
(0.0034561388 -0.014336089 -0.0017301383)
(0.0035028153 -0.016098097 0.00021782898)
(0.00085796788 -0.010448335 0.0016517168)
(0.0042356766 0.0049287308 0.00084328933)
(0.0013408709 -0.0020286058 -0.00074920397)
(0.0058480726 -0.013604527 -0.0034781638)
(-0.0056156302 -0.015925177 -0.0036459752)
(-0.0040888866 -0.014649576 -0.00069576667)
(0.00059609425 0.00020331311 -0.00090170878)
(-0.00031077895 -0.001356964 -0.0010971792)
(0.001138942 0.0056118006 6.6135015e-05)
(-0.00095281486 0.011771531 0.00031631632)
(-0.0033993458 0.0083966175 0.00044671461)
(-0.0025503652 0.0068234134 -0.0012313287)
(0.0014838172 0.0085206012 -0.00016886035)
(0.00460829 0.012551713 -0.001171572)
(-0.00077289071 0.010168084 0.00075865128)
(0.00018199229 -0.0010432037 -0.00040532699)
(-0.00014818635 0.0077279313 0.0033309022)
(0.0018525072 0.0086821116 0.00056717283)
(4.2218929e-05 0.0091538099 -0.0017922123)
(-0.0011359007 -0.0048389709 -0.00099309402)
(0.0019286972 0.0058608581 0.0017346979)
(-0.0037561437 0.011136446 -0.00047256754)
(-0.00059968484 0.0092164212 0.00064714817)
(0.0021873553 0.0086923004 0.0012403973)
(0.005844064 0.01061618 0.00048667245)
(0.0024434561 0.0089992303 0.00052457448)
(0.002678116 0.00086396887 -0.00062473981)
(0.0024943586 -0.0033181041 -0.00088408355)
(0.0028604341 0.0027101492 -0.0014072488)
(0.0032759406 0.010401403 -0.00066553242)
(-0.0031456655 0.010771571 0.00033437084)
(0.0018561421 0.0097551535 0.00055924634)
(0.0035047087 0.0082467266 -0.00058974668)
(0.0057823756 0.010835181 0.00025749886)
(-0.0012692953 0.011558698 0.0004039101)
(0.0020188828 -0.002195609 -0.00010462127)
(-0.00083520498 -0.0096572948 -0.002517355)
(-0.0047656544 -0.00951218 -0.0024035767)
(-0.0069231922 -0.0091235623 -0.0018288351)
(-0.0050852809 -0.0076155072 -0.0014974998)
(-0.0036395773 -0.0094734279 -0.0021057612)
(-0.0033491523 -0.0054314074 -0.0015490155)
(-0.00043259389 -0.00012945249 -0.0011350767)
(0.0037156647 -0.0030067823 -0.00027946868)
(0.0064930269 -0.0079852373 -0.00073408655)
(0.0052774096 -0.01063593 -0.0014607238)
(-0.0010038914 -0.0066045212 0.0032236694)
(0.0012811073 0.0023674605 0.0016907361)
(0.0045386194 -0.0057919096 0.002982526)
(-0.0011626296 -0.010717421 -0.0014718901)
(-0.0057241557 -0.01071286 -0.0025572294)
(-0.0036526623 -0.0077799865 -0.0025011863)
(-0.0013921802 -0.0021496763 -0.0015614807)
(0.0019459613 -0.0019645201 -0.0014889097)
(0.0044993602 -0.0078504275 -0.001795272)
(0.006088057 -0.0099939112 -0.0025676768)
(0.0059289309 -0.010747668 -0.0032790621)
(0.0021461023 -0.010772531 -0.0019601389)
(-0.0047837862 -0.008798435 -0.00041716679)
(-0.0031167272 -0.0056972086 5.2205063e-05)
(-0.003034337 -0.0044707106 0.00053479305)
(0.00080376447 0.0018836946 0.0013325497)
(0.002623368 -0.0024851416 0.00087370093)
(0.0044662386 -0.0060661989 -0.00053463803)
(0.0058413699 -0.010010385 -0.0012899704)
(0.0061136409 -0.011178053 -0.0012389244)
(-0.00069950616 -0.015410068 0.00070064922)
(-0.0017301488 -0.01321235 0.0020640322)
(-0.0029345354 -0.011438009 0.0014872852)
(0.00081959133 -0.012554115 0.0005148843)
(0.003418752 -0.013671565 0.0015945355)
(0.0016731299 -0.015394815 0.0014072252)
(-0.00040740582 -0.018701665 0.0021959214)
(-0.0017965055 -0.01542307 0.0021399695)
(-0.0021199164 -0.01198288 0.0018280891)
(0.0010118733 -0.010876429 0.00088049563)
(0.00109581 -0.014713584 0.0013258141)
(-0.0024302598 -0.016176924 0.0012554679)
(-0.0033024192 -0.015272312 0.0011009521)
(-0.0048397642 -0.014576877 0.0017925489)
(-0.005385003 -0.01431857 -0.0010647264)
(-0.00096260253 -0.013029449 -0.0012487987)
(0.002955424 -0.014980777 0.00020245569)
(0.00080839461 -0.018404457 0.00056781821)
(-0.0023926991 -0.016241014 0.0013082621)
(-0.0029289899 -0.013519476 0.0023943753)
(-0.0024250945 -0.012249038 0.0015885725)
(0.0021659703 -0.01343717 0.00093389441)
(2.8597144e-05 -0.016785409 -0.0010785099)
(0.0012525789 -0.013401313 0.00014915844)
(0.0042974504 -0.013079496 0.00024774291)
(0.0040425617 -0.015035481 0.0015689264)
(0.0021862783 -0.015414231 0.0021303698)
(0.00076732653 -0.018422347 0.0040168051)
(0.00093998152 -0.015668841 0.0042780743)
(0.00078958608 -0.015756958 0.0015651619)
(-0.0017620944 0.017056337 0.0036283353)
(-0.0025168297 0.014386901 0.0039087553)
(-0.00081777142 0.0072926765 0.0014615499)
(0.0027767693 -0.00024867231 -0.00030106944)
(0.0067668511 0.010045836 0.00083578194)
(0.0071580476 0.016395874 0.0010166965)
(-0.0022371077 0.019287807 0.0013593659)
(-0.0076780836 0.014200978 0.00099408669)
(-0.0040273003 0.0021020816 -0.00079341103)
(-0.0035077774 -0.00063616807 0.00028651657)
(0.0031616821 0.016796387 -0.00059411304)
(-0.00034811087 0.017546896 -0.0015100545)
(0.00054289185 0.016887992 0.00082341995)
(-0.0032656014 0.016331493 0.0017632274)
(-0.0030444441 0.014637331 -0.0017843907)
(0.0025097628 -0.0027884675 -0.0020774885)
(0.0063453006 0.0096121575 -0.00091691314)
(0.0031024746 0.019163916 0.0006764747)
(-0.0068714924 0.017165859 0.0023358065)
(-0.0045262547 0.009296479 0.0020620307)
(-0.0039224019 0.0024636286 0.0018483608)
(0.0010881194 0.0060153823 0.00098559182)
(0.00040281305 0.017707191 0.00023704498)
(0.0029658258 0.0022814802 -3.7081444e-05)
(0.0046493913 0.0081503512 -8.9484304e-05)
(0.006394189 0.016018262 0.00012555635)
(-0.00053612541 0.01764143 0.0017782954)
(-0.0011533722 0.018865413 0.0057265912)
(0.00073852988 0.015440486 0.006565731)
(0.0022155181 0.017246481 0.0042777586)
(0.00078699706 -0.0053165825 0.0019186562)
(0.004448963 -0.011440486 -0.00049872022)
(0.0062667553 -0.013639677 -0.0021885353)
(0.0023763465 -0.014846184 -0.0032307647)
(-0.004949567 -0.013098253 -0.004690247)
(0.0012828023 0.0033837426 -0.0012307602)
(-0.0027086665 0.0078049411 -0.00053517652)
(0.00084895179 -0.0044033961 -0.00076820552)
(-0.00076587728 -0.014546005 -0.0035298864)
(-0.0073080482 -0.015001569 0.00074209624)
(-0.006535464 -0.015159219 -0.00014591516)
(-0.0030828376 -0.012013739 -0.0015983768)
(0.0017020859 -0.0057380698 -0.0013076746)
(0.0032720942 -0.0050034892 0.00019263578)
(0.00749128 -0.013672807 0.00018228949)
(0.00371127 -0.015601483 -0.0016747462)
(-0.0046066604 -0.013472664 0.00092235643)
(0.0010387615 0.0067772776 0.0001901691)
(-0.0014401379 -0.003754485 -0.0017972203)
(0.0027792364 -0.014432753 -0.0039338682)
(-0.00343845 -0.015493476 -0.00092169456)
(-0.0031554027 -0.014109399 -0.00069750772)
(0.0022762354 -0.013507334 0.001484726)
(0.004109277 -0.016573823 -0.00075864367)
(-0.0052268419 -0.014193553 -3.0464413e-05)
(0.00066326866 -0.00064769663 -0.0004860837)
(-0.0013631677 0.0026163479 -0.00014784081)
(0.0016028843 -0.018292063 -0.0045017108)
(-0.004269971 -0.015639366 -0.0037973748)
(-0.0006212516 -0.0029494119 0.0021060653)
(0.0019707714 0.0064590934 0.00076588603)
(0.0019369024 0.0028559746 -0.0008905657)
(0.0030174576 0.0077682125 -0.00095407682)
(0.00034253467 0.010884385 -0.0004804703)
(-0.0042855156 0.010303494 -0.0012177753)
(-0.0023655718 0.0081222417 -0.0017643645)
(-0.0010227441 0.010757614 -0.0005103149)
(0.0030873269 0.0085045683 -0.00270207)
(0.0015164696 0.010748806 -0.0013200955)
(-0.0024350741 0.0090602487 0.0032444092)
(-0.0016739787 0.0080820965 0.0035505317)
(-0.0016289298 0.0052968242 0.00028063481)
(-0.00049943469 3.7492527e-05 -0.0003671767)
(0.0032193344 0.0050068968 -9.0064192e-05)
(0.0037609743 0.011212434 8.3280892e-05)
(0.0015435122 0.01122993 -0.0017846543)
(-0.0040164235 0.011422364 0.0041430165)
(-0.00011070019 0.009118505 0.00087227445)
(0.003137917 0.007954082 -0.0020436438)
(0.0033216729 0.0095509354 -0.0019817742)
(-0.0016517714 0.010114862 0.0030291689)
(0.0017698971 -0.0032835248 -0.0014032311)
(-0.00071109722 0.00036175439 -0.00032515219)
(0.00079061414 0.012731713 -0.00087579252)
(-0.0051451056 0.011186522 -0.0020819653)
(-0.0021177585 0.0077412864 -0.0015235691)
(0.0020933567 0.0092107861 -0.00093572804)
(0.005408886 0.013522968 0.00022001)
(-0.005337275 0.012588884 0.000697217)
(-0.0010560701 0.0052756069 0.0018106889)
(0.00013772116 -0.0090236829 -0.0032363577)
(-0.0033794875 -0.010503452 -0.0031930516)
(-0.0064371179 -0.0081861368 -0.0015694776)
(-0.0047159454 -0.0035026031 -0.0010313888)
(-0.0040533056 -0.0039108347 -0.0017124552)
(-0.0031217922 0.00027840857 -0.0013490208)
(-0.00035332853 0.0037898908 -0.00047596554)
(0.003548244 -0.0035193357 -0.00069597494)
(0.0040989009 -0.0044112467 -0.00099309284)
(0.0053318729 -0.0092771543 -0.0017627644)
(0.0027325511 -0.01109983 0.0021755184)
(0.0022337454 -0.0094385308 0.0029440525)
(-0.00040408445 -0.010940522 0.0015366947)
(-0.0048073562 -0.0097754827 -0.0023787813)
(-0.0042767872 -0.0060363041 -0.0014891124)
(-0.0023202892 -0.0037002844 -0.0010613242)
(-0.002471468 -0.0047767079 0.0011964327)
(0.0014329302 0.0022259857 -0.0005338066)
(0.0038466033 -0.0028703156 -0.0014676433)
(0.0045859206 -0.0044715049 -0.002049126)
(0.0054677223 -0.007803647 -0.0029069066)
(0.0050970159 -0.0099174818 -0.0026976924)
(-0.0052680581 -0.010395437 0.0005940228)
(-0.0033875779 -0.0078151531 0.00034520511)
(-0.0028263723 -0.007739439 0.00087815514)
(-0.00098302235 -0.004587296 0.001607098)
(-0.0021917562 -0.003602457 0.00046549545)
(0.0025057131 -0.004072133 -0.00080663348)
(0.0021521598 -0.0041660492 0.00070771692)
(0.004718465 -0.0092625518 0.00076663043)
(-0.00067405769 -0.015006392 -0.00048846266)
(-0.0005865579 -0.015694504 0.0009608597)
(-0.0023365358 -0.012491174 0.00090785324)
(-6.6154359e-06 -0.0099475557 0.0010555388)
(0.0024344865 -0.014398664 0.0020253997)
(0.00082070009 -0.01570055 0.0019852458)
(-0.00032494682 -0.017480579 0.00088717792)
(-0.00041669979 -0.016431986 0.0031736045)
(-0.00071669591 -0.016038827 0.0035429544)
(-0.0001129671 -0.016847714 0.0039289455)
(0.00013935874 -0.017596972 0.002308841)
(-0.0012752064 -0.017212425 0.0022401783)
(-0.00051378514 -0.016775591 0.00039591716)
(-0.0045062448 -0.011816232 -0.0010363337)
(-0.0018229816 -0.012043963 -0.002709521)
(0.00073536689 -0.012056938 5.6626206e-05)
(0.0020067388 -0.013758661 0.002607715)
(-0.0020225806 -0.018709587 0.0034734667)
(-0.0022455622 -0.016988047 0.0026392161)
(-0.0032841864 -0.01607232 0.0025519704)
(-0.0032558692 -0.015548067 0.0017488462)
(-0.0023866336 -0.011842147 0.0014759764)
(0.00095481338 -0.01205571 -8.5754309e-05)
(0.0032415462 -0.017416469 0.001337542)
(0.0031906752 -0.017578983 0.00077431563)
(0.0023671239 -0.016695182 0.00025271043)
(0.0014711464 -0.016575917 0.00053573204)
(0.00083162734 -0.019006223 -0.00061286323)
(0.00099837893 -0.016077263 -0.00018378908)
(0.00055951668 -0.015730577 -0.0017400443)
(-0.0022884007 0.016803067 0.003175348)
(-0.0029981771 0.017267856 0.0037967885)
(-0.0030090687 0.014098324 0.003087416)
(0.0027475958 0.0009359981 -0.0016479838)
(0.0058225425 0.014313259 -0.0002908989)
(0.0048521598 0.01726685 -0.00083726534)
(-0.0011677973 0.018391805 -0.0025950262)
(-0.0035902297 0.017978746 -0.00058641598)
(-0.0036387973 0.017581271 0.0024928265)
(-0.0013512263 0.017673709 0.0029358972)
(0.00040154096 0.018872178 0.001260408)
(-0.0018049893 0.018225935 0.0019706119)
(-0.0015660888 0.018222095 -0.0004919489)
(-0.0051722194 0.014441124 -0.0008734657)
(0.0046872904 -0.005309871 -0.0036712473)
(0.00071673248 -0.0021283714 -0.0037784244)
(0.0072275485 0.013834142 -0.001207181)
(0.00090153926 0.019742565 -0.00012298503)
(-0.0051523806 0.018721196 0.0025203242)
(-0.0057260008 0.017587345 0.0039747719)
(-0.0052786868 0.015122153 0.0040799538)
(-0.0023501122 0.0054245361 0.001088912)
(0.00030790355 0.00113839 0.0012370355)
(0.0050398378 0.015892277 0.0033368639)
(0.0054449009 0.019049129 0.0014666928)
(0.0032145917 0.018731427 -0.0014257192)
(-0.0025717126 0.018431136 -0.0018060861)
(-0.00018221696 0.0202857 -0.00051974754)
(0.0014067621 0.017786888 -0.0010974279)
(0.00077395721 0.017231841 -0.0012751366)
(0.00014820173 0.00049044891 0.0010470943)
(0.0015144856 -0.008839729 -7.3607072e-05)
(0.0046149701 -0.01325992 -0.0016713869)
(0.0019527415 -0.014599739 -0.0052334054)
(-0.004608051 -0.011855831 -0.00409552)
(-0.00013311791 -0.00081708798 -0.0019060104)
(-0.0024305046 2.4207848e-06 -0.00016781322)
(-0.0018458501 -0.0025614606 -0.0015113629)
(-0.0032279515 -0.0089424858 -0.003174805)
(-0.0042642593 -0.013480112 -0.0038318323)
(-0.0032266206 -0.0086107194 -0.0012841544)
(0.00043276824 -0.01035167 -0.00071010934)
(0.0043861208 -0.007151526 -0.00045554915)
(0.0085350368 -0.013858569 -0.0013573599)
(0.0067560331 -0.016219271 -0.0034158186)
(-0.0045069632 -0.014747778 -0.0059051182)
(-0.0046969764 -0.010500009 -0.0041241849)
(-0.0013780164 0.0063654132 -0.0011855254)
(-0.0024939715 0.0041444416 0.00054028168)
(-0.00048048385 -0.0031245733 -0.0018627255)
(0.0012238002 -0.014644272 -0.0058885312)
(-0.00050814531 -0.013215057 -0.0038628869)
(-0.00015892925 -0.014492343 0.00055998439)
(-0.0010444149 -0.0169107 -0.0050107022)
(-0.0005236135 -0.0034607218 -0.0014382218)
(-2.1259616e-05 0.0044117668 -0.0019695563)
(-0.0019746428 -0.0014390719 -0.0011129188)
(0.001043446 -0.015011285 0.003730207)
(-0.0019761997 -0.0043846037 7.1255846e-05)
(-0.0012301744 -0.0016203855 -0.0002792992)
(0.00083128159 0.0084661592 0.00070209731)
(0.0036413755 0.0084935726 -0.00069350566)
(0.00093658119 0.0028526471 -5.891961e-05)
(0.0019128701 0.0082378969 -0.0016554508)
(-0.0039846018 0.010924866 -0.002273703)
(-0.00333697 0.0081098 0.0019885188)
(-0.0014799955 0.0087481507 0.002323351)
(-0.00024146235 0.0087688064 -0.00017541882)
(-0.0010432426 0.010695589 -0.0014037022)
(-0.0043025164 0.012700924 0.0002751929)
(-0.0032593236 0.0063048819 0.00070019839)
(-0.00060480497 -0.00040952534 1.0654943e-06)
(0.00065350372 0.0020407609 0.00031510962)
(0.0042875772 0.010990562 0.00033418718)
(0.0015394187 0.01204412 -0.0003591167)
(-0.0018517764 0.0099277303 -0.0027139835)
(-0.0052892482 0.010433848 -0.0021488117)
(-0.0027232104 0.0097705897 -0.00044219254)
(-0.00039487988 0.0092448679 -0.00026279883)
(0.0028850476 0.0077586134 -0.00269253)
(0.00071332282 0.012250097 -0.0048756328)
(8.3341526e-05 0.0013011896 -0.0027144833)
(-0.00072166875 -0.0028735032 0.00062247655)
(-0.0013400656 0.013027774 -0.0018033425)
(-0.0047104261 0.009056543 -0.00040248283)
(-0.0011774354 0.0097096054 -0.0018150212)
(0.0031488904 0.0092457529 -0.00029376881)
(-0.00044929599 0.013307377 -0.00079457747)
(-0.0055372838 0.0090344148 0.00027946076)
(-0.0016376429 0.0063978417 0.0013605492)
(0.0012069061 -0.001167038 -0.0017800538)
(0.0018479039 -0.010361707 -0.0029218721)
(-0.0041623362 -0.010532232 -0.00011748019)
(-0.0054246465 -0.006588614 0.0014797579)
(-0.0040605844 -0.0014625619 0.001131672)
(-0.0030671977 -0.0010488485 0.0030552033)
(-0.0014021997 0.00011221552 0.0028674942)
(0.00059092847 -0.0019561343 -8.216103e-05)
(0.0012554285 -0.0037066067 0.0011895859)
(0.0020326264 -0.004609833 0.0016544255)
(0.003832376 -0.0098687994 0.0027205546)
(0.00017604036 -0.011184115 0.00062511042)
(-0.0045614918 -0.011110551 -0.0023111545)
(-0.0058455027 -0.011565795 -0.0020939849)
(-0.0054722136 -0.0093498737 -0.0012035455)
(-0.0050907431 -0.006565049 0.00097801736)
(-0.0040864854 -0.0023122548 0.00050809012)
(-0.0011795479 0.0030110005 0.00052420651)
(0.0022901955 0.00063387924 -0.00021186932)
(0.0032578091 -0.0031384193 -0.0010133436)
(0.0037313944 -0.0051823618 -0.0024048079)
(0.0046264192 -0.0090683095 -0.0030887994)
(-0.0035763454 -0.010481976 -0.0015780955)
(-0.0046303816 -0.010133654 -1.37667e-05)
(-0.0026933195 -0.0057474535 0.00080297016)
(-0.0017438915 -0.0049020491 0.0031102672)
(-0.0019976789 -0.0024602309 0.0024663091)
(0.00058637657 0.0010538533 0.0017153256)
(0.0023516869 -0.0035885483 0.0033871565)
(0.002899353 -0.0095531005 0.003540875)
(-0.00019100828 -0.014879184 -0.0024047979)
(-0.0016119031 -0.014618402 -0.0016591974)
(-0.0018907242 -0.01536216 -0.0026498296)
(-0.0021003524 -0.015451601 -0.00028548372)
(-0.0027152119 -0.015416418 -0.00027339868)
(-0.0036234794 -0.014440923 0.00052962657)
(-0.00075373695 -0.010877358 0.00060925345)
(0.0022595851 -0.015014966 -0.0020494214)
(0.00029486231 -0.016920071 -0.0031493484)
(0.0020358564 -0.015693392 -0.0033421347)
(0.0016176509 -0.014996711 -0.0021726204)
(0.00073309018 -0.015744384 -0.00089075267)
(0.0011131343 -0.01658464 -0.00066678333)
(-0.0009116032 -0.014828085 0.00032261743)
(-0.0027528699 -0.015633791 0.0047625527)
(-0.0024241195 -0.014756985 0.0043264172)
(-0.002456399 -0.015598568 0.0024402804)
(-0.0024455256 -0.016806622 0.0012261264)
(-0.0014960021 -0.015334414 -0.0020148233)
(-0.00076189388 -0.015853336 -0.0019796755)
(-0.00077652145 -0.017432022 -0.0010571725)
(-0.00082596187 -0.017912199 -0.00082323361)
(-0.00093829805 -0.018921291 -0.0016550054)
(-0.0012906756 -0.016881967 -0.0033615306)
(-0.0010480289 -0.01742301 -0.0031863243)
(-0.00061441232 -0.015902038 -0.0026865248)
(-0.0027702525 -0.016243294 -0.0015015065)
(-0.00023512439 -0.012276124 2.879774e-05)
(0.0024264077 -0.012174084 -0.0010927608)
(0.002134949 -0.015674593 -0.0013431851)
(-0.0014202976 0.016514509 0.00080636211)
(-0.003753126 0.016789062 0.0010745933)
(-0.003606825 0.016522381 -0.00094231664)
(0.001892584 0.016363591 -0.00017165679)
(-0.0026261649 0.0171727 -0.00039914818)
(-0.0046921866 0.013153498 0.00027395211)
(-0.0019640397 -0.0010501066 0.0014812105)
(0.00094186195 0.015867828 -0.0044911114)
(6.9654415e-05 0.017677546 -0.0059464897)
(0.00071605254 0.016493508 -0.0060481609)
(0.0017328238 0.016295036 -0.0039896208)
(0.0019044897 0.017078039 -0.0012269207)
(0.002682439 0.017878525 -0.00044762687)
(-0.00033067908 0.016618367 0.0008918328)
(-0.00047851667 0.016899925 0.0050507407)
(0.0025744842 0.016196272 0.0055560644)
(0.0035359483 0.017326981 0.0022469616)
(0.00068379943 0.018495138 -0.0035330697)
(-0.00042012501 0.01666936 -0.0051772073)
(0.0017808798 0.017203196 -0.0045495987)
(0.00068416179 0.019160568 -0.000943125)
(-0.0025905338 0.019274993 0.0016798178)
(-0.0044339134 0.019945765 0.00030267907)
(-0.0043146619 0.018242288 -0.0040250879)
(-0.0024593934 0.017501495 -0.0051096289)
(-0.00072993668 0.017048273 -0.0045691796)
(-0.0039513969 0.016883715 -0.0023940673)
(0.0010336083 -0.0020217442 0.00015285177)
(-1.9851976e-05 0.0060960451 -6.8886465e-05)
(0.0041978734 0.01653962 -0.0021161128)
(0.00010182157 0.0014652016 0.0010728227)
(0.00071597759 0.00032684235 0.0017857216)
(-0.0008646052 -0.01704177 0.003857148)
(-0.00086681698 -0.014478934 -0.0013454493)
(0.00057533554 0.00073431264 -0.0015090223)
(0.0051594537 -0.013112948 -0.00011078124)
(-0.00088732715 -0.014913607 0.0035940754)
(-0.0059677631 -0.015453489 0.004191995)
(-0.003507234 -0.01117411 0.0029460498)
(-0.0034860049 -0.013290805 0.0040139864)
(-0.0018421468 -0.014262184 0.0041038325)
(0.001883875 -0.012557543 0.0030316399)
(0.0034396322 -0.010118161 0.0017760383)
(0.0027482066 -0.0046869158 -0.0011210014)
(0.002193832 -0.014814836 -0.006163919)
(-0.0026425857 -0.014013541 -0.0047725107)
(0.0013861558 -0.0072882425 -0.0015691168)
(0.001410886 0.00083429509 -0.002020232)
(0.00086696664 -0.0069466451 -0.002026578)
(0.001862097 -0.0061975914 -0.0034495837)
(-0.0007185295 0.0030405302 -0.00037519626)
(-0.0025573824 0.0010917659 0.00059015236)
(0.00072482179 -0.0099502656 -0.00097416299)
(-0.00027069671 -0.010267804 0.00041865335)
(-0.0025393671 -0.017747242 0.0033603752)
(-0.0026988944 -0.0099409891 0.0025858219)
(0.0037977193 -0.012559644 0.00051720204)
(0.0029529795 -0.014790591 0.00018864509)
(-0.0053833505 -0.012743331 0.0036493299)
(-0.001468427 -0.0085866989 0.0022824666)
(0.0012951208 0.0088767548 0.00081575437)
(0.0039273271 0.0085584887 0.0019344327)
(0.0038350835 0.011539116 0.0021199283)
(-0.00011457604 0.002679223 -0.00039450558)
(0.0022806964 0.0039052071 -0.0016739892)
(0.0058147032 0.010167274 -0.0025016432)
(0.004206109 0.010970301 -0.00075276755)
(-0.00062979599 0.01329816 -0.00028727421)
(-0.0019274175 0.0069328397 0.00071751262)
(-0.00051736613 0.0033103395 -6.591213e-05)
(5.0938779e-05 0.00031008862 0.0004743214)
(0.0011780483 0.0041473053 -0.00025142798)
(0.0029360672 0.011153641 -0.00085914092)
(0.0039878697 0.0098092093 -0.00075380614)
(0.0020355989 0.01348128 0.0016824408)
(-0.0028496555 0.0046068059 -0.00013907213)
(-0.0019630459 0.0028159349 0.00051853754)
(0.001195963 0.0082831649 0.0014690912)
(0.0012061673 0.0094923952 0.00060809032)
(-0.0019422334 0.0091568898 -0.0015911461)
(-0.0017000553 0.0086997005 0.00075942012)
(0.0032859662 0.0082443824 0.00012436155)
(0.0056808361 0.010991262 0.00078116226)
(0.0045324987 0.011133854 0.0013016929)
(0.0012581463 0.015065502 0.0021142672)
(8.1122401e-05 0.0022637794 0.0032062241)
(0.0018204407 0.0042202351 0.0020652543)
(0.001116813 0.009921586 -0.00086143213)
(-0.0030683504 0.0076137341 0.0041762099)
(-0.00039917218 0.0026771593 0.0044455276)
(0.0020035616 0.00030627143 -8.0817961e-05)
(0.0033277719 -0.0026269108 0.00036381782)
(0.0047989071 -0.0086856667 -0.0006564963)
(0.0040138948 -0.012159033 4.611808e-05)
(-0.0020928651 -0.0088239617 0.0033974741)
(-0.0015696708 -0.0074569683 0.0031551788)
(0.00019139982 -0.0027090223 0.0031890647)
(0.0021785135 -0.00378431 0.0029829194)
(0.004390208 -0.0091248107 0.0031686975)
(0.0039303165 -0.01048992 0.0016308608)
(0.0024061448 -0.011465834 0.00023524492)
(-0.0024736925 -0.011207019 -0.001585231)
(-0.0018939514 -0.00660491 -0.0014751166)
(-0.0019685256 -0.0020891123 -0.0013847484)
(0.0015998738 -0.001279448 -0.00062134169)
(0.004147142 -0.0090436424 0.00062628163)
(-0.00098871374 -0.010217672 0.0031895997)
(-0.00047294136 -0.00061780833 0.0029603266)
(0.0017372594 -0.0013841559 0.0026128756)
(0.0016709388 -0.0034050281 0.0013884066)
(0.0030013606 -0.0082205883 0.00044612376)
(-7.0249254e-05 -0.0083787185 -0.00268585)
(0.0019786844 -0.0052581596 -0.0019447496)
(0.0021719784 -0.0079751832 -0.00027567424)
(0.0042278221 -0.0080015754 0.0017777099)
(0.0048793878 -0.0099244538 0.0036151757)
(-0.00052043936 -0.010193647 0.0043695267)
(0.00032511344 -0.0063879601 0.005732201)
(0.002821959 -0.0098884494 0.0043966875)
(0.0025453201 -0.011750175 0.002143436)
(-0.00046642899 -0.015288457 -0.0031930987)
(-0.0029461149 -0.013386556 -0.0029122516)
(-0.0021956073 -0.012122659 -0.0029761359)
(-0.00091047194 -0.012273196 -0.00070884798)
(-0.0017677071 -0.015910422 -0.001749815)
(-0.0034866372 -0.014987096 0.00011746881)
(-0.0034880644 -0.012729692 0.00051935058)
(-0.0019982483 -0.010969904 -0.00034038268)
(-0.00098168679 -0.011902397 -0.00046689322)
(0.00083632629 -0.012544691 -0.00049481705)
(0.002872449 -0.010126414 0.00011363012)
(0.0031205429 -0.012769461 -0.0012991118)
(0.00017925331 -0.015263784 -0.0016544404)
(-0.00071657492 -0.015772274 -0.0041665346)
(-0.0012068615 -0.012602814 -0.004418574)
(0.0012418281 -0.012430369 -0.0038842918)
(0.0013983969 -0.016190532 -0.0039106276)
(-8.6140428e-05 -0.017467308 -0.0036019)
(-0.0022802797 -0.016498152 -0.0033298095)
(-0.002576963 -0.012657378 -0.0029144321)
(-0.0015179607 -0.011501661 -0.0021461084)
(0.00053918657 -0.010175837 -0.0022140665)
(0.0014130116 -0.016977755 -0.0024277457)
(-0.002112445 -0.017374491 0.0024196843)
(0.00083149607 -0.01095634 0.0014467899)
(0.0017217635 -0.018252561 0.00052943592)
(-0.0029211273 0.016867853 -0.0015518424)
(-0.005496693 0.014555287 -0.0011913202)
(-0.0019932687 0.0051461192 0.00062924762)
(-0.00036601668 0.0082531752 0.00026458916)
(0.0011115992 0.017421434 -0.0025027337)
(-0.0042258422 0.016306258 0.00072980045)
(-0.0030615255 0.0094409763 0.0021871259)
(-0.0015274477 0.00034478917 0.0014591009)
(-0.001025317 0.0015695967 0.0014330438)
(-0.00012177084 -9.1714655e-06 0.0028417338)
(0.00027783834 0.00094040742 0.0036383645)
(0.0036005119 0.01436818 0.0018668025)
(0.0019045911 0.01711685 0.00069962301)
(-0.00072282836 0.016674552 -0.0064620544)
(0.00025426727 0.0079496794 -0.0032415779)
(0.0023854278 0.0070032653 -0.0024106211)
(0.0049075039 0.016400833 -0.0052634278)
(0.0027015779 0.018779647 -0.0049617938)
(-0.0073076435 0.016213904 -0.00037080289)
(-0.0044928258 0.004896178 -0.00045444462)
(-0.0036333627 0.00155894 -0.00060374075)
(-0.0009473116 0.00061908885 -0.0007402104)
(0.0035090065 0.017013636 -0.0031726672)
(-0.002719836 0.016262818 0.005148645)
(0.0013171377 -0.0005047845 0.0012614598)
(0.0030528852 0.017900469 0.0029679)
(-0.00011398734 0.0027339756 0.00031563651)
(0.0021290975 -0.0052398106 0.0025503104)
(0.001317794 -0.015453799 0.0042368776)
(-0.004956658 -0.013072762 0.002028458)
(-0.0017931843 -0.0040673465 -0.002014772)
(-0.0016157783 -0.0013098221 -0.001323563)
(0.0037095035 -0.012813553 -0.0019703415)
(0.0012676587 -0.013566253 0.00072294739)
(0.0019189323 -0.01313393 0.0027229876)
(-0.0024211994 -0.014281384 0.0052746773)
(-0.0050771382 -0.014178587 0.0037437118)
(-0.0044645738 -0.013474489 0.0023009387)
(0.0011228526 -0.0026534598 0.0014113154)
(-0.00017588353 -0.016017123 0.003862567)
(0.00065507305 -0.013829294 0.0032195572)
(0.00094049643 -0.014480386 0.0037087152)
(-0.0016560975 -0.014120494 0.0047487188)
(0.0015067204 0.0063878941 -0.0024997305)
(-0.0014458773 -0.0010840019 0.002434706)
(0.00092986414 -0.015113867 0.0029365881)
(-0.0052549019 -0.013961649 0.0024034545)
(-0.0046328548 -0.013723836 0.0014369326)
(-0.0031936492 -0.012851151 0.00017646815)
(0.0045472249 -0.011023676 -0.0015592523)
(0.0027330221 -0.014014981 -0.0004407203)
(-0.004284253 -0.015089245 0.0011880258)
(0.0017948336 0.008581188 -0.0001686324)
(0.0044085607 0.0081395147 0.0027091842)
(0.0035449587 0.011116104 0.0010382608)
(-0.0024579854 0.007816057 0.0029385188)
(-0.0018173852 0.0049275798 0.0014738387)
(0.0017438984 0.0036669429 -0.00155215)
(0.0034963057 0.0038442633 -0.0012892302)
(0.0011778271 -3.3742301e-05 -0.00044332895)
(0.0018890407 0.0048014826 -0.0020724966)
(-0.00041649489 0.0091934954 -0.0011986613)