/*--------------------------------*- C++ -*----------------------------------*\
| =========                 |                                                 |
| \\      /  F ield         | OpenFOAM: The Open Source CFD Toolbox           |
|  \\    /   O peration     | Version:  v2012                                 |
|   \\  /    A nd           | Website:  www.openfoam.com                      |
|    \\/     M anipulation  |                                                 |
\*---------------------------------------------------------------------------*/
FoamFile
{
    version     2.0;
    format      ascii;
    class       volScalarField;
    location    "580/bottomWater";
    object      p;
}
// * * * * * * * * * * * * * * * * * * * * * * * * * * * * * * * * * * * * * //

dimensions      [1 -1 -2 0 0 0 0];


internalField   nonuniform List<scalar> 
1460
(
353.45411
353.45245
353.4548
353.45713
353.45812
353.45079
353.45201
353.44603
353.45173
353.45116
353.45126
353.4529
353.45965
353.44647
353.45364
353.45021
353.43775
353.46525
353.43724
353.45366
353.45008
353.4482
353.4654
353.44725
353.45952
353.44941
353.45182
353.45442
353.46385
353.45692
274.40848
274.42432
274.40557
274.40663
274.40255
274.4292
274.42954
274.42301
274.41262
274.41116
274.41128
274.45144
274.51385
274.50274
274.50572
274.4894
274.45042
274.4925
274.41806
274.41288
274.41169
274.43662
274.45566
274.42
274.41006
274.41242
274.42294
274.45289
274.46432
274.44837
196.32808
196.30469
196.31835
196.32827
196.30729
196.29415
196.28403
196.27948
196.30814
196.2968
196.26499
196.23481
196.22859
196.25877
196.259
196.25097
196.27843
196.23592
196.24913
196.28264
196.28438
196.26546
196.24179
196.27753
196.30881
196.2884
196.27037
196.26243
196.25109
196.26677
117.66609
117.61437
117.64979
117.67606
117.66212
117.6369
117.6289
117.63389
117.67694
117.68118
117.65851
117.66432
117.657
117.67833
117.70777
117.6883
117.66502
117.65664
117.63742
117.68831
117.70653
117.63174
117.63793
117.64723
117.7129
117.69152
117.67548
117.67439
117.65536
117.64263
39.25805
39.276033
39.274056
39.283503
39.262895
39.263432
39.273857
39.240026
39.24431
39.249763
39.251678
39.248071
39.24373
39.219942
39.233461
39.216519
39.225545
39.247776
39.257955
39.269885
39.276472
39.275385
39.253554
39.231917
39.253553
39.247134
39.239693
39.226699
39.218609
39.236949
353.45221
353.44071
353.4695
353.45119
353.45794
353.45803
353.45978
353.45558
353.44496
353.45204
353.46043
353.45194
353.452
353.4419
353.43823
353.4362
353.45882
353.45708
353.44567
353.45156
353.45487
353.44754
353.46498
353.44708
353.45715
353.44718
353.46023
353.46541
353.46365
353.46154
274.41617
274.42209
274.45954
274.43396
274.43349
274.45345
274.47363
274.4458
274.41213
274.41032
274.4037
274.41196
274.44243
274.46437
274.45756
274.44513
274.49337
274.48693
274.41648
274.41167
274.41177
274.42776
274.45456
274.42551
274.41076
274.42263
274.45167
274.4683
274.42276
274.40908
196.30335
196.2803
196.23693
196.29226
196.27156
196.26801
196.25453
196.23301
196.25424
196.28712
196.28609
196.26238
196.23844
196.24644
196.27756
196.27103
196.22921
196.23607
196.24504
196.28709
196.2869
196.26446
196.23564
196.281
196.26979
196.28718
196.25034
196.24765
196.24621
196.2716
117.64343
117.59787
117.61943
117.59776
117.59642
117.62551
117.63953
117.63987
117.63137
117.67611
117.67143
117.64806
117.64348
117.65268
117.66379
117.66234
117.64239
117.65483
117.6318
117.68497
117.68608
117.62573
117.64868
117.64089
117.68721
117.6708
117.65886
117.65231
117.62331
117.66018
39.232506
39.23996
39.261793
39.257066
39.225275
39.223035
39.232283
39.241374
39.255511
39.256998
39.25981
39.243712
39.245485
39.233451
39.216047
39.223482
39.237111
39.249986
39.259842
39.273181
39.270939
39.26972
39.253649
39.226977
39.227628
39.227592
39.223247
39.22885
39.244739
39.244818
353.46388
353.46453
353.47331
353.47694
353.4706
353.47096
353.46429
353.454
353.45029
353.44768
353.4457
353.44557
353.44425
353.42814
353.4388
353.42099
353.44733
353.45392
353.44989
353.45649
353.45271
353.45054
353.45022
353.45813
353.45652
353.45509
353.46746
353.46862
353.46306
353.4661
274.42235
274.43338
274.49239
274.48487
274.48243
274.49385
274.4766
274.43198
274.40916
274.41261
274.42772
274.41306
274.42386
274.44105
274.44454
274.43793
274.47141
274.45774
274.40756
274.41161
274.40607
274.42798
274.4395
274.4653
274.45424
274.46137
274.473
274.42877
274.38981
274.40695
196.31765
196.28268
196.26535
196.26958
196.27248
196.26848
196.2602
196.26009
196.28627
196.30789
196.29446
196.30195
196.29106
196.28239
196.30526
196.29314
196.22214
196.22896
196.26621
196.30731
196.27863
196.26296
196.27508
196.2367
196.27072
196.26614
196.23779
196.23693
196.25173
196.30721
117.68224
117.65029
117.64455
117.64037
117.66233
117.68949
117.67777
117.64838
117.66655
117.67241
117.64263
117.66976
117.64722
117.64976
117.67536
117.66191
117.63797
117.64286
117.65513
117.68107
117.66558
117.6253
117.63417
117.6348
117.66523
117.66437
117.64823
117.63872
117.65878
117.67403
39.231123
39.216149
39.238793
39.235425
39.219336
39.225423
39.219117
39.223938
39.235151
39.249215
39.272984
39.253746
39.242472
39.240482
39.230598
39.230943
39.244108
39.249711
39.252494
39.275044
39.259887
39.258399
39.261633
39.225625
39.228778
39.229755
39.239271
39.245728
39.249949
39.261636
353.45432
353.44892
353.46286
353.44695
353.46868
353.4687
353.47056
353.45977
353.46582
353.46038
353.4753
353.45229
353.4385
353.43725
353.43802
353.43413
353.43723
353.43902
353.44257
353.44094
353.44156
353.45585
353.438
353.45405
353.45544
353.46338
353.46875
353.46087
353.45832
353.46208
274.41267
274.41261
274.44617
274.43621
274.4717
274.48544
274.46184
274.43702
274.40659
274.43013
274.48386
274.48224
274.43582
274.44172
274.43538
274.43977
274.45423
274.42936
274.42093
274.41243
274.4246
274.47758
274.44421
274.48085
274.47815
274.46557
274.43669
274.39177
274.3977
274.4108
196.30618
196.28887
196.27884
196.2993
196.25633
196.26057
196.24022
196.26159
196.2554
196.27595
196.2286
196.24252
196.29093
196.30682
196.3152
196.29904
196.28192
196.30927
196.30898
196.2731
196.25254
196.2466
196.29911
196.2612
196.26795
196.25224
196.25441
196.26827
196.32971
196.33759
117.65661
117.63996
117.64392
117.63998
117.67613
117.69156
117.67076
117.62111
117.69534
117.651
117.65693
117.65837
117.67249
117.67503
117.65862
117.62951
117.60522
117.65006
117.66116
117.65794
117.62561
117.64863
117.64933
117.67077
117.67705
117.64817
117.64108
117.66798
117.67329
117.66933
39.240826
39.239705
39.228633
39.219851
39.21266
39.223537
39.222695
39.244651
39.259194
39.2237
39.24435
39.2237
39.219686
39.219996
39.227367
39.238811
39.273089
39.240712
39.259159
39.252379
39.251048
39.242111
39.223681
39.219089
39.230046
39.230398
39.256938
39.246421
39.261036
39.28191
353.46804
353.46529
353.46446
353.48924
353.4645
353.46412
353.45991
353.46391
353.46028
353.44782
353.47987
353.46479
353.46391
353.45069
353.45199
353.44794
353.46248
353.46483
353.4594
353.46333
353.46044
353.46238
353.46578
353.4625
353.4687
353.4539
274.39741
274.39265
274.41916
274.46824
274.43031
274.40763
274.42292
274.40063
274.41773
274.41988
274.48264
274.45762
274.42019
274.41152
274.40996
274.42971
274.45509
274.47595
274.45861
274.459
274.4396
274.42041
274.40319
274.42472
274.44659
274.43873
196.33197
196.28562
196.27732
196.24115
196.28095
196.29271
196.27656
196.29183
196.28968
196.25385
196.23768
196.24039
196.28224
196.279
196.25901
196.24823
196.2462
196.25423
196.2561
196.26263
196.24129
196.28944
196.26712
196.28304
196.23309
196.27101
117.66355
117.63893
117.60807
117.63259
117.62124
117.66781
117.64559
117.6655
117.67644
117.64482
117.65351
117.65064
117.67588
117.67413
117.68038
117.63658
117.66898
117.67112
117.6765
117.67725
117.64916
117.66095
117.67116
117.63911
117.64131
117.6377
39.257291
39.251669
39.2557
39.260026
39.23933
39.217424
39.24669
39.23551
39.237029
39.237588
39.266255
39.25899
39.240669
39.238559
39.239791
39.239378
39.226161
39.238312
39.232553
39.230254
39.242236
39.249654
39.255901
39.254204
39.256765
39.266464
353.4644
353.46465
353.46214
353.46652
353.46877
353.45716
353.45417
353.44663
353.44333
353.44049
353.43927
353.44257
353.44091
353.43556
353.43091
353.43889
353.44257
353.43985
353.43201
353.43812
353.44294
353.45435
353.47165
353.4578
353.44678
353.45064
274.40309
274.39108
274.39326
274.42382
274.46212
274.45129
274.43436
274.38965
274.40159
274.40884
274.41882
274.42039
274.41721
274.43885
274.43574
274.44244
274.43795
274.43156
274.41393
274.42472
274.41242
274.44214
274.48868
274.46098
274.42306
274.42213
196.35977
196.33557
196.27211
196.27009
196.2513
196.28062
196.24572
196.2867
196.31215
196.30703
196.30177
196.29183
196.30938
196.3094
196.29782
196.29136
196.30006
196.293
196.29069
196.29942
196.2813
196.27807
196.24615
196.26768
196.29626
196.31513
117.69119
117.67563
117.65756
117.62041
117.65343
117.66623
117.64772
117.66794
117.67117
117.66165
117.63343
117.6331
117.66073
117.66582
117.62737
117.61324
117.61811
117.61071
117.61208
117.63308
117.67393
117.63296
117.65608
117.66084
117.67623
117.69005
39.283379
39.273768
39.257039
39.25089
39.236317
39.231821
39.251196
39.242932
39.256906
39.251342
39.27707
39.272248
39.252928
39.214383
39.21171
39.251023
39.281792
39.283263
39.252126
39.241236
39.232652
39.253579
39.233051
39.222729
39.231318
39.23474
353.46541
353.46071
353.46301
353.47344
353.46711
353.4708
353.4562
353.45468
353.46016
353.45864
353.46273
353.46038
353.45733
353.45368
353.46256
353.45979
353.46819
353.45882
353.46681
353.46077
353.45458
353.45959
353.46134
353.45918
353.45712
353.45506
353.45775
353.46598
353.44202
353.45211
274.40165
274.39102
274.41544
274.45446
274.47627
274.47655
274.41852
274.3912
274.39752
274.39929
274.40044
274.40042
274.41036
274.43028
274.46536
274.47616
274.49463
274.47972
274.48394
274.45716
274.41835
274.4005
274.40011
274.40321
274.40027
274.4057
274.42732
274.46665
274.42853
274.43014
196.32006
196.27488
196.25927
196.24719
196.25713
196.22275
196.24221
196.26807
196.30991
196.30009
196.29619
196.29645
196.28203
196.25597
196.24247
196.26611
196.26083
196.25974
196.22989
196.23021
196.2571
196.28004
196.29812
196.3131
196.31099
196.27807
196.2748
196.24544
196.2868
196.30641
117.67119
117.65301
117.62368
117.64967
117.66603
117.66096
117.64343
117.67035
117.68184
117.69102
117.69511
117.68455
117.67031
117.64983
117.66364
117.67134
117.69905
117.66939
117.65276
117.64276
117.64078
117.6782
117.69188
117.68633
117.68002
117.66135
117.67383
117.66353
117.66429
117.6765
39.261722
39.253474
39.250519
39.239504
39.230283
39.242626
39.248979
39.25173
39.26467
39.267704
39.27013
39.264607
39.25222
39.259899
39.243764
39.22696
39.234207
39.219933
39.23743
39.245359
39.252688
39.265739
39.27108
39.26655
39.256731
39.242124
39.230526
39.234536
39.22935
39.229547
353.46188
353.46098
353.46864
353.46894
353.46543
353.47078
353.44814
353.45131
353.44681
353.43971
353.44219
353.44771
353.45381
353.45637
353.45607
353.46162
353.46413
353.45608
353.44775
353.44789
353.44408
353.44225
353.43608
353.44245
353.44515
353.44696
353.45683
353.43958
353.4454
353.44578
274.41196
274.42905
274.47383
274.48487
274.48451
274.4704
274.41401
274.4085
274.41233
274.41834
274.42121
274.40315
274.40394
274.40494
274.40876
274.4362
274.46735
274.47182
274.43587
274.4314
274.42069
274.42817
274.4243
274.41913
274.41045
274.41017
274.45073
274.43454
274.42226
274.41655
196.27841
196.24409
196.24273
196.26043
196.26633
196.22243
196.24257
196.27194
196.29351
196.27077
196.28509
196.28511
196.30961
196.29247
196.27855
196.25978
196.25582
196.25387
196.26886
196.28893
196.2919
196.32164
196.30457
196.32667
196.31782
196.31009
196.25429
196.30632
196.29302
196.32272
117.65805
117.64461
117.65144
117.67554
117.68354
117.65925
117.65725
117.69163
117.67345
117.6439
117.64428
117.67424
117.68646
117.67958
117.67874
117.66971
117.66855
117.66406
117.65826
117.64482
117.66245
117.65745
117.62904
117.65439
117.67521
117.66592
117.63855
117.63397
117.64418
117.6794
39.24854
39.251468
39.235602
39.233994
39.235
39.240893
39.236074
39.240458
39.249883
39.271071
39.268124
39.253661
39.268771
39.249002
39.240233
39.240241
39.224959
39.228282
39.229321
39.239715
39.251452
39.267039
39.289367
39.260709
39.26044
39.238433
39.255957
39.286998
39.260375
39.25073
353.46054
353.45348
353.47037
353.47355
353.47335
353.46846
353.47154
353.47109
353.46175
353.47686
353.46026
353.45854
353.45318
353.45572
353.45715
353.45901
353.45718
353.45585
353.45661
353.45534
353.44691
353.44708
353.46188
353.44869
353.4544
353.45114
353.46711
353.45294
353.44953
353.45421
274.4137
274.41356
274.46009
274.46784
274.44421
274.40487
274.39999
274.40137
274.41036
274.46462
274.46421
274.44325
274.42606
274.41903
274.40203
274.39933
274.41831
274.41941
274.40798
274.40749
274.43463
274.44502
274.45071
274.44127
274.41772
274.42943
274.47889
274.4579
274.414
274.41745
196.28111
196.26126
196.25363
196.25603
196.24058
196.23369
196.27636
196.26398
196.24
196.21698
196.24863
196.22867
196.25863
196.25521
196.29221
196.27532
196.2909
196.26506
196.2967
196.27469
196.25373
196.27774
196.25
196.2758
196.27036
196.25487
196.22699
196.24864
196.25695
196.30582
117.6662
117.65305
117.66613
117.67011
117.65265
117.62707
117.68564
117.69097
117.65661
117.6633
117.66053
117.65058
117.6305
117.64433
117.68368
117.67584
117.63675
117.64068
117.66429
117.6786
117.64216
117.66956
117.67156
117.65295
117.67927
117.65424
117.65608
117.64048
117.65086
117.67299
39.2332
39.226115
39.218944
39.226575
39.227611
39.253972
39.260776
39.265927
39.250521
39.253992
39.23213
39.247207
39.250191
39.236393
39.238628
39.242677
39.252297
39.27137
39.257475
39.248461
39.249967
39.226519
39.238254
39.234894
39.231956
39.231582
39.236542
39.250275
39.249435
39.256319
353.45791
353.45452
353.45803
353.45889
353.46238
353.46802
353.46263
353.46179
353.46677
353.4629
353.4691
353.46402
353.46108
353.45819
353.44894
353.46562
353.45292
353.45882
353.45902
353.45389
353.47094
353.46157
353.45086
353.45209
353.45071
353.45474
353.45635
353.45498
353.45186
353.45168
274.40392
274.39675
274.42262
274.4221
274.41409
274.40185
274.40422
274.42845
274.47409
274.4734
274.50195
274.49672
274.48308
274.46706
274.43898
274.46979
274.43297
274.4063
274.40983
274.41621
274.48691
274.48568
274.42768
274.42322
274.42121
274.45045
274.48645
274.48086
274.4505
274.43022
196.31826
196.29143
196.28253
196.2857
196.29146
196.28977
196.27804
196.24407
196.2441
196.28419
196.26202
196.26299
196.2608
196.25646
196.28443
196.25379
196.28097
196.27643
196.29017
196.24845
196.24084
196.24124
196.27577
196.30094
196.30362
196.26535
196.26804
196.26809
196.24064
196.27977
117.67099
117.66024
117.63771
117.65132
117.6527
117.68254
117.68247
117.65204
117.66538
117.67539
117.70537
117.69034
117.67439
117.6654
117.62143
117.63917
117.61057
117.68891
117.6824
117.64162
117.65799
117.65289
117.66456
117.70974
117.69229
117.69194
117.68226
117.66801
117.64844
117.66393
39.25656
39.247955
39.257561
39.24521
39.22673
39.262282
39.253856
39.259259
39.248743
39.229076
39.234401
39.23098
39.234731
39.2209
39.235994
39.263721
39.273408
39.271339
39.268213
39.264519
39.26088
39.241126
39.234075
39.238522
39.234749
39.227267
39.223934
39.220956
39.242953
39.242835
)
;

boundaryField
{
    minX
    {
        type            calculated;
        value           nonuniform List<scalar> 
50
(
353.45411
274.40848
196.32808
117.66609
39.25805
353.45221
274.41617
196.30335
117.64343
39.232506
353.46388
274.42235
196.31765
117.68224
39.231123
353.45432
274.41267
196.30618
117.65661
39.240826
353.46804
274.39741
196.33197
117.66355
39.257291
353.4644
274.40309
196.35977
117.69119
39.283379
353.46541
274.40165
196.32006
117.67119
39.261722
353.46188
274.41196
196.27841
117.65805
39.24854
353.46054
274.4137
196.28111
117.6662
39.2332
353.45791
274.40392
196.31826
117.67099
39.25656
)
;
    }
    maxX
    {
        type            calculated;
        value           nonuniform List<scalar> 
50
(
353.45692
274.44837
196.26677
117.64263
39.236949
353.46154
274.40908
196.2716
117.66018
39.244818
353.4661
274.40695
196.30721
117.67403
39.261636
353.46208
274.4108
196.33759
117.66933
39.28191
353.4539
274.43873
196.27101
117.6377
39.266464
353.45064
274.42213
196.31513
117.69005
39.23474
353.45211
274.43014
196.30641
117.6765
39.229547
353.44578
274.41655
196.32272
117.6794
39.25073
353.45421
274.41745
196.30582
117.67299
39.256319
353.45168
274.43022
196.27977
117.66393
39.242835
)
;
    }
    minY
    {
        type            calculated;
        value           nonuniform List<scalar> 
292
(
392.4
392.4
392.4
392.4
392.4
392.4
392.4
392.4
392.4
392.4
392.4
392.4
392.4
392.4
392.4
392.4
392.4
392.4
392.4
392.4
392.4
392.4
392.4
392.4
392.4
392.4
392.4
392.4
392.4
392.4
392.4
392.4
392.4
392.4
392.4
392.4
392.4
392.4
392.4
392.4
392.4
392.4
392.4
392.4
392.4
392.4
392.4
392.4
392.4
392.4
392.4
392.4
392.4
392.4
392.4
392.4
392.4
392.4
392.4
392.4
392.4
392.4
392.4
392.4
392.4
392.4
392.4
392.4
392.4
392.4
392.4
392.4
392.4
392.4
392.4
392.4
392.4
392.4
392.4
392.4
392.4
392.4
392.4
392.4
392.4
392.4
392.4
392.4
392.4
392.4
392.4
392.4
392.4
392.4
392.4
392.4
392.4
392.4
392.4
392.4
392.4
392.4
392.4
392.4
392.4
392.4
392.4
392.4
392.4
392.4
392.4
392.4
392.4
392.4
392.4
392.4
392.4
392.4
392.4
392.4
392.4
392.4
392.4
392.4
392.4
392.4
392.4
392.4
392.4
392.4
392.4
392.4
392.4
392.4
392.4
392.4
392.4
392.4
392.4
392.4
392.4
392.4
392.4
392.4
392.4
392.4
392.4
392.4
392.4
392.4
392.4
392.4
392.4
392.4
392.4
392.4
392.4
392.4
392.4
392.4
392.4
392.4
392.4
392.4
392.4
392.4
392.4
392.4
392.4
392.4
392.4
392.4
392.4
392.4
392.4
392.4
392.4
392.4
392.4
392.4
392.4
392.4
392.4
392.4
392.4
392.4
392.4
392.4
392.4
392.4
392.4
392.4
392.4
392.4
392.4
392.4
392.4
392.4
392.4
392.4
392.4
392.4
392.4
392.4
392.4
392.4
392.4
392.4
392.4
392.4
392.4
392.4
392.4
392.4
392.4
392.4
392.4
392.4
392.4
392.4
392.4
392.4
392.4
392.4
392.4
392.4
392.4
392.4
392.4
392.4
392.4
392.4
392.4
392.4
392.4
392.4
392.4
392.4
392.4
392.4
392.4
392.4
392.4
392.4
392.4
392.4
392.4
392.4
392.4
392.4
392.4
392.4
392.4
392.4
392.4
392.4
392.4
392.4
392.4
392.4
392.4
392.4
392.4
392.4
392.4
392.4
392.4
392.4
392.4
392.4
392.4
392.4
392.4
392.4
392.4
392.4
392.4
392.4
392.4
392.4
392.4
392.4
392.4
392.4
392.4
392.4
392.4
392.4
392.4
392.4
392.4
392.4
)
;
    }
    minZ
    {
        type            calculated;
        value           nonuniform List<scalar> 
150
(
353.45411
274.40848
196.32808
117.66609
39.25805
353.45245
274.42432
196.30469
117.61437
39.276033
353.4548
274.40557
196.31835
117.64979
39.274056
353.45713
274.40663
196.32827
117.67606
39.283503
353.45812
274.40255
196.30729
117.66212
39.262895
353.45079
274.4292
196.29415
117.6369
39.263432
353.45201
274.42954
196.28403
117.6289
39.273857
353.44603
274.42301
196.27948
117.63389
39.240026
353.45173
274.41262
196.30814
117.67694
39.24431
353.45116
274.41116
196.2968
117.68118
39.249763
353.45126
274.41128
196.26499
117.65851
39.251678
353.4529
274.45144
196.23481
117.66432
39.248071
353.45965
274.51385
196.22859
117.657
39.24373
353.44647
274.50274
196.25877
117.67833
39.219942
353.45364
274.50572
196.259
117.70777
39.233461
353.45021
274.4894
196.25097
117.6883
39.216519
353.43775
274.45042
196.27843
117.66502
39.225545
353.46525
274.4925
196.23592
117.65664
39.247776
353.43724
274.41806
196.24913
117.63742
39.257955
353.45366
274.41288
196.28264
117.68831
39.269885
353.45008
274.41169
196.28438
117.70653
39.276472
353.4482
274.43662
196.26546
117.63174
39.275385
353.4654
274.45566
196.24179
117.63793
39.253554
353.44725
274.42
196.27753
117.64723
39.231917
353.45952
274.41006
196.30881
117.7129
39.253553
353.44941
274.41242
196.2884
117.69152
39.247134
353.45182
274.42294
196.27037
117.67548
39.239693
353.45442
274.45289
196.26243
117.67439
39.226699
353.46385
274.46432
196.25109
117.65536
39.218609
353.45692
274.44837
196.26677
117.64263
39.236949
)
;
    }
    maxZ
    {
        type            calculated;
        value           nonuniform List<scalar> 
150
(
353.45791
274.40392
196.31826
117.67099
39.25656
353.45452
274.39675
196.29143
117.66024
39.247955
353.45803
274.42262
196.28253
117.63771
39.257561
353.45889
274.4221
196.2857
117.65132
39.24521
353.46238
274.41409
196.29146
117.6527
39.22673
353.46802
274.40185
196.28977
117.68254
39.262282
353.46263
274.40422
196.27804
117.68247
39.253856
353.46179
274.42845
196.24407
117.65204
39.259259
353.46677
274.47409
196.2441
117.66538
39.248743
353.4629
274.4734
196.28419
117.67539
39.229076
353.4691
274.50195
196.26202
117.70537
39.234401
353.46402
274.49672
196.26299
117.69034
39.23098
353.46108
274.48308
196.2608
117.67439
39.234731
353.45819
274.46706
196.25646
117.6654
39.2209
353.44894
274.43898
196.28443
117.62143
39.235994
353.46562
274.46979
196.25379
117.63917
39.263721
353.45292
274.43297
196.28097
117.61057
39.273408
353.45882
274.4063
196.27643
117.68891
39.271339
353.45902
274.40983
196.29017
117.6824
39.268213
353.45389
274.41621
196.24845
117.64162
39.264519
353.47094
274.48691
196.24084
117.65799
39.26088
353.46157
274.48568
196.24124
117.65289
39.241126
353.45086
274.42768
196.27577
117.66456
39.234075
353.45209
274.42322
196.30094
117.70974
39.238522
353.45071
274.42121
196.30362
117.69229
39.234749
353.45474
274.45045
196.26535
117.69194
39.227267
353.45635
274.48645
196.26804
117.68226
39.223934
353.45498
274.48086
196.26809
117.66801
39.220956
353.45186
274.4505
196.24064
117.64844
39.242953
353.45168
274.43022
196.27977
117.66393
39.242835
)
;
    }
    bottomWater_to_rightSolid
    {
        type            calculated;
        value           nonuniform List<scalar> 
130
(
0.007775659
0.017954698
0.02988472
0.036472457
0.035385341
0.013554483
-0.0080827558
0.013553411
0.0071338714
-0.00030741272
-0.013300822
-0.021391469
-0.0030512029
0.0099861781
0.019842231
0.033181305
0.030939113
0.029720108
0.013649302
-0.013023445
-0.01237153
-0.012407851
-0.016753428
-0.011150137
0.0047392467
0.0048178456
0.0097112544
0.012493981
0.035044167
0.019887184
0.018399384
0.021633049
-0.014375246
-0.011222268
-0.010244862
-0.00072949139
0.0057278359
0.0099493245
0.021635899
0.0007123735
0.019158932
0.012379357
0.011047809
0.0021114671
-0.016318895
-0.020911146
-0.009953641
-0.0096022923
0.016938393
0.0064207362
0.021035918
0.041910108
-0.0014407396
-0.00020864978
-0.00062219889
-0.013838624
-0.0016878444
-0.0074470559
-0.0097458746
0.0022362406
0.0096544559
0.015900632
0.014204306
0.016764783
0.026464026
-0.025616776
-0.028289973
0.011022936
0.041792348
0.043263333
0.012125904
0.0012362102
-0.0073482647
0.013579108
-0.0069494558
-0.017271017
-0.0086815664
-0.0052598011
-0.020066765
-0.0025697043
0.0053588666
0.012688313
0.025738578
0.031079927
0.026550002
0.016731409
0.002124226
-0.0094738817
-0.0054639838
-0.010650151
-0.010453364
-0.011717821
-0.010679272
-0.00028482109
0.011452061
0.027039177
0.049367286
0.020708699
0.020440351
-0.0015674243
0.015957401
0.046997525
0.020374908
0.010729616
0.031369661
0.017475232
0.0084612221
0.0099666281
-0.01348141
-0.0017455138
-0.0051056459
-0.0080437461
-0.0084178541
-0.0034578477
0.010275304
0.0094350518
0.016319283
0.031339005
0.028213477
0.024519084
0.020880066
0.0011263907
-0.0059251303
-0.0014776163
-0.0052505546
-0.012733154
-0.016066472
-0.01904447
0.0029531724
0.0028351443
)
;
    }
    bottomWater_to_leftSolid
    {
        type            calculated;
        value           nonuniform List<scalar> 
130
(
0.018049603
0.036033051
0.034055801
0.043503164
0.022894736
0.023431661
0.033857279
2.5819564e-05
0.0043101946
0.0097628375
0.011677649
0.0080707405
0.0037303165
-0.0074938093
-3.9719359e-05
0.021793418
0.017065576
-0.014724907
-0.016965406
-0.0077170355
0.0013738766
0.015511377
0.016997878
0.019810062
0.0037121436
0.0054852606
-0.0088767223
-0.023851224
-0.0012069927
-0.0045753199
-0.020663961
-0.014577231
-0.020882762
-0.016062204
-0.0048485773
0.0092147723
0.03298444
0.013746227
0.0024722634
0.00082632289
-0.00029517045
-0.011366792
-0.020149475
-0.027339571
-0.016463397
-0.017305171
0.0046505031
0.019193758
-0.016300376
0.0043498164
-0.016300447
-0.020313764
0.017290639
0.011669267
0.015700095
0.020026268
-0.00066982733
-0.022576431
0.0066896665
-0.0044895977
-0.0029708591
-0.0024123096
0.026255079
0.018990319
0.00066861797
0.043378744
0.033768438
0.017039198
0.010890106
-0.0036833359
-0.0081793103
0.011195789
0.0029324559
0.01690556
0.011341532
0.037070397
0.032247566
0.012927618
0.021721944
0.013473526
0.01051852
-0.00049586471
-0.009716946
0.0026262371
0.0089793379
0.011730384
0.024669903
0.027704293
0.030129603
0.024606709
0.01222033
0.0085402762
0.011467618
-0.0043979992
-0.0060055959
-0.0049998751
0.00089270245
-0.0039255793
0.00045837368
0.0098834609
0.031070925
0.028124035
0.013660532
0.028771069
-0.0067997554
-0.013885243
-0.021055513
-0.013424655
-0.012388936
0.013972403
0.020776483
0.025926898
0.010520539
0.013991783
-0.0078702446
0.0072067437
0.010190823
0.016560484
0.0079549457
0.017561236
0.0052104019
-0.013269676
0.022282264
0.013855986
0.019258711
0.0087433721
-0.010923543
-0.0055990874
-0.0090195115
-0.0052687838
)
;
    }
    bottomWater_to_heater
    {
        type            calculated;
        value           nonuniform List<scalar> 
92
(
-0.020057909
-0.0065388194
-0.023480552
-0.014455076
-0.0065494294
-0.023952914
-0.016518363
-0.0028886864
0.00048207704
-0.009402115
-0.0090569386
0.0041084031
353.43725
353.43802
353.43413
353.43723
274.44172
274.43538
274.43977
274.45423
196.30682
196.3152
196.29904
196.28192
117.67503
117.65862
117.62951
117.60522
-0.020004129
39.219996
-0.012633044
39.227367
-0.0011889892
39.238811
0.033089388
39.273089
353.46391
353.45069
274.42019
274.41152
196.28224
196.279
117.67588
117.67413
39.240669
39.238559
353.44091
353.45368
353.46256
353.45979
353.43556
353.46819
274.41721
274.43028
274.46536
274.47616
274.43885
274.49463
196.30938
196.25597
196.24247
196.26611
196.3094
196.26083
117.66073
117.64983
117.66364
117.67134
117.66582
117.69905
39.252928
39.259899
39.243764
39.22696
39.214383
39.234207
0.019899481
0.0037637696
-0.013040306
-0.0057932651
0.0090020955
0.00023300868
0.00024101378
-0.015041325
-0.0036069775
-0.0013723987
0.0026768375
0.012297454
-0.01910025
-0.0040061297
0.023721082
0.033408349
)
;
    }
}


// ************************************************************************* //
