/*--------------------------------*- C++ -*----------------------------------*\
| =========                 |                                                 |
| \\      /  F ield         | OpenFOAM: The Open Source CFD Toolbox           |
|  \\    /   O peration     | Version:  v2012                                 |
|   \\  /    A nd           | Website:  www.openfoam.com                      |
|    \\/     M anipulation  |                                                 |
\*---------------------------------------------------------------------------*/
FoamFile
{
    version     2.0;
    format      ascii;
    class       surfaceScalarField;
    location    "580/bottomWater";
    object      phi;
}
// * * * * * * * * * * * * * * * * * * * * * * * * * * * * * * * * * * * * * //

dimensions      [1 0 -1 0 0 0 0];
oriented        oriented;


internalField   nonuniform List<scalar> 
3858
(
-8.4463376e-05
0.00015639664
-7.1734334e-05
-0.00015042591
0.00014798163
-8.1336165e-05
-0.00010593329
9.5300516e-05
-0.00013961839
-7.5241551e-05
0.000123024
-0.00015409557
-3.8617484e-05
0.00013565615
-0.0001729135
2.4745612e-05
0.00012968147
-0.00019205354
0.0001149619
2.308654e-05
-0.00011267949
5.0397784e-05
0.00015263935
-8.5991754e-05
-7.6246991e-05
0.0001553502
-2.7989164e-05
-0.00019946651
0.00015599034
-3.1799284e-05
-0.00028604331
0.00010673717
-1.9086835e-05
-0.00027123854
-0.00011839019
0.00010443037
-0.00012112548
-0.00029771291
0.00014697449
-5.9370564e-05
-0.00021024351
0.00015058351
9.8790721e-05
-0.00032959289
0.00017200833
0.00012459567
-0.00020609887
0.00018160365
4.4240951e-05
8.7237196e-05
-3.0441367e-06
0.0002150181
-0.00022972279
5.6809191e-05
0.0001143144
9.2836732e-05
1.1960595e-05
-4.7918797e-05
0.00014435557
1.8169957e-05
-0.00017639214
0.00014155164
-1.1933918e-05
-0.00018458274
2.2633567e-05
-1.2857562e-05
5.069717e-05
-0.00023562347
-1.8915616e-06
4.8215018e-05
0.00012385901
-0.00011962089
-1.5509143e-05
0.00012180871
-5.9188809e-05
-0.00010106945
0.00015308362
-6.6260743e-05
-0.00014953693
0.00012046495
-7.1190877e-05
-4.6848946e-05
-0.00011682634
1.425928e-05
0.00012195813
-0.00025752082
8.6864329e-05
8.3769359e-05
3.7693718e-05
-0.00017314273
0.00042796237
-9.8423006e-05
1.6946697e-05
7.9867571e-06
-5.009455e-05
1.6765887e-05
0.00026119723
-0.0001657159
-0.00020484247
0.0007110554
-0.00036642303
-0.00034580287
0.00058433713
-0.00030772058
-0.00016742121
0.00012765405
-0.00017635424
7.2273869e-05
-0.00011712496
-9.9483576e-05
0.00017591414
0.00010990947
-6.0910389e-05
-0.00010748959
0.00044714647
-8.392543e-06
-0.0004393229
0.00049499018
-7.1665376e-06
-0.00053236868
0.00020109036
-1.3074115e-06
-0.00041574739
-0.00035019444
0.00011518297
-0.00020726635
-0.00060842024
0.0001022263
-9.4414007e-05
-0.00043456177
0.00011146593
6.150005e-05
-0.00063656634
0.0001510594
0.00013555707
-0.00046387546
0.00018371958
7.1242451e-05
0.00018725642
-3.5704596e-05
0.00038475254
-0.0005359221
-7.3107771e-06
0.00046669469
-1.35725e-05
2.446708e-05
-4.5408743e-06
0.0005816934
3.3897722e-05
-0.00043893525
0.00063818342
-6.223741e-05
-0.00028501842
-6.9385006e-05
-6.189827e-05
0.00015456426
-0.00061154622
-6.3659935e-05
0.00026211227
0.00020914072
-0.00019282973
-8.7181714e-05
0.0006680871
-0.00019698442
-0.0003388217
0.00056277507
-0.00015805147
-0.0002284017
7.821663e-05
-6.8171671e-05
1.4279096e-05
-0.00039086642
3.1359287e-05
0.00018962953
-0.00061381566
0.00018094442
3.0833371e-05
0.00024256552
5.6264084e-05
0.00037611855
-4.4202613e-06
1.4698356e-06
-9.5511546e-05
0.00015829255
-9.2850247e-05
0.0002167735
0.00013874381
-8.408101e-05
0.00072102111
-1.8734951e-05
-2.4725122e-05
0.00054388544
-1.8904194e-05
2.9366807e-05
3.6800967e-05
3.6761154e-05
-0.00014236708
-0.00012160715
0.00017621608
-0.00016507811
-5.2992913e-05
0.00018561341
-2.0765316e-05
0.00019218791
0.00011064577
3.8907771e-05
0.00043888704
-3.5699442e-06
0.00021783065
0.00011298438
-9.0816885e-05
0.00011451325
-9.8443507e-05
-0.00014843353
-0.00017601852
-9.7433819e-05
-0.00022045464
-0.00013741123
-0.00039499285
-7.8176201e-05
-0.00012744732
-0.00055819246
-8.8337777e-05
-3.4696927e-05
-0.00048327336
-7.3352488e-05
3.4738848e-05
-4.9546589e-05
0.00016736724
-0.00031698567
-9.8686764e-05
-8.5510822e-05
-0.00018269588
-8.8200356e-05
-5.9661937e-05
-7.453259e-05
0.00047955659
-6.0264818e-06
8.8256278e-05
0.00053634342
-6.0948873e-05
0.00014372794
-9.1179064e-05
-3.3677619e-05
-0.00029878663
-0.00010402923
-6.5002442e-05
-0.00013979886
8.9445353e-05
-3.9292413e-05
1.1409175e-05
0.00060695145
-9.0072396e-05
9.2768523e-05
0.00049272387
-1.1308153e-05
0.00026628155
-0.00018413301
8.8836612e-05
0.00020853338
-0.00037022791
3.7109656e-05
-9.7577061e-05
-0.00028565534
-2.204988e-05
-9.2725512e-05
2.5981825e-05
0.00020571749
2.8967863e-05
0.00014143319
-0.00026410521
0.00029261516
8.1695997e-05
-0.00030932694
0.00019830025
6.3694982e-05
-1.9242379e-05
0.00040121716
2.971939e-05
0.00021970568
0.00027597087
2.8966506e-05
3.8335961e-05
0.00016911807
4.9052613e-05
-0.0004126892
0.00031638664
1.3031366e-05
-0.00051169462
2.7275653e-05
1.8736851e-05
-0.00016468785
-0.00021092429
5.6105439e-05
0.00011907497
0.00013442555
2.0698673e-05
0.00019611983
9.0031102e-05
-5.4091584e-05
0.00014902702
6.3361142e-06
-5.7686797e-05
-1.3060065e-06
5.9313673e-05
-6.4144523e-06
-6.326952e-05
-0.00037120241
3.8173088e-05
-0.00011689815
-0.00051965253
1.508872e-05
-0.00012237032
-0.00049804075
2.0239574e-05
-0.00011620545
-0.00015197177
9.6260314e-05
-0.00027181192
6.155611e-05
-4.6364031e-06
-0.00038721875
6.8299946e-05
-4.1093478e-05
-0.00012091205
0.00020017044
1.3079421e-05
5.7086254e-05
0.00032383989
3.4505209e-05
-0.00031879345
0.00025311422
3.1586404e-05
-0.00055017422
0.00010646624
2.088528e-05
-0.00040763587
-0.00011470174
6.1608733e-05
-1.1109544e-05
0.00012049055
8.993457e-05
0.00022172377
0.00020019184
5.9698715e-05
0.00020056341
-0.00020806051
4.5087862e-05
0.00018061113
-0.00036771169
1.7436072e-05
0.00012323071
-0.00023170465
3.4297446e-06
5.9001165e-05
-2.8495964e-05
-0.00027060952
0.00029957738
-0.00023838483
0.00026039047
-0.00018074684
0.00014066226
9.795011e-05
0.00012252021
0.00015131878
0.0002226022
3.5635198e-05
0.00028480165
8.8841431e-05
0.00026318041
-7.4386628e-06
0.00012355574
-0.00018757341
-3.0789546e-05
-3.4097069e-05
-1.9050788e-05
0.00016738
-0.00011144596
0.00027108836
-9.7372243e-05
0.00041640932
-8.6007278e-05
0.00018442777
-0.00013922084
-0.00023333626
-0.00010188849
-0.00056967356
-0.00016170344
-0.00059379022
-0.00012785512
-0.0004664361
-6.5798011e-05
-0.00036360887
-3.4527287e-05
-0.00016012554
-3.3128971e-06
7.7965146e-05
8.574919e-05
0.00024077578
9.0303568e-05
0.00028319511
6.4046902e-05
7.9203656e-05
8.9289701e-05
4.6182308e-05
0.00015351189
0.00016752154
7.8852606e-05
3.6030192e-05
-7.6569158e-05
-0.00016053769
-0.00017114381
-0.00019496103
-0.0001972813
-0.00013595986
-0.00014436891
0.00015077992
-7.7415561e-05
-0.00022652086
8.2524346e-05
-7.8263894e-05
-5.3539956e-05
-0.00026258251
-5.2953699e-05
-0.00011279307
5.5698721e-05
-0.00014953186
-0.00014347622
3.7168087e-05
-0.00017980835
-5.9201911e-05
-0.00011761641
-0.00015912062
9.5653842e-05
-0.00020137818
-6.7076618e-05
0.00023611628
-0.00019175606
-3.45801e-05
0.00013510451
0.00016095225
-8.5415924e-05
2.9900655e-05
0.00017451925
-0.00010034253
-1.9975924e-05
0.00013675827
-0.0001072283
-0.00011734422
0.00011576836
8.6802531e-05
-0.00011059724
-6.0754387e-05
0.00020190187
-2.4767008e-05
-0.00012634438
0.0001942704
-4.2730662e-06
-3.1040375e-05
0.00018640462
-8.6311786e-05
9.4218706e-05
0.00017382639
0.00010380024
-0.00024441688
5.0515445e-05
0.00029610832
-0.00021385104
7.8221844e-05
0.00018609775
7.9684461e-05
4.4618165e-05
2.7190204e-05
0.00013732674
4.0579474e-05
-0.00011163447
0.00014703345
-2.0138615e-05
-0.00014813355
9.0732298e-05
-6.5337513e-05
1.1771465e-05
-0.00021490268
5.091777e-05
-1.8721837e-05
7.3782506e-05
-0.00016108884
-0.00011420038
0.00011889162
-8.305e-05
-0.00018623315
9.5008029e-05
-8.7302949e-05
-3.1270476e-05
-0.00018998891
-3.7204533e-05
0.00015160053
-0.00021403835
4.3166103e-05
0.000149119
1.8401447e-05
6.9098461e-05
0.00016965193
1.5722542e-05
-0.00025597773
0.00032278479
-1.4450137e-05
-0.00017379991
-6.4201408e-05
1.4453382e-05
8.7144206e-06
-0.00061506474
4.2519843e-06
-0.00018357874
0.00012294825
-0.0002413794
-0.00032962976
9.6968709e-05
-0.00022147019
-0.00020288749
-0.0003109772
-0.00010973572
-1.8936208e-05
-0.00048899
4.1769548e-06
0.0002248547
-0.00054448115
4.8023788e-05
0.0002769946
7.4958533e-05
2.5461275e-05
-5.2723419e-05
0.00058555682
-8.848608e-05
-0.0004231347
0.00067635592
-0.00017049378
-0.00052805076
0.00026068022
7.5187163e-05
-0.00040503842
-0.00024389365
0.00016235323
-0.00015542652
-0.00041980695
0.00015531661
-8.8189385e-05
-0.0001463666
0.00019914849
-5.5917309e-05
6.1276335e-05
0.00018438988
0.00018860657
-0.00054153351
1.6888157e-05
0.00050222748
-0.00051132975
-2.3452985e-05
0.00053479289
6.0760992e-05
1.082514e-05
9.1885305e-05
0.00061830477
-4.1727236e-06
-0.00037481533
0.00068725845
-0.00013576178
-0.00027939714
8.9980975e-05
-0.00015656515
0.00012716875
-0.00061633067
-6.8797846e-05
0.0001579998
6.7825339e-05
-0.00021770361
-0.00018430436
0.00047944784
-0.00021523649
-0.00020723649
5.9036548e-05
-9.9147859e-05
2.5937094e-05
-0.00050297005
1.163588e-05
0.00025739023
-0.00054074939
0.00012661718
0.00031334525
-8.8700716e-05
0.00023209157
0.00054535974
0.00018020295
0.00028297167
-5.4026295e-06
4.0795486e-05
0.00033880665
-6.4718301e-05
0.00010297447
-0.00015910491
-6.4376911e-05
8.5967542e-05
-0.00016328494
1.9848678e-05
8.8544659e-05
-8.4662566e-05
-7.1036108e-05
7.0478246e-05
-0.00012056296
-0.00029552475
5.7209096e-05
-0.0002043705
-0.00028040749
5.1441119e-05
-0.00036522388
-0.00017520001
-2.2814353e-05
-0.00020457357
2.6628798e-06
2.2291111e-05
-8.8642506e-05
0.00052649903
-6.0443216e-05
-0.00012772693
0.00061165815
1.2965315e-05
-5.6310839e-05
0.00014062773
-9.9797115e-05
-0.00018064308
-0.00011213978
-0.00022787626
-0.00026750882
-0.00018203441
-0.00022908299
4.9731257e-05
-0.00042047745
-0.00013146699
0.00033958292
-0.00021068747
-9.1240336e-05
7.1487838e-05
-7.8172202e-05
-2.7898987e-05
-0.00019763444
-0.0001057834
-0.0002219349
-1.330276e-05
-2.8025088e-05
-0.00015520754
4.796528e-05
0.00057454494
-2.3534703e-05
0.00014033457
0.00061101726
-7.7076988e-05
0.00019522635
1.4402818e-06
-2.8717747e-08
-0.00024199611
-0.00013108305
-0.00011302762
-0.00014887261
-9.4432786e-05
2.98422e-05
9.9767034e-05
0.00013125354
9.4822587e-06
0.00029208495
-0.0002838053
0.00013921578
0.00011929982
-0.0003195122
7.8163892e-05
-0.00012237033
-0.00022215175
-3.9817824e-05
-8.9756487e-05
-9.4275054e-05
-4.9089383e-05
0.00044162023
3.9964855e-05
0.00029917781
-0.0003102873
0.00014714004
0.00017004215
8.9417812e-05
5.6695544e-05
-8.9573932e-05
0.00027407526
-1.5141106e-05
-0.000362047
0.00037284729
-5.0806158e-05
-0.00043462954
3.1347717e-05
-8.3477305e-07
-0.00036079637
-0.00033107703
1.0771719e-05
-0.00036600306
-0.00024592007
-1.6249357e-05
-0.0003639202
-9.9018632e-05
-5.9527391e-05
-0.00035790679
0.00018985492
-0.00013710001
-0.00011556803
0.00029269677
1.216217e-05
5.2942362e-05
0.00035316123
3.5894951e-05
0.00011433594
0.00012344846
-0.00010190109
-7.0441976e-05
0.00021708239
-0.00015085869
-0.00016379875
9.5826951e-06
-6.0087226e-05
-0.00011997215
-0.000452194
2.9786859e-06
-0.00012351657
-0.00022799533
4.1091868e-05
-0.00021108458
3.6828364e-05
6.882776e-05
-0.00025413378
4.9885015e-05
-0.00011725562
-0.00023422169
8.2370289e-05
-0.00017140095
3.7659826e-05
0.00029774925
1.7993583e-05
0.0003385038
0.00027701785
6.7660625e-05
0.00010890834
0.00021328393
4.9338196e-05
-0.00021711822
0.00014918184
6.6646924e-05
-0.00023093941
-6.8823379e-05
4.9820509e-05
4.577678e-05
-0.0002507056
0.00019517751
0.00010120065
-0.00037235224
9.2821774e-05
5.322142e-05
-0.00030647805
8.0032941e-05
-4.4875713e-05
-7.2256871e-05
-3.436167e-05
-0.00020991928
0.00017479919
-0.00010060092
0.00020200515
1.1998351e-06
-0.00027600853
0.00026529862
-0.00023247352
0.00030627327
-7.9288214e-05
0.00026155222
0.00016572195
0.00025035733
0.00014026421
0.00027940766
-0.00015045989
0.00024444871
-0.0003325899
0.00019939035
-0.00040066249
9.2609705e-05
-0.00028951395
4.7916839e-05
-8.6997878e-05
7.1129904e-05
0.00014279969
1.1917707e-05
0.00019806584
-2.9189917e-05
0.00032463053
4.5104315e-06
0.00022104832
-2.6055923e-05
-0.00026892183
-6.4112328e-05
-0.00048906451
-0.00016955607
-0.0004324363
-0.00014765497
-0.00035806088
-9.0288422e-05
-0.00024745749
-6.276039e-05
1.151871e-05
3.5460136e-05
0.00024130419
0.00013298154
0.00039697646
0.00014791523
0.0004959707
0.00011423448
0.00039001669
0.00012642032
0.00015453715
0.00013828582
-0.00011186414
-2.7098342e-05
-0.00030326889
-0.00019164246
-0.00034538868
-0.00020128089
-0.00020525769
-0.0001626131
-0.0001392124
-0.00019844057
9.4495861e-05
2.4580596e-05
-0.0002268113
-0.00010990524
5.813774e-05
-0.00014584548
-0.0002108069
7.3068345e-05
-8.4047663e-05
-0.00020566815
-1.0399564e-05
-3.9187928e-05
-0.00021083442
-1.7200669e-05
0.00013755794
-0.00032372768
-1.5458287e-05
0.00032000486
-0.00026856558
1.734312e-05
0.00033601673
-4.3306399e-05
-6.72981e-06
0.00022494508
0.00012401656
-9.6865036e-05
9.6523997e-05
0.0001456669
-0.00011565652
1.4795035e-05
9.3599879e-05
-0.00011693097
-4.0349636e-06
0.00012707427
-1.9389237e-05
-1.8553188e-05
0.00013895715
7.9972221e-05
-2.3668838e-05
0.00013465374
7.0878612e-05
-4.2285654e-05
0.00010776477
0.000101012
-6.265757e-05
0.00014792301
5.4065282e-05
0.00014128676
-0.00023763326
8.6127821e-05
0.00024013135
-0.00012546242
0.00010537192
0.00015662088
8.9978018e-05
3.9490293e-05
3.832657e-05
0.00012454666
3.4028817e-05
-7.1207329e-05
0.00016242446
-7.2497162e-05
-0.00010734541
0.00010493061
-0.00013301104
-0.00010640925
8.1794606e-05
-3.0707706e-05
-2.4982778e-05
-0.00016259898
-8.0465126e-05
-1.2847038e-05
-8.852206e-05
-7.1193803e-06
3.8667774e-05
-0.00013362938
-5.2685852e-06
0.0002119903
-0.00024717726
3.4026485e-05
0.00027176185
-6.2947794e-05
4.35126e-05
0.00017129021
0.00014889042
1.9144379e-05
0.00015498336
2.9558858e-05
-0.00022034949
0.00014072198
0.00015967324
-0.00017472505
-0.00033549653
0.00019442023
-8.7337865e-05
-0.0004443892
0.0001504471
-0.00013900489
-0.00043329609
3.7915568e-05
-0.00013841739
-0.00042688905
-6.0030622e-06
5.0996342e-05
-0.00061511523
-7.7619009e-06
0.00030824194
-0.00057582735
5.4193128e-05
0.000432476
-0.00018901572
6.9499044e-05
0.0001972146
0.00037111628
1.3622962e-05
-0.0001016771
0.00043432751
-7.8254997e-05
-0.00018374429
0.00013650096
-0.00013132767
-0.00036675196
0.00044259083
-5.7321736e-05
-0.00039652144
0.00025472559
7.6354282e-05
-0.00022108469
4.8681709e-05
6.5851895e-05
-0.00014826592
0.00013161139
0.00010248311
7.1938252e-05
5.1857066e-05
6.0251658e-05
0.0004447235
-0.00063071792
3.7187571e-05
0.00059041656
-0.0003591726
6.4564132e-05
0.00036800421
0.00036394876
-4.0733244e-05
-7.930964e-05
0.00068155803
-0.00011387025
-0.00036614948
0.00052244353
-0.00020894103
-0.00028502789
7.5332974e-05
-0.00020808911
-0.00012895781
-3.1059976e-05
-0.00011201336
5.0181359e-05
-0.0004729437
-8.6498065e-05
6.2789203e-05
-0.00029499539
-2.1371006e-05
0.00016537653
-0.00038714217
5.1777601e-05
0.00040005582
-0.00059021919
0.00011999851
0.00050075212
-0.00020411482
0.00016708792
0.00031406284
0.00047111053
9.6560744e-05
0.00064503868
4.2104742e-06
0.00032294323
-0.00027647565
0.00013504989
0.0003379486
-0.0003594568
0.00011192936
6.2073423e-05
-0.00012964182
4.7095339e-05
-0.00016147878
-0.00015324506
3.2045829e-05
-0.00013501043
-0.000386728
3.8488469e-06
-0.00013329618
-0.00051253944
-4.7080943e-05
-0.00021745178
-0.00042415891
-1.6071718e-05
-0.00013781074
-0.00019741133
-9.4059785e-05
-3.2329433e-05
0.00029074563
-2.8195452e-06
-0.00010508406
0.00033563035
0.00011100857
-0.00020584601
5.8183735e-05
0.00019204449
-0.000199884
0.00031658367
2.0248045e-05
-0.00015456695
8.1380826e-05
-9.9848539e-05
-5.3759583e-05
-6.4211792e-05
-0.00021699684
0.00025854605
-0.00020908025
-0.00010308097
0.00056708768
-0.00024767166
-0.00010025323
0.00025850311
-0.00011471603
-0.0002353163
2.6462037e-05
-0.000105429
-0.00024363742
6.0599618e-05
0.00030611299
-0.00013150937
4.3914438e-05
0.0006839755
-9.2670032e-06
7.7706849e-05
0.00041147494
9.9179614e-08
0.00020855502
-7.4097771e-05
1.855384e-05
0.00025124249
-0.00011263305
-7.4142032e-05
4.8688343e-05
-0.00020425778
-3.6289582e-05
0.00010863412
-0.00045867576
0.00011321684
0.00021368369
-0.00043732789
8.4351922e-05
-3.5206104e-05
-0.00017036901
-9.2796483e-05
-0.00011081567
-0.00010680945
-6.1513626e-05
-3.5835902e-05
0.00036246971
-1.5428315e-05
0.00063255292
1.6614712e-05
0.00013117995
-0.00043685844
0.00017634289
8.2861773e-05
-0.00038942611
0.00013498303
-7.5213387e-05
-1.8363938e-06
1.5128631e-05
-0.00023968071
5.6707039e-05
-9.6290938e-05
-0.00022869949
-0.00034886933
-4.9674661e-05
-0.00017124621
-0.00051939753
-3.9823473e-05
-0.00018292644
-0.00042541722
-3.3108211e-06
-0.00023498171
-0.00016373227
-4.1151173e-05
-6.4404573e-07
3.825605e-05
-0.0001189481
0.00015151208
0.00013382178
6.1814614e-05
-9.3982065e-05
0.00028790138
5.1671456e-05
-1.1413761e-05
0.00014928128
-1.7166991e-05
9.048063e-05
3.1149292e-05
-0.00020252154
4.0720106e-05
8.3238578e-05
-0.00015777706
0.00010812435
-0.00028317847
9.6726779e-06
4.8567365e-05
-0.00021336757
6.6344777e-05
-0.00014651359
0.0001077021
4.1490603e-05
-0.00020838902
4.6177119e-05
-0.00020698632
-5.1956837e-05
0.00011357376
-0.0001352939
0.00019481192
0.00039472806
6.0472248e-05
0.00042985081
0.00016484253
7.9254111e-05
0.00033432302
0.0001289287
-5.8160502e-05
5.2542473e-05
0.00026787732
-3.2082921e-05
-2.9761816e-05
-3.4140948e-05
-3.7992049e-05
5.3485126e-05
-0.00045122184
0.00010447664
0.00010340156
-0.00045167207
5.7249519e-05
-4.2944886e-05
3.4638212e-05
2.137216e-05
-0.00028963769
0.00015257433
-4.7052638e-05
-0.00018071552
0.00017498599
-2.2039375e-05
0.00038014791
7.2889336e-05
-0.00018317915
1.1619325e-05
-0.00027762572
1.1293724e-05
-7.6969898e-05
5.9060001e-05
0.00017508143
5.5013041e-05
3.5145538e-05
7.0474225e-05
-0.00026592208
2.6118791e-05
-0.00045735418
-3.4594769e-05
-0.00049354944
-3.4927318e-05
-0.00038896456
-1.8411987e-05
-0.00019044334
6.4304695e-06
9.0500931e-05
1.8874821e-05
0.00024348659
-3.2894296e-05
0.00030667521
-2.7528878e-05
0.00031013679
5.3721086e-05
-5.041759e-05
1.3263596e-05
-0.00033278392
-0.00010055731
-0.00023668328
-0.0001360535
-0.0002077452
-7.3049385e-05
-0.00011081294
-4.6118896e-05
0.00017783267
0.00014154257
0.00030260698
0.00017304975
0.000374896
0.00020455489
0.00056146928
0.00019553851
0.00049341664
0.000160332
0.0001186276
6.1853012e-05
-0.00027342156
-8.672124e-05
-0.00030467395
-0.00012575186
-0.00029051807
-6.2862429e-05
-0.00024260179
-3.5543374e-05
-1.6662784e-06
-0.00014014605
0.00014320563
2.1677481e-05
-0.00019447906
5.1736051e-05
6.2240526e-05
-0.00014850148
-7.7763777e-05
0.00010329194
-0.00023660487
5.420071e-05
2.5427465e-05
-3.0292051e-05
-0.00028810742
6.1750888e-05
0.00019546601
-0.00032113887
7.7081044e-05
0.00029482329
-0.0002096581
0.00012456082
0.00015593525
3.9948577e-05
9.133775e-05
-8.6821414e-05
0.00012663671
1.6926418e-05
-0.00015833894
-1.7682769e-05
-2.7623776e-05
0.00014645284
-0.00038281302
-4.305072e-05
0.00031799521
-0.00018144509
-8.6022267e-06
0.00027188318
0.00014004826
-9.8582857e-06
0.00021274703
0.00013430704
0.00019036516
0.00012746703
0.00010945445
0.00013981828
5.5947755e-05
0.00014370136
-3.0554348e-05
0.00013872392
5.6796678e-05
-0.00015017394
0.00015681263
5.1350285e-06
-0.00024201513
0.0001660547
-3.677969e-05
-0.00021996743
7.5034003e-06
-9.8772147e-05
-4.6102087e-05
-0.00022740072
-7.9364557e-05
-4.6952621e-05
8.2181986e-06
-3.4377311e-05
1.4129148e-05
-0.00018460151
4.3287849e-05
0.00012823932
-0.00023996906
0.00011877669
0.00021787037
-0.00021429831
0.00011779347
0.000305286
-5.3632336e-05
-2.6338038e-06
0.00028072859
0.00011136033
-4.4242153e-05
0.00014599675
0.00013348542
1.9852746e-05
0.00011265971
6.1314094e-05
-0.00025851944
0.00033304005
0.00022835826
-0.00025878199
-4.1931771e-05
0.00028835061
-0.00018228754
-0.00026960826
0.00026579713
-0.00015976478
-3.5197177e-05
0.0001047907
6.6505376e-05
-0.00063790048
0.00011751983
0.00023747995
-0.0006413043
0.00014142896
0.00042788284
-0.00050619776
0.0001603299
0.0002944182
3.4577887e-05
0.00020833437
-0.00033900719
0.0007600511
1.3633968e-05
-0.00039637391
-2.4328521e-06
-3.6138191e-05
-9.907879e-05
-0.00076390316
-4.7532644e-05
0.00012201942
-0.00044924959
-1.0615447e-05
0.00021520527
7.1435507e-05
5.1781196e-05
0.00019657513
0.00021878908
0.00016896467
0.00025756062
0.00021228835
0.00015674627
0.00034744144
4.5735843e-05
0.00018671375
0.00035092712
1.3088626e-05
-0.00016180805
0.00057214581
-0.00010754463
-0.00036579492
0.00044187179
-0.00018570047
-0.00030206505
-9.588943e-05
-0.00016927808
-6.8054242e-05
-0.00054957749
-0.00011992315
2.4778887e-06
-8.2201815e-05
-9.2125482e-05
0.00014796132
-0.00044364348
2.7060469e-05
0.00027044653
-0.00055087433
0.00016704904
0.00046689465
-0.00053172769
0.00017275887
0.00063012857
-0.00013199058
3.5122837e-05
0.00047022931
0.00045878785
-2.044034e-05
0.000169333
0.00051441621
1.6526266e-05
0.00033514133
-4.8938136e-05
0.00019036417
0.00016875624
0.00010896953
0.00027155695
-0.00013929654
0.00012810136
0.00017111731
-0.00021677169
9.4698401e-05
0.00026434879
-0.00022810727
0.00013172444
0.00016267497
-0.00052500012
-7.3776962e-06
9.6064032e-05
-0.00054844345
-7.3330852e-05
-1.1422853e-05
-0.00037843648
-3.6346112e-05
-4.7765642e-05
-3.3339938e-05
1.0200829e-05
0.00010875391
0.00065378902
-5.3077021e-05
0.00024610137
-9.3217726e-05
6.4445978e-05
-0.00018862792
-9.0382993e-05
-4.6746379e-05
-0.00039343204
-0.00016117105
-6.302637e-05
-9.8761101e-05
-0.0002724871
-5.0596858e-05
0.00013300146
-0.00022997031
0.00033919165
-5.1710534e-05
0.00037680108
1.8883624e-05
0.00022424532
-3.7024698e-05
0.00018925824
0.00024643142
-0.00010415463
0.00016761626
0.00053546597
-7.3187551e-05
0.00025375348
0.00036496546
-1.8497889e-05
0.00020900414
-6.109689e-05
1.0055959e-05
-2.8014931e-05
-0.00017194287
-0.00012206172
0.00014910515
-0.00028551718
-4.7946766e-05
0.00017822558
-0.00045311952
-5.5933991e-05
0.00017444595
-0.00048298183
4.9103968e-05
-3.5803633e-05
-0.0002539833
1.6857106e-05
-6.3535689e-05
-5.2011104e-05
-0.0001450439
3.6978746e-06
0.00035192905
-2.1888383e-05
-6.422632e-05
0.00047139117
9.5520933e-05
0.00020776755
7.976218e-05
0.00024210594
1.00397e-05
9.2953487e-05
0.00023518009
-6.1860133e-05
6.4472482e-05
0.00018728606
-0.00019255041
3.8801374e-05
6.0123606e-05
-0.00019994282
2.707063e-06
1.0065257e-05
-0.00051578305
-8.8333748e-06
2.3574612e-05
-0.00053942642
-6.2349857e-05
-0.00010061288
-0.00032488764
6.7327827e-05
-0.00028918735
0.00017695004
-6.2866678e-05
0.00012559619
0.00013271444
-1.2657065e-05
0.00028037481
-0.00018130554
-4.8761913e-06
0.00023645335
1.9094655e-05
-1.3884729e-05
0.00017175907
-0.00012279768
9.1539258e-06
0.00018997874
-0.00032870567
-0.00016452262
0.00023081073
-0.00042857935
0.00035715364
-0.00016838075
0.00023356519
0.00020881686
-9.4175136e-05
0.00033220624
7.8727995e-06
0.00012238578
-0.00018498861
0.00021287617
0.00024863952
-5.3470829e-05
0.00035465854
0.00016184902
0.0001218063
0.00019410092
0.0001206534
5.8061422e-05
0.00013199578
-7.2303665e-05
-9.5694582e-05
0.00018100784
-0.00026638457
-0.0001002276
0.00014674005
-0.00046742684
1.0583047e-05
0.00017414233
-0.00047721981
7.1312312e-05
8.1195269e-06
-9.6970081e-05
6.6259107e-05
-0.00018901964
0.00027100539
-0.00010450517
-4.7589624e-05
0.00013687128
2.6575133e-05
6.5472691e-05
0.00026434111
7.1948376e-05
0.000360989
-1.485942e-05
0.00017584735
-0.00015418832
0.00031789232
-0.00019261138
0.0003778926
-0.00019349069
0.00040958159
-0.00017661877
0.00013782591
-0.00017355315
-0.00023350038
-0.00014198134
-0.00040258912
-0.00019039368
-0.00017917233
-8.1394062e-05
4.9233216e-05
-0.00011410309
9.1114244e-05
-0.0002167561
0.00029984887
-0.00017076514
0.00036119289
-0.00021703598
0.00024228077
-0.00023732243
-0.00013257748
-0.00028769463
-0.00017943507
1.6717673e-05
5.2050647e-05
1.4003421e-05
0.00013820021
0.00011637106
0.00025894111
0.00018265068
0.00039402638
0.00015861788
0.00051841682
7.8607645e-06
0.000498474
-5.0903244e-05
0.00016460175
2.6777403e-05
-0.00025248938
1.7243243e-06
-0.00038594521
-5.0235495e-05
-0.00022165357
-1.90381e-05
-0.00023973319
9.2088481e-05
-0.00016121919
0.00015028374
0.00019810354
-0.00013538089
0.00014051734
1.3578772e-05
-0.00023890564
0.00012982143
3.3837293e-05
-0.00018249458
-9.4028678e-06
5.4353083e-05
0.00012644922
-0.00032949534
3.856717e-05
0.00021548776
1.8717355e-05
-4.8046887e-05
0.00021101461
8.3931487e-05
-4.2296217e-06
0.00016620388
0.00010596141
6.2574477e-05
6.2198669e-06
0.00013942839
0.00011001965
-0.00020526065
0.00015760253
6.9703076e-05
-0.00020808741
-2.6548373e-05
3.4774086e-06
0.00011523431
-0.0004141467
4.2583334e-05
0.00019701361
-0.00016382615
7.1411759e-05
0.00010863157
7.6567127e-05
-6.2087999e-05
0.0001640194
-4.4158875e-05
-0.00018128264
0.00018234907
-5.7221616e-05
-0.00027242217
0.00012792798
-7.1689292e-05
-0.00015570924
-0.00020912759
-7.7071157e-06
-3.7447332e-05
-0.0002590095
5.9371698e-05
2.268239e-05
-0.00018831291
9.2834828e-05
0.00010550468
-0.00019169265
0.00015041731
0.00010439692
-4.8021843e-05
0.00016684304
2.7521739e-05
6.3388635e-05
0.00012969259
-1.3698059e-05
8.5776119e-05
-4.9777221e-05
1.2044413e-05
1.0743722e-05
-8.2585865e-05
0.00013552424
-0.00018544244
7.878981e-05
0.00015091004
4.6235488e-05
-0.00032090126
0.00057404988
0.00011572699
-0.00043644823
0.00038334195
0.00015037705
-0.0002718889
-6.4892157e-05
0.00015672709
0.00019296284
-0.00074324035
5.3683972e-05
0.00036911949
-3.1430349e-05
-8.4891158e-06
0.0002962462
0.00024830068
4.9933052e-05
0.00039265549
4.1050777e-05
0.00012883124
6.0979419e-05
0.00049309028
0.00018634855
-0.00020596841
0.00035487
8.331433e-05
-0.00011165295
-0.00020074396
4.3741925e-05
9.5057035e-05
-0.00078700154
0.00011861222
0.0002484083
-0.00045379868
0.00012600582
0.00028208077
0.00012674031
-0.00011342959
0.00049886474
-0.00020832713
-0.00031702088
0.00054344793
-0.00026505219
-0.00026541784
3.5268695e-05
-0.00014464423
-0.00013548679
-0.00055168799
4.3351269e-05
-5.7847227e-05
-0.00058235913
0.00012578691
2.7655277e-05
-0.00050600713
0.00014006623
0.00018264151
-0.00050256272
0.00018294429
0.00033560034
-0.00021847882
0.00018454719
0.00019299567
0.00026524923
0.00011350294
-0.00025535207
0.0006919246
-0.00012267789
-0.00026499082
0.00012416576
-0.00012422362
6.1140865e-05
-0.00054575449
5.0706634e-05
0.00011353567
4.9577104e-05
6.5807778e-05
0.00055256081
6.4650818e-05
0.00025119827
0.00026102708
6.5025735e-05
0.00027523203
-6.074067e-05
6.6513159e-05
-0.00026334278
-9.8562437e-05
2.5621335e-05
-0.00016180248
-0.00013009061
-1.025774e-05
0.00017913658
-0.00023652565
7.0556426e-05
0.00018324165
-8.3575871e-05
8.4175466e-05
0.00022031385
0.00031778812
0.00014843079
0.00036447225
0.0001604278
-2.7932192e-06
0.00035338313
-5.0726483e-05
-7.4482369e-05
-6.702712e-05
-0.00010816218
-0.00030517549
-0.00026684383
-0.00010396066
-0.00021304767
-8.4459322e-05
4.9099402e-05
2.6890988e-05
0.00038536719
-1.7548064e-05
7.0802484e-05
0.00039701217
2.933671e-05
0.00015360164
-0.00012657985
6.0551494e-05
1.2056512e-05
-0.00037055839
-2.9528519e-05
-0.00010797995
-0.00033972669
-0.00024465772
-9.5551843e-05
-0.00039906424
-0.00016731777
-0.00010539592
-0.00044682284
-0.0001018298
-6.4070699e-05
-0.00016434338
-4.6356696e-05
6.826664e-05
0.00015315385
-3.3848592e-06
9.4708544e-05
0.00057297839
-5.2539588e-05
0.00016061995
3.813168e-05
-1.7656998e-06
-0.00021447783
-8.0962117e-05
5.8263416e-06
-2.2805902e-05
1.6259367e-06
0.00028977268
0.00033358273
2.2158891e-05
0.00045034801
0.00016847854
-3.5543099e-06
0.00029693241
0.00016469073
-3.3214427e-05
-3.8948306e-05
0.00026818601
-2.8160672e-05
-0.00017117646
7.3265566e-05
-7.9961401e-05
1.5072411e-05
-0.00042624508
-5.8879303e-05
-6.3064108e-05
-2.1233944e-06
6.401187e-05
5.8949805e-05
0.00010640808
2.6499447e-05
0.00032119558
-0.00012574472
1.1269671e-05
0.00032994039
2.3025463e-05
-8.7372936e-05
0.00010884099
0.00020615485
-0.00010710235
-7.6311233e-05
0.00016705869
-7.6713189e-05
-0.00025914919
-6.6143976e-05
0.00010616698
0.00013379214
-3.9580545e-05
0.00028094517
0.00011298978
5.5773375e-05
0.00015949442
-2.5348802e-05
0.00014202598
3.0222778e-05
-0.00031884835
0.00013562301
-5.2806136e-05
-0.00027232294
-8.0069435e-05
-6.3071795e-05
-0.00037187763
-0.00011714857
-4.1269695e-06
-0.00043851593
-5.666871e-05
-4.8459773e-05
-7.512924e-07
-4.7946981e-05
-1.5836103e-05
0.00020014708
-1.33578e-05
0.00024150231
0.00023918775
-2.8052937e-05
0.00024957794
2.8857562e-05
2.7773622e-05
0.00010527943
7.7640644e-05
5.7644136e-05
0.00017453394
-0.00010691982
0.00023204074
-5.2646333e-05
0.00027837279
-7.0464887e-05
0.00030960957
-6.0036742e-05
0.00044703744
-4.5860625e-05
0.00039493921
-4.8189351e-05
-4.825064e-05
-0.00012503657
-0.00013129331
-0.00010947441
-2.8704666e-05
-7.7574625e-05
-0.0001140725
-0.00015447997
-7.2846531e-05
-0.0002349566
0.00014737294
-0.00018482976
0.00028715036
-0.00018975471
-0.00020932125
7.1130042e-05
7.6665526e-05
0.0001896649
0.00011082598
0.00029007775
5.6889019e-05
0.00014645902
-1.6611755e-05
0.00010681811
-0.00022482129
-3.1062253e-05
-0.00028490052
-0.00027707832
-0.00016572247
-0.00025429951
-2.1805777e-05
-9.9919062e-05
-4.4688633e-06
2.0145863e-05
0.00010008473
-2.3333415e-05
0.00016442533
-6.230281e-05
0.00026689379
0.00031033467
-8.8890328e-05
0.00011672571
-1.6461454e-05
-0.00016541048
0.00014109607
-3.2822847e-05
-0.00018993315
0.00013298895
-5.551282e-05
-9.6126274e-05
-1.0660867e-05
-4.715598e-05
0.00013377593
-0.00020202208
-7.8856835e-05
0.00028623558
-0.00010283301
-5.4146955e-05
0.00035470801
1.3483679e-05
-1.8866948e-05
0.00031532619
0.00016637647
-1.4582223e-05
0.0002610951
0.00017597375
-4.8978193e-05
0.00018516959
0.00016376627