/*--------------------------------*- C++ -*----------------------------------*\
| =========                 |                                                 |
| \\      /  F ield         | OpenFOAM: The Open Source CFD Toolbox           |
|  \\    /   O peration     | Version:  v2012                                 |
|   \\  /    A nd           | Website:  www.openfoam.com                      |
|    \\/     M anipulation  |                                                 |
\*---------------------------------------------------------------------------*/
FoamFile
{
    version     2.0;
    format      ascii;
    class       volVectorField;
    location    "580/bottomWater";
    object      U;
}
// * * * * * * * * * * * * * * * * * * * * * * * * * * * * * * * * * * * * * //

dimensions      [0 1 -1 0 0 0 0];


internalField   nonuniform List<vector> 
1460
(
(-0.00019842893 -0.015321807 -0.00048228109)
(-0.0020165192 -0.017322764 -0.00079283185)
(-0.001631776 -0.015583969 -0.0028164211)
(-0.00099010685 -0.018212673 -0.0021765562)
(-0.00078026918 -0.016791126 -0.0028631569)
(-0.00031123409 -0.015215856 -0.0036286044)
(0.0010284941 -0.017581191 -0.0025667466)
(0.0016147179 -0.016072678 -0.0025752762)
(-0.00020535058 -0.016750902 -0.00022468321)
(-0.0018071751 -0.015242297 0.00023110625)
(-0.0032421394 -0.013474998 0.00052065233)
(-0.0040651665 -0.011965602 0.0013305293)
(-0.0023314913 -0.01295738 0.0015976866)
(-0.0010348981 -0.012473687 0.0023428936)
(-0.00023939675 -0.012486245 0.0023294803)
(0.0026634213 -0.012189248 0.0026997353)
(6.681636e-05 -0.017006481 -0.00040833413)
(0.001365964 -0.013507724 0.00085672683)
(0.0032888659 -0.013571178 0.0004465475)
(-5.4712626e-06 -0.01628369 0.00094236384)
(-0.0013506589 -0.017046767 4.4561475e-05)
(-0.0033249746 -0.016121294 -0.000195543)
(-0.00079969202 -0.010829042 -0.00096999077)
(0.0017779892 -0.014972099 -0.0015640227)
(-0.00032028638 -0.018501613 -0.00076842784)
(-0.00018373157 -0.016083162 -0.00075352168)
(-0.0021690853 -0.014415503 -0.0011937593)
(-0.0017240478 -0.011270632 4.6518504e-05)
(0.00071420488 -0.011250549 0.0017677728)
(0.0020733321 -0.017304606 0.001328154)
(-0.002384496 0.01712364 -0.0014244301)
(-0.0014931767 0.018998475 -0.00090371055)
(0.0017644753 0.016181189 -0.0055134313)
(-0.0012443275 0.019334539 -0.0065624457)
(-0.004255227 0.018169416 -0.005586847)
(-0.0037677069 0.016542905 -0.0043092092)
(-0.00066316389 0.016576367 -0.0030558826)
(0.0023910465 0.017879045 -0.0032678049)
(0.0017962422 0.018559219 -0.0010914359)
(-0.004365529 0.017077595 0.0002115749)
(-0.0071776339 0.014339 0.00034451712)
(-0.0058098688 0.0060499985 0.00021371741)
(-0.0036781133 0.00047430481 0.00044953991)
(-0.0021378898 0.0031460644 0.0020189521)
(4.4390905e-05 -0.0011823371 0.0013380052)
(0.0015501759 0.0029752646 0.001135856)
(0.0012585693 0.017585201 -0.0026785126)
(0.0011125844 0.0033888882 -0.00031126966)
(0.0072330741 0.014222299 0.00019399154)
(0.0052270804 0.017881349 0.00054543666)
(-0.0053916081 0.018594263 -0.00067602264)
(-0.0050693021 0.015154536 -0.00075662974)
(-0.0015135948 0.00038811157 -0.0013627149)
(0.0048474748 0.016182949 -0.0028265652)
(0.0019555957 0.019607898 -0.0029480324)
(-0.0040568949 0.017870359 -0.0026769014)
(-0.0046861879 0.015559463 -0.0023724434)
(-0.00058290917 0.0053832564 -0.00021306911)
(0.00099241559 2.1590781e-05 0.0015938856)
(0.0033199042 0.017781124 0.0039078923)
(-0.00024237065 -0.00025058297 -0.00011212975)
(0.0013616858 -0.017505497 0.0032530216)
(-0.0012834824 -0.0051705089 0.00048312097)
(-0.00080606522 0.0070819938 -0.0047084107)
(-0.0015610111 0.003941961 -0.0035643366)
(0.00098720155 -0.010579602 -0.001256822)
(-0.0002924652 -0.018064272 0.0038914435)
(-0.0035622944 -0.012631935 0.0044539674)
(-3.6749813e-05 -0.0011494737 0.0022805715)
(-0.0005786932 0.0019106355 0.00075531396)
(0.0014095671 -0.0057026253 -0.0014549363)
(0.0037115236 -0.013457818 -0.0029184102)
(-0.0010092966 -0.01505962 -0.0030018165)
(-0.002887828 -0.012889814 -8.8267631e-05)
(-0.00079119278 -0.014047484 -0.00073060786)
(-0.0027421004 -0.013472106 -0.0013636562)
(0.0021774376 -0.0095378797 0.0029752077)
(-0.0016373766 -0.015819892 -0.00032432127)
(-0.0058062959 -0.013540867 -9.052931e-05)
(0.0017000712 0.0039393215 5.6578762e-05)
(-0.0036970806 0.0050927786 -0.00078362839)
(0.0057347444 -0.0157276 -0.00015025422)
(-0.0026036947 -0.014587592 -0.0014054893)
(-0.0042258663 -0.0072403907 -0.0024222252)
(0.0011117344 0.0052073035 -0.0016920074)
(-0.00095039514 0.0033374846 -0.0023420842)
(0.0031392613 -0.011601037 0.00045104045)
(0.0037964214 -0.01371444 0.00048459683)
(0.0010471175 -0.014307234 5.8795011e-05)
(-0.0031690006 -0.01578181 -0.0011803416)
(0.0043638835 0.0087655589 0.0012919241)
(-4.172721e-05 0.013151303 0.0020163313)
(-0.0058019377 0.009511853 0.00092888856)
(-0.0015048671 0.010850407 -0.0015683265)
(0.0009077183 0.0091774465 -0.00020499398)
(0.0042329269 0.010807342 0.00071970699)
(-0.0032545584 0.012847769 0.00077111744)
(-0.0075046345 0.010035876 0.0018430703)
(-0.0043872529 0.005075002 0.0025529445)
(0.00010273532 0.0085646335 0.001054106)
(0.0024833091 0.0077196262 -0.0010773479)
(0.0028527586 0.0093894208 -0.00035574326)
(0.00048567634 0.011100203 0.0013045328)
(-0.00049321294 -0.0010273401 -3.4029695e-06)
(-0.00079850893 -0.0048830941 0.00033503807)
(-0.0024628535 -0.0031795262 -0.00076083992)
(-0.0008206754 0.0071700302 0.0010511767)
(-0.0018224976 0.011761245 0.00088850736)
(-0.0056851408 0.0096755444 0.00056620391)
(-0.003059478 0.0077665636 0.00039916073)
(0.00044445817 0.0082640526 0.00047008483)
(0.00048883106 0.011690538 -0.00019916801)
(-0.0077127554 0.010218736 -0.0011935182)
(-0.0068159736 0.0086738121 -0.00062386948)
(-0.002232859 0.010040408 -0.00066990327)
(0.001793089 0.008744676 -0.00076507737)
(0.0035387997 0.004424551 0.00054818492)
(0.0018500901 0.00044353962 -0.00017304788)
(0.0023591441 0.0038160132 0.0008226882)
(0.00064557826 0.011755458 -0.0013039806)
(-0.0035950164 -0.0074088693 0.0046165811)
(-0.0027009055 -0.0025112404 0.0034710384)
(-0.0036566905 -0.0021810305 0.0015546317)
(-0.00045195593 0.0029798029 0.00023787109)
(0.0025586894 0.00056880843 0.002402879)
(0.0013233112 -0.0044618288 0.0039925801)
(-0.00021564658 -0.0015577887 0.0038572517)
(0.0020177949 -0.0087290185 0.0027827766)
(-0.0021207641 -0.01028562 -0.0010276512)
(-0.0023871653 -0.0036557299 -0.00032961049)
(0.0015254254 -0.0042356328 -0.0020909536)
(0.0025475567 -0.009015006 -0.0015150506)
(0.0045611308 -0.008742479 -0.0012337418)
(0.0051424825 -0.009008482 -0.002208008)
(-5.2015129e-07 -0.0097516942 -0.0016662982)
(-0.0063555779 -0.010747134 -0.0026593107)
(-0.0076505599 -0.01083995 -0.0019077496)
(-0.006686662 -0.0093104901 -0.00079863122)
(-0.0053142545 -0.0068786528 -0.00024134884)
(-0.0035570088 -0.00069813567 0.00025948669)
(-0.00038216534 0.0026777124 0.001183966)
(0.0024838613 -0.0025246932 0.00096203748)
(0.0032115339 -0.0061157446 0.00049339318)
(0.0033462054 -0.011235916 0.0011241844)
(-0.00099236019 -0.0057563694 0.0023468377)
(0.0019753879 -0.0017918131 0.0017476698)
(0.0022287194 -0.0096536113 0.00020656427)
(-0.0014179833 -0.010271196 -0.002593799)
(-0.0028651788 -0.0097184606 -0.0035472605)
(-0.0015678415 -0.0093316308 -0.002636718)
(-0.00042872683 -0.015250328 -0.0023687366)
(-0.0036020836 -0.01355505 -0.0025591842)
(-0.001378491 -0.01226416 -0.0021445245)
(-0.00026874891 -0.018576033 -0.0039650057)
(-0.0022612327 -0.016655527 -0.0038395388)
(-0.0014804492 -0.012531507 -0.003491218)
(0.00010059577 -0.011995158 -0.0014991225)
(0.0023397219 -0.010371878 -0.0004458463)
(0.0032057324 -0.012725741 -0.00093825644)
(0.00039715903 -0.01563244 -0.0013595121)
(0.00046690288 -0.01794809 -0.0011118456)
(-0.0010768024 -0.014818139 0.0026419823)
(-0.0016484646 -0.013909334 0.003734461)
(-0.0013048019 -0.011813871 0.0033788195)
(0.00074210971 -0.01379113 0.0037916049)
(-0.00089767206 -0.01582766 0.0038909301)
(-0.00094049557 -0.012758924 0.00035908828)
(0.0033408013 -0.012675149 0.0011439796)
(0.0036566457 -0.013690077 6.4615247e-05)
(0.0012823224 -0.016344491 -0.00032214506)
(-0.00053116504 -0.017458322 -0.00043458243)
(-0.0025674773 -0.015974089 -0.0003229662)
(-0.00067258156 -0.011166126 0.00092434203)
(0.00082901119 -0.015192521 -0.0030934803)
(-0.0011467063 -0.017179321 -0.0015222654)
(-0.0020531541 -0.014283526 -0.0018666982)
(-0.002233829 -0.011027571 -0.0013524048)
(0.0014155706 -0.011631112 0.00057387845)
(0.002230809 -0.014780667 0.0014311949)
(0.0014507069 -0.015602905 0.00014467115)
(-0.0026665763 0.016974764 -0.0021316663)
(-0.0041082032 0.013998703 -0.0011116118)
(0.00037967649 0.00083518078 -0.00017692921)
(-0.00030021009 0.018564089 -0.0070508219)
(-0.0041850732 0.016084351 -0.0057286225)
(-0.0037112026 0.0066104338 -0.002133999)
(-0.00090076756 0.0028809756 -0.00023115938)
(0.00028702945 0.0015842994 0.0012737233)
(0.0049049063 0.014712267 0.00078877599)
(0.002482492 0.017862987 -0.00050509788)
(-0.0039488395 0.019354426 -0.00043161231)
(-0.0068533915 0.015858011 0.0036715737)
(-0.0058056549 0.010406896 0.002863467)
(-0.0039880551 0.0056205868 0.0018081079)
(-0.00014888777 0.011289869 0.0038078847)
(-0.0024326183 0.016538497 0.0051692164)
(0.0014297287 0.002126157 0.0016458329)
(0.0034096482 0.0031687207 9.25844e-05)
(0.0079966127 0.014087236 0.00080309911)
(0.0061368181 0.017802734 0.0007430444)
(-0.0039735751 0.019105414 -0.0015789032)
(-0.0052614842 0.016571562 -0.0017190224)
(-0.0010897852 0.001500403 -0.00089913501)
(0.0038170859 0.015475212 -0.0047375028)
(-5.1349481e-05 0.018261856 -0.0048339446)
(-0.0044396084 0.014940412 -0.0034919974)
(-0.00036450342 0.0022873904 5.3283484e-05)
(0.0011873465 0.0020174551 0.0016154109)
(0.0045135907 0.013618492 0.0047578296)
(0.0036502965 0.017712296 0.0045722752)
(0.00078393718 -0.0038638942 -0.00013671796)
(0.0062569414 -0.01441125 0.0022625261)
(0.0012690987 -0.015137495 0.0039369618)
(-0.0044331591 -0.012778857 0.0038583586)
(-0.00025468228 -0.011347002 0.0026734079)
(-0.001631147 -0.01282388 0.0024217622)
(-0.0014136536 -0.01385199 0.0022255547)
(-0.0041609391 -0.014005114 0.0018061521)
(-0.004505456 -0.010876043 0.0012673497)
(-0.00016498819 0.0041361313 -0.00094781901)
(-0.0021787314 0.0057139194 -0.0016979758)
(-0.0012632101 -0.0050899567 -0.0024430133)
(-0.00034559488 -0.015068011 -0.0056215867)
(-0.0040276832 -0.014840352 -0.0031633794)
(-0.0020835308 -0.013549213 -0.00252103)
(0.0033624723 -0.013302927 -0.0012073411)
(0.0043341424 -0.014731763 0.0027161581)
(-0.0022728819 -0.014945037 -0.0027694589)
(-0.0030265703 -0.010881582 -0.0023361522)
(0.0028480284 0.0052715905 -0.00032032559)
(-0.0017981996 0.0062465311 -0.0013830286)
(0.0051225775 -0.012138348 -0.0011420099)
(-0.00084179492 -0.015885094 -0.0013040295)
(-0.0043528866 -0.011907877 0.0011702915)
(8.6344119e-05 6.8786445e-05 -0.0020798656)
(0.0028535127 -0.011739829 0.0019873571)
(0.0036933009 -0.013569748 0.0026518943)
(-0.0004171637 -0.014376652 0.00079216509)
(-0.0029192938 -0.014574882 -0.00097284601)
(0.0010087738 0.0029011689 0.0020335716)
(0.0024185068 0.0030304961 0.0034923233)
(0.004180067 0.011285335 0.000643854)
(0.00074174567 0.012182479 0.0011014186)
(-0.0033478709 0.012609359 0.0023025384)
(-0.0059582247 0.0080078362 0.00091588936)
(-0.0042826545 0.0017328101 0.00080259432)
(-0.0048209902 0.0034306651 -0.00035405614)
(-0.0044458134 0.007187132 -0.0011072106)
(-0.0053476777 0.010356567 -0.00085573131)
(-0.0027026893 0.0087807505 -0.00033177168)
(-0.00046505054 0.0094975401 -0.00069167407)
(0.0015744606 0.0077669119 -0.0020803559)
(0.0013059738 0.010426945 -0.0016150734)
(-0.0029295031 0.0078165882 0.0012259831)
(-0.00094767142 -0.0015083558 3.8379646e-05)
(-0.0019349434 0.0052144578 0.001359246)
(-0.0015355501 0.011397591 0.0022501391)
(-0.0031576166 0.01062216 -0.001038877)
(-0.0040329279 0.00930557 -0.0023080127)
(-0.00097076916 0.008963477 5.3414955e-05)
(0.0019935953 0.0090505333 0.0006972223)
(0.0054123835 0.011540682 0.0012898069)
(-0.0021403795 0.01061092 0.0021096157)
(-0.0039431543 0.0077651353 0.0028764453)
(-0.00103581 0.0025238516 0.0038088551)
(0.0019098764 0.0011053329 0.0027852736)
(0.00060354918 0.0019541322 0.00099145915)
(0.00091286592 0.0059819353 0.00071736503)
(-0.0023500126 0.010467305 -0.0007910803)
(-0.0021885521 0.0076921823 0.00035252803)
(-0.0037104949 -0.010811176 0.0060702903)
(-0.0033701426 -0.0076117179 0.0057960414)
(-0.0019919337 -0.0023704061 0.003669726)
(5.8727034e-05 0.0006721784 0.0040771018)
(0.0036217825 -0.006496949 0.0053667182)
(0.00011715143 -0.010112381 0.0059859264)
(-0.0037000749 -0.0095380957 0.0053864862)
(-0.0047580427 -0.0093398067 0.0020536639)
(-0.0049024705 -0.0033972781 4.9827987e-05)
(-0.002615903 0.0013135243 -0.00028609461)
(0.00064425511 0.0025953077 -0.0020083975)
(0.0025758603 -0.0031300061 -0.0023400848)
(0.0027521953 -0.0027024374 -0.0018914198)
(0.005153595 -0.0072892371 -0.002776593)
(-8.7610581e-06 -0.01063959 -0.0024847748)
(-0.0063956326 -0.010990772 -0.0032835423)
(-0.0056714185 -0.0098066386 -0.0027010128)
(-0.0050181675 -0.0085670006 -0.0016147008)
(-0.004173895 -0.0059879466 -0.00097532916)
(-0.0016756312 0.001326529 -0.00036545259)
(0.0018924088 0.00053177415 0.0019803969)
(0.0044201816 -0.0036951671 0.0023646703)
(0.0053794906 -0.0051366535 0.0018016503)
(0.0064197578 -0.0091222563 0.0020957075)
(0.0037921439 -0.0091296311 0.0029915295)
(9.7115396e-05 -0.010927379 0.00093708363)
(-0.0030716161 -0.009960322 -0.0033710229)
(-0.0046173816 -0.0075037153 -0.0040278149)
(-0.0035957183 -0.0040145278 -0.0034192022)
(-0.0017908387 -0.00050561306 -0.0024998334)
(-0.0020425508 -0.016419122 -0.00028148777)
(-0.0030810143 -0.012454679 -1.3942058e-06)
(-0.0023538606 -0.014049104 0.00021341414)
(-0.0011631042 -0.014060156 -0.0010900283)
(-0.0011191009 -0.013161377 -0.0025765163)
(0.00025175636 -0.013004035 -0.0022144347)
(0.0031013606 -0.012070676 -0.0010927475)
(0.0046439948 -0.013423294 -0.00097307638)
(0.0039415106 -0.015472754 -0.0022035764)
(0.0017317959 -0.016589532 -0.0026230458)
(0.00061487512 -0.017283168 -0.0033283555)
(-0.00020996704 -0.017116858 0.0004359266)
(0.00014837994 -0.015895634 0.003905895)
(-0.00075303678 -0.015124551 0.0035436198)
(0.00034466124 -0.016318814 0.0034310922)
(-0.0016784049 -0.014491366 0.0022940715)
(0.00042090927 -0.010989831 0.0013377311)
(0.0029461475 -0.012391357 0.0019592107)
(0.0027238368 -0.014289458 0.001684454)
(0.0014676185 -0.017423058 0.0020056925)
(-0.00061531222 -0.016101671 -0.00029727645)
(-0.0011822444 -0.017258185 -0.0021143363)
(-0.0016158301 -0.018095729 0.0008430914)
(-0.00084101647 -0.012264292 -0.0026419724)
(0.00014103451 -0.013039137 -0.0015729768)
(-0.00052815951 -0.011911091 -0.0012722831)
(0.0016550918 -0.012133385 2.0711966e-05)
(0.0034108246 -0.014272879 0.0010063623)
(0.0031866084 -0.01504325 0.0012429892)
(0.0012860668 -0.016567895 0.00050162836)
(-0.0034270538 0.017010164 0.0016582991)
(-0.0024970756 0.0067810044 0.0017800844)
(-0.0011920354 0.0045806548 0.00041433613)
(-0.0013737945 0.0047474254 -0.0011999853)
(-0.0022524287 0.0036652105 -0.0019808391)
(-0.00084973998 -0.00057943167 -0.0015898087)
(0.0020871069 0.00047050594 0.0003384811)
(0.0050543346 0.010457356 0.00027821103)
(0.0057642039 0.016663153 0.00012838143)
(-0.00060989822 0.018216038 -0.0029579133)
(-0.0016191299 0.017919547 -0.0060378227)
(-0.0034500256 0.018372393 -0.0010609873)
(-0.005373005 0.017427155 0.0034459179)
(-0.0041623805 0.016647601 0.0038644438)
(-0.0015010787 0.017264809 0.0040073008)
(-0.0025840264 0.01630013 0.0021417567)
(0.0047554003 0.00060372923 -0.0011689287)
(0.0060918778 0.0062097901 -0.0010797894)
(0.007662002 0.014838132 -0.00049299535)
(0.0022162687 0.018596991 -0.00090986793)
(-0.0044573593 0.0180714 -0.0037853963)
(-0.0041822217 0.018118998 -0.0045060119)
(-0.0033240039 0.018536468 -0.0019118485)
(0.00048705662 0.0046258286 -0.0029154718)
(0.00051052314 0.0082997357 -0.0027124359)
(0.0011980696 0.0053669391 0.00015267237)
(0.0034002015 0.0013128044 0.00050189204)
(0.0059415735 0.010655917 0.0027704279)
(0.0058751468 0.016694163 0.0036144694)
(0.0026622705 0.018324861 0.0024987366)
(0.0026632651 -0.010514174 0.0019194528)
(0.0048184474 -0.01351189 0.0018142971)
(0.0036971705 -0.014401655 -0.00021584437)
(-0.0019707834 -0.014207243 -0.00081864993)
(-0.001928855 -0.012984442 0.00026612965)
(-0.0015172964 -0.013870451 -6.8534694e-05)
(-0.0019921271 -0.013805933 -3.1528139e-05)
(-0.0037090568 -0.013674731 -0.0024265981)
(0.00056456685 -0.0019399631 -0.0001459976)
(-0.0012206584 -0.0012527048 -0.00097947871)
(-0.0017797598 -0.011639703 0.0023257393)
(-0.0029369112 -0.0011680053 -0.00079588104)
(-0.0023501112 -0.0068231862 -0.0022459994)
(-0.0018297525 -0.013920062 -0.0049034376)
(0.00078246032 -0.011217804 -0.0021369553)
(0.0059790684 -0.013499037 -0.0020823061)
(0.0069799364 -0.015586604 -0.0038890502)
(-3.7144055e-05 -0.013879399 -0.0062182647)
(0.0008263075 -0.00043367311 -0.0034110044)
(0.0010133535 0.0067046432 -0.00036783574)
(-0.00021088221 0.0017876049 -0.001410246)
(0.0020114368 -0.014276439 0.0011506487)
(0.0038189427 -0.018352525 -0.0025427347)
(0.0016210897 -0.015213926 -0.00034129602)
(-3.8648329e-05 -0.014141557 0.002536135)
(0.0025887923 -0.013613519 0.002975549)
(0.0022692582 -0.015080968 0.00010307517)
(-0.0030397745 -0.01427948 -0.002471869)
(1.2260643e-05 0.0013978616 -0.0011373201)
(-0.0006194411 0.0058114666 -0.00035967793)
(0.001606073 3.2248642e-05 0.0026719753)
(0.001259334 0.00032615979 0.0019031163)
(0.0010256557 0.0091080337 -0.0014960929)
(-0.0031143209 0.0080545243 -0.0037571703)
(-0.0025547151 -0.00089280459 -0.00082368379)
(-0.0027089287 -0.0038387474 -0.00020913508)
(-0.0018338518 -0.001115341 -8.6512036e-05)
(-0.0032601652 0.0060062202 -0.00089951051)
(-0.0020486881 0.0084529888 -0.0037644981)
(0.0020562289 0.0088585427 0.00086290001)
(0.0011454586 0.012307641 0.0017653066)
(-0.0030018728 0.0082886775 -0.0013309973)
(0.0025680753 0.0080212818 -0.0040489926)
(-0.00031266175 0.010934976 -0.0035727238)
(0.0015830918 0.0030742164 0.00015389376)
(0.00084707966 0.0040418092 0.00041374503)
(0.00016433877 0.010933949 0.00057736538)
(-0.0035847778 0.0095218943 -0.0036303461)
(-0.0016306627 0.0073665617 -0.003670113)
(0.00059018448 0.010403208 0.00071331848)
(0.0040176356 0.0079656303 0.0019972967)
(0.0059302554 0.010875188 0.00042615121)
(0.0030586566 0.013528174 0.00010033904)
(-0.0019638324 0.0073961025 -0.0012284174)
(0.0014300021 -0.0021469062 0.0031863655)
(-0.00023153989 -0.001924085 0.00091279226)
(0.0025980189 0.0084747471 0.0020711089)
(-0.0038276224 0.0097971804 -0.0021764404)
(-0.0029402989 0.0071192426 -0.002530136)
(-0.0014365769 0.0098430503 -0.00028433444)
(-0.0017592267 -0.011682144 0.0041102179)
(-0.0032794239 -0.01053437 0.0052588759)
(-0.0030404814 -0.0089181187 0.0057929321)
(0.00097149563 -0.0057017978 0.0052444436)
(0.0030337046 -0.0082965692 0.0055308208)
(-0.0019849218 -0.010540359 0.0036495505)
(-0.0050045264 -0.010487711 0.002293471)
(-0.0063219375 -0.0099384678 0.0010811751)
(-0.0058640159 -0.0068336617 0.0014552798)
(-0.0040930308 -0.0039076 0.0029593627)
(-0.00018109817 -0.0020092244 0.0025729094)
(0.0021138704 -0.0027914237 0.0014436778)
(0.0038523691 -0.0065878306 0.0021011192)
(0.0041499038 -0.0076573424 0.0019114478)
(0.0032677656 -0.010340045 0.00035033801)
(-0.0045851943 -0.0093102408 -0.0031316288)
(-0.0033480693 -0.0068457066 -0.0031122322)
(-0.0027291958 -0.0075651757 -0.0016432159)
(-0.0027941095 -0.0030626913 -0.0015479754)
(0.00041048542 0.0030749063 0.0018361863)
(0.0035775884 -0.0019710949 0.0028938594)
(0.0042208454 -0.0059116479 0.0032482194)
(0.0057163982 -0.0039508676 0.0028421194)
(0.0073896193 -0.0079422736 0.0027841557)
(0.0055714533 -0.0099332377 0.0024633332)
(-0.0027699367 -0.010156415 -0.001830353)
(-0.0038113162 -0.0069645183 -0.003475948)
(-0.0038858245 -0.0041791462 -0.0031691918)
(-0.0035985636 -0.00083697875 -0.0029643765)
(-0.002160718 0.003155011 -0.0026856058)
(-0.00091178081 -0.016179913 0.0010389481)
(-0.0028761049 -0.015601486 0.001865647)
(-0.0015149482 -0.014722233 0.0023211521)
(-0.0026847022 -0.015655598 0.00051713304)
(-0.0026605688 -0.011884669 0.0018608111)
(0.0017719328 -0.012464267 0.0015652077)
(0.0033564781 -0.012166152 0.0018296162)
(0.0035832173 -0.016775766 0.00075835775)
(0.00063389144 -0.018921992 -0.0011692706)
(-0.0030629186 -0.016838111 -0.0013822203)
(-0.00042959057 -0.013138241 -0.0006231297)
(0.003689432 -0.012487283 -0.0011145827)
(0.0041350456 -0.014757576 -0.0011387372)
(0.0029064128 -0.016455855 -0.00065704908)
(0.0025670556 -0.016947845 0.00033973532)
(0.0019767275 -0.016684647 -4.0752191e-05)
(0.00086254529 -0.016492581 0.0017451694)
(0.00057326588 -0.016328715 0.0016811167)
(-0.001269527 -0.016023252 -0.00036626851)
(-0.0026432613 -0.014212371 -0.00091788932)
(-0.0036444253 -0.013368642 -0.0026854092)
(-0.0013782657 -0.01189221 -0.002859111)
(-4.9481856e-05 -0.014680489 -0.0021475555)
(-0.00089020559 -0.012127067 -0.00060589738)
(0.0011549862 -0.011666464 0.00127294)
(0.002209015 -0.011626447 0.0011087658)
(0.0034470504 -0.015345624 0.0012094649)
(0.003843128 -0.016093183 0.00050805302)
(0.0032006745 -0.016972582 -0.00061552199)
(0.00062572635 -0.01944303 0.0005507165)
(-0.0029790491 0.017735183 0.0041576186)
(-0.003902669 0.015428095 0.0051612931)
(-0.0019040284 0.010412187 0.0046638553)
(-0.0032690128 0.015608438 0.0022138846)
(-0.00022573784 -0.00045763842 0.0016896431)
(0.0020349844 -0.0010314491 0.0013613947)
(0.0034944435 0.0027068219 0.001762503)
(0.0072450194 0.016297477 0.0026329967)
(-0.00047673621 0.020139553 0.00031981362)
(-0.0076205891 0.014595198 0.00029792582)
(-0.0014483994 -0.0025348527 0.0016163676)
(-0.0011781159 0.0041802618 -0.00061713374)
(0.0036997596 0.016347866 -0.00026501831)
(0.0022465023 0.017933096 -0.0012117129)
(0.0023635612 0.018264483 -0.00025601126)
(0.0020236922 0.018279729 4.7261229e-05)
(0.0035738665 0.018193592 0.0023886835)
(0.0046868342 0.017862473 0.0033578187)
(0.00017348065 0.017910572 -0.00082953528)
(-0.0044858909 0.016315255 -0.0035309458)
(-0.0050292422 0.011956019 -0.0038818879)
(-0.0016022502 0.0018505581 -0.0026401284)
(-0.00060900629 0.013299136 -0.0021025619)
(0.00078190643 0.0036702615 -0.00017463977)
(0.0026158145 0.0011401376 0.0020562917)
(0.0042878371 0.0020142882 0.0018992645)
(0.0072366047 0.012038302 0.0036013952)
(0.0076670624 0.016994539 0.0030025884)
(0.0046833805 0.018283813 8.8091648e-06)
(-0.0001953699 0.020346162 -0.0023802863)
(0.00013109582 -0.0042675427 0.0027093775)
(0.0043077608 -0.015447582 0.0024842028)
(0.0021346658 -0.015547908 0.0019172051)
(0.0027520912 -0.015485855 0.0023519423)
(0.0030465505 -0.014537131 -0.00019437077)
(0.001526365 -0.014142981 -0.0019218011)
(0.0004920723 -0.014200186 -0.00074769133)
(-0.00063791712 -0.014153716 -0.0014459739)
(-0.00080143594 0.0074825009 -5.6046941e-05)
(0.0040114771 -0.013532856 0.0047386629)
(0.0012919928 -0.016096622 0.0040759184)
(-0.0056994695 -0.014241323 0.0012777217)
(-0.0033889174 -0.012661588 -0.0018055709)
(0.0006847015 -0.0086617961 -0.0030164713)
(0.0028617871 -0.0075355365 -0.0018493656)
(0.0052046929 -0.011263271 -0.0017566091)
(0.0036587824 -0.015409495 -0.0041322494)
(0.0025264344 -0.0038351477 -0.0018878392)
(0.0023670668 0.003691151 -0.0009483266)
(0.0013978852 0.00074718209 -9.7572103e-05)
(0.0049716438 -0.01306695 0.0013886634)
(-0.00019281836 -0.014523383 -0.00058976462)
(-0.00019024594 -0.01407293 4.6999323e-05)
(0.0032326685 -0.013505996 -0.00074269916)
(0.0017308764 -0.01380765 0.00192498)
(0.0022395514 -0.01411974 -9.8507637e-05)
(-0.0030508898 -0.013957114 -0.0033187668)
(0.0012288035 0.00072659465 0.0004490204)
(-0.0010344027 0.001574537 0.00086779689)
(-0.00083654828 -0.006682567 0.0011763582)
(0.0024978028 0.0075274589 0.0033254879)
(0.0031090907 0.0096357839 0.0026930628)
(0.0031528619 0.0071380577 0.0021249193)
(0.0010754866 0.0065735515 -0.00013408065)
(0.00072340907 -0.0036153154 -0.00090831422)
(-0.00041078583 -0.0046624918 -0.001462565)
(0.00093568345 0.00079262661 -8.2130143e-05)
(-0.0040609498 0.012384045 -0.00096701487)
(-0.0018911659 0.0093318171 -0.0003829049)
(0.0043164115 0.0094932952 0.0012362833)
(0.0032825825 0.012358958 0.0004469059)
(0.0023397152 0.0080101336 0.00056388403)
(0.0022506618 0.0024351852 -0.0031272277)
(0.0026369116 -0.00018606602 -0.0019151888)
(0.0029684382 0.0049772704 0.0001063824)
(0.0055603068 0.011150495 0.0017804829)
(-0.00015378276 0.013583741 0.00078639193)
(-0.0017754604 0.0090574737 -0.0039059075)
(0.0019151017 0.0092536514 -0.0016949783)
(0.0036648558 0.0077660206 0.0013944539)
(0.0043971977 0.010192147 0.00054497269)
(0.0010461323 0.0078313039 -0.0024288812)
(0.0018932634 0.0032496346 -0.0011844658)
(0.003007003 -0.0024027211 5.8351262e-05)
(0.00089473665 -0.0030863579 0.0011374562)
(0.0029912272 0.0046143938 0.0010071202)
(-0.002837601 0.011467337 -0.0014035562)
(-0.0013900414 0.0074601551 0.00074901964)
(8.599206e-05 0.0095010375 0.001812855)
(0.0013998536 0.010802484 0.0029971366)
(0.0012476825 -0.0069490938 -0.0036411219)
(0.0033325493 -0.010784502 -0.0047084222)
(0.0043470684 -0.011771233 -0.0037510945)
(0.0050766361 -0.011372331 -0.0034322369)
(0.0048291225 -0.010640021 -0.0031157167)
(-0.0010882225 -0.010373678 -0.0026673112)
(-0.0051550422 -0.00947302 -0.0036414103)
(-0.004429587 -0.0058207391 -0.0021529153)
(0.00036879703 -0.0046185246 -0.0019416079)
(0.00050302185 -0.013886514 -0.0028125415)
(0.0022439567 -0.011453752 -0.0020730351)
(0.004620864 -0.010929099 -0.0029672028)
(0.0046964985 -0.011098212 -0.0033367955)
(0.0013130317 -0.011266499 -0.00014205463)
(-0.0045901017 -0.0089633117 6.6857152e-05)
(-0.0029303769 -0.0035310434 -0.00048494127)
(-0.00092166014 -0.0016753784 -0.0015786463)
(0.0011183977 -0.0044047964 -0.0012395483)
(0.00049438924 -0.00040393663 3.2254895e-05)
(0.0026492189 -0.0018618768 0.0031538132)
(0.0040802331 -0.005546942 0.0038385103)
(0.005889991 -0.0093146792 0.0041747438)
(0.0066095953 -0.0099274162 0.0038845512)
(0.0059165137 -0.010318399 0.0029761489)
(-0.0015065592 -0.0098681348 -0.00026431865)
(-0.0052508752 -0.0067581615 -0.001613165)
(-0.0036748435 -0.0018820436 -0.0010183855)
(-0.0024205892 -0.0024640832 0.00063221442)
(-0.0032989189 -0.00016900435 0.0017597518)
(-0.00041199896 0.0018354072 0.002663062)
(-0.00077640417 -0.017008984 -7.778778e-05)
(-0.0027182236 -0.016903904 0.00073804466)
(-0.0036072606 -0.016337681 0.0017391638)
(-0.00038768832 -0.01309791 0.0007306291)
(0.0030728872 -0.01769138 0.00033336805)
(0.002689602 -0.018309271 0.0013287151)
(0.002353833 -0.0186436 0.002610621)
(0.0020442226 -0.018964267 0.0028726036)
(-0.0018880354 -0.015304202 0.00174326)
(-0.0037458472 -0.012049654 0.00020334144)
(-0.00078901411 -0.013393513 -0.00085324856)
(0.0032582857 -0.012941862 0.00088178635)
(0.0019165776 -0.016510645 0.00090799226)
(0.00012669168 -0.015286899 0.0007254025)
(-0.0015806252 -0.015636559 0.00063784043)
(-0.0032628573 -0.014574078 -0.00027993177)
(-0.0031230429 -0.011143333 -0.00061114131)
(-0.00087822646 -0.011873208 0.00014266559)
(-0.00018036818 -0.011133194 0.0011192613)
(0.00084106128 -0.011266473 0.0024532806)
(0.001626777 -0.013613384 0.0034513567)
(0.0010754548 -0.016562514 0.0032231674)
(-0.00031451531 -0.01953733 -0.0013390691)
(-0.00010232871 -0.018922589 -0.0020456972)
(0.0004990703 -0.011289796 0.0015103891)
(0.0025499241 -0.016681531 0.0016372037)
(-0.0031264215 0.018430332 0.0040848869)
(-0.0053597292 0.018145777 0.0053672592)
(-0.0053218562 0.014305942 0.0055294887)
(-0.00067216418 -0.00080601745 0.0023330199)
(0.0048303042 0.016522335 0.0021933766)
(0.0040036075 0.018705616 0.003164052)
(0.0041097645 0.019486926 0.003768687)
(0.0049000354 0.020409424 0.0046632809)
(-0.0030970717 0.017161263 0.00030463307)
(-0.0026480402 0.0095745371 -0.0018029992)
(0.00048461999 -0.0034293168 -0.0033334846)
(0.0014838095 0.0052189869 7.6598086e-05)
(0.0042219647 0.017381173 0.0019844418)
(-1.0506856e-05 0.01730083 -0.0029573933)
(-0.0030563251 0.01806217 -0.0035684069)
(-0.0045820917 0.015908581 -0.0031738786)
(-0.0018540158 0.0017022004 -0.0020139642)
(-0.0012224117 0.00061815655 -0.0019895888)
(-0.00049545003 0.0024699284 -0.0010064443)
(0.0013419503 0.0024644018 0.0010597535)
(0.0029543363 0.010517248 0.0036985614)
(0.0053279261 0.016638649 0.003927413)
(-0.00087962241 0.019967492 -0.002593932)
(-0.0050541097 0.017501917 -0.0035889648)
(-0.0011641832 0.0027014627 0.00082445435)
(0.0024602678 0.018465921 0.00082821116)
(4.8629083e-05 0.0034883092 0.0016621086)
(0.0012343462 -0.0029166943 0.0019085804)
(0.0056522302 -0.014724942 0.0015491803)
(0.00043257801 -0.017002259 0.0018615738)
(-0.0062301646 -0.016287742 5.1336187e-05)
(0.0022456383 -0.0082810127 -0.0004534148)
(0.0017281387 -0.017089738 -0.00028739736)
(0.0033117124 -0.0014522283 0.0019579505)
(0.0024486751 -0.0030281923 -0.0016307545)
(0.0060229363 -0.013033179 -0.0026312808)
(0.0029324412 -0.015742545 -0.0056900175)
(-0.0047850022 -0.015271323 -0.0035570053)
(-0.0011900877 -0.0058178363 -0.00031840186)
(0.0012257727 0.0017543159 -0.0026619572)
(-0.00068911291 0.0023715099 -0.0023510543)
(0.0024979022 -0.013783679 -0.00075720051)
(0.0013533919 -0.014337842 -0.0011072571)
(-0.00098267531 -0.014148944 -0.0040244139)
(-0.0018660975 -0.013875822 -0.0022501934)
(-0.00025781121 -0.013744422 -0.001622702)
(-0.0028726637 -0.014509769 -0.00040666626)
(0.0017424902 -0.0056354584 0.00093278936)
(-0.00045813392 0.0055363015 -0.0018420231)
(0.0033118557 -0.011688194 -0.0011866889)
(-6.7753625e-05 -0.01512795 0.0018399531)
(-0.0044963458 -0.013119378 0.001178191)
(0.0018021946 0.009741439 0.00031004413)
(0.0051413247 0.0085011727 -0.00046961531)
(0.0053586265 0.0117692 -0.0010063835)
(0.0028512157 0.012821533 0.00022587373)
(-0.0041246698 0.010782531 0.00039140885)
(0.00056469514 -0.00080743962 -0.0011361947)
(-0.00039226135 0.013349685 0.0023305294)
(-0.00089906077 0.0086467461 -0.00098446273)
(0.0025876242 0.006229697 -0.00022911014)
(0.004667957 0.010607677 -0.0014475771)