/*--------------------------------*- C++ -*----------------------------------*\
  =========                 |
  \\      /  F ield         | OpenFOAM: The Open Source CFD Toolbox
   \\    /   O peration     | Website:  https://openfoam.org
    \\  /    A nd           | Version:  dev
     \\/     M anipulation  |
\*---------------------------------------------------------------------------*/
FoamFile
{
    format      ascii;
    class       volScalarField;
    location    "0/air";
    object      omega;
}
// * * * * * * * * * * * * * * * * * * * * * * * * * * * * * * * * * * * * * //

dimensions      [0 0 -1 0 0 0 0];

internalField   uniform 2;

boundaryField
{
    inlet
    {
        type            turbulentMixingLengthFrequencyInlet;
        mixingLength    0.00035;
        value           nonuniform List<scalar> 0();
    }
    outlet
    {
        type            inletOutlet;
        inletValue      nonuniform List<scalar> 0();
        value           nonuniform List<scalar> 0();
    }
    walls
    {
        type            omegaWallFunction;
        value           uniform 2;
    }
    air_to_water
    {
        type            omegaWallFunction;
        value           uniform 2;
    }
    air_to_solid
    {
        type            omegaWallFunction;
        value           uniform 2;
    }
    procBoundary6to1
    {
        type            processor;
        value           uniform 2;
    }
    procBoundary6to2
    {
        type            processor;
        value           uniform 2;
    }
    procBoundary6to3
    {
        type            processor;
        value           uniform 2;
    }
    procBoundary6to5
    {
        type            processor;
        value           uniform 2;
    }
    procBoundary6to7
    {
        type            processor;
        value           uniform 2;
    }
    procBoundary6to9
    {
        type            processor;
        value           uniform 2;
    }
}


// ************************************************************************* //
