/*--------------------------------*- C++ -*----------------------------------*\
| =========                 |                                                 |
| \\      /  F ield         | OpenFOAM: The Open Source CFD Toolbox           |
|  \\    /   O peration     | Version:  v2012                                 |
|   \\  /    A nd           | Website:  www.openfoam.com                      |
|    \\/     M anipulation  |                                                 |
\*---------------------------------------------------------------------------*/
FoamFile
{
    version     2.0;
    format      ascii;
    class       volScalarField;
    location    "100/topAir";
    object      rho;
}
// * * * * * * * * * * * * * * * * * * * * * * * * * * * * * * * * * * * * * //

dimensions      [1 -3 0 0 0 0 0];


internalField   nonuniform List<scalar> 
1200
(
1.1133311
1.0738678
1.0402635
1.0110832
0.98522343
0.96193519
0.94070671
0.9212344
0.90354098
0.88771477
0.87361976
0.86119323
0.85050856
0.84387147
0.83894906
0.83592127
0.83484092
0.83551818
0.83752355
0.84030974
0.84336101
0.84626019
0.84869498
0.85044538
0.85135633
0.85127201
0.84991803
0.84672116
0.84080027
0.83180778
1.1575989
1.1556565
1.152981
1.1496921
1.1458836
1.1416278
1.136985
1.1319985
1.1260799
1.1183933
1.1084132
1.0950454
1.0779754
1.0575684
1.0347043
1.011416
0.98995925
0.97194074
0.95804425
0.94821172
0.94192554
0.93832906
0.93643744
0.93534016
0.93424905
0.93238197
0.92871622
0.92155298
0.90774899
0.88271596
1.1585969
1.1585321
1.1584116
1.1582232
1.1579567
1.1576032
1.1571548
1.1566043
1.1559293
1.1550863
1.1540155
1.152522
1.1486744
1.1400232
1.1244804
1.1017039
1.074134
1.0455971
1.0193647
0.9972905
0.979957
0.96707326
0.95785593
0.95135144
0.94662023
0.9427752
0.93886859
0.93358136
0.92444996
0.90709771
1.1586181
1.158616
1.1586109
1.1586008
1.1585836
1.1585562
1.1585153
1.158457
1.1583761
1.1582655
1.158114
1.1578968
1.1574933
1.1565036
1.1521573
1.1386009
1.1138162
1.0840679
1.055336
1.030128
1.009146
0.99233459
0.97923519
0.9691795
0.9614384
0.95529181
0.94999852
0.94460263
0.93734453
0.92489282
1.1133264
1.0742766
1.0413928
1.0131828
0.98853461
0.96674155
0.94734091
0.93004832
0.91471483
0.90133574
0.88999852
0.88085797
0.87413929
0.87281762
0.87391281
0.87711841
0.88174018
0.88679532
0.89141583
0.89515744
0.89796893
0.89990382
0.90097647
0.90117576
0.90047239
0.89869042
0.89522714
0.88863706
0.87744932
0.8650583
1.1576
1.1556939
1.1531194
1.150016
1.1464954
1.1426498
1.1385617
1.1343133
1.1299855
1.1256742
1.1215236
1.1176794
1.1142726
1.1115372
1.1095319
1.1081417
1.1069612
1.1054203
1.1031716
1.1002693
1.0969788
1.0933848
1.0894625
1.085201
1.0805843
1.0755601
1.0700767
1.0640955
1.0542282
1.0225129
1.158597
1.1585339
1.1584196
1.1582455
1.1580057
1.157696
1.1573142
1.1568598
1.1563344
1.1557412
1.1550869
1.1543775
1.1535613
1.1525189
1.1510654
1.1488991
1.1452232
1.1389501
1.1300696
1.1198948
1.1100576
1.0997603
1.0880245
1.0748165
1.0603399
1.0455463
1.030353
1.0142791
0.9965672
0.97641185
1.1586181
1.1586161
1.1586113
1.1586022
1.1585871
1.158564
1.1585306
1.1584847
1.1584235
1.1583443
1.1582434
1.1581151
1.1579401
1.1576374
1.1567122
1.1532127
1.1431087
1.1234732
1.0968402
1.0690321
1.0440554
1.0239964
1.0086919
0.99663914
0.98684431
0.97847926
0.97085151
0.96331503
0.95497697
0.94451257
1.1133245
1.0741917
1.041216
1.0129054
0.98813573
0.96618702
0.94658194
0.92900192
0.9132374
0.89914573
0.88667898
0.87584495
0.86677666
0.86332574
0.86195072
0.86301198
0.86687453
0.87357103
0.88237272
0.89175317
0.90012996
0.90660005
0.91101247
0.91364963
0.91480264
0.91445049
0.9120419
0.90569645
0.89087076
0.86971583
1.1575997
1.1556869
1.1531009
1.1499844
1.1464503
1.1425895
1.1384804
1.1341952
1.129806
1.1253896
1.1210355
1.1168541
1.1129867
1.1097308
1.1072822
1.1058087
1.1053825
1.1057578
1.1062094
1.1058735
1.1043673
1.1017915
1.0983394
1.0940607
1.0888468
1.0825161
1.0750153
1.0661038
1.0528559
1.0158702
1.158597
1.1585336
1.1584187
1.1582439
1.1580037
1.1576944
1.1573143
1.1568633
1.1563434
1.1557588
1.1551173
1.154431
1.1537179
1.153007
1.1523366
1.1517247
1.1510364
1.149638
1.1462883
1.1402426
1.1321969
1.123279
1.1138867
1.1037858
1.0924701
1.0793075
1.0645791
1.0486008
1.0311723
1.0114415
1.1586181
1.158616
1.1586112
1.1586022
1.1585871
1.1585641
1.1585313
1.1584864
1.1584275
1.1583524
1.1582591
1.1581457
1.1580095
1.1578434
1.1576044
1.1570496
1.1551547
1.1491274
1.1350258
1.1119862
1.0845628
1.0587282
1.0372435
1.0200241
1.0062115
0.99483616
0.98501411
0.97595113
0.9667709
0.95659207
1.1133265
1.074168
1.0411343
1.0127347
0.98783772
0.9657013
0.94581337
0.92780114
0.91138031
0.89632411
0.88243978
0.86955872
0.85764252
0.85132149
0.84544729
0.83996265
0.83497081
0.83080567
0.82820376
0.82783824
0.82982118
0.83356454
0.83788992
0.84185041
0.84496076
0.84681039
0.84640413
0.84082318
0.82911592
0.8147821
1.1575996
1.1556846
1.1530914
1.1499609
1.1464032
1.1425044
1.1383343
1.1339506
1.1294029
1.1247346
1.1199853
1.1151948
1.1103643
1.1058073
1.101566
1.0977473
1.0945188
1.0920993
1.0906606
1.0900566
1.0897163
1.0888556
1.0869572
1.0836969
1.0789727
1.0728155
1.0652958
1.0546685
1.0247774
0.95488527
1.158597
1.1585335
1.1584182
1.1582425
1.1580005
1.1576882
1.1573031
1.1568439
1.1563107
1.1557044
1.1550273
1.1542828
1.1534765
1.1526249
1.1517508
1.1508864
1.1500755
1.1493429
1.1485016
1.1466168
1.141967
1.1336296
1.1218017
1.107335
1.09135
1.0747587
1.0583608
1.0427575
1.0270004
0.99694891
1.1586181
1.158616
1.1586112
1.1586021
1.1585869
1.1585637
1.1585304
1.158485
1.158425
1.1583483
1.1582526
1.1581356
1.1579949
1.1578282
1.1576325
1.1573984
1.1570798
1.15638
1.1539021
1.1457431
1.1274932
1.1008765
1.0727403
1.0479794
1.0280981
1.0125007
0.99988273
0.98902251
0.97883743
0.96854063
1.1133294
1.0741622
1.041111
1.012689
0.98776235
0.96558591
0.94564373
0.92755765
0.91103652
0.89584695
0.88179153
0.86870716
0.85682281
0.85227255
0.8478279
0.84322793
0.83808861
0.83178143
0.824932
0.81793978
0.81111909
0.80667856
0.80488766
0.80424359
0.80337473
0.80123056
0.79648194
0.79018281
0.78316347
0.77382182
1.1575997
1.1556837
1.1530876
1.1499514
1.1463846
1.1424723
1.1382821
1.1338689
1.1292778
1.1245463
1.1197064
1.114765
1.1088463
1.1031122
1.0974283
1.0917169
1.0859759
1.080164
1.0746049
1.0704426
1.0705264
1.0726313
1.0744369
1.0736661
1.0699553
1.0637062
1.0552533
1.0315582
0.97489493
0.8901253
1.158597
1.1585335
1.158418
1.1582418
1.157999
1.1576853
1.1572979
1.1568352
1.1562966
1.1556823
1.1549927
1.1542283
1.1533702
1.1524283
1.1514121
1.150332
1.149206
1.1480678
1.1469843
1.1460521
1.1450279
1.1412927
1.1293919
1.109784
1.0876174
1.0657499
1.0458202
1.0286262
1.0078337
0.94487104
1.1586181
1.158616
1.1586112
1.158602
1.1585868
1.1585635
1.15853
1.1584841
1.1584236
1.158346
1.1582488
1.1581295
1.1579846
1.1578108
1.1576044
1.1573606
1.1570724
1.1567218
1.1562393
1.1553044
1.1516224
1.1371197
1.102898
1.062203
1.0367285
1.0205373
1.0081563
0.99762038
0.98753463
0.97008223
1.1133294
1.0741622
1.0411109
1.0126891
0.98776266
0.96558639
0.94564439
0.92755854
0.91103775
0.89584884
0.88179423
0.86871109
0.85682562
0.85227489
0.84783023
0.843231
0.83809275
0.8317867
0.82493788
0.81794589
0.81112696
0.80674183
0.80502594
0.80446592
0.80368215
0.80161885
0.79693189
0.79059165
0.78354012
0.77417963
1.1575997
1.1556837
1.1530876
1.1499514
1.1463846
1.1424723
1.1382821
1.133869
1.129278
1.1245465
1.1197067
1.1147655
1.1088488
1.1031172
1.0974369
1.0917309
1.0859981
1.0801991
1.0746608
1.0705361
1.0706803
1.0727823
1.0745845
1.0738034
1.0700752
1.0638058
1.0553458
1.0320017
0.97561619
0.8909909
1.158597
1.1585335
1.158418
1.1582418
1.157999
1.1576853
1.1572979
1.1568352
1.1562967
1.1556823
1.1549928
1.1542283
1.1533703
1.1524285
1.1514126
1.1503327
1.1492073
1.14807
1.1469878
1.146058
1.1450378
1.141306
1.1293985
1.1097672
1.0875756
1.0656994
1.0458004
1.0287039
1.0082928
0.94617426
1.1586181
1.158616
1.1586112
1.158602
1.1585868
1.1585635
1.15853
1.1584841
1.1584236
1.158346
1.1582488
1.1581295
1.1579846
1.1578108
1.1576044
1.1573606
1.1570725
1.156722
1.1562397
1.1553056
1.1516294
1.1371398
1.1029211
1.062204
1.0367349
1.0205651
1.0082179
0.99773953
0.98777162
0.97094225
1.1133265
1.0741679
1.0411342
1.0127346
0.98783769
0.9657014
0.94581362
0.92780151
0.91138084
0.89632484
0.88244038
0.86956012
0.85764324
0.85132269
0.84544949
0.83996856
0.83498019
0.83081735
0.82821735
0.82785512
0.82984618
0.83360554
0.83795535
0.84194674
0.84509254
0.84697925
0.84660796
0.84106202
0.82933998
0.81501027
1.1575996
1.1556846
1.1530914
1.1499609
1.1464032
1.1425044
1.1383343
1.1339506
1.129403
1.1247346
1.1199854
1.1151949
1.1103652
1.1058082
1.1015669
1.0977486
1.0945205
1.0921018
1.0906649
1.0900655
1.0897357
1.0888874
1.0870011
1.0837488
1.0790264
1.0728643
1.0653363
1.0547457
1.0250662
0.95537464
1.158597
1.1585335
1.1584182
1.1582425
1.1580005
1.1576882
1.1573031
1.1568439
1.1563107
1.1557044
1.1550273
1.1542828
1.1534766
1.152625
1.1517509
1.1508865
1.1500756
1.1493432
1.1485023
1.146619
1.1419721
1.1336369
1.1218059
1.1073279
1.0913245
1.0747106
1.0582898
1.0426709
1.026986
0.99745226
1.1586181
1.158616
1.1586112
1.1586021
1.1585869
1.1585637
1.1585304
1.158485
1.158425
1.1583483
1.1582526
1.1581356
1.1579949
1.1578282
1.1576325
1.1573984
1.1570798
1.1563805
1.1539041
1.14575
1.1275076
1.1008971
1.0727625
1.0479988
1.028114
1.0125142
0.99989505
0.98903425
0.97884928
0.96854895
1.1133244
1.0741915
1.0412157
1.0129049
0.98813518
0.96618649
0.94658155
0.92900144
0.91323672
0.8991445
0.88667654
0.87584103
0.86677091
0.86331868
0.86194193
0.86300172
0.8668627
0.87355702
0.88235497
0.89173047
0.90010145
0.90656559
0.91097258
0.91360503
0.914754
0.9143972
0.91198107
0.90562597
0.89080036
0.8696885
1.1575997
1.1556869
1.1531009
1.1499844
1.1464502
1.1425895
1.1384803
1.1341951
1.1298059
1.1253894
1.1210352
1.1168534
1.1129858
1.1097294
1.1072802
1.105806
1.1053791
1.105754
1.1062056
1.1058707
1.1043668
1.1017949
1.0983474
1.0940729
1.0888615
1.082531
1.0750291
1.0661256
1.0529273
1.0160044
1.158597
1.1585336
1.1584187
1.1582439
1.1580037
1.1576944
1.1573143
1.1568633
1.1563434
1.1557588
1.1551172
1.1544309
1.1537179
1.1530068
1.1523364
1.1517245
1.1510362
1.1496384
1.14629
1.1402462
1.1322024
1.1232854
1.1138919
1.1037862
1.0924623
1.0792891
1.0645502
1.0485646
1.0311337
1.0114125
1.1586181
1.158616
1.1586112
1.1586022
1.1585871
1.1585641
1.1585313
1.1584864
1.1584275
1.1583524
1.1582591
1.1581457
1.1580095
1.1578434
1.1576044
1.1570498
1.1551558
1.1491309
1.1350334
1.1119983
1.0845777
1.0587432
1.0372574
1.0200359
1.0062206
0.99484203
0.98501605
0.97594788
0.96675967
0.95656578
1.1133263
1.0742764
1.0413925
1.0131823
0.98853392
0.96674086
0.94734036
0.93004782
0.91471406
0.90133417
0.88999591
0.88085407
0.87413389
0.87281112
0.87390517
0.87710982
0.88173101
0.88678576
0.89140552
0.89514566
0.89795468
0.89988652
0.90095589
0.90115184
0.90044489
0.89865819
0.89518755
0.88858711
0.87740197
0.86501658
1.1575999
1.1556939
1.1531194
1.150016
1.1464954
1.1426498
1.1385616
1.1343132
1.1299853
1.125674
1.1215232
1.1176787
1.1142717
1.1115359
1.1095302
1.1081398
1.1069592
1.1054184
1.1031699
1.100268
1.0969783
1.0933858
1.0894654
1.0852062
1.0805913
1.0755683
1.0700858
1.0641076
1.05421
1.0224573
1.158597
1.1585339
1.1584196
1.1582455
1.1580057
1.157696
1.1573142
1.1568598
1.1563344
1.1557412
1.1550869
1.1543775
1.1535613
1.1525191
1.1510658
1.1488999
1.145225
1.1389535
1.1300748
1.1199019
1.1100671
1.0997734
1.0880412
1.0748358
1.0603586
1.0455612
1.0303603
1.0142743
0.99655835
0.97639111
1.1586181
1.1586161
1.1586113
1.1586022
1.1585871
1.158564
1.1585306
1.1584847
1.1584235
1.1583443
1.1582434
1.1581151
1.1579401
1.1576375
1.1567127
1.1532147
1.1431137
1.1234816
1.0968505
1.0690427
1.0440655
1.0240045
1.0086982
0.99664344
0.98684621
0.97847838
0.97084722
0.96330622
0.95496133
0.94448507
1.1133311
1.0738678
1.0402635
1.0110832
0.98522342
0.96193547
0.94070751
0.92123568
0.90354236
0.8877159
0.87362006
0.86119274
0.85050728
0.84386949
0.83894626
0.83591765
0.83483649
0.83551295
0.83751753
0.84030295
0.84335297
0.84625066
0.84868392
0.85043291
0.85134242
0.85125626
0.84989926
0.8466978
0.84077312
0.83177784
1.1575989
1.1556565
1.152981
1.1496921
1.1458836
1.1416278
1.136985
1.1319986
1.1260805
1.1183947
1.1084158
1.0950494
1.0779809
1.0575754
1.034712
1.0114232
0.98996523
0.97194498
0.95804684
0.94821308
0.94192623
0.93832965
0.93643829
0.93534105
0.9342489
0.93237858
0.92870617
0.92153155
0.90770792
0.88267145
1.1585969
1.1585321
1.1584116
1.1582232
1.1579567
1.1576032
1.1571548
1.1566043
1.1559293
1.1550864
1.1540156
1.1525225
1.1486761
1.1400272
1.1244871
1.1017127
1.0741436
1.045606
1.019372
0.99729608
0.97996111
0.96707639
0.95785855
0.95135376
0.94662197
0.94277541
0.93886539
0.93357143
0.92442673
0.90706011
1.1586181
1.158616
1.1586109
1.1586008
1.1585836
1.1585562
1.1585153
1.158457
1.1583762
1.1582655
1.158114
1.1578968
1.1574934
1.156504
1.1521597
1.1386073
1.1138256
1.0840776
1.0553446
1.0301352
1.009152
0.99233961
0.97923959
0.96918349
0.96144196
0.9552945
0.94999931
0.94459942
0.93733232
0.9248649
)
;

boundaryField
{
    maxY
    {
        type            calculated;
        value           nonuniform List<scalar> 
300
(
1.1586176
1.1586176
1.1586176
1.1586176
1.1586176
1.1586176
1.1586176
1.1586176
1.1586176
1.1586176
1.1586155
1.1586155
1.1586155
1.1586155
1.1586155
1.1586155
1.1586155
1.1586155
1.1586155
1.1586155
1.1586103
1.1586107
1.1586107
1.1586107
1.1586107
1.1586107
1.1586107
1.1586107
1.1586107
1.1586103
1.1586003
1.1586017
1.1586016
1.1586015
1.1586015
1.1586015
1.1586015
1.1586016
1.1586017
1.1586003
1.158583
1.1585866
1.1585866
1.1585864
1.1585862
1.1585862
1.1585864
1.1585866
1.1585866
1.158583
1.1585557
1.1585635
1.1585636
1.1585632
1.1585629
1.1585629
1.1585632
1.1585636
1.1585635
1.1585557
1.1585148
1.1585301
1.1585308
1.1585299
1.1585295
1.1585295
1.1585299
1.1585308
1.1585301
1.1585148
1.1584565
1.1584841
1.1584859
1.1584844
1.1584836
1.1584836
1.1584844
1.1584859
1.1584841
1.1584565
1.1583756
1.158423
1.158427
1.1584245
1.1584231
1.1584231
1.1584245
1.158427
1.158423
1.1583756
1.1582649
1.1583437
1.1583519
1.1583478
1.1583454
1.1583454
1.1583478
1.1583519
1.1583437
1.1582649
1.1581134
1.1582429
1.1582586
1.1582521
1.1582483
1.1582483
1.1582521
1.1582586
1.1582429
1.1581134
1.1578962
1.1581146
1.1581451
1.1581351
1.1581289
1.1581289
1.1581351
1.1581451
1.1581146
1.1578963
1.1574928
1.1579396
1.158009
1.1579944
1.1579841
1.1579841
1.1579944
1.158009
1.1579396
1.1574929
1.1565031
1.1576369
1.1578429
1.1578277
1.1578103
1.1578103
1.1578277
1.1578429
1.157637
1.1565035
1.1521567
1.1567117
1.1576039
1.157632
1.1576038
1.1576039
1.157632
1.1576039
1.1567122
1.1521592
1.1386004
1.1532122
1.1570491
1.1573979
1.1573601
1.1573601
1.1573979
1.1570493
1.1532141
1.1386068
1.1138158
1.1431082
1.1551542
1.1570792
1.1570719
1.157072
1.1570793
1.1551553
1.1431132
1.1138251
1.0840674
1.1234727
1.1491268
1.1563795
1.1567213
1.1567215
1.1563799
1.1491303
1.1234811
1.0840771
1.0553356
1.0968397
1.1350252
1.1539016
1.1562388
1.1562392
1.1539036
1.1350329
1.09685
1.0553442
1.0301275
1.0690316
1.1119857
1.1457426
1.1553039
1.1553051
1.1457495
1.1119978
1.0690422
1.0301348
1.0091456
1.044055
1.0845624
1.1274927
1.1516219
1.1516289
1.1275071
1.0845772
1.0440651
1.0091516
0.9923342
1.023996
1.0587278
1.100876
1.1371192
1.1371393
1.1008967
1.0587428
1.0240041
0.99233922
0.97923482
1.0086915
1.0372431
1.0727399
1.1028976
1.1029206
1.072762
1.037257
1.0086978
0.97923921
0.96917913
0.99663875
1.0200237
1.047979
1.0622025
1.0622036
1.0479984
1.0200355
0.99664305
0.96918312
0.96143804
0.98684392
1.0062111
1.0280976
1.0367281
1.0367345
1.0281136
1.0062202
0.98684583
0.9614416
0.95529145
0.97847888
0.99483577
1.0125003
1.0205369
1.0205647
1.0125138
0.99484164
0.97847801
0.95529414
0.94999816
0.97085114
0.98501373
0.99988234
1.0081559
1.0082175
0.99989466
0.98501567
0.97084685
0.94999896
0.94460228
0.96331467
0.97595076
0.98902213
0.99761998
0.99773914
0.98903387
0.9759475
0.96330586
0.94459907
0.93734418
0.95497661
0.96677054
0.97883706
0.98753425
0.98777124
0.97884891
0.96675931
0.95496097
0.93733198
0.92489249
0.94451222
0.95659171
0.96854026
0.97008186
0.97094188
0.96854858
0.95656542
0.94448472
0.92486456
)
;
    }
    minX
    {
        type            calculated;
        value           nonuniform List<scalar> 
40
(
1.1586218
1.1586208
1.1586197
1.1586187
1.1586218
1.1586208
1.1586197
1.1586187
1.1586218
1.1586208
1.1586197
1.1586187
1.1586218
1.1586208
1.1586197
1.1586187
1.1586218
1.1586208
1.1586197
1.1586187
1.1586218
1.1586208
1.1586197
1.1586187
1.1586218
1.1586208
1.1586197
1.1586187
1.1586218
1.1586208
1.1586197
1.1586187
1.1586218
1.1586208
1.1586197
1.1586187
1.1586218
1.1586208
1.1586197
1.1586187
)
;
    }
    maxX
    {
        type            calculated;
        value           nonuniform List<scalar> 
40
(
0.8318287
0.88273317
0.90711332
0.92490741
0.86507706
1.0225226
0.97642448
0.94452649
0.8697322
1.0158834
1.0114557
0.956605
0.8148005
0.95490467
0.9969817
0.96855292
0.77384752
0.89015708
0.94491685
0.97011565
0.77420421
0.89102005
0.94621574
0.97097193
0.81502793
0.95539258
0.99748292
0.96856124
0.8697052
1.0160173
1.0114269
0.95657883
0.86503556
1.0224673
0.9764038
0.94449909
0.83179888
0.88268883
0.90707585
0.92487959
)
;
    }
    minZ
    {
        type            calculated;
        value           nonuniform List<scalar> 
120
(
1.1133311
1.1575989
1.1585969
1.1586181
1.0738678
1.1556565
1.1585321
1.158616
1.0402635
1.152981
1.1584116
1.1586109
1.0110832
1.1496921
1.1582232
1.1586008
0.98522343
1.1458836
1.1579567
1.1585836
0.96193519
1.1416278
1.1576032
1.1585562
0.94070671
1.136985
1.1571548
1.1585153
0.9212344
1.1319985
1.1566043
1.158457
0.90354098
1.1260799
1.1559293
1.1583761
0.88771477
1.1183933
1.1550863
1.1582655
0.87361976
1.1084132
1.1540155
1.158114
0.86119323
1.0950454
1.152522
1.1578968
0.85050856
1.0779754
1.1486744
1.1574933
0.84387147
1.0575684
1.1400232
1.1565036
0.83894906
1.0347043
1.1244804
1.1521573
0.83592127
1.011416
1.1017039
1.1386009
0.83484092
0.98995925
1.074134
1.1138162
0.83551818
0.97194074
1.0455971
1.0840679
0.83752355
0.95804425
1.0193647
1.055336
0.84030974
0.94821172
0.9972905
1.030128
0.84336101
0.94192554
0.979957
1.009146
0.84626019
0.93832906
0.96707326
0.99233459
0.84869498
0.93643744
0.95785593
0.97923519
0.85044538
0.93534016
0.95135144
0.9691795
0.85135633
0.93424905
0.94662023
0.9614384
0.85127201
0.93238197
0.9427752
0.95529181
0.84991803
0.92871622
0.93886859
0.94999852
0.84672116
0.92155298
0.93358136
0.94460263
0.84080027
0.90774899
0.92444996
0.93734453
0.83180778
0.88271596
0.90709771
0.92489282
)
;
    }
    maxZ
    {
        type            calculated;
        value           nonuniform List<scalar> 
120
(
1.1133311
1.1575989
1.1585969
1.1586181
1.0738678
1.1556565
1.1585321
1.158616
1.0402635
1.152981
1.1584116
1.1586109
1.0110832
1.1496921
1.1582232
1.1586008
0.98522342
1.1458836
1.1579567
1.1585836
0.96193547
1.1416278
1.1576032
1.1585562
0.94070751
1.136985
1.1571548
1.1585153
0.92123568
1.1319986
1.1566043
1.158457
0.90354236
1.1260805
1.1559293
1.1583762
0.8877159
1.1183947
1.1550864
1.1582655
0.87362006
1.1084158
1.1540156
1.158114
0.86119274
1.0950494
1.1525225
1.1578968
0.85050728
1.0779809
1.1486761
1.1574934
0.84386949
1.0575754
1.1400272
1.156504
0.83894626
1.034712
1.1244871
1.1521597
0.83591765
1.0114232
1.1017127
1.1386073
0.83483649
0.98996523
1.0741436
1.1138256
0.83551295
0.97194498
1.045606
1.0840776
0.83751753
0.95804684
1.019372
1.0553446
0.84030295
0.94821308
0.99729608
1.0301352
0.84335297
0.94192623
0.97996111
1.009152
0.84625066
0.93832965
0.96707639
0.99233961
0.84868392
0.93643829
0.95785855
0.97923959
0.85043291
0.93534105
0.95135376
0.96918349
0.85134242
0.9342489
0.94662197
0.96144196
0.85125626
0.93237858
0.94277541
0.9552945
0.84989926
0.92870617
0.93886539
0.94999931
0.8466978
0.92153155
0.93357143
0.94459942
0.84077312
0.90770792
0.92442673
0.93733232
0.83177784
0.88267145
0.90706011
0.9248649
)
;
    }
    topAir_to_rightSolid
    {
        type            calculated;
        value           nonuniform List<scalar> 
130
(
0.6062956
0.60319359
0.60008925
0.59717475
0.59455901
0.59227851
0.5903368
0.58871533
0.58738856
0.58635356
0.58560282
0.58511145
0.584875
0.60931702
0.60544568
0.6016907
0.59824824
0.59524844
0.59269855
0.5905776
0.58883874
0.5874422
0.58636829
0.58559321
0.585085
0.58482899
0.61571082
0.61002897
0.60483248
0.60034985
0.59659539
0.59351978
0.59106147
0.58910983
0.58759113
0.58646183
0.58566122
0.58512883
0.58485652
0.62574022
0.61651507
0.60892531
0.60289172
0.59813908
0.59444426
0.59158854
0.58939884
0.58773693
0.58652933
0.58569209
0.58515907
0.58489476
0.6382357
0.62292325
0.61240848
0.6048493
0.59926828
0.5951081
0.59197923
0.58962605
0.58787162
0.58660912
0.58572483
0.58517389
0.58491457
0.63825826
0.62293877
0.61241702
0.60485282
0.59926962
0.59510801
0.59197822
0.58962409
0.58786884
0.58660743
0.5857245
0.58517363
0.58491428
0.62577295
0.6165373
0.60894308
0.60290337
0.59814503
0.59444686
0.59158975
0.58939871
0.58773685
0.58652934
0.58569203
0.58515921
0.58489498
0.61574106
0.61005178
0.60484961
0.60035996
0.59660074
0.59352243
0.59106168
0.58911014
0.58759188
0.58646395
0.58566257
0.58512948
0.58485705
0.60932801
0.60545542
0.60169808
0.59825058
0.59524814
0.59269689
0.59057579
0.58883834
0.5874428
0.58636971
0.58559408
0.58508558
0.58482936
0.6062964
0.60319315
0.60008888
0.59716832
0.59454974
0.5922694
0.59033022
0.58871209
0.58738843
0.58635318
0.58560163
0.58510989
0.58487304
)
;
    }
    topAir_to_heater
    {
        type            calculated;
        value           nonuniform List<scalar> 
40
(
0.61411308
0.61324751
0.61155662
0.60917581
0.61925036
0.61816758
0.61603055
0.61298684
0.63066067
0.629111
0.62596073
0.62133917
0.65058972
0.64847747
0.64368225
0.63594747
0.68276822
0.68103343
0.67494527
0.66223168
0.68276425
0.68103598
0.67496007
0.66225229
0.65059186
0.64848796
0.64373579
0.63599802
0.63065871
0.62911235
0.62597312
0.62136289
0.61924847
0.61816716
0.61603351
0.61299472
0.61411098
0.61324598
0.61155731
0.60917746
)
;
    }
    topAir_to_leftSolid
    {
        type            calculated;
        value           nonuniform List<scalar> 
130
(
0.58280973
0.58282151
0.58286801
0.58294371
0.58305094
0.58316522
0.58327487
0.58338437
0.58350136
0.58362794
0.58377079
0.58387915
0.58393896
0.58272491
0.58274764
0.58279289
0.58286356
0.58296059
0.58307774
0.58319626
0.58332197
0.5834633
0.58361975
0.58379213
0.5839285
0.58401051
0.58270513
0.58272934
0.58277114
0.58282011
0.58289179
0.58300746
0.58314524
0.58331107
0.58351554
0.58373537
0.58395354
0.58414515
0.58427248
0.58272378
0.58272908
0.58274221
0.58277341
0.5828431
0.58296893
0.5831331
0.58334099
0.58359751
0.58389802
0.58418682
0.58441836
0.58459756
0.58273944
0.58273233
0.58274687
0.58279172
0.58286212
0.58298901
0.58316248
0.58338822
0.5836674
0.58400317
0.58435113
0.58466128
0.58490461
0.58273951
0.58273228
0.58274666
0.58279271
0.5828639
0.58299045
0.583164
0.58338988
0.58367002
0.58400872
0.58435834
0.58467285
0.58489624
0.58272364
0.58272877
0.58274183
0.58277336
0.58284355
0.58297003
0.5831344
0.58334196
0.58359881
0.58389962
0.58418418
0.58442683
0.58459163
0.58270464
0.58272879
0.58277008
0.58281825
0.58289109
0.5830078
0.58314715
0.58331126
0.58351514
0.58373211
0.58394416
0.58413425
0.58426078
0.58272416
0.58274678
0.58279175
0.58286166
0.58295937
0.58307784
0.58319824
0.58332386
0.58346278
0.58361452
0.58378545
0.5839203
0.58400184
0.58280989
0.58282155
0.58286801
0.58294313
0.58305048
0.58316761
0.5832796
0.58338965
0.5835048
0.58362835
0.58376514
0.5838739
0.58393442
)
;
    }
}


// ************************************************************************* //
