/*--------------------------------*- C++ -*----------------------------------*\
| =========                 |                                                 |
| \\      /  F ield         | OpenFOAM: The Open Source CFD Toolbox           |
|  \\    /   O peration     | Version:  v2012                                 |
|   \\  /    A nd           | Website:  www.openfoam.com                      |
|    \\/     M anipulation  |                                                 |
\*---------------------------------------------------------------------------*/
FoamFile
{
    version     2.0;
    format      ascii;
    class       volVectorField;
    location    "100/topAir";
    object      U;
}
// * * * * * * * * * * * * * * * * * * * * * * * * * * * * * * * * * * * * * //

dimensions      [0 1 -1 0 0 0 0];


internalField   nonuniform List<vector> 
1200
(
(0.10113872 -0.0013110987 0.00084965299)
(0.10826574 -0.0015173406 0.0012741535)
(0.11435926 -0.0015757694 0.0013893612)
(0.118917 -0.0014008163 0.0013436857)
(0.12281025 -0.0010182628 0.0011712152)
(0.12643366 -0.00052798122 0.00085321986)
(0.12983495 7.9391873e-06 0.00035853484)
(0.13310906 0.00056898672 -0.00033790411)
(0.13642483 0.0011450254 -0.0013116478)
(0.13990707 0.0017783947 -0.0026910134)
(0.14370059 0.0025836406 -0.0046526025)
(0.14786905 0.003736325 -0.0074122792)
(0.15217448 0.005435209 -0.011189886)
(0.15619902 0.0077226449 -0.016167703)
(0.15955815 0.010787214 -0.022377443)
(0.16184337 0.014513849 -0.029624775)
(0.16274867 0.018519657 -0.037472694)
(0.16230062 0.022309193 -0.045315667)
(0.16085871 0.025481583 -0.052540948)
(0.15894228 0.027821642 -0.058688377)
(0.1570656 0.029277059 -0.063519619)
(0.15562962 0.029946188 -0.066988277)
(0.15484106 0.030022689 -0.069164445)
(0.15468077 0.029712743 -0.070153055)
(0.15491403 0.029204517 -0.070026443)
(0.15506 0.028718223 -0.068760993)
(0.15421275 0.028657117 -0.066173768)
(0.15061108 0.029912639 -0.061821207)
(0.14167153 0.034504031 -0.054796527)
(0.096692116 0.049324133 -0.04315155)
(0.098849127 -0.0022770004 0.00085013307)
(0.098686949 -0.0030160153 0.0012900257)
(0.098652405 -0.0032898618 0.0014853354)
(0.098651691 -0.0031820822 0.0015973456)
(0.098894961 -0.0027984608 0.0016654858)
(0.099464421 -0.0022870072 0.0016887866)
(0.10032363 -0.0017433826 0.0016628895)
(0.10144621 -0.0012205242 0.0015794446)
(0.10296564 -0.00069256217 0.0014124514)
(0.10513091 -1.6162043e-05 0.0010914784)
(0.10817394 0.0010581625 0.0004914396)
(0.1125595 0.0030101657 -0.00056028928)
(0.1184404 0.006405687 -0.002267125)
(0.12579968 0.01157464 -0.0049191434)
(0.13411771 0.018760704 -0.0087784216)
(0.14235391 0.027711273 -0.01388867)
(0.14928076 0.03753042 -0.019927096)
(0.15411584 0.046993182 -0.026290837)
(0.15679648 0.055148088 -0.032369366)
(0.15777898 0.061520127 -0.037747631)
(0.15773704 0.065979417 -0.042211358)
(0.15729994 0.068711706 -0.045639164)
(0.15684892 0.070099551 -0.047941379)
(0.15648064 0.070542705 -0.049060224)
(0.15606735 0.070380806 -0.048929735)
(0.15526747 0.069980469 -0.047372774)
(0.15337501 0.070069502 -0.043909685)
(0.14899077 0.072151171 -0.037438839)
(0.14166992 0.079206204 -0.025723545)
(0.10835314 0.097085929 -0.0047271227)
(0.099003375 -0.0022852008 0.00087017751)
(0.098656193 -0.0033437293 0.0013263173)
(0.097598237 -0.0037067127 0.0015359491)
(0.096007268 -0.0038062488 0.001665486)
(0.094306558 -0.0037781853 0.0017667898)
(0.092678775 -0.003678219 0.0018523839)
(0.091135492 -0.0035574725 0.0019347054)
(0.089635445 -0.0034735598 0.0020325046)
(0.088144731 -0.0034137751 0.0021773803)
(0.086687154 -0.0033049047 0.0024108457)
(0.08539032 -0.003086758 0.0027654484)
(0.084513223 -0.0025705082 0.003228272)
(0.085090747 -0.00099327554 0.0036100779)
(0.088482767 0.0029430652 0.0036247513)
(0.094997692 0.010731419 0.0030090768)
(0.10443494 0.022689005 0.0014124205)
(0.11488532 0.037326221 -0.00095477621)
(0.12440823 0.052141836 -0.0033907558)
(0.13214683 0.065156182 -0.0053938006)
(0.13802932 0.075437407 -0.0069435164)
(0.14235094 0.082780231 -0.0082949065)
(0.14549136 0.087361149 -0.0097458329)
(0.14765672 0.089584514 -0.011178898)
(0.14883373 0.089971125 -0.012234825)
(0.14884974 0.089041456 -0.012572438)
(0.14747595 0.08731932 -0.0117626)
(0.1443135 0.085553283 -0.0091193384)
(0.13840803 0.085258402 -0.0036161163)
(0.12998029 0.089851199 0.0065187361)
(0.096710358 0.10604965 0.024504667)
(0.096976282 -0.0013686245 0.00083824557)
(0.095119336 -0.0019962472 0.0012582117)
(0.09191925 -0.0021894454 0.0014302239)
(0.087884781 -0.0022295726 0.0015195642)
(0.08376051 -0.0021967161 0.0015809382)
(0.079787603 -0.0021071669 0.0016276632)
(0.075953489 -0.0019810323 0.0016736737)
(0.072207916 -0.001842085 0.0017410191)
(0.068499016 -0.0017013368 0.0018618243)
(0.064749802 -0.0015701985 0.0020840851)
(0.060822863 -0.0015148872 0.0024819486)
(0.05646944 -0.0017304106 0.0031796873)
(0.051441203 -0.0022398871 0.0043970934)
(0.045434615 -0.0024058871 0.006434575)
(0.039994461 0.00023797547 0.0094506408)
(0.038363225 0.0085290467 0.013506843)
(0.04331987 0.021960834 0.018079924)
(0.052896638 0.036228075 0.022742003)
(0.064311784 0.048415279 0.027328443)
(0.075963405 0.057798351 0.031577624)
(0.086889193 0.064445178 0.035210574)
(0.096491148 0.068528217 0.038110796)
(0.10442049 0.070297267 0.040198435)
(0.11041773 0.070149227 0.041573185)
(0.11421954 0.068565012 0.042532988)
(0.1155661 0.066098054 0.043544827)
(0.11417506 0.063403594 0.045227503)
(0.10984114 0.061713855 0.04828136)
(0.10593911 0.064254762 0.053148361)
(0.1042393 0.078502868 0.058333277)
(0.10239921 -0.0012999494 0.0010457131)
(0.11039492 -0.0015018461 0.0015282337)
(0.11775905 -0.001604913 0.0016425372)
(0.12373358 -0.0015368534 0.0015766971)
(0.1289398 -0.0013365484 0.0013766453)
(0.13368681 -0.0011096778 0.0010303576)
(0.13801795 -0.00092453456 0.00051413167)
(0.1419206 -0.00082496066 -0.00020204141)
(0.14538699 -0.00084495142 -0.0012036613)
(0.14839729 -0.0010285688 -0.0026330754)
(0.15092282 -0.0014239668 -0.0046443428)
(0.15293546 -0.0020831648 -0.0074233015)
(0.15428134 -0.0030396635 -0.011155588)
(0.15485421 -0.0045066027 -0.015973409)
(0.1549384 -0.0063538961 -0.021831055)
(0.15488692 -0.008437027 -0.02844381)
(0.15495871 -0.010468781 -0.035350044)
(0.15528899 -0.012095505 -0.042032013)
(0.15585246 -0.013133644 -0.04805033)
(0.15653801 -0.013690939 -0.053122906)
(0.1573047 -0.014032491 -0.057128277)
(0.15823987 -0.014302514 -0.060067889)
(0.15947104 -0.014459294 -0.062012305)
(0.16106312 -0.014425454 -0.063026659)
(0.16299758 -0.014146998 -0.063117331)
(0.16518221 -0.013496323 -0.062192059)
(0.16737637 -0.011966415 -0.060062848)
(0.16898581 -0.0081163792 -0.056469616)
(0.16855624 0.0017887845 -0.050973937)
(0.14249385 0.02883043 -0.042322131)
(0.10015656 -0.0022744657 0.0010971172)
(0.10096043 -0.0030324623 0.0016902846)
(0.10234598 -0.0033895333 0.0019512069)
(0.10397575 -0.0034459625 0.0020878141)
(0.10581021 -0.0033198798 0.0021597182)
(0.10786138 -0.0031646671 0.0021682995)
(0.11007838 -0.0030790874 0.0021073947)
(0.11240492 -0.0031330751 0.0019626688)
(0.11481351 -0.0033918063 0.0017023408)
(0.11729297 -0.0039404861 0.0012572391)
(0.11984574 -0.0048814267 0.0005209548)
(0.12245487 -0.0063128712 -0.00062162988)
(0.12511427 -0.0082986162 -0.0023225459)
(0.1277756 -0.011063754 -0.0047504017)
(0.13042656 -0.014400831 -0.0080122217)
(0.13319276 -0.017959483 -0.012045705)
(0.13620223 -0.021002628 -0.016553579)
(0.13941833 -0.022643493 -0.021113083)
(0.14257955 -0.022483133 -0.025404111)
(0.14534706 -0.020872061 -0.029248155)
(0.14761639 -0.018655422 -0.032526767)
(0.14958222 -0.016568174 -0.035166953)
(0.15149165 -0.014792666 -0.03718999)
(0.15342723 -0.013286975 -0.038571592)
(0.15542498 -0.012061488 -0.039122979)
(0.15777126 -0.011068602 -0.038405918)
(0.16133729 -0.009815264 -0.035871641)
(0.16803163 -0.0072033368 -0.030770593)
(0.18407115 -0.00048929034 -0.022302454)
(0.23128429 0.017715813 -0.010234267)
(0.10031537 -0.0023104856 0.0011124615)
(0.10093802 -0.0033889799 0.0017222511)
(0.10132321 -0.0037813238 0.0020114857)
(0.10142451 -0.0039367766 0.0021896091)
(0.10142605 -0.0039960348 0.0023254515)
(0.1014445 -0.0040186297 0.0024325518)
(0.10149275 -0.0040568516 0.0025220367)
(0.10154611 -0.0041627809 0.0026103962)
(0.10158113 -0.0043921196 0.0027222449)
(0.10158169 -0.0048158859 0.0028836509)
(0.10153876 -0.0055307176 0.003102117)
(0.10145496 -0.0066775243 0.0033338509)
(0.10137664 -0.0084244325 0.0034777653)
(0.10140919 -0.010953815 0.0034824078)
(0.10172362 -0.014307035 0.0034390036)
(0.10269878 -0.018263037 0.0034512898)
(0.10477411 -0.02197016 0.0040101253)
(0.10829125 -0.024112577 0.0056146327)
(0.11305113 -0.024176412 0.0081125783)
(0.11814532 -0.022826335 0.011020237)
(0.12261031 -0.021256483 0.013844303)
(0.12556184 -0.019116947 0.017447341)
(0.12767462 -0.016184907 0.022197639)
(0.12970833 -0.01273968 0.027832709)
(0.13170404 -0.008998375 0.034153151)
(0.13335848 -0.0057541973 0.040350886)
(0.1351091 -0.0030309536 0.046943068)
(0.13715016 -0.00055755313 0.054805745)
(0.14108558 0.0024639897 0.065261153)
(0.14854579 0.0069660579 0.079299591)
(0.098231319 -0.0013946928 0.0010851699)
(0.097285629 -0.0020487746 0.0016752528)
(0.095457077 -0.0022698249 0.0019486137)
(0.093031551 -0.0023458771 0.002107814)
(0.090513033 -0.0023586589 0.0022217823)
(0.088079863 -0.0023276522 0.0023061602)
(0.085729678 -0.0022761759 0.0023759575)
(0.08343217 -0.0022318558 0.0024541958)
(0.081162445 -0.0022225493 0.0025720593)
(0.078886899 -0.002284204 0.0027732039)
(0.076544882 -0.0024778101 0.0031221638)
(0.074026311 -0.00291677 0.0037228415)
(0.071150469 -0.0037803942 0.0047515817)
(0.067630657 -0.0052748152 0.0064251026)
(0.063147572 -0.0073575684 0.0091256055)
(0.057665707 -0.0091046525 0.01407799)
(0.052357028 -0.008324563 0.022924098)
(0.049525033 -0.0031112743 0.035916253)
(0.050839652 0.0056478804 0.050857446)
(0.055852553 0.01510906 0.064994947)
(0.063010184 0.023299625 0.076902331)
(0.070975862 0.029318553 0.085656322)
(0.07829204 0.032685725 0.091451652)
(0.084082285 0.033792109 0.095322909)
(0.088300495 0.033171885 0.097945718)
(0.090875707 0.031393106 0.1000309)
(0.091700357 0.028841608 0.10232605)
(0.090560757 0.026116132 0.10556558)
(0.088339437 0.024486735 0.11024491)
(0.084286534 0.025347763 0.11452489)
(0.10227697 -0.0013109487 0.00039867848)
(0.11007395 -0.0015102972 0.00067663664)
(0.1173567 -0.0015942837 0.0008275817)
(0.1233671 -0.001489139 0.00090039033)
(0.12866592 -0.0012351043 0.00092421463)
(0.13353017 -0.00094411612 0.00091048528)
(0.1379736 -0.00068988704 0.00086525816)
(0.14196557 -0.00050617196 0.00078277148)
(0.1454844 -0.00040798824 0.00065451388)
(0.14854069 -0.00039619201 0.00046443361)
(0.15113381 -0.00049003349 0.00020946885)
(0.15319352 -0.0007063585 -0.00012461756)
(0.15446059 -0.0010554761 -0.00056920086)
(0.15470609 -0.0018224658 -0.001231564)
(0.15414946 -0.0029671326 -0.0022491064)
(0.15304804 -0.0046026141 -0.0037437927)
(0.15163561 -0.0068738386 -0.0058925759)
(0.15028274 -0.0098047314 -0.0089065001)
(0.14944126 -0.01312892 -0.012863486)
(0.14939984 -0.016316138 -0.017526062)
(0.15015606 -0.018909259 -0.022378039)
(0.15154115 -0.020776712 -0.026861394)
(0.15339353 -0.022024824 -0.030593157)
(0.15561412 -0.022820806 -0.033374921)
(0.15817447 -0.023231226 -0.035199874)
(0.16110241 -0.023121158 -0.036156867)
(0.16435428 -0.02206767 -0.036385282)
(0.16749421 -0.018678332 -0.036145752)
(0.16960554 -0.0086958833 -0.036202731)
(0.1435153 0.020187607 -0.038221741)
(0.10003482 -0.002276942 0.00040455915)
(0.10062053 -0.0030217635 0.00070694615)
(0.10191154 -0.0033461254 0.0008871455)
(0.10358532 -0.0033481811 0.00099230915)
(0.10553018 -0.0031475136 0.0010497752)
(0.10771464 -0.0029026943 0.0010616165)
(0.1100688 -0.0027137239 0.0010209402)
(0.11251633 -0.0026284388 0.00091490876)
(0.11500212 -0.0026742559 0.00072251988)
(0.11749127 -0.0028687319 0.00041148924)
(0.11995716 -0.0032584255 -6.0200195e-05)
(0.12236275 -0.0039004835 -0.00075862734)
(0.12467758 -0.0048606696 -0.0017870861)
(0.12677577 -0.0065007508 -0.0032901598)
(0.1285313 -0.0088282883 -0.0054683092)
(0.12994044 -0.011952963 -0.0085667957)
(0.13106145 -0.015946306 -0.012826897)
(0.13206469 -0.020522292 -0.018293346)
(0.13317849 -0.02485604 -0.024590784)
(0.13449109 -0.0279954 -0.031022473)
(0.13583808 -0.029593997 -0.036920685)
(0.13701096 -0.03005728 -0.041822311)
(0.1379322 -0.030023258 -0.045457778)
(0.13864995 -0.029948585 -0.047744855)
(0.13936161 -0.029905501 -0.048766089)
(0.14052766 -0.029559636 -0.048602506)
(0.14295617 -0.028452969 -0.047542334)
(0.14855184 -0.02521796 -0.046441792)
(0.16467668 -0.015033168 -0.04768721)
(0.21218051 0.013032566 -0.052803327)
(0.10019677 -0.0023040682 0.00041003949)
(0.10061073 -0.0033756212 0.00071881022)
(0.10091177 -0.0037503845 0.00091240079)
(0.10107201 -0.0038787814 0.0010381024)
(0.10121121 -0.0039022434 0.0011234197)
(0.10141288 -0.0038771101 0.001172863)
(0.10168579 -0.0038483994 0.0011847826)
(0.10200529 -0.0038525728 0.0011563994)
(0.10234501 -0.0039213767 0.0010815105)
(0.10268172 -0.0040916777 0.00094557221)
(0.10298964 -0.0044191387 0.00071833014)
(0.10323066 -0.004989109 0.00034169623)
(0.10334555 -0.0059208794 -0.00028715676)
(0.10324002 -0.0074146614 -0.0013256178)
(0.10283145 -0.0096558194 -0.0030249486)
(0.10201521 -0.01290189 -0.0057056343)
(0.10083795 -0.017288008 -0.0096997207)
(0.09967911 -0.022387402 -0.014760732)
(0.099128299 -0.026951937 -0.019871474)
(0.099552317 -0.029772681 -0.024176834)
(0.10052277 -0.030816204 -0.027480137)
(0.10119154 -0.030920866 -0.029565137)
(0.1010724 -0.030905647 -0.03016377)
(0.1003549 -0.031215848 -0.02920665)
(0.099806793 -0.03187858 -0.026362533)
(0.10066486 -0.032303403 -0.020475692)
(0.1038392 -0.032320785 -0.011625165)
(0.11116139 -0.032006625 0.00024739449)
(0.1268741 -0.031774881 0.015732314)
(0.17695273 -0.033122126 0.034516659)
(0.098115398 -0.0013887606 0.00040012101)
(0.096963793 -0.0020364114 0.00069678839)
(0.095052723 -0.0022486148 0.00087930706)
(0.092687334 -0.0023146086 0.00099484492)
(0.090309602 -0.0023156653 0.0010719633)
(0.088065242 -0.0022694545 0.0011175112)
(0.085949241 -0.0021970613 0.0011330978)
(0.083935096 -0.0021220609 0.0011213233)
(0.082003164 -0.0020647912 0.0010849085)
(0.080132788 -0.0020453705 0.0010258919)
(0.078293097 -0.0020911836 0.00094624256)
(0.076434198 -0.0022474227 0.0008507441)
(0.074476795 -0.0025904115 0.00075010624)
(0.072289158 -0.0032497451 0.00066747689)
(0.0696512 -0.0044251488 0.00064841017)
(0.066252376 -0.0064336035 0.00092497117)
(0.061854192 -0.0093442143 0.0023339618)
(0.056723672 -0.012158131 0.0067703633)
(0.052233192 -0.012481554 0.016346647)
(0.050424886 -0.0085343457 0.03089073)
(0.052092191 -0.0013988044 0.047230677)
(0.056084435 0.0062217448 0.061707602)
(0.0606568 0.012306628 0.073009318)
(0.064817889 0.01614278 0.081373334)
(0.068382547 0.017639058 0.087405909)
(0.071342221 0.017089109 0.092070814)
(0.073637425 0.01501355 0.096422074)
(0.07497127 0.011757122 0.10139982)
(0.07480689 0.0071087562 0.10786282)
(0.066425425 -0.0020889574 0.11563843)
(0.10225183 -0.0013101875 0.00022234786)
(0.10997778 -0.0015049238 0.00041152654)
(0.11718429 -0.0015784875 0.00054575615)
(0.12314239 -0.0014537736 0.00063136922)
(0.12841534 -0.0011661906 0.000681268)
(0.13327645 -0.00082224582 0.00070407483)
(0.1377423 -0.00048741391 0.00070466399)
(0.14179924 -0.00018168144 0.00068713007)
(0.14546523 9.619262e-05 0.00066046866)
(0.14877159 0.00035667553 0.00064631905)
(0.15173676 0.00061767903 0.0006573495)
(0.15434563 0.00091024779 0.00071812071)
(0.15636292 0.0012821941 0.00088237853)
(0.15756455 0.0014238082 0.0011093611)
(0.15823974 0.0015454863 0.0013731393)
(0.15872413 0.0016513433 0.0017481276)
(0.15910315 0.0016676085 0.0023059556)
(0.15937675 0.0014883392 0.003018693)
(0.15959411 0.0009729348 0.0036581195)
(0.15993113 2.8000115e-05 0.0038053466)
(0.16066986 -0.0012765389 0.0030844295)
(0.1619963 -0.0027001033 0.0015662408)
(0.16395223 -0.0039120053 -0.00026166998)
(0.16633282 -0.0048095653 -0.0018340217)
(0.16873466 -0.0054435456 -0.0029390922)
(0.17079953 -0.0057260272 -0.0037371249)
(0.17206529 -0.0051460611 -0.0045792523)
(0.17130135 -0.0019965396 -0.005793414)
(0.16479993 0.0084118723 -0.0096400057)
(0.099051212 0.043237121 -0.020658855)
(0.10000955 -0.0022760913 0.00022716829)
(0.10051281 -0.0030148664 0.0004308186)
(0.10170288 -0.0033236565 0.00058017109)
(0.1032934 -0.0032956044 0.0006773916)
(0.1051746 -0.0030436771 0.00073340754)
(0.10730426 -0.0027178585 0.00075318181)
(0.1096071 -0.002404853 0.00073571776)
(0.11200738 -0.0021312716 0.00067680566)
(0.11445491 -0.0018980122 0.00057006441)
(0.11692001 -0.0016986339 0.00040680616)
(0.11938034 -0.0015239345 0.00017294948)
(0.12182168 -0.0013598279 -0.00015286165)
(0.12424313 -0.001182281 -0.00059753542)
(0.12653473 -0.0013612873 -0.0011930402)
(0.12859252 -0.0017259206 -0.0020208944)
(0.1303998 -0.002346762 -0.0032085086)
(0.13192948 -0.003420886 -0.0049437933)
(0.13314064 -0.0051977698 -0.0075094464)
(0.13404589 -0.0078737912 -0.011227173)
(0.13479852 -0.011267242 -0.016207991)
(0.13568926 -0.014636366 -0.022013196)
(0.1368597 -0.017203451 -0.027679124)
(0.13802236 -0.018621377 -0.032060546)
(0.13869475 -0.01903599 -0.034658384)
(0.13854256 -0.018863267 -0.035903293)
(0.13773857 -0.018242571 -0.036510857)
(0.13677403 -0.016692302 -0.037181081)
(0.13691533 -0.011496389 -0.039513195)
(0.14817364 0.00782279 -0.046312203)
(0.15628416 0.054612428 -0.055438598)
(0.10017255 -0.0023010386 0.00022908093)
(0.10050749 -0.0033693849 0.00043432115)
(0.10071038 -0.0037363754 0.00058843456)
(0.10078777 -0.0038498805 0.00069335693)
(0.10086263 -0.00384938 0.00075929318)
(0.1010102 -0.0037867472 0.00079114106)
(0.10123575 -0.0036994052 0.00078849788)
(0.10151536 -0.0036122023 0.00074830801)
(0.10182484 -0.0035403241 0.00066520257)
(0.10214348 -0.00349751 0.00053022084)
(0.10244926 -0.0035028592 0.0003280228)
(0.10271543 -0.0035834667 3.2331963e-05)
(0.10291813 -0.0037833451 -0.00039885119)
(0.10299767 -0.0042175606 -0.0010008496)
(0.10282822 -0.0049664979 -0.0018391882)
(0.10225136 -0.0061871442 -0.0030741508)
(0.10108466 -0.0081539742 -0.0049483976)
(0.099174101 -0.01122097 -0.0078493584)
(0.096573533 -0.015598977 -0.012073483)
(0.093736873 -0.020804276 -0.017149139)
(0.09142214 -0.025456059 -0.021661644)
(0.089809865 -0.028559997 -0.02425727)
(0.088057097 -0.030047758 -0.024169283)
(0.085312069 -0.030315577 -0.021886645)
(0.081426197 -0.030169699 -0.018901357)
(0.077512612 -0.029999216 -0.01615014)
(0.075215389 -0.029822262 -0.013783543)
(0.076636428 -0.02881752 -0.012160701)
(0.088828091 -0.020382661 -0.016261161)
(0.15557352 0.014476813 -0.040507398)
(0.098091461 -0.0013901884 0.00022331983)
(0.09686265 -0.0020397226 0.00042084828)
(0.094855886 -0.0022517333 0.00056711218)
(0.09240964 -0.0023145969 0.00066424156)
(0.089970007 -0.0023090017 0.00072271443)
(0.087674779 -0.0022509197 0.00074848272)
(0.085514655 -0.0021588283 0.00074268029)
(0.083462279 -0.0020525443 0.00070432556)
(0.081497569 -0.0019468073 0.00063092816)
(0.079599743 -0.0018528341 0.00051787615)
(0.077741102 -0.0017822971 0.00035771304)
(0.075881232 -0.0017512183 0.00014052885)
(0.073971547 -0.0017882489 -0.00014203453)
(0.071936727 -0.0019507982 -0.00049743373)
(0.069630218 -0.0023244825 -0.00092230736)
(0.06682811 -0.003056977 -0.0014029912)
(0.063267663 -0.0044259448 -0.0019142684)
(0.05872876 -0.0069056752 -0.0023295856)
(0.053172132 -0.010787774 -0.0019054592)
(0.047175955 -0.015013716 0.0015796786)
(0.042504554 -0.016521113 0.010661024)
(0.04080351 -0.013733538 0.024192279)
(0.041441174 -0.0086682177 0.037885189)
(0.042858089 -0.0039576511 0.048611904)
(0.044788825 -0.0010603294 0.055826834)
(0.04759272 -9.6053741e-05 0.060564931)
(0.051142249 -0.00065558493 0.06432369)
(0.055074521 -0.0025520041 0.068341836)
(0.059691064 -0.006454474 0.073713017)
(0.0865757 -0.014284565 0.08059654)
(0.10223781 -0.0013120442 6.4895327e-05)
(0.10992796 -0.0015079993 0.00011923471)
(0.1170937 -0.0015818769 0.00015604322)
(0.12302078 -0.0014559472 0.00017695609)
(0.12827649 -0.0011645623 0.00018671078)
(0.13313225 -0.00081380049 0.00018930638)
(0.13760314 -0.00046913293 0.00018749543)
(0.14167622 -0.0001505749 0.00018355445)
(0.14537133 0.00014300789 0.00017991832)
(0.14872045 0.00042177475 0.00017922936)
(0.15175157 0.00070437029 0.00018349223)
(0.15447996 0.0010185296 0.00020116559)
(0.15653306 0.0014497099 0.00025486801)
(0.15765538 0.0015855238 0.00028783228)
(0.15826576 0.0017260138 0.00026913962)
(0.15881738 0.0019286285 0.00022066944)
(0.15946293 0.0022110956 0.0001780093)
(0.160222 0.0026468605 0.00018175537)
(0.16104929 0.0032369822 0.00023489307)
(0.16195861 0.003900489 0.00024542308)
(0.16335166 0.0043554936 3.6607679e-05)
(0.1655401 0.0043385709 -0.00051970995)
(0.16863558 0.0041910609 -0.0012995557)
(0.17235808 0.004477972 -0.0020034281)
(0.17606094 0.0052878514 -0.0024285649)
(0.17912562 0.0067870395 -0.0025545902)
(0.18089556 0.0097177381 -0.0024880263)
(0.17745222 0.015811876 -0.0026746802)
(0.16205464 0.030227154 -0.0047111888)
(0.057536912 0.069407372 -0.011112582)
(0.09999474 -0.002277528 6.5760359e-05)
(0.10045557 -0.0030165185 0.00012353639)
(0.10159223 -0.0033233162 0.00016347351)
(0.10313667 -0.0032900146 0.00018584427)
(0.10498323 -0.0030280593 0.00019463082)
(0.10708539 -0.0026863811 0.00019262028)
(0.10936369 -0.0023507322 0.00018052048)
(0.1117405 -0.002046228 0.00015775067)
(0.1141648 -0.0017717394 0.00012283498)
(0.11660658 -0.001518703 7.3273157e-05)
(0.11904694 -0.0012758204 5.4597582e-06)
(0.12147572 -0.0010265744 -8.3317391e-05)
(0.12402395 -0.00060230459 -0.00019709148)
(0.12648538 -0.00050004136 -0.00032965224)
(0.12873517 -0.00042492202 -0.00050865262)
(0.13078988 -0.00034353479 -0.00077330601)
(0.13265657 -0.00029855648 -0.0011797525)
(0.1343229 -0.00030584447 -0.0018217987)
(0.13572357 -0.00053112182 -0.0028629027)
(0.1366908 -0.0014072332 -0.0045875314)
(0.1368657 -0.0039219158 -0.0073588204)
(0.13655021 -0.0081507927 -0.011037661)
(0.13608697 -0.012289676 -0.014504201)
(0.13532895 -0.014559734 -0.01683113)
(0.13349417 -0.015285823 -0.018077021)
(0.13078133 -0.014704996 -0.018607425)
(0.12744804 -0.012085479 -0.01883829)
(0.12699016 -0.00097372142 -0.019799637)
(0.13220994 0.030199601 -0.022484761)
(0.090222446 0.091920007 -0.028478985)
(0.10015797 -0.0023003118 6.6012404e-05)
(0.10045147 -0.0033681449 0.00012385868)
(0.10060129 -0.0037328733 0.00016467401)
(0.10063132 -0.0038414256 0.00018854536)
(0.10066883 -0.0038327577 0.00019913041)
(0.10078501 -0.003757837 0.00019889579)
(0.10098113 -0.0036525551 0.00018823495)
(0.10123122 -0.0035394503 0.0001662593)
(0.10150935 -0.0034304326 0.00013106989)
(0.10179166 -0.00333486 7.9316526e-05)
(0.10204908 -0.0032664285 5.1099788e-06)
(0.10223968 -0.0032436954 -0.00010250143)
(0.10235604 -0.0031809456 -0.00026532707)
(0.10236666 -0.0032065995 -0.00049942946)
(0.1021524 -0.0033385111 -0.00083247773)
(0.10158509 -0.0036251616 -0.0013125743)
(0.10052295 -0.0041897594 -0.0020122519)
(0.0987736 -0.0052313245 -0.0030617419)
(0.096073561 -0.0071249439 -0.0047175606)
(0.092099949 -0.010577519 -0.0073964314)
(0.0864747 -0.016661968 -0.011215884)
(0.079060722 -0.024734749 -0.014675958)
(0.070966936 -0.030634162 -0.014990002)
(0.063589221 -0.031925445 -0.012511651)
(0.055553989 -0.031692062 -0.0093460241)
(0.048526709 -0.03131372 -0.0062753966)
(0.044731011 -0.030836385 -0.0033391245)
(0.043176106 -0.025455478 -0.0016531266)
(0.063035448 0.0069578486 -0.014705245)
(0.079839921 0.082157955 -0.033872169)
(0.098077054 -0.0013897522 6.4349575e-05)
(0.096807499 -0.0020387331 0.00011991527)
(0.094748408 -0.0022492471 0.00015834678)
(0.092254877 -0.0023094631 0.00017973388)
(0.089777602 -0.0023000852 0.00018772253)
(0.087450289 -0.0022367233 0.00018495128)
(0.085258869 -0.002137189 0.00017204708)
(0.083172709 -0.0020204191 0.00014832946)
(0.081168387 -0.0018998875 0.00011210704)
(0.079220328 -0.0017847629 6.0315801e-05)
(0.077294141 -0.0016827338 -1.2081681e-05)
(0.075347556 -0.0015995959 -0.00011270985)
(0.073322997 -0.0015277104 -0.00024779564)
(0.071139908 -0.0015093305 -0.00043366787)
(0.068678727 -0.0015855652 -0.00068251847)
(0.065770637 -0.0018049747 -0.00099628003)
(0.062201821 -0.0022657677 -0.0013561752)
(0.057677965 -0.0031597894 -0.001742549)
(0.051784993 -0.0048762954 -0.0022099261)
(0.043959919 -0.0081883502 -0.0028878629)
(0.033435159 -0.014327865 -0.003167762)
(0.019954176 -0.021900304 7.7692777e-05)
(0.0068804312 -0.023517979 0.010454959)
(0.0021100866 -0.017219054 0.022991778)
(0.00458248 -0.013980117 0.029313367)
(0.0095791328 -0.013744399 0.03218777)
(0.015837215 -0.014942062 0.034281326)
(0.023079616 -0.017110976 0.036661687)
(0.033728019 -0.015566289 0.038979832)
(0.10807779 0.018138238 0.020464302)
(0.10223781 -0.001312046 -6.4885894e-05)
(0.10992796 -0.0015080018 -0.00011921622)
(0.1170937 -0.0015818771 -0.00015601238)
(0.12302076 -0.0014559546 -0.00017691541)
(0.12827644 -0.0011645889 -0.00018667055)
(0.13313216 -0.00081385172 -0.00018928138)
(0.13760301 -0.00046921703 -0.00018750139)
(0.14167603 -0.00015070328 -0.00018360679)
(0.14537105 0.00014281476 -0.00018003634)
(0.14871999 0.00042147649 -0.0001794439)
(0.15175083 0.00070393149 -0.00018384609)
(0.15447879 0.0010179173 -0.00020177054)
(0.15653148 0.0014489538 -0.00025587961)
(0.15765313 0.0015845205 -0.00028946521)
(0.15826231 0.0017246182 -0.00027178177)
(0.15881198 0.0019266043 -0.00022512297)
(0.15945451 0.0022080823 -0.00018544109)
(0.160209 0.0026422933 -0.00019384799)
(0.1610296 0.0032298971 -0.0002541387)
(0.16193061 0.0038884939 -0.00027546946)
(0.16331477 0.0043330281 -8.1801131e-05)
(0.165486 0.0042995194 0.00045810304)
(0.16856277 0.0041325081 0.001220424)
(0.17226882 0.0043986804 0.0019084392)
(0.17595715 0.0051876256 0.0023221812)
(0.17900905 0.0066653037 0.0024438836)
(0.18076573 0.0095733925 0.002380863)
(0.17736843 0.015643585 0.0025704355)
(0.16207585 0.030014317 0.0046496995)
(0.058019587 0.069160544 0.01114125)
(0.09999474 -0.00227753 -6.5755533e-05)
(0.10045557 -0.0030165214 -0.00012352959)
(0.10159223 -0.0033233167 -0.00016346387)
(0.10313668 -0.0032900241 -0.00018582856)
(0.10498325 -0.0030280921 -0.00019460493)
(0.10708541 -0.0026864434 -0.00019258135)
(0.10936371 -0.0023508333 -0.00018046629)
(0.11174051 -0.0020463804 -0.00015767987)
(0.11416481 -0.0017719644 -0.00012274671)
(0.11660656 -0.0015190396 -7.3169656e-05)
(0.11904687 -0.0012762935 -5.3524378e-06)
(0.12147551 -0.0010271992 8.3409494e-05)
(0.12402328 -0.00060319281 0.00019709832)
(0.12648405 -0.00050140395 0.00032946926)
(0.12873284 -0.00042705613 0.0005081305)
(0.13078595 -0.00034690922 0.00077222639)
(0.13265006 -0.00030388804 0.0011777334)
(0.13431216 -0.00031428345 0.0018181963)
(0.13570591 -0.00054474071 0.0028567584)
(0.13666144 -0.001431162 0.0045778288)
(0.13681952 -0.0039669481 0.0073454188)
(0.13649319 -0.0082176088 0.011020489)
(0.13601884 -0.012378362 0.014486744)
(0.13525033 -0.014664952 0.016818396)
(0.13340655 -0.015402174 0.018077868)
(0.13069096 -0.014827644 0.018636669)
(0.12738463 -0.01221256 0.018919912)
(0.12690357 -0.0012043897 0.019956274)
(0.13230132 0.029885177 0.022717949)
(0.091239276 0.091514522 0.028793772)
(0.10015797 -0.0023003122 -6.600811e-05)
(0.10045147 -0.0033681457 -0.00012385281)
(0.10060129 -0.0037328743 -0.00016466561)
(0.10063132 -0.0038414291 -0.00018853283)
(0.10066884 -0.003832767 -0.00019911059)
(0.10078503 -0.0037578537 -0.00019886415)
(0.10098116 -0.0036525815 -0.00018818583)
(0.10123127 -0.003539489 -0.0001661854)
(0.10150941 -0.0034304864 -0.00013096137)
(0.10179175 -0.0033349305 -7.9159112e-05)
(0.10204922 -0.0032665076 -4.8817714e-06)
(0.10223992 -0.0032437692 0.00010283948)
(0.10235641 -0.0031811669 0.00026585)
(0.1023672 -0.0032071038 0.00050021747)
(0.10215313 -0.0033394846 0.00083364077)
(0.10158604 -0.0036268818 0.0013142687)
(0.10052411 -0.0041926423 0.0020146788)
(0.098774883 -0.0052360252 0.0030651128)
(0.096074575 -0.0071326217 0.0047220215)
(0.092099304 -0.010590947 0.0074019737)
(0.086467933 -0.016686809 0.011222461)
(0.07904247 -0.024771374 0.014683874)
(0.070933473 -0.030682776 0.015001642)
(0.063547126 -0.031976135 0.012536428)
(0.055518967 -0.031743094 0.0094068894)
(0.048542809 -0.031366406 0.0064179552)
(0.044885042 -0.030889597 0.0036574158)
(0.043737185 -0.025604071 0.0022732429)
(0.063698138 0.0062369578 0.015196102)
(0.08212372 0.080934677 0.034494287)
(0.098077054 -0.0013897522 -6.4345345e-05)
(0.0968075 -0.0020387334 -0.00011990956)
(0.094748412 -0.0022492475 -0.00015833837)
(0.092254884 -0.0023094642 -0.00017972142)
(0.089777615 -0.0023000878 -0.00018770354)
(0.08745031 -0.0022367286 -0.00018492168)
(0.0852589 -0.0021371983 -0.00017200135)
(0.083172757 -0.0020204337 -0.00014825978)
(0.08116846 -0.0018999091 -0.00011200206)
(0.079220444 -0.0017847934 -6.0157683e-05)
(0.077294331 -0.0016827752 1.2321989e-05)
(0.075347866 -0.0015996537 0.00011308157)
(0.073323508 -0.001527817 0.00024838125)
(0.071140741 -0.0015095137 0.00043459628)
(0.06868005 -0.0015858601 0.00068398134)
(0.065772682 -0.001805433 0.00099856681)
(0.062204899 -0.0022664727 0.001359718)
(0.057682474 -0.0031608932 0.0017479424)
(0.051791265 -0.0048780909 0.0022179118)
(0.043967503 -0.0081915783 0.0028993442)
(0.033441245 -0.014335154 0.0031853657)
(0.019952623 -0.021918304 -4.8031478e-05)
(0.0068594205 -0.023551494 -0.010401946)
(0.0020744999 -0.017255999 -0.022894808)
(0.0045624383 -0.014036917 -0.029124589)
(0.0096238868 -0.013831943 -0.031855155)
(0.016047442 -0.015057714 -0.0337071)
(0.023676637 -0.01722775 -0.035666496)
(0.03512339 -0.015798745 -0.037426808)
(0.10970292 0.016658397 -0.019746107)
(0.10225183 -0.00131019 -0.0002223373)
(0.10997779 -0.0015049267 -0.00041150452)
(0.11718431 -0.0015784892 -0.00054571645)
(0.1231424 -0.0014537753 -0.00063130009)
(0.12841534 -0.0011661956 -0.00068115728)
(0.13327643 -0.00082226047 -0.00070391604)
(0.13774226 -0.00048744405 -0.00070445671)
(0.14179917 -0.00018173151 -0.00068686808)