/*--------------------------------*- C++ -*----------------------------------*\
| =========                 |                                                 |
| \\      /  F ield         | OpenFOAM: The Open Source CFD Toolbox           |
|  \\    /   O peration     | Version:  v2012                                 |
|   \\  /    A nd           | Website:  www.openfoam.com                      |
|    \\/     M anipulation  |                                                 |
\*---------------------------------------------------------------------------*/
FoamFile
{
    version     2.0;
    format      ascii;
    class       volScalarField;
    location    "70/heater";
    object      T;
}
// * * * * * * * * * * * * * * * * * * * * * * * * * * * * * * * * * * * * * //

dimensions      [0 0 0 1 0 0 0];


internalField   nonuniform List<scalar> 
80
(
510.64066
511.09087
512.00424
513.31768
507.39374
507.97105
509.15464
510.87553
500.32426
501.15254
502.91922
505.59355
488.26327
489.35075
491.98251
496.44308
332.45303
329.24982
329.27593
332.51367
381.29404
377.0371
377.1363
381.53145
417.94742
413.80447
414.0645
418.58111
444.39084
440.77506
441.42235
446.01479
461.72486
459.22688
460.76013
465.89044
469.89193
470.47598
473.61277
480.74953
332.45318
329.25011
329.2754
332.51295
381.29447
377.03745
377.1356
381.5304
417.94772
413.80468
414.06423
418.58055
444.39137
440.77539
441.42263
446.01539
461.72574
459.22747
460.7607
465.89197
469.89245
470.47643
473.6132
480.75021
488.26412
489.35161
491.98307
496.44359
500.3246
501.15293
502.9201
505.5943
507.3936
507.97115
509.15545
510.87639
510.64027
511.09082
512.00497
513.31858
)
;

boundaryField
{
    minY
    {
        type            fixedValue;
        value           uniform 300;
    }
    minZ
    {
        type            zeroGradient;
    }
    maxZ
    {
        type            zeroGradient;
    }
    heater_to_topAir
    {
        type            compressible::turbulentTemperatureCoupledBaffleMixed;
        refValue        nonuniform List<scalar> 
40
(
387.46719
389.93331
391.78727
392.95876
377.78369
378.24045
377.93981
377.00108
380.44266
381.67749
382.19924
381.88644
383.93278
386.43174
388.83602
391.15742
383.60048
385.54791
387.53838
389.72307
383.60036
385.54781
387.53831
389.72302
383.93256
386.43151
388.83575
391.1571
380.44271
381.67758
382.19942
381.88673
377.78372
378.24051
377.93995
377.00129
387.46712
389.93326
391.78726
392.9588
)
;
        refGradient     uniform 0;
        valueFraction   nonuniform List<scalar> 
40
(
0.00032132529
0.00032132529
0.00032132529
0.00032132529
0.00032132529
0.00032132529
0.00032132529
0.00032132529
0.00032132529
0.00032132529
0.00032132529
0.00032132529
0.00032132529
0.00032132529
0.00032132529
0.00032132529
0.00032132529
0.00032132529
0.00032132529
0.00032132529
0.00032132529
0.00032132529
0.00032132529
0.00032132529
0.00032132529
0.00032132529
0.00032132529
0.00032132529
0.00032132529
0.00032132529
0.00032132529
0.00032132529
0.00032132529
0.00032132529
0.00032132529
0.00032132529
0.00032132529
0.00032132529
0.00032132529
0.00032132529
)
;
        value           nonuniform List<scalar> 
40
(
510.56518
511.01585
511.92914
513.242
507.31715
507.8942
509.07686
510.79624
500.25272
501.08084
502.84651
505.51897
488.19971
489.28725
491.91812
496.3767
469.83853
470.42259
473.5581
480.69151
469.83905
470.42304
473.55853
480.69219
488.20056
489.28812
491.91868
496.3772
500.25306
501.08123
502.84739
505.51972
507.31702
507.89431
509.07768
510.7971
510.56479
511.0158
511.92987
513.2429
)
;
        Tnbr            T;
        thicknessLayers List<scalar> 0();
        kappaLayers     List<scalar> 0();
        kappaMethod     solidThermo;
        kappa           none;
        alphaAni        none;
        alpha           none;
        field           T;
    }
    heater_to_rightSolid
    {
        type            compressible::turbulentTemperatureCoupledBaffleMixed;
        refValue        nonuniform List<scalar> 10(514.88441 512.93647 508.87094 502.48172 494.67916 494.68024 502.4821 508.87151 512.93713 514.88511);
        refGradient     uniform 0;
        valueFraction   nonuniform List<scalar> 10(0.49999997 0.49999997 0.49999997 0.49999997 0.49999997 0.49999997 0.49999997 0.49999997 0.49999997 0.49999997);
        value           nonuniform List<scalar> 10(514.08254 511.88786 507.21483 499.44612 487.69995 487.70084 499.44656 507.21548 511.88862 514.08334);
        Tnbr            T;
        thicknessLayers List<scalar> 0();
        kappaLayers     List<scalar> 0();
        kappaMethod     solidThermo;
        kappa           none;
        alphaAni        none;
        alpha           none;
        field           T;
    }
    heater_to_leftSolid
    {
        type            compressible::turbulentTemperatureCoupledBaffleMixed;
        refValue        nonuniform List<scalar> 10(525.48673 525.38737 525.16527 524.79183 524.44053 524.44105 524.79214 525.16518 525.38715 525.48641);
        refGradient     uniform 0;
        valueFraction   nonuniform List<scalar> 10(2.0832898e-05 2.0832898e-05 2.0832898e-05 2.0832898e-05 2.0832898e-05 2.0832898e-05 2.0832898e-05 2.0832898e-05 2.0832898e-05 2.0832898e-05);
        value           nonuniform List<scalar> 10(510.60506 507.35917 500.29175 488.23399 469.86739 469.86791 488.23484 500.29208 507.35903 510.60466);
        Tnbr            T;
        thicknessLayers List<scalar> 1(0.001);
        kappaLayers     List<scalar> 1(0.0005);
        kappaMethod     solidThermo;
        kappa           none;
        alphaAni        none;
        alpha           none;
        field           T;
    }
    heater_to_bottomWater
    {
        type            compressible::turbulentTemperatureCoupledBaffleMixed;
        refValue        nonuniform List<scalar> 
92
(
1018.5871
1014.4836
1014.1565
1018.2974
1016.9809
1012.1293
1011.8219
1016.7299
1013.3883
1006.7487
1006.4513
1013.2368
1004.0405
1004.9902
1005.627
1004.3161
1001.506
1002.7829
1003.342
1001.9469
991.63888
990.64594
990.85165
991.93613
1001.8998
991.7015
991.59425
1001.5216
998.04427
998.04427
992.38486
992.38486
992.4177
992.4177
997.93521
997.93521
1009.2976
1009.1603
1009.4113
1009.2893
1005.129
1005.022
990.80408
990.47523
982.85136
981.97869
1009.2739
1004.0872
1005.2157
1005.3976
1009.1358
1004.1424
1009.4096
1001.6437
1002.9795
1003.1135
1009.2471
1001.7473
1005.1264
991.71808
990.72529
990.75348
1004.9812
991.77954
990.85838
1001.8286
991.70756
991.63312
990.51784
1001.6491
982.92566
998.06671
992.45754
992.41555
982.2218
997.96382
998.06671
992.45754
992.41555
997.96382
1013.3986
1006.714
1006.5326
1013.2482
1016.9626
1012.0909
1011.8892
1016.7598
1018.5598
1014.44
1014.2186
1018.3304
)
;
        refGradient     uniform 0;
        valueFraction   nonuniform List<scalar> 
92
(
0.0075140686
0.0075140686
0.0075140686
0.0075140686
0.0075140686
0.0075140686
0.0075140686
0.0075140686
0.0075140686
0.0075140686
0.0075140686
0.0075140686
0.0075140686
0.0075140686
0.0075140686
0.0075140686
0.0075140686
0.0075140686
0.0075140686
0.0075140686
0.0075140686
0.0075140686
0.0075140686
0.0075140686
0.0075140686
0.0075140686
0.0075140686
0.0075140686
0.0075140686
0.0075140686
0.0075140686
0.0075140686
0.0075140686
0.0075140686
0.0075140686
0.0075140686
0.0075140679
0.0075140679
0.0075140679
0.0075140679
0.0075140679
0.0075140679
0.0075140679
0.0075140679
0.0075140679
0.0075140679
0.0075140679
0.0075140686
0.0075140686
0.0075140686
0.0075140679
0.0075140686
0.0075140679
0.0075140686
0.0075140686
0.0075140686
0.0075140679
0.0075140686
0.0075140679
0.0075140686
0.0075140686
0.0075140686
0.0075140679
0.0075140686
0.0075140679
0.0075140686
0.0075140686
0.0075140686
0.0075140679
0.0075140686
0.0075140679
0.0075140686
0.0075140686
0.0075140686
0.0075140679
0.0075140686
0.0075140686
0.0075140686
0.0075140686
0.0075140686
0.0075140686
0.0075140686
0.0075140686
0.0075140686
0.0075140686
0.0075140686
0.0075140686
0.0075140686
0.0075140686
0.0075140686
0.0075140686
0.0075140686
)
;
        value           nonuniform List<scalar> 
92
(
514.42176
514.83757
515.74124
517.0754
511.18813
511.72442
512.89636
514.64054
504.14668
504.91855
506.66912
509.37344
337.49689
334.32484
334.35553
337.55913
385.94713
381.7316
381.83423
386.18599
422.24625
418.12672
418.38626
422.8772
448.56329
444.89777
445.53919
450.17172
492.06398
465.73343
493.10038
463.21136
495.7118
464.73289
500.17901
469.86567
337.53639
337.59553
386.00653
386.24116
422.34762
422.97553
448.47991
450.08871
465.61927
469.74577
337.53636
337.49739
334.32682
334.35327
337.59462
337.5571
386.00695
385.9486
381.73342
381.83182
386.2398
386.18345
422.3479
422.24715
418.12753
418.38526
422.97468
422.87548
448.48086
448.56329
444.89815
445.53977
450.08963
450.17327
465.62071
465.73448
463.2125
464.73343
469.74912
469.8674
492.065
493.10178
495.71233
500.17972
504.14709
504.91868
506.6706
509.37427
511.18785
511.72424
512.89767
514.64162
514.42116
514.83719
515.74243
517.07653
)
;
        Tnbr            T;
        thicknessLayers List<scalar> 0();
        kappaLayers     List<scalar> 0();
        kappaMethod     solidThermo;
        kappa           none;
        alphaAni        none;
        alpha           none;
        field           T;
    }
}


// ************************************************************************* //
