/*--------------------------------*- C++ -*----------------------------------*\
| =========                 |                                                 |
| \\      /  F ield         | OpenFOAM: The Open Source CFD Toolbox           |
|  \\    /   O peration     | Version:  v2012                                 |
|   \\  /    A nd           | Website:  www.openfoam.com                      |
|    \\/     M anipulation  |                                                 |
\*---------------------------------------------------------------------------*/
FoamFile
{
    version     2.0;
    format      ascii;
    class       volScalarField;
    location    "610/rightSolid";
    object      T;
}
// * * * * * * * * * * * * * * * * * * * * * * * * * * * * * * * * * * * * * //

dimensions      [0 0 0 1 0 0 0];


internalField   nonuniform List<scalar> 
130
(
752.79666
760.88983
769.36217
777.75882
785.73071
793.0396
799.54462
805.16997
809.86233
813.61309
816.41806
818.28063
819.207
746.97669
756.4018
766.02317
775.34281
784.01995
791.84263
798.71053
804.58785
809.45509
813.32328
816.20522
818.12403
819.08526
735.27065
747.75609
759.89125
771.07172
781.08482
789.84286
797.3545
803.66743
808.83016
812.89636
815.91596
817.91746
818.91412
717.78388
736.03849
752.19787
766.06051
777.82071
787.71499
795.9669
802.76309
808.24583
812.5247
815.67858
817.75817
818.79152
697.10975
724.95698
745.92588
762.35545
775.55884
786.30621
795.08036
802.20879
807.90714
812.32333
815.56053
817.68619
818.74144
697.21168
725.07504
746.03584
762.45001
775.63178
786.36147
795.1219
802.23767
807.9312
812.35015
815.58888
817.71611
818.77241
717.9953
736.27389
752.41056
766.2408
777.96006
787.82658
796.05809
802.83992
808.31605
812.59472
815.7505
817.83131
818.866
735.55754
748.02601
760.11066
771.25623
781.2276
789.95806
797.453
803.75537
808.91585
812.98665
816.0108
818.01497
819.01396
747.30957
756.69403
766.25728
775.51296
784.13454
791.92569
798.78231
804.65057
809.51959
813.3946
816.29152
818.22097
819.18522
753.15022
761.1963
769.58333
777.89287
785.80243
793.0787
799.57347
805.19489
809.89413
813.6551
816.47509
818.359
819.30309
)
;

boundaryField
{
    maxX
    {
        type            zeroGradient;
    }
    minZ
    {
        type            zeroGradient;
    }
    maxZ
    {
        type            zeroGradient;
    }
    rightSolid_to_bottomWater
    {
        type            compressible::turbulentTemperatureCoupledBaffleMixed;
        refValue        nonuniform List<scalar> 
130
(
924.76087
924.90878
929.35616
932.91958
934.72772
934.30234
933.35131
934.10917
932.50791
931.83383
931.0885
929.82889
927.83598
924.82639
926.74117
926.8369
929.39306
932.41457
932.61067
931.48306
932.05814
931.02249
930.3578
928.40943
928.40563
929.23607
920.76794
923.61843
930.66654
928.10568
929.5687
929.77927
929.40271
929.67552
928.99481
927.79345
928.15299
928.87478
928.62484
919.58101
918.2315
920.90462
921.6386
924.17087
925.75952
926.47909
927.00373
927.06608
927.33741
927.86837
928.34842
928.33365
910.43629
914.95428
917.40551
918.21775
920.16701
922.36557
923.43644
925.38396
926.77427
927.35763
927.7781
927.82005
927.99943
917.00755
921.75754
922.6735
923.02892
923.31327
924.41074
924.64473
924.7411
925.87496
927.72526
928.15704
928.39689
928.71544
925.40252
925.65129
925.26069
925.34891
925.22128
926.76506
927.0038
927.0545
927.0876
927.60443
928.34103
928.73844
928.8406
927.22363
926.73078
927.57054
928.16348
928.33458
929.00403
928.97832
929.15589
928.80415
928.52807
928.8401
929.16428
929.10816
929.53291
928.20515
927.5286
928.34611
929.18041
929.52488
930.3814
929.94966
929.66433
928.80254
928.50189
928.79235
928.6564
929.58405
929.20595
928.20805
927.73884
928.36232
928.66668
929.27872
929.72063
929.26783
928.76697
927.86491
928.05712
928.29635
)
;
        refGradient     uniform 0;
        valueFraction   nonuniform List<scalar> 
130
(
0.0075140686
0.0075140686
0.0075140686
0.0075140686
0.0075140686
0.0075140686
0.0075140686
0.0075140686
0.0075140686
0.0075140686
0.0075140686
0.0075140686
0.0075140686
0.0075140686
0.0075140686
0.0075140686
0.0075140686
0.0075140686
0.0075140686
0.0075140686
0.0075140686
0.0075140686
0.0075140686
0.0075140686
0.0075140686
0.0075140686
0.0075140686
0.0075140686
0.0075140686
0.0075140686
0.0075140686
0.0075140686
0.0075140686
0.0075140686
0.0075140686
0.0075140686
0.0075140686
0.0075140686
0.0075140686
0.0075140686
0.0075140686
0.0075140686
0.0075140686
0.0075140686
0.0075140686
0.0075140686
0.0075140686
0.0075140686
0.0075140686
0.0075140686
0.0075140686
0.0075140686
0.0075140686
0.0075140686
0.0075140686
0.0075140686
0.0075140686
0.0075140686
0.0075140686
0.0075140686
0.0075140686
0.0075140686
0.0075140686
0.0075140686
0.0075140686
0.0075140686
0.0075140686
0.0075140686
0.0075140686
0.0075140686
0.0075140686
0.0075140686
0.0075140686
0.0075140686
0.0075140686
0.0075140686
0.0075140686
0.0075140686
0.0075140686
0.0075140686
0.0075140686
0.0075140686
0.0075140686
0.0075140686
0.0075140686
0.0075140686
0.0075140686
0.0075140686
0.0075140686
0.0075140686
0.0075140686
0.0075140686
0.0075140686
0.0075140686
0.0075140686
0.0075140686
0.0075140686
0.0075140686
0.0075140686
0.0075140686
0.0075140686
0.0075140686
0.0075140686
0.0075140686
0.0075140686
0.0075140686
0.0075140686
0.0075140686
0.0075140686
0.0075140686
0.0075140686
0.0075140686
0.0075140686
0.0075140686
0.0075140686
0.0075140686
0.0075140686
0.0075140686
0.0075140686
0.0075140686
0.0075140686
0.0075140686
0.0075140686
0.0075140686
0.0075140686
0.0075140686
0.0075140686
0.0075140686
0.0075140686
0.0075140686
)
;
        value           nonuniform List<scalar> 
130
(
754.08901
762.12245
770.5645
778.9248
786.85034
794.1011
800.55007
806.13881
810.78387
814.50137
817.27966
819.11877
820.02322
748.3132
757.68187
767.23164
776.50045
785.13506
792.90041
799.70821
805.54566
810.36854
814.20266
817.0483
818.95267
819.91293
736.66461
749.07765
761.17455
772.25176
782.20063
790.89441
798.34676
804.61427
809.73308
813.7597
816.75931
818.75121
819.7385
719.30028
737.40761
753.46566
767.22966
778.92053
788.75238
796.94765
803.69669
809.13869
813.38744
816.52161
818.58918
819.61466
698.71276
726.38472
747.2145
763.52674
776.64558
787.32871
796.04494
803.1344
808.80036
813.18775
816.40378
818.51379
819.56245
698.86334
726.55306
747.36325
763.65675
776.7416
787.3989
796.09524
803.15823
808.81748
813.21712
816.43475
818.5478
819.59856
719.5539
737.69703
753.70952
767.4365
779.06674
788.8707
797.04213
803.77335
809.20856
813.45894
816.59654
818.66471
819.69239
736.99789
749.36898
761.36914
772.43542
782.33315
791.00302
798.44142
804.69774
809.81678
813.8549
816.85867
818.85022
819.84129
748.67899
757.98296
767.46927
776.66155
785.2246
792.95978
799.77129
805.59218
810.42244
814.26185
817.13475
819.05188
820.00786
754.47615
762.45893
770.77544
779.01901
786.87381
794.09766
800.5482
806.13069
810.79119
814.52011
817.31213
819.18333
820.12213
)
;
        Tnbr            T;
        thicknessLayers List<scalar> 0();
        kappaLayers     List<scalar> 0();
        kappaMethod     solidThermo;
        kappa           none;
        alphaAni        none;
        alpha           none;
        field           T;
    }
    rightSolid_to_topAir
    {
        type            compressible::turbulentTemperatureCoupledBaffleMixed;
        refValue        nonuniform List<scalar> 
130
(
494.57915
487.23434
480.86307
475.73362
471.89877
469.3033
467.85323
467.44876
468.01928
469.5711
472.26401
476.56702
483.30503
437.47385
431.94839
428.57013
426.6364
425.68194
425.48824
425.98898
427.15482
428.98941
431.57102
435.19623
440.75804
450.28253
447.25558
438.49443
430.96631
424.69432
419.77731
416.38174
414.61629
414.42443
415.59632
417.87696
421.15191
426.15013
434.74797
501.28342
501.22887
499.68092
496.39668
491.72402
486.31991
480.72417
475.29949
470.76454
468.34828
469.91564
477.76265
488.40249
507.84986
511.53738
515.31602
518.76864
521.52773
523.32927
524.04626
523.73255
522.72158
521.73909
521.92347
524.76392
531.7667
508.68948
512.66355
516.8652
520.93954
524.54677
527.38905
529.26016
530.12691
530.24755
530.29945
531.39845
535.00817
542.80999
504.78421
505.82295
505.73063
504.17919
501.21598
497.10645
492.20781
487.05168
482.61783
480.55376
482.72929
489.2989
499.74942
449.90229
441.36949
433.91145
427.52171
422.25147
418.24952
415.68844
414.67382
415.1915
417.14512
420.5251
426.20782
435.87867
437.55732
432.02008
428.71765
426.90729
426.05837
425.87716
426.2424
427.13728
428.64273
430.92844
434.35312
439.90094
449.86662
495.08969
487.84861
481.5753
476.54211
472.79116
470.24406
468.78335
468.30523
468.7629
470.2021
472.82286
477.14824
484.09413
)
;
        refGradient     uniform 0;
        valueFraction   nonuniform List<scalar> 
130
(
0.00032132529
0.00032132529
0.00032132529
0.00032132529
0.00032132529
0.00032132529
0.00032132529
0.00032132529
0.00032132529
0.00032132529
0.00032132529
0.00032132529
0.00032132529
0.00032132529
0.00032132529
0.00032132529
0.00032132529
0.00032132529
0.00032132529
0.00032132529
0.00032132529
0.00032132529
0.00032132529
0.00032132529
0.00032132529
0.00032132529
0.00032132529
0.00032132529
0.00032132529
0.00032132529
0.00032132529
0.00032132529
0.00032132529
0.00032132529
0.00032132529
0.00032132529
0.00032132529
0.00032132529
0.00032132529
0.00032132529
0.00032132529
0.00032132529
0.00032132529
0.00032132529
0.00032132529
0.00032132529
0.00032132529
0.00032132529
0.00032132529
0.00032132529
0.00032132529
0.00032132529
0.00032132529
0.00032132529
0.00032132529
0.00032132529
0.00032132529
0.00032132529
0.00032132529
0.00032132529
0.00032132529
0.00032132529
0.00032132529
0.00032132529
0.00032132529
0.00032132529
0.00032132529
0.00032132529
0.00032132529
0.00032132529
0.00032132529
0.00032132529
0.00032132529
0.00032132529
0.00032132529
0.00032132529
0.00032132529
0.00032132529
0.00032132529
0.00032132529
0.00032132529
0.00032132529
0.00032132529
0.00032132529
0.00032132529
0.00032132529
0.00032132529
0.00032132529
0.00032132529
0.00032132529
0.00032132529
0.00032132529
0.00032132529
0.00032132529
0.00032132529
0.00032132529
0.00032132529
0.00032132529
0.00032132529
0.00032132529
0.00032132529
0.00032132529
0.00032132529
0.00032132529
0.00032132529
0.00032132529
0.00032132529
0.00032132529
0.00032132529
0.00032132529
0.00032132529
0.00032132529
0.00032132529
0.00032132529
0.00032132529
0.00032132529
0.00032132529
0.00032132529
0.00032132529
0.00032132529
0.00032132529
0.00032132529
0.00032132529
0.00032132529
0.00032132529
0.00032132529
0.00032132529
0.00032132529
0.00032132529
0.00032132529
)
;
        value           nonuniform List<scalar> 
130
(
752.71389
760.80207
769.26959
777.66187
785.62992
792.93562
799.43805
805.06143
809.75246
813.50251
816.30744
818.17079
819.09904
746.87738
756.29767
765.91484
775.23086
783.90487
791.72495
798.59078
804.46656
809.33282
813.20059
816.08276
818.00275
818.96674
735.17823
747.65683
759.78564
770.9605
780.96881
789.72292
797.23156
803.54237
808.7038
812.76943
815.78911
817.79158
818.79069
717.7144
735.96315
752.11685
765.97399
777.72892
787.61826
795.86568
802.65792
808.13742
812.41413
815.56751
817.64895
818.6854
697.04899
724.88849
745.85189
762.27731
775.47736
786.22185
794.99337
802.11937
807.81555
812.23
815.46622
817.59211
818.64927
697.1512
725.00692
745.96234
762.37255
775.55124
786.27837
795.03657
802.1503
807.84202
812.25956
815.49759
817.62529
818.68377
717.92692
736.19999
752.33145
766.15675
777.87128
787.73329
795.96056
802.73852
808.21144
812.48806
815.64352
817.72578
818.7635
735.46591
747.92764
760.00603
771.14596
781.11243
789.83878
797.33046
803.63045
808.78942
812.85952
815.88379
817.88914
818.89092
747.21022
756.58989
766.14901
775.40114
784.01966
791.80823
798.66274
804.52937
809.39728
813.27177
816.16886
818.09947
819.06661
753.06749
761.10866
769.49098
777.79623
785.70202
792.97511
799.4673
805.08674
809.78459
813.54479
816.36472
818.24941
819.19544
)
;
        Tnbr            T;
        thicknessLayers List<scalar> 0();
        kappaLayers     List<scalar> 0();
        kappaMethod     solidThermo;
        kappa           none;
        alphaAni        none;
        alpha           none;
        field           T;
    }
    rightSolid_to_heater
    {
        type            compressible::turbulentTemperatureCoupledBaffleMixed;
        refValue        nonuniform List<scalar> 10(745.58078 738.42913 723.52875 698.92331 657.87773 657.93088 699.05996 723.77515 738.76215 745.94503);
        refGradient     uniform 0;
        valueFraction   nonuniform List<scalar> 10(0.50000003 0.50000003 0.50000003 0.50000003 0.50000003 0.50000003 0.50000003 0.50000003 0.50000003 0.50000003);
        value           nonuniform List<scalar> 10(749.18882 742.70298 729.39976 708.35364 677.49377 677.57133 708.5277 729.66642 743.03595 749.54772);
        Tnbr            T;
        thicknessLayers List<scalar> 0();
        kappaLayers     List<scalar> 0();
        kappaMethod     solidThermo;
        kappa           none;
        alphaAni        none;
        alpha           none;
        field           T;
    }
}


// ************************************************************************* //
