/*--------------------------------*- C++ -*----------------------------------*\
| =========                 |                                                 |
| \\      /  F ield         | OpenFOAM: The Open Source CFD Toolbox           |
|  \\    /   O peration     | Version:  v2012                                 |
|   \\  /    A nd           | Website:  www.openfoam.com                      |
|    \\/     M anipulation  |                                                 |
\*---------------------------------------------------------------------------*/
FoamFile
{
    version     2.0;
    format      ascii;
    class       surfaceScalarField;
    location    "600/topAir";
    object      phi;
}
// * * * * * * * * * * * * * * * * * * * * * * * * * * * * * * * * * * * * * //

dimensions      [1 0 -1 0 0 0 0];
oriented        oriented;


internalField   nonuniform List<scalar> 
3140
(
9.5044838e-06
-3.0712448e-07
7.161893e-08
9.6915444e-06
-2.6802723e-07
8.0967219e-08
9.8699161e-06
-2.4783863e-07
6.9471691e-08
1.0013781e-05
-1.9501967e-07
5.1168893e-08
1.0117112e-05
-1.3086719e-07
2.756422e-08
1.019017e-05
-7.1986913e-08
-1.0265035e-09
1.0268132e-05
-2.4886998e-08
-5.3012224e-08
1.0371406e-05
1.8617493e-08
-1.2181938e-07
1.0510676e-05
8.2577059e-08
-2.2176582e-07
1.0707927e-05
1.6789231e-07
-3.6505638e-07
1.0957301e-05
3.1764938e-07
-5.6693546e-07
1.1229819e-05
5.6765544e-07
-8.4009036e-07
1.1471774e-05
9.4581359e-07
-1.1876996e-06
1.1696551e-05
1.3856809e-06
-1.6104087e-06
1.1875399e-05
1.8773098e-06
-2.0561577e-06
1.199207e-05
2.3572752e-06
-2.4740218e-06
1.2032894e-05
2.7829482e-06
-2.8239487e-06
1.1995119e-05
3.1283188e-06
-3.0908398e-06
1.1896525e-05
3.3763857e-06
-3.2782109e-06
1.1772649e-05
3.520302e-06
-3.3969606e-06
1.1660828e-05
3.5699004e-06
-3.4587161e-06
1.1586097e-05
3.5474516e-06
-3.473436e-06
1.1558889e-05
3.4752795e-06
-3.4488372e-06
1.1577504e-05
3.370436e-06
-3.3898265e-06
1.1627303e-05
3.2466177e-06
-3.2971641e-06
1.1670351e-05
3.1207284e-06
-3.1644712e-06
1.1623427e-05
3.0214877e-06
-2.9752489e-06
1.1317123e-05
3.0061786e-06
-2.7007442e-06
1.0403853e-05
3.2071095e-06
-2.2953047e-06
3.9528844e-06
-1.6981869e-06
9.1125228e-06
-2.2945878e-07
7.8778827e-08
9.0856697e-06
-3.430817e-07
1.0190551e-07
9.0920375e-06
-3.6126822e-07
1.0706098e-07
9.1452865e-06
-3.5567762e-07
1.0741041e-07
9.2440071e-06
-3.3203399e-07
1.0245119e-07
9.3825086e-06
-3.0054908e-07
9.0070486e-08
9.5641438e-06
-2.7450026e-07
6.7996495e-08
9.8057583e-06
-2.5652445e-07
3.3645068e-08
1.0132917e-05
-2.2521808e-07
-1.9185029e-08
1.057471e-05
-1.6289754e-07
-1.1089117e-07
1.1156103e-05
-1.789207e-08
-2.4592256e-07
1.1858394e-05
3.0533471e-07
-4.4013705e-07
1.2588163e-05
9.2183257e-07
-7.058782e-07
1.3234479e-05
1.7572239e-06
-1.0178008e-06
1.3728401e-05
2.7032584e-06
-1.319737e-06
1.4010144e-05
3.6262311e-06
-1.5506172e-06
1.4066451e-05
4.4166225e-06
-1.6900426e-06
1.3933859e-05
5.0351901e-06
-1.7745119e-06
1.3684977e-05
5.4729037e-06
-1.8480174e-06
1.3404895e-05
5.734755e-06
-1.9348458e-06
1.3155545e-05
5.8405004e-06
-2.0217662e-06
1.2962615e-05
5.8243738e-06
-2.0844779e-06
1.283006e-05
5.7164918e-06
-2.1090087e-06
1.2749948e-05
5.5373342e-06
-2.0868615e-06
1.2704768e-05
5.2990519e-06
-2.0068942e-06
1.265535e-05
5.0200693e-06
-1.8489857e-06
1.2521165e-05
4.7405733e-06
-1.5833803e-06
1.2153349e-05
4.550079e-06
-1.1743941e-06
1.1311166e-05
4.6336338e-06
-5.8354097e-07
5.2143172e-06
2.7025786e-07
9.1691262e-06
-2.1045593e-07
8.0829807e-08
8.9999424e-06
-2.7995532e-07
1.0605512e-07
8.8174645e-06
-2.9313019e-07
1.1433756e-07
8.6341554e-06
-2.9230731e-07
1.1993656e-07
8.462547e-06
-2.8437311e-07
1.2394568e-07
8.307882e-06
-2.7181467e-07
1.2592892e-07
8.1668218e-06
-2.601641e-07
1.2672294e-07
8.0367829e-06
-2.5518177e-07
1.2869718e-07
7.9356237e-06
-2.5915617e-07
1.3509882e-07
7.9073138e-06
-2.7940784e-07
1.4481607e-07
8.0686635e-06
-3.2980456e-07
1.5054891e-07
8.5809998e-06
-3.3629035e-07
1.292772e-07
9.4797046e-06
-3.9006937e-08
6.2412886e-08
1.067206e-05
5.8879264e-07
-2.3302185e-08
1.1752041e-05
1.6774187e-06
-5.3286394e-08
1.2562785e-05
2.7819367e-06
3.4527771e-08
1.3011695e-05
3.6365541e-06
3.3197577e-07
1.3150788e-05
4.2517115e-06
6.4489274e-07
1.3088788e-05
4.6635909e-06
8.7147291e-07
1.2945864e-05
4.9005178e-06
9.770089e-07
1.2807116e-05
4.9839848e-06
9.948497e-07
1.269158e-05
4.931724e-06
1.0075537e-06
1.2592938e-05
4.7771467e-06
1.0371657e-06
1.2495079e-05
4.5530793e-06
1.081111e-06
1.2389109e-05
4.2856666e-06
1.1181601e-06
1.2256181e-05
3.992249e-06
1.1593245e-06
1.2062389e-05
3.7043599e-06
1.2282937e-06
1.1766654e-05
3.4957059e-06
1.3479688e-06
1.1277523e-05
3.5413736e-06
1.578559e-06
4.1976381e-06
1.8900603e-06
8.9795466e-06
7.8947871e-08
8.596626e-06
1.029629e-07
8.1933694e-06
1.1012395e-07
7.7870111e-06
1.1404849e-07
7.3864614e-06
1.1617422e-07
6.9981508e-06
1.1649356e-07
6.6217324e-06
1.162519e-07
6.2487223e-06
1.1782603e-07
5.8645589e-06
1.2500462e-07
5.4418394e-06
1.4330867e-07
4.9269028e-06
1.8512916e-07
4.3188406e-06
2.7177677e-07
3.8542488e-06
4.2565497e-07
3.804712e-06
6.3901817e-07
4.5056784e-06
9.7768992e-07
5.6762874e-06
1.6125527e-06
6.7019512e-06
2.6117476e-06
7.5062902e-06
3.4477277e-06
8.1414118e-06
4.0283254e-06
8.6783977e-06
4.3629796e-06
9.1463229e-06
4.5152148e-06
9.5540815e-06
4.5229233e-06
9.8813748e-06
4.4486713e-06
1.011182e-05
4.3213442e-06
1.0235284e-05
4.1608133e-06
1.0265157e-05
3.9608758e-06
1.0232795e-05
3.7350838e-06
1.0245217e-05
3.4814553e-06
1.0596022e-05
3.1884225e-06
2.6210228e-06
9.6164196e-06
-3.0684754e-07
3.1025059e-08
9.9188936e-06
-2.6925543e-07
4.7748244e-08
1.0200799e-05
-2.6178031e-07
4.9348321e-08
1.0435442e-05
-2.266141e-07
4.3147485e-08
1.0616423e-05
-1.8458888e-07
3.1188519e-08
1.0756543e-05
-1.5277443e-07
1.1656879e-08
1.0857616e-05
-1.3946257e-07
-1.4576342e-08
1.0930981e-05
-1.4743543e-07
-4.7682667e-08
1.0985636e-05
-1.8239298e-07
-9.3945386e-08
1.1030302e-05
-2.517935e-07
-1.578312e-07
1.1074093e-05
-3.6569297e-07
-2.4492841e-07
1.1128391e-05
-5.3448315e-07
-3.5979471e-07
1.1212145e-05
-7.6918752e-07
-5.0213954e-07
1.1407712e-05
-1.1357167e-06
-6.7011206e-07
1.1714045e-05
-1.528806e-06
-8.3356519e-07
1.2085345e-05
-1.868769e-06
-9.7653674e-07
1.2431033e-05
-2.0550541e-06
-1.1147477e-06
1.2673638e-05
-2.065932e-06
-1.2679136e-06
1.2787562e-05
-1.9558731e-06
-1.4369032e-06
1.2801207e-05
-1.8060978e-06
-1.6053339e-06
1.2764291e-05
-1.6723677e-06
-1.7503846e-06
1.2717463e-05
-1.5651351e-06
-1.8624738e-06
1.2684749e-05
-1.4811069e-06
-1.9359551e-06
1.2678987e-05
-1.4171209e-06
-1.9676606e-06
1.2710332e-05
-1.3728036e-06
-1.9560071e-06
1.2781995e-05
-1.3384628e-06
-1.8973601e-06
1.2878742e-05
-1.290786e-06
-1.7802713e-06
1.2947364e-05
-1.171727e-06
-1.5965926e-06
1.2858107e-05
-8.3643846e-07
-1.369721e-06
1.1986271e-07
-1.1325434e-06
9.2374057e-06
-2.3102135e-07
3.4514236e-08
9.3576324e-06
-3.471993e-07
5.9620519e-08
9.5045044e-06
-3.7068433e-07
6.9091634e-08
9.6914962e-06
-3.7579897e-07
6.9603798e-08
9.9146831e-06
-3.6915618e-07
6.3834192e-08
1.0161952e-05
-3.6064546e-07
5.0677993e-08
1.0424621e-05
-3.6211831e-07
2.7993782e-08
1.0701121e-05
-3.8362537e-07
-6.6499842e-09
1.0995538e-05
-4.3619015e-07
-5.9782845e-08
1.1306554e-05
-5.3902919e-07
-1.346464e-07
1.1646284e-05
-7.121782e-07
-2.3914116e-07
1.203235e-05
-9.8315662e-07
-3.7749714e-07
1.249145e-05
-1.3887043e-06
-5.4540487e-07
1.3009378e-05
-1.9541325e-06
-7.1722548e-07
1.3574914e-05
-2.5547188e-06
-8.5929054e-07
1.409046e-05
-2.9496725e-06
-9.852799e-07
1.4448055e-05
-2.9509955e-06
-1.15185e-06
1.4600501e-05
-2.6210828e-06
-1.3721025e-06
1.4566457e-05
-2.152971e-06
-1.6172888e-06
1.4418156e-05
-1.738989e-06
-1.8541602e-06
1.4236292e-05
-1.4573786e-06
-2.0555287e-06
1.4042734e-05
-1.2525649e-06
-2.2043008e-06
1.3841334e-05
-1.1065971e-06
-2.2831506e-06
1.3639242e-05
-1.0239267e-06
-2.2792993e-06
1.3470535e-05
-1.028224e-06
-2.1845493e-06
1.3392214e-05
-1.1172346e-06
-1.9943073e-06
1.3496629e-05
-1.2821882e-06
-1.6995107e-06
1.4020514e-05
-1.5384126e-06
-1.3351412e-06
1.5689317e-05
-1.9472548e-06
-1.1439998e-06
-2.3091083e-06
-1.2943506e-06
9.2964517e-06
-2.128591e-07
3.5174709e-08
9.2775685e-06
-2.8371164e-07
6.1448254e-08
9.2469937e-06
-2.987771e-07
7.3002872e-08
9.2169733e-06
-3.0221739e-07
7.6373103e-08
9.1983422e-06
-3.0107108e-07
7.4489596e-08
9.1945268e-06
-2.977227e-07
6.6819682e-08
9.2051253e-06
-2.9818069e-07
5.2185209e-08
9.2297424e-06
-3.0958079e-07
3.0034184e-08
9.2669295e-06
-3.4049358e-07
2.2141366e-09
9.3293727e-06
-4.05417e-07
-5.1240906e-08
9.4255798e-06
-5.3307633e-07
-1.247622e-07
9.5701104e-06
-7.6673813e-07
-2.3167432e-07
9.7833893e-06
-1.1664498e-06
-3.7312751e-07
1.0086616e-05
-1.7667641e-06
-5.1391581e-07
1.0444955e-05
-2.3854783e-06
-5.8099251e-07
1.0753903e-05
-2.6810466e-06
-5.4340632e-07
1.1025964e-05
-2.4418174e-06
-4.4982192e-07
1.1188421e-05
-1.8095381e-06
-3.2985805e-07
1.1230898e-05
-1.0618193e-06
-2.6308541e-07
1.1186048e-05
-3.9448027e-07
-3.2361002e-07
1.111032e-05
1.9695973e-08
-4.0794115e-07
1.1053579e-05
1.9802168e-07
-3.8831509e-07
1.1003233e-05
2.3172221e-07
-2.5340028e-07
1.0955943e-05
1.7320773e-07
-7.1663691e-08
1.0861946e-05
3.1227627e-08
1.4969944e-07
1.071383e-05
-1.7913091e-07
3.6628516e-07
1.0577093e-05
-5.275658e-07
6.0846935e-07
1.0581765e-05
-9.1745239e-07
7.2165251e-07
1.1222727e-05
-1.3366369e-06
3.2813025e-07
-1.6753362e-06
-6.5231377e-07
9.1008696e-06
3.4169535e-08
8.8608485e-06
5.9269952e-08
8.6022541e-06
6.9938825e-08
8.3415537e-06
7.2529025e-08
8.0868163e-06
6.9838097e-08
7.8442097e-06
6.1375105e-08
7.6161505e-06
4.6128055e-08
7.4006763e-06
2.3716995e-08
7.191545e-06
-6.3601232e-09
6.9897294e-06
-6.0295309e-08
6.7745084e-06
-1.3272902e-07
6.5201472e-06
-2.4060291e-07
6.1990922e-06
-4.1974917e-07
5.7903649e-06
-7.191355e-07
5.3932752e-06
-1.0111243e-06
5.1868916e-06
-8.622801e-07
5.2008413e-06
1.5572433e-07
5.2874141e-06
1.5508599e-06
5.4025726e-06
2.8498421e-06
5.7153586e-06
3.6536992e-06
6.1559691e-06
4.0924114e-06
6.6044391e-06
4.2707897e-06
6.9854574e-06
4.297728e-06
7.2674313e-06
4.2111302e-06
7.4488367e-06
4.0092204e-06
7.5677021e-06
3.6619015e-06
7.5964549e-06
3.1778188e-06
7.6497273e-06
2.5099453e-06
8.3881378e-06
1.1129531e-06
-5.3450778e-07
9.5936928e-06
-3.0884786e-07
1.5158442e-08
9.8867147e-06
-2.6999827e-07
2.4725762e-08
1.016738e-05
-2.5903177e-07
2.7718549e-08
1.0403873e-05
-2.1949566e-07
2.6161494e-08
1.0586516e-05
-1.730607e-07
2.1625687e-08
1.0720308e-05
-1.367738e-07
1.466854e-08
1.0814827e-05
-1.1433412e-07
5.274112e-09
1.0879425e-05
-1.0580947e-07
-6.4232693e-09
1.091958e-05
-1.1373045e-07
-2.0302004e-08
1.094197e-05
-1.4343242e-07
-3.6691834e-08
1.0955805e-05
-2.0467391e-07
-5.3943828e-08
1.0977463e-05
-3.1356552e-07
-6.7656749e-08
1.1037721e-05
-4.9496092e-07
-6.7086938e-08
1.1230782e-05
-8.2432267e-07
-3.8478851e-08
1.1515837e-05
-1.1562393e-06
3.7662062e-08
1.1783007e-05
-1.4146537e-06
1.7051205e-07
1.197615e-05
-1.5991486e-06
2.9042113e-07
1.2090094e-05
-1.7639635e-06
3.8105846e-07
1.2136195e-05
-1.9258966e-06
4.4178168e-07
1.2129783e-05
-2.0845067e-06
4.8450106e-07
1.2095669e-05
-2.2427131e-06
5.2547509e-07
1.2050277e-05
-2.3948232e-06
5.7700078e-07
1.1996027e-05
-2.5249216e-06
6.4280852e-07
1.1929623e-05
-2.6191091e-06
7.1785848e-07
1.1854893e-05
-2.6760351e-06
7.9526466e-07
1.1801031e-05
-2.7139744e-06
8.7166975e-07
1.18399e-05
-2.7521231e-06
9.3501371e-07
1.2080066e-05
-2.7557059e-06
9.2166682e-07
1.2446136e-05
-2.3921902e-06
6.590868e-07
-1.1555817e-06
-2.4969606e-08
9.2092214e-06
-2.3092913e-07
1.6341337e-08
9.3163458e-06
-3.4646448e-07
2.8960312e-08
9.4600194e-06
-3.6792954e-07
3.4314545e-08
9.6463703e-06
-3.6954967e-07
3.3307207e-08
9.8680627e-06
-3.5793076e-07
2.7014209e-08
1.0109671e-05
-3.4269265e-07
1.4993806e-08
1.036139e-05
-3.3386446e-07
-4.1866803e-09
1.0618949e-05
-3.3890313e-07
-3.1100977e-08
1.0881519e-05
-3.665313e-07
-6.9531188e-08
1.1153348e-05
-4.2872762e-07
-1.2114483e-07
1.1447298e-05
-5.5121755e-07
-1.864826e-07
1.1792755e-05
-7.7675941e-07
-2.5964109e-07
1.2241132e-05
-1.1691268e-06
-3.1941569e-07
1.2757687e-05
-1.7346463e-06
-3.2329554e-07
1.3222788e-05
-2.2046869e-06
-2.7604255e-07
1.3465024e-05
-2.3710718e-06
-2.7139904e-07
1.3468751e-05
-2.3848774e-06
-3.7017664e-07
1.3319202e-05
-2.4188975e-06
-5.6789402e-07
1.3058679e-05
-2.4514498e-06
-8.3148943e-07
1.2720676e-05
-2.4863388e-06
-1.1146749e-06
1.2333203e-05
-2.5502313e-06
-1.361025e-06
1.1903966e-05
-2.6410444e-06
-1.5295398e-06
1.1426285e-05
-2.7264628e-06
-1.6049507e-06
1.089755e-05
-2.7825146e-06
-1.5886833e-06
1.0330073e-05
-2.8202851e-06
-1.4750512e-06
9.7963263e-06
-2.9156875e-06
-1.2619863e-06
9.5358204e-06
-3.1668791e-06
-1.0283415e-06
9.9897061e-06
-3.5909589e-06
-9.5847823e-07
1.1560173e-05
-3.7394234e-06
-1.3714146e-06
-3.0182063e-06
-2.2031469e-06
9.2692501e-06
-2.1258034e-07
1.6534587e-08
9.2379341e-06
-2.8315042e-07
2.9447874e-08
9.204736e-06
-2.9720138e-07
3.5470498e-08
9.1755404e-06
-2.9915025e-07
3.5167051e-08
9.1588589e-06
-2.9600824e-07
2.9246422e-08
9.1559853e-06
-2.898656e-07
1.6864358e-08
9.164133e-06
-2.8593253e-07
-3.8959884e-09
9.1803452e-06
-2.9023944e-07
-3.4843064e-08
9.2066498e-06
-3.0973967e-07
-8.0882836e-08
9.2336535e-06
-3.5907043e-07
-1.4790101e-07
9.2633572e-06
-4.6591492e-07
-2.3976324e-07
9.3012835e-06
-6.8804153e-07
-3.5830393e-07
9.3875436e-06
-1.1404033e-06
-4.8810429e-07
9.5436893e-06
-1.8502085e-06
-5.5480343e-07
9.5160526e-06
-2.2666523e-06
-4.9218006e-07
9.107478e-06
-2.0453194e-06
-4.6106435e-07
8.5163682e-06
-1.6505936e-06
-5.927645e-07
8.0804539e-06
-1.5192847e-06
-7.929808e-07
7.6662665e-06
-1.2327144e-06
-1.0672844e-06
7.1952566e-06
-9.743689e-07
-1.3645063e-06
6.6512867e-06
-8.3807843e-07
-1.5763324e-06
6.0739494e-06
-8.374679e-07
-1.6151023e-06
5.5036229e-06
-9.3126312e-07
-1.479349e-06
4.9739931e-06
-1.096707e-06
-1.2297848e-06
4.524894e-06
-1.3254281e-06
-8.9907032e-07
4.2149861e-06
-1.6667169e-06
-5.7739991e-07
4.2760774e-06
-2.1506584e-06
-4.7577669e-07
4.8777757e-06
-2.840339e-06
-6.4124201e-07
6.0063775e-06
-3.1375876e-06
-1.4208254e-06
-2.2999637e-06
-2.7893148e-06
9.0744085e-06
1.6131038e-08
8.8219853e-06
2.8540326e-08
8.5606103e-06
3.4109983e-08
8.3006029e-06
3.3383732e-08
8.0474522e-06
2.6978197e-08
7.8051188e-06
1.384052e-08
7.5731942e-06
-7.8823293e-09
7.3478909e-06
-4.1221511e-08
7.1247599e-06
-9.297118e-08
6.8790798e-06
-1.7368815e-07
6.5792044e-06
-2.9877161e-07
6.1522414e-06
-5.0169199e-07
5.4461093e-06
-8.5415544e-07
4.293773e-06
-1.4185094e-06
2.9066946e-06
-1.8940038e-06
1.8375732e-06
-1.8396689e-06
1.7890366e-06
-1.4449263e-06
2.0245057e-06
-2.0170526e-07
2.3473804e-06
1.2930524e-06
2.7436272e-06
2.280071e-06
3.1854827e-06
2.8091645e-06
3.5818825e-06
3.0338741e-06
3.8615803e-06
3.0840371e-06
3.9485568e-06
3.0250958e-06
3.7933509e-06
2.8369887e-06
3.4655886e-06
2.3210861e-06
3.0297698e-06
1.4613642e-06
2.5443715e-06
1.5060133e-07
2.127995e-06
-1.6443825e-06
-3.7785222e-06
9.5880381e-06
-3.0911038e-07
5.2092529e-09
9.873435e-06
-2.695296e-07
8.8602169e-09
1.0147884e-05
-2.5676939e-07
1.004329e-08
1.0379147e-05
-2.1421606e-07
9.122352e-09
1.0556983e-05
-1.6278833e-07
6.5933085e-09
1.0687488e-05
-1.1853745e-07
2.7256944e-09
1.0779923e-05
-8.4443659e-08
-2.6845775e-09
1.0842787e-05
-5.9461007e-08
-9.787423e-09
1.0884368e-05
-4.3392618e-08
-1.8438922e-08
1.0915443e-05
-3.9144365e-08
-2.8542614e-08
1.0955503e-05
-5.5243333e-08
-3.8623301e-08
1.1043305e-05
-1.1136616e-07
-4.3836264e-08
1.1242293e-05
-2.3419999e-07
-3.1452352e-08
1.1606421e-05
-4.1840822e-07
1.6103842e-08
1.1979545e-05
-4.284556e-07
9.2807085e-08
1.2253467e-05
-2.8359593e-07
1.7935608e-07
1.2413902e-05
-1.3890896e-07
2.6746767e-07
1.2512012e-05
-8.5556375e-08
3.6657725e-07
1.2586735e-05
-1.2015904e-07
4.8474796e-07
1.2662949e-05
-2.2342264e-07
6.2857469e-07
1.2748508e-05
-3.7036995e-07
8.064205e-07
1.2832564e-05
-5.3164204e-07
1.0200937e-06
1.2897976e-05
-6.909086e-07
1.2635092e-06
1.2941294e-05
-8.4881173e-07
1.5187523e-06
1.297565e-05
-9.9468561e-07
1.7519763e-06
1.2997439e-05
-1.0657451e-06
1.9142945e-06
1.2908889e-05
-9.2028686e-07
1.9469817e-06
1.2495653e-05
-4.412095e-07
1.7869354e-06
1.1205054e-05
5.8542257e-07
1.3597749e-06
2.8119203e-06
6.4983787e-07
9.2015632e-06
-2.3076931e-07
5.4043387e-09
9.2969769e-06
-3.4593276e-07
9.947688e-09
9.4293301e-06
-3.6634369e-07
1.1534199e-08
9.6043393e-06
-3.6582411e-07
9.9057216e-09
9.8135336e-06
-3.5027855e-07
5.3113703e-09
1.0040929e-05
-3.2840193e-07
-2.5342637e-09
1.0276205e-05
-3.0894229e-07
-1.4957618e-08
1.0515388e-05
-2.9781901e-07
-3.1915668e-08
1.0759457e-05
-3.0211087e-07
-5.4862979e-08
1.1019406e-05
-3.3600059e-07
-8.420033e-08
1.1325737e-05
-4.3059519e-07
-1.1738115e-07
1.1746094e-05
-6.4666172e-07
-1.4453309e-07
1.2391277e-05
-1.0578377e-06
-1.4068476e-07
1.316544e-05
-1.4437743e-06
-7.2054386e-08
1.3792405e-05
-1.3340637e-06
2.2998548e-09
1.4180831e-05
-9.749491e-07
3.1052411e-08
1.4383642e-05
-7.2478319e-07
1.230936e-08
1.4456329e-05
-6.7872332e-07
-4.8138009e-08
1.4411102e-05
-7.8277747e-07
-1.2463329e-07
1.4281372e-05
-9.8251923e-07
-2.2720331e-07
1.407591e-05
-1.1996051e-06
-3.2804713e-07
1.3780682e-05
-1.3836874e-06
-3.8416135e-07
1.3377049e-05
-1.5250044e-06
-3.690362e-07
1.2887275e-05
-1.6602101e-06
-2.890599e-07
1.2413585e-05
-1.8130018e-06
-1.8440729e-07
1.2149985e-05
-1.9291281e-06
-1.3683823e-07
1.216201e-05
-1.7188374e-06
-2.4578279e-07
1.2242903e-05
-9.0476931e-07
-5.8368482e-07
1.2163348e-05
4.9963524e-07
-1.1646891e-06
2.7218425e-06
-1.9462612e-06
9.2619299e-06
-2.1258194e-07
5.3761335e-09
9.2187303e-06
-2.8319245e-07
9.90477e-09
9.1732445e-06
-2.9691893e-07
1.152926e-08
9.130802e-06
-2.9801948e-07
9.8026179e-09
9.0983796e-06
-2.9335005e-07
4.7381438e-09
9.0762383e-06
-2.8474098e-07
-4.6573375e-09
9.0603725e-06
-2.7703319e-07
-1.9941011e-08
9.0460466e-06
-2.7606482e-07
-4.2272729e-08
9.0277886e-06
-2.9000813e-07
-7.472805e-08
9.0010236e-06
-3.3621255e-07
-1.2092211e-07
8.9696739e-06
-4.5510448e-07
-1.8389535e-07
8.970203e-06
-7.4646478e-07
-2.5900715e-07
9.1625694e-06
-1.4224894e-06
-3.1586369e-07
9.5409326e-06
-2.1162812e-06
-2.6163173e-07
9.5429395e-06
-1.6774922e-06
-1.5154555e-07
9.0911641e-06
-8.124265e-07
-1.7154359e-07
8.5204494e-06
-4.6977267e-07
-2.7604898e-07
7.8343649e-06
-3.0822531e-07
-4.7622339e-07
7.1633919e-06
-4.4294592e-07
-7.3520642e-07
6.48021e-06
-6.3306793e-07
-1.030244e-06
5.7904152e-06
-8.3022955e-07
-1.2556541e-06
5.1152383e-06
-1.0379342e-06
-1.2853535e-06
4.4636823e-06
-1.234498e-06
-1.1177645e-06
3.8819875e-06
-1.4375018e-06
-8.7047955e-07
3.5592841e-06
-1.6973363e-06
-6.9303756e-07
3.8216324e-06
-2.0612633e-06
-7.1113278e-07
4.786176e-06
-2.0393865e-06
-1.1277975e-06
5.9770403e-06
-9.2608767e-07
-1.8272596e-06
6.7010655e-06
9.5243791e-07
-2.6155931e-06
4.1232464e-06
-3.3949169e-06
9.0673063e-06
5.1932034e-09
8.8031924e-06
9.4592974e-09
8.5295819e-06
1.0799094e-08
8.2561952e-06
8.7485559e-09
7.9864872e-06
3.3336737e-09
7.7227772e-06
-7.1928218e-09
7.4619883e-06
-2.4129036e-08
7.1947071e-06
-5.0007451e-08
6.9019128e-06
-9.0187419e-08
6.5461659e-06
-1.5415628e-07
6.0524729e-06
-2.6018701e-07
5.2531457e-06
-4.4885726e-07
3.7998281e-06
-8.237551e-07
1.6569668e-06
-1.3966519e-06
-4.6400135e-07
-1.4556399e-06
-1.910186e-06
-1.2051754e-06
-2.8213044e-06
-1.0017683e-06
-2.7388056e-06
-5.9119156e-07
-2.0526595e-06
1.6244352e-07
-1.2423079e-06
8.3333158e-07
-5.4608229e-07
1.2788988e-06
-7.0189872e-08
1.5163723e-06
1.5886252e-07
1.6179296e-06
8.7013641e-08
1.6559938e-06
-3.5545454e-07
1.5772997e-06
-9.1735833e-07
8.1622616e-07
-8.9946643e-07
-6.1410137e-07
5.9584412e-07
-2.310228e-06
3.5212883e-06
-3.6886165e-06
-5.1119222e-06
9.5849097e-06
-3.0957602e-07
-1.1452299e-09
9.8661405e-06
-2.7021638e-07
-2.1509203e-09
1.0136782e-05
-2.5746363e-07
-3.1289729e-09
1.0364765e-05
-2.1471024e-07
-4.1417498e-09
1.0539481e-05
-1.6287787e-07
-5.2339625e-09
1.0666746e-05
-1.1804849e-07
-6.4785262e-09
1.0755432e-05
-8.336304e-08
-7.9893944e-09
1.0813826e-05
-5.8284491e-08
-9.871172e-09
1.0851161e-05
-4.3517399e-08
-1.2218096e-08
1.0881679e-05
-4.3920833e-08
-1.5070572e-08
1.0934459e-05
-7.2898662e-08
-1.8368437e-08
1.1070067e-05
-1.5784894e-07
-2.1326394e-08
1.1372711e-05
-3.1273356e-07
-2.0993293e-08
1.1815622e-05
-4.1099199e-07
-1.5844692e-08
1.2198922e-05
-2.7937198e-07
-1.1810036e-08
1.2471122e-05
-8.2935701e-08
-1.120883e-08
1.2668302e-05
8.3988132e-08
-1.4972935e-08
1.2827156e-05
2.3071047e-07
-2.4239367e-08
1.2988035e-05
3.636707e-07
-4.1053166e-08
1.3181039e-05
5.0130037e-07
-6.7012443e-08
1.3408939e-05
6.780827e-07
-1.0091983e-07
1.3636821e-05
9.2963447e-07
-1.3890385e-07
1.3813272e-05
1.259685e-06
-1.7426639e-07
1.3895529e-05
1.638991e-06
-2.0429177e-07
1.3843749e-05
2.0311045e-06
-2.2923812e-07
1.3586382e-05
2.4183413e-06
-2.4849966e-07
1.2963198e-05
2.8239529e-06
-2.5525206e-07
1.1703339e-05
3.2865792e-06
-2.4055196e-07
9.3753077e-06
3.879645e-06
-1.9250528e-07
4.9732993e-06
-1.11834e-07
9.1970769e-06
-2.3092687e-07
-1.3544406e-09
9.2859678e-06
-3.4627757e-07
-2.8841487e-09
9.4113907e-06
-3.6673093e-07
-4.6229379e-09
9.5792762e-06
-3.6609358e-07
-6.5972397e-09
9.7807669e-06
-3.502206e-07
-8.8367123e-09
9.9993803e-06
-3.277411e-07
-1.145393e-08
1.0223439e-05
-3.0775925e-07
-1.4618135e-08
1.0448599e-05
-2.9696967e-07
-1.838476e-08
1.06775e-05
-3.0445336e-07
-2.2816006e-08
1.0927395e-05
-3.4973184e-07
-2.8253315e-08
1.1247707e-05
-4.764208e-07
-3.4093984e-08
1.1749565e-05
-7.6654154e-07
-3.7530446e-08
1.2580236e-05
-1.251601e-06
-3.2273693e-08
1.3369016e-05
-1.2536758e-06
-1.8292226e-08
1.3929756e-05
-8.2523278e-07
-1.2958984e-08
1.435364e-05
-4.5849395e-07
-1.7852417e-08
1.4699642e-05
-2.2356e-07
-2.8566331e-08
1.4968012e-05
-4.6889452e-08
-4.4102157e-08
1.5199122e-05
6.6656493e-08
-6.6288245e-08
1.5451698e-05
1.0351304e-07
-9.2465101e-08
1.5750162e-05
1.5922337e-07
-1.2127697e-07
1.6028869e-05
3.9809396e-07
-1.4759374e-07
1.6219272e-05
8.3790422e-07
-1.5519811e-07
1.6283981e-05
1.4222769e-06
-1.5419648e-07
1.6182298e-05
2.0895591e-06
-1.5638265e-07
1.5828053e-05
2.7824859e-06
-1.5891862e-07
1.4988928e-05
3.5643542e-06
-1.5548755e-07
1.3394978e-05
4.4136199e-06
-1.2097058e-07
1.072568e-05
5.432065e-06
-4.7633962e-08
6.8562347e-06
3.2287071e-08
9.2574251e-06
-2.1264157e-07
-1.3754802e-09
9.2073558e-06
-2.8337033e-07
-2.9355553e-09
9.154052e-06
-2.9713362e-07
-4.7664943e-09
9.1028713e-06
-2.9818475e-07
-6.927921e-09
9.0602981e-06
-2.9341646e-07
-9.4949564e-09
9.0251853e-06
-2.8461764e-07
-1.2670197e-08
8.9911811e-06
-2.7703084e-07
-1.6667297e-08
8.9509511e-06
-2.7729646e-07
-2.1717754e-08
8.896128e-06
-2.9600245e-07
-2.8356915e-08
8.8199888e-06
-3.568753e-07
-3.7638306e-08
8.7299961e-06
-5.2014675e-07
-5.0168399e-08
8.7163172e-06
-9.483176e-07
-6.3535116e-08
9.1751577e-06
-1.9695411e-06
-5.6933659e-08
9.4933393e-06
-1.8046993e-06
-2.9764204e-08
9.2534723e-06
-7.162011e-07
-2.0671245e-08
8.9983841e-06
-3.3051824e-07
-4.335328e-08
8.6101026e-06
-3.220164e-08
-7.7511392e-08
8.1230648e-06
8.493022e-08
-1.1970833e-07
7.6170497e-06
1.0684881e-08
-1.7353616e-07
7.0762028e-06
-1.5287358e-07
-2.3436747e-07
6.6849049e-06
-4.4036276e-07
-2.6690641e-07
6.7337796e-06
-6.9208765e-07
-2.4574414e-07
7.4023542e-06
-7.5810152e-07
-1.909495e-07
8.6073647e-06
-5.2558462e-07
-1.2763917e-07
9.9709488e-06
1.0835073e-07
-7.7904537e-08
1.1045799e-05
1.0141462e-06
-2.1656462e-08
1.1328758e-05
2.1141778e-06
3.6124567e-08
1.0713796e-05
3.0954952e-06
1.059148e-07
9.0421698e-06
4.3088391e-06
1.85114e-07
5.9040499e-06
2.2746978e-07
9.0628473e-06
-1.3452869e-09
8.7917918e-06
-2.8579382e-09
8.5100968e-06
-4.6420417e-09
8.2274295e-06
-6.7712756e-09
7.9466977e-06
-9.3534375e-09
7.667583e-06
-1.2698202e-08
7.383472e-06
-1.7051211e-08
7.0790221e-06
-2.2856403e-08
6.7242191e-06
-3.1389384e-08
6.25823e-06
-4.5045131e-08
5.5460028e-06
-6.8111913e-08
4.2573975e-06
-1.0862313e-07
1.6399039e-06
-1.7668363e-07
-1.3699143e-06
-2.0075983e-07
-3.4399403e-06
-1.0301641e-07
-4.8816377e-06
-9.3254167e-08
-5.8049874e-06
-1.0867025e-07
-6.1882518e-06
-1.2005207e-07
-5.9203229e-06
-9.2263003e-08
-5.2319705e-06
-7.6080249e-09
-4.4559857e-06
6.2046868e-08
-3.7624555e-06
1.3005435e-07
-3.0860057e-06
1.8287568e-07
-2.1602676e-06
2.0473264e-07
-6.6515948e-07
1.9167871e-07
9.7027329e-07
1.9258476e-07
2.0302556e-06
4.3429036e-07
2.2874597e-06
5.1898328e-07
2.486067e-06
4.0999941e-07
-5.1837586e-08
9.5848176e-06
-3.0959505e-07
-7.3883686e-09
9.8658907e-06
-2.7025977e-07
-1.2960017e-08
1.0136279e-05
-2.5752394e-07
-1.5987654e-08
1.0363862e-05
-2.1478528e-07
-1.6932134e-08
1.0537953e-05
-1.6298717e-07
-1.6331579e-08
1.0664219e-05
-1.1828969e-07
-1.4449015e-08
1.0751474e-05
-8.393019e-08
-1.1312386e-08
1.0807993e-05
-5.9375996e-08
-7.0209732e-09
1.0843352e-05
-4.5473357e-08
-2.1222239e-09
1.0872391e-05
-4.7953045e-08
3.7754971e-09
1.0926573e-05
-8.1929514e-08
9.2190142e-09
1.1072971e-05
-1.7641354e-07
8.3623314e-09
1.1398863e-05
-3.3702161e-07
-1.0287643e-08
1.1841197e-05
-3.9046301e-07
-6.771875e-08
1.2208601e-05
-2.2927767e-07
-1.4931752e-07
1.2464002e-05
-3.077186e-08
-2.3467677e-07
1.264325e-05
1.3411372e-07
-3.2722933e-07
1.2777206e-05
2.8030087e-07
-4.3741229e-07
1.2904313e-05
4.0433665e-07
-5.713925e-07
1.3057396e-05
5.1380038e-07
-7.3273413e-07
1.32506e-05
6.3172484e-07
-9.2462649e-07
1.3460865e-05
8.0042141e-07
-1.1483667e-06
1.3629715e-05
1.0577414e-06
-1.3997834e-06
1.3708579e-05
1.379768e-06
-1.6622362e-06
1.3658322e-05
1.7236228e-06
-1.902589e-06
1.3421707e-05
2.0581138e-06
-2.0709192e-06
1.2846607e-05
2.425478e-06
-2.1076645e-06
1.1673161e-05
2.8780714e-06
-1.9482271e-06
9.4944502e-06
3.5194393e-06
-1.5366956e-06
4.7376163e-06
-7.9041542e-07
9.19696e-06
-2.309527e-07
-7.9895107e-09
9.2855922e-06
-3.463318e-07
-1.5446353e-08
9.4105838e-06
-3.6682777e-07
-2.0312562e-08
9.5777709e-06
-3.6624915e-07
-2.232195e-08
9.7780502e-06
-3.5048136e-07
-2.1623281e-08
9.9946386e-06
-3.2827834e-07
-1.8055403e-08
1.021607e-05
-3.0886087e-07
-1.1120949e-08
1.0438153e-05
-2.9914564e-07
-7.0322576e-10
1.0662511e-05
-3.0902923e-07
1.6368292e-08
1.0907956e-05
-3.5994444e-07
3.8253457e-08
1.1228939e-05
-4.9991641e-07
6.2808315e-08
1.1752304e-05
-8.1677631e-07
7.9247051e-08
1.2635921e-05
-1.3188752e-06
6.5697823e-08
1.3382976e-05
-1.1579018e-06
2.1286042e-09
1.3933685e-05
-7.1068329e-07
-8.2029571e-08
1.4349754e-05
-3.7069952e-07
-9.3600202e-08
1.4673139e-05
-1.4047588e-07
-7.5452127e-08
1.4905553e-05
4.4825534e-08
-3.7566056e-08
1.5105163e-05
1.1897837e-07
2.5022019e-08
1.5329805e-05
9.9899824e-08
1.0492704e-07
1.5615037e-05
4.5030902e-08
1.9170181e-07
1.5940163e-05
9.4634593e-08
2.4825804e-07
1.6165655e-05
4.6756149e-07
2.2821827e-07
1.6250045e-05
1.0264173e-06
1.3604541e-07
1.6161706e-05
1.6681198e-06
9.7588281e-09
1.5838344e-05
2.3429204e-06
-1.016215e-07
1.5098931e-05
3.0740563e-06
-4.9573396e-08
1.367873e-05
3.9002354e-06
2.9354667e-07
1.1293177e-05
4.936435e-06
9.3475689e-07
6.3867714e-06
1.6940521e-06
9.2572901e-06
-2.1265943e-07
-8.0000383e-09
9.2069233e-06
-2.8340664e-07
-1.5496285e-08
9.1530894e-06
-2.9720114e-07
-2.0561637e-08
9.1009909e-06
-2.9830096e-07
-2.2779925e-08
9.0566829e-06
-2.9362432e-07
-2.2046299e-08
9.0187085e-06
-2.8509032e-07
-1.7886114e-08
8.9806334e-06
-2.7800782e-07
-9.4476156e-09
8.9341966e-06
-2.7921027e-07
4.7811789e-09
8.8682082e-06
-3.0045413e-07
2.9053224e-08
8.7736818e-06
-3.6790001e-07
6.4837384e-08
8.6576147e-06
-5.4945503e-07
1.154217e-07
8.6356046e-06
-1.0324994e-06
1.7417348e-07
9.2498314e-06
-2.1896295e-06
1.9985598e-07
9.3962215e-06
-1.4694907e-06
1.35946e-07
9.1932575e-06
-5.8335208e-07
5.4506864e-08
8.9211887e-06
-2.0017757e-07
5.6897458e-08
8.4526538e-06
8.8896863e-08
1.6046751e-07
7.820661e-06
2.0908681e-07
3.4756161e-07
7.0609296e-06
1.1258012e-07
5.9313705e-07
6.1450383e-06
-1.0607386e-07
8.8824646e-07
5.1775711e-06
-3.8147291e-07
1.127659e-06
4.6070426e-06
-7.4882848e-07
1.1680136e-06
4.8582527e-06
-9.4376559e-07
9.6735515e-07
6.0078716e-06
-8.7151123e-07
6.1799926e-07
7.70651e-06
-4.1332308e-07
3.0418891e-07
9.3163561e-06
4.0360204e-07
3.1243221e-07
1.0131246e-05
1.4836724e-06
8.192773e-07
1.0077451e-05
2.5213411e-06
1.5475779e-06
9.1238227e-06
3.7484409e-06
2.3349564e-06
5.295821e-06
3.05564e-06
9.0627033e-06
-7.7576436e-09
8.7913366e-06
-1.4900289e-08
8.5090701e-06
-1.9579117e-08
8.2253552e-06
-2.1359762e-08
7.9424474e-06
-2.0072485e-08
7.6598101e-06
-1.5153575e-08
7.3704578e-06
-5.7090591e-09
7.056306e-06
1.2082809e-08
6.6816586e-06
4.2801784e-08
6.1740863e-06
9.4625424e-08
5.370849e-06
1.8567264e-07
3.8742415e-06
3.5556132e-07
7.9981979e-07
7.0943146e-07
-2.1341053e-06
1.274751e-06
-4.0524209e-06
1.2321393e-06
-5.3863715e-06
1.0389297e-06
-6.2526148e-06
8.4398968e-07
-6.6195277e-06
4.5347917e-07
-6.3686666e-06
-2.3317344e-07
-5.7201336e-06
-7.6291207e-07
-4.9510058e-06
-1.0886234e-06
-4.3041651e-06
-1.2653026e-06
-3.7193411e-06
-1.3452323e-06
-3.0292939e-06
-1.3561463e-06
-1.9597783e-06
-1.2905448e-06
-6.2866348e-07
-7.3637379e-07
7.4538412e-07
5.449055e-07
1.7207448e-06
2.0616713e-06
2.7451153e-06
3.1288913e-06
3.8434784e-06
9.587711e-06
-3.0919054e-07
-1.6929073e-08
9.8725673e-06
-2.6968589e-07
-2.8125168e-08
1.0146237e-05
-2.5699822e-07
-3.2653219e-08
1.0376451e-05
-2.1452213e-07
-3.2617919e-08
1.0552958e-05
-1.6319512e-07
-2.964036e-08
1.0681889e-05
-1.1906524e-07
-2.4316161e-08
1.0772532e-05
-8.512925e-08
-1.6833735e-08
1.0833075e-05
-6.0570874e-08
-7.0080554e-09
1.08711e-05
-4.5838669e-08
5.6648093e-09
1.0899289e-05
-4.3833081e-08
1.9382487e-08
1.0938638e-05
-6.4262967e-08
3.4053858e-08
1.1030814e-05
-1.2872262e-07
4.4719168e-08
1.1243048e-05
-2.6336532e-07
4.0486825e-08
1.1611225e-05
-4.4226064e-07
6.1631639e-09
1.197462e-05
-4.1420172e-07
-9.8186643e-08
1.2221181e-05
-2.5094932e-07
-2.2927165e-07
1.2351969e-05
-1.0791085e-07
-3.4843981e-07
1.2419028e-05
-6.5635527e-08
-4.366052e-07
1.2462449e-05
-1.1869325e-07
-4.9326941e-07
1.251365e-05
-2.5314599e-07
-5.2730191e-07
1.2587032e-05
-4.4200415e-07
-5.5201714e-07
1.2665568e-05
-6.4164225e-07
-5.8103975e-07
1.2714942e-05
-8.2157267e-07
-6.2353956e-07
1.272363e-05
-9.8839254e-07
-6.7905541e-07
1.271642e-05