/*--------------------------------*- C++ -*----------------------------------*\
| =========                 |                                                 |
| \\      /  F ield         | OpenFOAM: The Open Source CFD Toolbox           |
|  \\    /   O peration     | Version:  v2012                                 |
|   \\  /    A nd           | Website:  www.openfoam.com                      |
|    \\/     M anipulation  |                                                 |
\*---------------------------------------------------------------------------*/
FoamFile
{
    version     2.0;
    format      ascii;
    class       volVectorField;
    location    "600/topAir";
    object      U;
}
// * * * * * * * * * * * * * * * * * * * * * * * * * * * * * * * * * * * * * //

dimensions      [0 1 -1 0 0 0 0];


internalField   nonuniform List<vector> 
1200
(
(0.1046452 -0.0024671449 0.00087492756)
(0.11846626 -0.002541345 0.0013114591)
(0.1303373 -0.002316006 0.0013870198)
(0.13960598 -0.001751816 0.0012418294)
(0.14770359 -0.00091284982 0.00088959591)
(0.15527742 2.7056132e-05 0.00029018991)
(0.16259366 0.00096278206 -0.00058747999)
(0.16990719 0.0018297002 -0.001904467)
(0.17741527 0.0027251339 -0.0039285011)
(0.18543122 0.0038379332 -0.0069788334)
(0.19411529 0.0055020246 -0.011462791)
(0.20313082 0.0080907571 -0.017791274)
(0.21095899 0.01199504 -0.026212917)
(0.21603915 0.016597629 -0.036538601)
(0.21845362 0.021742831 -0.047950216)
(0.21881282 0.026711936 -0.059226694)
(0.21732992 0.030921856 -0.069200022)
(0.21418755 0.034101867 -0.077157911)
(0.20985396 0.03616876 -0.082908644)
(0.20508974 0.037133366 -0.08662143)
(0.20072781 0.037130216 -0.088629578)
(0.19739435 0.03641042 -0.089287979)
(0.19537531 0.035224555 -0.088900874)
(0.19466886 0.033766253 -0.087694477)
(0.19507347 0.032202578 -0.08579355)
(0.19614663 0.030760054 -0.083171928)
(0.19696537 0.029837186 -0.079574274)
(0.19566399 0.030234526 -0.07443441)
(0.18879266 0.033872702 -0.066781134)
(0.15033582 0.046648158 -0.054647674)
(0.098690002 -0.0039038006 0.00084645306)
(0.098468551 -0.0047145688 0.0012753243)
(0.098913282 -0.0047577133 0.0014524013)
(0.099829554 -0.0042818699 0.0015291772)
(0.10129658 -0.0034793732 0.0015325885)
(0.10334508 -0.0026016823 0.0014476994)
(0.10595413 -0.0018184436 0.0012493446)
(0.10928823 -0.0011827477 0.00087875186)
(0.11384351 -0.00038106218 0.00021269156)
(0.12011733 0.00097099465 -0.00092748021)
(0.12907448 0.0037194653 -0.002850343)
(0.14097511 0.0088765317 -0.0059314585)
(0.15554332 0.017243736 -0.010673589)
(0.1709813 0.027726781 -0.017164117)
(0.18526393 0.039750929 -0.024944501)
(0.19669395 0.052005488 -0.033062601)
(0.20417093 0.063427164 -0.040592671)
(0.20740117 0.07316602 -0.047023175)
(0.20698962 0.080529732 -0.052189589)
(0.20422761 0.08510954 -0.056094363)
(0.20060186 0.087035378 -0.058797559)
(0.19722393 0.086924523 -0.060341709)
(0.1946355 0.085449478 -0.060810426)
(0.19299126 0.083103304 -0.060327894)
(0.19225041 0.080210902 -0.05897983)
(0.19217696 0.077165691 -0.056677317)
(0.19214199 0.07469715 -0.05303534)
(0.19088974 0.074314108 -0.047194195)
(0.18708265 0.079259337 -0.037184792)
(0.16164924 0.094537627 -0.018132844)
(0.098818484 -0.002920303 0.00087347632)
(0.097967883 -0.0042246457 0.0013234034)
(0.096335753 -0.004630191 0.0015216821)
(0.094294851 -0.0047167302 0.0016388074)
(0.092311527 -0.0046753728 0.0017273284)
(0.090566406 -0.0045944973 0.0017997065)
(0.089044806 -0.0045797513 0.001874518)
(0.087680107 -0.0046693356 0.0019947268)
(0.086526321 -0.0046958943 0.0022273167)
(0.085898504 -0.0045616783 0.0026016996)
(0.086319874 -0.0039991656 0.003068757)
(0.089927499 -0.0014744169 0.0032146193)
(0.099923925 0.0059191635 0.0023899601)
(0.115553 0.019090079 0.00044136048)
(0.13416021 0.036134183 -0.0025033291)
(0.15229277 0.054304682 -0.0056183118)
(0.16708637 0.070861562 -0.0083102237)
(0.17727236 0.084649038 -0.01037499)
(0.18307315 0.095150182 -0.011995286)
(0.18569514 0.10218524 -0.013471691)
(0.18662781 0.10587566 -0.014956211)
(0.18688848 0.10663791 -0.016292342)
(0.18682293 0.10510355 -0.017155896)
(0.18644433 0.10188112 -0.01742519)
(0.18574457 0.0974439 -0.017049513)
(0.18472112 0.092210265 -0.015924537)
(0.1832003 0.086885941 -0.01373974)
(0.18081485 0.083035641 -0.0099359625)
(0.17793544 0.084226724 -0.0035009693)
(0.16375063 0.096558541 0.0089054502)
(0.096861588 -0.0015567115 0.00083897934)
(0.094645242 -0.0022989023 0.0012507409)
(0.090934205 -0.0025240169 0.0014102723)
(0.086396103 -0.0025540853 0.001486612)
(0.081851129 -0.0024914166 0.0015361184)
(0.077543599 -0.0023676575 0.0015753415)
(0.073435134 -0.0022233533 0.0016287884)
(0.069426603 -0.0020964531 0.0017424221)
(0.065388195 -0.002026616 0.0019908148)
(0.061107417 -0.0021879346 0.0024865278)
(0.056169233 -0.0030840604 0.0034646549)
(0.050174804 -0.0047285986 0.0053649189)
(0.042595111 -0.0052746536 0.008836717)
(0.038603597 0.0011001911 0.01368496)
(0.045273627 0.016179807 0.019317363)
(0.060313801 0.033416981 0.025310455)
(0.076782676 0.048266203 0.031034056)
(0.091508185 0.06033711 0.036220278)
(0.10398993 0.069664055 0.040606948)
(0.11474076 0.076233042 0.043735591)
(0.12427537 0.08003266 0.04565462)
(0.13272752 0.081125782 0.046590295)
(0.13991161 0.079900872 0.04671213)
(0.14551563 0.076898575 0.04623081)
(0.14934094 0.072655564 0.045412187)
(0.15144596 0.067608203 0.044538106)
(0.15220204 0.062362522 0.043863997)
(0.15260846 0.05812649 0.043283189)
(0.15648483 0.057636728 0.042263527)
(0.1786908 0.066554647 0.041749392)
(0.10590728 -0.0024682815 0.00099822)
(0.12058233 -0.0025529896 0.0013877168)
(0.13370246 -0.0024183958 0.0013753292)
(0.14430641 -0.0020414448 0.001130159)
(0.15354691 -0.001492109 0.00067105444)
(0.16200687 -0.00095258295 -4.4707138e-05)
(0.16970131 -0.00057204635 -0.0010780742)
(0.17654723 -0.00042008852 -0.0025934787)
(0.18252287 -0.00056057906 -0.0048444181)
(0.18760787 -0.0010750037 -0.0081207615)
(0.19173922 -0.0020917743 -0.012765367)
(0.19482189 -0.003752831 -0.019040815)
(0.19626401 -0.0061966016 -0.026910306)
(0.19579146 -0.01010063 -0.035660309)
(0.19508816 -0.01467688 -0.044085123)
(0.19547577 -0.019014694 -0.05111611)
(0.19675927 -0.022108565 -0.056508244)
(0.19796578 -0.023563364 -0.060576829)
(0.19831857 -0.023761009 -0.06363458)
(0.19767564 -0.023442078 -0.065809014)
(0.19644608 -0.023159834 -0.067167024)
(0.19520997 -0.023024854 -0.067778451)
(0.19439072 -0.022986446 -0.06770134)
(0.19420511 -0.023013576 -0.066961893)
(0.19478037 -0.023085432 -0.065530981)
(0.19622588 -0.023056816 -0.06327825)
(0.19854448 -0.022515229 -0.059868983)
(0.20152487 -0.020384105 -0.054696149)
(0.20465773 -0.013257054 -0.046971696)
(0.19971868 0.0090428922 -0.036890144)
(0.099978895 -0.0039153258 0.0010514929)
(0.1006965 -0.0047621737 0.0015898953)
(0.10252159 -0.0049442996 0.0017771123)
(0.10498971 -0.0047266692 0.0018076609)
(0.10791712 -0.0043045246 0.0017232679)
(0.11124379 -0.0039306873 0.0015010885)
(0.11487732 -0.0038047001 0.0010968204)
(0.11874098 -0.0040385831 0.00043610988)
(0.12281801 -0.0047545489 -0.00060244868)
(0.12708289 -0.0061405621 -0.0021710049)
(0.13155889 -0.0084380733 -0.0044268522)
(0.13633355 -0.011917474 -0.0075411935)
(0.14155769 -0.016882537 -0.011555665)
(0.14719066 -0.023973216 -0.01588642)
(0.15319964 -0.031724915 -0.019492782)
(0.15931243 -0.037956009 -0.021612328)
(0.1649232 -0.040693102 -0.022470151)
(0.16909531 -0.039614149 -0.023166009)
(0.17127187 -0.036018465 -0.024441916)
(0.17164054 -0.03178858 -0.026361026)
(0.17101595 -0.02825881 -0.028539367)
(0.17019475 -0.025641796 -0.030544889)
(0.16947344 -0.023737254 -0.031980256)
(0.16887727 -0.022514014 -0.032448441)
(0.1685984 -0.022138043 -0.031541145)
(0.1691871 -0.022718256 -0.028852674)
(0.17166197 -0.024106468 -0.023855334)
(0.17827995 -0.025702181 -0.015727911)
(0.19501182 -0.02591454 -0.003153506)
(0.25410785 -0.018799804 0.012209118)
(0.1001181 -0.0029484739 0.00107182)
(0.10022221 -0.0042777233 0.0016371111)
(0.10003583 -0.00472662 0.0018715427)
(0.099698857 -0.0048905572 0.0019782266)
(0.099426247 -0.0049649516 0.0020169595)
(0.099334673 -0.0050373567 0.0019882516)
(0.099438752 -0.0051959318 0.0018896575)
(0.099717739 -0.0055389629 0.0017334273)
(0.10015349 -0.0062074428 0.0015426999)
(0.10079638 -0.0074500743 0.0012960998)
(0.10176154 -0.0096008038 0.00085091848)
(0.1032186 -0.013136729 -1.1703834e-05)
(0.1053813 -0.018756459 -0.0012071365)
(0.10829948 -0.026996018 -0.0019470635)
(0.11196104 -0.036106578 -0.0008719246)
(0.11602406 -0.04286785 0.0037948964)
(0.12143538 -0.04386245 0.012196486)
(0.12719593 -0.039732593 0.020746545)
(0.13200454 -0.033191217 0.027327259)
(0.13519348 -0.027337013 0.031175223)
(0.13694602 -0.023372474 0.033106885)
(0.13799101 -0.020285345 0.035203838)
(0.1396285 -0.018305649 0.037535524)
(0.14174284 -0.017482632 0.040009874)
(0.14353349 -0.018290786 0.041859951)
(0.14436332 -0.020438308 0.04329958)
(0.14478421 -0.023564257 0.044558636)
(0.14612098 -0.02805067 0.045859098)
(0.15335438 -0.034175025 0.04892373)
(0.18293046 -0.041906095 0.048575785)
(0.098105027 -0.0015836368 0.0010469592)
(0.096785269 -0.0023551614 0.0015936946)
(0.09444839 -0.0026132141 0.001814177)
(0.09153476 -0.002688996 0.0019035218)
(0.088620235 -0.0026881079 0.0019211081)
(0.085897032 -0.0026446499 0.0018711705)
(0.083364954 -0.0026019383 0.0017574793)
(0.080990131 -0.0026170472 0.0015958986)
(0.078726201 -0.002773095 0.0014196117)
(0.076543209 -0.0032095342 0.001275625)
(0.074363611 -0.0041966603 0.0012236361)
(0.071973195 -0.0062140564 0.0013604028)
(0.069016303 -0.0099518992 0.0016256637)
(0.065226196 -0.015656741 0.001937192)
(0.060736066 -0.020760212 0.0045588532)
(0.057292225 -0.020096747 0.015658258)
(0.059645538 -0.011430575 0.040429264)
(0.063072179 0.0016961048 0.064326487)
(0.067047302 0.015037977 0.082699275)
(0.07218816 0.025820265 0.095567531)
(0.079161275 0.033062136 0.10372827)
(0.08738927 0.035888722 0.1073388)
(0.094850278 0.035567973 0.10832197)
(0.10095975 0.03312137 0.10741456)
(0.10540076 0.029399022 0.10487298)
(0.10858523 0.024248331 0.099956849)
(0.11046608 0.01809591 0.092940575)
(0.11144802 0.010991191 0.084271076)
(0.11846898 0.0032774315 0.075022676)
(0.14354671 -0.0036340273 0.051941455)
(0.10578141 -0.0024893482 0.00034292759)
(0.12025578 -0.0025726212 0.00055766722)
(0.13328225 -0.0024121912 0.00063449589)
(0.14390092 -0.0019880231 0.000615498)
(0.1532003 -0.0013811629 0.00052548649)
(0.16167375 -0.00078208534 0.00036538993)
(0.16934873 -0.00030042378 0.00010159821)
(0.17621007 2.9107922e-05 -0.00028318893)
(0.18226867 0.00017903087 -0.00080415449)
(0.18750988 0.00010310457 -0.0014813923)
(0.19188121 -0.00028332617 -0.0023252536)
(0.1952945 -0.0011271036 -0.0032884137)
(0.19711828 -0.0026649824 -0.0041698313)
(0.19704208 -0.0057279283 -0.00457532)
(0.19668865 -0.0093714763 -0.0041090418)
(0.19671655 -0.012879523 -0.0030797613)
(0.19623621 -0.016188071 -0.0024643363)
(0.19463454 -0.019562989 -0.0030635802)
(0.19207985 -0.022987792 -0.0049608983)
(0.18900061 -0.026390006 -0.0077033752)
(0.18580506 -0.029737874 -0.01069699)
(0.18285759 -0.032927984 -0.01345129)
(0.18038336 -0.035760524 -0.015652325)
(0.17842419 -0.038046614 -0.017148486)
(0.17697788 -0.039732305 -0.017819301)
(0.17616924 -0.040991883 -0.01746202)
(0.17655394 -0.042068024 -0.015958147)
(0.17947522 -0.042521818 -0.014306701)
(0.18636245 -0.038683447 -0.015905848)
(0.19632274 -0.022158868 -0.02237124)
(0.09985588 -0.0039290436 0.00033666141)
(0.10033936 -0.0047644 0.00056569562)
(0.10203261 -0.0049053099 0.00065461763)
(0.10448091 -0.0046202579 0.00063875116)
(0.10741753 -0.0041148778 0.00053108424)
(0.11072151 -0.0036453388 0.00031385667)
(0.11427583 -0.0033550914 -4.837967e-05)
(0.11798532 -0.0033073965 -0.00059640955)
(0.12180021 -0.0035836228 -0.0013803342)
(0.12571243 -0.0043079006 -0.0024811805)
(0.12976524 -0.0057286849 -0.0039646599)
(0.13410619 -0.0082623529 -0.0058276454)
(0.13903708 -0.012524229 -0.007861701)
(0.14455182 -0.019170624 -0.0095224688)
(0.15014363 -0.025578684 -0.010614149)
(0.15464975 -0.029681777 -0.012240678)
(0.15671986 -0.032041579 -0.015792816)
(0.15635092 -0.034081441 -0.021205097)
(0.15454621 -0.035871097 -0.027540341)
(0.15194995 -0.03742991 -0.033781002)
(0.14882362 -0.039019396 -0.039048748)
(0.14533948 -0.040775017 -0.04280417)
(0.14159203 -0.042554749 -0.044827543)
(0.13749136 -0.044171211 -0.045098429)
(0.13306481 -0.045710549 -0.043424533)
(0.12855038 -0.047801912 -0.039318377)
(0.12555604 -0.051273807 -0.032566857)
(0.12878808 -0.055781504 -0.026320866)
(0.14534779 -0.054479522 -0.032468439)
(0.19446741 -0.036896581 -0.053393243)
(0.09999948 -0.0029441081 0.0003410646)
(0.099880385 -0.0042675706 0.00057634306)
(0.099568743 -0.0046969984 0.0006792556)
(0.099220914 -0.0048296501 0.0006810391)
(0.098980571 -0.004860572 0.00059128765)
(0.098915543 -0.0048697559 0.0003899219)
(0.099016399 -0.0049271951 3.9946533e-05)
(0.099240616 -0.0051129507 -0.00050945886)
(0.099574149 -0.005545001 -0.0013267781)
(0.099990455 -0.006416912 -0.0024896034)
(0.1004598 -0.0081129313 -0.0041325017)
(0.10104355 -0.011331673 -0.0063808385)
(0.10200051 -0.017199668 -0.0091669842)
(0.10334408 -0.025882813 -0.011890248)
(0.10422319 -0.032832954 -0.014010921)
(0.10347659 -0.034488726 -0.016490876)
(0.099718238 -0.032931884 -0.020779026)
(0.094989215 -0.032004992 -0.024475631)
(0.090985925 -0.031740415 -0.028337138)
(0.087175715 -0.032382996 -0.032989183)
(0.0825895 -0.034119641 -0.0369269)
(0.077166031 -0.036627579 -0.038632733)
(0.071560472 -0.039316049 -0.037742664)
(0.065980634 -0.041865629 -0.034435287)
(0.061375645 -0.044262777 -0.027940313)
(0.05812967 -0.047582026 -0.017538481)
(0.057882411 -0.053046153 -0.0047269574)
(0.06473427 -0.061425513 0.0024297287)
(0.076714144 -0.065591169 -0.019727956)
(0.10447053 -0.054593352 -0.063123253)
(0.097988865 -0.0015789014 0.00033231841)
(0.096449564 -0.0023455433 0.00055690799)
(0.093989264 -0.0025957113 0.00065068139)
(0.091063509 -0.0026615989 0.00064418286)
(0.088178414 -0.00264817 0.00054652337)
(0.085476907 -0.0025871299 0.00033634979)
(0.082932029 -0.0025174619 -2.6096085e-05)
(0.080488067 -0.0024899975 -0.00059847987)
(0.078095916 -0.0025736493 -0.0014630032)
(0.075627225 -0.0028998142 -0.0027387084)
(0.072811854 -0.0037463489 -0.0046855267)
(0.069165585 -0.0057668867 -0.0077772803)
(0.063825707 -0.01050846 -0.013004749)
(0.054902783 -0.018798455 -0.021695002)
(0.0406812 -0.023171768 -0.032244484)
(0.025493644 -0.018019617 -0.037928776)
(0.014793335 -0.011477735 -0.031529092)
(0.024348359 -0.0087942238 0.0043100109)
(0.028202153 -0.00046444209 0.040529657)
(0.032540412 0.0084320096 0.063655997)
(0.038802102 0.014969363 0.07709773)
(0.045529809 0.018069321 0.083778158)
(0.051178334 0.018239183 0.086250804)
(0.054715418 0.015930763 0.085670386)
(0.055183726 0.011373357 0.082370626)
(0.052470613 0.0040583919 0.076198434)
(0.0474909 -0.0063052204 0.067008223)
(0.043591924 -0.020626208 0.051461589)
(0.029966219 -0.027448425 -0.0020366192)
(0.034169686 -0.0088750509 -0.066569825)
(0.10575258 -0.0024905848 0.00017444387)
(0.12014913 -0.0025683748 0.00030999176)
(0.13308966 -0.0023924518 0.00038197616)
(0.14364168 -0.0019365305 0.00039159019)
(0.15290224 -0.0012712828 0.00034492368)
(0.16138096 -0.00057398912 0.00024312459)
(0.1691314 5.6936982e-05 8.8141727e-05)
(0.17616216 0.00060184578 -0.00011902893)
(0.18253978 0.0010656472 -0.0003819998)
(0.1883602 0.0014395948 -0.00068745317)
(0.19375451 0.0016789889 -0.000976423)
(0.19894269 0.0016704026 -0.0010760624)
(0.20370985 0.0012576112 -0.00055570744)
(0.20810326 0.00020586909 0.0012565954)
(0.21329474 0.00032626533 0.0045497237)
(0.21874532 0.0014902147 0.0086648301)
(0.22309876 0.0026001262 0.013038609)
(0.22588913 0.0030136001 0.017530053)
(0.22752569 0.0026041811 0.022197336)
(0.22844871 0.0013900752 0.027121805)
(0.22885758 -0.00049046637 0.032387321)
(0.22874678 -0.002832953 0.038020056)
(0.22798105 -0.0054698375 0.043841751)
(0.22649597 -0.0082822248 0.049372011)
(0.22455476 -0.010990578 0.053939735)
(0.22268584 -0.012816903 0.056858714)
(0.2210798 -0.012347111 0.057496579)
(0.21855644 -0.0081192484 0.055027813)
(0.20998614 0.0019914289 0.046352894)
(0.15131685 0.030461105 0.025396556)
(0.099825364 -0.003930532 0.00017159977)
(0.10020755 -0.0047588871 0.00031123074)
(0.10176766 -0.004877678 0.00038008324)
(0.10408628 -0.0045469218 0.00037287895)
(0.10689553 -0.0039588019 0.00029161927)
(0.1100611 -0.0033516379 0.00012986586)
(0.1134584 -0.0028507833 -0.00012796641)
(0.11699688 -0.0024959398 -0.00050739219)
(0.12064319 -0.0023264486 -0.0010395015)
(0.1244414 -0.002455691 -0.0017470116)
(0.1285726 -0.0031561082 -0.0026045445)
(0.13347811 -0.0049708936 -0.0034418648)
(0.13990643 -0.0085583235 -0.0037602511)
(0.14808346 -0.012745673 -0.0027197861)
(0.1570553 -0.012639524 -0.00077324348)
(0.16456072 -0.0093413006 0.00052296457)
(0.16930989 -0.0063882883 0.0003436163)
(0.17178984 -0.0053695951 -0.0012068572)
(0.17273889 -0.0064295931 -0.0039101224)
(0.17260384 -0.0088286297 -0.0074003532)
(0.17177121 -0.011793 -0.010964271)
(0.17035783 -0.014762526 -0.013686297)
(0.16818217 -0.017535268 -0.01495975)
(0.16498875 -0.020356554 -0.01477018)
(0.16117883 -0.023400806 -0.013652257)
(0.15822916 -0.025702084 -0.013016172)
(0.15906669 -0.023875576 -0.015526502)
(0.16495517 -0.013289889 -0.023140303)
(0.17770672 0.010089232 -0.036571053)
(0.18039276 0.050521197 -0.053563652)
(0.099970082 -0.0029416091 0.00017222735)
(0.099752264 -0.0042620717 0.00031197162)
(0.099303656 -0.0046824801 0.00038297248)
(0.098811446 -0.0047968942 0.00037620864)
(0.098415979 -0.00479651 0.00028862823)
(0.098166624 -0.0047545464 0.00010765552)
(0.098037357 -0.0047299993 -0.00019188922)
(0.097972915 -0.004789766 -0.00064908961)
(0.097915618 -0.0050464346 -0.0013197066)
(0.097820253 -0.0057354834 -0.0022895551)
(0.0977153 -0.007376082 -0.003625614)
(0.097925525 -0.011054302 -0.0052987417)
(0.099232132 -0.018495732 -0.0068720385)
(0.10135211 -0.02648309 -0.0069879464)
(0.10430149 -0.025931168 -0.0050506331)
(0.10583248 -0.020170727 -0.0030387972)
(0.1015999 -0.014950188 -0.0039233409)
(0.094741952 -0.011922826 -0.0077156214)
(0.086723598 -0.012723878 -0.013464312)
(0.07931865 -0.016192223 -0.019377608)
(0.072481991 -0.020685725 -0.023579452)
(0.065831918 -0.025039375 -0.02438536)
(0.059517409 -0.028629795 -0.021598131)
(0.053586242 -0.031660103 -0.016641202)
(0.049197213 -0.034434248 -0.01206816)
(0.048073535 -0.037082465 -0.012825329)
(0.056006433 -0.034389738 -0.025457435)
(0.075304692 -0.019903819 -0.043889241)
(0.097873771 0.0070357536 -0.064354057)
(0.090066488 0.060847194 -0.087710241)
(0.097960029 -0.0015806313 0.00016754502)
(0.096324531 -0.0023494689 0.0003009153)
(0.093729866 -0.002599459 0.00036530469)
(0.090659716 -0.0026615053 0.00035115529)
(0.087614942 -0.0026393463 0.00025405094)
(0.084714801 -0.0025628972 5.8941688e-05)
(0.081905439 -0.0024691014 -0.00026645062)
(0.079091661 -0.0024090525 -0.00077716511)
(0.076126341 -0.0024635905 -0.0015680419)
(0.07273666 -0.0028035642 -0.0028178706)
(0.068395524 -0.0038571543 -0.0048298565)
(0.062000833 -0.0068108621 -0.0082302395)
(0.051963451 -0.014676402 -0.014493761)
(0.033061438 -0.023283857 -0.024842984)
(0.005534026 -0.014710595 -0.032540215)
(-0.018988423 0.0012264083 -0.028796586)
(-0.033371324 0.0034449646 -0.021831313)
(-0.039349365 0.0021695572 -0.010460665)
(-0.028216647 -0.0009669966 0.010733114)
(-0.020140326 -0.00045802956 0.029216949)
(-0.010909265 0.00044294234 0.040643202)
(-0.0034198121 7.3290574e-05 0.046561958)
(0.0014727648 -0.0017164184 0.048933096)
(0.0029310267 -0.0051285175 0.049031871)
(-2.0331832e-05 -0.011617831 0.04542714)
(-0.0093917173 -0.021539023 0.026950583)
(-0.017446035 -0.022713772 -0.01354455)
(-0.011209935 -0.00116253 -0.056099641)
(0.031322023 0.029801195 -0.082964865)
(0.11870509 0.078832354 -0.10653782)
(0.10573588 -0.0024946446 3.1767697e-05)
(0.12008972 -0.0025754141 5.083262e-05)
(0.13297728 -0.0024012392 4.8041148e-05)
(0.14347882 -0.0019450695 2.251845e-05)
(0.15269422 -0.001276734 -2.4133904e-05)
(0.16112989 -0.00057346208 -9.2306017e-05)
(0.16883386 6.4954542e-05 -0.0001854349)
(0.17580727 0.00061347813 -0.00030993919)
(0.18211379 0.0010674745 -0.00047416841)
(0.18786416 0.0013998375 -0.00068135107)
(0.19324826 0.0015295034 -0.00091418434)
(0.1986666 0.0012954284 -0.0010919541)
(0.20421472 0.00066012995 -0.00097153328)
(0.21011301 0.00016846691 -0.0001910942)
(0.21671094 0.0010303802 0.0010548088)
(0.22311812 0.0023306797 0.0023061848)
(0.22848969 0.0036403455 0.0034091975)
(0.23307937 0.0052587334 0.004607434)
(0.23763134 0.0072726079 0.0062014506)
(0.24268878 0.0096079474 0.0084250883)
(0.24842128 0.012267977 0.011502366)
(0.25439729 0.015382315 0.015654184)
(0.25962566 0.018935004 0.020982163)
(0.26299904 0.022697119 0.027239442)
(0.26365429 0.026451635 0.03373576)
(0.26078498 0.030274419 0.039361172)
(0.25286251 0.03481333 0.042735351)
(0.23683856 0.041163055 0.042269052)
(0.20895751 0.051237689 0.035737631)
(0.11570386 0.073059893 0.021497052)
(0.099806323 -0.0039352339 2.8039087e-05)
(0.10013206 -0.0047669235 4.2540256e-05)
(0.10161506 -0.0048866337 3.0234207e-05)
(0.10385334 -0.004553356 -1.1874007e-05)
(0.10658115 -0.0039584747 -8.3596633e-05)
(0.10965795 -0.0033401731 -0.0001875017)
(0.11294838 -0.0028274764 -0.00033050802)
(0.11635009 -0.0024698699 -0.00052443706)
(0.11983357 -0.0023291463 -0.00078205951)
(0.12348091 -0.0025717378 -0.0011110567)
(0.12759451 -0.0035874958 -0.0014854999)
(0.13291083 -0.0060968397 -0.0017818134)
(0.14045249 -0.010367113 -0.0016552221)
(0.15025848 -0.011371589 -0.00050342363)
(0.15991496 -0.0076594206 0.00066031696)
(0.16725194 -0.0034159772 0.00086997715)
(0.17331827 -0.00037284288 0.00036429227)
(0.17949645 0.0016732152 -0.00031699743)
(0.18582665 0.0032290612 -0.0010312663)
(0.19284286 0.0051183637 -0.0017046003)
(0.20129569 0.0084591914 -0.0021419429)
(0.21127772 0.014262917 -0.001905958)
(0.22199831 0.022750478 -0.00041819194)
(0.2323277 0.0332295 0.002420969)
(0.2411065 0.044614537 0.0061427106)
(0.24682537 0.056544712 0.0097250574)
(0.24673799 0.069642565 0.011695532)
(0.23649444 0.084378246 0.010493477)
(0.21381389 0.1024376 0.0041284189)
(0.13284241 0.12995759 -0.011005941)
(0.099950793 -0.0029426363 2.7202368e-05)
(0.099675676 -0.0042649223 4.0490833e-05)
(0.09914479 -0.0046859819 2.6433534e-05)
(0.098559894 -0.0047993441 -1.9758911e-05)
(0.098062337 -0.0047964095 -0.00010050213)
(0.097691074 -0.0047499152 -0.00022167743)
(0.097400093 -0.0047235756 -0.00039626451)
(0.097106093 -0.0047950268 -0.00064637007)
(0.096723768 -0.0051065788 -0.0010049528)
(0.096191372 -0.0059771345 -0.0015194208)
(0.095601623 -0.0081448095 -0.0022387252)
(0.095706434 -0.013215576 -0.0031636105)
(0.097216697 -0.023377295 -0.0040976664)
(0.099950699 -0.025167172 -0.0032659522)
(0.10522396 -0.018606058 -0.0010598072)
(0.10441424 -0.012083465 -0.0013932705)
(0.10146388 -0.0064441484 -0.0034551277)
(0.095962127 -0.0018816915 -0.0065454851)
(0.090944603 0.00049585813 -0.010370912)
(0.085734546 0.00019564825 -0.014938816)
(0.080263992 -0.0014568429 -0.018856813)
(0.078933897 -0.0019610902 -0.02012164)
(0.085664344 0.0008569569 -0.018356386)
(0.10157835 0.008202393 -0.015365615)
(0.12499722 0.020688452 -0.012701581)
(0.14631547 0.036229943 -0.010293189)
(0.162406 0.053267728 -0.0097902475)
(0.16797318 0.072784495 -0.01307727)
(0.16293107 0.097507632 -0.021214286)
(0.11046589 0.13325412 -0.034872529)
(0.097940783 -0.0015808128 2.6122339e-05)
(0.096248104 -0.002350004 3.7925957e-05)
(0.093570136 -0.0025998527 2.2007648e-05)
(0.090403244 -0.0026612882 -2.7077037e-05)
(0.087248747 -0.0026383745 -0.00011299599)
(0.08421048 -0.0025606505 -0.0002437686)
(0.081201741 -0.0024677557 -0.0004382607)
(0.078075798 -0.0024177556 -0.00073050525)
(0.074601126 -0.0025124075 -0.0011840537)
(0.07033777 -0.0029877599 -0.0019211893)
(0.064367342 -0.0044861893 -0.0031900108)
(0.054601689 -0.0089753074 -0.0055717256)
(0.039116519 -0.02116456 -0.010689806)
(1.2466274e-05 -0.017720542 -0.020043713)
(-0.03667061 0.0028067411 -0.018047615)
(-0.056031025 0.0057408838 -0.014899701)
(-0.071793942 0.0058169401 -0.012734172)
(-0.079648582 0.0030029977 -0.0087617113)
(-0.081016817 -0.0017945782 -0.0025278004)
(-0.07347351 -0.0069934761 0.0056217498)
(-0.064229812 -0.011554721 0.012088481)
(-0.055245939 -0.0155614 0.016402175)
(-0.046683615 -0.018425004 0.018708894)
(-0.037121945 -0.018610654 0.019223829)
(-0.024549096 -0.013648208 0.017007679)
(0.0014459811 0.0051311453 0.0053147389)
(0.024919107 0.029496913 -0.004651094)
(0.032688766 0.049192024 -0.018704983)
(0.04270388 0.075977689 -0.039806924)
(0.042046037 0.11277631 -0.073460871)
(0.10573584 -0.0024948025 -7.2088454e-05)
(0.12008881 -0.0025757458 -0.00013198832)
(0.13297388 -0.0024017173 -0.00017311594)
(0.14347094 -0.001945603 -0.00019633479)
(0.15267893 -0.0012773895 -0.00020467855)
(0.1611018 -0.00057507258 -0.00020020649)
(0.16878452 6.0302316e-05 -0.00018329458)
(0.175726 0.0006035044 -0.00015222768)
(0.18199012 0.0010502521 -0.00010527371)
(0.18768797 0.0013663362 -4.85932e-05)
(0.19301786 0.0014589614 1.4698475e-06)
(0.19843478 0.0011609728 -1.206362e-05)
(0.20417094 0.00051559244 -0.00025261816)
(0.21045403 0.00035371728 -0.00094463158)
(0.21721087 0.0013685146 -0.0020194165)
(0.22351874 0.0026640662 -0.003215055)
(0.22849126 0.0040142521 -0.0045075659)
(0.23260795 0.0056906697 -0.0061967154)
(0.23653298 0.0076773988 -0.0086203513)
(0.24076518 0.0098317179 -0.012053904)
(0.24556353 0.012021881 -0.016698403)
(0.25071044 0.014274469 -0.022613557)
(0.25531857 0.01679804 -0.029645648)
(0.2582065 0.019450217 -0.037391891)
(0.25846441 0.022017959 -0.045122881)
(0.25544247 0.02461656 -0.051678767)
(0.24788264 0.028024781 -0.055525931)
(0.23298677 0.033635073 -0.054766879)
(0.20725157 0.043828562 -0.046869592)
(0.11937594 0.067065529 -0.02939922)
(0.099805824 -0.0039355751 -7.2377338e-05)
(0.10012972 -0.0047676533 -0.00013704396)
(0.10160915 -0.0048878184 -0.00018233496)
(0.10384141 -0.0045550758 -0.00020610411)
(0.1065591 -0.003961183 -0.00020909823)
(0.10961862 -0.0033458792 -0.00019050872)
(0.11288325 -0.0028400917 -0.00014696938)
(0.11625212 -0.0024950289 -7.194187e-05)
(0.11969229 -0.0023780648 3.8377978e-05)
(0.12328611 -0.0026759296 0.00018769682)
(0.12736335 -0.0038185523 0.00035788819)
(0.13276006 -0.0065685587 0.00046769428)
(0.14055845 -0.010952666 0.00031339759)
(0.15075145 -0.010590391 -0.00048906758)
(0.16021135 -0.0063998576 -0.0013052333)
(0.16736745 -0.002270563 -0.0015254956)
(0.17351129 0.00067261872 -0.0013377822)
(0.1795347 0.0026721473 -0.0011957716)
(0.18542169 0.0040318141 -0.0012686846)
(0.19182843 0.0051405617 -0.0015753906)
(0.19937546 0.0069443457 -0.0021909844)
(0.20842952 0.010902533 -0.0033781415)
(0.21833726 0.017819871 -0.0054672857)
(0.2277534 0.027044061 -0.0086856638)
(0.23562203 0.037338016 -0.012816545)
(0.24041933 0.047748699 -0.01670654)
(0.24080145 0.059502962 -0.018834748)
(0.23285684 0.07335892 -0.017015013)
(0.21437659 0.091431426 -0.0086664968)
(0.14730738 0.11994076 0.0088983409)
(0.099950249 -0.0029429377 -7.2231015e-05)
(0.099673036 -0.0042655666 -0.00013630817)
(0.099137853 -0.0046871449 -0.00018193244)
(0.098545418 -0.0048013377 -0.00020591912)
(0.098034305 -0.0047999501 -0.00020722938)
(0.097639303 -0.0047573169 -0.00018287093)
(0.097311716 -0.004738448 -0.00012580187)
(0.096963974 -0.0048240673 -2.4169793e-05)
(0.096494202 -0.0051702424 0.00013801099)
(0.095817454 -0.0061277192 0.00038683199)
(0.095034659 -0.0085160246 0.00074880248)
(0.095080406 -0.014126373 0.0012326031)
(0.096464198 -0.025268026 0.0018774637)
(0.10028713 -0.023803838 0.0015177036)
(0.10477677 -0.016913035 4.3595102e-05)
(0.1039467 -0.01052024 0.00010017147)
(0.10015353 -0.0047995136 0.0012900906)
(0.093531638 -0.00028053547 0.0030785174)
(0.086510438 0.0016324236 0.0053224869)
(0.078028648 0.00021948126 0.0083139948)
(0.06711779 -0.0035105676 0.011479153)
(0.05634539 -0.006254406 0.013248685)
(0.055376774 -0.0047572091 0.012520565)
(0.067936651 0.0014046876 0.010238494)
(0.091629597 0.012081867 0.0086002785)
(0.11952339 0.026954469 0.0082126747)
(0.14064607 0.04281442 0.009445035)
(0.15196239 0.061142548 0.014338626)
(0.15432725 0.085320524 0.024410044)
(0.12340273 0.12006475 0.038663584)
(0.097940251 -0.0015809593 -7.0206153e-05)
(0.096245392 -0.0023503228 -0.00013133651)
(0.093562792 -0.0026004252 -0.000173623)
(0.090387478 -0.0026622166 -0.00019361438)
(0.087216727 -0.0026399118 -0.00018956241)
(0.084149079 -0.0025639758 -0.00015755634)
(0.081094057 -0.0024747537 -8.750008e-05)
(0.077891346 -0.0024318471 3.792956e-05)
(0.074269081 -0.0025459488 0.00025251054)
(0.069702005 -0.0030769164 0.00062562262)
(0.063091553 -0.0047488005 0.001303529)
(0.051932072 -0.0098478312 0.0026766984)
(0.034264205 -0.023800792 0.0061571857)
(-0.014850866 -0.011229738 0.014950161)
(-0.043864665 0.0048017777 0.013806899)
(-0.063729864 0.0074199338 0.01148485)
(-0.07771841 0.0071800801 0.0089583736)
(-0.085309457 0.0041786249 0.0049962544)
(-0.08691958 -0.00057380558 2.9637185e-05)
(-0.080606626 -0.0056455651 -0.0053331888)
(-0.071301218 -0.010415474 -0.0085011552)
(-0.062744765 -0.015014708 -0.0099525551)
(-0.055050011 -0.019227345 -0.010285884)
(-0.046663865 -0.021569875 -0.0097579377)
(-0.036651438 -0.019286204 -0.0076146549)
(-0.024808971 -0.0075572081 0.001341062)
(0.0037354893 0.018389109 0.016956061)
(0.019263849 0.040392806 0.031172269)
(0.036814999 0.065486082 0.047862878)
(0.062503668 0.097949292 0.061085392)
(0.10575211 -0.0024912325 -0.0002099944)
(0.12014542 -0.0025696479 -0.00038132276)
(0.13307814 -0.0023943764 -0.00049134807)
(0.14361763 -0.0019390306 -0.00054250993)
(0.15286047 -0.0012744316 -0.00054163203)
(0.16131546 -0.00057792697 -0.00049043074)
(0.16903568 5.2095007e-05 -0.00038889796)
(0.1760262 0.00059390252 -0.0002461006)
(0.18234083 0.0010441585 -6.0200969e-05)
(0.18807596 0.0013954244 0.00015575815)
(0.19337777 0.0015967954 0.00033698784)
(0.19848797 0.0015228179 0.00029816706)