/*--------------------------------*- C++ -*----------------------------------*\
| =========                 |                                                 |
| \\      /  F ield         | OpenFOAM: The Open Source CFD Toolbox           |
|  \\    /   O peration     | Version:  v2012                                 |
|   \\  /    A nd           | Website:  www.openfoam.com                      |
|    \\/     M anipulation  |                                                 |
\*---------------------------------------------------------------------------*/
FoamFile
{
    version     2.0;
    format      ascii;
    class       volScalarField;
    location    "330/topAir";
    object      rho;
}
// * * * * * * * * * * * * * * * * * * * * * * * * * * * * * * * * * * * * * //

dimensions      [1 -3 0 0 0 0 0];


internalField   nonuniform List<scalar> 
1200
(
1.0773186
1.0115914
0.95866609
0.91452235
0.87652317
0.84308447
0.81328821
0.78677712
0.76366997
0.74355894
0.72622472
0.71161874
0.70001864
0.69808586
0.6991431
0.70334375
0.71013989
0.71839875
0.72688204
0.73464258
0.74114822
0.74619272
0.74976087
0.75190654
0.75267435
0.75204623
0.7498827
0.74581995
0.7390215
0.72827688
1.1567393
1.1532034
1.1483939
1.1425502
1.1358495
1.1284314
1.1204228
1.1115495
1.0995196
1.0838183
1.0624917
1.0345481
1.00029
0.96472891
0.93159337
0.90370428
0.88182528
0.86553152
0.85412982
0.84694109
0.84307298
0.8414061
0.84083829
0.84040212
0.83925918
0.83661401
0.83155728
0.82280998
0.80814852
0.78591089
1.1585781
1.1584597
1.1582399
1.1578973
1.1574139
1.1567742
1.1559658
1.1549697
1.1537094
1.152098
1.1499027
1.1435513
1.1266868
1.0970108
1.0586115
1.0171423
0.97780839
0.94379477
0.91600222
0.89444039
0.87856276
0.86740047
0.85978695
0.8545631
0.85068502
0.84722801
0.84330739
0.83788248
0.8292041
0.81484884
1.158618
1.1586141
1.1586047
1.1585862
1.1585542
1.1585033
1.1584271
1.1583178
1.1581639
1.1579482
1.1576313
1.1569793
1.1549771
1.1440423
1.1141107
1.0727214
1.0314566
0.9941709
0.96180887
0.93471952
0.91292737
0.89604558
0.88331056
0.87379565
0.866594
0.86089399
0.85596013
0.85099972
0.84481182
0.83555285
1.0773448
1.0122846
0.9604592
0.91773599
0.88147731
0.85014523
0.82286935
0.79915753
0.778826
0.76191556
0.74866493
0.73944184
0.73482478
0.74325209
0.75603866
0.77172923
0.78753048
0.800778
0.81030603
0.81643041
0.82013212
0.82224857
0.82326024
0.82330741
0.82231974
0.82009584
0.81626626
0.81007869
0.79970003
0.78240548
1.1567421
1.1532723
1.1486444
1.1431311
1.136943
1.130255
1.1232381
1.1160777
1.1089788
1.1021948
1.0960493
1.0909337
1.0872971
1.085883
1.0863814
1.0872017
1.0860222
1.0817015
1.07487
1.0667473
1.0580936
1.049012
1.039376
1.0288993
1.0172686
1.0042605
0.9898668
0.97429712
0.95724733
0.93423314
1.1585783
1.158463
1.1582546
1.1579383
1.1575041
1.1569456
1.1562616
1.1554565
1.1545411
1.1535374
1.1524813
1.1513576
1.1501412
1.1489426
1.1462989
1.1394337
1.1250376
1.1035419
1.0793887
1.0567143
1.0370241
1.017997
0.99977969
0.98242946
0.96630068
0.95072924
0.93428523
0.91712386
0.89935838
0.88059795
1.158618
1.1586142
1.1586054
1.1585887
1.1585608
1.158518
1.1584562
1.1583712
1.1582586
1.1581134
1.1579282
1.1576734
1.1571777
1.1551756
1.1469581
1.1258364
1.0916446
1.0513348
1.0121348
0.97763207
0.94972796
0.9293281
0.91349237
0.90067969
0.88974134
0.8804056
0.87294678
0.86651676
0.86021142
0.85207497
1.0773706
1.012207
0.96025415
0.9173897
0.88096482
0.84942648
0.82182627
0.79754666
0.77623114
0.75773633
0.74212424
0.72969037
0.72126613
0.72700966
0.73806911
0.75340797
0.77052982
0.78751059
0.80313676
0.81680838
0.82844393
0.8380704
0.84549571
0.85031647
0.85217891
0.85105883
0.84714968
0.840452
0.82908704
0.80820853
1.1567424
1.1532619
1.1486141
1.1430751
1.136854
1.1301185
1.1230189
1.115704
1.1083427
1.1011499
1.0944151
1.0885737
1.0842968
1.0827768
1.0838385
1.0852411
1.0849834
1.0827383
1.0784329
1.0722685
1.0644896
1.0549886
1.043343
1.0291713
1.0123969
0.9932955
0.97218892
0.94969486
0.92516065
0.89590333
1.1585783
1.1584625
1.158253
1.1579353
1.1574995
1.1569399
1.1562545
1.1554465
1.1545252
1.1535107
1.1524429
1.1513941
1.1504877
1.1497405
1.1470358
1.138025
1.124345
1.1105603
1.096222
1.0815478
1.0665752
1.0498501
1.0298314
1.0061332
0.9795847
0.95277466
0.92799516
0.90642672
0.88460277
0.85670798
1.158618
1.1586142
1.1586054
1.1585886
1.1585607
1.158518
1.1584567
1.1583729
1.1582627
1.1581223
1.1579484
1.1577354
1.1574274
1.1561961
1.1455685
1.1148198
1.0813319
1.0642557
1.0372318
1.0039475
0.97377607
0.95020127
0.93183308
0.91700737
0.90439368
0.89340722
0.88404628
0.87566406
0.8602546
0.82594832
1.077399
1.0122143
0.96018834
0.91720004
0.88057691
0.84871937
0.82061588
0.79557695
0.77311569
0.75291035
0.73480765
0.71890736
0.70600969
0.70716344
0.71042682
0.71243785
0.71166796
0.70903394
0.70617452
0.70416586
0.70370268
0.70512518
0.70840014
0.71326375
0.71907596
0.72431108
0.72624102
0.72164851
0.71300458
0.69825928
1.1567429
1.1532593
1.1485989
1.1430331
1.1367631
1.1299424
1.1226974
1.1151411
1.107389
1.099586
1.0919649
1.0849634
1.0794117
1.0766748
1.0749652
1.0716765
1.0669899
1.0616668
1.0559719
1.0496593
1.0422159
1.0330373
1.0217396
1.0083183
0.99286159
0.97530993
0.95602327
0.93533719
0.89169773
0.82309398
1.1585783
1.1584624
1.1582521
1.1579324
1.1574927
1.1569256
1.156227
1.1553961
1.1544367
1.1533615
1.1522037
1.1510446
1.1500414
1.1488345
1.1408243
1.1259311
1.1142358
1.1055294
1.0965946
1.0856572
1.0711996
1.0518789
1.0275269
0.99918101
0.96730937
0.93357564
0.90442147
0.88258921
0.86130133
0.82234888
1.158618
1.1586142
1.1586053
1.1585884
1.1585602
1.1585169
1.1584544
1.1583684
1.1582543
1.1581071
1.1579216
1.1576841
1.1572201
1.1537258
1.1176397
1.0554327
1.0148307
1.0144721
1.0159319
0.99871861
0.97634717
0.95508562
0.93751802
0.92247392
0.90555351
0.88631539
0.86693661
0.84860959
0.82735107
0.80679404
1.0774445
1.0122777
0.96024992
0.91724768
0.88060041
0.84870677
0.8205573
0.79546109
0.77293586
0.75267836
0.73459114
0.71892413
0.70679194
0.71143621
0.71570747
0.71597517
0.7119863
0.7064374
0.70012357
0.6935168
0.68702222
0.68102502
0.67586877
0.67181753
0.66897004
0.66710734
0.66551185
0.66287496
0.65745955
0.64705467
1.156744
1.1532606
1.148597
1.1430232
1.1367389
1.1298954
1.1226165
1.1150123
1.1071964
1.0993226
1.0916649
1.0847809
1.0797159
1.0775901
1.0740419
1.0687654
1.0624809
1.0504662
1.0337314
1.0136802
0.99070024
0.96446481
0.93481443
0.9025358
0.8692643
0.83663035
0.80518744
0.77450798
0.74332939
0.7079281
1.1585783
1.1584624
1.1582518
1.1579313
1.1574899
1.1569197
1.156216
1.1553771
1.1544058
1.1533149
1.1521433
1.1509948
1.150038
1.1478417
1.1320136
1.1197614
1.1123159
1.1072305
1.1013743
1.092646
1.0779333
1.0554993
1.0265478
0.99484068
0.96347848
0.92923658
0.89227228
0.85195869
0.8070818
0.75518268
1.158618
1.1586142
1.1586053
1.1585883
1.15856
1.1585163
1.1584532
1.158366
1.1582497
1.1580986
1.1579057
1.1576436
1.1568946
1.1486187
1.0547845
0.99570584
0.98514722
0.98007307
0.97505377
0.96757904
0.95628942
0.94297322
0.92971595
0.91719693
0.90527991
0.89619543
0.88380546
0.85492877
0.81478277
0.78321329
1.0774995
1.0123718
0.96037311
0.91739445
0.88076813
0.84889368
0.82075966
0.79567727
0.77316511
0.75291286
0.73480257
0.71904654
0.70672738
0.7113551
0.71643299
0.7179914
0.71517298
0.70967444
0.7035763
0.6974051
0.69160269
0.68653358
0.68245945
0.67951543
0.67767913
0.67668226
0.67579309
0.67360086
0.66827423
0.65800125
1.1567453
1.1532645
1.1486044
1.1430347
1.1367552
1.1299171
1.122644
1.1150452
1.1072321
1.0993531
1.0916677
1.0847032
1.0794888
1.0774291
1.0744157
1.0694516
1.0634375
1.0544194
1.0423531
1.0298763
1.0186982
1.0082691
0.995974
0.97929446
0.95747806
0.93069103
0.89897064
0.86141052
0.81553883
0.75972415
1.1585783
1.1584625
1.1582521
1.1579318
1.1574907
1.1569209
1.1562177
1.1553792
1.1544079
1.1533158
1.1521384
1.1509726
1.1500038
1.1482367
1.1314165
1.1165397
1.1071101
1.1015076
1.0955693
1.0858889
1.0688756
1.0424897
1.0085577
0.97420478
0.94693585
0.92883944
0.91521973
0.89270828
0.85652901
0.80432667
1.158618
1.1586142
1.1586053
1.1585884
1.15856
1.1585164
1.1584533
1.1583661
1.1582499
1.1580989
1.1579066
1.1576532
1.1570521
1.1506369
1.0619154
0.98992403
0.97561825
0.96848505
0.96226736
0.95542324
0.94691417
0.93569532
0.92368757
0.91185152
0.90033482
0.88917507
0.87745129
0.86400548
0.83796041
0.81144356
1.0775575
1.0124836
0.96053883
0.91761477
0.8810464
0.84923981
0.82118671
0.79619859
0.77379663
0.75366674
0.73564414
0.71980693
0.70691548
0.70818252
0.71254223
0.71670496
0.71843036
0.71822733
0.71789081
0.71875538
0.72143211
0.72579844
0.73124348
0.73702925
0.74260935
0.74739712
0.74961179
0.74501123
0.7306228
0.71506874
1.1567468
1.1532705
1.1486197
1.1430653
1.1368083
1.1300023
1.1227737
1.1152351
1.1075008
1.0997139
1.0920981
1.0850643
1.0794055
1.0766249
1.075794
1.0733506
1.0691165
1.0640964
1.0587885
1.0530467
1.0462854
1.0377073
1.0266221
1.0128596
0.99673995
0.9785132
0.95829568
0.93777781
0.90941117
0.84765169
1.1585784
1.1584627
1.1582529
1.1579338
1.1574949
1.1569288
1.1562314
1.1554017
1.1544433
1.1533681
1.1522064
1.1510327
1.1500028
1.1490083
1.1427327
1.1255183
1.1104813
1.0993712
1.0894204
1.0772852
1.0603783
1.0378195
1.0104174
0.9817731
0.95544061
0.932367
0.91058302
0.89251649
0.87640542
0.8473302
1.158618
1.1586142
1.1586053
1.1585885
1.1585603
1.1585171
1.1584547
1.1583687
1.1582546
1.1581074
1.1579219
1.1576882
1.1573008
1.1549063
1.1273584
1.054976
1.0061885
1.0024973
1.0047751
0.99954788
0.981018
0.96114647
0.94429591
0.9307672
0.91851483
0.90650146
0.88776928
0.86398156
0.84202074
0.819022
1.0776045
1.0126028
0.96076689
0.91799359
0.88164373
0.85017003
0.82263605
0.79842724
0.77718045
0.75875029
0.74321329
0.73085901
0.72248594
0.7283178
0.73988426
0.75649824
0.77532179
0.79374182
0.81038618
0.82467076
0.83638387
0.84541175
0.85159662
0.85481481
0.85512466
0.85281954
0.84825723
0.84135859
0.83028233
0.80816116
1.1567481
1.1532783
1.1486443
1.1431216
1.1369185
1.1302025
1.1231239
1.1158317
1.1084924
1.1013194
1.0946014
1.0887586
1.0844377
1.0828616
1.0842578
1.0864455
1.0866247
1.0843336
1.079803
1.0732903
1.0650025
1.0548866
1.042708
1.0284175
1.0123158
0.99489072
0.97634082
0.95698354
0.93702845
0.91269646
1.1585784
1.158463
1.1582541
1.1579373
1.1575026
1.1569443
1.1562605
1.155454
1.1545342
1.1535205
1.1524513
1.1513954
1.1504718
1.1497754
1.1479117
1.139453
1.1241742
1.108626
1.0935199
1.0780256
1.0616333
1.043255
1.0222038
0.99932748
0.97635143
0.95494723
0.93519351
0.9167354
0.89952996
0.88016715
1.158618
1.1586142
1.1586054
1.1585887
1.1585608
1.1585182
1.158457
1.1583733
1.1582631
1.1581226
1.1579485
1.1577364
1.1574528
1.1565932
1.1492693
1.119522
1.0792793
1.0579909
1.0360885
1.0067381
0.97872487
0.95581749
0.93773407
0.92317282
0.91106099
0.90091051
0.89218951
0.88431932
0.87201728
0.85319302
1.0776212
1.0127502
0.96105955
0.91844064
0.88226927
0.8510145
0.82379211
0.80011903
0.77981525
0.76293762
0.74972219
0.74053574
0.73593645
0.7443217
0.75698975
0.77261419
0.78860291
0.80227553
0.81240529
0.8192105
0.82355456
0.82616567
0.82741484
0.82738308
0.82603203
0.8232692
0.81886813
0.81207181
0.80098635
0.78440241
1.1567489
1.1532915
1.1486795
1.1431843
1.1370157
1.1303477
1.1233493
1.1162057
1.1091216
1.1023566
1.0962232
1.091109
1.0874466
1.0859555
1.086362
1.0871806
1.0862343
1.0822169
1.0756724
1.0677595
1.0592596
1.0503065
1.0407858
1.0305203
1.0193694
1.0072581
0.99419332
0.98035794
0.96569192
0.94281448
1.1585784
1.1584636
1.1582559
1.1579406
1.1575074
1.1569503
1.1562674
1.1554632
1.1545482
1.1535443
1.1524866
1.1513585
1.1501235
1.1488875
1.1462286
1.1393958
1.1256407
1.1045751
1.0809356
1.0586758
1.039705
1.0222794
1.0057099
0.98980248
0.9745409
0.95920965
0.94341694
0.92701502
0.9098023
0.89138988
1.158618
1.1586142
1.1586055
1.1585888
1.158561
1.1585182
1.1584564
1.1583714
1.1582586
1.158113
1.157927
1.1576694
1.1571564
1.155029
1.1465812
1.1250526
1.0903773
1.0505543
1.0126772
0.97950739
0.95236392
0.93182288
0.91611903
0.90348148
0.89293104
0.88449917
0.87754941
0.87144667
0.86542616
0.8588798
1.0776183
1.0120941
0.95931163
0.91527604
0.87736318
0.84399125
0.81423831
0.78770858
0.76457686
0.74444117
0.72708682
0.71246908
0.70086841
0.69893707
0.70000601
0.70425019
0.71116522
0.7196375
0.72842823
0.73657553
0.74351532
0.74899271
0.7529331
0.75534159
0.75624709
0.755657
0.7534852
0.74940238
0.7426017
0.73210225
1.1567467
1.1532242
1.1484322
1.1426084
1.1359289
1.1285318
1.120545
1.1118276
1.1000235
1.0845491
1.0634354
1.0354359
1.0008852
0.96490677
0.93145718
0.90353835
0.88192324
0.86606696
0.85517839
0.84852458
0.845211
0.84410182
0.84404817
0.84405674
0.84331812
0.84110184
0.83654305
0.82828346
0.81391721
0.79118178
1.1585783
1.1584603
1.1582413
1.1578998
1.1574177
1.1567794
1.1559726
1.1549811
1.1537296
1.1521303
1.1499519
1.1437499
1.1267414
1.0965214
1.0575397
1.0159039
0.97650981
0.94286532
0.91568572
0.89483259
0.87966763
0.86917668
0.86216392
0.85745791
0.85402695
0.8509815
0.84748052
0.84248891
0.83421636
0.82000951
1.158618
1.1586141
1.1586047
1.1585863
1.1585543
1.1585035
1.1584274
1.1583181
1.1581644
1.1579489
1.1576319
1.1569767
1.1549025
1.1432701
1.1120638
1.0702354
1.029138
0.99251609
0.96104169
0.934869
0.91391524
0.89774346
0.88559044
0.87655061
0.86974417
0.86439166
0.85978552
0.85516114
0.8493415
0.84041123
)
;

boundaryField
{
    maxY
    {
        type            calculated;
        value           nonuniform List<scalar> 
300
(
1.1586175
1.1586175
1.1586175
1.1586175
1.1586175
1.1586175
1.1586175
1.1586175
1.1586175
1.1586175
1.1586136
1.1586137
1.1586137
1.1586137
1.1586137
1.1586137
1.1586137
1.1586137
1.1586137
1.1586136
1.1586041
1.1586049
1.1586048
1.1586048
1.1586048
1.1586048
1.1586048
1.1586049
1.1586049
1.1586042
1.1585856
1.1585882
1.1585881
1.1585879
1.1585878
1.1585878
1.1585879
1.1585881
1.1585883
1.1585857
1.1585536
1.1585603
1.1585602
1.1585597
1.1585594
1.1585595
1.1585598
1.1585603
1.1585605
1.1585538
1.1585027
1.1585175
1.1585175
1.1585164
1.1585158
1.1585159
1.1585165
1.1585177
1.1585177
1.158503
1.1584265
1.1584557
1.1584562
1.1584539
1.1584527
1.1584528
1.1584541
1.1584565
1.1584559
1.1584268
1.1583172
1.1583707
1.1583724
1.1583679
1.1583655
1.1583656
1.1583682
1.1583728
1.1583709
1.1583176
1.1581634
1.1582581
1.1582622
1.1582538
1.1582491
1.1582493
1.1582541
1.1582625
1.158258
1.1581639
1.1579477
1.1581129
1.1581218
1.1581066
1.1580981
1.1580984
1.1581069
1.1581221
1.1581125
1.1579484
1.1576308
1.1579277
1.1579479
1.1579211
1.1579052
1.1579061
1.1579214
1.157948
1.1579265
1.1576313
1.1569788
1.1576729
1.1577349
1.1576836
1.1576431
1.1576527
1.1576877
1.1577359
1.1576689
1.1569762
1.1549765
1.1571772
1.1574269
1.1572196
1.1568941
1.1570516
1.1573002
1.1574522
1.1571559
1.1549019
1.1440418
1.1551751
1.1561956
1.1537252
1.1486182
1.1506364
1.1549058
1.1565927
1.1550285
1.1432696
1.1141102
1.1469576
1.145568
1.1176392
1.054784
1.0619149
1.1273579
1.1492688
1.1465807
1.1120633
1.0727209
1.1258359
1.1148194
1.0554323
0.99570545
0.98992364
1.0549756
1.1195215
1.1250521
1.0702349
1.0314561
1.0916442
1.0813315
1.0148303
0.98514684
0.97561788
1.0061881
1.0792789
1.0903768
1.0291376
0.99417051
1.0513344
1.0642552
1.0144717
0.9800727
0.96848468
1.0024969
1.0579905
1.0505539
0.99251571
0.96180851
1.0121344
1.0372314
1.0159315
0.97505339
0.962267
1.0047747
1.0360881
1.0126768
0.96104133
0.93471918
0.9776317
1.0039471
0.99871822
0.96757867
0.95542288
0.99954749
1.0067377
0.97950701
0.93486866
0.91292704
0.9497276
0.9737757
0.97634679
0.95628907
0.94691382
0.98101762
0.9787245
0.95236356
0.91391491
0.89604527
0.92932776
0.95020091
0.95508526
0.94297287
0.93569498
0.96114611
0.95581713
0.93182254
0.89774314
0.88331025
0.91349204
0.93183274
0.93751767
0.92971561
0.92368723
0.94429556
0.93773372
0.9161187
0.88559013
0.87379535
0.90067937
0.91700704
0.92247359
0.9171966
0.91185119
0.93076686
0.92317248
0.90348116
0.87655031
0.86659371
0.88974103
0.90439336
0.90555319
0.90527959
0.9003345
0.9185145
0.91106066
0.89293073
0.86974387
0.8608937
0.8804053
0.8934069
0.88631509
0.89619512
0.88917476
0.90650114
0.9009102
0.88449886
0.86439136
0.85595984
0.87294648
0.88404598
0.86693632
0.88380516
0.87745099
0.88776897
0.8921892
0.87754911
0.85978523
0.85099944
0.86651647
0.87566376
0.84860931
0.85492849
0.86400519
0.86398126
0.88431901
0.87144637
0.85516085
0.84481154
0.86021113
0.86025431
0.8273508
0.81478251
0.83796013
0.84202046
0.87201698
0.86542587
0.84934122
0.83555258
0.85207469
0.82594805
0.80679379
0.78321305
0.81144331
0.81902174
0.85319273
0.85887951
0.84041095
)
;
    }
    minX
    {
        type            calculated;
        value           nonuniform List<scalar> 
40
(
1.1586221
1.1586211
1.15862
1.158619
1.1586221
1.1586211
1.15862
1.158619
1.1586221
1.1586211
1.15862
1.158619
1.1586221
1.1586211
1.15862
1.158619
1.1586221
1.1586211
1.15862
1.158619
1.1586221
1.1586211
1.15862
1.158619
1.1586221
1.1586211
1.15862
1.158619
1.1586221
1.1586211
1.15862
1.158619
1.1586221
1.1586211
1.15862
1.158619
1.1586221
1.1586211
1.15862
1.158619
)
;
    }
    maxX
    {
        type            calculated;
        value           nonuniform List<scalar> 
40
(
0.72828467
0.7859441
0.81485323
0.8355701
0.78242799
0.93431676
0.88066249
0.85175002
0.80817599
0.8957464
0.85663008
0.82567042
0.69817368
0.82420916
0.82188249
0.80277523
0.64705702
0.70851106
0.75612624
0.78578204
0.65794252
0.76008456
0.80407815
1.1586179
0.71505115
0.84774663
0.84728756
0.81850788
0.80811686
0.91293381
0.88056174
0.85394114
0.78436495
0.94285709
0.89142747
0.85885267
0.73207343
0.79112599
0.81996124
0.84038505
)
;
    }
    minZ
    {
        type            calculated;
        value           nonuniform List<scalar> 
120
(
1.0773186
1.1567393
1.1585781
1.158618
1.0115914
1.1532034
1.1584597
1.1586141
0.95866609
1.1483939
1.1582399
1.1586047
0.91452235
1.1425502
1.1578973
1.1585862
0.87652317
1.1358495
1.1574139
1.1585542
0.84308447
1.1284314
1.1567742
1.1585033
0.81328821
1.1204228
1.1559658
1.1584271
0.78677712
1.1115495
1.1549697
1.1583178
0.76366997
1.0995196
1.1537094
1.1581639
0.74355894
1.0838183
1.152098
1.1579482
0.72622472
1.0624917
1.1499027
1.1576313
0.71161874
1.0345481
1.1435513
1.1569793
0.70001864
1.00029
1.1266868
1.1549771
0.69808586
0.96472891
1.0970108
1.1440423
0.6991431
0.93159337
1.0586115
1.1141107
0.70334375
0.90370428
1.0171423
1.0727214
0.71013989
0.88182528
0.97780839
1.0314566
0.71839875
0.86553152
0.94379477
0.9941709
0.72688204
0.85412982
0.91600222
0.96180887
0.73464258
0.84694109
0.89444039
0.93471952
0.74114822
0.84307298
0.87856276
0.91292737
0.74619272
0.8414061
0.86740047
0.89604558
0.74976087
0.84083829
0.85978695
0.88331056
0.75190654
0.84040212
0.8545631
0.87379565
0.75267435
0.83925918
0.85068502
0.866594
0.75204623
0.83661401
0.84722801
0.86089399
0.7498827
0.83155728
0.84330739
0.85596013
0.74581995
0.82280998
0.83788248
0.85099972
0.7390215
0.80814852
0.8292041
0.84481182
0.72827688
0.78591089
0.81484884
0.83555285
)
;
    }
    maxZ
    {
        type            calculated;
        value           nonuniform List<scalar> 
120
(
1.0776183
1.1567467
1.1585783
1.158618
1.0120941
1.1532242
1.1584603
1.1586141
0.95931163
1.1484322
1.1582413
1.1586047
0.91527604
1.1426084
1.1578998
1.1585863
0.87736318
1.1359289
1.1574177
1.1585543
0.84399125
1.1285318
1.1567794
1.1585035
0.81423831
1.120545
1.1559726
1.1584274
0.78770858
1.1118276
1.1549811
1.1583181
0.76457686
1.1000235
1.1537296
1.1581644
0.74444117
1.0845491
1.1521303
1.1579489
0.72708682
1.0634354
1.1499519
1.1576319
0.71246908
1.0354359
1.1437499
1.1569767
0.70086841
1.0008852
1.1267414
1.1549025
0.69893707
0.96490677
1.0965214
1.1432701
0.70000601
0.93145718
1.0575397
1.1120638
0.70425019
0.90353835
1.0159039
1.0702354
0.71116522
0.88192324
0.97650981
1.029138
0.7196375
0.86606696
0.94286532
0.99251609
0.72842823
0.85517839
0.91568572
0.96104169
0.73657553
0.84852458
0.89483259
0.934869
0.74351532
0.845211
0.87966763
0.91391524
0.74899271
0.84410182
0.86917668
0.89774346
0.7529331
0.84404817
0.86216392
0.88559044
0.75534159
0.84405674
0.85745791
0.87655061
0.75624709
0.84331812
0.85402695
0.86974417
0.755657
0.84110184
0.8509815
0.86439166
0.7534852
0.83654305
0.84748052
0.85978552
0.74940238
0.82828346
0.84248891
0.85516114
0.7426017
0.81391721
0.83421636
0.8493415
0.73210225
0.79118178
0.82000951
0.84041123
)
;
    }
    topAir_to_rightSolid
    {
        type            calculated;
        value           nonuniform List<scalar> 
130
(
0.47042915
0.4655916
0.4606294
0.45580589
0.45129486
0.44720831
0.44360095
0.44049431
0.43788992
0.43579391
0.43423465
0.4332004
0.43268329
0.47400611
0.46828792
0.46258102
0.45717636
0.45223884
0.44785481
0.44404459
0.44080476
0.43811944
0.43597138
0.43437738
0.43332107
0.43279245
0.48138706
0.47357926
0.46623758
0.45965301
0.453902
0.44896895
0.44479483
0.44131918
0.43849509
0.43626371
0.43461611
0.43352693
0.43298376
0.49291731
0.48097676
0.47091188
0.46261159
0.4557919
0.45018597
0.44559015
0.44186075
0.43888386
0.43657119
0.43486757
0.4337428
0.43318134
0.50726531
0.48824557
0.47486841
0.46489382
0.45716688
0.45103845
0.4461579
0.44226561
0.43919321
0.43682526
0.43508535
0.43393827
0.43336885
0.50736151
0.48834091
0.47496221
0.46498793
0.45726561
0.45115244
0.44628483
0.44240571
0.4393449
0.43698567
0.43524998
0.43410658
0.43354089
0.49321643
0.48127733
0.47121219
0.46291556
0.45610098
0.45050151
0.44594053
0.44224984
0.43930746
0.43702169
0.43533821
0.43423167
0.43368146
0.48187667
0.47404938
0.46670883
0.46013568
0.45440175
0.44947993
0.44534058
0.44191531
0.43913987
0.43695998
0.43535112
0.43429173
0.43376476
0.47457354
0.46883416
0.46312927
0.45774063
0.45282885
0.44847635
0.44471248
0.44152991
0.43890638
0.43683473
0.43529831
0.43428182
0.43377449
0.47102652
0.46617254
0.46121736
0.45641191
0.45193078
0.44788292
0.44432561
0.44127684
0.43874604
0.43673775
0.43524226
0.43425022
0.43375431
)
;
    }
    topAir_to_heater
    {
        type            calculated;
        value           nonuniform List<scalar> 
40
(
0.48221622
0.48092181
0.47839707
0.47481012
0.48835444
0.48678505
0.48369123
0.47930484
0.50176984
0.49958999
0.49525357
0.48898267
0.52528006
0.52228248
0.51590206
0.50592117
0.56386663
0.56071583
0.55255925
0.53679514
0.56400111
0.56083979
0.55266845
0.53689273
0.5257006
0.52267865
0.51625567
0.50623683
0.50239291
0.50018743
0.49581563
0.48950889
0.48910997
0.48749156
0.48434693
0.47991495
0.48306408
0.48171815
0.47911271
0.47545347
)
;
    }
    topAir_to_leftSolid
    {
        type            calculated;
        value           nonuniform List<scalar> 
130
(
0.4061573
0.40619217
0.4062466
0.40631933
0.4064023
0.4064931
0.40658803
0.40668312
0.40677308
0.40685521
0.40692261
0.40697269
0.40699982
0.40618639
0.40621388
0.40626576
0.40633918
0.40643161
0.40653581
0.40664506
0.40675658
0.40686429
0.40696266
0.40704379
0.407104
0.40713802
0.40624841
0.40627187
0.4063224
0.40639983
0.40650542
0.40663684
0.40677233
0.40690947
0.40704789
0.40717268
0.40727571
0.40735142
0.40739549
0.40634798
0.40637316
0.40642795
0.40651331
0.40663238
0.40677966
0.40694836
0.40712445
0.40730296
0.40747571
0.40762259
0.40772863
0.40778642
0.40650107
0.40652785
0.40658523
0.40667588
0.4068055
0.4069655
0.40714917
0.40735484
0.40756545
0.40776692
0.40792899
0.40804779
0.40811333
0.40669465
0.40672371
0.40678042
0.40686963
0.40699799
0.40715169
0.40731957
0.4075096
0.40772713
0.40795438
0.40812556
0.4082458
0.40831309
0.40690596
0.40693255
0.40698434
0.40706283
0.40717096
0.40731018
0.40745848
0.40762206
0.40780383
0.40800661
0.40818014
0.40830099
0.40836337
0.40707258
0.40709552
0.40714282
0.40721479
0.40731002
0.4074271
0.40755471
0.40769205
0.40783985
0.40798987
0.40812041
0.40821881
0.40827786
0.40716121
0.40718423
0.40723551
0.40731096
0.40740105
0.40750354
0.40761372
0.40772973
0.40784605
0.40795805
0.40806003
0.40813751
0.40818546
0.40721484
0.40723586
0.40728226
0.40735417
0.40744473
0.40754127
0.40764024
0.40773918
0.40783719
0.40793277
0.40802061
0.40809053
0.40813688
)
;
    }
}


// ************************************************************************* //
