/*--------------------------------*- C++ -*----------------------------------*\
| =========                 |                                                 |
| \\      /  F ield         | OpenFOAM: The Open Source CFD Toolbox           |
|  \\    /   O peration     | Version:  v2012                                 |
|   \\  /    A nd           | Website:  www.openfoam.com                      |
|    \\/     M anipulation  |                                                 |
\*---------------------------------------------------------------------------*/
FoamFile
{
    version     2.0;
    format      ascii;
    class       volScalarField;
    location    "510/bottomWater";
    object      p;
}
// * * * * * * * * * * * * * * * * * * * * * * * * * * * * * * * * * * * * * //

dimensions      [1 -1 -2 0 0 0 0];


internalField   nonuniform List<scalar> 
1460
(
353.46552
353.46241
353.47441
353.45478
353.46726
353.45446
353.46401
353.46873
353.46223
353.4549
353.45429
353.45671
353.45867
353.44848
353.45036
353.45843
353.44499
353.44416
353.4556
353.4621
353.46782
353.46749
353.46382
353.4461
353.44828
353.45645
353.45364
353.44937
353.4529
353.45185
274.41267
274.4529
274.46127
274.41789
274.40968
274.4233
274.4437
274.47748
274.45958
274.42904
274.40041
274.40754
274.41111
274.41581
274.45089
274.48209
274.43394
274.44735
274.46299
274.49004
274.50362
274.48894
274.47666
274.43352
274.42728
274.46152
274.4619
274.41415
274.4206
274.4324
196.29493
196.26796
196.25445
196.2846
196.29693
196.29745
196.25118
196.26453
196.2632
196.26346
196.28612
196.32624
196.32238
196.28396
196.26453
196.2562
196.27741
196.26003
196.26238
196.2653
196.27013
196.27716
196.25305
196.27986
196.29737
196.30075
196.25054
196.29682
196.32546
196.33732
117.68465
117.64841
117.66818
117.652
117.70891
117.67149
117.66725
117.67546
117.66382
117.61838
117.65296
117.67573
117.67549
117.64944
117.64499
117.64179
117.66198
117.62996
117.67027
117.68306
117.69041
117.68649
117.66721
117.67095
117.70169
117.67038
117.63173
117.65797
117.6489
117.6137
39.263498
39.269802
39.256834
39.232965
39.245225
39.235737
39.244828
39.23983
39.240918
39.264942
39.260504
39.266071
39.272945
39.259863
39.261831
39.261585
39.243223
39.233473
39.21311
39.228533
39.225511
39.219682
39.224154
39.217904
39.223905
39.205824
39.244989
39.2365
39.248416
39.295318
353.47409
353.47038
353.48161
353.45576
353.46087
353.46111
353.46155
353.45932
353.45453
353.45075
353.45156
353.4513
353.45414
353.45473
353.45419
353.45271
353.45189
353.45343
353.45531
353.45717
353.4644
353.45752
353.47361
353.46454
353.43713
353.45472
353.44362
353.44742
353.44782
353.45058
274.39671
274.40124
274.4478
274.41406
274.40123
274.40297
274.4036
274.42142
274.41825
274.42677
274.4199
274.39998
274.39166
274.40034
274.41189
274.4285
274.41767
274.41354
274.42027
274.43722
274.47629
274.43641
274.50042
274.45837
274.42358
274.43493
274.43663
274.43227
274.4038
274.41376
196.30701
196.28251
196.25587
196.28817
196.2864
196.30395
196.30815
196.29779
196.2986
196.30517
196.29918
196.28783
196.30792
196.2961
196.2917
196.27618
196.29947
196.27498
196.26066
196.24098
196.23563
196.26665
196.2406
196.2289
196.27919
196.30325
196.29936
196.30259
196.30637
196.33419
117.69067
117.63139
117.65465
117.65309
117.67931
117.66132
117.66941
117.61243
117.65773
117.64066
117.60691
117.66598
117.67385
117.66772
117.65953
117.65781
117.66215
117.67594
117.65123
117.63714
117.6354
117.62516
117.62656
117.63073
117.63832
117.64135
117.63705
117.61162
117.65578
117.66056
39.274544
39.272355
39.248127
39.235397
39.242905
39.246364
39.255047
39.268686
39.261316
39.261005
39.264412
39.254996
39.262026
39.247858
39.242987
39.249324
39.260729
39.243903
39.238287
39.247835
39.236221
39.240051
39.252166
39.234642
39.227348
39.228775
39.254065
39.263788
39.251026
39.258044
353.46896
353.46876
353.47748
353.46566
353.4606
353.45311
353.46379
353.46209
353.45625
353.46006
353.45583
353.4486
353.45581
353.44144
353.4421
353.43916
353.43774
353.44603
353.45548
353.46065
353.4603
353.46159
353.46041
353.4609
353.46323
353.47216
353.46789
353.46146
353.45008
353.45031
274.40945
274.43201
274.47119
274.45893
274.425
274.40815
274.40207
274.40159
274.42419
274.44963
274.44942
274.43064
274.45669
274.43044
274.43715
274.43458
274.42252
274.40944
274.41118
274.4151
274.43382
274.40027
274.39896
274.41287
274.39035
274.44304
274.4708
274.45781
274.42488
274.42527
196.29707
196.26711
196.26973
196.26427
196.24621
196.26045
196.29695
196.27181
196.25482
196.2484
196.28594
196.29481
196.25784
196.28624
196.303
196.27781
196.27273
196.2854
196.29893
196.31671
196.28273
196.31231
196.30254
196.31462
196.27689
196.26314
196.23979
196.27161
196.28827
196.30025
117.68138
117.64726
117.6893
117.67222
117.64962
117.63674
117.67879
117.67821
117.60434
117.64398
117.64009
117.62706
117.61662
117.6234
117.65011
117.64364
117.6272
117.65211
117.66221
117.66769
117.62448
117.67324
117.6637
117.64907
117.67355
117.6126
117.63804
117.64998
117.65027
117.6509
39.252545
39.24418
39.237586
39.229781
39.242726
39.253186
39.267161
39.259994
39.25411
39.229998
39.212591
39.227316
39.236733
39.222335
39.217628
39.229681
39.248709
39.245992
39.250876
39.264531
39.268953
39.252506
39.251903
39.253438
39.239407
39.254405
39.243011
39.22452
39.235366
39.241591
353.47071
353.47228
353.47545
353.46297
353.47895
353.46638
353.47049
353.47276
353.46926
353.47953
353.44728
353.47057
353.4661
353.46235
353.45205
353.46797
353.46507
353.46176
353.45414
353.45842
353.46366
353.46258
353.45725
353.44849
353.44387
353.44822
353.45017
353.44927
353.4739
353.4536
274.44041
274.45655
274.48399
274.48277
274.50047
274.44117
274.40871
274.40515
274.46445
274.50155
274.43037
274.48628
274.49767
274.48287
274.4664
274.50331
274.48273
274.43619
274.40771
274.40097
274.40125
274.40198
274.39658
274.39556
274.42181
274.43205
274.43005
274.43115
274.45084
274.43288
196.28381
196.2773
196.26808
196.26161
196.23493
196.23157
196.26908
196.27167
196.22346
196.23544
196.30378
196.25918
196.2701
196.26462
196.2714
196.22595
196.22994
196.23858
196.24666
196.28243
196.29631
196.34273
196.32828
196.29553
196.29315
196.30911
196.29729
196.32163
196.27903
196.31587
117.64352
117.65653
117.68362
117.66753
117.65812
117.6529
117.67666
117.66835
117.65004
117.66124
117.67681
117.69216
117.68767
117.68952
117.66989
117.65032
117.64798
117.63801
117.64292
117.65989
117.67265
117.67749
117.66456
117.63818
117.60812
117.60449
117.62343
117.63589
117.6614
117.6493
39.2457
39.216298
39.232054
39.221495
39.244448
39.236596
39.237803
39.234079
39.233542
39.227423
39.206732
39.213454
39.218962
39.212822
39.211113
39.229399
39.242382
39.241507
39.238285
39.246025
39.254988
39.269611
39.264845
39.251944
39.244996
39.282542
39.252002
39.23759
39.21976
39.235194
353.46435
353.46204
353.47199
353.4623
353.4715
353.45587
353.46805
353.4637
353.46188
353.47833
353.46852
353.46945
353.46585
353.46079
353.46305
353.45119
353.45473
353.46451
353.46525
353.4605
353.46961
353.46608
353.4439
353.44653
353.44949
353.4506
274.40582
274.42329
274.47155
274.47103
274.45982
274.40726
274.40346
274.40383
274.4167
274.47123
274.46738
274.46813
274.48434
274.48382
274.45928
274.40939
274.39013
274.39838
274.39945
274.39435
274.45402
274.46738
274.42691
274.42837
274.43027
274.43657
196.29071
196.25372
196.25835
196.25812
196.22767
196.2583
196.29748
196.27647
196.24528
196.23109
196.24914
196.26274
196.26744
196.24549
196.23012
196.23833
196.23957
196.31352
196.29281
196.26508
196.24635
196.2463
196.29698
196.32296
196.32614
196.33528
117.67709
117.62701
117.67635
117.66689
117.64724
117.64033
117.67752
117.67443
117.6299
117.63903
117.6484
117.66226
117.67989
117.66109
117.65052
117.63566
117.6582
117.6768
117.67916
117.64454
117.66173
117.6606
117.67267
117.67195
117.6247
117.61677
39.246742
39.251295
39.242529
39.229209
39.254173
39.256383
39.269149
39.256623
39.257886
39.253102
39.228172
39.221182
39.226191
39.232431
39.238524
39.234497
39.243172
39.265994
39.258438
39.25432
39.228735
39.222594
39.227601
39.228894
39.233058
39.283553
353.46124
353.45587
353.45868
353.44271
353.4497
353.4529
353.45925
353.45634
353.45688
353.46159
353.45878
353.46096
353.46565
353.46382
353.46814
353.4661
353.45927
353.46112
353.47112
353.4561
353.47446
353.46485
353.46427
353.46027
353.4566
353.46147
274.40721
274.40924
274.44592
274.41928
274.42809
274.4036
274.39639
274.41057
274.40506
274.40974
274.41577
274.41651
274.45924
274.48344
274.48569
274.4499
274.4058
274.39674
274.40072
274.40381
274.46143
274.49972
274.47074
274.44711
274.42811
274.4154
196.31377
196.28789
196.24874
196.30542
196.26219
196.29772
196.31039
196.30395
196.29202
196.27708
196.28249
196.25581
196.24119
196.27164
196.25794
196.25942
196.23918
196.26422
196.27858
196.24309
196.22394
196.247
196.25312
196.27726
196.27785
196.31114
117.67937
117.63614
117.6397
117.66308
117.64367
117.66543
117.67783
117.64403
117.67063
117.65139
117.65781
117.62827
117.64672
117.6815
117.67557
117.6744
117.64338
117.66994
117.69199
117.63838
117.65675
117.65807
117.67348
117.6645
117.6174
117.66736
39.264508
39.267521
39.268844
39.239205
39.262813
39.255784
39.264902
39.262219
39.250194
39.239448
39.234259
39.250348
39.251528
39.217389
39.218129
39.215456
39.219309
39.234689
39.246849
39.251504
39.246269
39.233356
39.230377
39.228834
39.253611
39.25493
353.45834
353.4582
353.4538
353.45632
353.45815
353.45767
353.45452
353.46894
353.46088
353.47064
353.46978
353.47028
353.47165
353.46643
353.48845
353.4475
353.47533
353.46789
353.47186
353.46839
353.47472
353.4626
353.47501
353.47217
353.4725
353.47765
353.46138
353.44836
353.44924
353.45318
274.40474
274.39847
274.40124
274.40483
274.41815
274.43227
274.42185
274.45108
274.43435
274.4158
274.39441
274.39226
274.39313
274.42358
274.45768
274.44509
274.42383
274.47756
274.48667
274.48306
274.4606
274.40442
274.3984
274.3971
274.40206
274.4727
274.46641
274.42791
274.42024
274.41572
196.33205
196.31508
196.29735
196.30418
196.29496
196.29333
196.30231
196.26854
196.28011
196.28833
196.3041
196.30978
196.26018
196.26849
196.23048
196.27756
196.28851
196.26093
196.25842
196.26243
196.24074
196.2509
196.28247
196.28711
196.24501
196.23548
196.25314
196.27786
196.28071
196.31648
117.67533
117.67306
117.66904
117.67057
117.64009
117.62254
117.63542
117.65851
117.65325
117.63818
117.68525
117.6819
117.67194
117.64581
117.66913
117.64793
117.68447
117.70042
117.69014
117.6609
117.65134
117.62342
117.68685
117.67237
117.62455
117.63547
117.65558
117.66297
117.63756
117.67128
39.260791
39.257407
39.257697
39.242014
39.271943
39.275775
39.251809
39.24475
39.249731
39.264131
39.271999
39.27267
39.25612
39.265647
39.250184
39.265407
39.217288
39.236418
39.228443
39.221363
39.239175
39.254106
39.265567
39.262412
39.259468
39.254026
39.236475
39.24364
39.250744
39.25868
353.45688
353.45168
353.45512
353.45099
353.45997
353.4625
353.46941
353.46995
353.47022
353.47271
353.45923
353.46921
353.46379
353.46471
353.47044
353.46023
353.47765
353.46799
353.46779
353.4666
353.47246
353.46269
353.46839
353.46966
353.46905
353.47366
353.46643
353.45695
353.45
353.45687
274.40664
274.40719
274.42301
274.41956
274.41487
274.4141
274.43116
274.46366
274.49103
274.44968
274.41001
274.39607
274.39935
274.39445
274.39936
274.42051
274.46215
274.48624
274.45727
274.47123
274.45968
274.4105
274.3902
274.39571
274.38316
274.41751
274.46103
274.44468
274.42672
274.41509
196.31893
196.29496
196.28688
196.29446
196.30108
196.31236
196.29269
196.25946
196.2557
196.22575
196.25624
196.28427
196.29746
196.2871
196.26933
196.25523
196.22713
196.27968
196.25866
196.25632
196.22932
196.27707
196.26698
196.32706
196.26257
196.24673
196.24903
196.25493
196.25903
196.29445
117.674
117.63804
117.62441
117.63404
117.65015
117.65889
117.67202
117.67395
117.66442
117.65811
117.64739
117.6869
117.67886
117.67989
117.67656
117.64661
117.66058
117.66961
117.66565
117.63733
117.65008
117.63221
117.6814
117.68537
117.66898
117.62999
117.64573
117.66085
117.64008
117.67721
39.242597
39.239015
39.262194
39.287689
39.245168
39.239731
39.231716
39.229367
39.233409
39.25335
39.265687
39.267405
39.256442
39.253089
39.243699
39.245493
39.239534
39.230724
39.23187
39.240889
39.257649
39.274291
39.270979
39.28562
39.262765
39.253603
39.238788
39.233705
39.257069
39.254633
353.46637
353.45819
353.47448
353.46806
353.45757
353.46453
353.46841
353.45659
353.47247
353.46546
353.46669
353.46165
353.47326
353.4672
353.4726
353.46959
353.46865
353.47223
353.45083
353.45883
353.4606
353.45877
353.46775
353.46725
353.4707
353.47249
353.4708
353.4657
353.44827
353.45733
274.41012
274.40623
274.4708
274.45915
274.41151
274.40889
274.40383
274.41236
274.43572
274.41839
274.40111
274.41388
274.44154
274.43197
274.40813
274.39215
274.41367
274.4369
274.41598
274.41869
274.41391
274.4153
274.4208
274.40112
274.39716
274.39424
274.45361
274.46281
274.42497
274.41353
196.28634
196.25785
196.24774
196.23358
196.27815
196.3002
196.2948
196.27815
196.24429
196.29637
196.27769
196.29441
196.24611
196.27165
196.28573
196.27425
196.26825
196.23989
196.28157
196.29556
196.28282
196.29659
196.2584
196.29866
196.30207
196.27195
196.25585
196.25207
196.24837
196.28173
117.68805
117.65957
117.66573
117.65863
117.67309
117.68123
117.67536
117.64357
117.65711
117.64076
117.69675
117.66421
117.67741
117.66825
117.69186
117.68267
117.63906
117.64469
117.65113
117.65343
117.64992
117.64153
117.63677
117.65157
117.66612
117.639
117.66264
117.67496
117.63032
117.67701
39.234571
39.225337
39.220696
39.229182
39.220611
39.234829
39.242066
39.258008
39.275175
39.270884
39.245703
39.242266
39.23718
39.237661
39.248996
39.26353
39.26555
39.258315
39.248015
39.232295
39.241603
39.251873
39.270038
39.259883
39.250395
39.230811
39.227594
39.226998
39.245923
39.246798
353.47276
353.46758
353.48311
353.47318
353.46978
353.46004
353.4617
353.46369
353.46321
353.46614
353.45973
353.46115
353.46788
353.4698
353.47695
353.46779
353.46519
353.46291
353.46174
353.46008
353.45956
353.4676
353.47156
353.47038
353.46645
353.4749
353.46542
353.47507
353.45884
353.46148
274.41844
274.44078
274.50937
274.51723
274.47112
274.44266
274.43155
274.40499
274.40387
274.40402
274.4141
274.44257
274.48019
274.47628
274.45615
274.42699
274.39392
274.40085
274.40439
274.40502
274.43091
274.45459
274.48972
274.44002
274.41328
274.40356
274.44014
274.47655
274.44319
274.41511
196.28651
196.24232
196.26457
196.24723
196.26526
196.28448
196.29569
196.30124
196.30695
196.29809
196.2771
196.25688
196.25414
196.26268
196.25438
196.26169
196.27127
196.30396
196.31211
196.28407
196.30705
196.25811
196.24379
196.24318
196.28093
196.29285
196.26607
196.2482
196.2448
196.2774
117.68014
117.64905
117.67638
117.66815
117.68015
117.65623
117.63255
117.67497
117.67142
117.68368
117.66124
117.65927
117.67291
117.68254
117.67719
117.6359
117.68478
117.67867
117.68648
117.69424
117.6691
117.66932
117.6574
117.65605
117.66071
117.69145
117.66499
117.67064
117.63242
117.67691
39.244574
39.232519
39.226951
39.229231
39.221641
39.226952
39.258267
39.253271
39.254982
39.262702
39.256642
39.256115
39.238858
39.235739
39.236394
39.261893
39.253617
39.257241
39.255968
39.255779
39.237692
39.230818
39.251487
39.253767
39.232817
39.236191
39.222354
39.230989
39.247713
39.245457
)
;

boundaryField
{
    minX
    {
        type            calculated;
        value           nonuniform List<scalar> 
50
(
353.46552
274.41267
196.29493
117.68465
39.263498
353.47409
274.39671
196.30701
117.69067
39.274544
353.46896
274.40945
196.29707
117.68138
39.252545
353.47071
274.44041
196.28381
117.64352
39.2457
353.46435
274.40582
196.29071
117.67709
39.246742
353.46124
274.40721
196.31377
117.67937
39.264508
353.45834
274.40474
196.33205
117.67533
39.260791
353.45688
274.40664
196.31893
117.674
39.242597
353.46637
274.41012
196.28634
117.68805
39.234571
353.47276
274.41844
196.28651
117.68014
39.244574
)
;
    }
    maxX
    {
        type            calculated;
        value           nonuniform List<scalar> 
50
(
353.45185
274.4324
196.33732
117.6137
39.295318
353.45058
274.41376
196.33419
117.66056
39.258044
353.45031
274.42527
196.30025
117.6509
39.241591
353.4536
274.43288
196.31587
117.6493
39.235194
353.4506
274.43657
196.33528
117.61677
39.283553
353.46147
274.4154
196.31114
117.66736
39.25493
353.45318
274.41572
196.31648
117.67128
39.25868
353.45687
274.41509
196.29445
117.67721
39.254633
353.45733
274.41353
196.28173
117.67701
39.246798
353.46148
274.41511
196.2774
117.67691
39.245457
)
;
    }
    minY
    {
        type            calculated;
        value           nonuniform List<scalar> 
292
(
392.4
392.4
392.4
392.4
392.4
392.4
392.4
392.4
392.4
392.4
392.4
392.4
392.4
392.4
392.4
392.4
392.4
392.4
392.4
392.4
392.4
392.4
392.4
392.4
392.4
392.4
392.4
392.4
392.4
392.4
392.4
392.4
392.4
392.4
392.4
392.4
392.4
392.4
392.4
392.4
392.4
392.4
392.4
392.4
392.4
392.4
392.4
392.4
392.4
392.4
392.4
392.4
392.4
392.4
392.4
392.4
392.4
392.4
392.4
392.4
392.4
392.4
392.4
392.4
392.4
392.4
392.4
392.4
392.4
392.4
392.4
392.4
392.4
392.4
392.4
392.4
392.4
392.4
392.4
392.4
392.4
392.4
392.4
392.4
392.4
392.4
392.4
392.4
392.4
392.4
392.4
392.4
392.4
392.4
392.4
392.4
392.4
392.4
392.4
392.4
392.4
392.4
392.4
392.4
392.4
392.4
392.4
392.4
392.4
392.4
392.4
392.4
392.4
392.4
392.4
392.4
392.4
392.4
392.4
392.4
392.4
392.4
392.4
392.4
392.4
392.4
392.4
392.4
392.4
392.4
392.4
392.4
392.4
392.4
392.4
392.4
392.4
392.4
392.4
392.4
392.4
392.4
392.4
392.4
392.4
392.4
392.4
392.4
392.4
392.4
392.4
392.4
392.4
392.4
392.4
392.4
392.4
392.4
392.4
392.4
392.4
392.4
392.4
392.4
392.4
392.4
392.4
392.4
392.4
392.4
392.4
392.4
392.4
392.4
392.4
392.4
392.4
392.4
392.4
392.4
392.4
392.4
392.4
392.4
392.4
392.4
392.4
392.4
392.4
392.4
392.4
392.4
392.4
392.4
392.4
392.4
392.4
392.4
392.4
392.4
392.4
392.4
392.4
392.4
392.4
392.4
392.4
392.4
392.4
392.4
392.4
392.4
392.4
392.4
392.4
392.4
392.4
392.4
392.4
392.4
392.4
392.4
392.4
392.4
392.4
392.4
392.4
392.4
392.4
392.4
392.4
392.4
392.4
392.4
392.4
392.4
392.4
392.4
392.4
392.4
392.4
392.4
392.4
392.4
392.4
392.4
392.4
392.4
392.4
392.4
392.4
392.4
392.4
392.4
392.4
392.4
392.4
392.4
392.4
392.4
392.4
392.4
392.4
392.4
392.4
392.4
392.4
392.4
392.4
392.4
392.4
392.4
392.4
392.4
392.4
392.4
392.4
392.4
392.4
392.4
392.4
392.4
392.4
392.4
392.4
392.4
392.4
392.4
392.4
392.4
392.4
392.4
)
;
    }
    minZ
    {
        type            calculated;
        value           nonuniform List<scalar> 
150
(
353.46552
274.41267
196.29493
117.68465
39.263498
353.46241
274.4529
196.26796
117.64841
39.269802
353.47441
274.46127
196.25445
117.66818
39.256834
353.45478
274.41789
196.2846
117.652
39.232965
353.46726
274.40968
196.29693
117.70891
39.245225
353.45446
274.4233
196.29745
117.67149
39.235737
353.46401
274.4437
196.25118
117.66725
39.244828
353.46873
274.47748
196.26453
117.67546
39.23983
353.46223
274.45958
196.2632
117.66382
39.240918
353.4549
274.42904
196.26346
117.61838
39.264942
353.45429
274.40041
196.28612
117.65296
39.260504
353.45671
274.40754
196.32624
117.67573
39.266071
353.45867
274.41111
196.32238
117.67549
39.272945
353.44848
274.41581
196.28396
117.64944
39.259863
353.45036
274.45089
196.26453
117.64499
39.261831
353.45843
274.48209
196.2562
117.64179
39.261585
353.44499
274.43394
196.27741
117.66198
39.243223
353.44416
274.44735
196.26003
117.62996
39.233473
353.4556
274.46299
196.26238
117.67027
39.21311
353.4621
274.49004
196.2653
117.68306
39.228533
353.46782
274.50362
196.27013
117.69041
39.225511
353.46749
274.48894
196.27716
117.68649
39.219682
353.46382
274.47666
196.25305
117.66721
39.224154
353.4461
274.43352
196.27986
117.67095
39.217904
353.44828
274.42728
196.29737
117.70169
39.223905
353.45645
274.46152
196.30075
117.67038
39.205824
353.45364
274.4619
196.25054
117.63173
39.244989
353.44937
274.41415
196.29682
117.65797
39.2365
353.4529
274.4206
196.32546
117.6489
39.248416
353.45185
274.4324
196.33732
117.6137
39.295318
)
;
    }
    maxZ
    {
        type            calculated;
        value           nonuniform List<scalar> 
150
(
353.47276
274.41844
196.28651
117.68014
39.244574
353.46758
274.44078
196.24232
117.64905
39.232519
353.48311
274.50937
196.26457
117.67638
39.226951
353.47318
274.51723
196.24723
117.66815
39.229231
353.46978
274.47112
196.26526
117.68015
39.221641
353.46004
274.44266
196.28448
117.65623
39.226952
353.4617
274.43155
196.29569
117.63255
39.258267
353.46369
274.40499
196.30124
117.67497
39.253271
353.46321
274.40387
196.30695
117.67142
39.254982
353.46614
274.40402
196.29809
117.68368
39.262702
353.45973
274.4141
196.2771
117.66124
39.256642
353.46115
274.44257
196.25688
117.65927
39.256115
353.46788
274.48019
196.25414
117.67291
39.238858
353.4698
274.47628
196.26268
117.68254
39.235739
353.47695
274.45615
196.25438
117.67719
39.236394
353.46779
274.42699
196.26169
117.6359
39.261893
353.46519
274.39392
196.27127
117.68478
39.253617
353.46291
274.40085
196.30396
117.67867
39.257241
353.46174
274.40439
196.31211
117.68648
39.255968
353.46008
274.40502
196.28407
117.69424
39.255779
353.45956
274.43091
196.30705
117.6691
39.237692
353.4676
274.45459
196.25811
117.66932
39.230818
353.47156
274.48972
196.24379
117.6574
39.251487
353.47038
274.44002
196.24318
117.65605
39.253767
353.46645
274.41328
196.28093
117.66071
39.232817
353.4749
274.40356
196.29285
117.69145
39.236191
353.46542
274.44014
196.26607
117.66499
39.222354
353.47507
274.47655
196.2482
117.67064
39.230989
353.45884
274.44319
196.2448
117.63242
39.247713
353.46148
274.41511
196.2774
117.67691
39.245457
)
;
    }
    bottomWater_to_rightSolid
    {
        type            calculated;
        value           nonuniform List<scalar> 
130
(
-0.0065272437
-0.026890344
-0.011467366
-0.014488561
-0.020317731
-0.015845948
-0.02209607
-0.016094624
-0.034175512
0.0049892567
-0.0035002017
0.0084156502
0.055318108
0.0039028015
-0.0017133425
0.0078351618
-0.0037789782
5.1311645e-05
0.01216643
-0.005358226
-0.012651631
-0.011225296
0.01406511
0.023787562
0.011026401
0.018043536
0.0059918556
0.010875719
0.024530606
0.028953052
0.012506037
0.011903349
0.013438488
-0.00059304012
0.014405124
0.0030109236
-0.015480212
-0.0046339275
0.0015905935
0.0015074948
-0.0017153021
0.0060254465
0.014987746
0.029611211
0.024844968
0.011943577
0.0049957733
0.042541964
0.012002111
-0.0024096692
-0.020240164
-0.0048060212
-0.0075688442
-0.0014755204
-0.0055032414
0.0031723694
0.025994179
0.018438408
0.014319905
-0.011265242
-0.017405921
-0.012399495
-0.011105748
-0.0069422832
0.043553233
-0.022611393
-0.021871371
-0.024544415
-0.020691162
-0.0053109996
0.0068491017
0.01150379
0.0062686706
-0.0066441455
-0.0096228495
-0.011166167
0.013610987
0.014929666
-0.0035821743
-0.011556637
-0.018637473
-0.00082539863
0.014106283
0.025567304
0.022411995
0.019468177
0.014026491
-0.0035247569
0.0036403307
0.010744349
0.018679888
-0.0092755441
-0.0081300312
0.00088908176
0.017648902
0.034291411
0.030978854
0.045620341
0.022764665
0.013603032
-0.0012117433
-0.0062949561
0.017068513
0.014632997
0.018315074
0.0080153639
-0.0077052039
0.0016029659
0.011873187
0.030038306
0.019882714
0.010395273
-0.0091889253
-0.012406051
-0.013002289
0.0059225304
0.0067977361
0.017240899
0.015968016
0.015779407
-0.0023078149
-0.0091822195
0.011486957
0.013766799
-0.0071828855
-0.0038093684
-0.017645673
-0.0090111136
0.0077132774
0.0054572042
)
;
    }
    bottomWater_to_leftSolid
    {
        type            calculated;
        value           nonuniform List<scalar> 
130
(
0.023498383
0.029802262
0.016834422
-0.0070350356
0.005224786
-0.0042626118
0.0048283303
-0.0001696766
0.00091834121
0.024941786
0.020503791
0.026071078
0.032945311
0.034544069
0.032355418
0.008127274
-0.0046033783
0.0029054191
0.006363874
0.015047403
0.02868644
0.021316154
0.021005111
0.024411769
0.014996436
0.022026019
0.012544845
0.0041803193
-0.0024136733
-0.010219354
0.0027261291
0.013185575
0.027161449
0.019993851
0.014109632
-0.010001636
-0.027409131
-0.012683747
-0.0032666402
0.0057000733
-0.023701864
-0.0079462342
-0.018504543
0.0044475251
-0.0034039046
-0.0021966579
-0.0059211
-0.0064577814
-0.012576723
-0.033268384
-0.026546367
-0.02103758
0.0067419567
0.011294971
0.0025285385
-0.010790578
0.014173478
0.016382533
0.029148948
0.016623076
0.017886158
0.0131017
-0.011827678
-0.018818192
-0.013808589
0.024507927
0.027521217
0.028843847
-0.00079460444
0.022812903
0.015784127
0.02490198
0.022219389
0.010194251
-0.00055204585
-0.005740804
0.010348141
0.011528138
0.020791262
0.017407312
0.01769695
0.0020138368
0.03194268
0.035775297
0.01180879
0.0047497597
0.009731115
0.024131025
0.031999001
0.032669688
0.016120205
0.0025969887
-0.00098502945
0.022193808
0.047688673
0.0051679611
-0.00026936842
-0.0082841328
-0.01063333
-0.0065910527
0.01334998
0.025686664
0.027405396
0.016441909
-0.0054289478
-0.014662828
-0.019304442
-0.010817757
-0.019389495
-0.0051708268
0.0020657774
0.018008116
0.035174656
0.030884212
0.0057032186
0.0022664339
-0.0028196123
0.0045737564
-0.0074811287
-0.013049414
-0.010769163
-0.018359012
-0.013047509
0.018266864
0.013271256
0.014981756
0.022702239
0.016641745
0.016115046
-0.0011421056
)
;
    }
    bottomWater_to_heater
    {
        type            calculated;
        value           nonuniform List<scalar> 
92
(
0.019862561
0.021830727
0.021585024
0.0032234253
0.007858282
0.0029872652
0.0093236076
0.020729032
-0.017664578
-0.022371839
-0.010319411
0.0087091719
353.46235
353.45205
353.46797
353.46507
274.48287
274.4664
274.50331
274.48273
196.26462
196.2714
196.22595
196.22994
117.68952
117.66989
117.65032
117.64798
-0.027178202
39.212822
-0.028886672
39.211113
-0.010601296
39.229399
0.0023815703
39.242382
353.46585
353.46079
274.48434
274.48382
196.26744
196.24549
117.67989
117.66109
39.226191
39.232431
353.46565
353.46643
353.48845
353.4475
353.46382
353.47533
274.45924
274.42358
274.45768
274.44509
274.48344
274.42383
196.24119
196.26849
196.23048
196.27756
196.27164
196.28851
117.64672
117.64581
117.66913
117.64793
117.6815
117.68447
39.251528
39.265647
39.250184
39.265407
39.217389
39.217288
0.025647098
0.010183685
0.025406522
-0.022711608
0.013089196
0.0036985693
0.0054925506
-0.00046564121
-0.0023393332
0.0089962623
0.023529561
0.025549617
-0.0042607032
-0.003605684
0.02189285
0.013617082
)
;
    }
}


// ************************************************************************* //
