/*--------------------------------*- C++ -*----------------------------------*\
| =========                 |                                                 |
| \\      /  F ield         | OpenFOAM: The Open Source CFD Toolbox           |
|  \\    /   O peration     | Version:  v2012                                 |
|   \\  /    A nd           | Website:  www.openfoam.com                      |
|    \\/     M anipulation  |                                                 |
\*---------------------------------------------------------------------------*/
FoamFile
{
    version     2.0;
    format      ascii;
    class       surfaceScalarField;
    location    "510/bottomWater";
    object      phi;
}
// * * * * * * * * * * * * * * * * * * * * * * * * * * * * * * * * * * * * * //

dimensions      [1 0 -1 0 0 0 0];
oriented        oriented;


internalField   nonuniform List<scalar> 
3858
(
-0.00015100499
0.00013256107
1.7450206e-05
-7.7375572e-05
-6.5179467e-05
-8.7718021e-06
0.00015223809
-0.00019229811
-4.0161224e-05
7.5496117e-05
0.00013270367
-5.4501272e-05
-8.135881e-05
0.00014273653
1.2727797e-05
-0.00018926296
0.00013331839
-2.387302e-05
-0.00011205523
-0.00011779816
4.0044093e-05
0.0001225798
-0.00032943468
9.3376315e-05
0.00027306927
-0.00022258223
7.2132342e-05
0.00022670482
2.9315929e-05
1.8589487e-05
7.2551659e-05
0.00014615765
9.5964302e-06
-4.576306e-05
0.00015405564
-3.4795602e-05
-0.00011804049
0.0001319825
-5.9156721e-05
-0.00024984413
0.00014031587
-5.5790986e-06
-0.0002219262
-9.8266582e-05
7.2969436e-05
-0.00017195897
-0.00017329723
0.00012420781
-0.00034349517
0.000150143
2.5236458e-05
-0.00043236323
8.3334314e-05
9.6985546e-06
-0.00031605508
-0.00016504025
5.0455351e-05
-0.00014349637
-0.00025496675
8.2564112e-05
7.4730002e-05
-0.0002862772
6.6757134e-05
0.00021951346
-0.0002901216
0.00014424904
0.0003531725
-0.00024219482
0.0001084175
0.0002671436
5.2372569e-05
3.7269888e-05
8.7992292e-05
0.00013006184
5.208425e-05
0.00013796823
-0.00011027866
6.1379406e-05
0.00023711067
-0.00010527663
7.9061028e-06
0.00017042131
0.00010685184
-3.7395351e-05
8.1843101e-05
0.00012455295
-3.4102685e-05
0.0001035386
-1.9737762e-05
-0.00030122326
0.00041618218
1.760215e-05
-0.00013438672
-0.00024584183
1.3825824e-05
0.00019630219
-0.00050667957
-1.6307444e-05
0.00020772677
0.00018333818
-6.2059088e-05
-0.00019250574
0.00058080635
-3.7837306e-05
-0.00019308916
0.00014811127
-1.4209464e-05
-5.0493888e-05
-0.00038184221
0.00012144878
7.2454714e-05
-0.00066176644
0.00020938316
0.00030383477
-0.00056144311
0.00010748083
0.00043160537
-9.6467546e-05
-1.9871284e-06
0.00026264749
0.00041257911
-9.746358e-05
-5.368754e-05
0.00060949366
-0.00013910299
-0.00033574185
0.00057085803
-0.00015682121
-0.00036313982
0.00021235043
-4.4636593e-05
-0.0002130435
-0.00033274371
8.43808e-05
-0.00010963776
-0.00042318263
0.00014647966
-0.00034728804
0.00029292528
9.4867996e-05
-0.00039646429
-1.7007096e-05
0.00014951767
-0.00027718427
-0.00042313027
0.00013881
-0.00010681647
-0.00051628447
9.0949927e-05
0.00012520807
-0.00053413895
1.5837217e-05
0.00017611308
-0.00058169208
0.00024066547
0.00037143829
-0.00053424568
9.672564e-05
0.0003615007
1.6945461e-05
4.5364699e-05
7.6157573e-05
0.00032774344
8.7661527e-05
0.0001188981
-0.00028319101
0.00013017182
0.00038760528
-0.00036233028
-1.1653539e-05
0.00027299734
0.0003390868
-0.00011762702
-2.0388881e-05
0.0004816446
-6.3705427e-05
4.2277878e-05
4.0871842e-05
0.00014178104
0.00029950214
-2.5101003e-05
8.5967814e-05
-8.6538165e-05
-0.00010349044
-0.00028266253
-0.00012336067
-1.4688558e-05
-0.00015121402
-1.9474526e-05
7.1364189e-05
0.00010319929
0.00024227519
8.4117857e-05
0.0003978931
-0.00014655104
-3.1492627e-08
0.00021453009
-0.00013421237
-6.4266839e-05
-3.3974529e-06
-0.0003410067
-0.00010283218
-0.00015680253
-0.00042375821
1.5720189e-05
-0.00020771016
-8.1647391e-05
3.608748e-05
-8.8306512e-05
0.00027996087
1.3214592e-05
-1.9595262e-05
0.00060081715
-6.0034747e-05
7.3108744e-05
0.00057272356
-9.4569545e-05
0.00023244959
0.00015806012
-0.00010505054
6.0250138e-05
-6.5434502e-05
-9.5109745e-05
-0.00022747293
-5.6105556e-05
-7.9354e-05
-0.00011716142
0.00015530936
2.7304413e-05
-3.2117667e-05
-9.4732916e-05
-7.3179218e-06
4.8322825e-06
-0.00039898189
-6.1098322e-05
-2.2833991e-06
-0.00039932845
-0.00010984034
5.269046e-05
-0.00045661548
-0.00013249733
-1.5205583e-05
-0.00041502428
-9.8771761e-05
-0.00029289908
-0.00026407506
7.5228804e-06
-0.0002093744
-0.00024958588
0.00018300665
9.8851831e-05
-0.00011550455
0.00013502175
0.00011062462
-0.00036631259
7.1348781e-05
-0.00015594075
-4.227245e-05
-5.3492467e-05
-0.00015983592
0.00028809839
5.4883581e-05
-0.00011214611
0.00042000195
1.3952851e-05
-5.470737e-05
-1.5160867e-05
0.00024030751
9.590227e-05
-3.6707639e-05
-1.4213696e-05
0.00019300814
-2.5025092e-05
-0.00025917701
0.0001319543
-1.035165e-05
-0.00022426455
-0.00010382967
4.9442684e-05
0.00010245228
-0.00024890927
0.00016446764
0.00019749937
-0.00025860658
1.7008457e-05
0.00012127367
-2.3787099e-05
-3.4199555e-05
4.7953797e-05
-0.00029397761
2.6290792e-05
-9.7174665e-05
-0.00036323796
8.4608223e-05
-0.0003941916
0.0002284795
-1.3109954e-05
-0.00032942304
0.00018943487
2.5757456e-05
-4.196339e-05
0.0003076207
5.7367986e-06
0.00020787123
0.00034046402
-1.7575071e-05
0.00029891397
0.00014104772
-7.4030345e-05
0.00013702326
0.00013688811
-4.0431894e-05
-0.00012602848
0.00019072511
1.6221082e-05
-0.00012550757
0.00010611822
4.867024e-05
-9.5445137e-05
6.1347885e-06
-0.00013093013
-1.0940083e-05
-0.00040697263
-7.6514309e-05
2.6954099e-05
-0.00037014069
-6.7081945e-05
7.6236421e-05
-0.00045463173
-5.1266073e-05
7.9106154e-05
-0.00039204297
-2.5851054e-05
-9.8416256e-05
-0.00014708206
6.0529406e-05
-0.0002180293
-0.00023868373
0.00010871089
-3.6475837e-05
-0.0003831101
8.6052084e-05
-1.2473254e-05
-0.00041934541
2.9030239e-05
-0.00017895314
0.00010085065
2.3356786e-05
-3.1368867e-05
1.7309586e-05
0.00012320453
0.00026754563
0.0001320025
-1.0915052e-05
0.00034812301
-0.00013528475
0.00010639365
-1.0491376e-05
0.00028960778
9.7939962e-06
0.00036323352
5.8328572e-05
0.0002179899
4.1413952e-05
-8.8191989e-06
-2.2100171e-05
-0.0001569026
-0.00011052317
-3.9726487e-05
-0.0001409632
-0.00017351378
-0.0001601903
-0.0004349478
-0.00010180395
-0.00033599788
0.00012952959
-0.00026480004
0.00011823703
-6.9343065e-05
0.00011216372
0.00019371563
7.7405318e-05
0.00024973415
8.5029208e-05
0.00022488127
0.00016174099
0.00026310345
0.00015250294
0.0003515944
1.7627282e-05
0.00041673855
-5.9009355e-05
0.00020087122
-0.00019110529
0.00012359352
-0.00029286299
8.6274625e-06
-0.00033966568
-8.742297e-05
-0.00029599254
-2.0803182e-05
-0.00021370186
-6.7919109e-05
-0.0001915678
-0.00025847743
-0.00019255179
-0.00050657027
-0.00017125258
-0.0003968809
-8.8387258e-06
-0.00038183397
2.2626569e-06
-0.00028066654
3.0835076e-05
6.7456462e-05
-0.00011360019
0.00013198375
-3.8670119e-06
-8.6686923e-05
1.360608e-05
-5.1417707e-05
0.00020702914
-0.00027540854
-6.2730575e-05
0.00025003162
1.8191005e-05
-0.00011427448
0.00020708325
0.00014999705
-9.3970537e-05
0.00010048375
0.00016840856
-8.5492449e-05
6.7098993e-05
0.00012885022
-5.548955e-05
0.00013829586
4.2784074e-05
-2.0201499e-05
0.00012797955
0.00011894408
-3.4926826e-05
0.0001055639
0.00011846082
-7.5087746e-05
6.4065358e-05
0.00011880815
-6.558987e-05
-6.7677492e-07
0.00018433435
-0.00015214928
1.1558717e-05
0.00012430476
-0.00019412532
-3.7429715e-05
0.00016961045
-0.00012479207
-9.1695269e-05
0.00015421756
-2.5428367e-05
-8.603358e-05
0.00011248977
7.9722462e-06
-0.00013237457
0.00014003611
-6.6339334e-05
-0.00019637378
0.00016955628
-9.3958299e-05
-0.00019661007
0.00012442346
-7.2216e-05
-9.001117e-05
-6.2634998e-05
3.9569458e-05
4.5128368e-05
-0.00020075308
0.00013179404
-1.0310081e-05
4.1956394e-05
0.00015856343
8.1050114e-05
-0.00019863055
0.00021313916
0.00027173165
-0.00026581425
0.00011198815
0.00017194097
0.00017111184
-1.3676246e-05
0.00013496221
0.0001079513
-8.0721303e-06
0.00011102932
0.00012972419
-9.3913642e-05
0.00012277748
6.8234043e-05
-0.00011426574
7.215282e-05
0.000155331
-0.00013573431
0.00014452939
-8.9784695e-05
-0.0004204372
0.00069133699
-0.0001213139
-0.0003376912
6.3734856e-05
-0.00011904895
0.0001311961
-0.00065510401
-0.00010549927
0.00036586441
-0.00013361889
-0.0001449175
0.00033878157
0.0003099196
-0.00017067702
0.00011679098
0.00053841098
-0.0001622213
-0.00010755288
0.00043530369
3.9339186e-05
-3.9026621e-05
-1.6213796e-05
0.00019985478
-3.5673047e-05
0.00017779817
4.5273174e-05
9.8912637e-05
-2.0114992e-05
2.0030043e-06
0.0002410218
-1.8005611e-05
-0.00010275898
8.0638572e-05
0.00053633191
-0.00033071733
-0.00012661077
0.00049584663
-0.00032111374
-0.00025263015
0.00053247241
-0.00028147918
-0.00026766291
0.00034759818
-9.3967064e-05
-5.6767176e-05
9.7822966e-05
-4.9749267e-05
-9.5903114e-05
0.00037281841
-9.8778371e-05
-0.00030230664
0.00057608727
-5.060979e-05
-0.00024366352
0.00020469632
-1.0598654e-07
-7.8449962e-05
-0.00025946393
0.0001225653
5.9510189e-06
-0.00047980856
0.00021049172
-0.00010638702
4.5609858e-06
0.00039039892
-0.00011494235
-0.00040634042
0.00031299084
8.1174771e-05
-0.00061747756
0.00020091089
0.00017038063
5.6614912e-05
0.00011295259
0.00013575259
0.00019854918
7.4201973e-05
0.00020977637
7.8915258e-05
-3.4868392e-05
0.00032162549
-3.4206912e-05
-0.00012703518
0.00017387495
0.00042991528
-0.00019053917
0.00050761746
-0.00014834128
0.00010971393
0.00062801176
-7.1489704e-05
0.00016490622
-3.0253575e-05
-6.4694303e-05
-0.00023496518
-0.00021685228
-5.3068886e-05
-4.9399474e-05
-0.00035713407
0.00010931366
0.00013926592
1.04849e-05
0.00019488717
8.4122362e-05
0.00049479457
9.8728485e-05
0.00010103878
0.00034567028
8.4501657e-06
6.4652227e-05
-9.0682741e-05
8.0233215e-06
1.3889207e-06
-3.0702363e-05
0.00028748403
-4.2982637e-05
-0.00017791295
0.000238257
-4.7703799e-06
-0.00011120872
6.8205442e-05
-4.5378681e-06
0.00046482679
1.123786e-05
-0.00010439402
0.00046879484
3.2338396e-05
-0.00014427536
0.00045029341
1.7009803e-05
-8.2991359e-05
0.00013980369
5.1400746e-05
-4.1289195e-05
-0.00011184665
8.8613459e-05
-8.1014266e-06
0.00022247078
0.00014446429
8.4375346e-05
0.00046955191
6.7406765e-06
0.00027356906
5.2327767e-05
-9.7923477e-05
0.00015440941
-8.0284963e-05
-0.00016985964
-2.0820617e-05
-0.00016142889
-0.00027564697
8.5465597e-06
-9.835742e-05
-2.5220536e-05
-0.00027067567
-8.1770455e-05
-3.7824864e-05
-0.00058656597
-0.00011756198
-1.0186411e-06
-0.00035963709
-0.00011783328
8.2541057e-05
-9.9426752e-05
-8.8657869e-05
9.8345494e-05
-8.6963348e-05
-2.9102372e-05
4.2061755e-05
-4.3967236e-05
-8.1073732e-05
5.8754287e-05
-1.4696931e-05
0.0003799528
3.4645031e-05
0.00051358271
-3.5823052e-05
0.00028539679
0.00032315261
-1.7245289e-05
1.1407399e-05
0.00032468982
-0.00010597909
-0.00017616603
2.2234549e-05
-6.1865053e-05
-0.00014481903
-0.00035753975
1.8501372e-05
4.7206701e-06
-0.00020537893
0.00023079177
0.0002527494
0.00017353031
9.0243996e-05
0.00039049343
0.000203005
-2.9278301e-05
6.9660072e-05
0.00030491832
-4.8476902e-05
3.9171171e-05
-0.00010008772
0.00018448249
-9.9115653e-05
-0.00011946927
6.6733197e-05
-0.00041716034
0.00020949392
2.3099511e-05
-0.0001856207
0.00020503156
3.3992381e-05
-4.0423891e-05
0.00031462453
-8.6015622e-06
8.343747e-05
0.00022876354
2.3638162e-05
0.00016420658
-6.9125321e-05
8.7728013e-05
4.1671997e-05
-5.9967758e-05
8.6876778e-05
-7.995617e-05
0.00029441769
9.8351509e-05
0.00016810287
5.3983736e-05
3.6579015e-05
0.00030870231
-7.3866918e-05
-9.0919061e-05
0.00022207152
7.0945494e-05
-0.00013168161
0.0001914272
-8.5972945e-05
-9.6077706e-05
7.272174e-05
2.8102553e-05
-3.3605571e-05
-0.00019338481
0.00026024981
-1.5384315e-05
-0.00029431249
8.8080172e-05
3.9964076e-06
-0.00023852987
-0.00014848332
6.0919497e-05
-0.00013734611
-0.00025436452
9.3553124e-05
-0.00015811053
1.6257096e-05
-1.2382708e-06
-0.00033478821
0.00023621026
-1.7401784e-05
-0.0001648255
0.00017040909
2.8665953e-05
0.00026115078
-4.7678325e-05
0.00024527223
6.7389002e-05
0.0004564151
0.00012334095
0.00044409308
9.2885142e-05
7.5102485e-05
5.2864796e-05
-0.00014705979
-5.3168151e-06
-6.5951392e-05
-1.8101258e-05
5.8896316e-05
-6.2805904e-05
0.00020980878
-6.1844327e-06
-8.6331608e-06
1.6550282e-05
-0.00025182826
0.00025325541
-0.00020809842
0.00028400111
-0.00012584671
0.00023494357
9.5773627e-05
0.0001704095
0.00019089676
0.00021866962
2.0085948e-05
0.00026342648
-8.7937693e-05
0.00020055883
0.00015348486
7.0622432e-05
0.00017964509
-3.1185844e-05
6.9349076e-05
-0.00015467619
8.5708035e-05
-0.00023827645
-3.9504343e-05
-0.00030042624
-8.8207641e-05
-0.00021918669
5.3021031e-05
-9.4680721e-05
8.27712e-05
-0.00013323781
-9.3844476e-05
-0.00016441943
-0.00036262511
-0.00015683646
-0.00034373031
-1.1476435e-05
-0.00019562711
9.0369719e-05
-0.0001607885
0.00016640555
0.00016781875
-0.00014855452
0.00011237877
3.0537898e-05
-0.00012969705
-5.0629104e-05
-2.1301734e-05
0.00013167482
-0.00027977274
-4.7698448e-05
0.00029389197
-0.00019801972
-7.9091584e-05
0.00032540751
-3.5575788e-05
-8.9400264e-05
0.00016434657
0.00015091573
-7.3217642e-05
2.1737928e-05
0.00016147914
-7.4852294e-05
-9.9238637e-05
0.00016149246
-6.0928417e-05
-0.00018145037
8.825528e-05
-3.9820036e-05
-7.9129633e-06
-0.00018371793
-6.4544899e-05
7.6963803e-05
-7.2750971e-05
-7.6589971e-05
3.0689631e-05
6.2951479e-05
-0.00016594786
0.00014795583
-0.00012391788
-0.00018603425
0.00013873922
8.4822797e-05
-0.00019577945
0.00015489342
0.00011023523
-0.00014743512
0.00019560125
0.00011325386
-0.0001409283
0.00013016402
0.00015307499
-0.00014854047
4.8495054e-05
0.00017352585
-0.00018225897
-5.0740774e-06
0.00016426784
-0.00018157164
6.3838066e-06
0.00011384116
-8.5713954e-05
2.9620564e-05
0.00010487678
3.7980794e-06
-1.380362e-05
0.00013376268
6.816086e-05
-6.8650155e-05
8.9644054e-05
0.00017866908
-0.00016787498
7.2906993e-05
0.00013852218
-0.00026300113
0.00011902964
-3.7845242e-05
-0.00018632084
-6.5896295e-05
-2.1144565e-05
1.7454012e-05
-0.00030762462
8.6545289e-06
0.00017952987
-0.00024670444
-2.9522416e-05
0.00015194514
9.2981867e-06
-0.00011481399
0.00014221592
-7.7558374e-05
-0.00036726559
0.00045638107
-9.8050609e-05
-0.00024169912
-0.00017773138
-0.00011751315
8.3612605e-05
-0.00060567374
-0.00010491
0.00036629414
-0.00050941892
-0.00011619984
0.00045631659
-0.00020760216
-8.8673085e-05
0.00036737654
0.00016754476
-8.9910283e-05
-5.1559952e-05
0.00065928092
-3.95261e-05
-0.00045262372
0.0006735082
8.89028e-05
-0.00038628193
1.5535596e-05
5.1651073e-05
-0.00010601628
-0.0005314835
6.9502929e-05
-1.0942242e-06
-0.00023796382
-4.2468189e-05
-5.161246e-05
-2.0892687e-05
-0.00019635493
3.9913918e-05
-0.00034754286
-0.00018901515
5.795473e-05
3.3016359e-05
-0.00024771356
0.00015295998
8.0275928e-05
-0.00015901301
0.00035246483
8.7344623e-06
-0.00014473471
0.00041516183
0.00012530725
-0.00013370762
0.00033451745
0.00040778361
-0.00020422317
0.00014124072
0.00056043648
-0.00020299789
6.0953262e-05
0.00034458172
-2.7887806e-05
0.00017384311
5.5105393e-05
0.00014737326
-4.9288146e-05
0.00051139923
0.00023589361
-0.00027876411
0.00034883121
0.00028327964
-0.00032711198
0.00020735927
0.00011480648
-0.00050136405
0.00051139306
-0.00010515875
-0.00032425345
-0.00015727954
-1.1525378e-05
-8.6874161e-05
-0.00066867659
8.8804275e-05
0.00010859981
-0.00057687739
7.6638029e-06
0.00016544803
-0.00010517476
-0.00013291444
0.00031202285
-0.00015270017
6.9810802e-05
0.00033684047
-2.1759907e-05
0.00012252323
-0.00022690147
-6.8236637e-05
2.6677301e-05
-0.00049715499
-6.5741709e-05
5.0885422e-05
-0.00042915464
4.8412617e-06
-4.8862515e-05
-0.00013719976
0.00022423271
1.0261556e-05
6.8110192e-05
0.00013903899
2.587416e-05
0.00063083392
2.1284566e-05
8.5022042e-06
0.00060262168
9.6281808e-05
3.5516577e-05
-6.4499733e-05
0.00034050499
-0.00016398339
-0.00031931421
0.00022558768
-3.0321993e-05
-0.00040984519
0.00010642541
-4.335557e-06
-0.00022024033
0.00018459906
-0.00028523016
-0.00010897744
7.4667569e-05
-0.00021824794
-0.00014688677
0.00012993072
4.2908327e-05
-0.00030449792
0.00017501833
0.00010860546
-0.00023202762
0.00026367842
0.00013234408
1.9972365e-05
0.00022606055
0.00013323021
0.00031083345
0.00010280471
9.1028067e-05
0.00051803395
-1.3318793e-05
6.0397581e-05
0.00023826525
-3.2912672e-05
7.0674441e-06
-2.6979807e-05
-0.00014023164
-4.8467831e-05
0.00042880229
0.00011291168
-0.00011039276
0.0002461707
0.00012676057
-9.0281993e-05
0.00015227515
3.3954701e-05
6.2464523e-05
0.00037258133
6.8606262e-05
9.5859022e-05
-8.4564213e-05
-7.7643352e-06
-0.00024432164
-0.00014703961
-0.00013939457
-0.00026236993
-0.00032647481
-0.0001736
-0.00015711342
-0.00021026688
3.4480634e-05
0.00020913411
-9.0047728e-05
0.00014064747
0.00019819281
-1.9245109e-05
1.2294007e-05
-0.00010049078
-0.00010403631
-3.1921934e-05
-0.0004506982
-6.4105898e-05
-1.4510026e-05
-0.00040338146
-2.4683711e-05
-0.00011584442
2.6132077e-05
0.00016879433
-0.00016810668
0.00014820932
6.2407129e-05
8.0113307e-05
0.00034646112
6.8745287e-06
0.00029508283
0.00030158655
3.7588714e-05
0.0001728889
0.00017567095
6.6505741e-05
0.00014102911
-0.000320002
9.9280776e-05
0.00014551383
-0.00045626955
6.5039145e-05
2.5423286e-05
-9.5348849e-05
2.919145e-05
-0.00021998953
0.00022854013
-0.00010070631
-0.00029281696
-6.4382613e-05
1.3961428e-05
-0.00014970279
-0.00042721815
6.7334077e-05
-0.00014322093
-0.00019769893
4.6066223e-05
-0.00018059436
0.0001228768
3.2820522e-05
-4.7320303e-05
0.00014482756
6.9310867e-05
0.00011054606
0.00026596612
3.2824165e-06
3.7978666e-06
0.00027935491
-6.6023075e-05
-0.00022591118
0.00026385019
-0.00015719866
-2.8011463e-05
0.0001764144
2.0882601e-05
2.2937086e-05
0.00013765335
4.2184484e-05
2.8964454e-06
0.00016621756
1.009464e-05
0.00015569886
0.00015620569
0.00012449272
-0.00013415556
0.00028325458
1.558875e-05
-0.00017608939
1.5871873e-05
-0.00012221592
-4.329209e-05
-0.00035982046
-0.00011685345
-9.3304438e-05
-0.00021240331
8.081473e-05
3.3344616e-05
3.4806733e-05
0.00025798014
7.6016672e-06
0.00023802687
4.2803432e-05
-8.9806746e-05
-2.9979441e-05
-0.00041348252
-2.6840892e-05
-0.00036870102
-2.3966225e-05
-0.00021572307
-2.2869876e-05
8.1988085e-05
-1.4055933e-05
0.00029913113
7.8259078e-05
0.00039313986
9.821252e-05
0.00021425998
0.0001121333
-0.00013023339
0.00017222493
-0.00017400497
0.0001833663
9.9672779e-05
0.00012527189
3.6966825e-05
0.00021699296
-0.00028633461
0.00015950977
-0.000375322
9.1847303e-05
-0.00024690742
6.5084653e-05
-0.00017628248
4.3016783e-05
-8.099062e-05
1.5998075e-05
-2.776421e-05
-1.2147956e-05
6.9958175e-06
-7.1336085e-05
3.5792676e-05
-7.1569157e-05
7.2803375e-05
5.961928e-06
0.0001010047
4.7784248e-06
7.5165696e-05
1.7625256e-05
0.00024986334
-4.8279532e-05
0.00031231127
-5.8052497e-05
2.722928e-05
1.5631252e-05
-0.00015945629
0.00014068781
4.1707077e-05
-0.00015786871
7.3552257e-05
0.00011276494
-0.0001246185
-0.0001504026
9.3540765e-05
9.7819947e-06
-0.00021847464
3.3266369e-05
0.00011018757
-0.00015481428
-2.5073826e-05
0.00028308657
-0.00029630102
3.0446959e-05
0.00024804428
-0.00010214359
6.3148669e-05
-9.9247476e-06
0.00011100855
7.0166501e-05
-0.00022773645
5.1674197e-05
0.00010271302
-0.00016215746
-0.00020955381
0.00010267713
-2.9955072e-05
-0.00024657647
4.5919235e-05
-0.00016952226
0.00012062452
-5.4506448e-05
-6.6049966e-05
-0.00028828728
1.7072074e-05
0.00013729634
-0.00036836694
-2.1762068e-05
0.00015544653
-0.00021390757
9.8358083e-05
-8.8222845e-05
0.00022502602
-0.00026878626
0.00027885391
-0.00020281925
0.00026639108
-4.8958276e-07
-0.00016900163
0.00017988129
0.00013701421
-0.00023001603
0.00011936841
0.00017168576
-0.00019596479
0.0001119582
0.00016772011
-0.00015690489
0.00012256421
0.00013018288
-7.2828674e-05
0.00013742959
0.00014010957
2.4752267e-05
4.8029165e-05
0.0001788462
5.2031626e-05
-8.9879795e-05
0.00015036568
-4.6467653e-05
-0.00011820155
9.0547315e-05
-8.0478145e-05
-0.00016170498
9.2340355e-05
-3.7708011e-05
-0.000169079
5.8307864e-05
-7.7719287e-05
0.00010397962
-0.00036712239
-2.3219448e-05
7.45161e-05
-4.6455726e-05
-0.00026318404
0.0001280596
0.00011062609
-0.00020059875
-0.00038644047
5.5939427e-05
-3.7541447e-05
-0.00046314308
-2.3298861e-05
0.00014923057
-0.00035025448
-0.00010753165
0.00038643725
-0.00061836331
-3.8174774e-06
0.00041702195
-0.00030852966
8.5891092e-05
-7.3702304e-05
0.00046198551
0.0001002212
-0.00049909757
0.0004030857
0.00016288657
-0.0003243536
-0.00056169746
0.00022905074
-7.0002989e-05
-0.00052282852
9.1404369e-05
-6.4639072e-05
9.4263901e-05
-2.1471485e-05
-5.469872e-05
-0.00058347841
8.8895843e-05
6.7114366e-05
-0.00067119613
-7.9990419e-06
8.5809963e-05
-0.00048031673
9.826392e-05
-0.00025968982
0.00026279294
-0.00057804999
0.00043825067
-0.0005119846
0.00052927589
-0.00010280299
-0.00019293497
0.00047705209
0.0002517608
-0.00026552067
0.00038664239
0.00049214174
-0.00025793408
0.00026318703
0.00059501109
-0.00015646236
4.4277447e-05
0.00062098151
-3.5995429e-05
-0.00023307297
0.00057280717
0.00012793244
-0.00039871617
0.00041294345
4.6352414e-05
-0.00031838553
-4.1314025e-06
-3.0992311e-05
-0.0001760384
-2.3042862e-05
-4.028233e-05
-0.00016117557
0.00017111241
-4.8306112e-06
-0.00015078974
0.00010832589
-5.2740054e-05
0.00010774468
-0.00076496537
6.3941106e-06
2.1315607e-05
8.2450072e-06
1.3407737e-05
3.6088814e-05
5.680314e-05
5.7710298e-05
-0.00044037599
-5.8603689e-05
7.4062043e-05
-0.00047641716
-6.8819376e-05
0.00015814698
-0.00027441403
-0.00015508413
-0.00010565918
-0.00010077434
-2.9550095e-05
-0.00015265377
-7.3642948e-05
-4.8853128e-05
-6.8282578e-05
0.00035086766
4.8031233e-05
1.3725553e-06
0.00032465251
0.00010505986
-0.00014479621
-0.00012277374
4.7750046e-05
-0.00036522178
-8.4604175e-05
7.7889091e-06
3.2918287e-05
-0.00030812425
0.00011067349
8.111613e-05
-0.00048275604
3.5678847e-05
-2.3343422e-05
-0.00044332645
-4.8742563e-05
7.5257313e-05
-0.00044898675
0.00029133211
-0.00030074628
7.9931634e-05
-0.00010297109
-0.0001217781
-8.4214308e-05
-5.3948763e-05
-0.00010831042
4.048281e-05
5.2218396e-05
0.00012151381
1.0761054e-05
6.8645966e-05
0.00042445971
1.8341787e-05
1.7122654e-05
0.00053454781
-2.8245052e-05
6.5024597e-05
0.00062370142
6.2289822e-05
6.675268e-06
0.000552393
0.00020552406
-8.5471905e-05
0.00030949105
0.00022955428
-0.000162116
-9.619995e-05
0.0002373189
-0.00019769557
-7.0094092e-05
7.4866459e-05
-0.0001238016
1.8834223e-05
-6.1010347e-05
5.9228121e-06
-7.6230708e-05
-0.00011876782
-0.00020267221
-0.00050545285
-1.643686e-05
-0.00022092364
-5.0480691e-05
-2.123139e-05
9.5743391e-05
-5.7668303e-05
-0.00011526059
-0.00044595365
-4.4294511e-06
-8.8984859e-05
-0.00048231654
-8.4482252e-05
-6.2336776e-05
-0.00024017178
-8.5574039e-05
-0.00019012942
0.00010493007
9.0882574e-05
-0.00022090344
1.1394196e-05
8.1440146e-06
-1.1786447e-06
8.3643081e-05
5.4374322e-05
0.00018058825
6.5568878e-05
0.00011490546
4.6048488e-05
1.9328147e-05
5.8943632e-05
-3.7010335e-05
-1.1470776e-05
0.0001092062
5.7916111e-05
-0.0003973417
5.9330156e-05
5.0595821e-05
-0.00044447115
-1.7731541e-06
6.3647244e-06
-0.00037701342
-0.00012278824
2.0576595e-06
-0.00043071825
8.4386097e-05
-0.00031574064
2.3166074e-05
4.3151591e-06
-0.0001023671
7.4139395e-05
-0.00020810741
0.00013208748
-6.5346707e-05
-0.00018687509
8.1754842e-05
2.1809066e-05
-0.00010774697
0.00022243802
5.6870506e-05
-1.2018559e-05
0.00029025021
-8.6294618e-06
0.000156649
0.00041743519
5.8481259e-05
0.00031334315
0.00032248651
0.00011539682
0.0004583931
5.2652733e-05
0.00012188299
0.00037374683
4.4852608e-05
6.8086429e-05
2.4373126e-05
0.00038468506
-8.9816709e-05
-0.00013581106
0.00022404744
-0.00016724496
-2.4585928e-05
-0.00012163573
-0.00018267355
4.2432012e-05
-0.00054315878
5.1502719e-05
-0.00017456335
3.0878452e-05
0.0002413345
-0.00013798945
3.6806223e-05
-0.00019862195
-0.00024422802
-0.00023126174
-0.00037113552
-0.00014010517
-0.0001848406
-0.00010533108
-8.8871843e-05
-0.00010744443
3.622455e-05
-5.5509238e-05
0.00017162447
8.4280472e-06
0.00030608374
-1.6918598e-05
0.00042200453
-1.5258268e-05
0.00023506005
-3.8172293e-05
5.6282438e-05
-8.2327232e-05
-6.1177931e-05
-0.00013428117
-0.00027490322
-0.00043113409
-0.00033497162
-0.00019574757
-0.00016605425
0.00014541097
-0.00020578687
0.00013748553
-0.00019961481
0.00020411801
-0.00012577407
0.00014507338
0.00011773324
0.00010235872
0.00029429106
0.00015189061
0.00020993836
0.00014178386
0.00011275849
0.00015965773
0.00028836172
0.0001608023
0.00036072228
9.3634385e-05
0.00031205381
-5.733602e-05
-1.2149242e-05
-7.8267915e-05
-0.00014500552
-0.00015906576
0.0001286193
0.00014266977
-0.00020313937
-8.8510286e-06
0.00014647195
-1.7886754e-05
-0.00026532349
0.00011116349
0.00013385533
-0.00025903087
8.2086088e-05
0.0002473438
-0.00022120802
0.00013621908
8.9801005e-05
9.3331672e-05
0.00012873903
-0.00013002423
0.00013835018
0.00015029384
-0.00026964406
0.00014897598
9.3107193e-05
-0.0002749839
3.2015327e-05
7.6163374e-05
-0.00011861565
-0.00022507289
0.00011117697
-8.8567261e-05
-0.00017020463
8.4145714e-05
-6.9988288e-05
-0.00015089582
0.00014764253
-0.00019411708
0.00010136432
0.00016424409
-0.00019083613
-0.00014206272
0.00028240919
-0.00015012669
-0.00019792821
0.00022838831
8.4947116e-05
-0.0002241666
7.3491169e-05
0.00019994603
-0.00020013415
-3.0407643e-05
0.00015222606
-0.00012182845
-9.5254439e-05
0.00015437794
-6.5683156e-05
-0.00016797502
0.00011477056
1.0188117e-05
-2.3348544e-05
-0.00024707248
5.4251417e-05
0.00022517918
-0.00025731567
-7.2535338e-05
0.00026071662
7.8155574e-05
-0.00014727955
0.00019147145
0.000115659
-0.00012057937
9.3734904e-05
0.00010876866
-3.1603161e-05
9.6120719e-05
-4.6551736e-05
-0.00041210548
0.00051943014
0.00013192072
-0.0003461776
-0.00011800113
9.9161644e-05
-3.8909793e-05
-0.00058899717
-6.8929819e-06
0.00011891447
-0.00058703498
6.2648197e-05
0.0003780267
-0.00056783884
8.3701122e-05
0.00031999324
0.00014995662
8.7299594e-05
-0.00016395967
0.0006630926
5.9431697e-05
-0.00048457715
0.0005913844
4.109564e-05
-0.00034626201
-3.7524019e-05
0.00016027495
-0.00014271536
-0.00055028151
0.00021306634
-0.00015886706
-0.00043402343
0.00025849902
-0.00012241274
-0.00036166483
0.00026321053
-0.00043396896
0.0001094401
0.00019795349
-0.00046087488
-0.0001208497
0.00042837866
-0.0004378424
-0.00020823013
0.00050842431
-6.0055768e-06
-0.00024702703
0.00034581884
0.00046694595
-0.00026085682
-6.0309966e-06
0.00066068877
-0.0001926083
-0.00034022128
0.00055630872
6.0191939e-05
-0.00033920367
5.5400623e-05
0.00010470474
-0.00017701244
-0.00061119682
0.00017094079
0.00012888529
-0.0005894136
-1.408212e-05
0.00034791369
6.846264e-06
-0.0001525497
0.00018556896
0.00030597359
-8.0709915e-05
4.5619562e-05
0.00019954748
5.5564691e-05
1.5578159e-05
0.00013440713
0.00013745285
0.00040724588
3.1534543e-05
0.00019759525
-7.4819695e-05
-0.00016192752
3.0390998e-05
-0.00034542594
-0.00014518636
-6.2237882e-05
-0.00039027658
-0.00025921364
-0.0002608852
-0.00012165352
-0.00027708809
-0.0001437359
9.7595038e-05
-0.00011364084
-6.3456841e-05
0.00062839167
2.4531095e-06
0.00011317243
0.00050205551
1.7759491e-05
0.00032502551
-7.9118547e-05
-0.00012250851
-2.0784641e-05
-9.2307329e-05
-0.00010437512
-0.00013296609
-0.00019447961
-1.6688868e-05
1.1040075e-05
-0.00035992029
-0.00011007186
-0.00038968645
-8.1984993e-05
-9.7089446e-05
-0.00021450164
-0.00010880098
-0.00026358389
-0.00016324393
-9.7342971e-05
-0.00014088335
-0.00013911949
2.875517e-05
-4.171979e-05
0.00032469958
1.4837751e-05
2.7283581e-05
0.00065787299
-3.89777e-06
0.00016614609
0.00048039349
0.00014257678
0.0002738796
-3.5897629e-05
0.00021311902
-5.59881e-05
-0.00026678479
0.00022277457
-0.00040647759
-0.00024340347
7.9345818e-05
-0.00019370271
-0.00032028745
5.3348486e-05
-2.6492252e-05
-5.6032952e-05
7.6028263e-05
9.8010663e-06
-6.3474285e-07
0.00014745204
-9.7744214e-05
7.2642748e-05
0.00028016632
7.8242311e-05
-8.8310629e-06
5.5438041e-05
0.0001806832
-3.5204082e-05
-7.8273035e-05
-0.00026066042
-3.5536703e-05
-7.4974752e-05
-0.00038831899
-9.0829911e-05
-0.00022739512
6.7645521e-05
5.4003904e-05
-0.00027927854
0.00017313615
-1.5513673e-05
-4.9517555e-06
0.00035900238
4.943684e-05
0.00026842149
0.00020907114
0.0001345166
0.00017967445
0.00012535949
-5.6787348e-05
-2.6665923e-05
0.00016944752
5.3791732e-05
-1.7136019e-05
-0.00011343024
-3.1249122e-05
2.8246547e-05
-0.00033789379
-6.9182219e-05
-0.0003851722
-9.905594e-05
-8.380481e-05
-0.00011812959
-7.7913931e-05
-0.00026402503
8.8702785e-05
-4.9917415e-05
-0.00036150103
-5.9296747e-05
7.4523774e-05
-0.00019964415
4.5716902e-05
0.00010849633
6.2311023e-05
0.00035685284
9.754624e-05
0.00032778952
0.00022849322
0.00010181859
0.00033024475
-1.8022368e-05
0.0001015525
0.00030227232
-0.00026911556
9.838962e-05
0.00018870069
-0.00021311909
-6.529464e-06
0.00015523946
-0.00039080671
-6.3264482e-05
0.00036874528
-0.00036341546
-8.8796871e-05
0.00041907879
3.2115379e-05
-3.1580916e-05
0.00039532635
-4.3113322e-05
8.0146784e-05
-0.00013989393
0.00023658504
-0.00017437701
-4.0261043e-05
-0.00021507607
-0.00041119203
-0.00015749318
-0.00034449266
-0.00010438492
-0.00022592813
-5.2872801e-05
4.1013721e-05
3.6551305e-05
0.00021217254
4.6340374e-05
0.0003048629
1.5750537e-05
0.00044264712
1.6405034e-05
0.00038997639
-9.8931801e-05
0.00023335785
-0.00026360247
-0.00028609552
-0.00017022975
0.00019751114
-0.00014759357
0.00020355215
-0.00025465514
0.00025188284
-0.00026353962
0.00019967476
5.382416e-05
0.00014184778
0.00029776621
0.00013644179
0.00039027988
3.1247813e-05
0.00031324142
-3.241937e-05
0.00026034936
5.7526507e-07
-2.4358491e-05
-1.2464477e-05
-0.00034231706
-0.00010279291
-0.00026753023
-0.00012093936
-1.7209395e-05
-4.0376654e-05
0.00013763778
4.5407812e-05
-5.1227402e-05
8.0295859e-05
7.8221009e-05
0.00011900584
-0.00013846214
8.004986e-05
0.00011547414
3.8787151e-05
5.0947432e-05
4.1184042e-05
0.00012792944
8.5228796e-05
-6.9067755e-05
0.00018028438
6.0627806e-05
-0.00013698159
0.00015361579
6.5185842e-05
-0.00016533346
0.00014017881
-1.7501334e-05
-0.00016550921
0.00015499204
-7.7484388e-05
-0.00012324203
0.00010517239
-3.6214508e-05