/*--------------------------------*- C++ -*----------------------------------*\
| =========                 |                                                 |
| \\      /  F ield         | OpenFOAM: The Open Source CFD Toolbox           |
|  \\    /   O peration     | Version:  v2012                                 |
|   \\  /    A nd           | Website:  www.openfoam.com                      |
|    \\/     M anipulation  |                                                 |
\*---------------------------------------------------------------------------*/
FoamFile
{
    version     2.0;
    format      ascii;
    class       volScalarField;
    location    "510/bottomWater";
    object      T;
}
// * * * * * * * * * * * * * * * * * * * * * * * * * * * * * * * * * * * * * //

dimensions      [0 0 0 1 0 0 0];


internalField   nonuniform List<scalar> 
1460
(
969.26822
969.05821
967.69328
970.39156
968.18137
966.3107
962.7602
958.79493
956.36998
959.3083
959.87378
954.57975
944.29941
940.01
936.57861
934.38152
934.28581
931.23665
929.08749
927.56528
926.20764
926.37672
927.46398
929.8059
932.73862
932.79475
934.96474
937.43837
939.83949
945.09921
969.5626
969.72912
967.99294
968.90062
967.31678
965.31156
964.48441
960.09198
950.91361
952.97616
954.85772
953.0539
938.63215
935.8484
934.51503
932.15835
931.05237
929.06686
928.64425
926.99011
925.6561
925.67978
927.15297
927.55949
929.06285
930.38434
932.37282
933.23806
935.74931
944.47233
969.63735
970.57241
968.0975
967.74551
967.0524
965.55485
965.43171
961.18724
948.98734
948.63636
952.676
952.33028
938.79327
935.76682
935.93991
932.39015
930.71323
929.63589
929.71448
927.09415
925.57421
925.62962
927.62339
928.60902
929.11014
930.40664
933.08082
934.15168
936.06148
936.83121
969.82724
970.21613
967.87997
967.46299
966.75107
965.17202
965.32908
960.18661
948.67067
947.19837
949.45071
950.31433
939.07149
936.99448
936.82902
934.59478
931.04523
930.62224
929.51761
926.57795
925.05795
925.21364
926.5291
928.05308
928.76276
930.70392
933.62521
934.13087
935.97215
935.62876
968.98722
969.48958
968.82296
968.61062
967.13675
964.97246
964.83148
957.342
947.46779
945.24375
945.84484
945.9256
939.35688
937.19549
936.01593
934.57921
932.57933
931.50932
929.47179
926.14314
924.6882
924.96361
925.92309
926.95414
928.49316
930.90561
932.60869
933.39191
934.28082
934.68768
970.96979
970.69171
968.56689
970.42419
971.19202
972.45047
969.06421
962.77504
961.61034
959.6447
957.68905
955.76484
943.9917
938.06474
938.37295
937.83767
934.78203
931.18904
930.04212
929.20415
927.76038
928.55421
927.84155
929.73147
933.28072
934.33979
935.11092
935.64249
936.53187
939.89007
970.25687
969.57671
969.0251
968.69163
969.20253
970.09636
965.17383
959.25427
956.81689
954.98741
953.30172
952.12654
938.39769
931.74652
934.37902
933.80786
932.06164
929.35956
928.6998
927.73394
927.12175
926.66096
928.29313
929.68086
930.84598
931.42226
932.23637
931.96272
932.41186
935.49133
970.56548
971.22046
969.07387
968.39677
968.82551
969.94228
965.83214
963.68752
957.11584
947.61968
947.1372
951.15017
937.48648
932.60671
934.60151
933.77966
932.25609
929.73896
928.42138
927.84834
927.04993
926.81283
928.59686
929.80193
930.2571
930.90003
931.81487
933.00284
932.71797
935.33146
970.92765
971.39223
968.44059
968.72526
966.5768
969.7123
967.5953
965.50598
956.6334
947.65336
945.76838
946.43878
937.05077
932.83967
933.93196
933.96362
932.45116
930.18862
927.90315
927.26391
926.83232
926.86079
928.0938
929.19338
929.26807
929.90624
931.89021
933.41631
933.49683
935.11404
970.8522
971.05289
970.50989
969.96801
966.34137
967.46183
966.62779
964.25306
961.20691
946.0759
943.76427
942.50195
937.23595
933.75358
933.65354
932.48315
931.74387
929.52144
926.15077
924.64504
924.99665
925.54752
926.88461
927.48839
927.42624
929.07776
931.09331
932.57169
933.17968
934.2723
970.85606
970.21943
968.82879
969.08708
970.03142
971.36195
970.25653
956.38888
954.14526
952.16086
952.03282
952.45447
940.63479
934.40169
929.69085
928.75013
928.32883
925.01479
924.205
931.53178
931.16834
930.79461
930.34283
932.49849
932.79994
930.81013
929.43745
930.99358
932.30276
935.95007
970.74558
970.31745
968.99223
967.49429
967.8598
968.77955
967.29345
954.29535
951.46205
950.32633
949.59329
949.13086
934.84656
924.8067
925.41158
925.98993
926.06608
924.22169
923.28028
928.45063
928.5508
927.99201
929.30409
930.45839
930.63746
929.68468
929.21008
929.58852
929.65558
932.08537
971.02108
971.31488
968.98524
966.91758
968.15701
969.35076
967.0474
954.78459
955.54247
950.57822
949.06118
944.5163
931.99287
929.32534
929.6364
930.02873
929.23215
925.85464
924.17764
926.92374
926.59111
928.00857
929.34263
930.27032
930.51966
929.81961
929.18256
929.53053
931.33711
931.51082
971.45258
971.20188
968.49771
966.33043
967.07548
968.15924
966.82856
956.18537
956.0868
953.58476
949.53087
945.17751
932.97545
929.63054
929.27514
928.59285
928.63124
926.61309
924.84399
925.54868
927.3848
928.04269
929.04969
929.69164
930.28505
929.50008
927.96666
928.04212
931.12957
931.81751
970.93569
970.69618
968.84144
966.07222
965.92
966.24269
966.01527
957.92077
956.9742
953.23131
947.22447
939.4874
934.87398
931.85203
929.06974
926.86489
925.35888
924.27089
923.86891
924.50535
926.06042
926.29043
926.85998
927.28317
928.11854
928.52599
927.53223
928.02496
931.11518
932.43132
971.88143
970.64749
969.31169
970.04662
968.54576
969.12223
969.4516
954.19414
953.28994
951.88298
951.9838
947.77193
936.41389
926.07761
922.35939
920.22495
919.60783
916.93868
918.98539
923.04198
928.36261
932.2856
933.05402
935.27427
938.18922
935.31636
934.853
932.55169
928.17304
934.35365
971.23449
970.67091
969.12708
968.33555
967.95129
967.78877
966.5617
953.5702
953.34561
952.04887
951.74526
948.66822
936.83868
920.44484
919.08212
921.45924
920.98181
918.43151
919.26242
921.09387
924.78985
927.88059
931.08313
932.91344
932.86614
930.99904
930.39517
928.98475
927.8767
930.72804
971.896
971.40331
968.99561
967.85326
967.74799
967.3078
965.26485
953.92092
954.42701
952.23039
952.62573
949.08721
937.12542
919.62103
920.67019
923.0853
922.75279
921.37939
919.00668
921.24617
924.90622
928.09433
930.47803
932.0396
929.83086
928.79356
928.80203
928.31274
927.94651
928.56659
972.39844
971.1382
968.27713
966.69259
966.58168
966.14378
965.43987
954.45349
955.23545
954.55246
953.63502
950.13162
937.05839
918.14159
916.74326
917.35639
919.53339
920.12472
920.47969
922.54299
925.65255
928.38335
929.96534
930.93533
930.76038
929.96838
926.9181
926.74328
927.5963
928.59523
971.98996
971.8926
968.27106
965.84009
965.4813
964.7586
964.17491
956.44834
956.03935
955.29194
953.55531
949.20376
935.47986
919.45004
916.10599
915.12286
915.9787
918.38388
919.68932
923.03815
925.75154
927.77318
928.59984
927.8871
928.0116
928.78075
927.37062
926.68175
927.26778
927.94319
973.57513
972.59831
971.7466
970.33576
969.63344
971.18066
964.19072
954.61357
953.32078
951.89288
949.15376
942.07513
926.10382
909.15372
918.45301
923.13799
927.40457
932.24998
933.28338
932.48567
929.57034
928.98495
931.38576
933.13295
935.188
937.53822
972.33377
972.07251
971.8106
968.99224
968.24663
968.92442
964.43604
953.95443
953.68434
953.70705
951.90529
947.59619
933.63176
912.15263
921.38567
922.74617
924.73932
927.73387
931.20541
930.43283
929.36208
928.04111
928.61155
929.54926
930.37851
932.42482
972.42729
973.32012
971.92416
968.70232
967.74821
967.77545
963.89204
954.11591
954.70507
954.2926
953.27237
951.58433
937.17519
914.25105
924.43367
924.56371
925.21106
928.1006
930.79692
930.91298
929.68942
928.06336
927.91342
929.30288
928.37601
927.65336
972.62896
972.84154
971.15623
967.79068
966.79398
966.01962
964.27777
954.47339
955.08906
955.35625
955.11902
952.55094
939.76616
911.68925
924.46044
925.18696
926.32438
928.35172
930.24835
929.58629
928.4747
928.0264
926.87207
926.74363
927.02234
927.48033
973.08122
973.06722
971.85078
967.13437
965.95448
965.42466
964.43839
956.51825
956.19459
956.00703
956.03803
952.26722
941.87207
913.73405
921.06819
922.45771
925.17778
927.17617
928.05825
926.8833
926.62701
926.68218
926.17824
926.52464
926.9559
926.98255
976.02726
975.15243
973.31904
975.33598
974.5935
971.62421
962.9132
958.56074
957.32002
951.85392
943.38789
934.07463
921.8411
914.30035
923.23663
926.17399
928.55933
931.13326
931.44313
931.01143
928.99973
929.65059
929.27866
930.25485
932.07685
934.22221
973.48654
972.65474
971.96008
970.62231
971.40789
970.78241
962.09496
956.34707
954.35649
950.69193
946.19935
940.46259
934.66389
913.50875
923.73231
924.75243
925.97877
927.80599
930.18131
929.83499
929.43134
928.83426
927.81248
928.15555
929.13079
930.85008
973.79285
974.06717
971.82426
969.3492
967.51148
969.26724
961.60828
956.45653
954.58285
951.40091
951.183
949.6034
940.90594
914.30204
924.74804
923.99597
925.57636
928.0504
930.11382
930.03249
929.61298
928.82971
927.47101
928.319
928.80853
930.49835
974.01813
974.41521
973.24529
970.22766
968.4421
968.06232
961.71659
956.86764
954.80995
955.4821
956.00098
952.30756
939.25809
913.95425
923.66335
923.34661
925.72368
927.82867
929.86177
929.37055
928.85856
928.04186
927.23449
927.87762
929.67325
930.55955
973.86117
974.02686
973.32257
970.60771
966.7621
966.27516
961.56362
957.61609
956.57929
956.56817
955.78696
946.36404
936.49021
912.39553
920.30092
922.23698
924.40962
925.42954
926.43228
927.11222
926.96679
926.94833
926.76923
928.32493
929.16817
929.72267
979.39025
979.08108
976.16823
974.14731
970.57983
965.88549
961.99661
959.20772
964.13892
964.5622
956.82068
931.34426
926.53739
925.87522
927.90505
925.70154
927.2735
933.79508
930.67389
930.43169
929.31259
931.01359
931.3669
930.44341
929.61942
929.75992
930.74438
933.55427
936.31243
939.77982
976.86649
975.26866
972.9126
970.16969
966.74776
962.54166
959.49321
957.58426
958.34654
959.38502
955.50929
935.06249
931.4644
931.50817
933.0157
929.76212
933.30017
934.64679
929.94968
928.47654
927.43822
928.0008
929.05026
929.80974
929.64838
929.88734
929.47606
930.09934
931.90318
934.18059
976.85982
974.92656
971.1598
968.7725
966.21107
964.2392
960.51792
957.43888
956.56581
959.25431
956.37828
936.40864
933.8951
935.15947
934.23898
931.68147
931.19622
934.86532
929.81826
927.44565
926.84756
928.25464
929.1853
929.78989
929.81414
929.97035
929.42795
930.40071
931.09386
933.57407
976.91696
975.34906
971.93421
970.42889
969.79163
965.59822
959.86382
956.97602
955.71511
956.84723
955.54743
936.91406
937.0146
937.10028
937.67573
938.19525
932.7405
935.04099
927.74552
925.75064
926.42246
928.20352
929.23632
929.70642
929.78215
929.83398
928.80281
931.02631
932.42135
933.40545
976.43115
975.29354
973.66757
971.81318
969.3076
965.71307
963.1668
957.36232
954.55008
954.35589
953.6754
936.96624
936.66653
933.17593
931.1889
932.10881
933.52622
934.58214
925.57349
925.6668
926.22261
926.94273
927.81051
928.72552
928.60185
928.58159
928.04767
930.29547
931.4242
932.03492
977.30614
977.54759
976.50259
975.88485
973.45131
969.77674
966.12686
963.82934
963.63433
963.37502
965.46807
955.19641
952.3065
945.40693
938.92512
939.10626
940.84846
939.41909
933.34727
931.81811
930.05979
931.60187
931.76061
931.24122
930.43666
930.39471
930.96029
932.74222
935.09619
937.22075
975.46252
974.71767
973.2392
972.99359
970.94273
966.50722
964.0719
962.68521
962.1782
962.4086
963.45782
958.77491
953.39484
943.75559
938.93212
938.87934
942.05891
939.00063
932.68083
931.00136
929.79287
930.2917
930.64214
930.55209
930.33059
930.57502
930.78052
931.41298
933.003
934.39835
975.615
974.496
971.34319
969.47843
969.06746
967.16547
964.01802
962.68232
961.70643
962.37103
958.50294
956.29543
952.94198
943.31789
942.07855
942.83334
942.85361
939.0486
932.30039
930.71088
929.93408
930.43752
930.49467
930.54986
930.35842
930.32492
930.79697
931.45543
932.7978
934.34384
975.77581
975.49041
975.24311
971.32921
967.7969
966.53929
963.92292
961.7161
960.29021
960.05851
957.88948
955.58609
953.87124
943.73293
944.99948
944.55191
942.99574
940.01941
931.55528
930.35269
929.22391
929.94892
930.2698
930.56912
930.40728
929.90784
930.47077
931.01229
933.88889
934.33656
974.90637
974.40733
974.3358
971.25819
969.56457
967.48017
964.70054
962.29281
960.00732
956.73922
954.70372
952.25677
953.99932
946.51467
944.50328
942.86142
941.77745
938.89569
929.82143
928.23826
928.70667
929.03887
929.32954
929.95652
929.61713
929.30096
928.76188
929.68114
931.86773
932.92093
975.25664
975.02437
973.64764
973.82014
975.8849
977.23238
973.58945
970.26681
971.39373
970.67887
966.7491
964.22968
962.81104
957.97192
955.41755
944.06658
940.90163
939.05644
938.32139
936.81755
933.57028
932.96274
930.84048
931.41257
931.48554
931.19915
930.95424
932.27817
934.43699
935.65964
974.41156
973.8882
973.342
972.27308
973.93671
974.85074
970.94405
966.83811
971.69779
970.15541
967.38053
964.01745
960.59425
957.47813
956.10751
941.18799
939.67231
938.42961
934.74763
933.64502
932.17616
931.80847
930.84903
930.68489
930.62444
930.36135
930.13901
931.99078
932.74797
933.57805
974.53646
974.77566
973.44356
972.10269
972.14593
974.79189
971.60559
971.53825
972.34085
969.86294
967.18879
964.61508
959.23882
952.87476
956.15297
942.65049
945.95266
938.26696
932.96661
930.98607
932.08519
932.03193
931.20536
930.65321
930.58179
930.366
929.47806
932.07008
933.42945
933.62563
974.76647
974.79931
974.79589
974.39295
971.31654
971.40472
971.09377
971.22679
972.08086
969.81649
968.17838
963.40941
956.87383
951.73586
952.54332
943.21193
944.656
941.04831
934.08001
930.20749
932.22367
932.02754
930.98531
930.57459
930.49137
929.09707
929.20093
931.52412
933.77454
933.70672
974.35426
974.1278
974.03617
972.20706
970.56
970.70438
972.23911
971.94351
972.08778
970.77651
969.47519
965.11369
959.57195
949.84937
943.17261
942.12663
942.26363
938.64102
935.16461
929.49134
928.7437
929.70389
929.76257
929.57168
929.50579
928.69153
928.19537
930.75269
931.84964
932.46578
974.30922
974.4246
973.88001
973.96621
974.37815
975.31017
976.63169
977.45633
977.00892
970.61145
968.8214
967.8997
966.91285
959.16637
955.65623
955.18343
951.5462
946.29702
938.31325
934.34166
932.54594
930.78245
930.25527
929.80086
930.63888
930.83991
932.06885
930.93241
932.44639
933.62547
974.80767
974.8131
974.53877
973.74613
973.87844
974.16023
974.83707
973.80436
974.54408
969.82683
968.08161
967.58515
966.58138
960.10618
953.26936
953.39961
951.27185
945.40814
934.76063
932.62635
931.31881
930.07619
930.21029
930.07197
930.16597
930.40051
930.32579
931.31015
932.0853
932.48031
974.91373
975.09027
974.70465
973.71859
973.70085
974.12966
973.93713
973.98664
974.45119
970.91355
969.26609
967.84048
966.15664
959.88646
950.08505
950.35211
949.94469
942.03877
934.21401
932.64554
930.45196
929.76004
930.10555
930.05389
930.15549
930.33078
929.71088
931.21435
932.95666
932.48808
975.06418
975.05051
975.14026
975.11893
973.55729
973.67794
973.23281
974.35759
974.60873
971.78147
971.11745
968.32292
966.49479
959.52644
948.47382
946.83559
946.50826
938.74429
933.84495
932.7441
929.56105
928.75634
929.4052
928.96566
928.57685
928.01432
929.54818
931.11011
932.81922
932.51337
974.68248
974.37744
974.18302
973.45561
972.83577
973.45333
973.61817
974.14248
974.23948
972.06946
971.50318
970.40878
968.50874
959.04289
943.85533
944.47104
941.84803
935.11642
932.56178
931.20558
928.64015
928.41249
928.51492
928.40855
928.0313
927.48384
929.50644
930.70817
931.32788
931.1111
)
;

boundaryField
{
    minX
    {
        type            zeroGradient;
    }
    maxX
    {
        type            zeroGradient;
    }
    minY
    {
        type            fixedValue;
        value           uniform 1073;
    }
    minZ
    {
        type            zeroGradient;
    }
    maxZ
    {
        type            zeroGradient;
    }
    bottomWater_to_rightSolid
    {
        type            compressible::turbulentTemperatureCoupledBaffleMixed;
        refValue        nonuniform List<scalar> 
130
(
753.37756
761.32282
769.62404
777.87838
785.76842
793.06005
799.59516
805.2787
810.05959
813.90616
816.80092
818.73782
819.7095
747.50312
756.8004
766.29976
775.51777
784.12943
791.93894
798.83105
804.75071
809.68552
813.63365
816.59548
818.57271
819.56624
735.7166
748.13504
760.19138
771.32951
781.30657
790.05578
797.58162
803.9238
809.12583
813.2326
816.29306
818.33617
819.36052
718.18106
736.442
752.59032
766.44318
778.18642
788.06922
796.31742
803.12121
808.61634
812.90256
816.06641
818.16139
819.20872
697.57875
725.43651
746.3958
762.82096
776.01458
786.74923
795.51153
802.63169
808.32484
812.73901
815.98192
818.11767
819.17938
697.73109
725.5743
746.51667
762.92225
776.09777
786.82282
795.58514
802.70268
808.39557
812.81496
816.06834
818.21116
819.27677
718.70966
736.89159
752.96416
766.75383
778.44966
788.30254
796.53533
803.3243
808.81222
813.10544
816.28775
818.39316
819.44283
736.4263
748.76858
760.74695
771.81825
781.74153
790.44427
797.93228
804.23973
809.41755
813.514
816.57281
818.61259
819.63376
748.2387
757.51267
766.95351
776.1123
784.66812
792.41816
799.25425
805.12607
810.01579
813.92877
816.87555
818.84388
819.83044
754.07468
762.01961
770.3024
778.5125
786.34614
793.57413
800.04368
805.66432
810.38942
814.20178
817.0756
818.99724
819.9588
)
;
        refGradient     uniform 0;
        valueFraction   uniform 0.99248593;
        value           nonuniform List<scalar> 
130
(
754.71609
762.58634
770.80016
778.98153
786.81436
794.05841
800.55216
806.20452
810.96758
814.79808
817.67698
819.606
820.57344
748.87087
758.07294
767.4896
776.64098
785.19206
792.95294
799.79783
805.6725
810.58258
814.51621
817.46693
819.43387
820.42816
737.13344
749.45554
761.42606
772.49218
782.39598
791.08374
798.55619
804.85702
810.02302
814.09146
817.13262
819.18356
820.21014
719.68536
737.81886
753.87107
767.64026
779.31045
789.12518
797.30603
804.05968
809.51925
813.76268
816.89758
818.98121
820.0258
699.20289
726.90653
747.71866
764.04087
777.15039
787.811
796.49863
803.56339
809.21418
813.5914
816.81253
818.93549
819.98942
699.34403
727.03748
747.83699
764.13565
777.21983
787.87181
796.57344
803.6364
809.28638
813.67121
816.91184
819.0449
820.10667
720.33177
738.30936
754.26187
767.95208
779.56543
789.35081
797.52861
804.26563
809.71217
813.96913
817.14442
819.24248
820.28886
737.94772
750.12905
762.00552
772.99714
782.84834
791.48787
798.92433
805.18183
810.31836
814.37999
817.42271
819.46359
820.48501
749.66942
758.84759
768.17484
777.2592
785.75793
793.45019
800.23347
806.06066
810.90753
814.78737
817.73122
819.69301
820.67679
755.43503
763.30109
771.51147
779.6406
787.41364
794.5881
801.00823
806.5838
811.26928
815.06821
817.92945
819.84131
820.79401
)
;
        Tnbr            T;
        thicknessLayers List<scalar> 0();
        kappaLayers     List<scalar> 0();
        kappaMethod     fluidThermo;
        kappa           none;
        alphaAni        none;
        alpha           none;
        field           T;
    }
    bottomWater_to_leftSolid
    {
        type            compressible::turbulentTemperatureCoupledBaffleMixed;
        refValue        nonuniform List<scalar> 
130
(
908.90297
908.86118
908.76459
908.61457
908.40967
908.16187
907.87501
907.52223
907.13676
906.79316
906.51631
906.30812
906.17284
908.94835
908.90263
908.80119
908.64614
908.43852
908.20491
907.92763
907.60217
907.24968
906.87668
906.56801
906.33324
906.18612
909.00609
908.95387
908.84091
908.67829
908.48211
908.25059
907.97401
907.6436
907.32169
906.99944
906.69137
906.42546
906.26033
909.10048
909.04468
908.92213
908.75468
908.55475
908.3165
908.03628
907.7102
907.40739
907.11991
906.84575
906.59268
906.39619
909.23398
909.1789
909.05951
908.88037
908.66826
908.42134
908.13355
907.80694
907.50775
907.23006
906.97045
906.72881
906.54898
909.38968
909.33613
909.21994
909.04058
908.81159
908.54971
908.24327
907.92157
907.61688
907.33193
907.05832
906.79183
906.61359
909.55439
909.49796
909.38198
909.20725
908.98005
908.70928
908.40725
908.08084
907.76423
907.46862
907.18713
906.90908
906.76565
909.68131
909.63291
909.53091
909.36677
909.15853
908.91246
908.63694
908.34217
908.04055
907.7458
907.48229
907.26966
907.15772
909.78672
909.74516
909.65607
909.51379
909.3315
909.12401
908.89627
908.64458
908.38091
908.11468
907.86837
907.65791
907.52518
909.85184
909.81422
909.73409
909.60878
909.44587
909.25709
909.04467
908.81365
908.56844
908.3175
908.09233
907.91071
907.79996
)
;
        refGradient     uniform 0;
        valueFraction   uniform 0.99248593;
        value           nonuniform List<scalar> 
130
(
909.35446
909.31676
909.21589
909.0654
908.85092
908.58873
908.30302
907.89672
907.43975
907.08197
906.81171
906.60566
906.42222
909.41352
909.36965
909.26488
909.10691
908.87355
908.65014
908.3687
908.02778
907.65505
907.17137
906.84745
906.60493
906.41943
909.47145
909.41781
909.29172
909.10955
908.9137
908.68633
908.41011
908.02138
907.69477
907.34692
906.99609
906.67391
906.47536
909.57303
909.51691
909.36803
909.18364
908.98252
908.74062
908.45812
908.07639
907.77281
907.4819
907.1968
906.91298
906.61463
909.71374
909.65896
909.53128
909.31811
909.09875
908.84971
908.55667
908.173
907.87362
907.59661
907.33918
907.07103
906.81448
909.87414
909.82222
909.7016
909.5032
909.24706
908.98351
908.64392
908.295
907.98481
907.70192
907.42449
907.08921
906.83813
910.05691
909.99235
909.86503
909.67769
909.43336
909.13761
908.8187
908.45115
908.11579
907.82091
907.53643
907.13494
906.99029
910.17141
910.11963
910.01787
909.83185
909.61245
909.35255
909.05824
908.74764
908.43108
908.11395
907.83713
907.60772
907.50973
910.27189
910.22894
910.13984
909.98491
909.79162
909.58676
909.37226
909.12025
908.85963
908.58554
908.33131
908.08961
907.91614
910.33899
910.29937
910.21839
910.08858
909.92224
909.7395
909.52992
909.30456
909.06192
908.79655
908.56882
908.38034
908.25611
)
;
        Tnbr            T;
        thicknessLayers List<scalar> 0();
        kappaLayers     List<scalar> 0();
        kappaMethod     fluidThermo;
        kappa           none;
        alphaAni        none;
        alpha           none;
        field           T;
    }
    bottomWater_to_heater
    {
        type            compressible::turbulentTemperatureCoupledBaffleMixed;
        refValue        nonuniform List<scalar> 
92
(
734.24776
736.36138
740.46538
746.27953
724.80885
727.2881
732.1359
739.05556
704.98168
708.1673
714.57055
724.00331
345.66982
342.95576
342.97578
345.64718
422.69377
419.33981
419.53066
423.0449
488.59595
485.75476
486.42687
490.12016
544.62468
542.86145
544.72598
549.16699
672.82885
590.91219
676.82508
591.06757
685.42372
595.65392
699.29082
603.19351
345.66982
345.64718
422.69377
423.0449
488.59595
490.12016
544.62468
549.16699
590.91219
603.19351
345.65631
345.65631
342.97904
343.01368
345.70543
345.70543
422.7144
422.7144
419.4003
419.60827
423.13585
423.13585
488.64151
488.64151
485.83314
486.52441
490.22575
490.22575
544.6939
544.6939
542.96821
544.85506
549.31026
549.31026
591.00223
591.00223
591.18975
595.78973
603.33587
603.33587
673.3869
677.38259
685.97303
699.82759
705.70313
708.89132
715.2952
724.72176
725.55851
728.02081
732.85317
739.76972
734.95316
737.04069
741.13941
746.94919
)
;
        refGradient     uniform 0;
        valueFraction   nonuniform List<scalar> 
92
(
0.99248593
0.99248593
0.99248593
0.99248593
0.99248593
0.99248593
0.99248593
0.99248593
0.99248593
0.99248593
0.99248593
0.99248593
0.99248593
0.99248593
0.99248593
0.99248593
0.99248593
0.99248593
0.99248593
0.99248593
0.99248593
0.99248593
0.99248593
0.99248593
0.99248593
0.99248593
0.99248593
0.99248593
0.99248593
0.99248593
0.99248593
0.99248593
0.99248593
0.99248593
0.99248593
0.99248593
0.99248593
0.99248593
0.99248593
0.99248593
0.99248593
0.99248593
0.99248593
0.99248593
0.99248593
0.99248593
0.99248593
0.99248593
0.99248593
0.99248593
0.99248593
0.99248593
0.99248593
0.99248593
0.99248593
0.99248593
0.99248593
0.99248593
0.99248593
0.99248593
0.99248593
0.99248593
0.99248593
0.99248593
0.99248593
0.99248593
0.99248593
0.99248593
0.99248593
0.99248593
0.99248593
0.99248593
0.99248593
0.99248593
0.99248593
0.99248593
0.99248593
0.99248593
0.99248593
0.99248593
0.99248593
0.99248593
0.99248593
0.99248593
0.99248593
0.99248593
0.99248593
0.99248593
0.99248593
0.99248593
0.99248593
0.99248593
)
;
        value           nonuniform List<scalar> 
92
(
735.77275
737.86161
741.92399
747.67941
726.37889
728.83876
733.64136
740.50348
706.68637
709.82715
716.16574
725.51629
350.0311
347.30943
347.3133
349.95999
426.43391
423.09495
423.30219
426.78638
491.83471
489.02281
489.70797
493.37092
547.43125
545.6708
547.52597
551.94999
674.68185
593.38072
678.62295
593.50982
687.14963
598.05437
700.91896
605.54374
350.03129
349.88144
426.53303
426.72019
491.96661
493.30724
547.59384
551.89095
593.5494
605.52687
349.9857
350.01614
347.37423
347.39201
349.97784
350.07536
426.56107
426.53745
423.25967
423.44175
426.82051
426.96919
492.03975
491.99664
489.20255
489.86945
493.41226
493.53921
547.65863
547.64241
545.93402
547.81064
552.05016
552.19144
593.5983
593.57336
593.74459
598.31688
605.6581
605.81699
675.33898
679.28977
687.82254
701.58367
707.51264
710.66176
717.00518
726.35276
727.24394
729.6376
734.4257
741.29129
736.63695
738.59476
742.66733
748.41372
)
;
        Tnbr            T;
        thicknessLayers List<scalar> 0();
        kappaLayers     List<scalar> 0();
        kappaMethod     fluidThermo;
        kappa           none;
        alphaAni        none;
        alpha           none;
        field           T;
    }
}


// ************************************************************************* //
