/*--------------------------------*- C++ -*----------------------------------*\
| =========                 |                                                 |
| \\      /  F ield         | OpenFOAM: The Open Source CFD Toolbox           |
|  \\    /   O peration     | Version:  v2012                                 |
|   \\  /    A nd           | Website:  www.openfoam.com                      |
|    \\/     M anipulation  |                                                 |
\*---------------------------------------------------------------------------*/
FoamFile
{
    version     2.0;
    format      ascii;
    class       volVectorField;
    location    "510/bottomWater";
    object      U;
}
// * * * * * * * * * * * * * * * * * * * * * * * * * * * * * * * * * * * * * //

dimensions      [0 1 -1 0 0 0 0];


internalField   nonuniform List<vector> 
1460
(
(-0.0015780206 -0.015451897 0.00082564967)
(-0.0023758913 -0.014001819 0.00058407035)
(0.00071046855 -0.01170284 -3.3255822e-05)
(0.0026244002 -0.014013099 5.6769903e-05)
(-0.00041337473 -0.01729357 0.0014937664)
(-0.0019281761 -0.01418927 0.00032128606)
(-0.0024560105 -0.011308318 0.0010089477)
(-0.00022810466 -0.012093935 0.0011320434)
(0.0031219509 -0.011236165 0.0012993455)
(0.0035711586 -0.015490875 0.001490882)
(0.0022146842 -0.017069424 0.0019509902)
(-0.00035926708 -0.016350376 0.00092250596)
(-0.00066949271 -0.016018424 0.00074602625)
(-0.0025424317 -0.012704436 0.0010990972)
(-0.0035251406 -0.011977059 0.001304269)
(-0.0016534096 -0.013309998 0.0014713894)
(-0.0030071206 -0.016392145 0.00094018643)
(-0.0055457576 -0.014518646 0.0011383663)
(-0.004884431 -0.011842239 0.0015714995)
(-0.0031150517 -0.012441816 0.0015203245)
(-0.00035262573 -0.01312804 0.00057818161)
(0.0021509234 -0.01244342 0.0020334136)
(0.003552362 -0.011911288 0.0012734941)
(0.0047834937 -0.01447364 7.0643588e-05)
(0.002148613 -0.016616356 0.001297564)
(0.00024179907 -0.013089923 0.001835248)
(0.0030190045 -0.013471603 0.0018986359)
(0.0027252337 -0.014992735 0.0011248337)
(0.0017476365 -0.017058076 0.00089164009)
(0.00019649875 -0.018722738 0.00069322278)
(-0.0050347219 0.016791443 0.0014481662)
(-0.0018380883 0.01019261 0.001054018)
(-0.0012427032 0.0028885229 0.00068842169)
(0.0055204153 0.015398804 0.00045178729)
(-8.6874403e-05 0.018832223 0.0014461769)
(-0.004501319 0.015591219 0.0013022107)
(-0.00038756941 0.0053744054 -1.3517887e-05)
(-0.00059681857 -0.0016924067 0.00030770483)
(0.0021571568 0.0013228322 0.00031431609)
(0.0052180556 0.014720037 0.00097291225)
(0.0050486412 0.01870719 0.00038303486)
(0.0019629576 0.018127584 -0.00018864323)
(-0.0033353072 0.017350055 -0.00030779011)
(-0.0054974633 0.014265441 0.00088411301)
(-0.0030833907 0.0068750148 0.0005288799)
(-0.0016470518 0.0053090937 0.00082492023)
(-0.0016945268 0.01821133 0.0019318869)
(-0.0063302048 0.015043181 0.0026808208)
(-0.0038012363 0.0041307401 0.0016410849)
(-0.002757443 0.0014123266 0.0015104345)
(0.00025965325 0.00096360785 -3.9443724e-05)
(0.0025845768 0.00010597482 0.0013985817)
(0.0021624097 0.0013249967 0.001373076)
(0.0064032525 0.014422939 -0.00058317335)
(0.0024567439 0.017981534 -0.00015843733)
(-0.00018783719 0.0074711853 0.0012496443)
(0.0033080583 0.0081032113 -0.00051184369)
(0.0054642158 0.01587344 -0.0012523807)
(0.0018865475 0.018268243 0.00042288638)
(-0.0023042833 0.01953128 0.003046664)
(-0.0023491533 -0.00052315687 0.00030268408)
(0.0055229396 -0.014812516 -0.0019510902)
(-0.0036019507 -0.014316568 0.00027507553)
(-0.0028491813 -0.0073872811 0.00094028938)
(-0.0010207379 0.0030005388 0.0020804041)
(0.0038827534 -0.0088878923 -0.00010148819)
(0.0051033466 -0.013489399 -0.0027703448)
(0.00083978369 -0.013957517 -0.0019204566)
(-0.00096560815 -0.014181179 -0.0022159329)
(-0.0032312336 -0.015830272 -0.0011873911)
(-0.0017808844 -0.002555558 0.00059053655)
(-7.8457238e-05 0.0048428198 0.00099824354)
(-0.00046003197 0.0042886191 -0.00025771347)
(0.0019862641 -0.0052020246 -0.0011760225)
(0.0040383044 -0.013699244 -0.002581303)
(-0.0026937944 -0.014607436 -0.0021070801)
(-0.0023959321 -0.0063746513 -0.00054022015)
(-0.00093774915 -0.01451851 -0.0010605191)
(0.00025538867 -0.013385693 -0.0010140011)
(-0.00013439809 -0.01323849 -0.00074592927)
(7.5050813e-05 -0.013309564 -0.0014755111)
(0.0014388977 -0.013621503 -0.0009778362)
(-0.0019930988 -0.013603918 0.0026847845)
(-0.0047274771 -0.012830535 0.0039670329)
(-0.00033506354 -0.0048754248 0.0015309264)
(0.0030954714 -0.012963287 -0.00030662192)
(-0.0009504447 -0.015758188 -0.0036215455)
(-0.0023049342 -0.0022787921 -0.00086769877)
(-0.0016328188 0.00035558513 0.00091387995)
(-0.0012788892 -0.016971626 -0.00055368096)
(0.0016953433 0.0072922972 -0.00025331192)
(0.0035885441 0.01102041 0.00069925283)
(-0.0037639359 0.0093278014 0.0011933833)
(-0.003520019 0.0062136085 0.00083138166)
(-0.0011542783 0.002416853 0.0019432598)
(0.0031577497 0.0029219961 -0.00091027624)
(0.002053166 0.0081261631 -0.0013376651)
(0.0012854779 0.0016758056 0.0011443693)
(2.0901516e-05 -0.00092860183 -0.00080477096)
(-0.0029562761 0.012136681 -0.00045962444)
(-0.0060242596 0.0087188004 0.0019900742)
(-0.0019453938 0.009850636 0.0011654551)
(0.00095015546 0.0096385655 -0.00026212381)
(0.0037870838 0.0082475687 -0.0014235687)
(0.0040168283 0.010698865 -0.0016522694)
(-0.00083957385 0.011996417 -0.00047059143)
(-0.0018364249 0.0094599596 0.00011970131)
(-0.0019174022 0.01042394 -0.0034882482)
(7.399474e-06 -0.00080233856 -0.0012569233)
(-0.00035684249 -0.00087003001 -0.0017601741)
(0.0010875583 -0.0025867181 -0.0026196462)
(0.00089237917 -0.001027047 -0.001478287)
(0.00082155459 0.0039012373 0.0011524058)
(-0.0033799342 0.0034386875 0.0011211006)
(-0.0014076092 0.0001321213 0.0010798796)
(0.00027632676 -0.00037551034 -0.00050026467)
(-0.00073817277 0.013672045 0.00053710368)
(-0.0030828167 0.0086611296 0.0029841727)
(0.0022161915 0.0093308765 0.00032326503)
(0.0038729786 0.014144833 -0.0029606856)
(-0.00011844036 -0.003648895 -0.00040778875)
(0.003025716 -0.0039637257 0.00026238632)
(0.003997994 -0.0044880922 0.00092404121)
(0.0044878978 -0.0084966289 0.00047420258)
(0.0014980559 -0.0089778623 -0.00020128386)
(-0.0018150723 -0.0094813016 -0.0026865487)
(-0.001759152 -0.0084883943 -0.002955195)
(0.00063107634 -0.0093332745 -0.0035926853)
(-0.0052182051 -0.0085736757 -0.0011541543)
(-0.0049734766 -0.0037770798 0.00054685288)
(-0.0039413365 -0.0018230554 0.0012022171)
(-0.0026121218 0.00085953338 0.00148403)
(0.0010667908 0.0021696503 0.00069220845)
(0.0033827893 -0.002950161 0.00076060005)
(0.0031643779 -0.0055441433 0.0010833829)
(0.002717793 -0.0050397122 0.001329238)
(0.0034875318 -0.0054611478 -0.00014998852)
(0.0056467634 -0.0099772511 -0.00092635827)
(0.0041542245 -0.010220026 -0.0027912345)
(0.001351073 -0.009106013 -0.0051931442)
(0.0015403644 -0.0099180446 -0.0063643768)
(-0.0013756865 -0.0096396894 -0.0057190628)
(-0.00060438726 -0.0075161725 -0.0051896873)
(-2.4941291e-05 -0.0095903531 -0.0043001958)
(-0.0014344613 -0.010606651 -0.0035094453)
(-0.005698699 -0.010906555 -0.0028066901)
(-0.0059147899 -0.0097552236 -0.0013981884)
(-0.0047657948 -0.0078002125 -0.0017435643)
(-0.0051004886 -0.0043098187 -0.00039136472)
(-0.0011985979 -0.0015362007 -0.0002973201)
(-0.00052239024 -0.018318212 -6.9074897e-05)
(-0.0025116825 -0.018530808 -0.00085316007)
(0.00065989136 -0.01146644 -0.0013366902)
(0.0039480001 -0.013128273 -0.0021874369)
(0.0027492638 -0.014524361 -0.0010778942)
(0.0022839713 -0.015652368 -0.0011062527)
(0.00030468723 -0.016676932 0.00041095884)
(0.0013454522 -0.017979841 0.0021578456)
(0.0020239329 -0.017086338 0.001245654)
(0.0011265136 -0.018544365 -0.00088013767)
(0.0015800715 -0.017678795 -0.0016385817)
(-4.9867042e-05 -0.015095386 -0.0023066672)
(4.3122763e-05 -0.015684567 -0.0030787222)
(0.00022836481 -0.01607619 -0.001249732)
(-0.0011829918 -0.016625382 0.0016135873)
(-0.0011295169 -0.018792526 0.0031912056)
(-0.0010687687 -0.018697578 0.00013615338)
(-0.0021801194 -0.015858651 -0.00069684072)
(-0.0027232922 -0.0144197 0.00028587743)
(-0.0023733405 -0.011718177 0.0014024648)
(0.00034079506 -0.012426188 0.001930735)
(0.00058240649 -0.017360128 0.0031086225)
(-0.00073093544 -0.015169211 0.003069558)
(0.0026854055 -0.01193784 0.0015147025)
(0.0034797101 -0.013663016 0.00041331369)
(0.0013640521 -0.017256931 0.00030948377)
(0.0016375086 -0.01687399 -0.0016945112)
(0.0013576694 -0.017099291 -0.0026518532)
(0.0015834186 -0.015057633 -0.0022691959)
(0.00031178848 -0.015398719 -0.0014635574)
(-0.0048598643 0.019594252 -0.00090701793)
(-0.0059069506 0.017149997 -0.00072439684)
(-0.0016931504 -0.00048733802 -0.001428567)
(0.004434689 0.011964178 -0.0030458573)
(0.0049135192 0.016227759 -0.0030472153)
(0.0038600413 0.017732222 -0.0019586499)
(-0.0011467169 0.017930667 0.0041047959)
(-0.0012363232 0.017546442 0.0069008107)
(8.6480384e-05 0.01818898 0.0032532967)
(-0.00082330033 0.01966005 -0.001080562)
(0.0032238713 0.018787305 -0.0040057122)
(0.0024611539 0.017551857 -0.0053759122)
(-0.00053598833 0.016847373 -0.006161893)
(-0.0024429206 0.018197863 -0.0028038881)
(-0.0039365449 0.018447068 0.0021932858)
(-0.002338141 0.019807085 0.0040603588)
(0.00070623237 0.02023526 0.0013636325)
(-0.0032108813 0.018029711 0.0024893407)
(-0.0043848318 0.015664852 0.0031002019)
(-0.0017583079 0.0081348446 0.0015158848)
(0.00021280863 0.0033696486 0.00063971182)
(-0.00024505056 0.016972879 0.0070439172)
(-0.0016849645 0.0062277996 0.0028234944)
(-0.001736984 0.00044605847 0.0025993475)
(0.0035008871 0.015925571 0.003667838)
(0.0012291442 0.018176361 0.0031954606)
(0.0020053999 0.018255484 -7.8932572e-05)
(0.00354671 0.017311154 -0.0030063901)
(0.0038402778 0.016898218 -0.0030878601)
(0.00093147087 0.017001813 -0.0017295996)
(-0.0029167677 0.006058889 -0.001101998)
(0.0054305857 -0.013902532 -0.0015966375)
(-0.0017846441 -0.014825705 -0.00088705844)
(-0.0033902058 -0.013817742 0.0019564197)
(0.0019058262 -0.0036523228 0.0012590467)
(0.0018851829 0.00278083 0.00013741358)
(0.00025196653 -0.00091207886 0.00079222126)
(0.0020272573 -0.016809758 -0.0014682817)
(-0.00030178719 -0.01033969 0.0030159136)
(0.00036459529 -0.019063481 0.0028976031)
(-0.0015174989 -0.018098828 2.021639e-05)
(0.0013303042 0.0028097905 -0.0035842402)
(-0.0013575108 0.0022691577 -0.0031124312)
(-0.0015503964 0.0020657477 -0.0024930725)
(-0.0018362164 -0.0045611836 -0.00069282704)
(-0.0005491276 -0.015080077 -0.00060170408)
(-0.00018793628 -0.005468346 0.0017784242)
(-0.00012235694 0.0035386433 0.00084201929)
(0.0024055088 -0.0069587569 -0.0015138352)
(0.0040898706 -0.013131632 -0.0039250776)
(-0.00045991467 -0.01421558 -0.0040739247)
(0.00015881791 -0.015740649 -0.0031168847)
(-7.3057519e-05 -0.015209626 -0.0025233229)
(-0.0072057294 -0.014938745 0.002032877)
(-0.006467952 -0.012854442 0.003220675)
(-0.0025411279 -0.0096040123 0.0032445805)
(-0.00023382453 -0.014227658 0.0020664437)
(-0.0018757078 -0.01714073 0.0031591779)
(0.00062296763 -8.120829e-05 -0.0004698331)
(-0.00085567872 0.0025582796 8.5515558e-05)
(0.0014386162 0.0095662398 -0.001014815)
(0.004690792 0.012052457 -0.0018395965)
(-0.0042990904 0.0065440913 -0.0017116648)
(-0.00054763314 0.0006244211 0.00087493231)
(-0.0025930152 0.0034192661 0.0039072745)
(0.0026200688 0.0090859261 0.0015877477)
(0.004402662 0.0087861582 -7.4404307e-06)
(0.0041612615 0.012669853 -0.00050762243)
(-0.0018968436 0.0086479373 0.0042431494)
(0.0026734218 0.01182656 8.4093031e-05)
(-0.0056601847 0.013175824 -0.0012926918)
(-0.003625078 0.0083472664 -0.00090102216)
(-0.0013866915 0.008881031 -0.00024593397)
(0.00027114631 0.0086688949 -0.00098478105)
(0.001689832 0.0071844554 0.00032355985)
(0.0025318011 0.010355427 0.0012160577)
(-0.0015756823 0.010139325 0.0018917454)
(-0.00011726364 0.0079339347 -0.00083373214)
(0.0038864006 0.0076212073 -0.0019036303)
(0.003933926 0.0096192311 -0.0011922164)
(0.0019237166 0.007898396 0.00034776536)
(0.0025787796 0.011459099 0.00018011473)
(-0.00067481179 0.011666337 0.00070616694)
(-0.0040845723 0.010147095 0.002461843)
(-0.0031874119 0.0078846439 0.0015732314)
(-0.0026612161 0.0056407861 0.0014461488)
(-0.00055850657 0.012596774 0.00040061171)
(-0.0039752763 0.013363752 0.0010216247)
(-0.0034955729 0.0087976394 -0.00066335066)
(-0.00097494664 0.0096270901 -0.0015567501)
(0.0016111083 0.0015375221 0.00011389245)
(0.0048035576 -0.00050778822 0.00018530779)
(0.0060654136 -0.0055089456 0.0011287015)
(0.004862655 -0.0098331074 0.0011552149)
(-0.0027868105 -0.0085551526 -0.00068168537)
(-0.0010712618 -0.0027799302 -0.0012787803)
(-0.00054186711 -0.0015182884 -0.0021933366)
(0.002201214 -0.0016632023 -0.0019299744)
(0.0026837419 -0.010755148 -0.002334493)
(-0.002877061 -0.01435089 0.0045369248)
(-0.0031311499 -0.0053369106 0.0036206249)
(-0.0024300949 -0.0010433786 0.0028270501)
(-0.00038714099 0.0020152703 0.002271493)
(0.0025227903 -0.00060370523 0.0024754038)
(0.0022724485 -0.0085687819 0.0047921234)
(-0.0017244257 -0.011508265 0.0042738178)
(-0.0002071303 0.00018476129 0.00095200818)
(0.0036618271 -0.0057868467 -0.0011320867)
(0.00085187484 -0.0091479025 -0.0039966728)
(0.0011249222 -0.0067665963 -0.0054545388)
(0.00075020008 -0.0097118748 -0.0066154488)
(-0.001666241 -0.01012724 -0.0049911034)
(-0.00025741927 -0.0023947046 -0.0023084926)
(0.0013628326 -0.0067163678 -0.0026310682)
(0.00068661791 -0.011317513 -0.0037628355)
(-0.0031952787 -0.011895556 -0.0033512695)
(-0.005329703 -0.011722571 0.0011469643)
(-0.0030695775 -0.0046448612 0.0018957254)
(-0.0022445339 -0.0025441637 0.0016678538)
(-0.0014678261 -0.00033010021 0.0025281364)
(-0.0011609291 -0.017154566 -0.00011966116)
(-0.0027203176 -0.014131149 -0.0012192652)
(-0.00022962164 -0.012263323 -0.0011597458)
(0.0032379828 -0.011645949 -0.001877339)
(0.0043168097 -0.013543884 -0.0026057148)
(0.0034588417 -0.014128139 -0.0023616507)
(0.00098407143 -0.016659923 -0.0024578153)
(-0.00050537651 -0.016803916 -0.0028724311)
(-0.0021500602 -0.015095912 -0.0025965192)
(-0.0021248411 -0.011535166 -0.0019268588)
(0.0018987838 -0.013526131 -0.00064192426)
(-0.00015927056 -0.015045311 -0.0036793172)
(0.0010912557 -0.014508384 -0.004347597)
(0.0022631145 -0.015570313 -0.0038221572)
(0.0014290742 -0.015428862 -0.0027211087)
(0.0023436396 -0.015578667 -0.0029925635)
(0.0023783409 -0.014520816 -0.0029335174)
(0.0010278588 -0.014585215 -0.0031145881)
(0.00026264872 -0.015659844 -0.0029307979)
(-0.00037671259 -0.017349145 0.00020582371)
(0.00049713777 -0.01603303 0.0028118161)
(0.00031565117 -0.017117838 0.0030617181)
(-0.00069864132 -0.016657504 0.0045321638)
(-0.0010241992 -0.017388521 0.0025000289)
(-0.0032362096 -0.017744455 -0.00076167918)
(-0.0031474795 -0.017067941 -0.00051197859)
(-0.0014235595 -0.01190152 -0.0014199889)
(0.0018416899 -0.011027012 -0.0013032565)
(0.0023894501 -0.013532074 -0.0030192915)
(0.0016066557 -0.015569084 -0.0019678437)
(-0.0046903169 0.018085428 -0.0035988439)
(-0.0042708533 0.010920275 -0.0033641075)
(-0.0011917359 0.00021601371 -0.0022351983)
(0.003050181 0.0026407652 -0.0019315258)
(0.0055855349 0.010818871 -0.0035962911)
(0.0060522625 0.015904067 -0.004200365)
(0.0032722272 0.018587056 -0.0024647369)
(-0.0046989826 0.018754217 0.00079731518)
(-0.006279571 0.015649941 -0.0014456629)
(-0.0029065793 0.0030690793 0.0011532615)
(0.0001613964 0.0094585367 0.00053039823)
(-0.00025168934 0.0151654 -0.0068707616)
(-0.00069726198 0.0083836519 -0.0050379068)
(0.0014126384 0.016087154 -0.0074251129)
(0.00027340257 0.016427607 -0.0053661881)
(0.0035008697 0.016654949 -0.0059592869)
(0.0050692386 0.016404699 -0.0053319528)
(0.0050199654 0.016849965 -0.0044277626)
(0.0036056393 0.017688193 -0.0030857066)
(-0.00018729879 0.018322843 0.0032207644)
(0.0019662934 0.016881182 0.0067491726)
(0.0018998629 0.018466969 0.0072480202)
(-0.0030342984 0.01716869 0.0076864002)
(-0.0033992002 0.017622951 0.0042930507)
(-0.0056707595 0.018805851 9.1863121e-05)
(-0.005778497 0.013401671 -7.0374591e-05)
(-0.0022742301 -0.0010896778 -0.00089173346)
(-7.1563705e-05 0.0002023905 -0.0013535832)
(0.0024256562 0.012144823 -0.0037072333)
(0.0020623377 0.017170433 -0.0035141188)
(-0.0016671251 -0.00042458707 -0.0017371982)
(0.0030923107 -0.013856535 -0.001116771)
(0.00030037492 -0.014316303 -0.00092257284)
(0.00040974514 -0.014126074 0.0018063887)
(0.00063581469 -0.014526856 0.0055581276)
(-0.0017578716 -0.0085070211 0.0031919002)
(0.0021598758 0.0059445272 -0.0005771773)
(-0.0017197686 0.0061001266 0.0016426745)
(0.0019314355 -0.014075986 0.0069984312)
(-0.0012095609 -0.015142161 0.0051691614)
(-0.0023782285 -0.01381375 0.0022331226)
(0.0017368875 -0.014621387 0.0041607935)
(-0.0019582135 -0.015603694 0.0040549368)
(-0.0044857482 -0.013952151 0.0030772819)
(-0.0005948375 -0.012369836 0.002804654)
(0.0014144749 -0.01529841 0.0041824564)
(0.0014061554 -0.010599122 0.0033328601)
(0.0021066752 -0.00091134736 -0.00049765721)
(0.0011460899 0.003492021 -0.0016221419)
(0.0014647463 -0.0044588493 -0.0015392936)
(-0.00035481411 -0.013703249 -0.0054101467)
(0.00068760276 0.0011662171 0.0023872207)
(-0.0021668417 -0.0031494699 0.0014210325)
(-0.00016002594 -0.0086362357 -0.0019124351)
(-0.0024925178 0.00069876514 -9.085919e-05)
(0.0042841643 -0.015881543 -8.4661099e-05)
(-0.0022774571 -0.014795545 -0.00096475208)
(-0.0032338554 -0.013409812 -0.0013557469)
(-0.0035210661 -0.013403372 0.0016898678)
(-0.00026286489 -0.0045293235 -0.0016884061)
(0.0018151206 0.0081756294 0.00045645654)
(0.0010951621 0.00512641 -0.001749918)
(-0.00058780622 -0.0029973745 -0.0002279543)
(-0.00040992664 -0.0010856292 -4.226547e-05)
(-2.6178982e-05 0.0089890567 0.0043283408)
(-0.0032157656 0.0094494697 0.0014654794)
(-0.00037777379 0.009767268 -0.000977903)
(0.0026120456 0.0090339648 -0.00082388652)
(0.0036498874 0.011033125 0.0018997667)
(0.0014649873 0.0034706731 0.0022014297)
(0.0017458339 -0.0010732451 0.0023593117)
(0.0017137774 0.0059330178 0.0018464679)
(-0.0011753674 0.010966444 -0.00027432833)
(-0.0042317353 0.0078745002 0.0015566134)
(-0.0025244896 0.00091916475 0.002649262)
(-0.0014875402 0.0063591513 0.0017291053)
(-0.0025059987 0.010567575 0.001356243)
(-0.0015301927 0.0078960344 0.0019458003)
(0.00025267479 0.0090574384 -0.0011481431)
(0.0028314785 0.0094801273 -0.0031505247)
(-0.0028759521 0.01222373 -0.0038838729)
(-0.0019180711 0.0089081018 -0.0010806963)
(0.0010301081 0.0083879769 -0.0010749731)
(-0.0006143826 0.0114348 -0.0022204244)
(0.00081034586 0.0080736678 0.0012492038)
(0.002282621 0.012084829 0.0018824492)
(-0.0050732661 0.0089547761 -0.00043122623)
(0.0005469522 0.0014317484 -0.0014334349)
(-0.0017358957 0.0051742084 0.0016013994)
(-0.00055358075 0.0088300813 -0.00049846727)
(0.002241491 -0.0011679663 0.0021538416)
(0.003972757 -0.0072910923 0.004204803)
(0.0020705371 -0.0092699819 0.0023983352)
(-0.0045216715 -0.0097140325 0.00079845627)
(-0.0053850764 -0.007792126 0.00049520066)
(-0.0040439019 -0.0039086804 0.00069181853)
(-0.0010092658 0.0021033297 8.867243e-05)
(0.0028535388 0.0012869392 0.0016436414)
(0.0049631466 -0.0044224964 0.0028810118)
(0.0044487906 -0.011714349 0.0044364026)
(0.00057453521 -0.010963092 0.0062597316)
(-0.0035092615 -0.0078869436 0.0056039528)
(-0.00057637416 -0.002706604 0.00384258)
(0.0027928442 -0.0090726193 0.0053667256)
(-0.0019398606 -0.012140243 0.0047344065)
(-0.0050064469 -0.011134841 0.002917959)
(-0.0039435214 -0.0058387538 0.0014531068)
(-0.0026068179 -0.0025250806 -3.8557503e-05)
(-0.0019011744 0.00027195286 -0.0016018782)
(6.2149541e-05 0.00035618347 -0.0030606729)
(-0.00066772153 -0.0026924795 -0.0039721931)
(0.00076093204 -0.0025416728 -0.0033951306)
(0.00023895009 -0.0032614573 -0.0015356426)
(0.001751875 -0.0052504646 -0.0021186545)
(0.00045024848 -0.0024909492 -0.002186091)
(0.0017420176 -0.0019141622 -0.0024943208)
(0.0041994154 -0.0081386871 -0.0016852728)
(0.003111038 -0.010791332 0.00099606031)
(-0.0022802027 -0.010337493 0.0043271709)
(-0.0016311637 -0.0073226901 0.0039520736)
(-0.0015272652 -0.019216686 0.0013706421)
(-0.0024378651 -0.012954515 0.00051980159)
(-0.00045641319 -0.013194115 -0.00056705972)
(0.00059733068 -0.013509163 -0.0012452563)
(0.0025429746 -0.013559966 -0.0004501686)
(0.0040046786 -0.012951424 -0.00011340403)
(0.0025107647 -0.016209632 -0.00020403749)
(-0.0027289778 -0.01627646 0.00078546831)
(-0.0032762824 -0.012610863 0.0012740523)
(-0.00031720411 -0.014495152 -0.00027935793)
(-0.000700565 -0.015963545 -0.0025083378)
(-0.0029625488 -0.012652774 -0.0021193953)
(0.0011048188 -0.012828881 -0.0023487989)
(0.0024373788 -0.012382978 -0.003036446)
(0.0011124467 -0.013419719 -0.0024751098)
(0.0016701916 -0.013156299 -0.0018156946)
(0.0036552311 -0.012720845 -0.0021656051)
(0.003456637 -0.015018782 -0.0033433052)
(0.0029210675 -0.014061839 -0.0040837972)
(0.0017755173 -0.014907104 -0.0033788732)
(0.0013209659 -0.016235226 -0.0026238745)
(0.0014371124 -0.017512642 -0.00054058227)
(0.0016016399 -0.016846437 0.0021747993)
(0.001692435 -0.015738042 0.0023788226)
(-0.00056951633 -0.016525187 -0.00094375471)
(-0.0015220951 -0.018593783 -0.00047800019)
(-0.0014689876 -0.018577632 0.0016398469)
(-0.0028973868 -0.016068134 3.8466992e-05)
(-0.00080435112 -0.011623119 -0.00086024842)
(0.0030026278 -0.016843245 -0.00081271156)
(-0.0037699491 0.019488657 0.00035261302)
(-0.00266829 0.0057270234 -0.00066122942)
(-0.0019372953 0.0034326211 -0.0015261461)
(0.00079480813 0.006196163 -0.0022421416)
(0.0035030627 0.0010349776 0.00085165162)
(0.0052497016 0.0076643204 0.0012605409)
(0.0051951518 0.017127613 0.0011122452)
(-0.0072726428 0.016053799 0.0027571211)
(-0.0043021517 0.0032149816 0.0037607584)
(-0.0030480228 0.0037636563 0.0018694531)
(0.00066484525 0.01713555 -0.0024508869)
(-0.0017627927 0.00037396214 0.00015631249)
(0.0002474965 -0.0022675071 -0.0017254253)
(0.0012416196 0.0028454998 -0.0012474618)
(0.00057725996 0.0087423314 -0.00026656882)
(0.0023849502 0.0016778941 0.0011773053)
(0.0037704388 0.0036305838 0.00088825846)
(0.0066194354 0.01337831 -0.0031025676)
(0.0064653264 0.015562318 -0.004941742)
(0.0057629987 0.017087037 -0.0043192784)
(0.0039894472 0.018301165 -0.00099347845)
(0.0027751667 0.018772133 0.0020445353)
(-0.0017664889 0.018320635 0.0036629984)
(-0.0043786344 0.018070082 0.00016671758)
(-0.0050103621 0.018311188 -0.0036697207)
(-0.0029924087 0.019190245 -0.00050275488)
(-0.0016585025 0.019204513 0.0037422266)
(-0.0026045027 0.016105024 0.0015214752)
(-0.00073220736 -0.003619289 -0.00090363696)
(0.0030593123 0.017137492 -0.0021936016)
(-0.0011934286 -0.013572322 0.00081203394)
(0.0014945495 -0.013890182 -0.0011428073)
(-0.00013454784 -0.013786353 -0.0016431498)
(0.0021782249 -0.013619885 -0.0015727067)
(0.0013954681 -0.015770511 0.0031573185)
(-0.0042386752 -0.013966766 0.0016690006)
(0.00093589641 0.000613816 0.0011841317)
(-0.0024943603 -0.00028700542 0.0021660236)
(0.0024191143 -0.01631214 0.0052746384)
(-0.0060273379 -0.015928004 0.0036772797)
(-0.0019301383 -0.012508723 0.0022581658)
(0.0023889008 -0.014026071 0.0021896336)
(1.9012858e-06 -0.013749592 -0.00089766456)
(-0.00070824563 -0.013698279 0.0014864008)
(0.0029246778 -0.013785219 0.00321648)
(0.0035650511 -0.015390301 0.004942397)
(-0.0012897339 -0.015444786 0.0046183744)
(-0.0016573271 -0.014713247 0.0038409338)
(0.0001207534 -0.0051726077 0.00092056258)
(0.0014332334 0.001755129 2.1804838e-05)
(-8.2269774e-06 0.0040605276 0.0004350627)
(0.00063163086 0.0046838416 0.0021294219)
(0.00074703309 0.0034717504 0.0035737193)
(-0.00066951708 -0.001831741 0.0029093064)
(-0.0013159721 -0.017238911 0.0030179357)
(-0.0023242609 -0.018660628 -1.32404e-05)
(-0.0031588164 -0.0116241 -0.0035223498)
(0.00061524431 -0.010860805 -0.0044522824)
(-0.00061238111 -0.014570467 -0.0005885133)
(-0.0037224074 -0.015292923 -0.0013840893)
(-0.0001565919 0.013844245 -0.0013985718)
(-0.00039209212 -0.0018470725 -0.0019078075)
(-0.0021098834 -0.0028383402 -0.0024128085)
(-0.00043007938 0.0035466372 -0.0010091053)
(-0.0010637539 0.011673327 0.0024641682)
(-0.0040146291 0.010778699 0.0011934776)
(-0.00095035025 0.0076680088 0.001188367)
(0.00089398011 0.0078018498 0.0019502477)
(0.0032233358 0.011425095 0.0011067095)
(-0.0019070821 0.012433006 0.0018606845)
(0.0010528916 0.0010756179 0.00039617688)
(0.00055097488 -0.0026195238 -0.00037416807)
(0.00054390868 -0.0017306027 -0.0028028743)
(-0.00031869368 -0.0019444169 -0.00078660365)
(0.00033335938 0.0027932256 0.00014325454)
(0.0015879763 0.011238708 0.00016662943)
(-0.0008938317 0.011898402 0.00011984992)
(-0.0019048197 0.010196178 0.00044168093)
(-0.0031340526 0.0074277174 0.0012040507)
(-0.0012998981 0.0083143518 0.00048868674)
(-0.0012940616 0.0089961125 -0.0014042584)
(0.0010417127 0.010528169 0.001720135)
(0.0028295963 0.0098141984 0.0024304249)
(0.0047909538 0.0086522063 0.0024936534)
(0.0061543948 0.012917286 0.0026233188)
(0.0033939579 0.015268132 -0.001419782)
(-0.0026576629 0.011491688 -0.0046287641)
(-0.00097948694 0.0072989353 -0.0034747988)
(0.00053731172 -0.0032624415 0.0017701086)
(0.00030039206 0.0065834906 0.001983107)
(0.0024107435 -0.010103309 -0.0018339936)
(0.0029893238 -0.0100561 -0.0028479563)
(-0.0018225882 -0.010339657 -0.0036097818)
(-0.0048461597 -0.0097487393 -0.0019097973)
(-0.0037159963 -0.0077624596 -0.0014460741)
(-0.0013134099 -0.010183525 -0.0017309487)
(-0.00073872613 -0.004529629 -0.00080449159)
(0.0015621383 -0.0052484403 0.00094765899)
(0.0028909215 -0.010522206 0.00044826517)
(0.0050244592 -0.012554517 -0.00014566029)
(0.0049199821 -0.011785801 0.00044447528)
(0.0013241024 -0.009789086 0.0011933008)
(0.00019987819 -0.0085543794 0.00065616962)
(-0.0018839639 -0.0099876923 0.0029051654)
(-0.005236074 -0.011188985 0.0014343348)
(-0.0050900035 -0.010931896 0.00071960693)
(-0.0031669396 -0.0090024516 0.0010528072)
(-0.0019241608 -0.0052742344 0.0016083177)
(-0.0024442486 -0.0042342859 0.0020822135)
(-0.0024946944 -0.00044680638 0.0024914219)
(-0.0026250651 0.0010440979 0.0010045199)
(-0.00026073154 0.00375883 0.00089930281)
(0.0030506485 0.0014501455 0.0018296495)
(0.0040022218 -0.0063904483 0.0022407808)
(0.00083442931 -0.010872106 0.0029268182)
(0.0025333182 -0.0015219425 0.0010037876)
(0.003945661 -0.0032905239 -0.00022813777)
(0.0054316269 -0.009904742 -0.00024164107)
(0.0018933485 -0.011445183 0.00066433285)
(-0.002078735 -0.010656396 -0.0026022791)
(-0.0012486533 -0.017026254 0.0026956637)
(-0.002953294 -0.015267367 0.0027990117)
(-0.0017443745 -0.01199581 0.0018950614)
(0.0011680397 -0.011373141 0.00041652942)
(0.0025458165 -0.011578053 0.0015047689)
(0.0030971543 -0.013157638 0.0022720207)
(-0.00054615248 -0.017171918 0.0028121659)
(-0.0029378719 -0.016341782 0.002848921)
(-0.0040984626 -0.014786871 0.0023555526)
(-0.0022584749 -0.012842056 0.0019302753)
(-0.0010241211 -0.012784133 0.00074559213)
(-0.001018164 -0.013104611 0.0026812872)
(-0.00084088672 -0.012567543 0.0014605202)
(0.0013761691 -0.012293342 -0.0032231974)
(0.002959975 -0.012354931 -0.0043080304)
(0.0036935438 -0.013278141 -0.0042969866)
(0.0022152114 -0.014033398 -0.0035511756)
(-0.00022135073 -0.016947022 -0.0020972953)
(-0.0005886792 -0.016262463 -0.0011585713)
(-0.0019994596 -0.012805256 -0.00020331566)
(-0.001882376 -0.0110463 -0.00052811918)
(0.0013552695 -0.011858488 -0.0022115007)
(0.0038068357 -0.013509972 -0.0031694484)
(0.0030780927 -0.015132083 -0.0030552264)
(0.0017804594 -0.01819196 -0.00022143773)
(0.00051471408 -0.019562588 -0.0010783651)
(-0.0050000086 0.018288111 0.0032957933)
(-0.0056159093 0.013323766 0.0024472324)
(-0.0022738669 0.00050397387 0.00057595476)
(0.0011171215 0.00014032461 -0.0017260272)
(0.0021333355 0.0017153189 -0.0011028836)
(0.0064704097 0.013779169 0.0015299583)
(0.0020637807 0.018614706 0.0025130792)
(-0.0063067969 0.018032028 0.0031694895)
(-0.0063085833 0.014064386 0.0040718472)
(-0.0014966271 0.0028426012 0.0012473677)
(-0.0025105079 0.0048430499 0.0019214731)
(-0.0016513121 0.0058960755 0.002904615)
(-0.0011177798 0.0037468188 0.0013361921)
(0.00171807 0.0036378324 -0.003616478)
(0.0031586728 0.0052162856 -0.0044025975)
(0.0068895505 0.013774835 -0.0055399607)
(0.0059752858 0.016852833 -0.0050345292)
(0.00311999 0.018661446 -0.003467963)
(-0.003269799 0.018032048 0.0012327015)
(-0.0059460596 0.013794437 0.0016415396)
(-0.0016408887 0.00019871421 0.0026394128)
(-0.0026174345 0.00067913349 -0.00078407148)
(0.0053030284 0.013892491 -0.0039561344)
(0.0039504647 0.016202146 -0.0034429198)
(0.00058736752 0.019115571 0.0010409217)
(0.00065820847 0.020244892 0.0025683876)
(-0.0019062934 0.0014969966 0.0013993884)
(0.0048467997 -0.014908723 -0.0014066236)
(0.00053698109 -0.014196935 -0.0010170874)
(0.00035520532 -0.013778961 -0.0046413929)
(-0.0022740286 -0.01489523 -0.0044206266)
(-0.0037147367 -0.0070416841 -0.0032830237)
(0.00058900585 0.0060304427 0.0008952122)
(-0.0024420806 0.0041028067 0.0015868189)
(0.005020873 -0.014088968 -0.0033117168)
(0.0027881901 -0.015569654 -0.0034717242)
(-0.0031763018 -0.014393504 0.0012538173)
(-3.7586247e-05 -0.013538551 -0.00065286788)
(0.00028236118 -0.013332835 -0.00083536232)
(5.0932931e-05 -0.014019541 -0.0021425765)
(-0.0027734971 -0.014963013 -0.00056271932)
(-0.0033987266 -0.012884992 0.00048705623)
(-0.00063311501 0.00098549282 -0.0017854635)
(2.3798293e-07 0.0060115286 -1.3939708e-05)
(0.00044360905 0.0030209275 0.003555515)
(0.0034938995 -0.010744335 0.0054188342)
(0.0031556005 -0.014466141 0.0052258591)
(-0.0047540769 -0.014406903 0.0022702961)
(-0.004609409 -0.012546737 0.0010876986)
(-0.00033388364 -0.0037340536 -0.0001080309)
(-0.0004635731 -0.010407781 0.00022038275)
(0.00076970539 -0.018506189 -0.00027127413)
(0.0027407689 0.0081657705 -0.00039045627)
(0.0032754445 0.011523279 0.0016509554)
(-0.0014274559 0.001795886 -0.00053767001)
(-0.00082454889 -0.00010867541 -0.0020947725)
(-0.0012452127 0.0099930426 0.00071486974)
(-0.0048315907 0.0086733803 -0.0010033169)
(-0.001435213 0.0096172068 0.00090506478)
(0.0013225979 0.00820668 0.0027227952)
(0.004633684 0.010561114 0.00067815522)
(0.00032722711 0.011681413 0.0018070949)
(-0.0010454603 0.0069334809 0.0014484904)