/*--------------------------------*- C++ -*----------------------------------*\
| =========                 |                                                 |
| \\      /  F ield         | OpenFOAM: The Open Source CFD Toolbox           |
|  \\    /   O peration     | Version:  v2012                                 |
|   \\  /    A nd           | Website:  www.openfoam.com                      |
|    \\/     M anipulation  |                                                 |
\*---------------------------------------------------------------------------*/
FoamFile
{
    version     2.0;
    format      ascii;
    class       volScalarField;
    location    "48";
    object      p;
}
// * * * * * * * * * * * * * * * * * * * * * * * * * * * * * * * * * * * * * //

dimensions      [0 2 -2 0 0 0 0];


internalField   nonuniform List<scalar> 
64000
(
-1.24777e-21
-5.25409e-21
-3.87863e-21
-5.63961e-21
-9.23109e-21
-3.32116e-21
-5.44459e-21
-5.3006e-21
-6.14433e-21
-6.85021e-21
-4.70121e-21
-7.79298e-21
-5.88697e-21
-8.38932e-21
-5.71391e-21
-6.30018e-21
-2.40671e-21
-2.15216e-21
-2.62807e-21
-2.63054e-21
-2.39101e-21
-3.53302e-21
-4.19066e-21
-4.62392e-21
-3.21546e-21
-1.97975e-21
5.13357e-22
-6.12761e-21
-2.83941e-21
-2.0039e-21
-1.53164e-21
-1.74424e-21
-2.70989e-21
-2.66857e-21
-2.221e-21
-4.68851e-21
-8.358e-22
-4.668e-22
-8.777e-22
-8.20477e-22
-7.41909e-21
-1.27047e-20
-1.22172e-20
-9.14099e-21
-1.16329e-20
-1.12524e-20
-9.17669e-21
-7.75711e-21
-5.73947e-21
-1.35849e-20
-1.26088e-20
-1.17788e-20
-7.33505e-21
-8.23088e-21
-9.21846e-21
-8.0336e-21
-6.10668e-21
-6.05855e-22
-3.66159e-21
-3.51035e-21
-4.05171e-22
-4.49914e-21
-8.35315e-21
-1.16365e-20
-6.4583e-21
-4.15948e-21
-3.97527e-21
-7.25662e-21
-3.13256e-21
-2.44163e-21
-1.87662e-22
-2.53563e-21
-7.06569e-21
-5.35095e-21
-1.63756e-21
7.39967e-23
-3.38893e-22
-1.71951e-22
-2.06053e-21
-2.38352e-21
-6.36652e-21
-9.44327e-21
-1.39374e-20
-1.17555e-20
-9.81457e-21
-1.23751e-20
-1.26799e-20
-9.29456e-21
-9.45596e-21
-1.22959e-20
-1.09938e-20
-1.14021e-20
-9.4008e-21
-8.38937e-21
-6.72561e-21
-3.65488e-21
-1.11012e-20
-6.0375e-21
-2.87681e-21
-7.55859e-22
-3.45883e-21
-9.82026e-21
-9.9878e-21
-8.97378e-21
-5.46059e-21
-5.70032e-21
-4.74506e-21
-6.44887e-21
-3.34038e-21
-2.96137e-21
-1.31467e-21
-2.07686e-21
-4.9534e-21
-3.49003e-21
-2.22985e-21
-1.19251e-21
-6.05156e-22
1.07211e-21
-3.71521e-22
-1.6376e-22
-9.38588e-21
-1.00811e-20
-1.18447e-20
-1.53078e-20
-1.31631e-20
-1.6747e-20
-1.57043e-20
-6.74002e-21
-9.94732e-21
-1.27909e-20
-1.08832e-20
-1.20752e-20
-1.09202e-20
-8.97226e-21
-8.0379e-21
-7.18982e-21
-6.60782e-21
-8.5231e-21
-2.25988e-21
-5.77796e-22
-5.34548e-21
-8.30126e-21
-1.29183e-20
-1.00205e-20
-1.00529e-20
-2.01016e-21
-4.70328e-21
-4.58464e-21
-5.01821e-21
-5.10441e-21
-2.21227e-21
-2.60818e-21
-3.9234e-21
-2.95176e-21
-2.34533e-21
-1.77006e-21
-2.20637e-21
6.78227e-22
-1.49282e-21
-2.0928e-22
-1.67498e-20
-1.14505e-20
-1.11808e-20
-1.42107e-20
-1.38224e-20
-1.6952e-20
-1.41534e-20
-9.68802e-21
-8.35336e-21
-1.48759e-20
-1.48305e-20
-7.70884e-21
-9.46296e-21
-8.19376e-21
-1.21312e-20
-1.2755e-20
-6.5743e-21
-5.6069e-21
-5.04035e-21
-1.66484e-21
-5.05646e-21
-8.70267e-21
-1.13176e-20
-1.12712e-20
-6.85663e-21
-3.38342e-21
-4.4239e-21
-6.73657e-21
-7.09309e-21
-3.20727e-21
-2.23947e-21
-4.30073e-22
-1.9254e-21
-1.74908e-21
-4.56522e-21
-4.19122e-21
-1.23581e-21
-8.92454e-22
8.98959e-22
-1.16718e-21
-1.28586e-20
-1.17812e-20
-1.04497e-20
-1.4416e-20
-1.46022e-20
-1.42836e-20
-1.13856e-20
-1.42997e-20
-1.29282e-20
-1.35637e-20
-1.25803e-20
-9.20719e-21
-1.15124e-20
-8.22404e-21
-9.62937e-21
-1.1749e-20
-5.83983e-21
-4.91273e-21
-4.29689e-21
-4.99099e-21
-5.17798e-21
-1.03004e-20
-1.12985e-20
-1.04395e-20
-9.06681e-21
-1.86169e-21
-4.04613e-21
-3.85274e-21
-6.85396e-21
-4.59681e-21
-4.72457e-21
-3.75507e-21
-2.24985e-21
-9.06923e-22
-3.85949e-21
-1.26295e-21
-1.62302e-21
-1.64506e-21
-3.66727e-22
6.16248e-22
-1.49715e-20
-1.54715e-20
-1.0201e-20
-1.29267e-20
-1.42765e-20
-1.45964e-20
-1.12078e-20
-1.30657e-20
-1.45415e-20
-1.2395e-20
-1.27189e-20
-1.22603e-20
-1.19715e-20
-9.89459e-21
-7.85875e-21
-1.01168e-20
-7.14461e-21
-2.37082e-21
-3.87944e-21
-5.76879e-21
-7.48792e-21
-1.22714e-20
-1.23939e-20
-1.17219e-20
-4.44663e-21
-5.19108e-21
-5.5826e-21
-2.29799e-21
-4.87028e-21
-3.51948e-21
-6.45289e-21
-6.70091e-21
8.91136e-22
-9.20613e-22
-3.29914e-21
-2.70015e-21
-1.96646e-21
-2.20334e-21
-1.91296e-21
-1.54073e-21
-1.43099e-20
-1.42082e-20
-1.26752e-20
-1.20381e-20
-1.47938e-20
-1.2658e-20
-1.1996e-20
-1.86225e-20
-1.62532e-20
-1.30984e-20
-1.08144e-20
-1.05452e-20
-1.09606e-20
-1.11078e-20
-7.79179e-21
-1.01162e-20
-6.78009e-21
-3.57707e-21
-6.10593e-21
-3.88776e-21
-6.89742e-21
-1.0616e-20
-1.06356e-20
-9.94318e-21
-5.57733e-21
-6.49731e-21
-4.59168e-21
-5.29131e-21
-4.16965e-21
-4.22898e-21
-4.9198e-21
-5.20024e-21
-1.27616e-21
-3.2421e-21
-4.89337e-21
-2.53675e-21
-1.34019e-21
-3.91771e-21
-1.48399e-21
-1.82908e-21
-1.94511e-20
-1.61403e-20
-1.24393e-20
-1.38688e-20
-1.48864e-20
-1.60013e-20
-1.38215e-20
-1.33398e-20
-1.41632e-20
-1.69936e-20
-8.23681e-21
-9.1726e-21
-1.41086e-20
-9.76344e-21
-9.38136e-21
-9.98649e-21
-5.76619e-21
-1.08325e-21
-6.8319e-21
-9.29463e-21
-3.90638e-21
-9.01639e-21
-1.36537e-20
-8.82633e-21
-2.97934e-21
-5.67253e-21
-8.49477e-21
-7.43154e-21
-4.69155e-21
-5.95655e-21
-5.38532e-21
-3.60611e-21
-6.9784e-22
-3.4469e-21
-6.03512e-21
-2.05337e-21
-7.00024e-22
-3.09782e-21
-1.61693e-21
-1.44423e-21
-1.26398e-20
-1.31795e-20
-1.33665e-20
-1.26122e-20
-1.65662e-20
-1.76199e-20
-1.2592e-20
-1.32184e-20
-1.28279e-20
-1.60466e-20
-1.22858e-20
-8.33645e-21
-1.13816e-20
-8.49971e-21
-1.12087e-20
-9.33264e-21
-6.78741e-21
-5.07544e-21
-3.58748e-21
-6.75177e-21
-8.10559e-21
-1.03013e-20
-1.15985e-20
-1.01158e-20
-7.72372e-21
-5.97111e-21
-5.5541e-21
-5.65717e-21
-6.84344e-21
-6.18946e-21
-3.06369e-21
-3.58399e-21
-3.36972e-21
-3.49921e-21
-7.38928e-21
-4.4346e-21
-2.58371e-21
-5.80966e-22
-8.36481e-22
-2.47361e-22
-1.07327e-20
-1.42562e-20
-1.53434e-20
-1.72158e-20
-1.4212e-20
-1.57977e-20
-1.77847e-20
-1.15324e-20
-1.36475e-20
-1.54905e-20
-1.12272e-20
-7.49889e-21
-1.08831e-20
-9.9945e-21
-1.1687e-20
-1.216e-20
-5.45045e-21
-2.73196e-21
-8.13386e-22
-7.82208e-21
-1.1496e-20
-1.49248e-20
-1.14326e-20
-1.04158e-20
-9.97651e-21
-6.43616e-21
-2.38632e-21
-4.40572e-21
-6.36804e-21
-9.53236e-21
-4.01501e-21
-3.91251e-21
-4.05539e-21
-3.02722e-21
-2.52146e-21
-6.34726e-21
-2.78504e-21
-9.60252e-22
-1.12044e-21
-1.01271e-21
-1.1528e-20
-1.55549e-20
-1.55792e-20
-1.5239e-20
-1.58364e-20
-1.82108e-20
-1.30133e-20
-1.51158e-20
-1.17123e-20
-1.4834e-20
-1.63402e-20
-8.35872e-21
-7.38455e-21
-1.15434e-20
-9.49341e-21
-1.13757e-20
-8.14097e-21
-3.99488e-21
-4.31974e-21
-4.44468e-21
-9.96934e-21
-1.49535e-20
-1.21361e-20
-1.19608e-20
-1.24631e-20
-4.92046e-21
-4.82897e-21
-5.42267e-21
-6.89748e-21
-5.12075e-21
-2.77005e-21
-4.74765e-21
-4.15661e-21
-4.37991e-21
-3.71137e-21
-3.48672e-21
-7.47675e-22
-7.53312e-22
-2.10772e-21
-3.27854e-21
-1.66671e-20
-1.50653e-20
-1.56911e-20
-1.58484e-20
-1.81932e-20
-1.76974e-20
-1.80994e-20
-1.86286e-20
-1.21257e-20
-1.3251e-20
-1.45574e-20
-1.03129e-20
-9.57253e-21
-1.24081e-20
-9.80724e-21
-1.21939e-20
-7.73625e-21
-3.38549e-21
-3.25568e-21
-8.51981e-21
-8.63736e-21
-1.36821e-20
-1.23886e-20
-1.2681e-20
-7.36256e-21
-5.13967e-21
-5.47226e-21
-5.69276e-21
-6.80163e-21
-4.36864e-21
-6.31606e-21
-5.38335e-21
-1.10403e-21
-6.70044e-21
-7.37373e-21
-2.49571e-21
-5.95334e-22
-1.75507e-21
-1.53774e-21
-2.02697e-21
-1.89385e-20
-1.88898e-20
-1.57909e-20
-1.832e-20
-1.52392e-20
-1.56873e-20
-1.67381e-20
-1.58125e-20
-1.41911e-20
-1.70834e-20
-1.31662e-20
-1.1117e-20
-1.3334e-20
-1.24098e-20
-1.17364e-20
-1.17632e-20
-8.5411e-21
-1.55383e-21
-1.70156e-21
-8.96659e-21
-9.93652e-21
-1.31761e-20
-1.23117e-20
-1.2835e-20
-8.59436e-21
-3.49914e-21
-8.5417e-22
-5.43842e-21
-6.83761e-21
-3.57249e-21
-4.34145e-21
-8.61782e-21
-3.67465e-21
-4.43687e-21
-7.29904e-21
-4.52737e-21
-1.03817e-21
-6.88795e-22
-4.28226e-22
-2.45912e-21
-1.28721e-20
-2.01429e-20
-1.97893e-20
-1.70015e-20
-1.46729e-20
-1.68637e-20
-1.86682e-20
-1.99873e-20
-1.55177e-20
-1.32109e-20
-1.06682e-20
-1.49452e-20
-1.41114e-20
-1.09541e-20
-9.48205e-21
-1.17925e-20
-9.62001e-21
-6.07614e-21
-5.34319e-21
-6.54795e-21
-1.11215e-20
-9.7872e-21
-1.08938e-20
-1.31015e-20
-7.26516e-21
-3.8548e-21
-5.27408e-21
-7.4855e-21
-4.99182e-21
-3.56265e-21
-2.55119e-21
-5.35684e-21
-3.99332e-21
-3.79461e-21
-7.03428e-21
-2.74643e-21
-1.90691e-22
-2.79035e-21
-2.56143e-21
-3.32481e-22
-1.41061e-20
-1.55646e-20
-2.02878e-20
-1.66107e-20
-1.64803e-20
-1.71432e-20
-1.65599e-20
-1.76265e-20
-1.54077e-20
-1.23129e-20
-1.49773e-20
-1.4435e-20
-1.42244e-20
-1.09312e-20
-1.17442e-20
-1.24899e-20
-9.66866e-21
-6.02383e-21
-3.23649e-21
-7.2688e-21
-1.20581e-20
-1.2342e-20
-1.15061e-20
-7.80338e-21
-5.11603e-21
-6.63867e-21
-7.36834e-21
-4.7669e-21
-4.19245e-21
-3.01344e-21
-3.40459e-21
-4.15092e-21
-4.91111e-21
-4.22841e-21
-8.80847e-21
-5.6905e-21
1.36578e-21
4.70624e-22
-2.05737e-21
-2.45835e-22
-1.47432e-20
-1.44535e-20
-1.77748e-20
-1.3891e-20
-1.4789e-20
-1.75297e-20
-1.92373e-20
-1.96721e-20
-1.63278e-20
-1.45365e-20
-1.159e-20
-1.59834e-20
-8.73843e-21
-1.07274e-20
-1.25334e-20
-1.2509e-20
-1.15414e-20
-7.75156e-21
-7.82455e-21
-5.79167e-21
-1.29015e-20
-1.12497e-20
-1.14621e-20
-6.4699e-21
-6.85156e-21
-1.91261e-21
-6.5047e-21
-9.33271e-21
-1.96961e-21
-4.44968e-21
-4.15052e-21
-5.27613e-21
-5.01539e-21
-2.95184e-21
-3.77995e-21
-4.85542e-21
-2.22427e-21
-4.28658e-22
-9.80799e-22
-1.50954e-21
-1.08922e-20
-1.59323e-20
-1.96714e-20
-1.40607e-20
-1.34097e-20
-1.97933e-20
-1.63808e-20
-1.68881e-20
-1.72216e-20
-1.63218e-20
-1.41121e-20
-1.31176e-20
-1.06023e-20
-1.02663e-20
-1.64627e-20
-1.33382e-20
-1.01641e-20
-3.20829e-21
-6.48611e-21
-1.00249e-20
-1.53105e-20
-9.72228e-21
-6.73381e-21
-7.0624e-21
-6.75033e-21
-6.01791e-21
-7.43242e-21
-6.94523e-21
-4.86597e-21
-5.58855e-21
-4.93288e-21
-1.50845e-21
-2.93826e-21
-3.09462e-21
-9.04277e-22
-3.96952e-21
-2.07023e-21
-2.47296e-21
1.91142e-22
-4.99469e-22
-8.94984e-21
-1.26963e-20
-1.6069e-20
-1.58043e-20
-1.73827e-20
-1.78648e-20
-1.56092e-20
-1.45697e-20
-1.6489e-20
-1.59083e-20
-1.41032e-20
-1.40318e-20
-1.15025e-20
-8.69647e-21
-1.50822e-20
-1.57136e-20
-1.05749e-20
-8.51687e-21
-1.13636e-20
-1.06871e-20
-1.16955e-20
-3.92533e-21
-6.51762e-21
-7.29992e-21
-5.05264e-21
-6.05127e-21
-8.8125e-21
-5.80483e-21
-4.42606e-21
-5.31803e-21
-7.09479e-21
-2.18995e-21
-2.05093e-21
-2.95664e-21
-1.3416e-21
-3.36098e-21
-7.87121e-22
-1.99533e-21
-3.04186e-21
-3.41257e-21
-6.12234e-21
-1.33774e-20
-1.78457e-20
-1.49918e-20
-1.67595e-20
-1.46244e-20
-1.28202e-20
-1.62181e-20
-2.01824e-20
-1.5577e-20
-1.36165e-20
-1.30784e-20
-1.21514e-20
-1.20944e-20
-1.43888e-20
-1.33984e-20
-9.2248e-21
-8.92873e-21
-1.39495e-20
-9.775e-21
-1.01148e-20
-8.10775e-21
-6.52766e-21
-7.8793e-21
-3.50652e-21
-2.81692e-21
-1.19283e-20
-9.73135e-21
-9.02431e-21
-1.59582e-21
-2.28253e-21
-1.83765e-21
-3.74613e-21
-2.34747e-21
-2.73915e-21
-3.70112e-21
-3.26948e-21
-1.86233e-21
-3.4653e-21
-2.88529e-21
-9.62023e-21
-1.2846e-20
-1.58731e-20
-1.25129e-20
-1.48886e-20
-1.39297e-20
-1.56295e-20
-1.6313e-20
-1.74264e-20
-1.651e-20
-1.71956e-20
-1.49371e-20
-1.02428e-20
-1.40544e-20
-1.55754e-20
-9.79691e-21
-8.86939e-21
-6.54049e-21
-1.19216e-20
-1.01173e-20
-9.3872e-21
-5.22937e-21
-6.61152e-21
-1.00179e-20
-8.25479e-21
-3.8708e-21
-8.34742e-21
-7.63443e-21
-6.90732e-21
-3.18548e-21
-4.37476e-21
-2.13089e-21
-4.93723e-21
-2.44211e-21
-3.07547e-21
-5.33967e-21
-1.07004e-21
-2.21633e-21
-2.55318e-21
-3.02765e-21
-1.38342e-20
-1.56595e-20
-1.45877e-20
-1.25657e-20
-1.74203e-20
-1.31391e-20
-1.48798e-20
-1.59913e-20
-1.53103e-20
-1.58867e-20
-1.66481e-20
-1.67514e-20
-1.38732e-20
-1.79905e-20
-1.21674e-20
-9.05338e-21
-7.66874e-21
-7.91615e-21
-1.24802e-20
-9.66631e-21
-9.09096e-21
-1.88536e-21
-7.35262e-21
-9.64355e-21
-8.21102e-21
-5.95109e-21
-7.12282e-21
-9.85403e-21
-5.87803e-21
-2.212e-21
-3.99271e-21
-2.66147e-21
-2.55286e-21
-3.47505e-21
-5.95803e-21
-6.83556e-21
-1.40168e-21
-1.73645e-21
-1.22055e-21
-9.97679e-23
-1.70001e-20
-1.86031e-20
-1.45098e-20
-1.46228e-20
-1.59288e-20
-1.76251e-20
-1.4679e-20
-1.27686e-20
-1.77181e-20
-1.28944e-20
-1.66094e-20
-1.751e-20
-1.39731e-20
-1.25409e-20
-1.08513e-20
-8.38579e-21
-6.53345e-21
-4.99424e-21
-8.3797e-21
-1.13367e-20
-1.22569e-20
-6.12867e-21
-8.23675e-21
-9.23647e-21
-9.57028e-21
-9.97677e-21
-7.04301e-21
-6.52606e-21
-4.46396e-21
-2.56524e-21
-3.8424e-21
-5.57057e-21
-1.50285e-21
-1.07303e-21
-9.95365e-21
-5.99332e-21
-2.06242e-21
-3.96673e-22
-1.85036e-21
-1.47504e-21
-1.35407e-20
-1.52502e-20
-1.79764e-20
-1.45094e-20
-1.58982e-20
-1.66754e-20
-1.51434e-20
-1.74017e-20
-1.34121e-20
-1.46794e-20
-1.70475e-20
-1.70884e-20
-9.43931e-21
-1.46009e-20
-1.55538e-20
-8.82971e-21
-4.56775e-21
-4.62421e-21
-8.58558e-21
-8.50699e-21
-8.74881e-21
-9.99508e-21
-1.0385e-20
-8.71176e-21
-1.12213e-20
-5.22129e-21
-7.03685e-21
-8.97868e-21
-2.11381e-21
-4.68926e-21
-7.336e-21
-6.90621e-21
2.42255e-22
-4.72478e-21
-9.45493e-21
-6.11908e-21
-3.86071e-21
6.66342e-22
-1.83763e-21
-3.76793e-21
-1.04835e-20
-1.49333e-20
-1.66228e-20
-1.63537e-20
-1.40909e-20
-1.72276e-20
-1.58202e-20
-1.55999e-20
-1.20919e-20
-1.63461e-20
-1.90526e-20
-1.51533e-20
-9.43025e-21
-1.02134e-20
-1.2194e-20
-7.97346e-21
-7.39656e-21
-1.03399e-20
-7.73402e-21
-7.92925e-21
-8.36862e-21
-1.05546e-20
-8.02228e-21
-8.33545e-21
-1.07266e-20
-7.5371e-21
-5.0526e-21
-5.67465e-21
-5.36293e-21
-5.17973e-21
-6.70445e-21
-6.3557e-21
-2.01166e-22
-4.23597e-21
-9.78039e-21
-6.99187e-21
-2.88122e-21
-1.39581e-21
-1.14699e-21
-1.84175e-21
-1.32213e-20
-1.63746e-20
-1.89236e-20
-1.36129e-20
-1.33029e-20
-1.59937e-20
-1.6078e-20
-1.83249e-20
-1.14892e-20
-1.46108e-20
-2.01177e-20
-1.5843e-20
-1.15973e-20
-1.17592e-20
-7.77628e-21
-8.31804e-21
-9.09871e-21
-6.42465e-21
-4.21021e-21
-8.42092e-21
-8.84265e-21
-1.30976e-20
-1.04086e-20
-1.14035e-20
-8.82431e-21
-8.11354e-21
-5.64582e-21
-8.41717e-21
-5.7814e-21
-2.78699e-21
-3.94534e-21
-4.93527e-21
-1.06722e-21
-2.73199e-21
-6.53811e-21
-9.85774e-21
-4.29924e-21
-3.03619e-21
-9.39685e-22
2.84614e-22
-1.22081e-20
-1.44151e-20
-1.62759e-20
-1.85802e-20
-1.62559e-20
-1.81241e-20
-1.57394e-20
-1.06583e-20
-1.31284e-20
-1.35971e-20
-1.83759e-20
-1.59484e-20
-9.06248e-21
-1.18421e-20
-1.0797e-20
-1.19491e-20
-8.23424e-21
-6.65167e-21
-2.08762e-21
-5.02876e-21
-7.47225e-21
-1.36579e-20
-1.05533e-20
-8.95559e-21
-9.63868e-21
-9.08278e-21
-4.86715e-21
-3.63296e-21
-8.23959e-21
-3.96172e-21
-1.79166e-21
-7.47879e-21
-4.97983e-21
-3.44224e-21
-6.0157e-21
-4.50409e-21
-4.66325e-21
-3.17497e-21
-1.26718e-21
-1.78721e-21
-1.01852e-20
-1.43234e-20
-1.60649e-20
-1.66425e-20
-1.52246e-20
-1.63066e-20
-1.49171e-20
-1.28142e-20
-1.30208e-20
-1.42709e-20
-1.80963e-20
-1.01966e-20
-1.06198e-20
-1.24354e-20
-1.05767e-20
-7.83059e-21
-9.41773e-21
-7.36132e-21
-6.76353e-21
-6.83744e-21
-7.94778e-21
-6.99216e-21
-1.01208e-20
-1.05681e-20
-7.75495e-21
-7.20072e-21
-7.41917e-21
-4.99556e-21
-5.86391e-21
-3.27152e-21
-4.12576e-21
-5.18403e-21
-6.9217e-21
-8.08005e-21
-6.51244e-21
-4.44088e-21
-3.33519e-21
-4.13221e-21
-1.44899e-21
-1.63411e-21
-1.30714e-20
-1.87712e-20
-1.5452e-20
-1.20537e-20
-1.9087e-20
-1.77818e-20
-1.50981e-20
-1.18997e-20
-1.24662e-20
-1.39322e-20
-1.46931e-20
-1.11715e-20
-1.2862e-20
-1.01824e-20
-1.43657e-20
-7.66555e-21
-7.58147e-21
-4.82751e-21
-7.32734e-21
-5.34724e-21
-9.7621e-21
-8.53525e-21
-7.78589e-21
-9.31893e-21
-1.10202e-20
-5.02404e-21
-6.32568e-21
-7.06285e-21
-3.59403e-21
-5.48988e-21
-4.30961e-21
-5.09708e-21
-7.60356e-21
-5.57001e-21
-9.13518e-21
-4.15863e-21
-3.10021e-21
-5.56911e-21
-1.57946e-21
3.29049e-22
-1.17304e-20
-1.58497e-20
-1.7583e-20
-1.33678e-20
-1.53887e-20
-1.96913e-20
-1.63637e-20
-1.17886e-20
-1.1831e-20
-1.48934e-20
-1.28167e-20
-1.25508e-20
-1.39197e-20
-1.07583e-20
-1.19222e-20
-1.02193e-20
-5.92746e-21
-1.06218e-20
-6.61437e-21
-4.18409e-21
-1.01549e-20
-9.943e-21
-9.59163e-21
-9.70765e-21
-1.05096e-20
-7.33618e-21
-7.08351e-21
-1.86989e-21
-4.23345e-21
-4.61237e-21
-4.69999e-21
-6.87609e-21
-3.0968e-21
-5.57949e-21
-7.32319e-21
-6.03515e-21
-4.33343e-21
-3.26719e-21
-1.79593e-21
-4.8004e-22
-1.33829e-20
-1.34942e-20
-1.4615e-20
-1.51962e-20
-1.58792e-20
-1.58407e-20
-1.63487e-20
-1.36408e-20
-1.2522e-20
-1.32755e-20
-1.25424e-20
-1.09435e-20
-1.30854e-20
-1.33845e-20
-1.17601e-20
-1.0869e-20
-6.78265e-21
-7.6253e-21
-6.22796e-21
-8.03536e-21
-9.46449e-21
-9.10402e-21
-1.06646e-20
-1.23247e-20
-1.00622e-20
-6.99617e-21
-4.47819e-21
-5.11558e-21
-6.4202e-21
-3.61029e-21
-4.24921e-21
-4.35553e-21
-2.77497e-21
-3.99128e-21
-5.571e-21
-7.01185e-21
-2.7312e-21
-3.11006e-21
-2.90193e-21
-1.97344e-21
-1.71191e-20
-1.42218e-20
-1.20295e-20
-1.41124e-20
-1.696e-20
-1.80312e-20
-1.48332e-20
-1.33515e-20
-1.46328e-20
-1.2856e-20
-9.64951e-21
-1.20023e-20
-1.46464e-20
-1.19132e-20
-9.90583e-21
-1.06066e-20
-6.83155e-21
-6.14312e-21
-4.99665e-21
-8.3454e-21
-8.62358e-21
-1.11098e-20
-1.55836e-20
-1.0529e-20
-8.81745e-21
-9.32353e-21
-4.76418e-21
-2.85676e-21
-3.08673e-21
-6.42595e-21
-4.91359e-21
-5.98049e-21
-1.09945e-21
-2.90365e-21
-7.00402e-21
-3.22679e-21
-2.1395e-21
-2.13106e-21
-3.3261e-21
-3.22718e-21
-1.08942e-20
-1.07931e-20
-1.29376e-20
-1.25247e-20
-1.89372e-20
-1.60652e-20
-1.3877e-20
-1.39789e-20
-1.34041e-20
-1.39165e-20
-1.25495e-20
-1.03672e-20
-1.15034e-20
-1.04474e-20
-7.85437e-21
-1.18438e-20
-8.56959e-21
-6.95179e-21
-6.4669e-21
-4.12017e-21
-9.31803e-21
-1.37437e-20
-1.21693e-20
-1.06697e-20
-1.12561e-20
-9.90134e-21
-1.56648e-21
-2.23866e-21
-5.73938e-21
-5.1168e-21
-4.76923e-21
-7.29617e-21
-1.61772e-21
7.46555e-22
-4.09315e-21
-2.85147e-21
-1.73397e-21
-5.17245e-21
-2.45573e-21
-1.21029e-21
-1.2641e-20
-1.28805e-20
-1.38375e-20
-1.58654e-20
-1.5713e-20
-1.15526e-20
-1.32504e-20
-1.1875e-20
-1.4063e-20
-1.13697e-20
-1.25011e-20
-1.45961e-20
-1.08257e-20
-8.20452e-21
-8.64067e-21
-1.17964e-20
-1.02225e-20
-7.00976e-21
-6.90301e-21
-6.98162e-21
-7.01266e-21
-9.10302e-21
-1.26689e-20
-1.12892e-20
-8.259e-21
-8.26994e-21
-5.22631e-21
-3.99904e-21
-3.47877e-21
-5.9693e-21
-4.69335e-21
-4.84416e-21
-1.10728e-21
-4.31258e-23
-8.66527e-22
-3.08469e-21
-1.28526e-21
1.03597e-21
-5.20523e-21
-3.43067e-21
-1.43435e-20
-1.15568e-20
-1.162e-20
-1.18779e-20
-1.52644e-20
-1.675e-20
-1.375e-20
-1.39977e-20
-1.36996e-20
-1.09483e-20
-6.69636e-21
-1.24676e-20
-6.85403e-21
-7.27331e-21
-9.54306e-21
-1.17938e-20
-1.24588e-20
-6.67797e-21
-7.78598e-21
-9.40632e-21
-5.46074e-21
-9.16968e-21
-1.07075e-20
-9.37777e-21
-1.02057e-20
-7.04584e-21
-6.32252e-21
-9.54265e-21
-3.39819e-21
-4.53543e-21
-5.44509e-21
-4.18076e-21
-2.98681e-21
-2.09253e-21
-3.20938e-22
-2.95681e-22
-2.72929e-21
-3.06697e-22
3.52933e-22
-1.04842e-21
-9.34134e-21
-1.18999e-20
-1.39351e-20
-1.14465e-20
-1.26262e-20
-1.46111e-20
-1.15286e-20
-1.23455e-20
-1.24714e-20
-1.15293e-20
-1.05353e-20
-7.66072e-21
-9.52636e-21
-8.71418e-21
-9.55289e-21
-9.38797e-21
-8.79591e-21
-6.5352e-21
-7.27466e-21
-8.53029e-21
-5.80386e-21
-8.7096e-21
-1.09937e-20
-1.18113e-20
-9.26497e-21
-6.52148e-21
-3.90228e-21
-5.17896e-21
-5.87176e-21
-3.3099e-21
-5.25486e-21
-4.4514e-21
-2.97917e-21
-3.39341e-21
-3.55565e-21
-1.01946e-21
5.51686e-22
4.14998e-22
7.27994e-22
-1.88654e-21
-8.05568e-21
-1.0862e-20
-1.28803e-20
-1.40563e-20
-1.0496e-20
-1.22533e-20
-1.26642e-20
-1.07137e-20
-8.70607e-21
-1.11691e-20
-1.03402e-20
-8.10585e-21
-1.06357e-20
-7.95649e-21
-9.28025e-21
-9.55924e-21
-7.39734e-21
-1.89509e-21
-3.81016e-21
-1.06368e-20
-4.86959e-21
-1.0915e-20
-1.22762e-20
-1.04865e-20
-8.10382e-21
-8.1717e-21
-6.52002e-21
-4.01655e-21
-4.94653e-21
-1.88017e-21
-5.208e-21
-4.19117e-21
-5.3617e-21
-2.63905e-21
-1.71618e-21
-8.22117e-22
9.90227e-22
-1.07779e-21
-1.2829e-21
-1.6732e-21
-5.84699e-21
-1.02905e-20
-1.27307e-20
-8.94237e-21
-9.31783e-21
-1.23158e-20
-1.06341e-20
-1.08034e-20
-9.46671e-21
-1.06981e-20
-6.95224e-21
-9.96965e-21
-9.27913e-21
-9.60748e-21
-7.92524e-21
-4.69799e-21
-4.42536e-21
-4.91694e-21
-4.02681e-21
-1.03522e-20
-7.25097e-21
-9.40358e-21
-1.26409e-20
-1.31707e-20
-4.55571e-21
-5.17231e-21
-6.75493e-21
-6.78504e-21
-3.76721e-21
-3.17346e-21
-4.65203e-21
-4.47582e-21
-6.26115e-21
-2.4352e-21
-1.76825e-21
-2.2555e-21
1.97937e-21
2.91716e-21
-1.15102e-21
-2.37256e-21
-7.27642e-21
-9.49577e-21
-1.13704e-20
-7.77071e-21
-6.40809e-21
-1.41845e-20
-1.05963e-20
-8.26638e-21
-9.20462e-21
-8.63667e-21
-7.04346e-21
-9.77069e-21
-7.98557e-21
-8.2114e-21
-8.61524e-21
-8.89816e-21
-1.36263e-21
-1.34443e-21
-5.41183e-21
-6.09671e-21
-3.45682e-21
-7.99627e-21
-1.19147e-20
-1.13421e-20
-6.93537e-21
-5.33982e-21
-5.93826e-21
-4.2537e-21
-3.82682e-21
-4.83871e-21
-3.52873e-21
-4.32898e-21
-3.86833e-21
-1.47176e-21
-1.43775e-21
-2.62617e-21
-3.86942e-22
1.36606e-21
-4.7492e-22
-4.72985e-22
-7.0604e-21
-5.65219e-21
-7.02733e-21
-3.69639e-21
-4.84345e-21
-3.31524e-21
-9.1631e-21
-5.34891e-21
-6.65926e-21
-6.15424e-21
-2.83894e-21
-3.36368e-21
-6.47076e-21
-5.91005e-21
-2.90408e-21
-5.41536e-21
-1.32004e-21
1.15826e-21
-5.69829e-21
-1.37758e-21
-4.1737e-21
-1.01245e-20
-7.57843e-21
-5.10588e-21
-2.4781e-21
-3.70863e-21
-4.08337e-21
-3.37953e-21
-2.74198e-21
-1.0588e-21
-2.1709e-21
-1.96944e-21
-3.49018e-21
-1.96842e-21
7.48982e-22
-2.26961e-21
-9.53066e-22
-7.6316e-22
-2.36903e-21
-3.09459e-22
-6.30715e-21
-1.11572e-20
-1.52616e-20
-1.10313e-20
-9.23076e-21
-1.15381e-20
-8.99369e-21
-5.70769e-21
-1.28203e-20
-1.13425e-20
-7.28571e-21
-1.16607e-20
-1.15313e-20
-7.27312e-21
-8.63354e-21
-1.06001e-20
-7.23839e-21
-1.58877e-21
-3.25632e-21
-6.41219e-21
-4.77959e-21
-6.18989e-21
-7.12085e-21
-5.97456e-21
-2.99263e-21
-2.09842e-21
-2.50594e-21
-5.03522e-21
-5.41413e-21
-3.87079e-21
-2.75326e-21
-1.89079e-21
-4.48881e-21
-5.67322e-21
-5.81241e-21
-2.84425e-21
-8.89977e-22
-2.68462e-21
-1.16863e-21
-7.54444e-22
-1.16485e-20
-1.55967e-20
-1.93618e-20
-1.52732e-20
-1.38338e-20
-1.72937e-20
-1.54019e-20
-1.14572e-20
-1.15389e-20
-1.8441e-20
-1.61518e-20
-1.39656e-20
-1.34613e-20
-1.16096e-20
-1.2496e-20
-1.10045e-20
-9.02711e-21
-7.6518e-21
-9.34591e-21
-7.40298e-21
-6.88683e-21
-8.55927e-21
-9.42351e-21
-1.17069e-20
-5.54587e-21
-5.19363e-21
-6.69702e-21
-6.9711e-21
-8.00573e-21
-4.97986e-21
-3.61869e-21
-2.58594e-21
-5.58023e-21
-7.58439e-21
-6.21863e-21
-1.46819e-21
4.04494e-22
1.62173e-21
5.53825e-22
5.2352e-22
-1.27624e-20
-1.53809e-20
-1.49774e-20
-1.67956e-20
-1.69942e-20
-2.04285e-20
-1.67263e-20
-1.58612e-20
-1.5792e-20
-1.58987e-20
-1.45789e-20
-1.31691e-20
-1.26586e-20
-1.23697e-20
-1.21621e-20
-9.3805e-21
-9.89243e-21
-8.55433e-21
-8.2959e-21
-7.49323e-21
-7.8433e-21
-6.86315e-21
-8.17473e-21
-9.70378e-21
-8.96478e-21
-6.09867e-21
-7.66307e-21
-1.10124e-20
-4.45816e-21
-5.73772e-21
-7.98981e-21
-3.66115e-21
-3.26011e-21
-5.73231e-21
-4.0694e-21
-1.93294e-21
3.28556e-23
8.16856e-23
6.3957e-22
2.9877e-22
-1.73263e-20
-1.67693e-20
-1.84369e-20
-1.79662e-20
-1.76584e-20
-1.89256e-20
-1.85449e-20
-1.28584e-20
-1.56743e-20
-1.59944e-20
-1.61825e-20
-1.67597e-20
-1.13082e-20
-1.26767e-20
-1.37593e-20
-1.14061e-20
-9.75385e-21
-1.01488e-20
-1.06128e-20
-4.92756e-21
-8.56388e-21
-1.13864e-20
-1.10915e-20
-9.89053e-21
-7.77488e-21
-6.77124e-21
-7.3748e-21
-6.64703e-21
-5.61624e-21
-8.47847e-21
-6.48998e-21
-1.65762e-21
-6.29176e-21
-4.55636e-21
-3.63001e-21
-2.01275e-21
-2.83591e-22
-6.58458e-22
-3.60116e-22
-2.94682e-22
-1.79976e-20
-1.69538e-20
-1.6896e-20
-1.93119e-20
-2.10262e-20
-2.03359e-20
-1.79011e-20
-1.41712e-20
-1.47669e-20
-1.72082e-20
-1.63329e-20
-1.24064e-20
-1.18101e-20
-1.42776e-20
-1.74425e-20
-1.26743e-20
-9.88531e-21
-1.0873e-20
-8.88349e-21
-6.62968e-21
-1.01339e-20
-1.11958e-20
-1.21105e-20
-9.96472e-21
-8.59846e-21
-5.49044e-21
-7.03767e-21
-7.18292e-21
-6.94184e-21
-6.59489e-21
-5.93554e-21
-5.48423e-21
-2.92992e-21
-2.29969e-21
-3.60745e-21
-2.82891e-21
-1.22588e-22
-6.75516e-22
2.89686e-23
-1.22233e-21
-1.63445e-20
-1.79992e-20
-1.77286e-20
-1.89908e-20
-2.10886e-20
-2.25011e-20
-1.74554e-20
-1.8656e-20
-1.74164e-20
-1.63982e-20
-1.62141e-20
-1.48481e-20
-1.43133e-20
-1.24101e-20
-1.47466e-20
-1.27e-20
-1.20192e-20
-8.9437e-21
-8.7219e-21
-7.6286e-21
-1.0601e-20
-1.32583e-20
-1.13639e-20
-1.03969e-20
-7.04932e-21
-5.64046e-21
-6.69287e-21
-7.02836e-21
-8.51608e-21
-7.49332e-21
-6.30687e-21
-3.82708e-21
-2.60795e-21
-1.96439e-21
-4.37959e-21
-3.67609e-21
-7.63308e-23
8.85124e-22
2.22376e-21
-2.02371e-21
-1.94635e-20
-2.12971e-20
-1.79584e-20
-1.97639e-20
-2.17535e-20
-2.04168e-20
-1.76238e-20
-1.78097e-20
-2.08698e-20
-1.9756e-20
-1.38966e-20
-1.48415e-20
-1.43626e-20
-1.61054e-20
-1.46809e-20
-1.34557e-20
-9.96936e-21
-8.4225e-21
-8.8176e-21
-9.86292e-21
-1.16859e-20
-1.36577e-20
-1.18635e-20
-1.15651e-20
-7.72514e-21
-6.86599e-21
-7.5726e-21
-6.53245e-21
-6.5875e-21
-6.50509e-21
-6.88495e-21
-5.0765e-21
-1.38786e-21
4.3257e-23
-4.47539e-21
-5.27025e-21
-8.52862e-22
-1.29649e-21
-8.6281e-23
-2.26683e-21
-1.73997e-20
-1.94884e-20
-1.84387e-20
-1.95364e-20
-2.28105e-20
-2.3066e-20
-1.66321e-20
-1.98605e-20
-2.17135e-20
-1.75395e-20
-1.61937e-20
-1.63018e-20
-1.46597e-20
-1.39628e-20
-1.52768e-20
-1.61384e-20
-1.16409e-20
-8.35377e-21
-4.22105e-21
-5.93392e-21
-1.09277e-20
-1.50115e-20
-1.29976e-20
-1.2414e-20
-1.00898e-20
-7.40013e-21
-7.04935e-21
-8.28327e-21
-4.38332e-21
-5.33852e-21
-7.37111e-21
-4.72108e-21
-5.04225e-21
-4.92603e-21
-2.90203e-21
-9.62861e-22
5.98438e-22
-4.98957e-22
-2.0946e-21
-5.96565e-22
-1.90123e-20
-2.269e-20
-2.24078e-20
-2.21932e-20
-2.13071e-20
-2.03967e-20
-1.91432e-20
-1.98729e-20
-2.01203e-20
-1.9104e-20
-1.56235e-20
-1.83618e-20
-1.44074e-20
-1.35392e-20
-1.44206e-20
-1.38681e-20
-1.31594e-20
-7.80956e-21
-9.05127e-21
-1.0035e-20
-8.21209e-21
-1.46927e-20
-1.37792e-20
-1.39254e-20
-8.54075e-21
-8.0973e-21
-8.04297e-21
-8.03907e-21
-2.8606e-21
-7.52345e-21
-7.16883e-21
-5.79385e-21
-4.30499e-21
-3.72301e-21
-3.03716e-21
-1.45059e-21
-6.99762e-22
-1.07336e-21
-2.34892e-21
-1.86969e-21
-1.65548e-20
-1.91108e-20
-1.97395e-20
-2.3561e-20
-2.39018e-20
-2.10697e-20
-2.40062e-20
-2.03002e-20
-1.74101e-20
-1.79777e-20
-1.75726e-20
-1.52544e-20
-1.49575e-20
-1.48383e-20
-1.6052e-20
-1.41157e-20
-1.15773e-20
-8.42752e-21
-8.52505e-21
-6.73599e-21
-1.08495e-20
-1.62195e-20
-1.58718e-20
-1.44847e-20
-9.75406e-21
-7.70583e-21
-5.01549e-21
-7.2249e-21
-7.13861e-21
-7.41598e-21
-4.23153e-21
-5.49481e-21
-6.34554e-21
-3.91364e-21
-3.36921e-21
-1.48071e-21
-5.48968e-22
-1.26533e-22
-2.39174e-21
-1.05675e-21
-2.2731e-20
-2.35313e-20
-2.15732e-20
-2.21684e-20
-2.12543e-20
-2.19193e-20
-2.21244e-20
-2.3075e-20
-2.29783e-20
-1.87919e-20
-1.46567e-20
-1.22835e-20
-1.48338e-20
-1.29515e-20
-1.54627e-20
-1.55944e-20
-1.27095e-20
-8.88517e-21
-8.41363e-21
-9.92255e-21
-1.43022e-20
-1.44852e-20
-1.55556e-20
-1.57648e-20
-9.66676e-21
-5.561e-21
-7.04165e-21
-1.12649e-20
-7.2951e-21
-6.28495e-21
-4.02601e-21
-5.53306e-21
-5.03623e-21
-3.86945e-21
-3.06457e-21
-1.69196e-21
-1.64915e-21
-1.80037e-21
-2.43477e-21
-2.81587e-21
-2.29159e-20
-2.45066e-20
-2.00591e-20
-2.08415e-20
-2.3103e-20
-2.31376e-20
-2.36051e-20
-2.22379e-20
-1.95595e-20
-2.14641e-20
-1.57629e-20
-1.18094e-20
-1.52089e-20
-1.4091e-20
-1.43436e-20
-1.62785e-20
-1.61106e-20
-7.54193e-21
-7.35401e-21
-8.79956e-21
-1.62077e-20
-1.65939e-20
-1.39547e-20
-1.34254e-20
-1.11675e-20
-9.37746e-21
-8.57382e-21
-8.10915e-21
-5.0493e-21
-7.06637e-21
-4.8433e-21
-5.31534e-21
-4.52452e-21
-4.57391e-21
-3.79766e-21
-2.81635e-21
6.82612e-22
-1.43494e-21
-2.21566e-21
5.8966e-22
-2.52949e-20
-2.29776e-20
-2.1464e-20
-2.37152e-20
-2.36764e-20
-2.51968e-20
-2.17885e-20
-2.13036e-20
-2.02814e-20
-1.96256e-20
-1.57816e-20
-1.47731e-20
-1.65649e-20
-1.49698e-20
-1.50947e-20
-1.45031e-20
-1.15839e-20
-7.62036e-21
-1.05333e-20
-1.3627e-20
-1.06448e-20
-1.45153e-20
-1.46037e-20
-1.45678e-20
-1.14079e-20
-8.46013e-21
-8.74908e-21
-6.98358e-21
-6.65807e-21
-5.25218e-21
-5.81053e-21
-6.60944e-21
-4.13326e-21
-4.49278e-21
-8.18366e-21
-1.61945e-21
6.14837e-22
-2.09898e-21
-3.21098e-21
-1.84051e-22
-2.55202e-20
-2.4703e-20
-2.29916e-20
-2.43845e-20
-2.36523e-20
-2.2721e-20
-2.30178e-20
-2.03827e-20
-1.9988e-20
-2.14739e-20
-1.72257e-20
-1.62921e-20
-1.77767e-20
-1.31186e-20
-1.50902e-20
-1.53179e-20
-1.69691e-20
-1.00008e-20
-6.71851e-21
-8.5517e-21
-1.47363e-20
-1.54517e-20
-1.34859e-20
-1.68746e-20
-1.02122e-20
-7.89025e-21
-6.04127e-21
-6.18357e-21
-8.24369e-21
-6.21815e-21
-6.53694e-21
-5.91439e-21
-3.94596e-21
-5.68862e-21
-6.91531e-21
-1.81452e-21
1.20441e-21
3.73396e-22
-2.34957e-21
-1.72673e-21
-2.89957e-20
-2.62874e-20
-2.28119e-20
-2.26019e-20
-2.5062e-20
-2.19734e-20
-2.30531e-20
-2.02706e-20
-2.11547e-20
-1.91024e-20
-1.70675e-20
-1.76584e-20
-1.93687e-20
-1.58056e-20
-1.53087e-20
-1.38638e-20
-1.30857e-20
-1.0327e-20
-9.3925e-21
-1.20471e-20
-1.32061e-20
-1.50381e-20
-1.53289e-20
-1.37839e-20
-1.00802e-20
-8.67516e-21
-7.08496e-21
-6.75507e-21
-7.22359e-21
-5.16567e-21
-6.53017e-21
-5.71019e-21
-5.41814e-21
-4.27129e-21
-7.02217e-21
-3.81875e-21
2.72742e-21
-7.6876e-22
-1.46262e-21
-5.62407e-22
-2.57653e-20
-2.63307e-20
-2.54036e-20
-2.41284e-20
-2.37238e-20
-2.29403e-20
-2.22585e-20
-2.1298e-20
-2.04108e-20
-1.7861e-20
-1.88379e-20
-1.94293e-20
-1.99947e-20
-1.61757e-20
-1.50206e-20
-1.33547e-20
-1.43245e-20
-1.18669e-20
-9.03793e-21
-9.47126e-21
-1.50306e-20
-1.52493e-20
-1.52927e-20
-1.121e-20
-9.94974e-21
-9.44811e-21
-7.72857e-21
-6.53534e-21
-6.90038e-21
-5.99742e-21
-5.75987e-21
-5.62422e-21
-4.97754e-21
-4.82244e-21
-6.37287e-21
-2.96076e-21
2.33364e-22
-1.1221e-21
-1.43593e-21
-1.41899e-21
-2.23317e-20
-2.36026e-20
-2.46376e-20
-2.17502e-20
-2.63071e-20
-2.33584e-20
-2.2926e-20
-2.352e-20
-2.24677e-20
-1.80249e-20
-1.75376e-20
-1.91277e-20
-1.89008e-20
-1.80724e-20
-1.58064e-20
-1.33787e-20
-1.42455e-20
-1.09264e-20
-1.29018e-20
-1.17343e-20
-1.53764e-20
-1.19895e-20
-1.17664e-20
-9.62301e-21