/*--------------------------------*- C++ -*----------------------------------*\
| =========                 |                                                 |
| \\      /  F ield         | OpenFOAM: The Open Source CFD Toolbox           |
|  \\    /   O peration     | Version:  v2012                                 |
|   \\  /    A nd           | Website:  www.openfoam.com                      |
|    \\/     M anipulation  |                                                 |
\*---------------------------------------------------------------------------*/
FoamFile
{
    version     2.0;
    format      ascii;
    class       surfaceScalarField;
    location    "48";
    object      phi;
}
// * * * * * * * * * * * * * * * * * * * * * * * * * * * * * * * * * * * * * //

dimensions      [0 3 -1 0 0 0 0];
oriented        oriented;


internalField   nonuniform List<scalar> 
187200
(
1.875e-06
2.11964e-22
2.19721e-22
1.875e-06
3.75579e-22
3.48856e-22
1.875e-06
4.38576e-22
5.47055e-22
1.875e-06
3.33342e-22
4.37227e-22
1.875e-06
3.64032e-22
2.84419e-22
1.875e-06
4.75039e-22
4.24076e-22
1.875e-06
4.2106e-22
3.72804e-22
1.875e-06
3.46338e-22
3.07692e-22
1.875e-06
2.73257e-22
4.27244e-22
1.875e-06
4.6057e-22
3.86806e-22
1.875e-06
4.63695e-22
3.34397e-22
1.875e-06
3.46118e-22
3.76458e-22
1.875e-06
2.86311e-22
3.51435e-22
1.875e-06
2.50173e-22
2.2021e-22
1.875e-06
2.75536e-22
3.14018e-22
1.875e-06
2.26858e-22
3.284e-22
1.875e-06
2.63871e-22
2.99159e-22
1.875e-06
1.65273e-22
1.71544e-22
1.875e-06
1.74098e-22
1.46089e-22
1.875e-06
1.26146e-22
2.36354e-22
1.875e-06
8.42903e-23
2.24484e-22
1.875e-06
1.81905e-22
2.51287e-22
1.875e-06
3.01339e-22
2.50602e-22
1.875e-06
3.76773e-22
2.08452e-22
1.875e-06
2.76829e-22
1.50299e-22
1.875e-06
2.04354e-22
1.39991e-22
1.875e-06
2.30752e-22
2.06117e-22
1.875e-06
1.98352e-22
8.37268e-23
1.875e-06
9.29319e-23
1.76065e-22
1.875e-06
1.17993e-22
1.63814e-22
1.875e-06
4.46549e-23
1.24644e-22
1.875e-06
9.91803e-23
8.02046e-23
1.875e-06
1.75889e-22
1.22682e-22
1.875e-06
1.61663e-22
1.72338e-22
1.875e-06
3.7352e-23
1.58781e-22
1.875e-06
-1.51006e-22
2.79484e-23
1.875e-06
-5.95419e-23
5.70788e-23
1.875e-06
-3.63551e-23
1.1769e-22
1.875e-06
-2.04637e-23
1.31363e-22
-8.90967e-24
1.23285e-22
1.875e-06
5.64201e-23
3.12884e-22
1.875e-06
7.82561e-23
5.60348e-22
1.875e-06
2.60028e-22
8.00895e-22
1.875e-06
3.36048e-22
7.86233e-22
1.875e-06
2.62349e-22
6.61967e-22
1.875e-06
3.81628e-22
8.04304e-22
1.875e-06
4.86923e-22
8.41785e-22
1.875e-06
4.09181e-22
7.77564e-22
1.875e-06
4.07389e-22
8.17313e-22
1.875e-06
2.6436e-22
8.09854e-22
1.875e-06
2.76446e-22
7.26513e-22
1.875e-06
2.61121e-22
6.47854e-22
1.875e-06
2.79234e-22
6.98107e-22
1.875e-06
2.36136e-22
6.51804e-22
1.875e-06
1.46785e-22
6.52362e-22
1.875e-06
8.55306e-23
6.10316e-22
1.875e-06
3.34428e-22
5.61315e-22
1.875e-06
3.77623e-22
6.11463e-22
1.875e-06
1.97388e-22
5.62744e-22
1.875e-06
1.02108e-22
5.19563e-22
1.875e-06
2.06979e-22
5.7626e-22
1.875e-06
3.27428e-22
5.25006e-22
1.875e-06
2.42762e-22
3.89946e-22
1.875e-06
1.63845e-22
3.63253e-22
1.875e-06
1.67653e-22
3.08349e-22
1.875e-06
2.0925e-22
3.63136e-22
1.875e-06
1.62667e-22
3.80926e-22
1.875e-06
8.5026e-23
2.99601e-22
1.875e-06
1.72e-22
4.73581e-22
1.875e-06
1.01182e-22
2.9787e-22
1.875e-06
1.25363e-22
3.17104e-22
1.875e-06
5.10634e-23
1.79984e-22
1.875e-06
-8.54312e-24
1.23671e-22
1.875e-06
-5.33337e-23
2.02872e-22
1.875e-06
7.0011e-24
2.04759e-22
1.875e-06
9.04804e-23
2.15718e-22
1.875e-06
8.1693e-24
6.62801e-23
1.875e-06
-3.14729e-23
3.13228e-23
1.875e-06
-8.10835e-23
3.62323e-23
-1.04144e-22
1.49914e-23
1.875e-06
1.79202e-22
4.21395e-22
1.875e-06
1.33217e-22
7.00886e-22
1.875e-06
1.14696e-22
7.58085e-22
1.875e-06
3.03264e-22
9.02506e-22
1.875e-06
3.63484e-22
9.52368e-22
1.875e-06
4.22071e-22
9.82645e-22
1.875e-06
3.73905e-22
9.34902e-22
1.875e-06
2.57236e-22
1.05159e-21
1.875e-06
2.97333e-22
1.04151e-21
1.875e-06
2.72167e-22
9.4479e-22
1.875e-06
2.44606e-22
8.48474e-22
1.875e-06
2.73955e-22
7.6151e-22
1.875e-06
2.45305e-22
7.62024e-22
1.875e-06
2.20351e-22
7.6037e-22
1.875e-06
2.74847e-22
8.00867e-22
1.875e-06
3.10589e-22
7.69337e-22
1.875e-06
1.27286e-22
5.70646e-22
1.875e-06
2.66794e-22
6.2303e-22
1.875e-06
1.89009e-22
6.68434e-22
1.875e-06
1.66168e-22
6.71046e-22
1.875e-06
2.03705e-22
6.26018e-22
1.875e-06
1.53055e-22
4.00829e-22
1.875e-06
2.56536e-22
3.92303e-22
1.875e-06
2.01377e-22
4.01073e-22
1.875e-06
2.74111e-22
4.94802e-22
1.875e-06
7.19979e-23
4.46494e-22
1.875e-06
8.70346e-23
4.78302e-22
1.875e-06
4.33611e-23
5.04233e-22
1.875e-06
1.44695e-22
4.40939e-22
1.875e-06
1.59128e-22
3.59236e-22
1.875e-06
1.29394e-22
4.83622e-22
1.875e-06
7.54718e-23
3.19e-22
1.875e-06
-2.99083e-23
1.62015e-22
1.875e-06
-4.54131e-23
2.40523e-22
1.875e-06
1.51143e-23
1.99512e-22
1.875e-06
4.9e-23
1.30421e-22
1.875e-06
5.80285e-23
4.54881e-23
1.875e-06
1.44694e-23
7.9486e-23
1.875e-06
-8.70759e-25
4.64006e-23
-2.54518e-23
2.83997e-23
1.875e-06
2.57988e-22
4.5892e-22
1.875e-06
1.70959e-22
7.84259e-22
1.875e-06
1.10581e-22
9.47292e-22
1.875e-06
1.45027e-22
9.41775e-22
1.875e-06
2.32707e-22
9.79632e-22
1.875e-06
2.27416e-22
9.38005e-22
1.875e-06
1.91969e-22
9.79434e-22
1.875e-06
3.27921e-22
1.06897e-21
1.875e-06
2.68368e-22
1.10639e-21
1.875e-06
3.35895e-22
9.83211e-22
1.875e-06
3.2655e-22
9.79039e-22
1.875e-06
1.16862e-22
8.94669e-22
1.875e-06
1.7075e-22
7.74214e-22
1.875e-06
1.91153e-22
8.18355e-22
1.875e-06
3.77741e-22
8.56785e-22
1.875e-06
3.44288e-22
8.21707e-22
1.875e-06
1.92611e-22
6.98819e-22
1.875e-06
9.05212e-23
6.69112e-22
1.875e-06
2.02288e-22
8.23011e-22
1.875e-06
2.00834e-22
7.06872e-22
1.875e-06
1.77365e-22
6.49093e-22
1.875e-06
1.7779e-22
6.0071e-22
1.875e-06
1.07929e-22
4.42979e-22
1.875e-06
1.96648e-22
4.44014e-22
1.875e-06
8.02269e-23
4.00144e-22
1.875e-06
1.52572e-22
5.38042e-22
1.875e-06
1.0496e-22
4.72107e-22
1.875e-06
1.40257e-22
4.15938e-22
1.875e-06
1.22574e-22
3.58076e-22
1.875e-06
4.65128e-23
4.46282e-22
1.875e-06
6.59721e-23
3.82359e-22
1.875e-06
1.26989e-23
2.79751e-22
1.875e-06
-3.87771e-23
3.18128e-22
1.875e-06
-7.40917e-23
2.66963e-22
1.875e-06
3.76958e-23
1.62839e-22
1.875e-06
7.11096e-23
9.34169e-23
1.875e-06
4.02601e-24
2.56438e-23
1.875e-06
4.91854e-23
7.92032e-23
1.875e-06
-8.89344e-23
2.51641e-23
2.49933e-23
2.84e-23
1.875e-06
-6.94642e-23
2.95752e-22
1.875e-06
1.39727e-22
8.13768e-22
1.875e-06
9.72e-23
1.0006e-21
1.875e-06
9.82365e-23
1.07038e-21
1.875e-06
1.68945e-22
1.11448e-21
1.875e-06
1.02004e-22
1.03989e-21
1.875e-06
8.83894e-23
1.06688e-21
1.875e-06
3.25568e-22
1.08462e-21
1.875e-06
4.21411e-22
1.13233e-21
1.875e-06
2.6921e-22
1.02511e-21
1.875e-06
1.96797e-22
9.38259e-22
1.875e-06
2.41046e-22
9.07797e-22
1.875e-06
2.52038e-22
8.72802e-22
1.875e-06
1.92632e-22
9.22384e-22
1.875e-06
7.26629e-23
8.25685e-22
1.875e-06
2.15156e-22
7.44536e-22
1.875e-06
1.5801e-22
7.72266e-22
1.875e-06
6.1757e-23
7.7488e-22
1.875e-06
1.13178e-22
7.6682e-22
1.875e-06
2.40632e-22
7.48564e-22
1.875e-06
1.86847e-22
7.51569e-22
1.875e-06
2.5578e-22
6.66471e-22
1.875e-06
1.70278e-22
5.52356e-22
1.875e-06
1.01152e-22
4.21176e-22
1.875e-06
1.67477e-22
4.67135e-22
1.875e-06
5.97311e-23
5.24017e-22
1.875e-06
1.05506e-22
4.50988e-22
1.875e-06
1.63069e-23
3.5686e-22
1.875e-06
3.40561e-23
3.4123e-22
1.875e-06
5.51156e-23
4.11969e-22
1.875e-06
1.1793e-22
3.94341e-22
1.875e-06
1.41359e-22
4.01196e-22
1.875e-06
1.0024e-23
2.48526e-22
1.875e-06
-2.83698e-23
2.48601e-22
1.875e-06
-1.70168e-23
1.24357e-22
1.875e-06
-7.95962e-23
5.01063e-23
1.875e-06
-5.00326e-24
3.21993e-23
1.875e-06
6.48333e-23
4.05456e-23
1.875e-06
9.2328e-23
7.50372e-23
-4.07872e-23
1.01627e-23
1.875e-06
1.00586e-22
4.24243e-22
1.875e-06
1.54525e-22
8.19514e-22
1.875e-06
8.76091e-23
1.0093e-21
1.875e-06
6.58593e-23
1.09979e-21
1.875e-06
9.40786e-23
1.19568e-21
1.875e-06
1.47797e-22
1.26977e-21
1.875e-06
1.37503e-22
1.20644e-21
1.875e-06
2.14212e-22
1.11789e-21
1.875e-06
3.16221e-22
1.10564e-21
1.875e-06
2.31846e-22
1.00656e-21
1.875e-06
2.1131e-22
1.02808e-21
1.875e-06
2.58427e-22
9.85732e-22
1.875e-06
2.15053e-22
9.2639e-22
1.875e-06
2.32502e-22
8.91033e-22
1.875e-06
1.10756e-22
8.61347e-22
1.875e-06
1.11625e-22
7.63258e-22
1.875e-06
1.56533e-22
8.54409e-22
1.875e-06
2.75345e-23
7.93702e-22
1.875e-06
5.87812e-23
7.39524e-22
1.875e-06
1.37039e-22
7.09121e-22
1.875e-06
2.18911e-22
7.90575e-22
1.875e-06
1.76396e-22
6.49924e-22
1.875e-06
1.96264e-22
5.61207e-22
1.875e-06
1.70817e-22
4.94319e-22
1.875e-06
-2.72041e-23
4.02295e-22
1.875e-06
1.72886e-22
5.28354e-22
1.875e-06
1.90935e-22
4.79371e-22
1.875e-06
4.75196e-23
4.21838e-22
1.875e-06
-2.13413e-23
3.88026e-22
1.875e-06
-4.54891e-24
4.16205e-22
1.875e-06
1.06104e-22
3.42259e-22
1.875e-06
1.25355e-22
2.53836e-22
1.875e-06
-2.54424e-23
2.60938e-22
1.875e-06
1.17074e-23
2.5136e-22
1.875e-06
-6.85158e-24
1.7073e-22
1.875e-06
3.6479e-23
1.50827e-22
1.875e-06
-5.89996e-24
2.80489e-23
1.875e-06
4.25221e-24
-4.53625e-23
1.875e-06
9.07504e-23
-3.54726e-23
1.0325e-22
7.65707e-23
1.875e-06
1.99244e-23
4.32427e-22
1.875e-06
3.86985e-23
7.80156e-22
1.875e-06
1.65605e-22
1.05682e-21
1.875e-06
1.20029e-22
1.18439e-21
1.875e-06
1.53504e-22
1.28104e-21
1.875e-06
1.06103e-22
1.27654e-21
1.875e-06
1.63379e-22
1.26105e-21
1.875e-06
3.48513e-22
1.17863e-21
1.875e-06
2.8002e-22
1.20492e-21
1.875e-06
2.24213e-22
1.19264e-21
1.875e-06
1.30372e-22
9.70964e-22
1.875e-06
1.06445e-22
9.46407e-22
1.875e-06
1.34622e-22
9.22748e-22
1.875e-06
1.90251e-22
9.84683e-22
1.875e-06
1.50749e-22
9.50289e-22
1.875e-06
1.33076e-22
8.14035e-22
1.875e-06
7.82287e-23
7.96056e-22
1.875e-06
1.36893e-22
8.59011e-22
1.875e-06
1.66278e-22
7.47913e-22
1.875e-06
5.88605e-23
7.50971e-22
1.875e-06
1.02076e-22
7.70436e-22
1.875e-06
7.8185e-23
6.46302e-22
1.875e-06
8.10263e-23
5.4446e-22
1.875e-06
4.27593e-23
5.06868e-22
1.875e-06
1.25238e-22
6.08173e-22
1.875e-06
1.61099e-22
5.16729e-22
1.875e-06
8.50787e-23
4.30826e-22
1.875e-06
1.57046e-22
4.3241e-22
1.875e-06
4.1389e-23
3.83471e-22
1.875e-06
8.15838e-23
3.85901e-22
1.875e-06
4.82781e-24
2.83943e-22
1.875e-06
-1.17852e-23
2.05361e-22
1.875e-06
6.7502e-23
2.43791e-22
1.875e-06
1.06732e-22
1.93759e-22
1.875e-06
8.8736e-23
1.90882e-22
1.875e-06
3.61297e-23
1.64808e-22
1.875e-06
9.25317e-24
2.61744e-23
1.875e-06
6.6487e-23
-1.30654e-23
1.875e-06
3.83863e-23
-1.13432e-23
2.04561e-23
2.83287e-23
1.875e-06
1.22036e-22
3.4817e-22
1.875e-06
7.03519e-23
7.77853e-22
1.875e-06
8.01459e-23
1.03468e-21
1.875e-06
1.3626e-22
1.20851e-21
1.875e-06
1.13502e-22
1.34355e-21
1.875e-06
2.31307e-22
1.39899e-21
1.875e-06
2.74836e-22
1.28998e-21
1.875e-06
5.63225e-23
1.17057e-21
1.875e-06
9.42336e-23
1.2143e-21
1.875e-06
2.41367e-22
1.13511e-21
1.875e-06
8.84233e-23
1.09548e-21
1.875e-06
9.07692e-23
1.04458e-21
1.875e-06
2.04247e-22
9.42933e-22
1.875e-06
1.15427e-22
9.1506e-22
1.875e-06
1.66556e-22
9.82001e-22
1.875e-06
1.24965e-22
9.12117e-22
1.875e-06
8.45298e-23
8.74576e-22
1.875e-06
5.9094e-23
8.24402e-22
1.875e-06
1.33393e-22
6.133e-22
1.875e-06
2.31771e-22
6.78689e-22
1.875e-06
3.63303e-23
7.66668e-22
1.875e-06
8.30545e-23
7.68629e-22
1.875e-06
1.64223e-22
6.26609e-22
1.875e-06
8.89588e-23
6.49889e-22
1.875e-06
1.02416e-22
6.95665e-22
1.875e-06
1.07167e-22
5.10457e-22
1.875e-06
1.52518e-22
4.50316e-22
1.875e-06
1.30611e-22
4.08515e-22
1.875e-06
9.07301e-23
3.34199e-22
1.875e-06
1.27337e-22
3.045e-22
1.875e-06
3.39677e-23
3.18772e-22
1.875e-06
-3.50394e-23
2.36549e-22
1.875e-06
8.39993e-24
2.99611e-22
1.875e-06
5.78542e-23
2.59309e-22
1.875e-06
6.86025e-23
8.24856e-23
1.875e-06
5.94281e-23
2.19502e-23
1.875e-06
1.7114e-23
-8.34798e-23
1.875e-06
6.2596e-25
-1.30171e-22
1.875e-06
-3.23693e-23
4.36424e-24
-3.0815e-23
-7.74165e-23
1.875e-06
-1.63534e-22
2.52289e-22
1.875e-06
-4.1698e-23
8.26879e-22
1.875e-06
8.29806e-23
1.16146e-21
1.875e-06
5.35661e-23
1.21913e-21
1.875e-06
1.61886e-22
1.31602e-21
1.875e-06
1.9274e-22
1.3018e-21
1.875e-06
1.66094e-22
1.33318e-21
1.875e-06
1.49214e-22
1.33501e-21
1.875e-06
5.83472e-23
1.27916e-21
1.875e-06
9.70126e-23
1.12475e-21
1.875e-06
2.21943e-22
1.14818e-21
1.875e-06
8.96415e-23
1.13968e-21
1.875e-06
2.94079e-23
9.12253e-22
1.875e-06
7.78671e-23
9.21588e-22
1.875e-06
1.677e-22
9.3814e-22
1.875e-06
1.11135e-22
9.06125e-22
1.875e-06
1.613e-22
9.62751e-22
1.875e-06
1.89631e-22
8.79394e-22
1.875e-06
1.51321e-23
7.05874e-22
1.875e-06
7.65445e-23
6.63678e-22
1.875e-06
2.4573e-22
8.03801e-22
1.875e-06
1.85433e-22
8.15748e-22
1.875e-06
8.72257e-23
6.21651e-22
1.875e-06
1.95735e-22
7.17452e-22
1.875e-06
2.74665e-22
6.68542e-22
1.875e-06
1.21847e-22
5.30338e-22
1.875e-06
-8.02748e-25
4.24562e-22
1.875e-06
1.22979e-23
3.48279e-22
1.875e-06
1.36949e-22
2.56204e-22
1.875e-06
4.60802e-23
3.28886e-22
1.875e-06
-4.79769e-23
3.08577e-22
1.875e-06
1.57355e-24
2.99224e-22
1.875e-06
9.85724e-23
3.44147e-22
1.875e-06
4.68655e-23
2.17351e-22
1.875e-06
6.87861e-23
5.54243e-24
1.875e-06
6.24557e-23
-7.01767e-23
1.875e-06
1.37755e-22
-5.75404e-23
1.875e-06
-5.00147e-23
-1.74247e-22
1.875e-06
-5.12935e-23
-1.35565e-22
-4.49291e-23
-8.78465e-23
1.875e-06
-3.02931e-23
4.0952e-22
1.875e-06
7.14308e-23
8.04547e-22
1.875e-06
1.2461e-22
1.04788e-21
1.875e-06
2.50351e-22
1.36478e-21
1.875e-06
8.16898e-23
1.38505e-21
1.875e-06
7.19522e-23
1.31245e-21
1.875e-06
2.49267e-22
1.48715e-21
1.875e-06
1.04426e-22
1.40523e-21
1.875e-06
1.61122e-22
1.28231e-21
1.875e-06
1.0762e-22
1.08086e-21
1.875e-06
9.67688e-23
1.07678e-21
1.875e-06
5.63182e-23
1.09545e-21
1.875e-06
6.28776e-23
9.98349e-22
1.875e-06
1.11553e-22
1.01975e-21
1.875e-06
1.33491e-22
9.5434e-22
1.875e-06
2.04481e-22
9.29636e-22
1.875e-06
9.11564e-23
8.98121e-22
1.875e-06
7.02378e-23
8.01308e-22
1.875e-06
-2.92536e-24
7.73841e-22
1.875e-06
8.64393e-23
6.22137e-22
1.875e-06
2.22572e-22
7.39787e-22
1.875e-06
2.94586e-22
8.17618e-22
1.875e-06
1.99625e-22
7.71566e-22
1.875e-06
1.64997e-22
7.32661e-22
1.875e-06
2.02361e-22
6.14211e-22
1.875e-06
1.12955e-22
5.27836e-22
1.875e-06
-3.18626e-23
4.12097e-22
1.875e-06
-3.65907e-24
3.68744e-22
1.875e-06
2.86162e-23
3.14341e-22
1.875e-06
1.08848e-22
3.53217e-22
1.875e-06
4.61634e-23
2.92211e-22
1.875e-06
5.5906e-23
3.19864e-22
1.875e-06
2.80314e-23
3.24445e-22
1.875e-06
9.9834e-25
1.6138e-22
1.875e-06
-8.56557e-23
-4.97057e-23
1.875e-06
5.63879e-23
-1.80832e-22
1.875e-06
1.56592e-23
-3.00483e-22
1.875e-06
-5.69676e-25
-2.2809e-22
1.875e-06
1.85526e-23
-1.48458e-22
3.47181e-23
-1.42697e-22
1.875e-06
8.17434e-23
6.40964e-22
1.875e-06
1.15947e-22
9.72519e-22
1.875e-06
1.0273e-22
1.07815e-21
1.875e-06
8.23638e-23
1.24569e-21
1.875e-06
1.67436e-22
1.38722e-21
1.875e-06
1.60072e-22
1.36416e-21
1.875e-06
-4.17524e-25
1.32222e-21
1.875e-06
1.72371e-22
1.46809e-21
1.875e-06
1.04374e-22
1.40288e-21
1.875e-06
7.35068e-23
1.10975e-21
1.875e-06
2.02507e-22
1.01097e-21
1.875e-06
1.44071e-22
1.05912e-21
1.875e-06
2.32518e-23
1.03034e-21
1.875e-06
1.27898e-22
9.27365e-22
1.875e-06
5.65431e-23
9.11853e-22
1.875e-06
1.11488e-22
9.1341e-22
1.875e-06
1.86452e-22
9.86658e-22
1.875e-06
1.13954e-22
8.76219e-22
1.875e-06
1.73284e-22
8.91091e-22
1.875e-06
2.09337e-23
7.59211e-22
1.875e-06
9.96512e-23
8.01804e-22
1.875e-06
1.58149e-22
6.6705e-22
1.875e-06
1.24249e-22
6.98233e-22
1.875e-06
1.34404e-22
6.92448e-22
1.875e-06
1.36302e-22
5.28714e-22
1.875e-06
3.77434e-23
4.62396e-22
1.875e-06
9.30568e-23
5.28464e-22
1.875e-06
4.68905e-23
5.52473e-22
1.875e-06
2.85935e-23
3.82914e-22
1.875e-06
-1.0374e-22
2.62515e-22
1.875e-06
-2.81973e-23
2.73694e-22
1.875e-06
4.00879e-23
3.01843e-22
1.875e-06
6.18387e-23
3.06313e-22
1.875e-06
2.98565e-23
1.3003e-22
1.875e-06
3.63278e-23
1.32139e-23
1.875e-06
-4.89623e-23
-2.09076e-22
1.875e-06
-1.32866e-22
-3.30859e-22
1.875e-06
-4.64616e-23
-2.12434e-22
1.875e-06
6.13311e-23
-1.84304e-22
9.64818e-23
-1.96504e-22
1.875e-06
2.17435e-22
6.54834e-22
1.875e-06
1.22884e-22
9.94477e-22
1.875e-06
1.25068e-22
1.08026e-21
1.875e-06
1.3431e-22
1.26559e-21
1.875e-06
1.60894e-22
1.4161e-21
1.875e-06
9.4761e-23
1.37498e-21
1.875e-06
2.18801e-22
1.45154e-21
1.875e-06
2.09621e-22
1.38812e-21
1.875e-06
7.82059e-23
1.28682e-21
1.875e-06
3.12214e-23
1.19166e-21
1.875e-06
6.80489e-23
9.55234e-22
1.875e-06
1.71204e-22
9.91728e-22
1.875e-06
1.94654e-22
1.11381e-21
1.875e-06
1.58132e-22
9.40623e-22
1.875e-06
1.2005e-22
9.72797e-22
1.875e-06
1.11113e-22
9.63943e-22
1.875e-06
9.03272e-23
1.00582e-21
1.875e-06
9.9349e-23
8.65751e-22
1.875e-06
8.7155e-23
8.17985e-22
1.875e-06
1.94094e-22
8.15747e-22
1.875e-06
7.45858e-23
9.02378e-22
1.875e-06
1.06057e-22
7.08941e-22
1.875e-06
1.09451e-22
6.4045e-22
1.875e-06
5.65718e-23
5.90476e-22
1.875e-06
-1.03379e-22
5.54103e-22
1.875e-06
1.10795e-23
5.04958e-22
1.875e-06
2.87718e-23
4.70311e-22
1.875e-06
7.75399e-24
4.44048e-22
1.875e-06
1.0859e-23
3.32718e-22
1.875e-06
-4.94414e-23
3.59928e-22
1.875e-06
7.8363e-23
3.51236e-22
1.875e-06
9.24873e-24
2.91329e-22
1.875e-06
-3.96142e-23
2.4973e-22
1.875e-06
1.0045e-22
9.4712e-23
1.875e-06
1.36563e-22
-4.11192e-23
1.875e-06
-2.51448e-23
-2.00117e-22
1.875e-06
-6.99886e-23
-2.8712e-22
1.875e-06
-3.15798e-23
-2.23465e-22
1.875e-06
-6.33144e-24
-3.21715e-22
-9.5352e-23
-3.92441e-22
1.875e-06
6.88516e-23
5.31482e-22
1.875e-06
1.95528e-22
9.78079e-22
1.875e-06
1.31388e-22
1.11276e-21
1.875e-06
1.5592e-22
1.34707e-21
1.875e-06
-3.19553e-24
1.38548e-21
1.875e-06
1.42572e-23
1.4138e-21
1.875e-06
3.44135e-23
1.30602e-21
1.875e-06
-1.86049e-23
1.22862e-21
1.875e-06
1.3491e-22
1.26931e-21
1.875e-06
1.43031e-22
1.15851e-21
1.875e-06
3.71666e-23
9.7933e-22
1.875e-06
1.01226e-22
1.03138e-21
1.875e-06
2.53225e-22
1.14077e-21
1.875e-06
1.49244e-22
9.95766e-22
1.875e-06
1.66634e-22
9.93621e-22
1.875e-06
8.64738e-23
8.59915e-22
1.875e-06
1.12505e-22
8.59247e-22
1.875e-06
7.8311e-23
8.62641e-22
1.875e-06
7.94443e-23
9.52313e-22
1.875e-06
1.66971e-22
8.97358e-22
1.875e-06
1.65846e-22
8.01103e-22
1.875e-06
1.04793e-23
6.20046e-22
1.875e-06
5.28164e-23
6.20293e-22
1.875e-06
5.82525e-23
6.32419e-22
1.875e-06
9.10554e-25
6.66972e-22
1.875e-06
-7.06199e-23
5.31328e-22
1.875e-06
-1.35235e-22
4.67494e-22
1.875e-06
-1.36163e-23
4.19872e-22
1.875e-06
-7.09948e-24
3.69249e-22
1.875e-06
-3.78134e-23
3.37328e-22
1.875e-06
-8.49681e-23
2.60812e-22
1.875e-06
7.09994e-23
3.06708e-22
1.875e-06
6.30469e-23
2.82085e-22
1.875e-06
-1.54496e-23
3.2785e-23
1.875e-06
1.44571e-23
-8.66418e-23
1.875e-06
3.54574e-23
-2.36253e-22
1.875e-06
-3.7854e-23
-2.36474e-22
1.875e-06
-5.93426e-23
-2.66528e-22
1.875e-06
-1.57439e-22
-2.32406e-22
-1.2488e-22
-2.94067e-22
1.875e-06
-1.57676e-22
4.87205e-22
1.875e-06
3.91619e-23
9.08545e-22
1.875e-06
1.63687e-22
1.17121e-21
1.875e-06
3.54595e-23
1.31531e-21
1.875e-06
-5.6269e-24
1.44353e-21
1.875e-06
4.25522e-23
1.37921e-21
1.875e-06
7.03627e-23
1.34823e-21
1.875e-06
1.67513e-22
1.31883e-21
1.875e-06
7.10971e-23
1.17388e-21
1.875e-06
-3.16273e-23
1.08232e-21
1.875e-06
8.58268e-25
1.05855e-21
1.875e-06
2.53911e-22
1.12678e-21
1.875e-06
1.26517e-22
1.06325e-21
1.875e-06
6.83911e-23
9.35422e-22
1.875e-06
3.77004e-23
9.43693e-22
1.875e-06
1.28174e-22
9.23936e-22
1.875e-06
9.23455e-23
1.00244e-21
1.875e-06
2.56074e-22
9.72769e-22
1.875e-06
2.36494e-22
8.47464e-22
1.875e-06
4.50957e-23
7.24184e-22
1.875e-06
1.31585e-22
8.45049e-22
1.875e-06
4.52375e-24
7.24925e-22
1.875e-06
-2.08534e-23
6.32127e-22
1.875e-06
-3.98869e-23
6.68032e-22
1.875e-06
-9.20016e-23
6.27267e-22
1.875e-06
-1.35766e-23
5.7784e-22
1.875e-06
1.43685e-22
5.12507e-22
1.875e-06
1.20625e-22
3.69425e-22
1.875e-06
-6.34372e-23
4.31318e-22
1.875e-06
-5.64841e-23
4.11314e-22
1.875e-06
-9.55724e-23
3.72411e-22
1.875e-06
-1.05392e-22
2.3111e-22
1.875e-06
-1.36949e-23
2.27235e-22
1.875e-06
-1.05978e-23
1.32792e-22
1.875e-06
-2.21515e-23
-1.42303e-22
1.875e-06
-7.54243e-23
-3.89386e-22
1.875e-06
-5.75421e-23
-3.79753e-22
1.875e-06
-1.02124e-23
-2.88222e-22
1.875e-06
-3.08362e-23
-1.93382e-22
-1.65017e-22
-2.29321e-22
1.875e-06
-5.14985e-23
7.37906e-22
1.875e-06
-1.81655e-22
9.75156e-22
1.875e-06
-4.09937e-23
1.11777e-21
1.875e-06
-1.95432e-23
1.31724e-21
1.875e-06
7.04019e-23
1.53697e-21
1.875e-06
2.47974e-23
1.35172e-21
1.875e-06
-5.36369e-23
1.31248e-21
1.875e-06
-1.93509e-23
1.17721e-21
1.875e-06
4.10293e-23
1.18213e-21
1.875e-06
2.25501e-23
1.12777e-21
1.875e-06
1.47084e-22
1.1367e-21
1.875e-06
9.18322e-23
1.08719e-21
1.875e-06
8.49869e-23
1.10564e-21
1.875e-06
5.01472e-23
1.06449e-21
1.875e-06
1.03817e-22
1.00537e-21
1.875e-06
6.32924e-23
8.52805e-22
1.875e-06
1.90551e-22
9.14876e-22
1.875e-06
1.27496e-22
8.27546e-22
1.875e-06
9.55104e-23
8.0364e-22
1.875e-06
1.29972e-22
8.16413e-22
1.875e-06
1.60162e-22
7.56158e-22
1.875e-06
1.15395e-22
7.88465e-22
1.875e-06
5.56423e-24
7.52254e-22
1.875e-06
-1.81532e-22
6.49015e-22
1.875e-06
-9.09753e-23
6.11233e-22
1.875e-06
8.1889e-23
6.20725e-22
1.875e-06
8.337e-23
4.73948e-22
1.875e-06
-7.68524e-23
3.18857e-22
1.875e-06
-3.47633e-23
3.92501e-22
1.875e-06
-4.68621e-23
3.8128e-22
1.875e-06
6.48338e-24
3.93464e-22
1.875e-06
-5.85203e-23
3.12465e-22
1.875e-06
-1.68822e-23
2.96428e-22
1.875e-06
-3.72746e-23
1.65823e-22
1.875e-06
-1.23864e-23
-5.9713e-23
1.875e-06
4.01394e-23
-3.01463e-22
1.875e-06
-7.30681e-23
-3.73407e-22
1.875e-06
-1.66629e-22
-2.73415e-22
1.875e-06
-1.40248e-22
-3.60885e-22
-1.26505e-22
-2.9706e-22
1.875e-06
-6.20898e-23
6.61614e-22
1.875e-06
-1.20397e-22
1.09078e-21
1.875e-06
-1.16549e-22
1.22585e-21
1.875e-06
-1.34176e-22
1.39257e-21
1.875e-06
-9.07659e-23
1.411e-21
1.875e-06
-2.63248e-23
1.37446e-21
1.875e-06
7.75757e-23
1.3642e-21
1.875e-06
6.98768e-23
1.27283e-21
1.875e-06
5.90949e-23
1.21955e-21
1.875e-06
1.04651e-22
1.14752e-21
1.875e-06
-1.0752e-23
1.13913e-21
1.875e-06
6.59161e-23
1.1265e-21
1.875e-06
-1.02957e-22
1.11972e-21
1.875e-06
3.36964e-23
1.08727e-21
1.875e-06
1.43384e-22
9.46331e-22
1.875e-06
1.33584e-22
9.2086e-22
1.875e-06
1.34815e-22
8.7939e-22
1.875e-06
1.60193e-22
8.60255e-22
1.875e-06
2.20042e-22
8.26331e-22
1.875e-06
1.13694e-22
7.41079e-22
1.875e-06
1.03524e-22
7.50468e-22
1.875e-06
2.8569e-24
6.92851e-22
1.875e-06
-1.57494e-23
7.14847e-22
1.875e-06
-9.04361e-23
6.63212e-22
1.875e-06
-7.24796e-24
6.57442e-22
1.875e-06
-1.24066e-22
5.8813e-22
1.875e-06
5.3364e-24
4.4718e-22
1.875e-06
1.24971e-22
3.64562e-22
1.875e-06
-3.23311e-24
4.22671e-22
1.875e-06
6.44236e-23
4.07991e-22
1.875e-06
2.29368e-23
3.7188e-22
1.875e-06
1.2897e-23
3.41631e-22
1.875e-06
-6.04547e-23
2.72388e-22
1.875e-06
-9.7568e-23
1.71199e-22
1.875e-06
-2.52011e-22
-1.13757e-22
1.875e-06
-1.04025e-22
-3.50404e-22
1.875e-06
1.07877e-22
-2.30886e-22
1.875e-06
-6.76437e-23
-1.09602e-22
1.875e-06
-2.90517e-23
-1.82419e-22
-3.43871e-24
-1.46295e-22
1.875e-06
-1.42362e-22
5.4999e-22
1.875e-06
-4.52397e-23
1.04022e-21
1.875e-06
-2.96087e-23
1.26491e-21
1.875e-06
-5.95559e-23
1.41657e-21
1.875e-06
-6.11307e-23
1.55253e-21
1.875e-06
1.96037e-23
1.41402e-21
1.875e-06
-1.00905e-22
1.30537e-21
1.875e-06
-8.90487e-23
1.29228e-21
1.875e-06
1.97649e-23
1.30836e-21
1.875e-06
1.0528e-22
1.20205e-21
1.875e-06
1.32587e-22
1.14948e-21
1.875e-06
-6.94748e-24
1.07729e-21
1.875e-06
5.84031e-23
1.28224e-21
1.875e-06
4.55396e-23
1.19919e-21
1.875e-06
2.00478e-22
9.98644e-22
1.875e-06
1.12669e-22
8.44876e-22
1.875e-06
1.12479e-23
8.0435e-22
1.875e-06
-3.5299e-23
8.04247e-22
1.875e-06
6.77038e-23
8.15897e-22
1.875e-06
2.4474e-22
8.13548e-22
1.875e-06
1.27269e-22
7.55786e-22
1.875e-06
-5.50082e-23
6.96592e-22
1.875e-06
-2.20704e-22
5.7149e-22
1.875e-06
-6.11147e-23
5.7818e-22
1.875e-06
-3.20933e-23
5.88238e-22
1.875e-06
8.25296e-23
6.72495e-22
1.875e-06
5.15342e-23
4.87383e-22
1.875e-06
1.61979e-23
4.06911e-22
1.875e-06
9.00057e-23
5.22464e-22
1.875e-06
8.82532e-23
3.76968e-22
1.875e-06
5.04451e-23
2.97463e-22
1.875e-06
-1.73569e-22
2.38224e-22
1.875e-06
-1.32507e-22
2.67496e-22
1.875e-06
-7.01487e-23
2.88898e-22
1.875e-06
-1.49121e-22
8.69963e-23
1.875e-06
-1.25562e-22
-2.54621e-22
1.875e-06
-8.19097e-23
-2.85225e-22
1.875e-06
7.53894e-23
-4.19562e-23
1.875e-06
1.89839e-23
-2.1911e-22
-1.25974e-23
-3.40205e-22
1.875e-06
-7.88698e-23
6.56987e-22
1.875e-06
-1.64099e-22
1.02916e-21
1.875e-06
-1.82609e-22
1.22862e-21
1.875e-06
-1.48924e-23
1.44985e-21
1.875e-06
7.62599e-23
1.4792e-21
1.875e-06
-7.07722e-23
1.37152e-21
1.875e-06
-1.17549e-22
1.39947e-21
1.875e-06
-1.35339e-22
1.35221e-21
1.875e-06
-3.30154e-24
1.38166e-21
1.875e-06
1.40976e-23
1.32067e-21
1.875e-06
9.48714e-23
1.10473e-21
1.875e-06
8.07786e-23
1.09525e-21
1.875e-06
6.88779e-23
1.24281e-21
1.875e-06
4.53927e-23
1.22185e-21
1.875e-06
4.28072e-23
9.67294e-22
1.875e-06
9.17713e-23
8.95918e-22
1.875e-06
6.41459e-23
8.28215e-22
1.875e-06
2.02646e-22
8.94443e-22
1.875e-06
2.25252e-22
7.59505e-22
1.875e-06
7.70574e-23
6.2064e-22
1.875e-06
-7.49588e-23
6.3907e-22
1.875e-06
-1.94338e-22
8.33721e-22
1.875e-06
-5.38008e-23
7.18423e-22
1.875e-06
-4.01078e-23
5.29511e-22
1.875e-06
-5.8464e-23
6.31786e-22
1.875e-06
-4.34529e-24
5.94746e-22
1.875e-06
8.03608e-23
5.29438e-22
1.875e-06
4.94373e-23
4.45051e-22
1.875e-06
2.58478e-23
4.06443e-22
1.875e-06
1.09108e-23
2.99656e-22
1.875e-06
5.44843e-23
2.5362e-22
1.875e-06
-5.38454e-24
3.29339e-22
1.875e-06
-8.80373e-23
3.07374e-22
1.875e-06
-4.79156e-23
2.46269e-22
1.875e-06
5.1679e-24
1.44707e-22
1.875e-06
-6.10637e-23
-5.07226e-23
1.875e-06
-4.02335e-23
-1.2769e-22
1.875e-06
4.66079e-23
-1.57139e-22
1.875e-06
8.19345e-23
-2.10266e-22
1.91385e-22
-2.23145e-22
1.875e-06
-7.44799e-23
7.77609e-22
1.875e-06
-2.85788e-23
1.11721e-21
1.875e-06
-3.69703e-23
1.29443e-21
1.875e-06
-1.45125e-22
1.45311e-21
1.875e-06
-6.57013e-23
1.45177e-21
1.875e-06
-1.28461e-22
1.43747e-21
1.875e-06
-1.387e-22
1.4639e-21
1.875e-06
-6.72414e-24
1.48826e-21
1.875e-06
7.75557e-23
1.38323e-21
1.875e-06
5.45308e-23
1.28471e-21
1.875e-06
3.50938e-24
1.14344e-21
1.875e-06
3.61851e-23
1.18868e-21
1.875e-06
1.34963e-22
1.23416e-21
1.875e-06
1.65888e-22
1.2339e-21
1.875e-06
1.9435e-23
1.00616e-21
1.875e-06
-6.83999e-23
9.15592e-22
1.875e-06
-5.99785e-23
9.00363e-22
1.875e-06
5.2613e-23
7.27105e-22
1.875e-06
9.55981e-23
6.51528e-22
1.875e-06
5.56971e-23
5.89625e-22
1.875e-06
-7.14231e-23
5.98838e-22
1.875e-06
2.16381e-23
8.40177e-22
1.875e-06
-1.94304e-23
7.78208e-22
1.875e-06
3.14078e-23
6.9706e-22
1.875e-06
-2.54636e-23
6.34252e-22
1.875e-06
-8.80322e-23
5.68769e-22
1.875e-06
9.16318e-23
4.76815e-22
1.875e-06
1.50497e-22
4.80298e-22
1.875e-06
1.56283e-22
4.16725e-22
1.875e-06
-2.5938e-23
3.16641e-22
1.875e-06
-1.42754e-22
1.86905e-22
1.875e-06
-5.46603e-23
1.7699e-22
1.875e-06
4.13704e-23
2.69184e-22
1.875e-06
-4.85564e-24
3.38301e-22
1.875e-06
2.08327e-23
1.71358e-22
1.875e-06
3.34596e-23
3.59246e-23
1.875e-06
9.62928e-23
2.70347e-23
1.875e-06
7.80909e-24
-3.99862e-23
1.875e-06
2.27971e-23
-2.34027e-22
3.42196e-23
-3.10534e-22
1.875e-06
1.23698e-22
8.77504e-22
1.875e-06
7.47235e-23
1.18086e-21
1.875e-06
-2.77522e-23
1.14404e-21
1.875e-06
-1.18407e-22
1.39117e-21
1.875e-06
-1.6252e-22
1.37612e-21
1.875e-06
-1.27428e-22
1.51437e-21
1.875e-06
1.04946e-23
1.5408e-21
1.875e-06
-3.34817e-23
1.47011e-21
1.875e-06
-9.95702e-23
1.29493e-21
1.875e-06
2.79086e-23
1.41617e-21
1.875e-06
-2.24963e-22
1.23649e-21
1.875e-06
4.53245e-22
1.26204e-21
1.875e-06
4.26079e-23
1.19199e-21
1.875e-06
1.30186e-22
1.20202e-21
1.875e-06
3.6082e-23
1.14787e-21
1.875e-06
-8.44615e-23
9.47695e-22
1.875e-06
-1.22905e-22
8.28455e-22
1.875e-06
-1.81151e-22
6.01447e-22
1.875e-06
-5.57811e-23
7.3162e-22
1.875e-06
2.01972e-24
6.56189e-22
1.875e-06
-6.75232e-23
5.99546e-22
1.875e-06
-1.16924e-22
7.30511e-22
1.875e-06
-3.1643e-23
9.21008e-22
1.875e-06
5.50958e-23
6.31882e-22
1.875e-06
1.80595e-22
5.85344e-22
1.875e-06
1.00228e-22
5.92425e-22
1.875e-06
-5.39001e-23
4.41574e-22
1.875e-06
-3.04627e-23
4.86444e-22
1.875e-06
-1.98077e-22
4.02715e-22
1.875e-06
1.96002e-22
3.18157e-22
1.875e-06
4.32327e-23
3.2958e-22
1.875e-06
2.45886e-23
2.18951e-22
1.875e-06
1.04864e-22
1.09198e-22
1.875e-06
-3.53535e-23
2.64441e-22
1.875e-06
9.23513e-23
2.87508e-22
1.875e-06
1.10994e-22
1.42342e-22
1.875e-06
-8.73413e-23
-5.71116e-23
1.875e-06
2.4354e-23
-2.10318e-22
1.875e-06
-5.80782e-23
-3.87735e-22
-9.76232e-24
-3.02532e-22
1.875e-06
1.26575e-22
6.87202e-22
1.875e-06
1.64605e-22
1.01319e-21
1.875e-06
1.46033e-23
1.13909e-21
1.875e-06
1.60122e-23
1.4041e-21
1.875e-06
3.43411e-23
1.44755e-21
1.875e-06
-2.55121e-23
1.45049e-21
1.875e-06
-4.31325e-23
1.48129e-21
1.875e-06
-4.21248e-23
1.45187e-21
1.875e-06
-1.19462e-22
1.36801e-21
1.875e-06
-6.08347e-23
1.46381e-21
1.875e-06
-2.83781e-27
1.31648e-21
1.875e-06
6.10365e-23
1.28962e-21
1.875e-06
1.52893e-22
1.33941e-21
1.875e-06
1.43676e-22
1.09856e-21
1.875e-06
-1.26758e-22
1.01999e-21
1.875e-06
-1.92431e-22
9.45362e-22
1.875e-06
-1.23933e-22
8.46809e-22
1.875e-06
-5.84893e-23
6.75074e-22
1.875e-06
-7.36695e-25
8.43699e-22
1.875e-06
-9.38977e-23
7.35749e-22
1.875e-06
-8.81864e-23
6.55581e-22
1.875e-06
-1.08517e-22
7.88366e-22
1.875e-06
-1.09444e-23
8.72389e-22
1.875e-06
3.1467e-23
6.1185e-22
1.875e-06
8.66838e-23
5.11724e-22
1.875e-06
1.3668e-22
5.77e-22
1.875e-06
4.28738e-24
3.88219e-22
1.875e-06
4.08579e-23
4.70005e-22
1.875e-06
3.49495e-24
5.08222e-22
1.875e-06
-4.93163e-23
3.45284e-22
1.875e-06
-6.58374e-24
3.10796e-22
1.875e-06
7.61951e-23
1.95986e-22
1.875e-06
-2.60088e-25
1.53656e-22
1.875e-06
9.63736e-24
2.76521e-22
1.875e-06
1.28072e-22
3.07912e-22
1.875e-06
1.4438e-22
8.70094e-23
1.875e-06
6.09823e-23
-5.55686e-23
1.875e-06
5.16425e-24
-3.24401e-22
1.875e-06
-4.64726e-23
-3.72182e-22
-1.24378e-22
-2.25196e-22
1.875e-06
1.68986e-22
6.64172e-22
1.875e-06
1.29938e-22
1.00081e-21
1.875e-06
4.92472e-23
1.1913e-21
1.875e-06
1.05891e-22
1.2751e-21
1.875e-06
-2.08748e-23
1.32405e-21
1.875e-06
1.07625e-22
1.50036e-21
1.875e-06
2.04982e-23
1.47361e-21
1.875e-06
-1.0191e-22
1.35509e-21
1.875e-06
-1.10556e-23
1.49444e-21
1.875e-06
-1.34821e-22
1.53523e-21
1.875e-06
-1.86918e-24
1.42722e-21
1.875e-06
-2.64779e-23
1.20884e-21
1.875e-06
-8.98966e-23
1.26014e-21
1.875e-06
-2.22508e-22
1.04611e-21
1.875e-06
-1.46965e-22
1.0227e-21
1.875e-06
-8.09242e-23
1.01748e-21
1.875e-06
-7.27762e-23
8.12323e-22
1.875e-06
-1.65071e-22
7.48736e-22
1.875e-06
-2.35081e-22