/*--------------------------------*- C++ -*----------------------------------*\
| =========                 |                                                 |
| \\      /  F ield         | OpenFOAM: The Open Source CFD Toolbox           |
|  \\    /   O peration     | Version:  v2012                                 |
|   \\  /    A nd           | Website:  www.openfoam.com                      |
|    \\/     M anipulation  |                                                 |
\*---------------------------------------------------------------------------*/
FoamFile
{
    version     2.0;
    format      ascii;
    class       volVectorField;
    location    "48";
    object      U;
}
// * * * * * * * * * * * * * * * * * * * * * * * * * * * * * * * * * * * * * //

dimensions      [0 1 -1 0 0 0 0];


internalField   nonuniform List<vector> 
64000
(
(0.003 2.97876e-19 2.76261e-19)
(0.003 5.37994e-19 5.12337e-19)
(0.003 5.41545e-19 6.2483e-19)
(0.003 5.1323e-19 5.98515e-19)
(0.003 6.41039e-19 5.89615e-19)
(0.003 6.28045e-19 5.51716e-19)
(0.003 5.75956e-19 5.51915e-19)
(0.003 4.4319e-19 5.07341e-19)
(0.003 4.30309e-19 5.82555e-19)
(0.003 6.73073e-19 5.23372e-19)
(0.003 6.66792e-19 4.36937e-19)
(0.003 5.8393e-19 6.19739e-19)
(0.003 5.30099e-19 5.82814e-19)
(0.003 5.04493e-19 4.49181e-19)
(0.003 4.584e-19 5.36964e-19)
(0.003 4.24668e-19 5.59928e-19)
(0.003 3.44175e-19 3.94598e-19)
(0.003 2.0863e-19 2.42931e-19)
(0.003 1.99131e-19 2.17305e-19)
(0.003 2.27646e-19 3.13735e-19)
(0.003 1.44283e-19 2.92325e-19)
(0.003 2.8101e-19 3.39855e-19)
(0.003 4.50117e-19 3.80312e-19)
(0.003 5.16387e-19 3.00306e-19)
(0.003 4.1645e-19 2.02425e-19)
(0.003 2.79035e-19 1.8215e-19)
(0.003 1.98341e-19 2.07607e-19)
(0.003 3.15157e-19 2.87178e-19)
(0.003 2.70863e-19 2.70791e-19)
(0.003 1.71127e-19 2.52955e-19)
(0.003 5.56332e-20 2.0918e-19)
(0.003 1.10384e-19 1.70056e-19)
(0.003 2.3976e-19 2.26195e-19)
(0.003 1.95427e-19 2.58164e-19)
(0.003 1.19574e-19 2.2798e-19)
(0.003 3.42304e-20 1.75128e-19)
(0.003 -5.41865e-20 9.46308e-20)
(0.003 -5.05997e-20 1.31088e-19)
(0.003 -4.46398e-20 1.9283e-19)
(0.003 -3.96386e-20 1.35256e-19)
(0.003 2.25796e-19 4.80623e-19)
(0.003 3.82509e-19 9.64053e-19)
(0.003 6.49458e-19 1.19344e-18)
(0.003 6.08316e-19 1.1277e-18)
(0.003 5.39738e-19 1.1194e-18)
(0.003 7.40726e-19 1.25616e-18)
(0.003 7.86582e-19 1.25084e-18)
(0.003 6.83506e-19 1.03755e-18)
(0.003 6.01856e-19 9.55555e-19)
(0.003 6.14878e-19 1.2487e-18)
(0.003 6.22066e-19 1.23022e-18)
(0.003 5.46271e-19 1.09031e-18)
(0.003 4.60735e-19 1.00222e-18)
(0.003 4.26628e-19 9.70413e-19)
(0.003 3.32871e-19 9.77246e-19)
(0.003 2.52311e-19 9.17175e-19)
(0.003 5.11893e-19 8.20257e-19)
(0.003 5.0368e-19 6.99627e-19)
(0.003 3.28216e-19 6.85217e-19)
(0.003 1.68433e-19 6.04363e-19)
(0.003 2.54802e-19 5.66762e-19)
(0.003 4.18103e-19 6.62306e-19)
(0.003 4.62415e-19 7.05876e-19)
(0.003 4.6256e-19 7.30036e-19)
(0.003 3.7264e-19 5.95025e-19)
(0.003 3.41117e-19 4.91904e-19)
(0.003 3.76791e-19 4.79599e-19)
(0.003 2.62619e-19 5.6262e-19)
(0.003 2.11573e-19 5.96815e-19)
(0.003 2.06732e-19 4.32281e-19)
(0.003 1.56968e-19 3.17973e-19)
(0.003 1.363e-19 2.75211e-19)
(0.003 1.54797e-19 4.02157e-19)
(0.003 1.11081e-19 4.07183e-19)
(0.003 2.17256e-20 3.39135e-19)
(0.003 -1.04746e-19 2.21894e-19)
(0.003 -4.33373e-20 5.91197e-20)
(0.003 -2.14966e-20 4.15239e-20)
(0.003 -6.72574e-20 9.32951e-20)
(0.003 -9.87921e-20 8.24574e-20)
(0.003 1.52004e-19 5.81656e-19)
(0.003 1.42009e-19 1.02508e-18)
(0.003 2.79212e-19 1.26333e-18)
(0.003 5.04733e-19 1.32623e-18)
(0.003 4.96072e-19 1.32718e-18)
(0.003 6.41333e-19 1.45828e-18)
(0.003 6.91035e-19 1.51066e-18)
(0.003 5.58719e-19 1.44679e-18)
(0.003 5.7707e-19 1.37039e-18)
(0.003 4.35977e-19 1.34479e-18)
(0.003 4.06189e-19 1.29867e-18)
(0.003 4.09896e-19 1.19704e-18)
(0.003 4.12322e-19 1.10942e-18)
(0.003 3.43018e-19 1.11398e-18)
(0.003 3.17247e-19 1.06219e-18)
(0.003 2.92847e-19 9.59435e-19)
(0.003 3.71855e-19 9.82415e-19)
(0.003 5.30362e-19 9.03512e-19)
(0.003 3.39524e-19 7.55821e-19)
(0.003 2.27286e-19 6.53572e-19)
(0.003 3.38052e-19 7.34118e-19)
(0.003 3.75021e-19 8.10486e-19)
(0.003 4.07609e-19 7.93934e-19)
(0.003 3.03206e-19 7.73135e-19)
(0.003 3.42659e-19 6.67765e-19)
(0.003 2.61822e-19 6.26033e-19)
(0.003 2.27733e-19 6.21716e-19)
(0.003 1.15458e-19 6.96158e-19)
(0.003 2.06787e-19 6.02107e-19)
(0.003 2.39043e-19 5.39598e-19)
(0.003 2.54425e-19 5.129e-19)
(0.003 1.28337e-19 3.87347e-19)
(0.003 -2.50538e-20 3.70904e-19)
(0.003 -3.64921e-20 3.7686e-19)
(0.003 2.71381e-20 3.48959e-19)
(0.003 6.61726e-20 2.27311e-19)
(0.003 4.50599e-20 5.35199e-20)
(0.003 -1.45797e-20 2.98329e-20)
(0.003 -7.04481e-20 8.4371e-20)
(0.003 -1.12255e-19 4.91196e-20)
(0.003 3.63638e-19 7.1844e-19)
(0.003 2.78021e-19 1.1947e-18)
(0.003 1.7484e-19 1.3845e-18)
(0.003 3.68674e-19 1.50086e-18)
(0.003 4.73782e-19 1.49707e-18)
(0.003 5.20576e-19 1.59764e-18)
(0.003 5.05223e-19 1.61664e-18)
(0.003 4.68131e-19 1.42733e-18)
(0.003 4.07434e-19 1.4043e-18)
(0.003 4.65255e-19 1.43605e-18)
(0.003 4.55385e-19 1.42847e-18)
(0.003 3.10729e-19 1.38289e-18)
(0.003 3.11785e-19 1.22608e-18)
(0.003 3.11186e-19 1.16479e-18)
(0.003 5.19311e-19 1.16792e-18)
(0.003 6.07632e-19 1.06189e-18)
(0.003 2.93566e-19 9.79156e-19)
(0.003 2.65152e-19 1.02658e-18)
(0.003 3.21705e-19 8.74677e-19)
(0.003 2.7727e-19 7.091e-19)
(0.003 2.89668e-19 8.13027e-19)
(0.003 3.07995e-19 9.18553e-19)
(0.003 2.99688e-19 9.30169e-19)
(0.003 2.99065e-19 8.85283e-19)
(0.003 3.33498e-19 8.02258e-19)
(0.003 1.90403e-19 6.47371e-19)
(0.003 1.39602e-19 5.80478e-19)
(0.003 1.38777e-19 5.67222e-19)
(0.003 2.0999e-19 5.94949e-19)
(0.003 1.53827e-19 6.33303e-19)
(0.003 1.33068e-19 5.15969e-19)
(0.003 5.31973e-20 3.90565e-19)
(0.003 -4.98915e-20 4.49228e-19)
(0.003 -6.30666e-20 3.91229e-19)
(0.003 6.87428e-20 2.8416e-19)
(0.003 8.91535e-20 2.41572e-19)
(0.003 7.06808e-20 1.37565e-19)
(0.003 6.01155e-20 7.8769e-20)
(0.003 -3.49058e-20 7.11919e-20)
(0.003 -4.12273e-21 6.04677e-20)
(0.003 1.67923e-19 7.41125e-19)
(0.003 2.47129e-19 1.27089e-18)
(0.003 1.40251e-19 1.42363e-18)
(0.003 1.99366e-19 1.60506e-18)
(0.003 3.09406e-19 1.67259e-18)
(0.003 2.2499e-19 1.70262e-18)
(0.003 1.684e-19 1.65039e-18)
(0.003 4.9775e-19 1.49086e-18)
(0.003 5.85623e-19 1.39791e-18)
(0.003 5.16688e-19 1.54694e-18)
(0.003 3.98286e-19 1.49837e-18)
(0.003 2.57819e-19 1.27918e-18)
(0.003 3.30262e-19 1.24929e-18)
(0.003 3.05089e-19 1.2817e-18)
(0.003 3.55025e-19 1.31143e-18)
(0.003 4.77816e-19 1.23592e-18)
(0.003 2.9414e-19 1.04874e-18)
(0.003 1.26717e-19 9.68221e-19)
(0.003 2.49759e-19 9.20594e-19)
(0.003 3.82465e-19 7.76514e-19)
(0.003 3.24885e-19 8.23575e-19)
(0.003 2.93387e-19 1.00855e-18)
(0.003 2.13682e-19 1.05511e-18)
(0.003 2.50047e-19 9.29583e-19)
(0.003 1.90761e-19 8.16353e-19)
(0.003 1.735e-19 6.98851e-19)
(0.003 1.59358e-19 5.83725e-19)
(0.003 1.38538e-19 6.2858e-19)
(0.003 1.53039e-19 6.51738e-19)
(0.003 6.41655e-20 5.31674e-19)
(0.003 1.04783e-19 4.67759e-19)
(0.003 1.30762e-19 4.63634e-19)
(0.003 -4.92168e-20 3.55948e-19)
(0.003 -8.99167e-20 2.96629e-19)
(0.003 1.55743e-20 2.93613e-19)
(0.003 -1.79299e-20 2.71144e-19)
(0.003 3.69988e-20 1.82215e-19)
(0.003 8.1528e-20 4.1887e-20)
(0.003 -5.52813e-20 4.13272e-20)
(0.003 -4.43771e-20 1.22216e-19)
(0.003 3.01792e-20 7.4075e-19)
(0.003 1.89452e-19 1.28604e-18)
(0.003 1.30139e-19 1.45959e-18)
(0.003 1.11758e-19 1.66268e-18)
(0.003 1.90628e-19 1.79683e-18)
(0.003 1.9527e-19 1.80502e-18)
(0.003 1.91382e-19 1.68451e-18)
(0.003 4.29503e-19 1.69094e-18)
(0.003 5.79893e-19 1.61629e-18)
(0.003 4.11734e-19 1.47359e-18)
(0.003 3.68924e-19 1.42658e-18)
(0.003 4.31176e-19 1.43219e-18)
(0.003 3.91131e-19 1.37392e-18)
(0.003 3.66894e-19 1.21716e-18)
(0.003 1.95188e-19 1.32662e-18)
(0.003 1.99396e-19 1.31366e-18)
(0.003 1.70651e-19 1.10618e-18)
(0.003 3.20046e-22 9.54886e-19)
(0.003 9.92874e-20 8.90942e-19)
(0.003 3.1508e-19 8.29356e-19)
(0.003 3.57371e-19 9.1717e-19)
(0.003 3.79961e-19 1.05192e-18)
(0.003 3.22952e-19 1.04837e-18)
(0.003 2.62212e-19 9.63544e-19)
(0.003 1.54336e-19 8.14774e-19)
(0.003 2.38834e-19 6.75905e-19)
(0.003 2.39899e-19 6.6603e-19)
(0.003 4.92618e-20 6.18859e-19)
(0.003 -6.83838e-20 6.34012e-19)
(0.003 2.35141e-21 6.41122e-19)
(0.003 2.21388e-19 5.54861e-19)
(0.003 2.27238e-19 4.27297e-19)
(0.003 -3.07854e-20 3.0043e-19)
(0.003 -4.17639e-20 3.14461e-19)
(0.003 -5.53377e-20 3.4229e-19)
(0.003 -2.54868e-20 1.8705e-19)
(0.003 -1.67697e-20 1.20372e-19)
(0.003 8.98947e-20 3.45778e-20)
(0.003 2.0739e-19 -1.40016e-20)
(0.003 1.07348e-19 1.02582e-19)
(0.003 5.92993e-20 9.03899e-19)
(0.003 1.8562e-19 1.45832e-18)
(0.003 2.12063e-19 1.48736e-18)
(0.003 1.0296e-19 1.62988e-18)
(0.003 1.78271e-19 1.82402e-18)
(0.003 1.94409e-19 1.88512e-18)
(0.003 2.51279e-19 1.75511e-18)
(0.003 4.96838e-19 1.68313e-18)
(0.003 5.3965e-19 1.72645e-18)
(0.003 3.82806e-19 1.65838e-18)
(0.003 2.59872e-19 1.53377e-18)
(0.003 2.72449e-19 1.41826e-18)
(0.003 2.87038e-19 1.39539e-18)
(0.003 3.36084e-19 1.38064e-18)
(0.003 2.16714e-19 1.3525e-18)
(0.003 1.78516e-19 1.31701e-18)
(0.003 1.92695e-19 1.0919e-18)
(0.003 1.67949e-19 8.90054e-19)
(0.003 1.70813e-19 8.37286e-19)
(0.003 1.3086e-19 8.9511e-19)
(0.003 2.16554e-19 1.01017e-18)
(0.003 2.2482e-19 1.10306e-18)
(0.003 2.29074e-19 1.07555e-18)
(0.003 1.9537e-19 1.01705e-18)
(0.003 1.31679e-19 8.46095e-19)
(0.003 2.72085e-19 7.88324e-19)
(0.003 2.09744e-19 7.29269e-19)
(0.003 1.53353e-19 5.79673e-19)
(0.003 5.90668e-20 5.65792e-19)
(0.003 5.37943e-20 5.60301e-19)
(0.003 7.15804e-20 5.67411e-19)
(0.003 7.32234e-20 4.43593e-19)
(0.003 6.01598e-20 2.13498e-19)
(0.003 1.02067e-19 2.21851e-19)
(0.003 6.30967e-20 2.95876e-19)
(0.003 5.56149e-20 2.69433e-19)
(0.003 6.85672e-21 1.52758e-19)
(0.003 4.50555e-20 7.05121e-20)
(0.003 1.14194e-19 4.17848e-20)
(0.003 1.09019e-19 1.10296e-19)
(0.003 1.60594e-19 7.80295e-19)
(0.003 1.68619e-19 1.33617e-18)
(0.003 1.98129e-19 1.5238e-18)
(0.003 2.02776e-19 1.71049e-18)
(0.003 2.03953e-19 1.91521e-18)
(0.003 2.50009e-19 1.92119e-18)
(0.003 3.57538e-19 1.79268e-18)
(0.003 3.26213e-19 1.83353e-18)
(0.003 3.02619e-19 1.827e-18)
(0.003 3.58564e-19 1.72923e-18)
(0.003 1.83938e-19 1.59353e-18)
(0.003 1.57404e-19 1.47655e-18)
(0.003 2.62477e-19 1.38226e-18)
(0.003 2.5546e-19 1.3399e-18)
(0.003 2.50269e-19 1.37721e-18)
(0.003 2.01462e-19 1.40056e-18)
(0.003 1.19033e-19 1.17155e-18)
(0.003 1.72446e-19 8.99805e-19)
(0.003 3.04837e-19 7.86223e-19)
(0.003 2.81475e-19 7.45405e-19)
(0.003 1.17397e-19 9.20671e-19)
(0.003 8.11542e-20 1.14286e-18)
(0.003 1.54891e-19 1.13049e-18)
(0.003 9.6109e-20 1.09247e-18)
(0.003 1.41684e-19 9.58399e-19)
(0.003 2.23039e-19 8.42262e-19)
(0.003 2.7449e-19 7.32448e-19)
(0.003 2.69328e-19 6.27371e-19)
(0.003 1.48754e-19 5.08358e-19)
(0.003 1.55954e-19 5.06582e-19)
(0.003 1.11933e-20 5.5554e-19)
(0.003 -3.01967e-20 4.63638e-19)
(0.003 5.37528e-20 3.49128e-19)
(0.003 1.10191e-19 3.51338e-19)
(0.003 1.91687e-19 2.96298e-19)
(0.003 8.12217e-20 1.32989e-19)
(0.003 -4.61099e-20 -1.69375e-20)
(0.003 7.87096e-21 1.84237e-20)
(0.003 -9.14471e-21 5.40713e-20)
(0.003 -5.50962e-21 3.68676e-20)
(0.003 -5.92058e-20 7.92985e-19)
(0.003 -3.64246e-20 1.53293e-18)
(0.003 1.21723e-19 1.67896e-18)
(0.003 1.58421e-19 1.77611e-18)
(0.003 2.45417e-19 1.88444e-18)
(0.003 4.01707e-19 1.95968e-18)
(0.003 3.75214e-19 1.90627e-18)
(0.003 1.29218e-19 1.82838e-18)
(0.003 9.18386e-20 1.8311e-18)
(0.003 2.75762e-19 1.83209e-18)
(0.003 2.41092e-19 1.60938e-18)
(0.003 1.42573e-19 1.48772e-18)
(0.003 2.03422e-19 1.45058e-18)
(0.003 1.72198e-19 1.36101e-18)
(0.003 2.58558e-19 1.35798e-18)
(0.003 1.92406e-19 1.35958e-18)
(0.003 2.32117e-19 1.19135e-18)
(0.003 2.23977e-19 9.01267e-19)
(0.003 1.07296e-19 9.36425e-19)
(0.003 2.06093e-19 9.51713e-19)
(0.003 2.30416e-19 9.19527e-19)
(0.003 2.04087e-19 1.10396e-18)
(0.003 2.24415e-19 1.19035e-18)
(0.003 2.04702e-19 1.14639e-18)
(0.003 2.49673e-19 8.81831e-19)
(0.003 1.88387e-19 8.12123e-19)
(0.003 1.34471e-19 7.77022e-19)
(0.003 1.64224e-19 6.79499e-19)
(0.003 1.97726e-19 5.1743e-19)
(0.003 1.60385e-19 5.36833e-19)
(0.003 -3.97501e-20 5.62817e-19)
(0.003 -6.16435e-20 4.6709e-19)
(0.003 9.59634e-20 3.43389e-19)
(0.003 1.06265e-19 3.01098e-19)
(0.003 9.48092e-20 1.76364e-19)
(0.003 1.43596e-19 1.82314e-20)
(0.003 1.27523e-19 -1.94189e-20)
(0.003 -6.96663e-20 -8.15494e-20)
(0.003 -1.28876e-19 -1.99109e-19)
(0.003 -9.50051e-20 -1.18596e-19)
(0.003 -1.93997e-19 8.38316e-19)
(0.003 -2.22255e-20 1.36642e-18)
(0.003 1.6383e-19 1.59586e-18)
(0.003 2.92073e-19 1.86269e-18)
(0.003 2.15243e-19 2.02177e-18)
(0.003 1.95517e-19 2.02421e-18)
(0.003 3.20709e-19 2.0061e-18)
(0.003 2.40293e-19 1.94871e-18)
(0.003 1.83134e-19 1.79873e-18)
(0.003 1.42488e-19 1.77189e-18)
(0.003 2.86835e-19 1.64342e-18)
(0.003 1.61324e-19 1.45631e-18)
(0.003 4.55688e-20 1.40595e-18)
(0.003 1.34907e-19 1.36537e-18)
(0.003 2.47272e-19 1.41611e-18)
(0.003 2.35425e-19 1.4005e-18)
(0.003 2.14323e-19 1.20196e-18)
(0.003 1.97739e-19 9.59832e-19)
(0.003 -2.98323e-21 8.58955e-19)
(0.003 8.84168e-20 8.22236e-19)
(0.003 3.361e-19 9.79744e-19)
(0.003 4.18832e-19 1.20804e-18)
(0.003 2.5147e-19 1.27566e-18)
(0.003 2.90519e-19 1.19591e-18)
(0.003 4.07341e-19 1.02496e-18)
(0.003 1.71311e-19 8.08616e-19)
(0.003 -9.49771e-20 6.14224e-19)
(0.003 -5.85988e-20 6.41124e-19)
(0.003 1.01877e-19 6.62533e-19)
(0.003 1.53578e-19 5.56198e-19)
(0.003 4.96064e-20 4.15948e-19)
(0.003 2.41103e-20 4.91902e-19)
(0.003 9.38782e-20 4.57491e-19)
(0.003 2.74157e-20 3.171e-19)
(0.003 -5.89898e-20 2.30914e-19)
(0.003 1.24045e-19 -8.87702e-20)
(0.003 1.94418e-19 -3.99695e-19)
(0.003 2.33887e-20 -2.97873e-19)
(0.003 -3.32118e-20 -1.94577e-19)
(0.003 -9.09333e-21 -1.89021e-19)
(0.003 4.95465e-20 1.00808e-18)
(0.003 1.84262e-19 1.55189e-18)
(0.003 2.38926e-19 1.70229e-18)
(0.003 2.67358e-19 1.8921e-18)
(0.003 1.95747e-19 1.93136e-18)
(0.003 1.75109e-19 2.00055e-18)
(0.003 1.86389e-19 2.09141e-18)
(0.003 2.32546e-19 2.03761e-18)
(0.003 1.84136e-19 1.94265e-18)
(0.003 1.69973e-19 1.77865e-18)
(0.003 2.44684e-19 1.54813e-18)
(0.003 1.66806e-19 1.38602e-18)
(0.003 7.65679e-20 1.3523e-18)
(0.003 1.66882e-19 1.26004e-18)
(0.003 1.71963e-19 1.39454e-18)
(0.003 3.03591e-19 1.46021e-18)
(0.003 2.47293e-19 1.22218e-18)
(0.003 1.29833e-19 9.5794e-19)
(0.003 8.26171e-20 8.80155e-19)
(0.003 8.78067e-20 9.53772e-19)
(0.003 2.75774e-19 1.12279e-18)
(0.003 3.70854e-19 1.27262e-18)
(0.003 2.64644e-19 1.28106e-18)
(0.003 2.24051e-19 1.19035e-18)
(0.003 2.36052e-19 9.70248e-19)
(0.003 1.00673e-19 7.43689e-19)
(0.003 6.19324e-20 6.82874e-19)
(0.003 4.72178e-20 7.11077e-19)
(0.003 2.20349e-20 6.22839e-19)
(0.003 3.09246e-20 6.40231e-19)
(0.003 2.10076e-20 5.61015e-19)
(0.003 5.99141e-20 5.44384e-19)
(0.003 1.18999e-19 3.72444e-19)
(0.003 2.46964e-20 2.43515e-19)
(0.003 -7.71026e-20 1.80623e-19)
(0.003 -5.47699e-20 -9.97186e-20)
(0.003 -1.0732e-19 -4.37774e-19)
(0.003 -9.07666e-21 -2.98103e-19)
(0.003 8.52388e-20 -2.34689e-19)
(0.003 9.48161e-20 -2.58657e-19)
(0.003 2.21125e-19 1.03869e-18)
(0.003 2.10836e-19 1.61815e-18)
(0.003 1.52044e-19 1.73941e-18)
(0.003 1.56063e-19 1.81031e-18)
(0.003 2.68831e-19 2.00665e-18)
(0.003 2.19515e-19 2.11011e-18)
(0.003 1.79065e-19 2.03702e-18)
(0.003 3.08888e-19 2.03031e-18)
(0.003 1.45443e-19 1.84569e-18)
(0.003 7.85601e-20 1.82265e-18)
(0.003 2.25171e-19 1.62658e-18)
(0.003 2.4775e-19 1.38497e-18)
(0.003 1.85073e-19 1.3883e-18)
(0.003 2.3172e-19 1.2946e-18)
(0.003 1.40678e-19 1.32621e-18)
(0.003 1.33464e-19 1.41223e-18)
(0.003 1.86141e-19 1.29644e-18)
(0.003 2.03398e-19 1.03492e-18)
(0.003 2.84715e-19 9.23811e-19)
(0.003 2.2091e-19 9.17326e-19)
(0.003 1.18199e-19 1.1541e-18)
(0.003 1.29219e-19 1.30704e-18)
(0.003 1.14149e-19 1.18096e-18)
(0.003 1.69007e-19 1.13621e-18)
(0.003 4.82884e-20 1.08641e-18)
(0.003 3.14618e-20 8.30613e-19)
(0.003 9.38207e-20 7.38241e-19)
(0.003 5.30742e-20 7.14301e-19)
(0.003 1.95861e-20 5.71325e-19)
(0.003 -1.54954e-19 6.00679e-19)
(0.003 1.78303e-20 5.78661e-19)
(0.003 1.25704e-19 5.24409e-19)
(0.003 1.25412e-20 3.87531e-19)
(0.003 9.90282e-20 2.13247e-19)
(0.003 1.93053e-19 6.73989e-20)
(0.003 -9.24812e-20 -1.63725e-19)
(0.003 -2.46774e-19 -4.12134e-19)
(0.003 -9.20794e-20 -3.02688e-19)
(0.003 2.93446e-20 -3.38891e-19)
(0.003 2.67853e-20 -4.28967e-19)
(0.003 2.4281e-19 1.06233e-18)
(0.003 2.43423e-19 1.59285e-18)
(0.003 2.08366e-19 1.75376e-18)
(0.003 2.44332e-19 1.95356e-18)
(0.003 1.23481e-19 2.11788e-18)
(0.003 6.27964e-20 2.09762e-18)
(0.003 1.81279e-19 2.00879e-18)
(0.003 1.59602e-19 1.983e-18)
(0.003 1.98732e-19 1.81775e-18)
(0.003 1.56152e-19 1.72905e-18)
(0.003 7.97895e-20 1.61609e-18)
(0.003 2.30865e-19 1.498e-18)
(0.003 3.21874e-19 1.4664e-18)
(0.003 2.72045e-19 1.42522e-18)
(0.003 2.3225e-19 1.38318e-18)
(0.003 1.52217e-19 1.34474e-18)
(0.003 1.53296e-19 1.16762e-18)
(0.003 1.01756e-19 9.73756e-19)
(0.003 1.33752e-19 1.00144e-18)
(0.003 2.92679e-19 1.09196e-18)
(0.003 2.1085e-19 1.08047e-18)
(0.003 7.05642e-20 1.17523e-18)
(0.003 1.12075e-19 1.1839e-18)
(0.003 7.20339e-20 1.15806e-18)
(0.003 -8.36516e-20 1.00797e-18)
(0.003 -7.37786e-20 8.16683e-19)
(0.003 -1.02987e-19 7.53935e-19)
(0.003 -1.60088e-20 6.85441e-19)
(0.003 6.00795e-21 6.24836e-19)
(0.003 -1.05969e-19 5.70926e-19)
(0.003 1.98742e-20 5.46336e-19)
(0.003 8.44851e-20 5.40886e-19)
(0.003 -1.10401e-22 3.78439e-19)
(0.003 1.07812e-19 2.9642e-19)
(0.003 1.41365e-19 1.12315e-19)
(0.003 -5.82375e-21 -2.95706e-19)
(0.003 -5.33221e-20 -3.80179e-19)
(0.003 -1.28186e-19 -2.66329e-19)
(0.003 -2.07094e-19 -2.70299e-19)
(0.003 -1.95869e-19 -3.61136e-19)
(0.003 3.202e-21 1.07515e-18)
(0.003 2.2733e-19 1.70438e-18)
(0.003 2.76126e-19 1.82923e-18)
(0.003 1.5001e-19 1.98194e-18)
(0.003 -1.51554e-20 2.05479e-18)
(0.003 -4.53136e-21 2.05307e-18)
(0.003 9.1339e-20 2.00015e-18)
(0.003 1.38089e-19 1.91157e-18)
(0.003 1.56593e-19 1.81273e-18)
(0.003 7.03145e-20 1.8056e-18)
(0.003 2.22053e-20 1.65718e-18)
(0.003 2.63489e-19 1.53396e-18)
(0.003 3.15947e-19 1.55328e-18)
(0.003 1.7473e-19 1.43721e-18)
(0.003 1.27806e-19 1.3865e-18)
(0.003 1.11479e-19 1.33359e-18)
(0.003 1.91225e-19 1.27348e-18)
(0.003 3.11374e-19 1.06081e-18)
(0.003 2.56107e-19 8.90927e-19)
(0.003 1.42003e-19 1.01736e-18)
(0.003 2.22141e-19 1.11834e-18)
(0.003 8.05283e-20 1.2023e-18)
(0.003 6.89328e-20 1.16949e-18)
(0.003 -3.59937e-21 1.17676e-18)
(0.003 -6.47662e-20 1.06328e-18)
(0.003 -1.67685e-20 8.52075e-19)
(0.003 3.51376e-21 6.22803e-19)
(0.003 2.61801e-20 6.51418e-19)
(0.003 -6.10322e-20 6.75498e-19)
(0.003 -8.79994e-20 5.46197e-19)
(0.003 -2.12163e-19 5.80086e-19)
(0.003 -7.9221e-20 5.61674e-19)
(0.003 4.2456e-20 4.11489e-19)
(0.003 -6.2067e-20 2.84573e-19)
(0.003 -3.03633e-20 7.70553e-20)
(0.003 -2.40077e-22 -3.52769e-19)
(0.003 -7.271e-20 -5.39226e-19)
(0.003 -9.72318e-20 -3.88907e-19)
(0.003 -1.87027e-19 -3.55795e-19)
(0.003 -2.69155e-19 -4.0053e-19)
(0.003 -1.85951e-19 1.15955e-18)
(0.003 -1.27074e-19 1.75125e-18)
(0.003 1.49701e-19 1.91143e-18)
(0.003 6.31008e-20 1.92538e-18)
(0.003 2.51067e-20 2.05567e-18)
(0.003 3.54637e-20 2.06794e-18)
(0.003 1.37797e-20 2.02517e-18)
(0.003 9.24314e-20 1.94623e-18)
(0.003 9.90773e-20 1.84996e-18)
(0.003 -2.91254e-20 1.78796e-18)
(0.003 8.92316e-20 1.67045e-18)
(0.003 2.65948e-19 1.64116e-18)
(0.003 2.07352e-19 1.62914e-18)
(0.003 9.38105e-20 1.46087e-18)
(0.003 1.12815e-19 1.31546e-18)
(0.003 1.1562e-19 1.31681e-18)
(0.003 1.91917e-19 1.23225e-18)
(0.003 3.20081e-19 1.07406e-18)
(0.003 2.59013e-19 1.02004e-18)
(0.003 1.63061e-19 1.02907e-18)
(0.003 2.6224e-19 1.12002e-18)
(0.003 1.248e-19 1.17445e-18)
(0.003 -3.64569e-20 1.21148e-18)
(0.003 -1.83729e-19 1.17679e-18)
(0.003 -1.51401e-19 9.88807e-19)
(0.003 4.88395e-20 8.65599e-19)
(0.003 1.80967e-19 6.80498e-19)
(0.003 2.38061e-20 7.03563e-19)
(0.003 -1.23646e-19 6.53803e-19)
(0.003 -7.84265e-20 4.89019e-19)
(0.003 -7.55412e-20 4.8024e-19)
(0.003 -1.75147e-19 5.22947e-19)
(0.003 -5.3442e-20 4.78156e-19)
(0.003 -1.46851e-20 2.50878e-19)
(0.003 -4.0786e-20 8.75167e-20)
(0.003 -1.21109e-20 -2.25617e-19)
(0.003 -1.0713e-19 -4.82392e-19)
(0.003 -6.88677e-20 -3.83256e-19)
(0.003 -1.17599e-19 -3.97721e-19)
(0.003 -2.57489e-19 -4.57991e-19)
(0.003 -7.71973e-20 1.10008e-18)
(0.003 -2.49012e-19 1.76591e-18)
(0.003 -1.78176e-19 2.03999e-18)
(0.003 -1.50257e-19 2.03804e-18)
(0.003 -2.71603e-21 2.0844e-18)
(0.003 5.6263e-20 2.07142e-18)
(0.003 1.10614e-21 1.99123e-18)
(0.003 1.2591e-20 1.95077e-18)
(0.003 7.5043e-20 1.87679e-18)
(0.003 8.01069e-20 1.71667e-18)
(0.003 9.9369e-20 1.71676e-18)
(0.003 1.05423e-19 1.72906e-18)
(0.003 -5.46154e-21 1.69093e-18)
(0.003 6.60109e-20 1.50082e-18)
(0.003 2.33583e-19 1.39588e-18)
(0.003 2.4424e-19 1.35448e-18)
(0.003 2.21867e-19 1.2103e-18)
(0.003 1.81766e-19 1.06434e-18)
(0.003 2.29709e-19 9.68302e-19)
(0.003 1.86572e-19 1.04095e-18)
(0.003 1.58272e-19 1.15571e-18)
(0.003 1.25505e-19 1.21875e-18)
(0.003 2.48645e-20 1.20841e-18)
(0.003 -2.17313e-19 1.02043e-18)
(0.003 -1.40223e-19 8.90265e-19)
(0.003 -8.94499e-20 8.9432e-19)
(0.003 5.55925e-20 7.26217e-19)
(0.003 7.02485e-20 6.09285e-19)
(0.003 -2.52617e-20 6.25024e-19)
(0.003 8.69588e-21 5.35124e-19)
(0.003 7.00535e-21 4.7899e-19)
(0.003 -3.37281e-20 4.7968e-19)
(0.003 -6.15074e-20 4.78231e-19)
(0.003 -9.8105e-20 3.4188e-19)
(0.003 -1.79302e-19 1.07725e-19)
(0.003 -9.71191e-20 -2.36292e-19)
(0.003 2.33152e-20 -3.59624e-19)
(0.003 -1.17533e-19 -2.31092e-19)
(0.003 -1.24906e-19 -3.12553e-19)
(0.003 -8.95555e-20 -4.10442e-19)
(0.003 -1.7536e-19 1.01662e-18)
(0.003 -1.48643e-19 1.68876e-18)
(0.003 -1.12937e-19 1.97464e-18)
(0.003 -1.77054e-19 2.01636e-18)
(0.003 -1.24502e-19 2.12072e-18)
(0.003 1.35456e-20 2.10464e-18)
(0.003 -8.2426e-21 2.09658e-18)
(0.003 -4.57681e-20 2.0783e-18)
(0.003 6.02513e-20 1.97209e-18)
(0.003 2.19832e-19 1.79191e-18)
(0.003 1.23863e-19 1.70397e-18)
(0.003 2.43615e-20 1.72688e-18)
(0.003 -8.58429e-20 1.65842e-18)
(0.003 2.94835e-20 1.56283e-18)
(0.003 2.88172e-19 1.42726e-18)
(0.003 2.68688e-19 1.35039e-18)
(0.003 1.24253e-19 1.19526e-18)
(0.003 6.10849e-20 1.08215e-18)
(0.003 1.99011e-19 1.08389e-18)
(0.003 2.62332e-19 1.02848e-18)
(0.003 2.6072e-19 1.19438e-18)
(0.003 -3.80799e-22 1.11161e-18)
(0.003 -2.24185e-19 1.04183e-18)
(0.003 -1.62995e-19 9.07946e-19)
(0.003 -2.64235e-20 8.69799e-19)
(0.003 -2.41735e-20 8.5485e-19)
(0.003 6.22371e-20 7.41759e-19)
(0.003 1.37004e-19 7.84557e-19)
(0.003 7.35309e-20 6.51573e-19)
(0.003 1.05015e-19 5.00848e-19)
(0.003 5.80115e-20 4.59457e-19)
(0.003 -1.0135e-19 4.39802e-19)
(0.003 -1.5925e-19 4.34407e-19)
(0.003 -2.11154e-19 4.54856e-19)
(0.003 -3.58195e-19 2.60056e-19)
(0.003 -2.34665e-19 -1.02598e-19)
(0.003 9.67562e-20 -2.81002e-19)
(0.003 1.23908e-19 -1.89063e-19)
(0.003 -1.008e-20 -3.66381e-19)
(0.003 -5.66565e-20 -5.07332e-19)
(0.003 -2.11567e-19 9.49302e-19)
(0.003 -2.15141e-19 1.71171e-18)
(0.003 -1.79135e-19 2.07017e-18)
(0.003 -3.33874e-20 2.05739e-18)
(0.003 4.53663e-20 2.01967e-18)
(0.003 -3.12712e-20 2.104e-18)
(0.003 -1.63828e-19 2.09492e-18)
(0.003 -1.98162e-19 2.05024e-18)
(0.003 7.26249e-21 2.02826e-18)
(0.003 1.28016e-19 1.93759e-18)
(0.003 1.42176e-19 1.73411e-18)
(0.003 3.91422e-20 1.68512e-18)
(0.003 8.36853e-20 1.64942e-18)
(0.003 7.996e-20 1.54749e-18)
(0.003 1.51943e-19 1.54168e-18)
(0.003 1.46405e-19 1.43427e-18)
(0.003 9.25019e-20 1.21888e-18)
(0.003 1.7106e-19 9.72474e-19)
(0.003 2.73966e-19 9.70783e-19)
(0.003 2.80534e-19 1.03278e-18)
(0.003 2.33166e-20 1.16892e-18)
(0.003 -2.37148e-19 1.20333e-18)
(0.003 -2.209e-19 1.02467e-18)
(0.003 -6.43213e-20 8.54791e-19)
(0.003 -4.49682e-20 8.94008e-19)
(0.003 7.0811e-20 9.12478e-19)
(0.003 1.20965e-19 8.78088e-19)
(0.003 3.60959e-20 7.36562e-19)
(0.003 9.36219e-20 6.07481e-19)
(0.003 1.01284e-19 5.18822e-19)
(0.003 9.68511e-20 4.37755e-19)
(0.003 -1.21938e-19 3.74908e-19)
(0.003 -1.72145e-19 4.02317e-19)
(0.003 -8.84596e-20 4.34181e-19)
(0.003 -1.45422e-19 2.64901e-19)
(0.003 -1.58059e-19 1.00281e-19)
(0.003 -1.22394e-19 -1.53489e-20)
(0.003 2.68159e-20 -1.11065e-19)
(0.003 1.41153e-19 -3.97691e-19)
(0.003 2.06089e-19 -4.1822e-19)
(0.003 -1.31256e-19 9.60452e-19)
(0.003 -2.05353e-19 1.6417e-18)
(0.003 -2.10985e-19 1.93796e-18)
(0.003 -5.37847e-20 2.08979e-18)
(0.003 1.82241e-20 2.16198e-18)
(0.003 -1.80271e-19 2.11867e-18)
(0.003 -2.40034e-19 2.09522e-18)
(0.003 -1.1274e-19 2.12956e-18)
(0.003 6.80151e-20 2.0533e-18)
(0.003 5.3988e-20 1.90026e-18)
(0.003 4.20849e-20 1.74883e-18)
(0.003 1.22072e-19 1.71745e-18)
(0.003 1.37303e-19 1.66384e-18)
(0.003 1.50126e-19 1.57586e-18)
(0.003 4.29911e-20 1.55502e-18)
(0.003 -2.49231e-20 1.47015e-18)
(0.003 4.31438e-20 1.29315e-18)
(0.003 2.26288e-19 1.0638e-18)
(0.003 3.22386e-19 1.06467e-18)
(0.003 1.49317e-19 1.03903e-18)
(0.003 -1.25837e-19 1.07154e-18)
(0.003 -1.85497e-19 1.03043e-18)
(0.003 -7.85548e-20 1.06083e-18)
(0.003 -1.67646e-20 9.84877e-19)
(0.003 -9.86277e-20 8.33237e-19)
(0.003 -8.23563e-20 8.22713e-19)
(0.003 1.23771e-19 8.53868e-19)
(0.003 1.83796e-19 7.55602e-19)
(0.003 1.54072e-19 5.67887e-19)
(0.003 1.38384e-20 5.20563e-19)
(0.003 -3.67739e-20 4.69323e-19)
(0.003 -3.40336e-20 2.82804e-19)
(0.003 -4.09404e-20 3.36679e-19)
(0.003 -3.14123e-20 4.86423e-19)
(0.003 3.25874e-20 3.0226e-19)
(0.003 -9.15846e-21 1.82195e-19)
(0.003 -1.5369e-20 4.61721e-20)
(0.003 -2.61215e-21 -4.62102e-20)
(0.003 1.33714e-19 -2.31977e-19)
(0.003 2.41895e-19 -2.88273e-19)
(0.003 5.81073e-20 9.89173e-19)
(0.003 2.19054e-20 1.67053e-18)
(0.003 -5.80345e-20 1.84641e-18)
(0.003 -1.78494e-19 1.94778e-18)
(0.003 -2.33049e-19 2.11936e-18)
(0.003 -2.21203e-19 2.09874e-18)
(0.003 -7.56874e-20 2.08824e-18)
(0.003 -7.99884e-21 2.1334e-18)
(0.003 -4.75772e-20 2.11954e-18)
(0.003 3.0444e-20 1.99833e-18)
(0.003 1.38985e-19 1.81971e-18)
(0.003 1.39197e-19 1.78073e-18)
(0.003 1.8344e-19 1.62111e-18)
(0.003 2.4348e-19 1.62954e-18)
(0.003 2.23286e-20 1.62469e-18)
(0.003 -1.46446e-19 1.49812e-18)
(0.003 -1.79208e-19 1.25487e-18)
(0.003 -1.31002e-19 1.02584e-18)
(0.003 6.3666e-20 1.12428e-18)
(0.003 3.96181e-20 1.02331e-18)
(0.003 -1.03043e-19 1.01239e-18)
(0.003 -7.80671e-20 1.08524e-18)
(0.003 -2.47238e-20 1.1557e-18)
(0.003 8.80676e-20 1.01539e-18)
(0.003 1.36817e-19 7.78469e-19)
(0.003 -1.07314e-20 7.24849e-19)
(0.003 1.67375e-20 8.82862e-19)
(0.003 9.01156e-20 8.81585e-19)
(0.003 8.26102e-20 6.39235e-19)
(0.003 -2.61555e-20 3.95023e-19)
(0.003 -7.48864e-20 4.56748e-19)
(0.003 -8.95209e-21 3.66396e-19)
(0.003 4.19602e-20 3.06855e-19)
(0.003 3.8427e-20 4.10551e-19)
(0.003 1.11393e-19 3.81717e-19)
(0.003 1.35141e-19 2.69352e-19)
(0.003 6.27586e-20 7.37316e-20)
(0.003 -3.32208e-20 -2.08482e-19)
(0.003 -2.77808e-20 -4.24922e-19)
(0.003 2.45e-20 -3.98756e-19)
(0.003 2.75898e-19 9.53615e-19)
(0.003 2.33305e-19 1.54845e-18)
(0.003 -7.55877e-21 1.71984e-18)
(0.003 -1.38591e-19 1.88739e-18)
(0.003 -1.18322e-19 2.08923e-18)
(0.003 -9.31802e-20 2.09061e-18)
(0.003 -2.28079e-20 2.0635e-18)
(0.003 -8.29226e-20 2.08503e-18)
(0.003 -1.63409e-19 2.07872e-18)
(0.003 -5.48639e-20 2.09576e-18)
(0.003 1.27485e-19 1.98765e-18)
(0.003 1.24142e-19 1.88152e-18)
(0.003 1.82726e-19 1.7248e-18)
(0.003 2.48719e-19 1.63452e-18)
(0.003 -4.37081e-20 1.58162e-18)
(0.003 -1.91667e-19 1.42272e-18)
(0.003 -1.58707e-19 1.19869e-18)
(0.003 -1.32442e-19 1.00653e-18)
(0.003 -1.55806e-19 1.16034e-18)
(0.003 -1.19571e-19 1.12088e-18)
(0.003 -1.10289e-19 1.05455e-18)
(0.003 -1.67669e-19 1.04632e-18)
(0.003 -3.40698e-20 1.09023e-18)
(0.003 9.06884e-20 1.01642e-18)
(0.003 2.31628e-19 9.02148e-19)
(0.003 1.91974e-19 7.42783e-19)
(0.003 -5.68789e-20 7.22635e-19)
(0.003 -3.36725e-20 7.76471e-19)
(0.003 -2.02498e-21 6.74662e-19)
(0.003 -2.9619e-20 4.69453e-19)
(0.003 -4.39345e-22 4.73465e-19)
(0.003 5.74607e-20 3.39312e-19)
(0.003 2.00162e-20 3.29143e-19)
(0.003 5.06229e-20 3.99053e-19)
(0.003 1.89378e-19 4.23051e-19)
(0.003 2.13279e-19 3.20868e-19)
(0.003 1.25042e-20 -2.22319e-20)
(0.003 -4.25607e-20 -3.20844e-19)
(0.003 -1.00391e-19 -3.823e-19)
(0.003 -1.65688e-19 -2.60726e-19)
(0.003 3.02633e-19 9.62973e-19)
(0.003 2.95964e-19 1.61419e-18)
(0.003 3.87161e-20 1.77316e-18)
(0.003 2.58121e-20 1.80058e-18)
(0.003 5.31677e-20 2.03009e-18)
(0.003 6.39676e-20 2.06784e-18)
(0.003 -2.74118e-20 1.99203e-18)
(0.003 -1.11214e-19 2.01974e-18)
(0.003 -1.30137e-19 2.07074e-18)
(0.003 -1.81658e-19 2.10981e-18)
(0.003 -6.62494e-20 2.08083e-18)
(0.003 5.98932e-20 1.88132e-18)
(0.003 9.48963e-20 1.77143e-18)
(0.003 -6.49304e-20 1.73374e-18)
(0.003 -1.6167e-19 1.54519e-18)
(0.003 -1.97727e-19 1.42812e-18)
(0.003 -2.23059e-19 1.19637e-18)
(0.003 -1.95234e-19 1.0599e-18)
(0.003 -2.44554e-19 1.14244e-18)
(0.003 -1.08829e-19 1.10842e-18)
(0.003 -2.39604e-20 1.07866e-18)
(0.003 5.90926e-21 1.04083e-18)
(0.003 5.31087e-20 1.06133e-18)
(0.003 6.72347e-20 9.63852e-19)
(0.003 1.39208e-19 8.61491e-19)
(0.003 2.33832e-19 7.83351e-19)
(0.003 4.28716e-20 7.44415e-19)
(0.003 7.54496e-21 8.10971e-19)
(0.003 -2.21458e-20 6.92856e-19)
(0.003 -6.05548e-20 4.70577e-19)
(0.003 3.47108e-20 4.49931e-19)
(0.003 1.56433e-19 3.79163e-19)
(0.003 -1.09123e-20 2.63338e-19)
(0.003 -6.13977e-21 3.47462e-19)
(0.003 2.29805e-19 4.9877e-19)
(0.003 1.74663e-19 2.63438e-19)
(0.003 1.60223e-19 -2.32891e-19)
(0.003 4.56002e-20 -4.04439e-19)
(0.003 -3.04675e-21 -2.49126e-19)
(0.003 2.02733e-20 -1.30407e-19)
(0.003 -1.67384e-20 1.05352e-18)
(0.003 3.99574e-20 1.70433e-18)
(0.003 1.54472e-19 1.79902e-18)
(0.003 1.20053e-19 1.8109e-18)
(0.003 -2.00038e-20 1.89961e-18)
(0.003 9.35523e-20 2.08104e-18)
(0.003 7.13871e-20 2.00829e-18)
(0.003 1.21028e-20 1.88189e-18)
(0.003 -1.11548e-19 2.01213e-18)
(0.003 -1.64168e-19 2.04801e-18)
(0.003 -1.11068e-19 2.02199e-18)
(0.003 -1.13591e-19 1.94075e-18)
(0.003 -2.52824e-19 1.84629e-18)
(0.003 -2.42294e-19 1.60579e-18)
(0.003 -1.08165e-19 1.42985e-18)
(0.003 -1.34661e-19 1.29223e-18)
(0.003 -2.11947e-19 1.14928e-18)
(0.003 -2.26818e-19 1.06798e-18)
(0.003 -2.49347e-19 1.14798e-18)
(0.003 -1.91066e-19 1.17947e-18)
(0.003 -8.24611e-20 1.1287e-18)
(0.003 1.52514e-19 1.07781e-18)
(0.003 1.24689e-19 1.02937e-18)
(0.003 3.71074e-20 1.012e-18)
(0.003 1.41077e-19 9.77951e-19)
(0.003 8.55953e-20 8.88407e-19)