/*--------------------------------*- C++ -*----------------------------------*\
| =========                 |                                                 |
| \\      /  F ield         | OpenFOAM: The Open Source CFD Toolbox           |
|  \\    /   O peration     | Version:  v2012                                 |
|   \\  /    A nd           | Website:  www.openfoam.com                      |
|    \\/     M anipulation  |                                                 |
\*---------------------------------------------------------------------------*/
FoamFile
{
    version     2.0;
    format      ascii;
    class       volScalarField;
    location    "240/heater";
    object      T;
}
// * * * * * * * * * * * * * * * * * * * * * * * * * * * * * * * * * * * * * //

dimensions      [0 0 0 1 0 0 0];


internalField   nonuniform List<scalar> 
80
(
692.64509
694.44368
697.9656
702.99288
684.52016
686.61841
690.80826
696.82197
667.29527
670.0367
675.61649
683.83874
639.07048
642.563
650.08452
662.2208
343.63056
340.76107
340.81622
343.7451
415.85325
412.29718
412.54496
416.43437
476.50058
473.41957
474.10382
478.1615
527.01397
524.94109
526.6819
531.35832
567.72108
567.4536
571.56396
578.81251
597.68654
600.76372
609.09261
626.01101
343.62617
340.77086
340.82345
343.72504
415.82985
412.30103
412.5418
416.39599
476.45961
473.41631
474.09262
478.10537
527.06322
524.96066
526.67658
531.29888
567.79717
567.48077
571.54819
578.72965
597.73441
600.78509
609.07389
625.93624
639.23808
642.65059
650.05634
662.05106
667.42145
670.13026
675.58472
683.65275
684.62424
686.70273
690.78968
696.68213
692.72672
694.49703
697.96427
702.91203
)
;

boundaryField
{
    minY
    {
        type            fixedValue;
        value           uniform 300;
    }
    minZ
    {
        type            zeroGradient;
    }
    maxZ
    {
        type            zeroGradient;
    }
    heater_to_topAir
    {
        type            compressible::turbulentTemperatureCoupledBaffleMixed;
        refValue        nonuniform List<scalar> 
40
(
477.91938
478.47142
477.16694
474.20693
452.1527
447.04001
440.58777
433.75273
462.03647
458.09628
451.15517
441.87879
474.70717
474.85515
473.32249
471.68333
473.54774
471.78331
469.96501
470.46048
473.40156
471.61205
469.7258
470.09848
474.39822
474.43372
472.81561
471.19141
461.83523
457.84474
450.84422
441.57739
452.09009
446.9693
440.45354
433.50957
477.84075
478.39274
477.07414
474.07948
)
;
        refGradient     uniform 0;
        valueFraction   nonuniform List<scalar> 
40
(
0.00032132529
0.00032132529
0.00032132529
0.00032132529
0.00032132529
0.00032132529
0.00032132529
0.00032132529
0.00032132529
0.00032132529
0.00032132529
0.00032132529
0.00032132529
0.00032132529
0.00032132529
0.00032132529
0.00032132529
0.00032132529
0.00032132529
0.00032132529
0.00032132529
0.00032132529
0.00032132529
0.00032132529
0.00032132529
0.00032132529
0.00032132529
0.00032132529
0.00032132529
0.00032132529
0.00032132529
0.00032132529
0.00032132529
0.00032132529
0.00032132529
0.00032132529
0.00032132529
0.00032132529
0.00032132529
0.00032132529
)
;
        value           nonuniform List<scalar> 
40
(
692.56918
694.36731
697.88755
702.91206
684.43878
686.53465
690.72094
696.73032
667.22299
669.9622
675.53782
683.75422
639.01197
642.50332
650.02174
662.15331
597.64186
600.71737
609.0428
625.95555
597.68964
600.73868
609.02402
625.88071
639.17948
642.59082
649.9935
661.98356
667.3493
670.05588
675.50619
683.56843
684.54324
686.61932
690.70267
696.59079
692.65119
694.42102
697.88658
702.83162
)
;
        Tnbr            T;
        thicknessLayers List<scalar> 0();
        kappaLayers     List<scalar> 0();
        kappaMethod     solidThermo;
        kappa           none;
        alphaAni        none;
        alpha           none;
        field           T;
    }
    heater_to_rightSolid
    {
        type            compressible::turbulentTemperatureCoupledBaffleMixed;
        refValue        nonuniform List<scalar> 10(709.17878 704.18739 694.04217 678.72534 660.44071 660.28796 678.39375 693.70413 703.91698 708.98836);
        refGradient     uniform 0;
        valueFraction   nonuniform List<scalar> 10(0.49999997 0.49999997 0.49999997 0.49999997 0.49999997 0.49999997 0.49999997 0.49999997 0.49999997 0.49999997);
        value           nonuniform List<scalar> 10(706.08217 700.50112 688.93707 670.46993 643.22312 643.10937 670.21932 688.67517 700.29616 705.94675);
        Tnbr            T;
        thicknessLayers List<scalar> 0();
        kappaLayers     List<scalar> 0();
        kappaMethod     solidThermo;
        kappa           none;
        alphaAni        none;
        alpha           none;
        field           T;
    }
    heater_to_leftSolid
    {
        type            compressible::turbulentTemperatureCoupledBaffleMixed;
        refValue        nonuniform List<scalar> 10(791.59712 791.5726 791.45644 791.22793 790.94158 790.89317 791.05505 791.29846 791.49938 791.62425);
        refGradient     uniform 0;
        valueFraction   nonuniform List<scalar> 10(2.0832898e-05 2.0832898e-05 2.0832898e-05 2.0832898e-05 2.0832898e-05 2.0832898e-05 2.0832898e-05 2.0832898e-05 2.0832898e-05 2.0832898e-05);
        value           nonuniform List<scalar> 10(692.64024 684.51567 667.29153 639.06795 597.68577 597.73361 639.23561 667.41794 684.62018 692.72229);
        Tnbr            T;
        thicknessLayers List<scalar> 1(0.001);
        kappaLayers     List<scalar> 1(0.0005);
        kappaMethod     solidThermo;
        kappa           none;
        alphaAni        none;
        alpha           none;
        field           T;
    }
    heater_to_bottomWater
    {
        type            compressible::turbulentTemperatureCoupledBaffleMixed;
        refValue        nonuniform List<scalar> 
92
(
962.83979
960.28816
958.1136
957.23428
965.71451
955.37328
956.7029
958.9093
961.63583
952.16076
955.44069
957.93763
951.63527
949.42961
948.60012
958.63831
950.59389
951.70357
951.37002
953.30531
955.98926
952.45499
948.10654
951.97436
954.42737
951.9261
951.04313
953.05025
943.47559
943.47559
947.22786
947.22786
949.70215
949.70215
952.82108
952.82108
963.35103
953.7447
961.86825
955.84541
957.09718
953.02015
953.7104
950.32055
947.01948
946.39486
960.79123
956.22863
955.93749
955.74167
950.90168
955.59394
953.4502
962.28388
957.39938
954.73453
951.29374
952.82048
945.46163
961.24887
956.07947
950.70123
947.1791
948.89953
959.59887
960.60085
955.98922
956.6349
943.52199
954.26011
952.55022
957.33582
952.38464
950.77096
936.71595
949.97799
957.33582
952.38464
950.77096
949.97799
960.99575
958.94045
954.53393
951.88808
962.26008
959.27893
953.82147
954.80062
959.26817
956.46495
956.31873
957.16401
)
;
        refGradient     uniform 0;
        valueFraction   nonuniform List<scalar> 
92
(
0.0075140686
0.0075140686
0.0075140686
0.0075140686
0.0075140686
0.0075140686
0.0075140686
0.0075140686
0.0075140686
0.0075140686
0.0075140686
0.0075140686
0.0075140686
0.0075140686
0.0075140686
0.0075140686
0.0075140686
0.0075140686
0.0075140686
0.0075140686
0.0075140686
0.0075140686
0.0075140686
0.0075140686
0.0075140686
0.0075140686
0.0075140686
0.0075140686
0.0075140686
0.0075140686
0.0075140686
0.0075140686
0.0075140686
0.0075140686
0.0075140686
0.0075140686
0.0075140679
0.0075140679
0.0075140679
0.0075140679
0.0075140679
0.0075140679
0.0075140679
0.0075140679
0.0075140679
0.0075140679
0.0075140679
0.0075140686
0.0075140686
0.0075140686
0.0075140679
0.0075140686
0.0075140679
0.0075140686
0.0075140686
0.0075140686
0.0075140679
0.0075140686
0.0075140679
0.0075140686
0.0075140686
0.0075140686
0.0075140679
0.0075140686
0.0075140679
0.0075140686
0.0075140686
0.0075140686
0.0075140679
0.0075140686
0.0075140679
0.0075140686
0.0075140686
0.0075140686
0.0075140679
0.0075140686
0.0075140686
0.0075140686
0.0075140686
0.0075140686
0.0075140686
0.0075140686
0.0075140686
0.0075140686
0.0075140686
0.0075140686
0.0075140686
0.0075140686
0.0075140686
0.0075140686
0.0075140686
0.0075140686
)
;
        value           nonuniform List<scalar> 
92
(
694.66849
696.43433
699.91332
704.89601
686.62641
688.63112
692.79934
698.78425
669.50068
672.15025
677.71261
685.89162
348.19871
345.3342
345.38271
348.36501
419.87004
416.349
416.5924
420.46715
480.10133
477.01686
477.66327
481.71955
530.22253
528.14635
529.86741
534.52377
641.35215
570.54065
644.84653
570.30323
652.32993
574.40119
664.39817
581.61864
348.28674
348.32824
419.95475
420.48624
480.10966
481.72741
530.21715
534.50326
570.56727
581.57035
348.26312
348.22884
345.39282
345.44355
348.28699
348.32225
419.86827
419.93465
416.39561
416.61456
420.41396
420.42543
479.98148
480.10011
477.04084
477.67165
481.62783
481.64076
530.31019
530.31772
528.19627
529.90413
534.39318
534.47387
570.68421
570.72017
570.3689
574.39356
581.41539
581.51505
641.6227
644.97227
652.31008
664.20843
669.62134
672.29428
677.6745
685.66181
686.70418
688.74455
692.7596
698.61492
694.72309
696.45895
699.8989
704.81567
)
;
        Tnbr            T;
        thicknessLayers List<scalar> 0();
        kappaLayers     List<scalar> 0();
        kappaMethod     solidThermo;
        kappa           none;
        alphaAni        none;
        alpha           none;
        field           T;
    }
}


// ************************************************************************* //
