/*--------------------------------*- C++ -*----------------------------------*\
| =========                 |                                                 |
| \\      /  F ield         | OpenFOAM: The Open Source CFD Toolbox           |
|  \\    /   O peration     | Version:  v2012                                 |
|   \\  /    A nd           | Website:  www.openfoam.com                      |
|    \\/     M anipulation  |                                                 |
\*---------------------------------------------------------------------------*/
FoamFile
{
    version     2.0;
    format      ascii;
    class       volScalarField;
    location    "17";
    object      p;
}
// * * * * * * * * * * * * * * * * * * * * * * * * * * * * * * * * * * * * * //

dimensions      [0 2 -2 0 0 0 0];


internalField   nonuniform List<scalar> 
64000
(
9.97724e-22
-2.72934e-21
-1.6511e-21
-3.53229e-21
-5.97905e-21
-9.44366e-22
-1.96617e-21
-1.27924e-21
-2.88711e-21
-2.8098e-21
-1.76346e-21
-3.24315e-21
-2.94021e-21
-5.37951e-21
-2.56533e-21
-4.10771e-21
-4.64181e-22
-1.10483e-22
1.93794e-21
2.00704e-21
-8.0239e-22
-6.03699e-21
-2.31767e-21
7.1631e-22
-4.96904e-21
-2.46474e-21
3.94534e-22
-1.23196e-21
-1.36487e-21
-1.88688e-21
-3.13955e-21
-2.64206e-22
8.45931e-22
-2.79113e-21
-1.11477e-21
-1.35572e-21
-6.31363e-22
1.63883e-21
1.4439e-21
1.12842e-21
-5.6708e-21
-6.6375e-21
-8.18158e-21
-5.39321e-21
-6.8354e-21
-8.10841e-21
-4.39472e-21
-1.31989e-21
-3.02563e-21
-4.75074e-21
-2.95414e-21
-5.4745e-21
-3.50287e-21
-3.08878e-21
-4.03319e-21
-6.38585e-21
-3.62443e-21
1.6972e-21
5.09486e-22
-3.54181e-22
2.4903e-21
-2.74921e-21
-5.98039e-21
-6.82889e-21
-6.20544e-21
-1.0614e-21
-5.23693e-22
-2.78988e-21
-1.33477e-21
5.4374e-22
1.90152e-21
-3.78279e-22
-4.1816e-21
-2.36059e-21
-4.14088e-22
-1.09642e-21
7.45017e-22
1.56641e-21
5.2517e-23
4.78591e-22
-4.69349e-21
-5.03228e-21
-1.1358e-20
-7.74591e-21
-5.72194e-21
-7.55073e-21
-4.97112e-21
-4.75063e-21
-5.52459e-21
-4.12282e-21
-3.17254e-21
-5.72297e-21
-3.69813e-21
-4.34725e-21
-1.94166e-21
-1.87123e-21
-6.57818e-21
-2.943e-21
-1.86031e-21
-3.86909e-22
1.18076e-21
-1.2614e-21
-6.56908e-21
-5.64101e-21
-2.33094e-21
-2.66679e-21
-3.28617e-21
-3.04706e-21
-2.95549e-23
-1.05974e-21
8.47416e-22
-9.1129e-22
-3.47744e-21
-1.36237e-21
4.1488e-22
2.14684e-22
9.81244e-22
5.46574e-22
-7.3051e-22
5.06063e-22
-7.42517e-21
-7.3691e-21
-8.21242e-21
-1.07213e-20
-9.27823e-21
-9.90425e-21
-3.95514e-21
-3.01692e-21
-6.95509e-21
-5.64539e-21
-4.95028e-21
-5.98599e-21
-6.13516e-21
-3.20176e-21
-3.47053e-21
-4.80214e-21
-3.77942e-21
-1.50373e-21
-1.60311e-21
2.99946e-22
1.9239e-21
-1.38691e-21
-9.40449e-21
-6.76593e-21
-3.41563e-21
-3.91112e-21
-1.71929e-21
3.1757e-22
-1.62174e-21
-2.91309e-21
1.90377e-21
3.27154e-22
-4.01892e-21
-3.29065e-22
1.63973e-21
4.98369e-22
1.08069e-22
-1.00087e-21
-2.45502e-21
-7.78701e-22
-1.44395e-20
-8.33686e-21
-9.02987e-21
-8.17755e-21
-9.87619e-21
-1.03717e-20
-4.96693e-21
-1.02918e-21
-5.51808e-21
-7.55715e-21
-5.65107e-21
-6.03269e-21
-4.99541e-21
-2.24395e-21
-6.6912e-21
-8.0604e-21
-3.24298e-21
1.67486e-21
2.68105e-22
-1.12329e-21
2.21414e-21
-3.74781e-21
-1.10741e-20
-6.55294e-21
-2.65981e-21
-2.18271e-21
-3.95789e-22
-1.08461e-21
-3.74563e-21
-3.12662e-22
1.75084e-21
-6.14621e-23
-2.26156e-21
1.19855e-21
-1.18491e-21
5.31103e-22
-1.26226e-21
-9.14404e-22
-2.91307e-21
-2.23444e-21
-1.10794e-20
-9.48831e-21
-8.68589e-21
-1.03529e-20
-8.67822e-21
-7.92569e-21
-4.56261e-21
-6.77996e-21
-7.33213e-21
-7.08379e-21
-5.06301e-21
-6.64109e-21
-6.47377e-21
-3.11388e-21
-4.7152e-21
-6.15919e-21
-3.68419e-21
2.83406e-21
1.97206e-21
-4.03062e-22
1.70582e-21
-4.34677e-21
-1.08626e-20
-7.4978e-21
-3.45031e-21
-1.91498e-21
-2.37206e-21
3.45982e-23
-1.27405e-21
-2.59511e-21
-2.22638e-21
-1.75123e-21
-1.57055e-21
2.09643e-22
-1.20406e-21
4.25789e-22
-2.02757e-21
-2.62926e-21
-1.62838e-21
-5.89613e-22
-1.19709e-20
-1.29567e-20
-7.28644e-21
-9.44012e-21
-9.08218e-21
-9.16457e-21
-5.28928e-21
-7.18482e-21
-8.10072e-21
-5.76601e-21
-5.15827e-21
-7.10519e-21
-5.31256e-21
-5.07221e-21
-5.57836e-21
-6.165e-21
-1.8578e-21
2.86695e-21
4.29411e-21
1.31411e-21
-1.86599e-21
-6.49303e-21
-1.27176e-20
-7.7288e-21
-3.15107e-21
-2.30611e-21
-1.55478e-21
1.4504e-21
-6.32158e-23
-1.94831e-21
-3.9467e-21
-1.41525e-21
-9.84925e-22
-2.86901e-21
-1.07947e-21
-7.29926e-22
-1.45821e-21
-2.173e-21
-4.81329e-21
-1.57666e-21
-1.14562e-20
-1.14547e-20
-1.03227e-20
-7.47389e-21
-1.13616e-20
-7.87945e-21
-5.40789e-21
-1.19656e-20
-9.73985e-21
-6.08807e-21
-6.20744e-21
-8.09293e-21
-7.71641e-21
-7.4619e-21
-5.07533e-21
-6.27501e-21
-1.29883e-21
1.85825e-21
3.01423e-21
1.36113e-21
-2.60287e-21
-7.43594e-21
-9.70989e-21
-5.40003e-21
-3.10514e-21
-4.16211e-21
-1.26901e-21
1.3566e-21
1.07006e-21
-1.5392e-21
-4.94677e-21
-2.4528e-21
-5.95909e-22
-2.78399e-21
-3.06316e-21
-1.12687e-21
-3.22545e-21
-4.01592e-21
-1.33484e-21
-1.14215e-22
-1.7473e-20
-1.28551e-20
-1.12975e-20
-1.07844e-20
-9.07057e-21
-9.3006e-21
-8.44087e-21
-8.50214e-21
-9.22066e-21
-1.12765e-20
-5.70561e-21
-7.52335e-21
-4.77271e-21
-9.07571e-21
-6.37341e-21
-5.50034e-21
-2.54961e-21
2.04524e-21
-8.88953e-22
-1.16955e-21
-2.73687e-21
-6.9685e-21
-7.13652e-21
-7.07305e-21
-3.50311e-22
-1.59792e-21
-3.22972e-21
1.1185e-23
1.57696e-21
1.25103e-22
-2.64894e-23
-1.50503e-21
-5.66424e-21
-2.83094e-21
-4.63446e-21
-2.01419e-21
-1.86409e-21
-1.52971e-21
3.06629e-22
-4.68842e-22
-7.66176e-21
-1.03579e-20
-1.19596e-20
-1.00251e-20
-1.01204e-20
-1.16134e-20
-8.72816e-21
-9.37821e-21
-9.72244e-21
-9.87474e-21
-7.97494e-21
-5.40463e-21
-5.14654e-21
-7.22386e-21
-7.63328e-21
-5.28494e-21
-4.6382e-21
-1.08866e-21
2.46127e-21
-3.49568e-22
-2.85987e-21
-4.40069e-21
-8.2161e-21
-6.0295e-21
-1.43564e-21
-1.02168e-21
-1.43726e-21
3.26145e-22
-1.00361e-21
-1.62025e-21
-9.65608e-22
-7.17209e-22
-1.35133e-21
-2.08189e-21
-4.07947e-21
-5.1741e-21
-1.13159e-21
5.02533e-22
1.12099e-22
-8.21864e-22
-6.21982e-21
-1.10463e-20
-1.19317e-20
-1.32264e-20
-9.13653e-21
-1.08369e-20
-1.26542e-20
-8.66664e-21
-9.60156e-21
-1.27902e-20
-9.27047e-21
-4.0794e-21
-5.11665e-21
-5.22629e-21
-5.95457e-21
-7.59987e-21
-6.91315e-21
1.52095e-21
5.49355e-21
2.71386e-22
-4.8917e-21
-9.74959e-21
-5.77231e-21
-6.26569e-21
-2.76168e-21
-1.48677e-21
9.7582e-22
1.26435e-21
-1.99853e-21
-3.77915e-21
-2.39603e-21
4.14e-22
-1.31493e-21
-1.07436e-21
-3.24124e-21
-5.90839e-21
-1.82674e-21
-9.71869e-22
-1.51739e-21
-5.65697e-22
-9.24131e-21
-1.25143e-20
-1.32785e-20
-1.14793e-20
-1.05775e-20
-1.38348e-20
-1.07594e-20
-1.07794e-20
-6.88043e-21
-1.06993e-20
-1.31893e-20
-5.51594e-21
-4.62336e-21
-7.02087e-21
-5.90214e-21
-6.87199e-21
-4.81304e-21
2.72145e-21
3.66311e-21
-8.30973e-22
-4.57967e-21
-8.43158e-21
-6.62771e-21
-6.42278e-21
-5.07443e-21
9.77465e-22
3.2705e-21
-1.71394e-22
-4.33212e-21
-1.56707e-21
-9.09296e-22
-1.17435e-21
-4.77218e-22
-4.87288e-22
-4.42677e-21
-2.31213e-21
-1.32832e-21
-1.71294e-21
-2.43101e-21
-2.50408e-21
-1.50658e-20
-1.36853e-20
-1.26923e-20
-1.12255e-20
-1.20545e-20
-1.28624e-20
-1.31007e-20
-1.17378e-20
-1.09671e-20
-1.09468e-20
-1.01863e-20
-4.06963e-21
-6.0423e-21
-9.38143e-21
-5.63805e-21
-5.10217e-21
-2.99106e-21
6.399e-22
-5.77506e-22
-2.00782e-21
-2.91439e-21
-4.72205e-21
-5.9678e-21
-5.32532e-21
-2.74519e-21
6.72286e-22
2.00002e-21
-1.6864e-21
-1.64688e-21
-3.46978e-22
-3.72379e-21
-1.12712e-21
4.23809e-22
-2.38636e-21
-3.0089e-21
-1.77358e-21
-2.97721e-21
-3.14364e-21
-2.0808e-21
-1.62675e-21
-1.72607e-20
-1.58243e-20
-1.2456e-20
-1.26119e-20
-9.82021e-21
-1.16501e-20
-1.20422e-20
-8.40961e-21
-1.10759e-20
-1.42774e-20
-8.75882e-21
-3.6518e-21
-8.36771e-21
-1.27495e-20
-6.508e-21
-5.12873e-21
-1.28262e-21
2.73579e-21
-5.13048e-23
-1.91825e-21
-4.80137e-21
-6.33314e-21
-6.08252e-21
-8.09531e-21
-1.45441e-21
1.71297e-22
5.74615e-22
-1.29797e-21
3.55764e-22
3.37953e-21
-5.21617e-22
-2.86022e-21
-1.92612e-21
-1.3865e-21
-1.50859e-21
-2.52992e-21
-2.97678e-21
-3.46661e-21
-2.12674e-21
-1.74876e-21
-1.13179e-20
-1.80884e-20
-1.66078e-20
-9.67522e-21
-7.94712e-21
-1.11125e-20
-1.47023e-20
-1.24703e-20
-1.05235e-20
-1.20227e-20
-7.67891e-21
-7.18197e-21
-8.6731e-21
-8.55084e-21
-3.57574e-21
-4.75941e-21
-2.47607e-21
-1.71393e-21
-2.56924e-21
-9.71662e-22
-7.25757e-21
-3.54921e-21
-4.35853e-21
-6.87508e-21
5.89621e-22
-1.88849e-21
-2.83194e-21
-6.73958e-22
1.61061e-21
1.80874e-21
-9.96493e-23
-8.94483e-22
-2.13449e-21
-1.48176e-21
-1.32673e-21
-3.1588e-21
-3.03711e-21
-3.88653e-21
-2.65455e-21
-2.25835e-22
-1.23849e-20
-1.24931e-20
-1.56554e-20
-1.13521e-20
-1.21358e-20
-1.04771e-20
-1.31897e-20
-1.34554e-20
-9.79889e-21
-6.67963e-21
-1.01036e-20
-9.54727e-21
-6.45272e-21
-6.3208e-21
-6.29308e-21
-6.16827e-21
-1.93508e-21
-2.23647e-21
-1.66451e-21
-3.73336e-21
-6.72511e-21
-4.56075e-21
-3.50515e-21
-2.60158e-21
-2.02684e-22
-2.63034e-21
-3.56513e-21
-1.95901e-21
2.91311e-21
1.90084e-21
-3.82805e-21
-2.74862e-21
9.35163e-22
-8.62166e-22
-6.19857e-22
-2.37623e-21
-5.30043e-21
-4.53909e-21
-2.55844e-21
-3.94665e-22
-1.27075e-20
-1.13487e-20
-1.4396e-20
-9.80338e-21
-9.04247e-21
-1.1565e-20
-1.34353e-20
-1.32259e-20
-9.25987e-21
-8.45025e-21
-9.42123e-21
-1.13326e-20
-3.37429e-21
-6.5286e-21
-5.42351e-21
-4.54453e-21
-3.22207e-21
-9.87869e-22
-3.39117e-21
-5.16759e-21
-6.74879e-21
-4.28475e-21
-3.39103e-21
-1.57975e-22
2.86444e-22
-6.8707e-22
-2.2108e-21
-1.89748e-21
1.13533e-21
-1.13786e-21
-5.09797e-21
-1.16408e-21
1.12346e-21
-2.40124e-21
-1.75334e-21
-1.68688e-21
-4.36389e-21
-4.50323e-21
-2.39473e-21
-2.42568e-21
-9.5818e-21
-1.21616e-20
-1.7613e-20
-9.75371e-21
-6.36209e-21
-1.08037e-20
-1.43913e-20
-1.20914e-20
-9.58924e-21
-8.38983e-21
-1.01815e-20
-9.93885e-21
-5.69363e-21
-7.09645e-21
-2.16431e-21
-6.16462e-21
-4.60101e-21
1.42361e-21
3.94929e-22
-7.06978e-21
-7.76971e-21
-7.58942e-21
-5.5363e-22
2.72528e-23
1.84601e-21
-3.05755e-21
-2.09432e-21
2.50859e-22
4.40911e-22
2.2594e-22
-3.0888e-21
-2.06111e-21
-2.79781e-22
-8.21844e-22
-1.07025e-21
-4.09552e-21
-3.67834e-21
-3.66481e-21
-1.5165e-21
-1.38232e-21
-7.614e-21
-8.63484e-21
-1.24203e-20
-1.13069e-20
-1.06496e-20
-1.05065e-20
-1.11504e-20
-1.01917e-20
-9.73256e-21
-8.84629e-21
-1.02093e-20
-8.82866e-21
-5.75542e-21
-6.42274e-21
-2.85389e-21
-5.29138e-21
-5.54933e-21
-6.48562e-21
-7.92377e-21
-4.63e-21
-3.14604e-21
-1.52856e-21
-1.20916e-21
-1.01475e-21
3.35399e-22
3.35514e-22
1.25935e-21
3.44819e-21
2.34063e-21
-1.14301e-21
-6.82815e-21
-1.07834e-21
-9.86657e-22
-1.16524e-21
-1.95676e-21
-2.90032e-21
-2.52582e-21
-1.87501e-21
-3.59621e-21
-2.96593e-21
-5.44798e-21
-7.17013e-21
-1.45059e-20
-1.21572e-20
-1.07885e-20
-7.98289e-21
-7.18685e-21
-1.18877e-20
-1.16729e-20
-9.45211e-21
-8.01984e-21
-8.74774e-21
-4.0657e-21
-4.65914e-21
-6.21508e-21
-6.48562e-21
-3.49917e-21
-3.37493e-21
-8.99555e-21
-4.55338e-21
-4.34251e-21
-4.38591e-21
-2.15857e-21
1.11035e-22
5.25762e-22
1.72575e-21
-2.51078e-21
2.21095e-21
1.45598e-21
-2.92196e-21
-2.68081e-21
-1.31463e-21
6.22448e-22
-1.31676e-22
-2.25413e-21
-2.25141e-21
-2.80558e-21
-1.59421e-21
-2.30843e-21
-2.13564e-21
-7.96766e-21
-9.28758e-21
-1.28535e-20
-1.10615e-20
-1.16771e-20
-7.88293e-21
-7.4478e-21
-6.9355e-21
-8.9628e-21
-1.16472e-20
-1.47858e-20
-7.47295e-21
-4.75662e-21
-3.27075e-21
-5.77922e-21
-4.99439e-21
-5.00814e-21
-2.15694e-21
-5.08094e-21
-4.89055e-21
-4.52731e-21
-4.07085e-21
-5.68945e-22
-1.73639e-21
-2.83662e-21
9.53725e-22
-2.97434e-22
1.01419e-21
8.92587e-22
-6.67548e-22
-1.26952e-21
-1.12859e-21
-1.29107e-21
1.07072e-21
-7.24611e-22
-2.57174e-21
-2.32659e-21
-2.34881e-21
-1.66346e-21
-2.5285e-21
-1.22942e-20
-1.34127e-20
-1.09683e-20
-1.05446e-20
-1.05363e-20
-8.12405e-21
-8.53968e-21
-8.48229e-21
-7.04188e-21
-1.21778e-20
-1.40338e-20
-5.79809e-21
-3.58407e-21
-1.02036e-20
-6.15531e-21
-4.30997e-21
-1.65984e-21
-2.09765e-21
-4.83209e-21
-5.92883e-21
-6.48177e-21
-7.33811e-22
-1.39133e-21
-2.07342e-21
3.36106e-22
4.82219e-22
-1.61928e-21
-1.40692e-21
6.60497e-22
8.74388e-22
-2.59888e-21
2.19968e-22
3.80804e-22
-7.94743e-22
-2.95041e-21
-5.00591e-21
-1.32988e-21
-1.20607e-21
3.03247e-22
4.2247e-22
-1.41965e-20
-1.50371e-20
-1.15932e-20
-9.58331e-21
-1.00046e-20
-1.1359e-20
-5.65965e-21
-7.61699e-21
-1.05004e-20
-1.17092e-20
-1.20498e-20
-8.2261e-21
-5.26452e-21
-4.94348e-21
-5.10078e-21
-4.66223e-21
-2.16298e-21
4.923e-22
-6.21896e-22
-6.38655e-21
-6.53965e-21
-3.44207e-22
-6.16098e-21
-5.01061e-21
-1.86693e-21
-9.59303e-22
-1.2038e-21
-9.2753e-22
1.03824e-21
1.46375e-21
-4.3479e-21
-2.70099e-21
1.93557e-22
8.64846e-22
-1.82107e-21
-4.88151e-21
-2.247e-21
1.17651e-21
-5.82222e-22
-1.05145e-21
-9.8191e-21
-1.20168e-20
-1.44795e-20
-9.44399e-21
-9.38977e-21
-1.05959e-20
-9.32608e-21
-1.13241e-20
-7.21579e-21
-9.52594e-21
-1.18156e-20
-9.97639e-21
-1.26309e-21
-6.53723e-21
-7.55246e-21
-1.95816e-21
2.77543e-21
-5.80441e-22
-2.41993e-21
-3.72962e-21
-6.05162e-21
-3.50008e-21
-3.91845e-21
-3.27692e-21
-4.01207e-21
-1.23281e-21
-5.01256e-22
-1.90942e-21
1.84815e-21
6.72268e-23
-3.14879e-21
-2.97768e-21
-2.74802e-22
-1.54033e-21
-3.44113e-21
-4.34792e-21
-2.87488e-21
3.84739e-22
-7.87837e-22
-1.27007e-21
-7.39109e-21
-1.18208e-20
-1.30821e-20
-1.14608e-20
-8.49294e-21
-1.07511e-20
-1.01106e-20
-1.00401e-20
-6.43781e-21
-1.0971e-20
-1.26392e-20
-8.15088e-21
-3.78083e-21
-4.60984e-21
-4.23478e-21
5.94355e-22
6.41358e-22
-3.50183e-21
-1.39079e-21
-2.75447e-23
-1.63336e-21
-5.65336e-21
-2.58186e-21
-5.76514e-21
-5.34501e-21
-4.44381e-21
-1.30686e-21
6.69198e-22
5.82701e-22
-1.12741e-22
3.6903e-22
-2.16577e-21
-2.34683e-21
-5.10328e-23
-3.39306e-21
-4.05091e-21
-2.96612e-21
-1.29668e-21
-1.10201e-21
-1.23742e-22
-1.09938e-20
-1.4438e-20
-1.34677e-20
-9.77874e-21
-7.69847e-21
-9.4724e-21
-1.06284e-20
-9.65444e-21
-7.0487e-21
-8.42576e-21
-1.21881e-20
-9.66446e-21
-2.36088e-21
-6.64574e-21
-4.23867e-22
-1.64962e-21
-1.92772e-21
-1.19605e-21
2.06098e-21
-9.70039e-22
-1.59165e-21
-4.30691e-21
-6.06235e-21
-7.66753e-21
-7.20418e-21
-5.87633e-21
-3.64116e-23
-1.54314e-21
3.47006e-22
2.57869e-21
1.54545e-21
-2.89073e-21
-3.92637e-21
6.31646e-22
-5.14342e-22
-2.97289e-21
-2.35009e-21
-3.47751e-21
-3.24711e-23
1.55618e-22
-6.48433e-21
-1.04485e-20
-1.23771e-20
-1.43642e-20
-1.09617e-20
-1.23908e-20
-1.03967e-20
-4.97177e-21
-7.49447e-21
-1.06912e-20
-1.30698e-20
-9.16168e-21
-2.96814e-21
-4.80829e-21
-3.78365e-21
-3.69749e-21
-3.79211e-21
-2.31225e-21
4.65474e-21
4.56386e-21
-3.85485e-21
-7.9611e-21
-4.81328e-21
-5.77703e-21
-6.18518e-21
-4.69477e-21
1.8386e-21
-6.86294e-22
-2.51518e-21
-6.48597e-22
1.08761e-21
-1.04707e-21
-1.72972e-21
-5.89195e-22
-2.23149e-21
7.11253e-22
-2.18891e-21
-5.27578e-21
-2.98485e-21
-1.68746e-21
-7.2598e-21
-1.06273e-20
-1.20152e-20
-1.32413e-20
-1.00708e-20
-1.16445e-20
-9.19026e-21
-8.93153e-21
-8.03822e-21
-9.09357e-21
-1.16029e-20
-6.19868e-21
-3.99025e-21
-3.55771e-21
-6.20358e-21
-3.67832e-21
-3.51204e-21
-1.73823e-21
3.77393e-21
3.7929e-21
-4.40489e-21
-4.82549e-21
-4.29072e-21
-7.63358e-21
-5.89988e-21
-5.6014e-23
-5.04712e-22
-2.06214e-21
-1.91752e-21
-1.6234e-21
-1.08564e-21
-1.12635e-21
-2.01409e-21
-2.53321e-21
-9.15682e-22
-1.26291e-21
-3.66873e-21
-2.45631e-21
-5.12793e-22
8.21388e-22
-7.73652e-21
-1.24195e-20
-1.32846e-20
-9.62939e-21
-1.25193e-20
-1.12586e-20
-8.60662e-21
-6.3954e-21
-6.82521e-21
-1.03107e-20
-1.27209e-20
-4.094e-21
-3.7603e-21
-5.73132e-21
-3.77439e-21
-4.00811e-21
-3.33729e-21
8.89737e-22
5.45699e-22
2.10632e-21
-5.53005e-21
-5.74037e-21
-3.35642e-21
-4.35017e-21
-3.4745e-21
-2.34086e-21
-1.09861e-21
-1.3663e-21
-6.08057e-22
-2.67039e-21
-6.29547e-22
-9.74869e-22
-1.65969e-21
-5.75154e-22
-1.75094e-21
-4.57085e-21
-2.27664e-21
2.73275e-23
-2.63952e-23
-2.79299e-22
-5.15701e-21
-1.01589e-20
-1.28736e-20
-1.25275e-20
-1.39734e-20
-1.25427e-20
-7.84846e-21
-3.6544e-21
-6.36746e-21
-9.82453e-21
-1.099e-20
-5.25547e-21
-2.48413e-21
-7.75132e-21
-3.55174e-21
-6.0348e-21
-3.63499e-21
-2.00518e-21
2.14915e-21
4.57874e-21
-2.8284e-21
-5.01031e-21
-5.09057e-21
-4.22663e-21
-5.19684e-21
-3.3421e-21
1.44657e-22
2.79619e-21
-5.38674e-22
-1.18727e-21
-1.77469e-21
-1.93064e-21
-2.10884e-22
-1.56127e-21
-5.14016e-21
-3.67158e-21
-1.30682e-21
-2.13478e-23
2.60192e-22
8.38574e-22
-8.58186e-21
-9.98898e-21
-9.61983e-21
-1.09439e-20
-1.18416e-20
-1.11573e-20
-7.16818e-21
-5.97981e-21
-6.57018e-21
-8.30504e-21
-6.28021e-21
-5.14795e-21
-5.31845e-21
-6.42033e-21
-4.32751e-21
-4.48488e-21
-2.26635e-21
-8.64144e-23
2.57591e-22
1.83981e-21
-1.48206e-21
-5.18469e-21
-4.54961e-21
-2.64566e-21
-3.13276e-21
-2.43259e-21
-2.77899e-21
7.31493e-22
-1.11073e-21
-6.6607e-22
-3.19679e-21
-7.1092e-22
1.41191e-21
-3.11718e-22
-4.10653e-21
-6.00079e-21
-3.45851e-21
-2.25841e-22
-8.61354e-23
1.47414e-22
-1.30709e-20
-1.2124e-20
-9.05719e-21
-9.45177e-21
-1.05942e-20
-1.21207e-20
-8.6085e-21
-6.76956e-21
-6.00791e-21
-6.32788e-21
-1.92035e-21
-5.32345e-21
-8.56063e-21
-5.60986e-21
-4.87429e-21
-3.63617e-21
-6.45727e-22
1.11621e-21
1.06257e-21
3.93899e-22
9.01163e-22
-3.15724e-21
-9.72736e-21
-5.33431e-21
-2.64253e-21
-3.61672e-21
-2.55323e-21
1.09591e-21
1.6642e-22
6.50648e-22
-2.95687e-21
-5.17645e-22
2.21453e-21
-1.90744e-21
-6.03711e-21
-5.29718e-21
-1.52157e-21
1.92033e-22
-3.54787e-22
-9.36218e-22
-7.28592e-21
-7.07332e-21
-8.03442e-21
-8.01848e-21
-1.35173e-20
-1.24995e-20
-9.06702e-21
-7.82569e-21
-5.60323e-21
-5.88237e-21
-3.70112e-21
-3.07069e-21
-7.5418e-21
-5.27436e-21
-1.89063e-21
-3.47347e-21
-1.34632e-21
-8.27751e-22
2.25292e-21
-4.7868e-24
-4.71966e-22
-3.21634e-21
-6.55885e-21
-1.30848e-21
-7.37158e-21
-6.09699e-21
-4.62904e-22
1.77176e-21
4.29245e-22
5.8612e-22
-3.06801e-21
-8.99298e-22
1.26282e-21
-1.81147e-21
-3.91904e-21
-1.97327e-21
-1.26694e-22
-4.73226e-21
-1.82922e-21
-4.88613e-22
-8.44606e-21
-8.00736e-21
-7.99219e-21
-1.27761e-20
-1.29186e-20
-9.3447e-21
-7.28271e-21
-5.01773e-21
-5.42952e-21
-4.80318e-21
-3.57664e-21
-6.22589e-21
-7.02679e-21
-3.32975e-21
-2.46308e-21
-2.25643e-21
-1.40874e-21
-5.71054e-22
3.43975e-22
8.77379e-22
1.83136e-21
-4.93186e-21
-3.7726e-21
-2.7664e-21
-5.87273e-21
-3.65372e-21
-1.33219e-21
-8.34699e-22
1.40182e-22
5.95759e-22
-1.93087e-21
-5.97567e-22
1.37002e-21
-4.60015e-22
2.92898e-23
-9.85832e-22
-1.45135e-21
2.24624e-22
-3.77391e-21
-3.13576e-21
-1.13609e-20
-7.76525e-21
-7.55082e-21
-8.39481e-21
-1.0429e-20
-1.19415e-20
-8.94713e-21
-4.71957e-21
-6.38502e-21
-4.65382e-21
-2.03497e-21
-6.07474e-21
-3.52193e-21
-2.37178e-21
-3.16496e-21
-2.08558e-21
-3.9288e-21
8.21557e-22
2.651e-21
2.32731e-21
8.20841e-22
-4.96535e-21
-4.20068e-21
-3.64111e-21
-4.067e-21
-2.20084e-21
-1.72258e-21
-3.85801e-21
-4.75642e-22
-1.13164e-21
-1.78367e-21
-1.29826e-21
2.467e-21
-2.74074e-22
-1.9569e-21
-3.59294e-22
-5.82383e-22
1.50173e-21
4.11598e-26
-1.04247e-21
-7.87804e-21
-6.90446e-21
-8.28933e-21
-8.02148e-21
-8.64003e-21
-1.46052e-20
-6.56303e-21
-5.00619e-21
-5.0297e-21
-6.16486e-21
-3.08314e-21
-2.17108e-21
-4.43684e-21
-2.66309e-21
-2.06411e-21
-1.84832e-21
-3.78728e-21
1.23343e-21
3.84349e-21
-1.32115e-21
-5.07859e-22
-3.00115e-21
-3.6589e-21
-3.19509e-21
-2.22278e-21
-5.25894e-22
4.14136e-22
-1.481e-21
-2.91069e-21
-1.84084e-21
-2.07818e-21
-1.85705e-21
4.81575e-22
1.36583e-22
-5.39136e-22
-1.03706e-22
1.22491e-21
2.07419e-21
-2.44439e-21
-2.35015e-21
-6.62776e-21
-6.22778e-21
-6.03582e-21
-1.1445e-20
-1.01001e-20
-1.03865e-20
-7.71575e-21
-6.10923e-21
-6.05187e-21
-5.22593e-21
-4.77425e-21
-2.0185e-21
-2.41329e-21
-4.22137e-23
-3.07613e-21
-2.67134e-21
-4.09074e-21
1.74104e-21
4.79391e-21
4.84753e-24
2.29565e-23
-2.18693e-21
-2.01682e-21
-2.76566e-21
-4.44704e-21
-3.83617e-21
-1.11136e-21
-3.05446e-22
4.36166e-22
-2.19947e-21
-4.01365e-21
-2.2938e-21
-4.44247e-22
-1.80326e-22
-1.01238e-21
-1.17838e-21
2.63641e-21
2.4976e-21
-3.95955e-21
-2.29274e-21
-4.60049e-21
-5.15716e-21
-9.75172e-21
-7.74987e-21
-7.35183e-21
-9.87942e-21
-8.41055e-21
-6.18369e-21
-5.9724e-21
-4.13149e-21
-2.44956e-21
-4.66634e-21
-1.96557e-21
-9.53012e-22
-1.78136e-21
-1.3499e-21
-5.36921e-22
-1.90704e-22
2.12587e-21
2.14184e-21
-1.70058e-22
7.15248e-22
-2.74156e-21
-4.66316e-21
-2.18636e-21
-7.84953e-22
-2.34056e-21
-5.75432e-22
9.80228e-22
-2.48583e-21
-5.60575e-21
-2.54244e-21
2.22287e-22
-2.27915e-22
-2.24191e-21
-6.17718e-22
4.29992e-22
1.00817e-21
-1.9874e-21
-1.75601e-21
-5.68656e-21
-5.64999e-21
-8.56524e-21
-6.67777e-21
-7.90604e-21
-9.59889e-21
-5.59131e-21
-3.16808e-21
-5.44082e-21
-6.10107e-21
-3.22234e-21
-2.77321e-21
-7.24461e-22
-3.07886e-22
-2.91872e-21
-2.79155e-21
-2.19236e-21
1.04088e-21
5.89833e-22
1.96471e-21
1.83969e-21
-1.77371e-21
-1.75485e-21
-3.45427e-21
-4.9013e-21
5.2509e-22
1.04114e-21
1.30971e-21
-1.15186e-21
-4.30378e-21
-1.45144e-21
-3.08728e-21
-7.72331e-22
-7.60522e-22
1.23157e-22
-1.19356e-21
-1.63431e-21
-1.45354e-21
-1.07545e-22
-4.07187e-24
-6.99159e-21
-3.61614e-21
-5.82372e-21
-2.4152e-21
-1.23184e-21
-4.57049e-21
-7.47754e-21
-4.78829e-21
-2.94196e-21
-4.13989e-21
-1.34719e-21
1.18425e-21
-6.13667e-22
-7.86263e-22
-1.29367e-21
-1.70968e-21
-5.60732e-22
-2.422e-21
1.39184e-21
2.43451e-21
1.48205e-21
-2.8474e-21
-2.1505e-21
-5.24233e-22
-1.03873e-21
5.65885e-23
-9.2659e-22
9.25234e-22
2.19521e-21
7.00906e-23
-3.25199e-21
-1.71826e-21
-2.59832e-21
-2.66805e-21
3.06124e-22
-5.84342e-22
-3.88109e-21
-2.92075e-21
-7.18253e-22
6.07294e-22
-3.94341e-21
-6.52281e-21
-9.91506e-21
-5.94902e-21
-4.22207e-21
-7.06004e-21
-2.6262e-21
7.81306e-22
-7.16388e-21
-5.929e-21
-2.76339e-21
-4.99301e-21
-4.94726e-21
-3.22363e-21
-3.41383e-21
-4.76417e-21
-3.90791e-21
-2.87929e-21
3.26245e-21
2.04383e-21
-9.89528e-22
-3.89675e-21
-3.08798e-21
-2.4469e-21
-2.95764e-21
-1.71832e-21
-1.44104e-21
-2.60402e-21
-4.27181e-21
-4.33247e-21
-6.47377e-21
1.07525e-21
3.51875e-23
-2.82122e-21
-2.9679e-21
-8.29778e-22
1.59637e-21
5.75441e-22
7.62983e-22
1.39044e-21
-5.86656e-21
-8.24809e-21
-1.25235e-20
-1.17888e-20
-5.97335e-21
-1.00227e-20
-8.60065e-21
-3.34888e-21
-6.39056e-21
-9.91346e-21
-7.82066e-21
-4.70168e-21
-8.39645e-21
-5.68196e-21
-6.62928e-21
-4.05381e-21
-1.32024e-21
-3.23496e-21
5.19497e-22
-1.53444e-22
2.98467e-22
-4.5318e-21
-4.79876e-21
-5.40023e-21
-3.47038e-21
-1.80009e-21
6.30894e-23
4.52853e-22
-3.35667e-21
-1.6475e-22
-2.39703e-21
-1.02756e-21
-3.54609e-21
-1.87866e-21
-3.46467e-21
-6.03698e-22
9.79383e-22
1.25026e-21
-1.53816e-22
5.95616e-22
-8.30073e-21
-9.10523e-21
-1.0428e-20
-1.21166e-20
-1.03033e-20
-7.12849e-21
-8.63474e-21
-9.69378e-21
-1.13335e-20
-8.70726e-21
-6.81214e-21
-6.41966e-21
-4.50325e-21
-4.58753e-21
-6.61064e-21
-6.20614e-21
-5.86108e-21
-2.3899e-21
2.1033e-21
1.48522e-23
-2.21761e-21
-4.6345e-21
-4.58846e-21
-3.72295e-21
-3.92767e-21
-2.48178e-21
-9.06745e-22
-2.72513e-21
-1.54169e-21
-2.32216e-21
-2.6528e-21
-1.97166e-21
-4.182e-22
-1.0435e-21
-5.36207e-21
7.76623e-22
1.28963e-21
1.05716e-21
3.3746e-22
8.76501e-22
-1.12673e-20
-1.20766e-20
-1.13252e-20
-1.27083e-20
-1.12677e-20
-1.17159e-20
-8.72983e-21
-6.95394e-21
-1.08085e-20
-9.17245e-21
-7.87367e-21
-9.35268e-21
-6.21367e-21
-4.5343e-21
-6.64928e-21
-5.49959e-21
-3.99418e-21
-2.36256e-21
-1.83162e-21
2.10104e-21
-2.81725e-21
-6.06194e-21
-6.69921e-21
-4.84151e-21
-2.68215e-21
-1.7673e-21
-3.87776e-22
1.01384e-21
-2.64501e-21
-6.0345e-21
-1.87304e-21
-9.57181e-22
-1.36026e-21
-1.87538e-21
-2.82722e-21
8.23916e-22
-6.16093e-22
-1.73581e-21
-8.60632e-22
-1.46748e-21
-1.48117e-20
-1.3484e-20
-1.24012e-20
-1.08262e-20
-1.57174e-20
-1.20462e-20
-7.7601e-21
-4.97595e-21
-9.25721e-21
-1.12489e-20
-9.09017e-21
-9.35408e-21
-6.18878e-21
-5.55084e-21
-7.64051e-21
-5.73935e-21
-5.80138e-21
-1.85471e-21
-1.13511e-21
7.2969e-22
-2.13401e-21
-4.4135e-21
-7.62842e-21
-4.34326e-21
-3.25689e-21
-6.62272e-22
-1.27689e-21
-2.034e-21
-1.87541e-21
-2.22888e-21
-1.05831e-21
-1.72207e-21
2.008e-21
-4.49001e-22
-3.79611e-21
-8.88104e-22
8.43614e-23
-3.77279e-21
-2.89949e-21
-1.37545e-21
-1.47559e-20
-1.46138e-20
-1.09307e-20
-1.13152e-20
-1.42614e-20
-1.29465e-20
-7.21998e-21
-9.02847e-21
-1.12376e-20
-1.17285e-20
-9.62382e-21
-1.22217e-20
-8.58883e-21
-4.20352e-21
-6.31576e-21
-6.27158e-21
-4.40818e-21
-1.20532e-21
3.87958e-24
-1.23249e-22
-2.68662e-21
-4.9779e-21
-6.86376e-21
-4.91554e-21
-4.10851e-21
-1.917e-21
-2.84186e-22
-2.03619e-21
-3.74071e-21
-1.98355e-21
-3.45722e-21
-2.68776e-22
4.28364e-21
-1.18337e-21
-3.76697e-21
-1.3924e-21
-1.34183e-21
-2.18226e-21
2.14762e-22
-7.4349e-23
-1.78815e-20
-1.72804e-20
-1.38847e-20
-1.31847e-20
-1.41014e-20
-1.04748e-20
-1.0669e-20
-9.48066e-21
-1.3339e-20
-1.1958e-20
-1.02643e-20
-9.18379e-21
-6.29816e-21
-6.79593e-21
-6.7634e-21
-6.05178e-21
-2.43582e-21
-1.44239e-21
1.07972e-21
-6.02458e-22
-3.30756e-21
-2.44197e-21
-7.15105e-21
-8.37979e-21
-3.87253e-21
-1.55489e-21
-2.10819e-21
-1.81752e-21
-9.64689e-22
-2.54795e-21
-3.24905e-21
-1.82982e-22
1.59475e-21
-3.06914e-21
-5.50101e-21
-2.0117e-21
-8.9175e-22
-1.82377e-21
-7.5674e-22
-1.01164e-21
-1.50057e-20
-1.62137e-20
-1.46554e-20
-1.42815e-20
-1.52305e-20
-1.11218e-20
-1.2262e-20
-1.31902e-20
-1.44691e-20
-1.32349e-20
-8.73516e-21
-1.0067e-20
-6.93443e-21
-4.20441e-21
-7.87969e-21
-7.40205e-21
-2.00967e-21
-1.54798e-21
-1.82532e-22
1.51119e-22
-2.03851e-21
-6.15909e-21
-7.70393e-21
-6.49202e-21
-4.41501e-21
-1.17742e-22
-6.63509e-22
-1.69772e-21
-2.16951e-21
-3.19427e-21
-5.73642e-21
6.49355e-22
3.2813e-23
-5.1302e-21
-3.72622e-21
-1.18317e-21
-1.56341e-22
-1.78019e-21
-2.44935e-21
-1.76275e-22
-1.65719e-20
-1.82033e-20
-1.86914e-20
-1.55669e-20
-1.49273e-20
-1.44978e-20
-1.31414e-20
-1.16427e-20
-1.26647e-20
-1.43273e-20
-9.66763e-21
-1.09141e-20
-6.50879e-21
-6.17369e-21
-7.32941e-21
-6.7276e-21
-4.13204e-21
-1.69039e-21
-2.50717e-21
-1.6695e-21
-1.23054e-21
-6.41374e-21
-7.62945e-21
-7.96822e-21
-2.83159e-21
7.19355e-22
-2.48479e-22
-4.85396e-22
7.42426e-23
-1.771e-21
-3.59182e-21
-1.49543e-21
-2.92431e-21
-3.81111e-22
-2.48902e-21
-4.55177e-22
-1.29298e-21
-2.14028e-21
-2.27424e-21
-2.41399e-21
-1.61506e-20
-1.59571e-20
-1.65445e-20
-1.9247e-20
-1.62555e-20
-1.52813e-20
-1.63276e-20
-1.51345e-20
-1.08975e-20
-1.37586e-20
-1.14719e-20
-8.13446e-21
-6.82413e-21
-6.70109e-21
-8.42113e-21
-6.70639e-21
-5.88487e-21
-3.307e-21
1.59801e-21
7.76575e-22
-5.0946e-21
-7.62884e-21
-7.13633e-21
-8.86717e-21
-4.06025e-21
2.17468e-22
1.90796e-21
-1.00777e-22
-8.96028e-22
-3.33034e-21
-1.61669e-21
-1.44935e-21
-1.7824e-21
-2.76903e-22
-2.92065e-21
-1.12616e-21
-1.11455e-22
-1.43444e-21
1.89306e-22
-7.82945e-22
-1.58108e-20
-1.83827e-20
-1.96395e-20
-1.82107e-20
-1.57495e-20
-1.49196e-20
-1.67087e-20
-1.68835e-20
-1.20114e-20
-1.20055e-20
-1.20294e-20
-1.14395e-20
-6.48988e-21
-6.26136e-21
-8.79775e-21
-7.86586e-21
-5.09052e-21
-6.01894e-22
2.16103e-21
1.31331e-21
-6.86014e-21
-7.07694e-21
-7.19505e-21
-1.12234e-20
-3.17984e-21
9.84976e-22
2.10209e-21
-1.0025e-21
9.31773e-22
-2.68178e-21
-3.91428e-21
-1.64128e-21
-4.90457e-22
-6.32171e-22
-3.31747e-21
-1.6576e-21
-1.64203e-21
-2.23354e-21
-2.78595e-21
-2.6177e-21
-1.91687e-20
-2.02998e-20
-1.84415e-20
-1.72359e-20
-1.49401e-20
-1.69018e-20
-1.74563e-20
-1.603e-20
-9.92489e-21
-1.26862e-20
-1.25464e-20
-1.08889e-20
-1.12758e-20
-6.96829e-21
-8.25447e-21
-7.1192e-21
-7.54072e-21
2.7611e-22
3.05639e-21
-8.13506e-22
-4.02422e-21
-6.97687e-21
-6.8863e-21
-8.9867e-21
-4.27414e-22
-2.29709e-21
-4.52798e-22
-7.98118e-23
1.64316e-21
-2.99552e-21
-2.90131e-21
-2.0703e-21
-7.49801e-23
-2.39353e-22
-3.97731e-21
-1.40029e-21
-5.33495e-22
-3.26884e-21
-4.29555e-21
-1.85356e-21
-2.20117e-20
-2.04075e-20
-1.6934e-20
-1.78839e-20
-1.87517e-20
-1.63799e-20
-1.50168e-20
-1.39765e-20
-1.36029e-20
-1.41605e-20
-1.09589e-20
-1.0179e-20
-1.07552e-20
-8.25035e-21
-9.76848e-21
-6.75529e-21
-3.47716e-21
-8.59476e-22
-2.04929e-21
-1.09761e-21
-4.69382e-21
-3.08736e-21
-5.82593e-21
-7.47852e-21
-4.17144e-21
-7.03434e-22
3.32679e-22
9.0204e-22
1.66211e-22
-1.2875e-21
-2.52656e-21
-1.6446e-21
6.7703e-22
-2.36903e-21
-6.64085e-21
-3.11082e-22
-1.06226e-21
-2.8469e-21
-2.00338e-21
3.89621e-22
-2.31153e-20
-2.16524e-20
-1.83702e-20
-1.89621e-20
-1.61723e-20
-1.62405e-20
-1.56469e-20
-1.2715e-20
-1.39331e-20
-1.47789e-20
-1.2482e-20
-9.43404e-21
-1.13335e-20
-9.89124e-21
-9.03549e-21
-9.18151e-21
-5.72237e-21
-1.09344e-21
-3.00261e-22
4.71041e-22
-4.77361e-21
-6.44922e-21
-5.07747e-21
-6.68076e-21
-5.51265e-21
-1.36782e-22
3.70967e-22
8.60093e-22
1.32258e-21
-3.86965e-22
-1.92391e-21
-1.5849e-21
-1.62379e-22
-2.91481e-21
-2.8761e-21
-3.66777e-21
-3.19994e-22
-9.94581e-22
-3.09787e-21
7.13767e-22
-2.48872e-20
-2.17598e-20
-1.771e-20
-1.62117e-20
-1.56958e-20
-1.53276e-20
-1.77585e-20
-1.48892e-20
-1.24719e-20
-1.46769e-20
-1.16226e-20
-9.80606e-21
-1.21192e-20
-1.01441e-20
-8.25374e-21
-8.09886e-21
-2.24513e-21
-1.71253e-21
-4.00087e-21
-1.82682e-21
-4.41984e-21
-6.80985e-21
-7.95274e-21
-4.48992e-21
-2.08168e-21
-1.14066e-21
3.89101e-22
5.33098e-22
1.77327e-21
-4.92487e-22
-4.50682e-21
-1.72684e-21
8.71051e-22
-1.64998e-21
-4.09713e-21
-2.65497e-21
-1.36796e-21
-1.996e-21
-1.22861e-21
8.01673e-22
-2.13597e-20
-1.86791e-20
-2.09954e-20
-1.66997e-20
-1.67356e-20
-1.76798e-20
-1.64844e-20
-1.69357e-20
-1.19186e-20
-1.13846e-20
-1.26626e-20
-1.30325e-20
-1.31405e-20
-7.60892e-21
-6.01444e-21
-6.81783e-21
-3.20479e-21
-3.57145e-21
-3.50607e-21
-3.18998e-21
-4.88933e-21
-7.76007e-21
-7.63792e-21
-2.63072e-21
-5.26583e-22
-2.13474e-21
-3.1633e-22
3.39697e-22
3.88624e-22
4.52881e-22
-1.64077e-21
-2.21423e-21
5.38178e-22
-2.04672e-21
-5.02757e-21
-1.73078e-21
-2.30883e-21
-3.56065e-21
-1.7896e-21
-6.62031e-22
-1.94246e-20
-1.82992e-20
-1.87614e-20
-1.55836e-20
-1.71802e-20
-1.88854e-20
-1.65763e-20
-1.56115e-20
-1.16442e-20
-1.1975e-20
-1.14548e-20
-1.28505e-20
-1.23793e-20
-1.00481e-20
-6.67948e-21
-3.06243e-21
-2.26696e-21
-3.30732e-21
-8.04777e-21
-6.526e-21
-5.65054e-21
-4.47048e-21
-3.64988e-21
-2.43227e-21
1.31153e-21
-1.70882e-21
-5.47629e-22
-1.26866e-21
-5.17258e-22
-7.49197e-22
-2.97588e-21
-9.80213e-22
5.32421e-23
-3.39836e-21
-5.87781e-21
-4.13453e-21
-1.99729e-21
-2.37523e-21
1.43237e-22
9.35341e-22
-1.86725e-20
-1.80393e-20
-2.10481e-20
-1.69416e-20