/*--------------------------------*- C++ -*----------------------------------*\
| =========                 |                                                 |
| \\      /  F ield         | OpenFOAM: The Open Source CFD Toolbox           |
|  \\    /   O peration     | Version:  v2012                                 |
|   \\  /    A nd           | Website:  www.openfoam.com                      |
|    \\/     M anipulation  |                                                 |
\*---------------------------------------------------------------------------*/
FoamFile
{
    version     2.0;
    format      ascii;
    class       surfaceScalarField;
    location    "17";
    object      phi;
}
// * * * * * * * * * * * * * * * * * * * * * * * * * * * * * * * * * * * * * //

dimensions      [0 3 -1 0 0 0 0];
oriented        oriented;


internalField   nonuniform List<scalar> 
187200
(
1.875e-06
2.65552e-22
1.96005e-22
1.875e-06
2.38217e-22
2.71928e-22
1.875e-06
2.80814e-22
3.92088e-22
1.875e-06
2.31517e-22
2.5845e-22
1.875e-06
2.24257e-22
1.26631e-22
1.875e-06
3.55877e-22
2.42148e-22
1.875e-06
2.37256e-22
1.36888e-22
1.875e-06
1.42952e-22
9.59306e-23
1.875e-06
1.28577e-22
2.44685e-22
1.875e-06
1.83501e-22
1.88589e-22
1.875e-06
1.75827e-22
1.23953e-22
1.875e-06
1.47954e-22
1.57584e-22
1.875e-06
1.29173e-22
1.56346e-22
1.875e-06
5.39667e-23
5.86949e-23
1.875e-06
9.51359e-23
1.22787e-22
1.875e-06
1.2633e-22
1.01863e-22
1.875e-06
1.59945e-22
1.24197e-22
1.875e-06
2.52949e-23
1.08982e-22
1.875e-06
1.54043e-22
-3.45743e-23
1.875e-06
9.46414e-23
-1.06289e-22
1.875e-06
-1.22396e-22
-8.86893e-23
1.875e-06
-1.51319e-23
-1.77619e-24
1.875e-06
1.56206e-22
7.04188e-23
1.875e-06
2.64813e-22
9.62362e-23
1.875e-06
7.82537e-23
1.10946e-23
1.875e-06
4.84465e-23
1.81349e-23
1.875e-06
8.2702e-23
1.03972e-22
1.875e-06
7.87876e-23
1.05853e-22
1.875e-06
3.70914e-23
1.42805e-22
1.875e-06
-6.93255e-23
1.37467e-22
1.875e-06
-1.99686e-22
1.55669e-22
1.875e-06
-8.4386e-24
4.12955e-23
1.875e-06
1.63324e-22
6.31784e-23
1.875e-06
-1.62303e-24
6.23821e-24
1.875e-06
-4.67078e-23
3.95613e-23
1.875e-06
-7.51193e-23
-1.06816e-22
1.875e-06
-2.38677e-22
-2.066e-22
1.875e-06
-8.02276e-23
6.17706e-24
1.875e-06
1.56307e-23
7.98405e-23
6.60921e-24
4.68212e-23
1.875e-06
9.41294e-24
1.10702e-22
1.875e-06
1.4025e-22
3.99062e-22
1.875e-06
2.76915e-22
5.85658e-22
1.875e-06
2.58559e-22
5.93435e-22
1.875e-06
1.82227e-22
3.52188e-22
1.875e-06
2.01998e-22
3.74106e-22
1.875e-06
2.20872e-22
4.35794e-22
1.875e-06
2.58199e-22
3.9994e-22
1.875e-06
2.46929e-22
4.49796e-22
1.875e-06
1.81821e-22
5.16626e-22
1.875e-06
1.63666e-22
4.71305e-22
1.875e-06
9.35807e-23
2.71422e-22
1.875e-06
1.20849e-22
3.86706e-22
1.875e-06
1.4393e-22
3.09584e-22
1.875e-06
3.75221e-24
2.90371e-22
1.875e-06
-5.6043e-23
1.18799e-22
1.875e-06
1.25575e-22
8.73501e-23
1.875e-06
2.32123e-22
1.9362e-22
1.875e-06
1.56875e-22
-3.04444e-23
1.875e-06
7.8651e-23
-5.06444e-23
1.875e-06
7.63547e-23
4.62164e-23
1.875e-06
1.93948e-23
1.55011e-22
1.875e-06
8.68741e-23
1.20581e-22
1.875e-06
5.74102e-23
-5.22635e-25
1.875e-06
4.4431e-23
7.85267e-23
1.875e-06
4.83524e-23
5.62824e-23
1.875e-06
8.44113e-23
3.53783e-23
1.875e-06
2.42108e-23
-2.15204e-24
1.875e-06
-3.45472e-23
1.83487e-22
1.875e-06
4.77403e-23
1.28485e-22
1.875e-06
-1.13478e-25
2.23924e-22
1.875e-06
2.37955e-24
1.08019e-22
1.875e-06
-2.72345e-24
4.13972e-23
1.875e-06
-2.81753e-23
-1.0797e-23
1.875e-06
-1.47219e-22
5.62624e-23
1.875e-06
-1.74192e-22
-9.6457e-24
1.875e-06
-1.16541e-22
-5.13879e-23
1.875e-06
-3.17542e-24
1.04404e-23
1.875e-06
6.07168e-23
5.53264e-23
5.0631e-23
4.00385e-23
1.875e-06
1.69693e-22
2.68708e-22
1.875e-06
1.61769e-22
4.78198e-22
1.875e-06
1.16078e-22
5.7878e-22
1.875e-06
2.36117e-22
6.4054e-22
1.875e-06
2.73427e-22
5.50207e-22
1.875e-06
2.46658e-22
3.97409e-22
1.875e-06
1.5086e-22
5.17865e-22
1.875e-06
1.39002e-22
5.94979e-22
1.875e-06
2.04047e-22
6.40283e-22
1.875e-06
1.85297e-22
5.4298e-22
1.875e-06
2.01667e-22
5.1076e-22
1.875e-06
1.61727e-22
4.49743e-22
1.875e-06
1.48459e-22
3.42293e-22
1.875e-06
3.62728e-23
3.3125e-22
1.875e-06
1.21887e-22
4.09638e-22
1.875e-06
1.3608e-22
2.8394e-22
1.875e-06
7.82587e-24
1.19158e-22
1.875e-06
-2.62826e-24
6.54575e-23
1.875e-06
3.67775e-23
-1.06244e-22
1.875e-06
7.07186e-23
-9.06662e-24
1.875e-06
-2.72393e-24
1.98098e-22
1.875e-06
-8.2379e-24
2.00644e-22
1.875e-06
1.73991e-22
6.52653e-23
1.875e-06
1.46318e-22
4.16793e-23
1.875e-06
1.0525e-22
1.57913e-22
1.875e-06
7.01997e-23
1.00902e-22
1.875e-06
-6.877e-24
2.08566e-23
1.875e-06
-7.64709e-23
6.6998e-23
1.875e-06
2.21837e-23
1.74196e-22
1.875e-06
7.026e-23
2.07573e-22
1.875e-06
-1.1308e-23
2.25125e-22
1.875e-06
-4.86048e-23
1.47681e-22
1.875e-06
-5.10922e-23
-1.61179e-23
1.875e-06
-1.27218e-22
-2.22909e-23
1.875e-06
-5.37834e-23
1.79586e-22
1.875e-06
-1.09108e-22
2.51994e-23
1.875e-06
-4.42952e-24
-3.04692e-23
1.875e-06
9.02032e-23
4.13485e-23
1.875e-06
1.11606e-22
-2.31587e-23
1.17641e-22
3.5047e-24
1.875e-06
2.31301e-22
3.19019e-22
1.875e-06
1.72283e-22
5.65553e-22
1.875e-06
1.39577e-22
6.33671e-22
1.875e-06
5.90121e-23
6.23043e-22
1.875e-06
1.65317e-22
5.65184e-22
1.875e-06
1.57206e-22
5.24121e-22
1.875e-06
1.68958e-22
5.91574e-22
1.875e-06
1.11268e-22
6.101e-22
1.875e-06
1.44166e-22
6.31795e-22
1.875e-06
1.99128e-22
6.02879e-22
1.875e-06
1.64874e-22
5.46895e-22
1.875e-06
1.37265e-22
5.36755e-22
1.875e-06
7.72899e-23
4.21972e-22
1.875e-06
5.69288e-23
3.82873e-22
1.875e-06
1.37923e-22
3.70369e-22
1.875e-06
1.68908e-22
2.34747e-22
1.875e-06
4.99563e-23
1.40438e-22
1.875e-06
-9.79329e-23
1.25928e-22
1.875e-06
-1.01995e-22
1.37345e-23
1.875e-06
5.60574e-23
-5.72155e-23
1.875e-06
3.94068e-23
3.21751e-22
1.875e-06
1.38988e-22
2.57298e-22
1.875e-06
1.36226e-22
2.74091e-23
1.875e-06
7.01596e-23
7.07557e-23
1.875e-06
6.01817e-23
1.26377e-22
1.875e-06
-4.4914e-24
1.00216e-22
1.875e-06
-1.69542e-23
2.88941e-23
1.875e-06
3.08827e-23
2.82855e-23
1.875e-06
5.92314e-23
1.2442e-22
1.875e-06
-2.90509e-23
2.52232e-22
1.875e-06
7.20924e-23
2.44349e-22
1.875e-06
-5.34321e-24
1.49382e-22
1.875e-06
-5.89325e-23
1.55312e-23
1.875e-06
-1.11583e-22
1.19279e-22
1.875e-06
9.79851e-25
1.6931e-22
1.875e-06
-1.77776e-23
5.88852e-23
1.875e-06
8.54822e-23
8.39776e-23
1.875e-06
5.58369e-23
5.20944e-23
1.875e-06
6.04833e-23
-5.36309e-23
8.11841e-23
4.0693e-23
1.875e-06
-2.38502e-23
2.3381e-22
1.875e-06
9.79889e-23
6.07976e-22
1.875e-06
1.02358e-22
6.51144e-22
1.875e-06
1.31709e-22
6.51682e-22
1.875e-06
7.3955e-23
7.17111e-22
1.875e-06
5.74997e-23
5.97008e-22
1.875e-06
1.11948e-22
6.3859e-22
1.875e-06
2.98461e-22
6.6588e-22
1.875e-06
2.19884e-22
6.66254e-22
1.875e-06
1.57128e-22
6.75885e-22
1.875e-06
1.12737e-22
6.11193e-22
1.875e-06
1.39404e-22
5.65042e-22
1.875e-06
1.47742e-22
4.91244e-22
1.875e-06
1.10722e-22
4.4774e-22
1.875e-06
6.57261e-23
3.42857e-22
1.875e-06
3.17137e-23
1.68724e-22
1.875e-06
-1.35703e-23
1.99264e-22
1.875e-06
-4.97296e-23
2.29252e-22
1.875e-06
-1.34484e-22
1.66893e-22
1.875e-06
-7.3886e-23
1.90894e-23
1.875e-06
1.16429e-22
2.38234e-22
1.875e-06
1.40969e-22
1.73895e-22
1.875e-06
1.23356e-22
4.09845e-23
1.875e-06
1.25932e-22
1.11268e-22
1.875e-06
7.33798e-23
1.33623e-22
1.875e-06
4.6922e-23
9.46789e-23
1.875e-06
5.4996e-23
1.16992e-22
1.875e-06
-3.33564e-23
6.98633e-23
1.875e-06
-7.32515e-23
4.70493e-23
1.875e-06
3.74789e-23
1.8929e-22
1.875e-06
1.26774e-22
2.05579e-22
1.875e-06
1.33314e-22
1.75846e-22
1.875e-06
-4.86267e-23
-7.59671e-23
1.875e-06
7.82783e-23
8.4412e-23
1.875e-06
3.78323e-23
1.40847e-22
1.875e-06
3.30261e-23
9.06102e-23
1.875e-06
4.27809e-23
1.05097e-23
1.875e-06
7.8178e-23
1.45269e-22
1.875e-06
-9.05184e-25
-4.75941e-24
-2.01038e-23
-1.61463e-23
1.875e-06
3.98624e-23
2.8218e-22
1.875e-06
1.66005e-22
5.85923e-22
1.875e-06
6.24538e-23
6.37488e-22
1.875e-06
7.55975e-23
6.25107e-22
1.875e-06
1.07081e-22
7.55195e-22
1.875e-06
1.24094e-22
7.04187e-22
1.875e-06
1.59983e-22
6.58591e-22
1.875e-06
2.04575e-22
7.4838e-22
1.875e-06
2.17228e-22
7.438e-22
1.875e-06
1.12234e-22
6.77557e-22
1.875e-06
1.06171e-22
6.8893e-22
1.875e-06
1.30338e-22
6.76936e-22
1.875e-06
9.07715e-23
5.48445e-22
1.875e-06
1.59948e-22
4.46937e-22
1.875e-06
1.36498e-22
3.51106e-22
1.875e-06
4.56044e-23
2.33448e-22
1.875e-06
5.06576e-24
1.62408e-22
1.875e-06
-5.61924e-23
2.41811e-22
1.875e-06
-9.74301e-23
2.35519e-22
1.875e-06
-3.19497e-23
1.608e-22
1.875e-06
1.5339e-22
2.27717e-22
1.875e-06
1.62104e-22
1.44222e-22
1.875e-06
1.10925e-22
2.27549e-23
1.875e-06
6.68053e-23
8.01182e-23
1.875e-06
3.651e-23
1.19994e-22
1.875e-06
3.53288e-23
1.16993e-22
1.875e-06
3.62444e-24
2.42222e-23
1.875e-06
-3.80384e-23
1.1206e-22
1.875e-06
-8.48804e-23
1.82606e-22
1.875e-06
-3.88263e-23
1.68587e-22
1.875e-06
1.00712e-22
1.74679e-22
1.875e-06
4.69135e-23
2.69377e-23
1.875e-06
9.1598e-23
-1.48633e-22
1.875e-06
1.85135e-22
1.14199e-22
1.875e-06
8.84938e-24
1.30696e-22
1.875e-06
6.7623e-23
6.50311e-23
1.875e-06
5.07275e-24
-1.8366e-23
1.875e-06
-8.76716e-24
-8.5207e-25
1.875e-06
8.63221e-23
-6.26015e-23
4.5999e-23
-3.80972e-23
1.875e-06
4.90068e-23
3.87676e-22
1.875e-06
7.65718e-23
5.70481e-22
1.875e-06
1.49125e-22
7.55591e-22
1.875e-06
4.37963e-23
7.85084e-22
1.875e-06
1.79684e-22
7.59589e-22
1.875e-06
1.1248e-22
6.6144e-22
1.875e-06
1.63055e-22
7.73067e-22
1.875e-06
2.8765e-22
7.81217e-22
1.875e-06
2.14899e-22
8.15394e-22
1.875e-06
1.52574e-22
7.35423e-22
1.875e-06
1.38274e-22
7.05238e-22
1.875e-06
1.37786e-22
5.22238e-22
1.875e-06
1.60951e-22
4.56207e-22
1.875e-06
1.59334e-22
4.56885e-22
1.875e-06
8.25127e-23
3.63269e-22
1.875e-06
6.82577e-23
2.68899e-22
1.875e-06
4.62566e-23
2.19475e-22
1.875e-06
5.39903e-23
3.30193e-22
1.875e-06
8.31846e-23
2.77636e-22
1.875e-06
5.89568e-23
1.75703e-22
1.875e-06
7.17901e-23
1.83251e-22
1.875e-06
8.25181e-23
4.99701e-23
1.875e-06
-4.17326e-23
3.12854e-23
1.875e-06
-3.04889e-23
1.33209e-22
1.875e-06
7.57163e-24
1.47652e-22
1.875e-06
7.15626e-23
8.63278e-23
1.875e-06
3.01939e-23
7.19492e-23
1.875e-06
-2.18631e-23
1.08974e-22
1.875e-06
-6.56627e-23
1.53289e-22
1.875e-06
-4.3773e-23
1.82714e-22
1.875e-06
7.56354e-24
1.12232e-22
1.875e-06
4.15534e-23
5.83201e-23
1.875e-06
5.53544e-24
-1.07189e-22
1.875e-06
4.36918e-23
4.13991e-23
1.875e-06
2.14416e-22
1.99657e-22
1.875e-06
6.38488e-23
4.25023e-23
1.875e-06
1.08535e-22
-9.09029e-23
1.875e-06
-2.86122e-24
-7.90295e-23
1.875e-06
-1.58e-22
-1.54521e-22
-1.29532e-22
-9.64027e-23
1.875e-06
1.16143e-22
2.62722e-22
1.875e-06
5.70572e-23
5.58889e-22
1.875e-06
9.29848e-23
7.27556e-22
1.875e-06
2.17708e-22
8.84601e-22
1.875e-06
8.65158e-23
8.54226e-22
1.875e-06
1.27069e-22
7.93966e-22
1.875e-06
2.28399e-22
8.86059e-22
1.875e-06
1.01581e-22
8.20188e-22
1.875e-06
9.75116e-23
8.08449e-22
1.875e-06
2.66736e-22
7.87222e-22
1.875e-06
4.41888e-23
6.32884e-22
1.875e-06
-6.26908e-24
4.8308e-22
1.875e-06
3.81165e-23
3.85941e-22
1.875e-06
1.15286e-22
2.68008e-22
1.875e-06
9.85141e-23
3.87356e-22
1.875e-06
4.08474e-23
3.54195e-22
1.875e-06
9.47901e-23
2.29913e-22
1.875e-06
9.33746e-23
3.43385e-22
1.875e-06
1.93969e-22
2.67754e-22
1.875e-06
1.28629e-22
1.41164e-22
1.875e-06
1.17258e-22
1.5226e-22
1.875e-06
4.73334e-23
1.51182e-22
1.875e-06
-3.92079e-23
1.35193e-22
1.875e-06
6.38605e-23
2.0897e-22
1.875e-06
-5.92821e-23
2.15021e-22
1.875e-06
-6.80428e-23
1.42479e-23
1.875e-06
2.79005e-23
4.61439e-23
1.875e-06
1.58222e-23
9.98125e-23
1.875e-06
2.89363e-23
1.78592e-22
1.875e-06
-8.00874e-23
1.52429e-22
1.875e-06
-1.8367e-22
1.45363e-22
1.875e-06
-7.19009e-23
2.69233e-23
1.875e-06
1.10256e-22
3.41142e-23
1.875e-06
1.33948e-23
1.10765e-22
1.875e-06
1.00774e-22
-4.5837e-25
1.875e-06
1.13475e-22
-1.21887e-22
1.875e-06
-6.4167e-23
-2.9534e-22
1.875e-06
-1.00566e-22
-1.75986e-22
1.875e-06
-1.40333e-22
-6.77566e-23
-5.27874e-23
-9.96576e-23
1.875e-06
-2.52984e-22
1.86403e-22
1.875e-06
-6.41146e-23
6.44772e-22
1.875e-06
1.10508e-22
8.41479e-22
1.875e-06
1.23968e-22
8.72367e-22
1.875e-06
1.604e-22
9.02542e-22
1.875e-06
2.07426e-22
9.5709e-22
1.875e-06
1.80356e-22
8.91623e-22
1.875e-06
1.43942e-22
8.76763e-22
1.875e-06
1.12196e-22
7.82854e-22
1.875e-06
5.73874e-23
6.22537e-22
1.875e-06
2.05614e-22
6.99009e-22
1.875e-06
2.50056e-23
6.13942e-22
1.875e-06
-6.12764e-23
4.10903e-22
1.875e-06
-1.80706e-24
3.13889e-22
1.875e-06
7.58208e-23
3.43001e-22
1.875e-06
6.08261e-23
3.49753e-22
1.875e-06
1.35312e-22
3.09656e-22
1.875e-06
1.69254e-22
3.63438e-22
1.875e-06
-3.72999e-23
2.3471e-22
1.875e-06
2.02586e-23
1.42674e-22
1.875e-06
6.73344e-23
1.34321e-22
1.875e-06
-1.26056e-23
1.971e-22
1.875e-06
7.59466e-23
1.98644e-22
1.875e-06
2.47665e-23
2.51005e-22
1.875e-06
6.44058e-23
2.20491e-22
1.875e-06
-1.87717e-23
6.03314e-23
1.875e-06
-9.27154e-23
-9.38006e-24
1.875e-06
-2.00937e-23
2.43699e-23
1.875e-06
3.6587e-23
8.31046e-23
1.875e-06
7.10017e-23
2.05346e-22
1.875e-06
-1.40627e-23
2.10764e-22
1.875e-06
-5.45071e-23
9.52308e-23
1.875e-06
-1.42186e-22
-4.43937e-23
1.875e-06
-5.80352e-23
-3.54539e-23
1.875e-06
-2.23269e-23
-1.698e-22
1.875e-06
1.84976e-22
-2.88133e-22
1.875e-06
1.95377e-23
-2.35146e-22
1.875e-06
-1.36595e-22
-1.77607e-22
1.875e-06
-5.30316e-23
-3.43571e-23
-4.25149e-23
-5.37526e-23
1.875e-06
-2.77716e-23
4.5867e-22
1.875e-06
6.26211e-23
6.49423e-22
1.875e-06
1.38112e-22
7.75853e-22
1.875e-06
2.04748e-22
1.04378e-21
1.875e-06
7.20378e-23
9.81071e-22
1.875e-06
1.27001e-22
9.42178e-22
1.875e-06
2.52275e-22
1.00512e-21
1.875e-06
8.0726e-23
9.80815e-22
1.875e-06
8.81034e-23
7.30637e-22
1.875e-06
1.57989e-22
6.7745e-22
1.875e-06
1.84371e-22
6.18609e-22
1.875e-06
5.03601e-23
5.67441e-22
1.875e-06
4.64215e-23
5.32963e-22
1.875e-06
-2.09429e-23
3.83815e-22
1.875e-06
3.07583e-24
4.2194e-22
1.875e-06
1.50613e-22
3.65192e-22
1.875e-06
1.49909e-22
3.59941e-22
1.875e-06
-4.58323e-23
3.23248e-22
1.875e-06
-6.63202e-23
1.53096e-22
1.875e-06
-3.49533e-24
1.21625e-22
1.875e-06
8.8755e-23
2.51399e-22
1.875e-06
2.00344e-22
3.10451e-22
1.875e-06
-5.10828e-24
1.63217e-22
1.875e-06
6.03995e-24
2.89958e-22
1.875e-06
5.56865e-23
2.50865e-22
1.875e-06
8.03064e-24
1.02067e-22
1.875e-06
-1.09438e-22
4.32933e-25
1.875e-06
-3.92143e-23
-3.95167e-23
1.875e-06
4.99448e-23
5.35991e-23
1.875e-06
6.21856e-23
1.60024e-22
1.875e-06
-3.01339e-24
1.45041e-22
1.875e-06
-6.76033e-23
1.01393e-22
1.875e-06
-2.26122e-23
1.72514e-23
1.875e-06
-1.06777e-22
-6.48776e-23
1.875e-06
-8.95724e-23
-9.5183e-23
1.875e-06
2.28395e-23
-3.48472e-22
1.875e-06
6.47893e-23
-2.47405e-22
1.875e-06
9.42358e-23
-1.3369e-22
1.875e-06
7.36331e-23
-1.95098e-22
8.16776e-24
-1.73385e-22
1.875e-06
1.61736e-22
5.14562e-22
1.875e-06
1.57248e-22
7.45745e-22
1.875e-06
1.33725e-22
8.6019e-22
1.875e-06
5.28264e-23
9.4405e-22
1.875e-06
1.55197e-22
1.00413e-21
1.875e-06
2.14942e-22
9.66277e-22
1.875e-06
4.338e-23
8.9586e-22
1.875e-06
1.47514e-22
1.00146e-21
1.875e-06
-6.9318e-24
7.54833e-22
1.875e-06
1.67135e-23
5.683e-22
1.875e-06
1.79547e-22
5.89974e-22
1.875e-06
1.01393e-22
7.12996e-22
1.875e-06
5.17318e-23
5.49481e-22
1.875e-06
1.14166e-22
4.80336e-22
1.875e-06
9.30203e-23
5.54017e-22
1.875e-06
6.40014e-23
4.11157e-22
1.875e-06
-6.7886e-23
2.48964e-22
1.875e-06
-3.52093e-23
3.04345e-22
1.875e-06
7.6779e-23
2.80552e-22
1.875e-06
1.16553e-22
1.66124e-22
1.875e-06
5.07184e-23
2.39977e-22
1.875e-06
6.0511e-24
1.53397e-22
1.875e-06
4.80011e-24
2.22588e-22
1.875e-06
-2.60822e-23
3.32539e-22
1.875e-06
3.54632e-23
1.65732e-22
1.875e-06
-9.19921e-23
3.80367e-23
1.875e-06
-1.08604e-22
-1.03062e-23
1.875e-06
-3.75598e-24
9.60231e-23
1.875e-06
4.75552e-23
-6.68479e-23
1.875e-06
-8.52555e-23
4.68941e-23
1.875e-06
-4.42775e-23
1.92712e-22
1.875e-06
3.90407e-23
1.4483e-22
1.875e-06
-8.04348e-23
-2.81317e-23
1.875e-06
-2.00028e-23
-9.40245e-24
1.875e-06
-6.70514e-23
-4.14438e-23
1.875e-06
-1.26853e-22
-3.48544e-22
1.875e-06
-2.71364e-23
-2.74482e-22
1.875e-06
9.32998e-23
-1.63411e-22
1.875e-06
1.47321e-22
-1.27688e-22
1.43596e-22
-1.12793e-22
1.875e-06
2.55011e-22
5.31625e-22
1.875e-06
1.71511e-22
7.72537e-22
1.875e-06
7.66006e-23
8.21531e-22
1.875e-06
8.64344e-23
9.5083e-22
1.875e-06
1.36292e-22
9.9709e-22
1.875e-06
2.15326e-23
9.43901e-22
1.875e-06
8.435e-23
9.44054e-22
1.875e-06
1.52122e-22
9.50014e-22
1.875e-06
2.67856e-22
7.31944e-22
1.875e-06
1.00124e-22
6.03231e-22
1.875e-06
-3.25022e-23
5.38785e-22
1.875e-06
3.12905e-23
6.52277e-22
1.875e-06
1.32882e-22
6.92658e-22
1.875e-06
1.6479e-22
4.96124e-22
1.875e-06
3.8084e-23
4.91847e-22
1.875e-06
-8.23432e-23
4.24333e-22
1.875e-06
-5.83494e-23
4.41521e-22
1.875e-06
9.65026e-23
3.66226e-22
1.875e-06
2.23131e-22
2.17449e-22
1.875e-06
1.03438e-22
1.87452e-22
1.875e-06
8.064e-24
2.11766e-22
1.875e-06
-8.38074e-23
1.76349e-22
1.875e-06
-3.66615e-23
1.80435e-22
1.875e-06
-5.80436e-23
2.46788e-22
1.875e-06
-1.08496e-22
3.34222e-23
1.875e-06
-4.65072e-23
1.18018e-22
1.875e-06
1.95473e-23
1.08141e-22
1.875e-06
2.10348e-23
5.78117e-23
1.875e-06
-1.00481e-22
-1.32231e-22
1.875e-06
-1.02404e-22
8.9881e-23
1.875e-06
4.82643e-23
1.59571e-22
1.875e-06
-1.55093e-23
1.06056e-22
1.875e-06
-7.70477e-23
2.93325e-23
1.875e-06
2.21262e-23
-5.1099e-23
1.875e-06
-3.25837e-23
-9.60594e-24
1.875e-06
-8.42649e-23
-2.68219e-22
1.875e-06
2.36088e-23
-2.85048e-22
1.875e-06
9.46187e-23
-1.53506e-22
1.875e-06
8.23696e-23
-1.28798e-22
2.17057e-23
-2.41835e-22
1.875e-06
8.33952e-23
4.21966e-22
1.875e-06
1.50371e-22
7.51605e-22
1.875e-06
1.27695e-22
8.18357e-22
1.875e-06
9.58533e-23
1.00113e-21
1.875e-06
-6.70632e-23
1.0204e-21
1.875e-06
-8.149e-24
9.51552e-22
1.875e-06
5.70332e-23
8.6893e-22
1.875e-06
-1.57509e-23
7.86334e-22
1.875e-06
2.77721e-23
6.6128e-22
1.875e-06
1.28864e-22
6.3529e-22
1.875e-06
5.40353e-23
5.64527e-22
1.875e-06
9.08866e-23
6.84438e-22
1.875e-06
1.414e-22
6.56926e-22
1.875e-06
1.67196e-22
4.92964e-22
1.875e-06
6.25713e-23
5.73857e-22
1.875e-06
-6.91388e-24
4.63497e-22
1.875e-06
-5.16928e-23
3.63708e-22
1.875e-06
-2.13247e-23
3.43406e-22
1.875e-06
3.87839e-23
2.73555e-22
1.875e-06
5.25093e-23
1.77818e-22
1.875e-06
9.84819e-23
2.48358e-22
1.875e-06
7.1422e-23
1.69921e-22
1.875e-06
6.0302e-24
1.62485e-22
1.875e-06
2.69e-23
2.95827e-22
1.875e-06
-9.4048e-23
1.6686e-22
1.875e-06
-4.44064e-23
4.7664e-23
1.875e-06
8.18332e-23
2.85893e-23
1.875e-06
1.61927e-23
-4.35865e-23
1.875e-06
-1.44523e-22
-7.53155e-24
1.875e-06
-1.96662e-22
8.74319e-23
1.875e-06
-1.25073e-22
5.78573e-23
1.875e-06
-1.10826e-24
6.59589e-23
1.875e-06
6.33632e-23
2.86549e-23
1.875e-06
-4.27624e-23
-3.57885e-23
1.875e-06
-6.0529e-23
4.12116e-23
1.875e-06
-4.34078e-23
-2.33798e-22
1.875e-06
5.55597e-23
-2.89039e-22
1.875e-06
1.41701e-22
-1.98201e-22
1.875e-06
7.02453e-25
-1.81196e-22
4.93021e-23
-2.55893e-22
1.875e-06
-1.38351e-22
4.20912e-22
1.875e-06
8.82707e-23
7.56388e-22
1.875e-06
1.40229e-22
8.49089e-22
1.875e-06
-5.37136e-23
9.50145e-22
1.875e-06
-5.2793e-23
1.0342e-21
1.875e-06
-1.50964e-23
1.00649e-21
1.875e-06
1.28774e-22
8.93139e-22
1.875e-06
1.56355e-22
8.32073e-22
1.875e-06
3.86136e-23
7.18174e-22
1.875e-06
-1.31834e-24
6.53627e-22
1.875e-06
-1.95704e-23
6.31981e-22
1.875e-06
1.28405e-22
6.76808e-22
1.875e-06
9.18646e-23
5.63385e-22
1.875e-06
-1.24391e-23
4.7973e-22
1.875e-06
-7.72137e-23
5.61556e-22
1.875e-06
-4.50083e-23
5.81919e-22
1.875e-06
1.43258e-23
4.53137e-22
1.875e-06
1.62365e-22
3.85647e-22
1.875e-06
1.21011e-22
2.44346e-22
1.875e-06
3.11599e-23
1.23881e-22
1.875e-06
1.4245e-22
1.83089e-22
1.875e-06
-4.86266e-24
2.15567e-22
1.875e-06
-6.79718e-23
1.71932e-22
1.875e-06
-1.10237e-22
1.74224e-22
1.875e-06
-8.7542e-23
2.31076e-22
1.875e-06
-2.44485e-23
1.24636e-23
1.875e-06
8.45978e-23
-9.97062e-23
1.875e-06
-1.40726e-23
-1.08899e-22
1.875e-06
-1.09685e-22
-3.98279e-23
1.875e-06
-6.42515e-23
1.7386e-22
1.875e-06
-3.02873e-23
1.8579e-22
1.875e-06
-1.51042e-23
7.48896e-23
1.875e-06
3.32771e-24
1.93139e-23
1.875e-06
-4.27811e-23
-1.3351e-24
1.875e-06
-3.86138e-23
-4.64101e-23
1.875e-06
-1.30118e-23
-8.80925e-23
1.875e-06
5.43895e-23
-3.41544e-22
1.875e-06
8.40792e-23
-2.57832e-22
1.875e-06
1.01746e-22
-1.0375e-22
-3.27192e-23
-2.83429e-22
1.875e-06
-5.95962e-23
6.33028e-22
1.875e-06
-2.24207e-22
7.20201e-22
1.875e-06
-5.90021e-23
7.71388e-22
1.875e-06
5.27342e-23
1.01372e-21
1.875e-06
9.9647e-23
1.06556e-21
1.875e-06
-6.01287e-25
9.92669e-22
1.875e-06
-3.93532e-24
8.97338e-22
1.875e-06
8.63528e-23
8.34177e-22
1.875e-06
5.18865e-24
7.0001e-22
1.875e-06
-1.33898e-22
6.76803e-22
1.875e-06
1.12723e-22
7.34548e-22
1.875e-06
1.37102e-22
6.56093e-22
1.875e-06
7.73802e-24
6.56737e-22
1.875e-06
-8.47481e-23
5.40244e-22
1.875e-06
3.47023e-23
6.00085e-22
1.875e-06
-5.24291e-24
5.40739e-22
1.875e-06
-2.15159e-23
3.46531e-22
1.875e-06
4.44401e-23
2.61921e-22
1.875e-06
4.53354e-23
2.84799e-22
1.875e-06
1.44458e-22
2.14975e-22
1.875e-06
6.37434e-23
1.34044e-22
1.875e-06
4.77152e-23
2.93049e-22
1.875e-06
-7.78342e-23
3.42778e-22
1.875e-06
-2.0128e-22
1.40795e-22
1.875e-06
-1.63707e-22
1.08596e-22
1.875e-06
-3.99296e-24
6.30329e-23
1.875e-06
4.82971e-23
-1.76323e-22
1.875e-06
2.3542e-23
-1.57916e-22
1.875e-06
-1.21675e-22
1.10469e-24
1.875e-06
-4.00965e-24
1.29119e-22
1.875e-06
8.70777e-23
2.15796e-22
1.875e-06
9.16091e-23
4.04811e-23
1.875e-06
-9.49546e-23
-9.0007e-23
1.875e-06
-5.65193e-23
4.37689e-24
1.875e-06
-9.7298e-24
3.06224e-23
1.875e-06
-2.88934e-23
-3.57549e-23
1.875e-06
1.22379e-22
-2.54995e-22
1.875e-06
1.07945e-22
-2.45219e-22
1.875e-06
6.7212e-23
-2.55894e-22
4.88429e-23
-2.98368e-22
1.875e-06
-5.02545e-23
5.53668e-22
1.875e-06
-1.10357e-22
8.06538e-22
1.875e-06
-9.05265e-23
9.10726e-22
1.875e-06
-8.47643e-23
9.96553e-22
1.875e-06
-8.17853e-23
1.0286e-21
1.875e-06
1.85117e-23
1.04822e-21
1.875e-06
-1.19745e-23
8.89834e-22
1.875e-06
-6.59398e-24
8.6511e-22
1.875e-06
2.00915e-23
7.09695e-22
1.875e-06
6.59499e-23
7.15748e-22
1.875e-06
1.4135e-23
7.22981e-22
1.875e-06
9.8735e-23
7.22015e-22
1.875e-06
-3.08211e-23
7.19271e-22
1.875e-06
-2.25969e-23
5.98086e-22
1.875e-06
-5.27048e-23
4.67589e-22
1.875e-06
-5.01233e-23
4.52048e-22
1.875e-06
1.07197e-23
3.74178e-22
1.875e-06
-5.78333e-23
3.21279e-22
1.875e-06
5.97451e-23
2.85821e-22
1.875e-06
1.17683e-22
1.83373e-22
1.875e-06
6.65645e-23
1.5424e-22
1.875e-06
1.60829e-23
2.97754e-22
1.875e-06
-3.97376e-23
3.24431e-22
1.875e-06
-1.58269e-22
1.86097e-22
1.875e-06
-1.24002e-22
1.01945e-22
1.875e-06
-8.94628e-23
5.13119e-23
1.875e-06
-8.09967e-23
-1.93566e-22
1.875e-06
-1.90516e-23
-2.22396e-22
1.875e-06
-2.71053e-23
6.59141e-23
1.875e-06
4.70796e-23
9.51297e-23
1.875e-06
2.35023e-23
-1.50756e-23
1.875e-06
-5.24343e-23
-9.30516e-23
1.875e-06
2.74277e-23
-3.40916e-23
1.875e-06
4.34168e-23
6.39225e-23
1.875e-06
2.60995e-23
1.24922e-22
1.875e-06
5.68939e-24
-3.63004e-24
1.875e-06
-7.01984e-25
-2.04115e-22
1.875e-06
1.64278e-23
-2.35654e-22
1.875e-06
3.00179e-23
-2.60043e-22
1.07533e-22
-2.80976e-22
1.875e-06
-1.47307e-22
4.83317e-22
1.875e-06
-7.70475e-23
8.3671e-22
1.875e-06
1.95496e-23
9.46081e-22
1.875e-06
-2.67761e-23
1.01293e-21
1.875e-06
-7.7998e-23
1.08509e-21
1.875e-06
-2.79253e-23
1.05511e-21
1.875e-06
-1.7341e-23
9.22908e-22
1.875e-06
-6.79172e-23
8.19185e-22
1.875e-06
-5.33311e-26
7.50633e-22
1.875e-06
2.66351e-23
7.56668e-22
1.875e-06
4.22872e-23
6.94946e-22
1.875e-06
3.53937e-24
6.64396e-22
1.875e-06
7.05112e-23
8.139e-22
1.875e-06
1.9242e-23
6.85165e-22
1.875e-06
-8.77683e-23
5.22285e-22
1.875e-06
5.21903e-23
3.38973e-22
1.875e-06
6.91563e-23
2.52075e-22
1.875e-06
-5.52833e-23
3.50526e-22
1.875e-06
-4.49008e-23
3.94634e-22
1.875e-06
7.9785e-23
2.71026e-22
1.875e-06
4.37118e-23
1.97531e-22
1.875e-06
4.56776e-23
2.27136e-22
1.875e-06
-9.75845e-23
2.1296e-22
1.875e-06
-7.68801e-23
1.72331e-22
1.875e-06
-9.74536e-23
8.86215e-23
1.875e-06
-2.91085e-23
7.4157e-23
1.875e-06
-8.99506e-23
-8.95291e-23
1.875e-06
-2.40955e-22
-9.29089e-23
1.875e-06
-8.94078e-23
8.23316e-23
1.875e-06
-3.08123e-23
6.2798e-23
1.875e-06
8.07375e-24
-7.15647e-23
1.875e-06
1.92984e-23
-1.04733e-22
1.875e-06
2.41186e-23
-2.41861e-23
1.875e-06
-9.91412e-24
7.60081e-23
1.875e-06
1.05667e-23
1.70885e-22
1.875e-06
1.37136e-22
5.2706e-23
1.875e-06
-1.71963e-23
-1.84974e-22
1.875e-06
-2.01256e-23
-2.50864e-22
1.875e-06
3.00659e-23
-3.78754e-22
-9.75395e-24
-3.89878e-22
1.875e-06
-1.05626e-22
5.55643e-22
1.875e-06
-1.89948e-22
8.55302e-22
1.875e-06
-2.24366e-22
9.33018e-22
1.875e-06
9.22254e-24
1.07783e-21
1.875e-06
1.03947e-22
1.10898e-21
1.875e-06
-5.60582e-23
1.06637e-21
1.875e-06
-1.48838e-22
9.76375e-22
1.875e-06
-1.04627e-22
7.62387e-22
1.875e-06
2.46821e-24
7.90294e-22
1.875e-06
1.3528e-23
8.77472e-22
1.875e-06
1.99564e-23
6.48351e-22
1.875e-06
2.02751e-24
6.35614e-22
1.875e-06
7.88752e-24
7.64525e-22
1.875e-06
-3.9267e-24
7.82624e-22
1.875e-06
5.45412e-23
6.44078e-22
1.875e-06
-6.77036e-24
3.15439e-22
1.875e-06
8.60774e-23
2.4663e-22
1.875e-06
2.35861e-22
3.53315e-22
1.875e-06
2.85421e-22
2.83125e-22
1.875e-06
-1.00763e-22
2.09754e-22
1.875e-06
-1.46229e-22
1.93198e-22
1.875e-06
-1.83466e-22
2.1329e-22
1.875e-06
-2.55005e-23
2.66929e-22
1.875e-06
-8.73254e-24
2.07152e-22
1.875e-06
4.94414e-23
1.77511e-22
1.875e-06
-1.4478e-22
3.84286e-23
1.875e-06
-2.14891e-22
5.96868e-24
1.875e-06
-2.07316e-22
-5.45219e-23
1.875e-06
-1.29533e-22
1.92876e-23
1.875e-06
3.45139e-23
3.81101e-23
1.875e-06
4.54183e-23
-3.96357e-23
1.875e-06
-4.46801e-23
-1.27774e-22
1.875e-06
1.06221e-23
-9.82516e-23
1.875e-06
1.49944e-23
4.73612e-23
1.875e-06
3.96879e-23
1.20619e-22
1.875e-06
-2.86921e-23
2.62931e-23
1.875e-06
-3.74014e-23
-1.6074e-22
1.875e-06
-1.20611e-22
-3.36422e-22
1.875e-06
-3.06165e-23
-2.92371e-22
9.23949e-23
-2.71507e-22
1.875e-06
-5.87924e-23
5.93556e-22
1.875e-06
-7.49335e-23
9.63413e-22
1.875e-06
-5.41067e-24
9.91186e-22
1.875e-06
-3.8399e-23
1.06315e-21
1.875e-06
1.07817e-23
1.04079e-21
1.875e-06
-1.10074e-22
9.87355e-22
1.875e-06
-2.02613e-22
9.35943e-22
1.875e-06
-5.78373e-23
9.28416e-22
1.875e-06
1.53869e-23
8.87494e-22
1.875e-06
4.77868e-23
8.66924e-22
1.875e-06
-1.6595e-23
7.18982e-22
1.875e-06
3.73713e-23
6.90627e-22
1.875e-06
-3.20932e-23
7.77065e-22
1.875e-06
-3.23578e-23
7.53778e-22
1.875e-06
1.14205e-22
6.11382e-22
1.875e-06
4.14587e-23
4.12272e-22
1.875e-06
-1.08453e-22
2.51379e-22
1.875e-06
-6.1814e-23
2.04269e-22
1.875e-06
5.22773e-24
4.325e-23
1.875e-06
7.15073e-23
2.09343e-22
1.875e-06
5.23557e-25
2.5039e-22
1.875e-06
8.97457e-24
3.37248e-22
1.875e-06
-2.94686e-23
3.10666e-22
1.875e-06
-2.56203e-23
2.45023e-22
1.875e-06
1.78221e-23
1.52113e-22
1.875e-06
-2.63509e-23
4.3774e-23
1.875e-06
2.63216e-23
9.96822e-23
1.875e-06
8.57706e-24
-1.34866e-23
1.875e-06
4.16161e-23
5.86557e-23
1.875e-06
2.92841e-23
9.61447e-24
1.875e-06
-9.58292e-23
-4.53148e-23
1.875e-06
-5.89265e-23
-4.59374e-23
1.875e-06
-1.05932e-22
-4.46851e-23
1.875e-06
-5.03558e-23
5.91044e-23
1.875e-06
2.02355e-25
1.87764e-23
1.875e-06
-4.98834e-24
-9.89955e-23
1.875e-06
2.69955e-23
-7.81285e-23
1.875e-06
-1.37275e-23
-1.03236e-22
1.875e-06
-1.06079e-22
-2.57702e-22
-1.19602e-22
-3.94515e-22
1.875e-06
1.00357e-22
6.83835e-22
1.875e-06
1.34013e-22
9.51714e-22
1.875e-06
-4.87885e-23
8.48378e-22
1.875e-06
-1.08733e-22
9.8448e-22
1.875e-06
-2.57181e-23
1.07013e-21
1.875e-06
-2.53081e-23
9.81697e-22
1.875e-06
-3.27792e-23
1.01063e-21
1.875e-06
-2.16625e-22
9.21079e-22
1.875e-06
-1.58485e-22
8.32815e-22
1.875e-06
4.63465e-23
9.62845e-22
1.875e-06
-9.95436e-23
7.49613e-22
1.875e-06
3.44528e-22
7.36349e-22
1.875e-06
1.09585e-23
7.7868e-22
1.875e-06
-3.89455e-25
7.07629e-22
1.875e-06
1.12792e-23
6.54031e-22
1.875e-06
-4.52325e-23
4.20176e-22
1.875e-06
-3.87357e-23
2.36395e-22
1.875e-06
-1.09446e-22
1.49311e-22
1.875e-06
-1.86097e-22
1.65423e-22
1.875e-06
-2.18901e-23
1.95317e-22
1.875e-06
-3.07391e-23
2.29243e-22
1.875e-06
-7.15112e-23
3.51631e-22
1.875e-06
-7.17804e-23
3.57781e-22
1.875e-06
4.32239e-23
9.56693e-23
1.875e-06
1.23422e-22
1.81287e-22
1.875e-06
1.17033e-22
2.00829e-22
1.875e-06
3.36778e-23
1.315e-23
1.875e-06
9.23182e-23
-4.66128e-23
1.875e-06
-1.00696e-22
-3.51642e-24
1.875e-06
7.1513e-23
-8.24449e-23
1.875e-06
-8.77657e-23
4.94702e-23
1.875e-06
-6.50019e-23
-2.47876e-23
1.875e-06
8.28315e-23
-8.19854e-24
1.875e-06
-1.38596e-22
1.5761e-23
1.875e-06
-3.83792e-23
4.92742e-23
1.875e-06
4.63885e-23
-2.60444e-24
1.875e-06
-4.01187e-23
-6.19064e-23
1.875e-06
4.0517e-23
-1.86128e-22
1.875e-06
-5.61877e-23
-3.60903e-22
-1.18405e-22
-3.50535e-22
1.875e-06
1.66288e-22
5.59365e-22
1.875e-06
1.54786e-22
8.09069e-22
1.875e-06
-1.26072e-23
9.08823e-22
1.875e-06
-4.11929e-23
1.02662e-21
1.875e-06
-9.92656e-23
1.01576e-21
1.875e-06
2.38868e-24
9.61116e-22
1.875e-06
-1.25081e-23
9.40155e-22
1.875e-06
2.2179e-23
9.58699e-22
1.875e-06
-1.28939e-22
8.77508e-22
1.875e-06
-4.33354e-23
9.33397e-22
1.875e-06
3.94258e-23
7.8593e-22
1.875e-06
-2.99336e-23
8.10882e-22
1.875e-06
-3.28825e-23
8.08143e-22
1.875e-06
1.4519e-22
6.91016e-22
1.875e-06
1.65503e-23
5.62871e-22
1.875e-06
-1.86492e-23
3.80337e-22
1.875e-06
-1.63245e-22
1.60311e-22
1.875e-06
-1.15398e-22
1.68002e-22
1.875e-06
-1.29304e-22
2.8897e-22
1.875e-06
-6.03989e-23
2.01167e-22
1.875e-06
-2.34112e-23
2.55169e-22
1.875e-06
-1.34964e-22
2.87221e-22
1.875e-06
-2.22997e-23
3.13321e-22
1.875e-06
7.12366e-23
1.52329e-22
1.875e-06
1.84843e-23
1.04365e-22
1.875e-06
6.9039e-23
1.48598e-22
1.875e-06
1.17113e-22
-4.53118e-25
1.875e-06
1.5394e-22
-8.03956e-23
1.875e-06
2.31398e-23
-2.73695e-23
1.875e-06
-6.5638e-23
-9.98592e-23
1.875e-06
-3.37951e-23
-1.90658e-23
1.875e-06
-2.51915e-23
-5.70895e-23
1.875e-06
9.6114e-24
-3.41733e-23
1.875e-06
1.15845e-22
1.68631e-22
1.875e-06
5.75483e-23
3.61703e-23
1.875e-06
4.1473e-23
-6.6843e-23
1.875e-06
-9.76723e-24
-1.25169e-23
1.875e-06
-1.05695e-22
-1.33639e-22
1.875e-06
-1.18752e-22
-3.83442e-22
-1.58734e-22
-3.74881e-22
1.875e-06
7.70209e-23
5.09128e-22
1.875e-06
7.78929e-23
8.09013e-22
1.875e-06
-1.73941e-23
9.6737e-22
1.875e-06
-1.98116e-23
9.52928e-22
1.875e-06
-4.85441e-23
9.75205e-22
1.875e-06
3.43649e-23
1.00035e-21
1.875e-06
-7.40632e-23
9.37286e-22
1.875e-06
-1.54051e-23
8.48359e-22
1.875e-06
9.14579e-23
1.00685e-21
1.875e-06
-1.18761e-22
9.4289e-22
1.875e-06
-1.18389e-22
7.92633e-22
1.875e-06
1.28728e-23
7.10686e-22
1.875e-06
1.16903e-23
7.49032e-22
1.875e-06
-1.66274e-22