/*--------------------------------*- C++ -*----------------------------------*\
| =========                 |                                                 |
| \\      /  F ield         | OpenFOAM: The Open Source CFD Toolbox           |
|  \\    /   O peration     | Version:  v2012                                 |
|   \\  /    A nd           | Website:  www.openfoam.com                      |
|    \\/     M anipulation  |                                                 |
\*---------------------------------------------------------------------------*/
FoamFile
{
    version     2.0;
    format      ascii;
    class       volVectorField;
    location    "17";
    object      U;
}
// * * * * * * * * * * * * * * * * * * * * * * * * * * * * * * * * * * * * * //

dimensions      [0 1 -1 0 0 0 0];


internalField   nonuniform List<vector> 
64000
(
(0.003 2.08456e-19 1.88412e-19)
(0.003 3.29357e-19 2.96699e-19)
(0.003 3.50581e-19 3.81759e-19)
(0.003 3.48741e-19 4.12748e-19)
(0.003 4.15778e-19 3.60642e-19)
(0.003 3.89627e-19 2.7978e-19)
(0.003 2.85397e-19 2.14413e-19)
(0.003 1.34241e-19 1.69815e-19)
(0.003 2.22711e-19 2.95284e-19)
(0.003 3.1866e-19 2.52549e-19)
(0.003 2.37216e-19 1.99823e-19)
(0.003 2.27355e-19 2.76561e-19)
(0.003 2.04279e-19 2.36556e-19)
(0.003 2.02548e-19 1.96916e-19)
(0.003 1.90913e-19 2.35656e-19)
(0.003 2.08288e-19 2.04765e-19)
(0.003 1.10243e-19 1.37802e-19)
(0.003 -1.93913e-21 1.27142e-19)
(0.003 6.63169e-20 -9.91759e-20)
(0.003 1.81182e-20 -1.9005e-19)
(0.003 -1.02733e-19 -1.38846e-19)
(0.003 1.168e-19 6.43136e-20)
(0.003 2.2615e-19 1.17558e-19)
(0.003 2.99755e-19 8.69853e-20)
(0.003 3.1561e-19 1.41921e-19)
(0.003 1.38977e-19 1.35416e-19)
(0.003 2.48881e-20 1.30763e-19)
(0.003 1.17372e-19 1.18895e-19)
(0.003 1.20163e-19 1.47779e-19)
(0.003 -3.64977e-20 1.90549e-19)
(0.003 -1.47721e-19 2.9779e-19)
(0.003 -4.82712e-20 1.30904e-19)
(0.003 1.19132e-19 4.96699e-20)
(0.003 8.41549e-20 1.45387e-19)
(0.003 1.67571e-20 6.89741e-20)
(0.003 -2.48962e-20 -1.20832e-19)
(0.003 -2.12944e-19 -1.71809e-19)
(0.003 -1.92289e-19 -6.44919e-20)
(0.003 -9.10701e-20 9.55461e-20)
(0.003 -6.09292e-20 7.78026e-20)
(0.003 2.36191e-19 2.8509e-19)
(0.003 2.98996e-19 6.06418e-19)
(0.003 4.93701e-19 8.28647e-19)
(0.003 4.51037e-19 7.93107e-19)
(0.003 3.59022e-19 6.90921e-19)
(0.003 4.83159e-19 7.05227e-19)
(0.003 4.02651e-19 5.95256e-19)
(0.003 3.76718e-19 4.29398e-19)
(0.003 3.25004e-19 5.417e-19)
(0.003 2.69528e-19 6.58812e-19)
(0.003 2.7747e-19 5.80693e-19)
(0.003 2.52471e-19 4.80039e-19)
(0.003 1.98613e-19 4.48388e-19)
(0.003 8.77769e-20 3.83135e-19)
(0.003 1.45541e-20 3.97266e-19)
(0.003 5.19551e-20 3.12343e-19)
(0.003 2.5309e-19 1.45793e-19)
(0.003 2.35292e-19 1.72359e-19)
(0.003 2.40131e-19 4.00766e-20)
(0.003 2.32514e-19 -1.28693e-19)
(0.003 5.03942e-20 -1.02574e-19)
(0.003 -4.43753e-20 1.94826e-19)
(0.003 1.7658e-19 2.84319e-19)
(0.003 2.69081e-19 2.64534e-19)
(0.003 8.16526e-20 2.96933e-19)
(0.003 6.07473e-20 1.50496e-19)
(0.003 1.38253e-19 5.59876e-20)
(0.003 9.3217e-20 1.09367e-19)
(0.003 -1.47424e-20 1.96136e-19)
(0.003 -6.27637e-20 9.34125e-20)
(0.003 -1.63684e-19 1.55252e-19)
(0.003 -1.98402e-20 1.68328e-19)
(0.003 7.15832e-20 2.14496e-19)
(0.003 -5.92035e-20 1.05348e-19)
(0.003 -1.6173e-19 1.04813e-19)
(0.003 -2.45715e-19 3.35374e-21)
(0.003 -2.41435e-19 -1.43845e-19)
(0.003 -3.6148e-20 -3.34994e-20)
(0.003 9.5808e-20 1.0531e-19)
(0.003 8.99353e-20 2.5473e-20)
(0.003 1.42171e-19 3.69196e-19)
(0.003 2.17126e-19 6.35866e-19)
(0.003 2.9276e-19 9.11567e-19)
(0.003 3.79745e-19 9.82401e-19)
(0.003 3.66168e-19 8.33019e-19)
(0.003 3.72219e-19 7.65279e-19)
(0.003 3.19249e-19 7.22661e-19)
(0.003 3.36282e-19 7.3597e-19)
(0.003 3.52591e-19 8.63556e-19)
(0.003 2.8071e-19 7.28308e-19)
(0.003 2.62985e-19 6.22595e-19)
(0.003 2.45396e-19 5.93453e-19)
(0.003 2.63842e-19 4.44793e-19)
(0.003 1.71495e-19 4.12988e-19)
(0.003 1.1394e-19 3.79339e-19)
(0.003 2.68045e-20 3.27335e-19)
(0.003 1.04156e-19 3.23826e-19)
(0.003 1.88208e-19 1.93022e-19)
(0.003 1.68906e-19 -5.21304e-20)
(0.003 8.87961e-20 -8.9674e-20)
(0.003 -1.18829e-20 1.02166e-19)
(0.003 1.15939e-20 2.9281e-19)
(0.003 2.05205e-19 3.16619e-19)
(0.003 1.84195e-19 3.05987e-19)
(0.003 5.26036e-20 2.54964e-19)
(0.003 1.1169e-19 1.90186e-19)
(0.003 1.19721e-19 1.54488e-19)
(0.003 -4.04229e-20 1.70701e-19)
(0.003 -2.01793e-20 1.82027e-19)
(0.003 8.93579e-20 2.03599e-19)
(0.003 -1.16211e-21 1.85549e-19)
(0.003 -1.6536e-20 1.86351e-19)
(0.003 -6.94582e-20 1.54524e-19)
(0.003 -1.52321e-19 8.07937e-20)
(0.003 -1.73708e-19 1.12228e-19)
(0.003 -2.52563e-19 -5.76142e-20)
(0.003 -1.15804e-19 -8.51267e-20)
(0.003 4.87697e-20 4.78734e-21)
(0.003 1.50547e-19 3.38756e-20)
(0.003 1.87549e-19 -5.1571e-21)
(0.003 3.63837e-19 4.66054e-19)
(0.003 3.3086e-19 7.98522e-19)
(0.003 1.92625e-19 9.56762e-19)
(0.003 2.40809e-19 1.02596e-18)
(0.003 3.56502e-19 9.88664e-19)
(0.003 3.38334e-19 9.63541e-19)
(0.003 2.84359e-19 8.10144e-19)
(0.003 2.2184e-19 7.42634e-19)
(0.003 2.1178e-19 8.64534e-19)
(0.003 2.76372e-19 8.31391e-19)
(0.003 2.8749e-19 7.34169e-19)
(0.003 2.37671e-19 7.03486e-19)
(0.003 1.94779e-19 5.72048e-19)
(0.003 1.11204e-19 4.27778e-19)
(0.003 2.70543e-19 4.44455e-19)
(0.003 3.09215e-19 3.61255e-19)
(0.003 1.08695e-19 2.86477e-19)
(0.003 -5.57679e-20 2.38448e-19)
(0.003 -8.84394e-20 -6.43939e-21)
(0.003 -1.58753e-20 -1.89692e-19)
(0.003 -2.12473e-20 1.3874e-19)
(0.003 1.34939e-19 3.76051e-19)
(0.003 2.63287e-19 4.65133e-19)
(0.003 1.5784e-19 3.98425e-19)
(0.003 1.25972e-19 2.91631e-19)
(0.003 6.34393e-20 2.08875e-19)
(0.003 -1.0426e-20 8.90984e-20)
(0.003 -3.22727e-20 2.96447e-20)
(0.003 6.13878e-20 2.11214e-19)
(0.003 4.53928e-20 3.51567e-19)
(0.003 8.06111e-21 1.65803e-19)
(0.003 -5.78105e-20 9.24442e-20)
(0.003 -8.19164e-20 1.5612e-19)
(0.003 -1.30553e-19 1.1225e-19)
(0.003 -7.95508e-20 1.18048e-19)
(0.003 -5.95806e-20 3.61004e-20)
(0.003 2.63294e-20 2.7559e-20)
(0.003 9.53498e-20 9.07894e-20)
(0.003 1.16522e-19 1.06189e-19)
(0.003 1.12659e-19 9.1191e-20)
(0.003 1.92895e-19 5.62025e-19)
(0.003 2.86816e-19 9.66724e-19)
(0.003 1.76175e-19 1.03442e-18)
(0.003 1.39251e-19 1.01892e-18)
(0.003 1.93564e-19 1.12055e-18)
(0.003 1.7844e-19 1.04239e-18)
(0.003 2.31795e-19 8.86771e-19)
(0.003 3.25128e-19 7.33868e-19)
(0.003 2.73831e-19 7.93135e-19)
(0.003 2.47786e-19 9.37038e-19)
(0.003 2.23975e-19 8.44817e-19)
(0.003 2.04294e-19 7.3265e-19)
(0.003 1.73862e-19 6.21357e-19)
(0.003 1.72562e-19 4.76747e-19)
(0.003 1.81355e-19 4.9221e-19)
(0.003 2.22127e-19 5.11313e-19)
(0.003 1.13399e-19 3.59662e-19)
(0.003 -1.2561e-19 1.61094e-19)
(0.003 -2.0361e-19 9.76681e-20)
(0.003 -2.89108e-20 -6.85818e-21)
(0.003 1.18875e-19 2.72721e-20)
(0.003 1.46859e-19 3.26043e-19)
(0.003 1.94357e-19 5.29067e-19)
(0.003 1.56885e-19 4.29003e-19)
(0.003 9.44109e-20 3.27077e-19)
(0.003 3.26844e-20 2.19708e-19)
(0.003 1.10856e-20 9.33341e-20)
(0.003 2.04573e-20 1.23042e-19)
(0.003 3.22606e-20 2.34485e-19)
(0.003 1.47982e-20 1.5805e-19)
(0.003 1.61847e-19 1.06905e-19)
(0.003 1.42063e-19 1.51332e-19)
(0.003 -6.27291e-20 2.89413e-21)
(0.003 -6.1892e-20 2.02865e-20)
(0.003 3.97155e-20 1.30906e-19)
(0.003 3.22264e-20 7.44526e-20)
(0.003 6.74592e-20 7.50978e-20)
(0.003 7.0909e-20 1.23968e-19)
(0.003 3.21006e-21 1.3916e-19)
(0.003 -7.25605e-21 1.19399e-19)
(0.003 9.65075e-21 6.53641e-19)
(0.003 1.7698e-19 1.00634e-18)
(0.003 1.34245e-19 1.02487e-18)
(0.003 1.27501e-19 1.06888e-18)
(0.003 1.50001e-19 1.12363e-18)
(0.003 1.79771e-19 1.01499e-18)
(0.003 2.19507e-19 8.94328e-19)
(0.003 4.22261e-19 9.59151e-19)
(0.003 3.76508e-19 9.54928e-19)
(0.003 1.77329e-19 8.67431e-19)
(0.003 1.65451e-19 7.98805e-19)
(0.003 2.07137e-19 8.59686e-19)
(0.003 2.04913e-19 7.66797e-19)
(0.003 2.51644e-19 4.92621e-19)
(0.003 1.60082e-19 4.83679e-19)
(0.003 3.63452e-21 5.2409e-19)
(0.003 -6.85232e-20 4.02547e-19)
(0.003 -1.22388e-19 2.13915e-19)
(0.003 -1.6245e-19 1.49377e-19)
(0.003 -7.30956e-20 7.05128e-20)
(0.003 1.81551e-19 8.53401e-20)
(0.003 2.70883e-19 2.91902e-19)
(0.003 1.69866e-19 4.70389e-19)
(0.003 1.48625e-19 3.92255e-19)
(0.003 1.31607e-19 2.80724e-19)
(0.003 8.30563e-20 2.50191e-19)
(0.003 7.15551e-20 1.66368e-19)
(0.003 -4.65258e-20 1.03325e-19)
(0.003 -1.68499e-19 2.17982e-19)
(0.003 -2.22731e-20 3.03922e-19)
(0.003 2.21628e-19 2.50672e-19)
(0.003 1.50592e-19 7.58782e-21)
(0.003 1.12455e-20 -1.93052e-19)
(0.003 1.98958e-19 5.47898e-20)
(0.003 8.95993e-20 1.50227e-19)
(0.003 6.79875e-20 6.6745e-20)
(0.003 6.27075e-20 1.25617e-19)
(0.003 6.06906e-20 9.08051e-20)
(0.003 7.02225e-20 -2.08747e-20)
(0.003 6.46736e-20 -3.7725e-20)
(0.003 1.88119e-20 7.96259e-19)
(0.003 1.21253e-19 1.16534e-18)
(0.003 1.75441e-19 1.10306e-18)
(0.003 1.23633e-19 1.08509e-18)
(0.003 2.00058e-19 1.1288e-18)
(0.003 1.54055e-19 1.08118e-18)
(0.003 2.28157e-19 9.79583e-19)
(0.003 3.82946e-19 9.7439e-19)
(0.003 3.5832e-19 1.02893e-18)
(0.003 2.42687e-19 9.60507e-19)
(0.003 2.02137e-19 8.66784e-19)
(0.003 2.16215e-19 8.14822e-19)
(0.003 1.99148e-19 6.69914e-19)
(0.003 2.39593e-19 5.99749e-19)
(0.003 1.54054e-19 5.80994e-19)
(0.003 5.54411e-20 5.16917e-19)
(0.003 -3.57447e-20 3.57941e-19)
(0.003 -3.15064e-21 2.16115e-19)
(0.003 2.23035e-21 9.61691e-20)
(0.003 2.91551e-20 8.20039e-20)
(0.003 2.29006e-19 1.75084e-19)
(0.003 2.19712e-19 3.08483e-19)
(0.003 7.82499e-20 4.56969e-19)
(0.003 5.56275e-20 4.90533e-19)
(0.003 4.40307e-20 3.86711e-19)
(0.003 8.34476e-20 2.08998e-19)
(0.003 2.14547e-20 1.61516e-19)
(0.003 -7.41688e-20 1.24761e-19)
(0.003 -1.43521e-19 1.41875e-19)
(0.003 -4.59624e-20 1.7516e-19)
(0.003 1.45858e-19 1.9323e-19)
(0.003 8.54515e-20 2.37645e-20)
(0.003 8.65076e-20 -6.28208e-20)
(0.003 1.71737e-19 1.50147e-19)
(0.003 1.43866e-19 1.812e-19)
(0.003 1.00025e-19 6.25862e-20)
(0.003 6.51718e-20 3.13471e-20)
(0.003 4.58407e-20 -2.01959e-20)
(0.003 -3.04582e-20 -9.0393e-20)
(0.003 -1.32158e-19 -1.69288e-19)
(0.003 1.77606e-19 6.6676e-19)
(0.003 1.56597e-19 1.05297e-18)
(0.003 2.22825e-19 1.1308e-18)
(0.003 2.23241e-19 1.18539e-18)
(0.003 1.76556e-19 1.25105e-18)
(0.003 1.73744e-19 1.10331e-18)
(0.003 2.86672e-19 1.0632e-18)
(0.003 2.436e-19 1.13251e-18)
(0.003 2.60702e-19 1.1334e-18)
(0.003 3.68696e-19 1.01966e-18)
(0.003 2.46708e-19 8.91922e-19)
(0.003 1.44947e-19 8.0289e-19)
(0.003 8.55153e-20 6.91316e-19)
(0.003 1.88676e-19 5.82749e-19)
(0.003 1.60575e-19 5.81125e-19)
(0.003 1.01541e-19 5.85716e-19)
(0.003 6.68867e-20 3.64042e-19)
(0.003 1.26361e-19 1.77243e-19)
(0.003 2.84845e-19 1.03825e-19)
(0.003 2.33186e-19 1.29177e-19)
(0.003 2.27467e-19 2.00135e-19)
(0.003 1.13996e-19 3.52364e-19)
(0.003 -5.3031e-20 5.01692e-19)
(0.003 -7.09245e-20 5.07305e-19)
(0.003 -6.93927e-20 3.89919e-19)
(0.003 2.20606e-20 2.2374e-19)
(0.003 6.38791e-20 9.04819e-20)
(0.003 -7.45077e-21 6.27158e-20)
(0.003 -2.75337e-20 1.58994e-19)
(0.003 -5.09006e-20 2.27899e-19)
(0.003 -2.01243e-19 2.7262e-19)
(0.003 -6.87329e-20 1.15443e-19)
(0.003 1.57288e-19 8.36746e-20)
(0.003 1.68814e-19 1.92384e-19)
(0.003 2.42799e-19 6.99753e-20)
(0.003 8.87482e-20 -1.65629e-19)
(0.003 -3.42172e-20 -2.99412e-19)
(0.003 -1.40428e-19 -2.32095e-19)
(0.003 -2.41155e-19 -1.08678e-19)
(0.003 -1.55871e-19 -1.13307e-19)
(0.003 -7.33219e-20 6.60781e-19)
(0.003 1.13166e-20 1.19153e-18)
(0.003 1.76587e-19 1.30811e-18)
(0.003 2.54835e-19 1.32021e-18)
(0.003 1.6338e-19 1.22431e-18)
(0.003 2.51331e-19 1.21587e-18)
(0.003 3.03455e-19 1.19604e-18)
(0.003 1.53316e-19 1.07831e-18)
(0.003 1.24427e-19 1.07486e-18)
(0.003 2.40352e-19 1.12475e-18)
(0.003 2.27029e-19 9.27281e-19)
(0.003 5.01821e-20 8.17644e-19)
(0.003 -1.39835e-20 6.58937e-19)
(0.003 6.18924e-20 6.32579e-19)
(0.003 1.18849e-19 6.34455e-19)
(0.003 1.12904e-19 5.95183e-19)
(0.003 2.33769e-19 4.30756e-19)
(0.003 2.45459e-19 2.31643e-19)
(0.003 1.54259e-19 2.03903e-19)
(0.003 1.19924e-19 2.18513e-19)
(0.003 1.04954e-19 2.51442e-19)
(0.003 6.77498e-20 4.02618e-19)
(0.003 2.30363e-20 4.63985e-19)
(0.003 8.95535e-20 5.43941e-19)
(0.003 5.35348e-20 3.73368e-19)
(0.003 -8.3288e-20 1.67903e-19)
(0.003 -1.1604e-19 9.10683e-20)
(0.003 -2.04543e-20 7.61934e-20)
(0.003 8.28022e-20 9.37021e-20)
(0.003 -2.70558e-22 1.41292e-19)
(0.003 -1.72508e-19 1.6969e-19)
(0.003 -1.11999e-19 1.4331e-19)
(0.003 -2.87618e-21 1.88395e-19)
(0.003 -1.27498e-20 1.34927e-19)
(0.003 6.13064e-20 -7.27629e-20)
(0.003 2.18168e-19 -3.75562e-19)
(0.003 4.06236e-20 -3.41693e-19)
(0.003 -2.06504e-19 -2.4471e-19)
(0.003 -2.17178e-19 -1.4808e-19)
(0.003 -1.20006e-19 -8.10322e-20)
(0.003 -2.68924e-19 7.36993e-19)
(0.003 -4.79579e-20 1.11501e-18)
(0.003 1.72323e-19 1.33485e-18)
(0.003 2.55864e-19 1.41175e-18)
(0.003 1.64153e-19 1.33525e-18)
(0.003 2.03367e-19 1.30946e-18)
(0.003 3.04735e-19 1.29604e-18)
(0.003 2.43737e-19 1.1993e-18)
(0.003 1.74214e-19 1.03039e-18)
(0.003 1.9678e-19 1.05924e-18)
(0.003 2.16745e-19 9.4019e-19)
(0.003 -1.5809e-20 7.84469e-19)
(0.003 -1.98642e-20 6.66469e-19)
(0.003 -2.45553e-20 6.63417e-19)
(0.003 4.49681e-20 7.30127e-19)
(0.003 1.60073e-19 5.85946e-19)
(0.003 2.50155e-19 5.10234e-19)
(0.003 1.4505e-19 3.28666e-19)
(0.003 -6.77112e-20 1.26449e-19)
(0.003 6.41482e-21 1.4978e-19)
(0.003 1.1223e-19 3.39206e-19)
(0.003 1.34027e-19 4.49454e-19)
(0.003 8.17137e-20 5.04837e-19)
(0.003 5.13189e-20 5.57857e-19)
(0.003 8.85504e-20 4.44258e-19)
(0.003 -1.04595e-20 1.96453e-19)
(0.003 -1.25428e-19 1.90185e-20)
(0.003 -2.46841e-20 1.32522e-20)
(0.003 7.01953e-20 1.04742e-19)
(0.003 4.16268e-20 1.82306e-19)
(0.003 3.46934e-20 1.6508e-19)
(0.003 -3.89592e-20 1.44092e-19)
(0.003 -2.04099e-19 1.64054e-19)
(0.003 -2.10218e-19 9.94123e-20)
(0.003 -5.8575e-20 -4.3724e-20)
(0.003 2.52217e-19 -3.22897e-19)
(0.003 1.2101e-19 -4.81641e-19)
(0.003 -4.6867e-20 -3.36629e-19)
(0.003 1.57655e-20 -2.35601e-19)
(0.003 2.80164e-20 -1.74136e-19)
(0.003 1.18656e-19 7.6923e-19)
(0.003 1.9672e-19 1.24274e-18)
(0.003 1.87177e-19 1.4638e-18)
(0.003 2.09271e-19 1.46443e-18)
(0.003 2.18285e-19 1.33566e-18)
(0.003 2.28957e-19 1.33281e-18)
(0.003 2.3234e-19 1.3683e-18)
(0.003 2.25303e-19 1.23576e-18)
(0.003 1.11159e-19 1.05721e-18)
(0.003 1.77917e-19 9.98311e-19)
(0.003 2.46532e-19 9.35093e-19)
(0.003 7.61714e-20 8.86325e-19)
(0.003 7.76408e-20 6.97727e-19)
(0.003 5.03661e-20 6.10323e-19)
(0.003 3.20403e-20 7.27403e-19)
(0.003 1.32114e-19 7.32748e-19)
(0.003 9.9822e-20 5.87883e-19)
(0.003 -5.00518e-20 2.8068e-19)
(0.003 -6.23301e-20 5.68271e-20)
(0.003 4.77108e-20 1.07047e-19)
(0.003 1.62072e-19 3.33068e-19)
(0.003 1.90395e-19 5.26212e-19)
(0.003 2.7902e-20 5.43834e-19)
(0.003 -1.37384e-20 6.16187e-19)
(0.003 5.46399e-20 3.74418e-19)
(0.003 -6.41475e-20 9.06029e-20)
(0.003 -1.79084e-19 7.9341e-21)
(0.003 -5.11825e-20 6.78966e-20)
(0.003 7.17593e-20 2.99945e-20)
(0.003 1.8656e-20 2.04364e-19)
(0.003 2.0465e-20 2.89746e-19)
(0.003 1.65985e-20 1.57651e-19)
(0.003 -8.86862e-20 1.15548e-19)
(0.003 -1.59722e-19 4.37881e-20)
(0.003 -1.00145e-19 -4.41944e-20)
(0.003 -6.59938e-20 -2.76975e-19)
(0.003 2.50233e-20 -4.10297e-19)
(0.003 1.14318e-19 -2.69277e-19)
(0.003 1.54226e-19 -1.71922e-19)
(0.003 1.47244e-19 -1.81398e-19)
(0.003 3.14623e-19 8.86795e-19)
(0.003 2.83816e-19 1.34337e-18)
(0.003 1.72275e-19 1.44495e-18)
(0.003 1.20625e-19 1.40832e-18)
(0.003 2.33908e-19 1.3971e-18)
(0.003 2.49101e-19 1.43172e-18)
(0.003 1.7018e-19 1.34112e-18)
(0.003 2.02915e-19 1.21833e-18)
(0.003 1.58345e-19 9.70392e-19)
(0.003 7.70569e-20 1.03701e-18)
(0.003 1.36775e-19 1.03932e-18)
(0.003 1.16513e-19 8.7705e-19)
(0.003 1.59941e-19 7.89536e-19)
(0.003 2.11872e-19 6.75993e-19)
(0.003 9.50992e-20 6.82344e-19)
(0.003 -4.06294e-20 7.03772e-19)
(0.003 -9.97178e-20 5.86296e-19)
(0.003 2.71909e-20 2.96418e-19)
(0.003 2.79935e-19 9.19178e-20)
(0.003 2.06662e-19 1.88909e-19)
(0.003 2.59622e-20 3.11646e-19)
(0.003 -1.06485e-19 4.74831e-19)
(0.003 -9.53916e-20 4.88063e-19)
(0.003 -6.22077e-20 5.51915e-19)
(0.003 -1.02833e-19 4.23049e-19)
(0.003 -1.24632e-19 8.37648e-20)
(0.003 -9.73762e-20 1.33426e-21)
(0.003 2.39928e-20 1.3841e-19)
(0.003 -1.51174e-20 6.09138e-20)
(0.003 -1.07608e-19 1.65395e-19)
(0.003 1.02074e-20 2.49953e-19)
(0.003 3.08595e-20 1.94022e-19)
(0.003 -3.50265e-20 7.97449e-20)
(0.003 -5.35779e-20 -2.42584e-20)
(0.003 -9.83133e-20 -1.47429e-20)
(0.003 -2.36705e-19 -2.9269e-19)
(0.003 -1.00073e-19 -4.51194e-19)
(0.003 1.66922e-19 -2.13317e-19)
(0.003 1.77548e-19 -5.72786e-20)
(0.003 8.99754e-20 -2.05635e-19)
(0.003 2.8165e-19 9.51932e-19)
(0.003 2.80957e-19 1.36458e-18)
(0.003 1.66983e-19 1.44175e-18)
(0.003 1.43669e-19 1.46734e-18)
(0.003 8.17466e-20 1.46964e-18)
(0.003 5.13036e-20 1.41709e-18)
(0.003 9.48174e-20 1.29839e-18)
(0.003 4.99016e-20 1.19208e-18)
(0.003 2.43261e-19 1.10857e-18)
(0.003 2.36435e-19 1.0762e-18)
(0.003 4.96296e-20 9.87663e-19)
(0.003 6.86352e-20 8.67746e-19)
(0.003 2.09552e-19 8.07123e-19)
(0.003 2.92714e-19 7.55554e-19)
(0.003 1.18739e-19 7.42795e-19)
(0.003 -2.34566e-20 6.91546e-19)
(0.003 -8.94502e-20 5.23601e-19)
(0.003 8.04129e-21 2.96571e-19)
(0.003 1.25671e-19 2.63374e-19)
(0.003 1.17862e-19 2.33908e-19)
(0.003 8.00384e-20 2.90572e-19)
(0.003 -1.28811e-20 3.96661e-19)
(0.003 1.42996e-20 4.44078e-19)
(0.003 -2.63115e-20 4.81428e-19)
(0.003 -1.90776e-19 3.74877e-19)
(0.003 -9.24506e-20 1.14912e-19)
(0.003 3.93295e-20 -8.62834e-22)
(0.003 -3.59545e-22 4.94401e-20)
(0.003 -1.74119e-19 3.98664e-20)
(0.003 -2.2488e-19 1.43739e-19)
(0.003 -6.29095e-20 2.29995e-19)
(0.003 -3.07077e-20 1.74771e-19)
(0.003 3.36104e-20 6.49891e-20)
(0.003 8.65329e-20 8.83897e-20)
(0.003 -1.05163e-19 3.2673e-20)
(0.003 -1.79019e-19 -3.12645e-19)
(0.003 4.14715e-20 -3.85852e-19)
(0.003 1.66928e-19 -2.01043e-19)
(0.003 1.34228e-19 -1.42244e-19)
(0.003 7.37545e-20 -2.77065e-19)
(0.003 1.0476e-20 9.88453e-19)
(0.003 2.01309e-19 1.47374e-18)
(0.003 2.16809e-19 1.45845e-18)
(0.003 3.36159e-20 1.49748e-18)
(0.003 -1.03584e-19 1.45383e-18)
(0.003 -7.81995e-20 1.37859e-18)
(0.003 1.23471e-19 1.26684e-18)
(0.003 1.71174e-19 1.13429e-18)
(0.003 1.08169e-19 1.13214e-18)
(0.003 1.23268e-19 1.2027e-18)
(0.003 7.11752e-20 1.03912e-18)
(0.003 2.34553e-19 8.52325e-19)
(0.003 2.29674e-19 8.75195e-19)
(0.003 7.88652e-20 8.48186e-19)
(0.003 -9.60725e-21 7.73625e-19)
(0.003 -3.19979e-20 7.17807e-19)
(0.003 -5.2335e-20 5.31762e-19)
(0.003 9.33299e-20 3.23257e-19)
(0.003 1.29833e-19 2.05669e-19)
(0.003 7.39661e-20 2.13315e-19)
(0.003 1.86181e-19 3.29594e-19)
(0.003 6.86041e-20 4.49008e-19)
(0.003 -4.65471e-20 4.6283e-19)
(0.003 -8.36516e-20 4.98867e-19)
(0.003 -1.70531e-19 3.91573e-19)
(0.003 -4.69789e-20 4.81329e-20)
(0.003 1.84552e-19 -1.45772e-19)
(0.003 4.95732e-20 -1.12768e-19)
(0.003 -2.00748e-19 -1.23177e-19)
(0.003 -2.274e-19 1.93175e-19)
(0.003 -1.91022e-19 3.57948e-19)
(0.003 -8.83898e-20 2.1047e-19)
(0.003 5.37699e-20 9.17636e-20)
(0.003 3.40294e-20 7.47557e-20)
(0.003 -7.55124e-20 2.78205e-21)
(0.003 -4.39346e-20 -1.67018e-19)
(0.003 8.06574e-20 -4.10755e-19)
(0.003 1.27132e-19 -2.40016e-19)
(0.003 1.32936e-19 -2.48029e-19)
(0.003 6.2503e-20 -4.51133e-19)
(0.003 -2.07153e-19 9.95317e-19)
(0.003 -1.58138e-19 1.42776e-18)
(0.003 7.45956e-20 1.48773e-18)
(0.003 1.88495e-20 1.39213e-18)
(0.003 2.70188e-20 1.36559e-18)
(0.003 -8.10987e-21 1.40972e-18)
(0.003 1.05449e-19 1.41703e-18)
(0.003 2.23876e-19 1.24885e-18)
(0.003 7.50529e-20 1.14005e-18)
(0.003 -1.05156e-19 1.21081e-18)
(0.003 6.6387e-20 1.09073e-18)
(0.003 2.73355e-19 9.38473e-19)
(0.003 1.01978e-19 9.62596e-19)
(0.003 -7.69813e-20 8.38452e-19)
(0.003 -6.52223e-20 6.82676e-19)
(0.003 -7.35754e-20 6.93116e-19)
(0.003 -3.15548e-21 4.83404e-19)
(0.003 2.15724e-19 3.53247e-19)
(0.003 1.6127e-19 3.46651e-19)
(0.003 1.22484e-19 2.26994e-19)
(0.003 2.00063e-19 3.65628e-19)
(0.003 5.46384e-20 4.62987e-19)
(0.003 -1.42348e-19 5.23665e-19)
(0.003 -2.90194e-19 4.53297e-19)
(0.003 -2.31203e-19 2.47137e-19)
(0.003 -1.27275e-21 1.52559e-19)
(0.003 1.43998e-19 -1.26852e-19)
(0.003 7.1524e-21 -2.43047e-19)
(0.003 -1.62022e-19 7.07259e-21)
(0.003 -3.02308e-20 1.89695e-19)
(0.003 1.09095e-19 2.53779e-19)
(0.003 5.80054e-20 1.16798e-19)
(0.003 -8.60371e-20 5.04125e-20)
(0.003 -1.24843e-19 6.55003e-20)
(0.003 -7.98464e-20 1.23196e-19)
(0.003 1.98454e-20 -4.57753e-20)
(0.003 1.65454e-19 -3.97242e-19)
(0.003 1.99581e-19 -3.15878e-19)
(0.003 1.15947e-19 -3.8594e-19)
(0.003 4.32764e-20 -5.22875e-19)
(0.003 -9.92316e-20 9.26114e-19)
(0.003 -2.79347e-19 1.36441e-18)
(0.003 -1.60889e-19 1.55236e-18)
(0.003 -5.0444e-20 1.44273e-18)
(0.003 4.6429e-20 1.43041e-18)
(0.003 7.01321e-20 1.45956e-18)
(0.003 2.18486e-20 1.4263e-18)
(0.003 8.58716e-20 1.35823e-18)
(0.003 2.06811e-20 1.18833e-18)
(0.003 -8.37099e-20 1.06574e-18)
(0.003 5.79425e-20 1.12989e-18)
(0.003 1.61667e-19 1.09186e-18)
(0.003 1.07983e-21 1.00903e-18)
(0.003 -2.73153e-20 8.48374e-19)
(0.003 1.13939e-20 7.04816e-19)
(0.003 -2.35786e-20 6.73206e-19)
(0.003 -8.01438e-21 4.47846e-19)
(0.003 -4.92619e-20 3.38753e-19)
(0.003 8.86344e-20 3.48084e-19)
(0.003 2.54626e-19 3.50615e-19)
(0.003 9.06891e-20 4.01482e-19)
(0.003 3.8344e-20 5.34744e-19)
(0.003 -1.05945e-19 5.10398e-19)
(0.003 -2.98043e-19 3.10317e-19)
(0.003 -1.92795e-19 1.09415e-19)
(0.003 -9.68685e-20 1.68132e-19)
(0.003 -6.35813e-20 -6.73489e-20)
(0.003 -1.27854e-19 -2.53788e-19)
(0.003 -1.14065e-19 1.17838e-20)
(0.003 5.40237e-20 1.44319e-19)
(0.003 1.43636e-19 1.52786e-19)
(0.003 8.71073e-20 -1.21506e-20)
(0.003 -9.24891e-20 -4.95145e-20)
(0.003 -4.00947e-20 1.9895e-19)
(0.003 1.45301e-20 2.09151e-19)
(0.003 9.8985e-21 1.06196e-19)
(0.003 1.16893e-19 -1.81454e-19)
(0.003 1.4572e-19 -3.88674e-19)
(0.003 8.52744e-20 -3.98766e-19)
(0.003 1.2055e-19 -4.93213e-19)
(0.003 -1.40217e-19 8.67246e-19)
(0.003 -1.28286e-19 1.33158e-18)
(0.003 -2.61098e-21 1.5086e-18)
(0.003 -8.2178e-20 1.43053e-18)
(0.003 -1.37283e-19 1.44777e-18)
(0.003 -2.68548e-20 1.50702e-18)
(0.003 -1.11733e-20 1.47596e-18)
(0.003 -3.68706e-20 1.3289e-18)
(0.003 2.75094e-20 1.21598e-18)
(0.003 9.82746e-20 1.19019e-18)
(0.003 5.04901e-20 1.14775e-18)
(0.003 5.83091e-20 1.12754e-18)
(0.003 2.84632e-20 1.03827e-18)
(0.003 2.80198e-20 9.47012e-19)
(0.003 -8.92316e-20 6.56818e-19)
(0.003 -1.44327e-20 5.24332e-19)
(0.003 2.50651e-20 3.9162e-19)
(0.003 -1.26558e-19 3.41498e-19)
(0.003 -3.82833e-20 4.99796e-19)
(0.003 1.75944e-19 4.82417e-19)
(0.003 1.41796e-19 4.78361e-19)
(0.003 7.39529e-20 4.2899e-19)
(0.003 -1.14052e-19 3.56948e-19)
(0.003 -2.23567e-19 2.10891e-19)
(0.003 -1.55145e-19 7.79349e-20)
(0.003 -1.09322e-19 1.41003e-19)
(0.003 -1.95777e-19 -1.59573e-20)
(0.003 -2.67712e-19 -8.6837e-20)
(0.003 -1.16372e-19 6.45856e-20)
(0.003 1.53035e-21 1.02898e-19)
(0.003 -4.9343e-20 3.39853e-20)
(0.003 -7.44e-20 -1.1912e-19)
(0.003 3.06759e-20 5.22632e-21)
(0.003 3.59342e-20 2.15892e-19)
(0.003 6.52726e-20 2.75182e-19)
(0.003 1.16059e-19 1.53841e-19)
(0.003 7.00633e-20 -1.26871e-19)
(0.003 1.74321e-20 -3.79444e-19)
(0.003 7.45442e-21 -5.08883e-19)
(0.003 5.27738e-20 -5.2988e-19)
(0.003 -1.7732e-19 8.06622e-19)
(0.003 -2.01224e-19 1.38239e-18)
(0.003 -1.50444e-19 1.67276e-18)
(0.003 -5.18811e-21 1.52317e-18)
(0.003 5.05529e-20 1.39015e-18)
(0.003 -3.76504e-20 1.47278e-18)
(0.003 -1.20447e-19 1.49677e-18)
(0.003 -1.56758e-19 1.31768e-18)
(0.003 -2.59041e-20 1.25162e-18)
(0.003 2.64995e-20 1.2142e-18)
(0.003 3.8871e-20 1.14806e-18)
(0.003 3.19628e-20 1.13938e-18)
(0.003 6.78936e-20 1.03946e-18)
(0.003 3.08554e-20 9.666e-19)
(0.003 -4.71241e-21 7.05854e-19)
(0.003 2.13995e-20 5.92003e-19)
(0.003 1.21204e-19 4.26435e-19)
(0.003 2.53969e-19 2.26598e-19)
(0.003 1.99278e-19 2.46453e-19)
(0.003 -7.15355e-21 4.35639e-19)
(0.003 -1.2792e-19 5.45341e-19)
(0.003 -1.59632e-19 5.8844e-19)
(0.003 -9.75062e-20 3.61657e-19)
(0.003 -3.12813e-20 1.74402e-19)
(0.003 -7.90556e-20 6.51285e-20)
(0.003 -1.8017e-19 1.14422e-19)
(0.003 -2.30173e-19 1.17986e-19)
(0.003 -2.94772e-19 -1.83048e-20)
(0.003 -1.59824e-19 -5.4743e-21)
(0.003 -5.10215e-20 1.09138e-20)
(0.003 -7.95335e-21 -7.40578e-21)
(0.003 -9.26419e-21 -1.35471e-19)
(0.003 -4.01951e-21 -9.64214e-21)
(0.003 2.21298e-20 1.68238e-19)
(0.003 8.47251e-20 1.91044e-19)
(0.003 9.52432e-20 1.61477e-19)
(0.003 -2.48747e-20 -9.41617e-20)
(0.003 -9.59778e-20 -3.60119e-19)
(0.003 -2.0965e-20 -4.13858e-19)
(0.003 2.85831e-20 -4.31708e-19)
(0.003 -1.38404e-19 8.01664e-19)
(0.003 -2.62574e-19 1.34154e-18)
(0.003 -2.53823e-19 1.52642e-18)
(0.003 2.0321e-20 1.55794e-18)
(0.003 1.24572e-19 1.49556e-18)
(0.003 -1.0518e-19 1.41282e-18)
(0.003 -2.6606e-19 1.41957e-18)
(0.003 -1.46816e-19 1.37551e-18)
(0.003 3.81005e-20 1.32183e-18)
(0.003 4.30731e-20 1.25967e-18)
(0.003 -2.77561e-20 1.1544e-18)
(0.003 1.87266e-20 1.09662e-18)
(0.003 1.60588e-21 1.05014e-18)
(0.003 -3.57822e-20 9.81331e-19)
(0.003 1.44183e-19 7.0567e-19)
(0.003 6.68959e-20 5.69851e-19)
(0.003 7.28129e-21 4.87649e-19)
(0.003 1.37581e-19 4.42116e-19)
(0.003 2.62181e-19 3.55329e-19)
(0.003 1.06354e-20 3.41107e-19)
(0.003 -1.57041e-19 4.51245e-19)
(0.003 -1.49942e-19 4.86416e-19)
(0.003 -5.65258e-20 4.09531e-19)
(0.003 -3.343e-20 2.69636e-19)
(0.003 2.08026e-20 6.8065e-20)
(0.003 -1.79075e-19 3.28e-20)
(0.003 -1.3247e-19 4.76076e-20)
(0.003 -1.39643e-19 -5.99918e-20)
(0.003 -1.31882e-19 -9.99906e-21)
(0.003 2.57944e-20 -4.78963e-20)
(0.003 -7.89386e-20 5.22097e-20)
(0.003 -1.14327e-19 -1.64648e-20)
(0.003 -1.06799e-19 -3.39316e-20)
(0.003 -9.09356e-21 1.2122e-19)
(0.003 7.31066e-20 1.39146e-19)
(0.003 1.03355e-20 8.32143e-20)
(0.003 -4.22965e-20 -5.81109e-21)
(0.003 -6.70952e-20 -2.34967e-19)
(0.003 2.06883e-21 -3.60643e-19)
(0.003 5.25608e-20 -4.67558e-19)
(0.003 3.57282e-20 8.26089e-19)
(0.003 3.25058e-20 1.34558e-18)
(0.003 -3.15954e-20 1.49857e-18)
(0.003 -6.45915e-20 1.52172e-18)
(0.003 5.04122e-21 1.52183e-18)
(0.003 -1.04189e-19 1.40658e-18)
(0.003 -2.13876e-19 1.30727e-18)
(0.003 -2.37632e-19 1.37608e-18)
(0.003 -1.3437e-19 1.40982e-18)
(0.003 1.02404e-19 1.30109e-18)
(0.003 1.96147e-19 1.11656e-18)
(0.003 5.5442e-20 1.11683e-18)
(0.003 -9.3114e-22 9.5094e-19)
(0.003 -2.53645e-20 8.75523e-19)
(0.003 6.91325e-20 8.09697e-19)
(0.003 7.26807e-21 6.46966e-19)
(0.003 -1.13812e-19 4.2792e-19)
(0.003 -1.92542e-19 2.98601e-19)
(0.003 -9.74002e-20 4.24756e-19)
(0.003 3.61464e-21 3.8553e-19)
(0.003 -3.8706e-20 4.04902e-19)
(0.003 -4.59255e-20 5.54971e-19)
(0.003 -5.9865e-20 5.06789e-19)
(0.003 2.32151e-20 2.01383e-19)
(0.003 1.52692e-19 7.80808e-20)
(0.003 8.76644e-20 5.59399e-20)
(0.003 8.24552e-20 4.5541e-20)
(0.003 1.43369e-19 -6.08856e-20)
(0.003 2.32112e-20 -1.27042e-19)
(0.003 -9.394e-20 -6.75305e-20)
(0.003 -2.04145e-19 1.23904e-19)
(0.003 -1.86464e-19 3.36055e-20)
(0.003 -1.47459e-19 -8.9193e-20)
(0.003 -7.08538e-20 6.37037e-20)
(0.003 -6.95381e-21 1.3527e-19)
(0.003 4.30568e-20 1.0941e-19)
(0.003 4.63066e-20 1.63963e-20)
(0.003 -8.84211e-21 -2.3327e-19)
(0.003 -1.09535e-19 -5.16009e-19)
(0.003 -1.47205e-19 -5.68134e-19)
(0.003 2.22886e-19 8.12429e-19)
(0.003 2.62292e-19 1.30007e-18)
(0.003 -2.74008e-20 1.47444e-18)
(0.003 -1.84907e-19 1.53162e-18)
(0.003 -9.60966e-20 1.53469e-18)
(0.003 2.9343e-21 1.40223e-18)
(0.003 -2.50076e-20 1.29669e-18)
(0.003 -1.45926e-19 1.23991e-18)
(0.003 -2.12027e-19 1.25724e-18)
(0.003 3.37569e-20 1.40909e-18)
(0.003 2.52306e-19 1.36532e-18)
(0.003 -2.9673e-20 1.17109e-18)
(0.003 -4.26859e-20 1.02451e-18)
(0.003 1.47876e-19 8.27546e-19)
(0.003 5.04829e-20 7.39995e-19)
(0.003 -5.94627e-20 5.74723e-19)
(0.003 -1.29098e-19 3.60794e-19)
(0.003 -1.65741e-19 2.79305e-19)
(0.003 -2.55363e-19 4.08802e-19)
(0.003 -1.32536e-19 4.24063e-19)
(0.003 -3.73065e-20 4.76448e-19)
(0.003 -1.43891e-19 4.67988e-19)
(0.003 -8.8274e-20 3.95162e-19)
(0.003 8.23972e-20 2.73066e-19)
(0.003 1.36238e-19 1.59744e-19)
(0.003 2.26336e-19 1.38629e-19)
(0.003 8.17993e-20 4.52337e-20)
(0.003 1.7941e-19 -1.51183e-19)
(0.003 9.91807e-20 -2.01162e-19)
(0.003 -1.23985e-19 -1.40309e-19)
(0.003 -9.98779e-20 3.9653e-20)
(0.003 -1.12501e-19 -1.94343e-21)
(0.003 -4.6176e-20 -1.02575e-19)
(0.003 -1.96882e-21 4.3422e-20)
(0.003 -2.35657e-20 3.18567e-20)
(0.003 1.15539e-19 9.37914e-20)
(0.003 3.2556e-20 1.10261e-19)
(0.003 -7.3184e-20 -1.69226e-19)
(0.003 -2.24594e-19 -5.16184e-19)
(0.003 -3.25616e-19 -5.10168e-19)
(0.003 2.36483e-19 8.94888e-19)
(0.003 2.38314e-19 1.40629e-18)
(0.003 1.83047e-20 1.48743e-18)
(0.003 -6.87421e-20 1.46169e-18)
(0.003 -1.31845e-19 1.47296e-18)
(0.003 2.08808e-20 1.37476e-18)
(0.003 -6.08252e-20 1.30057e-18)
(0.003 -6.45512e-20 1.2314e-18)
(0.003 -3.80176e-21 1.29628e-18)
(0.003 -1.18395e-20 1.44053e-18)
(0.003 -3.35283e-20 1.3725e-18)
(0.003 -1.64684e-20 1.07124e-18)
(0.003 -2.6517e-20 9.32018e-19)
(0.003 -3.78663e-20 9.3906e-19)
(0.003 -4.96918e-20 7.61355e-19)
(0.003 -5.56867e-20 5.39659e-19)
(0.003 -1.76646e-19 3.25065e-19)
(0.003 -2.31658e-19 2.9022e-19)
(0.003 -3.05344e-19 3.23291e-19)
(0.003 -1.54819e-19 3.87901e-19)
(0.003 -9.12098e-20 5.76527e-19)
(0.003 -1.36398e-19 4.53049e-19)
(0.003 8.09254e-20 3.79965e-19)
(0.003 2.20389e-19 2.8747e-19)
(0.003 1.63387e-19 1.23027e-19)
(0.003 1.78184e-19 7.11647e-20)
(0.003 1.17282e-19 -3.39995e-20)
(0.003 1.61497e-19 -2.05136e-19)
(0.003 8.09862e-20 -1.66257e-19)
(0.003 -4.73462e-20 -1.44079e-19)
(0.003 7.17075e-20 -5.3912e-20)
(0.003 2.07129e-19 2.74905e-20)
(0.003 6.22732e-20 -7.55803e-20)
(0.003 -1.23866e-20 -5.00722e-20)
(0.003 6.04874e-20 4.76146e-20)
(0.003 7.86443e-20 1.29847e-19)
(0.003 -5.13051e-20 2.09833e-20)
(0.003 -2.2445e-19 -3.47563e-19)
(0.003 -1.67673e-19 -3.80429e-19)
(0.003 -1.32543e-19 -2.09037e-19)
(0.003 -6.89366e-20 9.48583e-19)
(0.003 -7.7942e-20 1.48174e-18)
(0.003 3.27084e-20 1.49176e-18)
(0.003 -3.77042e-20 1.41579e-18)
(0.003 -1.10465e-19 1.42516e-18)
(0.003 -2.70035e-22 1.46869e-18)
(0.003 1.49631e-20 1.29535e-18)
(0.003 8.23855e-20 1.14086e-18)
(0.003 -3.35395e-21 1.19312e-18)
(0.003 -1.64001e-19 1.3412e-18)
(0.003 -2.19704e-19 1.3517e-18)
(0.003 -8.03768e-20 1.2042e-18)
(0.003 -1.06267e-19 1.02881e-18)
(0.003 -1.48216e-19 7.84256e-19)
(0.003 -8.54198e-20 6.3434e-19)
(0.003 -1.67359e-19 5.89459e-19)
(0.003 -2.05893e-19 3.74668e-19)
(0.003 -1.82149e-19 2.17983e-19)
(0.003 -2.48883e-19 3.00919e-19)
(0.003 -2.30444e-19 4.26485e-19)
(0.003 -1.55722e-19 4.77656e-19)
(0.003 -7.64669e-20 4.34864e-19)