/*--------------------------------*- C++ -*----------------------------------*\
| =========                 |                                                 |
| \\      /  F ield         | OpenFOAM: The Open Source CFD Toolbox           |
|  \\    /   O peration     | Version:  v2012                                 |
|   \\  /    A nd           | Website:  www.openfoam.com                      |
|    \\/     M anipulation  |                                                 |
\*---------------------------------------------------------------------------*/
FoamFile
{
    version     2.0;
    format      ascii;
    class       surfaceScalarField;
    location    "130/topAir";
    object      phi;
}
// * * * * * * * * * * * * * * * * * * * * * * * * * * * * * * * * * * * * * //

dimensions      [1 0 -1 0 0 0 0];
oriented        oriented;


internalField   nonuniform List<scalar> 
3140
(
9.4001305e-06
-2.0676867e-07
7.5745503e-08
9.5145979e-06
-2.041839e-07
8.9947639e-08
9.6383431e-06
-2.0786619e-07
8.442605e-08
9.7445486e-06
-1.7763261e-07
7.1790836e-08
9.8249021e-06
-1.3400668e-07
5.4065649e-08
9.884548e-06
-8.9683977e-08
3.0492566e-08
9.9308715e-06
-4.8599349e-08
2.766982e-09
9.9928164e-06
-1.3881039e-08
-4.754213e-08
1.0075136e-05
3.2169896e-08
-1.1394242e-07
1.0190342e-05
9.1955041e-08
-2.0659383e-07
1.0347359e-05
1.798594e-07
-3.3629597e-07
1.0538219e-05
3.2426156e-07
-5.1453091e-07
1.0733513e-05
5.5666804e-07
-7.5137077e-07
1.09124e-05
8.7618447e-07
-1.0544967e-06
1.1034656e-05
1.2910224e-06
-1.4127307e-06
1.1082053e-05
1.755701e-06
-1.8025809e-06
1.1063841e-05
2.2100544e-06
-2.1913577e-06
1.1008822e-05
2.6025299e-06
-2.5470506e-06
1.0949409e-05
2.9070951e-06
-2.8472374e-06
1.0907818e-05
3.1226958e-06
-3.080669e-06
1.089475e-05
3.2596935e-06
-3.2461914e-06
1.0914352e-05
3.3311247e-06
-3.350291e-06
1.0966621e-05
3.3501052e-06
-3.4019366e-06
1.1046168e-05
3.3284991e-06
-3.4076172e-06
1.1135401e-05
3.2791909e-06
-3.3680326e-06
1.1191986e-05
3.2201539e-06
-3.276444e-06
1.1126883e-05
3.1824878e-06
-3.1172921e-06
1.075799e-05
3.2318032e-06
-2.8631802e-06
9.7112047e-06
3.5136446e-06
-2.4676867e-06
4.408752e-06
-1.853681e-06
9.1509168e-06
-1.7023608e-07
8.1520918e-08
9.1039722e-06
-2.6341201e-07
1.0618223e-07
9.0697257e-06
-2.8753355e-07
1.1393103e-07
9.0636124e-06
-2.9020806e-07
1.1871539e-07
9.0869535e-06
-2.7787246e-07
1.2056218e-07
9.1348831e-06
-2.5589141e-07
1.1832715e-07
9.2067287e-06
-2.3183517e-07
1.1145231e-07
9.3071251e-06
-2.12761e-07
9.8559162e-08
9.4542671e-06
-1.9156582e-07
7.6692828e-08
9.6643173e-06
-1.5834795e-07
4.0393963e-08
9.9544535e-06
-9.4026415e-08
-1.6042447e-08
1.0351779e-05
4.4751849e-08
-1.1752301e-07
1.0839039e-05
3.3514397e-07
-2.6534706e-07
1.1348439e-05
8.415738e-07
-4.74314e-07
1.1805062e-05
1.5793866e-06
-7.4445309e-07
1.2129527e-05
2.4859634e-06
-1.0541668e-06
1.2304822e-05
3.4002647e-06
-1.3649447e-06
1.2367749e-05
4.1846371e-06
-1.6444918e-06
1.2368034e-05
4.7854704e-06
-1.8781503e-06
1.234208e-05
5.2096054e-06
-2.0604873e-06
1.2314324e-05
5.4807656e-06
-2.1928877e-06
1.2298224e-05
5.6244527e-06
-2.2768269e-06
1.2298024e-05
5.6655729e-06
-2.314884e-06
1.2310464e-05
5.6242985e-06
-2.3078738e-06
1.2317374e-05
5.5198249e-06
-2.2472286e-06
1.2275456e-05
5.3738457e-06
-2.1115842e-06
1.209509e-05
5.2262163e-06
-1.8634547e-06
1.159865e-05
5.168708e-06
-1.441104e-06
1.049619e-05
5.3878433e-06
-7.7327424e-07
6.1233389e-06
1.4151731e-07
9.2029552e-06
-1.8735882e-07
8.312642e-08
9.074115e-06
-2.4382086e-07
1.0924997e-07
8.9228942e-06
-2.5538179e-07
1.1907032e-07
8.7625797e-06
-2.5672347e-07
1.2683167e-07
8.602526e-06
-2.5152825e-07
1.3371217e-07
8.4478558e-06
-2.4076665e-07
1.395491e-07
8.298929e-06
-2.2810518e-07
1.4520186e-07
8.1510768e-06
-2.170247e-07
1.5212269e-07
8.0057519e-06
-2.0922851e-07
1.6299674e-07
7.8732888e-06
-2.0606645e-07
1.8019447e-07
7.7878874e-06
-2.1249229e-07
2.0388577e-07
7.8312459e-06
-2.2688957e-07
2.2832589e-07
8.1078099e-06
-1.8087193e-07
2.3955629e-07
8.648847e-06
7.4286444e-08
2.2646697e-07
9.4103474e-06
6.3045504e-07
1.8779199e-07
1.0133649e-05
1.6346085e-06
1.2854447e-07
1.070999e-05
2.7326251e-06
9.1873845e-08
1.1145744e-05
3.6154852e-06
1.340073e-07
1.1467084e-05
4.2309889e-06
2.337415e-07
1.1688524e-05
4.6156735e-06
3.7304468e-07
1.1834317e-05
4.82324e-06
5.1221415e-07
1.1928868e-05
4.8952939e-06
6.3499766e-07
1.1983175e-05
4.8574637e-06
7.5408457e-07
1.2000674e-05
4.7379744e-06
8.6896973e-07
1.1964293e-05
4.5622229e-06
9.939495e-07
1.1841231e-05
4.3556992e-06
1.1409317e-06
1.1578965e-05
4.1529541e-06
1.3349141e-06
1.1087142e-05
4.0240928e-06
1.6353429e-06
1.0191687e-05
4.153969e-06
2.1275183e-06
4.9691599e-06
2.9479871e-06
9.0003981e-06
8.1193535e-08
8.6504123e-06
1.0616556e-07
8.2801914e-06
1.1483967e-07
7.9025522e-06
1.2091647e-07
7.5251479e-06
1.2587669e-07
7.1545856e-06
1.2979649e-07
6.7926671e-06
1.3381429e-07
6.4358551e-06
1.3978847e-07
6.0762196e-06
1.5040847e-07
5.7003789e-06
1.6977612e-07
5.2834092e-06
2.0448012e-07
4.790339e-06
2.6618511e-07
4.2349533e-06
3.745241e-07
3.7544474e-06
5.5483677e-07
3.5451228e-06
8.3995849e-07
3.8863326e-06
1.2937961e-06
4.7001141e-06
1.919391e-06
5.6961482e-06
2.6200599e-06
6.674155e-06
3.2536024e-06
7.5407284e-06
3.749696e-06
8.260037e-06
4.1044764e-06
8.8258884e-06
4.3299212e-06
9.2625278e-06
4.421225e-06
9.5758905e-06
4.4249223e-06
9.756696e-06
4.3816151e-06
9.7855618e-06
4.3268838e-06
9.647075e-06
4.2912888e-06
9.3783685e-06
4.2923393e-06
9.2017238e-06
4.3296246e-06
4.2683019e-06
9.5160638e-06
-2.0566703e-07
3.4456052e-08
9.7535655e-06
-2.0394344e-07
5.6619566e-08
9.9909876e-06
-2.1615992e-07
6.3466049e-08
1.0201132e-05
-2.0060425e-07
6.2607965e-08
1.0373882e-05
-1.75655e-07
5.7373459e-08
1.0512657e-05
-1.5546256e-07
4.7619056e-08
1.0627145e-05
-1.436335e-07
3.2382933e-08
1.0716945e-05
-1.4427524e-07
7.4279373e-09
1.0784957e-05
-1.6072039e-07
-2.0718917e-08
1.0835069e-05
-1.9765679e-07
-5.852229e-08
1.0871622e-05
-2.6080745e-07
-1.1151143e-07
1.0894913e-05
-3.5277226e-07
-1.8452626e-07
1.090417e-05
-4.7677933e-07
-2.8334291e-07
1.0927007e-05
-6.5956814e-07
-4.1730159e-07
1.0970226e-05
-8.6472637e-07
-5.9080467e-07
1.1044434e-05
-1.0708777e-06
-8.0553079e-07
1.1152496e-05
-1.2396264e-06
-1.0594302e-06
1.1286724e-05
-1.3371403e-06
-1.34377e-06
1.1436664e-05
-1.3589123e-06
-1.6378766e-06
1.1588337e-05
-1.3216571e-06
-1.9102751e-06
1.1729585e-05
-1.2533354e-06
-2.1336752e-06
1.1860868e-05
-1.1803641e-06
-2.3007545e-06
1.1992003e-05
-1.1169338e-06
-2.4156454e-06
1.2135779e-05
-1.0685552e-06
-2.4823115e-06
1.2299469e-05
-1.0312503e-06
-2.4999351e-06
1.2475994e-05
-9.8790006e-07
-2.4645958e-06
1.2630225e-05
-8.9821006e-07
-2.3730824e-06
1.2673071e-05
-6.8273337e-07
-2.2236277e-06
1.2462188e-05
-2.3052276e-07
-2.0274474e-06
1.4512149e-06
-1.7896021e-06
9.2787784e-06
-1.7135173e-07
3.7397473e-08
9.381129e-06
-2.6662367e-07
6.652127e-08
9.4929282e-06
-2.9488261e-07
8.0871081e-08
9.6288258e-06
-3.0554739e-07
8.7786243e-08
9.7889234e-06
-3.0601791e-07
9.0862292e-08
9.9641282e-06
-3.023639e-07
9.0068757e-08
1.0149346e-05
-3.0198746e-07
8.4643661e-08
1.0341678e-05
-3.1123483e-07
7.325325e-08
1.0540469e-05
-3.3652054e-07
5.3777562e-08
1.0745572e-05
-3.8531369e-07
2.3031959e-08
1.0960576e-05
-4.6717412e-07
-2.4587844e-08
1.1181464e-05
-5.9389943e-07
-9.7189468e-08
1.1417973e-05
-7.7443635e-07
-2.0410425e-07
1.165956e-05
-1.0181348e-06
-3.5724364e-07
1.1928549e-05
-1.3075539e-06
-5.7052837e-07
1.2229465e-05
-1.5740374e-06
-8.5183484e-07
1.2549408e-05
-1.7324128e-06
-1.1919991e-06
1.2865219e-05
-1.7384496e-06
-1.5588678e-06
1.3155651e-05
-1.6260873e-06
-1.9012633e-06
1.3392421e-05
-1.4505011e-06
-2.1682705e-06
1.3562598e-05
-1.2697666e-06
-2.3465019e-06
1.3678567e-05
-1.115581e-06
-2.4574658e-06
1.3750167e-05
-9.7559844e-07
-2.5277328e-06
1.3799048e-05
-8.6415112e-07
-2.5611152e-06
1.3853719e-05
-7.9058425e-07
-2.5425851e-06
1.3967317e-05
-7.6139936e-07
-2.4517657e-06
1.4265608e-05
-7.7743168e-07
-2.2825922e-06
1.5007884e-05
-8.1470178e-07
-2.0512228e-06
1.6675032e-05
-8.8672691e-07
-1.7833744e-06
-6.8669423e-07
-1.6156923e-06
9.3323698e-06
-1.8966225e-07
3.8026052e-08
9.3540712e-06
-2.4716133e-07
6.808704e-08
9.3542752e-06
-2.601174e-07
8.4102403e-08
9.3469069e-06
-2.6474859e-07
9.3402861e-08
9.3397414e-06
-2.6488428e-07
9.9746443e-08
9.3348958e-06
-2.6156107e-07
1.0359517e-07
9.3318103e-06
-2.5866676e-07
1.0497114e-07
9.3289625e-06
-2.6022622e-07
1.0396761e-07
9.3250553e-06
-2.7022539e-07
1.0061599e-07
9.3194162e-06
-2.9408988e-07
9.4618667e-08
9.3130274e-06
-3.4129164e-07
8.44026e-08
9.310115e-06
-4.2819014e-07
6.5541745e-08
9.3198044e-06
-5.7642749e-07
3.1874254e-08
9.3649727e-06
-8.0357909e-07
-3.3234831e-08
9.5001104e-06
-1.0970107e-06
-1.5785547e-07
9.754661e-06
-1.3630944e-06
-3.3688887e-07
1.0107943e-05
-1.4335664e-06
-5.60147e-07
1.0519722e-05
-1.2423799e-06
-7.7368135e-07
1.0935388e-05
-9.0871549e-07
-8.9916436e-07
1.1284789e-05
-5.4764292e-07
-8.7916876e-07
1.1478073e-05
-1.9800648e-07
-7.5288433e-07
1.157138e-05
1.23443e-08
-5.8633719e-07
1.1606902e-05
1.5598784e-07
-4.1323419e-07
1.1623568e-05
2.2123301e-07
-2.3353252e-07
1.1647804e-05
2.2167289e-07
-4.3235886e-08
1.1669818e-05
1.6492755e-07
1.9161314e-07
1.1723515e-05
6.1995253e-08
4.4054367e-07
1.1853973e-05
-7.1795043e-08
7.6079022e-07
1.219354e-05
-2.0518877e-07
1.1054922e-06
-3.634131e-07
1.3304454e-06
9.123526e-06
3.6955701e-08
8.9167795e-06
6.5751349e-08
8.6907278e-06
8.0774537e-08
8.4576897e-06
8.9206669e-08
8.223924e-06
9.4758825e-08
7.994125e-06
9.8035186e-08
7.7699628e-06
9.9310652e-08
7.5503686e-06
9.9157515e-08
7.3321872e-06
9.8365671e-08
7.1097783e-06
9.8096715e-08
6.8726982e-06
1.0027061e-07
6.6024306e-06
1.0826502e-07
6.2726551e-06
1.2787608e-07
5.8569127e-06
1.6701062e-07
5.3569366e-06
2.4296864e-07
4.8796144e-06
4.0817954e-07
4.6336317e-06
7.3215424e-07
4.7646575e-06
1.2471735e-06
5.1925208e-06
1.9176124e-06
5.7393891e-06
2.6557532e-06
6.2885486e-06
3.3578089e-06
6.7468128e-06
3.8843566e-06
7.1359724e-06
4.1883141e-06
7.4481729e-06
4.3341736e-06
7.6658173e-06
4.3859186e-06
7.7712414e-06
4.3867133e-06
7.7669821e-06
4.3579669e-06
7.7007405e-06
4.2869292e-06
7.6627644e-06
4.1619597e-06
3.8141798e-06
9.491933e-06
-2.0674102e-07
1.8371424e-08
9.7206065e-06
-2.0377138e-07
3.1948076e-08
9.9584921e-06
-2.1309031e-07
3.8974156e-08
1.0172823e-05
-1.9292372e-07
4.1560925e-08
1.0351962e-05
-1.6296031e-07
4.1601535e-08
1.0497488e-05
-1.3736478e-07
3.9904075e-08
1.0613392e-05
-1.198502e-07
3.6809519e-08
1.0700139e-05
-1.1140243e-07
3.2593662e-08
1.0763379e-05
-1.11467e-07
2.8042643e-08
1.080439e-05
-1.2174403e-07
2.2765105e-08
1.0821823e-05
-1.448025e-07
1.642816e-08
1.0812266e-05
-1.8287111e-07
8.4836234e-09
1.076696e-05
-2.3771435e-07
2.6741502e-10
1.0712996e-05
-3.527012e-07
-1.0062135e-08
1.0651644e-05
-5.0250235e-07
-2.6393904e-08
1.0604485e-05
-7.0483747e-07
-5.3009586e-08
1.0606242e-05
-9.6579942e-07
-9.4900694e-08
1.0688497e-05
-1.2661471e-06
-1.5941766e-07
1.085941e-05
-1.5599746e-06
-2.4836844e-07
1.1081485e-05
-1.7890302e-06
-3.4288679e-07
1.1305825e-05
-1.9358581e-06
-4.2173491e-07
1.1506405e-05
-2.0247831e-06
-4.7613257e-07
1.168688e-05
-2.0902538e-06
-5.0545109e-07
1.1865182e-05
-2.1505547e-06
-5.0967512e-07
1.2055248e-05
-2.2018312e-06
-4.8790403e-07
1.2259369e-05
-2.2249632e-06
-4.4374937e-07
1.2469071e-05
-2.1876075e-06
-3.9558609e-07
1.2631886e-05
-2.0017236e-06
-3.8586844e-07
1.2479304e-05
-1.3912165e-06
-4.860422e-07
7.785096e-08
-8.8054903e-07
9.2508604e-06
-1.7091554e-07
1.9681939e-08
9.3426022e-06
-2.6542293e-07
3.6440385e-08
9.4553479e-06
-2.9176995e-07
4.6821802e-08
9.5973425e-06
-2.9927168e-07
5.2165271e-08
9.7664473e-06
-2.9533999e-07
5.4172745e-08
9.9517422e-06
-2.8577322e-07
5.3228621e-08
1.0145039e-05
-2.7741347e-07
4.8967242e-08
1.034092e-05
-2.7470306e-07
4.0741705e-08
1.0536458e-05
-2.8079731e-07
2.765088e-08
1.0729321e-05
-2.9935529e-07
7.8711447e-09
1.0916337e-05
-3.3609779e-07
-2.0206417e-08
1.1095247e-05
-3.9869368e-07
-6.0167282e-08
1.1268278e-05
-4.9759358e-07
-1.1713884e-07
1.1410744e-05
-6.5331499e-07
-1.9897651e-07
1.1534564e-05
-8.812381e-07
-3.1549451e-07
1.1651551e-05
-1.1922607e-06
-4.8128427e-07
1.1784721e-05
-1.5780251e-06
-7.1282761e-07
1.1954995e-05
-1.9790774e-06
-1.0160772e-06
1.2154937e-05
-2.3022974e-06
-1.3587247e-06
1.2313117e-05
-2.4656616e-06
-1.6496586e-06
1.2367823e-05
-2.4879518e-06
-1.8489614e-06
1.2307915e-05
-2.450198e-06
-1.9720063e-06
1.2164577e-05
-2.4292997e-06
-2.0452463e-06
1.1982989e-05
-2.4495005e-06
-2.080547e-06
1.1805425e-05
-2.4909105e-06
-2.0760115e-06
1.1679187e-05
-2.5239067e-06
-2.0267562e-06
1.1704494e-05
-2.5526284e-06
-1.943057e-06
1.2188039e-05
-2.6391009e-06
-1.8973026e-06
1.3911564e-05
-2.7515948e-06
-2.1458769e-06
-2.5388259e-06
-2.6756159e-06
9.3053789e-06
-1.892289e-07
1.9919396e-08
9.3173178e-06
-2.4628121e-07
3.7007299e-08
9.3196454e-06
-2.5812692e-07
4.8132956e-08
9.3204592e-06
-2.6125323e-07
5.4572418e-08
9.3263492e-06
-2.5944172e-07
5.79606e-08
9.3389449e-06
-2.5347068e-07
5.8700353e-08
9.3568215e-06
-2.4683201e-07
5.6517601e-08
9.3778193e-06
-2.4266252e-07
5.0935137e-08
9.3996501e-06
-2.4325959e-07
4.1254877e-08
9.4197144e-06
-2.5112734e-07
2.633551e-08
9.4342788e-06
-2.7043494e-07
4.1862899e-09
9.4382854e-06
-3.0803006e-07
-2.9115792e-08
9.4268069e-06
-3.7496354e-07
-7.9262843e-08
9.3863104e-06
-4.9078114e-07
-1.5525652e-07
9.3013827e-06
-6.8402358e-07
-2.7012558e-07
9.1917384e-06
-9.7727724e-07
-4.4220822e-07
9.1036435e-06
-1.3592541e-06
-6.9078895e-07
9.0850325e-06
-1.7224919e-06
-1.0115861e-06
9.131667e-06
-1.9063708e-06
-1.3416403e-06
9.1444409e-06
-1.8340387e-06
-1.523506e-06
8.9914133e-06
-1.5815093e-06
-1.5062551e-06
8.6566025e-06
-1.2886414e-06
-1.4130763e-06
8.2285794e-06
-1.0739177e-06
-1.3406705e-06
7.811821e-06
-9.8297511e-07
-1.2835248e-06
7.493583e-06
-1.0158152e-06
-1.2005502e-06
7.3606351e-06
-1.1463495e-06
-1.0534633e-06
7.4017537e-06
-1.3741571e-06
-7.7938899e-07
7.7365414e-06
-1.7157912e-06
-4.9710114e-07
9.0381284e-06
-2.2083599e-06
-7.3752232e-07
-2.6783482e-06
-1.6849381e-06
9.097241e-06
1.943614e-08
8.8807653e-06
3.5946529e-08
8.656868e-06
4.6545528e-08
8.4322917e-06
5.2530367e-08
8.2120551e-06
5.5554431e-08
8.0004945e-06
5.612584e-08
7.7988436e-06
5.4130393e-08
7.6060169e-06
4.932279e-08
7.4197759e-06
4.134838e-08
7.2370766e-06
2.9670152e-08
7.0531262e-06
1.3788014e-08
6.8604588e-06
-7.0953549e-09
6.6486123e-06
-3.5238145e-08
6.3951382e-06
-7.0292637e-08
6.0659056e-06
-1.118148e-07
5.6490006e-06
-1.5216599e-07
5.1830198e-06
-1.6102104e-07
4.789612e-06
-8.1646839e-08
4.6636768e-06
1.3758326e-07
4.8311964e-06
6.5462669e-07
4.9864856e-06
1.6213637e-06
5.1153592e-06
2.4670484e-06
5.260851e-06
2.9690025e-06
5.4377609e-06
3.1743361e-06
5.6065333e-06
3.2014063e-06
5.7156173e-06
3.1314339e-06
5.7122112e-06
2.9875174e-06
5.6208812e-06
2.6627297e-06
5.8121423e-06
1.7628344e-06
-3.2465187e-07
9.4866261e-06
-2.0683158e-07
7.6839955e-09
9.7081321e-06
-2.0332406e-07
1.3996627e-08
9.9408243e-06
-2.1135167e-07
1.7936943e-08
1.0151601e-05
-1.8878727e-07
1.9932037e-08
1.0328128e-05
-1.55174e-07
2.0654926e-08
1.0471811e-05
-1.238856e-07
2.0553942e-08
1.0586849e-05
-9.7610088e-08
1.9862106e-08
1.0676988e-05
-7.5776133e-08
1.8742114e-08
1.0745487e-05
-5.72824e-08
1.7363965e-08
1.0794047e-05
-4.1262622e-08
1.6030051e-08
1.0822821e-05
-2.6958409e-08
1.5197119e-08
1.0829456e-05
-1.3552976e-08
1.6006908e-08
1.0805369e-05
4.2709149e-09
2.0703133e-08
1.0777264e-05
-5.6649081e-09
2.4330671e-08
1.0744609e-05
-1.899951e-08
2.5881859e-08
1.0711927e-05
-4.7169848e-08
2.7469e-08
1.0696248e-05
-1.090398e-07
3.046087e-08
1.0731922e-05
-2.3201631e-07
3.7600565e-08
1.0867648e-05
-4.3806216e-07
5.4632682e-08
1.1068905e-05
-6.4452484e-07
1.0092198e-07
1.1288612e-05
-8.0501214e-07
1.6398115e-07
1.1505977e-05
-9.2479696e-07
2.3166856e-07
1.1719919e-05
-1.02344e-06
3.0447431e-07
1.1930354e-05
-1.1119557e-06
3.9241218e-07
1.2118024e-05
-1.1812363e-06
5.0645628e-07
1.2241142e-05
-1.2106629e-06
6.4495986e-07
1.2229966e-05
-1.1538274e-06
7.7109748e-07
1.1907358e-05
-8.520213e-07
7.9084867e-07
1.0810197e-05
7.6744945e-08
5.3689503e-07
2.9082343e-06
-1.2986827e-07
9.2443666e-06
-1.7067533e-07
8.1293729e-09
9.3264811e-06
-2.647903e-07
1.5801505e-08
9.4310119e-06
-2.9022732e-07
2.1183456e-08
9.5661353e-06
-2.9597739e-07
2.4257779e-08
9.72877e-06
-2.8910652e-07
2.5506268e-08
9.9076756e-06
-2.7469456e-07
2.5178424e-08
1.0094518e-05
-2.5862736e-07
2.3199719e-08
1.0284125e-05
-2.4389419e-07
1.9322784e-08
1.0473153e-05
-2.3175448e-07
1.3176414e-08
1.0658821e-05
-2.2317914e-07
4.2133234e-09
1.0839543e-05
-2.1947083e-07
-8.3094539e-09
1.1013966e-05
-2.2263497e-07
-2.5389524e-08
1.1182925e-05
-2.3354651e-07
-4.8140407e-08
1.1325464e-05
-2.6953917e-07
-7.7491413e-08
1.1451251e-05
-3.4081808e-07
-1.1930492e-07
1.1564148e-05
-4.6132978e-07
-1.7985262e-07
1.1675363e-05
-6.6657869e-07
-2.6630956e-07
1.1818588e-05
-1.0080064e-06
-3.8308038e-07
1.2039881e-05
-1.5028906e-06
-5.1496937e-07
1.2197323e-05
-1.8332951e-06
-6.18205e-07
1.2240448e-05
-1.9767163e-06
-7.2029608e-07
1.2171225e-05
-1.9847087e-06
-8.4280105e-07
1.2021114e-05
-1.9506413e-06
-9.6793624e-07
1.1813262e-05
-1.9308428e-06
-1.0539844e-06
1.1539724e-05
-1.9279739e-06
-1.0562611e-06
1.1191351e-05
-1.9279681e-06
-9.6224913e-07
1.0876536e-05
-1.942134e-06
-8.4233449e-07
1.0898448e-05
-1.9424604e-06
-8.3326712e-07
1.1059702e-05
-9.7738677e-07
-1.2612749e-06
2.0196114e-06
-1.9469314e-06
9.2992101e-06
-1.891911e-07
8.1839532e-09
9.3017444e-06
-2.4624864e-07
1.5932248e-08
9.2958856e-06
-2.5777385e-07
2.1539502e-08
9.2896669e-06
-2.6013832e-07
2.49537e-08
9.2889536e-06
-2.5702042e-07
2.6590333e-08
9.2952438e-06
-2.4891084e-07
2.6629791e-08
9.3070506e-06
-2.3885178e-07
2.4939737e-08
9.3221907e-06
-2.2930816e-07
2.1214932e-08
9.3382472e-06
-2.2154976e-07
1.5001244e-08
9.3522698e-06
-2.1653044e-07
5.673499e-09
9.3610934e-06
-2.157902e-07
-8.3064964e-09
9.3603472e-06
-2.2186063e-07
-2.9130433e-08
9.3471296e-06
-2.3896844e-07
-6.0607195e-08
9.3055058e-06
-2.7737485e-07
-1.057785e-07
9.2176635e-06
-3.5285542e-07
-1.7022469e-07
9.0660011e-06
-4.8922739e-07
-2.6262385e-07
8.838075e-06
-7.3659162e-07
-3.9281942e-07
8.5713761e-06
-1.187973e-06
-5.6489052e-07
8.4057705e-06
-1.9333773e-06
-7.4564075e-07
8.0037495e-06
-2.1688931e-06
-7.8613517e-07
7.4679768e-06
-2.1558628e-06
-7.9139996e-07
6.8120049e-06
-1.8821509e-06
-8.5965495e-07
6.1057381e-06
-1.6165461e-06
-9.6857612e-07
5.3995877e-06
-1.4972103e-06
-1.0113415e-06
4.725711e-06
-1.5201192e-06
-9.3526204e-07
4.0627807e-06
-1.6552632e-06
-6.6437216e-07
3.4586026e-06
-1.9387262e-06
-1.7992631e-07
3.4600445e-06
-2.4681068e-06
2.6271887e-08
4.6863924e-06
-2.6384987e-06
-3.0775904e-07
5.0605568e-08
-3.4958314e-07
9.0912319e-06
7.96349e-09
8.8655337e-06
1.5396751e-08
8.6336264e-06
2.0679528e-08
8.4022507e-06
2.3768477e-08
8.1757042e-06
2.5081126e-08
7.9580944e-06
2.4825589e-08
7.7504645e-06
2.2909419e-08
7.5514015e-06
1.9078733e-08
7.3582258e-06
1.2975587e-08
7.1670842e-06
4.2828542e-09
6.974004e-06
-8.9201177e-09
6.7729964e-06
-2.7946029e-08
6.5536611e-06
-5.4868327e-08
6.2987484e-06
-9.2751323e-08
5.9793829e-06
-1.4530035e-07
5.5566066e-06
-2.1861162e-07
4.9860591e-06
-3.2706093e-07
4.2312154e-06
-5.1481922e-07
3.3190318e-06
-8.8404675e-07
2.8232584e-06
-1.0196622e-06
2.3854877e-06
-9.6549207e-08
2.2149887e-06
7.5533479e-07
2.2560409e-06
1.3110924e-06
2.4041097e-06
1.5286595e-06
2.5141213e-06
1.5709569e-06
2.4151619e-06
1.5750154e-06
1.8252547e-06
1.639018e-06
3.8138768e-07
1.6399015e-06
-9.5530177e-07
4.5913523e-07
-1.5845432e-06
9.4839169e-06
-2.0705115e-07
-7.4757879e-11
9.7018179e-06
-2.0355424e-07
-1.1977213e-10
9.9316641e-06
-2.1144339e-07
-1.6243965e-10
1.0140653e-05
-1.8848517e-07
-2.115297e-10
1.0316171e-05
-1.541849e-07
-2.7060434e-10
1.0459428e-05
-1.219142e-07
-3.4206578e-10
1.0574552e-05
-9.4352274e-08
-4.280178e-10
1.0665255e-05
-7.0920201e-08
-5.283796e-10
1.0734335e-05
-5.0537033e-08
-6.4113554e-10
1.0783968e-05
-3.2275028e-08
-7.6501011e-10
1.0816323e-05
-1.5673526e-08
-9.0047499e-10
1.0832751e-05
1.2171418e-09
-1.0368055e-09
1.0814374e-05
4.085004e-08
-1.1539931e-09
1.0799488e-05
4.1082999e-08
-1.2568448e-09
1.0779349e-05
4.7971966e-08
-1.3486619e-09
1.0756952e-05
5.191498e-08
-1.4518956e-09
1.0766915e-05
2.2762273e-08
-1.6654832e-09
1.0858767e-05
-5.0325483e-08
-3.1381055e-09
1.108346e-05
-1.6228056e-07
-6.8338767e-09
1.1337402e-05
-1.3813373e-07
-1.397684e-08
1.1568957e-05
-4.6685682e-08
-2.0028037e-08
1.1806409e-05
2.0413265e-08
-2.5514204e-08
1.2082953e-05
6.0566652e-08
-3.2025288e-08
1.2407938e-05
1.0979141e-07
-4.1868122e-08
1.2730297e-05
2.3974858e-07
-5.5395086e-08
1.2901757e-05
5.4652936e-07
-7.3226524e-08
1.265166e-05
1.1109652e-06
-9.0730058e-08
1.1507944e-05
2.0359638e-06
-1.033422e-07
8.6083394e-06
3.5398151e-06
-1.05818e-07
6.1881663e-06
-8.6496005e-08
9.2407912e-06
-1.7065294e-07
-8.9728506e-11
9.3179355e-06
-2.6472631e-07
-1.6144455e-10
9.4178795e-06
-2.899457e-07
-2.4138801e-10
9.5492286e-06
-2.9521343e-07
-3.373086e-10
9.7085859e-06
-2.8754757e-07
-4.5264842e-10
9.8843764e-06
-2.7189189e-07
-5.8783778e-10
1.0068023e-05
-2.5399561e-07
-7.4503815e-10
1.0254091e-05
-2.3666872e-07
-9.2739039e-10
1.0438886e-05
-2.2093517e-07
-1.1378868e-09
1.0619749e-05
-2.074523e-07
-1.3779802e-09
1.079481e-05
-1.9729449e-07
-1.6418866e-09
1.0964211e-05
-1.9151096e-07
-1.9384385e-09
1.1133977e-05
-1.7464667e-07
-2.2620486e-09
1.1272167e-05
-1.7178842e-07
-2.6400347e-09
1.1394025e-05
-1.8984476e-07
-3.1543423e-09
1.1509549e-05
-2.3920321e-07
-4.0115814e-09
1.1647314e-05
-3.7481146e-07
-5.9698263e-09
1.1895832e-05
-6.6992576e-07
-1.133985e-08
1.2346541e-05
-1.1032361e-06
-2.4080014e-08
1.2651024e-05
-1.0216008e-06
-3.8735086e-08
1.2804118e-05
-8.7665306e-07
-4.3049901e-08
1.2869153e-05
-8.4790823e-07
-3.9147785e-08
1.2891146e-05
-8.9684328e-07
-3.2754185e-08
1.2937055e-05
-9.645558e-07
-2.6139077e-08
1.3075946e-05
-9.3244993e-07
-2.3589388e-08
1.3277112e-05
-5.9065544e-07
-2.6031546e-08
1.3323497e-05
2.5273288e-07
-2.6904996e-08
1.23692e-05
2.2111303e-06
-4.5803166e-08
9.6151694e-06
5.1365097e-06
-9.1053544e-08
1.0509333e-05
-1.8364687e-07
9.295732e-06
-1.8915219e-07
-9.0002136e-11
9.2932954e-06
-2.4619443e-07
-1.6208819e-10
9.2826976e-06
-2.5756265e-07
-2.4459669e-10
9.2723824e-06
-2.5959619e-07
-3.4662941e-10
9.2678687e-06
-2.5596818e-07
-4.7286416e-10
9.2703396e-06
-2.4710392e-07
-6.2564877e-10
9.278046e-06
-2.3594974e-07
-8.080269e-10
9.2884672e-06
-2.2484436e-07
-1.0245849e-09
9.2986921e-06
-2.1486927e-07
-1.2820668e-09
9.3051381e-06
-2.0662377e-07
-1.5915556e-09
9.3023393e-06
-2.0080634e-07
-1.9843157e-09
9.282509e-06
-1.9835561e-07
-2.4415653e-09
9.2498842e-06
-1.9959841e-07
-3.0137396e-09
9.18587e-06
-2.0978575e-07
-3.746885e-09
9.0727722e-06
-2.4219052e-07
-4.7566458e-09
8.8942658e-06
-3.1688116e-07
-6.4066136e-09
8.6327816e-06
-4.9598921e-07
-1.0101005e-08
8.3638412e-06
-9.4660501e-07
-1.9208504e-08
8.4982745e-06
-1.9382423e-06
-4.5374814e-08
7.8128528e-06
-1.0531044e-06
-6.9508009e-08
6.8996368e-06
-7.0017773e-07
-5.4681457e-08
5.9101942e-06
-7.0038829e-07
-1.7582173e-08
4.8292667e-06
-8.0137919e-07
1.6944999e-08
3.8081866e-06
-9.9906862e-07
4.3830565e-08
3.103447e-06
-1.2124213e-06
4.8108968e-08
3.152359e-06
-1.3377296e-06
3.1414669e-08
4.4236212e-06
-1.1653981e-06
-3.6226666e-08
6.3981607e-06
3.398119e-07
-7.7151205e-08
8.4629231e-06
3.0301879e-06
-2.6576396e-07
5.8674674e-06
-1.6037573e-06
9.0878499e-06
-8.8188976e-11
8.8572105e-06
-1.5767279e-10
8.6205652e-06
-2.3722452e-10
8.3850745e-06
-3.3640963e-10
8.1546483e-06
-4.6008769e-10
7.9329818e-06
-6.111232e-10
7.7207357e-06
-7.9324534e-10
7.5159828e-06
-1.0117569e-09
7.3153649e-06
-1.2745047e-09
7.114623e-06
-1.5974366e-09
6.9069361e-06
-2.037578e-09
6.6831447e-06
-2.5079201e-09
6.4317747e-06
-3.0938706e-09
6.1330566e-06
-3.8154666e-09
5.7502879e-06
-4.7180824e-09
5.2206933e-06
-5.8941885e-09
4.4052074e-06
-7.5712427e-09
2.9543556e-06
-1.0739232e-08
1.5015555e-07
-1.9715322e-08
-1.9833877e-06
5.4764745e-08
-2.8870549e-06
1.0547487e-07
-3.0124687e-06
1.7928045e-07
-2.7197874e-06
2.154779e-07
-2.3879553e-06
1.9590857e-07
-2.19163e-06
1.6011438e-07
-2.0918687e-06
1.3496032e-07
-1.7616624e-06
1.3854078e-07
-1.2398722e-08
2.0032745e-07
2.8421583e-06
5.8477294e-07
2.1072238e-06
9.4839122e-06
-2.0704982e-07
-7.8300789e-09
9.7018038e-06
-2.0354592e-07
-1.4234927e-08
9.931637e-06
-2.1142652e-07
-1.826552e-08
1.014061e-05
-1.8845957e-07
-2.0364671e-08
1.0316108e-05
-1.5414539e-07
-2.1215591e-08
1.0459345e-05
-1.2186014e-07
-2.1272411e-08
1.0574452e-05
-9.4278404e-08
-2.0774952e-08
1.0665143e-05
-7.081599e-08
-1.9892216e-08
1.0734228e-05
-5.0388069e-08
-1.8800803e-08
1.0783914e-05
-3.2076885e-08
-1.781285e-08
1.0816465e-05
-1.545445e-08
-1.7415189e-08
1.0833268e-05
1.5545113e-09
-1.879318e-08
1.0815495e-05
4.1403445e-08
-2.4167925e-08
1.080165e-05
4.1897083e-08
-2.8697704e-08
1.0783012e-05
4.9287214e-08
-3.1392467e-08
1.0762025e-05
5.4648392e-08
-3.4512124e-08
1.0767119e-05
3.3391107e-08
-3.9560266e-08
1.0851246e-05
-3.7291095e-08
-4.951477e-08
1.106423e-05
-1.4851459e-07
-7.1040588e-08
1.1317373e-05
-1.460294e-07
-1.2080266e-07
1.1546227e-05
-6.2928963e-08
-1.8551863e-07
1.1775057e-05
-1.6143246e-09
-2.5217556e-07
1.2032559e-05
3.1208454e-08
-3.2039976e-07
1.2334463e-05
5.5452345e-08
-3.9893229e-07
1.2630911e-05
1.4794491e-07
-4.9957724e-07
1.2796312e-05
3.8205759e-07
-6.2066909e-07
1.2565911e-05
8.6950815e-07
-7.3010453e-07
1.1474667e-05
1.7242368e-06
-7.3677596e-07
8.6967158e-06
3.147386e-06
-4.7526767e-07
5.6403332e-06
2.0578838e-07
9.2407817e-06
-1.7065255e-07
-8.2984078e-09
9.3179132e-06
-2.6472383e-07
-1.6105687e-08
9.41784e-06
-2.8993966e-07
-2.1638185e-08
9.5491654e-06
-2.9520304e-07
-2.4893524e-08
9.7084933e-06
-2.8753059e-07
-2.635955e-08
9.8842457e-06
-2.7186504e-07
-2.6288912e-08
1.0067847e-05
-2.5395512e-07
-2.4611989e-08
1.0253872e-05
-2.3660733e-07
-2.1090603e-08
1.0438638e-05
-2.208428e-07
-1.5368088e-08
1.0619525e-05
-2.0732721e-07
-6.9197064e-09
1.0794653e-05
-1.9718867e-07
5.0707343e-09
1.0964284e-05
-1.9126992e-07
2.1374107e-08
1.1134502e-05
-1.7410684e-07
4.3163759e-08
1.1273338e-05
-1.7071255e-07
7.1276227e-08
1.1395898e-05
-1.8769182e-07
1.1140084e-07
1.1511165e-05
-2.3418118e-07
1.6964019e-07
1.1644614e-05
-3.5929763e-07
2.5317255e-07
1.1871525e-05
-6.4261408e-07
3.669163e-07
1.2292246e-05
-1.0907081e-06
4.9718805e-07
1.2587515e-05
-1.0795677e-06
5.9950426e-07
1.2716372e-05
-9.3556348e-07
7.0082799e-07
1.2743475e-05
-8.9658306e-07
8.288842e-07
1.2712454e-05
-9.393418e-07
9.6943164e-07
1.2671612e-05
-1.0102709e-06
1.0810654e-06
1.2688439e-05
-1.0161625e-06
1.1240079e-06
1.2788178e-05
-8.1411874e-07
1.0715428e-06
1.2777174e-05
-1.1685378e-07
9.7393428e-07
1.1937799e-05
1.5319727e-06
9.9269716e-07
9.3575864e-06
4.2189395e-06
1.426157e-06
7.5889803e-06
2.2121344e-06
9.2957232e-06
-1.8915221e-07
-8.3547072e-09
9.2932722e-06
-2.4619398e-07
-1.6240018e-08
9.2826541e-06
-2.5756162e-07
-2.2003324e-08
9.2723104e-06
-2.5959443e-07
-2.5609845e-08
9.2677588e-06
-2.5596515e-07
-2.7484259e-08
9.2701821e-06
-2.4709858e-07
-2.7812007e-08
9.2778314e-06
-2.359403e-07
-2.6467652e-08
9.288188e-06
-2.2482702e-07
-2.3155494e-08
9.2983388e-06
-2.1483762e-07
-1.7430529e-08
9.3046375e-06
-2.0657471e-07
-8.6333789e-09
9.3018016e-06
-2.0077009e-07
4.4445228e-09
9.2819848e-06
-1.9826745e-07
2.4386542e-08
9.249576e-06
-1.9932936e-07
5.4634065e-08
9.1860523e-06
-2.0910863e-07
9.8191867e-08
9.0736894e-06
-2.4051684e-07
1.6045231e-07
8.8955394e-06
-3.1231163e-07
2.4989393e-07
8.6316392e-06
-4.8181145e-07
3.7632379e-07
8.3312612e-06
-9.0692171e-07
5.4547354e-07
8.3410865e-06
-1.8729018e-06
7.2712478e-07
7.6693017e-06
-1.2574362e-06
7.8063832e-07
6.6766133e-06
-7.8756081e-07
7.9027895e-07
5.6387099e-06
-7.5936439e-07
8.8326962e-07
4.5586497e-06
-8.6417499e-07
1.0222196e-06
3.5616769e-06
-1.0722072e-06
1.1038096e-06
2.8165195e-06
-1.2962472e-06
1.0755536e-06
2.6185831e-06
-1.4695793e-06
8.881781e-07
3.4629291e-06
-1.4439453e-06
4.5049781e-07
4.8749902e-06
-1.4116582e-07
1.8685695e-07
5.0318914e-06
3.0762672e-06
7.2606926e-07
9.6644585e-06
2.1916526e-06
9.0878413e-06
-8.1313652e-09
8.8571879e-06
-1.5697585e-08
8.6205217e-06
-2.1132105e-08
8.3850013e-06
-2.4409742e-08
8.1545347e-06
-2.5958005e-08
7.9328173e-06
-2.599153e-08
7.7205109e-06
-2.4426245e-08
7.5156913e-06
-2.1018051e-08
7.3149909e-06
-1.5410493e-08
7.1140087e-06
-7.1883491e-09
6.9064579e-06
4.745059e-09
6.682862e-06
2.2822954e-08
6.4321069e-06
4.8334854e-08
6.1349339e-06
8.4252776e-08
5.7557037e-06
1.340001e-07
5.2343012e-06
2.0320317e-07
4.4395207e-06
3.054082e-07
3.0390376e-06
4.8287778e-07
3.1559572e-07
8.3161574e-07
-1.9392157e-06
1.0592402e-06
-2.9343992e-06
3.1485355e-07
-3.0100555e-06
-5.0305035e-07
-2.5944859e-06
-1.0621502e-06
-2.1346706e-06
-1.3334405e-06
-1.8501743e-06
-1.4173958e-06
-1.7700627e-06
-1.4106528e-06
-1.6970999e-06
-1.3727278e-06
-3.9567033e-07
-1.2332345e-06
4.0218725e-06
-7.3740927e-07
-6.5810326e-07
9.4866076e-06
-2.0683243e-07
-1.849794e-08
9.7080785e-06
-2.0331612e-07
-3.2158359e-08
9.9407216e-06
-2.1133188e-07
-3.9272139e-08
1.0151433e-05
-1.8874879e-07
-4.1965562e-08
1.0327879e-05
-1.5511301e-07
-4.2139796e-08
1.0471465e-05
-1.2379977e-07
-4.0611148e-08
1.0586394e-05
-9.7495251e-08
-3.7726607e-08
1.0676402e-05
-7.5626523e-08
-3.3761206e-08
1.0744684e-05
-5.7087208e-08
-2.945624e-08
1.0792955e-05
-4.0997092e-08
-2.4524314e-08
1.0821387e-05
-2.6601512e-08
-1.8663017e-08
1.0827977e-05
-1.3150851e-08
-1.1632139e-08
1.0803084e-05
4.8490738e-09
-3.5085068e-09
1.0773578e-05
-5.0115365e-09
6.4358459e-09
1.0738605e-05
-1.8420277e-08
2.2616585e-08
1.0702779e-05
-4.6316721e-08
4.8236641e-08
1.0682257e-05
-1.0781609e-07
8.93517e-08
1.0710273e-05
-2.3081964e-07
1.537837e-07
1.0836728e-05
-4.4155278e-07
2.4443058e-07
1.1039166e-05
-6.6685965e-07
3.4399271e-07
1.1264261e-05
-8.3907767e-07
4.2896767e-07
1.1484027e-05
-9.6036558e-07
4.8909845e-07
1.1697028e-05
-1.0575304e-06
5.249471e-07
1.1904698e-05
-1.1437849e-06
5.3809448e-07
1.2089621e-05
-1.2122189e-06
5.2871233e-07
1.2211368e-05