/*--------------------------------*- C++ -*----------------------------------*\
| =========                 |                                                 |
| \\      /  F ield         | OpenFOAM: The Open Source CFD Toolbox           |
|  \\    /   O peration     | Version:  v2012                                 |
|   \\  /    A nd           | Website:  www.openfoam.com                      |
|    \\/     M anipulation  |                                                 |
\*---------------------------------------------------------------------------*/
FoamFile
{
    version     2.0;
    format      ascii;
    class       volScalarField;
    location    "130/topAir";
    object      rho;
}
// * * * * * * * * * * * * * * * * * * * * * * * * * * * * * * * * * * * * * //

dimensions      [1 -3 0 0 0 0 0];


internalField   nonuniform List<scalar> 
1200
(
1.10502
1.0591804
1.0207119
0.98766076
0.95859509
0.93257134
0.90897084
0.88746171
0.86811277
0.8509349
0.8357686
0.82254965
0.81138851
0.80542584
0.80146341
0.79967403
0.80001424
0.80214121
0.80549081
0.80942609
0.81338362
0.81696414
0.81993586
0.82219037
0.82366608
0.82425343
0.82369717
0.82145925
0.8165295
0.808127
1.1574048
1.1551008
1.1519386
1.1480641
1.1435896
1.1386014
1.1331739
1.1273592
1.1201963
1.1108268
1.0984151
1.0817264
1.0603611
1.0354079
1.0086204
0.98282962
0.96051516
0.94300964
0.93048234
0.92227327
0.91735766
0.91466167
0.91323982
0.91232957
0.91126072
0.90931557
0.90552969
0.89830253
0.88475645
0.86184987
1.1585927
1.1585157
1.1583727
1.1581493
1.1578336
1.1574149
1.1568842
1.1562332
1.1554291
1.1544175
1.15311
1.1509404
1.1449631
1.1317045
1.109486
1.0798617
1.0472421
1.0162012
0.98962089
0.96849857
0.95259789
0.94109501
0.93297649
0.92726082
0.92306318
0.91956808
0.91592275
0.91096907
0.90261262
0.88760347
1.1586181
1.1586155
1.1586094
1.1585975
1.1585769
1.1585442
1.1584954
1.1584255
1.1583283
1.1581944
1.1580082
1.1577205
1.1570997
1.1550272
1.1457323
1.1223647
1.0894666
1.0561845
1.0267058
1.0020766
0.98218715
0.96651016
0.95437951
0.94508541
0.93792583
0.93222915
0.92732291
0.92239465
0.91606386
0.90595444
1.1050257
1.0596669
1.0220196
0.99006435
0.96236373
0.93802047
0.91646824
0.89737812
0.88059898
0.86613444
0.85411576
0.84471566
0.83821323
0.83856781
0.84160896
0.84676795
0.85306454
0.85941005
0.86507291
0.86971474
0.8732843
0.87590397
0.87774239
0.87895019
0.87955853
0.87936562
0.87778339
0.87353443
0.86426509
0.85138379
1.1574062
1.1551458
1.1521036
1.1484486
1.144315
1.139813
1.1350428
1.1301085
1.1251137
1.1201951
1.115539
1.1112935
1.1076538
1.1049084
1.103065
1.1018265
1.1006071
1.098857
1.0964106
1.0933101
1.0896624
1.0854879
1.0807058
1.0752532
1.0690196
1.061868
1.0537016
1.0444997
1.0339955
1.0088947
1.1585927
1.1585179
1.1583823
1.158176
1.1578921
1.1575258
1.1570748
1.1565393
1.1559221
1.1552294
1.1544717
1.1536502
1.1526829
1.1514197
1.1496643
1.1468971
1.1419867
1.1341366
1.1240045
1.1125092
1.1006883
1.0884577
1.0749558
1.0607517
1.0461631
1.0315054
1.0167212
1.0009339
0.98310513
0.96208867
1.1586181
1.1586156
1.1586099
1.1585992
1.1585812
1.1585536
1.1585138
1.1584589
1.1583859
1.1582913
1.1581706
1.1580145
1.1577845
1.1572713
1.1552376
1.147842
1.1302731
1.1029158
1.0720997
1.0433802
1.0188521
0.99879865
0.98360648
0.97162511
0.96175315
0.95320936
0.94541629
0.93821331
0.93101796
0.92275534
1.1050274
1.0595764
1.0218243
0.98975273
0.96191157
0.93738962
0.91560387
0.89617185
0.87882855
0.86342923
0.84992372
0.83834041
0.82888421
0.82659109
0.82685716
0.83011172
0.83666371
0.84620532
0.85755705
0.86892494
0.87891014
0.8869825
0.89324941
0.89799557
0.90135051
0.90317336
0.903005
0.89961685
0.8895729
0.86724253
1.157406
1.1551377
1.1520819
1.1484109
1.1442596
1.1397361
1.1349339
1.1299412
1.1248463
1.1197472
1.1147618
1.1100373
1.1057625
1.1023377
1.0999991
1.0989267
1.0990841
1.0999769
1.100705
1.1002564
1.0981719
1.0944481
1.089187
1.0823588
1.0738023
1.0633945
1.0512151
1.0372545
1.0207758
0.99725244
1.1585927
1.1585175
1.1583812
1.1581741
1.1578896
1.1575235
1.157074
1.1565414
1.1559287
1.1552421
1.1544926
1.1536978
1.152884
1.1520948
1.1513763
1.1507045
1.1497089
1.1472331
1.1417154
1.1323597
1.1204772
1.1074379
1.0937704
1.0791399
1.0630332
1.0454137
1.0271789
1.0089828
0.99002342
0.96922692
1.1586181
1.1586156
1.1586099
1.1585991
1.1585811
1.1585538
1.1585145
1.158461
1.1583905
1.1583007
1.1581892
1.1580537
1.1578903
1.1576835
1.1573297
1.1562768
1.1525306
1.141895
1.1209204
1.0921818
1.0622426
1.0351859
1.0131058
0.99572541
0.98197106
0.97070858
0.96103594
0.95238421
0.94414414
0.93337605
1.105031
1.0595526
1.0217376
0.98956595
0.96157565
0.93682963
0.91470067
0.89473829
0.87660258
0.86002806
0.84479485
0.8307152
0.81777184
0.8116849
0.80613888
0.80121442
0.79731391
0.79532542
0.79659202
0.800709
0.80641373
0.81269388
0.81900263
0.82503125
0.83038695
0.83449929
0.83641454
0.83370699
0.82075582
0.80517204
1.157406
1.1551351
1.1520708
1.1483829
1.1442026
1.1396312
1.1347505
1.1296288
1.1243246
1.11889
1.1133768
1.1078368
1.1021948
1.0970476
1.0923943
1.0884523
1.0856286
1.0845209
1.0854755
1.086469
1.0860193
1.0833802
1.0784814
1.0713997
1.0619852
1.0500036
1.0352409
1.0168381
0.99171299
0.92963431
1.1585927
1.1585174
1.1583806
1.1581723
1.1578856
1.1575157
1.1570597
1.1565162
1.1558853
1.1551684
1.1543686
1.1534916
1.1525443
1.1515541
1.1505589
1.1496168
1.1488185
1.1482277
1.1469603
1.1391483
1.127105
1.1113982
1.0935619
1.0740544
1.052772
1.0306127
1.0091986
0.98826823
0.96456337
0.92991384
1.1586181
1.1586156
1.1586099
1.158599
1.1585809
1.1585532
1.1585134
1.158459
1.1583871
1.158295
1.1581798
1.1580385
1.1578681
1.1576652
1.1574239
1.1571238
1.1566836
1.1556951
1.1505431
1.1209765
1.0954684
1.0641344
1.0356086
1.0135059
0.99671167
0.98331854
0.97187031
0.96107356
0.94572397
0.90347716
1.105029
1.0595374
1.0216989
0.98949514
0.96146308
0.93666237
0.91446123
0.89440354
0.87614172
0.85940133
0.84396294
0.82964785
0.81674063
0.81254093
0.80838737
0.80401825
0.79907692
0.79382962
0.78996232
0.7853991
0.77943209
0.77318124
0.76766792
0.76300246
0.75927195
0.75645099
0.75419096
0.75145825
0.74603164
0.73600336
1.1574059
1.1551337
1.1520655
1.1483702
1.144178
1.1395886
1.1346813
1.1295204
1.1241587
1.1186409
1.1130069
1.107228
1.1001187
1.0933813
1.086869
1.0808521
1.0767624
1.0750891
1.0754496
1.0742091
1.0715451
1.0675092
1.061614
1.0533909
1.0406319
1.0204617
0.99087743
0.95080356
0.89862846
0.83305336
1.1585927
1.1585174
1.1583803
1.1581714
1.1578836
1.1575119
1.1570528
1.1565046
1.1558664
1.1551383
1.1543213
1.153415
1.1523931
1.151274
1.1500818
1.1488689
1.1477812
1.1470078
1.1450051
1.1318913
1.1199152
1.1070308
1.0909473
1.069648
1.0434774
1.0164515
0.99511633
0.97722263
0.9388436
0.87863964
1.1586181
1.1586156
1.1586098
1.1585989
1.1585807
1.1585529
1.1585128
1.1584579
1.1583851
1.1582917
1.1581743
1.1580295
1.1578525
1.1576381
1.1573802
1.157069
1.1566623
1.1556138
1.1462439
1.0594298
1.0369117
1.0278033
1.0135818
0.99788981
0.98283935
0.96895466
0.95645201
0.94484594
0.92758473
0.8872518
1.1050281
1.0595356
1.0216966
0.98949255
0.96145997
0.9366592
0.91445788
0.89439916
0.87613493
0.85939137
0.8439508
0.82964068
0.81673879
0.81254042
0.80838642
0.80401428
0.79905824
0.79354456
0.78942114
0.78503978
0.7794213
0.77334272
0.76790895
0.76331069
0.7596207
0.75681261
0.75456736
0.75188951
0.74660258
0.73696507
1.1574059
1.1551336
1.1520653
1.1483699
1.1441776
1.1395881
1.1346806
1.1295193
1.1241571
1.1186387
1.1130036
1.1072125
1.1000832
1.0933162
1.0867539
1.0806196
1.0761021
1.074283
1.074643
1.0736975
1.0712211
1.0677133
1.0625598
1.0555895
1.0447632
1.0273915
1.0007084
0.96186278
0.90859529
0.84018952
1.1585927
1.1585174
1.1583803
1.1581714
1.1578836
1.1575118
1.1570528
1.1565045
1.1558663
1.1551381
1.154321
1.1534142
1.1523913
1.1512702
1.1500739
1.1488506
1.1477326
1.1469354
1.1452922
1.132
1.119223
1.1056294
1.0891705
1.0680931
1.0429445
1.0167632
0.99459482
0.97882636
0.94446917
0.8834664
1.1586181
1.1586156
1.1586098
1.1585989
1.1585807
1.1585529
1.1585128
1.1584578
1.1583851
1.1582916
1.1581742
1.1580294
1.1578524
1.157638
1.15738
1.1570694
1.1566725
1.1557723
1.148061
1.0693309
1.0388048
1.0285703
1.0164692
1.0023643
0.9881544
0.97440608
0.96164714
0.95016349
0.937005
0.89557242
1.1050291
1.059549
1.0217327
0.9895599
0.96156872
0.93682266
0.91469396
0.89473133
0.8765934
0.86001495
0.84478081
0.83070306
0.81776861
0.81167326
0.80611837
0.80117827
0.7972523
0.79523113
0.79655153
0.80106239
0.80731661
0.81408538
0.82076546
0.82704986
0.83259129
0.83687119
0.83897947
0.83664656
0.8247226
0.80887894
1.157406
1.1551349
1.1520705
1.1483824
1.1442019
1.1396302
1.1347492
1.129627
1.1243221
1.1188867
1.1133722
1.1078303
1.102168
1.09702
1.0923657
1.0884202
1.085576
1.0844373
1.0854212
1.0866626
1.0863159
1.083648
1.0786722
1.0715858
1.0623445
1.0507453
1.0365372
1.0188181
0.99444467
0.93471522
1.1585927
1.1585174
1.1583806
1.1581723
1.1578856
1.1575157
1.1570596
1.156516
1.155885
1.1551679
1.1543679
1.1534907
1.1525425
1.1515514
1.1505552
1.1496115
1.148808
1.1482139
1.147062
1.1395288
1.1267686
1.110505
1.0923657
1.0729438
1.0521982
1.0307791
1.010165
0.99043821
0.96837286
0.93600475
1.1586181
1.1586156
1.1586099
1.158599
1.1585809
1.1585532
1.1585134
1.158459
1.1583871
1.1582949
1.1581797
1.1580383
1.1578677
1.1576646
1.1574228
1.1571217
1.1566808
1.1557291
1.1509854
1.12325
1.0941463
1.06369
1.0362135
1.0148429
0.99838316
0.98512115
0.97375619
0.96319626
0.95038976
0.9137782
1.1050262
1.0595745
1.0218239
0.98975475
0.96191625
0.93739983
0.91562049
0.89619353
0.87885383
0.86345675
0.84995976
0.83839109
0.82895018
0.82667994
0.82697828
0.83028596
0.83691275
0.84652701
0.85791859
0.86932002
0.87931982
0.88735921
0.89351571
0.89805555
0.901119
0.90259637
0.90204533
0.89825186
0.88791444
0.86616571
1.157406
1.1551376
1.1520818
1.1484109
1.1442597
1.1397365
1.1349348
1.1299428
1.1248487
1.1197507
1.114767
1.1100455
1.105775
1.1023576
1.1000302
1.0989719
1.0991373
1.1000111
1.1006973
1.1002445
1.09816
1.0944156
1.0891176
1.0822781
1.0737987
1.063604
1.0517744
1.038326
1.022537
0.9993898
1.1585927
1.1585175
1.1583812
1.1581741
1.1578896
1.1575235
1.157074
1.1565414
1.1559286
1.155242
1.1544925
1.1536977
1.1528842
1.1520955
1.1513777
1.150704
1.1496899
1.1471547
1.1415825
1.1322321
1.12025
1.1070766
1.0933125
1.0787347
1.0629193
1.0458161
1.0281358
1.0105818
0.99252014
0.97268761
1.1586181
1.1586156
1.1586099
1.1585991
1.1585811
1.1585537
1.1585145
1.1584609
1.1583905
1.1583006
1.1581891
1.1580534
1.1578899
1.1576824
1.1573247
1.1562501
1.1524135
1.1415386
1.1203288
1.0915594
1.0617815
1.0350507
1.0132442
0.99606531
0.98244927
0.97129345
0.96170657
0.95305639
0.94481803
0.93584386
1.1050208
1.0596594
1.022012
0.99005886
0.96236256
0.9380259
0.91648066
0.89739736
0.88062313
0.86616327
0.8541528
0.84476479
0.83827783
0.83864832
0.84170622
0.84687784
0.8531746
0.85950553
0.86515251
0.86980796
0.87342377
0.87609711
0.87796329
0.87914557
0.87965912
0.87929949
0.8774686
0.8728794
0.86324075
0.85048678
1.1574061
1.1551455
1.1521031
1.148448
1.1443142
1.1398122
1.1350423
1.1301083
1.1251139
1.1201956
1.115541
1.1112983
1.1076628
1.1049228
1.1030848
1.101845
1.1006104
1.0988349
1.0963741
1.093292
1.0896842
1.0855514
1.0808013
1.0753763
1.0691871
1.0621225
1.0541073
1.0451424
1.0349707
1.0092171
1.1585927
1.1585179
1.1583823
1.158176
1.157892
1.1575257
1.1570746
1.156539
1.1559217
1.1552288
1.1544709
1.1536492
1.1526817
1.1514169
1.1496558
1.146868
1.1419147
1.1340342
1.1239785
1.1126802
1.1010687
1.0890233
1.0756746
1.0616026
1.0470939
1.0324217
1.017583
1.0018756
0.98403415
0.96285377
1.1586181
1.1586156
1.1586099
1.1585992
1.1585812
1.1585536
1.1585138
1.1584589
1.1583858
1.1582911
1.1581703
1.1580139
1.1577834
1.1572676
1.1552151
1.1477372
1.1299917
1.1024457
1.071549
1.0428796
1.018487
0.99857747
0.9835099
0.97164771
0.96189796
0.9534964
0.94584758
0.93860087
0.93135162
0.92299685
1.1050131
1.0591689
1.0206985
0.98764784
0.95858621
0.93257022
0.90897874
0.88747852
0.8681377
0.85096633
0.83580638
0.82259429
0.81144099
0.80548484
0.80153053
0.79975221
0.80010527
0.80224296
0.80560084
0.80954925
0.81352963
0.81713858
0.82013462
0.8223978
0.82385495
0.824391
0.82374945
0.8213938
0.81633081
0.80786216
1.1574046
1.1551003
1.1519378
1.1480629
1.143588
1.1385996
1.133172
1.1273575
1.1201957
1.1108297
1.0984213
1.0817306
1.060358
1.0353896
1.0085829
0.98277464
0.96044941
0.9429473
0.93045142
0.92231314
0.917493
0.91488944
0.91353761
0.91266863
0.91161515
0.90966487
0.90584965
0.89854916
0.88484275
0.86173677
1.1585927
1.1585157
1.1583726
1.1581493
1.1578335
1.1574148
1.156884
1.1562327
1.1554285
1.1544167
1.1531092
1.1509454
1.1449729
1.1317003
1.1094427
1.0797618
1.0470858
1.0160065
0.98942181
0.96833999
0.95251769
0.94111022
0.93308325
0.92744258
0.92329903
0.91983805
0.91620713
0.91123999
0.90280911
0.8876389
1.1586181
1.1586155
1.1586094
1.1585975
1.1585769
1.1585442
1.1584953
1.1584255
1.1583282
1.1581942
1.1580078
1.1577199
1.1570983
1.1550242
1.1456776
1.1221618
1.0891334
1.0557947
1.0263126
1.0017265
0.98191947
0.96634622
0.95432001
0.94511791
0.9380334
0.93239555
0.92753365
0.92263216
0.91629483
0.90610561
)
;

boundaryField
{
    maxY
    {
        type            calculated;
        value           nonuniform List<scalar> 
300
(
1.1586175
1.1586175
1.1586175
1.1586175
1.1586175
1.1586175
1.1586175
1.1586175
1.1586175
1.1586175
1.158615
1.1586151
1.1586151
1.1586151
1.1586151
1.1586151
1.1586151
1.1586151
1.1586151
1.158615
1.1586089
1.1586094
1.1586094
1.1586093
1.1586093
1.1586093
1.1586093
1.1586094
1.1586094
1.1586089
1.158597
1.1585986
1.1585986
1.1585985
1.1585984
1.1585984
1.1585985
1.1585986
1.1585986
1.158597
1.1585764
1.1585807
1.1585806
1.1585803
1.1585802
1.1585802
1.1585803
1.1585806
1.1585807
1.1585764
1.1585437
1.1585531
1.1585532
1.1585527
1.1585523
1.1585523
1.1585527
1.1585532
1.1585531
1.1585437
1.1584948
1.1585133
1.158514
1.1585129
1.1585123
1.1585123
1.1585129
1.158514
1.1585132
1.1584948
1.158425
1.1584584
1.1584604
1.1584585
1.1584573
1.1584573
1.1584584
1.1584604
1.1584583
1.158425
1.1583278
1.1583854
1.15839
1.1583866
1.1583846
1.1583846
1.1583865
1.1583899
1.1583853
1.1583277
1.1581939
1.1582908
1.1583002
1.1582945
1.1582911
1.1582911
1.1582944
1.1583001
1.1582906
1.1581936
1.1580077
1.1581701
1.1581887
1.1581793
1.1581737
1.1581737
1.1581791
1.1581886
1.1581698
1.1580073
1.15772
1.158014
1.1580532
1.158038
1.158029
1.1580289
1.1580378
1.1580529
1.1580134
1.1577194
1.1570991
1.157784
1.1578898
1.1578676
1.1578519
1.1578518
1.1578672
1.1578893
1.1577828
1.1570977
1.1550267
1.1572708
1.157683
1.1576647
1.1576376
1.1576374
1.1576641
1.1576818
1.1572671
1.1550236
1.1457318
1.1552371
1.1573291
1.1574234
1.1573797
1.1573795
1.1574223
1.1573241
1.1552146
1.1456771
1.1223642
1.1478415
1.1562762
1.1571233
1.1570685
1.1570688
1.1571212
1.1562496
1.1477367
1.1221613
1.0894662
1.1302726
1.1525301
1.1566831
1.1566617
1.156672
1.1566802
1.152413
1.1299912
1.089133
1.0561841
1.1029153
1.1418945
1.1556945
1.1556132
1.1557718
1.1557285
1.1415381
1.1024453
1.0557942
1.0267054
1.0720992
1.1209199
1.1505426
1.1462434
1.1480605
1.1509849
1.1203283
1.0715485
1.0263122
1.0020762
1.0433798
1.0921814
1.120976
1.0594294
1.0693304
1.1232495
1.091559
1.0428791
1.0017261
0.98218677
1.0188517
1.0622421
1.095468
1.0369112
1.0388044
1.0941458
1.0617811
1.0184866
0.98191909
0.96650979
0.99879826
1.0351855
1.064134
1.0278029
1.0285698
1.0636896
1.0350503
0.99857708
0.96634585
0.95437916
0.9836061
1.0131054
1.0356082
1.0135814
1.0164688
1.036213
1.0132438
0.98350952
0.95431966
0.94508506
0.97162474
0.99572502
1.0135055
0.99788942
1.0023639
1.0148425
0.99606492
0.97164734
0.94511756
0.93792548
0.96175279
0.98197069
0.99671128
0.98283897
0.98815402
0.99838277
0.98244889
0.9618976
0.93803305
0.93222881
0.95320901
0.97070821
0.98331816
0.96895429
0.97440571
0.98512077
0.97129308
0.95349605
0.93239521
0.92732258
0.94541594
0.96103558
0.97186994
0.95645165
0.96164678
0.97375581
0.96170621
0.94584723
0.92753331
0.92239431
0.93821297
0.95238385
0.9610732
0.94484559
0.95016313
0.9631959
0.95305603
0.93860052
0.92263183
0.91606353
0.93101762
0.94414379
0.94572362
0.92758439
0.93700466
0.95038941
0.94481768
0.93135128
0.9162945
0.90595412
0.92275501
0.93337571
0.90347684
0.88725149
0.89557211
0.91377787
0.93584352
0.92299652
0.90610529
)
;
    }
    minX
    {
        type            calculated;
        value           nonuniform List<scalar> 
40
(
1.1586218
1.1586208
1.1586198
1.1586187
1.1586218
1.1586208
1.1586198
1.1586187
1.1586218
1.1586208
1.1586198
1.1586187
1.1586218
1.1586208
1.1586198
1.1586187
1.1586218
1.1586208
1.1586198
1.1586187
1.1586218
1.1586208
1.1586198
1.1586187
1.1586218
1.1586208
1.1586198
1.1586187
1.1586218
1.1586208
1.1586198
1.1586187
1.1586218
1.1586208
1.1586198
1.1586187
1.1586218
1.1586208
1.1586198
1.1586187
)
;
    }
    maxX
    {
        type            calculated;
        value           nonuniform List<scalar> 
40
(
0.80808294
0.86177273
0.88752581
0.905899
0.85132897
1.0088653
0.9620691
0.92271838
0.86716382
0.99724524
0.9693753
0.93342746
0.80501322
0.92970822
0.92946057
0.90190229
0.73599853
0.83345531
1.158619
0.88426534
0.73704093
0.84043707
0.88385177
1.1586179
0.80889767
0.93476836
0.93604829
0.91386019
0.86617205
0.99944126
0.97280226
0.93588345
0.85045081
1.0091735
0.96277991
0.92296098
0.80783237
0.86166716
0.88757454
0.90606242
)
;
    }
    minZ
    {
        type            calculated;
        value           nonuniform List<scalar> 
120
(
1.10502
1.1574048
1.1585927
1.1586181
1.0591804
1.1551008
1.1585157
1.1586155
1.0207119
1.1519386
1.1583727
1.1586094
0.98766076
1.1480641
1.1581493
1.1585975
0.95859509
1.1435896
1.1578336
1.1585769
0.93257134
1.1386014
1.1574149
1.1585442
0.90897084
1.1331739
1.1568842
1.1584954
0.88746171
1.1273592
1.1562332
1.1584255
0.86811277
1.1201963
1.1554291
1.1583283
0.8509349
1.1108268
1.1544175
1.1581944
0.8357686
1.0984151
1.15311
1.1580082
0.82254965
1.0817264
1.1509404
1.1577205
0.81138851
1.0603611
1.1449631
1.1570997
0.80542584
1.0354079
1.1317045
1.1550272
0.80146341
1.0086204
1.109486
1.1457323
0.79967403
0.98282962
1.0798617
1.1223647
0.80001424
0.96051516
1.0472421
1.0894666
0.80214121
0.94300964
1.0162012
1.0561845
0.80549081
0.93048234
0.98962089
1.0267058
0.80942609
0.92227327
0.96849857
1.0020766
0.81338362
0.91735766
0.95259789
0.98218715
0.81696414
0.91466167
0.94109501
0.96651016
0.81993586
0.91323982
0.93297649
0.95437951
0.82219037
0.91232957
0.92726082
0.94508541
0.82366608
0.91126072
0.92306318
0.93792583
0.82425343
0.90931557
0.91956808
0.93222915
0.82369717
0.90552969
0.91592275
0.92732291
0.82145925
0.89830253
0.91096907
0.92239465
0.8165295
0.88475645
0.90261262
0.91606386
0.808127
0.86184987
0.88760347
0.90595444
)
;
    }
    maxZ
    {
        type            calculated;
        value           nonuniform List<scalar> 
120
(
1.1050131
1.1574046
1.1585927
1.1586181
1.0591689
1.1551003
1.1585157
1.1586155
1.0206985
1.1519378
1.1583726
1.1586094
0.98764784
1.1480629
1.1581493
1.1585975
0.95858621
1.143588
1.1578335
1.1585769
0.93257022
1.1385996
1.1574148
1.1585442
0.90897874
1.133172
1.156884
1.1584953
0.88747852
1.1273575
1.1562327
1.1584255
0.8681377
1.1201957
1.1554285
1.1583282
0.85096633
1.1108297
1.1544167
1.1581942
0.83580638
1.0984213
1.1531092
1.1580078
0.82259429
1.0817306
1.1509454
1.1577199
0.81144099
1.060358
1.1449729
1.1570983
0.80548484
1.0353896
1.1317003
1.1550242
0.80153053
1.0085829
1.1094427
1.1456776
0.79975221
0.98277464
1.0797618
1.1221618
0.80010527
0.96044941
1.0470858
1.0891334
0.80224296
0.9429473
1.0160065
1.0557947
0.80560084
0.93045142
0.98942181
1.0263126
0.80954925
0.92231314
0.96833999
1.0017265
0.81352963
0.917493
0.95251769
0.98191947
0.81713858
0.91488944
0.94111022
0.96634622
0.82013462
0.91353761
0.93308325
0.95432001
0.8223978
0.91266863
0.92744258
0.94511791
0.82385495
0.91161515
0.92329903
0.9380334
0.824391
0.90966487
0.91983805
0.93239555
0.82374945
0.90584965
0.91620713
0.92753365
0.8213938
0.89854916
0.91123999
0.92263216
0.81633081
0.88484275
0.90280911
0.91629483
0.80786216
0.86173677
0.8876389
0.90610561
)
;
    }
    topAir_to_rightSolid
    {
        type            calculated;
        value           nonuniform List<scalar> 
130
(
0.56261385
0.55886275
0.55508399
0.55148143
0.54819792
0.54527383
0.54273716
0.54062167
0.53888327
0.53749326
0.53646323
0.53578229
0.53544324
0.56590604
0.56135903
0.55688771
0.55273736
0.54905008
0.54584532
0.54312045
0.54085262
0.53901393
0.53758389
0.53653225
0.53583335
0.53548304
0.5727395
0.56632771
0.5603439
0.55505812
0.55053811
0.54676546
0.54367317
0.54117449
0.53920133
0.53770914
0.53663745
0.53593404
0.53557579
0.58339198
0.57320639
0.56467279
0.55771018
0.5521525
0.54774046
0.54425241
0.54150924
0.53938827
0.53780883
0.53669085
0.53597796
0.53562815
0.59665766
0.57993384
0.56822849
0.55970219
0.55330383
0.54841029
0.54463435
0.54172273
0.5395055
0.5378689
0.53671471
0.53598684
0.53563556
0.59661842
0.57993021
0.56825725
0.55972262
0.55332284
0.54842934
0.54465104
0.54173313
0.53951662
0.53788108
0.53672539
0.53599572
0.53564332
0.5833956
0.5732012
0.56465598
0.55770826
0.55216882
0.54776135
0.54427417
0.54152883
0.53940893
0.53782918
0.53670914
0.53599104
0.53563858
0.57277953
0.56633639
0.56031574
0.55502883
0.55054777
0.54679502
0.5437045
0.54120247
0.53923017
0.53773609
0.53665753
0.53594152
0.53558165
0.56601392
0.56144696
0.55695013
0.55277058
0.54906481
0.54585548
0.54313515
0.54087112
0.53903072
0.53759535
0.53653897
0.53584108
0.53549244
0.56274933
0.55898567
0.55519514
0.5515799
0.54827712
0.54534194
0.54280498
0.54066888
0.53890248
0.53750587
0.53647551
0.53579647
0.53545624
)
;
    }
    topAir_to_heater
    {
        type            calculated;
        value           nonuniform List<scalar> 
40
(
0.57199755
0.57095863
0.56893143
0.56607189
0.5774658
0.57619105
0.57369884
0.57016898
0.58948234
0.58772265
0.58417139
0.57901341
0.61068357
0.60825262
0.60297323
0.59453118
0.64528433
0.64309477
0.63635465
0.62263913
0.64531674
0.64311468
0.63635701
0.6226205
0.61075399
0.60830999
0.60300697
0.59455258
0.58956239
0.5877801
0.5842263
0.57906231
0.57755212
0.57626399
0.57377472
0.57026366
0.57212657
0.5710714
0.56904635
0.56620516
)
;
    }
    topAir_to_leftSolid
    {
        type            calculated;
        value           nonuniform List<scalar> 
130
(
0.53105532
0.53108445
0.53115268
0.53126039
0.53140078
0.53154179
0.53169528
0.53186599
0.53205388
0.53225257
0.53243903
0.5325875
0.53267488
0.53103102
0.53105914
0.53112207
0.53122494
0.53136266
0.53150776
0.53167345
0.53186345
0.53208047
0.53231185
0.53251926
0.53268108
0.5327736
0.531028
0.5310519
0.53110495
0.53119405
0.53131593
0.53146005
0.5316394
0.53185361
0.53211262
0.53240634
0.53264808
0.53282382
0.53292172
0.53105248
0.53106333
0.53109873
0.53116123
0.53125963
0.53140327
0.5315974
0.53183558
0.53212711
0.53246187
0.5327759
0.5330081
0.53313993
0.53103675
0.53104142
0.53107279
0.53112479
0.53121348
0.53135245
0.53155151
0.53180529
0.53210753
0.5324542
0.53282685
0.53315482
0.5333313
0.53103166
0.53103593
0.53106837
0.53112352
0.53121176
0.53135691
0.53155857
0.53180999
0.53210533
0.53244983
0.53283042
0.53319392
0.53337954
0.53104102
0.53105152
0.53108781
0.53115176
0.53125361
0.53140735
0.53160971
0.53185068
0.53213178
0.53245864
0.53281682
0.53308061
0.53321702
0.53102093
0.53104604
0.53111133
0.53120751
0.53133295
0.53150146
0.53169196
0.53189832
0.53213465
0.53240634
0.53269131
0.53290629
0.53301208
0.53100341
0.5310384
0.53111547
0.5312364
0.53139425
0.53156249
0.53173604
0.53192499
0.53213465
0.53236691
0.5325996
0.5327876
0.53289232
0.53101608
0.53105191
0.53113394
0.53126129
0.53143412
0.53161433
0.53179048
0.53197357
0.53216951
0.53236906
0.5325666
0.53272874
0.53282768
)
;
    }
}


// ************************************************************************* //
