/*--------------------------------*- C++ -*----------------------------------*\
| =========                 |                                                 |
| \\      /  F ield         | OpenFOAM: The Open Source CFD Toolbox           |
|  \\    /   O peration     | Version:  v2012                                 |
|   \\  /    A nd           | Website:  www.openfoam.com                      |
|    \\/     M anipulation  |                                                 |
\*---------------------------------------------------------------------------*/
FoamFile
{
    version     2.0;
    format      ascii;
    class       volScalarField;
    location    "130/topAir";
    object      T;
}
// * * * * * * * * * * * * * * * * * * * * * * * * * * * * * * * * * * * * * //

dimensions      [0 0 0 1 0 0 0];


internalField   nonuniform List<scalar> 
1200
(
314.55226
328.16558
340.53343
351.92907
362.59995
372.71843
382.39568
391.66368
400.39327
408.47602
415.88844
422.57205
428.38478
431.55616
433.68976
434.6602
434.47534
433.32328
431.52132
429.42334
427.33397
425.46108
423.91907
422.75664
421.99922
421.6985
421.98328
423.1329
425.68755
430.11364
300.31521
300.91422
301.74024
302.75856
303.94315
305.27473
306.7369
308.31897
310.29047
312.90769
316.44342
321.32547
327.79987
335.6998
344.61549
353.65867
361.87478
368.59242
373.55486
376.87983
378.89932
380.01614
380.60779
380.98753
381.4344
382.25034
383.84847
386.93667
392.86087
403.30249
300.00702
300.02694
300.06399
300.12185
300.20369
300.31229
300.45005
300.61923
300.82844
301.09205
301.43345
302.00167
303.57828
307.13488
313.28554
321.88003
331.90597
342.04437
351.23139
358.89151
364.8821
369.342
372.55592
374.85237
376.55702
377.98823
379.49261
381.55623
385.08871
391.60047
300.00017
300.00082
300.0024
300.00549
300.01082
300.01929
300.03194
300.05002
300.0752
300.1099
300.15815
300.23276
300.39384
300.93283
303.3742
309.69044
319.04201
329.09555
338.54452
346.86535
353.88943
359.6296
364.20067
367.78228
370.58972
372.85433
374.82701
376.82968
379.4339
383.66795
314.55066
328.01492
340.09771
351.07469
361.18
370.55324
379.2674
387.33563
394.71601
401.3078
406.95479
411.48343
414.6755
414.50016
413.00236
410.48612
407.45625
404.44777
401.80021
399.65572
398.02211
396.8317
396.00053
395.45637
395.18285
395.26954
395.98202
397.90811
402.17572
408.26058
300.31482
300.90249
301.69705
302.6572
303.7505
304.95024
306.23183
307.56892
308.93432
310.29081
311.58591
312.77626
313.80405
314.58376
315.10946
315.46367
315.81316
316.31615
317.02194
317.92097
318.98521
320.21194
321.62887
323.25986
325.14483
327.33465
329.87153
332.77767
336.15829
344.52172
300.007
300.02638
300.0615
300.11495
300.18854
300.28353
300.40058
300.53966
300.70012
300.88045
301.0779
301.29231
301.54513
301.87595
302.33687
303.06636
304.3695
306.47623
309.2389
312.43417
315.78959
319.338
323.349
327.67885
332.24829
336.96952
341.86943
347.26159
353.55923
361.28259
300.00017
300.0008
300.00227
300.00506
300.00972
300.01686
300.02717
300.04138
300.06029
300.0848
300.11607
300.15653
300.21615
300.34929
300.87803
302.8166
307.52356
315.15154
324.21016
333.13418
341.15414
348.00369
353.37874
357.73635
361.40836
364.64773
367.65353
370.47614
373.33936
376.68236
314.55017
328.04294
340.16273
351.18522
361.34978
370.80262
379.62544
387.85699
395.51117
402.56514
408.962
414.6126
419.34264
420.50598
420.37066
418.72254
415.44348
410.75904
405.3217
400.01899
395.47441
391.87523
389.12588
387.06924
385.62851
384.8502
384.92195
386.37164
390.73406
400.79496
300.31487
300.9046
301.70273
302.66713
303.7652
304.97082
306.26121
307.61445
309.00775
310.41491
311.80316
313.13022
314.34076
315.31739
315.98773
316.29609
316.2508
315.9941
315.78509
315.91384
316.51348
317.59039
319.12444
321.13767
323.69664
326.86476
330.65182
335.10211
340.51177
348.54379
300.007
300.02647
300.06178
300.11544
300.18918
300.28411
300.40077
300.53911
300.69842
300.87714
301.07246
301.27988
301.49254
301.69907
301.88734
302.06357
302.32516
302.97759
304.44182
306.95716
310.21238
313.86492
317.78689
322.09532
326.97558
332.48645
338.38886
344.4914
351.08856
358.62179
300.00017
300.0008
300.00228
300.00508
300.00973
300.01682
300.02698
300.04085
300.0591
300.08236
300.11124
300.14637
300.18872
300.24234
300.33414
300.60762
301.58471
304.39366
310.08946
318.24885
327.21868
335.7712
343.08916
349.07778
353.96728
358.07413
361.67808
364.96367
368.14892
372.39616
314.54913
328.05029
340.19158
351.25151
361.47601
371.02426
380.00029
388.47842
396.5155
404.15717
411.44486
418.41837
425.04092
428.22836
431.17445
433.82455
435.94685
437.03681
436.3419
434.09838
431.02747
427.69667
424.40213
421.30096
418.58371
416.52096
415.56719
416.91678
423.49554
431.69214
300.31488
300.90528
301.70564
302.67452
303.78033
304.99888
306.31071
307.69951
309.15115
310.65272
312.19101
313.7522
315.35825
316.83787
318.18752
319.33987
320.17049
320.49749
320.21563
319.92281
320.05528
320.83494
322.29225
324.42252
327.29853
331.03333
335.7539
341.83039
350.49069
373.89559
300.007
300.0265
300.06194
300.1159
300.19021
300.28613
300.40449
300.54566
300.70971
300.89634
301.10481
301.33373
301.5814
301.84073
302.10182
302.34937
302.55946
302.71514
303.04965
305.1279
308.38822
312.74652
317.8475
323.62039
330.16257
337.26143
344.41774
351.71211
360.35569
373.78291
300.00017
300.0008
300.00229
300.00511
300.0098
300.01697
300.02726
300.04136
300.05998
300.08384
300.11369
300.1503
300.19448
300.24709
300.30969
300.38757
300.50189
300.75893
302.10569
310.07396
317.29405
326.63695
335.63416
342.95371
348.73237
353.48223
357.64611
361.66393
367.53394
384.71994
314.54971
328.05502
340.20446
351.27665
361.51833
371.09052
380.09979
388.62382
396.72407
404.45191
411.85043
418.95667
425.57757
427.77721
429.97516
432.31169
434.98501
437.86031
440.00387
442.56031
445.94836
449.55367
452.78231
455.55089
457.78913
459.4963
460.87323
462.54922
465.91379
472.26204
300.3149
300.90565
301.70703
302.67788
303.78687
305.01028
306.3294
307.72906
309.19678
310.7219
312.29477
313.92473
315.95339
317.9003
319.80507
321.58539
322.8068
323.30922
323.20085
323.57409
324.37851
325.60489
327.41297
329.96887
334.01455
340.61658
350.78625
365.57096
386.79631
417.24359
300.007
300.02652
300.06202
300.11613
300.19072
300.28714
300.40627
300.54867
300.71462
300.90416
301.11713
301.35374
301.62096
301.91417
302.22712
302.54621
302.83292
303.0371
303.56713
307.08417
310.36806
313.98034
318.60926
324.95354
333.10344
341.96014
349.29172
355.68751
370.22766
395.59539
300.00017
300.0008
300.0023
300.00512
300.00984
300.01705
300.02742
300.04165
300.06049
300.08471
300.11512
300.15265
300.19853
300.25412
300.32103
300.4018
300.50744
300.78009
303.23878
328.08744
335.21237
338.18301
342.92803
348.32065
353.65457
358.72229
363.41147
367.87545
374.72116
391.75538
314.54996
328.05555
340.20524
351.27757
361.5195
371.09177
380.10118
388.62572
396.72715
404.45659
411.85636
418.96029
425.57853
427.77748
429.97566
432.31382
434.99518
438.0176
440.30551
442.76288
445.95454
449.45979
452.64019
455.36694
457.57895
459.27675
460.64334
462.28392
465.5575
471.64576
300.31491
300.90566
301.70706
302.67793
303.78696
305.01041
306.32959
307.72934
309.1972
310.72253
312.2957
313.9291
315.96357
317.91921
319.83897
321.65456
323.00489
323.55183
323.44345
323.72827
324.47663
325.54263
327.12156
329.28161
332.69376
338.31911
347.34013
361.36773
382.55335
413.69974
300.007
300.02652
300.06202
300.11613
300.19073
300.28714
300.40628
300.5487
300.71466
300.90421
301.11722
301.35395
301.62144
301.91517
302.22921
302.55102
302.84574
303.05624
303.49105
307.05469
310.56001
314.37831
319.12902
325.4266
333.27365
341.85531
349.47487
355.10475
368.02248
393.43419
300.00017
300.0008
300.0023
300.00512
300.00984
300.01705
300.02742
300.04166
300.0605
300.08471
300.11513
300.15266
300.19856
300.25416
300.32107
300.40171
300.50478
300.73883
302.75884
325.04965
334.60148
337.93085
341.95392
346.76578
351.75235
356.71538
361.4482
365.81665
370.95384
388.11547
314.54969
328.05142
340.19322
351.25366
361.47862
371.02703
380.00308
388.48144
396.51965
404.16333
411.45171
418.42448
425.0426
428.2345
431.18542
433.84413
435.98053
437.08863
436.36408
433.90687
430.54542
426.96561
423.49061
420.27267
417.47548
415.34043
414.29671
415.45193
421.4586
429.71379
300.31489
300.90532
301.70571
302.67464
303.78052
304.99915
306.31108
307.70001
309.15183
310.65366
312.19231
313.75404
315.36594
316.84585
318.19585
319.34931
320.186
320.5222
320.23165
319.86581
319.9679
320.75565
322.23525
324.36619
327.18783
330.79965
335.33403
341.16606
349.52791
371.86317
300.007
300.0265
300.06194
300.1159
300.19022
300.28615
300.40452
300.54571
300.70979
300.89645
301.10498
301.33397
301.58186
301.84142
302.10277
302.35077
302.56223
302.7188
303.02279
305.026
308.4803
312.99804
318.19556
323.95536
330.34262
337.20698
344.08825
350.94153
358.93808
371.35057
300.00017
300.0008
300.00229
300.00511
300.0098
300.01697
300.02726
300.04137
300.05999
300.08386
300.11373
300.15036
300.19457
300.24725
300.30997
300.38812
300.50263
300.75009
301.98959
309.44634
317.67745
326.77341
335.43824
342.50191
348.14853
352.83542
356.95345
360.86688
365.72957
380.38295
314.55052
328.04351
340.16285
351.18451
361.34802
370.79858
379.61855
387.84761
395.4998
402.55231
408.94466
414.58754
419.30927
420.46078
420.30909
418.63467
415.31986
410.60294
405.15089
399.83719
395.29016
391.70886
389.00991
387.04339
385.72759
385.09622
385.33146
386.95877
391.46388
401.29323
300.31488
300.90462
301.70275
302.66714
303.76517
304.97071
306.26097
307.61403
309.00709
310.41394
311.80169
313.12792
314.33722
315.31168
315.97881
316.28309
316.2355
315.98429
315.78729
315.91724
316.51691
317.59984
319.14478
321.16164
323.69771
326.80037
330.47598
334.75632
339.92526
347.79837
300.007
300.02647
300.06178
300.11545
300.18919
300.28411
300.40078
300.53912
300.69844
300.87717
301.07249
301.27989
301.49249
301.69889
301.88696
302.06371
302.33015
302.9983
304.47726
306.99175
310.27531
313.96735
317.92
322.21629
327.01062
332.35853
338.07392
343.94634
350.20538
357.34586
300.00017
300.0008
300.00228
300.00508
300.00973
300.01682
300.02698
300.04086
300.05911
300.08238
300.11128
300.14643
300.18884
300.24264
300.33544
300.61456
301.61535
304.48871
310.25322
318.43032
327.36076
335.81507
343.04228
348.95867
353.79498
357.85851
361.42587
364.70626
367.88633
371.41415
314.55203
328.01725
340.10027
351.07664
361.18044
370.55109
379.26226
387.32732
394.70518
401.29445
406.93715
411.4595
414.64355
414.46037
412.95464
410.43285
407.40369
404.40284
401.76324
399.61288
397.95856
396.74422
395.9009
395.36849
395.13766
395.29927
396.12408
398.20671
402.65295
408.69117
300.31485
300.90257
301.69718
302.65737
303.7507
304.95044
306.23197
307.56897
308.93427
310.29067
311.58535
312.77491
313.80148
314.57964
315.10381
315.45838
315.81222
316.32252
317.03248
317.92622
318.97882
320.19321
321.60044
323.22285
325.09389
327.25619
329.74459
332.57304
335.84156
344.41165
300.007
300.02638
300.06151
300.11496
300.18856
300.28356
300.40062
300.53973
300.70022
300.88061
301.07813
301.29257
301.54546
301.87668
302.33911
303.07404
304.38867
306.50389
309.24603
312.38617
315.68047
319.17214
323.13293
327.4162
331.95294
336.67046
341.57988
346.93519
353.22543
360.99551
300.00017
300.0008
300.00227
300.00506
300.00972
300.01686
300.02717
300.04139
300.06032
300.08485
300.11615
300.15668
300.21645
300.35025
300.88388
302.84424
307.60014
315.28591
324.37679
333.29411
341.27644
348.08077
353.41344
357.72803
361.35395
364.53796
367.48589
370.32316
373.20561
376.58379
314.55422
328.16913
340.53791
351.93368
362.60331
372.71887
382.39235
391.65626
400.38177
408.46094
415.86964
422.54912
428.35707
431.52455
433.65344
434.61771
434.42592
433.26832
431.46238
429.35801
427.25727
425.37026
423.81633
422.65001
421.90247
421.62813
421.9565
423.16661
425.79115
430.25464
300.31525
300.91434
301.74046
302.75889
303.94358
305.27522
306.73741
308.31944
310.29063
312.90686
316.44164
321.32422
327.80083
335.70572
344.62831
353.67845
361.89955
368.61679
373.56727
376.86354
378.84343
379.92153
380.48372
380.84599
381.2861
382.10356
383.71289
386.83046
392.82255
403.35542
300.00702
300.02694
300.064
300.12187
300.20372
300.31233
300.45013
300.61935
300.82859
301.09225
301.43367
302.00036
303.57567
307.13601
313.29777
321.90981
331.95554
342.10992
351.30206
358.95029
364.91282
369.33603
372.51329
374.77891
376.46082
377.8773
379.37482
381.44279
385.0049
391.58484
300.00017
300.00082
300.0024
300.00549
300.01082
300.01929
300.03195
300.05004
300.07524
300.10996
300.15826
300.23291
300.39421
300.93363
303.38868
309.74644
319.13961
329.21708
338.67423
346.98659
353.98591
359.69061
364.22338
367.76963
370.54722
372.78778
374.74185
376.73267
379.33826
383.60395
)
;

boundaryField
{
    maxY
    {
        type            zeroGradient;
    }
    minX
    {
        type            fixedValue;
        value           uniform 300;
    }
    maxX
    {
        type            inletOutlet;
        inletValue      uniform 300;
        value           nonuniform List<scalar> 
40
(
430.13711
403.3386
391.63475
383.69143
408.28688
344.53174
361.28993
376.69745
400.83135
348.54628
358.56687
372.37564
431.77734
373.86586
373.9652
385.39173
472.2652
417.04243
300
393.07852
471.59728
413.57793
393.26272
300
429.70388
371.84202
371.3333
380.34885
401.2903
347.78043
357.30372
371.39843
408.70847
344.42651
361.02319
376.59844
430.27053
403.38802
391.61325
383.62223
)
;
    }
    minZ
    {
        type            zeroGradient;
    }
    maxZ
    {
        type            zeroGradient;
    }
    topAir_to_rightSolid
    {
        type            compressible::turbulentTemperatureCoupledBaffleMixed;
        refValue        nonuniform List<scalar> 
130
(
617.86594
622.01457
626.25058
630.34314
634.1201
637.52185
640.50254
643.00964
645.08448
646.75298
647.99466
648.81757
649.22707
614.27998
619.25755
624.23136
628.92003
633.14492
636.86325
640.05924
642.74366
644.9366
646.65231
647.91941
648.76328
649.18583
606.94733
613.82223
620.38023
626.29074
631.43489
635.7935
639.41112
642.3644
644.71576
646.50521
647.79608
648.64506
649.07578
595.85386
606.4446
615.61231
623.30051
629.57678
634.65017
638.71943
641.9566
644.48207
646.37548
647.72178
648.58137
649.00236
582.60267
599.40681
611.75651
621.07685
628.25941
633.86569
638.26038
641.69093
644.32815
646.28866
647.67826
648.55693
648.98037
582.64094
599.41046
611.72547
621.05417
628.23786
633.84372
638.24088
641.67866
644.31494
646.2741
647.66547
648.54632
648.97119
595.85014
606.45009
615.6307
623.30281
629.55841
634.62626
638.69422
641.93373
644.45777
646.35143
647.70018
648.56619
648.99039
606.90495
613.81288
620.41146
626.32386
631.42386
635.75915
639.37426
642.33114
644.68119
646.47268
647.77166
648.63578
649.06853
614.1629
619.16056
624.1614
628.88225
633.12797
636.85143
640.04193
642.72169
644.91649
646.63846
647.91119
648.75378
649.1743
617.71717
621.87779
626.1252
630.23061
634.0285
637.44224
640.42252
642.95351
645.0615
646.73781
647.97981
648.80036
649.21127
)
;
        refGradient     uniform 0;
        valueFraction   uniform 0.99967867;
        value           nonuniform List<scalar> 
130
(
617.80664
621.95336
626.18733
630.2779
634.05305
637.45321
640.43257
642.93862
645.0127
646.68076
647.92241
648.74588
649.15667
614.21255
619.18768
624.1592
628.84583
633.06899
636.78585
639.98064
642.66411
644.85637
646.57176
647.83907
648.68406
649.10842
606.88428
613.75523
620.30942
626.21657
631.35791
635.71424
639.33003
642.2819
644.63226
646.42116
647.71208
648.56219
648.99601
595.80283
606.38993
615.55398
623.23873
629.51191
634.58261
638.64956
641.88482
644.40882
646.30131
647.64761
648.50903
648.93256
582.55615
599.35558
611.70214
621.02057
628.20199
633.8075
638.20167
641.63183
644.26876
646.22909
647.61878
648.49826
648.92358
582.59447
599.35933
611.67117
620.99791
628.18041
633.78549
638.18212
641.61951
644.25548
646.21446
647.6059
648.48752
648.91419
595.79913
606.39543
615.5723
623.24087
629.49331
634.55841
638.62403
641.8616
644.38414
646.27685
647.62554
648.4932
648.91993
606.84187
613.74583
620.34059
626.24962
631.34683
635.67986
639.29318
642.24869
644.59778
646.38877
647.68785
648.55314
648.98891
614.09549
619.0907
624.08925
628.80804
633.05201
636.774
639.96331
642.64213
644.83628
646.55797
647.83096
648.67471
649.09703
617.6579
621.8166
626.06197
630.16539
633.96146
637.3736
640.35255
642.88248
644.9897
646.66558
647.90757
648.72871
649.14092
)
;
        Tnbr            T;
        thicknessLayers List<scalar> 0();
        kappaLayers     List<scalar> 0();
        kappaMethod     fluidThermo;
        kappa           none;
        alphaAni        none;
        alpha           none;
        field           T;
    }
    topAir_to_heater
    {
        type            compressible::turbulentTemperatureCoupledBaffleMixed;
        refValue        nonuniform List<scalar> 
40
(
607.72808
608.83346
611.00301
614.09028
601.97746
603.31002
605.93225
609.6853
589.70156
591.46762
595.06458
600.3678
569.22159
571.49615
576.50029
584.6876
538.69215
540.52601
546.25184
558.28689
538.66509
540.50927
546.24981
558.3036
569.15594
571.44223
576.46802
584.66654
589.62149
591.40981
595.00867
600.31713
601.88748
603.23366
605.85212
609.58408
607.59101
608.71321
610.87961
613.94572
)
;
        refGradient     uniform 0;
        valueFraction   uniform 0.99967867;
        value           nonuniform List<scalar> 
40
(
607.67147
608.77718
610.94635
614.03256
601.91722
603.24887
605.86945
609.62032
589.64719
591.41264
595.00792
600.30838
569.17628
571.45105
576.45444
584.6398
538.65651
540.49048
546.21522
558.24726
538.62945
540.47375
546.2132
558.26397
569.11066
571.39716
576.42218
584.61876
589.56713
591.35483
594.95199
600.25769
601.82725
603.17252
605.78933
609.51911
607.53443
608.65696
610.82297
613.88804
)
;
        Tnbr            T;
        thicknessLayers List<scalar> 0();
        kappaLayers     List<scalar> 0();
        kappaMethod     fluidThermo;
        kappa           none;
        alphaAni        none;
        alpha           none;
        field           T;
    }
    topAir_to_leftSolid
    {
        type            compressible::turbulentTemperatureCoupledBaffleMixed;
        refValue        nonuniform List<scalar> 
130
(
654.62999
654.58967
654.50158
654.36518
654.18883
654.01198
653.82002
653.60713
653.37345
653.12688
652.89571
652.71151
652.60254
654.65994
654.62092
654.53945
654.40912
654.23622
654.05455
653.84787
653.61165
653.34262
653.05646
652.80022
652.6004
652.48601
654.66366
654.62984
654.56052
654.44716
654.29372
654.11321
653.88964
653.62358
653.30289
652.94012
652.64166
652.42453
652.30313
654.63348
654.61575
654.56818
654.48758
654.36303
654.18303
653.9412
653.64553
653.28477
652.8715
652.48426
652.19769
652.03426
654.65288
654.64276
654.60015
654.53248
654.41987
654.24559
653.99763
653.68272
653.30875
652.88081
652.42172
652.01801
651.80006
654.65915
654.64953
654.6056
654.53404
654.42199
654.2401
653.98894
653.67695
653.31144
652.88616
652.41735
651.97018
651.74111
654.64761
654.6303
654.58164
654.49925
654.37044
654.17801
653.92605
653.62698
653.27904
652.87546
652.43413
652.10896
651.93996
654.67238
654.63706
654.55266
654.43057
654.27275
654.06223
653.82499
653.56863
653.27584
652.94012
652.58869
652.32356
652.19253
654.69398
654.64649
654.54758
654.39501
654.19733
653.9872
653.7709
653.53601
653.2761
652.98889
652.70173
652.46991
652.34063
654.67837
654.62978
654.52467
654.36407
654.14777
653.92272
653.70295
653.47493
653.23146
652.98395
652.7393
652.53844
652.41535
)
;
        refGradient     uniform 0;
        valueFraction   uniform 0.99967867;
        value           nonuniform List<scalar> 
130
(
654.52071
654.48479
654.40069
654.268
654.09513
653.92159
653.7328
653.52296
653.29216
653.04827
652.81955
652.63755
652.53049
654.55066
654.51597
654.43841
654.31165
654.14205
653.96346
653.75964
653.52609
653.25951
652.97556
652.72122
652.52292
652.40959
654.55437
654.5249
654.4595
654.34971
654.19959
654.02217
653.80151
653.53818
653.22005
652.85967
652.56336
652.34812
652.22827
654.5242
654.51081
654.46716
654.39014
654.26892
654.09204
653.85317
653.56033
653.20226
652.79158
652.4068
652.12257
651.96132
654.5436
654.53782
654.49913
654.43504
654.32575
654.1546
653.90962
653.59755
653.2263
652.80098
652.34442
651.94311
651.72737
654.54987
654.54459
654.50457
654.4366
654.32787
654.14912
653.90093
653.59178
653.22899
652.80634
652.34004
651.89531
651.66843
654.53833
654.52536
654.48062
654.40181
654.27633
654.08702
653.83803
653.54178
653.19653
652.79554
652.3567
652.03387
651.86705
654.56309
654.53212
654.45164
654.33312
654.17863
653.97121
653.73688
653.48324
653.19301
652.85967
652.5104
652.24716
652.1177
654.58469
654.54153
654.44654
654.29754
654.10317
653.89612
653.68269
653.45047
653.19301
652.90801
652.62275
652.39246
652.26425
654.56907
654.52488
654.42377
654.26689
654.05409
653.83236
653.61577
653.3908
653.15021
652.90538
652.66319
652.46453
652.34335
)
;
        Tnbr            T;
        thicknessLayers List<scalar> 0();
        kappaLayers     List<scalar> 0();
        kappaMethod     fluidThermo;
        kappa           none;
        alphaAni        none;
        alpha           none;
        field           T;
    }
}


// ************************************************************************* //
