/*--------------------------------*- C++ -*----------------------------------*\
| =========                 |                                                 |
| \\      /  F ield         | OpenFOAM: The Open Source CFD Toolbox           |
|  \\    /   O peration     | Version:  v2012                                 |
|   \\  /    A nd           | Website:  www.openfoam.com                      |
|    \\/     M anipulation  |                                                 |
\*---------------------------------------------------------------------------*/
FoamFile
{
    version     2.0;
    format      ascii;
    class       volScalarField;
    location    "660/leftSolid";
    object      T;
}
// * * * * * * * * * * * * * * * * * * * * * * * * * * * * * * * * * * * * * //

dimensions      [0 0 0 1 0 0 0];


internalField   nonuniform List<scalar> 
130
(
923.65649
923.59604
923.45816
923.25935
923.04602
922.80889
922.54405
922.2496
921.96431
921.69245
921.44178
921.23315
921.09922
923.77958
923.71714
923.58165
923.36546
923.12027
922.86913
922.59371
922.28534
922.0002
921.72883
921.47281
921.25873
921.14011
923.95786
923.89419
923.76146
923.55244
923.27805
923.00296
922.70749
922.39435
922.10772
921.83633
921.58787
921.37184
921.24509
924.11605
924.0584
923.93538
923.74272
923.46929
923.17382
922.86868
922.55709
922.2533
921.95817
921.69372
921.48997
921.36562
924.23064
924.18004
924.06827
923.89964
923.67197
923.38702
923.05809
922.73375
922.41222
922.10135
921.83932
921.63655
921.50065
924.32522
924.2831
924.18863
924.04111
923.84374
923.60121
923.31441
922.99883
922.65979
922.32081
922.04421
921.83368
921.67607
924.41635
924.3782
924.29099
924.15546
923.98093
923.77024
923.51158
923.23751
922.94794
922.66025
922.40258
922.17215
921.95011
924.50995
924.4696
924.37561
924.24404
924.08706
923.90246
923.6831
923.4437
923.19479
922.95559
922.74231
922.5613
922.41021
924.58789
924.54578
924.44994
924.31837
924.1669
923.9959
923.80278
923.59495
923.38475
923.18654
923.01899
922.89073
922.81248
924.63508
924.59619
924.5115
924.38177
924.22587
924.06048
923.88454
923.69943
923.51332
923.34351
923.19888
923.09013
923.03061
)
;

boundaryField
{
    minX
    {
        type            zeroGradient;
    }
    minZ
    {
        type            zeroGradient;
    }
    maxZ
    {
        type            zeroGradient;
    }
    leftSolid_to_bottomWater
    {
        type            compressible::turbulentTemperatureCoupledBaffleMixed;
        refValue        nonuniform List<scalar> 
130
(
964.00685
964.90177
962.56385
956.20166
956.15821
955.25177
954.5387
950.54694
948.98324
946.96946
944.47675
941.29517
936.90665
966.76185
966.78619
966.65254
959.57357
955.15519
955.6635
955.84821
949.60113
949.49422
948.31981
944.78224
939.29398
939.17615
969.58066
968.80171
968.19701
965.79439
956.24085
956.75833
955.27357
950.39802
951.39957
950.88001
950.61241
944.35342
941.38537
969.51743
969.15237
968.24574
967.18263
957.08722
954.89018
955.21881
954.0151
953.18974
949.78512
945.49929
943.909
940.87551
967.67738
967.38054
965.40934
964.29275
963.36908
960.15853
952.15498
951.06143
949.73829
945.60706
944.81628
944.54668
939.8366
966.10693
966.03703
965.28453
964.10351
963.07717
962.65839
961.02963
958.8392
953.8485
943.54862
941.33552
942.7941
936.14942
965.56029
965.75696
965.1479
963.53679
962.99626
963.4569
958.74646
958.64407
957.33393
954.5146
952.92126
950.99218
925.45326
966.76427
966.89438
964.05801
962.29411
962.30153
962.43647
960.41073
958.62874
956.74019
955.14696
953.99721
953.67579
942.91454
967.79517
967.42244
963.75571
960.75111
960.18699
959.70974
958.24225
956.67096
955.52143
953.71568
953.44699
953.54412
953.849
968.30551
967.65085
966.32654
962.41409
959.38568
958.74153
958.33177
957.64848
956.47716
956.28858
955.86669
954.886
955.03735
)
;
        refGradient     uniform 0;
        valueFraction   nonuniform List<scalar> 
130
(
0.0075140686
0.0075140686
0.0075140686
0.0075140686
0.0075140686
0.0075140686
0.0075140686
0.0075140686
0.0075140686
0.0075140686
0.0075140686
0.0075140686
0.0075140686
0.0075140686
0.0075140686
0.0075140686
0.0075140686
0.0075140686
0.0075140686
0.0075140686
0.0075140686
0.0075140686
0.0075140686
0.0075140686
0.0075140686
0.0075140686
0.0075140686
0.0075140686
0.0075140686
0.0075140686
0.0075140686
0.0075140686
0.0075140686
0.0075140686
0.0075140686
0.0075140686
0.0075140686
0.0075140686
0.0075140686
0.0075140686
0.0075140686
0.0075140686
0.0075140686
0.0075140686
0.0075140686
0.0075140686
0.0075140686
0.0075140686
0.0075140686
0.0075140686
0.0075140686
0.0075140686
0.0075140686
0.0075140686
0.0075140686
0.0075140686
0.0075140686
0.0075140686
0.0075140686
0.0075140686
0.0075140686
0.0075140686
0.0075140686
0.0075140686
0.0075140686
0.0075140686
0.0075140686
0.0075140686
0.0075140686
0.0075140686
0.0075140686
0.0075140686
0.0075140686
0.0075140686
0.0075140686
0.0075140686
0.0075140686
0.0075140686
0.0075140686
0.0075140686
0.0075140686
0.0075140686
0.0075140686
0.0075140686
0.0075140686
0.0075140686
0.0075140686
0.0075140686
0.0075140686
0.0075140686
0.0075140686
0.0075140686
0.0075140686
0.0075140686
0.0075140686
0.0075140686
0.0075140686
0.0075140686
0.0075140686
0.0075140686
0.0075140686
0.0075140686
0.0075140686
0.0075140686
0.0075140686
0.0075140686
0.0075140686
0.0075140686
0.0075140686
0.0075140686
0.0075140686
0.0075140686
0.0075140686
0.0075140686
0.0075140686
0.0075140686
0.0075140686
0.0075140686
0.0075140686
0.0075140686
0.0075140686
0.0075140686
0.0075140686
0.0075140686
0.0075140686
0.0075140686
0.0075140686
0.0075140686
0.0075140686
0.0075140686
)
;
        value           nonuniform List<scalar> 
130
(
923.95871
923.90541
923.75097
923.50597
923.29399
923.0519
922.78372
922.46147
922.16659
921.88167
921.61415
921.38315
921.21714
924.1016
924.0398
923.90432
923.63656
923.36009
923.11471
922.84275
922.48972
922.20594
921.92781
921.64711
921.39338
921.27474
924.29976
924.23072
924.09444
923.86893
923.52489
923.25578
922.95135
922.60389
922.32693
922.05367
921.80505
921.54358
921.39545
924.45634
924.39638
924.26749
924.06834
923.72121
923.41136
923.11092
922.79259
922.48487
922.16637
921.87169
921.6575
921.51128
924.55627
924.50383
924.3781
924.20239
923.96951
923.66255
923.27592
922.94576
922.61667
922.2771
922.01108
921.80776
921.63744
924.63834
924.59603
924.49663
924.34136
924.13776
923.89389
923.59699
923.26727
922.89321
922.47939
922.18821
921.9902
921.78379
924.72468
924.6883
924.59718
924.45057
924.27325
924.06761
923.77551
923.5027
923.2054
922.89864
922.63093
922.38774
921.97546
924.82662
924.78755
924.67296
924.52911
924.37336
924.19117
923.95826
923.70727
923.44599
923.19658
922.97626
922.79419
922.56334
924.91171
924.86713
924.74449
924.59136
924.43679
924.2635
924.06082
923.84275
923.62547
923.41516
923.24685
923.12027
923.04489
924.96237
924.91888
924.82493
924.66686
924.4894
924.32041
924.14272
923.95386
923.76033
923.59037
923.44363
923.32832
923.27039
)
;
        Tnbr            T;
        thicknessLayers List<scalar> 0();
        kappaLayers     List<scalar> 0();
        kappaMethod     solidThermo;
        kappa           none;
        alphaAni        none;
        alpha           none;
        field           T;
    }
    leftSolid_to_heater
    {
        type            compressible::turbulentTemperatureCoupledBaffleMixed;
        refValue        nonuniform List<scalar> 10(732.38909 723.17287 703.728 671.92693 625.17792 625.19402 672.05741 704.1317 723.84475 733.26946);
        refGradient     uniform 0;
        valueFraction   nonuniform List<scalar> 10(2.08329e-05 2.08329e-05 2.08329e-05 2.08329e-05 2.08329e-05 2.08329e-05 2.08329e-05 2.08329e-05 2.08329e-05 2.08329e-05);
        value           nonuniform List<scalar> 10(921.09442 921.13509 921.23958 921.35948 921.49348 921.66885 921.94392 922.40472 922.80753 923.02593);
        Tnbr            T;
        thicknessLayers List<scalar> 1(0.001);
        kappaLayers     List<scalar> 1(0.0005);
        kappaMethod     solidThermo;
        kappa           none;
        alphaAni        none;
        alpha           none;
        field           T;
    }
    leftSolid_to_topAir
    {
        type            compressible::turbulentTemperatureCoupledBaffleMixed;
        refValue        nonuniform List<scalar> 
130
(
325.35004
348.78468
369.98898
389.57446
408.05029
425.71715
442.67746
458.77578
473.70674
487.4263
499.8006
510.58197
519.22172
325.34858
348.53557
369.25096
388.1055
405.57079
421.88824
437.11332
451.17225
463.84365
474.76128
483.40925
489.1665
491.20853
325.35242
348.58761
369.36918
388.30658
405.8778
422.33831
437.79715
452.27573
465.68869
477.82045
488.26228
496.31706
500.73883
325.35858
348.6153
369.442
388.4559
406.15447
422.8283
438.63723
453.66776
467.94579
481.39498
493.74337
504.32378
511.82891
325.36221
348.62727
369.46771
388.50078
406.22567
422.93334
438.78538
453.86596
468.18206
481.60912
493.74525
503.67779
510.13302
325.36595
348.63462
369.47888
388.51626
406.24647
422.96072
438.81874
453.90347
468.21674
481.62489
493.70638
503.52123
509.83427
325.37041
348.63826
369.47579
388.50123
406.21363
422.90269
438.72692
453.77034
468.05582
481.49913
493.81475
504.31333
511.66296
325.37443
348.63042
369.43222
388.39157
405.98859
422.47825
437.9692
452.48166
465.92656
478.08311
488.53478
496.57208
500.92387
325.38085
348.59795
369.34223
388.22729
405.7256
422.07817
437.341
451.43993
464.15032
475.10565
483.78039
489.53536
491.52651
325.38925
348.86133
370.1031
389.72805
408.24593
425.95812
442.96574
459.1117
474.09168
487.86054
500.28019
511.09358
519.73808
)
;
        refGradient     uniform 0;
        valueFraction   nonuniform List<scalar> 
130
(
0.00032132529
0.00032132529
0.00032132529
0.00032132529
0.00032132529
0.00032132529
0.00032132529
0.00032132529
0.00032132529
0.00032132529
0.00032132529
0.00032132529
0.00032132529
0.00032132529
0.00032132529
0.00032132529
0.00032132529
0.00032132529
0.00032132529
0.00032132529
0.00032132529
0.00032132529
0.00032132529
0.00032132529
0.00032132529
0.00032132529
0.00032132529
0.00032132529
0.00032132529
0.00032132529
0.00032132529
0.00032132529
0.00032132529
0.00032132529
0.00032132529
0.00032132529
0.00032132529
0.00032132529
0.00032132529
0.00032132529
0.00032132529
0.00032132529
0.00032132529
0.00032132529
0.00032132529
0.00032132529
0.00032132529
0.00032132529
0.00032132529
0.00032132529
0.00032132529
0.00032132529
0.00032132529
0.00032132529
0.00032132529
0.00032132529
0.00032132529
0.00032132529
0.00032132529
0.00032132529
0.00032132529
0.00032132529
0.00032132529
0.00032132529
0.00032132529
0.00032132529
0.00032132529
0.00032132529
0.00032132529
0.00032132529
0.00032132529
0.00032132529
0.00032132529
0.00032132529
0.00032132529
0.00032132529
0.00032132529
0.00032132529
0.00032132529
0.00032132529
0.00032132529
0.00032132529
0.00032132529
0.00032132529
0.00032132529
0.00032132529
0.00032132529
0.00032132529
0.00032132529
0.00032132529
0.00032132529
0.00032132529
0.00032132529
0.00032132529
0.00032132529
0.00032132529
0.00032132529
0.00032132529
0.00032132529
0.00032132529
0.00032132529
0.00032132529
0.00032132529
0.00032132529
0.00032132529
0.00032132529
0.00032132529
0.00032132529
0.00032132529
0.00032132529
0.00032132529
0.00032132529
0.00032132529
0.00032132529
0.00032132529
0.00032132529
0.00032132529
0.00032132529
0.00032132529
0.00032132529
0.00032132529
0.00032132529
0.00032132529
0.00032132529
0.00032132529
0.00032132529
0.00032132529
0.00032132529
0.00032132529
0.00032132529
)
;
        value           nonuniform List<scalar> 
130
(
923.46325
923.41033
923.27928
923.08694
922.8797
922.64839
922.38911
922.09992
921.81953
921.55219
921.30558
921.10045
920.96922
923.58633
923.53135
923.40256
923.19249
922.95307
922.7073
922.43687
922.13308
921.85213
921.58437
921.3312
921.11902
921.00106
923.7646
923.70842
923.5824
923.37953
923.11094
922.84125
922.55083
922.2424
921.96016
921.69276
921.44771
921.23431
921.10899
923.92279
923.87263
923.75636
923.56993
923.30238
923.01226
922.71223
922.40554
922.10642
921.81571
921.5553
921.35499
921.23308
924.03737
923.99427
923.88925
923.72683
923.50495
923.22543
922.90167
922.58223
922.26538
921.95893
921.70086
921.5013
921.36747
924.13193
924.09731
924.00959
923.86824
923.67663
923.43954
923.15791
922.84723
922.51282
922.17826
921.90561
921.69828
921.5427
924.22303
924.19237
924.11189
923.98253
923.81371
923.60845
923.35497
923.08579
922.80085
922.51752
922.26388
922.03691
921.81729
924.31659
924.28373
924.19646
924.07101
923.91973
923.7405
923.52621
923.29155
923.04698
922.81174
922.60188
922.4235
922.27383
924.3945
924.35988
924.27076
924.14534
923.99954
923.83386
923.64573
923.44249
923.23642
923.04178
922.87707
922.75069
922.67309
924.44167
924.41036
924.33258
924.20928
924.0594
923.89976
923.72935
923.54948
923.36822
923.20288
923.06226
922.95702
922.90029
)
;
        Tnbr            T;
        thicknessLayers List<scalar> 0();
        kappaLayers     List<scalar> 0();
        kappaMethod     solidThermo;
        kappa           none;
        alphaAni        none;
        alpha           none;
        field           T;
    }
}


// ************************************************************************* //
