/*--------------------------------*- C++ -*----------------------------------*\
| =========                 |                                                 |
| \\      /  F ield         | OpenFOAM: The Open Source CFD Toolbox           |
|  \\    /   O peration     | Version:  v2012                                 |
|   \\  /    A nd           | Website:  www.openfoam.com                      |
|    \\/     M anipulation  |                                                 |
\*---------------------------------------------------------------------------*/
FoamFile
{
    version     2.0;
    format      ascii;
    class       volScalarField;
    location    "200/bottomWater";
    object      p;
}
// * * * * * * * * * * * * * * * * * * * * * * * * * * * * * * * * * * * * * //

dimensions      [1 -1 -2 0 0 0 0];


internalField   nonuniform List<scalar> 
1460
(
353.43795
353.44778
353.44481
353.44635
353.44269
353.44706
353.43799
353.44447
353.44478
353.44389
353.44023
353.44399
353.44996
353.44962
353.45658
353.45328
353.44028
353.4622
353.4519
353.45518
353.45073
353.44986
353.45557
353.45722
353.45648
353.46069
353.45455
353.46389
353.46018
353.45663
274.46912
274.49301
274.50618
274.49452
274.48148
274.47414
274.44433
274.42912
274.42543
274.44505
274.43665
274.46843
274.50358
274.50313
274.50963
274.49376
274.4519
274.5051
274.47678
274.42126
274.45313
274.45878
274.48404
274.49143
274.50014
274.49978
274.49093
274.50532
274.47508
274.46004
196.30682
196.27471
196.2847
196.27209
196.27803
196.26142
196.2614
196.28889
196.30294
196.29313
196.2801
196.25014
196.26029
196.27223
196.26831
196.2639
196.28553
196.24642
196.25237
196.26097
196.28937
196.2392
196.27032
196.26878
196.27509
196.27799
196.27675
196.2777
196.27261
196.28969
117.69317
117.68859
117.67503
117.67629
117.67592
117.66951
117.64058
117.68367
117.68459
117.63168
117.65101
117.63536
117.66095
117.67488
117.70959
117.68829
117.66519
117.66598
117.65194
117.67806
117.64335
117.65478
117.67787
117.69404
117.67044
117.68443
117.67845
117.69715
117.67016
117.6491
39.240027
39.230441
39.235136
39.235128
39.230919
39.233927
39.250442
39.255098
39.260361
39.285134
39.263938
39.25503
39.224858
39.217524
39.23664
39.227032
39.226238
39.249503
39.250305
39.251945
39.254722
39.242797
39.228032
39.231816
39.240364
39.239815
39.240344
39.237319
39.230208
39.252971
353.44102
353.43652
353.45473
353.44507
353.4432
353.44256
353.43748
353.44001
353.44592
353.44656
353.44489
353.43721
353.4514
353.4537
353.44047
353.45
353.43777
353.46454
353.45233
353.45709
353.45437
353.44834
353.44622
353.44682
353.45332
353.45255
353.44436
353.45656
353.44785
353.4535
274.44839
274.44349
274.49513
274.46389
274.44647
274.45575
274.44039
274.42597
274.42694
274.4273
274.42552
274.44005
274.48721
274.48703
274.43771
274.4326
274.44658
274.46073
274.43462
274.41597
274.42424
274.41596
274.4324
274.43844
274.46151
274.45309
274.4445
274.457
274.42894
274.42625
196.29211
196.26873
196.25037
196.25752
196.27339
196.28192
196.28485
196.29021
196.31908
196.31671
196.27028
196.25534
196.24263
196.24123
196.31171
196.25853
196.30694
196.23472
196.25813
196.28098
196.30845
196.26891
196.27906
196.26996
196.26242
196.27967
196.28325
196.26706
196.27301
196.29594
117.65629
117.63418
117.64896
117.63229
117.6539
117.64748
117.65259
117.66506
117.67841
117.6808
117.66822
117.64082
117.65414
117.65851
117.65529
117.68946
117.65648
117.67588
117.64187
117.68806
117.6662
117.65148
117.63218
117.61415
117.61204
117.62438
117.62045
117.63304
117.63144
117.65934
39.23306
39.235822
39.253645
39.26103
39.247544
39.258012
39.249682
39.257271
39.26564
39.272537
39.257839
39.253796
39.248833
39.241268
39.228924
39.243311
39.261278
39.268557
39.261743
39.264206
39.262986
39.249118
39.241501
39.24402
39.263312
39.264197
39.25689
39.24159
39.244222
39.248444
353.43967
353.43642
353.44953
353.44647
353.45341
353.44011
353.45552
353.44164
353.44393
353.44715
353.45136
353.44678
353.44388
353.44869
353.45363
353.4451
353.44961
353.44442
353.44664
353.4538
353.44859
353.45564
353.45002
353.45254
353.45192
353.45181
353.45185
353.454
353.45509
353.45656
274.43803
274.44862
274.46194
274.42902
274.43322
274.45212
274.47643
274.44152
274.42431
274.42384
274.45296
274.43038
274.43291
274.45928
274.48337
274.4636
274.44856
274.43332
274.42073
274.41905
274.42065
274.44365
274.42728
274.41628
274.41263
274.41547
274.4179
274.43331
274.41257
274.42241
196.30549
196.29897
196.27918
196.31512
196.29852
196.27685
196.24572
196.27179
196.27289
196.31206
196.30629
196.29929
196.2865
196.26148
196.26823
196.28545
196.27532
196.28343
196.28908
196.32363
196.30576
196.27726
196.30402
196.29765
196.30771
196.31301
196.31672
196.30269
196.30989
196.34552
117.67463
117.64079
117.65003
117.68447
117.69046
117.64084
117.66576
117.65925
117.66239
117.67854
117.61833
117.66937
117.65739
117.65849
117.66508
117.67185
117.64227
117.6346
117.6686
117.68521
117.681
117.66585
117.66967
117.68985
117.68837
117.68004
117.68286
117.65201
117.68943
117.68906
39.256175
39.277975
39.284361
39.272341
39.270704
39.272018
39.264252
39.250072
39.257942
39.267662
39.277305
39.2534
39.2368
39.254832
39.237028
39.236799
39.253379
39.25949
39.261699
39.273748
39.264837
39.274448
39.26924
39.264971
39.26709
39.268796
39.279246
39.285085
39.264765
39.273914
353.43896
353.43773
353.43685
353.44171
353.43758
353.44488
353.44506
353.44841
353.44745
353.44451
353.46474
353.42686
353.44461
353.43759
353.43847
353.43684
353.4395
353.44539
353.44765
353.4461
353.43845
353.44981
353.44814
353.44787
353.45055
353.45573
353.45252
353.45356
353.45192
353.45264
274.4336
274.42564
274.42748
274.42991
274.44623
274.48149
274.4962
274.47611
274.45058
274.43184
274.48684
274.43909
274.44031
274.44213
274.44974
274.4442
274.43019
274.4273
274.42943
274.42456
274.43378
274.46622
274.47058
274.44876
274.43323
274.41806
274.41351
274.43696
274.43059
274.42082
196.31988
196.29806
196.2893
196.28275
196.26282
196.24613
196.26908
196.26685
196.25708
196.29166
196.24962
196.28107
196.31302
196.3049
196.3124
196.30725
196.31344
196.31314
196.30516
196.27337
196.25794
196.25479
196.26985
196.28324
196.29475
196.31686
196.30943
196.29671
196.29633
196.30499
117.68406
117.6828
117.67626
117.68721
117.63242
117.64691
117.66348
117.67519
117.62445
117.66815
117.63854
117.64499
117.6643
117.67383
117.62412
117.65102
117.66798
117.68144
117.6809
117.67238
117.65068
117.65699
117.6436
117.63464
117.6353
117.6711
117.67382
117.63467
117.63021
117.67036
39.260745
39.259495
39.254167
39.253895
39.250828
39.243348
39.232955
39.230269
39.24849
39.250637
39.259524
39.245688
39.234962
39.252595
39.260126
39.249412
39.239685
39.245281
39.25176
39.255738
39.254279
39.2387
39.237648
39.261496
39.257004
39.27079
39.266467
39.281205
39.267453
39.253736
353.43924
353.42955
353.45001
353.4365
353.44034
353.44581
353.45259
353.45485
353.45255
353.44781
353.45456
353.45415
353.44114
353.45438
353.44994
353.44114
353.45541
353.46345
353.46402
353.46219
353.45935
353.45804
353.45677
353.46808
353.46686
353.45774
274.44372
274.44378
274.47489
274.455
274.45652
274.48816
274.50818
274.50526
274.47672
274.45065
274.46086
274.45725
274.44527
274.42961
274.42777
274.43247
274.4633
274.49627
274.48345
274.46737
274.45746
274.44494
274.44084
274.48262
274.47043
274.44282
196.2974
196.28019
196.24877
196.29398
196.27383
196.2659
196.26438
196.27454
196.26192
196.28048
196.31824
196.25952
196.31456
196.31079
196.28177
196.26657
196.25286
196.26686
196.26384
196.26096
196.26676
196.28612
196.28293
196.25835
196.27327
196.30861
117.68937
117.65903
117.66927
117.66959
117.68157
117.68345
117.70167
117.68782
117.65323
117.64596
117.63219
117.64039
117.66689
117.68793
117.67096
117.66656
117.67544
117.6972
117.68822
117.67467
117.66391
117.66328
117.6514
117.65896
117.67074
117.68489
39.254915
39.26046
39.250372
39.243192
39.229937
39.224512
39.236799
39.231209
39.235224
39.246987
39.272719
39.237609
39.238088
39.239113
39.236342
39.238838
39.229259
39.233975
39.234718
39.231871
39.233247
39.241345
39.248682
39.24162
39.230585
39.240019
353.44285
353.43637
353.44819
353.46073
353.44258
353.44915
353.45389
353.45145
353.44939
353.43379
353.44003
353.43123
353.43846
353.45146
353.4511
353.46795
353.47069
353.46907
353.46713
353.46607
353.46246
353.4556
353.4644
353.46849
353.46828
353.46175
274.44121
274.44072
274.48076
274.50424
274.47016
274.49471
274.5088
274.50631
274.48575
274.44553
274.44448
274.44413
274.44308
274.42257
274.424
274.45897
274.50613
274.45921
274.4291
274.4143
274.42741
274.42468
274.45748
274.49613
274.50094
274.47228
196.28939
196.26474
196.25087
196.25678
196.27875
196.27327
196.2595
196.27768
196.24993
196.268
196.29119
196.32335
196.33501
196.27958
196.25094
196.23109
196.2431
196.26343
196.29753
196.30925
196.30503
196.29278
196.26987
196.27834
196.27138
196.30254
117.68889
117.66044
117.67938
117.68597
117.67148
117.69331
117.70136
117.66913
117.65463
117.64419
117.65943
117.6395
117.67003
117.66644
117.63065
117.64716
117.6487
117.65639
117.6696
117.67775
117.65747
117.65544
117.66817
117.67682
117.68035
117.69469
39.256463
39.257476
39.245442
39.240597
39.258293
39.230115
39.236591
39.218817
39.236205
39.254472
39.235874
39.235983
39.233486
39.238054
39.24724
39.250199
39.243026
39.226064
39.229563
39.232364
39.23314
39.240729
39.233089
39.240242
39.23758
39.236375
353.4451
353.44368
353.4431
353.44904
353.4542
353.44934
353.44464
353.45297
353.4531
353.44215
353.44702
353.45348
353.45356
353.45536
353.45917
353.44715
353.46578
353.47522
353.47768
353.46672
353.47811
353.46502
353.46416
353.46569
353.46487
353.46178
353.45446
353.4569
353.46741
353.46655
274.43335
274.42516
274.43328
274.4542
274.48414
274.48896
274.47633
274.50701
274.47317
274.43241
274.42103
274.42473
274.42323
274.42369
274.42588
274.42874
274.44631
274.4605
274.4016
274.42163
274.45383
274.42877
274.40887
274.40748
274.40851
274.40777
274.40872
274.42634
274.47199
274.4937
196.31607
196.28462
196.26669
196.24834
196.23486
196.27066
196.27565
196.2489
196.24543
196.25711
196.28295
196.29677
196.30787
196.33482
196.31031
196.28681
196.24959
196.26497
196.28361
196.28891
196.2371
196.27511
196.27113
196.31439
196.30991
196.29156
196.25438
196.24897
196.23278
196.24113
117.68432
117.68248
117.66585
117.65416
117.66927
117.67858
117.67049
117.65039
117.65806
117.64128
117.67313
117.6813
117.69554
117.70616
117.70916
117.66785
117.6483
117.63309
117.69624
117.64434
117.65697
117.64952
117.67857
117.6993
117.6827
117.66757
117.63557
117.62713
117.64189
117.65459
39.261138
39.258801
39.253205
39.250784
39.24515
39.228893
39.227601
39.240578
39.250631
39.250633
39.250882
39.243868
39.240097
39.244519
39.242834
39.238138
39.240369
39.254943
39.269612
39.263067
39.258835
39.245559
39.238159
39.253919
39.258856
39.262069
39.247205
39.249612
39.247779
39.240517
353.44076
353.44151
353.44576
353.44766
353.4405
353.44128
353.4541
353.45759
353.45096
353.44403
353.44534
353.44304
353.44123
353.44818
353.45254
353.4431
353.47077
353.46638
353.46936
353.46983
353.47427
353.46958
353.4572
353.46538
353.46525
353.46866
353.46689
353.462
353.45561
353.44811
274.43424
274.4442
274.4359
274.42968
274.43912
274.44238
274.49724
274.49483
274.43801
274.42483
274.42862
274.44199
274.42943
274.42139
274.42192
274.42812
274.43785
274.40561
274.40055
274.40355
274.45965
274.46321
274.42198
274.41484
274.40838
274.40818
274.40834
274.40732
274.42477
274.43428
196.31512
196.28611
196.31304
196.28847
196.27351
196.27612
196.24622
196.24839
196.24782
196.2751
196.30404
196.30961
196.29624
196.31346
196.28643
196.28087
196.23897
196.29699
196.30706
196.28526
196.24843
196.25401
196.27469
196.2975
196.32235
196.35011
196.34019
196.29787
196.2849
196.28724
117.67697
117.65008
117.68563
117.6843
117.66692
117.66224
117.65241
117.65847
117.64394
117.66268
117.68514
117.63703
117.64653
117.67435
117.67773
117.64958
117.65921
117.67067
117.68385
117.66979
117.64182
117.65508
117.66114
117.68627
117.68859
117.70141
117.69331
117.68404
117.66799
117.66546
39.260648
39.275278
39.25762
39.255283
39.250489
39.242364
39.244671
39.258225
39.260025
39.256423
39.262749
39.279923
39.25092
39.240184
39.244634
39.259738
39.267494
39.263777
39.280506
39.264761
39.259107
39.253159
39.243773
39.262486
39.273241
39.282696
39.27601
39.27229
39.264181
39.272713
353.44712
353.45841
353.4397
353.44988
353.44654
353.44094
353.45767
353.45101
353.4603
353.45364
353.44784
353.46177
353.46792
353.44845
353.45662
353.44809
353.48262
353.46668
353.48306
353.47927
353.48254
353.47773
353.46096
353.45763
353.45554
353.46168
353.4592
353.45745
353.4583
353.4551
274.44527
274.46687
274.43726
274.43501
274.42845
274.44536
274.46463
274.42621
274.41374
274.43189
274.43427
274.48148
274.46514
274.43056
274.43833
274.43431
274.46613
274.40814
274.40296
274.39925
274.43555
274.47127
274.44388
274.42845
274.42071
274.41154
274.40985
274.4304
274.4386
274.42371
196.29253
196.24164
196.26639
196.2897
196.26553
196.27099
196.23639
196.26389
196.27765
196.28616
196.26208
196.23585
196.23927
196.28043
196.28197
196.27335
196.2363
196.26942
196.29855
196.29158
196.25543
196.26342
196.26566
196.28355
196.26843
196.30587
196.29969
196.2965
196.30198
196.29623
117.67482
117.66298
117.66394
117.69612
117.6941
117.64259
117.66451
117.63951
117.69088
117.68711
117.65505
117.66395
117.65347
117.65904
117.6677
117.64178
117.64466
117.62013
117.68116
117.69283
117.61451
117.64605
117.64684
117.67423
117.62746
117.6805
117.64986
117.61629
117.61909
117.66062
39.243612
39.24973
39.240575
39.244241
39.246253
39.254934
39.269041
39.272326
39.274502
39.269589
39.268276
39.267977
39.25044
39.236662
39.231949
39.23405
39.25422
39.266926
39.277797
39.28127
39.260812
39.243915
39.233377
39.25166
39.255298
39.25782
39.243757
39.271688
39.263758
39.240466
353.44755
353.45501
353.45183
353.44914
353.44239
353.4414
353.43981
353.44536
353.44824
353.43981
353.45112
353.46473
353.46797
353.45753
353.47724
353.47124
353.47451
353.47231
353.47743
353.47787
353.47791
353.47747
353.46903
353.47222
353.46431
353.463
353.46041
353.47432
353.46905
353.45704
274.47155
274.49447
274.49663
274.47242
274.4497
274.43986
274.44934
274.43116
274.43409
274.44598
274.47439
274.51147
274.4269
274.46867
274.48177
274.49174
274.47874
274.44812
274.43064
274.40697
274.45749
274.47885
274.48659
274.48715
274.46181
274.43431
274.43504
274.47577
274.4704
274.44339
196.29105
196.27416
196.27095
196.25965
196.28065
196.28772
196.27003
196.29658
196.29568
196.26495
196.26044
196.24445
196.29097
196.29396
196.2658
196.26612
196.27164
196.25402
196.29101
196.27774
196.2515
196.27126
196.26563
196.27062
196.25578
196.27914
196.30772
196.27595
196.27325
196.31119
117.66165
117.67191
117.69245
117.6896
117.66288
117.68224
117.65001
117.67916
117.68863
117.65539
117.68093
117.66861
117.68698
117.68642
117.71634
117.69054
117.66287
117.64587
117.63626
117.67638
117.6139
117.67144
117.67835
117.6951
117.64515
117.67773
117.6515
117.67313
117.65716
117.68173
39.254824
39.234636
39.237431
39.23313
39.236652
39.244128
39.258674
39.259661
39.267907
39.262892
39.258516
39.253429
39.234306
39.229546
39.244847
39.232999
39.233606
39.252435
39.273539
39.261514
39.254597
39.230513
39.235037
39.246741
39.256485
39.252787
39.235186
39.24542
39.236238
39.237974
)
;

boundaryField
{
    minX
    {
        type            calculated;
        value           nonuniform List<scalar> 
50
(
353.43795
274.46912
196.30682
117.69317
39.240027
353.44102
274.44839
196.29211
117.65629
39.23306
353.43967
274.43803
196.30549
117.67463
39.256175
353.43896
274.4336
196.31988
117.68406
39.260745
353.43924
274.44372
196.2974
117.68937
39.254915
353.44285
274.44121
196.28939
117.68889
39.256463
353.4451
274.43335
196.31607
117.68432
39.261138
353.44076
274.43424
196.31512
117.67697
39.260648
353.44712
274.44527
196.29253
117.67482
39.243612
353.44755
274.47155
196.29105
117.66165
39.254824
)
;
    }
    maxX
    {
        type            calculated;
        value           nonuniform List<scalar> 
50
(
353.45663
274.46004
196.28969
117.6491
39.252971
353.4535
274.42625
196.29594
117.65934
39.248444
353.45656
274.42241
196.34552
117.68906
39.273914
353.45264
274.42082
196.30499
117.67036
39.253736
353.45774
274.44282
196.30861
117.68489
39.240019
353.46175
274.47228
196.30254
117.69469
39.236375
353.46655
274.4937
196.24113
117.65459
39.240517
353.44811
274.43428
196.28724
117.66546
39.272713
353.4551
274.42371
196.29623
117.66062
39.240466
353.45704
274.44339
196.31119
117.68173
39.237974
)
;
    }
    minY
    {
        type            calculated;
        value           nonuniform List<scalar> 
292
(
392.4
392.4
392.4
392.4
392.4
392.4
392.4
392.4
392.4
392.4
392.4
392.4
392.4
392.4
392.4
392.4
392.4
392.4
392.4
392.4
392.4
392.4
392.4
392.4
392.4
392.4
392.4
392.4
392.4
392.4
392.4
392.4
392.4
392.4
392.4
392.4
392.4
392.4
392.4
392.4
392.4
392.4
392.4
392.4
392.4
392.4
392.4
392.4
392.4
392.4
392.4
392.4
392.4
392.4
392.4
392.4
392.4
392.4
392.4
392.4
392.4
392.4
392.4
392.4
392.4
392.4
392.4
392.4
392.4
392.4
392.4
392.4
392.4
392.4
392.4
392.4
392.4
392.4
392.4
392.4
392.4
392.4
392.4
392.4
392.4
392.4
392.4
392.4
392.4
392.4
392.4
392.4
392.4
392.4
392.4
392.4
392.4
392.4
392.4
392.4
392.4
392.4
392.4
392.4
392.4
392.4
392.4
392.4
392.4
392.4
392.4
392.4
392.4
392.4
392.4
392.4
392.4
392.4
392.4
392.4
392.4
392.4
392.4
392.4
392.4
392.4
392.4
392.4
392.4
392.4
392.4
392.4
392.4
392.4
392.4
392.4
392.4
392.4
392.4
392.4
392.4
392.4
392.4
392.4
392.4
392.4
392.4
392.4
392.4
392.4
392.4
392.4
392.4
392.4
392.4
392.4
392.4
392.4
392.4
392.4
392.4
392.4
392.4
392.4
392.4
392.4
392.4
392.4
392.4
392.4
392.4
392.4
392.4
392.4
392.4
392.4
392.4
392.4
392.4
392.4
392.4
392.4
392.4
392.4
392.4
392.4
392.4
392.4
392.4
392.4
392.4
392.4
392.4
392.4
392.4
392.4
392.4
392.4
392.4
392.4
392.4
392.4
392.4
392.4
392.4
392.4
392.4
392.4
392.4
392.4
392.4
392.4
392.4
392.4
392.4
392.4
392.4
392.4
392.4
392.4
392.4
392.4
392.4
392.4
392.4
392.4
392.4
392.4
392.4
392.4
392.4
392.4
392.4
392.4
392.4
392.4
392.4
392.4
392.4
392.4
392.4
392.4
392.4
392.4
392.4
392.4
392.4
392.4
392.4
392.4
392.4
392.4
392.4
392.4
392.4
392.4
392.4
392.4
392.4
392.4
392.4
392.4
392.4
392.4
392.4
392.4
392.4
392.4
392.4
392.4
392.4
392.4
392.4
392.4
392.4
392.4
392.4
392.4
392.4
392.4
392.4
392.4
392.4
392.4
392.4
392.4
392.4
392.4
392.4
392.4
392.4
392.4
)
;
    }
    minZ
    {
        type            calculated;
        value           nonuniform List<scalar> 
150
(
353.43795
274.46912
196.30682
117.69317
39.240027
353.44778
274.49301
196.27471
117.68859
39.230441
353.44481
274.50618
196.2847
117.67503
39.235136
353.44635
274.49452
196.27209
117.67629
39.235128
353.44269
274.48148
196.27803
117.67592
39.230919
353.44706
274.47414
196.26142
117.66951
39.233927
353.43799
274.44433
196.2614
117.64058
39.250442
353.44447
274.42912
196.28889
117.68367
39.255098
353.44478
274.42543
196.30294
117.68459
39.260361
353.44389
274.44505
196.29313
117.63168
39.285134
353.44023
274.43665
196.2801
117.65101
39.263938
353.44399
274.46843
196.25014
117.63536
39.25503
353.44996
274.50358
196.26029
117.66095
39.224858
353.44962
274.50313
196.27223
117.67488
39.217524
353.45658
274.50963
196.26831
117.70959
39.23664
353.45328
274.49376
196.2639
117.68829
39.227032
353.44028
274.4519
196.28553
117.66519
39.226238
353.4622
274.5051
196.24642
117.66598
39.249503
353.4519
274.47678
196.25237
117.65194
39.250305
353.45518
274.42126
196.26097
117.67806
39.251945
353.45073
274.45313
196.28937
117.64335
39.254722
353.44986
274.45878
196.2392
117.65478
39.242797
353.45557
274.48404
196.27032
117.67787
39.228032
353.45722
274.49143
196.26878
117.69404
39.231816
353.45648
274.50014
196.27509
117.67044
39.240364
353.46069
274.49978
196.27799
117.68443
39.239815
353.45455
274.49093
196.27675
117.67845
39.240344
353.46389
274.50532
196.2777
117.69715
39.237319
353.46018
274.47508
196.27261
117.67016
39.230208
353.45663
274.46004
196.28969
117.6491
39.252971
)
;
    }
    maxZ
    {
        type            calculated;
        value           nonuniform List<scalar> 
150
(
353.44755
274.47155
196.29105
117.66165
39.254824
353.45501
274.49447
196.27416
117.67191
39.234636
353.45183
274.49663
196.27095
117.69245
39.237431
353.44914
274.47242
196.25965
117.6896
39.23313
353.44239
274.4497
196.28065
117.66288
39.236652
353.4414
274.43986
196.28772
117.68224
39.244128
353.43981
274.44934
196.27003
117.65001
39.258674
353.44536
274.43116
196.29658
117.67916
39.259661
353.44824
274.43409
196.29568
117.68863
39.267907
353.43981
274.44598
196.26495
117.65539
39.262892
353.45112
274.47439
196.26044
117.68093
39.258516
353.46473
274.51147
196.24445
117.66861
39.253429
353.46797
274.4269
196.29097
117.68698
39.234306
353.45753
274.46867
196.29396
117.68642
39.229546
353.47724
274.48177
196.2658
117.71634
39.244847
353.47124
274.49174
196.26612
117.69054
39.232999
353.47451
274.47874
196.27164
117.66287
39.233606
353.47231
274.44812
196.25402
117.64587
39.252435
353.47743
274.43064
196.29101
117.63626
39.273539
353.47787
274.40697
196.27774
117.67638
39.261514
353.47791
274.45749
196.2515
117.6139
39.254597
353.47747
274.47885
196.27126
117.67144
39.230513
353.46903
274.48659
196.26563
117.67835
39.235037
353.47222
274.48715
196.27062
117.6951
39.246741
353.46431
274.46181
196.25578
117.64515
39.256485
353.463
274.43431
196.27914
117.67773
39.252787
353.46041
274.43504
196.30772
117.6515
39.235186
353.47432
274.47577
196.27595
117.67313
39.24542
353.46905
274.4704
196.27325
117.65716
39.236238
353.45704
274.44339
196.31119
117.68173
39.237974
)
;
    }
    bottomWater_to_rightSolid
    {
        type            calculated;
        value           nonuniform List<scalar> 
130
(
0.0095032359
0.010304693
0.011944971
0.014722114
0.0027969312
-0.011968189
-0.008184098
0.00036431313
-0.0001850974
0.00034447561
-0.002680898
-0.0097920273
0.012970822
0.028556694
0.021742767
0.024205906
0.022986447
0.0091178012
0.0015005584
0.0040204186
0.023312185
0.024196838
0.016890319
0.0015896358
0.0042216353
0.0084441641
0.019490242
0.021699012
0.033747689
0.024837302
0.03444759
0.029239924
0.024971333
0.027089858
0.028796403
0.039245668
0.04508481
0.024765301
0.033914187
0.0052810292
0.011760117
0.01573779
0.014278664
-0.0012995533
-0.0023521874
0.021496187
0.01700385
0.030790423
0.026466729
0.041205063
0.027453133
0.01373573
-0.00088661091
-0.0036577386
-0.0011616644
-0.010740837
-0.006025395
-0.0052816619
-0.00812945
-0.006752765
0.0013449616
0.0086820536
0.0016200145
-0.0094151506
1.8545103e-05
-0.0019460573
0.0072399858
0.010199437
0.0030261114
-0.013935995
-0.010437166
-0.0076360834
-0.0068602751
0.00072902758
-0.0069106102
0.00024195567
-0.002419597
-0.0036246809
0.014942861
0.029611941
0.023067003
0.018835442
0.0055585409
-0.0018414896
0.013919168
0.018855872
0.022068669
0.0072050143
0.0096122008
0.007778705
0.00051715982
0.023776634
0.040505673
0.024761423
0.019106972
0.013159149
0.003773472
0.022486142
0.033240963
0.04269633
0.036009711
0.032290358
0.024180935
0.032712692
0.026926276
0.037796826
0.041269536
0.020811596
0.003914869
-0.0066225542
0.011659658
0.015297692
0.01781992
0.0037565257
0.031688219
0.023757907
0.00046570205
0.012434893
0.033539429
0.021513869
0.014597148
-0.0094867824
-0.0049634087
0.0067405697
0.016484851
0.012786533
-0.0048143597
0.0054195986
-0.0037624101
-0.0020259492
)
;
    }
    bottomWater_to_leftSolid
    {
        type            calculated;
        value           nonuniform List<scalar> 
130
(
2.6714257e-05
-0.0095590841
-0.0048641943
-0.0048716269
-0.0090814625
-0.0060733027
0.010442104
0.015098075
0.020361141
0.045133658
0.023937916
0.015029954
-0.015142374
-0.0069397423
-0.004177687
0.013644901
0.021030149
0.0075443451
0.018012172
0.0096821755
0.017271428
0.02563958
0.032537125
0.017839246
0.013796449
0.008832686
0.016175374
0.03797545
0.044361423
0.032340615
0.030703522
0.032017532
0.024252267
0.01007241
0.01794163
0.027661512
0.037304603
0.01339985
-0.0032001281
0.020745364
0.019494519
0.014166995
0.013894633
0.010827615
0.0033480551
-0.0070451503
-0.0097312941
0.0084897819
0.010636657
0.019524178
0.0056881362
-0.0050383931
0.014915446
0.020459777
0.010372037
0.0031924066
-0.010062995
-0.015487965
-0.0032013596
-0.0087914091
-0.0047759121
0.0069874003
0.032718918
-0.002390519
-0.0019120106
0.016463456
0.017476074
0.0054415242
0.00059688198
0.018293324
-0.0098854053
-0.0034089751
-0.021183011
-0.0037953733
0.014472148
-0.0041262958
-0.0040170635
-0.0065135786
0.021137797
0.018800791
0.013204671
0.010784294
0.0051497486
-0.011107466
-0.012398532
0.000577654
0.010630508
0.01063256
0.010882426
0.0038684857
9.7467419e-05
0.02064788
0.035278342
0.017619596
0.015283285
0.010489129
0.0023635902
0.0046707711
0.018225028
0.020025259
0.016423016
0.022748799
0.039922523
0.010919895
0.0036121433
0.009730045
0.00057464155
0.0042405802
0.0062534181
0.014933994
0.029041176
0.032326499
0.034501645
0.029589229
0.028275565
0.02797665
0.010439866
0.014824075
-0.0053643635
-0.0025691569
-0.0068700351
-0.003347533
0.0041284922
0.018673788
0.019660549
0.027906835
0.022892101
0.018516193
0.013428671
-0.0056938653
)
;
    }
    bottomWater_to_heater
    {
        type            calculated;
        value           nonuniform List<scalar> 
92
(
-0.022476129
-0.0033603486
-0.012967653
-0.013761982
0.0012681171
-0.011076299
0.0033109377
0.02127814
0.014832044
-0.0029720163
-0.0032007834
0.01337898
353.43759
353.43847
353.43684
353.4395
274.44213
274.44974
274.4442
274.43019
196.3049
196.3124
196.30725
196.31344
117.67383
117.62412
117.65102
117.66798
0.012594866
39.252595
0.020125794
39.260126
0.0094117745
39.249412
-0.00031514314
39.239685
353.44114
353.45438
274.44527
274.42961
196.31456
196.31079
117.66689
117.68793
39.238088
39.239113
353.43846
353.45536
353.45917
353.44715
353.45146
353.46578
274.44308
274.42369
274.42588
274.42874
274.42257
274.44631
196.33501
196.33482
196.31031
196.28681
196.27958
196.24959
117.67003
117.70616
117.70916
117.66785
117.66644
117.6483
39.233486
39.244519
39.242834
39.238138
39.238054
39.240369
0.0045187755
0.0028344542
-0.0018623635
0.00036947336
0.00018448765
0.0046342101
0.019737847
0.027493917
-0.0033376139
-0.0080512285
-0.0059504911
0.014220241
-0.010454047
0.0048465826
-0.007000517
-0.006394183
)
;
    }
}


// ************************************************************************* //
