/*--------------------------------*- C++ -*----------------------------------*\
| =========                 |                                                 |
| \\      /  F ield         | OpenFOAM: The Open Source CFD Toolbox           |
|  \\    /   O peration     | Version:  v2012                                 |
|   \\  /    A nd           | Website:  www.openfoam.com                      |
|    \\/     M anipulation  |                                                 |
\*---------------------------------------------------------------------------*/
FoamFile
{
    version     2.0;
    format      ascii;
    class       volScalarField;
    location    "200/bottomWater";
    object      p_rgh;
}
// * * * * * * * * * * * * * * * * * * * * * * * * * * * * * * * * * * * * * //

dimensions      [1 -1 -2 0 0 0 0];


internalField   nonuniform List<scalar> 
1460
(
0.27794831
0.28778338
0.28481491
0.28635418
0.28269071
0.28705826
0.27799313
0.28447026
0.28477696
0.28389347
0.28022685
0.28398908
0.28996021
0.28962382
0.29657576
0.29327709
0.28028124
0.302196
0.29189631
0.29518451
0.29072709
0.28985677
0.29557008
0.29722068
0.29647578
0.30068623
0.29454509
0.30388951
0.30017686
0.29663183
-0.21088359
-0.18698927
-0.17381839
-0.18548166
-0.19852087
-0.20586125
-0.23566928
-0.25087899
-0.25456523
-0.23495012
-0.24335301
-0.21157433
-0.17642021
-0.17687008
-0.17037094
-0.18624328
-0.22809639
-0.1749038
-0.20322366
-0.25874168
-0.22686737
-0.22122031
-0.19596031
-0.18856618
-0.17986361
-0.18021825
-0.18907298
-0.1746845
-0.20492472
-0.21995877
0.10682498
0.074708981
0.084699975
0.072094741
0.078029763
0.061421289
0.061399933
0.08888555
0.10293633
0.09313444
0.080103225
0.050138194
0.060294203
0.072231882
0.068311723
0.06389669
0.085525213
0.046420069
0.052368005
0.060969102
0.08937021
0.039196924
0.070315258
0.068783466
0.075094379
0.077992538
0.076747361
0.077698508
0.07260564
0.089689306
-0.026829883
-0.031410928
-0.044971896
-0.043712872
-0.044083579
-0.050492822
-0.079419922
-0.036332559
-0.03540875
-0.088316186
-0.068987243
-0.084636046
-0.059046929
-0.045120954
-0.010405997
-0.031711731
-0.05480699
-0.054021597
-0.068064839
-0.041936458
-0.076646844
-0.065224285
-0.042133727
-0.025963206
-0.049555954
-0.035571286
-0.041549656
-0.022852294
-0.049841019
-0.070896232
2.6714257e-05
-0.0095590841
-0.0048641943
-0.0048716269
-0.0090814625
-0.0060733027
0.010442104
0.015098075
0.020361141
0.045133658
0.023937916
0.015029954
-0.015142374
-0.022476129
-0.0033603486
-0.012967653
-0.013761982
0.0095032359
0.010304693
0.011944971
0.014722114
0.0027969312
-0.011968189
-0.008184098
0.00036431313
-0.0001850974
0.00034447561
-0.002680898
-0.0097920273
0.012970822
0.281025
0.27651504
0.29472958
0.28507361
0.28320045
0.28256306
0.27748059
0.28000839
0.28591933
0.28655697
0.28489139
0.27720692
0.29140164
0.29370064
0.28047328
0.29000282
0.27776896
0.30453682
0.29232545
0.29708761
0.29437497
0.28833811
0.28622165
0.28681883
0.29332126
0.29254683
0.28436207
0.29656244
0.28784521
0.29349727
-0.23161053
-0.23650526
-0.18486517
-0.21610649
-0.23352961
-0.22425228
-0.23961359
-0.25402691
-0.25305582
-0.25269861
-0.25447864
-0.23995107
-0.19278884
-0.19297037
-0.24228789
-0.24739624
-0.23341959
-0.2192743
-0.24538051
-0.26403462
-0.255765
-0.26403776
-0.24760231
-0.2415648
-0.21849369
-0.22691365
-0.2355012
-0.22300218
-0.25105501
-0.25374683
0.092110819
0.068727816
0.05037374
0.05752242
0.073388568
0.081918418
0.084846687
0.090206113
0.11908323
0.11671338
0.070277818
0.055340699
0.042634046
0.041230922
0.11171175
0.05852676
0.10694219
0.034723978
0.058131823
0.080981343
0.10844765
0.068905169
0.079063286
0.069964661
0.062417124
0.079667943
0.083251858
0.067059794
0.073006582
0.095939852
-0.063712843
-0.085816132
-0.07103919
-0.087712349
-0.066104113
-0.072516607
-0.067412789
-0.054935263
-0.041589848
-0.039204147
-0.051781196
-0.079177865
-0.065861553
-0.061494098
-0.064707999
-0.030536221
-0.063518392
-0.044124978
-0.07813358
-0.031939534
-0.053795595
-0.068516844
-0.087817355
-0.10584531
-0.10796323
-0.095617638
-0.099554631
-0.086960189
-0.088555628
-0.060662065
-0.0069397423
-0.004177687
0.013644901
0.021030149
0.0075443451
0.018012172
0.0096821755
0.017271428
0.02563958
0.032537125
0.017839246
0.013796449
0.008832686
0.0012681171
-0.011076299
0.0033109377
0.02127814
0.028556694
0.021742767
0.024205906
0.022986447
0.0091178012
0.0015005584
0.0040204186
0.023312185
0.024196838
0.016890319
0.0015896358
0.0042216353
0.0084441641
0.27966708
0.2764184
0.28953278
0.28646998
0.29341324
0.28010891
0.29551999
0.28164351
0.28393113
0.28714792
0.29136081
0.28677924
0.28387957
0.2886911
0.29363404
0.28509541
0.28960645
0.28442113
0.2866376
0.29379892
0.28858808
0.29563557
0.29001515
0.29253795
0.29192463
0.29180917
0.29185426
0.29400002
0.29509414
0.29655852
-0.24197408
-0.23137805
-0.21806279
-0.25098207
-0.24677766
-0.22787906
-0.20357288
-0.23847672
-0.25569054
-0.25615836
-0.22703905
-0.2496248
-0.24708567
-0.2207172
-0.19662533
-0.21639885
-0.23143555
-0.2466838
-0.25926528
-0.26094564
-0.2593458
-0.23635151
-0.25272055
-0.26371526
-0.26736553
-0.26453219
-0.26209758
-0.24668802
-0.2674257
-0.25759312
0.10549455
0.098971311
0.079176298
0.11512422
0.098516444
0.07684552
0.045724623
0.071793029
0.072888573
0.11206128
0.10629182
0.099290234
0.086497882
0.061476156
0.068232065
0.085451556
0.075315761
0.083425692
0.089079495
0.12363423
0.10575603
0.077260734
0.1040164
0.097653986
0.10771349
0.1130119
0.11672209
0.10269422
0.10989481
0.14551509
-0.0453701
-0.079206861
-0.069967064
-0.035534885
-0.029538141
-0.079164065
-0.054237803
-0.060752873
-0.057605051
-0.04146007
-0.10167476
-0.050627112
-0.062612837
-0.061509368
-0.054922897
-0.048154943
-0.07773368
-0.085395793
-0.051402107
-0.034791039
-0.038998183
-0.054151887
-0.050325242
-0.030147018
-0.031629831
-0.039955497
-0.037138472
-0.067987181
-0.030570628
-0.030942049
0.016175374
0.03797545
0.044361423
0.032340615
0.030703522
0.032017532
0.024252267
0.01007241
0.01794163
0.027661512
0.037304603
0.01339985
-0.0032001281
0.014832044
-0.0029720163
-0.0032007834
0.01337898
0.019490242
0.021699012
0.033747689
0.024837302
0.03444759
0.029239924
0.024971333
0.027089858
0.028796403
0.039245668
0.04508481
0.024765301
0.033914187
0.27895778
0.27772991
0.27685251
0.28170708
0.27758137
0.28487694
0.28505677
0.28840699
0.28745472
0.28451155
0.30473717
0.26686104
0.28461366
0.27759032
0.27847441
0.27684172
0.27949681
0.28539262
0.28765145
0.28609538
0.27845242
0.28980948
0.28814024
0.28787043
0.29055022
0.29572729
0.29251932
0.29355647
0.29192418
0.29263699
-0.24640077
-0.25436387
-0.25251808
-0.25009183
-0.23376653
-0.19850609
-0.18379801
-0.20389317
-0.22942117
-0.24815511
-0.19316202
-0.24091321
-0.23968671
-0.23787207
-0.23025755
-0.2357954
-0.24981277
-0.25269889
-0.25057208
-0.25543575
-0.24621924
-0.21378428
-0.20942363
-0.23124176
-0.24676597
-0.26193972
-0.26649106
-0.2430429
-0.24941095
-0.25918046
0.11987628
0.098058678
0.089299298
0.082745162
0.06282177
0.04612614
0.069076931
0.066849167
0.05708165
0.091658451
0.049621103
0.08106816
0.11302473
0.1049045
0.11240079
0.10725003
0.1134377
0.11314295
0.10516427
0.073368558
0.057943841
0.054788287
0.069849994
0.083238525
0.09474673
0.11685659
0.10943045
0.096714143
0.096328157
0.10498758
-0.03593642
-0.037204347
-0.043738256
-0.032794569
-0.087582948
-0.073092388
-0.056522986
-0.044809941
-0.09554592
-0.051845837
-0.081463069
-0.075007564
-0.05569779
-0.046170525
-0.095882314
-0.068980127
-0.052018154
-0.038556485
-0.039099371
-0.047623573
-0.069322295
-0.063006537
-0.076396904
-0.085364696
-0.084701986
-0.048895691
-0.046179911
-0.085332964
-0.08978738
-0.049636719
0.020745364
0.019494519
0.014166995
0.013894633
0.010827615
0.0033480551
-0.0070451503
-0.0097312941
0.0084897819
0.010636657
0.019524178
0.0056881362
-0.0050383931
0.012594866
0.020125794
0.0094117745
-0.00031514314
0.0052810292
0.011760117
0.01573779
0.014278664
-0.0012995533
-0.0023521874
0.021496187
0.01700385
0.030790423
0.026466729
0.041205063
0.027453133
0.01373573
0.27923826
0.26954861
0.29001387
0.27649653
0.28033646
0.28581119
0.29259146
0.29485123
0.29254872
0.28780688
0.29455809
0.29414747
0.28113554
0.29437613
0.28993806
0.28113968
0.29541152
0.30344961
0.30401859
0.3021943
0.29934792
0.29804362
0.29677098
0.30808398
0.30686499
0.29773952
-0.2362849
-0.23621864
-0.20510718
-0.22499852
-0.22348055
-0.19183701
-0.17181884
-0.17473656
-0.20327552
-0.22935468
-0.21913786
-0.22274557
-0.23473135
-0.25039372
-0.25222876
-0.24752776
-0.2167035
-0.18372641
-0.19654832
-0.21262913
-0.22254192
-0.23505656
-0.23915543
-0.19737561
-0.20957002
-0.23717579
0.097401973
0.080188304
0.048772975
0.093981983
0.073827189
0.065904203
0.0643798
0.074537313
0.06192264
0.080484791
0.11823982
0.059521709
0.11455823
0.11079094
0.081772931
0.066566384
0.052863006
0.066859322
0.06384209
0.060958337
0.066761914
0.086119209
0.082926983
0.058353756
0.073267629
0.1086078
-0.030630193
-0.060970552
-0.050733267
-0.050413357
-0.038427268
-0.036552013
-0.018330503
-0.032184863
-0.066772869
-0.074035638
-0.087805079
-0.07960675
-0.053106955
-0.032065586
-0.049043366
-0.053441629
-0.044559059
-0.022797573
-0.031780071
-0.045328919
-0.056086186
-0.05672415
-0.068602424
-0.061036886
-0.049262797
-0.035105241
0.014915446
0.020459777
0.010372037
0.0031924066
-0.010062995
-0.015487965
-0.0032013596
-0.0087914091
-0.0047759121
0.0069874003
0.032718918
-0.002390519
-0.0019120106
-0.00088661091
-0.0036577386
-0.0011616644
-0.010740837
-0.006025395
-0.0052816619
-0.00812945
-0.006752765
0.0013449616
0.0086820536
0.0016200145
-0.0094151506
1.8545103e-05
0.28284799
0.27637373
0.28819152
0.30073076
0.28258324
0.28915281
0.29389003
0.29145065
0.28938759
0.27378821
0.28003355
0.27123488
0.27845707
0.29146174
0.2911024
0.30795101
0.31069327
0.30907139
0.30713135
0.30607119
0.30246306
0.29559649
0.30439999
0.30849021
0.30827792
0.30174735
-0.23878501
-0.23928067
-0.19924225
-0.17576191
-0.20984322
-0.18528704
-0.1712009
-0.17369088
-0.19425005
-0.23447371
-0.23552167
-0.2358661
-0.23691562
-0.25742759
-0.25600293
-0.22103306
-0.17387049
-0.22078952
-0.2508953
-0.26570379
-0.2525874
-0.25531868
-0.22251644
-0.18387338
-0.17906227
-0.20771556
0.089390144
0.064740103
0.050871142
0.056782414
0.07874719
0.073270546
0.059501367
0.077678296
0.049925452
0.068002064
0.091186927
0.12334632
0.13500817
0.079575484
0.050938781
0.031085713
0.043102531
0.063434112
0.097531295
0.10925439
0.10503231
0.092784544
0.069871072
0.078336269
0.071383197
0.10253907
-0.031108253
-0.059556373
-0.040622782
-0.034026681
-0.048515352
-0.02668576
-0.01864303
-0.05087149
-0.065370168
-0.075805465
-0.060574319
-0.080498919
-0.049968819
-0.053562444
-0.089348955
-0.072837587
-0.07129714
-0.063614047
-0.05039746
-0.042248041
-0.062528033
-0.064563349
-0.051834324
-0.043180892
-0.039654501
-0.025307075
0.016463456
0.017476074
0.0054415242
0.00059688198
0.018293324
-0.0098854053
-0.0034089751
-0.021183011
-0.0037953733
0.014472148
-0.0041262958
-0.0040170635
-0.0065135786
-0.0019460573
0.0072399858
0.010199437
0.0030261114
-0.013935995
-0.010437166
-0.0076360834
-0.0068602751
0.00072902758
-0.0069106102
0.00024195567
-0.002419597
-0.0036246809
0.28509552
0.28368058
0.28310137
0.28903639
0.29420264
0.28934223
0.28464157
0.2929691
0.29310113
0.28215407
0.28702242
0.29347973
0.29355804
0.29536377
0.29916644
0.28715471
0.30577725
0.31521785
0.31768363
0.30671604
0.31811123
0.30502442
0.30416077
0.30568713
0.30486659
0.30177885
0.29445991
0.29689812
0.30740675
0.30655456
-0.24665254
-0.25484214
-0.24671651
-0.22579986
-0.1958571
-0.19104189
-0.20366638
-0.17299228
-0.20682994
-0.24759347
-0.25897477
-0.2552747
-0.25676997
-0.25631073
-0.25411516
-0.25125672
-0.23369024
-0.21950138
-0.27839712
-0.25836635
-0.22617034
-0.25122906
-0.27113439
-0.27251768
-0.27149108
-0.27223409
-0.27127648
-0.25365663
-0.20800543
-0.18630218
0.11606927
0.08461587
0.066691242
0.048341328
0.034864619
0.070657891
0.075648058
0.048900087
0.045430057
0.057113797
0.082954805
0.096765939
0.10787371
0.13482255
0.11031105
0.086806486
0.049591392
0.064971453
0.083609753
0.088913393
0.037100781
0.075110869
0.07113177
0.11439022
0.10991159
0.091559942
0.054375492
0.048969785
0.032779066
0.041125581
-0.035678362
-0.037524309
-0.054146191
-0.065843556
-0.050728527
-0.041415013
-0.049514473
-0.06961453
-0.061938317
-0.078722714
-0.046873102
-0.038695268
-0.024460046
-0.01383768
-0.010844047
-0.052149261
-0.071701781
-0.086914435
-0.02376149
-0.075658198
-0.063027546
-0.070475335
-0.041427185
-0.020695955
-0.037296541
-0.052426014
-0.084428427
-0.092866439
-0.078106815
-0.065411907
0.021137797
0.018800791
0.013204671
0.010784294
0.0051497486
-0.011107466
-0.012398532
0.000577654
0.010630508
0.01063256
0.010882426
0.0038684857
9.7467419e-05
0.0045187755
0.0028344542
-0.0018623635
0.00036947336
0.014942861
0.029611941
0.023067003
0.018835442
0.0055585409
-0.0018414896
0.013919168
0.018855872
0.022068669
0.0072050143
0.0096122008
0.007778705
0.00051715982
0.28075628
0.28151096
0.28575651
0.28766222
0.28049913
0.28127529
0.29410184
0.29759483
0.29095891
0.28403043
0.28533796
0.28303626
0.28122544
0.2881761
0.29254169
0.28309965
0.31077023
0.3063846
0.30935667
0.30982736
0.3142681
0.30957884
0.29720343
0.30537884
0.30524919
0.30865986
0.30688752
0.30200281
0.2956143
0.28810745
-0.24576041
-0.23580137
-0.24409669
-0.25031695
-0.24087687
-0.23762396
-0.18275504
-0.18517318
-0.24198867
-0.25516896
-0.25138171
-0.23801409
-0.2505653
-0.25861378
-0.25807864
-0.25188283
-0.24215264
-0.27438925
-0.27944954
-0.27645429
-0.22034646
-0.21678598
-0.25802335
-0.26515751
-0.27161688
-0.27182209
-0.27165975
-0.27267808
-0.25523012
-0.24571734
0.1151228
0.086111136
0.1130426
0.088468646
0.073509689
0.076117039
0.046222041
0.048394158
0.047824318
0.075095413
0.10404105
0.10961039
0.096242082
0.11345784
0.086430163
0.080871335
0.038970854
0.096987308
0.10705924
0.085263357
0.048430814
0.054014392
0.074685567
0.09750331
0.12234929
0.15010707
0.14018631
0.097874213
0.084901961
0.087241032
-0.043027342
-0.069916206
-0.034373561
-0.035697656
-0.053078753
-0.05775548
-0.067587196
-0.061532597
-0.076061711
-0.057321163
-0.03485671
-0.082974939
-0.073466379
-0.045653526
-0.042271215
-0.070416352
-0.060785316
-0.049326743
-0.036149134
-0.050206739
-0.078175867
-0.064919923
-0.058859151
-0.033728916
-0.031409042
-0.018594608
-0.026693108
-0.035958015
-0.052013741
-0.05454116
0.02064788
0.035278342
0.017619596
0.015283285
0.010489129
0.0023635902
0.0046707711
0.018225028
0.020025259
0.016423016
0.022748799
0.039922523
0.010919895
0.00018448765
0.0046342101
0.019737847
0.027493917
0.023776634
0.040505673
0.024761423
0.019106972
0.013159149
0.003773472
0.022486142
0.033240963
0.04269633
0.036009711
0.032290358
0.024180935
0.032712692
0.28712287
0.29841183
0.27970471
0.28987834
0.28653631
0.2809358
0.29767124
0.29100844
0.30029679
0.29363672
0.28783872
0.30176865
0.30791857
0.2884537
0.29661806
0.28808945
0.32262012
0.30668471
0.32305705
0.31926688
0.32254243
0.31772663
0.30095522
0.29763344
0.29554232
0.30168472
0.29919601
0.29744939
0.29829631
0.29510238
-0.23473327
-0.2131328
-0.24273611
-0.24499227
-0.25154693
-0.23463871
-0.21537041
-0.25379167
-0.2662613
-0.24810657
-0.2457312
-0.19851583
-0.21485875
-0.24944118
-0.24167261
-0.24569032
-0.21387105
-0.2718619
-0.277036
-0.28074857
-0.24444607
-0.20873413
-0.23612012
-0.25154987
-0.25929331
-0.26845833
-0.2701549
-0.24959793
-0.24139997
-0.25629265
0.092526388
0.041644275
0.066386665
0.089697145
0.06552846
0.07098819
0.036390979
0.063889257
0.0776543
0.086164479
0.06207927
0.035852689
0.039272627
0.080431067
0.081966362
0.073346192
0.036301211
0.069424611
0.098552077
0.091575687
0.05543407
0.06342157
0.065655411
0.083545843
0.06842825
0.10587129
0.099690334
0.096497163
0.10198338
0.096232345
-0.045184846
-0.057019193
-0.056057125
-0.023881646
-0.025895543
-0.077408254
-0.055487172
-0.080494219
-0.029124743
-0.032886031
-0.064949716
-0.056052561
-0.066531042
-0.060956712
-0.052298796
-0.078224878
-0.075335234
-0.099871331
-0.038838668
-0.027171623
-0.10549327
-0.073953444
-0.073162507
-0.045766428
-0.092535518
-0.039497764
-0.070136198
-0.10371123
-0.10091216
-0.059384876
0.0036121433
0.009730045
0.00057464155
0.0042405802
0.0062534181
0.014933994
0.029041176
0.032326499
0.034501645
0.029589229
0.028275565
0.02797665
0.010439866
-0.0033376139
-0.0080512285
-0.0059504911
0.014220241
0.026926276
0.037796826
0.041269536
0.020811596
0.003914869
-0.0066225542
0.011659658
0.015297692
0.01781992
0.0037565257
0.031688219
0.023757907
0.00046570205
0.28754573
0.29500691
0.29183198
0.28913852
0.28239316
0.2814014
0.27981452
0.28535566
0.28823959
0.2798145
0.29111879
0.30473456
0.30796588
0.29753324
0.31723753
0.31124074
0.31451471
0.31231496
0.31743255
0.3178661
0.31790936
0.31746819
0.30902994
0.31222221
0.30431264
0.30299569
0.30041189
0.31431787
0.30904633
0.29704144
-0.20845099
-0.18552839
-0.18336587
-0.20757932
-0.23029536
-0.24013655
-0.23066309
-0.24883839
-0.2459067
-0.23402401
-0.20561221
-0.1685304
-0.25309561
-0.21132912
-0.19822695
-0.18825707
-0.20125878
-0.23187883
-0.24935577
-0.27302577
-0.22250558
-0.20114516
-0.19340849
-0.19285416
-0.21819493
-0.24568747
-0.24496359
-0.20423017
-0.20960186
-0.23661305
0.091049905
0.074161131
0.070952843
0.059650865
0.08065195
0.087716149
0.07002591
0.096584595
0.095677831
0.064950838
0.060441106
0.044451164
0.09097111
0.093957391
0.065800946
0.066115704
0.071636421
0.054019097
0.091006617
0.077742229
0.051502285
0.071261094
0.065625213
0.070623184
0.055781464
0.079135244
0.1077174
0.075948459
0.073250706
0.11118736
-0.058351239
-0.048092782
-0.027548903
-0.030400624
-0.057118406
-0.037764205
-0.069990115
-0.040836359
-0.031371484
-0.064606008
-0.039072506
-0.051390398
-0.033022879
-0.033584932
-0.0036620737
-0.029462691
-0.057128371
-0.074125408
-0.083737645
-0.043623494
-0.10610226
-0.048561356
-0.041649339
-0.024904432
-0.074848047
-0.042274876
-0.068496122
-0.046874914
-0.062842285
-0.038274333
0.014824075
-0.0053643635
-0.0025691569
-0.0068700351
-0.003347533
0.0041284922
0.018673788
0.019660549
0.027906835
0.022892101
0.018516193
0.013428671
-0.0056938653
-0.010454047
0.0048465826
-0.007000517
-0.006394183
0.012434893
0.033539429
0.021513869
0.014597148
-0.0094867824
-0.0049634087
0.0067405697
0.016484851
0.012786533
-0.0048143597
0.0054195986
-0.0037624101
-0.0020259492
)
;

boundaryField
{
    minX
    {
        type            fixedFluxPressure;
        gradient        uniform 0;
        value           nonuniform List<scalar> 
50
(
0.27794831
-0.21088359
0.10682498
-0.026829883
2.6714257e-05
0.281025
-0.23161053
0.092110819
-0.063712843
-0.0069397423
0.27966708
-0.24197408
0.10549455
-0.0453701
0.016175374
0.27895778
-0.24640077
0.11987628
-0.03593642
0.020745364
0.27923826
-0.2362849
0.097401973
-0.030630193
0.014915446
0.28284799
-0.23878501
0.089390144
-0.031108253
0.016463456
0.28509552
-0.24665254
0.11606927
-0.035678362
0.021137797
0.28075628
-0.24576041
0.1151228
-0.043027342
0.02064788
0.28712287
-0.23473327
0.092526388
-0.045184846
0.0036121433
0.28754573
-0.20845099
0.091049905
-0.058351239
0.014824075
)
;
    }
    maxX
    {
        type            fixedFluxPressure;
        gradient        uniform 0;
        value           nonuniform List<scalar> 
50
(
0.29663183
-0.21995877
0.089689306
-0.070896232
0.012970822
0.29349727
-0.25374683
0.095939852
-0.060662065
0.0084441641
0.29655852
-0.25759312
0.14551509
-0.030942049
0.033914187
0.29263699
-0.25918046
0.10498758
-0.049636719
0.01373573
0.29773952
-0.23717579
0.1086078
-0.035105241
1.8545103e-05
0.30174735
-0.20771556
0.10253907
-0.025307075
-0.0036246809
0.30655456
-0.18630218
0.041125581
-0.065411907
0.00051715982
0.28810745
-0.24571734
0.087241032
-0.05454116
0.032712692
0.29510238
-0.25629265
0.096232345
-0.059384876
0.00046570205
0.29704144
-0.23661305
0.11118736
-0.038274333
-0.0020259492
)
;
    }
    minY
    {
        type            fixedValue;
        value           uniform 0;
    }
    minZ
    {
        type            fixedFluxPressure;
        gradient        uniform 0;
        value           nonuniform List<scalar> 
150
(
0.27794831
-0.21088359
0.10682498
-0.026829883
2.6714257e-05
0.28778338
-0.18698927
0.074708981
-0.031410928
-0.0095590841
0.28481491
-0.17381839
0.084699975
-0.044971896
-0.0048641943
0.28635418
-0.18548166
0.072094741
-0.043712872
-0.0048716269
0.28269071
-0.19852087
0.078029763
-0.044083579
-0.0090814625
0.28705826
-0.20586125
0.061421289
-0.050492822
-0.0060733027
0.27799313
-0.23566928
0.061399933
-0.079419922
0.010442104
0.28447026
-0.25087899
0.08888555
-0.036332559
0.015098075
0.28477696
-0.25456523
0.10293633
-0.03540875
0.020361141
0.28389347
-0.23495012
0.09313444
-0.088316186
0.045133658
0.28022685
-0.24335301
0.080103225
-0.068987243
0.023937916
0.28398908
-0.21157433
0.050138194
-0.084636046
0.015029954
0.28996021
-0.17642021
0.060294203
-0.059046929
-0.015142374
0.28962382
-0.17687008
0.072231882
-0.045120954
-0.022476129
0.29657576
-0.17037094
0.068311723
-0.010405997
-0.0033603486
0.29327709
-0.18624328
0.06389669
-0.031711731
-0.012967653
0.28028124
-0.22809639
0.085525213
-0.05480699
-0.013761982
0.302196
-0.1749038
0.046420069
-0.054021597
0.0095032359
0.29189631
-0.20322366
0.052368005
-0.068064839
0.010304693
0.29518451
-0.25874168
0.060969102
-0.041936458
0.011944971
0.29072709
-0.22686737
0.08937021
-0.076646844
0.014722114
0.28985677
-0.22122031
0.039196924
-0.065224285
0.0027969312
0.29557008
-0.19596031
0.070315258
-0.042133727
-0.011968189
0.29722068
-0.18856618
0.068783466
-0.025963206
-0.008184098
0.29647578
-0.17986361
0.075094379
-0.049555954
0.00036431313
0.30068623
-0.18021825
0.077992538
-0.035571286
-0.0001850974
0.29454509
-0.18907298
0.076747361
-0.041549656
0.00034447561
0.30388951
-0.1746845
0.077698508
-0.022852294
-0.002680898
0.30017686
-0.20492472
0.07260564
-0.049841019
-0.0097920273
0.29663183
-0.21995877
0.089689306
-0.070896232
0.012970822
)
;
    }
    maxZ
    {
        type            fixedFluxPressure;
        gradient        uniform 0;
        value           nonuniform List<scalar> 
150
(
0.28754573
-0.20845099
0.091049905
-0.058351239
0.014824075
0.29500691
-0.18552839
0.074161131
-0.048092782
-0.0053643635
0.29183198
-0.18336587
0.070952843
-0.027548903
-0.0025691569
0.28913852
-0.20757932
0.059650865
-0.030400624
-0.0068700351
0.28239316
-0.23029536
0.08065195
-0.057118406
-0.003347533
0.2814014
-0.24013655
0.087716149
-0.037764205
0.0041284922
0.27981452
-0.23066309
0.07002591
-0.069990115
0.018673788
0.28535566
-0.24883839
0.096584595
-0.040836359
0.019660549
0.28823959
-0.2459067
0.095677831
-0.031371484
0.027906835
0.2798145
-0.23402401
0.064950838
-0.064606008
0.022892101
0.29111879
-0.20561221
0.060441106
-0.039072506
0.018516193
0.30473456
-0.1685304
0.044451164
-0.051390398
0.013428671
0.30796588
-0.25309561
0.09097111
-0.033022879
-0.0056938653
0.29753324
-0.21132912
0.093957391
-0.033584932
-0.010454047
0.31723753
-0.19822695
0.065800946
-0.0036620737
0.0048465826
0.31124074
-0.18825707
0.066115704
-0.029462691
-0.007000517
0.31451471
-0.20125878
0.071636421
-0.057128371
-0.006394183
0.31231496
-0.23187883
0.054019097
-0.074125408
0.012434893
0.31743255
-0.24935577
0.091006617
-0.083737645
0.033539429
0.3178661
-0.27302577
0.077742229
-0.043623494
0.021513869
0.31790936
-0.22250558
0.051502285
-0.10610226
0.014597148
0.31746819
-0.20114516
0.071261094
-0.048561356
-0.0094867824
0.30902994
-0.19340849
0.065625213
-0.041649339
-0.0049634087
0.31222221
-0.19285416
0.070623184
-0.024904432
0.0067405697
0.30431264
-0.21819493
0.055781464
-0.074848047
0.016484851
0.30299569
-0.24568747
0.079135244
-0.042274876
0.012786533
0.30041189
-0.24496359
0.1077174
-0.068496122
-0.0048143597
0.31431787
-0.20423017
0.075948459
-0.046874914
0.0054195986
0.30904633
-0.20960186
0.073250706
-0.062842285
-0.0037624101
0.29704144
-0.23661305
0.11118736
-0.038274333
-0.0020259492
)
;
    }
    bottomWater_to_rightSolid
    {
        type            fixedFluxPressure;
        gradient        uniform 0;
        value           nonuniform List<scalar> 
130
(
0.0095032359
0.010304693
0.011944971
0.014722114
0.0027969312
-0.011968189
-0.008184098
0.00036431313
-0.0001850974
0.00034447561
-0.002680898
-0.0097920273
0.012970822
0.028556694
0.021742767
0.024205906
0.022986447
0.0091178012
0.0015005584
0.0040204186
0.023312185
0.024196838
0.016890319
0.0015896358
0.0042216353
0.0084441641
0.019490242
0.021699012
0.033747689
0.024837302
0.03444759
0.029239924
0.024971333
0.027089858
0.028796403
0.039245668
0.04508481
0.024765301
0.033914187
0.0052810292
0.011760117
0.01573779
0.014278664
-0.0012995533
-0.0023521874
0.021496187
0.01700385
0.030790423
0.026466729
0.041205063
0.027453133
0.01373573
-0.00088661091
-0.0036577386
-0.0011616644
-0.010740837
-0.006025395
-0.0052816619
-0.00812945
-0.006752765
0.0013449616
0.0086820536
0.0016200145
-0.0094151506
1.8545103e-05
-0.0019460573
0.0072399858
0.010199437
0.0030261114
-0.013935995
-0.010437166
-0.0076360834
-0.0068602751
0.00072902758
-0.0069106102
0.00024195567
-0.002419597
-0.0036246809
0.014942861
0.029611941
0.023067003
0.018835442
0.0055585409
-0.0018414896
0.013919168
0.018855872
0.022068669
0.0072050143
0.0096122008
0.007778705
0.00051715982
0.023776634
0.040505673
0.024761423
0.019106972
0.013159149
0.003773472
0.022486142
0.033240963
0.04269633
0.036009711
0.032290358
0.024180935
0.032712692
0.026926276
0.037796826
0.041269536
0.020811596
0.003914869
-0.0066225542
0.011659658
0.015297692
0.01781992
0.0037565257
0.031688219
0.023757907
0.00046570205
0.012434893
0.033539429
0.021513869
0.014597148
-0.0094867824
-0.0049634087
0.0067405697
0.016484851
0.012786533
-0.0048143597
0.0054195986
-0.0037624101
-0.0020259492
)
;
    }
    bottomWater_to_leftSolid
    {
        type            fixedFluxPressure;
        gradient        uniform 0;
        value           nonuniform List<scalar> 
130
(
2.6714257e-05
-0.0095590841
-0.0048641943
-0.0048716269
-0.0090814625
-0.0060733027
0.010442104
0.015098075
0.020361141
0.045133658
0.023937916
0.015029954
-0.015142374
-0.0069397423
-0.004177687
0.013644901
0.021030149
0.0075443451
0.018012172
0.0096821755
0.017271428
0.02563958
0.032537125
0.017839246
0.013796449
0.008832686
0.016175374
0.03797545
0.044361423
0.032340615
0.030703522
0.032017532
0.024252267
0.01007241
0.01794163
0.027661512
0.037304603
0.01339985
-0.0032001281
0.020745364
0.019494519
0.014166995
0.013894633
0.010827615
0.0033480551
-0.0070451503
-0.0097312941
0.0084897819
0.010636657
0.019524178
0.0056881362
-0.0050383931
0.014915446
0.020459777
0.010372037
0.0031924066
-0.010062995
-0.015487965
-0.0032013596
-0.0087914091
-0.0047759121
0.0069874003
0.032718918
-0.002390519
-0.0019120106
0.016463456
0.017476074
0.0054415242
0.00059688198
0.018293324
-0.0098854053
-0.0034089751
-0.021183011
-0.0037953733
0.014472148
-0.0041262958
-0.0040170635
-0.0065135786
0.021137797
0.018800791
0.013204671
0.010784294
0.0051497486
-0.011107466
-0.012398532
0.000577654
0.010630508
0.01063256
0.010882426
0.0038684857
9.7467419e-05
0.02064788
0.035278342
0.017619596
0.015283285
0.010489129
0.0023635902
0.0046707711
0.018225028
0.020025259
0.016423016
0.022748799
0.039922523
0.010919895
0.0036121433
0.009730045
0.00057464155
0.0042405802
0.0062534181
0.014933994
0.029041176
0.032326499
0.034501645
0.029589229
0.028275565
0.02797665
0.010439866
0.014824075
-0.0053643635
-0.0025691569
-0.0068700351
-0.003347533
0.0041284922
0.018673788
0.019660549
0.027906835
0.022892101
0.018516193
0.013428671
-0.0056938653
)
;
    }
    bottomWater_to_heater
    {
        type            fixedFluxPressure;
        gradient        uniform 0;
        value           nonuniform List<scalar> 
92
(
-0.022476129
-0.0033603486
-0.012967653
-0.013761982
0.0012681171
-0.011076299
0.0033109377
0.02127814
0.014832044
-0.0029720163
-0.0032007834
0.01337898
0.27759032
0.27847441
0.27684172
0.27949681
-0.23787207
-0.23025755
-0.2357954
-0.24981277
0.1049045
0.11240079
0.10725003
0.1134377
-0.046170525
-0.095882314
-0.068980127
-0.052018154
0.012594866
0.012594866
0.020125794
0.020125794
0.0094117745
0.0094117745
-0.00031514314
-0.00031514314
0.28113554
0.29437613
-0.23473135
-0.25039372
0.11455823
0.11079094
-0.053106955
-0.032065586
-0.0019120106
-0.00088661091
0.27845707
0.29536377
0.29916644
0.28715471
0.29146174
0.30577725
-0.23691562
-0.25631073
-0.25411516
-0.25125672
-0.25742759
-0.23369024
0.13500817
0.13482255
0.11031105
0.086806486
0.079575484
0.049591392
-0.049968819
-0.01383768
-0.010844047
-0.052149261
-0.053562444
-0.071701781
-0.0065135786
0.0045187755
0.0028344542
-0.0018623635
-0.0019460573
0.00036947336
0.0045187755
0.0028344542
-0.0018623635
0.00036947336
0.00018448765
0.0046342101
0.019737847
0.027493917
-0.0033376139
-0.0080512285
-0.0059504911
0.014220241
-0.010454047
0.0048465826
-0.007000517
-0.006394183
)
;
    }
}


// ************************************************************************* //
