/*--------------------------------*- C++ -*----------------------------------*\
| =========                 |                                                 |
| \\      /  F ield         | OpenFOAM: The Open Source CFD Toolbox           |
|  \\    /   O peration     | Version:  v2012                                 |
|   \\  /    A nd           | Website:  www.openfoam.com                      |
|    \\/     M anipulation  |                                                 |
\*---------------------------------------------------------------------------*/
FoamFile
{
    version     2.0;
    format      ascii;
    class       volScalarField;
    location    "200/bottomWater";
    object      T;
}
// * * * * * * * * * * * * * * * * * * * * * * * * * * * * * * * * * * * * * //

dimensions      [0 0 0 1 0 0 0];


internalField   nonuniform List<scalar> 
1460
(
996.00063
992.53598
992.10807
991.534
992.02469
991.96046
994.82584
996.32212
987.94605
979.86678
976.19008
974.25427
972.77638
971.29784
968.11749
969.47363
973.30541
974.59114
977.22872
982.71157
986.39136
984.63106
983.13816
984.00799
985.80203
987.66807
988.80149
988.68224
989.51073
990.39824
991.86455
990.95318
989.5775
989.00206
988.39675
989.45204
991.00722
992.68036
982.29623
975.69943
973.85187
973.25991
972.72046
971.05063
967.26742
968.50749
970.43586
973.0347
976.53151
979.4913
984.56075
983.42617
980.81708
981.97253
984.63797
987.06797
987.99525
988.2063
989.23995
989.9099
991.28555
990.88816
989.35918
988.72254
987.88518
989.58271
990.98431
991.02698
983.18956
978.0537
975.11882
974.36563
973.26843
971.26378
967.18562
968.74714
970.94529
972.76277
979.3246
979.89297
985.26004
985.07957
980.17849
981.22496
984.26162
986.96615
987.89602
987.93804
989.31982
991.11452
990.38207
990.34286
988.91248
987.80253
987.04574
987.76353
990.73752
990.40094
984.55672
981.66751
975.87346
974.97353
973.80771
971.24927
967.2326
968.39489
970.96338
979.19303
981.28871
980.33549
982.91182
983.58016
979.43939
980.42066
982.95592
985.13967
986.17175
986.61973
988.17035
990.62315
989.95621
990.52908
989.3804
987.6039
985.89463
984.66556
984.07927
983.40736
981.77304
978.17002
975.36455
974.07476
973.18906
971.12507
966.97435
967.9321
970.3412
972.74344
973.88448
975.87587
979.69996
979.26909
978.88311
980.29153
982.65132
983.57336
984.61211
985.72656
987.21831
988.61345
997.99753
995.97015
995.35909
995.33774
995.91166
996.8159
998.67434
999.64514
994.63291
983.78416
974.76724
973.04192
970.50193
968.30315
972.16738
972.36596
975.00485
971.16477
975.14445
981.97474
988.39148
987.62106
987.04765
987.38874
987.94346
989.5072
990.90763
990.98955
991.40683
991.66612
994.01671
993.60255
995.05919
992.5601
991.8413
992.82601
995.34439
996.57682
994.483
977.92798
971.70264
970.86848
969.19503
965.51686
966.95543
968.98829
971.28132
969.8042
972.29221
975.57443
985.12064
984.9881
984.04476
984.81251
986.55163
989.13045
990.38613
991.59104
991.00126
990.97891
993.81895
994.88201
995.52962
992.73154
992.23272
993.24948
994.00315
996.21933
993.97345
979.21883
972.68983
972.52878
969.11806
964.31478
964.70998
968.98383
968.53985
969.47341
975.43316
976.87361
985.33784
985.28955
984.80398
985.36268
986.69345
990.43845
991.25538
992.18238
992.08749
991.29265
993.63766
994.34071
994.25413
993.08298
992.09826
991.79644
992.12303
994.14305
992.89713
980.18159
975.37982
974.80393
973.76836
965.39458
964.10761
967.54254
965.15407
973.08943
976.47688
977.83517
985.56557
985.75327
984.14765
984.66047
986.34988
989.66898
990.33556
990.88626
991.59362
991.72499
992.85188
993.63358
993.12341
991.53353
989.84388
988.00005
986.0451
988.49526
988.90343
978.28132
975.78955
974.39158
973.3364
969.29842
964.13624
964.88354
966.64607
971.93943
974.25005
976.06318
983.93457
982.14217
980.74162
982.5626
984.90249
985.35622
986.30337
987.16404
987.77107
989.64659
1001.0021
999.48505
998.75888
999.77409
1000.0538
999.23481
995.48294
996.18868
996.73286
991.65952
972.69801
971.07627
967.70718
964.17565
960.28258
967.10991
969.31706
972.31853
977.07073
983.38425
983.30029
981.92047
985.57342
986.5451
988.72478
989.71403
991.36238
991.77203
992.65332
992.96921
996.71568
996.30649
997.56618
996.15608
996.62203
996.56414
994.7114
993.84259
993.87413
988.40868
969.26965
967.34989
963.90156
961.12682
958.81183
962.21756
962.6677
966.08286
969.98936
976.84244
980.6439
982.07592
983.40783
984.9686
988.055
989.99365
990.90291
991.20641
991.52273
991.88296
996.31724
997.59683
999.16987
996.38835
996.54441
995.80272
994.70709
993.42847
993.40737
988.31382
972.07519
968.26064
964.511
961.64919
958.20437
961.21282
960.11986
965.78442
970.17468
976.96883
981.41766
983.9707
983.97851
985.45401
988.48598
989.52188
990.16304
992.54616
991.98954
992.07222
996.7258
997.98098
998.66175
996.82168
996.55916
996.91395
994.02061
991.05472
993.28379
988.03942
980.47554
968.44304
965.07792
962.21166
959.80444
962.41476
958.89653
967.62851
972.03328
976.88037
981.87544
983.06787
985.23064
985.95449
988.46579
987.73507
988.93704
992.34571
992.46932
992.38689
994.81533
996.28216
996.69481
995.27169
994.95705
994.97934
991.948
986.89326
986.22302
984.71688
979.83424
974.84712
972.31067
963.99671
958.59737
961.41437
964.99417
968.67439
972.02449
975.16879
979.44422
979.02895
982.68255
984.01861
985.36042
984.18202
986.61552
989.20341
988.86909
990.87596
1005.9043
1003.9287
1002.7426
1000.6772
998.42601
996.61694
994.34328
993.00216
993.80689
995.04663
969.40444
971.82269
971.40861
967.04211
959.03109
963.364
968.46911
972.401
977.02549
977.21852
976.94912
978.37414
980.64646
981.05054
981.51237
982.10085
988.78514
988.72998
990.62702
992.76617
1001.4844
1000.7154
1000.3356
997.82645
996.45609
996.49303
993.52853
990.92484
990.94575
991.08211
968.04034
967.76437
965.56666
960.6091
954.19038
957.1602
959.84025
965.39402
973.06453
973.64898
974.62423
976.64724
979.81669
981.08082
980.97257
981.93844
987.18305
987.61
989.75992
990.62152
1000.669
1001.0054
1000.6126
998.08641
997.49348
997.24683
994.07325
989.96382
992.31988
990.00346
967.49888
964.75932
964.17946
958.13143
951.35887
951.55113
957.29586
963.73222
970.6843
972.91211
975.84145
976.69591
980.22939
983.1766
982.76535
982.29083
986.48578
988.22397
992.22031
990.92084
1000.7172
1001.2641
1001.2086
998.90762
998.91762
997.88899
993.56381
987.88341
992.35412
990.04205
976.75199
964.253
964.92163
958.26405
954.28586
951.41841
951.66736
960.12663
970.00818
971.82205
973.92834
975.08495
976.93613
982.69971
983.28464
982.58094
985.9098
987.11081
991.53774
991.09368
998.88428
998.62783
997.36666
995.77078
995.1966
994.43311
992.26107
985.79993
985.76044
985.64045
976.91476
974.51138
966.40205
946.0004
951.51898
947.0229
949.96403
962.74391
967.77969
971.28716
974.32081
975.56003
980.68683
981.79085
982.0353
981.38775
984.31341
985.34317
986.9148
986.8861
1005.9625
1004.7683
1002.7583
999.52837
996.12165
993.88536
991.45865
990.10309
990.5951
992.30381
984.22998
965.77172
957.39241
957.16001
970.34186
969.08108
968.30551
968.61684
975.48555
976.91356
978.60738
980.03275
987.65068
986.44626
988.16391
990.34546
1004.1355
1003.2966
1001.9973
997.54079
994.22654
993.33754
990.72759
987.98361
988.01117
988.91107
966.99972
961.2145
948.44045
958.77395
968.09555
966.66812
966.73239
968.69293
975.58434
976.83947
978.92715
981.75134
986.48052
985.88158
987.57369
989.166
1003.589
1002.7232
1001.9251
998.39267
995.68687
993.75022
990.93031
986.8263
987.28592
981.75219
966.10887
961.20005
957.2089
956.27874
963.70797
964.63781
966.57089
968.41241
976.36734
977.05626
979.36028
982.40406
983.90013
985.51324
987.197
986.53754
1003.317
1002.8998
1000.9324
998.41999
995.55983
993.17218
990.21118
984.90443
987.40582
986.36653
976.02516
966.93226
964.24147
944.87758
953.58601
959.10798
963.54319
967.62535
976.97647
977.76941
978.75062
982.10168
984.26136
984.95843
985.13228
985.50867
995.80595
996.62664
995.38187
994.15844
993.23268
992.45648
989.80304
982.53089
982.36572
982.34024
975.77444
974.68301
968.32376
938.91468
956.63224
960.77897
964.28864
967.78501
979.03878
979.94951
980.02962
980.24615
982.43643
982.77897
983.79528
984.51153
1002.1554
1000.9835
999.68188
997.87538
995.27502
990.98318
987.31318
986.93842
986.1107
988.23153
987.30503
980.9848
967.86806
959.64993
967.79425
963.25084
966.28691
969.26287
973.54573
977.72018
986.91915
987.35654
986.98817
987.69103
988.19863
989.33912
1000.7409
999.93637
999.27261
997.64365
993.3386
990.15276
985.98668
984.60348
982.11714
983.82651
977.12082
963.03519
952.42212
958.69567
963.80264
960.86394
965.45725
968.08022
971.86701
974.76409
983.89174
984.73877
985.68745
987.2275
987.82331
988.44047
1000.2085
1000.2768
999.03696
997.43218
995.44939
990.29442
985.41941
983.04112
979.49947
973.75896
970.46079
962.59578
955.40212
955.57775
958.57472
959.9154
964.66507
968.02073
970.33648
974.14828
978.76647
981.7122
984.64566
986.75999
987.37634
987.17219
999.95642
999.56584
996.98389
995.92685
996.55154
990.02092
983.73356
980.72212
982.53223
974.09798
970.49023
969.11626
960.50842
949.60219
952.98315
956.62442
959.61622
964.93347
968.99718
971.44008
976.37469
982.33495
985.66941
986.46751
986.73455
986.67976
994.95532
994.0205
992.50921
991.31741
991.25909
988.94043
982.12439
978.165
976.4787
974.58763
972.23505
970.58663
963.41348
948.09766
959.34173
962.63685
964.82097
966.23147
968.22435
971.1453
977.55194
983.25632
985.1831
985.32257
985.22166
985.63316
999.11287
997.93491
997.75432
995.85647
993.49621
990.91179
988.06957
986.93103
987.02493
988.96777
989.59593
986.52664
979.70279
968.03506
962.29554
958.77179
957.73189
961.44639
972.62513
971.94543
969.66272
973.26786
975.95097
979.2933
985.53309
990.17352
990.1326
990.04704
990.25515
992.00468
997.00164
997.03408
997.05194
995.62886
993.63259
988.85537
985.27243
984.1545
982.86707
984.60262
983.36521
979.07958
973.7301
969.71908
964.08203
961.31768
962.20509
962.03061
964.94159
966.25512
969.3641
970.50709
972.55066
975.34628
984.1253
988.52592
988.74868
989.11835
989.87893
992.07496
996.66002
997.07403
995.93752
995.55469
994.33572
988.42331
984.32881
983.15872
980.91975
980.33638
979.84199
976.12524
971.00945
968.79374
965.12582
964.00445
962.70341
961.21707
965.75608
966.95543
969.49869
972.46312
973.09323
975.74896
983.28575
987.8841
988.99747
989.52125
989.71706
991.87252
996.80817
997.22217
996.29059
995.81923
993.53794
987.32521
983.69194
981.31025
978.16042
975.35191
974.36229
968.0299
962.86502
959.1444
962.84112
960.29707
959.37313
957.95705
965.31127
969.52809
970.15206
972.56147
974.19937
976.69345
982.32232
986.01185
987.31302
987.93828
988.44803
990.65305
995.21301
994.72631
993.32361
992.71342
990.88944
986.29372
982.29319
980.94922
978.86984
975.54882
971.2971
967.18946
961.25685
942.22809
946.16655
949.97954
952.36135
957.46467
966.41583
969.67581
970.34662
970.9135
971.06096
974.36302
981.49321
985.02648
986.69206
987.18448
987.06332
987.17311
996.20011
994.61328
995.1303
996.00048
994.75572
992.35074
990.23409
989.13761
990.08553
990.77843
989.59425
984.17148
979.66694
977.41661
973.48761
971.36882
969.63923
973.22361
975.89313
978.48421
977.26956
979.52854
981.99802
983.71877
986.05199
988.64305
991.89814
992.06462
992.04225
994.25813
993.59125
993.12043
992.69638
994.31189
992.33192
990.23074
989.98408
988.27917
986.98137
987.42498
986.54151
978.68232
977.14447
977.02818
972.6036
970.50327
971.04981
971.35325
973.90944
975.11693
977.88521
978.08712
981.36216
983.11916
984.9858
987.69846
990.89925
991.43177
992.13347
993.56806
993.63127
994.95693
992.87424
994.09762
992.66272
990.98882
990.56048
988.59656
987.80496
986.51729
983.56821
973.93791
972.00048
977.14159
973.44893
972.51133
971.29368
971.18614
974.01947
975.92489
978.56177
978.10372
979.91205
982.45951
985.43677
988.06595
991.05137
991.63766
992.53905
994.60931
994.11502
993.98874
992.85762
993.77855
991.20495
988.95803
989.7001
987.81258
986.9369
985.34725
980.18262
967.49711
966.00159
968.19354
972.90994
972.19019
969.3784
969.92623
974.19238
976.92378
977.63707
978.04533
979.022
981.898
985.6389
988.57178
991.11935
991.71424
992.41632
993.42702
991.5348
992.12084
991.00602
990.89693
987.65649
985.46938
985.82626
985.61714
984.63216
982.41275
976.86716
968.47796
968.41594
967.33702
966.32253
968.58161
966.51399
968.86747
972.69708
975.27754
975.7326
975.99992
976.88705
982.07059
985.18601
987.7268
989.6734
989.74941
989.27743
990.12099
993.80791
991.59956
991.63691
991.66461
993.92412
993.20526
991.05312
991.91664
986.76961
979.52847
977.51897
975.49686
975.12271
976.38909
972.78816
970.62542
969.12878
969.9184
970.77586
977.98101
979.21549
980.53519
981.70955
983.55846
985.03687
987.00841
992.29711
993.09158
994.11523
995.97006
991.77901
991.30161
989.51389
989.62038
992.22072
991.40198
990.50205
989.94674
988.0529
979.0117
976.77767
975.01716
973.79277
976.44504
972.51962
969.44415
970.51826
970.79682
971.89463
980.38104
981.35325
981.39332
981.797
984.39298
985.67313
987.04499
991.8851
992.18057
993.33186
994.73894
992.22917
991.38601
989.76416
989.86863
992.1393
991.43694
990.3262
989.28142
987.49096
979.87203
980.47827
975.39577
973.57428
973.43641
969.27321
969.26254
970.60972
971.58269
972.91274
980.26491
981.5488
981.00797
981.42039
984.38748
986.76381
987.69237
991.88217
992.44183
993.99574
994.53748
992.31808
990.75464
989.29725
989.15952
992.09263
991.17906
990.1729
988.24234
987.18789
980.42166
979.83951
977.79648
976.33347
972.21593
968.59724
968.53703
971.61858
972.97029
974.27625
980.48877
980.0173
979.77352
979.03259
982.97116
987.021
987.82952
991.52936
991.74435
993.81885
993.91637
988.92066
990.11357
988.59817
986.06895
986.09837
987.51305
987.3354
986.85995
986.3363
979.38866
977.73561
975.70026
974.92761
973.12988
967.83425
967.61052
969.1824
971.51726
973.84347
979.2594
978.56735
977.51644
976.6361
981.24174
984.47821
985.44729
988.44335
989.92268
991.5533
989.63872
992.91804
990.77982
988.53821
987.80114
989.50759
993.23785
992.21122
992.46849
984.79564
982.36828
980.48702
978.88199
978.96075
974.78572
972.00021
968.57292
968.64038
969.52167
969.47064
976.30223
977.57319
977.86224
980.13016
984.07791
985.11622
987.7724
991.56835
990.29588
992.02916
993.70679
991.08347
989.94404
987.34162
986.18987
987.24079
990.67386
990.13673
990.85676
983.52852
980.79785
980.14778
978.59126
977.78324
975.81388
972.4796
968.57449
969.25695
971.17794
971.24181
977.44923
979.03762
978.62308
979.91951
985.60012
987.29833
988.30326
990.49687
990.22816
991.91052
993.41214
992.462
989.76445
987.0605
985.95025
987.0415
990.41059
989.81418
989.79262
984.37733
981.11036
980.62336
978.78849
978.69521
976.06917
972.3347
968.24888
969.49675
972.66935
973.96609
977.41136
979.42252
977.82702
979.41821
985.20153
988.07602
988.37903
987.50158
989.78239
991.60858
990.79768
991.07288
988.36398
986.71084
985.27216
987.0391
989.43787
988.86235
988.31582
985.31573
982.43257
981.10669
982.20376
979.28934
975.51167
970.88551
967.46615
969.5631
972.70962
976.2088
977.37707
978.73311
976.70082
977.58896
983.62445
988.13497
988.10259
986.63899
988.76802
990.79837
989.20551
988.37885
988.25736
986.41624
983.99939
984.22292
984.82007
985.3331
985.0696
984.64439
979.59946
977.76458
976.7779
976.08298
974.89883
969.81295
967.51879
969.62581
971.65774
973.76629
975.77259
975.9198
975.53117
976.37629
982.30619
984.76468
983.03928
984.8236
987.77352
989.44266
988.47988
)
;

boundaryField
{
    minX
    {
        type            zeroGradient;
    }
    maxX
    {
        type            zeroGradient;
    }
    minY
    {
        type            fixedValue;
        value           uniform 1073;
    }
    minZ
    {
        type            zeroGradient;
    }
    maxZ
    {
        type            zeroGradient;
    }
    bottomWater_to_rightSolid
    {
        type            compressible::turbulentTemperatureCoupledBaffleMixed;
        refValue        nonuniform List<scalar> 
130
(
685.54457
691.7558
698.17889
704.48642
710.4125
715.81851
720.62746
724.78569
728.25767
731.03831
733.12836
734.5291
735.2355
680.82497
688.12856
695.50812
702.59268
709.09642
714.92253
720.0303
724.39116
727.99532
730.86281
733.00624
734.43538
735.15739
671.29259
681.10028
690.52593
699.13855
706.75483
713.37444
719.01261
723.72111
727.5511
730.57276
732.81415
734.29397
735.03969
656.98139
671.54253
684.27642
695.07381
704.12564
711.68618
717.92804
723.02112
727.10103
730.28139
732.61592
734.1533
734.91638
640.05069
662.4615
679.12069
692.01037
702.25282
710.53236
717.2087
722.57668
726.83421
730.1186
732.51078
734.07896
734.8575
640.19436
662.57822
679.21
692.06769
702.2721
710.5025
717.1803
722.5865
726.88256
730.17815
732.56961
734.1321
734.90824
657.26764
671.79018
684.47172
695.20584
704.20087
711.70759
717.95278
723.09772
727.22511
730.41694
732.74609
734.27144
735.02936
671.69178
681.43531
690.7958
699.33287
706.89724
713.47771
719.1256
723.86558
727.73163
730.76256
732.99387
734.46311
735.19629
681.2431
688.47268
695.79311
702.79326
709.25639
715.07183
720.19701
724.57904
728.20165
731.08494
733.23209
734.65539
735.35602
685.94687
692.08386
698.44286
704.68516
710.58346
715.99756
720.83893
725.01296
728.48389
731.2706
733.3662
734.75979
735.44795
)
;
        refGradient     uniform 0;
        valueFraction   uniform 0.99248593;
        value           nonuniform List<scalar> 
130
(
687.70267
693.87581
700.26559
706.55443
712.43274
717.79521
722.57859
726.72332
730.17615
732.9437
735.02643
736.42786
737.13944
683.01247
690.27854
697.61628
704.70674
711.14812
716.9199
722.003
726.34869
729.92917
732.78222
734.91601
736.33898
737.06967
673.52713
683.28631
692.66475
701.24479
708.80069
715.39803
721.00389
725.68712
729.47947
732.49672
734.74069
736.20686
736.96209
659.2787
673.76843
686.43304
697.17209
706.16518
713.70748
719.91076
724.96741
729.0118
732.19024
734.51497
736.05258
736.80973
642.2963
664.67191
681.2371
694.05628
704.24798
712.54996
719.18299
724.51124
728.7384
732.01457
734.39135
735.95537
736.73344
642.50798
664.80819
681.33976
694.11724
704.25556
712.43909
719.08862
724.50235
728.80905
732.09435
734.46884
736.01882
736.79226
659.52332
674.00408
686.61486
697.27336
706.20506
713.65646
719.87942
725.03936
729.16232
732.34268
734.65799
736.17095
736.92402
673.92478
683.62389
692.93351
701.40986
708.91942
715.45695
721.10136
725.82919
729.68531
732.70807
734.92318
736.37785
737.11186
683.42421
690.61699
697.92313
704.86551
711.27218
717.03729
722.15849
726.53196
730.13463
733.01877
735.16091
736.58578
737.26676
688.09369
694.20042
700.52675
706.72327
712.57433
717.95412
722.80365
726.96478
730.39667
733.17587
735.27789
736.67355
737.34929
)
;
        Tnbr            T;
        thicknessLayers List<scalar> 0();
        kappaLayers     List<scalar> 0();
        kappaMethod     fluidThermo;
        kappa           none;
        alphaAni        none;
        alpha           none;
        field           T;
    }
    bottomWater_to_leftSolid
    {
        type            compressible::turbulentTemperatureCoupledBaffleMixed;
        refValue        nonuniform List<scalar> 
130
(
753.65491
753.6096
753.5059
753.34818
753.14763
752.91392
752.65314
752.36818
752.0587
751.73974
751.46722
751.27209
751.1681
753.74732
753.70346
753.60173
753.44189
753.23445
752.98715
752.7079
752.4174
752.10142
751.75398
751.4634
751.25127
751.1359
753.86401
753.82141
753.72073
753.55844
753.34826
753.09198
752.78599
752.45066
752.11946
751.78695
751.47657
751.2319
751.09299
753.95568
753.90262
753.78865
753.6176
753.39885
753.13115
752.81441
752.46336
752.13007
751.80263
751.47788
751.22534
751.05993
753.94787
753.89625
753.78199
753.61208
753.39194
753.12165
752.80213
752.45412
752.12951
751.81837
751.51645
751.28228
751.12745
753.90826
753.85239
753.73938
753.57518
753.36241
753.0931
752.77562
752.45228
752.14148
751.8433
751.57134
751.35615
751.21273
753.85805
753.80638
753.69986
753.54516
753.33906
753.08475
752.80614
752.52477
752.24013
751.95681
751.69404
751.48759
751.36223
753.76259
753.71908
753.6227
753.4822
753.29703
753.08866
752.8701
752.63768
752.39169
752.13666
751.88976
751.69343
751.59634
753.67023
753.63195
753.54068
753.40779
753.25664
753.0935
752.91113
752.70895
752.48629
752.24159
752.03504
751.883
751.80258
753.61763
753.57595
753.48533
753.35822
753.21998
753.07122
752.90733
752.72313
752.51862
752.29533
752.10911
751.97723
751.90719
)
;
        refGradient     uniform 0;
        valueFraction   uniform 0.99248593;
        value           nonuniform List<scalar> 
130
(
755.43048
755.38982
755.27827
755.1084
754.89654
754.65538
754.39216
754.10427
753.78484
753.44107
753.14955
752.94623
752.83638
755.54397
755.50631
755.40153
755.23093
755.01237
754.7531
754.46118
754.19128
753.88074
753.4561
753.14901
752.92797
752.80556
755.67455
755.64329
755.54648
755.37471
755.16373
754.90954
754.58304
754.21222
753.87853
753.53713
753.19246
752.91214
752.75519
755.79613
755.74152
755.61893
755.43715
755.21573
754.9443
754.6136
754.2166
753.88558
753.55965
753.17183
752.90312
752.67797
755.76523
755.72015
755.59739
755.41955
755.19412
754.92002
754.58289
754.18292
753.85952
753.55054
753.20161
752.96097
752.75948
755.71951
755.65703
755.53352
755.3616
755.15002
754.8653
754.49901
754.14839
753.82728
753.5171
753.22949
753.00355
752.80732
755.67165
755.6167
755.50043
755.3423
755.12406
754.83713
754.53056
754.24122
753.94311
753.63698
753.34415
753.10844
752.93958
755.54928
755.51047
755.40643
755.26614
755.05801
754.83481
754.62059
754.38835
754.13685
753.86714
753.58022
753.32252
753.2257
755.43796
755.40893
755.30697
755.15606
755.00624
754.85496
754.67266
754.46845
754.24352
753.94843
753.731
753.56489
753.47925
755.38168
755.33941
755.23565
755.0913
754.95579
754.81263
754.65382
754.46904
754.2629
754.00332
753.80473
753.66646
753.59173
)
;
        Tnbr            T;
        thicknessLayers List<scalar> 0();
        kappaLayers     List<scalar> 0();
        kappaMethod     fluidThermo;
        kappa           none;
        alphaAni        none;
        alpha           none;
        field           T;
    }
    bottomWater_to_heater
    {
        type            compressible::turbulentTemperatureCoupledBaffleMixed;
        refValue        nonuniform List<scalar> 
92
(
670.47245
672.11595
675.34546
679.9331
662.88167
664.81595
668.64405
674.12125
646.85622
649.37066
654.46351
661.97128
342.2151
339.35222
339.42439
342.38019
411.52289
407.97223
408.23792
412.1841
469.34532
466.16523
466.80823
470.90385
517.05055
514.74442
516.3019
520.88864
620.64431
554.98822
623.82244
554.34863
630.67386
558.05797
641.798
564.94552
342.2151
342.38019
411.52289
412.1841
469.34532
470.90385
517.05055
520.88864
554.98822
564.94552
342.27338
342.27338
339.37543
339.42564
342.37421
342.37421
411.5982
411.5982
408.02648
408.27182
412.20716
412.20716
469.39883
469.39883
466.22994
466.8702
470.95344
470.95344
517.06401
517.06401
514.79296
516.3706
520.98153
520.98153
554.99521
554.99521
554.38299
558.1267
565.06125
565.06125
620.9897
624.16579
631.03225
642.13651
647.47611
649.9784
655.0228
662.4476
663.61806
665.50731
669.25334
674.63555
671.24116
672.82461
675.94855
680.4303
)
;
        refGradient     uniform 0;
        valueFraction   nonuniform List<scalar> 
92
(
0.99248593
0.99248593
0.99248593
0.99248593
0.99248593
0.99248593
0.99248593
0.99248593
0.99248593
0.99248593
0.99248593
0.99248593
0.99248593
0.99248593
0.99248593
0.99248593
0.99248593
0.99248593
0.99248593
0.99248593
0.99248593
0.99248593
0.99248593
0.99248593
0.99248593
0.99248593
0.99248593
0.99248593
0.99248593
0.99248593
0.99248593
0.99248593
0.99248593
0.99248593
0.99248593
0.99248593
0.99248593
0.99248593
0.99248593
0.99248593
0.99248593
0.99248593
0.99248593
0.99248593
0.99248593
0.99248593
0.99248593
0.99248593
0.99248593
0.99248593
0.99248593
0.99248593
0.99248593
0.99248593
0.99248593
0.99248593
0.99248593
0.99248593
0.99248593
0.99248593
0.99248593
0.99248593
0.99248593
0.99248593
0.99248593
0.99248593
0.99248593
0.99248593
0.99248593
0.99248593
0.99248593
0.99248593
0.99248593
0.99248593
0.99248593
0.99248593
0.99248593
0.99248593
0.99248593
0.99248593
0.99248593
0.99248593
0.99248593
0.99248593
0.99248593
0.99248593
0.99248593
0.99248593
0.99248593
0.99248593
0.99248593
0.99248593
)
;
        value           nonuniform List<scalar> 
92
(
672.73158
674.33154
677.54404
682.11531
665.1841
667.06507
670.87008
676.31934
649.2392
651.69421
656.76997
664.24823
346.91015
344.00857
344.11269
347.08466
415.64883
412.07659
412.36254
416.29924
473.01819
469.81108
470.45068
474.55871
520.36592
518.04724
519.57136
524.12543
623.08917
557.92643
626.28485
557.33307
633.05102
560.98078
644.11335
567.83834
346.8376
346.99974
415.55735
416.29126
473.01113
474.55106
520.41076
524.07462
558.09406
567.75548
346.97408
346.97548
344.0561
344.07937
347.01249
346.99794
415.66201
415.79199
412.20472
412.42739
416.31355
416.33993
473.05078
473.15131
469.9787
470.60573
474.59499
474.64855
520.39618
520.38562
518.15962
519.70643
524.20227
524.27574
558.06419
557.90504
557.32698
561.07107
567.93942
567.97133
623.40365
626.58543
633.42881
644.46744
649.87968
652.35547
657.37893
664.73237
665.94384
667.77904
671.49519
676.84875
673.52294
675.05625
678.13938
682.60329
)
;
        Tnbr            T;
        thicknessLayers List<scalar> 0();
        kappaLayers     List<scalar> 0();
        kappaMethod     fluidThermo;
        kappa           none;
        alphaAni        none;
        alpha           none;
        field           T;
    }
}


// ************************************************************************* //
