/*--------------------------------*- C++ -*----------------------------------*\
| =========                 |                                                 |
| \\      /  F ield         | OpenFOAM: The Open Source CFD Toolbox           |
|  \\    /   O peration     | Version:  v2012                                 |
|   \\  /    A nd           | Website:  www.openfoam.com                      |
|    \\/     M anipulation  |                                                 |
\*---------------------------------------------------------------------------*/
FoamFile
{
    version     2.0;
    format      ascii;
    class       volVectorField;
    location    "200/bottomWater";
    object      U;
}
// * * * * * * * * * * * * * * * * * * * * * * * * * * * * * * * * * * * * * //

dimensions      [0 1 -1 0 0 0 0];


internalField   nonuniform List<vector> 
1460
(
(-0.0020223244 -0.015544303 0.0025718462)
(-0.0016214886 -0.01093149 0.0025791596)
(0.00011410727 -0.012322639 0.0011205378)
(0.0011582778 -0.011642521 0.0018979704)
(0.0011659032 -0.011990753 0.0018381122)
(0.0019028672 -0.010685007 0.0013644196)
(0.0021861799 -0.013267231 0.0014364782)
(-0.00012135925 -0.014967764 0.0014659275)
(-0.0014980344 -0.016551577 0.0003699891)
(-0.0024798688 -0.016670908 0.00041512029)
(-0.0040049986 -0.013748844 0.00063877536)
(-0.0046213871 -0.012863961 0.0011970074)
(-0.0033744811 -0.011843494 0.00088646955)
(-0.0017443863 -0.011865289 0.00091183068)
(4.9966877e-05 -0.011906236 0.0018716811)
(0.003429049 -0.012378711 0.001899053)
(0.00065388655 -0.015439547 0.001962929)
(-8.3858017e-05 -0.013250395 0.0010406855)
(0.0028780635 -0.013301845 0.0014737565)
(0.00073008528 -0.015154604 0.0014487288)
(-0.0026384778 -0.015128273 0.0016126602)
(-0.003626986 -0.011455915 0.0020160516)
(-0.0031218139 -0.010869573 0.0022984178)
(-0.0017224085 -0.011486038 0.0026669729)
(-0.00158087 -0.012289261 0.0025700956)
(-0.00068188971 -0.012638319 0.0023568191)
(-0.0010497301 -0.012009173 0.0018443875)
(0.0010977167 -0.012138272 0.0016949428)
(0.0026205139 -0.011257173 0.0024436278)
(0.0021975713 -0.016202453 0.0026623468)
(-0.0035687374 0.014662173 0.003589724)
(-0.0011406908 -0.00026035714 0.0017717973)
(-0.00020765398 0.0050233571 0.0019038492)
(0.0010446047 0.0042020289 0.0016571957)
(0.0016043421 0.0069566263 0.0016242248)
(0.0016410206 0.0038025523 -2.1625872e-05)
(0.0054262028 0.0142245 0.00049041851)
(0.0049161299 0.016665432 0.00077602797)
(-0.0034111966 0.018215831 0.0014579603)
(-0.0051669883 0.017922193 0.0021597684)
(-0.0060249636 0.014831112 0.0016605666)
(-0.0051458197 0.0090025213 0.0017635855)
(-0.0033948313 0.0033511495 0.0010699293)
(-0.001056171 0.0032855557 0.00068575627)
(0.0006251704 -0.0011941716 0.00068913219)
(0.0034128558 0.005153459 0.0015062127)
(0.00087565002 0.016204471 0.0015239783)
(0.0022645241 0.0049974766 0.0012712946)
(0.0049596435 0.0080994484 0.0019700196)
(0.0036260268 0.016282359 0.0020721636)
(-0.0057683038 0.015802048 0.0025720371)
(-0.0030120995 0.0073937742 0.00098053192)
(-0.0030539061 0.00044879101 0.0011968141)
(-0.0012819369 0.0014705514 0.0019564062)
(-0.0014823942 0.0036911057 0.0024582449)
(-0.00084139406 0.0040195813 0.0018230241)
(-0.00097698537 0.0036919368 0.0010346314)
(0.0016579222 1.9877334e-05 0.00087706379)
(0.0027342281 0.0023701552 0.0015779589)
(0.0040140139 0.016075949 0.003709174)
(0.0026744561 -0.013819812 0.00077145614)
(0.001566031 -0.013038453 -0.00050219879)
(-8.9841918e-05 -0.012022557 0.00097218577)
(-0.0011787811 -0.01256763 -0.00030420182)
(-0.00079514541 -0.012818485 -0.0011875293)
(-0.0016638483 -0.013387882 -0.0016084642)
(-0.0044021873 -0.013349376 -0.0014775086)
(0.00042525807 0.0028465997 0.00071526752)
(-0.0030949779 0.0040842431 0.00074123055)
(0.0018786598 -0.012434406 -0.00085881533)
(0.0013286066 -0.0082055599 0.0015126246)
(0.0039747232 -0.014400868 0.00049067911)
(-0.00094425575 -0.012812605 0.00035448166)
(9.6597928e-06 -0.012157707 -0.00044865867)
(3.9791119e-05 -0.013381605 -0.0023049431)
(-0.00094949109 -0.012608773 -0.0024878433)
(0.0024281654 -0.010995408 -0.0017948675)
(0.004448981 -0.014885234 -0.0010905894)
(-0.0032846609 -0.014193731 -0.00067878663)
(0.00077687436 0.0024489074 0.00075562716)
(-0.00012564307 -0.0099825432 -0.00088769207)
(0.0012752414 -0.013458577 -0.0031764656)
(-0.0012583054 -0.013051389 -0.0014961279)
(4.3642459e-05 -0.013279683 -0.00070645882)
(-0.00071572673 -0.012523658 0.0002443062)
(-0.001483127 -0.012987575 -0.0011258815)
(-0.00080191484 -0.012799024 -0.0021204312)
(0.00044490885 -0.013014734 -0.0015146849)
(-0.00067656938 -0.012625369 -0.00084596902)
(-0.00020471278 -0.012377852 0.0010472024)
(0.00025583863 0.0021154631 -0.00010387991)
(-0.00051056113 -0.0018815592 -0.0014010501)
(-0.00085223743 0.0023800912 -0.0013849922)
(-0.0019475433 0.0021364013 -0.00035043277)
(-0.0019838876 0.0011899764 -0.0010947622)
(-0.0016484344 0.0036176651 6.9656786e-05)
(-0.0041261893 0.01055414 0.00021922403)
(-0.0028561802 0.0076209924 0.0014386496)
(0.0012465449 0.008346521 0.00088703329)
(0.0029378972 0.011818363 -0.0037261881)
(0.00031622045 0.0085959286 -0.00054172841)
(0.0016287354 0.011620931 -0.00091902965)
(-0.0015636457 0.0050016065 -0.0010650849)
(0.0012800658 -0.0033319985 -0.0023312292)
(-0.00024084967 -0.004610313 -0.00050795978)
(0.00031848927 -0.0022632007 -0.0029971576)
(-0.00020466856 0.0045394083 -0.0016349863)
(0.0013315956 0.011583345 -0.00043997008)
(-0.0031634057 0.011031665 0.0014689075)
(0.00085200712 0.0064073224 4.7203869e-05)
(0.0035036997 0.010182531 -0.0017375073)
(-0.0013718012 0.0065941725 -0.001493141)
(0.0010483073 -0.0034884961 -0.0012725993)
(4.8776778e-06 -0.003008026 -0.00049428359)
(0.00031115987 0.0025960713 0.00092235596)
(-0.0013019915 0.0028070117 -0.0001716064)
(-0.00071383221 0.0010342611 -0.0017626635)
(0.00073075562 -0.0031287576 -0.0020248868)
(0.00079399093 -0.00055449294 -0.0011457185)
(0.0026940563 0.0097681841 -0.0012162482)
(-0.00025760334 -0.0097007291 -0.0032725886)
(-0.0022143614 -0.008849649 -0.0051307746)
(-0.0026946705 -0.0080860253 -0.0050122904)
(-0.0020017964 -0.0078708563 -0.0045656474)
(-0.0030940762 -0.0092709191 -0.003447409)
(-0.0047847878 -0.0098710624 -0.0021492446)
(-0.0048442438 -0.0079662869 -0.00021752622)
(-0.003469622 -0.003878767 -0.00026714302)
(-0.0028254359 -0.0015996508 -0.0004468014)
(0.0015776865 -0.0020435593 -0.0017790347)
(0.0043101263 -0.0056570664 -0.0010962288)
(0.0059538461 -0.0076434765 -0.0011013286)
(0.0072361297 -0.008874197 -0.002169275)
(0.0054150889 -0.0096067009 -0.00340401)
(0.00087851818 -0.0091919194 -0.0029183458)
(-0.0040962207 -0.0085747394 -0.0038623204)
(-0.0050043429 -0.0093171268 -0.0040349304)
(-0.0041129343 -0.010396036 -0.0031419454)
(-0.0019569203 -0.010979171 -0.0026764017)
(-0.00050899023 -0.0036678865 -0.0021933342)
(0.0028678667 -0.0035679137 -0.0022003761)
(0.004947527 -0.0078961555 -0.0025927688)
(0.0040354312 -0.0096099067 -0.003807922)
(-0.0011690313 -0.0090439549 -0.0048924846)
(-0.00084598093 -0.0071492857 -0.0053801408)
(-5.0148618e-05 -0.0081461115 -0.0058490663)
(0.0012032508 -0.0086917482 -0.0064519637)
(0.00079200597 -0.0098756864 -0.0057733831)
(-0.0030019857 -0.0090018494 -0.0034218598)
(-0.002069933 -0.0044333556 -0.0010642351)
(-0.00085617082 -0.015198433 0.0027192076)
(-0.0024972669 -0.012795364 0.0030599501)
(-5.0171537e-05 -0.011300179 0.0011787746)
(0.0024830337 -0.014361776 0.0020207881)
(0.0019405057 -0.015951083 0.0012729914)
(0.0019320589 -0.0171629 0.0015486223)
(0.0015432729 -0.015170497 -0.0015106875)
(0.00045284399 -0.013213 -0.0018675473)
(-0.00035667081 -0.014921359 -0.0019488695)
(-0.0012815937 -0.015421386 -0.00161837)
(-0.0020672295 -0.014221753 -0.0011287266)
(-0.0039404693 -0.012453017 0.00064213324)
(-0.0029365764 -0.011100214 0.001216259)
(0.00030372141 -0.011614028 0.0018484224)
(0.00096678632 -0.014841548 0.0015479063)
(0.0022681056 -0.016277098 0.0021535846)
(-0.0022257756 -0.015489252 0.00047824911)
(0.0004669054 -0.010711942 0.0016795869)
(0.0025991059 -0.013485309 0.0021939571)
(0.0005978071 -0.015847058 0.0018074139)
(-0.0013695244 -0.016300131 0.0016262372)
(-0.002460248 -0.01440318 0.0018672797)
(-0.0029041016 -0.015284117 0.0029790442)
(-0.0028324422 -0.015439133 0.0031238937)
(-0.0021672471 -0.014418488 0.0032996907)
(-0.00061344958 -0.015747654 0.0030874741)
(-0.001105895 -0.014767491 0.0023171973)
(0.0010327447 -0.012246983 0.0028264492)
(0.0021665957 -0.013579004 0.0029743314)
(0.00098168475 -0.015482054 0.0026526373)
(-0.0022752803 0.016317308 0.0048440053)
(-0.0031158724 0.01122028 0.003913748)
(0.00073736986 -0.0012248852 0.0012144507)
(0.0031383302 0.011594681 0.0039116399)
(0.0025690907 0.016673901 0.0049036313)
(0.0021076298 0.018153795 0.0038068778)
(0.0040700877 0.017208496 -0.00034361423)
(0.0037536087 0.01580192 -0.0017243598)
(0.002326073 0.016533295 -0.0019305714)
(-0.0030452868 0.017088836 -0.00031166761)
(-0.0052278719 0.01628917 -0.0009776686)
(-0.0064701197 0.012651556 0.0015308032)
(-0.0017933366 0.0014608168 0.00047814031)
(-0.0009367596 0.0031224318 0.0020989101)
(0.0050969502 0.014121198 0.0031435164)
(0.0019492193 0.017497606 0.0034704145)
(-0.0034239718 0.016956166 0.0017259195)
(0.0030201214 -0.0020475653 0.00018373306)
(0.0054569871 0.011129171 0.002402273)
(0.0046911211 0.016996887 0.0021816801)
(-0.0033021665 0.017793383 0.0040758954)
(-0.0042822642 0.016481101 0.0043016165)
(-0.0046569773 0.01593975 0.0061698592)
(-0.003477799 0.015607828 0.0065097616)
(-0.001661208 0.010177926 0.0043662104)
(-0.0008808131 0.013941295 0.0049559072)
(-0.0010379218 0.014111062 0.004205639)
(0.00064482639 0.0072660896 0.002470823)
(0.0040097249 0.014298913 0.005089258)
(0.0033781278 0.01700196 0.005117967)
(0.00072305673 -0.0042037424 0.0032754541)
(0.0049183165 -0.012645231 0.00022544298)
(0.0021382899 -0.014255502 -0.00061454545)
(-0.0041186738 -0.014049662 -0.0020911657)
(-0.0012517687 -0.0062492819 0.0018977017)
(-0.0019364104 -0.013724738 0.00083384674)
(-0.0010220311 -0.011252347 0.001403288)
(1.0661118e-05 -0.0012986249 8.1386761e-06)
(5.3174201e-05 0.0037257506 -4.4255217e-05)
(0.00018717236 0.0052168885 -0.00079623599)
(0.00028211076 0.0014008573 -0.0019750432)
(0.0039304334 -0.012195105 -0.0040082978)
(0.0014896726 -0.01365361 -0.003273986)
(-0.0049881538 -0.014054908 -0.00016278979)
(-0.0019167887 -0.011735399 0.00068029508)
(0.0018641788 0.0028950188 0.0022982398)
(0.0035903288 -0.010544367 0.0022321825)
(0.002297124 -0.014952805 -0.0026888443)
(-0.004766258 -0.012023887 -0.0031516198)
(0.00067353614 0.0040164532 -0.00036420159)
(-0.0020985329 0.0050857115 0.0027177137)
(-0.0013051017 -0.001124113 0.0015208448)
(-0.00068833005 -0.010222793 -0.00012821646)
(0.0031277375 -0.01435627 -0.0017015768)
(0.0010154037 -0.015734319 -0.0035660066)
(-0.0024730307 -0.01532931 -0.0042881032)
(-0.0011258553 -0.014421578 -0.0043436345)
(-0.0022880296 -0.013738069 -0.0029013637)
(-0.0032892011 -0.010548873 -0.0016829071)
(0.0011593888 0.0021792304 0.001778049)
(0.0022191216 0.0042337078 -0.00063875455)
(0.0025312266 0.0076245481 0.0015776422)
(0.0022651508 0.0092329941 0.0026486356)
(-0.0031939977 0.010953267 -0.00056373449)
(-0.0034152319 0.0090257895 0.000238696)
(-0.0036225738 0.011608862 0.00087860343)
(-0.0043568293 0.0081846317 -0.00054553079)
(-0.0027361108 0.0073037469 0.0016452174)
(-0.00097072705 0.00891415 0.0011535653)
(0.00095693824 0.0093156883 -0.0022310728)
(0.0033668647 0.0068514496 0.00013129114)
(0.0036847986 0.0093555794 -0.0017552539)
(0.00108066 0.010832319 -0.00051244484)
(-0.00074446151 0.0091299497 0.002070605)
(-0.0010607995 -0.0010355948 -4.1262928e-05)
(0.0015426829 0.0052103192 0.0020969437)
(0.003141669 0.011341195 0.0016841561)
(-0.0014782551 0.009639864 0.00033884655)
(-0.0035087027 0.0097120957 -0.0020724315)
(-0.0014283701 0.0077471561 -0.00057537824)
(0.00026684247 0.009459055 0.001177265)
(0.0026724205 0.0066458505 0.0005781922)
(0.0039852194 0.0056753714 -0.00065308886)
(0.0051920803 0.010066859 -0.0003283747)
(0.0018526361 0.01218025 -0.0015540868)
(-0.002426298 0.012146276 -0.0020579724)
(-0.0019649566 0.010777628 -0.0024846026)
(-0.0037709326 0.0075118563 -0.00087635227)
(-0.0043114398 0.0084863378 -0.0023281267)
(-0.001264473 0.0079064376 -0.00064783537)
(-0.0019030217 -0.0092872381 -0.0046541745)
(-0.0029146936 -0.008334926 -0.0057221771)
(-0.0027503974 -0.00467731 -0.0040405323)
(-0.001465567 -0.0029628188 -0.0031948532)
(-0.00093817282 -0.00582935 -0.0036862117)
(-0.0012380474 -0.0098909905 -0.0030936281)
(-0.0027329883 -0.0098607422 -0.00060853379)
(-0.0038998388 -0.0027260214 0.0010087532)
(-0.0023290121 0.0015240296 0.0010142639)
(0.0015772076 0.0020149699 -0.000411778)
(0.0038119461 -0.0016949476 -0.0012461082)
(0.0043102827 -0.0062062358 -0.0013565245)
(0.004154897 -0.005830037 -0.0017547126)
(0.0047538747 -0.0094489111 -0.0034628892)
(0.0013159021 -0.010149649 -0.0027820017)
(-0.0053104775 -0.0053545119 -0.0018250117)
(-0.0019108896 -0.0015037632 -0.0012574776)
(-0.0023284063 -0.0049436272 -0.0015066263)
(-0.0019879484 -0.0054451437 -0.0021307392)
(-0.0014870799 0.0011435028 -0.0019617115)
(0.0017037154 0.0026051816 0.00024498286)
(0.003818908 -0.0041161247 -0.0019741321)
(0.0013635795 -0.0099745253 -0.0042406796)
(-0.0024621726 -0.0093471558 -0.0041234916)
(-0.0005429507 -0.0024815351 -0.003153946)
(-0.00042066483 -0.0056146533 -0.0043490688)
(0.0013160223 -0.0060050309 -0.0057794003)
(0.00087156574 -0.0099036938 -0.0065094736)
(-0.001809348 -0.010180173 -0.0045033065)
(-0.0017305524 -0.0022483231 -0.0022763679)
(-0.00027899098 -0.014989142 0.0026519154)
(-0.0023129283 -0.015750406 0.0029132935)
(-0.00090713761 -0.01499889 0.0033924633)
(-7.1130903e-05 -0.01649533 0.0013924401)
(-0.00054472226 -0.016978994 -0.00065230411)
(-0.0017887145 -0.01422506 -0.0024986783)
(0.00085532684 -0.010495095 -0.001487053)
(0.0027763708 -0.01203256 -0.0026344668)
(0.0022025616 -0.013269413 -0.0027386882)
(-0.00049888754 -0.01568099 -0.0022345803)
(-0.00093323923 -0.018060632 -0.0022958726)
(-0.001959119 -0.01541688 0.0018732547)
(-0.0028892853 -0.014164887 0.0018089932)
(-0.0025402626 -0.013262986 0.0013406859)
(-0.0011297907 -0.01086944 -0.00079195172)
(0.0019814858 -0.011933495 0.00152925)
(0.0015696746 -0.014470639 0.00083785871)
(0.0012332918 -0.013954131 0.0030981756)
(0.00031009843 -0.014344271 0.0028522918)
(-0.0010929116 -0.016133203 0.0021189974)
(-0.0020738193 -0.014923603 0.00057130119)
(-0.0015002599 -0.014902158 -0.0013442213)
(-0.00033198281 -0.016372297 -0.000412733)
(-0.0012901288 -0.015616095 0.00022312228)
(-0.0011325095 -0.015599237 0.0017733496)
(-0.00054269259 -0.015880362 0.00090781264)
(-0.00080683178 -0.016517151 -0.00096323816)
(-9.2191515e-05 -0.017470286 -0.00017928851)
(0.00064268155 -0.015258106 0.00032091607)
(-5.7840295e-05 -0.015772394 0.0021177128)
(-0.0025939354 0.016653775 0.0045423628)
(-0.0033393168 0.016516822 0.004427968)
(0.0015508382 0.011355291 0.0035664785)
(0.0024676516 0.017018382 0.003654911)
(-0.0038181596 0.018004035 -0.0012688108)
(-0.0041136529 0.014752457 -0.0026454463)
(0.0014111121 0.00042970569 -0.00040557939)
(0.00443438 0.010079905 -0.0023434832)
(0.0052360997 0.014975507 -0.0035381159)
(9.3367447e-05 0.017213273 -0.0034783027)
(-0.0025791995 0.018204419 -0.0039525442)
(-0.0022978079 0.016928701 0.0018126498)
(-0.0051331072 0.014897165 0.0026830691)
(-0.0042180053 0.010242236 0.00029657605)
(-0.0015207192 0.0004543005 -0.0012418518)
(0.002095558 0.0068420138 -0.00061055313)
(0.003650955 0.012042463 -5.2073146e-05)
(0.0049520778 0.015123676 0.0023974289)
(0.0046713902 0.016248771 0.0026579114)
(-0.00016019804 0.01745226 5.936997e-05)
(-0.0042971291 0.016153594 -0.0021216762)
(-0.0018691966 0.012645723 -0.0030777192)
(0.0016955988 0.017608863 -0.0018174731)
(-1.1271792e-05 0.017470104 0.0014300303)
(-0.001565921 0.016759474 0.0049385931)
(-0.0017657179 0.017178095 0.0049479596)
(-0.0023529544 0.017724746 0.0030247351)
(0.00059543041 0.018439484 0.0010002127)
(0.002256669 0.017041276 0.00026217466)
(0.0011789782 0.016900929 0.0015794719)
(-0.0012218033 0.0012283794 0.0027885287)
(0.0040287446 -0.015750246 -0.0018899967)
(-0.0012894545 -0.015452031 -0.0037645192)
(0.001082188 0.004712997 0.0021434703)
(-0.00079702234 0.004939852 -0.00034774459)
(0.004432845 -0.011391465 0.0025502028)
(0.00074588005 -0.013845796 0.0022573146)
(-0.0033437763 -0.012031496 0.0025606106)
(0.00037333388 -0.00025694645 0.00038067788)
(-0.0014095295 0.0043164133 -0.0019557385)
(0.0010425353 -0.012484011 0.0012475098)
(-0.00013726522 -0.0016236511 0.00019216323)
(0.00013802714 -0.003390386 -0.0030854991)
(0.0015235793 -0.013347152 -0.0058478589)
(-0.0017750316 -0.01335095 -0.001048034)
(-0.0014900461 -0.013018957 -0.00095315502)
(0.0011654145 -0.015396659 -0.0032145112)
(-0.0010060015 -0.01308281 -0.0064832191)
(0.0012274083 0.001872417 -8.586575e-05)
(-0.0010895567 0.0051035338 0.00037217773)
(-9.9865074e-05 -3.1445201e-05 0.0013387836)
(-0.00037174153 -0.015530904 0.0011560833)
(-0.0020919554 -0.0074624338 -0.00032742924)
(-0.00062229611 0.0032586229 0.00083571011)
(-0.0024694114 0.0005196287 0.0024491094)
(-0.0016657852 -0.0012595427 0.00092156724)
(-0.00072914033 -0.0054028506 -0.0014007513)
(-0.00027336212 -0.014233658 -0.0030751386)
(-0.0013630144 0.00056653118 -0.00070434238)
(-0.0010347693 0.0023905294 0.00086475509)
(0.0020004993 0.0077579411 0.00078662317)
(0.004475941 0.011867048 -0.0023991872)
(-0.0041175144 0.010889237 -0.0028608425)
(-0.0012856072 0.008957541 -0.00062282336)
(0.0020365025 0.0086614924 0.00059546786)
(0.0039382767 0.010774317 -0.00029486489)
(-0.0019462175 0.0079119447 -0.00046063581)
(-0.0014740225 0.0043626634 0.0021650181)
(-0.0016865256 0.0064364904 0.0035988394)
(0.0016531559 0.0089070203 -0.0011044208)
(0.0019275549 0.012218169 0.0016441992)
(-0.003766014 0.0077314394 -0.00058142002)
(0.0016292364 0.0072171126 -0.0024083356)
(0.0015503002 0.010830707 -0.0031612743)
(0.00045296621 0.0026341779 0.0002540499)
(-0.0011087363 0.00051500257 0.0020773438)
(0.00080922325 0.010224713 -0.0035907879)
(-0.0044400469 0.0098260403 -0.0025111367)
(-0.0024952623 0.0076375377 -0.0015282987)
(-0.0016999899 0.0095275913 0.00090519256)
(0.0017510016 0.0076147258 0.0020740995)
(0.0013654702 0.01078482 -0.00022104939)
(-0.0042920788 0.0094561288 -0.0013966436)
(-0.002100141 0.0079108409 -0.00029260524)
(-0.0012131002 0.0075248503 0.00050658429)
(5.2047436e-05 0.0077574708 -0.0029546957)
(0.0020147032 0.0087938757 -0.0045422853)
(-0.0037464239 0.011485673 -0.00062142449)
(-0.0038604826 0.0079513211 -0.00036793001)
(-0.0011377578 0.0088832007 0.000122431)
(-0.0019864823 -0.0055531954 -0.0032512691)
(-0.00049072211 -0.003225976 -0.0034355217)
(-0.0020064088 -0.0013664973 -0.0024402052)
(0.0004457726 0.0020197025 -6.8753479e-05)
(0.0017659708 0.0023632467 0.00034272216)
(0.00332148 0.00022000723 0.00084231432)
(0.0040670523 -0.0075030578 0.0019789257)
(-0.00065583616 -0.0091993073 0.0032879117)
(-0.0029062536 -0.0035726997 0.0024915103)
(-0.00063030704 0.0015616599 0.00067428008)
(0.0028536458 -0.001154025 0.0013286408)
(0.0039917724 -0.002924526 0.0011544787)
(0.0033576473 -0.0075532237 0.0017713056)
(0.0020508644 -0.0068815041 -0.00097236438)
(0.0025037393 -0.0084312784 -0.0025851321)
(-0.004666795 -0.0087559024 7.1823132e-06)
(-0.0047934035 -0.0060719013 0.00092717998)
(-0.0043000091 -0.0028882788 0.00072959648)
(-0.003313594 0.00043401099 0.00066022511)
(-0.0017573528 0.0033831533 0.0015396444)
(0.0012285069 -0.0015588388 0.0023202896)
(-0.00058709588 -0.0070609985 0.00093087327)
(-0.0021242086 -0.0020336335 -0.00066984804)
(-0.0017094411 -6.2090006e-05 -0.00077067164)
(-0.0014259505 -0.0010429562 0.00036921572)
(-0.0011829123 -0.0022497089 -0.0027249889)
(-2.7051055e-05 -0.00021783999 -0.0039061899)
(-0.00011863263 -0.0030694836 -0.0034909632)
(-0.00046685784 -0.0037480618 -0.002554761)
(-0.0020237673 0.0016396733 -0.00019506473)
(0.00034295267 -0.013981073 0.0011464596)
(-0.0013144486 -0.014486326 0.0012509797)
(-0.0014311588 -0.014317776 -0.00057497578)
(-0.0014934178 -0.015598117 -0.001490969)
(-0.0026664163 -0.014234864 -0.001523499)
(-0.0021781438 -0.010953667 -0.0025231538)
(6.8106806e-05 -0.011561028 -0.0014675472)
(0.0022173206 -0.010671217 -0.0023020771)
(0.0032230308 -0.014137579 -0.0025817922)
(0.00036326869 -0.015228327 -0.0021587337)
(-9.427915e-05 -0.011767679 -0.0013950044)
(0.0031661633 -0.011807903 -0.0018696712)
(0.00069596713 -0.015108365 -0.00071663376)
(0.00077461458 -0.015366294 0.0009729115)
(-0.0007578529 -0.016987535 0.002679365)
(0.00064396399 -0.014734954 0.0022459374)
(-0.0010369534 -0.014200019 0.0014796475)
(-0.0010665789 -0.015196 5.6009962e-05)
(-0.0010861098 -0.014850209 0.00023515873)
(-0.0015508756 -0.013055859 -0.00019883425)
(-0.0027627691 -0.011223263 -0.0016468204)
(-0.0020077009 -0.0099138512 -0.0010960021)
(-8.4375254e-05 -0.010649769 -0.0019062483)
(0.0009489074 -0.013262929 -0.0023218406)
(0.00098499234 -0.015589866 -0.0023638843)
(0.0012980945 -0.017363462 -0.0022885626)
(-0.0009167246 -0.016683134 -0.0031969769)
(-0.00046711864 -0.016041314 -0.0038588709)
(0.00059830325 -0.014848398 -0.0032904665)
(0.00016371378 -0.014873485 -0.0014419867)
(-0.00053932352 0.015781042 0.0017486018)
(-0.0017315327 0.016624544 0.00089854029)
(-0.0019659064 0.016217337 -0.0028070562)
(-0.0035100008 0.017404795 -0.004664497)
(-0.0055446624 0.01517785 -0.0035642195)
(-0.0016214036 0.0038252988 -0.0024109993)
(0.00031302155 0.0036646465 -0.0019989849)
(0.0032669789 0.0021559561 -0.0016150327)
(0.00611577 0.013245735 -0.0035976371)
(0.002411774 0.016452262 -0.0037337173)
(-0.0026412524 4.211963e-05 -0.0009320286)
(0.0045913738 0.012925535 -0.0029659891)
(0.0028774635 0.016360938 -0.0023681657)
(-0.0010519926 0.016888243 0.0018344502)
(-0.001742086 0.017128231 0.0039061453)
(0.0029589995 0.015932737 0.0032513125)
(0.0031787587 0.015824265 0.0030076144)
(0.0023577451 0.016797188 0.0021969905)
(-0.0013191228 0.016797051 -0.0010574463)
(-0.0037464224 0.015441178 -0.002517736)
(-0.0046894693 0.012492643 -0.0028287799)
(-0.00088076308 0.0019961454 -0.00019360178)
(-0.00012846331 0.0038854588 -0.00050218257)
(0.0025108597 0.011260895 -0.0024960441)
(0.0043652059 0.0160598 -0.0040068414)
(0.0040824998 0.018425292 -0.0040821276)
(-0.0029557902 0.017880312 -0.0050014341)
(-0.0010413228 0.01460222 -0.0045699466)
(0.0010700594 0.014707125 -0.0054614294)
(0.0022153157 0.016610838 -0.0048031267)
(0.00072332676 -0.00012744642 0.0022101675)
(0.0012369 -0.0010231077 0.0019110904)
(0.0003607129 -0.003984792 0.00011323584)
(-0.0012339602 0.0031233964 -0.0031132011)
(0.0032856926 -0.010138335 -0.00090927117)
(0.0025716893 -0.013356337 -0.00038149912)
(-0.00047768359 -0.012179321 -0.00038643488)
(0.00037614134 -0.013044672 0.0018864817)
(-0.0031074333 -0.013280953 0.0020937883)
(0.0019663669 0.0017323858 -0.0015815079)
(-0.0026399568 -0.013917261 -0.00041506576)
(-0.0062607579 -0.011262412 0.00070183064)
(-0.00012134366 -6.6323903e-05 -0.0031355117)
(-0.00097041797 -0.0014134054 -0.0012828253)
(-0.001486189 -0.016697543 -0.0036802974)
(-0.0030809923 -0.014921944 -0.0015732134)
(0.0012528379 -0.0045072398 -0.00022439421)
(0.0024726544 -0.00092647087 0.00028548387)
(0.0021366249 0.0018752832 -0.00043025425)
(0.0015677037 -0.0008762498 0.00076828408)
(0.0032854101 -0.011663791 0.0038656545)
(0.0020522347 -0.01318147 0.0026417627)
(-0.0019770943 -0.012623981 0.0030855367)
(-0.0036678492 -0.013385246 0.002401422)
(-0.0022298546 -0.0073134695 0.00035396557)
(0.0026807765 0.0051951293 -0.0027245875)
(-0.00039197857 0.0035740959 -0.0029749647)
(0.0027741829 -0.015468609 0.0027213342)
(-0.0030137898 -0.014992009 0.0027802593)
(0.0012473832 0.0017741099 -0.0024267948)
(0.0010058673 0.0079047932 0.00090467623)
(0.0020004174 0.0073625899 0.00017091099)
(0.00057442614 0.0076442134 -0.0015072666)
(0.002298329 0.0075762173 -0.0019191242)
(0.0058494906 0.0095844132 -0.0010192533)
(0.0020517401 0.0087772296 -0.0030123465)
(0.0010563035 0.0016992442 0.00038739158)
(0.001110281 -0.00019854633 0.0021384253)
(-0.00063273544 0.0095950351 0.0036256954)
(0.000454015 0.0077764214 0.00024495835)
(0.0015341285 0.010489163 0.00057702782)
(-0.0045909013 0.0086221402 0.0020696298)
(-0.0012795087 0.0013962333 0.00018834149)
(0.0030720149 0.0071799579 -0.0017412746)
(0.00056121175 0.011910862 0.0013776397)
(-0.0060246696 0.008098917 0.00025044703)
(-0.0029230588 0.0017224818 -0.0014593781)
(-0.0021275916 0.0040350427 -0.0019705623)
(0.0026592001 0.007976561 -0.00061241096)
(0.0038464465 0.0068289809 0.0010133796)
(0.0045402062 0.0087161607 0.0016422004)
(0.0035622032 0.0029633806 0.0018723638)
(0.0028230832 0.0043637479 0.0013631423)
(-0.00088025262 0.011236491 0.0019457459)
(-0.0039890853 0.0091746137 0.00067551375)
(0.00051002038 0.009361508 -0.0020933692)
(0.0021252069 0.0087913546 -0.0017158358)
(0.0036757007 0.011387125 -0.0015609489)
(-0.0056511402 0.011299704 0.00046864645)
(-0.0022375434 0.0071898889 -0.0013241139)
(0.0010207261 0.0003577868 0.00093661422)
(0.0022741213 -0.0015090704 0.0018075557)
(0.002185265 -0.0046297909 0.0032550078)
(0.002172637 -0.0032758315 0.0030654827)
(0.0037411895 -0.0046595877 0.0035519318)
(0.0044041098 -0.0054757877 0.0040013301)
(0.0046035249 -0.0084584407 0.0044866756)
(-0.0022195407 -0.009075634 0.0043811278)
(-0.0032302405 -0.0063322359 0.003585491)
(-0.0011860665 -0.00024213045 0.0021893518)
(0.0021255266 -0.0027791383 0.0016851051)
(0.0043476521 -0.0080582393 0.0026933147)
(0.0016713774 -0.0099341015 0.0018800282)
(-0.0036023531 -0.0066398377 -0.000131312)
(0.0011034838 0.0010739371 -0.00035419457)
(0.0030071361 -0.0076658119 -0.001654444)
(5.9085915e-05 -0.010632891 0.0011214212)
(-0.003731312 -0.0082735108 0.0031284687)
(-0.0022871299 -0.0053927131 0.0035152847)
(7.429014e-05 -0.0024392535 0.0041684186)
(0.0026967649 -0.0070642993 0.0050581424)
(0.0017752408 -0.010061243 0.0052626057)
(-0.0041883846 -0.0067835113 0.0042497883)
(-0.0032040532 -0.0019308709 0.0033044511)
(-0.0029424395 -0.0023191718 0.0024388809)
(-0.00045644199 0.001874953 2.8628848e-05)
(0.00065925264 0.001315303 0.00084136142)
(0.0025952029 -0.00071101163 0.0016012497)
(0.0016120327 -0.0049253179 0.0030526835)
(0.0017108619 -0.0074015546 0.0040491282)
(0.00074603562 -0.014268749 -0.0015892716)
(-0.0027306469 -0.01243837 -0.00094278278)
(-0.00045329752 -0.010637035 -0.0011042599)
(-1.5237298e-05 -0.016934907 -0.0033201356)
(-0.0027938808 -0.016149925 -0.0022002743)
(-0.0024267577 -0.011427903 -0.0017923053)
(0.0001110952 -0.011932436 -0.00074522979)
(0.0026222696 -0.011893299 -0.00063562479)
(0.0039331797 -0.011862122 -0.0011107625)
(0.0033243052 -0.01533975 -0.00084252986)
(0.00019158488 -0.020873968 0.0020919963)
(0.00079750169 -0.010210789 -0.0011462096)
(0.0021818375 -0.013211852 -0.00050836376)
(-0.00020128877 -0.014763773 -0.0023398579)
(-0.0021127477 -0.013328045 -0.0022948519)
(-0.0035942338 -0.011651553 -0.0027260357)
(-0.0032415198 -0.010531322 -0.0018254806)
(-0.00092275687 -0.011775975 0.00052635792)
(0.0014931188 -0.011327805 0.00099768536)
(0.0024504766 -0.010978177 -0.00050539785)
(0.0027770411 -0.011577783 -0.0014051265)
(0.0025866581 -0.016623025 -0.0010872548)
(-0.0023113707 -0.016528373 -0.0026896872)
(-0.00077582606 -0.011499198 -0.0024810864)
(0.00043109513 -0.010874269 -0.0019316955)
(0.0015165467 -0.015729766 -0.0022564354)
(-0.0021753521 0.016044548 -0.0012960402)
(-0.0043342289 0.014108172 -0.00095016257)
(0.0011611645 0.0024178211 0.00083538864)
(0.00017180899 0.017031888 -0.0057562741)
(-0.0038724219 0.016832659 -0.0035426404)
(-0.0016000574 0.0037163498 -0.0021417361)
(0.00061581765 0.00020037542 3.3797932e-05)
(0.0033592957 0.00084020299 0.0001290117)
(0.0044868428 0.0048637522 -0.00077281664)
(0.004962203 0.015481796 -0.0015732676)
(-0.0021131428 0.019185598 0.0027452625)
(-0.0019923693 0.0013987878 -0.0008162886)
(0.0026810468 0.014751122 -0.00075028572)
(-0.0012082758 0.016573409 -0.00073287469)
(-0.0033918646 0.01571995 -0.0012124047)
(-0.0041058389 0.012367534 -0.0021265182)
(-0.001601708 0.0020694629 -0.00026517996)
(0.00020476617 -0.0005526472 0.0019399737)
(0.0018476175 0.00025204683 0.0025640465)
(0.0027703809 0.0029046512 0.00020591514)
(0.0024854854 0.0062948025 -0.0019843033)
(0.0022561651 0.017434834 -0.0026223154)
(-0.0043122754 0.015628816 -0.0043031772)
(0.00054565418 -0.0018209736 -0.001501981)
(-0.0012281906 -0.0005372246 -0.00056899436)
(0.0031216789 0.015960801 -0.0049054696)
(-0.00023826502 0.00020804695 0.00089605935)
(0.0046885143 -0.011929756 0.0032796167)
(0.002290313 -0.013564328 0.0037655632)
(-0.0018680841 -0.012315401 0.0018022403)
(0.0024338396 -0.0094610686 -0.0019143035)
(0.0027557248 -0.01226302 -0.0019213548)
(0.0015595509 -0.012939537 0.00054595143)
(0.0015253943 -0.012662544 0.0018214083)
(-0.00075579973 -0.01266096 0.00099973545)
(-0.0028070114 -0.0076448924 -0.00069806989)
(-0.00030369364 -0.013044718 -0.0030491936)
(-0.0036278994 -0.013298564 -0.0012242595)
(-0.0036213947 -0.011813964 -0.00010910616)
(0.0014190528 -0.00037250968 0.0012396829)
(0.0031321689 -0.0066538725 0.0026810767)
(0.0046852577 -0.012720864 0.0041045625)
(0.0031233053 -0.013269069 0.0032954109)
(0.0015209067 -0.013381559 0.0017703267)
(0.00040670037 -0.01335282 0.0010398497)
(0.0010576495 -0.012773287 -0.0024796487)
(-0.00049069833 -0.013195546 -0.003348507)
(0.0012079388 -0.0085152579 -0.0014706449)
(0.0043497735 -0.015095238 0.00050280261)
(0.0024556216 -0.014138505 0.00085685073)
(-0.0039785878 -0.013230315 0.002566492)
(-0.0024673449 -0.012088979 0.0018104908)
(0.0027526378 0.0072318842 0.0005074855)
(0.0045332791 0.010765082 0.0015489057)
(0.0030351767 0.0083648452 0.0010187461)
(0.0025355667 0.0083427776 0.0013851192)
(0.0028048872 0.0040824161 -0.00055650605)
(0.0019812351 -4.714219e-05 -0.00068512638)
(0.0019515509 -0.0033249424 0.00075700938)
(0.001134243 -0.0026999694 0.002918921)
(0.0024932343 0.0053383742 0.00058131649)
(0.0024867006 0.008407855 0.001394242)