/*--------------------------------*- C++ -*----------------------------------*\
| =========                 |                                                 |
| \\      /  F ield         | OpenFOAM: The Open Source CFD Toolbox           |
|  \\    /   O peration     | Version:  v2012                                 |
|   \\  /    A nd           | Website:  www.openfoam.com                      |
|    \\/     M anipulation  |                                                 |
\*---------------------------------------------------------------------------*/
FoamFile
{
    version     2.0;
    format      ascii;
    class       volScalarField;
    location    "590/leftSolid";
    object      T;
}
// * * * * * * * * * * * * * * * * * * * * * * * * * * * * * * * * * * * * * //

dimensions      [0 0 0 1 0 0 0];


internalField   nonuniform List<scalar> 
130
(
919.57124
919.52748
919.42911
919.29194
919.11743
918.90524
918.66698
918.39755
918.11349
917.84627
917.60831
917.43682
917.34192
919.58247
919.53715
919.43674
919.28538
919.10123
918.87114
918.61087
918.33738
918.05717
917.77428
917.528
917.34129
917.23315
919.61515
919.56982
919.47066
919.31272
919.10997
918.85254
918.57462
918.29044
918.00319
917.72138
917.46099
917.24909
917.11507
919.68368
919.64245
919.54921
919.39764
919.18768
918.9176
918.61633
918.30647
917.99572
917.68899
917.39568
917.13828
916.9513
919.73316
919.69268
919.60361
919.45916
919.25513
918.99064
918.66765
918.32375
917.97979
917.63068
917.29043
916.99789
916.78262
919.74659
919.70612
919.61687
919.47112
919.26238
918.98924
918.65712
918.30356
917.9303
917.53431
917.13337
916.80052
916.56294
919.72993
919.68848
919.59597
919.44237
919.2184
918.91599
918.58491
918.21923
917.81501
917.37603
916.92304
916.547
916.33796
919.6957
919.65276
919.55567
919.39245
919.15086
918.84261
918.50406
918.12863
917.71913
917.26983
916.79309
916.42927
916.23846
919.65577
919.61168
919.51136
919.34043
919.10581
918.82087
918.4843
918.08776
917.67395
917.22981
916.76023
916.39055
916.19863
919.63195
919.585
919.4852
919.31794
919.08613
918.79867
918.45259
918.07738
917.67399
917.24001
916.78299
916.40177
916.20493
)
;

boundaryField
{
    minX
    {
        type            zeroGradient;
    }
    minZ
    {
        type            zeroGradient;
    }
    maxZ
    {
        type            zeroGradient;
    }
    leftSolid_to_bottomWater
    {
        type            compressible::turbulentTemperatureCoupledBaffleMixed;
        refValue        nonuniform List<scalar> 
130
(
963.6184
963.65943
961.23639
960.68754
959.95131
958.157
958.47403
956.04725
951.28035
949.61352
946.42749
945.57127
944.93712
963.39976
963.20458
961.69379
958.61487
959.26481
957.05317
954.33848
953.01841
951.81137
946.5174
945.24487
943.92795
942.47879
963.06697
962.64672
961.92257
959.03071
958.64504
954.0964
952.48436
952.26717
951.49827
950.50864
948.78294
946.07503
941.36299
965.57066
965.68755
965.33825
964.31001
963.06605
958.94523
956.4676
955.88961
955.61378
955.07395
952.88887
948.71743
935.57762
966.68888
966.44438
966.29048
966.14644
965.89764
965.67454
961.14936
957.91877
958.23531
956.621
952.829
950.44336
937.25063
966.61699
966.39311
966.2557
966.19507
965.85584
965.35209
960.64942
960.14016
960.34389
958.16588
950.08356
947.79031
932.63838
966.2473
966.07599
965.99916
965.90352
965.69374
958.57035
958.15533
957.55323
955.60788
951.91366
941.44247
929.7588
926.56853
965.92447
965.81012
965.6938
965.60754
962.42633
956.26534
955.26259
954.55238
954.50108
952.22875
936.73395
930.32036
929.50145
965.18033
965.13942
964.92383
962.11243
959.46029
959.23261
959.18059
952.75121
952.78264
951.74844
939.01517
930.13345
928.52695
965.24025
964.29238
963.9912
961.92219
959.34895
958.11814
953.60778
953.25506
953.00266
952.15593
942.72744
930.32082
928.16983
)
;
        refGradient     uniform 0;
        valueFraction   nonuniform List<scalar> 
130
(
0.0075140686
0.0075140686
0.0075140686
0.0075140686
0.0075140686
0.0075140686
0.0075140686
0.0075140686
0.0075140686
0.0075140686
0.0075140686
0.0075140686
0.0075140686
0.0075140686
0.0075140686
0.0075140686
0.0075140686
0.0075140686
0.0075140686
0.0075140686
0.0075140686
0.0075140686
0.0075140686
0.0075140686
0.0075140686
0.0075140686
0.0075140686
0.0075140686
0.0075140686
0.0075140686
0.0075140686
0.0075140686
0.0075140686
0.0075140686
0.0075140686
0.0075140686
0.0075140686
0.0075140686
0.0075140686
0.0075140686
0.0075140686
0.0075140686
0.0075140686
0.0075140686
0.0075140686
0.0075140686
0.0075140686
0.0075140686
0.0075140686
0.0075140686
0.0075140686
0.0075140686
0.0075140686
0.0075140686
0.0075140686
0.0075140686
0.0075140686
0.0075140686
0.0075140686
0.0075140686
0.0075140686
0.0075140686
0.0075140686
0.0075140686
0.0075140686
0.0075140686
0.0075140686
0.0075140686
0.0075140686
0.0075140686
0.0075140686
0.0075140686
0.0075140686
0.0075140686
0.0075140686
0.0075140686
0.0075140686
0.0075140686
0.0075140686
0.0075140686
0.0075140686
0.0075140686
0.0075140686
0.0075140686
0.0075140686
0.0075140686
0.0075140686
0.0075140686
0.0075140686
0.0075140686
0.0075140686
0.0075140686
0.0075140686
0.0075140686
0.0075140686
0.0075140686
0.0075140686
0.0075140686
0.0075140686
0.0075140686
0.0075140686
0.0075140686
0.0075140686
0.0075140686
0.0075140686
0.0075140686
0.0075140686
0.0075140686
0.0075140686
0.0075140686
0.0075140686
0.0075140686
0.0075140686
0.0075140686
0.0075140686
0.0075140686
0.0075140686
0.0075140686
0.0075140686
0.0075140686
0.0075140686
0.0075140686
0.0075140686
0.0075140686
0.0075140686
0.0075140686
0.0075140686
0.0075140686
0.0075140686
0.0075140686
)
;
        value           nonuniform List<scalar> 
130
(
919.90119
919.85808
919.74223
919.60198
919.42326
919.19922
918.96514
918.6795
918.3618
918.08408
917.82392
917.64728
917.5483
919.9107
919.86425
919.75324
919.57988
919.40201
919.15704
918.87833
918.59698
918.30983
917.9893
917.73521
917.53998
917.42174
919.94062
919.89247
919.78862
919.61013
919.406
919.1163
918.82833
918.54462
918.25374
917.96659
917.69514
917.4645
917.29615
920.02741
919.98737
919.89221
919.73405
919.51631
919.21727
918.89959
918.58767
918.27713
917.96862
917.66108
917.37425
917.09004
920.08489
920.04288
919.95332
919.80887
919.60449
919.34029
918.98568
918.62004
918.28097
917.92233
917.55613
917.2478
916.93503
920.09767
920.05582
919.96621
919.8211
919.61138
919.3365
918.97151
918.61674
918.24776
917.83833
917.37966
917.03201
916.68236
920.07835
920.03593
919.94355
919.79039
919.56653
919.21289
918.8812
918.51374
918.0979
917.63441
917.10611
916.64509
916.41366
920.04194
919.99848
919.90126
919.73863
919.47495
919.12275
918.77923
918.40127
917.99444
917.53141
916.9418
916.53257
916.33706
919.99672
919.95267
919.85151
919.66079
919.40803
919.12356
918.78915
918.34725
917.93676
917.48815
916.92639
916.49282
916.29033
919.97352
919.91982
919.81856
919.63707
919.38772
919.09319
918.71584
918.34081
917.93854
917.50143
916.97696
916.50542
916.29396
)
;
        Tnbr            T;
        thicknessLayers List<scalar> 0();
        kappaLayers     List<scalar> 0();
        kappaMethod     solidThermo;
        kappa           none;
        alphaAni        none;
        alpha           none;
        field           T;
    }
    leftSolid_to_heater
    {
        type            compressible::turbulentTemperatureCoupledBaffleMixed;
        refValue        nonuniform List<scalar> 10(733.89424 724.4482 704.63783 672.47155 625.53042 625.56423 672.60803 704.77544 724.56308 733.99684);
        refGradient     uniform 0;
        valueFraction   nonuniform List<scalar> 10(2.08329e-05 2.08329e-05 2.08329e-05 2.08329e-05 2.08329e-05 2.08329e-05 2.08329e-05 2.08329e-05 2.08329e-05 2.08329e-05);
        value           nonuniform List<scalar> 10(917.33712 917.22802 917.10952 916.94497 916.77516 916.5555 916.3317 916.23299 916.1937 916.20025);
        Tnbr            T;
        thicknessLayers List<scalar> 1(0.001);
        kappaLayers     List<scalar> 1(0.0005);
        kappaMethod     solidThermo;
        kappa           none;
        alphaAni        none;
        alpha           none;
        field           T;
    }
    leftSolid_to_topAir
    {
        type            compressible::turbulentTemperatureCoupledBaffleMixed;
        refValue        nonuniform List<scalar> 
130
(
325.18619
348.47195
369.54383
389.00859
407.37039
424.92811
441.78513
457.78941
472.63259
486.27149
498.5722
509.28533
517.86146
325.18026
348.21523
368.79573
387.52823
404.88012
421.08959
436.21251
450.17731
462.76171
473.60392
482.18826
487.88409
489.85308
325.17827
348.25591
368.8975
387.70737
405.16026
421.50814
436.85985
451.23618
464.54993
476.58146
486.9146
494.83914
499.10046
325.18081
348.27657
368.95982
387.84213
405.41727
421.97212
437.66521
452.57913
466.73801
480.05855
492.2536
502.63425
509.91644
325.18195
348.28387
368.97926
387.8795
405.4795
422.06803
437.80365
452.77085
466.97244
480.2753
492.25706
501.98409
508.30121
325.18249
348.28496
368.98092
387.88176
405.48241
422.07194
437.81072
452.78591
467.00902
480.37083
492.50703
502.56952
509.22487
325.18267
348.28038
368.96584
387.85076
405.4287
421.9863
437.6831
452.60513
466.78315
480.15098
492.46628
503.12639
510.85685
325.18151
348.26272
368.90838
387.72286
405.17986
421.53129
436.88603
451.26649
464.58851
476.64398
487.04506
495.14243
499.74417
325.18317
348.2213
368.80556
387.54197
404.89718
421.10991
436.23545
450.19992
462.78273
473.62479
482.22055
487.9708
490.09341
325.18856
348.47682
369.55161
389.01885
407.38176
424.93821
441.78989
457.78582
472.61694
486.23983
498.52135
509.21837
517.79875
)
;
        refGradient     uniform 0;
        valueFraction   nonuniform List<scalar> 
130
(
0.00032132529
0.00032132529
0.00032132529
0.00032132529
0.00032132529
0.00032132529
0.00032132529
0.00032132529
0.00032132529
0.00032132529
0.00032132529
0.00032132529
0.00032132529
0.00032132529
0.00032132529
0.00032132529
0.00032132529
0.00032132529
0.00032132529
0.00032132529
0.00032132529
0.00032132529
0.00032132529
0.00032132529
0.00032132529
0.00032132529
0.00032132529
0.00032132529
0.00032132529
0.00032132529
0.00032132529
0.00032132529
0.00032132529
0.00032132529
0.00032132529
0.00032132529
0.00032132529
0.00032132529
0.00032132529
0.00032132529
0.00032132529
0.00032132529
0.00032132529
0.00032132529
0.00032132529
0.00032132529
0.00032132529
0.00032132529
0.00032132529
0.00032132529
0.00032132529
0.00032132529
0.00032132529
0.00032132529
0.00032132529
0.00032132529
0.00032132529
0.00032132529
0.00032132529
0.00032132529
0.00032132529
0.00032132529
0.00032132529
0.00032132529
0.00032132529
0.00032132529
0.00032132529
0.00032132529
0.00032132529
0.00032132529
0.00032132529
0.00032132529
0.00032132529
0.00032132529
0.00032132529
0.00032132529
0.00032132529
0.00032132529
0.00032132529
0.00032132529
0.00032132529
0.00032132529
0.00032132529
0.00032132529
0.00032132529
0.00032132529
0.00032132529
0.00032132529
0.00032132529
0.00032132529
0.00032132529
0.00032132529
0.00032132529
0.00032132529
0.00032132529
0.00032132529
0.00032132529
0.00032132529
0.00032132529
0.00032132529
0.00032132529
0.00032132529
0.00032132529
0.00032132529
0.00032132529
0.00032132529
0.00032132529
0.00032132529
0.00032132529
0.00032132529
0.00032132529
0.00032132529
0.00032132529
0.00032132529
0.00032132529
0.00032132529
0.00032132529
0.00032132529
0.00032132529
0.00032132529
0.00032132529
0.00032132529
0.00032132529
0.00032132529
0.00032132529
0.00032132529
0.00032132529
0.00032132529
0.00032132529
0.00032132529
)
;
        value           nonuniform List<scalar> 
130
(
919.37922
919.34297
919.25139
919.12053
918.95199
918.74554
918.51278
918.24859
917.96943
917.70669
917.47271
917.30472
917.21258
919.39045
919.35254
919.25878
919.11348
918.93497
918.71018
918.45486
918.18595
917.9099
917.63059
917.38705
917.2022
917.09471
919.4231
919.3852
919.29271
919.14086
918.94378
918.69166
918.41874
918.13924
917.85634
917.57847
917.32144
917.11216
916.97962
919.49157
919.45778
919.37122
919.22577
919.02151
918.75681
918.46063
918.15561
917.84945
917.54708
917.25776
917.00377
916.81928
919.54101
919.50797
919.42557
919.28724
919.08892
918.82982
918.51195
918.17292
917.83356
917.48881
917.1525
916.86312
916.64997
919.55442
919.52139
919.43882
919.29919
919.09617
918.82845
918.50146
918.15279
917.78416
917.39255
916.99562
916.66604
916.43067
919.53776
919.50375
919.41793
919.27045
919.05221
918.75524
918.42933
918.06856
917.66898
917.23439
916.78547
916.41297
916.20649
919.50354
919.46804
919.37763
919.22052
918.98462
918.68175
918.34826
917.97756
917.57245
917.12713
916.65386
916.29281
916.10357
919.46362
919.42696
919.33332
919.16851
918.93957
918.65997
918.32839
917.93643
917.52677
917.08623
916.61953
916.25189
916.06077
919.43979
919.40036
919.30742
919.14653
918.92075
918.63905
918.29851
917.92857
917.53007
917.10057
916.64761
916.26999
916.07603
)
;
        Tnbr            T;
        thicknessLayers List<scalar> 0();
        kappaLayers     List<scalar> 0();
        kappaMethod     solidThermo;
        kappa           none;
        alphaAni        none;
        alpha           none;
        field           T;
    }
}


// ************************************************************************* //
