/*--------------------------------*- C++ -*----------------------------------*\
| =========                 |                                                 |
| \\      /  F ield         | OpenFOAM: The Open Source CFD Toolbox           |
|  \\    /   O peration     | Version:  v2012                                 |
|   \\  /    A nd           | Website:  www.openfoam.com                      |
|    \\/     M anipulation  |                                                 |
\*---------------------------------------------------------------------------*/
FoamFile
{
    version     2.0;
    format      ascii;
    class       surfaceScalarField;
    location    "710/topAir";
    object      phi;
}
// * * * * * * * * * * * * * * * * * * * * * * * * * * * * * * * * * * * * * //

dimensions      [1 0 -1 0 0 0 0];
oriented        oriented;


internalField   nonuniform List<scalar> 
3140
(
9.5065068e-06
-3.092521e-07
7.170841e-08
9.6940208e-06
-2.6852322e-07
8.1005748e-08
9.8725399e-06
-2.4802127e-07
6.9509218e-08
1.0016138e-05
-1.9484676e-07
5.1257728e-08
1.0118853e-05
-1.3036473e-07
2.7652944e-08
1.0191181e-05
-7.1353351e-08
-9.8588195e-10
1.0268737e-05
-2.4422309e-08
-5.3171707e-08
1.0371194e-05
1.9993732e-08
-1.2252049e-07
1.0509742e-05
8.4652626e-08
-2.2330138e-07
1.0706884e-05
1.7044253e-07
-3.6770834e-07
1.0958116e-05
3.1973173e-07
-5.7109242e-07
1.1234796e-05
5.6961916e-07
-8.4641442e-07
1.1482052e-05
9.495561e-07
-1.1968894e-06
1.1711586e-05
1.3933537e-06
-1.6228933e-06
1.1889091e-05
1.8922014e-06
-2.069598e-06
1.1993817e-05
2.3807168e-06
-2.485203e-06
1.2011152e-05
2.8137973e-06
-2.8307638e-06
1.1942701e-05
3.1619959e-06
-3.0930604e-06
1.1814693e-05
3.4055446e-06
-3.2769391e-06
1.1670862e-05
3.5379848e-06
-3.393449e-06
1.1551279e-05
3.5735328e-06
-3.4531509e-06
1.14793e-05
3.5375491e-06
-3.4647046e-06
1.1459735e-05
3.4546104e-06
-3.4341644e-06
1.1482618e-05
3.3436018e-06
-3.3656385e-06
1.1525176e-05
3.2188505e-06
-3.2606157e-06
1.1542523e-05
3.0977896e-06
-3.114349e-06
1.1445357e-05
3.0103701e-06
-2.9122538e-06
1.1057633e-05
3.0162203e-06
-2.6269951e-06
1.0021652e-05
3.2503271e-06
-2.2115889e-06
4.0339329e-06
-1.6021396e-06
9.1112659e-06
-2.3060753e-07
7.9058403e-08
9.0850012e-06
-3.4469269e-07
1.0243471e-07
9.0917326e-06
-3.6274683e-07
1.0799471e-07
9.145174e-06
-3.5712821e-07
1.0883874e-07
9.2439168e-06
-3.334956e-07
1.0438279e-07
9.3822534e-06
-3.0214268e-07
9.2440795e-08
9.5635964e-06
-2.7649843e-07
7.0715644e-08
9.8054502e-06
-2.5825214e-07
3.6478479e-08
1.0132823e-05
-2.264075e-07
-1.594636e-08
1.0577274e-05
-1.6440572e-07
-1.0879956e-07
1.1164842e-05
-2.1568334e-08
-2.4517598e-07
1.1880089e-05
2.9642003e-07
-4.4128181e-07
1.2624599e-05
9.1428306e-07
-7.0913551e-07
1.3275762e-05
1.7627237e-06
-1.0210935e-06
1.3757214e-05
2.7273871e-06
-1.3176315e-06
1.4007523e-05
3.6685896e-06
-1.5393621e-06
1.4018844e-05
4.4737051e-06
-1.6724042e-06
1.3839754e-05
5.0985356e-06
-1.7584662e-06
1.3555661e-05
5.5312739e-06
-1.8423773e-06
1.3258781e-05
5.7765007e-06
-1.9420437e-06
1.3006347e-05
5.8609829e-06
-2.0350993e-06
1.2818664e-05
5.8224996e-06
-2.0970896e-06
1.2692297e-05
5.6953493e-06
-2.1140224e-06
1.2611395e-05
5.5035785e-06
-2.0786275e-06
1.2553163e-05
5.2603357e-06
-1.9827079e-06
1.247459e-05
4.9859391e-06
-1.8088828e-06
1.2291609e-05
4.7235147e-06
-1.5292035e-06
1.185037e-05
4.5677769e-06
-1.1086588e-06
1.0909838e-05
4.7080237e-06
-5.1378178e-07
5.3531825e-06
3.588238e-07
9.1682346e-06
-2.1101301e-07
8.1131552e-08
8.997623e-06
-2.8071977e-07
1.0663832e-07
8.8134338e-06
-2.9395646e-07
1.1539837e-07
8.6279081e-06
-2.932346e-07
1.2163143e-07
8.4535009e-06
-2.8546094e-07
1.2637137e-07
8.2953451e-06
-2.7313422e-07
1.2914537e-07
8.1498973e-06
-2.6182119e-07
1.3076721e-07
8.0152098e-06
-2.5718583e-07
1.3362052e-07
7.9097398e-06
-2.6173065e-07
1.4080166e-07
7.8777725e-06
-2.8363573e-07
1.5122078e-07
8.0388617e-06
-3.3912252e-07
1.5649223e-07
8.5615147e-06
-3.5921424e-07
1.3308623e-07
9.4909854e-06
-7.73977e-08
6.1786531e-08
1.0706063e-05
5.7099936e-07
-2.4628066e-08
1.1778335e-05
1.7012915e-06
-4.8105747e-08
1.2551266e-05
2.8302874e-06
6.3147888e-08
1.2942235e-05
3.6938462e-06
3.8669927e-07
1.3025748e-05
4.3144712e-06
6.9860662e-07
1.2926236e-05
4.7257004e-06
9.0352188e-07
1.2776136e-05
4.9541848e-06
9.7130929e-07
1.26441e-05
5.0183529e-06
9.7403322e-07
1.2542766e-05
4.9453115e-06
9.7833132e-07
1.2457832e-05
4.772163e-06
1.0083157e-06
1.2363622e-05
4.5332738e-06
1.0650552e-06
1.2249583e-05
4.2574637e-06
1.1177927e-06
1.2095835e-05
3.9643718e-06
1.1765937e-06
1.1870881e-05
3.6893255e-06
1.2609671e-06
1.1534144e-05
3.5096266e-06
1.397648e-06
1.0992724e-05
3.605971e-06
1.6480816e-06
4.3448987e-06
2.0345088e-06
8.9786982e-06
7.9241154e-08
8.5944424e-06
1.0353569e-07
8.1893217e-06
1.1116403e-07
7.7803728e-06
1.1571391e-07
7.3763386e-06
1.1857295e-07
6.9835037e-06
1.1970015e-07
6.60138e-06
1.2030186e-07
6.2214934e-06
1.2269955e-07
5.8291219e-06
1.306393e-07
5.3963947e-06
1.4908838e-07
4.8676563e-06
1.8960834e-07
4.2359012e-06
2.7251152e-07
3.7389897e-06
4.1936571e-07
3.6853381e-06
6.2367374e-07
4.4134441e-06
9.711249e-07
5.5773209e-06
1.6640646e-06
6.5722917e-06
2.6967237e-06
7.3493266e-06
3.5356096e-06
7.9829218e-06
4.0906712e-06
8.5399616e-06
4.3961584e-06
9.042996e-06
4.5147953e-06
9.4814035e-06
4.5068144e-06
9.8292082e-06
4.4246507e-06
1.0067339e-05
4.2957713e-06
1.0187655e-05
4.1380951e-06
1.0208709e-05
3.9446108e-06
1.0165792e-05
3.7339733e-06
1.0168187e-05
3.5096377e-06
1.0512676e-05
3.2651441e-06
2.9151115e-06
9.6185075e-06
-3.0897152e-07
3.1135566e-08
9.9212971e-06
-2.6981734e-07
4.8022291e-08
1.0203076e-05
-2.620729e-07
4.9796535e-08
1.0437167e-05
-2.2661024e-07
4.3770545e-08
1.0617165e-05
-1.8433626e-07
3.1978617e-08
1.0755923e-05
-1.5243531e-07
1.2665234e-08
1.085566e-05
-1.3911394e-07
-1.3855563e-08
1.0927286e-05
-1.471708e-07
-4.7079717e-08
1.0980205e-05
-1.8267239e-07
-9.3701982e-08
1.1023267e-05
-2.5281449e-07
-1.5815128e-07
1.1066364e-05
-3.6846078e-07
-2.4592634e-07
1.112214e-05
-5.4095294e-07
-3.6138095e-07
1.1211314e-05
-7.8247978e-07
-5.0361187e-07
1.1417656e-05
-1.1596674e-06
-6.693824e-07
1.1731906e-05
-1.555652e-06
-8.277687e-07
1.2098766e-05
-1.8827546e-06
-9.6871524e-07
1.2421266e-05
-2.0423607e-06
-1.1102471e-06
1.2625229e-05
-2.0269562e-06
-1.269376e-06
1.2697652e-05
-1.9062905e-06
-1.4423134e-06
1.2682207e-05
-1.7665968e-06
-1.6105515e-06
1.2633115e-05
-1.6495953e-06
-1.7535262e-06
1.2589965e-05
-1.5596535e-06
-1.8609775e-06
1.2568704e-05
-1.4871101e-06
-1.9250557e-06
1.2571014e-05
-1.4252319e-06
-1.9423681e-06
1.2598415e-05
-1.3739035e-06
-1.9143e-06
1.264696e-05
-1.3218915e-06
-1.8417783e-06
1.2693833e-05
-1.2443913e-06
-1.7159037e-06
1.2676868e-05
-1.0824154e-06
-1.5283692e-06
1.2467941e-05
-6.9892133e-07
-1.3023137e-06
3.9613205e-07
-1.0657732e-06
9.2363298e-06
-2.3218245e-07
3.4908371e-08
9.357057e-06
-3.4882336e-07
6.071339e-08
9.5040855e-06
-3.7219608e-07
7.1088776e-08
9.6909828e-06
-3.7734712e-07
7.2675731e-08
9.9137425e-06
-3.708e-07
6.8080349e-08
1.0160156e-05
-3.6252332e-07
5.6102512e-08
1.0421742e-05
-3.6444662e-07
3.4438599e-08
1.069615e-05
-3.868097e-07
1.6727774e-09
1.0989515e-05
-4.4045431e-07
-5.1569451e-08
1.1299334e-05
-5.452471e-07
-1.2622086e-07
1.1639454e-05
-7.2325855e-07
-2.3051564e-07
1.2029212e-05
-1.0037895e-06
-3.6819096e-07
1.2496982e-05
-1.4261952e-06
-5.3313776e-07
1.3023166e-05
-2.0104124e-06
-6.9642265e-07
1.3583824e-05
-2.6060771e-06
-8.2774778e-07
1.4075692e-05
-2.9575994e-06
-9.5637411e-07
1.438987e-05
-2.8907734e-06
-1.1383238e-06
1.448399e-05
-2.5056215e-06
-1.3741857e-06
1.4393133e-05
-2.0270516e-06
-1.6310527e-06
1.4213601e-05
-1.6551495e-06
-1.8742356e-06
1.4014658e-05
-1.406784e-06
-2.0792201e-06
1.3814857e-05
-1.2327314e-06
-2.224459e-06
1.361254e-05
-1.1102311e-06
-2.2888642e-06
1.3408606e-05
-1.0362148e-06
-2.2640022e-06
1.3238658e-05
-1.0375146e-06
-2.1494235e-06
1.3160571e-05
-1.1050385e-06
-1.9479421e-06
1.3266994e-05
-1.2336935e-06
-1.646794e-06
1.377851e-05
-1.4316949e-06
-1.2719731e-06
1.5371783e-05
-1.7481977e-06
-1.0604702e-06
-1.9150035e-06
-1.2074594e-06
9.2957451e-06
-2.1342945e-07
3.5594019e-08
9.27543e-06
-2.8448369e-07
6.2613385e-08
9.2430743e-06
-2.9962261e-07
7.5180107e-08
9.2107281e-06
-3.0318847e-07
7.9818353e-08
9.189124e-06
-3.0223779e-07
7.9412088e-08
9.1815615e-06
-2.9917359e-07
7.3356145e-08
9.1875965e-06
-3.0005732e-07
6.0339385e-08
9.2069967e-06
-3.1204992e-07
3.9455168e-08
9.2395381e-06
-3.4378741e-07
1.1586199e-08
9.2944975e-06
-4.1161231e-07
-3.7381866e-08
9.3843828e-06
-5.4469195e-07
-1.1196929e-07
9.523841e-06
-7.9000134e-07
-2.2017198e-07
9.7352329e-06
-1.2143778e-06
-3.6144352e-07
1.0039182e-05
-1.8469583e-06
-4.9208989e-07
1.0375938e-05
-2.4563058e-06
-5.3490362e-07
1.0660676e-05
-2.6940034e-06
-4.8592025e-07
1.0906729e-05
-2.3616274e-06
-3.896867e-07
1.1018679e-05
-1.6494954e-06
-2.7076939e-07
1.1017199e-05
-8.703019e-07
-2.528038e-07
1.0909679e-05
-1.9851614e-07
-3.7840406e-07
1.0825613e-05
1.2222199e-07
-4.7095586e-07
1.0782006e-05
2.4719019e-07
-4.5745767e-07
1.075972e-05
2.4514219e-07
-3.2368431e-07
1.0732766e-05
1.5991316e-07
-1.0244433e-07
1.066373e-05
7.2480684e-09
1.441645e-07
1.0543645e-05
-1.9730679e-07
3.9117632e-07
1.0437457e-05
-5.1722375e-07
6.5273051e-07
1.0465804e-05
-8.4711176e-07
7.8625218e-07
1.1100259e-05
-1.1620364e-06
4.2827077e-07
-1.3639833e-06
-4.9726078e-07
9.1001865e-06
3.4577506e-08
8.8588409e-06
6.0397361e-08
8.5983331e-06
7.2048958e-08
8.3349744e-06
7.5883741e-08
8.0766512e-06
7.4658045e-08
7.8293716e-06
6.7805721e-08
7.5954985e-06
5.4117015e-08
7.3733823e-06
3.2764651e-08
7.1550831e-06
5.1494184e-09
6.9409796e-06
-4.8423279e-08
6.710211e-06
-1.2431981e-07
6.4336376e-06
-2.4092605e-07
6.0788204e-06
-4.4022139e-07
5.62491e-06
-7.6953595e-07
5.1787552e-06
-1.0399631e-06
4.9317704e-06
-7.8475369e-07
4.938454e-06
3.2646073e-07
4.9611513e-06
1.8617879e-06
5.1228454e-06
3.0575805e-06
5.5530687e-06
3.7669315e-06
6.0699042e-06
4.1201431e-06
6.5688472e-06
4.255293e-06
6.9821084e-06
4.2568048e-06
7.2842069e-06
4.1540278e-06
7.48206e-06
3.9481888e-06
7.6219724e-06
3.6083824e-06
7.7011406e-06
3.1389011e-06
7.8273569e-06
2.5379507e-06
8.6961039e-06
1.2361999e-06
-5.3751778e-07
9.5957046e-06
-3.1091851e-07
1.5312446e-08
9.8890894e-06
-2.7046717e-07
2.5097764e-08
1.0169729e-05
-2.5916607e-07
2.832432e-08
1.0405724e-05
-2.192399e-07
2.701913e-08
1.0587384e-05
-1.7241133e-07
2.2728806e-08
1.0719869e-05
-1.3582368e-07
1.5992517e-08
1.0812385e-05
-1.1326879e-07
6.8758223e-09
1.0875054e-05
-1.0474749e-07
-5.044305e-09
1.0912954e-05
-1.1275375e-07
-1.890395e-08
1.0933384e-05
-1.432214e-07
-3.5406785e-08
1.0946726e-05
-2.0652582e-07
-5.273618e-08
1.0971719e-05
-3.2007019e-07
-6.6165071e-08
1.1042503e-05
-5.0996432e-07
-6.4039019e-08
1.1251578e-05
-8.4548632e-07
-3.2084186e-08
1.1533875e-05
-1.1643945e-06
5.5788236e-08
1.1784164e-05
-1.4009717e-06
1.8386062e-07
1.19515e-05
-1.5715954e-06
2.9609228e-07
1.2035852e-05
-1.7298941e-06
3.7830422e-07
1.2052566e-05
-1.8905709e-06
4.3371889e-07
1.2025148e-05
-2.0545335e-06
4.7356849e-07
1.1985699e-05
-2.2228098e-06
5.10732e-07
1.1949385e-05
-2.379716e-06
5.5658303e-07
1.1907292e-05
-2.4992558e-06
6.169984e-07
1.1841927e-05
-2.5658923e-06
6.8853047e-07
1.1747165e-05
-2.5852948e-06
7.6433404e-07
1.164745e-05
-2.5848108e-06
8.4048299e-07
1.1611464e-05
-2.5844603e-06
9.0188348e-07
1.1736801e-05
-2.538893e-06
8.8288338e-07
1.1920064e-05
-2.0973612e-06
6.1071899e-07
-8.2200316e-07
-4.4704616e-08
9.2080851e-06
-2.3204339e-07
1.6916994e-08
9.3158131e-06
-3.4799702e-07
3.0515404e-08
9.459838e-06
-3.692826e-07
3.7180643e-08
9.6463308e-06
-3.7082299e-07
3.7764907e-08
9.8678238e-06
-3.5912368e-07
3.3295749e-08
1.0108594e-05
-3.4386379e-07
2.3363969e-08
1.0358556e-05
-3.3516802e-07
6.3617575e-09
1.0614722e-05
-3.4058409e-07
-1.8674491e-08
1.0874906e-05
-3.6964624e-07
-5.4884751e-08
1.1145193e-05
-4.3545046e-07
-1.0429356e-07
1.144019e-05
-5.6480626e-07
-1.6721764e-07
1.1793205e-05
-8.0432637e-07
-2.3687039e-07
1.2259672e-05
-1.2198896e-06
-2.894767e-07
1.2785394e-05
-1.7874037e-06
-2.7982011e-07
1.3220213e-05
-2.1951811e-06
-2.3130205e-07
1.3418361e-05
-2.311175e-06
-2.4397704e-07
1.3380817e-05
-2.3077867e-06
-3.644584e-07
1.3190959e-05
-2.3336851e-06
-5.8057094e-07
1.2890133e-05
-2.3621537e-06
-8.5879972e-07
1.2520355e-05
-2.4075188e-06
-1.1517596e-06
1.2118007e-05
-2.4964747e-06
-1.403705e-06
1.1685944e-05
-2.5984881e-06
-1.5744652e-06
1.1208235e-05
-2.6651263e-06
-1.6465246e-06
1.0676566e-05
-2.6781234e-06
-1.6215938e-06
1.0099491e-05
-2.6650339e-06
-1.4941464e-06
9.5534199e-06
-2.7221913e-06
-1.2661408e-06
9.290929e-06
-2.9390786e-06
-1.0319934e-06
9.7589239e-06
-3.30841e-06
-9.7458924e-07
1.1363129e-05
-3.3763581e-06
-1.3917184e-06
-2.6584283e-06
-2.2679552e-06
9.2685115e-06
-2.1312697e-07
1.712675e-08
9.2359361e-06
-2.8386792e-07
3.1059247e-08
9.2012709e-06
-2.9795039e-07
3.8512622e-08
9.1701834e-06
-2.9996495e-07
4.0047332e-08
9.1510435e-06
-2.9693744e-07
3.6364777e-08
9.1448518e-06
-2.9099825e-07
2.6680847e-08
9.1485981e-06
-2.8753306e-07
8.955631e-09
9.159282e-06
-2.9264312e-07
-1.9173435e-08
9.1772985e-06
-3.1414031e-07
-6.1941412e-08
9.1968361e-06
-3.6681776e-07
-1.2555836e-07
9.2174732e-06
-4.8238393e-07
-2.1503414e-07
9.2492413e-06
-7.2520017e-07
-3.3106666e-07
9.3452973e-06
-1.2242436e-06
-4.5312973e-07
9.5036962e-06
-1.9493583e-06
-4.8855869e-07
9.3912555e-06
-2.2200339e-06
-3.9837578e-07
8.9215817e-06
-1.9329197e-06
-3.9611131e-07
8.3034211e-06
-1.5310318e-06
-5.5019317e-07
7.851205e-06
-1.3873296e-06
-7.6672342e-07
7.3909618e-06
-1.0843172e-06
-1.0721618e-06
6.8523388e-06
-8.4342534e-07
-1.4058466e-06
6.2697894e-06
-7.487275e-07
-1.6387475e-06
5.6730635e-06
-7.850091e-07
-1.677852e-06
5.1020299e-06
-9.0042848e-07
-1.5219988e-06
4.6234044e-06
-1.0704811e-06
-1.2363894e-06
4.2540289e-06
-1.2976196e-06
-8.5797894e-07
4.0696454e-06
-1.6308209e-06
-5.1830113e-07
4.3158e-06
-2.0951244e-06
-4.3844973e-07
5.131606e-06
-2.7115898e-06
-6.2672019e-07
6.462438e-06
-2.7881769e-06
-1.4917915e-06
-1.8516824e-06
-3.0876465e-06
9.0737052e-06
1.6697681e-08
8.8201499e-06
3.0084431e-08
8.5572129e-06
3.7035326e-08
8.2950249e-06
3.8106409e-08
8.0388163e-06
3.3928937e-08
7.7920408e-06
2.3582502e-08
7.5541937e-06
4.4305268e-09
7.3200324e-06
-2.57181e-08
7.0851964e-06
-7.4156156e-08
6.8226628e-06
-1.5270952e-07
6.4948349e-06
-2.788788e-07
6.0185125e-06
-4.8980538e-07
5.218927e-06
-8.6486503e-07
3.9564952e-06
-1.4567266e-06
2.5500102e-06
-1.8568932e-06
1.520058e-06
-1.6923843e-06
1.5001571e-06
-1.189951e-06
1.7522843e-06
2.1979492e-07
2.1075501e-06
1.6166599e-06
2.5831492e-06
2.4475928e-06
3.0955226e-06
2.8593522e-06
3.544012e-06
3.0223983e-06
3.8688026e-06
3.0322849e-06
4.0175345e-06
2.9354945e-06
3.9342917e-06
2.7346099e-06
3.6946633e-06
2.218107e-06
3.4640715e-06
1.2751627e-06
3.3724898e-06
-8.1319032e-08
3.6331191e-06
-1.8146022e-06
-4.1782147e-06
9.5899628e-06
-3.1120468e-07
5.5166657e-09
9.875693e-06
-2.7015075e-07
9.510484e-09
1.0150102e-05
-2.5718222e-07
1.1098991e-08
1.038087e-05
-2.1437284e-07
1.0628721e-08
1.0557762e-05
-1.6270639e-07
8.5494051e-09
1.0687009e-05
-1.1831315e-07
5.0625585e-09
1.0777555e-05
-8.4170862e-08
5.0361033e-10
1.083826e-05
-5.9467772e-08
-6.2661488e-09
1.0877859e-05
-4.4069049e-08
-1.4403028e-08
1.0907799e-05
-4.1284195e-08
-2.4007563e-08
1.0949555e-05
-6.0624363e-08
-3.376567e-08
1.1045878e-05
-1.233395e-07
-3.8940734e-08
1.126306e-05
-2.5392974e-07
-2.6865278e-08
1.1631471e-05
-4.1888063e-07
1.9208754e-08
1.1986412e-05
-3.8555091e-07
8.7482477e-08
1.2229852e-05
-2.1945237e-07
1.6123654e-07
1.2365929e-05
-7.9419897e-08
2.4113932e-07
1.2447668e-05
-3.7837161e-08
3.3664185e-07
1.2506496e-05
-7.5426858e-08
4.5343621e-07
1.2569492e-05
-1.8239065e-07
5.9742508e-07
1.265307e-05
-3.3856015e-07
7.7188816e-07
1.2745264e-05
-5.0656097e-07
9.7884406e-07
1.2816604e-05
-6.6064975e-07
1.2155642e-06
1.2851401e-05
-8.01946e-07
1.4659068e-06
1.2855176e-05
-9.2656953e-07
1.6981679e-06
1.2816615e-05
-9.7493618e-07
1.8655693e-06
1.2643655e-05
-8.2484047e-07
1.9116983e-06
1.2145768e-05
-3.7804213e-07
1.7714368e-06
1.0784368e-05
6.3275827e-07
1.3538315e-06
2.7768792e-06
6.3410314e-07
9.2004369e-06
-2.3188925e-07
6.1334768e-09
9.2964768e-06
-3.4750199e-07
1.182701e-08
9.4292668e-06
-3.6778335e-07
1.4992218e-08
9.6046067e-06
-3.672401e-07
1.529198e-08
9.8140535e-06
-3.5168231e-07
1.2822829e-08
1.0041529e-05
-3.2984007e-07
7.4100954e-09
1.0275354e-05
-3.1072367e-07
-9.1912156e-10
1.0513009e-05
-3.0032321e-07
-1.5482221e-08
1.075553e-05
-3.0643938e-07
-3.5040576e-08
1.1015394e-05
-3.4454754e-07
-6.0889916e-08
1.1326745e-05
-4.4865634e-07
-9.0509542e-08
1.1764385e-05
-6.8418198e-07
-1.1358607e-07
1.2446416e-05
-1.1168685e-06
-1.0836168e-07
1.3222575e-05
-1.4229994e-06
-5.1494967e-08
1.3807584e-05
-1.204244e-06
2.7036178e-09
1.4172219e-05
-8.4531034e-07
1.7492084e-08
1.4358758e-05
-6.2337871e-07
-6.821096e-09
1.4407999e-05
-6.0207674e-07
-6.5255037e-08
1.4332804e-05
-7.1737182e-07
-1.4104546e-07
1.4164803e-05
-9.2684684e-07
-2.3818942e-07
1.3919043e-05
-1.1605774e-06
-3.3426586e-07
1.3580297e-05
-1.3516256e-06
-3.886947e-07
1.311513e-05
-1.4703463e-06
-3.6969223e-07
1.2537634e-05
-1.5599819e-06
-2.8420469e-07
1.1955263e-05
-1.6684486e-06
-1.682665e-07
1.1570267e-05
-1.7591533e-06
-9.5645803e-08
1.1481835e-05
-1.5806513e-06
-1.8452048e-07
1.1509831e-05
-8.7215055e-07
-5.0188981e-07
1.1356351e-05
4.4872748e-07
-1.0486672e-06
2.2560327e-06
-1.7884251e-06
9.2612009e-06
-2.131302e-07
6.1273984e-09
9.2168324e-06
-2.8391932e-07
1.1844745e-08
9.1700784e-06
-2.9769103e-07
1.5173813e-08
9.1261229e-06
-2.9887392e-07
1.5636238e-08
9.0920391e-06
-2.9432818e-07
1.3093706e-08
9.0676189e-06
-2.8586065e-07
7.1205264e-09
9.047575e-06
-2.7858064e-07
-3.1453479e-09
9.0279528e-06
-2.7849734e-07
-2.137971e-08
9.0025164e-06
-2.9454612e-07
-4.8401864e-08
8.9665891e-06
-3.4579293e-07
-8.8389844e-08
8.9251303e-06
-4.778646e-07
-1.4437081e-07
8.9246835e-06
-8.0523113e-07
-2.0956912e-07
9.1671292e-06
-1.5675952e-06
-2.4483502e-07
9.5607421e-06
-2.1166723e-06
-1.8894548e-07
9.4546606e-06
-1.3803552e-06
-1.1767133e-07
9.0142423e-06
-6.653123e-07
-1.3755654e-07
8.4182575e-06
-3.4981683e-07
-2.2971872e-07
7.7132285e-06
-2.6079683e-07
-4.0486845e-07
6.958097e-06
-3.8851341e-07
-6.4792441e-07
6.1493429e-06
-5.7606264e-07
-9.504807e-07
5.3178246e-06
-7.8116475e-07
-1.1904931e-06
4.4965664e-06
-9.9673326e-07
-1.2176875e-06
3.6881178e-06
-1.1887529e-06
-1.0041419e-06
2.9489167e-06
-1.3925204e-06
-6.7519523e-07
2.5144075e-06
-1.6688243e-06
-4.3381172e-07
2.7149998e-06
-2.055506e-06
-4.3196296e-07
3.6635263e-06
-2.1186151e-06
-8.5454144e-07
4.9424054e-06
-1.1993319e-06
-1.5775723e-06
5.8916165e-06
3.6404913e-07
-2.3497585e-06
1.8389695e-06
-3.0652973e-06
9.0666006e-06
5.9192601e-09
8.8014429e-06
1.1322471e-08
8.5264853e-06
1.4301661e-08
8.2513537e-06
1.4363752e-08
7.9796311e-06
1.1323026e-08
7.7125856e-06
4.7670376e-09
7.4458627e-06
-7.4277442e-09
7.1701421e-06
-2.8495535e-08
6.863748e-06
-6.2309188e-08
6.4837202e-06
-1.1847638e-07
5.9418043e-06
-2.148296e-07
5.0375951e-06
-3.9082515e-07
3.3564047e-06
-7.5128949e-07
1.1178315e-06
-1.336736e-06
-8.6812884e-07
-1.2605195e-06
-2.2276567e-06
-1.0017877e-06
-3.0446895e-06
-7.2614545e-07
-2.8634394e-06
-2.2544367e-07
-2.116347e-06
4.7958825e-07
-1.2897525e-06
1.0446222e-06
-5.8712295e-07
1.3760227e-06
-1.0541455e-07
1.544805e-06
1.3973366e-07
1.5991879e-06
1.1284338e-07
1.5708271e-06
-3.2143368e-07
1.5011945e-06
-1.1674336e-06
1.0078393e-06
-1.6229259e-06
-3.8861428e-07
-9.0246334e-07
-1.9970472e-06
8.8476255e-07
-3.2291559e-06
-4.0122787e-06
9.5868554e-06
-3.1166002e-07
-7.164904e-10
9.8684767e-06
-2.7091856e-07
-1.2003105e-09
1.0139153e-05
-2.5804777e-07
-1.5278278e-09
1.0366701e-05
-2.1515001e-07
-1.7617501e-09
1.0540427e-05
-1.6322043e-07
-1.9473153e-09
1.0666135e-05
-1.1852122e-07
-2.1155821e-09
1.0753162e-05
-8.4225494e-08
-2.2892955e-09
1.0809213e-05
-5.9744183e-08
-2.5754895e-09
1.084373e-05
-4.6138284e-08
-2.7880133e-09
1.0871854e-05
-4.8944616e-08
-3.1749528e-09
1.0925458e-05
-8.318579e-08
-4.1091768e-09
1.1071487e-05
-1.7766929e-07
-7.0750493e-09
1.1395436e-05
-3.349893e-07
-1.53811e-08
1.1832649e-05
-3.844556e-07
-3.3111788e-08
1.2193801e-05
-2.2042908e-07
-5.2902436e-08
1.2449956e-05
-2.551579e-08
-6.9179857e-08
1.2638981e-05
1.3805284e-07
-8.5623875e-08
1.2790671e-05
2.9179367e-07
-1.0640412e-07
1.2941763e-05
4.3634693e-07
-1.3338462e-07
1.312376e-05
5.8285649e-07
-1.6652031e-07
1.3345114e-05
7.536397e-07
-2.0173021e-07
1.3573075e-05
9.8591264e-07
-2.3297326e-07
1.3748424e-05
1.2974327e-06
-2.5425959e-07
1.3818973e-05
1.6620591e-06
-2.6264349e-07
1.3738165e-05
2.0408762e-06
-2.5656926e-07
1.3436187e-05
2.4104995e-06
-2.3624937e-07
1.2759019e-05
2.8009171e-06
-2.0398001e-07
1.1449276e-05
3.2491512e-06
-1.5863743e-07
9.084165e-06
3.8328001e-06
-1.0330323e-07
4.9556835e-06
-5.2179385e-08
9.1960954e-06
-2.3202761e-07
-6.2554617e-10
9.2858092e-06
-3.4782595e-07
-9.7907095e-10
9.4119575e-06
-3.6815268e-07
-1.050348e-09
9.5804861e-06
-3.6750487e-07
-8.8101449e-10
9.7822795e-06
-3.5167351e-07
-5.1714874e-10
1.0000546e-05
-3.2941727e-07
4.0023582e-11
1.0224517e-05
-3.0988925e-07
7.7533237e-10
1.0447941e-05
-3.0021988e-07
1.5695642e-09
1.0674427e-05
-3.1010204e-07
2.4382232e-09
1.092261e-05
-3.6099757e-07
2.993952e-09
1.1247959e-05
-5.0079954e-07
1.8036758e-09
1.1776483e-05
-8.1617846e-07
-3.469608e-09
1.2659636e-05
-1.3035925e-06
-2.262787e-08
1.3405456e-05
-1.1244162e-06
-5.7224549e-08
1.3948592e-05
-6.8700523e-07
-7.3835934e-08
1.4368901e-05
-3.5588823e-07
-7.243732e-08
1.4696623e-05
-1.2291263e-07
-7.3570249e-08
1.4935795e-05
6.6953187e-08
-7.915594e-08
1.5142989e-05
1.7575898e-07
-8.5999125e-08
1.5380209e-05
2.1054431e-07
-9.9122492e-08
1.567795e-05
2.3325177e-07
-1.0424287e-07
1.5977695e-05
4.0689908e-07
-9.8075676e-08
1.6170563e-05
8.4655906e-07
-9.6787414e-08
1.6214627e-05
1.4507446e-06
-9.9502153e-08
1.6065722e-05
2.1377899e-06
-9.7093787e-08
1.5664526e-05
2.8202944e-06
-8.3734351e-08
1.476653e-05
3.6032881e-06
-6.7364309e-08
1.3138305e-05
4.4252306e-06
-2.7646691e-08
1.0498462e-05
5.418935e-06
2.682114e-08
6.7882538e-06
9.0311414e-08
9.2568588e-06
-2.1317622e-07
-6.2219673e-10
9.2059112e-06
-2.8406971e-07
-9.6426503e-10
9.1517828e-06
-2.9785471e-07
-9.961477e-10
9.099597e-06
-2.9895353e-07
-7.2963828e-10
9.0554803e-06
-2.9428824e-07
-1.7543732e-10
9.0181825e-06
-2.8575e-07
7.5058138e-10
8.9816196e-06
-2.7852921e-07
2.0567623e-09
8.9360759e-06
-2.7988809e-07
3.8312862e-09
8.8724231e-06
-3.0118323e-07
6.3309756e-09
8.7820867e-06
-3.687246e-07
9.6733207e-09
8.6745207e-06
-5.5079105e-07
1.3190256e-08
8.6734609e-06
-1.0356334e-06
1.0958988e-08
9.3224874e-06
-2.1886459e-06
-8.9127609e-09
9.4767417e-06
-1.3918665e-06
-7.7170858e-08
9.3111e-06
-5.5009378e-07
-9.0350066e-08
9.063861e-06
-1.8880014e-07
-5.8358434e-08
8.656453e-06
8.264041e-08
-2.9075813e-08
8.130939e-06
1.9189455e-07
-5.6031828e-09
7.5439582e-06
1.0481705e-07
9.1521578e-09
6.861222e-06
-8.4609145e-08
2.7415968e-08
6.2078289e-06
-3.5630075e-07
5.3253133e-08
5.9704951e-06
-6.423909e-07
6.6588469e-08
6.4598883e-06
-7.3757335e-07
8.3229311e-08
7.6383838e-06
-5.4333718e-07
1.3133479e-07
9.0549515e-06
8.8098537e-08
1.95506e-07
1.0292733e-05
8.7176489e-07
2.8142458e-07
1.0603326e-05
2.1727946e-06
2.7488047e-07
1.0107777e-05
3.0747639e-06
2.8407891e-07
8.6123036e-06
4.2772116e-06
3.0766138e-07
5.8239838e-06
3.1803093e-07
9.0623094e-06
-6.1398131e-10
8.7905153e-06
-9.5344316e-10
8.5079458e-06
-9.8390007e-10
8.2240614e-06
-7.0565842e-10
7.9412023e-06
-1.0635532e-10
7.6592751e-06
9.4383634e-10
7.370783e-06
2.5347681e-09
7.0573856e-06
5.0132735e-09
6.6847266e-06
9.1659063e-09
6.1809843e-06
1.6540267e-08
5.3851728e-06
3.0189291e-08
3.9032072e-06
5.5493212e-08
8.6741074e-07
9.5270163e-08
-1.9525865e-06
8.0086515e-08
-3.7978366e-06
3.1128939e-08
-5.0811364e-06
9.0258025e-08
-5.9084639e-06
1.8195801e-07
-6.2179474e-06
2.7359882e-07
-5.9700532e-06
3.3364461e-07
-5.3570245e-06
3.4415482e-07
-4.6510841e-06
3.1159698e-07
-4.0440843e-06
2.9361834e-07
-3.4867679e-06
3.0255594e-07
-2.7707269e-06
3.0905929e-07
-1.4745939e-06
2.8823015e-07
1.3330236e-07
2.6776457e-07
1.4593905e-06
4.6525123e-07
2.0073636e-06
5.3947822e-07
2.547897e-06
5.2423296e-07
4.4162893e-07
9.5867735e-06
-3.1167558e-07
-6.8524959e-09
9.8683132e-06
-2.7100238e-07
-1.1745673e-08
1.0138905e-05
-2.5817422e-07
-1.3942796e-08
1.0366387e-05
-2.1529966e-07
-1.3933663e-08
1.054012e-05
-1.6338403e-07
-1.228003e-08
1.0665957e-05
-1.1867799e-07
-9.2521126e-09
1.0752888e-05
-8.427482e-08
-4.9231931e-09
1.0809406e-05
-5.9405459e-08
3.4058505e-10
1.084392e-05
-4.5020509e-08
7.7466508e-09
1.0870677e-05
-4.5784078e-08
1.5878834e-08
1.0918008e-05
-7.4982723e-08
2.3560732e-08
1.1045123e-05
-1.5991695e-07
2.571778e-08
1.1337296e-05
-3.1622746e-07
8.6288744e-09
1.176954e-05
-4.2234775e-07
-4.3031811e-08
1.2140484e-05
-2.9775009e-07
-1.2616994e-07
1.2389697e-05
-1.0204303e-07
-2.1654128e-07
1.2551977e-05
5.6987616e-08
-3.0517332e-07
1.2666957e-05
1.7895781e-07
-4.0072231e-07
1.2777768e-05
2.6584838e-07
-5.1056443e-07
1.2931601e-05
3.1757414e-07
-6.3866253e-07
1.3148969e-05
3.7208386e-07
-7.9222822e-07
1.3404045e-05
4.9104562e-07
-9.8054874e-07
1.3631206e-05
7.2395504e-07
-1.2073006e-06
1.3774031e-05
1.0496341e-06
-1.4575249e-06
1.377625e-05
1.4349159e-06
-1.6965909e-06
1.3555906e-05
1.8553662e-06
-1.8745127e-06
1.2966844e-05
2.3054578e-06
-1.9237142e-06
1.1748675e-05
2.8357679e-06
-1.7792273e-06
9.4786045e-06
3.5420901e-06
-1.3773523e-06
4.8228557e-06
-6.499499e-07
9.1960519e-06
-2.32035e-07
-7.3491655e-09
9.2856777e-06
-3.4784729e-07
-1.3759673e-08
9.4117646e-06
-3.6818674e-07
-1.7123466e-08
9.5803359e-06
-3.6752942e-07
-1.7220762e-08
9.7823598e-06
-3.5164778e-07
-1.4274646e-08
1.000119e-05
-3.2925509e-07
-8.2087225e-09
1.0225603e-05
-3.093561e-07
1.4499039e-09
1.0450117e-05
-2.9869491e-07
1.6352919e-08
1.0677439e-05
-3.062498e-07
3.635699e-08
1.0923947e-05
-3.5144959e-07
6.2168219e-08
1.1237391e-05
-4.7769267e-07
9.1087464e-08
1.1728281e-05
-7.6713537e-07
1.128658e-07
1.2546474e-05
-1.2584602e-06
1.0135212e-07
1.3317497e-05
-1.2771394e-06
2.6569757e-08
1.386003e-05
-8.4671553e-07
-6.732298e-08
1.4248317e-05
-4.751919e-07
-8.7489592e-08
1.4538055e-05
-2.4634031e-07
-6.0156002e-08
1.4758079e-05
-1.1865709e-07
-2.0900747e-09
1.4901699e-05
-6.0627318e-08
9.556085e-08
1.5061028e-05
-1.6747163e-07
2.2330938e-07
1.5283247e-05
-3.2082954e-07
3.5883233e-07
1.5587818e-05
-3.6924891e-07
4.4242988e-07
1.5904351e-05
-1.4914071e-07
4.3506991e-07
1.6114561e-05
3.6185365e-07
3.471443e-07
1.6122282e-05
1.083256e-06
2.1206092e-07
1.5816025e-05
1.9240312e-06
1.1821362e-07
1.5040324e-05
2.7861522e-06
1.9385335e-07
1.3528746e-05
3.7493665e-06
5.4078658e-07
1.1014265e-05
4.9323978e-06
1.128004e-06
6.4963438e-06
1.8692266e-06
9.2568159e-06
-2.1317882e-07
-7.3336376e-09
9.2058257e-06
-2.8407363e-07
-1.3748114e-08
9.1517186e-06
-2.9785498e-07
-1.7221173e-08
9.0997351e-06
-2.9893086e-07
-1.7344981e-08
9.0561743e-06
-2.9420092e-07
-1.4061781e-08
9.0201686e-06
-2.8550385e-07
-6.994996e-09
8.9854169e-06
-2.7791471e-07
5.3672777e-09
8.9437665e-06
-2.7819298e-07
2.4980507e-08
8.8867987e-06
-2.9678455e-07
5.383508e-08
8.8067112e-06
-3.5725109e-07
9.5565692e-08
8.7086271e-06
-5.1947269e-07
1.5306019e-07
8.6762307e-06
-9.4553316e-07
2.217585e-07
9.108615e-06
-1.9682394e-06
2.6850931e-07
9.4051498e-06
-1.8482748e-06
1.983833e-07
9.1289874e-06
-7.4104222e-07
8.1289392e-08
8.83786e-06
-3.3459304e-07
9.3381209e-08
8.3774403e-06
-2.5216156e-08
2.1142676e-07
7.7268415e-06
9.4688847e-08
4.3302668e-07
6.9585418e-06
-7.9666678e-09
7.2608236e-07
5.9810258e-06
-2.1613517e-07
1.0554296e-06
4.9050003e-06
-5.2191986e-07
1.333709e-06
4.0713651e-06
-8.901147e-07
1.427173e-06
3.9904635e-06
-1.2155596e-06
1.2422515e-06
4.9755989e-06
-1.3203835e-06
8.3934645e-07
6.8351026e-06
-1.0327481e-06
4.5953591e-07
8.7074748e-06
-6.9493454e-08
4.0102188e-07
9.6691852e-06
1.2179101e-06
8.7164606e-07
9.658716e-06
2.3489363e-06
1.6809381e-06
8.6048865e-06
3.7473655e-06
2.5322423e-06
5.410966e-06
3.2728027e-06
9.0622663e-06
-7.1067946e-09
8.7904408e-06
-1.3201845e-08
8.5079305e-06
-1.6328859e-08
8.2243468e-06
-1.6053042e-08
7.9422918e-06
-1.2252571e-08
7.662263e-06
-4.5314797e-09
7.3770692e-06
9.8136581e-09
7.0711131e-06
3.2776166e-08
6.7143544e-06
6.9139965e-08
6.245265e-06
1.2837875e-07
5.5272195e-06
2.2876228e-07
4.2259776e-06
4.111992e-07
1.5734873e-06
7.7966227e-07
-1.5250084e-06
1.3367246e-06
-3.6403666e-06
1.408643e-06
-5.1027698e-06
1.2214416e-06
-6.0279844e-06
1.0857461e-06
-6.4054247e-06
7.4984853e-07
-6.0721793e-06
-2.8491501e-09
-5.3288688e-06
-6.1088396e-07
-4.4992513e-06
-1.0360926e-06
-3.8056326e-06
-1.2867932e-06
-3.3035513e-06
-1.4119179e-06
-2.8631343e-06
-1.4480933e-06
-2.1862483e-06
-1.4165882e-06
-9.362634e-07
-1.0440844e-06
3.7967002e-07
3.6722806e-07
1.1799123e-06
2.0919784e-06
2.046061e-06
3.4063894e-06
4.2577153e-06
9.5897447e-06
-3.1121479e-07
-1.6420748e-08
9.8752028e-06
-2.7027823e-07
-2.6933755e-08
1.0149275e-05
-2.5738184e-07
-3.0630681e-08
1.0379649e-05
-2.1462744e-07
-2.9669901e-08
1.0556107e-05
-1.6301865e-07
-2.5703871e-08
1.0684917e-05
-1.1869829e-07
-1.934572e-08
1.0775418e-05
-8.4646049e-08
-1.0762055e-08
1.0834696e-05
-6.0052376e-08
1.112342e-09
1.0872823e-05
-4.4105852e-08
1.3717272e-08
1.0899417e-05
-3.9969999e-08
2.9235323e-08
1.0933496e-05
-5.6103652e-08
4.5542667e-08
1.1012762e-05
-1.1198054e-07
5.8342716e-08
1.1199017e-05
-2.3513522e-07
5.7319791e-08
1.1554171e-05
-4.2883544e-07
3.017833e-08
1.1924443e-05
-4.457327e-07
-5.1474275e-08
1.2192202e-05
-3.0468086e-07
-1.8068845e-07
1.234131e-05
-1.5973015e-07
-2.9598898e-07
1.2423322e-05
-1.0772222e-07
-3.7691673e-07
1.2484327e-05
-1.5273431e-07
-4.2136753e-07
1.2558024e-05
-2.752743e-07
-4.4046037e-07
1.2659657e-05
-4.4694012e-07
-4.5129826e-07
1.2774382e-05
-6.2953977e-07
-4.711545e-07
1.2868107e-05
-7.9600002e-07
-5.1136342e-07
1.2921019e-05
-9.4658506e-07
-5.7085145e-07
1.2943928e-05
-1.0863682e-06
-6.4064195e-07
1.2940167e-05
-1.1659147e-06
-7.1284262e-07