/*--------------------------------*- C++ -*----------------------------------*\
| =========                 |                                                 |
| \\      /  F ield         | OpenFOAM: The Open Source CFD Toolbox           |
|  \\    /   O peration     | Version:  v2012                                 |
|   \\  /    A nd           | Website:  www.openfoam.com                      |
|    \\/     M anipulation  |                                                 |
\*---------------------------------------------------------------------------*/
FoamFile
{
    version     2.0;
    format      ascii;
    class       volScalarField;
    location    "710/topAir";
    object      rho;
}
// * * * * * * * * * * * * * * * * * * * * * * * * * * * * * * * * * * * * * //

dimensions      [1 -3 0 0 0 0 0];


internalField   nonuniform List<scalar> 
1200
(
1.0679307
0.99586541
0.93854816
0.89115908
0.85063051
0.81517304
0.7838102
0.75621249
0.73230293
0.71164007
0.69399519
0.67934553
0.66809084
0.66895434
0.67316011
0.68063867
0.6904905
0.70136208
0.71196921
0.72141482
0.72921532
0.73519242
0.73933511
0.74170392
0.74238151
0.74141836
0.73876807
0.73418063
0.72695893
0.71606773
1.1565068
1.1525408
1.1471591
1.1406342
1.1331672
1.1249201
1.116037
1.1057019
1.0918708
1.0739201
1.0495225
1.0181202
0.98050434
0.94305442
0.90918548
0.88111028
0.85931317
0.84352341
0.8332325
0.82767648
0.82561274
0.82559029
0.82628002
0.82663066
0.82584939
0.82324585
0.81804118
0.80910147
0.79441071
0.7730129
1.1585731
1.1584401
1.1581934
1.157809
1.1572667
1.1565496
1.1556442
1.1545175
1.1530866
1.1512571
1.1487484
1.1407779
1.1203344
1.0865233
1.0445124
1.000225
0.95916405
0.92396372
0.89570454
0.87446012
0.85949593
0.84953699
0.84313762
0.83895746
0.83588047
0.83298445
0.8294421
0.82430486
0.8159674
0.80237571
1.1586179
1.1586136
1.1586029
1.1585821
1.1585461
1.1584887
1.1584027
1.1582789
1.1581039
1.1578573
1.1574897
1.1566852
1.1541357
1.1403787
1.1053067
1.0602817
1.0167089
0.97725344
0.94324327
0.91540585
0.89374048
0.87754308
0.86572217
0.85713375
0.85076298
0.84577416
0.84144628
0.83704203
0.83147393
0.82309464
1.0679571
0.99661866
0.94048514
0.89461138
0.85592733
0.82268551
0.79391504
0.76907838
0.74799548
0.73075014
0.71767655
0.70929882
0.70652184
0.72038088
0.73897378
0.75951357
0.77830313
0.79288564
0.8028226
0.80906993
0.81281323
0.81486021
0.8155422
0.814897
0.81288755
0.80940686
0.80423432
0.79679882
0.78548609
0.76817297
1.1565098
1.152618
1.1474393
1.1412834
1.1343884
1.1269542
1.1191812
1.1112855
1.1035233
1.0962201
1.089808
1.0848321
1.0819389
1.08189
1.0834367
1.0839293
1.0809967
1.0744896
1.065796
1.0563272
1.0465598
1.0364514
1.025755
1.0141906
1.001553
0.98774571
0.97286613
0.95718656
0.94040503
0.91695324
1.1585732
1.1584438
1.1582099
1.1578551
1.1573681
1.1567425
1.1559776
1.15508
1.1540657
1.1529672
1.1518414
1.1506903
1.1495464
1.1480149
1.1432222
1.131964
1.1120678
1.0866805
1.0608937
1.0389256
1.0194358
1.0009729
0.9832006
0.96607475
0.950095
0.93404241
0.91746538
0.90067557
0.88364997
0.86624157
1.1586179
1.1586137
1.1586038
1.158585
1.1585536
1.1585054
1.1584357
1.15834
1.1582133
1.1580505
1.1578435
1.157552
1.1568778
1.1532264
1.1384691
1.1103278
1.0739557
1.0315282
0.99069167
0.95598823
0.92969381
0.91023748
0.89505972
0.88269527
0.87226125
0.86418389
0.85767873
0.85203325
0.84647159
0.8401827
1.0679788
0.99652609
0.94025567
0.89423178
0.85537015
0.82189982
0.79275706
0.76727287
0.74508337
0.72609943
0.71054235
0.69904505
0.69300924
0.70475033
0.72098677
0.73884359
0.75636842
0.77291253
0.78820931
0.80206378
0.81429223
0.82447398
0.83196037
0.83619812
0.83702278
0.83471322
0.82972409
0.82221608
0.81048735
0.7914476
1.15651
1.152606
1.1474044
1.1412187
1.1342843
1.1267917
1.1189157
1.1108374
1.1027798
1.0950423
1.0880861
1.0826375
1.0796944
1.0798533
1.0805725
1.0796084
1.0768378
1.0726904
1.0671394
1.0601547
1.0515338
1.0407558
1.0273396
1.0112715
0.99301968
0.97310269
0.95190338
0.93006571
0.90763437
0.88244824
1.1585732
1.1584432
1.1582081
1.1578515
1.1573626
1.1567351
1.1559677
1.1550655
1.154044
1.152937
1.1518146
1.1508055
1.149956
1.1471226
1.1365989
1.1205263
1.1053538
1.0924572
1.0792836
1.0652204
1.0490259
1.0290352
1.0050178
0.9785024
0.95182022
0.92721377
0.90578268
0.88732241
0.86807856
0.84612177
1.1586179
1.1586137
1.1586037
1.1585849
1.1585534
1.1585053
1.1584361
1.1583414
1.1582168
1.1580581
1.15786
1.1575747
1.1564121
1.1450926
1.1058257
1.0615699
1.0387805
1.0337076
1.007234
0.97623012
0.94982763
0.92907726
0.91245691
0.89869951
0.88695598
0.87710192
0.86883207
0.86124663
0.84568417
0.82258428
1.067994
0.99650755
0.94015165
0.89398937
0.85490779
0.8210851
0.79139397
0.76508993
0.74168416
0.72093269
0.70291871
0.68826027
0.67831531
0.68419613
0.68878126
0.6900078
0.68882307
0.68708414
0.68618289
0.68717008
0.69057871
0.69618333
0.70329489
0.71122572
0.71922529
0.72589559
0.72891815
0.7254941
0.71569295
0.70101353
1.1565102
1.1526019
1.1473851
1.1411678
1.1341763
1.1265848
1.1185417
1.1101914
1.101707
1.093353
1.0856188
1.0794069
1.075824
1.0735907
1.0694901
1.063979
1.0578989
1.0517184
1.0454608
1.0387438
1.0307821
1.0207022
1.0081386
0.99336393
0.97672138
0.95824658
0.9385878
0.91772319
0.88222413
0.82086754
1.1585732
1.158443
1.158207
1.1578481
1.1573544
1.1567181
1.155935
1.1550064
1.153943
1.1527767
1.151589
1.1505436
1.1492722
1.1401515
1.1225
1.109549
1.100906
1.0934174
1.0839214
1.0703497
1.0513284
1.0260706
0.99601691
0.96429757
0.93291711
0.90358208
0.88023493
0.86127758
0.84200978
0.8135496
1.1586179
1.1586137
1.1586037
1.1585846
1.1585528
1.1585039
1.1584332
1.1583357
1.1582061
1.1580384
1.1578199
1.1573885
1.1539133
1.1141916
1.0334826
0.99622288
0.99357517
0.99418245
0.98923122
0.97147232
0.95183894
0.93380948
0.91726783
0.90320396
0.88886934
0.87224554
0.85635555
0.8396855
0.81912645
0.79654412
1.0680147
0.99652917
0.94016053
0.89397811
0.85486788
0.82100742
0.79127196
0.76492106
0.74149397
0.72082263
0.70317765
0.68948712
0.68090661
0.68762395
0.69030418
0.68874845
0.68596439
0.68170105
0.67668001
0.67146367
0.66656559
0.66244503
0.65945605
0.65779628
0.65743892
0.65799826
0.65859576
0.65782205
0.65393355
0.64495989
1.1565107
1.1526013
1.1473794
1.1411517
1.134143
1.1265258
1.1184474
1.1100546
1.101533
1.0931995
1.0856849
1.080132
1.0772519
1.0727412
1.066597
1.0596087
1.0472127
1.0299759
1.0095398
0.98676246
0.96195234
0.9347977
0.90522947
0.87424957
0.84353323
0.81448007
0.78749253
0.7619201
0.73605593
0.70636507
1.1585732
1.158443
1.1582065
1.1578466
1.1573509
1.1567109
1.155922
1.1549851
1.1539118
1.1527407
1.1515789
1.1505984
1.1481491
1.1294602
1.1158466
1.1077792
1.1023914
1.0958645
1.0873293
1.0752597
1.0558274
1.0270635
0.99237005
0.95825624
0.92730551
0.89620335
0.86476691
0.8319553
0.7964812
0.75612367
1.1586179
1.1586137
1.1586036
1.1585845
1.1585525
1.1585032
1.1584317
1.1583327
1.1582002
1.1580269
1.157787
1.1570633
1.1481453
1.0376374
0.98078244
0.96975717
0.96417135
0.957835
0.94970276
0.94000023
0.92919959
0.91744683
0.90600229
0.89594315
0.88754871
0.88107174
0.86662154
0.84345788
0.81241115
0.7757429
1.0680268
0.9965498
0.94018709
0.89400881
0.85490367
0.82104995
0.79131875
0.76496489
0.7415181
0.72078133
0.70296022
0.688903
0.67998235
0.68752785
0.69164463
0.69131694
0.6883411
0.68394096
0.6788412
0.67360111
0.66871616
0.66461849
0.66163902
0.65996367
0.65956253
0.66006016
0.66056208
0.65961683
0.65543296
0.64616426
1.156511
1.1526022
1.1473811
1.1411543
1.1341468
1.1265309
1.118453
1.110057
1.1015213
1.0931411
1.0854973
1.0796693
1.0766313
1.0729447
1.0673017
1.0606546
1.0514728
1.0379656
1.0220496
1.0056247
0.98862841
0.96873647
0.94333936
0.91335039
0.88086817
0.84788323
0.81571665
0.78438302
0.75245452
0.71677567
1.1585732
1.158443
1.1582065
1.1578467
1.1573511
1.1567113
1.1559226
1.1549857
1.1539112
1.1527346
1.1515533
1.1505477
1.148691
1.1318931
1.115802
1.1056439
1.1002681
1.0947724
1.0880633
1.0760357
1.0560729
1.0272543
0.99443611
0.96305587
0.93627187
0.91167409
0.8833469
0.85064525
0.81266704
0.76820187
1.1586179
1.1586137
1.1586036
1.1585845
1.1585525
1.1585032
1.1584318
1.1583329
1.1582008
1.1580285
1.1577965
1.1572189
1.1509988
1.0679846
0.98414501
0.96919732
0.96236389
0.95670521
0.94958249
0.94353455
0.93388198
0.92227961
0.91069547
0.90009994
0.89075747
0.8824628
0.875135
0.85196985
0.82027445
0.78225868
1.0680227
0.99655574
0.94021392
0.8940631
0.85499324
0.82118382
0.79150607
0.7652103
0.74179263
0.7209919
0.70285029
0.68791091
0.67754332
0.6836342
0.68933247
0.69194856
0.6918668
0.69086383
0.69057309
0.69205067
0.6957304
0.70137126
0.7083352
0.71600527
0.72377936
0.73044819
0.73369352
0.73027099
0.71877257
0.70342632
1.1565109
1.1526039
1.1473889
1.1411737
1.1341849
1.1265963
1.118556
1.110206
1.1017123
1.0933224
1.0854873
1.0790485
1.0751739
1.073446
1.0701236
1.0650376
1.059202
1.0532886
1.047357
1.0410714
1.0336779
1.0242758
1.0123127
0.99793009
0.98152946
0.96306379
0.9429468
0.92144466
0.88971942
0.82923871
1.1585732
1.1584431
1.1582071
1.1578483
1.1573549
1.1567189
1.1559363
1.1550081
1.1539443
1.1527738
1.151571
1.1504918
1.1493876
1.1427434
1.1248378
1.1096628
1.0994791
1.0918501
1.0828536
1.070013
1.0519233
1.0278935
0.99964182
0.97030459
0.94167154
0.91367975
0.88995715
0.87061763
0.85023759
0.82147889
1.1586179
1.1586137
1.1586037
1.1585847
1.1585529
1.158504
1.1584334
1.1583361
1.1582069
1.1580401
1.1578252
1.1574503
1.1549953
1.1271122
1.0502677
0.99617465
0.99119665
0.99261858
0.99456587
0.97884188
0.95884361
0.93887488
0.92223902
0.90799444
0.89433384
0.87753344
0.86176968
0.84529281
0.82312567
0.79854278
1.0680146
0.99658546
0.94033287
0.89432554
0.8554806
0.8220262
0.79289842
0.76742504
0.74524078
0.72624461
0.71062956
0.69897018
0.69260109
0.70405066
0.7205251
0.73910575
0.75742669
0.7745816
0.7902259
0.80414147
0.81618247
0.82609628
0.83347396
0.83794015
0.83935572
0.83786574
0.83372647
0.8269346
0.81593419
0.79688936
1.1565109
1.1526084
1.1474089
1.1412258
1.1342946
1.1268059
1.1189343
1.1108596
1.1028008
1.0950458
1.0880311
1.0824391
1.0792468
1.0793616
1.0806275
1.0802482
1.0777926
1.0738219
1.0684174
1.0615831
1.0532271
1.0429819
1.0304295
1.0154499
0.99827265
0.97918014
0.95839117
0.93659886
0.914225
0.88884845
1.1585732
1.1584433
1.1582083
1.1578518
1.1573632
1.1567361
1.1559694
1.155068
1.154047
1.1529385
1.1518078
1.1507754
1.1499365
1.1478893
1.1390053
1.1229338
1.1067488
1.0934182
1.0803169
1.0663896
1.0507517
1.0320146
1.0098341
0.98531873
0.96007751
0.93561716
0.91297777
0.89302828
0.87338175
0.85127103
1.1586179
1.1586137
1.1586037
1.1585849
1.1585534
1.1585054
1.1584363
1.1583419
1.1582177
1.1580599
1.1578638
1.157596
1.1567288
1.1489543
1.1158954
1.0680742
1.0403495
1.0356829
1.0131992
0.98335702
0.95607985
0.93423989
0.91678886
0.90246522
0.89031101
0.87995128
0.87117292
0.86339097
0.84879474
0.82447346
1.0679945
0.99668046
0.94056383
0.89470414
0.85603342
0.82280242
0.79403732
0.76920378
0.74812267
0.73087577
0.71778228
0.70932745
0.70634916
0.71987154
0.73816227
0.75866491
0.77775111
0.79284623
0.80329413
0.80986438
0.81373648
0.81576849
0.81639417
0.81575987
0.81391213
0.81079755
0.80617081
0.79933856
0.78857401
0.77161197
1.1565107
1.1526205
1.1474437
1.1412901
1.1343976
1.1269666
1.1191974
1.1113068
1.1035473
1.0962388
1.089799
1.0847492
1.0817071
1.0814815
1.0830301
1.0838258
1.0813869
1.0753518
1.0669816
1.0576995
1.048162
1.0383645
1.0281025
1.0171064
1.0051164
0.99193349
0.97753566
0.96213831
0.94556071
0.92312203
1.1585732
1.1584439
1.1582101
1.1578554
1.1573687
1.1567435
1.1559794
1.155083
1.1540701
1.1529722
1.1518434
1.1506709
1.1494928
1.1480443
1.1437484
1.1333341
1.1142767
1.0894212
1.0637325
1.0412494
1.0222364
1.0041771
0.9867214
0.96971967
0.95371353
0.9379308
0.92164086
0.90492635
0.88777293
0.87010496
1.1586179
1.1586137
1.1586038
1.158585
1.1585537
1.1585055
1.158436
1.1583406
1.1582145
1.1580525
1.1578468
1.157557
1.1569124
1.1536625
1.1403809
1.1127179
1.0768093
1.0351707
0.99514713
0.96058211
0.93328122
0.91328922
0.89779924
0.88526871
0.87474391
0.86631191
0.8595072
0.8536414
0.84795411
0.84173657
1.0679652
0.9959222
0.93862105
0.89124739
0.850735
0.81529118
0.78393991
0.75634576
0.73243407
0.71176075
0.69409764
0.67942048
0.66811889
0.66891583
0.67304375
0.68047805
0.69035686
0.7013321
0.71209368
0.72169866
0.72963479
0.73571352
0.73993757
0.74239903
0.74321687
0.74247013
0.74011873
0.73588499
0.72903369
0.71850638
1.1565076
1.1525431
1.1471632
1.1406404
1.1331761
1.1249331
1.1160563
1.1057541
1.0919214
1.073825
1.0490233
1.0171777
0.97915393
0.94154781
0.90786857
0.88026871
0.85907144
0.84383404
0.83393049
0.8285795
0.82662717
0.82669283
0.82749575
0.82801943
0.82749655
0.82525121
0.82049364
0.8120363
0.79778482
0.77627312
1.1585731
1.1584401
1.1581935
1.1578093
1.1572673
1.1565507
1.1556462
1.1545209
1.1530897
1.1512525
1.1487069
1.1401931
1.1187701
1.0843917
1.0423145
0.99832667
0.95793551
0.92353162
0.89597173
0.87520934
0.86051995
0.8506949
0.84435969
0.84023084
0.83723188
0.83446751
0.83112085
0.82624172
0.81823302
0.80491587
1.1586179
1.1586136
1.158603
1.1585822
1.1585461
1.1584888
1.158403
1.1582796
1.1581051
1.1578593
1.157492
1.1566721
1.1540659
1.1394531
1.1041655
1.0595133
1.0165875
0.97791089
0.94459146
0.91718998
0.89568291
0.87945773
0.86752262
0.85879965
0.85231134
0.84723868
0.84287139
0.8384806
0.83300344
0.82480877
)
;

boundaryField
{
    maxY
    {
        type            calculated;
        value           nonuniform List<scalar> 
300
(
1.1586174
1.1586174
1.1586174
1.1586174
1.1586174
1.1586174
1.1586174
1.1586174
1.1586174
1.1586174
1.158613
1.1586132
1.1586132
1.1586132
1.1586132
1.1586132
1.1586132
1.1586132
1.1586132
1.158613
1.1586024
1.1586033
1.1586032
1.1586031
1.1586031
1.1586031
1.1586031
1.1586032
1.1586033
1.1586024
1.1585816
1.1585845
1.1585843
1.1585841
1.158584
1.158584
1.1585841
1.1585844
1.1585845
1.1585816
1.1585456
1.1585531
1.1585529
1.1585523
1.158552
1.158552
1.1585523
1.1585529
1.1585531
1.1585456
1.1584882
1.1585048
1.1585047
1.1585034
1.1585027
1.1585027
1.1585035
1.1585048
1.1585049
1.1584883
1.1584022
1.1584352
1.1584355
1.1584327
1.1584312
1.1584313
1.1584329
1.1584358
1.1584355
1.1584025
1.1582784
1.1583395
1.1583409
1.1583352
1.1583321
1.1583324
1.1583356
1.1583413
1.1583401
1.158279
1.1581033
1.1582128
1.1582162
1.1582056
1.1581997
1.1582003
1.1582063
1.1582172
1.1582139
1.1581046
1.1578568
1.15805
1.1580576
1.1580379
1.1580264
1.158028
1.1580395
1.1580594
1.158052
1.1578588
1.1574892
1.157843
1.1578595
1.1578193
1.1577864
1.1577959
1.1578247
1.1578632
1.1578463
1.1574914
1.1566847
1.1575515
1.1575742
1.157388
1.1570627
1.1572184
1.1574498
1.1575955
1.1575565
1.1566715
1.1541352
1.1568773
1.1564115
1.1539127
1.1481447
1.1509983
1.1549948
1.1567283
1.1569119
1.1540654
1.1403782
1.1532259
1.1450921
1.1141911
1.037637
1.0679842
1.1271117
1.1489537
1.153662
1.1394526
1.1053062
1.1384686
1.1058252
1.0334822
0.98078206
0.98414463
1.0502673
1.1158949
1.1403804
1.104165
1.0602812
1.1103274
1.0615695
0.99622249
0.9697568
0.96919695
0.99617426
1.0680738
1.1127174
1.0595128
1.0167085
1.0739552
1.0387801
0.99357478
0.96417099
0.96236352
0.99119626
1.0403491
1.0768089
1.0165871
0.97725306
1.0315278
1.0337071
0.99418206
0.95783464
0.95670485
0.99261819
1.0356825
1.0351703
0.97791051
0.94324292
0.99069128
1.0072336
0.98923084
0.94970241
0.94958214
0.99456548
1.0131988
0.99514674
0.94459111
0.91540552
0.95598787
0.97622974
0.97147195
0.93999988
0.9435342
0.97884151
0.98335664
0.96058175
0.91718965
0.89374016
0.92969347
0.94982728
0.95183858
0.92919925
0.93388163
0.95884325
0.95607949
0.93328088
0.8956826
0.87754278
0.91023716
0.92907693
0.93380913
0.9174465
0.92227928
0.93887453
0.93423955
0.91328889
0.87945743
0.86572188
0.89505941
0.91245658
0.9172675
0.90600196
0.91069514
0.92223869
0.91678853
0.89779892
0.86752233
0.85713346
0.88269497
0.89869919
0.90320364
0.89594283
0.90009962
0.90799411
0.9024649
0.8852684
0.85879936
0.85076269
0.87226095
0.88695567
0.88886903
0.8875484
0.89075715
0.89433353
0.8903107
0.87474361
0.85231105
0.84577388
0.8641836
0.87710162
0.87224524
0.88107144
0.8824625
0.87753314
0.87995098
0.86631161
0.8472384
0.841446
0.85767844
0.86883178
0.85635526
0.86662124
0.8751347
0.86176939
0.87117262
0.85950691
0.84287111
0.83704176
0.85203296
0.86124634
0.83968523
0.8434576
0.85196956
0.84529253
0.86339068
0.85364111
0.83848033
0.83147366
0.84647131
0.84568389
0.81912619
0.81241089
0.82027419
0.82312541
0.84879446
0.84795383
0.83300317
0.82309437
0.84018242
0.82258401
0.79654387
0.77574266
0.78225844
0.79854253
0.8244732
0.84173629
0.82480851
)
;
    }
    minX
    {
        type            calculated;
        value           nonuniform List<scalar> 
40
(
1.1586222
1.1586212
1.1586201
1.1586191
1.1586222
1.1586212
1.1586201
1.1586191
1.1586222
1.1586212
1.1586201
1.1586191
1.1586222
1.1586212
1.1586201
1.1586191
1.1586222
1.1586212
1.1586201
1.1586191
1.1586222
1.1586212
1.1586201
1.1586191
1.1586222
1.1586212
1.1586201
1.1586191
1.1586222
1.1586212
1.1586201
1.1586191
1.1586222
1.1586212
1.1586201
1.1586191
1.1586222
1.1586212
1.1586201
1.1586191
)
;
    }
    maxX
    {
        type            calculated;
        value           nonuniform List<scalar> 
40
(
0.7161836
0.773184
0.80257273
0.82324488
0.7682762
0.9169056
0.86625236
0.84027387
0.79152889
0.88239679
0.84619519
0.82310593
0.70139768
0.82102902
0.81381725
0.79724813
0.64524694
0.70688018
0.7567113
0.77631069
0.64614302
0.71640754
0.76791119
0.78214401
0.70342291
0.82910599
0.82148938
0.79902576
0.79683799
0.8888419
0.85139587
0.82494615
0.77161723
0.92304181
0.87005657
0.84176171
0.71853578
0.77630902
0.8049727
0.82484278
)
;
    }
    minZ
    {
        type            calculated;
        value           nonuniform List<scalar> 
120
(
1.0679307
1.1565068
1.1585731
1.1586179
0.99586541
1.1525408
1.1584401
1.1586136
0.93854816
1.1471591
1.1581934
1.1586029
0.89115908
1.1406342
1.157809
1.1585821
0.85063051
1.1331672
1.1572667
1.1585461
0.81517304
1.1249201
1.1565496
1.1584887
0.7838102
1.116037
1.1556442
1.1584027
0.75621249
1.1057019
1.1545175
1.1582789
0.73230293
1.0918708
1.1530866
1.1581039
0.71164007
1.0739201
1.1512571
1.1578573
0.69399519
1.0495225
1.1487484
1.1574897
0.67934553
1.0181202
1.1407779
1.1566852
0.66809084
0.98050434
1.1203344
1.1541357
0.66895434
0.94305442
1.0865233
1.1403787
0.67316011
0.90918548
1.0445124
1.1053067
0.68063867
0.88111028
1.000225
1.0602817
0.6904905
0.85931317
0.95916405
1.0167089
0.70136208
0.84352341
0.92396372
0.97725344
0.71196921
0.8332325
0.89570454
0.94324327
0.72141482
0.82767648
0.87446012
0.91540585
0.72921532
0.82561274
0.85949593
0.89374048
0.73519242
0.82559029
0.84953699
0.87754308
0.73933511
0.82628002
0.84313762
0.86572217
0.74170392
0.82663066
0.83895746
0.85713375
0.74238151
0.82584939
0.83588047
0.85076298
0.74141836
0.82324585
0.83298445
0.84577416
0.73876807
0.81804118
0.8294421
0.84144628
0.73418063
0.80910147
0.82430486
0.83704203
0.72695893
0.79441071
0.8159674
0.83147393
0.71606773
0.7730129
0.80237571
0.82309464
)
;
    }
    maxZ
    {
        type            calculated;
        value           nonuniform List<scalar> 
120
(
1.0679652
1.1565076
1.1585731
1.1586179
0.9959222
1.1525431
1.1584401
1.1586136
0.93862105
1.1471632
1.1581935
1.158603
0.89124739
1.1406404
1.1578093
1.1585822
0.850735
1.1331761
1.1572673
1.1585461
0.81529118
1.1249331
1.1565507
1.1584888
0.78393991
1.1160563
1.1556462
1.158403
0.75634576
1.1057541
1.1545209
1.1582796
0.73243407
1.0919214
1.1530897
1.1581051
0.71176075
1.073825
1.1512525
1.1578593
0.69409764
1.0490233
1.1487069
1.157492
0.67942048
1.0171777
1.1401931
1.1566721
0.66811889
0.97915393
1.1187701
1.1540659
0.66891583
0.94154781
1.0843917
1.1394531
0.67304375
0.90786857
1.0423145
1.1041655
0.68047805
0.88026871
0.99832667
1.0595133
0.69035686
0.85907144
0.95793551
1.0165875
0.7013321
0.84383404
0.92353162
0.97791089
0.71209368
0.83393049
0.89597173
0.94459146
0.72169866
0.8285795
0.87520934
0.91718998
0.72963479
0.82662717
0.86051995
0.89568291
0.73571352
0.82669283
0.8506949
0.87945773
0.73993757
0.82749575
0.84435969
0.86752262
0.74239903
0.82801943
0.84023084
0.85879965
0.74321687
0.82749655
0.83723188
0.85231134
0.74247013
0.82525121
0.83446751
0.84723868
0.74011873
0.82049364
0.83112085
0.84287139
0.73588499
0.8120363
0.82624172
0.8384806
0.72903369
0.79778482
0.81823302
0.83300344
0.71850638
0.77627312
0.80491587
0.82480877
)
;
    }
    topAir_to_rightSolid
    {
        type            calculated;
        value           nonuniform List<scalar> 
130
(
0.46334405
0.45846869
0.45345895
0.44858295
0.44402748
0.43990445
0.43627674
0.43316868
0.43059408
0.42854095
0.42700251
0.4259823
0.42547266
0.46694645
0.4611695
0.45539972
0.44993555
0.44494793
0.44051981
0.43668404
0.43343902
0.43076996
0.4286521
0.42707508
0.42603319
0.42551466
0.47433044
0.46643863
0.459014
0.45235368
0.44654073
0.44156209
0.43736024
0.43387326
0.43104085
0.42881405
0.42717378
0.42609691
0.42556398
0.48580496
0.473763
0.46359918
0.45521099
0.44831804
0.44266845
0.43804765
0.43429479
0.43128964
0.4289532
0.4272468
0.42613129
0.42557592
0.50013559
0.48095931
0.46746135
0.45739208
0.4496003
0.44344022
0.43851717
0.43457755
0.43145337
0.42904154
0.42728874
0.42614427
0.42557574
0.50012006
0.48096059
0.46747317
0.45741148
0.44962821
0.44347347
0.43855148
0.43460863
0.43147474
0.42905505
0.42729555
0.42614628
0.42557585
0.48571962
0.47372026
0.46358856
0.4552213
0.44835767
0.44272559
0.43811136
0.43435519
0.43133728
0.42898666
0.42726477
0.42613517
0.42557317
0.47412916
0.46629832
0.45893168
0.45232292
0.44655429
0.44160552
0.43741979
0.43393558
0.4310942
0.42885435
0.42719734
0.42610185
0.42555537
0.46666358
0.4609589
0.45525853
0.44986298
0.44493336
0.44054826
0.43673467
0.43349385
0.43081165
0.42867726
0.4270852
0.42602735
0.42549854
0.46300932
0.45822296
0.45329424
0.44849244
0.44399882
0.4399208
0.43631793
0.43321736
0.43062502
0.42855136
0.42699956
0.42596584
0.42544883
)
;
    }
    topAir_to_heater
    {
        type            calculated;
        value           nonuniform List<scalar> 
40
(
0.47529252
0.4739635
0.47137629
0.46774297
0.48142744
0.47982775
0.47670175
0.47228654
0.49486084
0.4926775
0.4883158
0.48200148
0.51839207
0.51538201
0.50897161
0.49892067
0.55719552
0.5539785
0.54576167
0.52990701
0.5571701
0.55393908
0.54571957
0.52987448
0.51826527
0.51521294
0.50880281
0.49878354
0.4946004
0.49239208
0.48802683
0.48174458
0.4810803
0.47947086
0.47634403
0.47194147
0.47488616
0.47356342
0.47098683
0.46736819
)
;
    }
    topAir_to_leftSolid
    {
        type            calculated;
        value           nonuniform List<scalar> 
130
(
0.37510024
0.37511165
0.37514067
0.37518876
0.37525623
0.37534313
0.37545014
0.37557845
0.37573078
0.37591386
0.37608249
0.37620177
0.3762635
0.37511584
0.37512836
0.37515898
0.375208
0.37527587
0.3753629
0.37546905
0.37559404
0.3757368
0.37589651
0.37605243
0.37618288
0.37626478
0.37514892
0.37516173
0.37519324
0.37524395
0.37531343
0.37540125
0.37550663
0.37562806
0.37577502
0.37593428
0.376089
0.37622147
0.37630658
0.3751925
0.37520652
0.3752417
0.3752979
0.37537096
0.37546044
0.3755664
0.37569066
0.37584012
0.37600756
0.37617176
0.37630716
0.37639098
0.37524668
0.37526244
0.37530237
0.37536509
0.37543769
0.37552502
0.37563095
0.37575635
0.3759071
0.37608323
0.37626167
0.37639339
0.37647448
0.37528323
0.3752995
0.37533697
0.37539535
0.37547303
0.37557266
0.37568365
0.37580908
0.37595441
0.3761191
0.376276
0.37641037
0.37649433
0.37528005
0.37529455
0.37533072
0.37538922
0.37547252
0.37557716
0.3756892
0.37580577
0.3759319
0.37606932
0.37621646
0.37636048
0.37643555
0.37525875
0.37527257
0.37531224
0.37537816
0.37546436
0.3755592
0.3756603
0.3757682
0.37588442
0.37600809
0.37613448
0.37625822
0.37632576
0.37523123
0.37524737
0.37528702
0.37535273
0.37544223
0.37553915
0.37563329
0.37572952
0.37583032
0.37593548
0.37604137
0.376138
0.37618448
0.3752071
0.37522447
0.37526771
0.37534327
0.37544087
0.37553245
0.37562132
0.37571019
0.37579952
0.37588733
0.37597079
0.37603816
0.37607422
)
;
    }
}


// ************************************************************************* //
