/*--------------------------------*- C++ -*----------------------------------*\
| =========                 |                                                 |
| \\      /  F ield         | OpenFOAM: The Open Source CFD Toolbox           |
|  \\    /   O peration     | Version:  v2012                                 |
|   \\  /    A nd           | Website:  www.openfoam.com                      |
|    \\/     M anipulation  |                                                 |
\*---------------------------------------------------------------------------*/
FoamFile
{
    version     2.0;
    format      ascii;
    class       volScalarField;
    location    "710/topAir";
    object      T;
}
// * * * * * * * * * * * * * * * * * * * * * * * * * * * * * * * * * * * * * //

dimensions      [0 0 0 1 0 0 0];


internalField   nonuniform List<scalar> 
1200
(
325.47679
349.02974
370.34502
390.03881
408.62233
426.39611
443.45762
459.64144
474.64865
488.43032
500.84868
511.64916
520.26841
519.59682
516.35047
510.67702
503.39074
495.58784
488.20442
481.81227
476.65826
472.78304
470.13391
468.63242
468.20468
468.8129
470.49474
473.43456
478.13772
485.41006
300.54847
301.58269
302.9975
304.73078
306.73881
308.98758
311.44698
314.35809
318.34018
323.66127
331.18523
341.40011
354.49749
368.57504
382.30517
394.48671
404.49315
412.06478
417.15401
419.95427
421.00401
421.01545
420.66401
420.48557
420.88336
422.21441
424.90068
429.59538
437.53974
449.6513
300.01219
300.04663
300.11054
300.21017
300.35084
300.53708
300.77254
301.06605
301.43967
301.9187
302.57805
304.69212
310.25203
319.90664
332.77347
347.50782
362.38432
376.19011
388.05878
397.48641
404.40682
409.1476
412.25301
414.30708
415.8322
417.27792
419.06002
421.67168
425.98028
433.19609
300.00029
300.00143
300.00418
300.00956
300.0189
300.03376
300.05603
300.08811
300.13346
300.19738
300.29272
300.50157
301.16539
304.79851
314.46994
327.82396
341.87341
355.67617
368.50066
379.70674
388.91131
396.08972
401.49809
405.52107
408.55774
410.96763
413.08139
415.2549
418.03572
422.29141
325.46875
348.76594
369.58227
388.53365
406.09362
422.50242
437.81336
451.95212
464.69077
475.65723
484.32206
490.04252
491.96862
482.50388
470.36387
457.64364
446.59534
438.38169
432.9556
429.61247
427.63395
426.5597
426.20298
426.54043
427.59482
429.4336
432.19555
436.22867
442.51131
452.48465
300.54769
301.56248
302.92353
304.55743
306.4086
308.42987
310.57202
312.77861
314.97869
317.07715
318.94273
320.40564
321.26245
321.27694
320.81831
320.6725
321.54242
323.48967
326.12833
329.05173
332.12271
335.36185
338.85895
342.72281
347.04729
351.89852
357.28066
363.13322
369.61333
379.06645
300.01214
300.04566
300.10626
300.19822
300.32453
300.48696
300.68579
300.91945
301.18392
301.47087
301.76554
302.06739
302.36798
302.77136
304.04064
307.06455
312.5583
319.86034
327.63508
334.56291
340.95917
347.24816
353.525
359.79203
365.8434
372.13085
378.85461
385.91698
393.35257
401.25757
300.00029
300.00139
300.00395
300.00882
300.01695
300.02945
300.04748
300.07228
300.1051
300.1473
300.20094
300.27655
300.45154
301.40283
305.30975
313.04783
323.64996
336.96191
350.85157
363.58788
373.8712
381.8627
388.33805
393.77775
398.48814
402.21273
405.26337
407.94861
410.629
413.70261
325.46214
348.79834
369.67247
388.69859
406.35814
422.9063
438.45287
453.01563
466.50699
478.70384
489.18489
497.23058
501.56124
493.20526
482.09839
470.44674
459.54662
449.71007
440.98254
433.36521
426.85725
421.58581
417.79217
415.67484
415.2653
416.41429
418.91817
422.74349
428.86108
439.17812
300.54764
301.56564
302.93273
304.57471
306.4367
308.47436
310.64571
312.90479
315.19107
317.4182
319.44747
321.05515
321.93029
321.88291
321.66868
321.95592
322.78426
324.03226
325.7178
327.86375
330.5517
333.97486
338.33631
343.71213
350.02959
357.19381
365.14867
373.72225
382.95844
393.88851
300.01215
300.04581
300.10673
300.19915
300.32595
300.48888
300.68837
300.92322
301.18959
301.47877
301.77257
302.03716
302.26028
303.00688
305.81239
310.1989
314.4568
318.16899
322.05252
326.30432
331.3417
337.77855
345.85061
355.22243
365.18031
374.87149
383.74106
391.72459
400.40847
410.79903
300.00029
300.00139
300.00397
300.00886
300.01701
300.02947
300.04739
300.07192
300.10421
300.14531
300.19668
300.27065
300.57255
303.54378
314.32234
327.42612
334.60939
336.25151
345.08933
356.04897
365.94612
374.11931
380.93388
386.76527
391.88615
396.28892
400.06094
403.5845
411.01135
422.55341
325.4575
348.80483
369.71337
388.80398
406.57791
423.32593
439.20806
454.30817
468.64503
482.1346
494.49045
505.022
512.42626
508.02183
504.63998
503.74293
504.60933
505.88643
506.55086
505.82314
503.32644
499.27441
494.22585
488.71476
483.27903
478.83814
476.85256
479.10311
485.66425
495.8342
300.54758
301.5667
302.93782
304.58829
306.46588
308.53103
310.74957
313.08687
315.49798
317.90862
320.17349
322.01603
323.08848
323.76055
325.00191
326.68532
328.56287
330.49369
332.47185
334.62178
337.20637
340.53642
344.78026
349.90829
355.87044
362.73155
370.32897
378.74846
393.9886
423.43768
300.01215
300.04586
300.10702
300.20004
300.32808
300.4933
300.69687
300.93863
301.21594
301.52071
301.83167
302.10592
302.44013
304.85952
309.65346
313.26783
315.72724
317.88959
320.67455
324.74062
330.61603
338.75448
348.97601
360.45513
372.57974
384.67564
394.87868
403.57025
412.80519
427.24625
300.00029
300.0014
300.00399
300.00891
300.01716
300.02982
300.04813
300.07338
300.10698
300.15042
300.20708
300.31896
301.22344
311.96226
336.32469
348.90357
349.83334
349.61965
351.36955
357.79273
365.17286
372.22341
378.93595
384.8364
391.04259
398.49533
405.88957
413.94759
424.33717
436.36731
325.45118
348.79726
369.70988
388.80888
406.59689
423.36599
439.27578
454.40846
468.76524
482.20821
494.30835
504.12339
510.47614
505.48932
503.52666
504.66401
506.71223
509.88119
513.66455
517.655
521.45884
524.70242
527.08062
528.41055
528.69776
528.24832
527.76908
528.38983
531.53181
538.92731
300.54746
301.56686
302.93932
304.5926
306.4749
308.54718
310.77577
313.12546
315.54782
317.95326
320.15399
321.79986
322.66022
324.01694
325.88347
328.03272
331.91566
337.47032
344.30173
352.24921
361.33421
371.83049
383.97588
397.58243
412.05996
426.75846
441.38357
456.19779
472.22807
492.0774
300.01215
300.04588
300.10714
300.20043
300.329
300.49516
300.70025
300.94417
301.22411
301.5301
301.83433
302.09153
302.73598
307.74527
311.49983
313.76831
315.30181
317.17973
319.66951
323.25773
329.20723
338.42698
350.25847
362.72763
374.83441
387.8428
401.94186
417.79411
436.40206
459.69471
300.00029
300.0014
300.004
300.00894
300.01723
300.03001
300.04853
300.07418
300.1085
300.1534
300.21562
300.40339
302.73672
334.97802
354.39636
358.42553
360.50203
362.88685
365.99423
369.77197
374.07006
378.86201
383.64777
387.95516
391.62444
394.50337
401.08141
412.09622
427.84472
448.06835
325.44751
348.79004
369.69944
388.79553
406.57987
423.34406
439.24981
454.38243
468.74998
482.23584
494.46124
504.55083
511.17
505.55998
502.5508
502.789
504.96265
508.21133
512.02923
516.01241
519.78185
522.98653
525.34161
526.6752
526.99551
526.59819
526.19805
526.95211
530.31585
537.92282
300.54738
301.56664
302.93889
304.59191
306.47387
308.54578
310.77421
313.12476
315.55118
317.97024
320.20931
321.93777
322.84621
323.95549
325.6683
327.70925
330.57088
334.87265
340.08752
345.64215
351.58437
358.80376
368.46367
380.56181
394.59511
409.94591
426.11152
443.13334
461.93658
484.93036
300.01214
300.04587
300.10713
300.2004
300.32894
300.49506
300.70009
300.94402
301.22425
301.53171
301.84102
302.10485
302.59314
307.0838
311.51228
314.3743
315.91029
317.49613
319.45385
323.02462
329.1307
338.36414
349.53077
360.91988
371.24474
381.26126
393.48756
408.61455
427.71026
452.46707
300.00029
300.0014
300.004
300.00894
300.01723
300.03
300.0485
300.07411
300.10835
300.15299
300.21315
300.36298
301.98618
325.45949
353.18548
358.63257
361.17911
363.31539
366.04059
368.38687
372.19451
376.87676
381.67068
386.16352
390.2137
393.8815
397.17961
407.97898
423.74331
444.33618
325.44876
348.78796
369.68889
388.77192
406.53728
423.27504
439.14585
454.2367
468.5765
482.095
494.53858
505.27848
513.01011
508.43941
504.23645
502.33005
502.3894
503.11874
503.33056
502.2559
499.59945
495.58136
490.70908
485.45244
480.23821
475.85373
473.74889
475.96917
483.58339
494.13346
300.5474
301.56617
302.93683
304.58671
306.46358
308.52787
310.7456
313.08275
315.49646
317.91753
320.21227
322.123
323.28382
323.80422
324.8095
326.3606
328.15867
330.00101
331.86993
333.87363
336.26171
339.34833
343.3586
348.30724
354.12719
360.91718
368.61704
377.2188
390.66951
419.16306
300.01214
300.04585
300.10698
300.19997
300.32795
300.49308
300.69655
300.93819
301.21562
301.52145
301.83638
302.11953
302.40976
304.16804
309.0099
313.23569
316.13698
318.34591
320.99078
324.84278
330.42903
338.15371
347.71055
358.22361
369.11598
380.42433
390.56488
399.24072
408.81044
423.12227
300.00029
300.0014
300.00399
300.00891
300.01715
300.0298
300.04808
300.07328
300.10677
300.15
300.2057
300.30294
300.94124
308.38609
330.94963
348.92047
350.67282
350.17048
349.48487
355.09896
362.50514
370.2152
376.89335
382.80605
388.65326
396.09405
403.33953
411.20164
422.27549
435.27512
325.45121
348.77756
369.64212
388.65784
406.30567
422.84129
438.37471
452.92581
466.40845
478.60815
489.12486
497.28384
501.85681
493.6954
482.40729
470.27988
458.90455
448.74103
439.85719
432.24551
425.86867
420.7579
417.03346
414.81068
414.11109
414.8475
416.90712
420.33129
425.99818
436.17908
300.54741
301.56499
302.93154
304.57282
306.43392
308.47046
310.64053
312.89854
315.18506
317.41716
319.4636
321.11399
322.0638
322.02956
321.6523
321.76525
322.49832
323.69084
325.32819
327.42258
330.02028
333.26203
337.32174
342.2978
348.18771
354.97683
362.67682
371.11539
380.1977
391.05229
300.01214
300.04579
300.10668
300.19906
300.3258
300.48861
300.68793
300.92256
301.18881
301.47838
301.77435
302.04508
302.26541
302.8045
305.16629
309.53385
314.06045
317.88936
321.74447
325.94655
330.79747
336.80339
344.2011
352.76504
362.03952
371.50452
380.71684
389.22173
397.97718
408.31414
300.00029
300.00139
300.00397
300.00885
300.01699
300.02945
300.04733
300.07179
300.10396
300.14484
300.1957
300.26513
300.49024
302.52355
311.48594
325.43218
334.10475
335.61018
343.05764
353.4685
363.55304
372.05192
379.13391
385.15141
390.40937
395.00569
398.98597
402.58214
409.50512
421.58518
325.45735
348.74432
369.55135
388.49337
406.04328
422.44238
437.74593
451.87844
464.61177
475.57547
484.25072
490.02273
492.08889
482.84527
470.88097
458.15558
446.91232
438.40348
432.70146
429.19104
427.14876
426.08477
425.75821
426.08926
427.05656
428.69703
431.15738
434.84264
440.77852
450.46797
300.54745
301.56183
302.92237
304.55566
306.4061
308.42649
310.56751
312.77264
314.97185
317.07174
318.94537
320.43015
321.33128
321.39832
320.93875
320.7031
321.42639
323.2303
325.76597
328.6248
331.61502
334.744
338.08523
341.7403
345.81693
350.41286
355.57399
361.26432
367.59801
376.53333
300.01214
300.04565
300.10621
300.19814
300.32439
300.4867
300.68532
300.91867
301.18278
301.46957
301.765
302.0725
302.38208
302.76361
303.90076
306.69333
311.93868
319.05565
326.7607
333.81626
340.02507
346.14011
352.26356
358.43966
364.45534
370.5881
377.13822
384.10418
391.52578
399.47592
300.00029
300.00139
300.00395
300.00881
300.01694
300.02942
300.04741
300.07213
300.1048
300.14677
300.20009
300.27525
300.44255
301.28892
304.79792
312.37542
322.79226
335.77623
349.28074
361.84906
372.43408
380.58671
387.15309
392.63305
397.35716
401.22473
404.40123
407.18008
409.91107
412.9389
325.46627
349.00984
370.31626
390.00017
408.57214
426.33433
443.38425
459.56045
474.56366
488.3475
500.77476
511.59272
520.24657
519.62673
516.43974
510.79757
503.48819
495.60903
488.11909
481.62277
476.38423
472.44817
469.75112
468.19364
467.67843
468.14879
469.63612
472.33805
476.77698
483.76256
300.54825
301.58209
302.99644
304.72914
306.73638
308.98403
311.44158
314.34325
318.32542
323.68994
331.34283
341.71642
354.9864
369.16481
382.85972
394.86386
404.60697
411.91308
416.80486
419.49659
420.48736
420.45396
420.04599
419.78033
420.04557
421.18843
423.63065
428.04275
435.68923
447.76284
300.01218
300.04661
300.1105
300.21009
300.35069
300.5368
300.77202
301.06517
301.43885
301.91989
302.58897
304.84838
310.68585
320.53548
333.47519
348.16862
362.84908
376.36612
387.94306
397.14614
403.92558
408.59069
411.65634
413.67919
415.16099
416.53631
418.21357
420.68321
424.80077
431.82901
300.00029
300.00143
300.00417
300.00956
300.01888
300.03373
300.05595
300.08794
300.13314
300.19685
300.29213
300.50499
301.1836
305.04609
314.79496
328.06171
341.91423
355.43704
367.97471
378.96813
388.0679
395.2274
400.66482
404.73444
407.81553
410.25724
412.38296
414.54245
417.26814
421.4138
)
;

boundaryField
{
    maxY
    {
        type            zeroGradient;
    }
    minX
    {
        type            fixedValue;
        value           uniform 300;
    }
    maxX
    {
        type            inletOutlet;
        inletValue      uniform 300;
        value           nonuniform List<scalar> 
40
(
485.33156
449.55181
433.08976
422.21433
452.42385
379.0861
401.25255
413.65771
439.13302
393.91144
410.76337
422.2856
495.56267
423.35438
427.10574
435.98198
538.68761
491.71886
459.33776
447.74064
537.94055
485.17957
452.63836
444.40132
494.13589
419.23015
423.11687
435.01203
436.2072
391.05513
408.25425
421.3436
450.4649
376.566
399.49812
412.92655
483.74279
447.74215
431.79853
421.39641
)
;
    }
    minZ
    {
        type            zeroGradient;
    }
    maxZ
    {
        type            zeroGradient;
    }
    topAir_to_rightSolid
    {
        type            compressible::turbulentTemperatureCoupledBaffleMixed;
        refValue        nonuniform List<scalar> 
130
(
750.25142
758.23367
766.6143
774.95055
782.90392
790.244
796.81675
802.53525
807.33444
811.20254
814.1248
816.07344
817.04881
744.48062
753.81004
763.36342
772.63625
781.29895
789.1541
796.08698
802.04771
807.01744
811.00449
813.99842
815.9874
816.97874
732.88532
745.29047
757.35041
768.50554
778.51322
787.29374
794.85945
801.24882
806.51439
810.70242
813.81465
815.86975
816.88831
715.55336
733.74498
749.8352
763.65624
775.40135
785.30113
793.58842
800.44914
806.02901
810.42079
813.65745
815.78571
816.84723
695.04429
722.76164
743.63489
760.00808
773.18121
783.92347
792.72572
799.91353
805.70712
810.23747
813.56168
815.74608
816.83375
695.06643
722.76025
743.61659
759.97637
773.13375
783.86523
792.66421
799.85682
805.66769
810.21238
813.54911
815.74255
816.83377
715.67997
733.81221
749.85349
763.64009
775.3339
785.20081
793.47395
800.33868
805.94084
810.35847
813.62412
815.77885
816.85298
733.1968
745.51511
757.48662
768.55811
778.48983
787.21653
794.75151
801.13411
806.41507
810.62689
813.77053
815.86121
816.90578
744.93195
754.15457
763.60033
772.76107
781.32469
789.10325
795.99481
801.94641
806.93958
810.95722
813.97955
815.99915
817.0103
750.79391
758.64038
766.89295
775.10706
782.95456
790.21474
796.74164
802.44521
807.27663
811.18309
814.13077
816.1054
817.09509
)
;
        refGradient     uniform 0;
        valueFraction   uniform 0.99967867;
        value           nonuniform List<scalar> 
130
(
750.16959
758.1469
766.52278
774.8547
782.80427
790.14114
796.71129
802.42782
807.22566
811.09306
814.01532
815.96484
816.94222
744.38226
753.70694
763.25617
772.52539
781.18496
789.03747
795.96824
801.92739
806.89612
810.88277
813.87703
815.86739
816.8616
732.79432
745.19268
757.24629
768.39575
778.39852
787.17501
794.73761
801.1248
806.38905
810.57654
813.689
815.74539
816.76693
715.48597
733.67196
749.75677
763.57255
775.31257
785.20755
793.4904
800.34716
805.92381
810.31354
813.54988
815.67955
816.744
694.98479
722.69445
743.56227
759.93142
773.10136
783.84092
792.64076
799.82635
805.61792
810.14666
813.46999
815.65469
816.74437
695.00639
722.69254
743.54346
759.8992
773.05338
783.78217
792.57876
799.76916
805.57804
810.12114
813.45704
815.65085
816.74415
715.61168
733.73816
749.77395
763.55527
775.24404
785.10622
793.37502
800.23587
805.83481
810.25035
813.51567
815.67212
816.74928
733.10541
745.41691
757.38212
768.44801
778.37489
787.09759
794.62943
801.00975
806.28926
810.50039
813.64412
815.73595
816.78345
744.83347
754.05129
763.49289
772.65003
781.21055
788.9865
795.87596
801.82596
806.81805
810.83519
813.85773
815.87858
816.89252
750.71192
758.55347
766.8013
775.01108
782.85479
790.11177
796.63607
802.33765
807.16767
811.07334
814.02095
815.99636
816.98797
)
;
        Tnbr            T;
        thicknessLayers List<scalar> 0();
        kappaLayers     List<scalar> 0();
        kappaMethod     fluidThermo;
        kappa           none;
        alphaAni        none;
        alpha           none;
        field           T;
    }
    topAir_to_heater
    {
        type            compressible::turbulentTemperatureCoupledBaffleMixed;
        refValue        nonuniform List<scalar> 
40
(
731.37903
733.43135
737.45961
743.19164
722.06879
724.48049
729.2364
736.05863
702.45999
705.57727
711.88471
721.21602
670.56145
674.47986
682.97712
696.73892
623.85257
627.47692
636.92608
655.9869
623.88101
627.52189
636.97583
656.02775
670.72541
674.70136
683.2042
696.93121
702.8298
705.98625
712.30635
721.60089
722.58982
725.01969
729.78396
736.59682
732.00501
734.05108
738.06951
743.78769
)
;
        refGradient     uniform 0;
        valueFraction   uniform 0.99967867;
        value           nonuniform List<scalar> 
40
(
731.31098
733.3616
737.38674
743.11458
721.99181
724.39883
729.14912
735.96562
702.39275
705.50546
711.80712
721.13193
670.50921
674.42528
682.91952
696.67717
623.81453
627.43708
636.88358
655.93893
623.84299
627.48173
636.93272
655.97921
670.67327
674.64659
683.14609
696.86871
702.76261
705.91441
712.22859
721.51649
722.51279
724.93804
729.69668
736.50374
731.93676
733.98116
737.99649
743.71048
)
;
        Tnbr            T;
        thicknessLayers List<scalar> 0();
        kappaLayers     List<scalar> 0();
        kappaMethod     fluidThermo;
        kappa           none;
        alphaAni        none;
        alpha           none;
        field           T;
    }
    topAir_to_leftSolid
    {
        type            compressible::turbulentTemperatureCoupledBaffleMixed;
        refValue        nonuniform List<scalar> 
130
(
926.84367
926.80784
926.72926
926.60408
926.43144
926.21118
925.94165
925.62003
925.23985
924.78472
924.36597
924.06932
923.9149
926.80511
926.76664
926.68427
926.55704
926.38378
926.16367
925.89683
925.5841
925.22824
924.83152
924.4452
924.12272
923.92089
926.72339
926.6842
926.59961
926.46822
926.29098
926.0689
925.80394
925.49991
925.13354
924.73761
924.35374
924.0256
923.81517
926.61572
926.57356
926.47992
926.33498
926.14891
925.92275
925.65634
925.34525
924.9726
924.55627
924.14862
923.81265
923.60449
926.48194
926.43547
926.33013
926.16914
925.98427
925.76349
925.49722
925.18343
924.8077
924.37018
923.92782
923.60127
923.40021
926.39168
926.34398
926.24473
926.09448
925.89711
925.64603
925.3674
925.0536
924.69132
924.28201
923.89258
923.55945
923.3513
926.39953
926.35619
926.26016
926.10963
925.89839
925.63498
925.35375
925.0618
924.74675
924.40441
924.0388
923.68167
923.49491
926.45212
926.41046
926.30578
926.13694
925.91858
925.67939
925.42521
925.15474
924.86428
924.5561
924.24198
923.93532
923.76798
926.52009
926.47271
926.36807
926.19976
925.97326
925.72895
925.49195
925.25032
924.998
924.73566
924.47241
924.23302
924.11811
926.57967
926.52915
926.41548
926.2226
925.97578
925.74422
925.51965
925.29545
925.07062
924.85001
924.64065
924.47147
924.37999
)
;
        refGradient     uniform 0;
        valueFraction   uniform 0.99967867;
        value           nonuniform List<scalar> 
130
(
926.65043
926.62219
926.55048
926.43166
926.26506
926.05058
925.78662
925.4703
925.09506
924.64451
924.22988
923.9368
923.7852
926.61189
926.58092
926.50526
926.38416
926.2166
926.00183
925.74
925.43191
925.08026
924.68719
924.30378
923.98324
923.7821
926.53019
926.49851
926.42066
926.29542
926.12391
925.90722
925.64735
925.34809
924.98617
924.59429
924.21391
923.88846
923.67948
926.42256
926.38791
926.30101
926.16225
925.98196
925.76125
925.50003
925.1939
924.82597
924.41411
924.01056
923.67808
923.47236
926.28881
926.24986
926.15127
925.99647
925.81737
925.60205
925.34099
925.03215
924.66116
924.22811
923.78977
923.46648
923.26753
926.19858
926.1584
926.0659
925.92183
925.73024
925.48463
925.2112
924.90236
924.54482
924.13996
923.75459
923.42481
923.21885
926.20643
926.17061
926.08132
925.93697
925.7315
925.47356
925.19752
924.91051
924.60017
924.26228
923.90079
923.54722
923.36301
926.259
926.22485
926.12691
925.96424
925.75161
925.51782
925.26871
925.003
924.71696
924.41281
924.10216
923.79823
923.63241
926.32695
926.28707
926.18916
926.02698
925.80619
925.56723
925.33522
925.09822
924.85006
924.59133
924.33096
924.0935
923.97929
926.38652
926.34358
926.2368
926.0503
925.80953
925.58374
925.36472
925.14579
924.92586
924.70976
924.50445
924.3388
924.25013
)
;
        Tnbr            T;
        thicknessLayers List<scalar> 0();
        kappaLayers     List<scalar> 0();
        kappaMethod     fluidThermo;
        kappa           none;
        alphaAni        none;
        alpha           none;
        field           T;
    }
}


// ************************************************************************* //
