/*--------------------------------*- C++ -*----------------------------------*\
| =========                 |                                                 |
| \\      /  F ield         | OpenFOAM: The Open Source CFD Toolbox           |
|  \\    /   O peration     | Version:  v2012                                 |
|   \\  /    A nd           | Website:  www.openfoam.com                      |
|    \\/     M anipulation  |                                                 |
\*---------------------------------------------------------------------------*/
FoamFile
{
    version     2.0;
    format      ascii;
    class       volVectorField;
    location    "710/topAir";
    object      U;
}
// * * * * * * * * * * * * * * * * * * * * * * * * * * * * * * * * * * * * * //

dimensions      [0 1 -1 0 0 0 0];


internalField   nonuniform List<vector> 
1200
(
(0.1047099 -0.0024807303 0.00087488232)
(0.11865454 -0.002548968 0.0013129503)
(0.13062918 -0.0023183814 0.0013898285)
(0.13997745 -0.0017479107 0.0012449552)
(0.14814419 -0.00090151719 0.00089165233)
(0.15578295 4.5658283e-05 0.0002890381)
(0.16316354 0.00098685531 -0.00059573747)
(0.17053742 0.0018609037 -0.0019265135)
(0.17810069 0.0027689702 -0.0039727822)
(0.18617286 0.0038944519 -0.007055518)
(0.19493046 0.0055670024 -0.011586502)
(0.20405044 0.0081678801 -0.017985516)
(0.21197396 0.012101788 -0.026506805)
(0.21706907 0.016744636 -0.03694343)
(0.21938008 0.021950729 -0.048427221)
(0.21948539 0.026993724 -0.059700953)
(0.21757432 0.03127752 -0.069596105)
(0.21386336 0.034498772 -0.077431385)
(0.20892808 0.036532892 -0.083054001)
(0.20367332 0.037375408 -0.086657571)
(0.19903335 0.037203445 -0.088571347)
(0.19564305 0.036310221 -0.089128685)
(0.19372191 0.034982583 -0.088605086)
(0.19315105 0.033444862 -0.087210247)
(0.19359213 0.031878987 -0.085075878)
(0.19447784 0.030523622 -0.08219401)
(0.19477323 0.029792776 -0.078330256)
(0.19249639 0.030522278 -0.072929477)
(0.1841569 0.034689409 -0.065017745)
(0.14155167 0.048372886 -0.052545516)
(0.098685874 -0.0039271768 0.000846608)
(0.09846341 -0.0047346989 0.0012777881)
(0.098916873 -0.0047737589 0.0014586123)
(0.099843192 -0.0042935201 0.0015395062)
(0.10131875 -0.0034864772 0.0015467788)
(0.10337458 -0.0026059383 0.0014649157)
(0.10598984 -0.0018237948 0.001268048)
(0.10934219 -0.0011817933 0.00089685436)
(0.11392324 -0.00036442776 0.00022332834)
(0.12023945 0.00099676558 -0.00092911478)
(0.12926977 0.0037327191 -0.0028731631)
(0.14134014 0.0088835137 -0.0059929549)
(0.15616287 0.017303135 -0.010795084)
(0.17184149 0.027923245 -0.017352011)
(0.18620753 0.040173566 -0.025164627)
(0.19746109 0.052719415 -0.033266612)
(0.20447894 0.064431646 -0.040753491)
(0.20704482 0.074333801 -0.047148291)
(0.20593344 0.081625708 -0.052314495)
(0.20263376 0.085887789 -0.056253169)
(0.19872825 0.087396764 -0.058971765)
(0.19528407 0.086881098 -0.060479483)
(0.19274566 0.085096789 -0.060852423)
(0.19115189 0.082592991 -0.060224552)
(0.19035466 0.079698747 -0.058700146)
(0.19004027 0.076810165 -0.056198775)
(0.18952282 0.074682668 -0.052326182)
(0.1874718 0.074890491 -0.04620423)
(0.18252853 0.080746709 -0.035907562)
(0.15382417 0.09680108 -0.016515971)
(0.098814799 -0.0029306071 0.00087374164)
(0.097952823 -0.0042381903 0.0013260618)
(0.096303736 -0.0046456471 0.001528423)
(0.09424161 -0.0047349198 0.0016505005)
(0.092231761 -0.0046973045 0.0017443901)
(0.090453471 -0.0046217386 0.0018222754)
(0.088890261 -0.0046148847 0.0019025475)
(0.087477321 -0.0047069977 0.0020285924)
(0.086275492 -0.0047360625 0.002266703)
(0.085606764 -0.0046194875 0.0026474124)
(0.086014473 -0.0041133434 0.0031107806)
(0.089632762 -0.0017046485 0.0032380653)
(0.099803838 0.0056269283 0.0023560806)
(0.11591733 0.018983775 0.00029331209)
(0.13478974 0.036435871 -0.0026743168)
(0.15282616 0.055002295 -0.0057178733)
(0.16716131 0.071897191 -0.0082884087)
(0.17666457 0.085925972 -0.010248797)
(0.18179187 0.096491458 -0.011894063)
(0.18399235 0.10336391 -0.013532581)
(0.18480847 0.10669552 -0.015268543)
(0.18512769 0.10701768 -0.016720765)
(0.18517909 0.105059 -0.017522592)
(0.18486224 0.10149958 -0.017617537)
(0.18408303 0.096862295 -0.017050029)
(0.18281449 0.091614318 -0.015713928)
(0.18089758 0.086531883 -0.013278892)
(0.1779892 0.083279949 -0.009162784)
(0.17460306 0.085557401 -0.0023936945)
(0.15774574 0.09952663 0.010095454)
(0.096857709 -0.0015577033 0.00083911291)
(0.094630689 -0.0023020188 0.0012531623)
(0.090903014 -0.0025287699 0.0014166051)
(0.086340947 -0.0025599274 0.0014977104)
(0.081763339 -0.0024981826 0.0015524404)
(0.077413015 -0.0023755907 0.0015970974)
(0.073249915 -0.002233092 0.0016559689)
(0.069174078 -0.0021083038 0.0017751025)
(0.065055489 -0.0020439532 0.0020302428)
(0.060679576 -0.002224418 0.0025299492)
(0.055620044 -0.0031751973 0.003502176)
(0.049434963 -0.0049741523 0.0053854841)
(0.041493945 -0.0057188837 0.0088578645)
(0.037056929 0.00085568229 0.013775784)
(0.044249719 0.016784513 0.019458992)
(0.059575799 0.034550165 0.025531927)
(0.075832326 0.049649553 0.031374162)
(0.090198404 0.061900262 0.036712171)
(0.10246221 0.071308093 0.041005378)
(0.1132939 0.077799857 0.043921467)
(0.12316561 0.081305494 0.045668552)
(0.13203771 0.08200841 0.046440722)
(0.13954266 0.080394147 0.04646831)
(0.14528718 0.077057601 0.045989773)
(0.14907174 0.072589032 0.045246757)
(0.1510117 0.067471476 0.044498111)
(0.15155923 0.06237121 0.044003189)
(0.15178197 0.058558841 0.043745413)
(0.15577754 0.058859438 0.043245226)
(0.17543898 0.069027327 0.042606812)
(0.10597314 -0.0024819364 0.00099983902)
(0.12077216 -0.0025612196 0.0013917686)
(0.13399452 -0.0024220239 0.0013822592)
(0.14467569 -0.0020396592 0.0011397905)
(0.15398127 -0.001484435 0.00068232158)
(0.16249851 -0.00093981897 -3.4233012e-05)
(0.17024359 -0.00055473896 -0.0010729508)
(0.17713123 -0.00039889071 -0.0026038221)
(0.18313538 -0.00053963102 -0.0048813711)
(0.18823516 -0.0010574482 -0.0081971648)
(0.19236678 -0.0020859484 -0.012895807)
(0.19543878 -0.0037762867 -0.019240526)
(0.19684791 -0.0062794985 -0.027181414)
(0.19632209 -0.010286264 -0.035952623)
(0.19558699 -0.014912603 -0.044309204)
(0.19591888 -0.019161682 -0.05125539)
(0.19701633 -0.022029854 -0.056614182)
(0.19783223 -0.023248394 -0.060697916)
(0.19763091 -0.023357522 -0.063765946)
(0.19643577 -0.023152295 -0.065900664)
(0.19483285 -0.023060082 -0.067165844)
(0.19347099 -0.023094373 -0.067620649)
(0.19273885 -0.023155591 -0.067306628)
(0.19273316 -0.023187444 -0.066261007)
(0.19343413 -0.023164317 -0.064501433)
(0.19482624 -0.022926664 -0.061969937)
(0.19680082 -0.022025368 -0.058392735)
(0.19901806 -0.019314331 -0.053191411)
(0.20079701 -0.01132981 -0.045569016)
(0.1913294 0.012192581 -0.035324242)
(0.099975597 -0.0039388482 0.0010564012)
(0.10069293 -0.0047830068 0.0016030771)
(0.10252549 -0.0049618087 0.001801667)
(0.105001 -0.0047409236 0.0018457121)
(0.10793296 -0.0043162506 0.0017757431)
(0.11126075 -0.0039421055 0.0015675568)
(0.11489221 -0.0038179925 0.0011747742)
(0.11874745 -0.0040578638 0.00052076083)
(0.12281669 -0.0047870269 -0.00051727579)
(0.1270769 -0.0061943324 -0.0020935285)
(0.13155279 -0.0085398587 -0.0043663058)
(0.13634529 -0.012115877 -0.0074997221)
(0.14162097 -0.017251442 -0.011516792)
(0.14732465 -0.024558325 -0.015779398)
(0.15335639 -0.032331957 -0.019228658)
(0.1593689 -0.038244843 -0.021212412)
(0.16472517 -0.04036017 -0.022081365)
(0.16843029 -0.038649131 -0.022961836)
(0.16996592 -0.034769834 -0.024510227)
(0.16974677 -0.030750716 -0.026657833)
(0.16877204 -0.027663856 -0.028951233)
(0.16782576 -0.025445864 -0.030917908)
(0.16709857 -0.023750621 -0.032115012)
(0.16653175 -0.022500699 -0.03219017)
(0.16625466 -0.02192736 -0.030846963)
(0.16680734 -0.022136157 -0.027814469)
(0.16922363 -0.022965731 -0.022602593)
(0.1757086 -0.023709034 -0.014278154)
(0.19217133 -0.02259606 -0.0012892271)
(0.24957984 -0.012522881 0.014084486)
(0.10011537 -0.0029589018 0.001077124)
(0.10020917 -0.0042914057 0.0016513315)
(0.10000554 -0.0047423811 0.0018985285)
(0.099646356 -0.0049093701 0.0020211885)
(0.099345777 -0.0049880798 0.0020782326)
(0.099218829 -0.005066559 0.002069183)
(0.099278905 -0.0052337847 0.0019901464)
(0.099505732 -0.0055897775 0.0018516565)
(0.099888329 -0.0062742247 0.0016734682)
(0.10046925 -0.0075508475 0.0014308721)
(0.10136398 -0.0097736871 0.00097488215)
(0.10276413 -0.013455761 7.5915419e-05)
(0.10489931 -0.019351681 -0.0011714046)
(0.10779648 -0.027925443 -0.0018594989)
(0.11134206 -0.037031719 -0.00047003483)
(0.11525835 -0.043221399 0.0047158678)
(0.12062 -0.043188789 0.01344047)
(0.12616696 -0.038131478 0.021901248)
(0.13041885 -0.031329658 0.027996661)
(0.13289909 -0.026119745 0.03097145)
(0.13371226 -0.022344292 0.032831383)
(0.13468476 -0.019814819 0.034732688)
(0.13656102 -0.018523072 0.036929815)
(0.13906014 -0.01816947 0.039585622)
(0.14114583 -0.019142712 0.041786151)
(0.14220744 -0.02103347 0.043604899)
(0.14298254 -0.023581228 0.045145486)
(0.14470043 -0.027037395 0.046793466)
(0.15179788 -0.031420667 0.050413569)
(0.18189395 -0.03656716 0.053316598)
(0.098102141 -0.0015847373 0.0010521291)
(0.096772753 -0.0023584729 0.0016075721)
(0.094418931 -0.0026183837 0.0018405513)
(0.091480633 -0.0026956087 0.001945701)
(0.088532642 -0.0026961248 0.0019816256)
(0.085765371 -0.0026544807 0.0019515041)
(0.083177186 -0.0026145099 0.0018568515)
(0.080735037 -0.0026338179 0.0017107314)
(0.078387307 -0.0027963372 0.0015412591)
(0.076092721 -0.0032570097 0.0013903305)
(0.073767108 -0.0042985094 0.0013001303)
(0.071184327 -0.0064434031 0.0013363872)
(0.06795913 -0.010470686 0.0013823395)
(0.063744744 -0.01659234 0.001346402)
(0.058604196 -0.021500026 0.0041530972)
(0.054844882 -0.019901219 0.016960959)
(0.056993846 -0.0098970944 0.04296721)
(0.060006539 0.0043388895 0.066986108)
(0.063746678 0.018131516 0.084910344)
(0.069644484 0.028764516 0.0972187)
(0.0780866 0.03517998 0.10424811)
(0.087027457 0.037413026 0.10735346)
(0.094972054 0.036535191 0.10805309)
(0.10141121 0.033669773 0.10698633)
(0.10607968 0.029750999 0.10439088)
(0.1094963 0.024515896 0.099494615)
(0.11181155 0.018544736 0.092742225)
(0.1136344 0.012131943 0.084803919)
(0.12049929 0.0059755647 0.077381877)
(0.15375539 0.0021201004 0.065882629)
(0.10584561 -0.0025024973 0.00034669666)
(0.12044155 -0.0025800339 0.0005651809)
(0.13356932 -0.0024143285 0.0006463176)
(0.1442654 -0.0019836813 0.00063229532)
(0.15363031 -0.0013691521 0.00054717802)
(0.16216197 -0.00076222256 0.00039105352)
(0.16988438 -0.0002741733 0.00013009809)
(0.17678191 6.0285644e-05 -0.00025609769)
(0.18286578 0.00021520706 -0.00078316855)
(0.18811858 0.00014081584 -0.0014703803)
(0.19249094 -0.00025232023 -0.0023239149)
(0.19590695 -0.0011213882 -0.0032849729)
(0.1977453 -0.0027141527 -0.0041230054)
(0.19771653 -0.0058285479 -0.0043914476)
(0.19738184 -0.0093921937 -0.003762477)
(0.19723908 -0.012762757 -0.0027026866)
(0.19640902 -0.015977424 -0.0022498322)
(0.19436784 -0.019301394 -0.0031023288)
(0.19135165 -0.022720338 -0.0052153551)
(0.18786014 -0.026192395 -0.0081036847)
(0.18441751 -0.0296638 -0.011217473)
(0.18148556 -0.03291518 -0.014051436)
(0.17925192 -0.035633529 -0.016218617)
(0.1775786 -0.037594032 -0.017539196)
(0.17624222 -0.038788092 -0.017937972)
(0.17519467 -0.039472964 -0.017289714)
(0.17488056 -0.039923979 -0.015542403)
(0.17653973 -0.039611338 -0.013685221)
(0.18155229 -0.034593174 -0.014933892)
(0.18661214 -0.016228414 -0.020638492)
(0.099852196 -0.0039517914 0.00034597139)
(0.10033535 -0.0047838426 0.00058842273)
(0.10203746 -0.004920306 0.0006954543)
(0.1044955 -0.0046302501 0.00070197955)
(0.1074393 -0.0041195717 0.00061987961)
(0.11074592 -0.003645607 0.00043067779)
(0.11429548 -0.0033538639 9.8639282e-05)
(0.11799681 -0.0033075059 -0.00042229023)
(0.12179996 -0.0035923581 -0.0011805131)
(0.12569767 -0.0043459627 -0.0022590727)
(0.12974867 -0.0058302914 -0.0037189341)
(0.13412675 -0.0084947758 -0.0055420708)
(0.13916861 -0.012974823 -0.007482476)
(0.14481143 -0.019699644 -0.0089508254)
(0.1503855 -0.025664883 -0.0099193785)
(0.15455776 -0.029280351 -0.011754283)
(0.15614456 -0.031375108 -0.015705088)
(0.15532149 -0.033273793 -0.02146965)
(0.15309271 -0.034969169 -0.028083578)
(0.15009075 -0.036566731 -0.034512534)
(0.14665247 -0.038356703 -0.039901882)
(0.14305823 -0.040255723 -0.043675727)
(0.13936485 -0.041885772 -0.045561165)
(0.13533968 -0.042985912 -0.045600767)
(0.13088748 -0.043746995 -0.043690821)
(0.12617288 -0.045048861 -0.039396635)
(0.1228997 -0.047802206 -0.032489508)
(0.12601223 -0.051420879 -0.026080152)
(0.14273766 -0.048551768 -0.031976699)
(0.19345526 -0.029118362 -0.053015532)
(0.099996525 -0.0029541147 0.00035076272)
(0.099867596 -0.0042803079 0.00060003798)
(0.099541081 -0.0047110371 0.00072262849)
(0.099175107 -0.0048455634 0.00074994784)
(0.098912038 -0.0048790788 0.00069108366)
(0.098817 -0.0048920556 0.00052592011)
(0.09887749 -0.0049558499 0.00021677395)
(0.099050068 -0.005151793 -0.00029137997)
(0.099312172 -0.005609565 -0.0010712474)
(0.099645395 -0.0065343339 -0.0022124552)
(0.10003131 -0.0083423671 -0.0038443874)
(0.10055474 -0.011799093 -0.0060858689)
(0.10153937 -0.018110923 -0.0088097888)
(0.10283408 -0.026955511 -0.011284215)
(0.1034839 -0.032883435 -0.013076306)
(0.10208053 -0.033654622 -0.015745066)
(0.097716059 -0.031755108 -0.02021462)
(0.092688626 -0.030810929 -0.023997214)
(0.088315875 -0.030657487 -0.028634841)
(0.083866907 -0.031566024 -0.034109367)
(0.078504052 -0.033703923 -0.038441919)
(0.072572189 -0.036496132 -0.040183498)
(0.066821449 -0.039118425 -0.039055552)
(0.061429498 -0.041287667 -0.035397976)
(0.057576813 -0.043224715 -0.028325413)
(0.055691011 -0.046152058 -0.017208057)
(0.057387994 -0.051216718 -0.0040331839)
(0.066744228 -0.058623614 0.0027434103)
(0.081207071 -0.060482141 -0.019844367)
(0.11730863 -0.049641717 -0.064855488)
(0.097985832 -0.0015798379 0.0003417399)
(0.09643754 -0.0023484738 0.00057978017)
(0.093962927 -0.0026002123 0.00069255578)
(0.091016992 -0.0026671301 0.00071099431)
(0.08810404 -0.0026545429 0.00064392132)
(0.085362996 -0.0025947486 0.00047042105)
(0.08276335 -0.0025282152 0.00014909371)
(0.080242158 -0.0025071474 -0.00038375387)
(0.077741913 -0.0026076102 -0.0012204525)
(0.075123859 -0.0029648694 -0.0024929264)
(0.07208432 -0.0038929109 -0.0044845166)
(0.068068505 -0.0061353319 -0.0077332883)
(0.062128625 -0.0114689 -0.013367518)
(0.052006165 -0.020014966 -0.022705031)
(0.036486124 -0.022221388 -0.032859371)
(0.021305986 -0.016241926 -0.036924123)
(0.01123717 -0.009677548 -0.025936599)
(0.022019674 -0.0061832868 0.014594765)
(0.024656889 0.002934495 0.047838693)
(0.030074006 0.01163198 0.068022729)
(0.037489205 0.017315862 0.079013442)
(0.044958739 0.019613667 0.084257301)
(0.051199283 0.019096136 0.085814248)
(0.055399739 0.016294555 0.08456882)
(0.056739927 0.011447701 0.080780478)
(0.055102944 0.0041386856 0.074234977)
(0.051869812 -0.0056718412 0.064254105)
(0.052501343 -0.018251084 0.048385817)
(0.046368361 -0.020722741 -0.0064974163)
(0.077619146 -0.0018307051 -0.082446433)
(0.10581441 -0.0025039346 0.0001787935)
(0.1203279 -0.0025770265 0.0003196273)
(0.1333653 -0.0023972623 0.00039827759)
(0.14399044 -0.0019368529 0.00041561457)
(0.15331221 -0.001266504 0.00037677597)
(0.16184473 -0.0005641552 0.0002817818)
(0.16963873 7.1610333e-05 0.00013117626)
(0.17669912 0.00061833256 -7.2089396e-05)
(0.18309443 0.0010803663 -0.00033383183)
(0.18892444 0.0014461912 -0.00064248991)
(0.19433154 0.0016650943 -0.00093850167)
(0.19956771 0.0016148895 -0.0010391852)
(0.2044681 0.0011587212 -0.00047621015)
(0.20907078 0.00025076036 0.0014745022)
(0.21434496 0.00065886415 0.0048357778)
(0.21960523 0.0019395004 0.0089050142)
(0.2236102 0.0030578114 0.013194753)
(0.22608164 0.0034733271 0.017646012)
(0.22745998 0.0030380606 0.022355303)
(0.22809885 0.0017438071 0.027368783)
(0.22823417 -0.00024832124 0.032675498)
(0.22798875 -0.0026525272 0.038229187)
(0.22723474 -0.0052234861 0.043862981)
(0.22574285 -0.0078492667 0.049150026)
(0.22357016 -0.010308879 0.053466527)
(0.22109743 -0.011881289 0.056165987)
(0.2184444 -0.011332279 0.056600558)
(0.21455728 -0.0073776703 0.053848167)
(0.20446161 0.0025591735 0.044308876)
(0.14426793 0.030811026 0.022757732)
(0.099821636 -0.0039534607 0.00018267353)
(0.10020348 -0.0047796241 0.0003397599)
(0.10177275 -0.0048954725 0.00043282743)
(0.10410224 -0.0045616858 0.00045575976)
(0.10692161 -0.0039706815 0.00040924297)
(0.11009666 -0.0033615204 0.00028552633)
(0.11349621 -0.0028611973 6.8184389e-05)
(0.1170274 -0.0025128783 -0.00026518847)
(0.12066404 -0.0023611264 -0.00075058173)
(0.12445868 -0.0025311189 -0.0014113176)
(0.12861547 -0.0033207771 -0.002220111)
(0.13362488 -0.0053106364 -0.002989586)
(0.14028167 -0.0090818119 -0.0031567749)
(0.14873288 -0.012625619 -0.0018365292)
(0.15777222 -0.011406677 0.00010740252)
(0.16492562 -0.0077981227 0.0011187707)
(0.16938208 -0.0049479708 0.00062421465)
(0.17164514 -0.0041196363 -0.0011710862)
(0.17234658 -0.0052681978 -0.004018158)
(0.17184678 -0.007767519 -0.0075597744)
(0.17051811 -0.0109384 -0.011163598)
(0.16855333 -0.014082054 -0.01394621)
(0.16580324 -0.016749254 -0.015183596)
(0.16183213 -0.019090508 -0.014785733)
(0.15682022 -0.021448981 -0.013251593)
(0.15220973 -0.023116058 -0.012221202)
(0.15129032 -0.02123762 -0.01454451)
(0.15598997 -0.011467695 -0.02232095)
(0.16782721 0.010729154 -0.03537392)
(0.17131824 0.049397001 -0.052487137)
(0.099967134 -0.0029516541 0.0001836317)
(0.09973988 -0.0042750553 0.00034132348)
(0.099277763 -0.0046970073 0.00043823152)
(0.098770351 -0.0048134579 0.0004652325)
(0.0983581 -0.0048156044 0.00041852289)
(0.098088562 -0.0047766085 0.000284445)
(0.097927763 -0.0047587574 3.7407398e-05)
(0.097814251 -0.004831173 -0.00036040713)
(0.097691797 -0.005116127 -0.00096807607)
(0.097514857 -0.0058711338 -0.0018741321)
(0.097326338 -0.0076698981 -0.0031572807)
(0.097541525 -0.01171597 -0.004772776)
(0.098941676 -0.019823891 -0.0061228407)
(0.10102867 -0.026764601 -0.005532269)
(0.10467627 -0.02403567 -0.0030474825)
(0.10526216 -0.018182662 -0.001369589)
(0.10067515 -0.013234908 -0.0027777256)
(0.093365798 -0.010889764 -0.0069918707)
(0.084926271 -0.012204625 -0.013036772)
(0.076484063 -0.01596826 -0.019401455)
(0.068048548 -0.020728676 -0.024053547)
(0.059377813 -0.025216727 -0.024992502)
(0.051173979 -0.028557363 -0.021690693)
(0.043064892 -0.031281495 -0.01540722)
(0.036401059 -0.034266505 -0.0089928685)
(0.033260605 -0.037224214 -0.0092993716)
(0.040549937 -0.03520374 -0.022928898)
(0.060070558 -0.022727897 -0.043341508)
(0.084739381 0.00049235804 -0.064386481)
(0.096807228 0.036558453 -0.087429404)
(0.097956955 -0.0015815675 0.00017853825)
(0.096312778 -0.0023524306 0.00032905836)
(0.093705181 -0.0026040732 0.00041838424)
(0.090618144 -0.002667295 0.00043706193)
(0.087552875 -0.0026461445 0.00038003212)
(0.084625088 -0.0025705994 0.00023114794)
(0.081769359 -0.0024795558 -4.1121173e-05)
(0.078880508 -0.0024262871 -0.00049218911)
(0.075800437 -0.0024982051 -0.0012208491)
(0.072220115 -0.0028840015 -0.0024231944)
(0.067526423 -0.0040683386 -0.0044393252)
(0.060420243 -0.00742822 -0.0079578048)
(0.049146412 -0.016435795 -0.014532998)
(0.02710407 -0.022984312 -0.02524883)
(-0.001362601 -0.0093189698 -0.030837405)
(-0.023153167 0.0030857012 -0.025367979)
(-0.037062528 0.0045184203 -0.017731917)
(-0.040161647 0.0026014728 -0.0050387989)
(-0.029697038 0.00055839483 0.016290342)
(-0.021104355 0.001439325 0.032306216)
(-0.011657782 0.0020937847 0.041603979)
(-0.004008107 0.0014357309 0.046308788)
(0.0010743881 -0.00061368247 0.047793866)
(0.0027679567 -0.0043044047 0.04686946)
(0.00090535903 -0.010620947 0.043561613)
(-0.010726236 -0.020661249 0.027412337)
(-0.024088896 -0.022972405 -0.011071274)
(-0.026416968 -0.0039072636 -0.056508615)
(-0.00241124 0.023778461 -0.087457312)
(0.038658325 0.052195395 -0.11245059)
(0.10579579 -0.0025078986 3.8562954e-05)
(0.12026299 -0.0025846642 6.6477891e-05)
(0.13324434 -0.0024077497 7.534656e-05)
(0.14381591 -0.0019488416 6.4324849e-05)
(0.15308803 -0.0012779175 3.4664712e-05)
(0.16156942 -0.00057375801 -1.3976431e-05)
(0.16930847 6.2521785e-05 -8.4196779e-05)
(0.17630352 0.0006064763 -0.00017869554)
(0.18261084 0.0010500137 -0.0003018699)
(0.18833937 0.001360919 -0.00046003997)
(0.19369084 0.0014480106 -0.00064730044)
(0.19912424 0.0011438746 -0.0008202276)
(0.20485684 0.00050383502 -0.00084258791)
(0.21109257 0.00033308203 -0.00051495132)
(0.2177637 0.0013277038 0.00010540333)
(0.22401313 0.0025766321 0.00078676024)
(0.22904008 0.003910189 0.0014417234)
(0.23339397 0.0056240101 0.0022471427)
(0.23773302 0.0077537081 0.0034160335)
(0.24253989 0.010216548 0.0051745415)
(0.24803104 0.012954857 0.0078252626)
(0.25386491 0.016054677 0.011674466)
(0.25902997 0.019559832 0.016882211)
(0.2622641 0.023232788 0.023271372)
(0.26252823 0.026831541 0.030254709)
(0.25894024 0.030409325 0.036775324)
(0.2500191 0.034689791 0.041337006)
(0.23289753 0.040723387 0.042146702)
(0.2041731 0.050598479 0.036487107)
(0.10922058 0.073050334 0.022072542)
(0.099803156 -0.0039579107 4.0578053e-05)
(0.1001301 -0.0047880007 7.4951256e-05)
(0.10162471 -0.0049056798 9.0681941e-05)
(0.10387698 -0.0045707862 8.4348448e-05)
(0.10661697 -0.0039751795 5.554351e-05)
(0.10970123 -0.0033593504 1.4999441e-06)
(0.11299653 -0.0028536439 -8.3696295e-05)
(0.11639673 -0.0025096116 -0.00020515657)
(0.11986605 -0.0023966474 -0.00037720721)
(0.12349447 -0.0026989697 -0.00061074862)
(0.12761666 -0.0038438649 -0.00089919154)
(0.13306791 -0.0065841973 -0.0011838073)
(0.14089212 -0.010836178 -0.0012918427)
(0.15115575 -0.01030365 -0.00081244217)
(0.16058052 -0.0061294116 -0.00025286129)
(0.16769772 -0.0020776416 -0.00022897627)
(0.17397836 0.00090271119 -0.00066259013)
(0.18017757 0.0031573556 -0.001239818)
(0.18639501 0.00509824 -0.0018315084)
(0.19334761 0.0071561519 -0.0024603572)
(0.2017005 0.010208643 -0.0028759094)
(0.21157766 0.015466949 -0.0025542456)
(0.2221053 0.023502639 -0.0010637613)
(0.23192586 0.033720338 0.0016791662)
(0.23979429 0.044835643 0.005421782)
(0.24437566 0.056334946 0.0093217623)
(0.24310148 0.069122912 0.011853775)
(0.23182628 0.083409609 0.011351849)
(0.20895176 0.10108819 0.0054035497)
(0.13069935 0.12828419 -0.0093532524)
(0.099948495 -0.0029524477 4.0154405e-05)
(0.099666112 -0.0042774958 7.3877485e-05)
(0.099125618 -0.0046997696 8.9704572e-05)
(0.098530808 -0.0048146393 8.3338069e-05)
(0.098020603 -0.0048138578 5.2695718e-05)
(0.097630637 -0.0047715948 -7.2429858e-06)
(0.097314788 -0.0047516155 -0.00010497073)
(0.096981856 -0.0048383633 -0.00025290847)
(0.096530498 -0.0051846471 -0.00047700207)
(0.095887957 -0.0061411386 -0.00081297909)
(0.095174314 -0.0085278754 -0.0013040749)
(0.095387497 -0.014127658 -0.0019971818)
(0.096805218 -0.025115977 -0.0030167994)
(0.1013173 -0.023189189 -0.0030912005)
(0.10590841 -0.016410919 -0.0018430546)
(0.10526637 -0.010208627 -0.0018885789)
(0.10178687 -0.0046210986 -0.0030450095)
(0.096164165 -7.2680791e-05 -0.0050225478)
(0.090686148 0.0021813114 -0.0079551668)
(0.08472777 0.0016287947 -0.011752485)
(0.077052037 -0.00074035379 -0.015189645)
(0.071172914 -0.00209316 -0.016429061)
(0.07481169 0.00066552025 -0.01426175)
(0.089363071 0.0084476511 -0.010029963)
(0.11389919 0.021536852 -0.0064909513)
(0.13622409 0.037493973 -0.0039177451)
(0.15299585 0.054453163 -0.0040005177)
(0.15877336 0.073214827 -0.0078821144)
(0.15467538 0.097439487 -0.016467248)
(0.10823003 0.13202867 -0.030026084)
(0.097938341 -0.0015816455 3.869517e-05)
(0.096239217 -0.0023527145 7.0160372e-05)
(0.093552491 -0.0026039739 8.3275517e-05)
(0.090374315 -0.0026662035 7.3441607e-05)
(0.087202725 -0.0026439476 3.7776872e-05)
(0.08413874 -0.0025678482 -3.0039817e-05)
(0.081092043 -0.0024775341 -0.00014021678)
(0.077899495 -0.0024354314 -0.00031272129)
(0.074292413 -0.0025508059 -0.00059015317)
(0.06975657 -0.0030856057 -0.0010505286)
(0.063210136 -0.0047728976 -0.0018530774)
(0.052188245 -0.0099278011 -0.0034182769)
(0.034532409 -0.023947763 -0.0072487248)
(-0.013469812 -0.0099733526 -0.016810045)
(-0.040648129 0.005088812 -0.014810587)
(-0.059922442 0.0073401438 -0.010628502)
(-0.073251037 0.0068543343 -0.006424362)
(-0.080349999 0.0037041713 -0.00084998514)
(-0.081059059 -0.0010320562 0.0058480704)
(-0.075457739 -0.0057810386 0.012638749)
(-0.066873158 -0.010165375 0.01708992)
(-0.058992552 -0.014369611 0.019910952)
(-0.051794449 -0.017968087 0.021380447)
(-0.043749809 -0.019318795 0.021380205)
(-0.032985551 -0.015413909 0.019548452)
(-0.015631262 -0.0009393 0.012392288)
(0.018871882 0.032076023 -0.00224092)
(0.026183887 0.050293724 -0.016349063)
(0.039698982 0.076370305 -0.034809071)
(0.057524081 0.11132202 -0.052356224)
(0.10579462 -0.0025080466 -6.3315267e-05)
(0.12025926 -0.0025853458 -0.00011094942)
(0.13323786 -0.0024090176 -0.00013551069)
(0.14380687 -0.0019506986 -0.00013773377)
(0.15307682 -0.0012804287 -0.00012053672)
(0.16155701 -0.00057699395 -8.5026592e-05)
(0.16929475 5.913826e-05 -2.9350711e-05)
(0.1762924 0.00060498695 4.9330183e-05)
(0.18260827 0.0010530089 0.00015126607)
(0.1883454 0.0013777243 0.00027926272)
(0.19368744 0.0014997681 0.00041181555)
(0.1990184 0.0012580618 0.00045659952)
(0.20439775 0.00060733188 0.00014960992)
(0.20999933 5.9291279e-05 -0.00089037352)
(0.21621965 0.00086290826 -0.0024296995)
(0.22215675 0.0021291652 -0.003958162)
(0.22696014 0.0033314676 -0.0053642631)
(0.23076425 0.0046679837 -0.0069696567)
(0.23435505 0.0062390593 -0.0091544942)
(0.23844373 0.0077705181 -0.01217548)
(0.24352887 0.0092773512 -0.016206487)
(0.24948865 0.011146802 -0.021347946)
(0.255362 0.013638013 -0.027543076)
(0.25978173 0.016546123 -0.034467685)
(0.2615528 0.019720062 -0.041456965)
(0.25958407 0.023300603 -0.047421267)
(0.2523348 0.027818784 -0.050849812)
(0.23699982 0.034557227 -0.049880868)
(0.21005393 0.045741277 -0.042084496)
(0.11758255 0.070107464 -0.025518734)
(0.099802923 -0.003958074 -6.0891936e-05)
(0.10012912 -0.0047887379 -0.00010687579)
(0.10162276 -0.0049069677 -0.00012522884)
(0.10387463 -0.0045724257 -0.00011402078)
(0.10661573 -0.0039768828 -7.4206162e-05)
(0.10970378 -0.0033604429 -4.0089511e-06)
(0.11300466 -0.0028516371 0.00010189255)
(0.1164134 -0.0024981181 0.00024800173)
(0.11989418 -0.0023634625 0.00044583064)
(0.12352369 -0.0026111798 0.00069716574)
(0.12759238 -0.0036277747 0.00096542612)
(0.13282341 -0.0061353719 0.00110735)
(0.14024891 -0.010463426 0.00074677753)
(0.14983653 -0.01164423 -0.00068592432)
(0.15927132 -0.0079994828 -0.0020444953)
(0.16630302 -0.0037326202 -0.0023400853)
(0.1717037 -0.00080546866 -0.0018884354)
(0.17672364 0.00079635685 -0.0013001869)
(0.18171378 0.0013209077 -0.00081944866)
(0.18645375 0.001413528 -0.00037657668)
(0.19167515 0.0018611242 2.1256424e-05)
(0.19847879 0.0039140399 -0.00010446653)
(0.20853968 0.0092325984 -0.0015880846)
(0.21957695 0.018002488 -0.0044323817)
(0.22934583 0.029002247 -0.0082277082)
(0.23634904 0.041212599 -0.012023985)
(0.23798137 0.054816036 -0.01422255)
(0.23041581 0.070733966 -0.012628825)
(0.21167544 0.091177452 -0.0048658968)
(0.14092091 0.12206544 0.011836114)
(0.099948287 -0.0029524986 -6.0312147e-05)
(0.099665404 -0.0042776267 -0.00010515912)
(0.099124635 -0.00469986 -0.00012230871)
(0.098530753 -0.0048143397 -0.00010802975)
(0.098024138 -0.004812484 -6.0598736e-05)
(0.097643059 -0.0047677293 2.5321599e-05)
(0.097343386 -0.0047419412 0.00015980877)
(0.097038998 -0.0048135598 0.00035847909)
(0.096638878 -0.0051235031 0.00065181284)
(0.096075078 -0.0059884251 0.0010790417)
(0.095423466 -0.0081428447 0.0016738713)
(0.095389503 -0.013192814 0.0024030879)
(0.09679682 -0.023401911 0.002969368)
(0.09903487 -0.025570317 0.0016716704)
(0.10399232 -0.019034055 -0.00077277617)
(0.10290371 -0.012426348 -0.00038226085)
(0.099472272 -0.0068096399 0.0017843786)
(0.092875148 -0.0025197613 0.004851819)
(0.085460968 -0.0011746282 0.0085543926)
(0.075928121 -0.0032527034 0.013173246)
(0.064624895 -0.0076873603 0.017711494)
(0.053313108 -0.01188463 0.019857472)
(0.045633201 -0.013426004 0.018431725)
(0.053971429 -0.0094284741 0.014605675)
(0.076421848 0.00039365141 0.011875141)
(0.10917929 0.017319128 0.011740596)
(0.13256578 0.035846722 0.012363634)
(0.14517436 0.057115994 0.016829767)
(0.14803823 0.08462124 0.026492414)
(0.11337642 0.12245145 0.040721953)
(0.09793814 -0.0015816676 -5.8582344e-05)
(0.096238561 -0.0023527342 -0.00010109979)
(0.093551777 -0.0026039436 -0.00011554879)
(0.090375186 -0.0026659971 -9.7559605e-05)
(0.087208864 -0.0026433009 -4.4081677e-05)
(0.084157816 -0.002566102 5.2601052e-05)
(0.081137932 -0.0024730311 0.0002067297)
(0.077998864 -0.0024226828 0.00044706981)
(0.074505328 -0.0025158873 0.00083437178)
(0.070213573 -0.0029862688 0.0014844113)
(0.064192238 -0.0044691869 0.0026333193)
(0.05432676 -0.0089123655 0.0048380997)
(0.038749851 -0.0210301 0.0096513217)
(-0.0011523701 -0.018254622 0.018440278)
(-0.039228839 0.0027492035 0.016596843)
(-0.058925181 0.0061512034 0.014788142)
(-0.074822136 0.006514805 0.013993378)
(-0.082586508 0.003911948 0.011468826)
(-0.083935984 -0.00073677227 0.006895861)
(-0.075219057 -0.0059503998 0.00010037286)
(-0.065137265 -0.010415489 -0.0055160315)
(-0.055741997 -0.014593684 -0.00911956)
(-0.048477 -0.019523454 -0.010625564)
(-0.042222781 -0.023754641 -0.01069046)
(-0.035577679 -0.023881891 -0.0096030585)
(-0.032125139 -0.015546974 -0.0037999985)
(0.0011128731 0.016989717 0.015955939)
(0.011332996 0.039448447 0.032176195)
(0.028432113 0.068134913 0.050528265)
(0.05230277 0.10414692 0.066472072)
(0.10581147 -0.0025040287 -0.00020066127)
(0.12031828 -0.0025780014 -0.00035849615)
(0.1333478 -0.0023992307 -0.00045042498)
(0.14396418 -0.0019399878 -0.00047927229)
(0.15327583 -0.001271155 -0.00045230471)
(0.16179685 -0.00057091638 -0.00037159673)
(0.16958108 6.1681008e-05 -0.00023895178)
(0.17662573 0.00060355671 -5.9912854e-05)
(0.18299757 0.0010656593 0.00016928139)
(0.18879713 0.0014375796 0.00043421976)
(0.19414615 0.0016747222 0.00067419559)
(0.19925034 0.001665535 0.00071498095)