/*--------------------------------*- C++ -*----------------------------------*\
| =========                 |                                                 |
| \\      /  F ield         | OpenFOAM: The Open Source CFD Toolbox           |
|  \\    /   O peration     | Version:  v2012                                 |
|   \\  /    A nd           | Website:  www.openfoam.com                      |
|    \\/     M anipulation  |                                                 |
\*---------------------------------------------------------------------------*/
FoamFile
{
    version     2.0;
    format      ascii;
    class       volScalarField;
    location    "670/heater";
    object      T;
}
// * * * * * * * * * * * * * * * * * * * * * * * * * * * * * * * * * * * * * //

dimensions      [0 0 0 1 0 0 0];


internalField   nonuniform List<scalar> 
80
(
732.17386
734.26443
738.37602
744.25376
723.02099
725.44567
730.23603
737.16782
703.56429
706.70071
713.00368
722.36272
671.71339
675.64383
684.11656
697.85849
345.52347
342.79829
342.79487
345.43615
422.19482
418.85723
419.01193
422.46191
487.78609
485.00191
485.64284
489.22721
543.60253
541.92827
543.77489
548.15029
589.81486
590.0222
594.56726
602.01931
624.96215
628.56081
637.9778
657.01178
345.52074
342.81187
342.82643
345.48638
422.21007
418.89795
419.07653
422.54492
487.79575
485.04303
485.70918
489.32757
543.62145
541.9532
543.83209
548.25576
589.81321
590.03783
594.62007
602.11952
624.99276
628.60462
638.0426
657.09651
671.83247
675.81129
684.34879
698.11254
703.90708
707.08078
713.4314
722.77274
723.55924
726.01171
730.80437
737.6479
732.85989
734.92978
738.97564
744.73317
)
;

boundaryField
{
    minY
    {
        type            fixedValue;
        value           uniform 300;
    }
    minZ
    {
        type            zeroGradient;
    }
    maxZ
    {
        type            zeroGradient;
    }
    heater_to_topAir
    {
        type            compressible::turbulentTemperatureCoupledBaffleMixed;
        refValue        nonuniform List<scalar> 
40
(
518.88264
515.62767
509.9036
502.53781
481.50666
469.23501
456.35583
445.15562
491.94254
480.5309
468.6881
457.83608
506.75348
502.98748
501.6764
502.12738
504.85115
502.82451
503.88029
505.90172
505.4886
502.75309
503.26971
505.53093
508.57946
504.82277
503.35242
503.80372
493.89542
483.04326
471.31767
460.16144
482.70873
470.93499
458.38004
447.26569
519.22817
516.18346
510.70865
503.57258
)
;
        refGradient     uniform 0;
        valueFraction   nonuniform List<scalar> 
40
(
0.00032132529
0.00032132529
0.00032132529
0.00032132529
0.00032132529
0.00032132529
0.00032132529
0.00032132529
0.00032132529
0.00032132529
0.00032132529
0.00032132529
0.00032132529
0.00032132529
0.00032132529
0.00032132529
0.00032132529
0.00032132529
0.00032132529
0.00032132529
0.00032132529
0.00032132529
0.00032132529
0.00032132529
0.00032132529
0.00032132529
0.00032132529
0.00032132529
0.00032132529
0.00032132529
0.00032132529
0.00032132529
0.00032132529
0.00032132529
0.00032132529
0.00032132529
0.00032132529
0.00032132529
0.00032132529
0.00032132529
)
;
        value           nonuniform List<scalar> 
40
(
732.10573
734.19458
738.30304
744.17657
722.94378
725.36373
730.14843
737.07442
703.4967
706.62844
712.92559
722.27814
671.66079
675.58875
684.05838
697.79605
624.92395
628.52078
637.93508
656.96358
624.95473
628.56453
637.99961
657.04811
671.78036
675.75667
684.29092
698.05038
703.83998
707.00913
713.3539
722.68863
723.48236
725.93016
730.71718
737.55488
732.792
734.86006
738.90274
744.65605
)
;
        Tnbr            T;
        thicknessLayers List<scalar> 0();
        kappaLayers     List<scalar> 0();
        kappaMethod     solidThermo;
        kappa           none;
        alphaAni        none;
        alpha           none;
        field           T;
    }
    heater_to_rightSolid
    {
        type            compressible::turbulentTemperatureCoupledBaffleMixed;
        refValue        nonuniform List<scalar> 10(751.48385 745.70369 734.06787 716.64199 696.05817 696.16045 716.86325 734.35981 746.03989 751.80749);
        refGradient     uniform 0;
        valueFraction   nonuniform List<scalar> 10(0.49999997 0.49999997 0.49999997 0.49999997 0.49999997 0.49999997 0.49999997 0.49999997 0.49999997 0.49999997);
        value           nonuniform List<scalar> 10(747.86904 741.43597 728.2155 707.25047 676.53515 676.62863 707.48804 728.56641 741.84404 748.27051);
        Tnbr            T;
        thicknessLayers List<scalar> 0();
        kappaLayers     List<scalar> 0();
        kappaMethod     solidThermo;
        kappa           none;
        alphaAni        none;
        alpha           none;
        field           T;
    }
    heater_to_leftSolid
    {
        type            compressible::turbulentTemperatureCoupledBaffleMixed;
        refValue        nonuniform List<scalar> 10(921.70562 921.71971 921.81733 921.91961 922.06543 922.31431 922.65087 923.06831 923.35064 923.49492);
        refGradient     uniform 0;
        valueFraction   nonuniform List<scalar> 10(2.0832898e-05 2.0832898e-05 2.0832898e-05 2.0832898e-05 2.0832898e-05 2.0832898e-05 2.0832898e-05 2.0832898e-05 2.0832898e-05 2.0832898e-05);
        value           nonuniform List<scalar> 10(732.17821 723.02553 703.56925 671.71901 624.96873 624.99933 671.83804 703.91203 723.56391 732.86461);
        Tnbr            T;
        thicknessLayers List<scalar> 1(0.001);
        kappaLayers     List<scalar> 1(0.0005);
        kappaMethod     solidThermo;
        kappa           none;
        alphaAni        none;
        alpha           none;
        field           T;
    }
    heater_to_bottomWater
    {
        type            compressible::turbulentTemperatureCoupledBaffleMixed;
        refValue        nonuniform List<scalar> 
92
(
924.322
919.81845
919.37759
920.00897
933.41509
926.95261
918.20563
918.54078
933.24056
931.58551
921.01796
915.98715
932.91212
925.09545
918.22635
916.59724
924.20131
920.37008
914.22057
911.51291
923.34038
921.96305
918.38308
910.66127
924.55893
923.72859
917.37473
909.65748
929.96184
929.96184
924.66688
924.66688
915.38226
915.38226
912.63613
912.63613
929.80831
905.31655
931.23628
904.47448
928.18464
897.2611
925.1589
906.38377
931.75665
901.85198
930.01121
926.69311
926.19373
925.53715
909.90174
924.34009
931.22351
924.64702
928.7006
927.50421
905.7409
925.80546
925.08528
924.54584
929.91054
927.92722
900.08467
925.63288
928.10833
921.85209
922.50666
923.25854
911.36565
923.16086
932.48118
920.461
920.43775
920.74279
908.64201
921.16788
920.461
920.43775
920.74279
921.16788
931.55979
932.85045
931.76937
931.67062
931.69751
933.16453
932.92237
929.35083
928.25935
926.62978
926.43863
925.3701
)
;
        refGradient     uniform 0;
        valueFraction   nonuniform List<scalar> 
92
(
0.0075140686
0.0075140686
0.0075140686
0.0075140686
0.0075140686
0.0075140686
0.0075140686
0.0075140686
0.0075140686
0.0075140686
0.0075140686
0.0075140686
0.0075140686
0.0075140686
0.0075140686
0.0075140686
0.0075140686
0.0075140686
0.0075140686
0.0075140686
0.0075140686
0.0075140686
0.0075140686
0.0075140686
0.0075140686
0.0075140686
0.0075140686
0.0075140686
0.0075140686
0.0075140686
0.0075140686
0.0075140686
0.0075140686
0.0075140686
0.0075140686
0.0075140686
0.0075140679
0.0075140679
0.0075140679
0.0075140679
0.0075140679
0.0075140679
0.0075140679
0.0075140679
0.0075140679
0.0075140679
0.0075140679
0.0075140686
0.0075140686
0.0075140686
0.0075140679
0.0075140686
0.0075140679
0.0075140686
0.0075140686
0.0075140686
0.0075140679
0.0075140686
0.0075140679
0.0075140686
0.0075140686
0.0075140686
0.0075140679
0.0075140686
0.0075140679
0.0075140686
0.0075140686
0.0075140686
0.0075140679
0.0075140686
0.0075140679
0.0075140686
0.0075140686
0.0075140686
0.0075140679
0.0075140686
0.0075140686
0.0075140686
0.0075140686
0.0075140686
0.0075140686
0.0075140686
0.0075140686
0.0075140686
0.0075140686
0.0075140686
0.0075140686
0.0075140686
0.0075140686
0.0075140686
0.0075140686
0.0075140686
)
;
        value           nonuniform List<scalar> 
92
(
733.61808
735.65909
739.73651
745.57487
724.6023
726.9602
731.64885
738.5311
705.2905
708.39091
714.56712
723.81804
349.93718
347.17376
347.11874
349.72793
425.96708
422.6258
422.73313
426.13687
491.05914
488.28553
488.89474
492.39416
546.46544
544.79749
546.58246
550.86695
673.65429
592.3712
677.5154
592.53711
685.85475
596.97824
699.4728
604.35362
349.91386
349.64317
426.01994
426.08398
491.09554
492.29347
546.46995
550.84235
592.38469
604.27258
349.9127
349.88777
347.1955
347.205
349.72741
349.8359
426.035
425.98558
422.72881
422.89703
426.17581
426.32658
491.08189
491.07783
488.38607
489.03226
492.41423
492.6062
546.51093
546.46392
544.81305
546.6834
550.98437
551.073
592.38847
592.29815
592.52083
597.07086
604.42297
604.51709
673.70103
677.64975
686.12536
699.78887
705.61806
708.77757
715.0723
724.34268
725.12371
727.56868
732.32345
739.08866
734.32888
736.3708
740.38469
746.09085
)
;
        Tnbr            T;
        thicknessLayers List<scalar> 0();
        kappaLayers     List<scalar> 0();
        kappaMethod     solidThermo;
        kappa           none;
        alphaAni        none;
        alpha           none;
        field           T;
    }
}


// ************************************************************************* //
