/*--------------------------------*- C++ -*----------------------------------*\
| =========                 |                                                 |
| \\      /  F ield         | OpenFOAM: The Open Source CFD Toolbox           |
|  \\    /   O peration     | Version:  v2012                                 |
|   \\  /    A nd           | Website:  www.openfoam.com                      |
|    \\/     M anipulation  |                                                 |
\*---------------------------------------------------------------------------*/
FoamFile
{
    version     2.0;
    format      ascii;
    class       volScalarField;
    location    "110/bottomWater";
    object      p;
}
// * * * * * * * * * * * * * * * * * * * * * * * * * * * * * * * * * * * * * //

dimensions      [1 -1 -2 0 0 0 0];


internalField   nonuniform List<scalar> 
1460
(
353.41744
353.41365
353.42061
353.42401
353.42821
353.42153
353.4276
353.41322
353.42335
353.42072
353.42044
353.42494
353.42666
353.40542
353.42224
353.41709
353.40735
353.42145
353.40475
353.41029
353.41256
353.41087
353.41898
353.41115
353.41911
353.4177
353.41769
353.42119
353.40571
353.41278
274.45971
274.471
274.50688
274.52659
274.52287
274.51359
274.51388
274.4642
274.45357
274.45264
274.46217
274.5295
274.53598
274.47047
274.52816
274.52293
274.50029
274.52414
274.46678
274.45982
274.45475
274.46791
274.50465
274.49944
274.51333
274.52176
274.52645
274.51692
274.4674
274.4684
196.27176
196.2424
196.24609
196.26699
196.24815
196.26167
196.2285
196.24855
196.26324
196.27119
196.23279
196.23328
196.22824
196.28117
196.25314
196.2514
196.28188
196.23928
196.24503
196.26981
196.2671
196.25769
196.2349
196.2607
196.25357
196.25565
196.27374
196.22597
196.24291
196.26717
117.68006
117.65097
117.66728
117.68285
117.70598
117.67012
117.65114
117.63402
117.69083
117.69573
117.66004
117.68182
117.67083
117.69226
117.71336
117.70233
117.67294
117.67966
117.65904
117.69442
117.68363
117.62513
117.64284
117.65882
117.68801
117.68603
117.68415
117.66027
117.65701
117.68674
39.246674
39.247507
39.231962
39.225337
39.23669
39.216524
39.239493
39.252952
39.259692
39.261174
39.248685
39.248397
39.236386
39.223181
39.236829
39.229474
39.236129
39.252807
39.251035
39.259585
39.261351
39.262945
39.250335
39.221358
39.230124
39.232092
39.21686
39.242799
39.247841
39.249549
353.42028
353.41826
353.4147
353.42517
353.41116
353.40663
353.42544
353.4159
353.4235
353.42139
353.4198
353.41887
353.42707
353.40195
353.4163
353.40299
353.42607
353.41316
353.41054
353.4139
353.4115
353.40871
353.40647
353.40689
353.40905
353.41042
353.42044
353.40725
353.41113
353.41293
274.45194
274.45013
274.46584
274.49238
274.46639
274.46469
274.48508
274.46234
274.44012
274.4466
274.44898
274.48668
274.49278
274.46274
274.47
274.46951
274.50624
274.48328
274.45824
274.45048
274.44352
274.46284
274.47324
274.46519
274.46509
274.47581
274.49617
274.46741
274.45488
274.45815
196.29962
196.25743
196.25548
196.22929
196.27569
196.2743
196.22379
196.25684
196.25353
196.29578
196.25189
196.23529
196.21857
196.27673
196.26964
196.25387
196.22971
196.2419
196.25725
196.28441
196.26521
196.2821
196.25872
196.29399
196.27016
196.25659
196.24227
196.25107
196.25974
196.29312
117.68005
117.66549
117.64625
117.66505
117.67036
117.66275
117.65144
117.63103
117.68674
117.69179
117.66925
117.66176
117.66379
117.67071
117.68348
117.67116
117.66661
117.66937
117.67707
117.69095
117.67381
117.62623
117.62831
117.65498
117.67334
117.63559
117.66542
117.65572
117.67367
117.68079
39.259099
39.249181
39.250857
39.236805
39.231347
39.229141
39.246423
39.263671
39.265452
39.269636
39.248731
39.252637
39.245113
39.227829
39.227797
39.229054
39.245429
39.251052
39.252611
39.268807
39.258403
39.263663
39.266015
39.227616
39.241145
39.251446
39.229014
39.242444
39.244653
39.252883
353.41255
353.41365
353.41098
353.40474
353.40782
353.40705
353.39906
353.40932
353.41268
353.40787
353.41588
353.41365
353.41293
353.41267
353.4138
353.40552
353.40737
353.41116
353.40885
353.4075
353.40693
353.42118
353.41406
353.412
353.41256
353.4095
353.40653
353.40899
353.40798
353.40885
274.45291
274.4624
274.45254
274.4692
274.45128
274.45545
274.46716
274.46955
274.46161
274.45731
274.45464
274.4601
274.46594
274.46358
274.44731
274.45176
274.45831
274.46317
274.45629
274.46967
274.46501
274.49479
274.47089
274.44824
274.44916
274.44959
274.46316
274.46157
274.46856
274.47411
196.29819
196.29171
196.29042
196.27927
196.29065
196.28691
196.27774
196.28413
196.27996
196.28262
196.28502
196.28538
196.28092
196.28975
196.29077
196.28614
196.27843
196.28961
196.26722
196.25346
196.25346
196.24213
196.24691
196.25871
196.29314
196.29403
196.28972
196.29921
196.3002
196.30363
117.66266
117.62642
117.67074
117.65748
117.66327
117.67283
117.64282
117.64127
117.64385
117.64348
117.66881
117.67605
117.65522
117.6592
117.68112
117.67139
117.65551
117.67799
117.68015
117.66172
117.66677
117.67626
117.6536
117.68621
117.68202
117.67004
117.6449
117.66515
117.61992
117.62728
39.264072
39.264011
39.241895
39.244882
39.251602
39.239377
39.245865
39.278211
39.272766
39.254172
39.247889
39.253724
39.267465
39.250684
39.25398
39.249676
39.27108
39.261931
39.245709
39.248929
39.240134
39.236036
39.248881
39.243386
39.253847
39.25582
39.25861
39.239616
39.252144
39.279612
353.4162
353.42537
353.41358
353.41256
353.41515
353.4149
353.41173
353.41294
353.41955
353.41399
353.41877
353.40911
353.41254
353.40084
353.41481
353.40743
353.40683
353.40676
353.40542
353.41461
353.41663
353.40807
353.41615
353.40524
353.41463
353.41568
353.415
353.41681
353.42037
353.40794
274.4708
274.48255
274.46639
274.44595
274.44709
274.44723
274.44637
274.46526
274.48834
274.48931
274.48594
274.46797
274.45511
274.44499
274.44946
274.45565
274.4503
274.45139
274.46184
274.49352
274.50379
274.50254
274.49394
274.45479
274.44979
274.44876
274.44757
274.48038
274.49032
274.47527
196.27377
196.25103
196.25945
196.26029
196.30329
196.29816
196.25523
196.25083
196.23596
196.25926
196.24188
196.25115
196.26511
196.29198
196.31466
196.30938
196.28435
196.26423
196.23326
196.23722
196.24094
196.26745
196.22947
196.25012
196.27742
196.29669
196.25794
196.24056
196.25258
196.27884
117.65594
117.66147
117.64154
117.66847
117.68246
117.67897
117.66741
117.64739
117.66624
117.66575
117.67422
117.65399
117.66678
117.67308
117.69266
117.68734
117.68374
117.67548
117.64653
117.67514
117.68212
117.67067
117.65325
117.65087
117.68621
117.68304
117.66244
117.64463
117.66978
117.66736
39.245788
39.23251
39.252334
39.252626
39.264263
39.258316
39.252746
39.252386
39.240641
39.229249
39.232083
39.237975
39.244001
39.253687
39.264517
39.261757
39.261364
39.250125
39.244529
39.238862
39.231944
39.239435
39.255511
39.257646
39.261684
39.269644
39.251325
39.249731
39.229926
39.241188
353.42619
353.41344
353.42059
353.41418
353.41746
353.41417
353.4059
353.42236
353.41459
353.41768
353.42142
353.42312
353.42009
353.41934
353.41936
353.4204
353.42037
353.41053
353.42101
353.40312
353.40763
353.41172
353.41017
353.4083
353.4108
353.42123
274.50416
274.47044
274.48129
274.46303
274.44361
274.4523
274.45068
274.50989
274.51041
274.5129
274.51953
274.50442
274.49084
274.47309
274.49499
274.52482
274.52813
274.51048
274.52196
274.45878
274.45163
274.44909
274.47166
274.47764
274.46855
274.50724
196.26567
196.29946
196.26252
196.28097
196.28197
196.27667
196.2423
196.23303
196.26468
196.25732
196.26349
196.26241
196.27504
196.2661
196.23876
196.25647
196.24283
196.26528
196.22677
196.24039
196.2691
196.28507
196.28777
196.28778
196.29575
196.27332
117.68529
117.65654
117.64233
117.62588
117.68516
117.68565
117.64943
117.6576
117.66991
117.68565
117.69634
117.67768
117.66128
117.66861
117.66338
117.6908
117.69855
117.67778
117.66351
117.65732
117.68486
117.68216
117.62186
117.64381
117.65451
117.69367
39.231356
39.226542
39.256699
39.269795
39.269917
39.260267
39.254023
39.249822
39.231005
39.223925
39.228964
39.219334
39.230212
39.232944
39.225662
39.231189
39.229989
39.22436
39.245745
39.253686
39.25691
39.268322
39.267794
39.252918
39.219454
39.234878
353.42285
353.41042
353.41397
353.40892
353.41358
353.41244
353.40357
353.4222
353.4159
353.41971
353.42472
353.42636
353.42324
353.41875
353.41917
353.41907
353.41845
353.40734
353.421
353.40495
353.41147
353.41766
353.41557
353.415
353.42597
353.42827
274.50507
274.46887
274.48105
274.46945
274.44595
274.45405
274.45216
274.50839
274.51283
274.51737
274.52167
274.50281
274.48542
274.47435
274.49591
274.52517
274.52625
274.50529
274.52199
274.46062
274.45097
274.44811
274.46152
274.49653
274.51288
274.52057
196.26867
196.29738
196.27476
196.28121
196.28131
196.27429
196.24049
196.23273
196.25925
196.25318
196.26018
196.25963
196.27375
196.26733
196.24223
196.25675
196.24482
196.27162
196.23175
196.24082
196.26551
196.28253
196.2627
196.24906
196.2372
196.25997
117.68704
117.66242
117.64696
117.6244
117.68311
117.68446
117.65017
117.65803
117.67224
117.68705
117.69652
117.67616
117.66009
117.66688
117.66474
117.69295
117.69373
117.67339
117.66408
117.65619
117.68335
117.68904
117.63186
117.65748
117.63584
117.67997
39.231894
39.222554
39.248139
39.26398
39.264567
39.259481
39.253963
39.248887
39.229679
39.225416
39.229731
39.220746
39.233255
39.23267
39.224713
39.231688
39.227225
39.228989
39.248781
39.254961
39.257247
39.271158
39.267716
39.260655
39.241088
39.227489
353.41632
353.42799
353.4203
353.41742
353.41985
353.41979
353.41565
353.41598
353.42121
353.42003
353.42378
353.41193
353.41554
353.40566
353.41842
353.41202
353.41113
353.41057
353.407
353.4151
353.41506
353.41023
353.41512
353.40601
353.41357
353.41646
353.41491
353.4198
353.42172
353.40779
274.47171
274.4852
274.47198
274.44498
274.44323
274.44426
274.44107
274.45906
274.49691
274.4979
274.48754
274.46191
274.45283
274.44198
274.44732
274.45185
274.44889
274.45068
274.46116
274.49312
274.50258
274.50801
274.49538
274.45487
274.44927
274.44765
274.44709
274.47086
274.49149
274.47453
196.27805
196.25298
196.24379
196.25715
196.29594
196.30223
196.25521
196.24405
196.23584
196.24987
196.2296
196.24002
196.26154
196.28881
196.3159
196.30546
196.28227
196.26092
196.23122
196.23836
196.24154
196.25842
196.23138
196.24957
196.27684
196.29983
196.26143
196.24691
196.24911
196.27496
117.65758
117.66276
117.64701
117.65962
117.68339
117.68615
117.66536
117.64361
117.66791
117.66932
117.67445
117.651
117.66953
117.67364
117.69013
117.68291
117.67901
117.67358
117.64123
117.67969
117.67677
117.66681
117.65454
117.64917
117.68539
117.68326
117.66075
117.63862
117.6651
117.66535
39.239593
39.226606
39.244881
39.250609
39.262323
39.263674
39.254846
39.254254
39.236585
39.227845
39.229553
39.23407
39.238111
39.250389
39.260263
39.256709
39.256597
39.246872
39.241307
39.235994
39.230954
39.239916
39.254613
39.257431
39.261274
39.27223
39.254893
39.253152
39.236541
39.245232
353.41331
353.41396
353.41319
353.40949
353.41224
353.41374
353.4141
353.41474
353.42609
353.41402
353.42025
353.4188
353.41809
353.41675
353.4171
353.40872
353.41113
353.41283
353.40908
353.40637
353.40424
353.41691
353.41017
353.4101
353.41127
353.40969
353.40696
353.41034
353.40926
353.40992
274.46292
274.46842
274.45808
274.46932
274.44938
274.44789
274.458
274.46259
274.47428
274.45146
274.44942
274.45341
274.46089
274.45629
274.44238
274.45214
274.4684
274.46672
274.45795
274.47089
274.46665
274.49605
274.47452
274.45187
274.44958
274.45066
274.46341
274.45742
274.46665
274.47213
196.29658
196.29204
196.29184
196.26985
196.28814
196.28079
196.26416
196.26479
196.23354
196.2642
196.26671
196.28237
196.28487
196.28884
196.29022
196.27872
196.27098
196.2848
196.26656
196.25584
196.25357
196.23893
196.24455
196.25683
196.28495
196.28865
196.28084
196.29087
196.28814
196.2944
117.64044
117.61389
117.66
117.65018
117.65878
117.68037
117.66826
117.65255
117.66607
117.64206
117.6656
117.67992
117.64342
117.65402
117.6803
117.65934
117.64318
117.66744
117.6764
117.66242
117.6651
117.6809
117.66636
117.68938
117.68172
117.67072
117.64571
117.67141
117.6256
117.63097
39.268069
39.254334
39.236679
39.257759
39.243992
39.250975
39.239922
39.272286
39.261384
39.261364
39.245019
39.255599
39.274674
39.251045
39.245331
39.24283
39.26173
39.261212
39.243432
39.244319
39.242645
39.237274
39.242888
39.243536
39.251815
39.256052
39.259309
39.238527
39.249937
39.275405
353.42198
353.42037
353.41666
353.43157
353.41604
353.41424
353.42483
353.41687
353.42731
353.42554
353.42537
353.42554
353.43683
353.4055
353.42212
353.41152
353.43057
353.41957
353.41161
353.41302
353.41244
353.40879
353.40719
353.40398
353.40603
353.41082
353.41907
353.40931
353.41273
353.41414
274.45123
274.4494
274.46456
274.49384
274.46524
274.46438
274.4745
274.45724
274.4316
274.43818
274.44046
274.47455
274.48821
274.46798
274.4692
274.48121
274.50797
274.49508
274.45905
274.45249
274.44627
274.44698
274.47314
274.47059
274.4666
274.48785
274.49859
274.46822
274.45432
274.45721
196.29695
196.25562
196.25117
196.22333
196.26681
196.27297
196.23967
196.25636
196.25284
196.29772
196.24815
196.24871
196.21615
196.25948
196.27042
196.24436
196.22013
196.22912
196.25143
196.27675
196.28101
196.2726
196.25369
196.28774
196.2679
196.24773
196.23836
196.25018
196.2567
196.29285
117.67936
117.66694
117.64434
117.66119
117.66694
117.66823
117.66161
117.62878
117.67822
117.69377
117.68004
117.65263
117.66372
117.64655
117.67215
117.67615
117.66183
117.67226
117.67162
117.69019
117.68011
117.65851
117.63736
117.6662
117.66964
117.64486
117.66611
117.65587
117.67331
117.68172
39.255513
39.246062
39.247789
39.233841
39.227661
39.230674
39.232637
39.254103
39.255872
39.271714
39.25353
39.258425
39.258595
39.236588
39.222823
39.224921
39.240492
39.248227
39.247938
39.26064
39.257423
39.248799
39.250697
39.232709
39.233177
39.250639
39.228129
39.243178
39.244934
39.25417
353.41832
353.41148
353.42485
353.42433
353.43064
353.42543
353.42961
353.42039
353.42715
353.42507
353.42036
353.42715
353.43353
353.40877
353.42746
353.41963
353.41502
353.42567
353.40667
353.40792
353.41273
353.41061
353.41568
353.41082
353.41612
353.41801
353.41634
353.41832
353.4079
353.41294
274.46018
274.46318
274.50758
274.52215
274.52069
274.50891
274.50653
274.4631
274.4451
274.45187
274.45529
274.51316
274.53241
274.46804
274.52545
274.52884
274.49086
274.52881
274.4726
274.459
274.45615
274.45991
274.49949
274.50325
274.51234
274.52723
274.52581
274.50911
274.47086
274.46533
196.26876
196.24212
196.23425
196.27108
196.24779
196.25663
196.23513
196.2408
196.25668
196.27525
196.22999
196.2446
196.22785
196.27483
196.25172
196.25248
196.26358
196.23578
196.24569
196.26548
196.27472
196.25986
196.23267
196.25058
196.25106
196.25744
196.26702
196.24077
196.24335
196.26949
117.68199
117.64941
117.65851
117.67547
117.70428
117.67304
117.66615
117.63028
117.68812
117.69251
117.65388
117.67852
117.67024
117.67963
117.71153
117.69679
117.66427
117.68745
117.66804
117.68716
117.68103
117.64942
117.65005
117.66448
117.67913
117.6893
117.68591
117.66943
117.65128
117.68351
39.247427
39.246185
39.236207
39.21678
39.231741
39.222155
39.229175
39.246007
39.253629
39.261934
39.249702
39.244549
39.242457
39.222297
39.233163
39.223236
39.250208
39.250348
39.241426
39.248995
39.255756
39.25272
39.249453
39.231887
39.225827
39.233246
39.220563
39.233152
39.246131
39.246722
)
;

boundaryField
{
    minX
    {
        type            calculated;
        value           nonuniform List<scalar> 
50
(
353.41744
274.45971
196.27176
117.68006
39.246674
353.42028
274.45194
196.29962
117.68005
39.259099
353.41255
274.45291
196.29819
117.66266
39.264072
353.4162
274.4708
196.27377
117.65594
39.245788
353.42619
274.50416
196.26567
117.68529
39.231356
353.42285
274.50507
196.26867
117.68704
39.231894
353.41632
274.47171
196.27805
117.65758
39.239593
353.41331
274.46292
196.29658
117.64044
39.268069
353.42198
274.45123
196.29695
117.67936
39.255513
353.41832
274.46018
196.26876
117.68199
39.247427
)
;
    }
    maxX
    {
        type            calculated;
        value           nonuniform List<scalar> 
50
(
353.41278
274.4684
196.26717
117.68674
39.249549
353.41293
274.45815
196.29312
117.68079
39.252883
353.40885
274.47411
196.30363
117.62728
39.279612
353.40794
274.47527
196.27884
117.66736
39.241188
353.42123
274.50724
196.27332
117.69367
39.234878
353.42827
274.52057
196.25997
117.67997
39.227489
353.40779
274.47453
196.27496
117.66535
39.245232
353.40992
274.47213
196.2944
117.63097
39.275405
353.41414
274.45721
196.29285
117.68172
39.25417
353.41294
274.46533
196.26949
117.68351
39.246722
)
;
    }
    minY
    {
        type            calculated;
        value           nonuniform List<scalar> 
292
(
392.4
392.4
392.4
392.4
392.4
392.4
392.4
392.4
392.4
392.4
392.4
392.4
392.4
392.4
392.4
392.4
392.4
392.4
392.4
392.4
392.4
392.4
392.4
392.4
392.4
392.4
392.4
392.4
392.4
392.4
392.4
392.4
392.4
392.4
392.4
392.4
392.4
392.4
392.4
392.4
392.4
392.4
392.4
392.4
392.4
392.4
392.4
392.4
392.4
392.4
392.4
392.4
392.4
392.4
392.4
392.4
392.4
392.4
392.4
392.4
392.4
392.4
392.4
392.4
392.4
392.4
392.4
392.4
392.4
392.4
392.4
392.4
392.4
392.4
392.4
392.4
392.4
392.4
392.4
392.4
392.4
392.4
392.4
392.4
392.4
392.4
392.4
392.4
392.4
392.4
392.4
392.4
392.4
392.4
392.4
392.4
392.4
392.4
392.4
392.4
392.4
392.4
392.4
392.4
392.4
392.4
392.4
392.4
392.4
392.4
392.4
392.4
392.4
392.4
392.4
392.4
392.4
392.4
392.4
392.4
392.4
392.4
392.4
392.4
392.4
392.4
392.4
392.4
392.4
392.4
392.4
392.4
392.4
392.4
392.4
392.4
392.4
392.4
392.4
392.4
392.4
392.4
392.4
392.4
392.4
392.4
392.4
392.4
392.4
392.4
392.4
392.4
392.4
392.4
392.4
392.4
392.4
392.4
392.4
392.4
392.4
392.4
392.4
392.4
392.4
392.4
392.4
392.4
392.4
392.4
392.4
392.4
392.4
392.4
392.4
392.4
392.4
392.4
392.4
392.4
392.4
392.4
392.4
392.4
392.4
392.4
392.4
392.4
392.4
392.4
392.4
392.4
392.4
392.4
392.4
392.4
392.4
392.4
392.4
392.4
392.4
392.4
392.4
392.4
392.4
392.4
392.4
392.4
392.4
392.4
392.4
392.4
392.4
392.4
392.4
392.4
392.4
392.4
392.4
392.4
392.4
392.4
392.4
392.4
392.4
392.4
392.4
392.4
392.4
392.4
392.4
392.4
392.4
392.4
392.4
392.4
392.4
392.4
392.4
392.4
392.4
392.4
392.4
392.4
392.4
392.4
392.4
392.4
392.4
392.4
392.4
392.4
392.4
392.4
392.4
392.4
392.4
392.4
392.4
392.4
392.4
392.4
392.4
392.4
392.4
392.4
392.4
392.4
392.4
392.4
392.4
392.4
392.4
392.4
392.4
392.4
392.4
392.4
392.4
392.4
392.4
392.4
392.4
392.4
392.4
392.4
392.4
392.4
392.4
392.4
392.4
392.4
)
;
    }
    minZ
    {
        type            calculated;
        value           nonuniform List<scalar> 
150
(
353.41744
274.45971
196.27176
117.68006
39.246674
353.41365
274.471
196.2424
117.65097
39.247507
353.42061
274.50688
196.24609
117.66728
39.231962
353.42401
274.52659
196.26699
117.68285
39.225337
353.42821
274.52287
196.24815
117.70598
39.23669
353.42153
274.51359
196.26167
117.67012
39.216524
353.4276
274.51388
196.2285
117.65114
39.239493
353.41322
274.4642
196.24855
117.63402
39.252952
353.42335
274.45357
196.26324
117.69083
39.259692
353.42072
274.45264
196.27119
117.69573
39.261174
353.42044
274.46217
196.23279
117.66004
39.248685
353.42494
274.5295
196.23328
117.68182
39.248397
353.42666
274.53598
196.22824
117.67083
39.236386
353.40542
274.47047
196.28117
117.69226
39.223181
353.42224
274.52816
196.25314
117.71336
39.236829
353.41709
274.52293
196.2514
117.70233
39.229474
353.40735
274.50029
196.28188
117.67294
39.236129
353.42145
274.52414
196.23928
117.67966
39.252807
353.40475
274.46678
196.24503
117.65904
39.251035
353.41029
274.45982
196.26981
117.69442
39.259585
353.41256
274.45475
196.2671
117.68363
39.261351
353.41087
274.46791
196.25769
117.62513
39.262945
353.41898
274.50465
196.2349
117.64284
39.250335
353.41115
274.49944
196.2607
117.65882
39.221358
353.41911
274.51333
196.25357
117.68801
39.230124
353.4177
274.52176
196.25565
117.68603
39.232092
353.41769
274.52645
196.27374
117.68415
39.21686
353.42119
274.51692
196.22597
117.66027
39.242799
353.40571
274.4674
196.24291
117.65701
39.247841
353.41278
274.4684
196.26717
117.68674
39.249549
)
;
    }
    maxZ
    {
        type            calculated;
        value           nonuniform List<scalar> 
150
(
353.41832
274.46018
196.26876
117.68199
39.247427
353.41148
274.46318
196.24212
117.64941
39.246185
353.42485
274.50758
196.23425
117.65851
39.236207
353.42433
274.52215
196.27108
117.67547
39.21678
353.43064
274.52069
196.24779
117.70428
39.231741
353.42543
274.50891
196.25663
117.67304
39.222155
353.42961
274.50653
196.23513
117.66615
39.229175
353.42039
274.4631
196.2408
117.63028
39.246007
353.42715
274.4451
196.25668
117.68812
39.253629
353.42507
274.45187
196.27525
117.69251
39.261934
353.42036
274.45529
196.22999
117.65388
39.249702
353.42715
274.51316
196.2446
117.67852
39.244549
353.43353
274.53241
196.22785
117.67024
39.242457
353.40877
274.46804
196.27483
117.67963
39.222297
353.42746
274.52545
196.25172
117.71153
39.233163
353.41963
274.52884
196.25248
117.69679
39.223236
353.41502
274.49086
196.26358
117.66427
39.250208
353.42567
274.52881
196.23578
117.68745
39.250348
353.40667
274.4726
196.24569
117.66804
39.241426
353.40792
274.459
196.26548
117.68716
39.248995
353.41273
274.45615
196.27472
117.68103
39.255756
353.41061
274.45991
196.25986
117.64942
39.25272
353.41568
274.49949
196.23267
117.65005
39.249453
353.41082
274.50325
196.25058
117.66448
39.231887
353.41612
274.51234
196.25106
117.67913
39.225827
353.41801
274.52723
196.25744
117.6893
39.233246
353.41634
274.52581
196.26702
117.68591
39.220563
353.41832
274.50911
196.24077
117.66943
39.233152
353.4079
274.47086
196.24335
117.65128
39.246131
353.41294
274.46533
196.26949
117.68351
39.246722
)
;
    }
    bottomWater_to_rightSolid
    {
        type            calculated;
        value           nonuniform List<scalar> 
130
(
0.012807382
0.011035049
0.019584557
0.021351063
0.022945355
0.010335028
-0.018641724
-0.0098756306
-0.0079080688
-0.023139511
0.002799262
0.0078413487
0.0095486978
0.011051804
0.012610618
0.028806746
0.01840333
0.0236625
0.026014986
-0.0123843
0.0011447521
0.011446139
-0.010986382
0.0024438305
0.0046525562
0.012882882
0.021931217
0.0057087676
0.0089286482
0.00013398803
-0.0039640344
0.0088809488
0.00338619
0.013847359
0.015819654
0.018610222
-0.00038436248
0.012143528
0.039611855
0.01012475
0.0045290341
-0.0011383145
-0.0080557868
-0.0005651673
0.01551106
0.01764556
0.021683897
0.029643932
0.011324995
0.0097311013
-0.010074147
0.0011878592
-0.0070562494
-0.014338419
-0.0088109081
-0.010010536
-0.015640178
0.0057447995
0.013686273
0.016909754
0.028321961
0.027794299
0.012917881
-0.020546259
-0.0051223541
-0.007330339
-0.01528741
-0.008312132
-0.012775061
-0.011011289
0.0087805609
0.014961459
0.017247189
0.031157569
0.027715955
0.020655274
0.0010877395
-0.012510633
0.006871964
0.0013074569
-0.0040057375
-0.0090461847
-8.4180696e-05
0.014612597
0.017430765
0.021273768
0.032230057
0.014892863
0.013151939
-0.0034593165
0.0052323493
0.021211837
0.0034317886
0.0043190468
0.0026454952
-0.0027264885
0.0028882894
0.0035361305
0.011814998
0.016051698
0.019309489
-0.0014731297
0.0099371143
0.035405044
0.0082273642
0.0079381801
0.020640046
0.01742254
0.0087985278
0.01069656
-0.007291389
-0.0068234145
0.010639401
-0.01187065
0.0031783037
0.0049338398
0.014170144
0.010348426
0.0014262233
0.0089946621
0.015755694
0.012719524
0.009453251
-0.0081128498
-0.014173208
-0.006753798
-0.01943733
-0.0068475658
0.0061313847
0.0067222294
)
;
    }
    bottomWater_to_leftSolid
    {
        type            calculated;
        value           nonuniform List<scalar> 
130
(
0.0066740685
0.0075073462
-0.008038013
-0.014662573
-0.0033103947
-0.023476022
-0.00050663732
0.012952462
0.019692187
0.021173783
0.0086852078
0.0083965825
-0.0036143298
0.019099392
0.0091811437
0.010856901
-0.003194552
-0.0086534416
-0.010859396
0.0064230264
0.023670878
0.025451994
0.029636401
0.0087309966
0.012636766
0.0051126128
0.024072473
0.024011085
0.0018954836
0.0048815188
0.011601806
-0.00062264771
0.0058651286
0.038210914
0.032766241
0.014171828
0.0078890767
0.01372433
0.027464667
0.0057883686
-0.0074897025
0.012334495
0.012625647
0.02426299
0.018316495
0.012745699
0.012385741
0.00064113628
-0.010750919
-0.0079169602
-0.0020245162
0.004000768
-0.0086435073
-0.013458393
0.016698829
0.029795278
0.02991669
0.020266995
0.014023316
0.0098215234
-0.008994766
-0.016075032
-0.011035769
-0.02066643
-0.0097884944
-0.0081059448
-0.017445504
0.0081389425
0.02398033
0.024566976
0.019480834
0.013962756
0.0088865031
-0.010320883
-0.014583712
-0.010268769
-0.0192544
-0.0067451275
-0.000407495
-0.013393757
0.0048805181
0.010608793
0.022322873
0.023673923
0.01484609
0.014254382
-0.0034146734
-0.012154568
-0.010447431
-0.005929927
-0.0018891105
0.028068783
0.014333964
-0.0033212295
0.017758596
0.0039924734
0.010974835
-7.8456086e-05
0.032286204
0.02138381
0.021364109
0.0050189821
0.015599258
0.034673855
0.015513395
0.0060619959
0.0077891003
-0.0061585055
-0.012338796
-0.0093264952
-0.007362612
0.01410262
0.015871817
0.031713609
0.013530098
0.018424516
0.018594768
0.0074273488
0.0061848167
-0.0037928388
-0.023219705
-0.0082588912
-0.0178455
-0.010824582
0.0060074532
0.01362907
0.02193352
0.0097016457
0.0045490979
0.0024565974
)
;
    }
    bottomWater_to_heater
    {
        type            calculated;
        value           nonuniform List<scalar> 
92
(
-0.016819306
-0.00317084
-0.010526388
-0.0038709286
-0.012171402
-0.012202846
-0.010945967
0.0054291697
0.010684068
0.013979849
0.0096756246
0.031079641
353.40084
353.41481
353.40743
353.40683
274.44499
274.44946
274.45565
274.4503
196.29198
196.31466
196.30938
196.28435
117.67308
117.69266
117.68734
117.68374
0.013687402
39.253687
0.024516933
39.264517
0.021756732
39.261757
0.021363938
39.261364
353.42009
353.41934
274.49084
274.47309
196.27504
196.2661
117.66128
117.66861
39.230212
39.232944
353.42324
353.40566
353.41842
353.41202
353.41875
353.41113
274.48542
274.44198
274.44732
274.45185
274.47435
274.44889
196.27375
196.28881
196.3159
196.30546
196.26733
196.28227
117.66009
117.67364
117.69013
117.68291
117.66688
117.67901
39.233255
39.250389
39.260263
39.256709
39.23267
39.256597
0.010389207
0.02026274
0.016709112
0.016596913
0.011045396
0.0053306793
0.0028299331
0.021730111
-0.0034117353
-0.017177003
-0.015079381
0.00049177698
-0.017703447
-0.0068369957
-0.016763829
0.010208251
)
;
    }
}


// ************************************************************************* //
