/*--------------------------------*- C++ -*----------------------------------*\
| =========                 |                                                 |
| \\      /  F ield         | OpenFOAM: The Open Source CFD Toolbox           |
|  \\    /   O peration     | Version:  v2012                                 |
|   \\  /    A nd           | Website:  www.openfoam.com                      |
|    \\/     M anipulation  |                                                 |
\*---------------------------------------------------------------------------*/
FoamFile
{
    version     2.0;
    format      ascii;
    class       surfaceScalarField;
    location    "110/bottomWater";
    object      phi;
}
// * * * * * * * * * * * * * * * * * * * * * * * * * * * * * * * * * * * * * //

dimensions      [1 0 -1 0 0 0 0];
oriented        oriented;


internalField   nonuniform List<scalar> 
3858
(
-0.00021168403
0.00012422397
8.685624e-05
-0.00029565689
-1.1584702e-05
9.6108528e-05
-0.00020763786
-0.00021710973
0.00012805989
-8.116723e-05
-0.00023815388
0.00010955328
5.9393974e-05
-0.0003145641
0.00017076677
0.00015363368
-0.00025704664
0.0001613205
0.00027569951
-0.0002089022
8.3857873e-05
0.00014754421
5.6717125e-05
7.2041195e-05
-6.3045391e-05
0.00013180728
7.6605616e-05
-0.00023285161
0.00010823614
6.0127673e-05
-0.00026775517
-2.0554e-05
5.4196932e-05
-4.8510719e-05
-0.00029805641
7.6494508e-05
7.534593e-05
-0.00021592893
8.9040974e-05
-0.00013545027
0.00012043812
9.2876507e-05
-4.1816393e-05
-0.00025405732
0.00015871079
6.433474e-05
-0.00027988955
0.00017333756
7.8250884e-05
-2.7637558e-05
1.5509047e-05
0.00026289043
-0.00025001306
6.3930261e-05
0.00023073621
5.8816485e-06
2.9067343e-05
8.8351448e-05
0.0001227223
2.094578e-05
-0.00010346676
0.00013436677
5.8065561e-05
-0.00019803253
3.8988603e-05
5.6645914e-05
-0.00012665198
-0.00019589265
0.000123703
-0.00012768382
-0.00012009563
0.00012221879
-7.1617397e-05
-0.00021055651
0.00015356726
2.1304667e-05
-0.00024473017
0.00015117964
0.00015281463
-0.00021876816
8.6622213e-05
0.00029836793
-0.00025518062
0.00010841061
0.00019792954
4.2520839e-05
6.0526709e-05
0.00013661759
6.1901399e-05
-0.0003838737
0.00042952968
7.8567997e-05
-0.00037531494
-0.00012155905
0.00010141559
-0.00020996394
-0.00050204687
0.00011958614
-5.9805065e-05
-0.00046305605
7.4743301e-05
6.4238434e-05
-0.00061989635
0.00018128875
0.00014600621
-0.00053042531
0.0001916109
0.00041608768
-0.00049104929
1.2065618e-05
0.00043601314
1.6910378e-05
1.9881292e-05
-6.975416e-05
0.00060831636
2.9258225e-05
-0.00050505605
0.00054501095
-1.4729182e-06
-0.00044148412
-9.813636e-05
1.4010427e-05
-0.00013797446
-0.00062774324
2.6177159e-05
2.6260879e-05
-0.00043761969
5.745542e-05
-5.1094514e-05
6.8483703e-05
0.0001293098
-3.864577e-05
-0.0005133074
0.00024680134
6.7264701e-05
-0.00057312431
0.00018732429
0.00010394431
-9.5985674e-05
3.1668511e-05
0.00039073803
-0.00055905969
2.2252918e-05
0.00046624826
-7.1353041e-05
1.7244727e-06
0.0001226194
0.00050443179
-3.8080625e-05
-0.00037863928
0.00063563666
-1.1200922e-08
-0.00040048134
3.3712945e-05
2.7117721e-05
-0.00017030263
-0.00052227131
9.6199955e-05
-0.00014008241
-0.00032830617
0.00017799032
-9.6710149e-05
-0.00047017178
0.000216243
3.9547162e-06
-0.0005124082
0.00016701316
0.00015319364
-0.0004422825
7.4275415e-05
0.00038388608
-0.00058444418
9.8571117e-05
0.00038442327
-2.1474005e-05
6.3457653e-05
0.00048689948
3.4141387e-05
9.7656753e-05
0.00034562501
-1.3752062e-05
0.00012734621
-7.0696169e-05
-8.055232e-05
-2.820504e-05
-0.0001963512
-0.00015014441
-3.9068566e-05
-0.00041097043
-4.1222085e-05
9.3043556e-06
-0.00053033221
-0.00013793705
1.4714518e-05
-0.00038248003
-0.00015335544
-0.00027671666
-0.00010728602
-9.2332089e-05
-0.00013596908
-4.10609e-05
-8.27763e-05
-7.8829572e-05
0.00053346088
1.7715973e-05
4.3019073e-05
0.00047586436
-5.2702053e-05
0.00020612664
-9.5613591e-05
-0.00016563034
-0.00014363584
-9.7406758e-05
-0.000180574
-0.0003917941
-9.5954998e-05
-9.3506449e-05
-2.1610034e-05
-0.00028451067
-1.7189697e-05
3.8375955e-05
-0.00050607329
-6.7220108e-05
1.0678583e-05
-0.00046986515
-7.5561794e-05
8.6208955e-05
-0.00019099548
1.947944e-05
-0.00019832183
-9.9752001e-05
-0.0001747769
-4.8448742e-05
-8.3856357e-05
-0.00013736977
8.4345682e-05
0.00042339369
-5.175632e-05
0.00010317646
0.00059895787
1.7848022e-05
0.00017767492
-2.0047739e-05
-2.0737776e-05
-0.0001005628
-0.00010748308
-0.00013655053
-3.5974587e-05
-0.00028148897
-0.00011140542
3.5984333e-06
-0.00040780867
-0.00010193614
1.7412545e-05
-0.00041985201
-0.00010637031
1.3784173e-05
-0.00038500349
-5.365064e-05
-0.00026144873
-7.4071635e-05
-0.00023513964
-0.00014004563
-4.8129153e-05
-9.4747953e-05
0.00040565802
-5.8804165e-05
0.00022754205
0.00010620139
1.1881592e-05
7.3437707e-05
0.00010045913
-1.7050942e-05
-4.0756924e-05
-0.00010949416
2.7337609e-05
-3.1243783e-05
-0.00043912353
1.8639969e-05
-5.1071369e-05
-0.00049180419
-1.8700424e-05
4.2346727e-05
-0.00039270129
-8.3196832e-05
-0.00012686426
2.8550018e-05
3.3374953e-05
-0.00037818502
0.00013658921
7.3670651e-05
-0.00011680598
0.00021199943
6.0082404e-05
0.0001058016
0.00023718787
1.6068912e-05
0.00010790631
3.7250835e-05
-0.00013496915
8.5152378e-06
3.4459134e-05
-3.2474822e-05
-5.7596343e-05
-4.2948304e-05
1.3104877e-05
-1.4451768e-05
-0.00032679749
-8.5776528e-07
-3.183378e-06
-0.00047198396
-4.5357722e-05
-1.4773833e-05
-0.0004382364
-2.0038293e-05
-2.8088462e-05
-0.00015351425
-2.4166595e-05
-0.00012592265
7.4519206e-05
-7.6437011e-05
-0.00011001728
5.1941581e-05
-0.00015170329
0.00013769131
0.00018064632
-4.9612009e-06
0.00039402629
0.00029236543
5.0257461e-05
0.00016767408
0.00023273087
-2.6426394e-05
-6.5385466e-05
0.00013219302
-6.6165557e-06
-4.2528302e-05
-0.00023146351
-7.2882626e-05
-1.4079232e-05
-0.00037582799
-6.0429764e-05
-6.9921698e-05
-0.00039108806
2.7078508e-05
3.7152928e-06
-0.00044519275
-1.3447728e-05
-0.00011722972
2.7632382e-05
1.9240998e-05
-0.00026154085
0.00010100688
-4.8248981e-06
0.00011170018
3.2416985e-05
0.00018545758
-7.9256181e-05
0.00036030719
-7.4390467e-05
0.00035754279
-0.00010672975
7.1909267e-05
-0.00015349
-0.00028380003
-0.00013609489
-0.0005534794
-0.00012302192
-0.00046857013
-5.6359248e-05
-0.00029978889
-3.2192029e-05
-9.1728051e-05
3.9385944e-06
0.0001410306
4.429215e-06
0.00022776852
-4.9487085e-05
0.00033765151
-7.5423867e-05
0.00040429588
-0.00010959267
0.0002191155
-0.00014161712
-9.6893996e-05
-0.00015597447
-0.00036125851
-0.00017387188
-0.00036217811
-0.00015259465
-0.00022988359
-5.7775307e-05
-0.00015414846
-2.3793535e-05
3.0616659e-05
-4.1187954e-06
0.00023937366
8.360843e-05
0.00041109607
6.1008468e-05
0.00052767817
1.5610911e-05
0.00033926489
-4.3050246e-05
9.6310815e-05
-0.00013287392
-0.00013495181
-0.00015982544
-0.00039735526
-0.0001827893
-0.00031931446
-5.0408419e-05
-0.0001739963
-4.4311278e-05
-6.2296113e-05
-0.0001310598
0.00013995167
7.6618858e-05
-0.00019188224
0.00013674689
1.9484374e-05
-0.0001660528
7.9173201e-06
9.4556179e-05
6.1890533e-05
-0.00027923873
0.00015854688
6.5019874e-05
-3.8315933e-06
0.0001725257
-1.3834171e-06
7.5504595e-05
0.0001544428
0.00013374429
-0.00019594766
0.00014208398
7.6040394e-05
7.7414068e-05
5.2086858e-05
-5.3612843e-05
0.00015575032
4.8271737e-05
-0.00015533208
0.00012611644
3.4065549e-05
-0.00020663635
0.00011198223
-7.622941e-06
-0.00012005527
-8.9522803e-05
7.8572115e-05
8.4680792e-05
-0.00024743942
0.00012884141
-3.6562541e-05
0.00015221586
6.5327832e-05
-0.00010700347
5.0569529e-05
0.00017835174
-5.9464559e-05
-2.3395314e-05
0.00015242466
0.00013554765
-0.00028040083
9.8171947e-05
0.00021474528
-6.258843e-05
4.7904577e-05
0.0001274519
0.00013616926
-1.8541127e-05
4.567732e-05
0.0001413245
-3.836164e-05
-3.1461755e-05
0.00016017013
-2.4146491e-05
-5.4885287e-05
0.00010737519
-2.5798987e-05
-3.9335914e-05
7.6608529e-05
3.3687526e-05
-7.3415755e-05
9.103082e-05
6.7363975e-05
-0.00011312527
7.0018615e-05
0.00012492376
-4.6795951e-05
-3.76643e-05
0.00012376118
0.00016953476
-0.00024701341
0.00011612747
0.00019615094
5.9327131e-05
2.4626771e-05
0.00012237138
0.00015314078
-1.7696484e-05
0.00014803057
3.6755777e-05
-0.00027359094
0.00056944424
-7.7333638e-05
-0.00038056692
0.00041180417
-6.6665696e-05
-0.00026321535
-4.8459875e-05
5.8611774e-05
4.7582373e-05
-0.00065950598
0.00014421283
2.6181914e-05
-8.7172146e-05
0.00028602977
-1.7460578e-06
2.2435238e-06
0.00029279994
0.00029354159
-0.0005532614
7.4091714e-05
0.00040984858
7.307487e-06
-2.6319112e-05
7.5112077e-05
0.00065224657
-0.00013250152
-0.00027637507
0.00062296758
-0.00014683691
-0.00040019225
0.00037134842
-0.00012153859
-0.00027682872
-0.00025575602
6.9046847e-05
1.8808221e-05
-0.00059762947
0.00011200852
7.0654279e-05
8.4898232e-05
0.00014478137
-0.00010353936
0.00013829543
0.00033326907
-2.2882861e-05
-0.00017100729
0.00025427976
0.0002166442
-0.00063755736
0.00014929799
0.00031175464
-0.00020044044
6.4994487e-05
0.00017951823
0.0003752887
-0.00010515854
-0.00011909429
0.00060697613
-0.00020511972
-0.00035684378
0.00057532526
-0.00017741684
-0.00027266266
8.6089744e-05
-3.5777944e-05
-8.1192564e-05
-4.2097641e-05
2.3436021e-05
-6.8973293e-05
9.1672294e-05
0.00016512957
-0.00014631545
9.1496802e-05
0.00027210696
-8.8809493e-05
-0.00016502692
0.00023686982
0.00023341909
-0.00058512571
9.0159121e-05
0.00035815088
1.63123e-05
1.6854166e-05
0.00021644557
0.00044097816
-8.2674417e-05
0.00051717211
-0.00011855458
2.2830804e-05
0.00056588119
-3.3019801e-05
0.00015609748
0.00028640446
-8.8419281e-05
0.00015579355
-4.0702651e-05
-0.0001575977
-0.00021497277
-0.00017060151
-0.00015936023
-2.423527e-05
-0.00039296001
-2.2886684e-05
0.0001932937
-0.00035972168
-8.9192054e-06
-0.00016952626
-0.00015137118
-0.00013140235
-0.00010468174
-6.4859448e-05
-7.5453883e-05
-1.4559509e-05
0.00058110406
-1.2637499e-06
-3.606536e-05
0.00061438519
-2.2613807e-05
7.9313345e-05
0.00025222713
-0.00016188776
-9.9321411e-05
-8.5438577e-05
-0.00017225669
-0.00040477232
-0.00013506889
-0.00025061613
-8.6466677e-05
-0.00019435371
-5.6243401e-05
0.0002092896
-0.00027350131
4.8820349e-05
0.00025584344
-0.00025480418
-3.8318738e-05
-3.5868256e-05
-0.00011413255
-0.00021223367
-0.00014244354
-8.6130523e-05
-0.00018251152
-5.1495843e-05
0.00026471453
-0.00011774328
-0.00011302332
0.00059049025
2.6257051e-05
-7.5035299e-05
0.00050058043
5.4604835e-05
-3.1466219e-05
-4.8102532e-05
6.988542e-05
-0.00014598128
-8.4528097e-05
2.0394985e-05
0.00012913852
-0.0003435815
4.872856e-05
0.0002834067
-0.00019041969
2.5712167e-05
0.00016021843
-7.9942567e-05
-6.8266401e-05
-0.00016892107
-0.00019102614
-0.00011861072
-0.00012397321
-7.1513956e-05
-0.00019226124
-4.0281541e-05
0.00032548503
-6.2946486e-05
0.00047017338
-5.2086967e-05
0.00018239487
0.00032958479
6.5783144e-05
0.0002644462
0.00012892569
5.8376526e-05
6.0214498e-05
0.00017186352
1.9003152e-05
-2.0749403e-05
-8.9106227e-05
1.8108596e-05
-3.9283382e-05
-0.00038709166
-6.0347908e-06
-5.122011e-05
-0.00035551746
-7.5464313e-05
-0.00017761097
1.8790358e-05
-1.0395722e-05
-0.00036551384
0.00020556081
-8.8467347e-06
-0.00011063702
0.00028471152
0.00010159813
7.0636324e-05
0.00039432146
5.4859292e-05
0.0001661724
0.0001319361
-0.0001102142
2.9792734e-05
0.00010685021
-8.8383945e-05
-7.5584634e-05
5.1255236e-05
-6.7841886e-05
-2.6475697e-05
-0.00022188443
-2.2435991e-05
-1.1088344e-05
-0.00034138274
7.1363519e-06
-7.9680703e-05
-0.00019835549
-7.8946281e-06
-0.00019856486
2.2263824e-05
-4.1678806e-05
-0.0002242632
-2.6922163e-05
-0.00010994702
-0.00011514945
6.4139606e-05
-6.0242114e-05
7.1451715e-05
0.0003358636
6.3064295e-05
0.00033597282
0.00022288168
6.3435104e-05
0.00017944888
0.0001904745
-0.00010847949
8.7618203e-06
0.00012219166
-4.2649253e-05
5.2246459e-05
-0.0004586553
-1.2934775e-06
-4.2599031e-05
-0.00016833623
1.2332258e-05
-0.00027364347
0.0002061295
-2.7949126e-05
-0.00027997544
-0.00019532258
-2.8193199e-06
-0.00027226206
-7.5235322e-05
1.5248996e-05
-0.00014989996
0.00013043313
6.7864901e-05
0.00027078513
8.1905269e-05
0.00022217388
2.815474e-05
0.00025773251
1.897661e-05
0.00030983804
1.3028245e-05
0.00017446843
-0.0001072266
-0.00017065997
-0.00017805814
-0.00049551249
-0.00015368686
-0.00047702132
-5.6060053e-05
-0.00028019875
-2.3453787e-05
-7.9099636e-05
8.7551001e-05
0.00016760535
0.00015204569
0.00021495901
3.5095355e-05
0.00025871864
-1.2333292e-05
0.00031284801
-0.00011246682
0.00014229709
-0.00019295064
-0.00012690513
-0.000228155
-0.00028319865
-0.00021593385
-0.00023139175
-0.00018213772
-0.00022779801
-8.82912e-05
-0.00018371117
-3.7407657e-06
5.5169742e-05
9.2863903e-05
0.00019774235
0.0001639175
0.00032636949
0.00012285584
0.00045811524
6.0568074e-06
8.2178591e-05
-0.00012576891
-0.00011619399
-0.00010283758
4.1430606e-05
-0.00011132055
-0.0001440137
-0.00019266758
-0.00025865142
-1.1006021e-05
-0.00020473413
3.2204566e-05
3.7548949e-06
1.0989292e-05
0.00011483649
-4.8707669e-05
3.7463334e-05
6.0734552e-05
-6.7591621e-05
1.8589843e-05
0.00012693645
-1.2581756e-05
1.3795975e-05
9.4077243e-05
7.1888907e-05
6.1256826e-06
0.00012061326
6.1416194e-05
-5.6764412e-06
0.00012983417
3.8408068e-05
5.8319845e-06
7.7432353e-05
5.7191367e-05
-4.315144e-06
0.00012500265
-6.1447609e-05
2.0126927e-06
9.6554396e-05
-5.4213858e-05
1.191592e-05
0.00011636652
-9.0495326e-05
2.5567274e-05
0.00010206857
-0.00012371988
3.3546479e-05
0.00012209335
-5.1254885e-05
6.3730006e-05
0.00010336399
-4.2488122e-06
9.2516096e-06
0.00012895296
-8.6773135e-06
-2.7561087e-05
0.00013227115
8.3217793e-05
-7.6703746e-05
0.00013669028
6.7395512e-05
-0.00010313351
9.4205469e-05
3.2375938e-05
-0.00011345328
0.00012465414
-6.5392375e-05
-0.00016844902
0.00015554945
-0.00011733973
-0.00017023295
0.00011082505
-0.00014523791
-0.00010290772
4.6608337e-05
-0.00013591199
0.00010730677
-0.00020342933
-3.4147422e-05
0.00015452552
4.162581e-05
-5.4940451e-05
8.0555115e-05
0.00014402275
-1.8768419e-06
3.7143173e-05
0.00013457467
3.4391239e-05
3.9992202e-05
0.00011405928
8.1988932e-06
-2.7641026e-06
0.00012265803
3.8347811e-05
-1.5812838e-05
0.00010802205
-6.896693e-05
-1.5698064e-05
7.1121142e-05
-8.7300167e-05
8.9001293e-05
-6.6516231e-05
7.2389089e-06
0.00027662847
-0.00024636452
6.796728e-05
8.8411945e-05
-0.00015507145
2.9199687e-06
0.00032696604
-7.6370494e-05
9.0848146e-05
-3.6927707e-06
0.00015405467
-1.2548578e-05
0.00031272085
0.0001973189
-0.0001261489
0.00035797068
0.00017826376
-1.4392286e-05
-4.657866e-05
8.634611e-05
7.5044732e-05
8.03435e-05
-7.109698e-05
0.00010480642
7.8919931e-05
-0.00014462874
8.1862601e-05
0.00017064602
-0.00017817259
-3.7798848e-05
0.00032042935
-0.00022023792
-0.00011334562
0.00034763722
-8.0950251e-05
6.5397364e-05
3.3629097e-05
3.000415e-06
0.0001677573
0.00013222234
3.9152039e-05
-5.9346077e-05
0.00051518853
0.00017745506
-0.00014609862
0.00030418404
0.00017353854
-7.5787263e-05
4.2351751e-05
0.00013084035
-0.000133707
0.00028722199
-3.9653612e-05
-0.00026780459
0.00038711962
-0.00020263111
-0.00020971417
5.5720967e-05
-0.00020810606
-7.0156042e-05
-7.8380517e-05
-0.0001919861
0.00029814107
-0.00053493625
-7.2568144e-05
0.0004002728
3.5921748e-05
-7.2991648e-05
0.00018476109
0.00053346671
-8.8026973e-06
-6.6398885e-05
0.00055296891
0.00010487269
-0.00019493064
0.00036586462
0.00011359623
-0.00016018308
0.00012549613
5.2573468e-05
-0.00018367462
0.0002530119
-0.00010464413
-8.8530534e-05
3.9069735e-05
-0.0001457671
9.1277544e-05
-0.00020936136
7.9225218e-05
0.00016811544
-3.7319786e-06
0.00012922479
-5.7444537e-06
-4.426244e-05
0.00014806406
0.0001044265
4.6102576e-05
9.9926956e-05
-5.8802305e-05
-5.6113585e-05
8.014288e-05
0.00021237922
9.7239018e-05
0.00013370831
0.00017628275
0.00011920329
4.5265769e-05
-0.0001114613
2.1922832e-05
-3.6713814e-05
-4.8953967e-05
0.00013582317
-2.7685195e-05
-3.884697e-05
0.00010747453
-4.715569e-05
8.3274107e-05
8.4228603e-05
-7.4907241e-05
0.00022753747
-4.1244332e-05
-9.7712063e-05
0.00021856485
-2.0379504e-05
-0.00010180307
-3.34437e-05
-0.00017945234
1.5540998e-05
1.9103823e-05
-6.0468956e-05
6.7373718e-05
0.00042884706
8.332909e-05
5.4081751e-05
0.00024223402
3.6923246e-05
4.5651393e-05
-4.3291571e-05
-0.00011815998
5.3461072e-05
0.0001661892
-6.928841e-05
6.5766381e-05
0.00027097571
-1.390467e-05
0.00012277303
-4.1549865e-05
6.6521244e-05
0.00018510429
-0.0001991151
0.00011300816
-4.6414274e-05
-0.00025161344
1.8081163e-05
-9.9339734e-05
-8.2190328e-05
0.00019143251
-5.1641933e-05
0.00039013835
0.00014435911
-0.00011628237
0.00050693057
0.00013639093
-0.00014870776
0.0002853361
4.4687491e-05
-0.00018956463
7.4853329e-05
-2.7111039e-05
-8.758502e-05
-4.0971529e-05
-2.5742491e-07
-3.2175392e-05
-7.2132987e-05
-7.1533847e-06
1.48405e-07
6.8667845e-06
-2.4630102e-05
0.00028729534
-2.8766642e-05
-0.00020867353
0.00022066567
1.6009837e-05
-2.8319262e-05
-0.00014091324
8.3988644e-05
1.4085682e-05
-8.5182041e-05
2.0833964e-06
8.0367894e-05
0.00011921689
2.0845334e-05
0.00030808804
-0.00013790686
1.1005158e-05
0.00025357732
-5.2929791e-05
-1.4416509e-05
-5.4530616e-05
0.00028216312
-3.1855886e-05
-0.00027311606
0.00022349562
5.7840985e-05
-0.00028409143
9.7727801e-05
5.1380964e-05
-0.00011637895
1.7079154e-05
-6.7468364e-05
-4.6008331e-05
0.00011641605
-5.6605766e-05
-0.00020763538
0.00019293449
-0.00013259304
-0.0001566307
1.5171959e-05
-6.9508811e-05
0.00014023233
9.2329661e-05
4.6790709e-05
0.00024576627
0.00013642993
-7.6244798e-06
4.5735367e-05
0.00021218833
-9.7127793e-05
-2.6866682e-07
0.00018744526
-8.5199025e-05
0.00018385355
1.303512e-05
1.3576277e-05
0.00016623124
1.6683059e-05
2.245369e-05
0.00010012149
-0.00014132222
7.1751987e-05
-7.8968985e-05
-0.00019244257
1.1440117e-05
-0.00028986842
2.1508821e-05
6.4551021e-05
-0.00011237912
3.0768635e-05
0.00018058692
5.1714928e-05
0.00024927242
0.00010589635
0.00013414044
0.0002217853
-4.6823836e-05
0.00011048881
9.7152909e-05
-1.4672728e-06
0.00032079261
-0.00029119448
5.5168148e-05
0.00024197165
7.0128972e-05
4.423904e-06
0.00038409297
-6.0067641e-05
0.00011822275
0.00019722734
0.00023333845
0.0001245266
8.4384934e-05
2.1068526e-05
-4.2454354e-05
-6.556935e-05
4.2465705e-07
-0.00010172026
-0.00017843048
-0.00011273859
-0.00023650903
-5.0911287e-05
-2.3111304e-05
4.5311605e-05
8.2620184e-05
0.00020531514
6.31822e-05
0.00026921147
-5.7361332e-05
0.00017271804
-6.3429423e-05
0.00011015084
2.3436352e-05
-6.3981038e-06
-4.1242609e-05
-0.00011309973
-5.9002052e-05
-0.0001180659
-6.8125613e-06
-0.00013169341
0.00010852225
-8.5284185e-05
0.00023454271
-2.686639e-05
0.00022512104
1.8716032e-05
0.00021276626
0.00012190174
5.0750287e-05
0.00018461126
-0.00014558732
0.00012675087
-0.00014420594
2.6184237e-05
-0.00018207546
-5.713077e-05
-4.4618405e-05
8.9777792e-06
0.00015040913
-8.4562797e-05
0.00011997866
-6.5084199e-05
-0.00018387782
1.6559824e-06
-0.00019931261
0.00011776834
0.00018853526
1.2283205e-05
3.8538363e-05
-0.00010003922
0.00016900017
-0.00023099853
4.040566e-06
0.0001856085
4.8515674e-06
-3.3686497e-05
0.00010541156
0.00015623779
-3.4141636e-06
3.1597644e-05
0.00013496277
1.4183893e-07
-5.6605548e-05
0.00013735306
-1.085846e-05
-0.00015322944
0.0001672516
-1.255577e-05
-0.00016465252
4.1563452e-05
-9.0960738e-05
-3.2221443e-05
-0.00012422909
-6.3588617e-05
7.7970311e-05
-0.00010922699
-9.1214884e-05
0.0001979643
-0.00012169733
-0.00012278156
0.00022681997
8.2235938e-05
-0.0001605209
0.00024946922
0.00013970184
-0.00016560276
7.2145542e-05
0.0001724377
2.6657922e-05
0.00012865673
-3.5480652e-05
0.00013137148
-0.00016562479
0.00016464632
-0.00022447128
0.00015849351
-0.00016254763
-0.00026395201
7.9906552e-05
-0.00015486456
-0.00012949313
-0.0001609286
-0.00011827879
2.9789285e-05
-0.00021258909
-8.2864805e-05
0.00011546945
-9.2041037e-05
-2.6090922e-05
0.00022732157
-0.0001245407
-4.2410233e-05
0.00013861093
0.00010686376
-1.7409328e-05
2.2075816e-05
0.00014687404
4.0754546e-06
-7.7815778e-05
0.00012845025
-2.0698106e-05
-0.00015410175
0.00013226255
-1.7628654e-05
-0.00011581132
-7.1900187e-05
-3.580589e-05
1.4369266e-05
-0.00018443567
-3.44347e-05
7.0838962e-05
-0.00012125822
-2.5346585e-05
-1.647457e-05
-0.00016600499
0.0001962314
-0.00059249711
-1.5150853e-05
0.00032095543
-0.00010779115
-8.8451798e-05
0.00021843096
0.00047791105
-6.5094125e-05
-2.7667504e-05
0.00055336263
2.5017512e-05
-0.00027067008
0.00053492608
2.3693316e-05
-0.00038238931
0.00038060576
-1.5288825e-05
-0.00028322067
-6.0063288e-05
-6.863889e-05
-5.3146185e-05
-0.00040825627
-9.0676047e-05
5.0802145e-05
-0.00033490216
-5.6445753e-05
0.00022379326
-0.00037965763
-0.00013526873
0.0003683565
2.9895586e-05
-0.00017317314
0.00038194415
0.00035389491
-0.00022478031
0.00020791712
0.00038561676
2.1209306e-06
0.00051190798
-0.00014092601
0.00044795696
-0.00029590078
0.00045046144
-0.0003890919
0.00039059691
-0.00017856588
-0.00031715741
-3.3050729e-05
-0.00016160832
-0.00013275577
-0.0004533914
-0.00010004489
3.43574e-05
-0.0005175352
-5.4153162e-05
0.00018857785
-0.00026896248
-4.9867162e-05
0.0004000451
-0.00039318543
-1.5814174e-05
0.00040779863
0.00011162389
-2.1316367e-05
0.00011753339
0.00054127189
7.400612e-07
-0.00024029895
0.00061969349
-1.9814676e-05
-0.00036864188
0.00040176203
-8.8583076e-05
-0.0002150929
-0.00028006133
-5.0031956e-05
-1.0316974e-05
-0.00049901183
-3.5966863e-05
-6.0541416e-06
-0.00014278523
0.00011179316
-0.00017497744
4.2977748e-05
-8.0736343e-05
-0.00032767278
-0.00011655727
-7.1088385e-05
-9.7323131e-05
2.5986607e-05
-3.4676167e-05
0.00039840562
-1.3020368e-05
1.5796865e-05
0.00054241223
5.7716385e-05
7.7966948e-05
0.00050684056
8.5118732e-05
0.00012320613
0.00025770215
9.9587259e-05
0.00012581537
-0.00011139959
0.00018455023
-2.6182192e-08
-0.00021395835
3.9018167e-05
-6.1924542e-05
-0.00029859955
0.00010982435
-0.000242548
-0.00026006778
1.9789275e-05
-0.00013968345
-0.00010874697
1.5398497e-05
-3.7881447e-05
0.00020914072
-0.00013650016
-3.8727637e-05
0.00032599399
6.2744017e-05
0.00049376541
0.00012157449
0.00042604974
6.7056235e-05
0.00038681971
0.00020079135
0.0002940331
-0.0001064597
0.00020114256
-7.9838915e-05
3.2532312e-05
3.4639818e-05
-0.00024100468
2.0637284e-05
2.6765576e-05
-0.00046576309
6.9110285e-05
2.8437521e-05
-0.00026542456
1.2871296e-05
-0.00019209402
-0.0001091871
0.00012796571
-0.00010853336
3.9583901e-05
0.00013283842
9.6605944e-06
0.00049971812
5.9750733e-05
2.6909457e-05
0.00063381946
1.331265e-05
7.216022e-05
0.00033379781
-4.3975722e-06
-5.8105937e-05
-0.00012031569
-2.9736903e-05
-0.00021438933
-0.00035653328
6.6514695e-06
-0.00025099685
3.7420173e-05
-0.00018023943
7.7324635e-06
-3.1237104e-05
-0.00018906411
-0.000325597
2.2758749e-05
-0.00028709377
2.4044201e-05
6.0650983e-05
-0.00017734956
0.00015552493
0.00013521988
3.4006204e-05
0.00033651695
1.5384854e-05
0.00022966306
0.00028675547
3.5433383e-05
0.00032949087
8.1074568e-05
6.2383268e-05
0.0001231821
6.6701194e-05
-3.6479009e-06
3.4095467e-05
-9.9196803e-05
3.2166069e-05
4.8116452e-06
-0.00028730866
6.9373898e-05
-0.00011021443
-0.00023148109
1.8971016e-05
-0.00021919729
-6.7764707e-05
1.139483e-05
-0.0001968335
7.845315e-05
-2.4269275e-05
-0.00016090415
0.00022055582
4.3258863e-05
0.0003363931
0.00016118997
0.00030049416
0.000234704
0.0002161779
0.0003302421
0.00015245326
-3.9157267e-05
0.00012573108
0.00012901366
9.2347304e-06
2.9879997e-05
-0.00014082607
1.8126171e-05
2.7916638e-05
-0.00045485913
6.2811397e-05
-6.5453577e-05
-0.00021461042
5.3996175e-05
-0.00024793179
0.00012756897
1.0273151e-05
-0.0002933861
0.00018047321
8.5151904e-05
-1.7042095e-05
0.00026529678
6.3973668e-05
0.0002038974
0.00037049754
-4.4414203e-06
0.00026671581
0.00016467003
0.00010484209
0.00014804996
2.163367e-05
3.1884652e-05
0.00010739686
-0.0003543151
4.2858825e-05
-0.00014613673
-5.7530899e-05
-2.8831314e-05
0.00023379113
-0.00032390714
9.400544e-05
-0.00029553724
1.6742832e-05
-0.00020512967
-4.519927e-07
4.9327167e-05
-1.9660139e-05
0.00023701416
-1.3670106e-05
0.00027860393
-1.1426485e-05
0.00034430502
4.6311701e-05
0.00030773179
0.00014269156
7.7550169e-05
0.00021208443
-0.00017973835
0.00019852547
-0.00032114972
0.0001837975
-0.00033333022
8.4235546e-05
-0.00022587413
-7.5469301e-06
0.00016125382
0.00029214754
0.00034599641
7.1738008e-05
0.00036827657
0.00012544954
0.00019988024
0.000149472
-0.00021342966
0.00014306202
-0.00041660595
0.00011531673
-0.00032941289
6.6560131e-05
-0.00025907589
5.300542e-05
-3.3858545e-05
4.9057204e-05
0.0002657565
-1.3680314e-05
0.00036443639
9.059484e-07
0.00039338305
-5.6570033e-06
0.0001206473
3.6188998e-05
0.00016304584
0.00020183279
-0.00031187832
7.3062385e-06
0.00017690844
1.8644551e-05
1.0718745e-05
0.00019188296
-5.6136865e-05
6.0570159e-06
9.4390722e-05
9.1112304e-05
3.1437575e-06
-5.4228121e-05
0.00014551373
2.4808466e-06
-0.00019883988
0.00013928763
-5.3285494e-06
-0.00026879565
6.2712962e-05
-2.8143855e-06
-0.00011626813
-0.00023877304
-6.3384977e-06
-4.6873819e-05
-0.0001056602
-2.7274357e-05
3.8817374e-05
-0.00014559266
-3.2080346e-05
0.00014675188
-0.00021089333
-2.1381234e-05
0.00018999798
-0.00020135101
-4.2559426e-06
3.3391406e-05
-1.0325895e-05
-0.00021629517
5.8570995e-05
-5.913965e-06
-0.00022549212
-0.00014217738
-4.3098715e-06
-8.4143859e-05
-0.00026060076
-1.7202978e-07
6.9687217e-05
-0.00024792048
9.8931949e-06
0.00013854474
-0.0001016819
7.828977e-06
0.00030794262
-0.00022022162
7.1357034e-06
0.00026679511
2.4342745e-05
2.6882827e-06
0.00012696959
0.00014445455
1.4930805e-06
-3.6179012e-05
0.00015449168
-1.1251403e-05
-0.00014075921
0.00010327953
-1.5167857e-05
-0.00018926942
4.0080799e-05
-2.5614479e-05
-0.00020986965
2.1515651e-05
-3.4184835e-05
-0.00031699033
-1.5503112e-05
0.00019055909
-0.0006674163
-1.0260965e-06
0.00023071248
-3.1007712e-05
-5.6519742e-06
0.00034620119
-0.00025321611
-6.8612673e-06
0.00034218308
3.6053751e-05
-6.0174595e-06
-0.00013463132
0.00064472461
2.6210352e-06
-0.00045081969
0.00047446639
4.7029165e-06
-0.00038919135
-2.2116507e-05
7.9122984e-06
-0.00013728983
-0.00057084713
1.1533676e-05
-4.6469829e-05
-0.00026673509
-2.0421152e-05
0.00010474527
-0.00033694034
-1.6313167e-05
0.00021581258
-0.00045235767
-4.8716911e-06
0.00027961673
-0.000463546
2.5217698e-05
6.5000416e-05
2.3227407e-05
-0.00038042866
0.00026805153
-7.617739e-06
-0.00030745771
-0.00036678818
-9.9684658e-06
-0.00014611457
-0.00051823271
-3.75608e-06
4.4793058e-05
-0.00049884487
5.8636079e-06
0.00013430821
-0.00025130717
1.0242962e-05
0.00040833284
-0.00051342067
3.360241e-06
0.00048331107
-7.6081713e-05
4.1298476e-06
0.00018966874
0.0004321713
6.6656279e-06
-0.000290337
0.0006092031
5.4796334e-06
-0.00030609691
2.104002e-05
9.4163524e-06
-0.00025900075
-5.4969396e-05
-2.0779169e-06
-0.00023181109
-1.8618682e-05
-2.3022175e-05
-0.00067733593
-1.4250708e-05
-0.00012771057
-0.00049707492
3.4694799e-07
5.9386158e-06
-0.00026928751
-1.1926647e-05
-0.00012280599
-0.00010519809
6.7131915e-06
-4.0075375e-05
-6.7931684e-05
8.2344611e-06
3.6327798e-05
0.00061850648
7.5313421e-06
0.00017196015
0.0004195642
4.3885724e-06
0.00030737897
-6.0172074e-05
2.2240053e-06
1.0001827e-05
-9.8715416e-05
9.7956516e-06
-8.5196565e-06
-0.00021119634
2.0008986e-06
0.00011959174
-0.00037423298
1.900559e-05
0.00010782829
-0.00043189617
1.1091221e-05
4.0356974e-05
-0.00041443845
3.3762272e-05
-6.1830709e-05
3.0687943e-05
-8.681057e-06
0.00017501098
-4.7380933e-06
-5.0124974e-05
-0.00027852464
-1.4287301e-05
-0.00010839287
-0.00043458486
-4.7426664e-06
-4.7269717e-05
-0.00049132404
4.662901e-07
-1.4105841e-05
-0.00028046879
8.8690287e-06
-0.00029645709
-0.00010376258
6.5884082e-07
-0.0001673803
-8.6398434e-05
1.407833e-05
-4.2532302e-05
0.00035580114
1.1272878e-05
-1.3059191e-05
0.0005872161
5.8265268e-06
2.6033936e-05
-8.7546585e-05
6.5095906e-05
2.9624061e-06
-0.00010306065
4.1425887e-05
0.0001441953
-0.00029613997
0.00014293988
-0.00049367977
-2.0406844e-06
-1.1995142e-05
-0.00052273138
6.4145126e-06
2.6151843e-05
-0.00027459215
-1.0083589e-05
-0.0001169551
0.00012359007
-2.5030231e-05
-0.00029090375
0.00023307694
8.1599108e-06
2.5016892e-05
0.00031154662
6.4240696e-06
0.00031342994
0.0001761673
-9.5827698e-06
0.00024940187
8.561662e-05
-1.9377357e-05
9.1215745e-05
6.9187882e-05
-1.336508e-05
9.8127859e-05
-0.00017533766
-1.0604731e-05
0.00017211511
-0.00037267175
-6.1745908e-06
0.00019986178
-0.00043367143
-7.0003912e-06
0.00019597107
-0.00041288068
1.3727773e-05
9.3680985e-05
1.619011e-05
-1.8715634e-05
0.00015888901
-4.3196406e-06
-0.00012190709
-0.0001583435
-7.7549386e-06
-0.0001338618
-0.00040069703
-3.8069429e-06
-0.00010118273
-0.00046801432
6.8226029e-06
-6.9161995e-05
-0.00026274892
4.2555541e-06
-0.00020841353
5.2057093e-05
-6.2950017e-06
-0.00028239237
6.4819979e-05
7.9122999e-06
2.5013034e-06
0.00012319819
1.1682929e-05
0.00029935414
0.00028813783
-2.2160055e-06
0.000108478
0.00021369098
-5.5193225e-06
-3.1408698e-05
7.3097458e-05
-4.3867525e-06
9.7218694e-06
-0.00033750594
4.309424e-05
-0.00052535951
-1.6129285e-05
-0.00030016112
1.1220867e-05
-0.0005083869
2.7639078e-05
-0.00039678575
2.8731756e-05
-0.00018543419
2.1273394e-05
9.2462626e-05
1.3989665e-05
0.00027383579
-1.8875966e-05
0.00036753987
-1.9513949e-05
0.0004976158
-1.457635e-05
0.00046426254
7.0715759e-07
0.00030128048
2.3947373e-06
6.3603723e-05
2.5307979e-06
-0.00017096901
5.4895537e-06
6.9475249e-06
0.0002302974
3.2962526e-07
0.00018956111
7.8423444e-06
-6.9194696e-05
7.5307759e-06
-0.00038842848
-5.7185145e-06
-0.00052110103
-1.475965e-05
-0.00039210556
-1.037826e-05
-0.00026632969
-7.9504924e-06
-8.9224097e-05
-4.8502041e-06
0.00020099159
-1.5758173e-05
0.00043634575
-2.0757232e-05
0.00054932937
-4.5543164e-05
0.00033065996
-8.2647518e-05
-3.1653706e-05
0.00020655824
-0.00030403824
0.00010295612
0.00017538549
3.7500585e-05
5.6037287e-06
0.00017936061
-2.6377076e-05
2.8724032e-05
0.00010245083
7.2289611e-05
9.3029476e-06
-4.8363875e-05
0.00014396559
9.5902595e-06
-0.00021186559
0.00014570305
1.3142511e-05
-0.00030177631
8.2732704e-05
7.528648e-06
-0.00015038646
-0.00021755717
5.8259483e-05
-6.8088384e-05
-0.00011881744
8.9642111e-06
3.7779848e-05
-0.00018477521
4.5541576e-05
0.0001557728