/*--------------------------------*- C++ -*----------------------------------*\
| =========                 |                                                 |
| \\      /  F ield         | OpenFOAM: The Open Source CFD Toolbox           |
|  \\    /   O peration     | Version:  v2012                                 |
|   \\  /    A nd           | Website:  www.openfoam.com                      |
|    \\/     M anipulation  |                                                 |
\*---------------------------------------------------------------------------*/
FoamFile
{
    version     2.0;
    format      ascii;
    class       volScalarField;
    location    "110/bottomWater";
    object      T;
}
// * * * * * * * * * * * * * * * * * * * * * * * * * * * * * * * * * * * * * //

dimensions      [0 0 0 1 0 0 0];


internalField   nonuniform List<scalar> 
1460
(
1018.5166
1017.1665
1015.8409
1012.7766
1010.281
1010.1912
1012.5732
1013.8331
1013.8292
1007.4636
1005.4409
1003.6958
1001.6086
1001.8587
997.04066
998.27586
1003.2665
1006.2059
1007.5207
1008.4782
1013.2203
1015.3334
1013.1001
1011.2208
1010.8184
1013.5698
1015.3081
1018.804
1019.9549
1021.2269
1019.0863
1018.6875
1017.3722
1012.6107
1009.6041
1009.1689
1013.6603
1014.044
1013.4106
1005.0767
1003.7448
1002.7293
1000.1216
1001.3358
994.74291
996.73583
1001.407
1006.457
1007.0968
1007.6457
1012.5839
1013.4815
1012.6286
1009.3285
1009.7672
1012.7875
1014.3743
1020.3369
1020.6616
1021.0361
1019.6182
1020.8458
1018.934
1012.503
1009.1287
1008.7083
1014.5846
1014.7431
1012.8888
1005.9298
1004.641
1002.687
999.12355
998.20357
993.44998
996.21265
1001.8885
1006.985
1007.9852
1008.0585
1012.3532
1014.7651
1013.2849
1008.9362
1009.0646
1012.4419
1013.6967
1021.6354
1021.7024
1021.2843
1020.2731
1021.2221
1016.4266
1011.7385
1007.5158
1007.0029
1012.7154
1012.8809
1012.2116
1006.7779
1005.9509
1005.5071
1003.5665
996.22751
992.40282
995.91697
1001.6582
1008.7645
1008.6957
1008.3269
1011.9192
1012.7208
1012.4752
1008.1502
1008.0766
1011.409
1012.1732
1022.4815
1022.1087
1021.5829
1014.9286
1014.726
1013.2546
1011.5704
1006.7579
1005.7088
1006.4081
1007.3964
1007.2252
1004.7738
1001.7601
999.34339
996.88361
994.21442
991.37678
994.97578
998.18392
1001.15
1002.107
1004.0703
1008.9302
1009.3103
1008.7027
1007.345
1006.7798
1010.5183
1011.3014
1013.0521
1014.8861
1015.389
1019.4335
1018.1697
1017.3615
1016.7472
1013.4363
1013.0352
1015.0632
1016.2214
1015.7259
1007.6474
1003.5406
1000.8459
997.66499
1003.5379
1000.7549
1001.5281
1000.8545
1004.406
1006.6003
1009.5816
1016.3652
1017.5278
1016.0496
1014.2955
1013.3876
1015.5798
1018.3115
1019.5096
1020.7611
1022.3065
1019.3367
1018.6909
1018.2854
1017.826
1012.3987
1011.2745
1015.2747
1015.9305
1016.2609
1007.0186
1000.593
997.88956
995.06276
1002.0302
997.80849
997.16791
999.96555
1003.499
1004.7276
1008.0336
1013.7489
1014.9072
1013.9514
1011.4551
1012.0625
1015.1038
1018.7982
1019.6411
1020.2309
1021.06
1019.7157
1019.3736
1020.5317
1018.1783
1013.0504
1011.6914
1015.0313
1016.9527
1016.2497
1007.3515
1001.8104
999.4078
994.24664
994.41208
992.39927
995.46237
999.70055
1005.4345
1005.6595
1009.4829
1014.3475
1016.3105
1013.3367
1010.0145
1012.1079
1014.727
1019.0936
1021.1812
1020.5375
1021.3253
1020.0642
1020.0169
1020.2169
1019.2938
1012.0378
1010.954
1014.6246
1015.0803
1014.9321
1007.9317
1002.9917
1000.7543
993.73392
991.12005
988.86516
996.50387
1005.7833
1006.1085
1007.5403
1010.004
1014.0772
1013.7211
1015.5706
1009.2305
1012.7908
1019.875
1018.8821
1020.8086
1021.1496
1021.6037
1017.738
1016.3582
1015.911
1012.6485
1010.8603
1008.9067
1009.882
1011.2647
1010.9939
1006.6927
1003.0573
999.91994
994.30895
989.07138
987.70864
992.45586
995.75773
999.80476
1004.6197
1007.8367
1010.1172
1010.1733
1009.8879
1008.6513
1011.0077
1015.9117
1011.847
1013.8456
1016.9047
1018.4882
1022.3942
1022.7458
1020.9601
1018.875
1015.9324
1016.2905
1018.0786
1018.9614
1017.9345
1011.6508
1008.0883
1005.8954
1002.1637
1005.0245
1003.4745
1005.5664
1006.4365
1007.3211
1007.5203
1008.2332
1010.4281
1012.2362
1015.9038
1017.4985
1016.6085
1018.672
1020.4135
1023.1291
1023.549
1024.1762
1019.2832
1019.7707
1020.2802
1018.7885
1014.6662
1014.339
1017.3741
1018.6038
1017.0256
1011.1112
1003.8232
1000.9898
998.98978
1002.4694
1000.6122
1001.541
1003.7688
1005.8857
1003.133
1004.7449
1007.6312
1011.085
1013.2362
1014.2891
1014.4038
1017.9489
1020.6054
1021.0005
1019.95
1019.847
1020.4343
1020.5006
1020.7016
1020.2757
1016.3709
1015.38
1016.5542
1016.8879
1014.508
1009.6912
1002.8558
999.24276
993.85984
997.2561
1000.1087
1001.8212
1000.1592
1003.5274
1003.6831
1006.3163
1008.6619
1011.0509
1016.4164
1014.7333
1015.1773
1018.8781
1021.2424
1020.8553
1019.9766
1021.3329
1019.5092
1018.0644
1016.8666
1015.7759
1016.8548
1014.9718
1015.4386
1015.0967
1008.221
1004.0585
999.69408
995.46026
990.75117
993.23294
999.53124
1000.9502
999.77325
1000.805
1004.8352
1006.4762
1007.2561
1009.7222
1016.0431
1015.5301
1015.4394
1018.6999
1020.6285
1014.8837
1016.5818
1017.8612
1016.8483
1015.2905
1012.2954
1010.1324
1013.8503
1010.3988
1010.5502
1012.6303
1007.287
1004.6453
997.29852
990.61954
986.02486
982.19849
988.07557
992.0485
993.61574
995.93485
994.38209
997.00946
1002.5346
1008.0797
1010.0443
1010.2742
1012.7827
1015.4572
1013.9103
1011.2822
1013.9132
1016.0329
1019.2271
1018.4015
1020.1853
1020.9564
1021.3645
1019.6898
1017.8897
1016.2433
1014.2718
1007.5164
1003.5754
1002.1938
997.55009
997.219
997.50011
997.87698
997.34247
996.4657
1000.4259
1001.5343
1005.486
1011.2356
1014.2846
1015.9942
1017.443
1022.8411
1022.1184
1020.4639
1018.4024
1019.5569
1016.8262
1017.5267
1019.3363
1019.8549
1018.6895
1017.0412
1016.7874
1015.7842
1014.2502
1006.2736
997.68386
997.19703
994.1447
994.71507
996.36885
997.50098
996.2099
993.49987
996.17914
998.58664
1004.0275
1009.2034
1014.6585
1015.4469
1016.003
1019.7111
1020.1779
1019.1849
1016.781
1016.9268
1017.1739
1017.2207
1021.2216
1020.1641
1018.6873
1017.1027
1017.1989
1017.8431
1015.1493
1005.837
992.81528
992.42898
990.6002
993.96759
996.10727
996.78132
995.78697
991.9163
995.19146
997.28223
1003.4013
1009.3249
1016.5228
1016.291
1016.0976
1019.747
1020.6219
1020.4225
1016.2699
1016.0181
1015.7867
1015.9721
1020.1615
1020.1599
1019.026
1017.5858
1017.7991
1018.3726
1013.4912
1006.8677
990.97414
988.0947
990.78714
993.58285
995.48852
995.7124
995.14655
992.80558
994.70345
994.95899
1002.1708
1010.5503
1017.0297
1016.6139
1016.433
1019.8874
1020.6441
1020.6101
1015.6086
1014.1939
1013.3333
1012.9233
1014.3616
1016.4124
1017.0089
1015.3608
1013.8997
1012.9954
1009.8815
1006.39
992.24183
982.29969
983.26074
987.41812
990.41495
990.70227
989.37715
989.11809
989.49062
990.19123
1000.8587
1010.5439
1012.9353
1013.6866
1014.1809
1017.5524
1016.7897
1014.713
1012.9171
1012.4715
1015.4567
1017.9522
1019.4281
1021.3901
1021.9827
1018.3746
1017.7634
1016.7673
1013.6286
1008.5938
1004.4451
997.82426
987.73662
986.11602
994.45991
997.54235
1006.7572
1010.8765
1014.8428
1015.884
1016.8303
1020.785
1022.1405
1020.0269
1018.1971
1015.1714
1014.0671
1016.394
1018.3426
1019.4077
1019.9733
1018.2172
1018.0838
1017.8844
1013.8509
1008.7515
1004.3142
993.0355
985.79587
983.21889
988.17117
994.72326
1007.0988
1011.57
1016.9531
1017.2531
1017.2776
1019.066
1018.7049
1017.0526
1015.8063
1013.2976
1013.378
1016.3163
1019.6594
1021.4196
1020.1568
1018.3378
1018.5099
1018.6784
1014.4492
1008.747
1003.5542
988.21188
975.49804
977.14083
983.11275
991.85378
1007.1403
1012.2229
1018.0959
1017.7597
1017.4616
1019.4276
1020.9612
1017.3399
1015.4472
1012.5306
1011.4892
1013.9022
1018.7205
1020.9286
1020.4962
1018.6387
1018.8543
1019.3425
1013.8853
1009.4297
1002.6432
984.54467
973.39357
970.28619
980.57573
988.65471
1007.0775
1011.9948
1018.9677
1018.0852
1017.6809
1019.823
1020.5501
1017.126
1013.1056
1010.5218
1011.1802
1012.8063
1015.2919
1017.4368
1018.026
1015.2064
1013.8282
1012.9837
1011.1736
1008.5508
1000.2658
975.23576
959.16244
967.12765
973.47162
982.79079
1006.3643
1010.3733
1011.8135
1012.6291
1013.9054
1017.2185
1016.5372
1014.302
1012.1001
1010.1826
1015.4937
1018.088
1019.459
1021.392
1022.4887
1018.221
1017.2614
1016.0574
1012.8944
1008.0052
1002.1536
994.90812
986.05385
985.78792
994.54106
998.27865
1007.5359
1010.9903
1014.9015
1015.9012
1016.8096
1020.8297
1022.0505
1019.7218
1017.6402
1014.7869
1013.8753
1016.31
1017.6603
1019.0081
1019.9167
1018.0292
1017.7969
1017.6613
1013.8215
1008.518
1002.0972
988.80456
982.98044
983.07339
988.45113
996.48625
1007.868
1011.6403
1016.9609
1017.2241
1017.231
1019.5733
1019.7574
1018.6326
1016.8439
1013.0691
1013.0958
1015.4386
1018.2655
1021.3913
1020.2148
1018.2954
1018.2903
1018.531
1014.6672
1008.765
1001.4115
982.48797
975.22783
976.49792
982.79232
994.41584
1007.9174
1012.4262
1018.1208
1017.753
1017.2957
1019.8759
1021.0728
1020.2762
1018.5511
1012.4171
1011.1175
1013.0976
1017.8913
1021.0272
1020.5819
1018.5182
1018.5355
1019.0073
1013.702
1009.1052
1000.5644
979.52995
970.35017
969.66682
979.94721
991.75194
1007.901
1012.1835
1018.4611
1017.8463
1017.5717
1020.2592
1020.8651
1019.7728
1016.6852
1011.4237
1010.6121
1012.1358
1014.5041
1016.9213
1017.7329
1014.8424
1013.6082
1012.8796
1011.1246
1008.4057
998.39584
970.45176
960.64918
965.85366
972.02048
987.03949
1007.3867
1010.7721
1012.3037
1012.9275
1014.2997
1017.6696
1016.8365
1015.3678
1013.1137
1011.4496
1019.0997
1018.0043
1019.937
1021.2556
1022.3111
1019.2422
1016.8768
1015.4502
1013.9098
1006.242
1002.0573
1000.5262
996.49175
996.24961
997.2951
997.55137
996.96039
996.21174
1000.2925
1001.4847
1006.1038
1011.0329
1014.2137
1015.7582
1017.2193
1022.5734
1022.2809
1020.728
1018.68
1019.5801
1016.8819
1016.9902
1019.6375
1020.2554
1019.9524
1016.9737
1016.4436
1015.767
1014.6505
1006.1018
997.43199
995.07356
992.14766
993.88473
996.34338
997.00969
996.17792
993.79535
996.11703
998.0575
1004.9492
1009.4721
1015.021
1015.6754
1016.1295
1019.4523
1020.5597
1019.6637
1017.5279
1016.9058
1016.8282
1016.5233
1021.2941
1020.6337
1019.9002
1016.9807
1016.8466
1017.8312
1015.0137
1005.9302
992.98694
991.32775
988.99106
993.73918
996.39359
996.47563
995.69508
992.21205
995.26272
995.63534
1004.5586
1009.2984
1017.1231
1016.5985
1016.2281
1019.5011
1020.9001
1021.3393
1017.2586
1016.4568
1015.2404
1015.7017
1020.2565
1020.5714
1020.0052
1017.0905
1017.0323
1017.3866
1012.9846
1006.1401
991.25664
988.35699
988.84085
993.4886
995.60059
995.55399
995.04201
992.82884
994.52894
993.13835
1003.7339
1009.8363
1016.8838
1016.6447
1016.5875
1019.6225
1020.6777
1020.0236
1016.5498
1014.8544
1013.0168
1012.6436
1014.0443
1016.5508
1017.5099
1015.0078
1013.9328
1012.9205
1009.8666
1006.4194
991.17598
980.56384
976.30277
982.99547
989.58903
990.4256
988.99047
988.6582
988.69253
988.90028
1002.8563
1010.551
1013.1952
1013.748
1014.4341
1017.3954
1016.9487
1015.7309
1013.6932
1012.877
1022.7894
1022.8364
1021.9615
1020.0752
1016.6084
1016.3811
1017.6617
1018.1921
1016.1259
1011.6105
1007.9721
1006.6816
1004.2313
1006.2014
1003.1758
1004.0408
1006.003
1007.012
1007.2428
1008.0306
1010.7466
1012.8474
1015.9262
1017.4744
1016.9211
1017.7867
1020.3216
1022.9499
1023.5728
1024.0956
1019.4352
1019.566
1020.7649
1020.0469
1016.5515
1014.6799
1017.3396
1017.8517
1014.188
1010.0015
1004.2433
1002.0563
1001.7894
1003.4926
1000.1747
999.94289
1002.9897
1005.4027
1003.079
1004.8426
1008.4912
1011.8402
1013.9011
1014.8262
1014.5867
1017.3379
1020.554
1021.1973
1020.3144
1019.9136
1020.8813
1020.1187
1020.9713
1021.1836
1017.8341
1015.4683
1017.2906
1018.0847
1013.1449
1008.3985
1003.5469
1001.2371
996.3472
999.99799
1000.1716
1000.9903
999.86134
1002.1136
1003.2929
1005.5867
1008.8487
1011.7572
1016.5196
1015.4703
1015.3549
1018.458
1021.3201
1021.1196
1020.5062
1021.4238
1018.5303
1017.3136
1015.8478
1019.3127
1017.5694
1015.9649
1015.0899
1015.0386
1008.2296
1004.2762
1001.1833
999.25154
991.44062
993.7085
995.35879
998.70417
998.28053
999.30179
1004.0503
1003.8227
1007.1232
1009.0937
1015.8309
1015.6586
1015.7167
1018.2867
1020.5509
1014.4603
1016.5218
1018.3813
1016.4538
1014.7055
1011.8663
1010.249
1014.6031
1011.2842
1009.4683
1011.7511
1006.4999
1005.2647
997.17793
992.97798
988.94417
982.9101
982.58575
988.1113
991.99029
995.08028
993.17473
994.63413
1002.8395
1006.9856
1009.0055
1010.1452
1012.9191
1015.1877
1014.012
1011.4143
1013.8638
1016.3819
1020.2612
1018.9929
1018.1942
1017.5459
1013.9148
1013.0312
1014.0622
1015.8104
1016.8205
1010.2993
1004.9232
1002.184
998.66809
1003.6997
1000.1327
999.49165
998.82653
1002.4865
1004.7952
1007.455
1013.7903
1017.4838
1016.2349
1014.4767
1013.7345
1014.9171
1018.5308
1019.2502
1020.3617
1021.7767
1019.9219
1019.3066
1018.9695
1018.4884
1013.7083
1011.5712
1014.0358
1015.3871
1016.0797
1009.0622
1001.9488
999.47412
996.83099
1002.1482
996.96643
994.71571
998.18725
1002.3426
1003.4975
1005.4245
1013.298
1015.0527
1013.856
1011.588
1012.086
1014.6944
1019.195
1019.544
1020.0444
1020.7986
1020.271
1019.7618
1020.8502
1018.7355
1013.6114
1011.6063
1014.0207
1017.3084
1016.5511
1009.4247
1002.7691
1003.0049
995.94286
995.00794
990.48146
992.82927
998.14379
1003.9085
1004.5349
1006.7427
1013.9863
1015.6164
1015.9934
1010.792
1011.8032
1014.6361
1019.4928
1021.1992
1020.3974
1021.0773
1020.5869
1020.3762
1020.6756
1020.4548
1012.795
1010.7096
1012.5575
1015.434
1014.9138
1010.2534
1003.7356
1002.8512
995.86394
992.52529
988.14871
992.70485
1003.3672
1005.4038
1006.4222
1007.3228
1014.2223
1015.5442
1016.3021
1010.1818
1011.2847
1018.9379
1018.686
1020.663
1020.9564
1021.3384
1018.042
1016.6429
1015.9192
1012.392
1011.6194
1008.7592
1008.9884
1010.3602
1010.4034
1009.1645
1002.7809
1000.3194
994.28636
989.71927
986.18906
990.13725
994.19596
998.09046
1002.2127
1005.1733
1010.9103
1010.1395
1008.7124
1007.6623
1010.1555
1014.373
1011.587
1013.5416
1016.7701
1018.4216
1019.4346
1018.1735
1017.0038
1013.7222
1010.9741
1010.2811
1012.0835
1013.3898
1014.4042
1007.8687
1006.0406
1004.5363
1001.9827
1002.0759
996.95191
997.51647
1002.4702
1005.3341
1006.9796
1008.2522
1011.9614
1015.9344
1013.6852
1011.8787
1011.1111
1012.5819
1014.9066
1017.9674
1019.237
1020.6759
1019.7991
1019.4961
1019.0277
1013.5678
1010.4384
1009.3194
1012.6703
1013.4338
1013.977
1006.5901
1005.2075
1004.4609
1001.1477
1001.94
994.9235
995.71757
1001.1087
1005.2014
1006.1815
1006.8539
1011.2949
1014.0441
1013.1889
1009.9637
1009.759
1011.7237
1014.031
1019.2825
1020.0076
1020.5008
1020.1717
1021.0659
1020.6316
1013.2667
1010.0227
1008.7722
1013.2389
1015.551
1014.1571
1007.5695
1006.0166
1004.9024
1000.3993
999.3768
993.66684
994.97249
1001.09
1005.3301
1006.9165
1007.2294
1011.1685
1014.0419
1014.3453
1009.8507
1009.0995
1011.3021
1013.4235
1020.7063
1021.5913
1020.8458
1020.632
1021.3664
1019.0341
1012.3423
1008.6655
1007.1925
1010.7295
1014.1745
1013.763
1008.6247
1007.1095
1005.2173
1004.8978
996.9214
992.83852
994.58634
1003.0697
1007.7927
1006.872
1007.7064
1011.0816
1012.5838
1013.7711
1009.2095
1007.8504
1009.9955
1011.7796
1018.3459
1021.8731
1021.2361
1015.3129
1014.9865
1013.2998
1011.7701
1008.1855
1005.8529
1006.6395
1008.1768
1008.1961
1006.9975
1002.3614
999.44302
996.64767
994.10452
991.52777
994.02307
997.06392
998.74117
999.48618
1002.6184
1008.7193
1008.555
1008.9834
1007.3981
1006.5976
1009.0214
1010.9289
1012.7988
1015.0453
1015.2855
)
;

boundaryField
{
    minX
    {
        type            zeroGradient;
    }
    maxX
    {
        type            zeroGradient;
    }
    minY
    {
        type            fixedValue;
        value           uniform 1073;
    }
    minZ
    {
        type            zeroGradient;
    }
    maxZ
    {
        type            zeroGradient;
    }
    bottomWater_to_rightSolid
    {
        type            compressible::turbulentTemperatureCoupledBaffleMixed;
        refValue        nonuniform List<scalar> 
130
(
589.57802
592.95066
596.37115
599.65466
602.64464
605.27915
607.54395
609.45634
611.036
612.26888
613.18399
613.7934
614.09712
586.43134
590.55894
594.63492
598.43549
601.82207
604.74696
607.21631
609.27272
610.93563
612.20101
613.14035
613.76929
614.08529
580.00149
585.81686
591.29049
596.17043
600.34844
603.82039
606.65213
608.93684
610.73295
612.07936
613.0455
613.68958
614.01451
570.2307
579.3222
587.08281
593.51045
598.70203
602.81983
606.06108
608.59332
610.54337
611.97952
612.98429
613.6258
613.94185
558.44652
573.02122
583.566
591.51341
597.5264
602.12069
605.64888
608.35641
610.41052
611.90474
612.93639
613.58358
613.89583
558.42364
573.00584
583.5721
591.51839
597.5294
602.12369
605.65165
608.3598
610.41493
611.91092
612.94573
613.59369
613.90587
570.1782
579.2809
587.05663
593.50462
598.69714
602.81725
606.0598
608.59358
610.5441
611.98397
612.99375
613.63532
613.94964
579.93471
585.75994
591.24588
596.14763
600.33024
603.80684
606.64435
608.9314
610.72723
612.07641
613.04486
613.69002
614.01629
586.37144
590.50248
594.58944
598.41296
601.80633
604.73259
607.20377
609.25946
610.91996
612.19086
613.1333
613.76464
614.08185
589.52666
592.89997
596.33271
599.63255
602.63062
605.27317
607.53875
609.4473
611.0206
612.25766
613.17624
613.78867
614.0927
)
;
        refGradient     uniform 0;
        valueFraction   uniform 0.99248593;
        value           nonuniform List<scalar> 
130
(
592.67066
596.02515
599.43467
602.73004
605.70042
608.31055
610.54812
612.4419
614.03782
615.26727
616.18864
616.80725
617.11247
589.53751
593.67028
597.73981
601.52897
604.89053
607.79126
610.23276
612.29147
613.9787
615.204
616.15132
616.7985
617.12403
583.12696
588.88695
594.33918
599.22408
603.41232
606.87296
609.685
611.97141
613.77409
615.09872
616.03791
616.69695
617.03536
573.37833
582.40431
590.11188
596.57145
601.79671
605.90153
609.12408
611.64099
613.60169
615.02132
616.00292
616.62613
616.93647
561.51748
576.03032
586.56579
594.63068
600.62861
605.1992
608.70701
611.40378
613.46735
614.94517
615.95222
616.57797
616.87354
561.48518
576.00413
586.60373
594.64331
600.63458
605.20586
608.712
611.4101
613.47511
614.9536
615.9695
616.59567
616.89302
573.32275
582.3573
590.07619
596.58067
601.7919
605.90091
609.12326
611.64314
613.60124
615.02693
616.01999
616.64142
616.94725
583.05422
588.82131
594.27709
599.20377
603.38602
606.85171
609.67634
611.96702
613.7664
615.09654
616.03824
616.69701
617.03973
589.46522
593.5962
597.67467
601.51255
604.87463
607.76818
610.2129
612.2719
613.95157
615.19196
616.14204
616.79287
617.12011
592.60167
595.95517
599.38562
602.70652
605.68084
608.30674
610.54337
612.43156
614.01128
615.25335
616.17906
616.80374
617.1073
)
;
        Tnbr            T;
        thicknessLayers List<scalar> 0();
        kappaLayers     List<scalar> 0();
        kappaMethod     fluidThermo;
        kappa           none;
        alphaAni        none;
        alpha           none;
        field           T;
    }
    bottomWater_to_leftSolid
    {
        type            compressible::turbulentTemperatureCoupledBaffleMixed;
        refValue        nonuniform List<scalar> 
130
(
617.17316
617.14029
617.07001
616.96535
616.82905
616.6918
616.55822
616.41647
616.25146
616.06171
615.86928
615.71082
615.61739
617.20811
617.17341
617.10887
617.01003
616.89114
616.75332
616.6114
616.45244
616.25727
616.02637
615.79213
615.59458
615.46966
617.20623
617.17541
617.11696
617.03955
616.95032
616.81124
616.6493
616.45615
616.19949
615.90922
615.59639
615.32701
615.16729
617.17269
617.1612
617.14049
617.09776
617.01315
616.87199
616.68476
616.44969
616.15168
615.79699
615.38884
615.03107
614.83519
617.13985
617.14311
617.14092
617.11246
617.03227
616.88441
616.68594
616.43462
616.11926
615.737
615.28764
614.82097
614.52354
617.13516
617.13785
617.13542
617.10771
617.02884
616.88136
616.6837
616.43305
616.11805
615.73471
615.28045
614.81332
614.53825
617.16798
617.15642
617.13586
617.09527
617.01238
616.86914
616.68215
616.44844
616.1546
615.80596
615.40163
615.045
614.83293
617.20388
617.17266
617.11509
617.0403
616.9546
616.81502
616.64607
616.45446
616.20643
615.93233
615.63086
615.37701
615.22161
617.21293
617.17794
617.11283
617.01472
616.89901
616.75796
616.61196
616.45628
616.27241
616.05997
615.82541
615.63386
615.50993
617.18043
617.14717
617.07684
616.97461
616.84282
616.70198
616.56873
616.43295
616.27669
616.09758
615.90179
615.7426
615.6489
)
;
        refGradient     uniform 0;
        valueFraction   uniform 0.99248593;
        value           nonuniform List<scalar> 
130
(
620.16196
620.1278
620.04699
619.93048
619.75908
619.61493
619.48759
619.35434
619.18928
618.98262
618.76895
618.59349
618.48233
620.21777
620.17295
620.10552
619.98292
619.85155
619.70004
619.5665
619.41913
619.22339
618.96197
618.70214
618.48249
618.31638
620.20921
620.16691
620.0864
619.99331
619.93272
619.76876
619.60916
619.43311
619.13823
618.83031
618.46466
618.14712
617.95393
620.14952
620.13503
620.12529
620.09829
620.01881
619.86632
619.66952
619.42944
619.11028
618.73201
618.2207
617.79067
617.60332
620.10068
620.11608
620.13259
620.12053
620.04541
619.87745
619.67013
619.41436
619.08778
618.68867
618.18041
617.52931
617.11295
620.09177
620.10581
620.12122
620.11193
620.03979
619.8717
619.66626
619.41202
619.08621
618.6853
618.15917
617.48579
617.13895
620.14247
620.12817
620.1183
620.09684
620.02178
619.86082
619.66716
619.42762
619.11306
618.74112
618.22544
617.79162
617.5486
620.20392
620.1598
620.08134
619.99488
619.94259
619.77917
619.59784
619.42482
619.1392
618.8579
618.49806
618.21447
618.02979
620.22483
620.17958
620.10952
619.98567
619.86504
619.70356
619.56036
619.41616
619.23402
619.01391
618.73309
618.52452
618.35618
620.17205
620.13658
620.05412
619.94117
619.78345
619.62613
619.49977
619.37655
619.2216
619.03494
618.8057
618.62579
618.51186
)
;
        Tnbr            T;
        thicknessLayers List<scalar> 0();
        kappaLayers     List<scalar> 0();
        kappaMethod     fluidThermo;
        kappa           none;
        alphaAni        none;
        alpha           none;
        field           T;
    }
    bottomWater_to_heater
    {
        type            compressible::turbulentTemperatureCoupledBaffleMixed;
        refValue        nonuniform List<scalar> 
92
(
581.19118
582.11115
583.9244
586.47675
576.02908
577.16501
579.40674
582.57976
565.0876
566.6538
569.78343
574.35942
336.99347
333.94395
333.98508
337.08692
395.18861
391.25564
391.42137
395.57991
441.28609
437.64116
438.08068
442.36083
477.07366
474.12959
475.20678
479.77019
547.03416
503.32841
549.02117
501.76478
553.40077
504.27588
560.53993
510.1431
336.99347
337.08692
395.18861
395.57991
441.28609
442.36083
477.07366
479.77019
503.32841
510.1431
336.98286
336.98286
333.94065
333.98282
337.08349
337.08349
395.17001
395.17001
391.24954
391.41685
395.57468
395.57468
441.27668
441.27668
437.63622
438.07495
442.35179
442.35179
477.0568
477.0568
474.12134
475.19834
479.75787
479.75787
503.31322
503.31322
501.74976
504.26121
510.12342
510.12342
546.91093
548.92215
553.32224
560.47604
565.00591
566.55432
569.68796
574.27953
575.99306
577.11462
579.3449
582.51797
581.17658
582.08993
583.88931
586.43251
)
;
        refGradient     uniform 0;
        valueFraction   nonuniform List<scalar> 
92
(
0.99248593
0.99248593
0.99248593
0.99248593
0.99248593
0.99248593
0.99248593
0.99248593
0.99248593
0.99248593
0.99248593
0.99248593
0.99248593
0.99248593
0.99248593
0.99248593
0.99248593
0.99248593
0.99248593
0.99248593
0.99248593
0.99248593
0.99248593
0.99248593
0.99248593
0.99248593
0.99248593
0.99248593
0.99248593
0.99248593
0.99248593
0.99248593
0.99248593
0.99248593
0.99248593
0.99248593
0.99248593
0.99248593
0.99248593
0.99248593
0.99248593
0.99248593
0.99248593
0.99248593
0.99248593
0.99248593
0.99248593
0.99248593
0.99248593
0.99248593
0.99248593
0.99248593
0.99248593
0.99248593
0.99248593
0.99248593
0.99248593
0.99248593
0.99248593
0.99248593
0.99248593
0.99248593
0.99248593
0.99248593
0.99248593
0.99248593
0.99248593
0.99248593
0.99248593
0.99248593
0.99248593
0.99248593
0.99248593
0.99248593
0.99248593
0.99248593
0.99248593
0.99248593
0.99248593
0.99248593
0.99248593
0.99248593
0.99248593
0.99248593
0.99248593
0.99248593
0.99248593
0.99248593
0.99248593
0.99248593
0.99248593
0.99248593
)
;
        value           nonuniform List<scalar> 
92
(
584.29481
585.18653
587.01313
589.57041
579.13285
580.24988
582.51045
585.68446
568.22177
569.82026
572.95635
577.50975
341.95455
338.93004
338.97366
342.04824
399.69358
395.80258
395.97558
400.09321
445.43908
441.8376
442.27888
446.51943
480.95483
478.04718
479.11797
483.64286
550.34319
506.96584
552.33786
505.43656
556.68675
507.93098
563.7623
513.74416
341.88325
341.96384
399.62646
399.99546
445.30036
446.37923
480.80294
483.45602
506.75335
513.57701
341.86012
341.93676
338.92524
338.96898
341.95796
342.04198
399.58687
399.66893
395.79636
395.96741
399.98916
400.08778
445.28899
445.42806
441.83487
442.27091
446.36542
446.50977
480.7635
480.9374
478.03986
479.10841
483.43912
483.62985
506.74967
506.91719
505.41535
507.91433
513.54789
513.72171
550.1873
552.23328
556.60671
563.69596
568.14598
569.68034
572.83199
577.41823
579.10195
580.18854
582.43165
585.61142
584.27951
585.16665
586.97116
589.5181
)
;
        Tnbr            T;
        thicknessLayers List<scalar> 0();
        kappaLayers     List<scalar> 0();
        kappaMethod     fluidThermo;
        kappa           none;
        alphaAni        none;
        alpha           none;
        field           T;
    }
}


// ************************************************************************* //
