/*--------------------------------*- C++ -*----------------------------------*\
| =========                 |                                                 |
| \\      /  F ield         | OpenFOAM: The Open Source CFD Toolbox           |
|  \\    /   O peration     | Version:  v2012                                 |
|   \\  /    A nd           | Website:  www.openfoam.com                      |
|    \\/     M anipulation  |                                                 |
\*---------------------------------------------------------------------------*/
FoamFile
{
    version     2.0;
    format      ascii;
    class       volVectorField;
    location    "110/bottomWater";
    object      U;
}
// * * * * * * * * * * * * * * * * * * * * * * * * * * * * * * * * * * * * * //

dimensions      [0 1 -1 0 0 0 0];


internalField   nonuniform List<vector> 
1460
(
(-0.0019459911 -0.014134158 0.0014487651)
(-0.003623449 -0.013030943 0.0016078002)
(-0.003457427 -0.011033116 0.0019101804)
(-0.0018658093 -0.011916269 0.0021713366)
(-7.1172953e-06 -0.011761102 0.002110652)
(0.0012967859 -0.011048794 0.0019124258)
(0.0029110627 -0.01144458 0.0014789695)
(0.0034106135 -0.013272346 0.0013465522)
(0.0006670847 -0.015763839 0.0011634003)
(-0.0024038928 -0.015517286 0.00059360544)
(-0.003526847 -0.013836459 0.00082035178)
(-0.0029715188 -0.012004158 0.001005744)
(0.0019275388 -0.013314106 0.0021085891)
(-0.00040506498 -0.014327365 0.0022142904)
(-0.0025025986 -0.011923524 0.0023096513)
(0.0013125016 -0.011228894 0.0027808083)
(7.3090976e-05 -0.014568897 0.00032469805)
(0.0022310269 -0.012013947 0.00080668866)
(0.0037342899 -0.013494323 0.00050354854)
(0.0024246643 -0.014687212 0.00027968891)
(-0.00016974656 -0.015643827 0.0010654669)
(-0.0026106698 -0.014489132 0.0018177536)
(-0.0019785628 -0.010811992 0.0019272669)
(-0.0015152813 -0.010922903 0.0020691761)
(-0.0013843094 -0.011027372 0.002184151)
(-0.00054779114 -0.011163587 0.0021931173)
(0.0010455505 -0.01167067 0.0017887612)
(0.0030724633 -0.01120868 0.0013523756)
(0.0038249875 -0.01266966 0.0009804516)
(0.0015176419 -0.014096417 0.0010276848)
(-0.0046791831 0.015336342 0.0015493971)
(-0.005237154 0.011041044 0.0011789262)
(-0.0035574738 0.0013611859 0.00086673249)
(-0.0015194251 0.0014777752 0.0022357503)
(-0.00014197045 -0.0014584014 0.00059304948)
(0.0015964802 -0.00010640879 0.00028372228)
(0.0025241588 0.0020828181 0.0008428706)
(0.0069233863 0.0132883 0.0010013052)
(0.0045041271 0.017095399 0.0015742248)
(-0.0062746691 0.016384381 0.00087734598)
(-0.0070921254 0.01153481 0.00047167)
(-0.0028074776 -0.00055153839 0.00017031049)
(-0.00043743612 0.003743986 0.0023692707)
(0.00070817235 0.015495999 0.0024591479)
(-0.0014623935 0.00092977923 0.0016797553)
(0.00027524892 -0.00069709942 0.0016425458)
(0.0010627262 0.012156991 0.0018864955)
(0.0021444338 0.0011804451 3.2922382e-07)
(0.0064757442 0.0120466 8.010362e-05)
(0.0059067277 0.015884451 0.00042920111)
(-0.0030568937 0.017059276 0.0014030502)
(-0.006583288 0.013999225 0.00095826083)
(-0.002634275 0.0019383179 0.0003028106)
(-0.0021396965 0.004949128 0.00074718402)
(-0.0010716302 0.0016030894 0.0010901399)
(-0.0014095025 0.00050162213 0.0013007854)
(0.0015429891 0.0019606645 0.0021798101)
(0.0025919734 0.00018779029 -0.00047064465)
(0.0060784679 0.012321767 0.00044965613)
(0.0042242518 0.015585599 0.001136415)
(-0.0015177732 0.0013126813 -0.00018738424)
(0.0035479078 -0.01274179 -0.0020659644)
(-0.00013583976 -0.012767408 -0.0019385404)
(-0.00035691358 -0.011849299 0.00047857267)
(-0.00090038492 -0.013263179 -0.0019296852)
(0.0012777276 -0.011992559 -0.0022948336)
(-0.0011144225 -0.01328835 -0.00047791904)
(-0.0051513802 -0.011677124 -0.00013945952)
(0.0017852058 0.005540247 0.0015783476)
(-0.0034707841 0.0041777558 -0.00032896376)
(0.0042259303 -0.012738874 -0.0030515316)
(0.0014128702 -0.014500521 -0.0022756765)
(-0.0054884315 -0.013691496 -9.9414654e-06)
(-0.0031124524 -0.01192582 0.00036424732)
(0.0023128619 -0.012801253 -0.0012670763)
(-0.0014248092 -0.012743806 -0.00084848508)
(0.0018737746 -0.013283751 0.0030481748)
(-0.00025786176 -0.014281629 -0.0023300601)
(-0.0043262057 -0.012690922 -0.0029503759)
(0.0033656242 0.0032451013 -0.00050696978)
(-0.001464434 0.0064969242 0.0012717944)
(0.0041695984 -0.011859718 -0.0012964683)
(-0.00027119251 -0.013891264 -0.0019097573)
(-0.0017688896 -0.011694015 -0.002332878)
(0.00066472548 -0.012186626 -0.0016870317)
(-0.00060133083 -0.01223576 -0.0011362857)
(0.0012391784 -0.011752272 0.00034383705)
(-0.0011228842 -0.013982249 -0.0036769222)
(-0.004793681 -0.011917363 -0.0021784907)
(0.0016305176 0.0029185178 -0.00039475623)
(0.0017088297 0.0067267224 -0.0002497296)
(0.0032998301 0.0095559158 -0.0015467029)
(-0.0011542201 0.0052747032 0.00015304643)
(3.9369076e-05 -0.0027275572 -0.0016750758)
(-0.00057835062 -0.0048059149 -0.00040995001)
(-0.0010272514 -0.0017155875 -0.0012508282)
(0.002215336 0.0088816233 0.00071745861)
(-0.0058903024 0.0095749083 0.0017710913)
(-0.0024557345 0.0077558434 0.0014008341)
(-0.00062863581 0.0074740603 -4.0721907e-05)
(0.002733864 0.0086871432 -0.0022391638)
(0.00049201166 0.010559341 0.00029607575)
(-0.00040985067 0.0098051128 0.00080614757)
(-0.00080216537 0.001354819 3.8644304e-05)
(0.00055613302 -0.004466899 -0.00046018463)
(-0.00067154514 -0.0034523895 -0.00057609064)
(0.00014894842 0.0057906481 -0.00084142846)
(-0.00062398929 0.010211367 -0.001277347)
(-0.0030685535 0.0090259239 -0.0029538119)
(0.00087971106 0.0069891109 -0.00036235649)
(0.0026175723 0.0085268715 0.0013457258)
(0.0061174627 0.010580308 0.0012834458)
(-0.0013279795 0.0093983216 0.0018411837)
(-0.0004707704 0.0012043156 -0.00018058029)
(-0.00036154383 -0.0021893255 -0.00071553606)
(-0.00010335057 -0.0025436978 -0.00052281059)
(-0.0014402444 -0.0019999902 -0.0015103732)
(0.0014663093 0.010810899 0.0002304696)
(-0.004589421 0.0096041174 -0.001385106)
(-0.0012895376 0.006842392 -4.002818e-05)
(0.0013529875 -0.0027541208 -0.0019148755)
(0.0035674644 -0.0056708092 -0.001780992)
(0.0049805963 -0.0077959473 -0.0025798169)
(0.0037125914 -0.0091565304 -0.003136333)
(-0.0016041342 -0.0089676152 -0.0021594408)
(-0.0062152085 -0.0087872125 -0.0016716713)
(-0.0068265195 -0.007586041 -0.00074384342)
(-0.0050037857 -0.0043472857 -0.00030474061)
(-0.0025826815 -0.00035579263 -5.8370998e-05)
(0.00043726461 0.00074195267 -0.00079474132)
(0.0027738773 -0.0070707891 -0.0011475395)
(0.0032877493 -0.0091225538 -0.001454891)
(0.0049715713 -0.010643666 -0.0018426955)
(0.0046191519 -0.01010526 -0.002110429)
(0.0013742722 -0.0088362842 -0.0020905335)
(-0.0040904223 -0.0087581057 -0.0026034284)
(-0.0049517059 -0.0094321015 -0.0022672325)
(-0.00360444 -0.0073456194 -0.0011662567)
(-0.0025583546 -0.0068539179 -0.0013038141)
(-0.0010288396 -0.00060142901 -0.0010454177)
(0.0017200491 0.0015461843 0.0012674595)
(0.0045419359 -0.0020123455 0.0011480258)
(0.0058139361 -0.0043979462 0.00051226737)
(0.0065710255 -0.0070046559 -5.3789226e-05)
(0.0025119617 -0.0079670187 -0.0016333928)
(4.474436e-05 -0.0079887538 -0.0036328231)
(-0.0038761155 -0.010132321 -0.0028556782)
(-0.0052797904 -0.0095706226 -0.0013176497)
(-0.0030656014 -0.0057295505 -0.0011402507)
(-0.0013485059 -0.0027256717 -0.0011791234)
(-0.0010441336 -0.015253415 0.0019792485)
(-0.0022524851 -0.014818366 0.0021752474)
(-0.0028200369 -0.013569362 0.0027392488)
(-0.00091885967 -0.010572589 0.002186433)
(0.0022254658 -0.014328302 0.0039277768)
(-0.00075677574 -0.014269756 0.0037858015)
(0.00078290077 -0.01018452 0.0018719564)
(0.0021470579 -0.014137891 0.0015042731)
(-4.8417879e-06 -0.01585951 0.0018536673)
(-0.0014584022 -0.016306277 0.0018138685)
(-0.0024453105 -0.014314675 0.0012726852)
(-0.0029252671 -0.012065823 0.001760917)
(0.00029782863 -0.010930029 0.0014118713)
(0.0014013749 -0.014039255 0.0010631042)
(-0.0020489244 -0.015744031 0.0034577579)
(-0.001065814 -0.012102287 0.0033501089)
(-6.9730019e-05 -0.011220852 0.0004175568)
(0.0030469107 -0.011771216 0.0014408928)
(0.0024200325 -0.013570217 0.00068820577)
(0.00096659711 -0.015401332 0.0005951197)
(9.4763353e-05 -0.015287108 0.0011740434)
(-0.00091346273 -0.01677453 0.00014502081)
(-0.00046814704 -0.015711496 0.0023878371)
(-0.00052149634 -0.014705207 0.0023105631)
(-0.0012391292 -0.014953546 0.0032772245)
(-0.0017608427 -0.013977603 0.0032482336)
(0.0007953919 -0.010500709 0.0016704607)
(0.0030124287 -0.013159815 0.0024296354)
(0.0022038436 -0.014442546 0.0014381188)
(0.00082516225 -0.014929109 0.0013788505)
(-0.0026852843 0.016727821 0.0012242023)
(-0.0044845252 0.016265995 0.0022569483)
(-0.0048499768 0.012130836 0.0031635279)
(-0.001084546 -0.0014294583 0.00027814497)
(0.0019543754 0.012528817 0.0055298075)
(-0.0012558249 0.014592064 0.0062440334)
(0.0012883105 0.001232074 -0.00050654624)
(0.0054929231 0.014476985 -0.00033105863)
(0.0042564442 0.017661347 -0.00067095613)
(-0.0021272658 0.017491484 -0.00096295168)
(-0.0052850053 0.015265097 -5.7258792e-05)
(-0.0039180588 0.0073050952 0.00060781797)
(-0.0028645119 8.6010962e-05 -0.0005150549)
(0.0031367435 0.015859223 0.0021610156)
(-0.0010730488 0.01557708 0.0068213905)
(-0.0018701074 0.0097802958 0.0047293831)
(0.0015495091 -0.00079105456 -0.0004727462)
(0.0033020808 0.0081492958 0.00064086446)
(0.0041228415 0.015044067 -4.1660632e-05)
(0.00062547709 0.016932358 -0.0020493492)
(-0.0038755058 0.017217085 -0.0014374816)
(-0.0045029007 0.017667512 -0.00011731742)
(-0.0020993892 0.016080403 0.0029196244)
(-0.00017079184 0.015290805 0.0054500012)
(-0.0016175165 0.015181647 0.0063623513)
(-0.0020982134 0.011214435 0.004432768)
(0.00025482188 -0.00031294276 0.00038357023)
(0.0049553973 0.01323198 0.0036778782)
(0.0039900059 0.016260585 0.0016806347)
(0.0017231485 0.016609024 -3.7633931e-05)
(0.00022631716 0.0048494757 -0.00017975699)
(0.00011370108 -0.00024362723 -0.0010460749)
(0.0043104687 -0.012318338 -0.0039221777)
(-0.0010564757 -0.014219455 -0.0024010927)
(-0.0034849221 -0.013424126 -0.0028795775)
(0.0028703664 -0.013378543 -0.003245657)
(0.0011325119 -0.013959071 -0.0033649715)
(-0.004627014 -0.013116992 -0.0031130975)
(0.001526215 0.0064609734 -0.0010628405)
(-0.0016558846 0.0058654821 -0.0013554535)
(0.00041444205 -0.00065493667 -0.0030624016)
(0.001806535 -0.012282703 -0.0049403882)
(-0.0047342258 -0.014129527 -0.0039361866)
(-0.004182526 -0.011610293 -0.0011117069)
(0.0016544657 -0.0093047371 -0.0011135931)
(0.0035252921 -0.012602761 -0.002207287)
(0.0023396536 -0.014341905 -0.0026040603)
(-0.0030581257 -0.011736931 -0.0046514707)
(-0.00066213154 -0.00033883164 -0.0019974986)
(-0.00033816052 0.0057804486 -0.0011489447)
(-0.0029846618 0.0043912854 -0.00055017286)
(0.001507843 -0.013321654 0.00074855095)
(-0.0025943382 -0.016153302 -0.0027557715)
(-0.00035887121 -0.010727128 -0.001292024)
(0.0030932591 -0.010686442 -0.001984015)
(0.0042730811 -0.013869421 -0.0031570274)
(-0.0005845388 -0.013265766 -0.0027570851)
(-0.0033232653 -0.011667312 -0.0050944777)
(-5.8352865e-05 0.00072355018 -0.0014864582)
(-0.00069396654 0.0031252592 -0.0015614239)
(0.0012598139 0.0089450661 0.00077121687)
(0.0031051995 0.0066950734 0.0010884859)
(0.0029703373 0.010244179 0.00064436143)
(-0.0011670392 0.0076592592 0.0022516011)
(0.00063608307 -0.00088090283 -0.00047432227)
(-0.0017120519 0.00013146833 -0.0020914109)
(0.00051550874 0.0079833162 0.00062348931)
(-0.0056015359 0.010039357 0.00081444034)
(-0.0024482591 0.0081548654 0.0010757951)
(-0.00056283415 0.0093510728 0.00077661477)
(0.0020457333 0.0062549533 -0.0025705078)
(0.0022069435 0.0086245313 -0.0017393926)
(-0.0013967573 0.0088190575 -0.00035769545)
(-0.00055283724 0.0039809109 -9.6576176e-05)
(4.390909e-05 -0.00089703187 -0.0015056719)
(-0.00042356286 0.0030489307 -0.00036315743)
(-0.0015831479 0.0097393878 -8.2089164e-05)
(-0.0032664397 0.0080562303 -0.0018290712)
(-0.0024271494 0.0062961975 -0.0023827681)
(-0.00011720451 0.0088758887 0.00023247107)
(0.0019246557 0.0078179113 0.00042312941)
(0.0056451842 0.010838495 -0.0024596127)
(-0.00081113093 0.01231808 -0.0021906722)
(0.0011216888 -0.002142076 -0.0028240438)
(0.00044948981 0.0032179216 -0.0017985813)
(-0.0019051464 0.010258827 0.0012160586)
(-0.0040429521 0.0059712066 0.00092788303)
(-0.003660589 0.0084479979 0.00038982194)
(-0.0026298845 0.006821622 0.001314852)
(-0.001227147 0.0081352315 0.0014460002)
(0.0020971397 0.0024531695 -0.00085874469)
(0.0031123908 -0.0018979588 -0.0011477662)
(0.0037441518 -0.0038873854 -0.0010662928)
(0.0035921025 -0.0096490204 -0.002388918)
(0.00083602694 -0.0092789946 -0.0032553014)
(-0.0053383483 -0.0093516161 -0.0027461614)
(-0.0066504381 -0.007059837 -0.0012336035)
(-0.0048909611 -0.0024174653 -0.00083168269)
(-0.0024519414 0.0016222382 0.00022734384)
(0.00071787228 0.00405535 0.0010249153)
(0.0030001038 -0.0013906314 -0.00067267476)
(0.0028239811 -0.0045715974 -0.0012578593)
(0.0035989666 -0.0067397714 -0.0023642529)
(0.0037849968 -0.0095341609 -0.0033817758)
(-7.0752867e-07 -0.0081603669 -0.0041615901)
(-0.0033730143 -0.0080102304 -0.004200398)
(-0.0032946089 -0.0087114224 -0.0035843256)
(-0.0026570303 -0.0084536863 -0.0011472789)
(-0.0033687418 -0.0037504748 0.00049122418)
(-0.00077168916 0.002635036 0.0009581805)
(0.0018959611 7.6680204e-05 0.0020263129)
(0.0033510154 -0.0036408679 0.0013523386)
(0.0053494431 -0.0074922647 0.00021778871)
(0.0050773201 -0.0098297845 -0.0015863975)
(-0.0026738096 -0.0072615202 -0.003179515)
(7.6512252e-05 -0.0026773633 -0.0019837211)
(0.00067591334 -0.010844427 -0.0040343681)
(-0.0038481053 -0.0099748317 -0.00051659038)
(-0.0029505799 -0.0020393487 -0.00064706907)
(-0.0018992393 0.0013113687 -0.0013404207)
(6.4645096e-05 -0.016756996 0.00068171489)
(0.00024904061 -0.017213879 -0.0015629489)
(0.00070399223 -0.015939979 0.00071591405)
(-0.00032274636 -0.013871265 0.0033006974)
(0.00073924897 -0.014975455 0.0026723386)
(-0.00057872816 -0.014677796 0.0021654862)
(0.00036988256 -0.012351695 0.0029829902)
(-0.00015483182 -0.017004933 0.00027686121)
(6.052254e-05 -0.017043706 -0.00023492159)
(-4.740561e-05 -0.01439768 -0.00071556887)
(0.00043620555 -0.014717661 -0.0016058168)
(0.00011032466 -0.016027338 0.0011480681)
(0.00075442887 -0.01547162 0.0031097702)
(0.00079434956 -0.016126518 0.0016440209)
(-0.00050977792 -0.015920678 0.0032006251)
(-0.00030360981 -0.013265734 0.0026239753)
(-0.0014775881 -0.014625523 0.0028805891)
(-0.00096218457 -0.015929223 0.00045671216)
(-0.0020130328 -0.013979531 -0.0014333051)
(-0.0021899722 -0.013522626 -0.0021894555)
(-0.0023140387 -0.012546825 -0.0021884431)
(6.4132543e-05 -0.01052367 -0.00094082433)
(0.0023387573 -0.015916774 -0.00096847912)
(0.0016186395 -0.016003581 0.00041152553)
(0.00051032032 -0.015785631 0.0016191183)
(0.00035684991 -0.015136403 0.0014243886)
(0.00056560487 -0.013939092 0.0023335421)
(-0.00060835504 -0.01570525 -0.001424765)
(0.00016477732 -0.016293746 -0.0022118943)
(-0.00052315636 -0.017523555 -8.7979916e-05)
(-0.00097725644 0.017750029 -0.0042111345)
(0.0012387004 0.017262508 -0.0045562003)
(0.00016357569 0.017179062 -0.00097106898)
(-1.777777e-05 0.01453183 0.0052829347)
(0.0019118635 0.016100381 0.005634443)
(-0.0021524453 0.016001854 0.0052375242)
(-0.00078012163 0.012736025 0.0034284382)
(0.00044589671 0.018246853 -0.00053471936)
(0.0012561778 0.017714976 -0.0039971951)
(0.0014227873 0.015452946 -0.004656196)
(0.00051032432 0.015470464 -0.0046344329)
(-0.0013672839 0.017183457 0.001806257)
(-0.0013126683 0.016277718 0.0046973797)
(0.0030447797 0.017424328 0.0035845161)
(0.00076675676 0.017257741 0.0058992004)
(-0.0020907535 0.014726941 0.005080268)
(-0.0013978468 0.015265111 0.0054885155)
(-0.00039018415 0.017149253 0.0019464934)
(-0.0032748649 0.015852595 -0.0038806926)
(-0.002929778 0.014523845 -0.0053284722)
(-0.0028463183 0.012296375 -0.0049848202)
(0.0015076402 0.0013146922 -0.00097930449)
(0.0053089385 0.015512273 -0.0020017428)
(0.0042797785 0.017613388 0.00061715678)
(0.00065348268 0.017173554 0.0041230065)
(-0.0024611845 0.016121883 0.0043920547)
(-0.0020424633 0.015129715 0.0027882622)
(-0.0022706944 0.016592575 -0.0029538042)
(-0.0021204573 0.016527143 -0.0045970937)
(1.8675303e-06 0.018075111 -0.0040601022)
(0.00015592742 -0.0062574737 -0.0011261079)
(0.001670998 -0.012791865 -0.001790587)
(0.0017790074 -0.0039451737 -0.0013716963)
(0.0015673368 -0.013489362 -0.0027571073)
(0.0012508826 -0.0033644964 0.0019429912)
(0.00062221424 -0.0017406187 0.002908951)
(0.0024384702 -0.01284534 -0.00087969989)
(-0.0011260905 -0.014147019 0.00069264271)
(6.9097622e-05 -0.013664315 0.0010987603)
(-0.00068375706 -0.0078550982 0.00037915635)
(-0.00046892705 -0.0024941444 -0.0023960019)
(-0.0013351513 -0.0032902096 -0.00074228944)
(-0.0013224887 -0.014091344 -0.0044866514)
(-0.00098063127 -0.011279793 -0.00078912897)
(0.0013403136 0.0024329551 0.0029266266)
(0.0003348976 -0.0023281475 0.00096672775)
(0.00082284153 -0.012808828 -0.0044734249)
(0.00058379553 -0.0053794929 -0.00143622)
(0.00050313285 -0.00068815871 -0.0020663005)
(0.00104633 -0.011511459 0.0019272278)
(0.0023104113 -0.013063321 0.0025141733)
(0.0019558193 -0.013553027 0.0013692822)
(-0.0030060849 -0.013366636 0.0033918876)
(0.00031687235 0.0024953141 0.0027628397)
(-0.0013285592 0.0037906168 0.0031258585)
(-0.0018609776 -0.0015195669 0.00095710755)
(-0.0021228451 -0.0092370837 -0.00097749631)
(-0.0022887019 -0.0059820165 -0.0013012974)
(-6.3965968e-05 -0.014098146 -0.00043006672)
(-0.00066401535 -0.013492949 -0.00022666612)
(0.0018760491 0.009441374 0.0014718519)
(-0.0027881062 0.011838104 0.00064341416)
(-0.0015261279 0.0056801883 0.00030103219)
(0.00056686756 0.010676565 -0.0016299493)
(-0.00013532056 0.0076954302 0.00026937505)
(0.0024560227 0.005258138 -0.00054434352)
(0.0045129642 0.0080149794 -0.0011249178)
(0.0022025615 0.011650291 -0.0010825081)
(-0.0034624841 0.011592727 0.0022078563)
(-0.0038029535 0.0090368854 0.00086506187)
(-0.0027381839 0.0072833365 -0.001756065)
(-4.0309032e-05 0.0078837284 -0.0011613827)
(-0.0013714773 0.012271442 -0.0023880089)
(-0.0036959792 0.011187281 -0.00084568652)
(0.00023775713 0.007699017 0.0018241512)
(0.0029666823 0.0074918408 0.00012465167)
(0.0026294242 0.010563706 -0.001714016)
(-0.0012051095 0.0086333056 -0.0020206431)
(0.0012037294 0.0067627024 0.00031016566)
(0.0029234407 0.0094459359 0.0017905965)
(0.0015161635 0.0053479435 0.0017773787)
(0.0013046055 0.0042553413 -0.0010548181)
(-0.0037176917 0.0097444597 0.00086958826)
(-0.0026849003 0.0068869142 0.0028546223)
(-0.0004148024 0.0084674754 0.0023594592)
(0.0017897549 0.0077437834 -0.0019721491)
(0.0010990428 0.01021999 -0.0010897978)
(0.0022512572 0.003853382 0.00031889883)
(0.0047591224 0.010615663 0.00065639492)
(0.0019108542 0.012679184 0.0010630279)
(0.0014661237 0.00078546979 0.0020266471)
(0.0017365029 -0.003597059 0.0020381527)
(0.0035627876 -0.0089223027 0.001422643)
(-0.0012312393 -0.012405832 -0.0017256222)
(0.00033490961 -0.0031299076 -0.0030462757)
(-0.00036853615 -0.0084575277 -0.0032071001)
(-0.0042730532 -0.0089018746 -0.0010118662)
(-0.0010013921 -0.0014097568 0.00012243697)
(0.00029779843 -0.0033558611 0.0033616669)
(0.0015318835 -0.0051322837 0.0044530305)
(6.8359412e-05 -0.0064093339 0.0021011472)
(-0.0014234646 -0.0034840632 0.0008634231)
(9.2816426e-05 -0.0051439598 -0.0014377183)
(0.00030529583 -0.0103797 -0.0034359171)
(-0.0011570822 -0.0041470418 -0.0038677006)
(-0.00055358277 -0.0024147705 -0.0035161386)
(0.00049185415 -0.0027818074 -0.0027649022)
(0.0019728013 -0.0018331662 -0.0018760765)
(0.0034830527 -0.0060961985 -0.00067063196)
(0.002576214 -0.0086025126 0.0022139331)
(0.0024484272 -0.0086652262 0.0038028341)
(-0.0013008783 -0.0090956942 0.0028204083)
(-0.0019619204 -0.0086849943 -9.0179825e-05)
(-0.0020131638 -0.0055851908 -0.0029904491)
(-0.0021907336 0.00027429982 -0.00056810305)
(0.00096896813 0.00021800173 -0.0024588204)
(0.0030832311 -0.0063129006 -0.002681957)
(-0.00050033538 -0.011138483 3.5701617e-05)
(-0.0038275715 -0.007583845 0.0020439627)
(-0.00068240618 0.0010591118 0.0015794127)
(-0.00046608043 -0.016043091 -0.0024288453)
(0.00087612565 -0.0099942808 -0.00069778202)
(0.002971545 -0.013925351 -0.0011584289)
(0.0018288125 -0.014044474 -0.00034157009)
(0.0009422583 -0.015477875 -0.00021028064)
(-0.000165025 -0.015343722 -0.00059287226)
(-0.0013542003 -0.013643569 -0.00053947837)
(-0.0024992832 -0.014028714 -0.0024804837)
(-0.0013439266 -0.011047351 -0.0015907519)
(0.00039555946 -0.0109129 -0.0024454462)
(0.0017840963 -0.011202802 -0.002889465)
(0.0027912148 -0.013230508 -0.0032252413)
(0.0032801672 -0.015243638 -0.0032426397)
(0.002440692 -0.013389683 -0.002062689)
(-0.00032695736 -0.015325293 1.7022098e-05)
(0.000846241 -0.014395958 -5.6614706e-05)
(-0.0016531734 -0.013641464 -0.001543405)
(-0.002408921 -0.013326939 -0.0030876286)
(-0.0034548184 -0.011759239 -0.0032036053)
(-0.002811192 -0.010427842 -0.0030433105)
(-0.00032135574 -0.010528429 -0.0026449398)
(0.00091531763 -0.011992251 -0.00053997743)
(0.0023098545 -0.011316035 -0.0011884304)
(0.0028819685 -0.012551554 -0.00051213983)
(0.0009146028 -0.014614807 -0.00024639365)
(-0.0004276526 -0.015841222 -0.0010544939)
(-0.0016064683 -0.01356671 -0.00069884056)
(-0.002271504 -0.011798875 -0.00096310654)
(-0.00038159162 -0.010244167 -0.00076148233)
(0.00063144447 -0.014355338 -0.0025439374)
(-0.0012633044 0.015504957 -0.0051237022)
(0.0007973411 -0.00030547159 -0.00086489391)
(0.0037786973 0.012393483 -0.0016634523)
(0.0038086336 0.015902137 0.00010738309)
(0.0019857849 0.016851181 0.0019562451)
(-0.0026759872 0.016769579 0.0012614125)
(-0.0044409631 0.015740225 -0.00042810543)
(-0.0047677771 0.013608493 -0.0024730542)
(-0.0019024287 0.0048793227 -0.0012644226)
(0.00041833647 0.0053411931 -0.0016670585)
(0.00096670024 0.0051318969 -0.0032881668)
(0.0043024767 0.013688162 -0.004753992)
(0.0050439631 0.016779321 -0.0046355946)
(0.0042278504 0.015598986 -0.0023155115)
(0.0012054191 0.016568087 0.0010732525)
(-0.0011228399 0.01572982 0.0017369093)
(-0.0026414757 0.015681988 -0.00029027748)
(-0.0048476279 0.015266339 -0.0035921405)
(-0.0051495223 0.012183242 -0.0039973714)
(-0.002230259 0.0028686549 -0.0025732658)
(-0.001244538 0.0010241099 -0.0018398019)
(0.0020473037 0.0071584702 -0.0019493142)
(0.0029893948 0.0051645965 -0.00054217646)
(0.0062218329 0.013453101 -0.00086818806)
(0.0044868763 0.016260845 -9.1207218e-06)
(-0.001449985 0.017090519 0.00011778196)
(-0.0049966783 0.014923265 -0.00098261375)
(-0.0035040548 0.0077834464 -0.00060961732)
(-0.0018493737 0.0017281868 -0.0004318993)
(0.0014826878 0.014606393 -0.0042839721)
(0.002206858 -0.014853404 0.00092088198)
(0.00018213882 -0.013308432 -0.0003222062)
(-0.0019141955 -0.013722641 0.0027409582)
(-0.00017529423 0.0023962518 0.0002412192)
(-0.00039408817 0.0042114602 0.0019751154)
(0.00072301844 0.00364096 0.0018568713)
(0.00082437092 -0.00079357004 0.0014701334)
(0.0026564546 -0.01400868 0.0038718625)
(8.3601034e-05 -0.013754918 0.0022777423)
(7.9010255e-06 -0.012212793 0.0025151592)
(-0.0018971044 -0.013244815 0.00044644758)
(-0.003788147 -0.011714378 -0.00029702321)
(0.00012559824 -0.0027575481 -0.0029384648)
(-0.00094040066 -0.0003197273 -0.0015917287)
(0.00012996929 0.0031247376 0.00043043336)
(0.0013310306 0.0017262215 0.000538801)
(0.0014337288 0.0017516791 -0.00026588739)
(0.00040637193 1.5122872e-05 -0.0015956887)
(0.0041267473 -0.012130901 0.001362526)
(0.0013280175 -0.012992478 0.00038295917)
(-0.00061050947 -0.012885269 0.0015266678)
(0.0015395235 -0.012403937 -0.00047350587)
(-0.0011468576 -0.013700701 0.0034694765)
(-0.0031436114 -0.0081895705 0.0029600739)
(0.00062229641 0.0042175816 0.001607475)
(-0.00026310299 0.0061559588 0.00056897567)
(0.00068930924 0.00077959511 -0.00036852986)
(0.0010009757 -0.01328864 0.0011253995)
(-0.0023105161 -0.01291307 -2.7463491e-05)
(-0.0025676472 -0.013660177 0.00037874687)
(-0.0021065424 0.0078174926 -0.0026926946)
(-0.0020189338 0.0013239175 0.00018382346)
(-0.0033086753 0.0094582265 0.0024102865)
(-0.0032169233 0.0070371639 0.0017642525)
(-0.0010674576 0.0089085642 0.0006683491)
(0.0018247593 0.0085413152 0.00092260532)
(0.0039199919 0.0064997331 0.00075871264)
(0.0036919515 0.0092817186 -0.00019468216)
(-0.00016842425 0.0056634872 0.00033027802)
(0.00085750941 0.0011689522 0.0013832659)
(-0.00066565096 0.0036440426 -0.00091576024)
(-0.0025251805 0.0071222603 -0.0013223224)
(-0.0024805056 0.0071781678 -0.0022281728)
(-0.0027492437 0.0076377058 -0.0014898849)
(-0.00087832805 0.0086663385 0.00010621402)
(0.0017838731 0.0082461632 -0.00032765154)
(0.0023884101 0.0073046463 -0.0015021066)
(0.0037720727 0.0066622256 -0.0011667241)
(0.0036636922 0.0086164798 1.584795e-05)
(8.0056932e-06 0.0040545912 -0.00078806655)
(0.00068906634 -0.0033223486 0.0011095754)
(-9.077681e-05 0.0024461507 0.0013359291)
(-0.0017338783 0.0091879065 0.0013018627)
(-0.0048443752 0.0085486724 0.0032084164)
(-0.0017352099 0.0079804209 0.0015995851)
(0.0012093657 0.0095250698 0.00011407592)
(0.0035801334 0.0068945447 0.0011098184)
(0.0025738886 0.0082884204 0.0014791041)
(0.0016582378 4.0623145e-05 -0.00034249134)
(0.00073589839 0.0040567997 -0.0028919997)
(0.0019882511 -0.0073135378 0.0049860601)
(-0.0029028806 -0.0097395461 0.0021481101)
(-0.0045361229 -0.0082640433 -0.0005084047)
(-0.0033310211 -0.0013543307 -0.00085871848)
(-0.0014055866 0.0027364204 -0.00073091332)
(0.002482711 0.0014783277 -0.0007509566)
(0.0032945443 -0.003325894 -0.0007663339)
(0.0040039915 -0.0065288758 0.0012944096)
(0.0043045363 -0.0078929377 0.0037799583)
(0.0030976264 -0.0085468995 0.005229723)
(-0.0010089531 -0.0095827322 0.0040400081)
(-0.0035106907 -0.0084610692 0.0030727999)
(-0.004565318 -0.0041089533 0.0010971375)
(-0.0036516581 0.00023078226 -0.0010201854)
(-0.0017239511 0.002915469 -0.00063399606)
(0.0014753424 0.0022057456 -0.0013053342)
(0.0027772415 0.00036184238 -0.00074830967)
(0.0042033609 -0.0011322223 0.00075702598)
(0.0046255304 -0.0037690564 0.0014824717)
(0.0046460997 -0.0074638356 0.0025010571)
(9.088145e-05 -0.0090796852 0.0032267159)
(-0.0053392913 -0.0077598242 0.0023286321)
(-0.0046143928 -0.0043913553 0.0012436475)
(-0.0039612983 -0.0019221623 0.0010114988)
(-0.00262688 0.0012392507 0.00094837083)
(0.0019503305 0.0032105771 -0.00047980543)
(0.0041546693 -0.00088226452 -8.2254046e-05)
(0.0055102629 -0.0072155155 6.0191281e-05)
(0.0036361481 -0.0093707784 0.0020182752)
(-0.00025192544 -0.0074497649 0.0047959031)
(0.0020338896 -0.010644525 -0.0010988321)
(0.0025956804 -0.015641429 0.00078662069)
(0.0022275782 -0.014891669 2.3173934e-05)
(0.0022243181 -0.016459785 0.00021248052)
(0.00034084541 -0.01602219 0.00021803665)
(-0.001750675 -0.01401436 0.00013698042)
(-0.0036142957 -0.012019985 -1.6850838e-05)
(-0.0025195687 -0.011358745 -0.00074904612)
(-0.00072119052 -0.012786654 -0.00096658969)
(-0.00033462854 -0.012133985 -0.00097396311)
(0.0013515294 -0.011842627 -0.0017269373)
(0.0024113023 -0.011346316 -0.0024563318)
(0.0021515778 -0.016899113 -0.0027545122)
(-0.0023016728 -0.014623535 -0.0026613954)
(-0.0031807042 -0.011278074 -0.0022574603)
(-0.0023489977 -0.01165007 -0.001262449)
(0.00038167934 -0.01192287 -0.00044598675)
(0.0011187156 -0.012576794 -0.00031198633)
(0.0027757585 -0.011968987 -0.00031551883)
(0.0042857347 -0.012730266 -0.00011849784)
(0.0027751835 -0.013469639 0.00035160737)
(0.00052954488 -0.015287349 0.00016962295)
(-0.0015116604 -0.016865321 -7.1432729e-05)
(-0.0020228592 -0.015985524 -0.00056747031)
(-0.0028562646 -0.015361084 -0.00074034528)
(-0.0020767033 -0.010480388 -0.0017543856)
(0.00043856974 -0.0025515238 -0.0006593182)
(0.0036977345 0.014493502 0.00016154623)
(0.0027375586 0.011529094 -0.0014839282)
(0.0054774518 0.017033868 -0.0022532269)
(0.0025893237 0.017613302 -0.0010669055)
(-0.0055961417 0.015512294 -0.0002735318)
(-0.0065563202 0.012128263 -3.757996e-05)
(-0.0020872699 0.00089796491 0.00031537566)
(-0.0018128876 0.0073962529 -0.001953902)
(0.00062557975 0.0051644934 -0.00032801657)
(0.0022559754 0.0024050186 -0.0014606798)
(0.0028040205 0.0022250306 -0.0012094851)
(0.0039257789 0.016253157 -0.0030965378)
(-0.0050582154 0.014659288 -0.0026308525)
(-0.0041363175 0.0044267015 -0.0015870616)
(-0.0030658567 0.0004181088 -0.00087511308)
(-0.00071173352 0.0011651397 -6.7016904e-05)
(0.0015812089 0.0073573952 0.00021092545)
(0.0023932705 0.0022389006 6.7161284e-05)
(0.0066490005 0.011825661 5.5710464e-05)
(0.0061895285 0.015101002 4.5429374e-05)
(-0.001743215 0.017093997 -0.00084365941)
(-0.0049657316 0.017688615 -0.0019242804)
(-0.0028415429 0.015536053 -0.0014954843)
(-0.004276054 0.014309901 -0.0012479235)
(-0.00079799197 -0.0028693309 -0.000650839)
(-0.001647055 -0.013179023 0.0007588849)
(-0.00094054939 -0.014205637 -0.0033870868)
(0.00094088434 -0.01627482 -0.001631315)
(-0.0035112338 -0.014738427 -0.00058312114)
(0.0024074153 0.0064071378 -9.2386127e-05)
(-0.0013523483 0.002698003 0.0010046771)
(0.005158315 -0.011689318 0.0021669636)
(0.0022037359 -0.014222423 0.0029641027)
(-0.0018002821 -0.012615147 -0.00047131743)
(0.0014744589 -0.012232418 0.0018499811)
(0.0017640369 -0.012516106 0.00051755806)
(0.00069625504 -0.012523729 0.0010361337)
(0.00048376979 -0.01284795 -0.0018277617)
(-0.000761322 -0.0036718837 -0.0021318123)
(0.00041006751 -0.012250408 5.170415e-05)
(-0.0013377961 -0.012346483 0.00056760259)
(-0.0018111062 -0.012680439 0.0012124584)
(0.00098851669 -0.012206279 0.00084069427)
(-0.0015563693 -0.014142221 0.0014720683)
(-0.0053391901 -0.012557142 0.0018368603)
(0.0014960456 0.0016263353 0.00068273006)
(-0.0025296922 0.0057277017 -0.00016146999)
(0.0021407742 -0.015847593 0.00032424954)
(-0.0015737923 -0.015790117 -0.0018309597)
(0.001692916 -0.013657697 0.00047994507)
(0.0014630788 -0.013134197 0.0011890752)
(0.00022537606 -0.0042146108 0.0017588264)
(-0.00064806073 0.0038312819 0.00049445203)
(0.0014132212 0.011722303 6.8956851e-05)
(-0.0048405481 0.011460212 0.0027344246)
(-0.0014149343 0.0089796777 -0.00015690008)
(0.0019178485 0.0073088439 0.00049034835)
(0.0051051513 0.0088757246 0.0012626741)
(0.0016394335 0.010114136 9.580461e-05)