/*--------------------------------*- C++ -*----------------------------------*\
| =========                 |                                                 |
| \\      /  F ield         | OpenFOAM: The Open Source CFD Toolbox           |
|  \\    /   O peration     | Version:  v2012                                 |
|   \\  /    A nd           | Website:  www.openfoam.com                      |
|    \\/     M anipulation  |                                                 |
\*---------------------------------------------------------------------------*/
FoamFile
{
    version     2.0;
    format      ascii;
    class       volScalarField;
    location    "470/bottomWater";
    object      p_rgh;
}
// * * * * * * * * * * * * * * * * * * * * * * * * * * * * * * * * * * * * * //

dimensions      [1 -1 -2 0 0 0 0];


internalField   nonuniform List<scalar> 
1460
(
0.2679315
0.26649619
0.27044436
0.2724612
0.27490913
0.2653365
0.29377982
0.31418601
0.30836697
0.31139966
0.30895444
0.30471483
0.32128885
0.31331015
0.31389586
0.31790887
0.31727114
0.3066402
0.30616987
0.32249243
0.31973365
0.3424927
0.34156441
0.35174395
0.34713277
0.34330491
0.34431487
0.33661038
0.31621948
0.32829441
-0.22332114
-0.23265447
-0.24275352
-0.2423821
-0.22907231
-0.24010347
-0.18986901
-0.18173038
-0.26972805
-0.27683919
-0.2734234
-0.26203069
-0.23774216
-0.27379074
-0.29129466
-0.28877806
-0.28338244
-0.27965685
-0.26461719
-0.21156065
-0.21892792
-0.19455944
-0.21105112
-0.24191477
-0.2812539
-0.31468641
-0.30605839
-0.28063342
-0.27803697
-0.27054888
0.094202999
0.089753586
0.10615339
0.1084548
0.10539518
0.086123462
0.033388188
0.033837248
0.038993548
0.082861507
0.074430114
0.082652578
0.037482853
0.089669426
0.068725393
0.10992953
0.10392858
0.074894164
0.047567732
0.042535061
0.07775223
0.063477968
0.072639165
0.064025512
0.046987861
0.088070654
0.13195702
0.055277281
0.13504172
0.11882443
-0.062457164
-0.068792846
-0.048268647
-0.025912415
-0.026697245
-0.042700281
-0.054532207
-0.059052414
-0.065586237
-0.033013742
-0.029741535
-0.067089833
-0.053654102
-0.065839236
-0.051693143
-0.040065571
-0.032163218
-0.05374989
-0.060285787
-0.054534751
-0.045246258
-0.0095365697
-0.043796648
-0.068575529
-0.099192092
-0.052495101
-0.087686527
-0.096727075
-0.069869375
-0.094651353
0.028278828
0.01501502
0.0071356563
-0.0065757916
-0.0046372977
-0.02316587
-0.012808352
0.0018992413
0.010142918
0.015879937
0.0094085611
-0.0096000883
0.006897216
-0.013142243
0.0012810817
0.020402477
0.023186664
0.021246163
0.016371332
0.0055695888
-0.010060786
0.0026966054
-0.0046758004
0.00074804645
0.021898841
0.026068711
0.01262347
-0.00097809538
-0.010239159
0.020356886
0.26783169
0.27801294
0.26873384
0.27698491
0.28186115
0.26950603
0.29568544
0.30264807
0.30758219
0.30665018
0.29866059
0.31019068
0.31102361
0.31679167
0.31929864
0.31999885
0.31902971
0.32404426
0.31113905
0.31229094
0.3280295
0.33654085
0.34395308
0.34699243
0.34838833
0.35127644
0.34812342
0.34505891
0.31224221
0.32921416
-0.21536682
-0.21029254
-0.24250959
-0.24549418
-0.24462522
-0.24480127
-0.20546143
-0.21909949
-0.27831693
-0.27003298
-0.25889315
-0.23009148
-0.21737343
-0.23269285
-0.24829604
-0.27910643
-0.30390345
-0.28764441
-0.29236876
-0.27755327
-0.23344626
-0.22337392
-0.24859702
-0.29896648
-0.31640221
-0.32524184
-0.31028102
-0.27633982
-0.28378281
-0.28993691
0.078724161
0.042428232
0.069747017
0.086707643
0.084689908
0.059658702
0.038702231
0.03757108
0.071850764
0.078027205
0.043250958
0.039533115
0.073008061
0.074949116
0.051821063
0.065189203
0.065413022
0.11818509
0.060414643
0.050076423
0.04086395
0.066242129
0.072254017
0.057059526
0.095054597
0.098842683
0.10469104
0.040756753
0.09954297
0.1056972
-0.067638614
-0.07311975
-0.06905602
-0.035823637
-0.031731894
-0.067567598
-0.064441632
-0.064077543
-0.046355933
-0.034466602
-0.1010885
-0.086884415
-0.057261729
-0.064809957
-0.092542355
-0.10793197
-0.047695078
-0.03812065
-0.057156827
-0.083232847
-0.076086699
-0.056059631
-0.06441369
-0.11790794
-0.049992621
-0.04741905
-0.11276819
-0.090213639
-0.074110861
-0.052077148
0.033910772
0.0015031294
-0.0039118556
-0.011288958
-0.0066986437
-0.01094864
0.011151185
0.015305219
0.016576899
0.027322446
0.015012812
0.0013536139
-0.0065651129
-0.017836807
-0.0022138031
0.021239245
0.019933309
0.037858753
0.022398842
0.015695504
0.0064464055
-0.0069684389
-0.00081841172
0.024230483
0.028473988
0.04537584
0.031742576
0.0089292191
-0.0026552172
0.020027586
0.27949957
0.29122518
0.28102912
0.26947659
0.28289434
0.2672177
0.30928516
0.30820095
0.30914178
0.30149457
0.30329055
0.32087199
0.30433643
0.32218446
0.30386233
0.3308081
0.31984064
0.32779775
0.32451527
0.32014731
0.31398594
0.34321469
0.33624377
0.35098999
0.34864622
0.348821
0.34689635
0.33755632
0.31824465
0.32860714
-0.20571467
-0.17558718
-0.20817132
-0.23749676
-0.23860675
-0.22743442
-0.22491004
-0.25421867
-0.27344887
-0.27272539
-0.23555903
-0.17771936
-0.20711833
-0.22031798
-0.23091614
-0.22437646
-0.28822241
-0.29828436
-0.29176555
-0.29326254
-0.27348901
-0.25087542
-0.27663591
-0.31288178
-0.31812949
-0.30157245
-0.25551851
-0.24670711
-0.27964802
-0.29491361
0.073346627
0.045102631
0.063896874
0.084630519
0.079561154
0.078283699
0.03600176
0.060241945
0.077658859
0.068688923
0.03265239
0.043034537
0.069421698
0.084229248
0.084036334
0.061378939
0.062122793
0.094111461
0.12298266
0.070954521
0.059921204
0.062210729
0.067372978
0.096743849
0.087376363
0.063027291
0.063858677
0.063665808
0.065338263
0.093137986
-0.079166769
-0.071850791
-0.05748663
-0.052820774
-0.05942793
-0.09220573
-0.064208399
-0.09656342
-0.035683574
-0.046314425
-0.087541238
-0.079152016
-0.06473131
-0.056984077
-0.082009874
-0.084701551
-0.097380144
-0.05675329
-0.042701665
-0.051502548
-0.090887421
-0.043358506
-0.089660845
-0.037288017
-0.05026898
-0.1276059
-0.099155748
-0.084555914
-0.08205168
-0.049341494
0.017718956
-0.0031666423
-0.013687446
-0.015137907
-0.015934446
-0.00022226761
0.028902082
0.027016815
0.034950981
0.02198486
0.018038405
0.014006192
-0.0043147095
-0.014987279
0.0022070031
0.023088505
0.024703237
0.024425414
0.040907276
0.014395339
0.02212675
0.0047761798
0.012817103
0.030726219
0.035208364
0.031551185
0.0086571746
-0.0040607186
0.017321644
0.015197095
0.28195075
0.28866923
0.2909524
0.28837163
0.28833731
0.29099559
0.28739644
0.29446131
0.29556585
0.29158343
0.29687309
0.30422524
0.30752601
0.32649043
0.31124673
0.31965566
0.32004113
0.31847988
0.32099753
0.32456909
0.3109758
0.33805855
0.33710682
0.33929763
0.33730074
0.3485631
0.34058465
0.34823704
0.33178332
0.33457749
-0.233364
-0.21273008
-0.17630311
-0.20129098
-0.21866782
-0.23760704
-0.25074932
-0.27088175
-0.27227434
-0.27798413
-0.2373338
-0.20719646
-0.20055124
-0.18633808
-0.22325981
-0.21320028
-0.23609917
-0.28372462
-0.29891085
-0.28386479
-0.28296824
-0.28407633
-0.2898631
-0.30558634
-0.25557542
-0.25374217
-0.23957881
-0.22586392
-0.26794531
-0.28919703
0.096908616
0.067820169
0.066536308
0.06827622
0.065627541
0.06696459
0.065453864
0.080106996
0.11269421
0.062172488
0.045343532
0.028225723
0.062355132
0.065149655
0.074634253
0.072771228
0.041967723
0.074613373
0.099423146
0.10471464
0.1052813
0.06062992
0.1393232
0.085737278
0.059133998
0.079578246
0.085259613
0.070615295
0.065309629
0.092735813
-0.050121672
-0.050604894
-0.051816346
-0.051810732
-0.053275528
-0.076131362
-0.09484612
-0.063738164
-0.046960315
-0.059440672
-0.082768385
-0.069725195
-0.045146833
-0.0085905375
-0.059068899
-0.076852026
-0.078993519
-0.082106677
-0.043982103
-0.038906058
-0.062626911
-0.080162435
-0.080321064
-0.064332038
-0.11945759
-0.098882656
-0.088113052
-0.04288516
-0.064172473
-0.055801376
-0.017802305
-0.021894152
-0.020120468
-0.020512442
-0.017980317
-0.016378894
0.0083766801
0.0066334911
0.028932008
0.010520654
0.011597115
-0.013503599
-0.029851213
-0.0058185694
-0.032721293
-0.0011783611
0.011911523
0.015698156
0.018620289
0.012011981
0.00060512195
0.0024978582
0.01545978
0.017994243
0.0083384256
-0.012268778
-0.014922095
-0.0094523076
-0.0043415595
0.0040345162
0.28655161
0.28278221
0.30174484
0.27761687
0.28356198
0.28135786
0.29038407
0.29450931
0.29234975
0.29609501
0.30779244
0.2864421
0.27640695
0.31908053
0.31089986
0.33573693
0.34383782
0.34735774
0.33778869
0.33923405
0.34315341
0.34514613
0.34433584
0.34524555
0.33078168
0.33693507
-0.24927543
-0.24300521
-0.20076149
-0.2335825
-0.26440968
-0.26302539
-0.26502115
-0.26688655
-0.26026795
-0.24411864
-0.2147014
-0.23248739
-0.23220551
-0.27317081
-0.28608504
-0.24300691
-0.25128799
-0.30779802
-0.3047805
-0.27558988
-0.25054099
-0.23125615
-0.22569177
-0.24163012
-0.28364049
-0.29928301
0.088637091
0.069349501
0.039925338
0.081931531
0.069225289
0.11601695
0.083797925
0.088008208
0.080416445
0.05810634
0.061008345
0.073462748
0.096576756
0.11529432
0.10135205
0.064018819
0.031624438
0.093809268
0.089717479
0.067235774
0.071008043
0.078282833
0.075790646
0.055801045
0.052738797
0.089301626
-0.039279395
-0.076420632
-0.068952537
-0.078859338
-0.033607061
-0.043573531
-0.04466367
-0.044945915
-0.054054598
-0.066993538
-0.06730964
-0.082156038
-0.054216413
-0.038207543
-0.056186505
-0.058329463
-0.087010358
-0.067315597
-0.061854587
-0.13577277
-0.085085541
-0.074884224
-0.046931783
-0.066709212
-0.095944796
-0.052591433
0.0082093494
-0.0015352583
0.013230488
0.0059276791
-0.0061796196
-0.0082852283
-0.0051130869
-2.1017344e-05
0.0063045775
-0.0048632182
-0.0033464195
0.0012312726
-0.016051617
-0.0080639466
-0.015110189
-0.015958123
0.01119512
0.013352284
0.027371452
0.027258084
-0.0098408122
-0.0039402862
0.00059158297
-0.007266552
0.01217348
0.012441259
0.28577717
0.28399926
0.28232294
0.28095044
0.27773212
0.28880056
0.28301061
0.27932236
0.27594632
0.27595351
0.27169732
0.27540993
0.27068614
0.31505995
0.30195293
0.33806305
0.32640478
0.33198375
0.32880125
0.33534132
0.34110354
0.34963805
0.34707841
0.33493453
0.32958414
0.33856553
-0.2534921
-0.26449545
-0.23955379
-0.22658517
-0.23561064
-0.21590564
-0.23828341
-0.2400135
-0.25944338
-0.24259972
-0.23977317
-0.25743682
-0.23258049
-0.27272337
-0.26677231
-0.25237556
-0.28519912
-0.30402356
-0.30975022
-0.27148177
-0.25796742
-0.23457754
-0.22435907
-0.28203747
-0.30913662
-0.29758373
0.14782446
0.10937806
0.094504091
0.093783429
0.1139743
0.082696921
0.082931529
0.067688558
0.093060269
0.097976122
0.091044321
0.083857059
0.093648477
0.08559548
0.070693287
0.035505063
0.066577774
0.089662651
0.075821595
0.045426618
0.044251288
0.066771876
0.032396534
0.057900782
0.06892773
0.13605742
-0.043002948
-0.070407183
-0.09707306
-0.092129852
-0.075390352
-0.057064291
-0.069002534
-0.10908785
-0.056995355
-0.099225625
-0.10881186
-0.059458059
-0.09327895
-0.056714536
-0.078733006
-0.055844979
-0.084684519
-0.041913145
-0.046689907
-0.10134886
-0.06034951
-0.047429118
-0.077950883
-0.086681223
-0.062178988
-0.041019798
0.030850497
0.019663374
0.034505552
0.021842346
-0.0018416636
-0.016681905
-0.022241528
0.0050651245
0.00068883612
0.020987788
0.040919758
0.009855275
0.010848916
0.0054107169
0.018706223
0.0052379095
0.014391839
0.026391281
0.0166186
0.017275648
0.00032859124
-0.0045673783
0.0057504151
0.013500171
0.016992563
0.030279915
0.28519524
0.27960288
0.28339731
0.28020877
0.27884805
0.2757408
0.30915511
0.31052857
0.30036005
0.3041438
0.30277088
0.29847384
0.30584093
0.30261341
0.30536831
0.31068354
0.32198782
0.32753587
0.32793599
0.32607295
0.32444612
0.32474956
0.32847662
0.3374344
0.33514178
0.32888252
0.35328655
0.33663615
0.33329949
0.33654208
-0.25215914
-0.26261589
-0.23021285
-0.21719241
-0.22577231
-0.22604209
-0.18190334
-0.21171641
-0.27486717
-0.28061766
-0.26869581
-0.27974474
-0.20867049
-0.1933511
-0.19234426
-0.18913252
-0.18130369
-0.23579576
-0.29370488
-0.29405078
-0.29435599
-0.30701368
-0.28255014
-0.26121749
-0.29312926
-0.29310467
-0.25065577
-0.28050291
-0.31618369
-0.30586359
0.10384925
0.072274887
0.045132094
0.070327453
0.094767744
0.067985895
0.031235993
0.036412727
0.050869747
0.073826512
0.095003495
0.073174895
0.048885904
0.069390711
0.081792537
0.089477009
0.050079538
0.04734859
0.081783367
0.097955837
0.10277214
0.088934545
0.069221927
0.073309128
0.090368759
0.11073766
0.026025141
0.077726521
0.07683436
0.13704981
-0.0479432
-0.073159957
-0.087497947
-0.058158821
-0.054091676
-0.079931753
-0.075864547
-0.077585388
-0.089478134
-0.036915876
-0.042669899
-0.068336137
-0.094136421
-0.078310437
-0.06511389
-0.047713102
-0.071364091
-0.078797744
-0.068927614
-0.069090532
-0.043199819
-0.033453584
-0.066216477
-0.077316309
-0.02856617
-0.059833641
-0.06160068
-0.080460176
-0.043909456
-0.035136914
0.021386732
0.011454864
0.0099456449
0.00079031272
-0.015545776
0.0024469257
0.011817734
0.01790033
0.020267744
0.023114256
0.031424713
0.0092918838
0.012918762
-0.0030460591
-0.012796524
-0.0054506643
0.0046365554
0.011055655
0.0095376927
0.010006578
0.0078710174
-0.0023050441
0.0030809966
-0.00016302593
-0.0060937113
-0.012139009
0.0087077906
0.020740774
0.025586925
0.033298636
0.28591111
0.27668111
0.29489027
0.28643098
0.29837965
0.29083644
0.30746691
0.29330662
0.28785633
0.29205822
0.29397791
0.28939486
0.28854688
0.29375449
0.29969149
0.31207268
0.31534552
0.31197141
0.31764444
0.31895553
0.3128154
0.30836738
0.34398715
0.34216844
0.3479346
0.3500546
0.34492375
0.34587197
0.31223291
0.32645634
-0.24783673
-0.24955562
-0.19219357
-0.19556386
-0.19357805
-0.19333268
-0.18760604
-0.24919328
-0.27123171
-0.26516508
-0.26835515
-0.27370595
-0.25096089
-0.23683037
-0.21656769
-0.20339571
-0.23941146
-0.28183697
-0.29403228
-0.28771432
-0.28686509
-0.28430635
-0.23953519
-0.29414481
-0.31709336
-0.31305563
-0.29869401
-0.25846257
-0.28988708
-0.28708713
0.077433338
0.052107359
0.027820963
0.074602639
0.055750982
0.067402199
0.030633835
0.043288273
0.072638249
0.10996851
0.12326901
0.096102131
0.0758097
0.057155851
0.061940942
0.063072591
0.051858185
0.065476373
0.09683239
0.10934012
0.080895613
0.061227234
0.032118782
0.062035149
0.0625902
0.10076444
0.08438085
0.037209155
0.097298243
0.13370905
-0.041899052
-0.078031528
-0.07549451
-0.050383673
-0.036779322
-0.048974607
-0.06596333
-0.069457946
-0.054893449
-0.041509697
-0.044228476
-0.05775649
-0.098544919
-0.0824864
-0.068562654
-0.050366548
-0.055693571
-0.081681751
-0.047799369
-0.042719449
-0.055034423
-0.071492888
-0.057950912
-0.079965475
-0.0064968491
-0.031460402
-0.099439441
-0.076971677
-0.069027818
-0.030894316
0.014090681
0.012645008
0.0036450314
-0.013795247
-0.020305374
-0.017450016
-0.0013700158
-0.002203436
0.0053481136
0.019372158
0.031480589
0.017555954
0.021462975
0.014797732
-0.012556135
0.0012919195
-0.010553889
0.0069848261
0.018806417
0.021380536
0.015431068
0.018423173
0.010790918
-0.0089749329
0.023844045
0.038312084
0.034619842
0.027502623
-0.0019611623
0.0074300997
0.28565305
0.27728061
0.29489627
0.2891186
0.29644471
0.29700214
0.29890783
0.2992221
0.30425345
0.30441862
0.3021881
0.3097001
0.2904763
0.29522992
0.28356915
0.29137363
0.29019604
0.30259474
0.31291942
0.31058401
0.29518852
0.32824207
0.33900032
0.34402468
0.3448962
0.3423117
0.34627689
0.33897542
0.33453009
0.32133879
-0.25026362
-0.24412471
-0.20372784
-0.19940404
-0.20948119
-0.22818682
-0.25585123
-0.26970912
-0.26948384
-0.25712633
-0.23214269
-0.2189581
-0.25717477
-0.26735592
-0.25992234
-0.26094421
-0.26081559
-0.27960254
-0.28378026
-0.28119793
-0.28325422
-0.23860338
-0.17521561
-0.23179644
-0.28002927
-0.30424685
-0.31161248
-0.24825566
-0.2704719
-0.28176162
0.07340719
0.046128326
0.039450321
0.070438009
0.064010326
0.054618179
0.048932118
0.070549684
0.092651116
0.081151798
0.062337691
0.058018875
0.10198521
0.10086596
0.097187309
0.094041012
0.094808964
0.1159285
0.10092787
0.080733201
0.039811525
0.014948345
0.022260372
0.056869423
0.044775308
0.086190894
0.085029461
0.094401495
0.059147053
0.12247175
-0.039639945
-0.079752245
-0.065780388
-0.042609641
-0.045919517
-0.063834126
-0.088844323
-0.041838584
-0.033234548
-0.055125791
-0.068999256
-0.057883923
-0.051640295
-0.052252991
-0.090732178
-0.089851877
-0.075780604
-0.04292045
-0.030044893
-0.040697765
-0.063537813
-0.064726842
-0.07165917
-0.0434834
-0.069163164
-0.056889008
-0.038962051
-0.10519925
-0.0750368
-0.068025803
0.0071374474
0.0037101597
-0.013632725
-0.017149203
-0.015852972
-0.0086711533
0.011518617
-0.0013416715
0.014969135
-0.0034670748
0.001783398
-0.016480778
-0.010160902
-0.0096133357
0.010147882
0.040959803
0.0068881274
-0.0091194095
-0.0015946913
-0.0010637867
0.002477975
0.00082778508
-0.0015389297
-0.015983686
-0.0038216292
0.0084748973
0.02793726
0.027107645
0.009738913
0.0019592354
0.28753625
0.28127029
0.28506848
0.30328825
0.29306574
0.29802062
0.29904359
0.29602992
0.30195266
0.29993729
0.2911679
0.29156264
0.28952273
0.29147373
0.29264616
0.2958444
0.29944909
0.29218259
0.332417
0.32048755
0.31161417
0.30413034
0.32332486
0.33607643
0.34212338
0.34407169
0.33298062
0.33007639
0.3253966
0.32777609
-0.25062113
-0.26018547
-0.23133433
-0.20374682
-0.25072123
-0.26559491
-0.26533675
-0.25045405
-0.21331528
-0.2273894
-0.2430966
-0.26060962
-0.26561368
-0.26504996
-0.26559268
-0.27403206
-0.26726692
-0.26433284
-0.23286353
-0.27402145
-0.27477305
-0.25680822
-0.23200679
-0.20593661
-0.21864381
-0.24498867
-0.28143981
-0.29764651
-0.2863664
-0.27949026
0.10497672
0.062386365
0.05465114
0.032960994
0.079832276
0.071543058
0.08778778
0.088548766
0.053346445
0.068322884
0.088711896
0.10206213
0.1237905
0.14282613
0.12291014
0.11307741
0.091109761
0.088488041
0.042918389
0.12497917
0.06785018
0.060545907
0.056807326
0.061571329
0.064745876
0.05641841
0.070285028
0.095570546
0.12608073
0.13374965
-0.041838842
-0.053718123
-0.082459361
-0.052646336
-0.070120377
-0.036914898
-0.039483038
-0.052653752
-0.059913062
-0.081786954
-0.078032078
-0.064053085
-0.047075015
-0.032609993
-0.045026204
-0.054035241
-0.04003725
-0.081615931
-0.067343197
-0.052545488
-0.046826731
-0.068473086
-0.044572412
-0.023116403
-0.031396263
-0.061199512
-0.074650039
-0.051867791
-0.078152992
-0.10274931
0.016556162
0.0083030881
0.004430694
0.0013512668
-0.018638102
0.012206264
0.019713839
0.01468335
0.0041871107
0.022088783
0.052254295
0.013562083
0.002846849
0.0031697157
-0.0058206536
0.017233451
-0.0030438808
0.019818272
0.033130608
0.014692157
-0.0027163885
-0.0096105888
-0.022429682
-0.011315676
-0.0048473907
-0.015322198
0.017798834
-0.0043066852
0.0042871355
0.039762634
)
;

boundaryField
{
    minX
    {
        type            fixedFluxPressure;
        gradient        uniform 0;
        value           nonuniform List<scalar> 
50
(
0.2679315
-0.22332114
0.094202999
-0.062457164
0.028278828
0.26783169
-0.21536682
0.078724161
-0.067638614
0.033910772
0.27949957
-0.20571467
0.073346627
-0.079166769
0.017718956
0.28195075
-0.233364
0.096908616
-0.050121672
-0.017802305
0.28655161
-0.24927543
0.088637091
-0.039279395
0.0082093494
0.28577717
-0.2534921
0.14782446
-0.043002948
0.030850497
0.28519524
-0.25215914
0.10384925
-0.0479432
0.021386732
0.28591111
-0.24783673
0.077433338
-0.041899052
0.014090681
0.28565305
-0.25026362
0.07340719
-0.039639945
0.0071374474
0.28753625
-0.25062113
0.10497672
-0.041838842
0.016556162
)
;
    }
    maxX
    {
        type            fixedFluxPressure;
        gradient        uniform 0;
        value           nonuniform List<scalar> 
50
(
0.32829441
-0.27054888
0.11882443
-0.094651353
0.020356886
0.32921416
-0.28993691
0.1056972
-0.052077148
0.020027586
0.32860714
-0.29491361
0.093137986
-0.049341494
0.015197095
0.33457749
-0.28919703
0.092735813
-0.055801376
0.0040345162
0.33693507
-0.29928301
0.089301626
-0.052591433
0.012441259
0.33856553
-0.29758373
0.13605742
-0.041019798
0.030279915
0.33654208
-0.30586359
0.13704981
-0.035136914
0.033298636
0.32645634
-0.28708713
0.13370905
-0.030894316
0.0074300997
0.32133879
-0.28176162
0.12247175
-0.068025803
0.0019592354
0.32777609
-0.27949026
0.13374965
-0.10274931
0.039762634
)
;
    }
    minY
    {
        type            fixedValue;
        value           uniform 0;
    }
    minZ
    {
        type            fixedFluxPressure;
        gradient        uniform 0;
        value           nonuniform List<scalar> 
150
(
0.2679315
-0.22332114
0.094202999
-0.062457164
0.028278828
0.26649619
-0.23265447
0.089753586
-0.068792846
0.01501502
0.27044436
-0.24275352
0.10615339
-0.048268647
0.0071356563
0.2724612
-0.2423821
0.1084548
-0.025912415
-0.0065757916
0.27490913
-0.22907231
0.10539518
-0.026697245
-0.0046372977
0.2653365
-0.24010347
0.086123462
-0.042700281
-0.02316587
0.29377982
-0.18986901
0.033388188
-0.054532207
-0.012808352
0.31418601
-0.18173038
0.033837248
-0.059052414
0.0018992413
0.30836697
-0.26972805
0.038993548
-0.065586237
0.010142918
0.31139966
-0.27683919
0.082861507
-0.033013742
0.015879937
0.30895444
-0.2734234
0.074430114
-0.029741535
0.0094085611
0.30471483
-0.26203069
0.082652578
-0.067089833
-0.0096000883
0.32128885
-0.23774216
0.037482853
-0.053654102
0.006897216
0.31331015
-0.27379074
0.089669426
-0.065839236
-0.013142243
0.31389586
-0.29129466
0.068725393
-0.051693143
0.0012810817
0.31790887
-0.28877806
0.10992953
-0.040065571
0.020402477
0.31727114
-0.28338244
0.10392858
-0.032163218
0.023186664
0.3066402
-0.27965685
0.074894164
-0.05374989
0.021246163
0.30616987
-0.26461719
0.047567732
-0.060285787
0.016371332
0.32249243
-0.21156065
0.042535061
-0.054534751
0.0055695888
0.31973365
-0.21892792
0.07775223
-0.045246258
-0.010060786
0.3424927
-0.19455944
0.063477968
-0.0095365697
0.0026966054
0.34156441
-0.21105112
0.072639165
-0.043796648
-0.0046758004
0.35174395
-0.24191477
0.064025512
-0.068575529
0.00074804645
0.34713277
-0.2812539
0.046987861
-0.099192092
0.021898841
0.34330491
-0.31468641
0.088070654
-0.052495101
0.026068711
0.34431487
-0.30605839
0.13195702
-0.087686527
0.01262347
0.33661038
-0.28063342
0.055277281
-0.096727075
-0.00097809538
0.31621948
-0.27803697
0.13504172
-0.069869375
-0.010239159
0.32829441
-0.27054888
0.11882443
-0.094651353
0.020356886
)
;
    }
    maxZ
    {
        type            fixedFluxPressure;
        gradient        uniform 0;
        value           nonuniform List<scalar> 
150
(
0.28753625
-0.25062113
0.10497672
-0.041838842
0.016556162
0.28127029
-0.26018547
0.062386365
-0.053718123
0.0083030881
0.28506848
-0.23133433
0.05465114
-0.082459361
0.004430694
0.30328825
-0.20374682
0.032960994
-0.052646336
0.0013512668
0.29306574
-0.25072123
0.079832276
-0.070120377
-0.018638102
0.29802062
-0.26559491
0.071543058
-0.036914898
0.012206264
0.29904359
-0.26533675
0.08778778
-0.039483038
0.019713839
0.29602992
-0.25045405
0.088548766
-0.052653752
0.01468335
0.30195266
-0.21331528
0.053346445
-0.059913062
0.0041871107
0.29993729
-0.2273894
0.068322884
-0.081786954
0.022088783
0.2911679
-0.2430966
0.088711896
-0.078032078
0.052254295
0.29156264
-0.26060962
0.10206213
-0.064053085
0.013562083
0.28952273
-0.26561368
0.1237905
-0.047075015
0.002846849
0.29147373
-0.26504996
0.14282613
-0.032609993
0.0031697157
0.29264616
-0.26559268
0.12291014
-0.045026204
-0.0058206536
0.2958444
-0.27403206
0.11307741
-0.054035241
0.017233451
0.29944909
-0.26726692
0.091109761
-0.04003725
-0.0030438808
0.29218259
-0.26433284
0.088488041
-0.081615931
0.019818272
0.332417
-0.23286353
0.042918389
-0.067343197
0.033130608
0.32048755
-0.27402145
0.12497917
-0.052545488
0.014692157
0.31161417
-0.27477305
0.06785018
-0.046826731
-0.0027163885
0.30413034
-0.25680822
0.060545907
-0.068473086
-0.0096105888
0.32332486
-0.23200679
0.056807326
-0.044572412
-0.022429682
0.33607643
-0.20593661
0.061571329
-0.023116403
-0.011315676
0.34212338
-0.21864381
0.064745876
-0.031396263
-0.0048473907
0.34407169
-0.24498867
0.05641841
-0.061199512
-0.015322198
0.33298062
-0.28143981
0.070285028
-0.074650039
0.017798834
0.33007639
-0.29764651
0.095570546
-0.051867791
-0.0043066852
0.3253966
-0.2863664
0.12608073
-0.078152992
0.0042871355
0.32777609
-0.27949026
0.13374965
-0.10274931
0.039762634
)
;
    }
    bottomWater_to_rightSolid
    {
        type            fixedFluxPressure;
        gradient        uniform 0;
        value           nonuniform List<scalar> 
130
(
0.021246163
0.016371332
0.0055695888
-0.010060786
0.0026966054
-0.0046758004
0.00074804645
0.021898841
0.026068711
0.01262347
-0.00097809538
-0.010239159
0.020356886
0.037858753
0.022398842
0.015695504
0.0064464055
-0.0069684389
-0.00081841172
0.024230483
0.028473988
0.04537584
0.031742576
0.0089292191
-0.0026552172
0.020027586
0.024425414
0.040907276
0.014395339
0.02212675
0.0047761798
0.012817103
0.030726219
0.035208364
0.031551185
0.0086571746
-0.0040607186
0.017321644
0.015197095
0.015698156
0.018620289
0.012011981
0.00060512195
0.0024978582
0.01545978
0.017994243
0.0083384256
-0.012268778
-0.014922095
-0.0094523076
-0.0043415595
0.0040345162
-0.0080639466
-0.015110189
-0.015958123
0.01119512
0.013352284
0.027371452
0.027258084
-0.0098408122
-0.0039402862
0.00059158297
-0.007266552
0.01217348
0.012441259
0.0054107169
0.018706223
0.0052379095
0.014391839
0.026391281
0.0166186
0.017275648
0.00032859124
-0.0045673783
0.0057504151
0.013500171
0.016992563
0.030279915
0.011055655
0.0095376927
0.010006578
0.0078710174
-0.0023050441
0.0030809966
-0.00016302593
-0.0060937113
-0.012139009
0.0087077906
0.020740774
0.025586925
0.033298636
0.0069848261
0.018806417
0.021380536
0.015431068
0.018423173
0.010790918
-0.0089749329
0.023844045
0.038312084
0.034619842
0.027502623
-0.0019611623
0.0074300997
-0.0091194095
-0.0015946913
-0.0010637867
0.002477975
0.00082778508
-0.0015389297
-0.015983686
-0.0038216292
0.0084748973
0.02793726
0.027107645
0.009738913
0.0019592354
0.019818272
0.033130608
0.014692157
-0.0027163885
-0.0096105888
-0.022429682
-0.011315676
-0.0048473907
-0.015322198
0.017798834
-0.0043066852
0.0042871355
0.039762634
)
;
    }
    bottomWater_to_leftSolid
    {
        type            fixedFluxPressure;
        gradient        uniform 0;
        value           nonuniform List<scalar> 
130
(
0.028278828
0.01501502
0.0071356563
-0.0065757916
-0.0046372977
-0.02316587
-0.012808352
0.0018992413
0.010142918
0.015879937
0.0094085611
-0.0096000883
0.006897216
0.033910772
0.0015031294
-0.0039118556
-0.011288958
-0.0066986437
-0.01094864
0.011151185
0.015305219
0.016576899
0.027322446
0.015012812
0.0013536139
-0.0065651129
0.017718956
-0.0031666423
-0.013687446
-0.015137907
-0.015934446
-0.00022226761
0.028902082
0.027016815
0.034950981
0.02198486
0.018038405
0.014006192
-0.0043147095
-0.017802305
-0.021894152
-0.020120468
-0.020512442
-0.017980317
-0.016378894
0.0083766801
0.0066334911
0.028932008
0.010520654
0.011597115
-0.013503599
-0.029851213
0.0082093494
-0.0015352583
0.013230488
0.0059276791
-0.0061796196
-0.0082852283
-0.0051130869
-2.1017344e-05
0.0063045775
-0.0048632182
-0.0033464195
0.0012312726
-0.016051617
0.030850497
0.019663374
0.034505552
0.021842346
-0.0018416636
-0.016681905
-0.022241528
0.0050651245
0.00068883612
0.020987788
0.040919758
0.009855275
0.010848916
0.021386732
0.011454864
0.0099456449
0.00079031272
-0.015545776
0.0024469257
0.011817734
0.01790033
0.020267744
0.023114256
0.031424713
0.0092918838
0.012918762
0.014090681
0.012645008
0.0036450314
-0.013795247
-0.020305374
-0.017450016
-0.0013700158
-0.002203436
0.0053481136
0.019372158
0.031480589
0.017555954
0.021462975
0.0071374474
0.0037101597
-0.013632725
-0.017149203
-0.015852972
-0.0086711533
0.011518617
-0.0013416715
0.014969135
-0.0034670748
0.001783398
-0.016480778
-0.010160902
0.016556162
0.0083030881
0.004430694
0.0013512668
-0.018638102
0.012206264
0.019713839
0.01468335
0.0041871107
0.022088783
0.052254295
0.013562083
0.002846849
)
;
    }
    bottomWater_to_heater
    {
        type            fixedFluxPressure;
        gradient        uniform 0;
        value           nonuniform List<scalar> 
92
(
-0.013142243
0.0012810817
0.020402477
0.023186664
-0.017836807
-0.0022138031
0.021239245
0.019933309
-0.014987279
0.0022070031
0.023088505
0.024703237
0.32649043
0.31124673
0.31965566
0.32004113
-0.18633808
-0.22325981
-0.21320028
-0.23609917
0.065149655
0.074634253
0.072771228
0.041967723
-0.0085905375
-0.059068899
-0.076852026
-0.078993519
-0.0058185694
-0.0058185694
-0.032721293
-0.032721293
-0.0011783611
-0.0011783611
0.011911523
0.011911523
0.27640695
0.31908053
-0.23220551
-0.27317081
0.096576756
0.11529432
-0.054216413
-0.038207543
-0.016051617
-0.0080639466
0.27068614
0.30261341
0.30536831
0.31068354
0.31505995
0.32198782
-0.23258049
-0.1933511
-0.19234426
-0.18913252
-0.27272337
-0.18130369
0.093648477
0.069390711
0.081792537
0.089477009
0.08559548
0.050079538
-0.09327895
-0.078310437
-0.06511389
-0.047713102
-0.056714536
-0.071364091
0.010848916
-0.0030460591
-0.012796524
-0.0054506643
0.0054107169
0.0046365554
-0.0030460591
-0.012796524
-0.0054506643
0.0046365554
0.014797732
-0.012556135
0.0012919195
-0.010553889
-0.0096133357
0.010147882
0.040959803
0.0068881274
0.0031697157
-0.0058206536
0.017233451
-0.0030438808
)
;
    }
}


// ************************************************************************* //
