/*--------------------------------*- C++ -*----------------------------------*\
| =========                 |                                                 |
| \\      /  F ield         | OpenFOAM: The Open Source CFD Toolbox           |
|  \\    /   O peration     | Version:  v2012                                 |
|   \\  /    A nd           | Website:  www.openfoam.com                      |
|    \\/     M anipulation  |                                                 |
\*---------------------------------------------------------------------------*/
FoamFile
{
    version     2.0;
    format      ascii;
    class       volScalarField;
    location    "470/bottomWater";
    object      T;
}
// * * * * * * * * * * * * * * * * * * * * * * * * * * * * * * * * * * * * * //

dimensions      [0 0 0 1 0 0 0];


internalField   nonuniform List<scalar> 
1460
(
988.68626
984.7495
982.75939
979.55063
974.71601
970.35002
966.2126
964.08228
967.15963
964.33556
956.12723
953.70954
951.26339
949.59773
945.72242
940.51261
936.22551
935.65604
934.60888
933.15752
931.05485
929.11664
928.46074
927.58792
925.75598
922.94034
921.20336
927.49128
929.86466
929.55364
983.12266
981.67682
978.03008
972.9556
969.63893
966.82182
963.9482
963.2759
963.24913
963.18825
955.84021
952.04787
949.50854
948.79714
947.35846
944.80412
937.46606
936.21107
936.525
935.71749
933.76309
931.20478
930.54441
930.86559
931.1091
929.60496
932.33511
932.26917
932.50864
930.97387
981.04561
978.5359
976.35508
972.2628
965.84386
963.38222
963.53348
963.01432
962.58003
963.01899
956.07002
952.92775
948.17208
945.80818
947.58331
945.35134
938.49312
937.24358
937.12381
936.2486
934.00553
931.21604
930.02785
930.71772
931.30876
929.78114
932.46689
931.85676
931.8209
932.89499
974.32221
973.48589
972.93073
968.90927
961.4552
960.8179
961.55775
961.5971
961.70815
961.89425
956.14442
954.38938
947.47382
942.35494
946.92302
945.18314
939.4339
938.87058
938.39814
937.09924
933.82521
930.9988
929.55253
930.46922
930.91249
929.98397
931.6142
931.30493
931.27183
932.39952
971.97225
971.46563
971.60726
963.4614
960.50216
960.66878
960.36722
959.8461
959.39594
959.45517
957.79693
954.85882
945.92594
936.54104
938.8081
941.53215
937.28927
935.69959
934.50133
933.32504
932.20266
930.36126
928.98143
929.49609
929.97565
929.81015
930.41919
930.26488
930.77345
931.79452
982.48636
976.97489
978.61918
980.84043
977.49612
972.97067
969.14963
966.7417
965.05961
957.89448
955.08508
952.96873
952.01617
947.63729
946.11487
943.10064
936.91706
932.55839
932.88276
931.63441
930.25821
928.71076
927.4535
924.83912
921.85337
917.16026
922.96962
928.5638
929.79602
927.45828
978.76272
974.22436
973.60595
974.27977
973.02603
970.99015
968.0261
965.59332
965.17147
954.6005
952.81675
952.90542
951.18471
945.95824
945.2335
943.8313
940.60609
935.92891
933.9321
933.41048
932.38446
930.36907
930.10773
930.33572
929.56074
929.47976
932.29096
932.04726
931.43095
930.40276
976.24952
974.5484
973.33673
973.92716
972.49848
970.61203
968.805
964.48677
963.46023
954.59195
955.0007
953.86294
951.88602
943.46271
944.79252
944.69808
940.99124
936.30888
934.3195
933.47282
932.32483
930.10972
929.67405
930.06659
929.84679
929.69422
931.91713
931.86068
932.0534
931.05278
970.74763
969.67207
969.03286
967.94201
971.3728
968.91744
966.41569
962.46179
961.99012
954.94797
955.5751
954.22432
952.01155
941.98263
944.47965
942.665
940.95909
936.33105
934.80283
933.77646
933.48351
930.01537
929.38799
930.17343
930.10874
929.91709
930.76262
931.1289
931.56461
931.46757
970.49015
970.00993
969.76238
962.66002
962.08044
962.93055
962.7093
961.29621
960.27621
954.66057
954.80573
954.32247
952.154
939.60132
939.27255
939.70636
938.37811
935.10914
933.25536
932.12125
930.79977
929.3758
928.76814
929.40863
929.60082
929.71687
930.08522
929.9276
930.2473
931.04821
979.34308
973.54168
973.08474
976.61808
977.81395
973.51943
968.33045
966.61139
958.01908
953.60376
951.00306
949.29171
949.30507
944.91565
942.61704
938.19173
933.96521
932.42355
929.75572
929.78505
928.97875
927.25729
925.49271
918.91425
920.20265
923.87835
928.73266
930.58135
931.06437
929.30096
972.78992
971.16962
968.4335
969.57095
971.75834
971.56458
967.6199
966.87949
962.13154
949.8719
949.27731
949.06518
947.30984
944.91359
942.43
938.74112
934.36385
932.10055
931.73587
931.24011
930.54649
929.29758
929.59947
929.02768
931.08823
932.22557
932.17041
932.48702
932.54619
931.57975
973.14959
970.79681
968.29913
966.65891
969.08114
967.8144
967.5001
965.6877
961.64343
950.17675
952.00365
949.8965
948.39462
945.19845
941.96637
937.86478
932.61625
930.63868
931.6491
930.74953
929.22894
929.03711
929.35776
929.48704
931.24716
931.37865
931.85315
932.11005
932.61377
931.72087
969.99757
968.42713
967.71354
965.27773
964.95258
965.619
965.64458
964.41064
961.9092
950.98648
953.16411
952.6643
951.85942
943.55864
939.93096
936.30231
932.54988
930.8245
931.56979
930.37324
929.88955
928.85986
929.28969
929.73654
931.22835
931.02133
931.53325
931.29517
932.65371
932.02834
969.71518
968.97621
968.61219
964.41715
963.91348
964.07799
964.13659
963.45492
962.14193
953.4143
953.35675
953.07008
952.95839
941.76283
934.49998
933.81143
931.30221
930.32618
930.86651
929.79695
928.96525
928.06707
928.48818
929.40037
930.64105
930.37908
930.0945
930.20511
931.56647
931.60254
979.35936
974.97327
973.11079
973.0943
973.33143
973.71448
974.023
969.33882
956.80327
950.24587
946.06546
943.15743
940.01637
933.89286
926.89359
925.39388
922.93205
925.18368
926.52076
925.36723
926.56072
924.40784
922.13976
923.98401
926.89782
927.95511
928.81597
930.59677
930.82351
929.02732
973.51327
971.75962
970.32082
968.75934
968.20396
968.15959
968.62607
968.41155
959.58351
948.98212
946.23819
943.55653
941.83049
934.37768
928.82753
928.3512
923.48272
923.29466
924.77692
926.46412
928.05666
928.12301
928.57356
931.34391
932.28259
932.01469
931.83612
932.61538
933.57803
932.54404
972.95118
972.06271
970.25914
968.28115
967.83077
968.23841
969.86854
968.46296
961.10899
951.10272
952.43703
944.61357
943.43186
934.14458
928.30873
929.18139
921.29303
920.686
925.05407
926.46453
927.38675
927.75936
928.80774
931.46093
932.01411
931.53128
931.22727
932.26985
933.51722
932.92348
970.75594
970.24223
969.48062
968.8526
967.42888
966.07464
968.47915
967.34222
961.37401
955.24307
955.88463
949.81704
948.84709
934.47863
927.97029
927.81409
922.76438
923.46158
925.69691
927.05081
927.053
927.76521
928.64022
931.33829
931.56956
931.11804
930.79042
931.47299
933.31128
933.45756
970.35931
969.6845
969.82485
969.68372
966.5604
965.09387
965.49452
964.06454
961.34508
957.10194
955.29386
953.35727
949.9865
934.58046
927.39826
926.10794
925.14674
925.78952
926.32032
926.11171
926.49082
927.92645
928.28476
930.55742
930.58797
930.22523
929.95069
930.66717
932.23084
932.54224
981.49274
977.53649
973.54275
978.72005
980.27871
982.16576
975.31239
969.0494
961.71429
959.97915
954.9031
951.34529
935.20374
919.09473
926.40396
924.89724
925.18573
921.74527
925.29576
928.53958
930.20845
930.69735
931.98715
931.81638
931.45678
929.86649
974.50468
972.23914
971.62222
971.04659
971.75484
973.83986
972.17014
967.87504
962.17626
961.27767
954.25319
944.92891
923.81906
916.88856
925.06589
925.90797
928.12594
928.1127
930.47306
932.69437
932.63984
932.8277
934.40784
934.43308
934.36903
933.25087
974.3026
973.45619
971.80193
970.39872
971.49333
972.03039
972.13008
968.82496
963.89263
962.37236
954.28866
937.0483
928.16496
913.72525
921.85335
925.77188
928.66549
928.97908
930.42716
932.83967
932.08336
932.00467
934.1138
934.46281
934.71402
933.52346
974.33078
973.84782
973.08642
970.24676
969.95359
964.79857
969.38984
968.77239
965.58639
960.9073
956.81785
947.55077
933.92578
917.79891
926.01339
928.65414
929.7815
929.5524
930.36962
931.30157
931.41687
931.1175
933.96893
934.19914
934.78522
933.9426
973.73236
972.87308
972.70494
970.98504
970.07887
963.94065
963.13274
964.18625
960.6114
958.18252
951.87249
945.14906
937.10076
921.35511
926.48646
927.83604
928.1482
928.78558
929.4895
930.17548
929.87394
929.68831
933.40434
933.79967
933.81531
933.66562
984.75028
980.42081
977.55495
975.35136
973.06909
968.59042
970.72593
972.99132
973.98961
973.22212
967.86506
955.46495
927.18276
918.56408
927.38235
924.72115
925.68709
925.61496
928.9145
930.43268
931.19379
931.64552
934.00166
932.96779
932.62775
930.58345
975.45415
972.38627
970.04307
968.0239
965.8699
962.40429
963.5672
966.23339
968.75741
969.32558
963.26571
941.61199
917.59623
915.74276
923.16157
925.57779
926.36211
928.44311
932.86437
933.5125
933.09504
933.69189
936.31132
935.8745
935.11698
933.97414
975.1186
971.6585
968.82772
967.73536
966.1911
962.00485
963.09115
966.85057
968.12797
966.20328
956.12009
942.85775
923.6951
912.11291
917.81144
925.43561
928.82707
928.84849
932.84338
933.50646
932.5782
933.46549
936.13655
935.99663
935.37062
934.2153
975.14873
972.82384
972.73107
969.40335
966.06939
961.58036
960.22196
966.38284
966.17495
964.44471
956.62178
942.57444
932.64729
919.69367
925.25521
930.23792
929.5454
929.11316
932.58765
933.18625
931.82227
932.832
936.17058
935.81172
935.37462
934.52595
974.9604
973.52872
972.73226
970.84749
970.43529
962.16136
959.59233
959.70591
958.76179
959.75212
953.55872
945.30604
936.13352
925.13939
926.69819
929.00679
928.23227
928.46349
930.91881
931.19777
930.64128
932.43879
934.1701
934.58461
934.42031
934.24664
982.58059
978.1597
975.4288
973.14426
972.18819
972.47459
967.14424
968.59413
972.07726
963.37194
941.00489
931.87579
928.16707
927.09746
927.84113
929.2301
929.14788
927.20902
926.52539
926.99107
928.22353
929.42346
931.04075
931.02717
932.17042
933.05309
933.69579
932.87586
932.63401
931.24116
975.4284
971.71358
969.19361
968.01685
965.709
967.02326
965.49385
966.59597
968.0036
967.49579
945.25969
931.82085
929.77542
929.30449
929.46337
932.09972
933.47058
931.20193
929.15086
928.04271
928.5487
933.76846
934.46883
934.25922
933.78326
934.77615
935.92225
936.22608
935.64215
934.55468
975.45467
972.00554
970.75778
968.66367
964.98777
964.36691
965.18653
966.71671
965.96365
964.02786
943.25867
933.00523
933.21646
932.04843
930.86208
933.20815
935.50702
929.69831
927.7891
928.22503
928.58008
933.2636
933.86004
933.92605
933.67879
934.40477
935.75752
936.2085
935.768
934.82993
975.52106
973.81325
973.76499
971.1631
964.86975
966.04467
967.20024
965.73092
963.39099
960.3249
944.01799
934.63518
932.2415
929.07943
928.95017
931.67986
934.70425
936.43652
930.93464
930.37626
929.12257
933.36092
933.65371
933.50452
932.32107
934.02967
936.43561
936.06885
935.77148
935.14631
975.17225
974.33989
973.67407
972.71771
964.5192
962.28817
962.07619
960.10725
958.23938
955.60835
945.26347
937.55254
933.7581
930.16517
928.90501
931.25105
930.69026
933.44769
930.65878
930.4551
929.85566
929.94849
930.07369
930.97475
930.90669
933.52585
934.0516
934.369
934.55528
934.70632
984.02049
980.1132
976.88952
976.51982
971.91607
972.69648
972.47241
973.90702
976.23145
978.49506
954.36606
943.49376
938.50306
938.50115
941.24634
943.07849
939.51451
934.76281
932.05821
931.76048
933.91115
934.85389
933.3941
929.11289
928.34259
928.96026
931.2793
934.23214
936.10005
933.70548
978.22519
975.63331
974.37447
973.34004
969.51532
969.3982
971.38524
970.65608
971.53852
972.12641
952.44667
940.53447
937.89354
941.33414
943.91099
944.3038
944.25708
941.85679
938.69927
933.79541
935.09539
935.7018
934.84401
935.16961
934.26998
934.75924
936.29719
936.11195
936.47175
935.7421
977.97244
975.75197
974.40082
973.49096
969.55088
969.53262
972.16924
971.85601
971.25858
970.91502
951.79815
941.16263
947.37201
947.35527
944.85218
944.3253
943.87566
942.72292
938.89815
934.57572
933.59681
933.72287
934.33114
934.5314
934.37333
934.85894
935.99908
935.92421
935.47575
935.38926
977.78481
976.88929
976.68227
974.25104
970.23998
969.14869
971.76257
970.65357
970.52482
970.5284
953.0341
944.75911
944.42706
943.00866
940.02486
940.26115
939.66891
940.72389
938.73478
934.75884
934.0609
934.52137
934.45812
933.71399
934.45666
934.96237
935.42559
935.87041
935.06669
934.63615
976.0981
975.39404
974.71273
973.83214
969.97457
967.18611
965.63474
962.4886
963.05959
963.15015
950.93285
945.24917
942.70191
940.43076
939.52932
939.40573
936.69751
936.63738
936.85857
933.68802
933.46756
933.65988
933.06657
931.97748
931.53786
934.11353
934.27076
934.47481
934.29257
934.26264
986.7774
983.38098
980.56723
980.31502
977.1702
977.25945
977.85967
979.28315
975.62664
964.15649
958.90519
953.95887
953.01922
950.53404
948.26774
946.9847
941.71946
938.06869
937.54562
938.11098
939.11468
937.59564
935.9664
933.0122
931.57299
930.96511
929.65095
933.04283
935.93141
936.53441
981.72031
979.61997
978.62342
976.54507
974.59167
973.72151
973.44711
974.01762
970.72627
961.8793
959.96987
953.88151
949.92569
948.61505
947.10956
947.79448
945.18026
942.98034
940.80515
939.14008
939.18068
938.98241
937.72767
935.55313
934.88103
934.54557
935.15917
937.09852
936.89263
937.77017
981.50276
980.01389
979.20495
976.94785
974.86023
974.09992
973.65448
973.58529
970.66113
964.86753
961.02181
954.59078
952.11627
951.26999
951.09434
950.03344
947.55873
943.71196
941.8448
940.55825
939.7572
938.74725
937.89736
934.8625
933.88808
934.61964
935.28207
936.53352
936.60752
936.45419
981.2397
980.71564
979.1724
977.00519
974.62066
973.87432
973.52918
973.22764
969.81439
968.15152
962.48923
955.19092
949.42424
946.74489
947.17814
945.91601
943.49402
941.65667
942.09212
941.39421
940.42953
939.68397
939.63515
935.35285
933.70846
934.8179
935.41243
936.11038
936.09991
935.48037
978.75457
977.9359
977.06297
976.4433
974.0824
972.40581
972.58859
971.75773
966.45734
965.02741
960.73192
954.86193
947.89455
940.3134
945.30331
944.32883
942.38651
941.06854
937.96842
936.39273
935.50733
935.36228
935.10183
933.70993
932.53374
934.16257
934.9088
935.35541
935.07645
935.31572
987.83282
983.36125
980.56561
977.69606
981.94669
982.65471
979.81375
972.13262
967.53979
969.48256
969.94786
968.35848
968.29237
959.81524
953.8827
949.43286
945.89106
944.61538
944.0432
939.96231
938.61701
936.97543
935.19038
934.00189
932.54188
932.86041
932.67538
933.12476
934.37076
936.28656
982.23013
979.21226
977.52134
976.58137
975.87575
976.27029
973.69892
967.12357
966.78588
962.59933
964.42189
963.68172
962.97353
959.69675
951.25496
949.17343
946.79208
946.30621
947.43258
940.79995
937.39926
936.75291
936.56342
935.23593
934.0847
935.11685
935.31496
935.17618
936.05489
938.59424
982.24331
979.31935
979.5364
976.80535
975.30011
976.04166
973.9558
969.94197
967.46456
962.98798
961.04694
961.69068
961.33908
956.3678
953.22636
951.13699
949.07351
949.01855
947.15374
941.73094
937.85397
937.85499
937.09736
935.27326
933.87464
935.40881
936.31366
936.04038
937.46025
939.81055
982.2368
980.55709
980.33344
978.60053
975.97833
975.81578
973.95512
972.79538
970.06436
969.28817
961.3808
955.8454
953.71984
947.71236
949.00402
949.12962
946.79531
946.33259
943.63876
941.57062
938.23047
937.98509
936.84953
935.05951
933.61462
934.53011
936.05618
936.33709
937.60601
937.30904
981.36125
980.37294
979.72268
978.93245
976.59841
973.47615
973.21581
971.09687
966.38717
967.05429
959.91385
957.70041
955.3513
947.3301
943.21189
945.91349
942.08178
942.38728
942.51177
940.9191
939.08688
937.63219
936.46238
934.74668
933.26862
934.48173
935.26186
935.92272
936.59861
936.82686
)
;

boundaryField
{
    minX
    {
        type            zeroGradient;
    }
    maxX
    {
        type            zeroGradient;
    }
    minY
    {
        type            fixedValue;
        value           uniform 1073;
    }
    minZ
    {
        type            zeroGradient;
    }
    maxZ
    {
        type            zeroGradient;
    }
    bottomWater_to_rightSolid
    {
        type            compressible::turbulentTemperatureCoupledBaffleMixed;
        refValue        nonuniform List<scalar> 
130
(
753.51593
761.50145
769.8348
778.10073
785.98177
793.26224
799.79854
805.48869
810.27244
814.12158
817.01768
818.95729
819.93283
747.66216
756.97912
766.48516
775.69526
784.29474
792.0994
799.00419
804.94715
809.90272
813.86504
816.83471
818.81791
819.81266
735.86059
748.26992
760.30425
771.42042
781.39031
790.15167
797.70892
804.09158
809.33611
813.48703
816.58011
818.638
819.66432
718.24275
736.48405
752.6006
766.43116
778.17588
788.08445
796.38551
803.24397
808.798
813.15081
816.37245
818.50445
819.56501
697.47613
725.33541
746.29734
762.72032
775.92666
786.69726
795.51782
802.7018
808.4686
812.96784
816.27093
818.44227
819.51976
697.44318
725.30405
746.27635
762.70336
775.91263
786.69016
795.51053
802.69558
808.4697
812.96591
816.26766
818.4371
819.51364
718.10915
736.38567
752.53481
766.38541
778.13747
788.04738
796.34351
803.20488
808.77772
813.14225
816.3651
818.4921
819.55059
735.60602
748.08378
760.16826
771.32782
781.32657
790.094
797.64352
804.02313
809.28828
813.45684
816.55829
818.61388
819.63993
747.32448
756.72138
766.29274
775.55659
784.19585
792.01811
798.9205
804.86374
809.83856
813.82183
816.80795
818.79679
819.793
753.1532
761.22755
769.62869
777.94539
785.86499
793.16542
799.70153
805.39304
810.19725
814.0699
816.98833
818.9406
819.91894
)
;
        refGradient     uniform 0;
        valueFraction   uniform 0.99248593;
        value           nonuniform List<scalar> 
130
(
754.88488
762.8014
771.06329
779.25867
787.06666
794.28207
800.77312
806.42413
811.1707
814.99548
817.86866
819.79753
820.77341
749.07065
758.30367
767.72976
776.86073
785.3849
793.12636
799.98408
805.88383
810.80305
814.73835
817.68453
819.65526
820.64853
737.32185
749.64198
761.57785
772.60424
782.49247
791.19116
798.69848
805.0425
810.24565
814.36325
817.43394
819.4866
820.50547
719.80228
737.91052
753.90439
767.63388
779.30114
789.13795
797.3937
804.20086
809.71043
814.02848
817.23133
819.35903
820.41397
699.15838
726.8469
747.66147
763.96337
777.07527
787.7702
796.52965
803.65739
809.37948
813.87284
817.15408
819.30922
820.37749
699.15414
726.81736
747.64946
763.9472
777.05893
787.77395
796.53012
803.657
809.40122
813.87667
817.15672
819.30864
820.37578
719.72722
737.84543
753.87176
767.61382
779.27825
789.11463
797.35519
804.16447
809.7151
814.05078
817.25181
819.36422
820.41591
737.11659
749.50223
761.47211
772.5462
782.47127
791.16835
798.65296
804.98122
810.22621
814.36466
817.44434
819.48312
820.50125
748.78027
758.0833
767.57092
776.75853
785.33178
793.0933
799.93335
805.82306
810.77274
814.73171
817.69874
819.67055
820.66108
754.57509
762.58975
770.91579
779.15623
787.00539
794.24217
800.71628
806.35392
811.13115
814.98057
817.88203
819.82472
820.79742
)
;
        Tnbr            T;
        thicknessLayers List<scalar> 0();
        kappaLayers     List<scalar> 0();
        kappaMethod     fluidThermo;
        kappa           none;
        alphaAni        none;
        alpha           none;
        field           T;
    }
    bottomWater_to_leftSolid
    {
        type            compressible::turbulentTemperatureCoupledBaffleMixed;
        refValue        nonuniform List<scalar> 
130
(
900.84118
900.79425
900.69405
900.52436
900.34889
900.18175
900.01139
899.8341
899.65167
899.4701
899.2965
899.14062
899.02553
900.84903
900.80111
900.70086
900.53752
900.36742
900.19503
900.01092
899.81154
899.60075
899.38081
899.20193
899.06332
898.9761
900.89483
900.84568
900.74627
900.59024
900.41054
900.21447
900.00308
899.77289
899.52421
899.2595
899.05275
898.90237
898.81754
900.99669
900.94521
900.84267
900.68372
900.47143
900.22927
899.97369
899.69756
899.40405
899.10915
898.85124
898.65161
898.5309
901.14477
901.08458
900.9636
900.77435
900.52603
900.22147
899.9124
899.59842
899.26293
898.92583
898.59528
898.3207
898.14761
901.28416
901.21287
901.0717
900.85586
900.57286
900.22306
899.8721
899.52501
899.1711
898.81532
898.44735
898.12936
897.92989
901.41287
901.33996
901.19172
900.96254
900.64656
900.30151
899.94536
899.57268
899.18963
898.79568
898.39102
898.05623
897.86599
901.54514
901.47408
901.32938
901.10886
900.81347
900.47916
900.12233
899.74042
899.35231
898.95525
898.54099
898.21299
898.02906
901.6812
901.61233
901.47322
901.26438
900.98824
900.67136
900.32982
899.95547
899.54839
899.14885
898.7628
898.44471
898.25279
901.77415
901.70604
901.57017
901.36538
901.09413
900.77695
900.43614
900.06057
899.65859
899.27201
898.89747
898.6118
898.44663
)
;
        refGradient     uniform 0;
        valueFraction   uniform 0.99248593;
        value           nonuniform List<scalar> 
130
(
901.37564
901.32525
901.22687
900.99727
900.80088
900.63624
900.46491
900.28504
900.10059
899.92081
899.7361
899.55919
899.37794
901.3723
901.32112
901.21976
901.00432
900.83108
900.66637
900.482
900.27354
900.05668
899.79619
899.61974
899.47853
899.37567
901.41194
901.35758
901.25618
901.06986
900.8877
900.69433
900.48498
900.25143
899.99477
899.66641
899.46081
899.30941
899.22438
901.51788
901.4617
901.36099
901.20219
900.96805
900.71667
900.46602
900.18121
899.8695
899.54495
899.27533
899.06263
898.91751
901.6902
901.624
901.50268
901.30193
901.04865
900.70023
900.38739
900.08368
899.72386
899.37106
898.99545
898.67241
898.44018
901.83779
901.75627
901.61016
901.38179
901.09782
900.68839
900.32079
899.97715
899.61885
899.27321
898.86138
898.48372
898.21684
901.96712
901.8885
901.73637
901.50172
901.12652
900.76727
900.4122
900.02752
899.63332
899.22257
898.74333
898.35292
898.13558
902.10534
902.02952
901.88078
901.6553
901.33314
900.98043
900.61466
900.21191
899.83096
899.43758
898.93467
898.56637
898.36466
902.26033
902.18583
902.0412
901.82929
901.53745
901.21036
900.87278
900.49504
900.05114
899.64387
899.2284
898.86848
898.62561
902.37217
902.29714
902.15741
901.94821
901.66144
901.32318
900.98299
900.59432
900.15999
899.78134
899.35587
899.05577
898.87414
)
;
        Tnbr            T;
        thicknessLayers List<scalar> 0();
        kappaLayers     List<scalar> 0();
        kappaMethod     fluidThermo;
        kappa           none;
        alphaAni        none;
        alpha           none;
        field           T;
    }
    bottomWater_to_heater
    {
        type            compressible::turbulentTemperatureCoupledBaffleMixed;
        refValue        nonuniform List<scalar> 
92
(
734.29861
736.42221
740.5425
746.36622
724.96464
727.43211
732.27317
739.18976
705.2319
708.37827
714.75237
724.15468
345.64005
342.93154
342.98224
345.70784
422.46874
419.21741
419.48448
423.06565
488.2883
485.55535
486.3142
490.05889
544.29526
542.63098
544.58952
549.11983
672.99669
590.58894
676.9576
590.82746
685.5244
595.49646
699.36493
603.13396
345.64005
345.70784
422.46874
423.06565
488.2883
490.05889
544.29526
549.11983
590.58894
603.13396
345.583
345.583
342.91815
342.98598
345.71804
345.71804
422.39803
422.39803
419.19578
419.49012
423.08817
423.08817
488.22453
488.22453
485.53599
486.32373
490.09521
490.09521
544.23634
544.23634
542.60772
544.59804
549.16701
549.16701
590.5183
590.5183
590.7877
595.48766
603.15792
603.15792
672.55655
676.59317
685.24824
699.16549
704.6126
707.84565
714.31496
723.81063
724.29798
726.83437
731.75112
738.75457
733.67423
735.82253
740.00318
745.90809
)
;
        refGradient     uniform 0;
        valueFraction   nonuniform List<scalar> 
92
(
0.99248593
0.99248593
0.99248593
0.99248593
0.99248593
0.99248593
0.99248593
0.99248593
0.99248593
0.99248593
0.99248593
0.99248593
0.99248593
0.99248593
0.99248593
0.99248593
0.99248593
0.99248593
0.99248593
0.99248593
0.99248593
0.99248593
0.99248593
0.99248593
0.99248593
0.99248593
0.99248593
0.99248593
0.99248593
0.99248593
0.99248593
0.99248593
0.99248593
0.99248593
0.99248593
0.99248593
0.99248593
0.99248593
0.99248593
0.99248593
0.99248593
0.99248593
0.99248593
0.99248593
0.99248593
0.99248593
0.99248593
0.99248593
0.99248593
0.99248593
0.99248593
0.99248593
0.99248593
0.99248593
0.99248593
0.99248593
0.99248593
0.99248593
0.99248593
0.99248593
0.99248593
0.99248593
0.99248593
0.99248593
0.99248593
0.99248593
0.99248593
0.99248593
0.99248593
0.99248593
0.99248593
0.99248593
0.99248593
0.99248593
0.99248593
0.99248593
0.99248593
0.99248593
0.99248593
0.99248593
0.99248593
0.99248593
0.99248593
0.99248593
0.99248593
0.99248593
0.99248593
0.99248593
0.99248593
0.99248593
0.99248593
0.99248593
)
;
        value           nonuniform List<scalar> 
92
(
735.81824
737.94281
742.05267
747.80084
726.5775
729.02391
733.83186
740.68652
707.00944
710.07742
716.39845
725.71124
350.06038
347.3195
347.3586
350.04521
426.31543
423.04673
423.30823
426.82589
491.63865
488.88233
489.64205
493.29929
547.22726
545.52652
547.46926
551.92749
674.9624
593.17386
678.83948
593.35654
687.3322
597.98074
701.06149
605.55361
350.0699
350.01638
426.23566
426.7763
491.59352
493.24235
547.22289
551.89011
593.19252
605.52511
349.95306
349.95248
347.31328
347.39105
350.02248
350.10192
426.1189
426.20688
423.02999
423.34194
426.79004
426.92318
491.49668
491.55931
488.88223
489.68168
493.26632
493.44201
547.15482
547.128
545.51075
547.5066
551.95125
552.06397
593.11516
593.07036
593.32834
598.01062
605.57734
605.61905
674.49217
678.48906
687.09673
700.90521
706.38444
709.58646
716.00626
725.41028
725.92108
728.47597
733.34841
740.28466
735.27945
737.38091
741.55038
747.38217
)
;
        Tnbr            T;
        thicknessLayers List<scalar> 0();
        kappaLayers     List<scalar> 0();
        kappaMethod     fluidThermo;
        kappa           none;
        alphaAni        none;
        alpha           none;
        field           T;
    }
}


// ************************************************************************* //
