/*--------------------------------*- C++ -*----------------------------------*\
| =========                 |                                                 |
| \\      /  F ield         | OpenFOAM: The Open Source CFD Toolbox           |
|  \\    /   O peration     | Version:  v2012                                 |
|   \\  /    A nd           | Website:  www.openfoam.com                      |
|    \\/     M anipulation  |                                                 |
\*---------------------------------------------------------------------------*/
FoamFile
{
    version     2.0;
    format      ascii;
    class       volVectorField;
    location    "470/bottomWater";
    object      U;
}
// * * * * * * * * * * * * * * * * * * * * * * * * * * * * * * * * * * * * * //

dimensions      [0 1 -1 0 0 0 0];


internalField   nonuniform List<vector> 
1460
(
(-0.00014179758 -0.016487272 -0.00097660325)
(-0.00098632597 -0.014245478 -0.0018963307)
(-0.0014691824 -0.014384005 -0.00089292619)
(-0.0025173565 -0.01516387 -0.00056460063)
(-0.0027671989 -0.014709981 -7.704707e-05)
(-0.0047451053 -0.011965398 0.00079904892)
(-0.0030972942 -0.011640638 0.0011382053)
(0.00078295461 -0.012805672 0.0012603027)
(0.0020763012 -0.014650923 0.00093751731)
(0.00038111363 -0.016692164 0.00065917189)
(-0.0021507393 -0.016913753 -0.00038957397)
(-0.0034752208 -0.015718905 -0.001707113)
(-0.0018388122 -0.013327296 -0.0011533112)
(0.00099137018 -0.017460399 -0.0025295496)
(-4.9358124e-05 -0.015307573 -0.0024587464)
(-0.00042193815 -0.017007528 -0.0016387985)
(-0.00093528143 -0.015882325 -0.00048773233)
(-0.003304966 -0.013284359 0.00031529434)
(-0.0046469657 -0.012336323 0.0016195412)
(-0.0036619477 -0.012869221 0.0020207868)
(-0.0033249295 -0.013730425 0.0012846624)
(-0.0016410613 -0.013792746 0.0012649707)
(0.001903495 -0.013303001 0.00095028303)
(0.0032302617 -0.012846008 0.0014188558)
(0.0045022742 -0.015375453 0.0012470727)
(0.0036021104 -0.017604965 0.00064451435)
(0.0015309481 -0.021207839 0.00098390402)
(0.0026418601 -0.012735499 -0.00022553738)
(0.0036367717 -0.014308304 0.00014396663)
(0.00063721235 -0.017573526 1.7803896e-05)
(0.00041327299 0.018070982 -0.0019854199)
(0.0018776275 0.01629078 -0.0029758172)
(0.0007878177 0.016324797 -0.0013800645)
(-0.0035602905 0.01691102 0.00031182705)
(-0.0037699571 0.016145434 0.0011719943)
(-0.0043072172 0.012348087 0.00091290449)
(0.0024272135 0.00082678095 0.0010311035)
(0.0025845998 -0.00051506988 0.00015932669)
(0.007831053 0.01258723 0.00012634712)
(0.0057242704 0.017852895 -0.00015782981)
(-0.0024136552 0.019003303 -0.0023404818)
(-0.0042325509 0.016512651 -0.003574582)
(-0.00063102999 0.00543123 -0.0017782362)
(0.0050698684 0.017647364 -0.004017871)
(0.004682772 0.017662277 -0.0046027452)
(0.003496448 0.018756566 -0.0039286377)
(-0.0018828414 0.018135029 0.00038003935)
(-0.0045836167 0.015692154 0.0010465471)
(-0.003082358 0.0095533936 0.00094757099)
(-0.0019011158 0.0032718418 0.0016285478)
(-0.00138606 0.0073649005 0.0020707309)
(0.00080678061 0.00041970224 0.00077497984)
(0.0036992341 0.0021263393 0.00094392337)
(0.00550994 0.0027026255 0.0012453604)
(0.0073126557 0.011351185 0.0011642982)
(0.0064838615 0.018687311 0.0015142805)
(-0.0061068868 0.019950599 0.00047169634)
(-0.0029417883 0.006727653 3.9030992e-05)
(-0.00043607415 0.015080416 0.00082184479)
(0.00015033857 0.019150072 0.0026673288)
(0.0011198253 -0.011543953 0.00093517246)
(-0.00098263179 -0.008468732 0.0027610792)
(-0.0013173587 0.0015205178 0.00083245659)
(-0.0027359512 -0.0012176881 0.0014419778)
(0.0016049082 -0.010245013 0.0013865825)
(0.0051128054 -0.013633803 0.0010840815)
(0.0065214405 -0.014192552 0.00021856925)
(-0.0021256795 -0.01520462 -0.0017501575)
(-0.0047369684 -0.01360085 -0.0027115896)
(0.0022036824 0.0022411991 -4.1881641e-05)
(-0.0021379151 0.0055935779 -0.00087946407)
(0.0023248958 -0.0091973164 0.0021942898)
(-0.0014526611 -0.0166029 -0.00047834924)
(-0.0039142659 -0.015017081 0.00070814786)
(0.0027113515 0.00063365117 -0.0029779766)
(0.0014135895 0.0046524263 -0.0019014499)
(0.00072880641 0.0035422487 0.001265556)
(0.0035396605 -0.0071182635 -0.0018386177)
(0.0052220417 -0.014362135 -0.0022879561)
(0.001580738 -0.01541939 -0.0017893248)
(-0.00018600225 -0.013939246 0.0011652114)
(0.0015131516 -0.014881044 -0.0004657484)
(0.0007658686 -0.014140651 -0.0010087831)
(0.0020948539 -0.014837722 -0.0010475379)
(-0.0018338839 -0.016106627 -0.0036250243)
(0.0010814018 0.0065765907 0.00089443518)
(-0.0016639548 -0.001915973 0.0019580759)
(-0.0014335844 -0.015084825 3.9960533e-05)
(-0.004402829 -0.015399852 0.00021526019)
(0.0036645943 -0.018289277 0.00029676088)
(-0.001119879 0.011864436 0.0019265642)
(-0.00483071 0.0099229625 0.0018985315)
(-0.0045300905 0.0082979726 0.0017290823)
(-0.0034498452 0.0074319359 0.0012976805)
(0.00075537935 0.0029818139 -0.0010549508)
(-0.00062792532 0.0011461085 -0.0010559707)
(-0.00044033395 0.0072142959 -0.00087567674)
(-0.0025208093 0.010737477 -0.0010702811)
(-0.0039745504 0.0089375046 -0.0017232027)
(-0.0013304884 0.0075426221 0.00026958421)
(0.00013602088 0.0086736055 0.0025515246)
(0.0035719919 0.0049390795 0.0018302096)
(-0.00023549765 0.0093559679 6.339664e-05)
(-0.0029450574 0.0063142574 0.00030842014)
(-0.0009338379 0.0069876429 0.00081750411)
(0.00021777852 0.0096458698 0.0014070369)
(0.0018572427 0.0086158382 0.001799287)
(0.004879581 0.0089331719 -0.00041390171)
(0.0044416303 0.010087272 -0.00081797457)
(0.0027700843 0.0088532758 0.00068168264)
(0.0015418355 0.00073512221 -0.00044152647)
(0.002021163 -0.0051281647 -0.00045341614)
(0.00020017364 -0.0040970739 -0.0015045154)
(0.0035477682 0.0042021969 0.0010682625)
(-0.0019422021 0.0109901 -0.0037440296)
(0.00043752127 0.009901125 0.00058533935)
(0.0030990054 0.0096381225 0.002259301)
(0.0016157757 0.0045912582 -0.00027837601)
(-1.548031e-05 -0.0016777111 -0.0016549358)
(0.0023141128 0.012810537 -0.0044645495)
(0.00074638816 -0.0065832363 0.0014808513)
(-0.00013582522 -0.0045739066 0.0029073961)
(-0.00025498807 -0.00010856437 0.0024214106)
(0.00097598947 -0.0082237689 0.00067934856)
(-0.0020809958 -0.010149671 -0.0021012687)
(-0.0046034642 -0.0099654146 -0.0032801174)
(-0.0055513393 -0.010662132 -0.0033699882)
(-0.0042415279 -0.010834416 -0.0028542314)
(-0.0024604365 -0.0087906504 -0.0023489232)
(-0.00044552981 -0.00033012983 -0.0011060071)
(0.003770951 -0.0043343829 -0.00076329038)
(0.0017431212 -0.010180708 -0.0013305144)
(0.00021417461 -0.0093103486 0.0024784739)
(-0.0016778003 -0.011217384 0.00024471283)
(-0.0052423077 -0.0047883861 0.00051500215)
(-0.0019127193 0.0011947402 0.00088131966)
(0.00055664002 -0.0014359452 0.00074830418)
(0.002349985 -0.006386474 -0.0017229952)
(0.0040793029 -0.0084447744 -0.0020907248)
(0.0058662276 -0.0099055532 -0.0025672414)
(0.0057246999 -0.010461185 -0.0033065269)
(0.0024392162 -0.010291129 -0.0027072672)
(-0.0049839331 -0.0097830036 -0.0032703962)
(-0.005390697 -0.007890391 -0.0032951987)
(-0.0036358292 -0.0042175257 -0.0023663061)
(0.0013370014 0.0022772263 -0.00052787663)
(0.0043769602 -0.0018292924 -0.00024924052)
(0.0060580293 -0.0080386372 -0.00062880388)
(-0.00014142952 -0.011546812 -0.0018507877)
(-0.0035856693 -0.0081206433 -0.0022258743)
(-0.0020286259 -0.016941205 -0.0022751752)
(0.00020884451 -0.0096965249 -0.0011597802)
(0.0017146766 -0.011922729 -0.0027148967)
(-0.00069466036 -0.014804458 -0.001925152)
(-0.00065674009 -0.01555328 -0.0021423326)
(-0.0038390029 -0.012462058 -0.00095104801)
(-0.0025961144 -0.011505384 -0.00047214808)
(0.00052210891 -0.012544821 0.0019571683)
(0.00015367095 -0.016396259 0.00084972302)
(-0.0016910954 -0.01649579 0.00064213545)
(-0.0039477846 -0.01398394 -0.00052881993)
(-0.0033253495 -0.011839334 -0.0013077482)
(-0.0012549438 -0.012407387 -0.00038440514)
(0.00077060252 -0.012850973 -0.0024245096)
(0.0017618863 -0.013996647 -0.0019618383)
(0.0016516502 -0.016295347 -0.0029692435)
(0.00046708425 -0.016501196 -0.0023508599)
(-0.0015697381 -0.017304432 -0.0011093909)
(-0.0037459033 -0.014084673 0.0011564505)
(-0.0050571552 -0.013883438 0.002236809)
(-0.0040753891 -0.012406685 0.0021470759)
(-0.0018970566 -0.012794105 0.0014443834)
(0.0022238322 -0.012280331 0.0018421831)
(0.0024276721 -0.016602221 0.0016802735)
(0.0020053295 -0.018913339 0.00074416106)
(0.00098696285 -0.020773151 -0.00056821311)
(-0.00064692243 -0.019283429 -0.00088440864)
(0.0024268922 -0.011093726 0.00037439866)
(0.0042524097 -0.013722914 0.00019872049)
(1.2181046e-05 -0.016746802 0.00018167149)
(-0.0015652448 0.018299291 -0.0019974389)
(0.00063825119 4.0590769e-05 0.0014844723)
(0.0040238962 0.012865402 -0.0023400584)
(0.0027028312 0.016508742 -0.0025427703)
(-0.0011358746 0.017707836 -0.0020968858)
(-0.0047789151 0.015266452 -0.0019347645)
(0.0026656024 0.0032750837 0.00025839792)
(0.0032329908 0.0064786972 0.0013217752)
(0.0063551175 0.016802618 0.0011264927)
(-0.005204433 0.018455722 -0.00084909865)
(-0.0059819833 0.015178293 -0.0017421537)
(-0.0026265289 0.0048681568 -0.0002306589)
(-0.00024915059 0.0049556422 -0.0013765443)
(0.0029648808 0.0062507262 -0.002117408)
(0.0050515272 0.0094089723 -0.0027809596)
(0.0070484395 0.016329441 -0.0045907456)
(0.0060436879 0.01862305 -0.0039293595)
(0.00040003465 0.019173849 -0.00015011715)
(-0.0049304755 0.016647993 0.0042901036)
(-0.0056561056 0.01397533 0.0051335994)
(-0.0024236574 0.003653343 0.0023013471)
(0.00071399384 0.002551182 0.001707553)
(0.004753038 0.0028403319 0.0022375338)
(0.0083656645 0.015096391 0.0042431745)
(0.0076183112 0.019682474 0.0036242948)
(-0.0014975401 0.021736768 -0.0011806415)
(-0.0062577674 0.016933363 -0.0021572223)
(-0.0024808651 0.00054505146 0.00077261471)
(0.0035874733 0.016266876 0.0011983494)
(0.002377265 0.018838566 0.002501569)
(0.0044137852 -0.015469338 0.0026022162)
(-0.0012719569 -0.013732168 0.0042224207)
(-0.0045602158 -0.0099502544 0.0027854513)
(0.00060114723 -0.00030779818 -0.0007114206)
(0.00080298656 0.0037105216 -0.0010961863)
(0.0035048157 -0.0074957892 -0.0012958831)
(0.0049677894 -0.014071827 -0.0014653642)
(-0.0041893723 -0.014085142 -0.0030162882)
(0.0016671521 0.00047700138 -0.0011061101)
(-0.0032754131 0.0062840053 -0.00013008251)
(0.0038642791 -0.01188801 0.0044421839)
(0.0001691648 -0.014147413 0.0052745582)
(-0.00063123345 -0.013549056 0.00057465347)
(0.0007434555 -0.014077577 0.0010496025)
(0.0021634377 -0.015967857 0.001757568)
(-0.0027008987 -0.015412239 0.0048907591)
(0.0023598087 0.0045320418 -0.0019132124)
(0.00084131681 0.0062267719 -0.00096909996)
(0.00116933 0.00028257282 -0.00051289812)
(0.0035424313 -0.01374767 -0.0027113711)
(0.0010390867 -0.015515217 -0.00054744264)
(-0.00028763263 -0.014228759 -0.00084481775)
(0.00084228398 -0.014427654 -0.00062846301)
(-0.0017073195 -0.013988943 -0.0049495697)
(0.0036926523 0.004920097 0.0011043267)
(-0.0009454366 0.0098516562 -0.00025419983)
(0.0031719953 -0.011347997 0.0039678228)
(-0.0014095309 -0.015203459 0.002232)
(-0.005507923 -0.013757236 0.0047064798)
(0.0020126766 0.00070603155 0.0030125057)
(-0.0023521258 0.01228673 0.0025063768)
(-0.0048865867 0.0092260267 0.0023143414)
(-0.0053097716 0.006451965 0.0025033241)
(-0.0037046182 0.003854664 0.001728462)
(0.0027982488 0.0086797618 0.00025992939)
(0.0051346534 0.0091258438 0.002235138)
(0.0037950291 0.010258751 0.0021252845)
(-0.0030617068 0.0091656283 0.0017327674)
(-0.0014359831 0.0069961722 -0.0023954333)
(0.0002854342 0.0088764804 0.00039975253)
(0.0044123669 0.010254132 0.0048984722)
(-0.0013105515 0.0092230124 0.0041116733)
(0.0024447025 -0.0014821381 0.0015703762)
(-0.00082640012 -0.0022788742 0.00079074196)
(0.0029862988 0.0090874714 0.0036325505)
(-0.004611013 0.010975549 0.0039351937)
(-0.002185901 0.0078860543 0.0013681374)
(0.001350176 0.010075889 -0.00069925846)
(0.0040167549 0.0071168829 -0.0013808176)
(0.0050514665 0.0090915946 -0.0017373102)
(0.00068387027 0.0086424052 0.0024574325)
(0.0018930719 -0.0028356479 -0.00079892506)
(0.0013201865 -0.00044455992 -0.00043150039)
(-0.0017746866 0.010971019 -0.0041941707)
(-0.00074461153 0.0092667174 -0.0010293951)
(0.0021118787 0.011596574 0.0018413242)
(0.0050618178 0.012264232 0.0017890599)
(-0.00091796936 0.0061690604 0.00070033035)
(-0.0021793184 0.0041148169 0.00088191986)
(-0.00022779413 0.0079172512 -0.000145165)
(0.0012083839 -0.0024835535 0.0029728543)
(0.002538006 -0.00738631 0.0039338826)
(0.0021782286 -0.0085777624 0.0041737832)
(-0.0017014485 -0.0094735395 0.0010015866)
(-0.0035010423 -0.0076948449 -0.00078904668)
(-0.003698281 -0.0061920454 -0.002278457)
(-0.0029995732 -0.0044208919 -0.0024132384)
(-0.0029352822 -0.0052752786 -0.0025599673)
(-0.0018366167 -0.0016582062 -0.0031063812)
(0.00054722154 0.0022723404 -0.00052125419)
(0.0045267068 -0.0025332975 0.0012823646)
(0.0053749162 -0.00711952 2.4363019e-05)
(0.0052590542 -0.0098656537 0.0013066108)
(-0.0046283457 -0.0097939437 0.0014257784)
(-0.0064358968 -0.0069539015 0.0016366612)
(-0.0047410004 -0.0030732338 0.00161012)
(-0.002826481 -0.00045953292 0.00046778806)
(0.00097754317 0.0027162962 -0.00063678649)
(0.0035994381 -0.0012583933 -0.0021491743)
(0.0048715563 -0.0037182253 -0.0023134716)
(0.0058604717 -0.0083349336 -0.0034069625)
(0.0032531877 -0.01031485 -0.0032678111)
(-0.005531607 -0.0078036161 -0.0037701047)
(-0.0040598212 -0.003220032 -0.0034540989)
(-0.0024808537 0.0013325417 -0.0014711698)
(0.002163175 0.0042599135 0.0015046681)
(0.0055743655 0.0003198013 0.0015048919)
(0.0071047831 -0.0063031253 0.0014554526)
(0.0018822628 -0.011816021 -0.0012420616)
(-0.0022252466 -0.003453562 0.0003118741)
(-0.002228764 -0.01833648 -0.0017444564)
(-0.00050166821 -0.012101763 0.00021061467)
(0.0024790041 -0.010774829 -0.0020771819)
(0.00214476 -0.012558951 -0.0025289869)
(0.0011177523 -0.015340354 -0.0024307823)
(-0.0032364506 -0.01306263 -0.0017894552)
(-0.0016758614 -0.011024087 0.0004527499)
(0.00064131152 -0.016783326 0.002692306)
(-0.0019357326 -0.017723201 0.0014075379)
(-0.0040559265 -0.015790934 0.00035894793)
(-0.0051395188 -0.014170191 -0.00087179003)
(-0.0026224498 -0.013547048 -0.0011003966)
(-0.00070170829 -0.013716153 -0.00087166332)
(0.00040799945 -0.014711165 -0.0022496046)
(0.00037812667 -0.015418204 -0.001273134)
(0.0010701196 -0.013308058 -0.0016922183)
(0.0020315852 -0.01550067 -0.00182313)
(0.0004095838 -0.018303073 -0.00045661367)
(-0.0020785603 -0.017706339 0.0004146436)
(-0.0033284595 -0.015361652 0.0013110875)
(-0.0045678185 -0.013993754 0.0022200226)
(-0.0021421404 -0.011632118 0.0008446355)
(0.00069681393 -0.013381634 0.00140197)
(-0.0001165886 -0.02010982 0.0013606272)
(-0.0013535983 -0.020260278 -0.00063209332)
(-0.0013094619 -0.018760717 -0.00066237072)
(-0.001207719 -0.011877784 -0.00060311919)
(0.0027778985 -0.011313233 -0.0005724523)
(0.003911943 -0.014250067 -0.0014685236)
(0.00096588156 -0.015940371 -0.00098973877)
(-0.0044692626 0.01814733 0.0022454413)
(-0.00022265041 -0.00025024749 0.0014074564)
(0.00072811398 0.0028999258 -0.00076307021)
(0.0038680597 0.012787161 -0.0029211533)
(0.0022279918 0.016914305 -0.0035903287)
(-0.0018004477 0.015595781 -0.0026656169)
(0.0041465007 -9.3148791e-05 -0.00078911754)
(0.0069470111 0.014441354 0.0021047699)
(0.0036779426 0.019078619 0.0011367837)
(-0.0074533471 0.016908572 -0.0018772251)
(-0.006017764 0.0097913348 -0.0027468512)
(-0.0026301502 0.00015248209 -0.0019610079)
(0.00016563585 0.007189453 -0.0020426237)
(0.0017886441 0.0090010589 -0.0031000867)
(0.0029117473 0.01263534 -0.003460356)
(0.0030793434 0.00432013 -0.0021469851)
(0.0067346053 0.014589369 -0.0045714673)
(0.0058277058 0.019320533 -0.0035853398)
(-0.0020668361 0.01935469 0.0016511525)
(-0.0053329115 0.017630145 0.0036345779)
(-0.0044829452 0.014245375 0.0034903192)
(0.00095432295 -4.6755823e-06 0.00082662971)
(0.0038890085 0.01009491 0.00059428888)
(0.0042853421 0.020405157 0.00016959369)
(-0.0062318653 0.02070669 -0.0053281937)
(-0.0070271883 0.017003077 -0.0047912743)
(-0.0032031206 0.0025543829 -0.0012831031)
(-0.00043415629 0.00041825568 -0.00079987007)
(0.0047928278 0.014989516 -0.00067115829)
(0.0042378514 0.018151114 -0.00034753507)
(0.0035838238 -0.014345348 3.2040919e-05)
(-0.00065243229 -0.014219443 0.0011959938)
(-0.0045281485 -0.012817364 0.0029786596)
(-0.0027465317 -0.0131952 0.0029998448)
(0.0017575825 -0.0058787314 -0.00034083322)
(0.0051342375 -0.013387469 -0.0013812782)
(0.0036064099 -0.016125116 -0.0026855594)
(-0.0043798392 -0.01359305 -0.004282405)
(0.0027196051 0.0076836847 -0.00031803173)
(-0.003691812 0.0038836939 -0.0013058576)
(0.0050197005 -0.014959281 -0.0021180888)
(-0.0012658284 -0.015416533 -0.00088835038)
(-0.003200512 -0.01350942 -0.0010277334)
(-0.00096991928 -0.014153963 -0.00049761505)
(0.0028717851 -0.015120934 -0.0021223107)
(-0.0016451128 -0.016849106 0.0015298853)
(-0.0050476469 -0.014394495 0.0016521629)
(0.00016756198 0.0015254769 -0.0016465879)
(-0.00052329174 0.007763324 8.5174891e-05)
(-0.00079554613 0.0026583515 0.00038600048)
(0.0031205256 -0.014798793 -0.0047437525)
(0.00084687682 -0.015116616 -0.0018091917)
(-0.0034785898 -0.013426367 -0.0037618598)
(0.0025766296 0.0066244982 -0.0012310697)
(-0.003835804 0.0073525071 -0.0034220177)
(0.0042894489 -0.015844505 0.0030154615)
(0.00014458624 -0.014776121 0.0023088876)
(-0.0020189317 -0.014360215 0.0012135267)
(-0.0051436897 -0.015569696 0.0038032813)
(0.0021813872 0.0035669853 0.0006366521)
(0.00061406663 0.01330494 -0.00085420764)
(-0.0027946349 0.0093149208 0.00039641618)
(-0.0012947274 0.00052775215 0.0028335103)
(-0.0019293193 -0.0014052662 0.0026510296)
(0.000874156 0.0042404967 0.0018328077)
(0.0027289086 0.010966347 -5.6851709e-05)
(0.0015063515 0.010724979 0.001315621)
(-0.0039443376 0.011026271 -0.0013207366)
(-0.00026702884 0.009676554 -0.00029500738)
(0.0006392511 0.0077149845 -0.0001366131)
(0.0047968002 0.0097828532 -0.00090055331)
(-0.00037207944 0.011557534 -0.0012766862)
(0.00090070376 0.0032115301 -0.0011323459)
(-0.00017870232 -0.004185336 -0.00093535142)
(0.0015294004 0.0080433221 -0.0011745092)
(-0.0026521183 0.012334245 0.00036486799)
(-0.0053410596 0.010176706 0.0016916762)
(-0.0037216871 0.0083103383 0.00033706043)
(-0.00072804089 0.011223934 -0.00052793587)
(0.0026261005 0.0077469332 -0.0019452184)
(0.0023030341 0.0092107978 -0.0022726908)
(0.0011389073 0.00089802702 -0.00081349336)
(-0.0021575297 0.0049450664 -2.526255e-05)
(0.00018450925 0.0095081611 -0.0029945581)
(0.001219917 0.010090491 -0.00078171415)
(0.0054313875 0.012085599 0.0030395869)
(-0.004031955 0.0068172472 -0.00064672735)
(-0.00032858567 -0.00038225036 0.00096330494)
(-0.0047320932 0.010658995 -5.7806999e-05)
(-0.00096915411 0.008431339 0.00054583338)
(0.001476899 -0.0065539806 0.0051936678)
(0.0031020844 -0.008720247 0.0048999161)
(0.0032799304 -0.0099960852 0.0047251148)
(-0.0022679232 -0.010592364 0.0017510158)
(-0.0058275165 -0.0082326952 0.00046806474)
(-0.0053094693 -0.0052164155 0.00025636032)
(-0.0033899828 -0.0028382894 0.00030612637)
(-0.0030791862 -0.0032630775 -0.0006210646)
(-7.6872518e-05 0.0029427826 -0.00097395165)
(0.0019980274 0.00051582817 0.00065774739)
(0.0037742651 -0.0057310295 0.00013250175)
(0.0040993559 -0.0049321519 0.00012171183)
(0.006289704 -0.0091575598 0.0013744578)
(-0.0017324966 -0.010475923 0.0017328149)
(-0.0071399212 -0.0085421423 0.0032103472)
(-0.0049700462 -0.0043157026 0.0021671135)
(-0.0040879163 -0.0048372528 0.0015868513)
(-0.003437052 -7.5412072e-06 0.0011323714)
(2.1494858e-05 0.0050553401 -0.0004495374)
(0.003272708 0.0016472398 -0.0012725971)
(0.0037718448 -0.0060101943 -0.0012832878)
(0.0012294565 -0.008871536 -0.0027003751)
(-0.0037260006 -0.0069505744 -0.003265102)
(-0.0021685944 0.0012811028 -0.0018866782)
(0.00098077963 0.0031387595 0.00060412378)
(0.0047028148 -2.8995152e-05 0.0040007317)
(0.006487334 -0.0055308748 0.0048555381)
(0.0032812532 -0.010446717 0.003985491)
(-0.0042750312 -0.011462757 0.0016605723)
(-0.00068840627 -0.00092039456 0.001487995)
(-0.0020203442 -0.015990581 0.00063505041)
(-0.0018162276 -0.011617763 0.0020529557)
(0.00010925339 -0.012379001 -0.00046613249)
(0.0021544266 -0.011472824 -0.00025519203)
(0.0022038515 -0.011396798 0.00023095958)
(0.0023874073 -0.011964084 -0.00086944908)
(0.0010169102 -0.014832194 0.0016298046)
(-4.8091934e-05 -0.016509152 0.0030476561)
(-0.0024794531 -0.01701376 0.0020058883)
(-0.0044267652 -0.015636982 0.0010451561)
(-0.0054565624 -0.015113045 0.0013821832)
(-0.0047303321 -0.012150787 0.0021516584)
(-0.0038269206 -0.012154126 0.0012088192)
(-0.00093831689 -0.013216836 -0.00057096992)
(0.0014573751 -0.01352929 -9.7241415e-05)
(0.0010119906 -0.015775176 0.00021035138)
(0.0022532361 -0.012634287 -0.0015014887)
(0.0024355182 -0.015421172 -0.00016872383)
(-0.001322452 -0.017497186 0.00091724612)
(-0.0015829883 -0.016715587 -0.0016927529)
(-0.0037657957 -0.014112816 -0.00052861561)
(-0.0028354266 -0.013031101 0.0014640995)
(-0.0020532911 -0.021336447 0.0013081278)
(-0.0037882845 -0.01799851 0.00049945669)
(-0.0038087161 -0.015018899 -0.00095615109)
(-0.0021682914 -0.013698575 -0.00108422)
(-0.0015885952 -0.013374326 0.00011163336)
(0.0018072194 -0.012771372 0.0009729553)
(0.0037014637 -0.012652389 0.00048887865)
(0.0021487695 -0.015751766 0.00022498843)
(-0.0039845039 0.016716338 0.0042258052)
(-0.0012703942 0.0049341446 0.0032224715)
(-0.00018145237 0.0016914612 0.0014712859)
(0.0029275177 0.0030376412 0.0012773929)
(0.0036759287 0.005435123 0.0012376453)
(0.0048838898 0.0087893558 0.00044806965)
(0.0063915697 0.015262848 0.0016461284)
(0.0064231725 0.017996314 0.0021645028)
(0.00038551965 0.018705717 -2.5184619e-05)
(-0.0065700079 0.016998135 -0.0022142536)
(-0.0062321701 0.013130327 -0.001752892)
(-0.0040083232 0.0031999844 -0.00037239353)
(-0.0026204978 0.00035456742 -0.00032447899)
(0.00012231043 -0.00014463899 -0.0002508217)
(0.0016283749 0.0082825492 0.0011131863)
(0.0039136838 0.011276141 -0.00034662135)
(0.0031658941 0.0054723881 -0.0027524388)
(0.006348518 0.016204483 -0.0029428104)
(0.0028524026 0.019082955 -0.0021382663)
(-0.0017391233 0.017966274 -0.0039257733)
(-0.0023682684 0.016375374 -0.0013663258)
(0.0017342595 0.0058283615 0.0021489561)
(0.0036561433 0.020779465 0.0028717287)
(-0.0061142381 0.01879693 -0.0041895737)
(-0.005584096 0.010771142 -0.0040150535)
(-0.0045706072 0.0076291253 -0.0038424598)
(-0.0022827418 0.0062609903 -0.00074315072)
(0.00075342021 -0.0010512349 0.0015647667)
(0.0031630253 0.0075030637 0.0016202069)
(0.0043943406 0.017057888 0.0011323298)
(0.0011692861 -0.0058741087 0.0013819265)
(0.0043225571 -0.012444018 -0.00053237346)
(0.00072665429 -0.013122774 0.002025796)
(6.2985925e-05 -0.013203711 0.0015359844)
(0.00064216706 -0.013075253 -0.00082870572)
(0.0016776719 -0.013344239 -0.0039228856)
(0.00030408554 -0.015073236 -0.0050807122)
(0.0020539306 0.00068110712 -0.0002903016)
(0.0013520157 0.0069029763 -8.8796884e-05)
(-0.00026657625 0.00075803777 -0.00095598475)
(0.0041564963 -0.015033512 -0.0029893337)
(-0.0016644154 -0.014957719 -0.0036866289)
(-0.0013519787 -0.013952245 -0.0014907084)
(-0.0013149575 -0.014556158 0.0011871665)
(-0.0011700809 -0.013623901 0.0026647762)
(0.0035457925 -0.015676019 0.00010219643)
(-0.0031641814 -0.016186112 -0.0015700832)
(-0.0042928606 -0.012471456 -0.003215454)
(0.00079395111 0.0030462232 -0.0012178657)
(-0.0014280779 -0.00092666924 -0.0030728085)
(0.00419279 -0.01003375 -0.00020993141)
(0.0015444256 -0.014343083 -0.0010992206)
(0.00073419503 -0.0066384953 -0.00062243196)
(-0.00062535354 0.0050077074 -0.0027615035)
(0.00016880287 -0.016203413 0.00093641986)
(-0.0037042068 -0.014323864 -0.0020089721)
(-8.0571806e-05 -0.013654185 0.00088373724)
(-0.00090560765 -0.014865585 0.0019971794)
(-0.0033542124 -0.014508276 0.0019497954)
(0.0011368059 -0.0033436225 0.0011768685)
(0.0012212255 0.0041172045 -0.0011926183)
(0.0019527534 0.0042790099 0.00079255858)
(0.0013691175 0.0050504558 0.0014750652)
(0.0012987775 0.0010089112 0.00060520961)
(0.00015996348 -0.0011195192 -0.0024313787)
(0.001918671 0.0048829307 -0.0041154968)
(-0.0014594931 0.010919742 -0.0036917022)
(-0.0021513367 0.0077874974 -0.0027970686)
(0.00088857521 0.010727656 0.00059098037)
(0.0029372055 0.0074319485 0.00093259162)
(0.0036492436 0.011062508 -0.0012846787)
(-0.0022908336 0.0091287339 -0.00087555804)
(0.0013898631 -0.0051724446 0.00014622781)
(-0.0010196968 -0.0052621598 0.00028903119)
(-0.0007815429 -0.0023073387 0.0026264312)
(0.00095305096 0.010257645 0.00016310666)
(-0.0025198989 0.011098264 -0.0030022134)
(-0.0045741046 0.0094643314 -0.0021746267)
(-0.0023023745 0.0080948271 -0.00059933194)
(0.0007283025 0.0070111681 -0.0018615886)
(0.0033355973 0.0024135647 -0.0006252236)
(0.0036894822 0.005041099 0.00031952919)
(0.00067955634 0.010760152 -0.0017681062)
(0.0013029265 0.0093371994 0.00091721744)
(0.0024188731 0.010181442 0.00074463457)
(-0.0035918373 0.0046272772 -0.0029386775)
(-0.00064384881 -0.0021328171 0.0011592044)
(-0.0013028182 -0.0042743457 0.0019389124)
(-0.0016377754 0.00327177 0.0011058101)
(-0.0010808845 0.0080519151 0.0010032646)
(0.00068544949 -0.0096220761 0.0020227204)
(0.0012611285 -0.01056405 0.0012703662)
(0.0021167916 -0.0098352388 -0.0011868595)
(0.0019873358 -0.009192669 -0.0028883135)
(-0.0024336872 -0.0093550437 -0.0018124765)
(-0.0058735953 -0.0076165649 0.00026540099)
(-0.0042343911 -0.0034731653 0.00066113557)
(-0.0033047267 -0.0013814911 0.0011689472)
(0.00018996399 0.0037893646 0.0020649256)
(0.0030844761 -0.001854429 0.0031315157)
(0.0044998661 -0.0079601854 0.0020897591)
(0.0067485424 -0.010890925 0.0016755255)
(0.0056379235 -0.011306898 0.00081108116)
(-0.0021716861 -0.010137012 0.0024048249)
(-0.006644332 -0.010630606 0.0043994981)
(-0.0068988472 -0.010993399 0.0036236833)
(-0.0046158753 -0.0098091679 0.0029473609)
(-0.0030796229 -0.0063989829 0.0034675538)
(-0.0011417077 -0.0005763732 0.0038255122)
(0.0032107398 -0.0060327679 0.004201733)
(-0.00018709033 -0.011110872 0.00054359121)
(-0.0036597134 -0.0065044849 -0.0030868914)
(-0.0012971195 0.00011651839 -0.0024567664)
(0.0015244542 0.0013772648 0.00051273713)
(0.0040450761 -0.0022702932 0.0026437354)
(0.0054298284 -0.005582395 0.0043562547)
(0.0052609166 -0.0089434492 0.0046453976)
(0.00058678464 -0.011021557 0.0032567148)
(-0.0038115951 -0.0097697509 0.0015151165)
(-0.001940689 -0.0034188639 0.001050132)
(-0.00098126534 -0.015974003 0.0011896562)
(-0.0028249836 -0.014502416 0.0021413326)
(1.3694997e-05 -0.011582309 0.0014003483)
(0.002890403 -0.016550951 0.0012974673)
(0.0016941584 -0.015742426 0.0017388467)
(0.00020523692 -0.015426271 0.0012630066)
(-0.0013085261 -0.01610817 0.0023945423)
(-0.0009304395 -0.016201201 0.0035120081)
(-0.0025824818 -0.014407101 0.0026102858)
(-0.0026961737 -0.010625601 0.0011126717)
(0.0010153731 -0.011639025 0.0006874272)
(0.0021120136 -0.015774453 0.0032631768)
(-0.00086933305 -0.014336414 0.0045400155)
(-0.00089796766 -0.016276152 0.0014569365)
(-0.0038716168 -0.013747587 0.0010882858)
(-0.0022459595 -0.011299871 -0.00089615911)
(0.00026392941 -0.012138855 -0.00038940419)
(-0.00077685731 -0.019718788 0.0025255757)
(-0.0023063794 -0.019993779 0.001487028)
(-0.0041634646 -0.017283185 0.00018918323)
(-0.0037320696 -0.012794812 -0.00058821178)
(-0.0019673438 -0.013138131 -0.00067208504)
(-0.00018251712 -0.013413508 -0.00068609782)
(0.0030437113 -0.012522658 0.0023981561)
(0.0039451521 -0.01513212 0.0024104353)
(0.0018766647 -0.016358337 0.0019392419)
(-0.0038158859 0.017517481 0.0042848557)
(-0.0047013783 0.014126938 0.0044620907)
(-0.00073179289 -0.00021102123 0.00069898318)
(0.0052739744 0.016277864 0.0014940199)
(0.0046341227 0.01763137 0.0012632091)
(0.0031699027 0.017104253 0.00023441739)
(0.0025934607 0.018055032 -2.1476871e-05)
(0.00088590227 0.018374222 -0.0010291797)
(-0.0030704148 0.016379866 -0.00081328973)
(-0.00098086899 0.0058543006 -0.0020241892)
(0.00024417455 0.0015707899 -0.0022508958)
(0.00139071 0.017015127 0.0036052062)
(-0.0024429552 0.015498331 0.0037311493)
(-0.0005315631 0.018044109 -0.00090767264)
(-0.0035612073 0.014575601 -0.0022665296)
(0.0017243641 -0.00073877861 -9.4365068e-05)
(0.0026421574 0.0033178854 0.00047607612)
(0.0059074458 0.018339525 0.0018751805)
(-0.0043688621 0.021232923 -0.00011148506)
(-0.0072484429 0.016678416 -0.0032483043)
(-0.0047194812 0.0053249347 -0.0023044777)
(-0.0024961669 0.0037834281 -0.0013935863)
(-0.00042158753 0.0039002431 -0.00054558789)
(0.0028181205 0.0025065563 0.0027057595)
(0.0056313865 0.014535419 0.0036265532)
(0.0050508064 0.018295543 0.0029394197)
(-0.0015825366 0.0024949093 0.0015472137)
(0.0049809796 -0.01209019 -0.0024133855)
(4.0552485e-05 -0.015230515 -0.0019668506)
(-0.0046317985 -0.015480146 -0.00099408854)
(0.0016472908 -7.6470095e-05 -0.001059931)
(0.0011027471 -0.0065155402 -0.00091986798)
(0.0037652851 -0.0030628127 -0.0008315997)
(0.0017846213 0.0029097708 -0.00027045507)
(0.001875826 -0.0050458626 0.00096891416)
(0.0035657237 -0.012868465 -0.00028799424)
(0.0006466224 -0.014037597 -0.0027744546)
(-0.0034353061 -0.01127609 -0.0036752063)
(-0.0010426482 -0.012886023 -0.0029635945)
(0.00062796429 -0.0084741703 -0.0022288061)
(0.0041936995 -0.015015967 0.00036191597)
(0.0041138539 -0.014667447 0.0012363079)
(-0.0019909868 -0.014815734 0.00026813148)
(-0.0014431786 -0.0032640982 0.00012056363)
(-0.0020778841 0.0079203436 0.0021443776)
(0.00042067019 -0.016922979 0.0020969319)
(-0.0023627111 -0.014438512 -0.0025069622)
(-0.00075371442 -0.01410135 -0.00059876156)
(-0.0013498475 -0.014570782 0.00024877894)
(-0.00042028281 -0.014787478 0.00090420877)
(-0.0048906246 -0.015196133 -0.00041741976)
(0.0020221091 0.0022477055 0.00078352385)
(0.0020537218 0.0078343447 0.0008740156)
(0.0049001203 0.009617276 0.00070170423)
(0.0043282104 0.010051975 0.0025738601)
(-0.0033544518 0.010352554 0.002957108)
(-0.0018842939 0.0057251031 0.00033004387)
(-0.00025561132 0.0033813854 -0.0011128043)
(0.0011958906 0.0063758955 -0.0017154435)
(0.0021233552 0.0083666293 0.001382227)
(0.003571495 0.0088163237 0.0018846205)
(0.003725945 0.0043966657 0.0028939547)
(0.0035807888 0.0054970557 0.0018582748)