/*--------------------------------*- C++ -*----------------------------------*\
| =========                 |                                                 |
| \\      /  F ield         | OpenFOAM: The Open Source CFD Toolbox           |
|  \\    /   O peration     | Version:  v2012                                 |
|   \\  /    A nd           | Website:  www.openfoam.com                      |
|    \\/     M anipulation  |                                                 |
\*---------------------------------------------------------------------------*/
FoamFile
{
    version     2.0;
    format      ascii;
    class       volScalarField;
    location    "260/rightSolid";
    object      T;
}
// * * * * * * * * * * * * * * * * * * * * * * * * * * * * * * * * * * * * * //

dimensions      [0 0 0 1 0 0 0];


internalField   nonuniform List<scalar> 
130
(
718.28325
725.50395
732.99802
740.3785
747.35833
753.73905
759.39648
764.27466
768.35172
771.62961
774.0947
775.74256
776.56922
713.06777
721.48039
730.01807
738.23587
745.84953
752.69546
758.67602
763.7701
767.98515
771.34545
773.86553
775.54619
776.39097
702.56187
713.72477
724.50306
734.4024
743.21992
750.90174
757.45406
762.92788
767.38424
770.8833
773.47937
775.20674
776.07044
686.76697
703.1749
717.594
729.89705
740.2737
748.9557
756.15191
762.03114
766.74541
770.40491
773.09411
774.86742
775.75002
667.92903
693.00248
711.78047
726.425
738.11153
747.55196
755.20255
761.36257
766.25585
770.02758
772.78153
774.58823
775.4816
667.71462
692.76011
711.53758
726.19365
737.87673
747.31382
754.96821
761.14612
766.05736
769.83963
772.60206
774.4217
775.32015
686.21034
702.51612
716.90424
729.20878
739.57232
748.24343
755.44578
761.36094
766.12537
769.81498
772.53102
774.33981
775.23191
701.90806
712.90077
723.53934
733.33557
742.08849
749.74961
756.31312
761.82739
766.34417
769.89092
772.52635
774.29241
775.16702
712.36048
720.55517
728.89375
736.94988
744.44715
751.22615
757.20927
762.34681
766.61875
770.01905
772.56562
774.27105
775.12597
717.55372
724.53446
731.80541
739.00178
745.84555
752.14389
757.77802
762.67732
766.80059
770.11278
772.60674
774.27992
775.12214
)
;

boundaryField
{
    maxX
    {
        type            zeroGradient;
    }
    minZ
    {
        type            zeroGradient;
    }
    maxZ
    {
        type            zeroGradient;
    }
    rightSolid_to_bottomWater
    {
        type            compressible::turbulentTemperatureCoupledBaffleMixed;
        refValue        nonuniform List<scalar> 
130
(
959.21676
963.48987
965.65519
967.12844
968.64124
969.81414
969.34137
969.14952
969.09639
971.74139
973.28877
974.46641
974.95037
956.70218
961.41042
964.07884
966.20688
967.97875
971.14287
970.90991
970.30299
969.57398
970.75436
973.2933
974.52679
976.18888
955.53158
959.67254
961.70265
963.70688
965.95961
969.28481
970.08073
970.77589
970.5231
969.21085
968.80728
970.6556
971.41646
952.82957
961.41901
962.38885
962.8947
965.323
967.76531
969.71349
968.69531
967.9846
966.93421
966.41999
966.60828
966.96152
937.58271
953.77659
957.05609
962.55165
965.62758
966.97146
967.81386
965.76772
965.20916
964.56258
963.78202
963.78107
963.09773
929.47511
947.56183
953.89456
963.4047
965.0195
965.49571
965.767
965.9925
966.40155
965.27057
963.67562
965.06349
964.57301
936.45596
942.58976
950.88529
959.83937
961.98962
962.57578
962.94897
963.83833
967.3504
964.67427
962.86456
967.36403
967.00766
950.47298
950.3651
950.06956
949.84048
951.12062
956.802
958.77923
960.28076
963.41518
962.23196
961.56567
966.21199
965.46895
953.21699
952.45995
951.94276
951.62935
951.19271
950.60462
953.61428
956.33457
958.33813
958.27216
958.38686
959.78761
960.64568
956.29779
954.55412
953.52065
953.05922
952.75076
952.00468
951.34252
951.49849
953.81084
954.77716
955.69367
957.17956
958.61592
)
;
        refGradient     uniform 0;
        valueFraction   nonuniform List<scalar> 
130
(
0.0075140686
0.0075140686
0.0075140686
0.0075140686
0.0075140686
0.0075140686
0.0075140686
0.0075140686
0.0075140686
0.0075140686
0.0075140686
0.0075140686
0.0075140686
0.0075140686
0.0075140686
0.0075140686
0.0075140686
0.0075140686
0.0075140686
0.0075140686
0.0075140686
0.0075140686
0.0075140686
0.0075140686
0.0075140686
0.0075140686
0.0075140686
0.0075140686
0.0075140686
0.0075140686
0.0075140686
0.0075140686
0.0075140686
0.0075140686
0.0075140686
0.0075140686
0.0075140686
0.0075140686
0.0075140686
0.0075140686
0.0075140686
0.0075140686
0.0075140686
0.0075140686
0.0075140686
0.0075140686
0.0075140686
0.0075140686
0.0075140686
0.0075140686
0.0075140686
0.0075140686
0.0075140686
0.0075140686
0.0075140686
0.0075140686
0.0075140686
0.0075140686
0.0075140686
0.0075140686
0.0075140686
0.0075140686
0.0075140686
0.0075140686
0.0075140686
0.0075140686
0.0075140686
0.0075140686
0.0075140686
0.0075140686
0.0075140686
0.0075140686
0.0075140686
0.0075140686
0.0075140686
0.0075140686
0.0075140686
0.0075140686
0.0075140686
0.0075140686
0.0075140686
0.0075140686
0.0075140686
0.0075140686
0.0075140686
0.0075140686
0.0075140686
0.0075140686
0.0075140686
0.0075140686
0.0075140686
0.0075140686
0.0075140686
0.0075140686
0.0075140686
0.0075140686
0.0075140686
0.0075140686
0.0075140686
0.0075140686
0.0075140686
0.0075140686
0.0075140686
0.0075140686
0.0075140686
0.0075140686
0.0075140686
0.0075140686
0.0075140686
0.0075140686
0.0075140686
0.0075140686
0.0075140686
0.0075140686
0.0075140686
0.0075140686
0.0075140686
0.0075140686
0.0075140686
0.0075140686
0.0075140686
0.0075140686
0.0075140686
0.0075140686
0.0075140686
0.0075140686
0.0075140686
0.0075140686
0.0075140686
0.0075140686
)
;
        value           nonuniform List<scalar> 
130
(
720.08878
727.28722
734.74116
742.07715
749.01577
755.35721
760.96846
765.80843
769.85436
773.1274
775.58554
777.22982
778.05391
714.89372
723.27836
731.77183
739.94374
747.51335
754.33147
760.26522
765.31636
769.49416
772.83798
775.35814
777.0354
777.8863
704.45817
715.56812
726.28051
736.12036
744.88838
752.53729
759.04625
764.48405
768.90493
772.36776
774.94122
776.66946
777.53237
688.76196
705.11087
719.42865
731.64285
741.95959
750.59452
757.75115
763.57844
768.25185
771.87589
774.54097
776.30234
777.18095
669.95133
694.95762
713.61882
728.19438
739.816
749.19542
756.7947
762.89294
767.74517
771.48363
774.21097
776.00405
776.88554
669.6776
694.6704
713.35401
727.97118
739.57841
748.94801
756.54678
762.67983
767.55715
771.30243
774.03209
775.84844
776.73641
688.08655
704.3156
718.65765
730.93682
741.23849
749.8487
756.9996
762.87689
767.63182
771.27354
773.95555
775.78452
776.66717
703.77144
714.68054
725.23676
734.95749
743.65412
751.3002
757.82912
763.31314
767.81946
771.33062
773.94122
775.72892
776.59135
714.16579
722.29308
730.56498
738.55808
745.99562
752.71914
758.6798
763.79909
768.05392
771.42814
773.95641
775.65955
776.51448
719.34305
726.25814
733.46659
740.60531
747.39522
753.64054
759.22726
764.09085
768.20045
771.49497
773.97706
775.64881
776.49548
)
;
        Tnbr            T;
        thicknessLayers List<scalar> 0();
        kappaLayers     List<scalar> 0();
        kappaMethod     solidThermo;
        kappa           none;
        alphaAni        none;
        alpha           none;
        field           T;
    }
    rightSolid_to_topAir
    {
        type            compressible::turbulentTemperatureCoupledBaffleMixed;
        refValue        nonuniform List<scalar> 
130
(
474.17466
469.41643
464.9491
461.1129
458.04234
455.75849
454.24764
453.50695
453.56883
454.53817
456.67101
460.53017
466.8768
429.97892
424.99575
421.5321
419.21848
417.68985
416.72562
416.2718
416.38287
417.16739
418.8251
421.81538
427.18013
435.81001
434.50932
425.33387
417.70505
411.66397
407.04321
403.70103
401.60547
400.77736
401.20464
402.84226
405.80483
411.10765
422.53776
475.96554
476.53233
476.96931
476.75037
475.64036
473.6314
470.94355
467.90647
465.16707
464.32765
467.8963
475.07514
484.79505
478.25269
482.77397
487.50373
492.20197
496.63266
500.56096
503.77792
506.15988
507.80215
509.19551
511.34204
515.55809
523.68848
478.50878
482.93228
487.57387
492.17311
496.4783
500.25813
503.32996
505.61293
507.19323
508.51832
510.59672
514.76091
522.84793
475.4684
476.40724
476.94445
476.57336
475.15309
472.87944
470.14674
467.30965
464.74265
463.79102
467.18054
474.18569
483.73646
433.55524
424.69043
417.23578
411.24693
406.63954
403.36939
401.45635
400.90112
401.61037
403.48009
406.62207
412.06374
423.58858
428.9435
424.01945
420.62281
418.34252
416.81493
415.8544
415.44615
415.66021
416.59556
418.42103
421.56861
427.07802
435.79282
473.66934
468.85021
464.33979
460.46508
457.35656
455.04357
453.52708
452.8135
452.93258
453.9742
456.17674
460.08816
466.44741
)
;
        refGradient     uniform 0;
        valueFraction   nonuniform List<scalar> 
130
(
0.00032132529
0.00032132529
0.00032132529
0.00032132529
0.00032132529
0.00032132529
0.00032132529
0.00032132529
0.00032132529
0.00032132529
0.00032132529
0.00032132529
0.00032132529
0.00032132529
0.00032132529
0.00032132529
0.00032132529
0.00032132529
0.00032132529
0.00032132529
0.00032132529
0.00032132529
0.00032132529
0.00032132529
0.00032132529
0.00032132529
0.00032132529
0.00032132529
0.00032132529
0.00032132529
0.00032132529
0.00032132529
0.00032132529
0.00032132529
0.00032132529
0.00032132529
0.00032132529
0.00032132529
0.00032132529
0.00032132529
0.00032132529
0.00032132529
0.00032132529
0.00032132529
0.00032132529
0.00032132529
0.00032132529
0.00032132529
0.00032132529
0.00032132529
0.00032132529
0.00032132529
0.00032132529
0.00032132529
0.00032132529
0.00032132529
0.00032132529
0.00032132529
0.00032132529
0.00032132529
0.00032132529
0.00032132529
0.00032132529
0.00032132529
0.00032132529
0.00032132529
0.00032132529
0.00032132529
0.00032132529
0.00032132529
0.00032132529
0.00032132529
0.00032132529
0.00032132529
0.00032132529
0.00032132529
0.00032132529
0.00032132529
0.00032132529
0.00032132529
0.00032132529
0.00032132529
0.00032132529
0.00032132529
0.00032132529
0.00032132529
0.00032132529
0.00032132529
0.00032132529
0.00032132529
0.00032132529
0.00032132529
0.00032132529
0.00032132529
0.00032132529
0.00032132529
0.00032132529
0.00032132529
0.00032132529
0.00032132529
0.00032132529
0.00032132529
0.00032132529
0.00032132529
0.00032132529
0.00032132529
0.00032132529
0.00032132529
0.00032132529
0.00032132529
0.00032132529
0.00032132529
0.00032132529
0.00032132529
0.00032132529
0.00032132529
0.00032132529
0.00032132529
0.00032132529
0.00032132529
0.00032132529
0.00032132529
0.00032132529
0.00032132529
0.00032132529
0.00032132529
0.00032132529
0.00032132529
0.00032132529
0.00032132529
)
;
        value           nonuniform List<scalar> 
130
(
718.19991
725.41665
732.90679
740.28356
747.26004
753.63782
759.29283
764.16909
768.24476
771.52182
773.98674
775.63527
776.4637
712.97204
721.38021
729.91392
738.12821
745.73877
752.58205
758.56042
763.65279
767.86664
771.2263
773.74646
775.42827
776.27553
702.47118
713.62735
724.39956
734.29361
743.10664
750.78475
757.33417
762.80586
767.26083
770.75921
773.35533
775.08381
775.95088
686.69498
703.09755
717.51189
729.81072
740.18349
748.86186
756.05475
761.931
766.64278
770.30077
772.9902
774.76521
775.65064
667.86415
692.93056
711.70371
726.34481
738.0288
747.46728
755.1163
761.27499
766.16713
769.93803
772.69173
774.49917
775.39483
667.64989
692.68835
711.46092
726.11353
737.79404
747.22915
754.88192
761.05845
765.96853
769.74994
772.51212
774.33247
775.23319
686.13844
702.43898
716.82236
729.12264
739.48223
748.14967
755.34869
761.26093
766.02292
769.71098
772.42721
774.23763
775.13245
701.81745
712.80358
723.43614
733.22713
741.97561
749.63306
756.19372
761.70593
766.22141
769.76758
772.40315
774.17039
775.04839
712.26488
720.45521
728.78988
736.84255
744.3368
751.11319
757.09415
762.23002
766.50082
769.90057
772.44731
774.15396
775.0114
717.47072
724.44757
731.71463
738.90733
745.74779
752.04327
757.67501
762.57243
766.69435
770.00577
772.49961
774.17349
775.01747
)
;
        Tnbr            T;
        thicknessLayers List<scalar> 0();
        kappaLayers     List<scalar> 0();
        kappaMethod     solidThermo;
        kappa           none;
        alphaAni        none;
        alpha           none;
        field           T;
    }
    rightSolid_to_heater
    {
        type            compressible::turbulentTemperatureCoupledBaffleMixed;
        refValue        nonuniform List<scalar> 10(711.81092 705.40475 692.00756 669.75521 632.52044 632.37706 669.34582 691.51963 704.89133 711.29038);
        refGradient     uniform 0;
        valueFraction   nonuniform List<scalar> 10(0.50000003 0.50000003 0.50000003 0.50000003 0.50000003 0.50000003 0.50000003 0.50000003 0.50000003 0.50000003);
        value           nonuniform List<scalar> 10(715.04464 709.23388 697.28243 678.25896 650.22277 650.04387 677.77599 696.71165 708.62364 714.41973);
        Tnbr            T;
        thicknessLayers List<scalar> 0();
        kappaLayers     List<scalar> 0();
        kappaMethod     solidThermo;
        kappa           none;
        alphaAni        none;
        alpha           none;
        field           T;
    }
}


// ************************************************************************* //
