/*--------------------------------*- C++ -*----------------------------------*\
| =========                 |                                                 |
| \\      /  F ield         | OpenFOAM: The Open Source CFD Toolbox           |
|  \\    /   O peration     | Version:  v2012                                 |
|   \\  /    A nd           | Website:  www.openfoam.com                      |
|    \\/     M anipulation  |                                                 |
\*---------------------------------------------------------------------------*/
FoamFile
{
    version     2.0;
    format      ascii;
    class       volScalarField;
    location    "760/topAir";
    object      rho;
}
// * * * * * * * * * * * * * * * * * * * * * * * * * * * * * * * * * * * * * //

dimensions      [1 -3 0 0 0 0 0];


internalField   nonuniform List<scalar> 
1200
(
1.0676038
0.99531927
0.93784701
0.89033735
0.84970776
0.81416305
0.78272793
0.75507321
0.73111769
0.71041728
0.69274492
0.6780825
0.66683552
0.66790443
0.67232539
0.68002958
0.6901088
0.70120419
0.71203257
0.72169362
0.72969594
0.73584903
0.74013415
0.74261221
0.74337761
0.74250107
0.73995648
0.73550629
0.72847109
0.71786851
1.1564986
1.1525174
1.1471151
1.1405649
1.1330686
1.1247892
1.1158721
1.1054915
1.0915933
1.0734964
1.0487718
1.0169217
0.97882025
0.94110237
0.90724882
0.87940961
0.85796395
0.84256432
0.8326531
0.82743736
0.82566723
0.82589332
0.8267941
0.82733022
0.82672862
0.82432022
0.81933644
0.81064378
0.79623453
0.77502148
1.1585729
1.1584394
1.1581917
1.1578058
1.1572612
1.1565411
1.1556318
1.1545
1.1530615
1.1512192
1.148678
1.1403514
1.1190228
1.0844249
1.0419434
0.99748622
0.95662509
0.92183976
0.89407556
0.87331483
0.8587767
0.84917379
0.84306811
0.83913514
0.83627775
0.83359335
0.83027058
0.82537633
0.81733509
0.80407174
1.1586179
1.1586135
1.1586029
1.158582
1.1585458
1.1584881
1.1584018
1.1582773
1.1581014
1.1578532
1.1574814
1.1566493
1.1539511
1.1389708
1.1026643
1.0573602
1.0140198
0.97501405
0.94151837
0.91416505
0.89290493
0.87703028
0.86546748
0.85709304
0.85090967
0.8460958
0.84194399
0.83773311
0.83240686
0.82434183
1.0676356
0.99608325
0.93979978
0.89381087
0.85503197
0.82170913
0.79286839
0.76797562
0.74685306
0.72958764
0.71651529
0.70815117
0.70538109
0.71943901
0.73820925
0.75892967
0.77790692
0.79270665
0.80289076
0.80938104
0.81332861
0.81551182
0.81625178
0.81559502
0.81353972
0.81003329
0.80489087
0.79753211
0.78635408
0.7695295
1.1565018
1.1525953
1.147397
1.1412178
1.1342963
1.1268332
1.11903
1.1111046
1.1033164
1.0959914
1.0895618
1.0845685
1.0816518
1.0815853
1.0831453
1.0836902
1.0808134
1.0743732
1.0657513
1.0563462
1.046649
1.0366232
1.0260394
1.0146449
1.0022501
0.98874323
0.9741876
0.95885001
0.94250307
0.91938746
1.158573
1.1584431
1.1582083
1.1578521
1.1573631
1.1567349
1.1559668
1.1550655
1.1540472
1.1529446
1.1518145
1.1506534
1.1495062
1.1479688
1.1432094
1.1319987
1.1120015
1.0865549
1.0607665
1.0387614
1.0194119
1.0011138
0.98355337
0.96664775
0.95089182
0.93517417
0.91899178
0.90253768
0.88575578
0.86861394
1.1586179
1.1586137
1.1586038
1.1585849
1.1585533
1.1585049
1.1584349
1.1583388
1.1582116
1.158048
1.1578399
1.157545
1.1568635
1.1532292
1.1385179
1.1098433
1.0728001
1.0303975
0.98996671
0.95565358
0.92945964
0.91015724
0.89514411
0.88295336
0.87270723
0.8647354
0.85833048
0.85279724
0.84738468
0.84159331
1.0676619
0.99599795
0.93957966
0.89344296
0.85448954
0.82094273
0.79173562
0.76619623
0.74396283
0.72494577
0.70936275
0.6978348
0.69176025
0.70378204
0.7205709
0.7391734
0.75743952
0.7746384
0.79046737
0.8046675
0.81699375
0.82702389
0.83417033
0.83799245
0.8384609
0.83594142
0.83090586
0.82348997
0.81208803
0.79300718
1.1565021
1.1525836
1.1473627
1.141154
1.1341936
1.1266726
1.1187667
1.1106581
1.1025697
1.0948021
1.0878128
1.0823201
1.0793286
1.0795798
1.0805877
1.0798526
1.0771751
1.0730517
1.067464
1.0603809
1.0516223
1.0407209
1.0272594
1.0112973
0.99335027
0.97385837
0.95307787
0.93171392
0.91007018
0.88586604
1.158573
1.1584426
1.1582065
1.1578486
1.1573578
1.1567277
1.1559571
1.1550513
1.1540254
1.1529134
1.1517843
1.1507657
1.1499285
1.1473866
1.1371678
1.1207329
1.1050434
1.0918857
1.0784335
1.0639961
1.047432
1.0272531
1.0033651
0.97747689
0.95200499
0.92866005
0.90785052
0.88981272
0.87192679
0.85196972
1.1586179
1.1586137
1.1586037
1.1585847
1.1585531
1.1585048
1.1584353
1.1583402
1.1582151
1.1580559
1.1578574
1.157579
1.1565388
1.1464467
1.1082943
1.0623356
1.0381492
1.0337891
1.0079755
0.97734298
0.95090552
0.93007554
0.9134408
0.89974113
0.88810418
0.87832083
0.87012035
0.86260144
0.84891388
0.82921982
1.0676827
0.99598897
0.93948803
0.89321544
0.85404508
0.82014893
0.79039681
0.76404224
0.74059115
0.71979739
0.7017391
0.68702702
0.67706005
0.68344548
0.68881377
0.69092552
0.69056563
0.68960518
0.6896269
0.6916982
0.69621899
0.70278906
0.71053165
0.71866513
0.72655682
0.73296727
0.73563431
0.73172129
0.72064448
0.70557444
1.1565025
1.1525799
1.1473442
1.1411043
1.1340873
1.1264679
1.1183951
1.110014
1.101497
1.0931066
1.0853268
1.0790527
1.0754416
1.073515
1.0696892
1.0643177
1.0583269
1.0523132
1.0463424
1.0399744
1.0323328
1.0224475
1.0097955
0.99462101
0.97733988
0.95800074
0.937834
0.91702269
0.88467367
0.8255137
1.158573
1.1584424
1.1582054
1.1578452
1.1573497
1.1567108
1.1559246
1.1549922
1.1539243
1.152752
1.1515556
1.1504995
1.1493036
1.1408442
1.1222874
1.108251
1.0988973
1.0912178
1.0816147
1.0677532
1.0481832
1.0223018
0.99167744
0.9601568
0.9303048
0.90276214
0.88234243
0.86609166
0.8486608
0.82209575
1.1586179
1.1586137
1.1586036
1.1585845
1.1585526
1.1585035
1.1584325
1.1583346
1.1582044
1.1580361
1.1578179
1.1574099
1.1543079
1.117921
1.0351265
0.9940713
0.99097343
0.99209306
0.99031136
0.97325318
0.9536946
0.93540172
0.91868277
0.90505884
0.89176934
0.87533771
0.86090893
0.84520551
0.82499415
0.80458913
1.0677065
0.99601508
0.939501
0.89320627
0.85400534
0.82006936
0.79026938
0.76386221
0.74038484
0.71966304
0.70195217
0.68817184
0.67958762
0.68676193
0.6900501
0.68902401
0.6863557
0.68225388
0.67745627
0.67254896
0.66806298
0.66445077
0.66202612
0.66092046
0.66104225
0.66195239
0.66271525
0.66192985
0.65790626
0.64879125
1.156503
1.1525795
1.1473388
1.1410885
1.1340543
1.1264091
1.1183007
1.1098757
1.1013198
1.0929473
1.0853824
1.0797665
1.0769288
1.0726282
1.0665998
1.0597191
1.0484235
1.0325297
1.0142215
0.99477836
0.97509729
0.953658
0.92879727
0.90120076
0.87211303
0.84297938
0.81454574
0.78636278
0.7565578
0.72173578
1.158573
1.1584423
1.158205
1.1578437
1.1573462
1.1567037
1.1559118
1.1549711
1.1538933
1.1527165
1.1515461
1.150563
1.1483121
1.129162
1.1145436
1.1058624
1.1004715
1.0944434
1.0869218
1.0754
1.0554368
1.0256197
0.98953414
0.95484274
0.92729367
0.90392476
0.878513
0.84935876
0.81466535
0.77285198
1.1586179
1.1586137
1.1586036
1.1585844
1.1585523
1.1585027
1.158431
1.1583315
1.1581986
1.1580249
1.1577874
1.1571214
1.1490628
1.0431991
0.97917234
0.96735744
0.9618143
0.95591926
0.94802785
0.93986027
0.92961761
0.91807867
0.9065784
0.89618569
0.88697494
0.87912732
0.87269685
0.84948723
0.82093035
0.78625275
1.0677258
0.99604816
0.93954517
0.89326053
0.8540702
0.82014639
0.79035932
0.7639677
0.74050513
0.71979172
0.70208139
0.68829265
0.6796705
0.68688039
0.69023912
0.68927797
0.68646552
0.6822106
0.67722282
0.6720442
0.66715702
0.66298769
0.65987391
0.65802293
0.65743374
0.65775544
0.65811633
0.65707268
0.65280181
0.643378
1.1565035
1.1525809
1.1473416
1.1410931
1.1340613
1.1264192
1.1183148
1.1098946
1.1013446
1.0929782
1.0854168
1.079792
1.0769031
1.0726988
1.0667268
1.0598434
1.0487239
1.0325102
1.013095
0.99101401
0.96611096
0.93796976
0.9069111
0.87434081
0.84216654
0.81187013
0.78388973
0.75757994
0.73129662
0.7015519
1.1585731
1.1584424
1.1582051
1.1578439
1.1573466
1.1567044
1.155913
1.154973
1.1538962
1.152721
1.1515524
1.1505658
1.1483245
1.1300633
1.1152848
1.1061573
1.1011165
1.0953915
1.0877674
1.0755275
1.0557943
1.0285312
0.99719347
0.96577935
0.93488221
0.90207481
0.86796655
0.83227855
0.7939928
0.75113438
1.1586179
1.1586137
1.1586036
1.1585844
1.1585523
1.1585028
1.1584311
1.1583318
1.158199
1.1580256
1.1577873
1.1571091
1.149191
1.0499936
0.98151196
0.96890271
0.96272918
0.95751852
0.95054008
0.94346231
0.93339634
0.92213699
0.91119399
0.90178298
0.89394027
0.88631792
0.87054257
0.84469258
0.80906877
0.76762199
1.067738
0.996083
0.93961176
0.89336488
0.8542196
0.82035073
0.79063048
0.76430916
0.74088896
0.72012185
0.70208836
0.68740654
0.67745604
0.68361224
0.68871409
0.69054036
0.68985519
0.68844744
0.68776727
0.68876781
0.69186295
0.69688716
0.70337264
0.71083025
0.71861419
0.72540782
0.72872501
0.72543755
0.71494643
0.69988699
1.1565038
1.1525839
1.1473519
1.141117
1.1341063
1.1264947
1.1184318
1.1100626
1.1015599
1.0931868
1.0854301
1.0791875
1.0755819
1.0734945
1.0696087
1.0642234
1.0582293
1.0521169
1.0459182
1.0392228
1.0312519
1.0212725
1.0090595
0.99493847
0.9792041
0.96153261
0.9417847
0.9200326
0.8850935
0.82316705
1.1585731
1.1584425
1.1582057
1.1578458
1.1573508
1.1567128
1.1559278
1.1549971
1.1539318
1.1527634
1.1515731
1.1505228
1.1492825
1.1407576
1.1229474
1.1092289
1.1000928
1.0927501
1.0836869
1.0706898
1.0525944
1.0291896
1.0020418
0.97354738
0.94477299
0.91591424
0.89001665
0.86797363
0.84532581
0.81404366
1.1586179
1.1586137
1.1586036
1.1585845
1.1585526
1.1585036
1.1584328
1.1583351
1.1582054
1.1580378
1.1578197
1.1573959
1.1541316
1.1176622
1.0389971
0.9956171
0.99195053
0.99260018
0.9916773
0.97469866
0.95457087
0.93593257
0.91879862
0.90478072
0.89054914
0.87454465
0.85782914
0.83920837
0.81643552
0.78956217
1.0677501
0.99614793
0.93977742
0.89368344
0.85477338
0.82127473
0.79212174
0.7666383
0.74446092
0.72549654
0.70996147
0.69848032
0.69244286
0.7042967
0.72067085
0.73869181
0.75635825
0.77302997
0.78842786
0.80230929
0.81449745
0.8247025
0.83246651
0.83733987
0.83908127
0.83775274
0.83357434
0.82658874
0.81524271
0.79630311
1.1565043
1.15259
1.1473751
1.1411742
1.134224
1.1267161
1.1188265
1.1107379
1.1026727
1.0949269
1.0879587
1.0824868
1.0795009
1.0796316
1.08044
1.0795974
1.0769283
1.0729333
1.0675657
1.0607629
1.0523764
1.0420091
1.0292471
1.0139698
0.99637584
0.9767663
0.95551806
0.93341613
0.91053774
0.88451729
1.1585731
1.1584428
1.158207
1.1578496
1.1573596
1.1567308
1.1559621
1.1550588
1.1540364
1.1529289
1.1518053
1.1507926
1.1499398
1.1472328
1.137125
1.1211397
1.1058176
1.093154
1.0802168
1.0662944
1.050541
1.0316527
1.009327
0.98446638
0.95843716
0.93293399
0.90970764
0.88959729
0.86913971
0.84580527
1.1586179
1.1586137
1.1586037
1.1585848
1.1585533
1.158505
1.1584358
1.1583411
1.1582165
1.1580583
1.1578607
1.1575769
1.1564494
1.1458173
1.1083192
1.0629464
1.0381138
1.0360286
1.0117059
0.98076702
0.95324598
0.93153769
0.91428245
0.90016145
0.88814693
0.87792824
0.86930484
0.86140941
0.84496216
0.81787364
1.0677486
0.99627363
0.94004824
0.89410949
0.85537923
0.82210708
0.79332087
0.76848139
0.74740383
0.73017164
0.71711109
0.70873434
0.70593884
0.71990391
0.73864354
0.75946531
0.77871314
0.79383084
0.80420002
0.81063499
0.81433963
0.81620561
0.81671186
0.81604443
0.81424088
0.81119885
0.80663158
0.79986563
0.78920505
0.77195685
1.1565046
1.1526034
1.1474126
1.1412431
1.1343338
1.126886
1.1191011
1.1111966
1.1034266
1.0961161
1.0896913
1.0846921
1.0817607
1.0816838
1.0832895
1.0839881
1.0813892
1.0751772
1.0666284
1.0571711
1.0474316
1.0374049
1.0268853
1.0155856
1.0032349
0.98964956
0.97485093
0.95908714
0.94212435
0.92018238
1.1585731
1.1584434
1.1582089
1.1578533
1.1573654
1.1567389
1.1559732
1.1550752
1.1540611
1.1529628
1.1518367
1.1506797
1.1495229
1.1480368
1.143483
1.1326768
1.1135031
1.0885896
1.0627491
1.0400613
1.0205025
1.0018219
0.9838627
0.9667033
0.95077717
0.93512969
0.91890741
0.90228425
0.88528161
0.86764446
1.1586179
1.1586137
1.1586038
1.158585
1.1585535
1.1585052
1.1584356
1.15834
1.1582136
1.1580516
1.1578461
1.1575583
1.1569051
1.1534427
1.139447
1.1121029
1.0773055
1.0357528
0.99515093
0.96000519
0.9324888
0.9123583
0.89677241
0.88421452
0.87363238
0.86516443
0.85838683
0.85257081
0.8469152
0.84018027
1.0677325
0.99553632
0.9381301
0.89067728
0.85010319
0.81461578
0.78323641
0.75562602
0.73170721
0.71103294
0.69337299
0.67870562
0.66743173
0.66839209
0.67268501
0.68026544
0.69026106
0.70132417
0.71214646
0.72178468
0.7297243
0.7357818
0.73997553
0.74241651
0.74323304
0.74249958
0.74016421
0.73594472
0.72910485
0.71852841
1.1565019
1.1525268
1.1471332
1.1405945
1.1331129
1.1248518
1.1159567
1.1056379
1.0917916
1.0737139
1.0490438
1.0174452
0.97976048
0.94243158
0.90880206
0.88102781
0.8595373
0.8439853
0.83379589
0.82819868
0.82602389
0.82589065
0.82653883
0.82697053
0.82641384
0.8241741
0.81945098
0.81106987
0.79696956
0.77574639
1.1585729
1.1584396
1.1581924
1.1578073
1.157264
1.1565458
1.1556395
1.1545123
1.1530794
1.1512427
1.1487131
1.1405048
1.119903
1.0863012
1.0447055
1.0009046
0.96026107
0.92535366
0.8972164
0.87590959
0.86075088
0.85054224
0.84391181
0.83957499
0.83644449
0.83360704
0.83023026
0.82536044
0.81741201
0.80424674
1.1586179
1.1586135
1.1586029
1.1585821
1.158546
1.1584885
1.1584025
1.1582789
1.1581042
1.1578583
1.1574929
1.1566964
1.1542358
1.1410067
1.1071209
1.0627962
1.0195214
0.9801736
0.94611503
0.91805634
0.89602516
0.87940234
0.86717393
0.85824369
0.85161931
0.84646628
0.8420597
0.83765971
0.83219876
0.82406006
)
;

boundaryField
{
    maxY
    {
        type            calculated;
        value           nonuniform List<scalar> 
300
(
1.1586174
1.1586174
1.1586174
1.1586174
1.1586174
1.1586174
1.1586174
1.1586174
1.1586174
1.1586174
1.158613
1.1586132
1.1586131
1.1586131
1.1586131
1.1586131
1.1586131
1.1586132
1.1586132
1.158613
1.1586024
1.1586032
1.1586031
1.1586031
1.1586031
1.1586031
1.1586031
1.1586032
1.1586033
1.1586024
1.1585815
1.1585844
1.1585842
1.158584
1.1585839
1.1585839
1.158584
1.1585843
1.1585844
1.1585815
1.1585453
1.1585528
1.1585526
1.158552
1.1585517
1.1585518
1.1585521
1.1585527
1.158553
1.1585454
1.1584876
1.1585043
1.1585043
1.1585029
1.1585022
1.1585023
1.1585031
1.1585045
1.1585047
1.158488
1.1584012
1.1584344
1.1584348
1.158432
1.1584304
1.1584305
1.1584322
1.1584353
1.158435
1.158402
1.1582768
1.1583383
1.1583397
1.158334
1.158331
1.1583312
1.1583346
1.1583405
1.1583394
1.1582783
1.1581009
1.158211
1.1582146
1.1582039
1.1581981
1.1581985
1.1582049
1.158216
1.1582131
1.1581036
1.1578527
1.1580475
1.1580554
1.1580356
1.1580244
1.1580251
1.1580373
1.1580577
1.158051
1.1578578
1.1574809
1.1578394
1.1578569
1.1578174
1.1577869
1.1577868
1.1578191
1.1578602
1.1578456
1.1574924
1.1566488
1.1575445
1.1575785
1.1574094
1.1571209
1.1571086
1.1573954
1.1575764
1.1575578
1.1566959
1.1539506
1.156863
1.1565382
1.1543074
1.1490622
1.1491905
1.1541311
1.1564488
1.1569045
1.1542353
1.1389703
1.1532287
1.1464462
1.1179205
1.0431986
1.0499932
1.1176617
1.1458168
1.1534422
1.1410062
1.1026639
1.1385174
1.1082938
1.035126
0.97917196
0.98151158
1.0389967
1.1083187
1.1394465
1.1071204
1.0573597
1.1098428
1.0623352
0.99407091
0.96735707
0.96890234
0.99561671
1.062946
1.1121024
1.0627958
1.0140194
1.0727997
1.0381488
0.99097304
0.96181393
0.96272882
0.99195014
1.0381133
1.077305
1.019521
0.97501367
1.030397
1.0337886
0.99209267
0.9559189
0.95751816
0.99259979
1.0360281
1.0357524
0.98017322
0.94151802
0.98996632
1.0079751
0.99031097
0.9480275
0.95053972
0.99167692
1.0117055
0.99515054
0.94611467
0.91416472
0.95565322
0.9773426
0.97325281
0.93985992
0.94346196
0.97469828
0.98076664
0.96000482
0.91805601
0.89290462
0.9294593
0.95090517
0.95369424
0.92961727
0.93339599
0.95457051
0.95324563
0.93248846
0.89602485
0.87702998
0.91015692
0.9300752
0.93540137
0.91807834
0.92213666
0.93593223
0.93153735
0.91235797
0.87940203
0.86546718
0.8951438
0.91344047
0.91868244
0.90657808
0.91119366
0.91879829
0.91428212
0.89677209
0.86717364
0.85709275
0.88295305
0.89974081
0.90505851
0.89618538
0.90178267
0.9047804
0.90016113
0.88421421
0.8582434
0.85090938
0.87270693
0.88810387
0.89176903
0.88697464
0.89393996
0.89054883
0.88814662
0.87363208
0.85161902
0.84609552
0.8647351
0.87832052
0.87533741
0.87912702
0.88631761
0.87454435
0.87792794
0.86516414
0.846466
0.84194371
0.85833019
0.87012006
0.86090864
0.87269655
0.87054228
0.85782885
0.86930455
0.85838654
0.84205943
0.83773284
0.85279696
0.86260114
0.84520523
0.84948695
0.8446923
0.8392081
0.86140912
0.85257052
0.83765943
0.83240659
0.84738439
0.8489136
0.82499388
0.82093008
0.80906851
0.81643526
0.84496188
0.84691492
0.83219848
0.82434156
0.84159303
0.82921955
0.80458888
0.7862525
0.76762176
0.78956193
0.81787338
0.84017999
0.82405979
)
;
    }
    minX
    {
        type            calculated;
        value           nonuniform List<scalar> 
40
(
1.1586222
1.1586212
1.1586201
1.1586191
1.1586222
1.1586212
1.1586201
1.1586191
1.1586222
1.1586212
1.1586201
1.1586191
1.1586222
1.1586212
1.1586201
1.1586191
1.1586222
1.1586212
1.1586201
1.1586191
1.1586222
1.1586212
1.1586201
1.1586191
1.1586222
1.1586212
1.1586201
1.1586191
1.1586222
1.1586212
1.1586201
1.1586191
1.1586222
1.1586212
1.1586201
1.1586191
1.1586222
1.1586212
1.1586201
1.1586191
)
;
    }
    maxX
    {
        type            calculated;
        value           nonuniform List<scalar> 
40
(
0.71803006
0.77524851
0.80430108
0.82449835
0.76972522
0.91939004
0.86860822
0.84160025
0.7932593
0.88576372
0.8518725
0.82945559
0.70590471
0.82567045
0.82223038
0.80507632
0.64901988
0.72212793
0.77322631
0.78653767
0.64336266
0.70150635
0.7511536
0.76784669
0.69986974
0.82303072
0.81423832
0.79052024
0.79620092
0.88458219
0.84610437
0.81876844
0.7719335
0.92009366
0.86761659
0.84028517
0.7185505
0.775777
0.80430436
0.8240967
)
;
    }
    minZ
    {
        type            calculated;
        value           nonuniform List<scalar> 
120
(
1.0676038
1.1564986
1.1585729
1.1586179
0.99531927
1.1525174
1.1584394
1.1586135
0.93784701
1.1471151
1.1581917
1.1586029
0.89033735
1.1405649
1.1578058
1.158582
0.84970776
1.1330686
1.1572612
1.1585458
0.81416305
1.1247892
1.1565411
1.1584881
0.78272793
1.1158721
1.1556318
1.1584018
0.75507321
1.1054915
1.1545
1.1582773
0.73111769
1.0915933
1.1530615
1.1581014
0.71041728
1.0734964
1.1512192
1.1578532
0.69274492
1.0487718
1.148678
1.1574814
0.6780825
1.0169217
1.1403514
1.1566493
0.66683552
0.97882025
1.1190228
1.1539511
0.66790443
0.94110237
1.0844249
1.1389708
0.67232539
0.90724882
1.0419434
1.1026643
0.68002958
0.87940961
0.99748622
1.0573602
0.6901088
0.85796395
0.95662509
1.0140198
0.70120419
0.84256432
0.92183976
0.97501405
0.71203257
0.8326531
0.89407556
0.94151837
0.72169362
0.82743736
0.87331483
0.91416505
0.72969594
0.82566723
0.8587767
0.89290493
0.73584903
0.82589332
0.84917379
0.87703028
0.74013415
0.8267941
0.84306811
0.86546748
0.74261221
0.82733022
0.83913514
0.85709304
0.74337761
0.82672862
0.83627775
0.85090967
0.74250107
0.82432022
0.83359335
0.8460958
0.73995648
0.81933644
0.83027058
0.84194399
0.73550629
0.81064378
0.82537633
0.83773311
0.72847109
0.79623453
0.81733509
0.83240686
0.71786851
0.77502148
0.80407174
0.82434183
)
;
    }
    maxZ
    {
        type            calculated;
        value           nonuniform List<scalar> 
120
(
1.0677325
1.1565019
1.1585729
1.1586179
0.99553632
1.1525268
1.1584396
1.1586135
0.9381301
1.1471332
1.1581924
1.1586029
0.89067728
1.1405945
1.1578073
1.1585821
0.85010319
1.1331129
1.157264
1.158546
0.81461578
1.1248518
1.1565458
1.1584885
0.78323641
1.1159567
1.1556395
1.1584025
0.75562602
1.1056379
1.1545123
1.1582789
0.73170721
1.0917916
1.1530794
1.1581042
0.71103294
1.0737139
1.1512427
1.1578583
0.69337299
1.0490438
1.1487131
1.1574929
0.67870562
1.0174452
1.1405048
1.1566964
0.66743173
0.97976048
1.119903
1.1542358
0.66839209
0.94243158
1.0863012
1.1410067
0.67268501
0.90880206
1.0447055
1.1071209
0.68026544
0.88102781
1.0009046
1.0627962
0.69026106
0.8595373
0.96026107
1.0195214
0.70132417
0.8439853
0.92535366
0.9801736
0.71214646
0.83379589
0.8972164
0.94611503
0.72178468
0.82819868
0.87590959
0.91805634
0.7297243
0.82602389
0.86075088
0.89602516
0.7357818
0.82589065
0.85054224
0.87940234
0.73997553
0.82653883
0.84391181
0.86717393
0.74241651
0.82697053
0.83957499
0.85824369
0.74323304
0.82641384
0.83644449
0.85161931
0.74249958
0.8241741
0.83360704
0.84646628
0.74016421
0.81945098
0.83023026
0.8420597
0.73594472
0.81106987
0.82536044
0.83765971
0.72910485
0.79696956
0.81741201
0.83219876
0.71852841
0.77574639
0.80424674
0.82406006
)
;
    }
    topAir_to_rightSolid
    {
        type            calculated;
        value           nonuniform List<scalar> 
130
(
0.46419542
0.45936427
0.4544381
0.44965993
0.44517527
0.44110584
0.43752078
0.43445208
0.43190972
0.42989071
0.42838683
0.42738877
0.42688948
0.46789764
0.46216067
0.45645805
0.45106937
0.44614154
0.44175973
0.43795999
0.43474621
0.43210816
0.43002655
0.4284831
0.42746052
0.42694866
0.47543098
0.4675771
0.46019906
0.45358474
0.44780783
0.44285423
0.43867554
0.43521352
0.4324143
0.43022834
0.4286188
0.42755621
0.42702647
0.48709404
0.47507554
0.46492394
0.45654504
0.44965951
0.44401457
0.43940202
0.4356671
0.43269551
0.43040107
0.42872265
0.42762037
0.42707333
0.50156159
0.4823809
0.46886113
0.45876528
0.45095642
0.444787
0.4398661
0.43594486
0.43285848
0.430493
0.42877129
0.42764582
0.4270882
0.5014997
0.48232863
0.46882106
0.45873777
0.45093457
0.44476631
0.43984754
0.43592659
0.43284047
0.43047653
0.42875663
0.42763262
0.42707551
0.4869919
0.47500415
0.46486458
0.45648682
0.44960649
0.44396542
0.4393527
0.43561731
0.43264882
0.43035786
0.42868218
0.42758325
0.42703787
0.47534221
0.46751983
0.4601486
0.45352912
0.44774588
0.44278829
0.43860752
0.43514672
0.43235395
0.43016965
0.42856015
0.42750098
0.42697364
0.46783362
0.46211813
0.45641533
0.45101407
0.44607834
0.44169174
0.43788969
0.43467727
0.43204284
0.42995892
0.42841149
0.42738823
0.4268775
0.46415085
0.45933657
0.45439772
0.44959207
0.44510031
0.44103562
0.43745422
0.43438622
0.43184292
0.42981872
0.42830912
0.42730715
0.42680647
)
;
    }
    topAir_to_heater
    {
        type            calculated;
        value           nonuniform List<scalar> 
40
(
0.47623138
0.47488701
0.47227887
0.46861233
0.48246477
0.48086122
0.47770689
0.47324234
0.49606823
0.49386
0.48945452
0.48309798
0.51973708
0.51668824
0.51024524
0.50018174
0.558471
0.55528849
0.54711443
0.5313043
0.55834278
0.55516813
0.54701456
0.53123028
0.51934772
0.51633267
0.50996169
0.50000553
0.49575182
0.49355956
0.48921196
0.48294085
0.48228239
0.48068139
0.47756604
0.4731488
0.47610603
0.47478159
0.47220011
0.46855258
)
;
    }
    topAir_to_leftSolid
    {
        type            calculated;
        value           nonuniform List<scalar> 
130
(
0.37409365
0.37409841
0.37411191
0.37413484
0.37417125
0.37422423
0.37429879
0.37439543
0.3745148
0.37464114
0.37475398
0.37484852
0.37491564
0.3741253
0.37412795
0.37413984
0.3741635
0.37420232
0.37426007
0.37433842
0.37443858
0.37455879
0.37468811
0.3748162
0.37492721
0.37500266
0.37417208
0.37417531
0.3741896
0.3742181
0.37426386
0.37433284
0.37441727
0.3745197
0.37464395
0.37477963
0.3749176
0.37505132
0.37515556
0.37423273
0.37423736
0.37425514
0.37429036
0.37434408
0.37441644
0.3745074
0.37461821
0.37475074
0.37490089
0.37506073
0.37522748
0.3753335
0.37429688
0.3743032
0.37432396
0.37436384
0.37442378
0.37450482
0.37460838
0.3747344
0.37488483
0.37506146
0.37522387
0.37535509
0.3754389
0.37435599
0.37436497
0.37439037
0.37443536
0.37450299
0.3745963
0.3747191
0.37486706
0.37502569
0.37518161
0.3753247
0.3754443
0.37552519
0.37440293
0.3744147
0.37444409
0.37449486
0.37457163
0.37467959
0.37481509
0.37495572
0.37509739
0.37523808
0.37536919
0.37548083
0.37555125
0.374443
0.3744555
0.37448653
0.37454022
0.3746218
0.37473811
0.37487026
0.37500174
0.37513405
0.37526525
0.37539095
0.37550433
0.3755764
0.37447278
0.37448428
0.37451428
0.37456625
0.37464526
0.37475381
0.37488488
0.3750146
0.37514069
0.3752631
0.37537801
0.37548365
0.37555909
0.37448884
0.37449871
0.37452605
0.37457549
0.37465285
0.37475701
0.37487876
0.37500547
0.37513189
0.37525558
0.37536731
0.37546336
0.37552707
)
;
    }
}


// ************************************************************************* //
