/*--------------------------------*- C++ -*----------------------------------*\
| =========                 |                                                 |
| \\      /  F ield         | OpenFOAM: The Open Source CFD Toolbox           |
|  \\    /   O peration     | Version:  v2012                                 |
|   \\  /    A nd           | Website:  www.openfoam.com                      |
|    \\/     M anipulation  |                                                 |
\*---------------------------------------------------------------------------*/
FoamFile
{
    version     2.0;
    format      ascii;
    class       volScalarField;
    location    "120/bottomWater";
    object      p;
}
// * * * * * * * * * * * * * * * * * * * * * * * * * * * * * * * * * * * * * //

dimensions      [1 -1 -2 0 0 0 0];


internalField   nonuniform List<scalar> 
1460
(
353.42624
353.42338
353.42887
353.42615
353.43401
353.41998
353.43658
353.41496
353.42571
353.41918
353.42943
353.42767
353.41363
353.41758
353.42243
353.42383
353.41248
353.42475
353.40854
353.41348
353.41657
353.4101
353.42803
353.40591
353.41663
353.41905
353.41032
353.41797
353.40222
353.40837
274.45133
274.46462
274.49825
274.51941
274.52485
274.50237
274.51828
274.46014
274.44756
274.45736
274.50994
274.51219
274.46428
274.47576
274.5019
274.52458
274.48502
274.50983
274.46045
274.4559
274.45206
274.46499
274.51562
274.48668
274.51083
274.52896
274.52314
274.51582
274.47196
274.4709
196.27226
196.24631
196.24838
196.26438
196.25492
196.26266
196.24055
196.25474
196.26589
196.27425
196.23882
196.23955
196.29396
196.30061
196.26076
196.26697
196.28026
196.25486
196.26626
196.27498
196.27079
196.25133
196.23851
196.26472
196.2571
196.25547
196.26403
196.23286
196.24379
196.26695
117.68063
117.64428
117.66514
117.68494
117.69335
117.64964
117.65209
117.62961
117.68216
117.66628
117.65511
117.66801
117.6838
117.70432
117.69449
117.68632
117.65761
117.67758
117.65512
117.69252
117.68594
117.63706
117.6614
117.6517
117.6681
117.69764
117.68086
117.6674
117.66004
117.68854
39.247636
39.248871
39.232143
39.233221
39.230324
39.222444
39.252901
39.260293
39.262866
39.249858
39.245732
39.232817
39.222591
39.241143
39.2346
39.231967
39.269134
39.247179
39.243326
39.256464
39.256057
39.255514
39.260267
39.247586
39.219316
39.240252
39.227271
39.246077
39.250413
39.249646
353.42949
353.42589
353.42709
353.42533
353.43023
353.41402
353.4276
353.41512
353.42694
353.41841
353.42177
353.4255
353.40964
353.41985
353.41514
353.42725
353.42238
353.41515
353.41376
353.41524
353.41456
353.41181
353.41345
353.40897
353.41173
353.41597
353.40891
353.40429
353.40633
353.40847
274.44717
274.44356
274.46702
274.49168
274.49842
274.46289
274.48042
274.45171
274.44186
274.44267
274.46124
274.49346
274.46933
274.45949
274.46353
274.50771
274.49526
274.46631
274.45025
274.44748
274.44159
274.45869
274.47004
274.46396
274.47404
274.50011
274.48847
274.47012
274.45889
274.46154
196.29905
196.25776
196.23848
196.24792
196.24775
196.26626
196.24429
196.26767
196.29357
196.28494
196.2615
196.24014
196.27556
196.27133
196.25215
196.23693
196.24775
196.26354
196.26579
196.29203
196.27534
196.27148
196.26322
196.26323
196.25997
196.24883
196.24615
196.24674
196.25978
196.28516
117.68357
117.65691
117.64048
117.67392
117.6745
117.63884
117.64498
117.64245
117.68434
117.67621
117.63367
117.65049
117.64892
117.6705
117.65648
117.66091
117.66749
117.66553
117.68628
117.68901
117.67506
117.6457
117.64659
117.65622
117.66495
117.67662
117.67653
117.66587
117.68033
117.68622
39.260032
39.251365
39.24461
39.237856
39.23008
39.235525
39.261357
39.268004
39.273306
39.258913
39.257035
39.252921
39.232776
39.236092
39.237302
39.244949
39.238503
39.248308
39.254022
39.262835
39.253632
39.252878
39.258342
39.239371
39.225155
39.238161
39.231705
39.250489
39.246975
39.253587
353.42138
353.42052
353.42094
353.41581
353.42082
353.41599
353.42117
353.41675
353.41811
353.417
353.41405
353.41429
353.41597
353.42162
353.41361
353.41399
353.41033
353.41074
353.40893
353.41065
353.41509
353.41093
353.412
353.41128
353.40918
353.40784
353.40642
353.41072
353.40551
353.4051
274.44359
274.45742
274.45283
274.45468
274.46275
274.4399
274.46488
274.45486
274.44461
274.4429
274.45686
274.4613
274.45519
274.4437
274.44155
274.46002
274.45913
274.45809
274.46558
274.47343
274.49379
274.48517
274.4586
274.44922
274.45332
274.46024
274.45942
274.45943
274.46936
274.47652
196.28799
196.2919
196.27182
196.3024
196.27492
196.29673
196.29136
196.2932
196.30643
196.30683
196.30446
196.29811
196.31137
196.31898
196.30295
196.28733
196.29692
196.27977
196.26609
196.25449
196.23511
196.26967
196.26399
196.29308
196.28399
196.27626
196.28557
196.29057
196.29244
196.29576
117.68174
117.62856
117.66401
117.6488
117.66778
117.66125
117.63064
117.63839
117.65446
117.66778
117.65434
117.63758
117.64682
117.67969
117.68049
117.65055
117.66912
117.67383
117.66246
117.66269
117.66358
117.67865
117.68562
117.67881
117.66522
117.64714
117.65945
117.67526
117.65914
117.63958
39.257541
39.271734
39.249341
39.227954
39.244303
39.228652
39.254241
39.286306
39.269809
39.255333
39.25089
39.278923
39.268322
39.26193
39.261053
39.269652
39.268661
39.251761
39.246505
39.252409
39.249076
39.234761
39.243699
39.257973
39.249579
39.270685
39.249935
39.242147
39.242829
39.264542
353.42263
353.43497
353.43073
353.42357
353.42682
353.42325
353.42502
353.41851
353.41977
353.4193
353.42359
353.41699
353.41097
353.40896
353.4128
353.416
353.40361
353.4059
353.41719
353.41937
353.41987
353.41976
353.4127
353.41053
353.41519
353.41575
353.41097
353.40722
353.40836
353.4047
274.46076
274.47932
274.46925
274.43202
274.43064
274.43519
274.44137
274.46492
274.46972
274.44698
274.48634
274.48498
274.4525
274.44422
274.45151
274.44742
274.44381
274.45398
274.49237
274.50929
274.51072
274.49388
274.46464
274.44831
274.45067
274.44643
274.44922
274.46724
274.48186
274.47596
196.28712
196.25038
196.26075
196.25843
196.29286
196.30509
196.2767
196.26815
196.28087
196.29706
196.26057
196.2477
196.27686
196.30078
196.31243
196.29201
196.26761
196.25694
196.21966
196.2479
196.24992
196.24795
196.24998
196.26592
196.29697
196.29204
196.26355
196.25463
196.24779
196.27761
117.67461
117.6539
117.63242
117.66607
117.68046
117.67794
117.66143
117.65701
117.66024
117.67353
117.67192
117.6417
117.6537
117.67591
117.68459
117.68093
117.67066
117.65558
117.65803
117.67735
117.68888
117.6854
117.65417
117.68167
117.68916
117.6916
117.67214
117.64127
117.66792
117.67936
39.232003
39.223625
39.24581
39.247048
39.258577
39.261139
39.254058
39.247048
39.246802
39.236117
39.23366
39.247785
39.251889
39.259771
39.265172
39.261351
39.25411
39.253056
39.243059
39.230601
39.234223
39.239854
39.252865
39.256083
39.260964
39.268515
39.254536
39.252292
39.237979
39.241042
353.42762
353.41312
353.43616
353.41626
353.42304
353.42272
353.4131
353.42617
353.4236
353.42433
353.43116
353.43016
353.42374
353.41947
353.42163
353.41903
353.41177
353.41327
353.42641
353.40792
353.41372
353.41686
353.40854
353.41558
353.41472
353.41293
274.50777
274.48855
274.50427
274.44708
274.43825
274.44454
274.45284
274.48841
274.43892
274.45207
274.49252
274.50347
274.48286
274.47969
274.50082
274.51386
274.49213
274.4867
274.5081
274.458
274.45487
274.4525
274.45171
274.49918
274.53038
274.52461
196.25989
196.2788
196.24857
196.25369
196.27949
196.28584
196.26711
196.23228
196.2864
196.29819
196.26043
196.27064
196.29042
196.27604
196.2543
196.26244
196.27161
196.27383
196.23845
196.25528
196.27494
196.28838
196.24719
196.23828
196.22688
196.2541
117.67793
117.63303
117.65785
117.63258
117.6885
117.69348
117.65907
117.67252
117.69195
117.6792
117.69351
117.66219
117.65284
117.66576
117.66918
117.69205
117.67953
117.65867
117.67107
117.6593
117.68841
117.685
117.65279
117.66324
117.65592
117.68169
39.235333
39.256383
39.26431
39.255621
39.267608
39.262772
39.268401
39.256327
39.237938
39.227222
39.229194
39.223845
39.235965
39.236518
39.226224
39.2304
39.224461
39.255967
39.256502
39.258745
39.255073
39.268605
39.252888
39.251683
39.240281
39.233471
353.43017
353.41663
353.43771
353.4205
353.4312
353.42676
353.42243
353.44134
353.42741
353.4271
353.43348
353.42996
353.42421
353.41424
353.41862
353.41678
353.42063
353.41435
353.42138
353.41225
353.41224
353.41779
353.40884
353.42319
353.41378
353.41916
274.50798
274.48059
274.49992
274.44679
274.43178
274.44215
274.44609
274.49427
274.47054
274.46017
274.50231
274.50449
274.48376
274.48494
274.50236
274.49727
274.46493
274.4587
274.50894
274.48
274.46034
274.45139
274.45878
274.5144
274.52924
274.52237
196.26041
196.27831
196.25282
196.25109
196.27324
196.28145
196.25452
196.2349
196.27716
196.28491
196.25972
196.26446
196.28305
196.27778
196.26047
196.25459
196.28539
196.28097
196.24318
196.24165
196.27533
196.26386
196.23749
196.23706
196.24978
196.25443
117.67778
117.63311
117.65837
117.62417
117.68665
117.69237
117.64945
117.67252
117.66005
117.67908
117.68794
117.66565
117.65241
117.65753
117.66932
117.69322
117.6934
117.70397
117.69637
117.67751
117.68775
117.69068
117.64099
117.66649
117.65975
117.69287
39.235156
39.249083
39.266162
39.257648
39.268427
39.26175
39.258009
39.252059
39.259062
39.232402
39.230405
39.229448
39.245387
39.242951
39.228725
39.235292
39.243221
39.249423
39.240826
39.250294
39.251054
39.263649
39.254234
39.254599
39.232505
39.236338
353.41585
353.42937
353.42298
353.42093
353.42373
353.42345
353.42087
353.42156
353.43124
353.43062
353.4282
353.42427
353.41074
353.40603
353.4151
353.41655
353.40912
353.40958
353.41861
353.4197
353.41892
353.41706
353.41337
353.40886
353.41352
353.41672
353.4104
353.40969
353.41446
353.40396
274.46494
274.47924
274.46327
274.43506
274.43527
274.43694
274.43763
274.45158
274.48621
274.4902
274.49838
274.48968
274.45563
274.43982
274.4511
274.44734
274.44352
274.46167
274.49592
274.5133
274.51211
274.49736
274.47844
274.45557
274.45006
274.44513
274.45285
274.4684
274.48764
274.47665
196.28707
196.24923
196.2703
196.25875
196.2962
196.30094
196.2736
196.25284
196.24587
196.24863
196.25216
196.22411
196.25981
196.2747
196.30477
196.28521
196.26069
196.25184
196.21619
196.25288
196.25088
196.24839
196.24695
196.2653
196.28984
196.28732
196.25689
196.25087
196.23949
196.2742
117.67622
117.65646
117.63448
117.67613
117.68301
117.68662
117.68109
117.65318
117.67865
117.68071
117.67502
117.64246
117.63543
117.67137
117.68375
117.68341
117.67457
117.64493
117.65639
117.67625
117.68582
117.67765
117.65345
117.67167
117.68612
117.69288
117.6712
117.6506
117.67024
117.67823
39.231863
39.2286
39.244677
39.250075
39.260819
39.264366
39.259045
39.250729
39.233387
39.23949
39.225394
39.243898
39.252493
39.258897
39.263814
39.258228
39.252678
39.248465
39.240026
39.228697
39.23561
39.237532
39.252636
39.25557
39.259051
39.266998
39.252797
39.251649
39.234193
39.235963
353.41438
353.41263
353.41973
353.41008
353.42677
353.41878
353.42612
353.4205
353.42305
353.41295
353.4162
353.41622
353.41614
353.42187
353.41641
353.41274
353.41178
353.40892
353.40458
353.40292
353.40722
353.39207
353.40965
353.40774
353.40661
353.40968
353.40481
353.40872
353.4024
353.40347
274.45125
274.47274
274.45344
274.45852
274.46751
274.44182
274.43828
274.44874
274.47764
274.45842
274.46253
274.45603
274.44661
274.44442
274.44203
274.46074
274.46231
274.45633
274.46339
274.47629
274.48734
274.47672
274.46422
274.45198
274.45158
274.462
274.46859
274.45851
274.47655
274.46162
196.28672
196.27646
196.28245
196.2645
196.23681
196.27646
196.27689
196.28315
196.25566
196.27996
196.27959
196.28276
196.29253
196.31246
196.2981
196.28271
196.30507
196.29067
196.27584
196.26925
196.26335
196.29089
196.26922
196.2786
196.27698
196.26278
196.27557
196.27906
196.26861
196.28321
117.68009
117.65105
117.68885
117.65624
117.66181
117.66602
117.70127
117.67299
117.65843
117.65185
117.66239
117.66104
117.66177
117.68691
117.68759
117.64741
117.66218
117.67566
117.66232
117.66017
117.66042
117.67606
117.69273
117.68557
117.67128
117.65285
117.65374
117.68622
117.65953
117.67733
39.249012
39.260446
39.23205
39.252699
39.249498
39.246636
39.242999
39.241977
39.258107
39.271253
39.237911
39.25462
39.251773
39.270071
39.263069
39.272823
39.277219
39.254184
39.251183
39.257426
39.258301
39.243751
39.245623
39.259566
39.248986
39.265426
39.258929
39.237393
39.256429
39.248259
353.4208
353.41702
353.4149
353.42108
353.42572
353.41976
353.4186
353.41941
353.42354
353.42336
353.41821
353.4187
353.42865
353.41953
353.41858
353.42591
353.42383
353.40803
353.41088
353.41085
353.41325
353.40872
353.40875
353.40718
353.40885
353.41787
353.41122
353.40706
353.40802
353.41095
274.45146
274.44638
274.45585
274.48623
274.50343
274.46742
274.45743
274.45109
274.43398
274.44102
274.44292
274.46359
274.49332
274.46154
274.4651
274.50583
274.49607
274.46711
274.45131
274.45126
274.44673
274.44774
274.46929
274.4718
274.47127
274.50357
274.49291
274.46989
274.45476
274.46304
196.29771
196.25522
196.24053
196.24087
196.24739
196.25307
196.24479
196.2552
196.26961
196.29998
196.25576
196.28749
196.24383
196.28129
196.25256
196.23841
196.22589
196.26316
196.26066
196.28876
196.28786
196.26097
196.25975
196.25361
196.26711
196.2497
196.23943
196.24726
196.2523
196.29641
117.68762
117.6761
117.65417
117.67783
117.67883
117.65703
117.64426
117.63215
117.68112
117.68408
117.67001
117.65291
117.64807
117.66115
117.64442
117.65126
117.64682
117.65649
117.68772
117.68902
117.68902
117.67775
117.64878
117.65322
117.66999
117.67905
117.67239
117.65641
117.6818
117.68985
39.258456
39.251294
39.250589
39.237736
39.233659
39.232552
39.254057
39.258272
39.258869
39.262387
39.246672
39.23615
39.249164
39.251264
39.242141
39.243606
39.25433
39.247875
39.254306
39.261007
39.257663
39.247988
39.249002
39.240062
39.225
39.234993
39.237437
39.252956
39.25411
39.259455
353.4173
353.40955
353.42545
353.41879
353.42933
353.42094
353.42839
353.41945
353.42071
353.42309
353.42244
353.4227
353.41483
353.41769
353.42223
353.4252
353.41031
353.40739
353.40704
353.40707
353.41285
353.40356
353.42023
353.41949
353.41172
353.42046
353.40916
353.41659
353.40206
353.40825
274.46149
274.46298
274.50616
274.52073
274.52668
274.51049
274.51278
274.47517
274.45391
274.4551
274.48713
274.4887
274.46823
274.4729
274.49822
274.5217
274.477
274.48458
274.47887
274.46916
274.46059
274.46211
274.51157
274.53181
274.50937
274.5328
274.5237
274.51319
274.47257
274.47009
196.26628
196.24199
196.22831
196.26424
196.24605
196.2602
196.23345
196.23929
196.2591
196.28479
196.23531
196.25784
196.28901
196.2826
196.26335
196.27232
196.28206
196.29727
196.26457
196.2883
196.26902
196.24672
196.23299
196.23911
196.26072
196.25219
196.26246
196.23159
196.24149
196.26478
117.68986
117.65971
117.66639
117.68354
117.70264
117.66935
117.66367
117.65024
117.67471
117.6724
117.65633
117.67743
117.68907
117.6732
117.693
117.69531
117.67518
117.68333
117.66278
117.66891
117.67943
117.65575
117.66528
117.66365
117.67497
117.70046
117.6802
117.66569
117.65997
117.68874
39.251267
39.25097
39.243073
39.228128
39.236313
39.222366
39.240688
39.245042
39.245233
39.249947
39.244549
39.228716
39.237659
39.240977
39.23233
39.229031
39.238195
39.231824
39.246665
39.249735
39.251178
39.251477
39.253351
39.247659
39.225032
39.239175
39.226667
39.245046
39.25187
39.250559
)
;

boundaryField
{
    minX
    {
        type            calculated;
        value           nonuniform List<scalar> 
50
(
353.42624
274.45133
196.27226
117.68063
39.247636
353.42949
274.44717
196.29905
117.68357
39.260032
353.42138
274.44359
196.28799
117.68174
39.257541
353.42263
274.46076
196.28712
117.67461
39.232003
353.42762
274.50777
196.25989
117.67793
39.235333
353.43017
274.50798
196.26041
117.67778
39.235156
353.41585
274.46494
196.28707
117.67622
39.231863
353.41438
274.45125
196.28672
117.68009
39.249012
353.4208
274.45146
196.29771
117.68762
39.258456
353.4173
274.46149
196.26628
117.68986
39.251267
)
;
    }
    maxX
    {
        type            calculated;
        value           nonuniform List<scalar> 
50
(
353.40837
274.4709
196.26695
117.68854
39.249646
353.40847
274.46154
196.28516
117.68622
39.253587
353.4051
274.47652
196.29576
117.63958
39.264542
353.4047
274.47596
196.27761
117.67936
39.241042
353.41293
274.52461
196.2541
117.68169
39.233471
353.41916
274.52237
196.25443
117.69287
39.236338
353.40396
274.47665
196.2742
117.67823
39.235963
353.40347
274.46162
196.28321
117.67733
39.248259
353.41095
274.46304
196.29641
117.68985
39.259455
353.40825
274.47009
196.26478
117.68874
39.250559
)
;
    }
    minY
    {
        type            calculated;
        value           nonuniform List<scalar> 
292
(
392.4
392.4
392.4
392.4
392.4
392.4
392.4
392.4
392.4
392.4
392.4
392.4
392.4
392.4
392.4
392.4
392.4
392.4
392.4
392.4
392.4
392.4
392.4
392.4
392.4
392.4
392.4
392.4
392.4
392.4
392.4
392.4
392.4
392.4
392.4
392.4
392.4
392.4
392.4
392.4
392.4
392.4
392.4
392.4
392.4
392.4
392.4
392.4
392.4
392.4
392.4
392.4
392.4
392.4
392.4
392.4
392.4
392.4
392.4
392.4
392.4
392.4
392.4
392.4
392.4
392.4
392.4
392.4
392.4
392.4
392.4
392.4
392.4
392.4
392.4
392.4
392.4
392.4
392.4
392.4
392.4
392.4
392.4
392.4
392.4
392.4
392.4
392.4
392.4
392.4
392.4
392.4
392.4
392.4
392.4
392.4
392.4
392.4
392.4
392.4
392.4
392.4
392.4
392.4
392.4
392.4
392.4
392.4
392.4
392.4
392.4
392.4
392.4
392.4
392.4
392.4
392.4
392.4
392.4
392.4
392.4
392.4
392.4
392.4
392.4
392.4
392.4
392.4
392.4
392.4
392.4
392.4
392.4
392.4
392.4
392.4
392.4
392.4
392.4
392.4
392.4
392.4
392.4
392.4
392.4
392.4
392.4
392.4
392.4
392.4
392.4
392.4
392.4
392.4
392.4
392.4
392.4
392.4
392.4
392.4
392.4
392.4
392.4
392.4
392.4
392.4
392.4
392.4
392.4
392.4
392.4
392.4
392.4
392.4
392.4
392.4
392.4
392.4
392.4
392.4
392.4
392.4
392.4
392.4
392.4
392.4
392.4
392.4
392.4
392.4
392.4
392.4
392.4
392.4
392.4
392.4
392.4
392.4
392.4
392.4
392.4
392.4
392.4
392.4
392.4
392.4
392.4
392.4
392.4
392.4
392.4
392.4
392.4
392.4
392.4
392.4
392.4
392.4
392.4
392.4
392.4
392.4
392.4
392.4
392.4
392.4
392.4
392.4
392.4
392.4
392.4
392.4
392.4
392.4
392.4
392.4
392.4
392.4
392.4
392.4
392.4
392.4
392.4
392.4
392.4
392.4
392.4
392.4
392.4
392.4
392.4
392.4
392.4
392.4
392.4
392.4
392.4
392.4
392.4
392.4
392.4
392.4
392.4
392.4
392.4
392.4
392.4
392.4
392.4
392.4
392.4
392.4
392.4
392.4
392.4
392.4
392.4
392.4
392.4
392.4
392.4
392.4
392.4
392.4
392.4
392.4
392.4
392.4
392.4
392.4
392.4
392.4
)
;
    }
    minZ
    {
        type            calculated;
        value           nonuniform List<scalar> 
150
(
353.42624
274.45133
196.27226
117.68063
39.247636
353.42338
274.46462
196.24631
117.64428
39.248871
353.42887
274.49825
196.24838
117.66514
39.232143
353.42615
274.51941
196.26438
117.68494
39.233221
353.43401
274.52485
196.25492
117.69335
39.230324
353.41998
274.50237
196.26266
117.64964
39.222444
353.43658
274.51828
196.24055
117.65209
39.252901
353.41496
274.46014
196.25474
117.62961
39.260293
353.42571
274.44756
196.26589
117.68216
39.262866
353.41918
274.45736
196.27425
117.66628
39.249858
353.42943
274.50994
196.23882
117.65511
39.245732
353.42767
274.51219
196.23955
117.66801
39.232817
353.41363
274.46428
196.29396
117.6838
39.222591
353.41758
274.47576
196.30061
117.70432
39.241143
353.42243
274.5019
196.26076
117.69449
39.2346
353.42383
274.52458
196.26697
117.68632
39.231967
353.41248
274.48502
196.28026
117.65761
39.269134
353.42475
274.50983
196.25486
117.67758
39.247179
353.40854
274.46045
196.26626
117.65512
39.243326
353.41348
274.4559
196.27498
117.69252
39.256464
353.41657
274.45206
196.27079
117.68594
39.256057
353.4101
274.46499
196.25133
117.63706
39.255514
353.42803
274.51562
196.23851
117.6614
39.260267
353.40591
274.48668
196.26472
117.6517
39.247586
353.41663
274.51083
196.2571
117.6681
39.219316
353.41905
274.52896
196.25547
117.69764
39.240252
353.41032
274.52314
196.26403
117.68086
39.227271
353.41797
274.51582
196.23286
117.6674
39.246077
353.40222
274.47196
196.24379
117.66004
39.250413
353.40837
274.4709
196.26695
117.68854
39.249646
)
;
    }
    maxZ
    {
        type            calculated;
        value           nonuniform List<scalar> 
150
(
353.4173
274.46149
196.26628
117.68986
39.251267
353.40955
274.46298
196.24199
117.65971
39.25097
353.42545
274.50616
196.22831
117.66639
39.243073
353.41879
274.52073
196.26424
117.68354
39.228128
353.42933
274.52668
196.24605
117.70264
39.236313
353.42094
274.51049
196.2602
117.66935
39.222366
353.42839
274.51278
196.23345
117.66367
39.240688
353.41945
274.47517
196.23929
117.65024
39.245042
353.42071
274.45391
196.2591
117.67471
39.245233
353.42309
274.4551
196.28479
117.6724
39.249947
353.42244
274.48713
196.23531
117.65633
39.244549
353.4227
274.4887
196.25784
117.67743
39.228716
353.41483
274.46823
196.28901
117.68907
39.237659
353.41769
274.4729
196.2826
117.6732
39.240977
353.42223
274.49822
196.26335
117.693
39.23233
353.4252
274.5217
196.27232
117.69531
39.229031
353.41031
274.477
196.28206
117.67518
39.238195
353.40739
274.48458
196.29727
117.68333
39.231824
353.40704
274.47887
196.26457
117.66278
39.246665
353.40707
274.46916
196.2883
117.66891
39.249735
353.41285
274.46059
196.26902
117.67943
39.251178
353.40356
274.46211
196.24672
117.65575
39.251477
353.42023
274.51157
196.23299
117.66528
39.253351
353.41949
274.53181
196.23911
117.66365
39.247659
353.41172
274.50937
196.26072
117.67497
39.225032
353.42046
274.5328
196.25219
117.70046
39.239175
353.40916
274.5237
196.26246
117.6802
39.226667
353.41659
274.51319
196.23159
117.66569
39.245046
353.40206
274.47257
196.24149
117.65997
39.25187
353.40825
274.47009
196.26478
117.68874
39.250559
)
;
    }
    bottomWater_to_rightSolid
    {
        type            calculated;
        value           nonuniform List<scalar> 
130
(
0.0071787332
0.0033259544
0.016464266
0.01605733
0.015513779
0.020267183
0.0075858874
-0.020684308
0.00025240234
-0.01272897
0.0060769104
0.010412851
0.0096460638
0.0083083075
0.01402236
0.02283548
0.013631692
0.012877581
0.018342241
-0.00062915298
-0.014844609
-0.0018386682
-0.0082950579
0.010489411
0.0069753327
0.01358698
0.011761462
0.0065046889
0.012409317
0.0090759283
-0.0052387065
0.0036987955
0.017973446
0.0095792261
0.030684746
0.0099352923
0.002147382
0.0028292777
0.024541649
0.013055707
0.0030593313
-0.0093987773
-0.0057769132
-0.00014622766
0.012864933
0.016082925
0.020963617
0.028515415
0.014536405
0.012292373
-0.0020213525
0.0010423309
-0.0034816972
-0.013776162
-0.0095995276
-0.015539316
0.015966837
0.016501929
0.018745498
0.015072677
0.028605465
0.012888263
0.011683426
0.00028085863
-0.0065290033
0.0029505565
-0.011274651
-0.0047075914
0.0032211415
0.0094227576
0.00082633235
0.010293607
0.011054336
0.023648783
0.01423375
0.014599441
-0.0074945875
-0.0036623808
0.0084648523
2.6055826e-05
-0.011302956
-0.004389958
-0.0024678829
0.012636171
0.015569685
0.01905073
0.026997579
0.012797013
0.011648661
-0.0058074764
-0.0040373665
0.014184227
0.011183005
0.017425804
0.018301261
0.0037512512
0.005623128
0.019566175
0.0089859577
0.025426333
0.018929015
-0.0026072394
0.016429108
0.0082591777
0.0078750564
0.014306321
0.021007207
0.017662751
0.0079875537
0.0090018405
6.2492701e-05
-0.014999855
-0.0050068445
-0.0025625686
0.012955886
0.014109742
0.019454599
-0.008176272
0.0066652266
0.0097347511
0.011177608
0.011476606
0.013351017
0.0076587683
-0.014968172
-0.0008251023
-0.013333487
0.0050463371
0.011870108
0.010558516
)
;
    }
    bottomWater_to_leftSolid
    {
        type            calculated;
        value           nonuniform List<scalar> 
130
(
0.0076357828
0.0088707655
-0.0078567377
-0.0067793335
-0.0096757678
-0.01755591
0.012901368
0.020293105
0.022866467
0.0098578266
0.0057322233
-0.0071829956
-0.017408735
0.020031677
0.011364824
0.0046103171
-0.0021444833
-0.009920127
-0.004474991
0.021356558
0.028004445
0.033305732
0.018913202
0.017035403
0.012920543
-0.0072244377
0.017540576
0.031734038
0.009340717
-0.012046485
0.0043031779
-0.01134839
0.014240855
0.04630575
0.029808817
0.015333284
0.010889733
0.038923184
0.028321961
-0.0079967166
-0.016375226
0.0058099393
0.0070475347
0.018577177
0.021138676
0.014058039
0.0070481137
0.0068015704
-0.0038834815
-0.0063396119
0.0077848019
0.011888654
-0.00466743
0.016383439
0.024309985
0.015621445
0.02760793
0.022772457
0.02840075
0.016327213
-0.0020619455
-0.012777989
-0.010806446
-0.016155439
-0.0040348439
-0.0048435864
0.0090826947
0.026162491
0.017648294
0.028426575
0.021749573
0.018009089
0.012058883
0.01906211
-0.0075981867
-0.0095954795
-0.010552087
0.0053868955
-0.0081371596
-0.011400019
0.0046772078
0.010075297
0.02081897
0.024365612
0.019045037
0.010729406
-0.0066130416
-0.00050988451
-0.014605973
0.0038976377
0.012493106
0.0090123792
0.02044625
-0.007949718
0.012698917
0.009497597
0.0066356213
0.0029992299
0.0019768803
0.018106649
0.031252987
-0.0020888154
0.014620452
0.011773233
0.018455631
0.01129387
0.01058909
-0.0022637382
-0.0063405342
-0.0074479697
0.014056932
0.018271775
0.018868763
0.022387183
0.0066722122
-0.0038502741
0.0091641721
0.011266849
0.010969874
0.0030727022
-0.011871962
-0.0036865934
-0.017634447
0.00068811255
0.0050415428
0.0052328318
0.0099469361
0.0045486371
-0.011284442
-0.0023411118
)
;
    }
    bottomWater_to_heater
    {
        type            calculated;
        value           nonuniform List<scalar> 
92
(
0.0011432734
-0.0053996201
-0.0080331188
0.029133533
-0.0039081018
-0.0026978418
0.0049494691
-0.0014967248
0.02193042
0.021052585
0.029651541
0.028660555
353.40896
353.4128
353.416
353.40361
274.44422
274.45151
274.44742
274.44381
196.30078
196.31243
196.29201
196.26761
117.67591
117.68459
117.68093
117.67066
0.019771145
39.259771
0.025171787
39.265172
0.021351271
39.261351
0.014110293
39.25411
353.42374
353.41947
274.48286
274.47969
196.29042
196.27604
117.65284
117.66576
39.235965
39.236518
353.42421
353.40603
353.4151
353.41655
353.41424
353.40912
274.48376
274.43982
274.4511
274.44734
274.48494
274.44352
196.28305
196.2747
196.30477
196.28521
196.27778
196.26069
117.65241
117.67137
117.68375
117.68341
117.65753
117.67457
39.245387
39.258897
39.263814
39.258228
39.242951
39.252678
0.018897158
0.023814169
0.018227907
0.012677569
0.030070607
0.023068644
0.032823411
0.037219102
0.011263565
0.0021406298
0.0036058596
0.014329727
0.00097667872
-0.0076695932
-0.010969415
-0.0018049473
)
;
    }
}


// ************************************************************************* //
