/*--------------------------------*- C++ -*----------------------------------*\
| =========                 |                                                 |
| \\      /  F ield         | OpenFOAM: The Open Source CFD Toolbox           |
|  \\    /   O peration     | Version:  v2012                                 |
|   \\  /    A nd           | Website:  www.openfoam.com                      |
|    \\/     M anipulation  |                                                 |
\*---------------------------------------------------------------------------*/
FoamFile
{
    version     2.0;
    format      ascii;
    class       volScalarField;
    location    "120/bottomWater";
    object      p_rgh;
}
// * * * * * * * * * * * * * * * * * * * * * * * * * * * * * * * * * * * * * //

dimensions      [1 -1 -2 0 0 0 0];


internalField   nonuniform List<scalar> 
1460
(
0.26623639
0.26338103
0.26887379
0.26614677
0.27401222
0.25997609
0.27657508
0.25496174
0.26570796
0.25918198
0.26942868
0.26766983
0.25362505
0.25758201
0.26242759
0.26382588
0.252483
0.26474753
0.24854437
0.253475
0.25657027
0.25010422
0.26802864
0.2459124
0.25662674
0.25904846
0.25031517
0.25797197
0.24222394
0.24836664
-0.22866549
-0.21537858
-0.18174808
-0.16059242
-0.15515462
-0.1776276
-0.16172053
-0.21985637
-0.23243578
-0.22264154
-0.17006107
-0.16781071
-0.2157202
-0.20424342
-0.1780982
-0.15542241
-0.19498406
-0.17016635
-0.21954611
-0.22409774
-0.22793918
-0.21500594
-0.164385
-0.19331862
-0.16917406
-0.1510438
-0.15685522
-0.16417923
-0.20804206
-0.20910211
0.072263532
0.046310043
0.04837524
0.064381099
0.054917222
0.062655153
0.04054537
0.054736147
0.06588595
0.074246357
0.038817179
0.039549162
0.093962266
0.10061348
0.060759985
0.066969524
0.080259965
0.054856071
0.066256894
0.07497915
0.070791118
0.051329211
0.038505386
0.064718775
0.057100514
0.055471742
0.064029383
0.032859356
0.043794538
0.066949503
-0.039373668
-0.075723702
-0.054861583
-0.035057591
-0.026650918
-0.070363869
-0.067905543
-0.090389598
-0.037839878
-0.053722543
-0.064887514
-0.051990261
-0.036204645
-0.015678933
-0.025511736
-0.033679802
-0.062394348
-0.042416697
-0.064875213
-0.027480313
-0.034055365
-0.082939638
-0.058602927
-0.068300273
-0.051904448
-0.022361989
-0.03913952
-0.052603102
-0.059963622
-0.031455546
0.0076357828
0.0088707655
-0.0078567377
-0.0067793335
-0.0096757678
-0.01755591
0.012901368
0.020293105
0.022866467
0.0098578266
0.0057322233
-0.0071829956
-0.017408735
0.0011432734
-0.0053996201
-0.0080331188
0.029133533
0.0071787332
0.0033259544
0.016464266
0.01605733
0.015513779
0.020267183
0.0075858874
-0.020684308
0.00025240234
-0.01272897
0.0060769104
0.010412851
0.0096460638
0.26948854
0.26589325
0.26709113
0.26533323
0.27022944
0.25402153
0.26759528
0.25512126
0.26693694
0.25840698
0.26176799
0.26550187
0.24963789
0.25985326
0.25514471
0.26724731
0.26238137
0.25515229
0.25375894
0.25524007
0.25455891
0.25180954
0.25344706
0.24896851
0.25172739
0.25597119
0.2489108
0.24429129
0.24633378
0.24847273
-0.23283212
-0.23643824
-0.21297776
-0.18832204
-0.18158422
-0.2171128
-0.19957926
-0.22829061
-0.23814023
-0.23732595
-0.21875996
-0.18654338
-0.21067116
-0.22051468
-0.21647043
-0.17229433
-0.18474458
-0.21369402
-0.22975031
-0.23252045
-0.23840625
-0.22130555
-0.20996039
-0.21603716
-0.20595941
-0.17988566
-0.19152511
-0.20987784
-0.22111414
-0.2184578
0.099052106
0.057758576
0.038477644
0.047915648
0.047750309
0.066264514
0.044287014
0.067671491
0.09357067
0.084938124
0.061504241
0.040143058
0.075560063
0.071334333
0.052151814
0.036926903
0.04775044
0.063537594
0.065790181
0.092027131
0.075335761
0.071482869
0.063215647
0.06322596
0.059973015
0.048834748
0.046146781
0.046736483
0.059783359
0.085159621
-0.036432037
-0.063093935
-0.079516143
-0.046079165
-0.045497515
-0.081161026
-0.075024264
-0.077546091
-0.035656116
-0.043793995
-0.086331973
-0.069506724
-0.071084599
-0.049499393
-0.063517382
-0.059087538
-0.052509632
-0.054473221
-0.033718042
-0.030991333
-0.044944597
-0.074304521
-0.073414929
-0.063781452
-0.055050364
-0.043379785
-0.043473407
-0.054133883
-0.039674851
-0.033783791
0.020031677
0.011364824
0.0046103171
-0.0021444833
-0.009920127
-0.004474991
0.021356558
0.028004445
0.033305732
0.018913202
0.017035403
0.012920543
-0.0072244377
-0.0039081018
-0.0026978418
0.0049494691
-0.0014967248
0.0083083075
0.01402236
0.02283548
0.013631692
0.012877581
0.018342241
-0.00062915298
-0.014844609
-0.0018386682
-0.0082950579
0.010489411
0.0069753327
0.01358698
0.26137854
0.26052475
0.26094203
0.25581057
0.26081957
0.25598572
0.26117038
0.25675117
0.25810855
0.25699633
0.25404734
0.25429485
0.25596673
0.26162272
0.25360613
0.25398537
0.25033247
0.25073814
0.24892922
0.2506529
0.25509382
0.25093468
0.25199577
0.25127806
0.24917684
0.24783804
0.24642215
0.25071706
0.2455066
0.24510257
-0.23640501
-0.22257565
-0.22717186
-0.22531954
-0.21724603
-0.24009642
-0.21512246
-0.22513975
-0.23538693
-0.23710054
-0.22314442
-0.21870271
-0.22481485
-0.23630109
-0.23844734
-0.21997547
-0.22086581
-0.22191049
-0.21442125
-0.20656667
-0.1862143
-0.19482538
-0.22139571
-0.2307837
-0.22668482
-0.21976007
-0.22058445
-0.2205735
-0.21064001
-0.20348043
0.087993928
0.091902888
0.07182037
0.10240221
0.07492394
0.09672897
0.091356377
0.093201051
0.10643204
0.10683324
0.10446471
0.09810507
0.11137492
0.11897787
0.1029515
0.087331145
0.096922019
0.079767917
0.066088222
0.054494991
0.035110511
0.06967418
0.063988813
0.093082698
0.083989483
0.076262417
0.085567799
0.09056784
0.092443242
0.095759482
-0.038263395
-0.091443278
-0.055992292
-0.071195619
-0.052223488
-0.058748414
-0.089355093
-0.081605771
-0.065539708
-0.052218556
-0.065664477
-0.082420364
-0.073178209
-0.040305008
-0.039507054
-0.069451064
-0.050882112
-0.046165048
-0.057542981
-0.057314044
-0.056416554
-0.04135056
-0.034381129
-0.041191317
-0.054777302
-0.072864696
-0.060546818
-0.044742241
-0.060859395
-0.080417388
0.017540576
0.031734038
0.009340717
-0.012046485
0.0043031779
-0.01134839
0.014240855
0.04630575
0.029808817
0.015333284
0.010889733
0.038923184
0.028321961
0.02193042
0.021052585
0.029651541
0.028660555
0.011761462
0.0065046889
0.012409317
0.0090759283
-0.0052387065
0.0036987955
0.017973446
0.0095792261
0.030684746
0.0099352923
0.002147382
0.0028292777
0.024541649
0.26263197
0.27496904
0.270735
0.26357182
0.26681779
0.26324773
0.26502153
0.2585076
0.2597691
0.25930001
0.26358926
0.25698706
0.25097351
0.24895705
0.25280366
0.25599607
0.24360818
0.24589774
0.25719443
0.2593743
0.25987222
0.25975682
0.25269983
0.25052807
0.2551897
0.25574962
0.25097083
0.24722267
0.24836395
0.24470319
-0.21924091
-0.20068044
-0.21074864
-0.24797683
-0.24935731
-0.24480981
-0.23863133
-0.21508131
-0.21027793
-0.23302335
-0.19366314
-0.19502392
-0.22750458
-0.23577759
-0.22849471
-0.23258383
-0.23619137
-0.22601902
-0.18763284
-0.17071422
-0.16928365
-0.18612006
-0.21536129
-0.23169394
-0.22932927
-0.23356587
-0.23078175
-0.21276275
-0.19814141
-0.20404045
0.087115823
0.050381198
0.060753368
0.058427317
0.092861737
0.10508646
0.076702021
0.068148115
0.080872835
0.097058489
0.060569915
0.047696263
0.076860871
0.10078236
0.1124254
0.092006043
0.067613654
0.056944774
0.019663988
0.047897272
0.049917993
0.047952807
0.049981357
0.065922445
0.096970799
0.092043423
0.063554308
0.054629372
0.047786808
0.077606505
-0.045386808
-0.066102217
-0.087580478
-0.053927433
-0.039537594
-0.042062126
-0.058568191
-0.062988602
-0.059764806
-0.046468544
-0.048080161
-0.078304273
-0.066300104
-0.044086955
-0.035409118
-0.03906999
-0.049343443
-0.064418201
-0.061969144
-0.042650044
-0.031120718
-0.034601777
-0.065834235
-0.038332946
-0.030837894
-0.028404086
-0.047855934
-0.078730372
-0.052075547
-0.040635058
-0.0079967166
-0.016375226
0.0058099393
0.0070475347
0.018577177
0.021138676
0.014058039
0.0070481137
0.0068015704
-0.0038834815
-0.0063396119
0.0077848019
0.011888654
0.019771145
0.025171787
0.021351271
0.014110293
0.013055707
0.0030593313
-0.0093987773
-0.0057769132
-0.00014622766
0.012864933
0.016082925
0.020963617
0.028515415
0.014536405
0.012292373
-0.0020213525
0.0010423309
0.26762163
0.25311651
0.27615882
0.25625851
0.26304465
0.26271777
0.25309727
0.26617181
0.26360263
0.26432748
0.2711649
0.27016358
0.26373814
0.25947031
0.26163149
0.25903174
0.25177088
0.25326592
0.26640721
0.24791655
0.25371563
0.25686287
0.24854427
0.25558402
0.25471834
0.25292672
-0.17223075
-0.19145367
-0.1757287
-0.23292156
-0.2417525
-0.23545977
-0.22716483
-0.19159066
-0.24108291
-0.22793415
-0.1874839
-0.17652597
-0.1971391
-0.2003122
-0.17917606
-0.16613539
-0.1878715
-0.19330355
-0.17190254
-0.2219987
-0.2251308
-0.227504
-0.2282876
-0.18081522
-0.14962077
-0.15538918
0.059894405
0.07879947
0.048572241
0.053693463
0.079490745
0.085839104
0.067105753
0.032282711
0.086398092
0.098190756
0.060427256
0.070639978
0.090416511
0.07603931
0.054299065
0.062442934
0.071606389
0.073828064
0.038451938
0.05527619
0.074936761
0.088384613
0.047188346
0.038277904
0.026875243
0.054095666
-0.042067011
-0.086970859
-0.062153404
-0.087424058
-0.031503547
-0.026523047
-0.060931779
-0.047478351
-0.028054671
-0.040804098
-0.026486564
-0.057807929
-0.067156703
-0.054236548
-0.050823159
-0.027946366
-0.040467961
-0.061328932
-0.048928368
-0.060703097
-0.031586722
-0.035004463
-0.067205742
-0.056761164
-0.064078899
-0.038308377
-0.00466743
0.016383439
0.024309985
0.015621445
0.02760793
0.022772457
0.02840075
0.016327213
-0.0020619455
-0.012777989
-0.010806446
-0.016155439
-0.0040348439
-0.0034816972
-0.013776162
-0.0095995276
-0.015539316
0.015966837
0.016501929
0.018745498
0.015072677
0.028605465
0.012888263
0.011683426
0.00028085863
-0.0065290033
0.27016546
0.25663357
0.277708
0.26049806
0.27119556
0.2667603
0.26243416
0.28133583
0.2674073
0.26710297
0.27347965
0.2699638
0.26421094
0.25424016
0.25862412
0.25678317
0.2606293
0.25435404
0.26138475
0.25225216
0.25224377
0.25778561
0.24883984
0.26319311
0.25377663
0.25916343
-0.17201568
-0.19941114
-0.18008402
-0.23320521
-0.24822084
-0.2378546
-0.23390734
-0.18573011
-0.20945526
-0.21983084
-0.17769098
-0.17550859
-0.19623691
-0.19506364
-0.17764369
-0.18272827
-0.21507156
-0.22129934
-0.17105565
-0.20000249
-0.21966358
-0.22861157
-0.22121963
-0.16559721
-0.1507604
-0.15763496
0.060409518
0.078308656
0.052818511
0.051091217
0.073242159
0.081446521
0.054522219
0.034902668
0.077164753
0.084905613
0.05971716
0.064460077
0.083050885
0.077780154
0.06047173
0.054594623
0.085385131
0.080967068
0.043175043
0.04165061
0.075328142
0.063858474
0.037485584
0.037063039
0.049778155
0.054426135
-0.042218846
-0.08688824
-0.061631541
-0.095834699
-0.033351805
-0.027625452
-0.070546487
-0.047476638
-0.059945887
-0.040920313
-0.032059747
-0.054349662
-0.067587518
-0.062469221
-0.050678932
-0.026779516
-0.026601506
-0.01602623
-0.023627348
-0.042485119
-0.032250769
-0.029316352
-0.079007906
-0.053506371
-0.060253594
-0.027125186
-0.0048435864
0.0090826947
0.026162491
0.017648294
0.028426575
0.021749573
0.018009089
0.012058883
0.01906211
-0.0075981867
-0.0095954795
-0.010552087
0.0053868955
0.0029505565
-0.011274651
-0.0047075914
0.0032211415
0.0094227576
0.00082633235
0.010293607
0.011054336
0.023648783
0.01423375
0.014599441
-0.0074945875
-0.0036623808
0.25584632
0.26936925
0.26298417
0.26093496
0.26373016
0.26344649
0.26086562
0.2615618
0.27123822
0.27061561
0.26820033
0.26426644
0.25073716
0.24602875
0.25510241
0.25655347
0.2491226
0.24958149
0.25860997
0.25970162
0.25892317
0.25705964
0.2533738
0.24886142
0.25351759
0.2567234
0.25039787
0.24969011
0.25445503
0.24396052
-0.21506417
-0.20076286
-0.21672553
-0.24493968
-0.2447304
-0.24306356
-0.24237052
-0.22842479
-0.19378875
-0.18979737
-0.18162392
-0.19031891
-0.22437276
-0.24018302
-0.22890061
-0.23266204
-0.23647824
-0.21833199
-0.1840843
-0.16670144
-0.16788807
-0.18263557
-0.20156182
-0.22443444
-0.22993835
-0.23487295
-0.22714636
-0.21159546
-0.19236494
-0.2033514
0.087065243
0.049232581
0.070304835
0.058746907
0.096197911
0.10093934
0.073600055
0.052835214
0.04587357
0.04862779
0.052163296
0.024113205
0.059814842
0.074704907
0.10477298
0.085213526
0.060694077
0.051838816
0.016185127
0.052877635
0.050882529
0.048389589
0.046954487
0.06530489
0.089844877
0.087315845
0.056891857
0.050867846
0.039491536
0.074204463
-0.043781952
-0.06354489
-0.085519802
-0.043866187
-0.036987714
-0.03337515
-0.038906018
-0.066821599
-0.04134961
-0.039292042
-0.044983544
-0.077543402
-0.084571928
-0.04863046
-0.036249993
-0.036590933
-0.045430203
-0.075070505
-0.063605204
-0.043751629
-0.034175765
-0.042350133
-0.066553304
-0.048325572
-0.033876351
-0.027117384
-0.048798394
-0.069395367
-0.049756677
-0.041767659
-0.0081371596
-0.011400019
0.0046772078
0.010075297
0.02081897
0.024365612
0.019045037
0.010729406
-0.0066130416
-0.00050988451
-0.014605973
0.0038976377
0.012493106
0.018897158
0.023814169
0.018227907
0.012677569
0.0084648523
2.6055826e-05
-0.011302956
-0.004389958
-0.0024678829
0.012636171
0.015569685
0.01905073
0.026997579
0.012797013
0.011648661
-0.0058074764
-0.0040373665
0.25437659
0.25262959
0.25972539
0.25008375
0.26676854
0.25878036
0.2661175
0.26049978
0.26305144
0.25295076
0.25619901
0.25621601
0.25614476
0.26187012
0.25640989
0.25273694
0.25177967
0.24891621
0.24458415
0.24292262
0.24722352
0.23206795
0.24965131
0.24773892
0.24661403
0.24967601
0.24481383
0.24871698
0.24240219
0.24347039
-0.22875168
-0.2072642
-0.226562
-0.22148127
-0.21249437
-0.23817514
-0.24172269
-0.23125732
-0.20235902
-0.22158019
-0.21746963
-0.22396518
-0.23339257
-0.23557979
-0.23796626
-0.21925768
-0.21768972
-0.22366754
-0.21661027
-0.20370901
-0.19265587
-0.20327508
-0.21577822
-0.22801633
-0.22841868
-0.2179997
-0.21140902
-0.22149383
-0.20345079
-0.21837712
0.086718973
0.076463509
0.082446433
0.064503223
0.036813277
0.076456669
0.076893994
0.083153562
0.055659517
0.079958785
0.079589002
0.082761609
0.092532409
0.11246498
0.098096249
0.082711769
0.10506787
0.090670232
0.075841023
0.069245666
0.063354982
0.090892748
0.069215183
0.07860338
0.076983644
0.062777003
0.075574698
0.079060469
0.06860972
0.08321094
-0.039907622
-0.068948379
-0.03115227
-0.063756977
-0.05818733
-0.0539823
-0.018729801
-0.047014616
-0.061566674
-0.068150042
-0.057607491
-0.058955178
-0.058231358
-0.033086944
-0.032411321
-0.072589472
-0.057815589
-0.044339052
-0.057679193
-0.059831726
-0.059577513
-0.043935571
-0.027265078
-0.034434278
-0.048715943
-0.067149896
-0.066259644
-0.033781521
-0.060468255
-0.042668807
0.0090123792
0.02044625
-0.007949718
0.012698917
0.009497597
0.0066356213
0.0029992299
0.0019768803
0.018106649
0.031252987
-0.0020888154
0.014620452
0.011773233
0.030070607
0.023068644
0.032823411
0.037219102
0.014184227
0.011183005
0.017425804
0.018301261
0.0037512512
0.005623128
0.019566175
0.0089859577
0.025426333
0.018929015
-0.0026072394
0.016429108
0.0082591777
0.26080309
0.2570183
0.25489925
0.26108028
0.26571871
0.25975872
0.25860238
0.25941058
0.2635415
0.26335813
0.25820943
0.25869592
0.26865366
0.25952675
0.25857566
0.26590752
0.26383337
0.24802922
0.25088075
0.25085061
0.25325093
0.24871864
0.24874648
0.24717548
0.2488539
0.25787166
0.25122142
0.24705657
0.24802339
0.25095231
-0.22853884
-0.23362418
-0.22415464
-0.19376703
-0.17657329
-0.21258236
-0.22257186
-0.22891373
-0.24602235
-0.23897989
-0.23707579
-0.21641337
-0.18667708
-0.21845966
-0.21489747
-0.17417388
-0.18392769
-0.21289204
-0.22868951
-0.22874455
-0.23327491
-0.23226352
-0.21070829
-0.20820005
-0.20873192
-0.17642929
-0.18709471
-0.21010786
-0.22524229
-0.21695974
0.09771248
0.055217424
0.04052844
0.040865742
0.047389557
0.053069623
0.044789626
0.05519997
0.069609929
0.099980982
0.05575703
0.087488302
0.043830841
0.081291226
0.05255997
0.038413946
0.025885411
0.063159349
0.06066443
0.088755005
0.08785988
0.060970954
0.059753333
0.053611873
0.067112401
0.049698469
0.039428658
0.047260566
0.052302088
0.096413973
-0.032377027
-0.043900854
-0.065831893
-0.042169199
-0.041168086
-0.06297251
-0.075741324
-0.08784712
-0.03887617
-0.035923567
-0.049986027
-0.067092865
-0.071927397
-0.058849257
-0.075582634
-0.068739242
-0.073184561
-0.063507696
-0.032280048
-0.030983393
-0.030977994
-0.042252128
-0.071222134
-0.066780555
-0.050013279
-0.040954592
-0.047606048
-0.063593603
-0.038201394
-0.030151886
0.018455631
0.01129387
0.01058909
-0.0022637382
-0.0063405342
-0.0074479697
0.014056932
0.018271775
0.018868763
0.022387183
0.0066722122
-0.0038502741
0.0091641721
0.011263565
0.0021406298
0.0036058596
0.014329727
0.0078750564
0.014306321
0.021007207
0.017662751
0.0079875537
0.0090018405
6.2492701e-05
-0.014999855
-0.0050068445
-0.0025625686
0.012955886
0.014109742
0.019454599
0.25729801
0.24955254
0.26544893
0.25878901
0.26933493
0.2609411
0.2683889
0.25944529
0.26070679
0.26308844
0.26243884
0.26270346
0.25483076
0.25768586
0.2622338
0.26520035
0.25031446
0.24739133
0.24703636
0.24706812
0.25285268
0.24356294
0.26023017
0.25948613
0.25171874
0.26045768
0.24916057
0.25659047
0.24206127
0.24824907
-0.2185054
-0.21701933
-0.17383996
-0.15926786
-0.15332098
-0.16950742
-0.16721524
-0.20483214
-0.22608552
-0.22490173
-0.1928712
-0.19129509
-0.21177211
-0.20710029
-0.18177671
-0.15830226
-0.20299711
-0.19542467
-0.20113494
-0.21083603
-0.2194106
-0.21788623
-0.16842593
-0.14818761
-0.17063349
-0.14720443
-0.15629605
-0.16681232
-0.20742974
-0.20991018
0.066283817
0.041992609
0.028311663
0.064242096
0.046046224
0.060202132
0.033447391
0.039293788
0.059098736
0.084785284
0.035305411
0.057843646
0.089007559
0.082600732
0.063346527
0.072324736
0.082056128
0.097270699
0.064570954
0.088304141
0.069017633
0.046720687
0.032990404
0.039109242
0.060715238
0.052194712
0.062456943
0.031585399
0.041490023
0.064778139
-0.030136302
-0.060285807
-0.053610347
-0.036459719
-0.017360321
-0.050653271
-0.056334903
-0.069757604
-0.045290289
-0.047595206
-0.063670296
-0.042573728
-0.030926549
-0.046804687
-0.027002198
-0.024688144
-0.044820528
-0.036665727
-0.057222206
-0.051087607
-0.040573942
-0.064245984
-0.054716537
-0.056354707
-0.045031671
-0.019544696
-0.039796372
-0.054307298
-0.060029728
-0.031259475
0.011266849
0.010969874
0.0030727022
-0.011871962
-0.0036865934
-0.017634447
0.00068811255
0.0050415428
0.0052328318
0.0099469361
0.0045486371
-0.011284442
-0.0023411118
0.00097667872
-0.0076695932
-0.010969415
-0.0018049473
-0.008176272
0.0066652266
0.0097347511
0.011177608
0.011476606
0.013351017
0.0076587683
-0.014968172
-0.0008251023
-0.013333487
0.0050463371
0.011870108
0.010558516
)
;

boundaryField
{
    minX
    {
        type            fixedFluxPressure;
        gradient        uniform 0;
        value           nonuniform List<scalar> 
50
(
0.26623639
-0.22866549
0.072263532
-0.039373668
0.0076357828
0.26948854
-0.23283212
0.099052106
-0.036432037
0.020031677
0.26137854
-0.23640501
0.087993928
-0.038263395
0.017540576
0.26263197
-0.21924091
0.087115823
-0.045386808
-0.0079967166
0.26762163
-0.17223075
0.059894405
-0.042067011
-0.00466743
0.27016546
-0.17201568
0.060409518
-0.042218846
-0.0048435864
0.25584632
-0.21506417
0.087065243
-0.043781952
-0.0081371596
0.25437659
-0.22875168
0.086718973
-0.039907622
0.0090123792
0.26080309
-0.22853884
0.09771248
-0.032377027
0.018455631
0.25729801
-0.2185054
0.066283817
-0.030136302
0.011266849
)
;
    }
    maxX
    {
        type            fixedFluxPressure;
        gradient        uniform 0;
        value           nonuniform List<scalar> 
50
(
0.24836664
-0.20910211
0.066949503
-0.031455546
0.0096460638
0.24847273
-0.2184578
0.085159621
-0.033783791
0.01358698
0.24510257
-0.20348043
0.095759482
-0.080417388
0.024541649
0.24470319
-0.20404045
0.077606505
-0.040635058
0.0010423309
0.25292672
-0.15538918
0.054095666
-0.038308377
-0.0065290033
0.25916343
-0.15763496
0.054426135
-0.027125186
-0.0036623808
0.24396052
-0.2033514
0.074204463
-0.041767659
-0.0040373665
0.24347039
-0.21837712
0.08321094
-0.042668807
0.0082591777
0.25095231
-0.21695974
0.096413973
-0.030151886
0.019454599
0.24824907
-0.20991018
0.064778139
-0.031259475
0.010558516
)
;
    }
    minY
    {
        type            fixedValue;
        value           uniform 0;
    }
    minZ
    {
        type            fixedFluxPressure;
        gradient        uniform 0;
        value           nonuniform List<scalar> 
150
(
0.26623639
-0.22866549
0.072263532
-0.039373668
0.0076357828
0.26338103
-0.21537858
0.046310043
-0.075723702
0.0088707655
0.26887379
-0.18174808
0.04837524
-0.054861583
-0.0078567377
0.26614677
-0.16059242
0.064381099
-0.035057591
-0.0067793335
0.27401222
-0.15515462
0.054917222
-0.026650918
-0.0096757678
0.25997609
-0.1776276
0.062655153
-0.070363869
-0.01755591
0.27657508
-0.16172053
0.04054537
-0.067905543
0.012901368
0.25496174
-0.21985637
0.054736147
-0.090389598
0.020293105
0.26570796
-0.23243578
0.06588595
-0.037839878
0.022866467
0.25918198
-0.22264154
0.074246357
-0.053722543
0.0098578266
0.26942868
-0.17006107
0.038817179
-0.064887514
0.0057322233
0.26766983
-0.16781071
0.039549162
-0.051990261
-0.0071829956
0.25362505
-0.2157202
0.093962266
-0.036204645
-0.017408735
0.25758201
-0.20424342
0.10061348
-0.015678933
0.0011432734
0.26242759
-0.1780982
0.060759985
-0.025511736
-0.0053996201
0.26382588
-0.15542241
0.066969524
-0.033679802
-0.0080331188
0.252483
-0.19498406
0.080259965
-0.062394348
0.029133533
0.26474753
-0.17016635
0.054856071
-0.042416697
0.0071787332
0.24854437
-0.21954611
0.066256894
-0.064875213
0.0033259544
0.253475
-0.22409774
0.07497915
-0.027480313
0.016464266
0.25657027
-0.22793918
0.070791118
-0.034055365
0.01605733
0.25010422
-0.21500594
0.051329211
-0.082939638
0.015513779
0.26802864
-0.164385
0.038505386
-0.058602927
0.020267183
0.2459124
-0.19331862
0.064718775
-0.068300273
0.0075858874
0.25662674
-0.16917406
0.057100514
-0.051904448
-0.020684308
0.25904846
-0.1510438
0.055471742
-0.022361989
0.00025240234
0.25031517
-0.15685522
0.064029383
-0.03913952
-0.01272897
0.25797197
-0.16417923
0.032859356
-0.052603102
0.0060769104
0.24222394
-0.20804206
0.043794538
-0.059963622
0.010412851
0.24836664
-0.20910211
0.066949503
-0.031455546
0.0096460638
)
;
    }
    maxZ
    {
        type            fixedFluxPressure;
        gradient        uniform 0;
        value           nonuniform List<scalar> 
150
(
0.25729801
-0.2185054
0.066283817
-0.030136302
0.011266849
0.24955254
-0.21701933
0.041992609
-0.060285807
0.010969874
0.26544893
-0.17383996
0.028311663
-0.053610347
0.0030727022
0.25878901
-0.15926786
0.064242096
-0.036459719
-0.011871962
0.26933493
-0.15332098
0.046046224
-0.017360321
-0.0036865934
0.2609411
-0.16950742
0.060202132
-0.050653271
-0.017634447
0.2683889
-0.16721524
0.033447391
-0.056334903
0.00068811255
0.25944529
-0.20483214
0.039293788
-0.069757604
0.0050415428
0.26070679
-0.22608552
0.059098736
-0.045290289
0.0052328318
0.26308844
-0.22490173
0.084785284
-0.047595206
0.0099469361
0.26243884
-0.1928712
0.035305411
-0.063670296
0.0045486371
0.26270346
-0.19129509
0.057843646
-0.042573728
-0.011284442
0.25483076
-0.21177211
0.089007559
-0.030926549
-0.0023411118
0.25768586
-0.20710029
0.082600732
-0.046804687
0.00097667872
0.2622338
-0.18177671
0.063346527
-0.027002198
-0.0076695932
0.26520035
-0.15830226
0.072324736
-0.024688144
-0.010969415
0.25031446
-0.20299711
0.082056128
-0.044820528
-0.0018049473
0.24739133
-0.19542467
0.097270699
-0.036665727
-0.008176272
0.24703636
-0.20113494
0.064570954
-0.057222206
0.0066652266
0.24706812
-0.21083603
0.088304141
-0.051087607
0.0097347511
0.25285268
-0.2194106
0.069017633
-0.040573942
0.011177608
0.24356294
-0.21788623
0.046720687
-0.064245984
0.011476606
0.26023017
-0.16842593
0.032990404
-0.054716537
0.013351017
0.25948613
-0.14818761
0.039109242
-0.056354707
0.0076587683
0.25171874
-0.17063349
0.060715238
-0.045031671
-0.014968172
0.26045768
-0.14720443
0.052194712
-0.019544696
-0.0008251023
0.24916057
-0.15629605
0.062456943
-0.039796372
-0.013333487
0.25659047
-0.16681232
0.031585399
-0.054307298
0.0050463371
0.24206127
-0.20742974
0.041490023
-0.060029728
0.011870108
0.24824907
-0.20991018
0.064778139
-0.031259475
0.010558516
)
;
    }
    bottomWater_to_rightSolid
    {
        type            fixedFluxPressure;
        gradient        uniform 0;
        value           nonuniform List<scalar> 
130
(
0.0071787332
0.0033259544
0.016464266
0.01605733
0.015513779
0.020267183
0.0075858874
-0.020684308
0.00025240234
-0.01272897
0.0060769104
0.010412851
0.0096460638
0.0083083075
0.01402236
0.02283548
0.013631692
0.012877581
0.018342241
-0.00062915298
-0.014844609
-0.0018386682
-0.0082950579
0.010489411
0.0069753327
0.01358698
0.011761462
0.0065046889
0.012409317
0.0090759283
-0.0052387065
0.0036987955
0.017973446
0.0095792261
0.030684746
0.0099352923
0.002147382
0.0028292777
0.024541649
0.013055707
0.0030593313
-0.0093987773
-0.0057769132
-0.00014622766
0.012864933
0.016082925
0.020963617
0.028515415
0.014536405
0.012292373
-0.0020213525
0.0010423309
-0.0034816972
-0.013776162
-0.0095995276
-0.015539316
0.015966837
0.016501929
0.018745498
0.015072677
0.028605465
0.012888263
0.011683426
0.00028085863
-0.0065290033
0.0029505565
-0.011274651
-0.0047075914
0.0032211415
0.0094227576
0.00082633235
0.010293607
0.011054336
0.023648783
0.01423375
0.014599441
-0.0074945875
-0.0036623808
0.0084648523
2.6055826e-05
-0.011302956
-0.004389958
-0.0024678829
0.012636171
0.015569685
0.01905073
0.026997579
0.012797013
0.011648661
-0.0058074764
-0.0040373665
0.014184227
0.011183005
0.017425804
0.018301261
0.0037512512
0.005623128
0.019566175
0.0089859577
0.025426333
0.018929015
-0.0026072394
0.016429108
0.0082591777
0.0078750564
0.014306321
0.021007207
0.017662751
0.0079875537
0.0090018405
6.2492701e-05
-0.014999855
-0.0050068445
-0.0025625686
0.012955886
0.014109742
0.019454599
-0.008176272
0.0066652266
0.0097347511
0.011177608
0.011476606
0.013351017
0.0076587683
-0.014968172
-0.0008251023
-0.013333487
0.0050463371
0.011870108
0.010558516
)
;
    }
    bottomWater_to_leftSolid
    {
        type            fixedFluxPressure;
        gradient        uniform 0;
        value           nonuniform List<scalar> 
130
(
0.0076357828
0.0088707655
-0.0078567377
-0.0067793335
-0.0096757678
-0.01755591
0.012901368
0.020293105
0.022866467
0.0098578266
0.0057322233
-0.0071829956
-0.017408735
0.020031677
0.011364824
0.0046103171
-0.0021444833
-0.009920127
-0.004474991
0.021356558
0.028004445
0.033305732
0.018913202
0.017035403
0.012920543
-0.0072244377
0.017540576
0.031734038
0.009340717
-0.012046485
0.0043031779
-0.01134839
0.014240855
0.04630575
0.029808817
0.015333284
0.010889733
0.038923184
0.028321961
-0.0079967166
-0.016375226
0.0058099393
0.0070475347
0.018577177
0.021138676
0.014058039
0.0070481137
0.0068015704
-0.0038834815
-0.0063396119
0.0077848019
0.011888654
-0.00466743
0.016383439
0.024309985
0.015621445
0.02760793
0.022772457
0.02840075
0.016327213
-0.0020619455
-0.012777989
-0.010806446
-0.016155439
-0.0040348439
-0.0048435864
0.0090826947
0.026162491
0.017648294
0.028426575
0.021749573
0.018009089
0.012058883
0.01906211
-0.0075981867
-0.0095954795
-0.010552087
0.0053868955
-0.0081371596
-0.011400019
0.0046772078
0.010075297
0.02081897
0.024365612
0.019045037
0.010729406
-0.0066130416
-0.00050988451
-0.014605973
0.0038976377
0.012493106
0.0090123792
0.02044625
-0.007949718
0.012698917
0.009497597
0.0066356213
0.0029992299
0.0019768803
0.018106649
0.031252987
-0.0020888154
0.014620452
0.011773233
0.018455631
0.01129387
0.01058909
-0.0022637382
-0.0063405342
-0.0074479697
0.014056932
0.018271775
0.018868763
0.022387183
0.0066722122
-0.0038502741
0.0091641721
0.011266849
0.010969874
0.0030727022
-0.011871962
-0.0036865934
-0.017634447
0.00068811255
0.0050415428
0.0052328318
0.0099469361
0.0045486371
-0.011284442
-0.0023411118
)
;
    }
    bottomWater_to_heater
    {
        type            fixedFluxPressure;
        gradient        uniform 0;
        value           nonuniform List<scalar> 
92
(
0.0011432734
-0.0053996201
-0.0080331188
0.029133533
-0.0039081018
-0.0026978418
0.0049494691
-0.0014967248
0.02193042
0.021052585
0.029651541
0.028660555
0.24895705
0.25280366
0.25599607
0.24360818
-0.23577759
-0.22849471
-0.23258383
-0.23619137
0.10078236
0.1124254
0.092006043
0.067613654
-0.044086955
-0.035409118
-0.03906999
-0.049343443
0.019771145
0.019771145
0.025171787
0.025171787
0.021351271
0.021351271
0.014110293
0.014110293
0.26373814
0.25947031
-0.1971391
-0.2003122
0.090416511
0.07603931
-0.067156703
-0.054236548
-0.0040348439
-0.0034816972
0.26421094
0.24602875
0.25510241
0.25655347
0.25424016
0.2491226
-0.19623691
-0.24018302
-0.22890061
-0.23266204
-0.19506364
-0.23647824
0.083050885
0.074704907
0.10477298
0.085213526
0.077780154
0.060694077
-0.067587518
-0.04863046
-0.036249993
-0.036590933
-0.062469221
-0.045430203
0.0053868955
0.018897158
0.023814169
0.018227907
0.0029505565
0.012677569
0.018897158
0.023814169
0.018227907
0.012677569
0.030070607
0.023068644
0.032823411
0.037219102
0.011263565
0.0021406298
0.0036058596
0.014329727
0.00097667872
-0.0076695932
-0.010969415
-0.0018049473
)
;
    }
}


// ************************************************************************* //
