/*--------------------------------*- C++ -*----------------------------------*\
| =========                 |                                                 |
| \\      /  F ield         | OpenFOAM: The Open Source CFD Toolbox           |
|  \\    /   O peration     | Version:  v2012                                 |
|   \\  /    A nd           | Website:  www.openfoam.com                      |
|    \\/     M anipulation  |                                                 |
\*---------------------------------------------------------------------------*/
FoamFile
{
    version     2.0;
    format      ascii;
    class       volScalarField;
    location    "42";
    object      p;
}
// * * * * * * * * * * * * * * * * * * * * * * * * * * * * * * * * * * * * * //

dimensions      [0 2 -2 0 0 0 0];


internalField   nonuniform List<scalar> 
64000
(
-5.35232e-22
-4.37337e-21
-3.39168e-21
-5.88341e-21
-9.21311e-21
-3.47681e-21
-5.26652e-21
-5.0146e-21
-5.77157e-21
-6.24757e-21
-4.31798e-21
-7.51435e-21
-5.15166e-21
-7.318e-21
-4.81389e-21
-6.0453e-21
-1.73734e-21
-1.35396e-21
-1.939e-21
-2.73337e-21
-1.78756e-21
-2.71816e-21
-3.19425e-21
-3.54799e-21
-2.70838e-21
-1.34244e-21
1.06626e-21
-5.24866e-21
-2.63291e-21
-1.82821e-21
-1.73423e-21
-1.34749e-21
-1.95772e-21
-1.37196e-21
-1.65164e-21
-4.96154e-21
-1.42255e-22
-8.05697e-22
-1.08739e-21
-5.43846e-22
-7.24063e-21
-1.0477e-20
-1.13196e-20
-1.06157e-20
-1.19026e-20
-1.17852e-20
-9.23613e-21
-7.18931e-21
-4.78921e-21
-1.16702e-20
-1.20365e-20
-1.1601e-20
-6.51748e-21
-6.62532e-21
-7.8478e-21
-7.21098e-21
-4.62462e-21
9.51511e-22
-1.60726e-21
-6.42926e-21
6.43969e-22
-3.80118e-21
-6.57163e-21
-1.00297e-20
-5.23064e-21
-2.96589e-21
-3.03584e-21
-5.30534e-21
-3.1247e-21
-2.86681e-21
4.0663e-22
-1.00997e-21
-5.4841e-21
-3.52177e-21
-8.87646e-22
-1.56803e-21
-5.31754e-22
2.54829e-23
-2.09319e-21
-2.30034e-21
-6.21574e-21
-8.67583e-21
-1.40207e-20
-1.24643e-20
-1.04415e-20
-1.16912e-20
-1.15691e-20
-8.69119e-21
-8.65435e-21
-1.06792e-20
-9.21258e-21
-1.03739e-20
-9.36351e-21
-6.87281e-21
-5.61435e-21
-2.92798e-21
-9.86963e-21
-4.30922e-21
-1.0606e-21
-1.40203e-21
-3.42196e-21
-7.18595e-21
-7.20862e-21
-7.39317e-21
-4.1069e-21
-4.4891e-21
-3.97517e-21
-5.73259e-21
-3.99211e-21
-4.43351e-21
-1.75277e-21
-1.30516e-21
-3.68648e-21
-1.44622e-21
-1.8403e-21
-1.83762e-21
-1.05449e-22
1.25569e-21
-5.61012e-22
1.1959e-23
-9.22348e-21
-1.01679e-20
-1.18417e-20
-1.53047e-20
-1.27812e-20
-1.60014e-20
-1.59154e-20
-8.22521e-21
-9.44229e-21
-1.1564e-20
-1.0459e-20
-1.07996e-20
-9.9973e-21
-7.01979e-21
-7.48045e-21
-5.9489e-21
-5.89899e-21
-5.88096e-21
-4.10251e-23
-1.29044e-21
-5.46579e-21
-6.19942e-21
-1.06309e-20
-8.48118e-21
-8.79579e-21
-1.10239e-21
-4.61816e-21
-3.68658e-21
-4.57859e-21
-5.38953e-21
-1.31685e-21
-1.36908e-21
-2.67615e-21
-2.19356e-21
-2.33506e-21
-1.6671e-21
-1.59781e-21
7.27534e-22
-1.55473e-21
-1.93352e-22
-1.69668e-20
-1.19877e-20
-1.13085e-20
-1.39441e-20
-1.32298e-20
-1.65379e-20
-1.3725e-20
-9.39003e-21
-7.56802e-21
-1.37706e-20
-1.37129e-20
-7.86194e-21
-8.5635e-21
-6.87714e-21
-1.13298e-20
-1.28477e-20
-5.46283e-21
-2.41798e-21
-5.09664e-21
-1.15222e-21
-4.02074e-21
-6.06464e-21
-9.21059e-21
-9.74907e-21
-6.00554e-21
-2.63547e-21
-3.57099e-21
-4.73509e-21
-7.18998e-21
-2.39333e-21
-1.25575e-21
5.15219e-22
-1.50937e-21
-1.67579e-21
-4.41358e-21
-3.2066e-21
-7.41086e-22
-5.58174e-22
1.20843e-21
-1.32759e-21
-1.45569e-20
-1.158e-20
-9.88765e-21
-1.46458e-20
-1.40224e-20
-1.39224e-20
-1.08801e-20
-1.39612e-20
-1.30293e-20
-1.31379e-20
-1.17769e-20
-8.84274e-21
-1.01635e-20
-7.31209e-21
-9.73944e-21
-1.14155e-20
-5.42037e-21
-3.60103e-21
-2.65658e-21
-4.34792e-21
-3.67013e-21
-4.76973e-21
-9.79702e-21
-9.77847e-21
-9.19371e-21
-1.49767e-21
-3.80154e-21
-2.7671e-21
-5.77056e-21
-3.67308e-21
-3.97844e-21
-2.96435e-21
-1.48356e-21
-1.54238e-21
-3.02846e-21
-8.01574e-22
-1.02752e-21
-4.89869e-22
1.30805e-22
5.29408e-22
-1.55736e-20
-1.63401e-20
-9.55346e-21
-1.22292e-20
-1.45089e-20
-1.47373e-20
-1.14234e-20
-1.29927e-20
-1.42832e-20
-1.29651e-20
-1.17131e-20
-1.13053e-20
-8.5782e-21
-9.1105e-21
-8.83201e-21
-9.94462e-21
-6.88669e-21
-1.20246e-21
-2.29749e-21
-3.98446e-21
-5.31666e-21
-9.75542e-21
-1.0956e-20
-1.10453e-20
-4.72571e-21
-5.99783e-21
-5.71843e-21
-1.21672e-21
-3.96971e-21
-2.62556e-21
-6.00704e-21
-5.04491e-21
1.6473e-21
-1.1912e-21
-3.19352e-21
-3.00948e-21
-5.54638e-22
-7.4541e-23
-1.64602e-21
-6.37074e-22
-1.50941e-20
-1.49059e-20
-1.24913e-20
-1.09848e-20
-1.43512e-20
-1.33927e-20
-1.22048e-20
-1.86967e-20
-1.61405e-20
-1.35765e-20
-1.05361e-20
-9.91386e-21
-9.46278e-21
-1.05245e-20
-8.18808e-21
-9.79558e-21
-6.12968e-21
-2.69361e-21
-4.75628e-21
-2.84114e-21
-4.52062e-21
-8.91171e-21
-9.68027e-21
-9.96705e-21
-5.87631e-21
-7.21164e-21
-5.13551e-21
-2.69944e-21
-4.26457e-21
-3.76684e-21
-4.5777e-21
-3.99487e-21
-2.25275e-22
-2.64817e-21
-5.45349e-21
-5.28824e-21
-7.68681e-22
1.76272e-22
-3.94813e-22
-1.55657e-21
-1.98904e-20
-1.62195e-20
-1.24483e-20
-1.38691e-20
-1.5098e-20
-1.6173e-20
-1.44028e-20
-1.40942e-20
-1.43716e-20
-1.68349e-20
-8.5749e-21
-9.00586e-21
-1.19437e-20
-1.00416e-20
-1.01712e-20
-9.63113e-21
-4.77116e-21
-2.83176e-22
-5.8349e-21
-7.8488e-21
-2.93456e-21
-8.34827e-21
-1.26575e-20
-8.3763e-21
-4.39954e-21
-6.35429e-21
-7.82866e-21
-5.8428e-21
-3.67796e-21
-4.88309e-21
-3.55519e-21
-2.18885e-21
-4.16906e-24
-2.61221e-21
-6.14556e-21
-3.39378e-21
-2.83951e-22
-2.6531e-22
-1.22491e-21
-2.42276e-21
-1.29481e-20
-1.34169e-20
-1.34347e-20
-1.27046e-20
-1.68455e-20
-1.73961e-20
-1.38063e-20
-1.36845e-20
-1.34109e-20
-1.50037e-20
-1.3041e-20
-8.07005e-21
-9.93197e-21
-1.04309e-20
-1.13641e-20
-8.63728e-21
-6.33733e-21
-3.71019e-21
-1.61448e-21
-4.47203e-21
-7.01994e-21
-7.17785e-21
-1.1743e-20
-9.85413e-21
-8.04377e-21
-5.65449e-21
-4.13194e-21
-3.72151e-21
-5.58769e-21
-4.7916e-21
-1.63087e-21
-1.55333e-21
-2.10452e-21
-2.00636e-21
-4.86959e-21
-5.7908e-21
-2.50645e-21
-3.02973e-22
-9.08005e-22
-1.50358e-22
-1.10954e-20
-1.45475e-20
-1.4872e-20
-1.722e-20
-1.47815e-20
-1.61233e-20
-1.8403e-20
-1.21476e-20
-1.42524e-20
-1.52776e-20
-1.11488e-20
-8.4943e-21
-9.8589e-21
-1.05602e-20
-1.15848e-20
-1.16983e-20
-8.39777e-21
-2.89219e-22
1.43022e-21
-3.32555e-21
-9.70747e-21
-1.29088e-20
-1.05175e-20
-1.07193e-20
-1.04861e-20
-5.23955e-21
-5.17124e-22
-2.53683e-21
-4.97689e-21
-8.09157e-21
-2.60135e-21
7.21134e-22
-4.49501e-21
-8.08613e-22
-2.80708e-21
-6.80189e-21
-2.0754e-21
-1.19331e-21
-1.34034e-21
-7.61433e-22
-1.16897e-20
-1.56566e-20
-1.55298e-20
-1.51123e-20
-1.57551e-20
-1.90921e-20
-1.42521e-20
-1.57404e-20
-1.10655e-20
-1.43452e-20
-1.67751e-20
-9.48708e-21
-7.09893e-21
-1.14561e-20
-1.26765e-20
-1.10923e-20
-7.4382e-21
-1.06853e-21
-1.85133e-21
-2.4652e-21
-7.54389e-21
-1.22827e-20
-1.14868e-20
-1.1306e-20
-1.11542e-20
-3.4463e-21
-3.36261e-21
-4.66051e-21
-5.65511e-21
-3.84308e-21
-1.48899e-21
-1.59738e-21
-2.84485e-21
-3.16287e-21
-3.35238e-21
-3.23998e-21
-6.42084e-22
-1.00276e-21
-2.37772e-21
-3.14027e-21
-1.63209e-20
-1.52667e-20
-1.53196e-20
-1.5412e-20
-1.79953e-20
-1.74466e-20
-1.71692e-20
-1.7613e-20
-1.36693e-20
-1.33927e-20
-1.43137e-20
-9.08875e-21
-8.9398e-21
-1.17376e-20
-1.05616e-20
-1.07106e-20
-6.95295e-21
-2.67314e-21
-1.77323e-21
-5.23791e-21
-7.17423e-21
-1.18767e-20
-1.05205e-20
-1.16926e-20
-6.50845e-21
-3.66573e-21
-4.64033e-21
-8.26436e-21
-4.6115e-21
-1.14919e-21
-5.73888e-21
-3.19507e-21
5.61591e-22
-5.10672e-21
-6.57792e-21
-1.82463e-21
8.35088e-23
-1.63059e-21
-9.38077e-22
-1.51508e-21
-1.94724e-20
-1.94659e-20
-1.57462e-20
-1.80102e-20
-1.49101e-20
-1.51207e-20
-1.70744e-20
-1.63166e-20
-1.22386e-20
-1.63797e-20
-1.28093e-20
-1.10117e-20
-1.15639e-20
-1.15889e-20
-1.10493e-20
-1.04633e-20
-7.36223e-21
-1.35277e-21
-2.73319e-21
-5.42638e-21
-8.58011e-21
-1.13398e-20
-1.25099e-20
-9.52292e-21
-6.28321e-21
-1.87613e-21
-8.12377e-22
-6.74434e-21
-7.03547e-21
4.27269e-22
-3.12791e-21
-7.14375e-21
-2.27744e-21
-2.94847e-21
-6.12764e-21
-3.45999e-21
-1.74038e-21
-3.41367e-23
4.33436e-22
-1.6165e-21
-1.30654e-20
-2.04957e-20
-1.96393e-20
-1.65596e-20
-1.38858e-20
-1.69687e-20
-1.91911e-20
-2.01577e-20
-1.43488e-20
-1.22501e-20
-1.03912e-20
-1.43224e-20
-1.30137e-20
-9.89562e-21
-8.41067e-21
-9.8312e-21
-9.30017e-21
-5.93455e-21
-5.59888e-21
-7.06248e-21
-1.08232e-20
-7.09233e-21
-9.23306e-21
-1.0075e-20
-6.41097e-21
-3.75052e-21
-3.87924e-21
-5.38662e-21
-4.02182e-21
-1.92727e-21
-1.2798e-21
-3.33812e-21
-3.37357e-21
-2.22648e-21
-5.14742e-21
-2.7552e-21
-4.30098e-22
-1.97965e-21
-1.49339e-21
7.88966e-22
-1.40996e-20
-1.55493e-20
-1.95435e-20
-1.64618e-20
-1.75237e-20
-1.63873e-20
-1.72791e-20
-1.86397e-20
-1.34369e-20
-1.05636e-20
-1.41799e-20
-1.23632e-20
-1.2736e-20
-1.04382e-20
-1.16888e-20
-1.18088e-20
-7.98308e-21
-6.63115e-21
-4.63417e-21
-5.83781e-21
-1.06445e-20
-1.10262e-20
-1.024e-20
-6.20302e-21
-3.7923e-21
-5.5012e-21
-5.90008e-21
-3.42616e-21
-3.28419e-21
-1.37181e-21
-1.99575e-21
-2.81137e-21
-4.07399e-21
-3.43235e-21
-6.71348e-21
-4.78039e-21
1.28829e-21
4.21504e-22
-1.44502e-21
2.85336e-22
-1.51291e-20
-1.46828e-20
-1.80138e-20
-1.41098e-20
-1.46429e-20
-1.65717e-20
-1.85874e-20
-1.91815e-20
-1.50719e-20
-1.33816e-20
-1.11223e-20
-1.51954e-20
-7.66943e-21
-1.14884e-20
-1.26105e-20
-9.42659e-21
-9.07211e-21
-7.4767e-21
-7.91329e-21
-5.093e-21
-1.15483e-20
-9.25734e-21
-1.09665e-20
-5.86532e-21
-5.56395e-21
-6.69375e-22
-4.8192e-21
-7.63975e-21
-1.44692e-21
-3.0274e-21
-1.2787e-21
-4.39103e-21
-5.01102e-21
-1.41239e-21
-2.68806e-21
-3.93305e-21
-1.55259e-21
-8.49194e-22
3.51739e-22
-1.08922e-21
-1.12334e-20
-1.58967e-20
-2.01782e-20
-1.4476e-20
-1.28328e-20
-1.84571e-20
-1.56076e-20
-1.58018e-20
-1.63403e-20
-1.51361e-20
-1.36112e-20
-1.28269e-20
-9.41364e-21
-9.91388e-21
-1.66812e-20
-1.13697e-20
-8.95234e-21
-2.61635e-21
-6.73239e-21
-7.62843e-21
-1.53024e-20
-8.98755e-21
-6.29828e-21
-5.39429e-21
-4.98026e-21
-5.51706e-21
-5.68659e-21
-5.19865e-21
-3.47002e-21
-3.78392e-21
-2.41514e-21
-9.99409e-22
-3.02032e-21
-1.74191e-21
-1.33892e-21
-2.77289e-21
-2.28822e-21
-2.74211e-21
1.49584e-21
1.49843e-22
-9.18083e-21
-1.27397e-20
-1.71101e-20
-1.60947e-20
-1.58154e-20
-1.53883e-20
-1.53267e-20
-1.50946e-20
-1.61043e-20
-1.55078e-20
-1.32104e-20
-1.29956e-20
-1.05903e-20
-7.67437e-21
-1.39127e-20
-1.43181e-20
-9.73737e-21
-7.89203e-21
-1.06387e-20
-1.03199e-20
-1.12128e-20
-2.63729e-21
-5.74136e-21
-6.20264e-21
-4.01345e-21
-5.14095e-21
-7.13157e-21
-4.1381e-21
-2.99754e-21
-4.03721e-21
-6.0195e-21
-1.0918e-21
-1.55746e-21
-2.03156e-21
-1.33557e-22
-2.29279e-21
-6.22576e-22
-1.29019e-21
-2.43928e-21
-2.85284e-21
-6.63445e-21
-1.41357e-20
-1.89367e-20
-1.71542e-20
-1.48353e-20
-1.29388e-20
-1.2273e-20
-1.54707e-20
-1.95326e-20
-1.61971e-20
-1.17578e-20
-1.15297e-20
-1.23201e-20
-1.11174e-20
-1.27138e-20
-1.19358e-20
-8.16999e-21
-7.26339e-21
-1.37616e-20
-8.99918e-21
-9.42426e-21
-7.40133e-21
-5.48638e-21
-6.31506e-21
-2.59576e-21
-2.52044e-21
-1.0737e-20
-8.62886e-21
-6.49511e-21
-1.04478e-21
-1.79013e-21
-1.10138e-21
-2.12426e-21
-1.34757e-21
-1.57774e-21
-2.3614e-21
-2.32004e-21
-1.2715e-21
-2.81215e-21
-2.31367e-21
-1.12127e-20
-1.5134e-20
-1.66475e-20
-1.49728e-20
-1.05652e-20
-1.36332e-20
-1.54794e-20
-1.44396e-20
-1.63171e-20
-1.62844e-20
-1.63829e-20
-1.43139e-20
-1.05711e-20
-1.40654e-20
-1.24305e-20
-6.67158e-21
-7.42875e-21
-5.73553e-21
-1.28165e-20
-9.59351e-21
-8.7624e-21
-5.23856e-21
-6.16211e-21
-8.55674e-21
-7.17153e-21
-3.59266e-21
-6.89191e-21
-6.05473e-21
-5.33132e-21
-2.7773e-21
-3.64825e-21
-8.81488e-22
-3.38844e-21
-4.92496e-22
-1.61738e-21
-3.72306e-21
-8.36289e-22
-1.95433e-21
-1.96057e-21
-2.17883e-21
-1.82074e-20
-1.64535e-20
-1.46414e-20
-1.51467e-20
-1.4716e-20
-1.33472e-20
-1.47904e-20
-1.24379e-20
-1.57605e-20
-1.60267e-20
-1.58306e-20
-1.62003e-20
-1.3633e-20
-1.50064e-20
-1.11507e-20
-8.47775e-21
-7.28446e-21
-6.02064e-21
-8.67111e-21
-9.29058e-21
-9.39783e-21
-2.85951e-21
-6.99292e-21
-7.75598e-21
-7.28495e-21
-5.17536e-21
-6.34545e-21
-8.83402e-21
-4.7796e-21
-1.23613e-21
-3.4314e-21
-4.61662e-22
-2.83565e-22
-2.24661e-21
-4.76233e-21
-4.25422e-21
-7.12052e-22
-1.70473e-21
4.06606e-22
5.09266e-22
-1.85592e-20
-1.86135e-20
-1.41345e-20
-1.47655e-20
-1.54283e-20
-1.70055e-20
-1.42162e-20
-1.19917e-20
-1.72366e-20
-1.24324e-20
-1.54735e-20
-1.68271e-20
-1.35997e-20
-1.06145e-20
-1.02476e-20
-8.55621e-21
-5.17621e-21
-3.06993e-21
-5.07931e-21
-9.02699e-21
-1.13124e-20
-6.0685e-21
-8.69555e-21
-8.38779e-21
-7.85746e-21
-7.60997e-21
-6.52004e-21
-6.83011e-21
-3.6328e-21
-1.70389e-21
-3.24258e-21
-3.03822e-21
-4.0141e-22
-7.95022e-22
-8.60485e-21
-4.16232e-21
-1.32065e-21
1.23074e-22
-8.32926e-22
-8.37941e-22
-1.44297e-20
-1.51799e-20
-1.7598e-20
-1.44158e-20
-1.4819e-20
-1.62274e-20
-1.61203e-20
-1.60658e-20
-1.28503e-20
-1.3649e-20
-1.62564e-20
-1.6296e-20
-8.81862e-21
-1.35873e-20
-1.4145e-20
-8.08979e-21
-3.42609e-21
-3.27385e-21
-7.2277e-21
-5.40061e-21
-6.90735e-21
-9.34431e-21
-1.14845e-20
-8.86055e-21
-9.44035e-21
-3.64492e-21
-6.3166e-21
-8.44396e-21
-1.73165e-21
-2.85035e-21
-7.05556e-21
-4.3483e-21
2.37852e-22
-5.441e-21
-8.43927e-21
-4.8605e-21
-2.73097e-21
8.06648e-22
-1.83684e-21
-1.94406e-21
-1.00827e-20
-1.32434e-20
-1.75053e-20
-1.61913e-20
-1.35892e-20
-1.66833e-20
-1.56244e-20
-1.49966e-20
-1.15132e-20
-1.52722e-20
-1.86719e-20
-1.46823e-20
-7.35936e-21
-1.04711e-20
-1.18094e-20
-7.00979e-21
-5.83607e-21
-8.56837e-21
-6.19449e-21
-5.8724e-21
-6.87898e-21
-9.35495e-21
-7.86007e-21
-8.41054e-21
-1.15652e-20
-6.20304e-21
-4.97656e-21
-5.1403e-21
-4.97719e-21
-4.6104e-21
-3.62745e-21
-4.09112e-21
-2.42652e-21
-4.14383e-21
-9.12345e-21
-5.24505e-21
-1.76894e-21
-3.73162e-23
-1.13214e-22
-9.58839e-22
-1.3588e-20
-1.6342e-20
-1.83969e-20
-1.34359e-20
-1.27446e-20
-1.51164e-20
-1.56281e-20
-1.81702e-20
-1.0213e-20
-1.27806e-20
-1.98771e-20
-1.61455e-20
-1.00003e-20
-1.09622e-20
-7.05607e-21
-8.86424e-21
-8.14621e-21
-5.05115e-21
-3.36851e-21
-6.94992e-21
-7.01438e-21
-1.14228e-20
-1.07108e-20
-1.20064e-20
-8.68075e-21
-7.36865e-21
-5.26843e-21
-7.42893e-21
-5.44186e-21
-2.33479e-21
-3.06471e-21
-3.35797e-21
-1.0727e-21
-2.29584e-21
-6.08087e-21
-7.70233e-21
-3.17441e-21
-1.2703e-21
-1.21028e-22
-5.51525e-22
-1.21254e-20
-1.48403e-20
-1.64012e-20
-1.83097e-20
-1.53821e-20
-1.67289e-20
-1.52564e-20
-1.31435e-20
-1.16845e-20
-1.43775e-20
-1.86033e-20
-1.44689e-20
-7.589e-21
-1.06009e-20
-9.71684e-21
-1.24353e-20
-7.933e-21
-5.67545e-21
-1.21915e-21
-4.10993e-21
-5.19101e-21
-1.19324e-20
-1.07173e-20
-9.17697e-21
-9.27636e-21
-8.20966e-21
-3.8135e-21
-3.03736e-21
-6.88641e-21
-3.74812e-21
-1.9935e-21
-4.90708e-21
-4.18013e-21
-1.97448e-21
-8.19022e-21
-4.73017e-21
-3.91119e-21
-2.41603e-21
-7.95827e-22
-1.74532e-21
-1.07057e-20
-1.50968e-20
-1.62747e-20
-1.66694e-20
-1.45631e-20
-1.55651e-20
-1.45646e-20
-1.34551e-20
-1.3621e-20
-1.4209e-20
-1.8372e-20
-9.1157e-21
-9.7314e-21
-1.08649e-20
-8.1563e-21
-7.52748e-21
-9.38292e-21
-7.0396e-21
-5.86533e-21
-5.45288e-21
-6.77982e-21
-6.29161e-21
-1.00822e-20
-1.03144e-20
-7.23562e-21
-6.06542e-21
-5.54872e-21
-4.36641e-21
-5.41419e-21
-3.58843e-21
-4.00647e-21
-4.73499e-21
-6.6432e-21
-6.69702e-21
-4.99202e-21
-4.19867e-21
-3.16329e-21
-2.86946e-21
-1.59264e-21
-1.45373e-21
-1.36313e-20
-1.9439e-20
-1.60399e-20
-1.19443e-20
-1.81458e-20
-1.67325e-20
-1.50475e-20
-1.26466e-20
-1.32215e-20
-1.37556e-20
-1.45713e-20
-1.04951e-20
-1.08209e-20
-1.00116e-20
-1.05856e-20
-7.20751e-21
-7.54267e-21
-4.64264e-21
-6.55422e-21
-4.30528e-21
-7.99506e-21
-7.76719e-21
-7.82326e-21
-8.91206e-21
-9.42969e-21
-4.9522e-21
-4.92359e-21
-6.11571e-21
-3.40917e-21
-5.4695e-21
-3.6916e-21
-4.95714e-21
-7.35274e-21
-4.48911e-21
-6.80499e-21
-5.02769e-21
-2.8014e-21
-4.96122e-21
-1.31411e-21
-5.11757e-22
-1.22232e-20
-1.64848e-20
-1.86764e-20
-1.29209e-20
-1.36521e-20
-1.89637e-20
-1.53608e-20
-8.30876e-21
-1.18151e-20
-1.70278e-20
-1.23368e-20
-1.23014e-20
-1.34934e-20
-1.04248e-20
-9.66297e-21
-9.36928e-21
-7.41762e-21
-7.0666e-21
-3.53059e-21
-2.89541e-21
-4.84189e-21
-9.52699e-21
-1.07685e-20
-9.81709e-21
-1.06698e-20
-7.13545e-21
-4.16054e-21
-5.03239e-22
-3.5191e-21
-4.01886e-21
-4.71438e-21
-7.0011e-21
-4.61919e-21
-3.07238e-21
-5.51958e-21
-8.60208e-21
-3.22709e-21
-1.92421e-21
-1.05736e-21
4.64871e-23
-1.38352e-20
-1.41697e-20
-1.50173e-20
-1.45284e-20
-1.54291e-20
-1.49912e-20
-1.49877e-20
-1.22599e-20
-1.11503e-20
-1.26708e-20
-1.13115e-20
-1.07188e-20
-1.20465e-20
-1.24796e-20
-1.03654e-20
-1.04087e-20
-5.93708e-21
-6.42357e-21
-1.90868e-21
-4.35123e-21
-4.68091e-21
-7.19417e-21
-1.0676e-20
-1.32369e-20
-9.56795e-21
-5.91505e-21
-3.11255e-21
-4.83889e-21
-5.15118e-21
-3.0672e-21
-4.0513e-21
-4.13021e-21
-2.39719e-21
-2.42464e-21
-3.61278e-21
-7.29932e-21
-3.54076e-21
-2.2118e-21
-2.48139e-21
-2.78691e-21
-1.75074e-20
-1.58711e-20
-1.25356e-20
-1.39945e-20
-1.80048e-20
-1.55577e-20
-1.37855e-20
-1.22499e-20
-1.25616e-20
-1.06894e-20
-8.57479e-21
-1.20228e-20
-1.51316e-20
-1.2967e-20
-8.84641e-21
-9.95701e-21
-6.15853e-21
-4.20225e-21
-1.88203e-21
-4.84591e-21
-4.75704e-21
-8.22288e-21
-1.52474e-20
-1.02751e-20
-8.33688e-21
-8.00485e-21
-3.22322e-21
-1.92985e-21
-2.39198e-21
-5.76431e-21
-4.78747e-21
-6.79275e-21
7.81991e-22
-2.23442e-21
-5.38579e-21
-2.63739e-21
-3.11999e-21
-3.9337e-22
-2.27484e-21
-3.53497e-21
-1.11126e-20
-1.14762e-20
-1.37924e-20
-1.23371e-20
-1.88526e-20
-1.52708e-20
-1.3562e-20
-1.40146e-20
-1.2142e-20
-1.0882e-20
-1.10342e-20
-9.88859e-21
-1.30326e-20
-1.01554e-20
-7.30527e-21
-9.73911e-21
-8.31108e-21
-6.16941e-21
-4.05954e-21
-8.21694e-22
-5.80134e-21
-1.06187e-20
-1.04397e-20
-1.00663e-20
-1.05185e-20
-8.58721e-21
1.34516e-22
-1.50286e-21
-4.78581e-21
-4.35003e-21
-4.20649e-21
-4.95601e-21
-2.56501e-22
-1.03232e-21
-6.07757e-22
-4.44645e-21
-2.8158e-21
-3.82315e-21
-1.59721e-21
-1.30776e-21
-1.23408e-20
-1.27158e-20
-1.35976e-20
-1.46772e-20
-1.57932e-20
-1.08187e-20
-1.29924e-20
-1.24462e-20
-1.18089e-20
-1.13174e-20
-9.94572e-21
-1.36545e-20
-1.15561e-20
-8.7385e-21
-8.86667e-21
-1.08011e-20
-9.54053e-21
-4.82591e-21
-4.62816e-21
-4.31576e-21
-3.82278e-21
-6.34205e-21
-1.16092e-20
-1.07306e-20
-8.20623e-21
-7.04416e-21
-3.92628e-21
-3.12914e-21
-2.28977e-21
-4.94443e-21
-4.70122e-21
-4.24843e-21
-6.09057e-22
1.00211e-21
2.70272e-21
-4.86179e-21
-2.98716e-21
3.10312e-22
-3.77641e-21
-3.77587e-21
-1.35304e-20
-1.09737e-20
-1.10589e-20
-1.10223e-20
-1.42321e-20
-1.46067e-20
-1.36143e-20
-1.55e-20
-1.21382e-20
-1.06297e-20
-6.84833e-21
-1.2105e-20
-6.54847e-21
-6.50667e-21
-9.36407e-21
-1.1346e-20
-1.30339e-20
-6.73854e-21
-2.44968e-21
-3.27656e-21
-3.77053e-21
-8.8475e-21
-9.85366e-21
-8.8214e-21
-9.33154e-21
-5.46915e-21
-4.84672e-21
-8.18613e-21
-2.17396e-21
-3.78069e-21
-5.52397e-21
-3.73794e-21
-2.74658e-21
-1.24295e-21
1.30141e-21
2.21038e-21
-2.8021e-21
6.00175e-22
8.43799e-22
-6.76755e-22
-8.55331e-21
-1.10831e-20
-1.30605e-20
-1.06614e-20
-1.16526e-20
-1.38487e-20
-1.10853e-20
-1.23834e-20
-1.25956e-20
-1.28928e-20
-1.22786e-20
-5.29975e-21
-8.35628e-21
-7.951e-21
-8.96788e-21
-8.86899e-21
-8.14608e-21
-5.82465e-21
-5.37128e-21
-5.44821e-21
-4.1518e-21
-6.50215e-21
-9.73986e-21
-1.06961e-20
-8.39862e-21
-5.00762e-21
-2.77281e-21
-3.2491e-21
-3.89746e-21
-1.67556e-21
-5.48143e-21
-4.07428e-21
-2.33661e-21
-1.94852e-21
-2.6448e-21
-1.8779e-22
8.65433e-22
7.54697e-22
1.33422e-21
-6.56011e-22
-7.22634e-21
-9.74505e-21
-1.14348e-20
-1.29233e-20
-9.79826e-21
-1.17862e-20
-1.19772e-20
-1.01762e-20
-9.01588e-21
-1.1127e-20
-1.03438e-20
-7.56207e-21
-1.04123e-20
-6.32533e-21
-8.4078e-21
-9.21865e-21
-6.25279e-21
-1.17183e-21
-2.71005e-21
-8.58433e-21
-3.1496e-21
-9.52445e-21
-1.14598e-20
-8.91e-21
-7.58812e-21
-6.85757e-21
-6.43063e-21
9.49217e-22
-2.31156e-21
-1.77888e-21
-4.98208e-21
-3.59265e-21
-4.31852e-21
-1.92057e-21
-1.16859e-21
-4.95269e-22
1.32008e-21
-1.77993e-21
-8.14776e-22
-2.37251e-22
-4.95935e-21
-9.50648e-21
-1.24784e-20
-8.10328e-21
-7.90067e-21
-1.1549e-20
-9.69313e-21
-1.00993e-20
-9.38887e-21
-9.7986e-21
-6.38883e-21
-9.06034e-21
-9.13595e-21
-9.36577e-21
-6.49772e-21
-4.4893e-21
-3.44844e-21
-4.54098e-21
-3.78111e-21
-8.99711e-21
-6.36828e-21
-7.48829e-21
-1.19136e-20
-1.25882e-20
-3.9212e-21
-3.79378e-21
-4.49136e-21
-2.83523e-21
6.53418e-22
-2.49425e-21
-4.56939e-21
-3.83893e-21
-6.6344e-21
-2.0877e-21
-1.74831e-21
-2.96049e-21
2.24967e-21
3.37574e-21
-7.26223e-22
-8.46154e-22
-6.14921e-21
-9.0788e-21
-1.0162e-20
-6.44825e-21
-5.46881e-21
-1.31864e-20
-8.94791e-21
-6.55581e-21
-9.73972e-21
-9.5299e-21
-6.28925e-21
-6.47061e-21
-7.14472e-21
-7.71626e-21
-8.16491e-21
-7.28174e-21
-2.11184e-21
-1.483e-21
-5.23897e-21
-5.76537e-21
-3.06463e-21
-6.21539e-21
-8.33893e-21
-1.28543e-20
-8.81479e-21
-5.03798e-21
-4.23944e-21
4.46154e-23
-1.97027e-21
-2.05444e-21
-1.97729e-21
-3.42752e-21
-4.08534e-21
-1.37104e-21
-1.03748e-21
-4.78064e-21
6.577e-22
1.95535e-21
4.50326e-22
4.58542e-22
-6.26576e-21
-5.44644e-21
-6.57869e-21
-3.47881e-21
-4.24678e-21
-2.61236e-21
-7.90164e-21
-4.7076e-21
-6.69524e-21
-6.23777e-21
-2.42321e-21
-2.47903e-21
-6.04588e-21
-5.57895e-21
-3.03023e-21
-5.08487e-21
-1.34825e-21
1.21858e-21
-5.66172e-21
-1.97757e-21
-5.32232e-21
-7.28483e-21
-5.92676e-21
-6.50124e-21
-3.14501e-21
-3.35033e-21
-2.47792e-21
-8.37764e-22
-4.74824e-22
7.0901e-22
-7.4233e-22
-1.21888e-21
-2.45249e-21
-2.08553e-21
4.93998e-22
-3.34202e-21
-1.11579e-21
-1.79672e-21
-2.08629e-21
3.80018e-22
-5.61158e-21
-8.94947e-21
-1.34608e-20
-1.04995e-20
-1.01536e-20
-1.23643e-20
-8.68974e-21
-5.32628e-21
-1.21727e-20
-1.07384e-20
-6.32785e-21
-1.13042e-20
-9.75403e-21
-5.4824e-21
-7.32687e-21
-9.76044e-21
-6.18069e-21
-1.65759e-22
-2.89496e-21
-5.9298e-21
-3.50044e-21
-3.88948e-21
-5.361e-21
-4.61061e-21
-2.09673e-21
-1.71034e-21
-2.474e-21
-2.85996e-21
-5.86679e-21
-3.72094e-21
-4.70227e-21
-2.43121e-21
-3.53011e-21
-1.2859e-21
-3.92462e-21
-4.19875e-21
-7.40749e-22
-3.8214e-21
-1.31071e-21
-4.87637e-22
-1.04828e-20
-1.36251e-20
-1.89323e-20
-1.5981e-20
-1.3389e-20
-1.65572e-20
-1.53e-20
-1.09816e-20
-1.01463e-20
-1.73898e-20
-1.43461e-20
-1.33367e-20
-1.27924e-20
-8.71489e-21
-1.06789e-20
-1.02361e-20
-7.75645e-21
-5.62077e-21
-7.47606e-21
-6.46989e-21
-5.76108e-21
-5.97444e-21
-7.30349e-21
-9.19516e-21
-4.0061e-21
-3.59951e-21
-4.65907e-21
-3.91214e-21
-8.62029e-21
-3.80604e-21
-3.25041e-21
-2.83706e-21
-3.93847e-21
-2.51665e-21
-6.20247e-21
-3.00981e-21
6.21167e-22
1.18917e-21
1.36369e-22
5.92715e-22
-1.22371e-20
-1.49425e-20
-1.48926e-20
-1.72102e-20
-1.61005e-20
-1.9085e-20
-1.57235e-20
-1.44513e-20
-1.41567e-20
-1.36446e-20
-1.29929e-20
-1.31925e-20
-1.12349e-20
-9.24248e-21
-1.09803e-20
-1.0917e-20
-9.17247e-21
-6.62601e-21
-5.30937e-21
-6.13285e-21
-6.39185e-21
-4.61476e-21
-5.34666e-21
-7.52902e-21
-7.2433e-21
-4.37222e-21
-6.06728e-21
-6.02248e-21
-5.29515e-21
-7.8984e-21
-6.08831e-21
-2.25503e-21
-2.02813e-21
-2.27252e-21
-3.59739e-21
-2.55374e-21
4.43804e-22
-8.01939e-22
-4.27834e-22
1.17342e-21
-1.72854e-20
-1.68983e-20
-1.80405e-20
-1.8718e-20
-1.65092e-20
-1.76886e-20
-1.75224e-20
-1.48412e-20
-1.41108e-20
-1.41006e-20
-1.51832e-20
-1.64761e-20
-9.76782e-21
-1.00711e-20
-1.27552e-20
-1.05713e-20
-8.77062e-21
-8.17016e-21
-6.10427e-21
-4.14242e-21
-8.41832e-21
-9.23671e-21
-8.44867e-21
-8.10435e-21
-6.45079e-21
-5.30636e-21
-6.31142e-21
-5.3875e-21
-5.3759e-21
-7.92183e-21
-4.45349e-21
2.05433e-24
-5.32056e-21
-3.32118e-21
-3.16834e-21
-1.43893e-21
1.2727e-22
-9.35225e-22
-8.99403e-22
-4.60069e-22
-1.98936e-20
-1.78887e-20
-1.64163e-20
-1.90466e-20
-2.02179e-20
-2.12097e-20
-1.71827e-20
-1.45526e-20
-1.21595e-20
-1.61875e-20
-1.50775e-20
-1.5313e-20
-1.04406e-20
-1.24201e-20
-1.61777e-20
-1.40015e-20
-9.71212e-21
-8.68543e-21
-6.4873e-21
-4.92631e-21
-7.86128e-21
-8.70948e-21
-8.92352e-21
-9.26938e-21
-8.34861e-21
-4.51174e-21
-5.80125e-21
-6.37344e-21
-5.82406e-21
-4.68627e-21
-5.1082e-21
-4.06411e-21
-2.5677e-21
-2.18775e-21
-2.4029e-21
-1.84059e-21
3.26045e-22
-4.30159e-22
-5.63311e-23
-1.65408e-21
-1.7747e-20
-1.7855e-20
-1.70786e-20
-1.86533e-20
-2.09851e-20
-2.20955e-20
-1.57946e-20
-1.81193e-20
-1.72222e-20
-1.63832e-20
-1.5029e-20
-1.56667e-20
-1.31021e-20
-1.28951e-20
-1.56445e-20
-1.20123e-20
-1.18509e-20
-7.94057e-21
-6.51921e-21
-5.2335e-21
-7.36665e-21
-1.01423e-20
-9.18468e-21
-9.00335e-21
-7.92394e-21
-5.71283e-21
-5.95713e-21
-5.87322e-21
-6.93553e-21
-6.0061e-21
-5.50346e-21
-3.24328e-21
8.09506e-23
-3.04034e-21
-3.76235e-21
-2.67431e-21
2.71809e-22
1.64252e-21
2.78014e-21
-2.0099e-21
-2.13934e-20
-2.28069e-20
-1.82816e-20
-1.93564e-20
-2.20328e-20
-2.07524e-20
-1.8474e-20
-1.74666e-20
-1.88524e-20
-1.86506e-20
-1.57172e-20
-1.53602e-20
-1.32125e-20
-1.39447e-20
-1.54629e-20
-1.33709e-20
-8.85772e-21
-6.05695e-21
-6.74239e-21
-6.47214e-21
-8.39336e-21
-1.06098e-20
-1.01039e-20
-9.2256e-21
-7.06362e-21
-6.67014e-21
-7.95174e-21
-5.96566e-21
-5.95775e-21
-4.57132e-21
-6.38917e-21
-3.89948e-21
1.86887e-21
-1.15103e-21
-5.18497e-21
-4.83136e-21
-8.83646e-22
5.74789e-22
8.82187e-22
-1.97397e-21
-1.97403e-20
-2.07142e-20
-1.91201e-20
-2.02992e-20
-2.3603e-20
-2.33661e-20
-1.7601e-20
-1.86958e-20
-2.00643e-20
-2.04175e-20
-1.64704e-20
-1.61897e-20
-1.30986e-20
-1.2203e-20
-1.64611e-20
-1.54948e-20
-1.08875e-20
-6.9167e-21
-2.10865e-21
-3.61099e-21
-7.81107e-21
-1.2722e-20
-1.11155e-20
-1.12443e-20
-9.48188e-21
-6.00196e-21
-6.54308e-21
-7.65565e-21
-3.80514e-21
-4.91214e-21
-8.09541e-21
-2.93991e-21
-2.74019e-21
-3.32248e-21
-4.23326e-21
-1.42186e-21
1.44481e-22
7.99254e-22
-6.01632e-22
-1.25131e-22
-2.05938e-20
-2.31021e-20
-2.29056e-20
-2.26644e-20
-2.21689e-20
-2.1638e-20
-1.97943e-20
-1.98324e-20
-2.01971e-20
-1.90159e-20
-1.58618e-20
-1.80579e-20
-1.29253e-20
-1.33749e-20
-1.4712e-20
-1.32751e-20
-1.15483e-20
-6.81988e-21
-6.60452e-21
-7.4122e-21
-5.48727e-21
-1.16524e-20
-1.2973e-20
-1.23727e-20
-8.53907e-21
-7.31887e-21
-6.0807e-21
-6.74426e-21
-3.04994e-21
-6.31202e-21
-6.39068e-21
-3.94049e-21
-1.76755e-21
-1.69314e-21
-2.26596e-21
-1.10526e-21
-6.55735e-22
1.88896e-22
-4.26168e-22
-8.44964e-22
-1.8442e-20
-2.0181e-20
-1.98155e-20
-2.37055e-20
-2.47008e-20
-2.27715e-20
-2.37365e-20
-2.05264e-20
-1.65767e-20
-1.7726e-20
-1.72365e-20
-1.54371e-20
-1.47177e-20
-1.54596e-20
-1.60931e-20
-1.29526e-20
-9.95611e-21
-6.64449e-21
-5.85395e-21
-4.39613e-21
-9.32935e-21
-1.34994e-20
-1.38762e-20
-1.38757e-20
-9.87623e-21
-6.81238e-21
-4.90101e-21
-4.76169e-21
-5.78653e-21
-6.34972e-21
-3.32324e-21
-2.93213e-21
-3.41995e-21
-2.48923e-21
-2.99507e-21
-9.44714e-22
7.10967e-22
-5.78808e-22
-1.84579e-21
-6.91235e-22
-2.38662e-20
-2.49205e-20
-2.08478e-20
-2.21208e-20
-2.27279e-20
-2.26001e-20
-2.43059e-20
-2.45247e-20
-1.94223e-20
-1.76313e-20
-1.40947e-20
-1.25629e-20
-1.38495e-20
-1.25283e-20
-1.57179e-20
-1.46566e-20
-1.04954e-20
-6.77273e-21
-5.68739e-21
-7.60818e-21
-1.1732e-20
-1.24985e-20
-1.41643e-20
-1.57523e-20
-9.50081e-21
-5.61612e-21
-4.63822e-21
-7.67552e-21
-5.35285e-21
-5.07827e-21
-4.25699e-21
-2.38461e-21
-1.26507e-21
-2.83725e-21
-2.36179e-21
-7.68245e-22
-9.32674e-22
-2.10046e-21
-2.11907e-21
-2.47454e-21
-2.36759e-20
-2.53148e-20
-2.07571e-20
-2.10988e-20
-2.25987e-20
-2.36724e-20
-2.36157e-20
-2.39919e-20
-1.76874e-20
-1.96087e-20
-1.45079e-20
-1.29276e-20
-1.60026e-20
-1.37856e-20
-1.5286e-20
-1.6259e-20
-1.20361e-20
-5.43034e-21
-5.11363e-21
-7.07213e-21
-1.16115e-20
-1.34772e-20
-1.30906e-20
-1.23708e-20
-8.96596e-21
-8.91922e-21
-7.17169e-21
-6.68064e-21
-3.71205e-21
-6.41439e-21
-5.70994e-21
-2.66733e-21
-1.10548e-21
-1.97664e-21
-2.99846e-21
-2.15315e-21
3.58213e-22
-1.44328e-21
-2.85442e-21
-5.05229e-23
-2.55367e-20
-2.48399e-20
-2.19371e-20
-2.29376e-20
-2.3322e-20
-2.548e-20
-2.27489e-20
-2.15135e-20
-1.98602e-20
-1.85042e-20
-1.47513e-20
-1.60988e-20
-1.63278e-20
-1.38737e-20
-1.46113e-20
-1.34068e-20
-9.35525e-21
-6.59144e-21
-8.22993e-21
-1.04133e-20
-8.45451e-21
-1.07123e-20
-1.21973e-20
-1.32981e-20
-1.0949e-20
-6.93673e-21
-8.18348e-21
-6.46792e-21
-5.60153e-21
-4.01948e-21
-5.74158e-21
-4.62791e-21
-1.32551e-21
-1.22453e-21
-8.35738e-21
-3.79433e-22
1.55974e-21
-3.16996e-21
-2.04023e-21
4.28418e-22
-2.83648e-20
-2.74456e-20
-2.36965e-20
-2.46857e-20
-2.38365e-20
-2.26564e-20
-2.30203e-20
-1.99689e-20
-1.89021e-20
-2.09587e-20
-1.71051e-20
-1.37007e-20
-1.77212e-20
-1.2441e-20
-1.44013e-20
-1.42757e-20
-1.46105e-20
-8.80531e-21
-6.54629e-21
-6.50599e-21
-9.96389e-21
-1.23285e-20
-1.18627e-20
-1.49614e-20
-8.61398e-21
-5.78828e-21
-5.98419e-21
-6.7198e-21
-6.74126e-21
-4.07894e-21
-5.97965e-21
-4.32752e-21
-1.22702e-21
-3.1338e-21
-5.72927e-21
-1.97854e-21
-9.65974e-22
2.9706e-21
-6.34392e-22
1.35944e-22
-2.94003e-20
-2.79189e-20
-2.34219e-20
-2.19818e-20
-2.4106e-20
-2.2056e-20
-2.28032e-20
-1.95467e-20
-1.95047e-20
-1.83928e-20
-1.74563e-20
-1.71207e-20
-1.77548e-20
-1.46419e-20
-1.36923e-20
-1.24937e-20
-1.19528e-20
-9.9448e-21
-1.02376e-20
-1.18567e-20
-7.66722e-21
-1.18486e-20
-1.32098e-20
-1.08606e-20
-8.48808e-21
-7.97653e-21
-6.2757e-21
-6.12245e-21
-6.02671e-21
-3.13847e-21
-5.27673e-21
-3.78327e-21
-3.00939e-21
-1.27348e-21
-4.84835e-21
-3.28943e-21
1.78059e-21
1.10362e-22
-1.29975e-21
-5.04668e-22
-2.54352e-20
-2.6639e-20
-2.61162e-20
-2.42754e-20
-2.46692e-20
-2.23794e-20
-2.14055e-20
-2.0194e-20
-1.92709e-20
-1.68986e-20
-1.82773e-20
-1.82233e-20
-1.83886e-20
-1.48358e-20
-1.41088e-20
-1.2098e-20
-1.14136e-20
-1.02797e-20
-9.99676e-21
-7.80552e-21
-1.08848e-20
-1.36957e-20
-1.2544e-20
-8.35568e-21
-7.56944e-21
-8.01223e-21
-5.84161e-21
-5.45243e-21
-6.3882e-21
-4.1625e-21
-3.36455e-21
-4.10635e-21
-3.42344e-21
-2.15483e-21
-4.08683e-21
-2.34014e-21
2.27708e-22
-1.47612e-21
-9.0111e-22
-1.46668e-22
-2.38004e-20
-2.45196e-20
-2.54508e-20
-2.25559e-20
-2.62269e-20
-2.28656e-20
-2.14406e-20
-2.2232e-20
-2.06228e-20
-1.61733e-20
-1.76696e-20
-1.87149e-20
-1.69841e-20
-1.65737e-20
-1.43759e-20
-1.16874e-20
-1.16786e-20
-8.84991e-21
-1.24434e-20
-9.81334e-21
-1.22982e-20
-1.00148e-20
-9.69179e-21
-8.15164e-21
-8.16716e-21
-6.45242e-21
-5.49168e-21
-6.15847e-21