/*--------------------------------*- C++ -*----------------------------------*\
| =========                 |                                                 |
| \\      /  F ield         | OpenFOAM: The Open Source CFD Toolbox           |
|  \\    /   O peration     | Version:  v2012                                 |
|   \\  /    A nd           | Website:  www.openfoam.com                      |
|    \\/     M anipulation  |                                                 |
\*---------------------------------------------------------------------------*/
FoamFile
{
    version     2.0;
    format      ascii;
    class       surfaceScalarField;
    location    "42";
    object      phi;
}
// * * * * * * * * * * * * * * * * * * * * * * * * * * * * * * * * * * * * * //

dimensions      [0 3 -1 0 0 0 0];
oriented        oriented;


internalField   nonuniform List<scalar> 
187200
(
1.875e-06
1.97198e-22
1.60934e-22
1.875e-06
3.00803e-22
2.87192e-22
1.875e-06
4.16897e-22
4.88444e-22
1.875e-06
4.4339e-22
3.87563e-22
1.875e-06
3.75676e-22
2.90587e-22
1.875e-06
4.81063e-22
4.38509e-22
1.875e-06
3.95925e-22
3.62011e-22
1.875e-06
3.27789e-22
2.9713e-22
1.875e-06
2.51096e-22
4.07217e-22
1.875e-06
4.31022e-22
3.64775e-22
1.875e-06
4.30614e-22
3.03533e-22
1.875e-06
3.25343e-22
3.38615e-22
1.875e-06
2.72919e-22
3.15409e-22
1.875e-06
2.01903e-22
1.67699e-22
1.875e-06
2.27417e-22
2.72618e-22
1.875e-06
1.82512e-22
2.96176e-22
1.875e-06
2.17409e-22
2.68401e-22
1.875e-06
1.05999e-22
1.30644e-22
1.875e-06
9.86606e-23
1.25092e-22
1.875e-06
1.6256e-22
1.80312e-22
1.875e-06
5.52654e-23
1.75131e-22
1.875e-06
1.66152e-22
1.77966e-22
1.875e-06
2.40225e-22
1.94358e-22
1.875e-06
3.21301e-22
1.53915e-22
1.875e-06
2.43925e-22
1.06143e-22
1.875e-06
1.66302e-22
9.60709e-23
1.875e-06
1.89694e-22
1.63828e-22
1.875e-06
1.145e-22
5.23303e-23
1.875e-06
1.35795e-22
1.81435e-22
1.875e-06
1.10544e-22
1.38335e-22
1.875e-06
2.75752e-24
1.71845e-22
1.875e-06
2.70666e-23
1.11195e-22
1.875e-06
1.33777e-22
1.19409e-22
1.875e-06
9.39975e-23
7.14987e-23
1.875e-06
6.98463e-24
9.38538e-23
1.875e-06
-3.83083e-23
2.48478e-23
1.875e-06
-1.73563e-23
7.1573e-23
1.875e-06
-1.01007e-22
1.16687e-22
1.875e-06
-3.01747e-23
1.13302e-22
-1.15536e-23
7.34221e-23
1.875e-06
1.14799e-22
2.82883e-22
1.875e-06
1.30806e-22
5.62952e-22
1.875e-06
3.33512e-22
7.83124e-22
1.875e-06
2.83617e-22
6.60379e-22
1.875e-06
2.58856e-22
6.23753e-22
1.875e-06
3.2432e-22
7.36269e-22
1.875e-06
4.22919e-22
8.2259e-22
1.875e-06
3.92886e-22
7.50706e-22
1.875e-06
3.93952e-22
7.63035e-22
1.875e-06
2.39225e-22
7.62621e-22
1.875e-06
2.3467e-22
6.81863e-22
1.875e-06
2.45826e-22
6.11012e-22
1.875e-06
2.82049e-22
6.99328e-22
1.875e-06
2.12375e-22
5.07654e-22
1.875e-06
1.34025e-22
5.52235e-22
1.875e-06
8.10066e-23
5.55865e-22
1.875e-06
3.12877e-22
5.07473e-22
1.875e-06
3.38767e-22
5.63175e-22
1.875e-06
1.38109e-22
5.03006e-22
1.875e-06
-3.14683e-23
3.27439e-22
1.875e-06
2.2683e-22
4.90459e-22
1.875e-06
2.41181e-22
3.76285e-22
1.875e-06
1.80466e-22
3.13088e-22
1.875e-06
1.38859e-22
2.33584e-22
1.875e-06
1.42418e-22
2.88685e-22
1.875e-06
1.99658e-22
2.71821e-22
1.875e-06
1.65025e-22
3.04795e-22
1.875e-06
1.18333e-22
2.53481e-22
1.875e-06
1.10194e-22
3.8011e-22
1.875e-06
1.27176e-22
2.59749e-22
1.875e-06
1.15031e-22
2.77012e-22
1.875e-06
4.67419e-23
2.18334e-22
1.875e-06
-2.19197e-23
7.45701e-23
1.875e-06
-1.46857e-23
6.80893e-23
1.875e-06
3.47441e-23
2.02267e-22
1.875e-06
-9.97015e-24
1.19137e-22
1.875e-06
-2.30023e-23
3.749e-23
1.875e-06
-5.35521e-23
4.80498e-23
1.875e-06
-7.67731e-23
5.05851e-23
-1.03616e-22
2.14601e-24
1.875e-06
1.48937e-22
3.79249e-22
1.875e-06
2.43186e-22
7.42684e-22
1.875e-06
1.10482e-22
7.1276e-22
1.875e-06
2.42011e-22
8.09749e-22
1.875e-06
3.00802e-22
8.8025e-22
1.875e-06
3.89968e-22
9.51565e-22
1.875e-06
4.19299e-22
9.00914e-22
1.875e-06
2.9954e-22
9.91822e-22
1.875e-06
2.99901e-22
9.53431e-22
1.875e-06
2.85608e-22
8.39434e-22
1.875e-06
2.73584e-22
8.10663e-22
1.875e-06
2.62474e-22
7.45769e-22
1.875e-06
1.95408e-22
6.788e-22
1.875e-06
2.0287e-22
6.58461e-22
1.875e-06
2.80063e-22
7.39365e-22
1.875e-06
2.4739e-22
7.87321e-22
1.875e-06
1.39763e-22
5.20602e-22
1.875e-06
2.59849e-22
5.48308e-22
1.875e-06
1.52978e-22
5.4934e-22
1.875e-06
1.15833e-22
5.32741e-22
1.875e-06
1.59277e-22
4.88342e-22
1.875e-06
1.23016e-22
3.33079e-22
1.875e-06
2.37388e-22
2.64724e-22
1.875e-06
1.88136e-22
3.1069e-22
1.875e-06
2.72199e-22
4.1141e-22
1.875e-06
8.50239e-23
3.5616e-22
1.875e-06
1.30113e-22
3.97427e-22
1.875e-06
5.13035e-23
3.74159e-22
1.875e-06
6.26274e-23
3.07934e-22
1.875e-06
8.06273e-23
3.93859e-22
1.875e-06
5.61485e-23
3.34484e-22
1.875e-06
6.15337e-23
2.29303e-22
1.875e-06
-3.2517e-23
1.03263e-22
1.875e-06
-1.548e-23
1.16954e-22
1.875e-06
2.37642e-23
1.28712e-22
1.875e-06
1.9122e-23
9.43176e-23
1.875e-06
4.25056e-23
2.50009e-23
1.875e-06
-7.30709e-25
1.06859e-22
1.875e-06
-2.85521e-24
9.29183e-23
-1.30116e-23
-1.18739e-23
1.875e-06
2.98381e-22
4.92703e-22
1.875e-06
2.25394e-22
8.23547e-22
1.875e-06
1.07712e-22
9.39323e-22
1.875e-06
1.22905e-22
8.96284e-22
1.875e-06
2.1748e-22
9.2908e-22
1.875e-06
2.15647e-22
8.85039e-22
1.875e-06
1.45907e-22
8.90196e-22
1.875e-06
2.64909e-22
1.04177e-21
1.875e-06
2.44707e-22
1.02634e-21
1.875e-06
3.29666e-22
9.28236e-22
1.875e-06
3.21683e-22
9.1236e-22
1.875e-06
1.27127e-22
8.57503e-22
1.875e-06
1.49664e-22
7.05719e-22
1.875e-06
1.72474e-22
7.40559e-22
1.875e-06
3.15423e-22
7.60784e-22
1.875e-06
4.80383e-22
7.79593e-22
1.875e-06
1.78208e-22
6.10328e-22
1.875e-06
3.94532e-23
6.00947e-22
1.875e-06
2.62003e-22
6.62735e-22
1.875e-06
1.82708e-22
5.74042e-22
1.875e-06
1.03942e-22
5.14088e-22
1.875e-06
1.10158e-22
4.93796e-22
1.875e-06
7.94681e-23
3.19732e-22
1.875e-06
1.96862e-22
3.41081e-22
1.875e-06
9.09852e-23
3.32918e-22
1.875e-06
1.53306e-22
4.66551e-22
1.875e-06
6.36598e-23
4.23913e-22
1.875e-06
9.31745e-23
3.77601e-22
1.875e-06
9.32472e-23
3.34164e-22
1.875e-06
-4.84805e-23
3.62998e-22
1.875e-06
2.73655e-23
2.82212e-22
1.875e-06
7.97906e-24
1.718e-22
1.875e-06
-2.00989e-23
2.58657e-22
1.875e-06
-3.62054e-23
1.90838e-22
1.875e-06
3.52612e-23
9.36266e-23
1.875e-06
6.89935e-23
4.1926e-23
1.875e-06
-1.7653e-24
1.8197e-24
1.875e-06
2.53127e-23
8.83042e-23
1.875e-06
-9.96723e-23
5.13674e-23
2.6915e-23
3.83794e-23
1.875e-06
3.25282e-23
3.92946e-22
1.875e-06
8.64325e-23
8.24286e-22
1.875e-06
6.87762e-23
9.54419e-22
1.875e-06
9.05803e-23
1.02619e-21
1.875e-06
1.65836e-22
1.07677e-21
1.875e-06
9.2727e-23
1.05743e-21
1.875e-06
7.32481e-23
1.0395e-21
1.875e-06
2.97508e-22
1.07887e-21
1.875e-06
4.16603e-22
1.05775e-21
1.875e-06
2.65741e-22
9.73225e-22
1.875e-06
1.8833e-22
8.58093e-22
1.875e-06
2.21675e-22
9.63188e-22
1.875e-06
2.14242e-22
8.14636e-22
1.875e-06
1.92241e-22
8.65235e-22
1.875e-06
1.61679e-22
8.36373e-22
1.875e-06
1.95379e-22
6.49668e-22
1.875e-06
1.76717e-22
7.05193e-22
1.875e-06
1.26273e-22
7.29145e-22
1.875e-06
5.16766e-23
5.89589e-22
1.875e-06
2.17194e-22
5.94012e-22
1.875e-06
1.5419e-22
5.50304e-22
1.875e-06
1.53442e-22
5.35835e-22
1.875e-06
1.38505e-22
4.10831e-22
1.875e-06
8.95355e-23
3.46677e-22
1.875e-06
1.75143e-22
4.61284e-22
1.875e-06
8.00981e-23
4.51638e-22
1.875e-06
8.94755e-23
4.26232e-22
1.875e-06
1.24749e-23
3.68085e-22
1.875e-06
-3.40305e-23
3.02835e-22
1.875e-06
2.22317e-23
2.88919e-22
1.875e-06
1.03495e-22
3.18815e-22
1.875e-06
1.40914e-22
3.23105e-22
1.875e-06
8.51723e-24
2.35316e-22
1.875e-06
2.85803e-23
2.17714e-22
1.875e-06
-1.07545e-23
1.2536e-23
1.875e-06
-6.69205e-23
-1.85813e-23
1.875e-06
-3.79824e-24
9.29796e-24
1.875e-06
8.3294e-24
3.81782e-23
1.875e-06
5.03087e-23
6.77649e-23
-3.84857e-23
2.24595e-23
1.875e-06
5.01531e-23
3.8995e-22
1.875e-06
2.05418e-22
8.16246e-22
1.875e-06
9.60004e-23
1.02767e-21
1.875e-06
5.66341e-23
1.09179e-21
1.875e-06
9.61003e-23
1.15989e-21
1.875e-06
1.60422e-22
1.21121e-21
1.875e-06
1.58269e-22
1.16036e-21
1.875e-06
2.12869e-22
1.14305e-21
1.875e-06
3.14727e-22
1.05987e-21
1.875e-06
2.4415e-22
9.71367e-22
1.875e-06
2.21339e-22
9.60452e-22
1.875e-06
2.29257e-22
1.0243e-21
1.875e-06
1.68047e-22
8.27032e-22
1.875e-06
2.14153e-22
8.89899e-22
1.875e-06
1.36361e-22
8.70679e-22
1.875e-06
1.27584e-22
6.93199e-22
1.875e-06
1.71667e-22
7.89565e-22
1.875e-06
4.19476e-23
7.12843e-22
1.875e-06
8.85085e-23
6.63231e-22
1.875e-06
1.26466e-22
5.66111e-22
1.875e-06
1.35321e-22
5.59368e-22
1.875e-06
2.21143e-22
5.49158e-22
1.875e-06
2.15858e-22
4.28021e-22
1.875e-06
1.7083e-22
4.06435e-22
1.875e-06
1.0713e-24
3.61657e-22
1.875e-06
2.3242e-22
4.92623e-22
1.875e-06
1.31048e-22
4.56872e-22
1.875e-06
1.67314e-23
4.02272e-22
1.875e-06
-4.82302e-23
3.03648e-22
1.875e-06
-1.69681e-23
3.21196e-22
1.875e-06
1.1252e-22
2.99867e-22
1.875e-06
1.14151e-22
2.08173e-22
1.875e-06
-7.07666e-23
1.60633e-22
1.875e-06
6.17597e-24
2.17457e-22
1.875e-06
5.46266e-23
1.38364e-22
1.875e-06
9.41754e-23
8.92896e-23
1.875e-06
1.6692e-23
4.35667e-24
1.875e-06
4.13382e-24
-5.73623e-23
1.875e-06
8.23653e-23
-6.79713e-23
3.29614e-23
6.18215e-23
1.875e-06
8.60621e-24
4.80081e-22
1.875e-06
4.56651e-23
8.70072e-22
1.875e-06
1.92511e-22
1.07399e-21
1.875e-06
6.93561e-23
1.17617e-21
1.875e-06
1.56376e-22
1.26514e-21
1.875e-06
1.24534e-22
1.24362e-21
1.875e-06
1.84565e-22
1.25191e-21
1.875e-06
3.6412e-22
1.16456e-21
1.875e-06
2.8277e-22
1.16163e-21
1.875e-06
2.3859e-22
1.20875e-21
1.875e-06
1.29985e-22
9.46991e-22
1.875e-06
1.02319e-22
9.48602e-22
1.875e-06
1.58874e-22
9.02766e-22
1.875e-06
2.18721e-22
8.72509e-22
1.875e-06
1.66561e-22
9.34328e-22
1.875e-06
1.19848e-22
8.03162e-22
1.875e-06
7.84361e-23
7.20617e-22
1.875e-06
1.51675e-22
7.57476e-22
1.875e-06
1.72409e-22
6.39557e-22
1.875e-06
7.85931e-23
6.12958e-22
1.875e-06
7.07475e-23
5.96581e-22
1.875e-06
1.01478e-22
4.88653e-22
1.875e-06
1.13992e-22
3.53451e-22
1.875e-06
7.79235e-23
3.8691e-22
1.875e-06
1.2085e-22
4.21613e-22
1.875e-06
9.61201e-23
3.85367e-22
1.875e-06
1.41556e-22
4.83557e-22
1.875e-06
1.40971e-22
4.06161e-22
1.875e-06
3.87195e-23
3.14803e-22
1.875e-06
2.58077e-23
3.29569e-22
1.875e-06
-5.91544e-25
2.68456e-22
1.875e-06
-2.02003e-23
1.61908e-22
1.875e-06
8.68969e-23
1.81537e-22
1.875e-06
5.22671e-23
1.37392e-22
1.875e-06
1.07071e-22
1.31145e-22
1.875e-06
1.08127e-22
1.28643e-22
1.875e-06
1.22746e-23
1.35541e-23
1.875e-06
-3.26415e-24
-7.39757e-23
1.875e-06
4.4468e-24
-5.13659e-23
3.63064e-23
3.29555e-23
1.875e-06
1.1064e-22
4.06557e-22
1.875e-06
6.6912e-23
8.35196e-22
1.875e-06
8.81474e-23
1.06184e-21
1.875e-06
2.00904e-22
1.26904e-21
1.875e-06
1.31679e-22
1.36393e-21
1.875e-06
2.29474e-22
1.4007e-21
1.875e-06
2.9637e-22
1.27582e-21
1.875e-06
1.12115e-22
1.1207e-21
1.875e-06
1.11763e-22
1.16684e-21
1.875e-06
2.3171e-22
1.17418e-21
1.875e-06
7.60951e-23
1.07086e-21
1.875e-06
9.48683e-23
1.02033e-21
1.875e-06
2.01708e-22
8.83359e-22
1.875e-06
1.41259e-22
8.18849e-22
1.875e-06
1.76888e-22
9.67035e-22
1.875e-06
1.17556e-22
8.82805e-22
1.875e-06
7.76155e-23
8.06342e-22
1.875e-06
5.86569e-23
7.54804e-22
1.875e-06
1.25441e-22
4.62974e-22
1.875e-06
1.94849e-22
5.10165e-22
1.875e-06
8.96836e-23
6.22614e-22
1.875e-06
8.60131e-23
6.04973e-22
1.875e-06
1.74926e-22
4.92765e-22
1.875e-06
6.59627e-23
4.79864e-22
1.875e-06
8.80807e-23
5.15294e-22
1.875e-06
1.00722e-22
3.93597e-22
1.875e-06
1.09726e-22
3.51314e-22
1.875e-06
8.69036e-23
3.40232e-22
1.875e-06
7.22161e-23
2.23344e-22
1.875e-06
8.58633e-23
2.8118e-22
1.875e-06
-1.54813e-25
3.38589e-22
1.875e-06
-6.98098e-23
2.09701e-22
1.875e-06
-1.74861e-23
2.59934e-22
1.875e-06
3.11288e-23
1.55265e-22
1.875e-06
6.33977e-23
6.51241e-23
1.875e-06
-8.87275e-24
-1.34401e-22
1.875e-06
-5.48088e-24
-1.04428e-22
1.875e-06
1.23426e-23
-7.88472e-24
1.875e-06
3.48967e-23
-5.46315e-24
5.06393e-23
-8.06018e-23
1.875e-06
-1.73349e-22
2.94314e-22
1.875e-06
-5.07909e-23
8.68343e-22
1.875e-06
8.10627e-23
1.17964e-21
1.875e-06
6.22633e-23
1.23714e-21
1.875e-06
1.79503e-22
1.34303e-21
1.875e-06
2.47358e-22
1.3485e-21
1.875e-06
1.77389e-22
1.32423e-21
1.875e-06
1.34678e-22
1.27285e-21
1.875e-06
4.81472e-23
1.22947e-21
1.875e-06
8.52754e-23
1.08164e-21
1.875e-06
2.0479e-22
1.11053e-21
1.875e-06
1.2285e-22
1.10408e-21
1.875e-06
4.37031e-23
8.25821e-22
1.875e-06
9.5623e-23
8.59794e-22
1.875e-06
1.7937e-22
8.92319e-22
1.875e-06
1.24103e-22
8.46134e-22
1.875e-06
1.75087e-22
8.65928e-22
1.875e-06
1.72874e-22
8.13013e-22
1.875e-06
-2.0367e-23
5.95338e-22
1.875e-06
3.20657e-23
5.08396e-22
1.875e-06
1.98628e-22
5.85264e-22
1.875e-06
1.19365e-22
6.52227e-22
1.875e-06
1.17808e-22
5.46812e-22
1.875e-06
1.78925e-22
5.87202e-22
1.875e-06
2.09061e-22
5.52887e-22
1.875e-06
6.24933e-23
4.08918e-22
1.875e-06
-9.01136e-23
2.71977e-22
1.875e-06
-4.94443e-23
2.61876e-22
1.875e-06
7.27258e-23
1.95773e-22
1.875e-06
5.18883e-23
2.62212e-22
1.875e-06
-8.31827e-23
2.88237e-22
1.875e-06
-4.70531e-23
2.82827e-22
1.875e-06
6.36779e-23
2.66866e-22
1.875e-06
1.25007e-23
1.18373e-22
1.875e-06
-3.00252e-23
-1.40144e-22
1.875e-06
6.97106e-23
-2.6456e-22
1.875e-06
1.33857e-22
-7.50027e-23
1.875e-06
4.81092e-23
-5.57044e-23
1.875e-06
1.77157e-24
-9.49179e-23
-4.30437e-23
-1.21192e-22
1.875e-06
-3.83127e-23
4.60196e-22
1.875e-06
6.63667e-23
8.52599e-22
1.875e-06
1.22471e-22
1.07245e-21
1.875e-06
2.5207e-22
1.36282e-21
1.875e-06
1.08618e-22
1.38681e-21
1.875e-06
7.62368e-23
1.34279e-21
1.875e-06
2.36554e-22
1.46935e-21
1.875e-06
1.12707e-22
1.3694e-21
1.875e-06
1.2252e-22
1.2322e-21
1.875e-06
6.03287e-23
1.02288e-21
1.875e-06
9.91797e-23
1.00833e-21
1.875e-06
1.08851e-22
9.95519e-22
1.875e-06
6.73499e-23
9.34562e-22
1.875e-06
1.23696e-22
9.72338e-22
1.875e-06
1.51765e-22
9.07516e-22
1.875e-06
2.06829e-22
8.5516e-22
1.875e-06
1.58688e-22
7.71689e-22
1.875e-06
1.8024e-24
7.13305e-22
1.875e-06
-4.21221e-23
6.67111e-22
1.875e-06
6.89243e-24
5.03722e-22
1.875e-06
1.90364e-22
6.19134e-22
1.875e-06
3.1856e-22
7.74823e-22
1.875e-06
1.21488e-22
6.35504e-22
1.875e-06
1.21569e-22
6.32839e-22
1.875e-06
1.66603e-22
5.43637e-22
1.875e-06
2.90718e-23
4.27955e-22
1.875e-06
-9.53574e-23
3.31465e-22
1.875e-06
-3.08942e-23
2.61536e-22
1.875e-06
5.68952e-24
2.38486e-22
1.875e-06
9.72275e-23
2.79097e-22
1.875e-06
1.38217e-23
2.87581e-22
1.875e-06
-5.81047e-23
2.71991e-22
1.875e-06
4.38411e-23
2.30838e-22
1.875e-06
-5.00657e-23
9.84258e-23
1.875e-06
-6.4658e-23
-1.14817e-22
1.875e-06
1.28733e-23
-3.92614e-22
1.875e-06
3.15733e-23
-3.38141e-22
1.875e-06
9.41059e-23
-1.93707e-22
1.875e-06
8.61517e-23
-1.36476e-22
9.25561e-23
-1.32512e-22
1.875e-06
5.63576e-23
6.86762e-22
1.875e-06
1.1863e-22
1.01588e-21
1.875e-06
1.12434e-22
1.09499e-21
1.875e-06
8.09527e-23
1.21468e-21
1.875e-06
1.22536e-22
1.34273e-21
1.875e-06
1.48614e-22
1.3613e-21
1.875e-06
2.21797e-23
1.37323e-21
1.875e-06
2.20646e-22
1.4913e-21
1.875e-06
5.20401e-23
1.3196e-21
1.875e-06
8.25651e-23
1.06527e-21
1.875e-06
2.02292e-22
9.10725e-22
1.875e-06
7.01911e-23
9.07588e-22
1.875e-06
2.05773e-23
9.06291e-22
1.875e-06
1.26131e-22
8.66315e-22
1.875e-06
1.26647e-22
8.92666e-22
1.875e-06
4.74299e-23
8.21002e-22
1.875e-06
7.72196e-23
7.61911e-22
1.875e-06
9.34033e-23
8.10773e-22
1.875e-06
1.52017e-22
7.92016e-22
1.875e-06
7.44137e-23
6.90353e-22
1.875e-06
9.53119e-23
6.56213e-22
1.875e-06
1.09574e-22
5.78284e-22
1.875e-06
1.1609e-22
6.05478e-22
1.875e-06
8.78461e-23
6.60297e-22
1.875e-06
3.73654e-23
4.41139e-22
1.875e-06
-3.51093e-23
3.96436e-22
1.875e-06
6.6458e-23
3.93281e-22
1.875e-06
5.76626e-23
4.37187e-22
1.875e-06
2.8781e-23
2.80268e-22
1.875e-06
-1.07607e-22
2.09987e-22
1.875e-06
-2.6884e-23
3.26034e-22
1.875e-06
7.73413e-23
2.94835e-22
1.875e-06
-1.92441e-23
6.97531e-23
1.875e-06
8.32065e-23
1.27601e-22
1.875e-06
6.05061e-24
-8.75575e-23
1.875e-06
-1.43789e-22
-3.85866e-22
1.875e-06
-1.2682e-22
-3.6621e-22
1.875e-06
-4.10877e-24
-1.86889e-22
1.875e-06
9.75968e-23
-1.94128e-22
1.28478e-22
-1.69525e-22
1.875e-06
1.13806e-22
6.89574e-22
1.875e-06
1.15099e-22
1.03938e-21
1.875e-06
1.33696e-22
1.10804e-21
1.875e-06
1.32386e-22
1.26128e-21
1.875e-06
1.39004e-22
1.38811e-21
1.875e-06
6.07628e-23
1.35419e-21
1.875e-06
1.9338e-22
1.45221e-21
1.875e-06
1.43032e-22
1.37028e-21
1.875e-06
1.31985e-22
1.26953e-21
1.875e-06
2.38904e-23
1.10268e-21
1.875e-06
1.23905e-23
8.04933e-22
1.875e-06
1.18407e-22
9.19634e-22
1.875e-06
1.66561e-22
1.072e-21
1.875e-06
1.14094e-22
8.70663e-22
1.875e-06
2.49538e-23
8.49493e-22
1.875e-06
9.66592e-23
8.5947e-22
1.875e-06
7.09435e-23
8.85965e-22
1.875e-06
1.70283e-22
8.19162e-22
1.875e-06
1.60816e-22
7.18434e-22
1.875e-06
2.27536e-22
6.82797e-22
1.875e-06
1.04458e-22
7.27427e-22
1.875e-06
8.64451e-23
5.65228e-22
1.875e-06
2.39921e-23
5.58359e-22
1.875e-06
3.39271e-23
5.27451e-22
1.875e-06
-1.20743e-22
4.24626e-22
1.875e-06
-4.544e-23
4.81902e-22
1.875e-06
-1.77325e-23
4.17506e-22
1.875e-06
9.18137e-23
3.64704e-22
1.875e-06
-9.46103e-24
2.27992e-22
1.875e-06
-1.31985e-22
3.82541e-22
1.875e-06
6.04327e-23
4.23126e-22
1.875e-06
5.96299e-23
2.16009e-22
1.875e-06
-3.07068e-23
1.17681e-22
1.875e-06
4.44841e-23
-1.4056e-23
1.875e-06
9.33473e-23
-1.01989e-22
1.875e-06
-7.32478e-23
-2.91711e-22
1.875e-06
-1.15303e-22
-2.68465e-22
1.875e-06
-2.25925e-23
-2.1455e-22
1.875e-06
-6.72065e-23
-2.29255e-22
-9.89668e-23
-4.20496e-22
1.875e-06
1.97276e-22
6.83443e-22
1.875e-06
2.20575e-22
1.02741e-21
1.875e-06
1.31122e-22
1.16131e-21
1.875e-06
1.49984e-22
1.3471e-21
1.875e-06
-1.54274e-23
1.34883e-21
1.875e-06
-7.46113e-24
1.37672e-21
1.875e-06
2.53286e-23
1.30817e-21
1.875e-06
3.17403e-23
1.2147e-21
1.875e-06
1.05632e-22
1.25994e-21
1.875e-06
1.44346e-22
1.07775e-21
1.875e-06
3.02795e-23
9.11915e-22
1.875e-06
1.41519e-22
1.00891e-21
1.875e-06
1.89887e-22
1.08869e-21
1.875e-06
1.14479e-22
9.22819e-22
1.875e-06
8.52428e-23
9.13743e-22
1.875e-06
3.78727e-23
7.70045e-22
1.875e-06
1.08797e-22
7.52998e-22
1.875e-06
9.47878e-23
7.63623e-22
1.875e-06
1.66055e-22
7.95605e-22
1.875e-06
1.32543e-22
7.27457e-22
1.875e-06
1.17897e-22
6.09262e-22
1.875e-06
4.4562e-23
5.12391e-22
1.875e-06
1.09007e-22
5.54024e-22
1.875e-06
-7.21834e-23
5.44476e-22
1.875e-06
-1.04709e-22
5.81743e-22
1.875e-06
-5.98181e-23
4.38067e-22
1.875e-06
-1.20335e-22
4.18449e-22
1.875e-06
-7.08838e-23
2.6467e-22
1.875e-06
1.59123e-23
3.43628e-22
1.875e-06
-6.4421e-23
4.0626e-22
1.875e-06
-9.9826e-23
3.08548e-22
1.875e-06
6.74224e-23
2.82818e-22
1.875e-06
7.23973e-23
1.70104e-22
1.875e-06
-3.35218e-23
-9.33008e-23
1.875e-06
-1.18923e-23
-1.03315e-22
1.875e-06
5.61478e-23
-3.31422e-22
1.875e-06
-7.21779e-24
-2.55013e-22
1.875e-06
-1.48878e-22
-1.638e-22
1.875e-06
-1.95583e-22
-2.1193e-22
-1.16807e-22
-2.92134e-22
1.875e-06
-1.61901e-22
6.51804e-22
1.875e-06
2.50727e-23
1.0107e-21
1.875e-06
1.48015e-22
1.21742e-21
1.875e-06
2.52599e-23
1.32028e-21
1.875e-06
-1.19785e-23
1.42934e-21
1.875e-06
3.58056e-23
1.36532e-21
1.875e-06
6.62367e-23
1.31045e-21
1.875e-06
1.30917e-22
1.23468e-21
1.875e-06
1.20254e-22
1.19779e-21
1.875e-06
-4.10172e-23
1.08121e-21
1.875e-06
-1.10333e-23
1.01861e-21
1.875e-06
1.71512e-22
9.14487e-22
1.875e-06
1.73852e-22
1.0412e-21
1.875e-06
7.07032e-23
8.90529e-22
1.875e-06
8.02162e-24
9.07831e-22
1.875e-06
2.3308e-23
8.46029e-22
1.875e-06
1.55996e-22
8.84491e-22
1.875e-06
2.65089e-22
8.3951e-22
1.875e-06
2.03853e-22
7.18263e-22
1.875e-06
1.51659e-22
5.96277e-22
1.875e-06
1.53289e-22
6.26087e-22
1.875e-06
-2.9547e-23
5.816e-22
1.875e-06
-8.88813e-23
4.83143e-22
1.875e-06
-3.99094e-23
6.31235e-22
1.875e-06
-3.47206e-23
5.4795e-22
1.875e-06
-1.04678e-23
4.49125e-22
1.875e-06
1.00843e-22
4.78569e-22
1.875e-06
-3.21629e-23
3.47698e-22
1.875e-06
-1.13071e-22
3.26818e-22
1.875e-06
-1.10357e-23
4.30822e-22
1.875e-06
-1.10612e-22
3.7569e-22
1.875e-06
-1.42286e-22
1.96008e-22
1.875e-06
1.83342e-23
1.2297e-22
1.875e-06
-2.24621e-23
2.59157e-23
1.875e-06
-5.68409e-23
-1.89975e-22
1.875e-06
-1.24779e-22
-3.97598e-22
1.875e-06
-6.03705e-23
-3.11734e-22
1.875e-06
3.88982e-23
-2.94906e-22
1.875e-06
-4.96771e-23
-1.85259e-22
-2.43737e-22
-3.02598e-22
1.875e-06
-5.18305e-23
7.50534e-22
1.875e-06
-2.08223e-22
1.08262e-21
1.875e-06
-4.34327e-23
1.14892e-21
1.875e-06
-7.80526e-24
1.32095e-21
1.875e-06
1.03103e-22
1.47342e-21
1.875e-06
2.56792e-23
1.31801e-21
1.875e-06
-3.55455e-23
1.2593e-21
1.875e-06
-2.12721e-24
1.11846e-21
1.875e-06
-6.73501e-24
1.14431e-21
1.875e-06
-3.78403e-23
1.13499e-21
1.875e-06
1.31105e-22
1.14196e-21
1.875e-06
5.58308e-23
1.01968e-21
1.875e-06
1.02599e-22
1.01343e-21
1.875e-06
8.81955e-23
9.74215e-22
1.875e-06
1.6601e-22
9.3641e-22
1.875e-06
1.36935e-22
8.33748e-22
1.875e-06
3.57089e-23
7.42281e-22
1.875e-06
1.17114e-22
7.57577e-22
1.875e-06
9.24469e-23
7.351e-22
1.875e-06
5.65793e-23
7.3028e-22
1.875e-06
1.05569e-22
5.15665e-22
1.875e-06
1.76722e-22
6.47729e-22
1.875e-06
3.24083e-23
6.27126e-22
1.875e-06
-1.45794e-22
5.33036e-22
1.875e-06
-1.29643e-22
5.31599e-22
1.875e-06
3.23028e-23
5.0908e-22
1.875e-06
5.17653e-23
3.82681e-22
1.875e-06
-5.15986e-23
3.38758e-22
1.875e-06
-4.59029e-23
3.52468e-22
1.875e-06
-4.12899e-23
3.08071e-22
1.875e-06
-2.23789e-23
3.75037e-22
1.875e-06
-4.759e-23
2.8641e-22
1.875e-06
-3.36317e-23
1.57959e-22
1.875e-06
-6.4122e-24
-7.34098e-24
1.875e-06
-3.25506e-23
-1.7982e-22
1.875e-06
1.28094e-23
-2.48397e-22
1.875e-06
-1.0257e-22
-3.04478e-22
1.875e-06
-1.45489e-22
-2.96866e-22
1.875e-06
-8.50787e-23
-2.34708e-22
-5.68514e-23
-2.46811e-22
1.875e-06
-5.00418e-23
6.86209e-22
1.875e-06
-1.0497e-22
1.07792e-21
1.875e-06
-1.0123e-22
1.27545e-21
1.875e-06
-1.22128e-22
1.41023e-21
1.875e-06
-1.01692e-22
1.46731e-21
1.875e-06
-5.13395e-23
1.32284e-21
1.875e-06
1.34702e-23
1.25104e-21
1.875e-06
1.22865e-24
1.18012e-21
1.875e-06
7.03885e-23
1.2056e-21
1.875e-06
1.26837e-22
1.16237e-21
1.875e-06
1.53315e-23
1.0791e-21
1.875e-06
1.17016e-22
1.07286e-21
1.875e-06
-8.74622e-23
1.04564e-21
1.875e-06
7.89921e-23
9.90707e-22
1.875e-06
1.29007e-22
8.79968e-22
1.875e-06
6.96968e-23
7.32109e-22
1.875e-06
8.79637e-23
7.59339e-22
1.875e-06
8.305e-23
7.4071e-22
1.875e-06
1.65738e-22
7.39148e-22
1.875e-06
1.29273e-22
6.94069e-22
1.875e-06
1.23649e-22
6.07086e-22
1.875e-06
-2.28628e-23
5.95608e-22
1.875e-06
-3.11399e-23
5.16329e-22
1.875e-06
-7.05733e-23
5.05493e-22
1.875e-06
-1.81097e-23
5.18711e-22
1.875e-06
-1.46687e-22
4.84554e-22
1.875e-06
-1.23225e-23
3.16301e-22
1.875e-06
1.27345e-22
3.18457e-22
1.875e-06
-5.68875e-23
3.71178e-22
1.875e-06
3.67629e-23
3.44391e-22
1.875e-06
-2.55606e-24
2.91355e-22
1.875e-06
1.81547e-23
2.67904e-22
1.875e-06
-6.68164e-23
1.63921e-22
1.875e-06
-1.38319e-22
3.13739e-23
1.875e-06
-1.59489e-22
-1.89048e-22
1.875e-06
-8.05344e-23
-3.65695e-22
1.875e-06
4.67314e-23
-1.966e-22
1.875e-06
5.09624e-24
-9.06252e-23
1.875e-06
-1.37573e-22
-1.70112e-22
-4.47477e-23
-2.44596e-22
1.875e-06
-1.42089e-22
5.96253e-22
1.875e-06
-5.45835e-23
1.0827e-21
1.875e-06
-2.6462e-24
1.29539e-21
1.875e-06
-4.26521e-23
1.4301e-21
1.875e-06
-7.73483e-23
1.54903e-21
1.875e-06
-1.55586e-23
1.38037e-21
1.875e-06
-1.31576e-22
1.23138e-21
1.875e-06
-1.46135e-22
1.21452e-21
1.875e-06
4.4198e-23
1.2435e-21
1.875e-06
1.37025e-22
1.09875e-21
1.875e-06
1.32043e-22
1.13392e-21
1.875e-06
3.80758e-24
1.03042e-21
1.875e-06
5.64816e-23
1.15282e-21
1.875e-06
3.47712e-24
1.05317e-21
1.875e-06
1.70678e-22
8.71415e-22
1.875e-06
1.37981e-22
7.61297e-22
1.875e-06
6.13454e-23
7.13893e-22
1.875e-06
-3.23611e-23
6.44912e-22
1.875e-06
6.63501e-23
7.57126e-22
1.875e-06
1.5477e-22
6.79499e-22
1.875e-06
1.47124e-22
5.96644e-22
1.875e-06
-2.29874e-23
5.70207e-22
1.875e-06
-1.85323e-22
4.48715e-22
1.875e-06
-6.4815e-23
4.7285e-22
1.875e-06
-2.81542e-23
4.83255e-22
1.875e-06
8.64064e-23
5.50824e-22
1.875e-06
4.84982e-23
3.30152e-22
1.875e-06
-3.38029e-23
2.35982e-22
1.875e-06
9.6245e-23
4.45618e-22
1.875e-06
6.51078e-23
3.17154e-22
1.875e-06
6.79539e-24
2.05793e-22
1.875e-06
-1.44478e-22
1.69194e-22
1.875e-06
-1.01981e-22
1.89592e-22
1.875e-06
-4.11168e-23
1.50848e-22
1.875e-06
-1.60849e-22
-6.53362e-23
1.875e-06
-2.39265e-22
-2.86859e-22
1.875e-06
-4.70606e-25
-2.29613e-22
1.875e-06
6.5073e-23
-1.13991e-22
1.875e-06
-7.14856e-25
-1.38844e-22
-5.98832e-23
-3.36466e-22
1.875e-06
-8.44298e-23
6.94429e-22
1.875e-06
-1.44029e-22
1.13519e-21
1.875e-06
-1.24299e-22
1.25708e-21
1.875e-06
1.54482e-24
1.46254e-21
1.875e-06
6.1053e-23
1.47709e-21
1.875e-06
-1.39252e-22
1.37192e-21
1.875e-06
-1.16838e-22
1.32426e-21
1.875e-06
-8.23082e-23
1.27971e-21
1.875e-06
-1.30458e-23
1.26143e-21
1.875e-06
7.10145e-23
1.22842e-21
1.875e-06
1.25382e-23
1.12255e-21
1.875e-06
4.8381e-23
1.07645e-21
1.875e-06
6.73275e-23
1.09783e-21
1.875e-06
1.89853e-23
1.12201e-21
1.875e-06
-1.48345e-23
8.30994e-22
1.875e-06
9.55429e-23
7.88663e-22
1.875e-06
6.77399e-23
7.77795e-22
1.875e-06
1.94831e-22
8.01596e-22
1.875e-06
1.96802e-22
6.64572e-22
1.875e-06
1.56834e-22
5.62202e-22
1.875e-06
-7.63626e-23
4.4501e-22
1.875e-06
-2.14033e-22
6.31501e-22
1.875e-06
-7.64316e-23
5.30433e-22
1.875e-06
-1.43531e-23
5.24645e-22
1.875e-06
-4.98016e-23
5.67246e-22
1.875e-06
2.19025e-24
5.54959e-22
1.875e-06
9.42561e-23
3.87676e-22
1.875e-06
4.3281e-23
2.77814e-22
1.875e-06
9.20253e-24
3.24939e-22
1.875e-06
1.44427e-23
2.3403e-22
1.875e-06
1.04709e-22
1.26768e-22
1.875e-06
-4.92037e-23
2.22932e-22
1.875e-06
-1.09999e-22
1.75252e-22
1.875e-06
-7.05464e-23
1.2729e-22
1.875e-06
-1.11625e-22
3.49568e-23
1.875e-06
-1.62528e-23
5.22142e-24
1.875e-06
-1.02245e-22
-1.29444e-22
1.875e-06
-6.25706e-23
-1.76744e-22
1.875e-06
1.17929e-22
-1.6901e-22
1.75484e-22
-2.84363e-22
1.875e-06
-5.43075e-23
7.49495e-22
1.875e-06
2.46973e-23
1.18585e-21
1.875e-06
-2.11532e-24
1.26229e-21
1.875e-06
6.61224e-24
1.48534e-21
1.875e-06
-1.07685e-22
1.47611e-21
1.875e-06
-1.36814e-22
1.4321e-21
1.875e-06
-1.35919e-22
1.40408e-21
1.875e-06
-7.1889e-23
1.40274e-21
1.875e-06
4.2548e-23
1.33369e-21
1.875e-06
2.65462e-23
1.16714e-21
1.875e-06
2.0521e-23
1.14907e-21
1.875e-06
2.68352e-23
1.14234e-21
1.875e-06
1.31126e-22
1.14729e-21
1.875e-06
1.51442e-22
1.15567e-21
1.875e-06
-7.64746e-24
8.82775e-22
1.875e-06
-7.2969e-23
8.36133e-22
1.875e-06
-5.10788e-23
8.20848e-22
1.875e-06
-1.06748e-23
6.90301e-22
1.875e-06
1.19687e-22
5.1928e-22
1.875e-06
2.68625e-23
4.67774e-22
1.875e-06
-6.3557e-23
4.78024e-22
1.875e-06
3.39738e-23
7.04415e-22
1.875e-06
-3.68171e-23
6.94678e-22
1.875e-06
-9.19442e-24
6.53202e-22
1.875e-06
-2.23799e-23
5.72238e-22
1.875e-06
-4.1135e-23
4.88514e-22
1.875e-06
1.0591e-22
3.70802e-22
1.875e-06
1.29716e-22
3.86095e-22
1.875e-06
1.3655e-22
3.45359e-22
1.875e-06
-1.92518e-23
2.73715e-22
1.875e-06
-1.16743e-22
1.04862e-22
1.875e-06
-4.06856e-23
6.4011e-23
1.875e-06
-3.14757e-23
1.47363e-22
1.875e-06
-4.36685e-23
2.80323e-22
1.875e-06
2.02029e-23
1.42321e-22
1.875e-06
5.78404e-24
1.60196e-23
1.875e-06
5.91761e-23
-2.06225e-23
1.875e-06
-1.02518e-23
-1.07777e-22
1.875e-06
9.41739e-24
-2.74662e-22
-9.22707e-24
-3.47209e-22
1.875e-06
1.73184e-22
8.24164e-22
1.875e-06
1.08936e-22
1.10987e-21
1.875e-06
-2.54039e-23
1.14452e-21
1.875e-06
-1.07881e-22
1.308e-21
1.875e-06
-1.6955e-22
1.44442e-21
1.875e-06
-4.47303e-23
1.5089e-21
1.875e-06
5.81907e-23
1.48074e-21
1.875e-06
-7.53076e-23
1.41334e-21
1.875e-06
-1.73124e-22
1.2733e-21
1.875e-06
-5.55865e-24
1.34148e-21
1.875e-06
-1.83663e-22
1.18991e-21
1.875e-06
4.7193e-22
1.20408e-21
1.875e-06
7.30382e-23
1.08469e-21
1.875e-06
1.43255e-22
1.11327e-21
1.875e-06
-3.87927e-23
1.04676e-21
1.875e-06
-1.57211e-22
9.14295e-22
1.875e-06
-9.14923e-23
7.66901e-22
1.875e-06
-1.02499e-22
5.78388e-22
1.875e-06
-6.33392e-23
5.23814e-22
1.875e-06
-1.95578e-23
5.03466e-22
1.875e-06
-5.51983e-23
4.92499e-22
1.875e-06
-8.30957e-23
6.22304e-22
1.875e-06
1.27665e-23
7.47277e-22
1.875e-06
4.37152e-23
6.48362e-22
1.875e-06
1.32239e-22
5.61804e-22
1.875e-06
7.70531e-23
4.9078e-22
1.875e-06
-3.45648e-23
3.34833e-22
1.875e-06
-1.07516e-23
2.94483e-22
1.875e-06
-1.97978e-22
2.91902e-22
1.875e-06
2.02033e-22
2.90946e-22
1.875e-06
3.15317e-23
2.70246e-22
1.875e-06
1.13254e-24
9.6071e-23
1.875e-06
1.01555e-22
1.22359e-22
1.875e-06
-1.23573e-22
2.08731e-22
1.875e-06
5.42649e-23
5.86511e-23
1.875e-06
9.39078e-23
6.37076e-23
1.875e-06
-6.86154e-23
-2.53437e-23
1.875e-06
2.84777e-23
-2.24264e-22
1.875e-06
-5.91291e-23
-4.15032e-22
-7.60426e-23
-3.95326e-22
1.875e-06
2.39644e-22
7.11312e-22
1.875e-06
1.16293e-22
1.02747e-21
1.875e-06
-2.94948e-23
1.09309e-21
1.875e-06
-2.53895e-23
1.29203e-21
1.875e-06
8.9563e-23
1.46434e-21
1.875e-06
-7.1931e-24
1.47726e-21
1.875e-06
-2.88532e-23
1.40782e-21
1.875e-06
-6.42877e-23
1.37011e-21
1.875e-06
-8.71003e-23
1.36946e-21
1.875e-06
-6.76733e-23
1.45882e-21
1.875e-06
-5.16945e-24
1.26411e-21
1.875e-06
7.61358e-23
1.20878e-21
1.875e-06
1.57882e-22
1.13752e-21
1.875e-06
-2.47157e-23
9.56487e-22
1.875e-06
-4.36927e-23
9.69512e-22
1.875e-06
-3.10803e-23
1.04109e-21
1.875e-06
-8.04941e-23
8.39147e-22
1.875e-06
-8.04019e-23
6.50277e-22
1.875e-06
-2.03995e-22
5.84556e-22
1.875e-06
-1.16744e-22
5.47749e-22
1.875e-06
-3.24188e-23
5.24623e-22
1.875e-06
-7.4207e-23
6.62555e-22
1.875e-06
3.9978e-24
6.66229e-22
1.875e-06
1.56573e-23
5.5042e-22
1.875e-06
9.19783e-23
5.21751e-22
1.875e-06
1.11519e-22
5.40515e-22
1.875e-06
1.80443e-24
4.03005e-22
1.875e-06
8.31787e-23
3.35041e-22
1.875e-06
1.3585e-23
3.64071e-22
1.875e-06
-5.89274e-23
3.0494e-22
1.875e-06
-1.60779e-23
1.78657e-22
1.875e-06
5.24901e-24
4.44411e-23
1.875e-06
-6.90538e-23
1.92367e-23
1.875e-06
7.61341e-23
2.60669e-22
1.875e-06
1.56602e-22
1.6208e-22
1.875e-06
9.93673e-23
2.08673e-23
1.875e-06
7.2796e-23
-7.62306e-23
1.875e-06
-2.57243e-23
-3.08991e-22
1.875e-06
-7.77911e-23
-3.5855e-22
-1.32218e-22
-3.25882e-22
1.875e-06
8.4765e-23
5.99938e-22
1.875e-06
4.35014e-23
1.03069e-21
1.875e-06
-9.26338e-24
1.12707e-21
1.875e-06
1.2326e-23
1.23936e-21
1.875e-06
5.26053e-23
1.34687e-21
1.875e-06
1.79667e-22
1.47053e-21
1.875e-06
3.34229e-23
1.35066e-21
1.875e-06
-5.53048e-23
1.30576e-21
1.875e-06
-4.45215e-23
1.46127e-21
1.875e-06
-1.74517e-22
1.52428e-21
1.875e-06
-6.4075e-23
1.32912e-21
1.875e-06
-6.17363e-24
1.12492e-21
1.875e-06
-1.04957e-22
1.03814e-21
1.875e-06
-1.48799e-22
1.03409e-21
1.875e-06
-9.62252e-23
1.0388e-21
1.875e-06
-1.01797e-22
9.81554e-22
1.875e-06
-1.50875e-22
8.91565e-22
1.875e-06