/*--------------------------------*- C++ -*----------------------------------*\
| =========                 |                                                 |
| \\      /  F ield         | OpenFOAM: The Open Source CFD Toolbox           |
|  \\    /   O peration     | Version:  v2012                                 |
|   \\  /    A nd           | Website:  www.openfoam.com                      |
|    \\/     M anipulation  |                                                 |
\*---------------------------------------------------------------------------*/
FoamFile
{
    version     2.0;
    format      ascii;
    class       volVectorField;
    location    "42";
    object      U;
}
// * * * * * * * * * * * * * * * * * * * * * * * * * * * * * * * * * * * * * //

dimensions      [0 1 -1 0 0 0 0];


internalField   nonuniform List<vector> 
64000
(
(0.003 2.67827e-19 2.62342e-19)
(0.003 4.85556e-19 4.34459e-19)
(0.003 5.25373e-19 5.46031e-19)
(0.003 5.50549e-19 6.23854e-19)
(0.003 6.37261e-19 6.24743e-19)
(0.003 6.10769e-19 5.5432e-19)
(0.003 5.60118e-19 5.28623e-19)
(0.003 4.1809e-19 4.80304e-19)
(0.003 3.92407e-19 5.51787e-19)
(0.003 6.12045e-19 4.95287e-19)
(0.003 6.22529e-19 4.06854e-19)
(0.003 5.65117e-19 5.72037e-19)
(0.003 4.92714e-19 5.22375e-19)
(0.003 4.64792e-19 4.00951e-19)
(0.003 3.92932e-19 4.59036e-19)
(0.003 3.31537e-19 4.72669e-19)
(0.003 2.6362e-19 3.40948e-19)
(0.003 1.25547e-19 1.73215e-19)
(0.003 1.36615e-19 1.64894e-19)
(0.003 2.41615e-19 2.71717e-19)
(0.003 1.23701e-19 2.32875e-19)
(0.003 2.25272e-19 2.48561e-19)
(0.003 3.67748e-19 2.93944e-19)
(0.003 4.47591e-19 2.38816e-19)
(0.003 3.57305e-19 1.53439e-19)
(0.003 2.26597e-19 1.51259e-19)
(0.003 1.60931e-19 1.83454e-19)
(0.003 2.62545e-19 2.28845e-19)
(0.003 2.73825e-19 2.49324e-19)
(0.003 1.48686e-19 2.62184e-19)
(0.003 1.36987e-20 2.34424e-19)
(0.003 4.46406e-20 1.6014e-19)
(0.003 1.84234e-19 1.62477e-19)
(0.003 1.31779e-19 1.22101e-19)
(0.003 8.36492e-20 1.4783e-19)
(0.003 1.29362e-19 1.83539e-19)
(0.003 -3.71755e-20 6.70293e-20)
(0.003 -1.51488e-19 1.56915e-19)
(0.003 -7.02072e-20 2.05191e-19)
(0.003 -5.1124e-20 1.1417e-19)
(0.003 2.59379e-19 4.66232e-19)
(0.003 4.08594e-19 9.11747e-19)
(0.003 6.43851e-19 1.13441e-18)
(0.003 6.30232e-19 1.15138e-18)
(0.003 5.3887e-19 1.13056e-18)
(0.003 6.95004e-19 1.1933e-18)
(0.003 7.16046e-19 1.19096e-18)
(0.003 6.48494e-19 9.72658e-19)
(0.003 5.75175e-19 8.74638e-19)
(0.003 5.61238e-19 1.15527e-18)
(0.003 5.64562e-19 1.1462e-18)
(0.003 5.04342e-19 1.04378e-18)
(0.003 4.45838e-19 9.41933e-19)
(0.003 3.28867e-19 8.31125e-19)
(0.003 2.63096e-19 8.33687e-19)
(0.003 2.19143e-19 8.13206e-19)
(0.003 4.36088e-19 7.11324e-19)
(0.003 3.88819e-19 5.56314e-19)
(0.003 2.05698e-19 4.97943e-19)
(0.003 1.196e-19 5.06735e-19)
(0.003 2.60037e-19 4.51543e-19)
(0.003 3.72754e-19 5.10155e-19)
(0.003 3.40792e-19 5.60397e-19)
(0.003 3.95562e-19 6.13229e-19)
(0.003 3.21525e-19 5.07285e-19)
(0.003 2.9856e-19 4.01238e-19)
(0.003 3.44883e-19 3.98969e-19)
(0.003 2.41089e-19 4.23202e-19)
(0.003 2.03099e-19 5.15234e-19)
(0.003 1.97787e-19 3.96584e-19)
(0.003 1.09029e-19 2.4036e-19)
(0.003 8.50941e-20 2.22372e-19)
(0.003 1.40629e-19 2.96149e-19)
(0.003 7.9931e-20 2.25259e-19)
(0.003 -1.29981e-20 2.46517e-19)
(0.003 -1.17078e-19 2.2365e-19)
(0.003 -5.43906e-20 2.68694e-20)
(0.003 -4.79592e-20 5.07015e-20)
(0.003 -7.63267e-20 1.14875e-19)
(0.003 -9.71278e-20 8.15358e-20)
(0.003 1.74032e-19 5.66875e-19)
(0.003 2.2378e-19 9.99526e-19)
(0.003 3.40494e-19 1.24284e-18)
(0.003 4.81463e-19 1.35818e-18)
(0.003 4.47205e-19 1.32565e-18)
(0.003 5.75456e-19 1.36193e-18)
(0.003 6.59916e-19 1.41604e-18)
(0.003 5.84205e-19 1.35146e-18)
(0.003 5.89634e-19 1.2631e-18)
(0.003 4.64273e-19 1.23989e-18)
(0.003 4.13594e-19 1.17367e-18)
(0.003 3.54188e-19 1.14648e-18)
(0.003 3.65359e-19 1.04317e-18)
(0.003 2.74906e-19 9.44091e-19)
(0.003 2.92957e-19 9.22969e-19)
(0.003 2.67791e-19 8.95205e-19)
(0.003 3.42057e-19 8.73494e-19)
(0.003 4.67959e-19 7.56781e-19)
(0.003 2.14996e-19 5.72268e-19)
(0.003 1.06038e-19 5.05688e-19)
(0.003 3.05492e-19 5.84205e-19)
(0.003 2.73862e-19 6.20022e-19)
(0.003 3.35541e-19 6.06406e-19)
(0.003 2.63756e-19 6.33844e-19)
(0.003 3.21717e-19 5.60529e-19)
(0.003 2.57783e-19 5.37589e-19)
(0.003 2.22217e-19 5.40905e-19)
(0.003 1.01794e-19 5.67622e-19)
(0.003 1.23093e-19 5.35762e-19)
(0.003 1.79356e-19 5.10834e-19)
(0.003 1.79344e-19 3.87958e-19)
(0.003 1.06302e-19 2.93169e-19)
(0.003 -8.20964e-20 2.86255e-19)
(0.003 -4.2343e-20 2.10637e-19)
(0.003 7.38262e-20 1.83318e-19)
(0.003 2.05464e-20 1.55637e-19)
(0.003 1.416e-22 7.34449e-20)
(0.003 -2.85848e-20 7.00204e-20)
(0.003 -6.59644e-20 1.01429e-19)
(0.003 -9.92129e-20 1.8813e-20)
(0.003 4.04585e-19 7.08656e-19)
(0.003 3.36338e-19 1.15778e-18)
(0.003 1.78001e-19 1.35587e-18)
(0.003 3.30881e-19 1.50298e-18)
(0.003 4.255e-19 1.45485e-18)
(0.003 4.8727e-19 1.53096e-18)
(0.003 4.75349e-19 1.54256e-18)
(0.003 4.41823e-19 1.37776e-18)
(0.003 3.82001e-19 1.30507e-18)
(0.003 4.6161e-19 1.3361e-18)
(0.003 4.66552e-19 1.34122e-18)
(0.003 3.33991e-19 1.33887e-18)
(0.003 2.74993e-19 1.12912e-18)
(0.003 2.90162e-19 1.0021e-18)
(0.003 5.17751e-19 1.03386e-18)
(0.003 6.30099e-19 9.77673e-19)
(0.003 2.87207e-19 8.59648e-19)
(0.003 2.21967e-19 8.2706e-19)
(0.003 2.99148e-19 6.52313e-19)
(0.003 2.04101e-19 5.88601e-19)
(0.003 1.46864e-19 6.6471e-19)
(0.003 1.9803e-19 7.04498e-19)
(0.003 2.84743e-19 7.179e-19)
(0.003 2.69047e-19 7.36534e-19)
(0.003 3.22061e-19 7.11528e-19)
(0.003 1.89975e-19 5.66651e-19)
(0.003 1.19502e-19 5.16372e-19)
(0.003 7.89634e-20 4.96742e-19)
(0.003 1.06757e-19 5.59369e-19)
(0.003 2.95247e-20 5.54025e-19)
(0.003 4.35867e-20 3.74444e-19)
(0.003 3.0122e-20 2.85886e-19)
(0.003 -4.89358e-20 3.32692e-19)
(0.003 -1.58316e-20 2.47992e-19)
(0.003 8.03091e-20 1.94527e-19)
(0.003 5.25869e-20 1.6212e-19)
(0.003 5.43463e-20 9.89739e-20)
(0.003 3.47048e-20 7.08967e-20)
(0.003 -3.27004e-20 8.61913e-20)
(0.003 1.14824e-20 6.94623e-20)
(0.003 1.98878e-19 7.89824e-19)
(0.003 2.48695e-19 1.26842e-18)
(0.003 1.63175e-19 1.39802e-18)
(0.003 1.87815e-19 1.57014e-18)
(0.003 2.88859e-19 1.61437e-18)
(0.003 2.0398e-19 1.68682e-18)
(0.003 1.1772e-19 1.59893e-18)
(0.003 3.99222e-19 1.42531e-18)
(0.003 5.48748e-19 1.29697e-18)
(0.003 5.03551e-19 1.45431e-18)
(0.003 3.69021e-19 1.43998e-18)
(0.003 2.60571e-19 1.29304e-18)
(0.003 3.05403e-19 1.15892e-18)
(0.003 3.24585e-19 1.15548e-18)
(0.003 4.00602e-19 1.23705e-18)
(0.003 5.16584e-19 1.16837e-18)
(0.003 3.09942e-19 9.41199e-19)
(0.003 1.95468e-19 7.86528e-19)
(0.003 3.05345e-19 7.49744e-19)
(0.003 3.04294e-19 5.97099e-19)
(0.003 1.64336e-19 5.99946e-19)
(0.003 1.17254e-19 7.46741e-19)
(0.003 1.34913e-19 7.91616e-19)
(0.003 2.3667e-19 7.678e-19)
(0.003 2.03106e-19 7.5855e-19)
(0.003 1.80932e-19 6.41681e-19)
(0.003 1.4719e-19 5.22074e-19)
(0.003 9.57054e-20 5.4661e-19)
(0.003 8.57826e-20 5.74375e-19)
(0.003 -5.98466e-21 4.24725e-19)
(0.003 7.93094e-20 3.69962e-19)
(0.003 1.07662e-19 3.55138e-19)
(0.003 -1.39376e-20 2.74144e-19)
(0.003 -4.49491e-21 2.41696e-19)
(0.003 1.90254e-20 2.14716e-19)
(0.003 -1.28987e-20 1.53574e-19)
(0.003 2.39621e-20 1.15227e-19)
(0.003 3.22719e-20 -5.93822e-21)
(0.003 -8.2363e-20 2.21804e-21)
(0.003 -5.44466e-20 1.3582e-19)
(0.003 4.65703e-20 7.9847e-19)
(0.003 2.27343e-19 1.29524e-18)
(0.003 1.53063e-19 1.4401e-18)
(0.003 1.11312e-19 1.62123e-18)
(0.003 2.02579e-19 1.72982e-18)
(0.003 2.08698e-19 1.70607e-18)
(0.003 2.00668e-19 1.62578e-18)
(0.003 4.07073e-19 1.66099e-18)
(0.003 5.7766e-19 1.54197e-18)
(0.003 4.17867e-19 1.41658e-18)
(0.003 3.40226e-19 1.38896e-18)
(0.003 3.65473e-19 1.39067e-18)
(0.003 2.75844e-19 1.27783e-18)
(0.003 3.26535e-19 1.16899e-18)
(0.003 2.6796e-19 1.28144e-18)
(0.003 2.57758e-19 1.22541e-18)
(0.003 2.54636e-19 1.00786e-18)
(0.003 5.63759e-20 8.21102e-19)
(0.003 8.39904e-20 7.00046e-19)
(0.003 2.65333e-19 6.10191e-19)
(0.003 2.64393e-19 6.32954e-19)
(0.003 3.04144e-19 7.21013e-19)
(0.003 2.96525e-19 7.96093e-19)
(0.003 2.51541e-19 8.17359e-19)
(0.003 1.70476e-19 7.53638e-19)
(0.003 2.57561e-19 6.25527e-19)
(0.003 2.31074e-19 5.98778e-19)
(0.003 2.33546e-20 5.26497e-19)
(0.003 -1.13108e-19 5.20468e-19)
(0.003 -2.83796e-20 5.33076e-19)
(0.003 1.87358e-19 4.68139e-19)
(0.003 2.36399e-19 3.45382e-19)
(0.003 6.89987e-21 2.01688e-19)
(0.003 -2.50863e-20 2.56819e-19)
(0.003 -7.35374e-21 2.78147e-19)
(0.003 2.8318e-20 1.24795e-19)
(0.003 -7.40879e-21 4.89819e-20)
(0.003 2.82344e-20 -7.69847e-20)
(0.003 1.14304e-19 -7.44171e-20)
(0.003 4.4365e-20 1.30614e-19)
(0.003 5.98088e-20 9.74389e-19)
(0.003 2.42082e-19 1.52205e-18)
(0.003 2.35885e-19 1.50609e-18)
(0.003 9.40784e-20 1.60171e-18)
(0.003 1.85265e-19 1.77609e-18)
(0.003 2.33797e-19 1.83732e-18)
(0.003 2.89213e-19 1.72514e-18)
(0.003 5.12056e-19 1.63151e-18)
(0.003 5.11411e-19 1.62849e-18)
(0.003 3.98751e-19 1.60847e-18)
(0.003 2.70842e-19 1.51235e-18)
(0.003 2.44654e-19 1.39759e-18)
(0.003 2.71467e-19 1.28939e-18)
(0.003 3.6674e-19 1.25426e-18)
(0.003 2.37263e-19 1.28474e-18)
(0.003 1.72241e-19 1.22152e-18)
(0.003 1.96959e-19 9.90599e-19)
(0.003 1.8243e-19 7.56125e-19)
(0.003 1.82889e-19 6.37144e-19)
(0.003 1.03543e-19 6.4248e-19)
(0.003 1.78311e-19 7.1481e-19)
(0.003 3.28582e-19 8.23031e-19)
(0.003 3.02315e-19 8.1916e-19)
(0.003 1.78335e-19 8.48566e-19)
(0.003 8.62289e-20 6.884e-19)
(0.003 2.59693e-19 6.45507e-19)
(0.003 1.81778e-19 6.62303e-19)
(0.003 7.61616e-20 4.94292e-19)
(0.003 2.1795e-20 4.62476e-19)
(0.003 5.53884e-20 4.40086e-19)
(0.003 1.24137e-19 4.6149e-19)
(0.003 5.35084e-20 3.88881e-19)
(0.003 1.36991e-20 1.48114e-19)
(0.003 8.53123e-20 1.66754e-19)
(0.003 1.03557e-19 2.1915e-19)
(0.003 1.77039e-19 1.81969e-19)
(0.003 2.93172e-20 8.82629e-20)
(0.003 -2.35171e-20 -6.61952e-21)
(0.003 7.27977e-20 1.6051e-20)
(0.003 6.19857e-20 6.56109e-20)
(0.003 1.60632e-19 8.56251e-19)
(0.003 1.54117e-19 1.42363e-18)
(0.003 1.88679e-19 1.57858e-18)
(0.003 2.24597e-19 1.70246e-18)
(0.003 2.23825e-19 1.9016e-18)
(0.003 2.8522e-19 1.88964e-18)
(0.003 4.02815e-19 1.77891e-18)
(0.003 3.72707e-19 1.77011e-18)
(0.003 3.30382e-19 1.75985e-18)
(0.003 3.63376e-19 1.72964e-18)
(0.003 2.02795e-19 1.57174e-18)
(0.003 1.70022e-19 1.43047e-18)
(0.003 2.78283e-19 1.29238e-18)
(0.003 3.18993e-19 1.2325e-18)
(0.003 2.78143e-19 1.3145e-18)
(0.003 1.82106e-19 1.3185e-18)
(0.003 8.89506e-20 1.05177e-18)
(0.003 1.82446e-19 7.51624e-19)
(0.003 3.22821e-19 5.81391e-19)
(0.003 2.91653e-19 5.13785e-19)
(0.003 1.57146e-19 6.3027e-19)
(0.003 1.28092e-19 8.60795e-19)
(0.003 1.46172e-19 9.14599e-19)
(0.003 9.53629e-20 8.94611e-19)
(0.003 1.54932e-19 7.85623e-19)
(0.003 1.88548e-19 6.82329e-19)
(0.003 2.02317e-19 6.00871e-19)
(0.003 1.97227e-19 4.95313e-19)
(0.003 8.91837e-20 4.0749e-19)
(0.003 1.03449e-19 4.29231e-19)
(0.003 -4.13041e-20 5.10639e-19)
(0.003 -6.45077e-20 3.47232e-19)
(0.003 5.36752e-20 2.51923e-19)
(0.003 7.19022e-20 2.63487e-19)
(0.003 1.76153e-19 2.2486e-19)
(0.003 6.16682e-20 -4.05855e-20)
(0.003 -3.97946e-20 -9.08998e-20)
(0.003 -1.2093e-20 7.61461e-20)
(0.003 -4.77475e-22 6.41811e-20)
(0.003 4.61431e-20 3.24908e-20)
(0.003 -7.24155e-20 8.56554e-19)
(0.003 -5.0635e-20 1.58946e-18)
(0.003 1.01473e-19 1.71198e-18)
(0.003 1.53334e-19 1.79272e-18)
(0.003 2.72566e-19 1.89176e-18)
(0.003 4.37454e-19 1.9645e-18)
(0.003 4.30012e-19 1.89769e-18)
(0.003 1.8377e-19 1.79142e-18)
(0.003 1.47754e-19 1.7838e-18)
(0.003 2.66773e-19 1.78224e-18)
(0.003 2.3693e-19 1.56421e-18)
(0.003 1.37171e-19 1.428e-18)
(0.003 1.73324e-19 1.36311e-18)
(0.003 2.28196e-19 1.2852e-18)
(0.003 2.79823e-19 1.28798e-18)
(0.003 1.90969e-19 1.26124e-18)
(0.003 2.39543e-19 1.05833e-18)
(0.003 2.13819e-19 7.54448e-19)
(0.003 7.51861e-20 7.21158e-19)
(0.003 1.59716e-19 6.84935e-19)
(0.003 2.63202e-19 6.53202e-19)
(0.003 1.73979e-19 8.25596e-19)
(0.003 2.0479e-19 9.33994e-19)
(0.003 2.01878e-19 9.34114e-19)
(0.003 2.1588e-19 7.79635e-19)
(0.003 9.50176e-20 6.64968e-19)
(0.003 1.39894e-20 6.31844e-19)
(0.003 9.36484e-20 5.25458e-19)
(0.003 1.25414e-19 3.86152e-19)
(0.003 8.78817e-20 4.53505e-19)
(0.003 -1.09413e-19 4.44478e-19)
(0.003 -1.27021e-19 3.66403e-19)
(0.003 4.69744e-20 2.64335e-19)
(0.003 5.84584e-20 1.84136e-19)
(0.003 2.02225e-20 -2.23978e-20)
(0.003 1.77831e-20 -2.64916e-19)
(0.003 1.02419e-19 -4.34983e-20)
(0.003 4.35889e-20 7.3429e-20)
(0.003 -3.93273e-21 7.58268e-21)
(0.003 -7.47352e-21 -2.80523e-20)
(0.003 -1.97775e-19 9.24784e-19)
(0.003 -4.58276e-20 1.44729e-18)
(0.003 1.36735e-19 1.62096e-18)
(0.003 2.92345e-19 1.86684e-18)
(0.003 2.39277e-19 2.03486e-18)
(0.003 2.35322e-19 2.03768e-18)
(0.003 3.73847e-19 2.0051e-18)
(0.003 2.83154e-19 1.91941e-18)
(0.003 1.9062e-19 1.74147e-18)
(0.003 1.42831e-19 1.68826e-18)
(0.003 2.30567e-19 1.59017e-18)
(0.003 1.25122e-19 1.38247e-18)
(0.003 6.52658e-20 1.3201e-18)
(0.003 1.61208e-19 1.32031e-18)
(0.003 2.45956e-19 1.34791e-18)
(0.003 2.85268e-19 1.28082e-18)
(0.003 3.11992e-19 1.04063e-18)
(0.003 1.79888e-19 7.88334e-19)
(0.003 -7.07952e-20 6.54265e-19)
(0.003 -2.98797e-22 5.93959e-19)
(0.003 2.84351e-19 7.64195e-19)
(0.003 3.66481e-19 9.70017e-19)
(0.003 2.25575e-19 1.02821e-18)
(0.003 2.55618e-19 1.00819e-18)
(0.003 3.36091e-19 9.06752e-19)
(0.003 9.14409e-20 7.04475e-19)
(0.003 -1.78401e-19 5.30337e-19)
(0.003 -1.12355e-19 4.94197e-19)
(0.003 6.16087e-20 5.05946e-19)
(0.003 9.68608e-20 4.51042e-19)
(0.003 -9.01873e-21 3.28048e-19)
(0.003 -6.33187e-20 3.6405e-19)
(0.003 4.27725e-20 3.31786e-19)
(0.003 -1.29213e-20 2.00467e-19)
(0.003 -5.1872e-20 1.00476e-20)
(0.003 7.59248e-20 -3.01254e-19)
(0.003 1.39801e-19 -4.30079e-19)
(0.003 1.34385e-19 -2.91673e-19)
(0.003 1.18156e-19 -1.40744e-19)
(0.003 8.41676e-20 -1.42778e-19)
(0.003 5.4529e-20 1.07408e-18)
(0.003 1.9087e-19 1.62765e-18)
(0.003 2.44577e-19 1.73164e-18)
(0.003 2.68499e-19 1.89998e-18)
(0.003 1.96173e-19 1.96754e-18)
(0.003 2.26175e-19 2.04584e-18)
(0.003 2.04658e-19 2.12141e-18)
(0.003 2.3139e-19 2.03306e-18)
(0.003 1.57547e-19 1.89049e-18)
(0.003 1.55879e-19 1.6517e-18)
(0.003 2.35859e-19 1.39487e-18)
(0.003 1.46069e-19 1.29578e-18)
(0.003 8.8211e-20 1.27192e-18)
(0.003 1.49904e-19 1.20474e-18)
(0.003 2.14796e-19 1.33959e-18)
(0.003 2.81066e-19 1.34785e-18)
(0.003 2.50483e-19 1.13065e-18)
(0.003 1.42223e-19 7.64059e-19)
(0.003 9.35006e-20 6.35264e-19)
(0.003 1.13868e-19 6.99552e-19)
(0.003 2.47658e-19 8.94242e-19)
(0.003 3.6279e-19 1.06877e-18)
(0.003 2.37366e-19 1.09455e-18)
(0.003 1.55485e-19 1.0812e-18)
(0.003 1.18328e-19 8.57178e-19)
(0.003 -1.04801e-20 5.96174e-19)
(0.003 -8.63767e-21 5.31022e-19)
(0.003 4.47129e-20 5.37042e-19)
(0.003 1.63326e-20 4.72891e-19)
(0.003 -3.13991e-21 5.34736e-19)
(0.003 -2.99277e-20 4.92845e-19)
(0.003 -1.44325e-20 3.28798e-19)
(0.003 3.5502e-20 2.5192e-19)
(0.003 1.59507e-20 1.01798e-19)
(0.003 -6.2434e-20 3.26103e-20)
(0.003 -6.79584e-20 -1.91064e-19)
(0.003 -5.42032e-20 -5.10097e-19)
(0.003 8.23866e-20 -2.9113e-19)
(0.003 1.80098e-19 -2.03628e-19)
(0.003 2.0289e-19 -1.98357e-19)
(0.003 2.33198e-19 1.09472e-18)
(0.003 2.51375e-19 1.69801e-18)
(0.003 1.78476e-19 1.78515e-18)
(0.003 1.54411e-19 1.82905e-18)
(0.003 2.38948e-19 2.00005e-18)
(0.003 1.88073e-19 2.12983e-18)
(0.003 1.22016e-19 2.05946e-18)
(0.003 2.44896e-19 2.03414e-18)
(0.003 1.44054e-19 1.78688e-18)
(0.003 5.82816e-20 1.65821e-18)
(0.003 1.67892e-19 1.49716e-18)
(0.003 1.96942e-19 1.31711e-18)
(0.003 1.87397e-19 1.34541e-18)
(0.003 1.79895e-19 1.27777e-18)
(0.003 1.33161e-19 1.30565e-18)
(0.003 9.86493e-20 1.31119e-18)
(0.003 9.14642e-20 1.09827e-18)
(0.003 1.99418e-19 7.98216e-19)
(0.003 3.36403e-19 7.2665e-19)
(0.003 2.72349e-19 7.71205e-19)
(0.003 1.57962e-19 9.47465e-19)
(0.003 1.26785e-19 1.0227e-18)
(0.003 5.63442e-20 9.93205e-19)
(0.003 8.84517e-20 9.87556e-19)
(0.003 -6.63151e-20 9.22944e-19)
(0.003 -8.93624e-20 7.06248e-19)
(0.003 5.96481e-20 6.20069e-19)
(0.003 1.10517e-19 6.01958e-19)
(0.003 2.41295e-20 4.52468e-19)
(0.003 -1.83518e-19 5.11403e-19)
(0.003 1.8288e-20 4.98893e-19)
(0.003 1.38326e-19 3.06612e-19)
(0.003 -2.43625e-20 2.47354e-19)
(0.003 5.0792e-20 8.51903e-20)
(0.003 7.69076e-20 -4.36358e-20)
(0.003 -1.43876e-19 -2.53208e-19)
(0.003 -1.89255e-19 -4.21996e-19)
(0.003 -1.10839e-20 -2.90303e-19)
(0.003 7.6379e-20 -2.44202e-19)
(0.003 7.13328e-20 -3.20684e-19)
(0.003 2.53958e-19 1.11134e-18)
(0.003 2.77428e-19 1.72076e-18)
(0.003 2.36685e-19 1.80927e-18)
(0.003 2.46588e-19 1.95963e-18)
(0.003 8.5698e-20 2.07713e-18)
(0.003 -4.43476e-20 2.08507e-18)
(0.003 1.12429e-19 2.03369e-18)
(0.003 1.37626e-19 1.99005e-18)
(0.003 1.63253e-19 1.79857e-18)
(0.003 1.29429e-19 1.64648e-18)
(0.003 3.58923e-20 1.52059e-18)
(0.003 1.93755e-19 1.43143e-18)
(0.003 2.8701e-19 1.39265e-18)
(0.003 1.9778e-19 1.35631e-18)
(0.003 1.05887e-19 1.3237e-18)
(0.003 6.10963e-20 1.2611e-18)
(0.003 9.7233e-20 1.00334e-18)
(0.003 1.5743e-19 8.06843e-19)
(0.003 2.34223e-19 8.34297e-19)
(0.003 3.10502e-19 8.72978e-19)
(0.003 2.00985e-19 8.90938e-19)
(0.003 8.07592e-20 9.9348e-19)
(0.003 1.18338e-19 9.9079e-19)
(0.003 -1.27477e-20 1.01453e-18)
(0.003 -1.788e-19 8.65086e-19)
(0.003 -1.48609e-19 6.75169e-19)
(0.003 -1.29751e-19 6.67894e-19)
(0.003 2.88584e-20 6.77627e-19)
(0.003 1.84802e-20 5.2034e-19)
(0.003 -1.73095e-19 4.05489e-19)
(0.003 2.12918e-20 5.03054e-19)
(0.003 1.30426e-19 4.15237e-19)
(0.003 -3.4057e-21 1.92675e-19)
(0.003 3.85201e-20 1.06378e-19)
(0.003 6.972e-20 2.85124e-20)
(0.003 -6.75136e-20 -3.66794e-19)
(0.003 -3.22608e-20 -4.3422e-19)
(0.003 -9.3868e-20 -2.51111e-19)
(0.003 -2.39943e-19 -2.13211e-19)
(0.003 -2.33863e-19 -2.90104e-19)
(0.003 -1.07312e-20 1.19824e-18)
(0.003 1.83304e-19 1.83642e-18)
(0.003 2.52436e-19 1.90228e-18)
(0.003 1.23933e-19 2.00463e-18)
(0.003 -4.99742e-20 2.04435e-18)
(0.003 -3.06477e-20 2.03097e-18)
(0.003 1.04349e-19 1.9769e-18)
(0.003 1.91235e-19 1.90834e-18)
(0.003 1.63237e-19 1.75197e-18)
(0.003 3.24629e-20 1.7239e-18)
(0.003 -2.22957e-20 1.57017e-18)
(0.003 2.49428e-19 1.43241e-18)
(0.003 3.13892e-19 1.45417e-18)
(0.003 1.62018e-19 1.35557e-18)
(0.003 6.89198e-20 1.32457e-18)
(0.003 8.00401e-20 1.25864e-18)
(0.003 1.8343e-19 1.11642e-18)
(0.003 2.7398e-19 9.17079e-19)
(0.003 2.75205e-19 8.32465e-19)
(0.003 2.25049e-19 8.55938e-19)
(0.003 2.42145e-19 8.79835e-19)
(0.003 6.04254e-20 9.94205e-19)
(0.003 3.39328e-20 1.00264e-18)
(0.003 -8.67822e-20 9.74343e-19)
(0.003 -1.04346e-19 8.89405e-19)
(0.003 -1.48585e-20 6.71812e-19)
(0.003 -3.9157e-20 5.22309e-19)
(0.003 -1.04626e-19 6.12639e-19)
(0.003 -1.03502e-19 5.64217e-19)
(0.003 -7.26172e-20 4.23989e-19)
(0.003 -2.01549e-19 5.36367e-19)
(0.003 -7.80236e-20 4.80718e-19)
(0.003 8.39563e-20 2.64944e-19)
(0.003 -6.32591e-20 1.16869e-19)
(0.003 -9.48613e-20 -3.59453e-20)
(0.003 -6.59668e-20 -3.64006e-19)
(0.003 -8.15448e-20 -5.21651e-19)
(0.003 -1.23291e-19 -4.74522e-19)
(0.003 -2.06652e-19 -3.56514e-19)
(0.003 -2.81196e-19 -4.15599e-19)
(0.003 -2.29538e-19 1.20816e-18)
(0.003 -1.92065e-19 1.82794e-18)
(0.003 8.46341e-20 1.95691e-18)
(0.003 3.87319e-20 1.94078e-18)
(0.003 5.18568e-20 2.02846e-18)
(0.003 3.67635e-20 2.02742e-18)
(0.003 4.44174e-20 1.98553e-18)
(0.003 1.38943e-19 1.88733e-18)
(0.003 7.28972e-20 1.78901e-18)
(0.003 -6.90059e-20 1.69306e-18)
(0.003 1.04794e-19 1.58679e-18)
(0.003 2.66928e-19 1.55237e-18)
(0.003 2.32383e-19 1.53143e-18)
(0.003 1.15631e-19 1.37284e-18)
(0.003 1.129e-19 1.21531e-18)
(0.003 9.65854e-20 1.23111e-18)
(0.003 1.53607e-19 1.10979e-18)
(0.003 3.15982e-19 9.58536e-19)
(0.003 2.48081e-19 9.45697e-19)
(0.003 1.7204e-19 9.26395e-19)
(0.003 2.11951e-19 8.96396e-19)
(0.003 8.85839e-20 9.31572e-19)
(0.003 -6.41563e-20 1.02089e-18)
(0.003 -1.75676e-19 9.44431e-19)
(0.003 -1.34299e-19 8.30934e-19)
(0.003 6.1004e-20 7.30065e-19)
(0.003 1.35653e-19 5.45185e-19)
(0.003 -7.01894e-20 5.99524e-19)
(0.003 -1.36174e-19 5.44159e-19)
(0.003 -5.48009e-20 3.86756e-19)
(0.003 -1.12018e-19 4.30267e-19)
(0.003 -1.58352e-19 4.48825e-19)
(0.003 -2.67776e-20 3.48617e-19)
(0.003 -2.2059e-20 8.39044e-20)
(0.003 -7.66437e-20 -4.7524e-20)
(0.003 -6.57993e-20 -3.19122e-19)
(0.003 -1.6778e-19 -5.08485e-19)
(0.003 -9.91684e-20 -4.13459e-19)
(0.003 -1.02659e-19 -3.30332e-19)
(0.003 -2.57215e-19 -3.97466e-19)
(0.003 -7.79297e-20 1.13188e-18)
(0.003 -2.5829e-19 1.81412e-18)
(0.003 -1.79824e-19 2.07485e-18)
(0.003 -1.39822e-19 2.03783e-18)
(0.003 2.43951e-20 2.07619e-18)
(0.003 3.18833e-20 2.01632e-18)
(0.003 -4.2647e-20 1.93303e-18)
(0.003 7.86227e-21 1.90382e-18)
(0.003 3.10422e-20 1.78946e-18)
(0.003 4.09429e-20 1.60189e-18)
(0.003 1.33103e-19 1.62929e-18)
(0.003 1.44158e-19 1.64241e-18)
(0.003 3.24088e-20 1.61159e-18)
(0.003 1.55574e-19 1.41237e-18)
(0.003 2.65764e-19 1.29499e-18)
(0.003 1.5632e-19 1.22672e-18)
(0.003 1.13562e-19 1.0441e-18)
(0.003 1.57496e-19 9.45924e-19)
(0.003 1.74138e-19 8.97284e-19)
(0.003 1.00423e-19 8.70485e-19)
(0.003 1.33206e-19 9.14276e-19)
(0.003 1.10959e-19 1.04223e-18)
(0.003 2.1865e-20 1.03845e-18)
(0.003 -1.4839e-19 8.39688e-19)
(0.003 -1.3751e-19 6.80561e-19)
(0.003 -1.05249e-19 7.16804e-19)
(0.003 2.27143e-20 5.83492e-19)
(0.003 6.22967e-20 5.06903e-19)
(0.003 -2.7668e-20 5.41304e-19)
(0.003 1.82328e-20 3.98964e-19)
(0.003 -5.73058e-20 3.87069e-19)
(0.003 -5.32437e-20 4.29512e-19)
(0.003 -4.14088e-20 3.72965e-19)
(0.003 -1.04593e-19 1.47732e-19)
(0.003 -1.87063e-19 -3.39676e-20)
(0.003 -1.3554e-19 -3.53465e-19)
(0.003 -5.35645e-20 -4.16413e-19)
(0.003 -1.45533e-19 -2.13576e-19)
(0.003 -1.62426e-19 -2.56838e-19)
(0.003 -8.99633e-20 -3.75976e-19)
(0.003 -1.52905e-19 1.07472e-18)
(0.003 -1.21801e-19 1.74664e-18)
(0.003 -4.75101e-20 2.01593e-18)
(0.003 -1.33896e-19 2.03674e-18)
(0.003 -1.64976e-19 2.09479e-18)
(0.003 -3.23006e-20 2.05378e-18)
(0.003 -7.76285e-20 2.02126e-18)
(0.003 -1.68785e-19 1.99934e-18)
(0.003 5.57232e-20 1.87391e-18)
(0.003 2.56857e-19 1.66766e-18)
(0.003 1.40898e-19 1.62198e-18)
(0.003 7.81532e-20 1.65339e-18)
(0.003 -5.18469e-20 1.56745e-18)
(0.003 6.33759e-20 1.48598e-18)
(0.003 2.53992e-19 1.31246e-18)
(0.003 2.05672e-19 1.16852e-18)
(0.003 1.10653e-19 1.02184e-18)
(0.003 -1.52287e-20 9.47215e-19)
(0.003 1.53175e-19 9.8797e-19)
(0.003 2.15176e-19 8.84916e-19)
(0.003 2.15319e-19 9.83744e-19)
(0.003 1.84956e-20 9.27014e-19)
(0.003 -1.54182e-19 9.3925e-19)
(0.003 -1.38719e-19 7.80754e-19)
(0.003 -6.35764e-20 7.00304e-19)
(0.003 -5.13293e-20 6.59964e-19)
(0.003 2.94384e-20 5.48025e-19)
(0.003 9.75912e-20 6.0448e-19)
(0.003 3.70475e-20 5.26532e-19)
(0.003 4.92851e-20 4.07096e-19)
(0.003 5.5368e-21 3.42376e-19)
(0.003 -9.55243e-20 3.3981e-19)
(0.003 -1.88273e-19 3.44939e-19)
(0.003 -2.25158e-19 2.04263e-19)
(0.003 -3.42922e-19 7.54134e-20)
(0.003 -2.36215e-19 -1.65396e-19)
(0.003 6.9153e-20 -3.15647e-19)
(0.003 7.70914e-20 -2.14339e-19)
(0.003 -1.05733e-19 -3.57604e-19)
(0.003 -1.16389e-19 -4.704e-19)
(0.003 -1.93335e-19 9.99141e-19)
(0.003 -1.78123e-19 1.77889e-18)
(0.003 -1.2234e-19 2.12203e-18)
(0.003 -4.40836e-21 2.08631e-18)
(0.003 -2.6946e-21 1.99994e-18)
(0.003 -1.15289e-19 2.05188e-18)
(0.003 -1.86502e-19 2.0088e-18)
(0.003 -1.99975e-19 1.94629e-18)
(0.003 -5.94272e-21 1.9332e-18)
(0.003 1.35891e-19 1.81475e-18)
(0.003 1.28085e-19 1.64353e-18)
(0.003 3.74383e-20 1.60871e-18)
(0.003 8.29468e-20 1.53351e-18)
(0.003 -5.04758e-21 1.45632e-18)
(0.003 9.44081e-20 1.41506e-18)
(0.003 1.52944e-19 1.27477e-18)
(0.003 1.0902e-19 1.08786e-18)
(0.003 1.74398e-19 8.7454e-19)
(0.003 2.43695e-19 9.00563e-19)
(0.003 2.73301e-19 8.99838e-19)
(0.003 7.24558e-20 9.95635e-19)
(0.003 -2.08712e-19 1.03496e-18)
(0.003 -2.49587e-19 9.01004e-19)
(0.003 -8.20853e-20 7.27671e-19)
(0.003 -5.29712e-20 6.96672e-19)
(0.003 5.55941e-20 7.29206e-19)
(0.003 1.07918e-19 6.54253e-19)
(0.003 -6.87591e-21 5.64013e-19)
(0.003 2.86364e-20 4.88399e-19)
(0.003 6.43563e-20 4.08887e-19)
(0.003 1.07373e-19 2.9392e-19)
(0.003 -1.50521e-19 2.57642e-19)
(0.003 -2.02627e-19 2.77249e-19)
(0.003 -1.03714e-19 2.33122e-19)
(0.003 -1.7489e-19 1.14366e-19)
(0.003 -1.50495e-19 -3.85216e-21)
(0.003 -1.07244e-19 -1.56368e-19)
(0.003 -4.27475e-21 -1.7656e-19)
(0.003 7.80579e-20 -3.5354e-19)
(0.003 9.24978e-20 -4.25223e-19)
(0.003 -8.90518e-20 1.01563e-18)
(0.003 -1.2866e-19 1.72364e-18)
(0.003 -1.41433e-19 1.97939e-18)
(0.003 3.41877e-20 2.11078e-18)
(0.003 -7.26462e-21 2.11431e-18)
(0.003 -2.39056e-19 2.02745e-18)
(0.003 -2.50581e-19 1.99966e-18)
(0.003 -1.62514e-19 2.01784e-18)
(0.003 5.58303e-20 1.9744e-18)
(0.003 7.29634e-20 1.82596e-18)
(0.003 -8.03934e-21 1.6476e-18)
(0.003 3.83276e-20 1.61648e-18)
(0.003 1.32544e-19 1.56107e-18)
(0.003 1.21611e-19 1.46074e-18)
(0.003 -8.23867e-21 1.40106e-18)
(0.003 -1.44638e-21 1.3242e-18)
(0.003 4.93541e-20 1.18978e-18)
(0.003 1.69013e-19 9.8944e-19)
(0.003 2.95853e-19 9.19841e-19)
(0.003 1.61903e-19 9.21495e-19)
(0.003 -1.40297e-19 9.36568e-19)
(0.003 -1.77229e-19 8.62769e-19)
(0.003 -8.42087e-20 9.29363e-19)
(0.003 -4.46059e-21 8.49814e-19)
(0.003 -6.61473e-20 6.78775e-19)
(0.003 -6.67489e-20 6.63527e-19)
(0.003 1.45186e-19 6.75224e-19)
(0.003 1.61128e-19 5.70478e-19)
(0.003 6.30083e-20 4.4351e-19)
(0.003 8.30867e-22 4.20596e-19)
(0.003 4.11232e-21 3.48787e-19)
(0.003 -7.67116e-20 1.89269e-19)
(0.003 -9.47991e-20 2.27453e-19)
(0.003 -3.00795e-20 3.43224e-19)
(0.003 -1.0969e-20 1.56558e-19)
(0.003 -3.15958e-20 7.62512e-20)
(0.003 -2.43589e-20 3.18767e-21)
(0.003 -3.97535e-20 -9.27815e-20)
(0.003 7.99774e-20 -3.16417e-19)
(0.003 1.82593e-19 -3.8779e-19)
(0.003 1.17796e-19 1.03202e-18)
(0.003 1.6586e-19 1.76668e-18)
(0.003 5.11974e-20 1.91518e-18)
(0.003 -9.7177e-20 2.00169e-18)
(0.003 -2.32009e-19 2.07373e-18)
(0.003 -1.77331e-19 1.98791e-18)
(0.003 -1.31164e-19 1.91674e-18)
(0.003 -1.60678e-19 1.98237e-18)
(0.003 -1.13945e-19 2.06281e-18)
(0.003 2.50686e-20 1.93154e-18)
(0.003 1.11379e-19 1.659e-18)
(0.003 1.25338e-19 1.64591e-18)
(0.003 1.87456e-19 1.52057e-18)
(0.003 2.33913e-19 1.52622e-18)
(0.003 -1.45882e-20 1.47794e-18)
(0.003 -1.72062e-19 1.35354e-18)
(0.003 -1.65895e-19 1.12048e-18)
(0.003 -1.36301e-19 9.0923e-19)
(0.003 1.02268e-20 9.89208e-19)
(0.003 2.13471e-20 8.79907e-19)
(0.003 -8.98276e-20 8.40495e-19)
(0.003 -3.42731e-20 9.31135e-19)
(0.003 -2.07954e-20 1.00273e-18)
(0.003 3.76437e-20 8.81936e-19)
(0.003 1.44694e-19 6.56041e-19)
(0.003 5.63509e-20 6.35431e-19)
(0.003 2.77006e-20 7.23605e-19)
(0.003 8.30908e-20 6.40342e-19)
(0.003 8.41103e-20 5.02345e-19)
(0.003 2.82545e-22 3.45183e-19)
(0.003 -6.43242e-20 3.5804e-19)
(0.003 -5.18416e-20 1.98311e-19)
(0.003 -2.16781e-20 2.02791e-19)
(0.003 -1.55828e-20 2.81102e-19)
(0.003 8.53544e-20 1.82461e-19)
(0.003 9.52544e-20 1.63729e-19)
(0.003 6.21148e-20 4.47895e-20)
(0.003 3.70557e-21 -1.85248e-19)
(0.003 -4.08024e-20 -4.47903e-19)
(0.003 -6.06061e-20 -5.51622e-19)
(0.003 3.41427e-19 1.06526e-18)
(0.003 2.4306e-19 1.68175e-18)
(0.003 -2.20884e-21 1.83518e-18)
(0.003 -1.05721e-19 1.94834e-18)
(0.003 -6.1511e-20 1.95817e-18)
(0.003 2.14495e-20 1.97552e-18)
(0.003 1.63363e-20 1.94626e-18)
(0.003 -1.71688e-19 1.90435e-18)
(0.003 -2.62517e-19 1.95471e-18)
(0.003 -7.45961e-20 2.02488e-18)
(0.003 1.85748e-19 1.88306e-18)
(0.003 1.71414e-19 1.75597e-18)
(0.003 1.5518e-19 1.58737e-18)
(0.003 1.46223e-19 1.51228e-18)
(0.003 -4.08477e-20 1.45958e-18)
(0.003 -1.3724e-19 1.31118e-18)
(0.003 -1.1869e-19 1.06981e-18)
(0.003 -1.38481e-19 8.8349e-19)
(0.003 -2.28829e-19 1.02799e-18)
(0.003 -1.43161e-19 9.67502e-19)
(0.003 -9.66883e-20 8.72342e-19)
(0.003 -9.36344e-20 8.63533e-19)
(0.003 -1.29803e-20 9.37264e-19)
(0.003 2.49107e-20 8.72609e-19)
(0.003 2.0622e-19 8.30163e-19)
(0.003 1.9843e-19 7.26635e-19)
(0.003 -2.47181e-20 6.51128e-19)
(0.003 -4.54836e-21 6.01319e-19)
(0.003 3.21775e-20 5.32558e-19)
(0.003 -6.55265e-21 4.22432e-19)
(0.003 -1.13401e-20 3.39617e-19)
(0.003 -1.07396e-20 1.32327e-19)
(0.003 -6.04682e-20 1.27343e-19)
(0.003 7.41288e-21 2.52795e-19)
(0.003 1.85934e-19 2.31428e-19)
(0.003 1.87794e-19 1.65876e-19)
(0.003 -5.50122e-21 -3.20661e-20)
(0.003 -5.73274e-20 -2.57765e-19)
(0.003 -1.4611e-19 -4.46204e-19)
(0.003 -2.33259e-19 -4.38965e-19)
(0.003 2.59988e-19 1.08238e-18)
(0.003 1.76398e-19 1.67302e-18)
(0.003 -4.4734e-20 1.82008e-18)
(0.003 8.27313e-22 1.89708e-18)
(0.003 1.77398e-19 1.9745e-18)
(0.003 1.79403e-19 1.93815e-18)
(0.003 4.11037e-20 1.89793e-18)
(0.003 -1.11823e-19 1.81063e-18)
(0.003 -1.66669e-19 1.88418e-18)
(0.003 -2.09662e-19 2.04207e-18)
(0.003 -6.6767e-20 1.97954e-18)
(0.003 7.01191e-20 1.76912e-18)
(0.003 5.05679e-20 1.6027e-18)
(0.003 -1.41837e-19 1.59965e-18)
(0.003 -1.42911e-19 1.50184e-18)
(0.003 -9.85228e-20 1.34325e-18)
(0.003 -1.71087e-19 1.14416e-18)
(0.003 -1.90861e-19 9.09208e-19)
(0.003 -2.97249e-19 8.95389e-19)
(0.003 -1.8911e-19 9.44823e-19)
(0.003 -3.98419e-20 8.97393e-19)
(0.003 -4.45503e-21 8.55574e-19)
(0.003 1.00369e-19 9.87774e-19)
(0.003 1.09051e-19 8.79896e-19)
(0.003 1.16435e-19 7.78289e-19)
(0.003 1.72488e-19 7.47421e-19)
(0.003 6.02116e-20 6.75033e-19)
(0.003 5.8052e-20 6.73398e-19)
(0.003 1.24001e-21 5.60123e-19)
(0.003 -7.83937e-20 3.2689e-19)
(0.003 -5.04255e-21 2.6944e-19)
(0.003 8.92562e-20 1.65511e-19)
(0.003 1.67247e-21 4.83683e-20)
(0.003 6.5379e-20 1.83805e-19)
(0.003 2.76579e-19 3.88314e-19)
(0.003 1.95687e-19 1.9088e-19)
(0.003 1.1579e-19 -2.74696e-19)
(0.003 -3.93726e-20 -4.22957e-19)
(0.003 -8.34012e-20 -4.34582e-19)
(0.003 -3.68464e-20 -3.49055e-19)
(0.003 -1.21933e-19 1.11863e-18)
(0.003 -8.39026e-20 1.76396e-18)
(0.003 5.34406e-20 1.83574e-18)
(0.003 1.4001e-20 1.84002e-18)
(0.003 1.27867e-20 1.89267e-18)
(0.003 1.18487e-19 2.01445e-18)
(0.003 1.12849e-19 1.93105e-18)
(0.003 1.29405e-19 1.75321e-18)
(0.003 -7.70421e-20 1.84108e-18)
(0.003 -1.98618e-19 1.94096e-18)
(0.003 -1.38122e-19 1.94437e-18)
(0.003 -1.32599e-19 1.8534e-18)
(0.003 -2.62173e-19 1.7219e-18)
(0.003 -2.19746e-19 1.45963e-18)
(0.003 -1.22869e-19 1.34819e-18)
(0.003 -1.35878e-19 1.25397e-18)
(0.003 -2.10308e-19 1.10362e-18)
(0.003 -1.90788e-19 9.72251e-19)
(0.003 -1.68287e-19 9.53905e-19)
(0.003 -2.11627e-19 9.51141e-19)
(0.003 -1.60485e-19 9.24965e-19)
(0.003 6.54735e-20 9.20518e-19)
(0.003 1.64027e-19 9.75974e-19)
(0.003 1.57273e-19 9.16339e-19)
(0.003 1.45504e-19 8.82349e-19)