/*--------------------------------*- C++ -*----------------------------------*\
| =========                 |                                                 |
| \\      /  F ield         | OpenFOAM: The Open Source CFD Toolbox           |
|  \\    /   O peration     | Version:  v2012                                 |
|   \\  /    A nd           | Website:  www.openfoam.com                      |
|    \\/     M anipulation  |                                                 |
\*---------------------------------------------------------------------------*/
FoamFile
{
    version     2.0;
    format      ascii;
    class       volScalarField;
    location    "750/rightSolid";
    object      T;
}
// * * * * * * * * * * * * * * * * * * * * * * * * * * * * * * * * * * * * * //

dimensions      [0 0 0 1 0 0 0];


internalField   nonuniform List<scalar> 
130
(
749.31328
757.23697
765.48471
773.63906
781.43637
788.65701
795.1363
800.77076
805.50288
809.30395
812.16451
814.08181
815.04532
743.39971
752.67426
762.11144
771.23075
779.75316
787.49718
794.34325
800.23203
805.13558
809.05148
811.98616
813.9472
814.93133
731.61075
743.96372
755.92753
766.96254
776.85843
785.55329
793.04638
799.37028
804.5625
808.66991
811.73123
813.76388
814.77796
714.09822
732.23322
748.25112
761.98757
773.65221
783.48895
791.71965
798.52138
804.02451
808.33429
811.52343
813.62956
814.67648
693.48241
721.12135
741.93271
758.25853
771.39318
782.10102
790.8678
797.99893
803.7113
808.15199
811.42166
813.57251
814.6406
693.48157
721.10775
741.92369
758.25767
771.39966
782.11487
790.88751
798.03084
803.75178
808.1967
811.46041
813.60734
814.67366
714.1043
732.19124
748.21052
761.98289
773.67581
783.53846
791.7925
798.61087
804.12077
808.43157
811.61335
813.71238
814.75592
731.62169
743.91471
755.86223
766.94644
776.89702
785.63126
793.14886
799.48572
804.68123
808.79286
811.84998
813.87493
814.88462
743.35888
752.58479
762.01373
771.18126
779.76678
787.55467
794.42988
800.33502
805.2462
809.17422
812.11604
814.07357
815.05211
749.22137
757.10281
765.35868
773.56875
781.42119
788.68369
795.19298
800.85041
805.60088
809.42133
812.29413
814.21234
815.17335
)
;

boundaryField
{
    maxX
    {
        type            zeroGradient;
    }
    minZ
    {
        type            zeroGradient;
    }
    maxZ
    {
        type            zeroGradient;
    }
    rightSolid_to_bottomWater
    {
        type            compressible::turbulentTemperatureCoupledBaffleMixed;
        refValue        nonuniform List<scalar> 
130
(
925.42462
923.07295
920.55563
912.83727
911.05467
911.80241
912.47778
912.58694
912.53532
912.04915
911.59396
912.12318
912.72725
921.12548
918.83161
917.04291
912.31175
910.68318
911.65401
912.10282
912.75701
912.56261
912.19785
911.66939
912.17384
912.92967
914.19096
914.04865
912.89133
910.75647
909.86894
910.71727
911.28796
912.0996
911.62748
911.17748
912.09312
912.67003
912.65784
905.2167
908.61059
909.27805
907.92656
909.3481
909.88258
910.09133
910.94637
910.72875
910.98453
912.21625
912.80113
912.6467
895.21468
901.89518
902.634
905.00247
907.33773
908.33973
910.47025
910.29845
910.30652
910.30997
911.95725
912.34879
912.5777
894.48667
901.3565
903.8375
906.16901
908.0848
908.84913
909.71577
911.23778
911.97467
912.80317
912.77182
912.9429
913.10093
903.37677
904.56861
907.03816
910.46003
911.04806
911.54174
912.59779
914.1062
913.42493
913.41784
913.52234
913.53305
913.29773
910.38749
912.12509
907.69119
912.01134
914.05046
915.25304
915.47312
915.80533
913.78741
913.99736
914.07258
913.67328
913.47987
915.9934
916.45029
912.8217
911.66454
913.90805
914.78357
915.33703
915.44537
913.5566
914.08564
914.43302
914.23724
914.0595
922.58849
918.63897
917.51582
914.71503
913.14236
913.32526
913.55003
913.67497
913.38053
913.92738
914.15659
914.28085
914.42297
)
;
        refGradient     uniform 0;
        valueFraction   nonuniform List<scalar> 
130
(
0.0075140686
0.0075140686
0.0075140686
0.0075140686
0.0075140686
0.0075140686
0.0075140686
0.0075140686
0.0075140686
0.0075140686
0.0075140686
0.0075140686
0.0075140686
0.0075140686
0.0075140686
0.0075140686
0.0075140686
0.0075140686
0.0075140686
0.0075140686
0.0075140686
0.0075140686
0.0075140686
0.0075140686
0.0075140686
0.0075140686
0.0075140686
0.0075140686
0.0075140686
0.0075140686
0.0075140686
0.0075140686
0.0075140686
0.0075140686
0.0075140686
0.0075140686
0.0075140686
0.0075140686
0.0075140686
0.0075140686
0.0075140686
0.0075140686
0.0075140686
0.0075140686
0.0075140686
0.0075140686
0.0075140686
0.0075140686
0.0075140686
0.0075140686
0.0075140686
0.0075140686
0.0075140686
0.0075140686
0.0075140686
0.0075140686
0.0075140686
0.0075140686
0.0075140686
0.0075140686
0.0075140686
0.0075140686
0.0075140686
0.0075140686
0.0075140686
0.0075140686
0.0075140686
0.0075140686
0.0075140686
0.0075140686
0.0075140686
0.0075140686
0.0075140686
0.0075140686
0.0075140686
0.0075140686
0.0075140686
0.0075140686
0.0075140686
0.0075140686
0.0075140686
0.0075140686
0.0075140686
0.0075140686
0.0075140686
0.0075140686
0.0075140686
0.0075140686
0.0075140686
0.0075140686
0.0075140686
0.0075140686
0.0075140686
0.0075140686
0.0075140686
0.0075140686
0.0075140686
0.0075140686
0.0075140686
0.0075140686
0.0075140686
0.0075140686
0.0075140686
0.0075140686
0.0075140686
0.0075140686
0.0075140686
0.0075140686
0.0075140686
0.0075140686
0.0075140686
0.0075140686
0.0075140686
0.0075140686
0.0075140686
0.0075140686
0.0075140686
0.0075140686
0.0075140686
0.0075140686
0.0075140686
0.0075140686
0.0075140686
0.0075140686
0.0075140686
0.0075140686
0.0075140686
0.0075140686
0.0075140686
0.0075140686
)
;
        value           nonuniform List<scalar> 
130
(
750.63715
758.48369
766.65059
774.68571
782.41105
789.58309
796.01879
801.61176
806.30797
810.07685
812.91253
814.81943
815.78025
744.73568
753.92336
763.27625
772.29153
780.73769
788.43084
795.22887
801.07834
805.94362
809.82739
812.73608
814.6862
815.66863
732.98322
745.24235
757.10762
768.0437
777.8586
786.49453
793.93563
800.21813
805.36782
809.44102
812.48624
814.50798
815.51435
715.53493
733.55921
749.46179
763.0849
774.67259
784.43944
792.60988
799.36695
804.82712
809.10646
812.28093
814.37564
815.41355
694.99885
722.48036
743.14091
759.36189
772.41541
783.05034
791.76727
798.84355
804.51309
808.92046
812.17797
814.31562
815.37742
694.99247
722.46275
743.14094
759.36973
772.4274
783.06787
791.78114
798.88226
804.5658
808.98359
812.22258
814.35469
815.41418
715.52701
733.48706
749.40456
763.09919
774.70869
784.50098
792.70097
799.47946
804.94288
809.22128
812.37998
814.46334
815.49729
732.96543
745.1792
757.00368
768.03709
777.92826
786.60593
794.06871
800.36048
805.50183
809.58418
812.61892
814.62568
815.62634
744.65655
753.81658
763.14746
772.23746
780.77535
788.51133
795.33906
801.20068
806.06081
809.96332
812.88567
814.82704
815.7969
750.5245
758.31705
766.50247
774.62985
782.41153
789.62089
796.08299
801.69889
806.41149
810.20738
813.06034
814.96509
815.91995
)
;
        Tnbr            T;
        thicknessLayers List<scalar> 0();
        kappaLayers     List<scalar> 0();
        kappaMethod     solidThermo;
        kappa           none;
        alphaAni        none;
        alpha           none;
        field           T;
    }
    rightSolid_to_topAir
    {
        type            compressible::turbulentTemperatureCoupledBaffleMixed;
        refValue        nonuniform List<scalar> 
130
(
496.06156
488.5206
481.97483
476.68615
472.69674
469.93739
468.30081
467.68549
468.03543
469.38208
471.91286
476.13072
482.89379
438.881
433.12872
429.56762
427.47215
426.34674
425.93834
426.15188
426.96492
428.42427
430.67193
434.06353
439.55557
449.16702
449.60244
440.52937
432.72674
426.16106
420.85921
416.93912
414.5248
413.66111
414.27468
416.24175
419.55242
425.01051
434.43269
504.41623
504.6913
503.7113
501.17563
497.26917
492.42828
487.0725
481.6936
477.20031
475.09739
477.22987
484.19162
494.60938
508.95967
512.74346
516.71444
520.49846
523.74216
526.15214
527.54782
527.93079
527.60265
527.27193
528.05956
531.36401
538.81086
509.90005
513.50287
517.24423
520.70293
523.49144
525.31206
526.00665
525.61194
524.48043
523.36173
523.42971
526.18317
533.23953
504.35473
504.53622
503.17074
499.96159
495.24792
489.67991
483.77123
477.95288
473.14042
470.61046
472.14159
479.20526
489.66555
448.97328
440.30852
432.71977
426.24912
421.05447
417.37213
415.35706
414.97968
416.04315
418.28831
421.60289
426.82576
435.59814
437.61034
432.15015
428.79271
426.82557
425.79629
425.51323
425.92733
427.0206
428.80812
431.36338
434.94248
440.41455
450.14914
495.29936
487.79796
481.30249
476.06469
472.13035
469.44554
467.91977
467.45708
467.99165
469.52958
472.21852
476.51618
483.28918
)
;
        refGradient     uniform 0;
        valueFraction   nonuniform List<scalar> 
130
(
0.00032132529
0.00032132529
0.00032132529
0.00032132529
0.00032132529
0.00032132529
0.00032132529
0.00032132529
0.00032132529
0.00032132529
0.00032132529
0.00032132529
0.00032132529
0.00032132529
0.00032132529
0.00032132529
0.00032132529
0.00032132529
0.00032132529
0.00032132529
0.00032132529
0.00032132529
0.00032132529
0.00032132529
0.00032132529
0.00032132529
0.00032132529
0.00032132529
0.00032132529
0.00032132529
0.00032132529
0.00032132529
0.00032132529
0.00032132529
0.00032132529
0.00032132529
0.00032132529
0.00032132529
0.00032132529
0.00032132529
0.00032132529
0.00032132529
0.00032132529
0.00032132529
0.00032132529
0.00032132529
0.00032132529
0.00032132529
0.00032132529
0.00032132529
0.00032132529
0.00032132529
0.00032132529
0.00032132529
0.00032132529
0.00032132529
0.00032132529
0.00032132529
0.00032132529
0.00032132529
0.00032132529
0.00032132529
0.00032132529
0.00032132529
0.00032132529
0.00032132529
0.00032132529
0.00032132529
0.00032132529
0.00032132529
0.00032132529
0.00032132529
0.00032132529
0.00032132529
0.00032132529
0.00032132529
0.00032132529
0.00032132529
0.00032132529
0.00032132529
0.00032132529
0.00032132529
0.00032132529
0.00032132529
0.00032132529
0.00032132529
0.00032132529
0.00032132529
0.00032132529
0.00032132529
0.00032132529
0.00032132529
0.00032132529
0.00032132529
0.00032132529
0.00032132529
0.00032132529
0.00032132529
0.00032132529
0.00032132529
0.00032132529
0.00032132529
0.00032132529
0.00032132529
0.00032132529
0.00032132529
0.00032132529
0.00032132529
0.00032132529
0.00032132529
0.00032132529
0.00032132529
0.00032132529
0.00032132529
0.00032132529
0.00032132529
0.00032132529
0.00032132529
0.00032132529
0.00032132529
0.00032132529
0.00032132529
0.00032132529
0.00032132529
0.00032132529
0.00032132529
0.00032132529
0.00032132529
0.00032132529
0.00032132529
)
;
        value           nonuniform List<scalar> 
130
(
749.23246
757.15124
765.39428
773.54435
781.33789
788.55535
795.03206
800.66454
805.39529
809.1956
812.05608
813.97416
814.93954
743.30239
752.57217
762.00523
771.12098
779.64032
787.38174
794.22572
800.11289
805.01537
808.93077
811.86563
813.82782
814.81474
731.52069
743.86683
755.82433
766.85372
776.74477
785.4356
792.92553
799.24714
804.43792
808.54468
811.60611
813.63988
814.65667
714.03148
732.16078
748.17325
761.90451
773.56415
783.39619
791.62254
798.42038
803.92033
808.22807
811.4169
813.52461
814.57455
693.42373
721.05506
741.86103
758.18285
771.31435
782.01954
790.78397
797.91295
803.62341
808.06259
811.3315
813.48273
814.55289
693.42312
721.04164
741.85212
758.18199
771.32068
782.03307
790.80315
797.94409
803.66288
808.10605
811.36877
813.51592
814.58417
714.03741
732.11866
748.13239
761.89933
773.58701
783.44474
791.69426
798.50859
804.01522
808.32386
811.50515
813.6058
814.65239
731.53136
743.8177
755.75899
766.8376
776.78334
785.51362
793.02817
799.3629
804.55712
808.66819
811.72542
813.75143
814.76362
743.26112
752.48233
761.90721
771.07121
779.65367
787.43899
794.31215
800.21578
805.126
809.05361
811.99567
813.95434
814.93571
749.14022
757.01673
765.26788
773.47367
781.32239
788.58175
795.08849
800.744
805.49315
809.3129
812.18566
814.10466
815.06755
)
;
        Tnbr            T;
        thicknessLayers List<scalar> 0();
        kappaLayers     List<scalar> 0();
        kappaMethod     solidThermo;
        kappa           none;
        alphaAni        none;
        alpha           none;
        field           T;
    }
    rightSolid_to_heater
    {
        type            compressible::turbulentTemperatureCoupledBaffleMixed;
        refValue        nonuniform List<scalar> 10(742.20763 734.93694 719.93885 695.34516 654.56615 654.59235 695.43843 720.08394 735.00515 742.18306);
        refGradient     uniform 0;
        valueFraction   nonuniform List<scalar> 10(0.50000003 0.50000003 0.50000003 0.50000003 0.50000003 0.50000003 0.50000003 0.50000003 0.50000003 0.50000003);
        value           nonuniform List<scalar> 10(745.76073 739.16859 725.77508 704.72201 674.02458 674.03722 704.77162 725.85306 739.18226 745.70243);
        Tnbr            T;
        thicknessLayers List<scalar> 0();
        kappaLayers     List<scalar> 0();
        kappaMethod     solidThermo;
        kappa           none;
        alphaAni        none;
        alpha           none;
        field           T;
    }
}


// ************************************************************************* //
