/*--------------------------------*- C++ -*----------------------------------*\
| =========                 |                                                 |
| \\      /  F ield         | OpenFOAM: The Open Source CFD Toolbox           |
|  \\    /   O peration     | Version:  v2012                                 |
|   \\  /    A nd           | Website:  www.openfoam.com                      |
|    \\/     M anipulation  |                                                 |
\*---------------------------------------------------------------------------*/
FoamFile
{
    version     2.0;
    format      ascii;
    class       volScalarField;
    location    "4";
    object      p;
}
// * * * * * * * * * * * * * * * * * * * * * * * * * * * * * * * * * * * * * //

dimensions      [0 2 -2 0 0 0 0];


internalField   nonuniform List<scalar> 
64000
(
2.1851e-21
1.14129e-21
-1.82116e-21
-2.03484e-21
-1.86714e-21
-1.34602e-21
3.02138e-22
5.20199e-22
-2.62268e-22
-1.00585e-21
-9.61941e-23
1.15109e-21
-4.41783e-22
-2.10651e-21
-9.08166e-22
-1.76815e-22
-2.84351e-21
3.28406e-22
3.41959e-21
2.21493e-21
-1.30763e-21
-4.40069e-21
-1.99215e-21
-1.83791e-21
-2.99337e-21
-1.06914e-21
3.42015e-22
5.09061e-22
3.37737e-22
-7.18744e-22
-8.42896e-22
-3.08036e-22
-5.30492e-22
-1.05319e-22
6.31741e-22
-8.61293e-22
-3.39164e-22
8.71798e-22
9.48685e-22
7.14914e-22
-5.15683e-22
-1.62143e-21
1.36414e-22
-1.40236e-21
-4.408e-21
-3.61228e-21
-1.1743e-21
2.01573e-22
-1.42804e-22
-1.56854e-21
1.40879e-22
-7.88051e-22
2.09565e-22
5.4977e-22
-2.42837e-21
-1.74625e-21
-1.91082e-21
9.91137e-22
2.63842e-21
3.6312e-21
1.16807e-21
-2.84893e-21
-4.18925e-21
-6.56455e-21
-4.07794e-21
4.12614e-22
6.74843e-22
8.02169e-22
-5.46057e-22
-5.75238e-22
1.20386e-21
4.77082e-22
-3.77776e-23
3.32642e-22
-3.36632e-23
-1.39681e-21
6.71516e-22
-1.02993e-22
1.30602e-21
1.0702e-21
-7.65529e-23
-1.01922e-21
-5.06779e-22
-1.16544e-21
-3.64562e-21
-4.20134e-21
-1.8324e-21
-1.10687e-21
-3.76177e-22
3.82993e-22
-3.00968e-22
-1.33792e-21
-2.15822e-22
-1.87545e-22
-4.74535e-22
-8.16688e-22
-2.68398e-21
-5.30368e-22
4.87492e-22
3.21818e-21
2.73978e-21
-1.67174e-21
-4.51467e-21
-5.90942e-21
-2.85515e-21
-1.02362e-22
2.01655e-22
1.92833e-22
-8.23842e-22
1.04294e-21
1.02936e-21
-6.31162e-23
7.94961e-22
-1.70554e-22
4.43113e-22
1.59123e-21
-1.09631e-21
-1.206e-21
-4.87684e-23
6.26717e-22
-3.47018e-21
-4.42995e-21
-2.63581e-21
-3.01409e-21
-1.50173e-21
-3.18453e-21
-1.8772e-21
-1.53722e-21
-1.44115e-21
3.85298e-23
5.41905e-22
-1.72894e-21
-8.36741e-22
1.19054e-22
-1.34925e-21
-2.55572e-21
-1.32197e-21
-7.04969e-22
6.93967e-22
3.10489e-21
2.67531e-21
2.10574e-22
-5.42753e-21
-6.30877e-21
-2.31076e-21
4.34435e-23
-2.13106e-23
1.27704e-21
8.0714e-22
-7.91661e-22
-5.64963e-22
8.31402e-23
2.05116e-22
1.09024e-21
2.03574e-21
4.74572e-22
-1.04004e-21
-1.18488e-21
-1.70196e-21
-9.28644e-23
-5.38778e-21
-4.14418e-21
-2.53428e-21
-2.50478e-21
-2.45485e-21
-2.13192e-21
-1.61531e-21
-5.17716e-22
-1.14678e-21
-1.83538e-21
-1.63824e-21
-2.4401e-21
1.04238e-21
1.58472e-21
-2.3558e-21
-4.9693e-21
-3.95107e-21
6.52186e-22
3.50294e-21
2.60981e-21
1.78807e-21
-1.50671e-21
-4.88753e-21
-4.49228e-21
-1.32544e-21
6.47276e-22
-6.22155e-23
-1.92204e-21
4.13846e-22
7.11948e-22
3.38656e-23
1.78032e-22
2.0968e-22
2.7329e-22
-3.61354e-22
8.7724e-22
-4.13387e-22
1.96281e-22
-1.52356e-21
4.35736e-22
-1.72159e-21
-1.7962e-21
-6.67084e-22
-1.39025e-21
-1.84914e-21
-2.4025e-21
-2.0854e-21
-1.28557e-21
-1.36985e-21
-3.74271e-22
-7.12741e-22
-2.60971e-21
-1.45438e-22
1.61236e-21
-1.55822e-21
-5.78763e-21
-4.15962e-21
7.03787e-22
3.85766e-21
3.47049e-21
2.70267e-21
-1.86242e-21
-7.8462e-21
-4.54115e-21
-1.87174e-21
-1.41537e-22
-1.26029e-21
-1.2268e-21
6.89164e-22
-2.72357e-23
1.04659e-22
5.12952e-22
7.26943e-22
3.60302e-22
-6.34761e-22
6.66301e-22
1.46036e-23
-1.8978e-21
-1.24112e-21
5.94042e-22
-1.93863e-21
-2.62822e-21
-7.4898e-22
-2.06354e-21
-2.91489e-21
-2.6263e-21
-1.52902e-21
-7.40475e-22
-2.31603e-21
-1.30242e-21
-7.94257e-22
-1.38006e-21
-9.33262e-22
-3.6089e-22
-8.88543e-22
-2.64148e-21
-1.42374e-21
6.74139e-22
4.28577e-21
3.01378e-21
1.67234e-21
-2.2873e-21
-7.06744e-21
-4.88735e-21
-2.74812e-21
-1.64194e-21
-6.66413e-22
1.63977e-22
2.57011e-22
-1.66722e-21
-2.49714e-21
1.90142e-21
2.25008e-21
2.1069e-22
7.50834e-22
6.92061e-22
3.39687e-22
-2.0809e-21
-3.23169e-21
-2.57914e-22
-2.43904e-21
-2.94035e-21
-2.46353e-21
-2.03604e-21
-2.54083e-21
-4.60183e-22
1.26319e-22
-3.39961e-21
-1.98222e-21
-1.85442e-21
-1.74747e-21
-2.00366e-21
-2.48888e-21
-1.83557e-21
-1.06483e-21
-1.98028e-21
-6.99168e-22
1.72115e-21
3.23989e-21
4.32964e-21
3.65743e-22
-2.73626e-21
-5.17245e-21
-5.59994e-21
-3.57674e-21
-1.10065e-21
3.08731e-22
2.78179e-22
9.297e-22
-9.69717e-22
-1.83434e-21
-3.06085e-23
1.91762e-21
-8.57413e-22
7.75441e-22
1.65341e-21
-8.38542e-22
-2.1716e-21
-2.13151e-21
-3.00254e-22
-9.03101e-21
-5.642e-21
-1.02599e-21
-2.42193e-21
-2.60429e-21
-5.96825e-22
-6.04294e-22
-2.12182e-21
-1.4818e-21
-3.71886e-21
-1.97484e-21
-2.47575e-21
-2.46849e-21
-6.26671e-23
-1.79304e-21
-3.53135e-21
-2.4399e-21
2.87181e-21
2.45256e-21
2.62773e-21
1.03387e-21
-4.6738e-21
-6.72405e-21
-4.71178e-21
-8.17037e-22
-1.73001e-21
2.32322e-21
1.92893e-21
-7.63004e-23
-1.66497e-21
-5.82001e-22
-1.07246e-21
-9.16166e-22
7.35577e-22
8.83883e-22
1.41706e-21
5.78353e-22
-1.00104e-21
-8.40313e-23
-1.09833e-22
-3.43017e-21
-4.2021e-21
-4.24844e-21
-2.79097e-21
-1.61588e-21
-2.06858e-21
-1.16617e-21
-2.55984e-21
-1.50765e-21
-8.64199e-22
-2.10202e-21
-3.07932e-21
-1.47509e-21
3.22941e-22
-2.6042e-21
-3.18929e-21
-1.78831e-21
7.95665e-22
2.41491e-21
3.75709e-21
2.19223e-21
-3.88288e-21
-7.30082e-21
-3.71554e-21
-1.58675e-21
-3.96752e-22
1.58335e-21
2.49402e-21
-2.16697e-21
-1.82747e-21
-1.26309e-21
-1.22216e-21
-4.84637e-22
4.65584e-22
1.34145e-21
1.1111e-21
-1.21948e-21
1.40856e-22
9.42e-22
-2.18703e-22
-2.51854e-21
-4.73008e-21
-4.63052e-21
-4.56112e-21
-2.13471e-21
-3.07181e-21
-3.50282e-21
-9.22402e-22
-1.71105e-21
-2.0019e-21
-1.71361e-21
-1.82486e-21
-1.10934e-21
3.3705e-23
-2.25875e-21
-3.53367e-21
-1.87843e-23
2.24165e-21
4.01085e-21
2.59445e-21
-1.3454e-21
-6.56039e-21
-4.49873e-21
-3.47873e-21
-3.00786e-21
-1.63551e-21
1.02495e-21
2.89903e-21
-4.34069e-22
-2.023e-21
-3.88242e-22
-2.68635e-21
-1.03764e-21
1.36e-21
-3.12459e-23
4.53593e-22
6.79042e-22
1.14563e-21
1.73742e-21
1.12707e-21
-2.82095e-21
-6.08809e-21
-5.88645e-21
-4.58042e-21
-1.24646e-21
-2.83118e-21
-2.78482e-21
-2.36077e-21
-3.59206e-22
-6.67207e-22
-1.47677e-21
-2.87763e-21
-2.81958e-21
-1.76022e-21
-1.53649e-21
-2.13929e-21
-4.65218e-22
1.84784e-21
2.36558e-21
4.3082e-21
-2.25079e-21
-6.17148e-21
-4.72863e-21
-5.43418e-21
-4.89365e-22
-2.25784e-22
7.27524e-22
2.09189e-21
-1.73652e-22
-1.16426e-21
-1.04088e-21
-2.79155e-21
-1.60086e-21
1.95263e-21
-5.06996e-22
3.41628e-22
1.58976e-21
2.53104e-21
2.21216e-21
-1.61247e-21
-6.73676e-21
-7.27706e-21
-5.9655e-21
-4.66654e-21
-2.88339e-21
-2.10976e-21
-1.83222e-21
-1.32762e-21
2.38271e-23
-1.49509e-21
-1.60341e-21
-2.29121e-21
-2.58615e-21
-2.72283e-21
-3.17089e-21
-1.99244e-21
-2.26028e-22
1.70346e-21
2.74154e-21
1.7835e-21
-1.72834e-21
-4.27308e-21
-2.35735e-21
-2.26503e-21
-1.65395e-21
4.99974e-22
7.16152e-22
6.02945e-22
-1.64937e-22
-1.06018e-21
-2.31167e-21
-1.15715e-21
1.0857e-21
1.81689e-21
-5.87604e-22
5.2812e-22
5.1806e-22
6.0244e-22
-5.07805e-24
-1.06534e-21
-6.93105e-21
-7.54383e-21
-6.7457e-21
-4.88454e-21
-3.61336e-21
-1.56649e-21
-2.22807e-21
-6.51615e-22
-1.80499e-21
-4.04786e-21
-2.66215e-21
-8.68565e-22
-2.16207e-21
-4.25346e-21
-3.27151e-21
-8.47738e-22
-5.39423e-23
2.81477e-21
4.14458e-21
3.61782e-21
-3.13258e-21
-6.36871e-21
-3.76608e-21
-3.25456e-21
2.30375e-22
4.50622e-22
1.14487e-21
-3.70377e-23
-5.47018e-22
-4.337e-22
-1.63258e-21
1.11091e-21
6.61375e-22
-3.42492e-23
-1.30942e-21
1.13886e-21
1.28096e-21
7.82128e-22
-2.8505e-22
5.515e-22
-4.95554e-21
-7.98315e-21
-7.93424e-21
-4.43424e-21
-1.76026e-21
-3.65975e-21
-2.96726e-21
-2.64186e-21
-2.4764e-21
-2.47864e-21
-2.32986e-21
-1.35321e-21
-1.12006e-21
-2.48854e-21
-2.93408e-21
-2.30724e-21
4.74848e-22
1.3792e-21
1.94094e-21
3.69793e-21
-2.23781e-21
-4.97673e-21
-3.4702e-21
-2.64721e-21
2.22892e-21
1.16939e-21
1.96677e-22
-9.06265e-22
-1.69257e-21
-1.10353e-21
-2.1588e-21
9.21346e-22
2.21223e-21
9.65691e-22
-2.53948e-22
-6.76728e-22
1.13486e-21
2.18804e-21
5.21942e-22
1.84886e-21
-7.38074e-21
-9.23599e-21
-6.49277e-21
-3.52545e-21
-2.98335e-21
-2.57278e-21
-2.87708e-21
-3.5639e-21
-2.89035e-21
-5.38693e-22
-2.76894e-21
-1.10896e-21
-1.2277e-21
-1.56164e-21
-1.40052e-21
-1.55876e-21
-3.63272e-22
1.95782e-21
4.36028e-21
1.84636e-21
-3.53446e-21
-5.17265e-21
-4.00015e-21
6.27925e-22
5.14982e-22
-5.73659e-22
5.90898e-22
-2.22413e-21
-1.40154e-21
7.84954e-22
-8.5244e-22
1.17634e-22
3.26603e-21
1.22846e-21
-1.39819e-21
-1.1661e-22
-1.75739e-22
-2.94887e-22
5.76153e-22
1.74023e-21
-7.07535e-21
-8.82398e-21
-8.52733e-21
-2.26008e-21
-7.40727e-22
-1.99764e-21
-3.18609e-21
-4.52935e-21
-3.70056e-21
-1.42413e-21
-1.04748e-21
-6.64734e-22
-1.60896e-21
-2.85313e-22
-1.43171e-21
-4.78015e-22
-4.67391e-22
1.08925e-21
4.21931e-22
-9.10356e-22
-3.79206e-21
-2.25431e-21
-4.66407e-22
3.96128e-22
-3.50466e-22
1.34229e-21
4.56659e-22
-1.69019e-21
-4.06418e-25
-1.66876e-21
-1.74874e-21
3.47263e-22
2.53577e-21
2.11203e-21
-5.3057e-22
8.31719e-23
-8.97223e-22
-5.67069e-22
2.65267e-22
-3.27737e-22
-5.5492e-21
-8.32612e-21
-8.73968e-21
-4.54086e-21
-1.76645e-21
2.82255e-22
-2.68123e-21
-6.09176e-21
-2.71237e-21
-1.74865e-21
-1.01972e-21
1.79019e-22
-2.43971e-23
-1.77528e-22
-2.91637e-21
-4.23696e-22
4.33165e-22
3.74904e-22
1.01914e-21
-1.80151e-21
-4.83104e-21
-4.79117e-21
8.26328e-22
1.07697e-21
-1.12676e-22
1.16951e-21
1.37596e-21
4.21631e-22
-1.67972e-21
-9.42175e-22
3.36626e-22
-1.22848e-23
1.53053e-21
7.25381e-22
-5.59952e-22
-1.92215e-21
-2.49398e-23
3.47724e-24
2.16615e-22
-1.42041e-22
-4.35516e-21
-6.06839e-21
-6.76233e-21
-4.94453e-21
-3.65261e-21
-1.75133e-21
-2.34039e-21
-2.0208e-21
-1.87809e-21
-2.31561e-21
-1.7314e-21
-1.0857e-21
1.66947e-21
2.31647e-21
-1.93644e-21
-2.99504e-21
1.06258e-21
-2.82175e-21
-3.82605e-21
-2.81814e-21
-2.34371e-21
-9.19243e-22
-3.34956e-22
2.884e-22
1.38796e-21
5.06745e-22
2.22209e-21
3.18542e-21
1.27404e-21
-8.74037e-22
-2.20585e-21
3.16995e-22
2.09308e-21
4.50186e-22
-3.17612e-21
-4.82368e-22
1.05127e-21
2.6538e-22
-8.69712e-23
-3.1291e-22
-3.6687e-21
-6.17942e-21
-7.07409e-21
-4.33681e-21
-2.8586e-21
-2.59041e-21
-2.32687e-21
-2.77316e-21
-1.03786e-21
-8.04108e-22
-1.57853e-21
4.26858e-22
1.19041e-21
3.16893e-23
-4.74092e-22
-5.94105e-22
3.21206e-22
-1.30424e-21
-5.6492e-21
-2.70214e-21
-2.8077e-21
-2.46573e-21
-4.89111e-22
-3.10637e-22
2.35748e-21
2.51629e-21
-1.54892e-21
1.97951e-21
2.57904e-21
5.4791e-22
1.07003e-21
7.87467e-22
8.74493e-22
-1.06689e-21
-3.04239e-21
1.05507e-22
-1.41524e-22
1.13333e-21
4.18034e-23
-7.39834e-22
-6.06426e-21
-6.99706e-21
-7.11697e-21
-3.32936e-21
-2.19603e-21
-3.03456e-21
-1.84642e-21
-3.62659e-22
1.54203e-22
-1.81099e-21
-4.02467e-21
-1.35467e-21
3.03539e-22
-1.03538e-23
-4.94729e-22
9.25581e-22
8.15334e-22
-3.32978e-23
-5.18335e-21
-2.15413e-21
-3.20915e-21
-3.30747e-21
2.34372e-22
-6.82202e-23
-5.72395e-22
2.20617e-21
1.45861e-21
1.37099e-21
1.91354e-21
7.81581e-22
-1.20701e-22
1.57484e-21
-6.89208e-22
2.59578e-23
7.08715e-22
-2.91392e-21
-1.53683e-21
4.15529e-22
6.95097e-22
9.52251e-23
-1.01925e-20
-9.02586e-21
-6.74056e-21
-2.17338e-21
-1.39782e-21
-2.89498e-21
-1.14397e-21
-1.50503e-21
-5.40807e-22
-2.04471e-21
-3.42626e-21
-2.57397e-21
-9.10378e-23
-2.99989e-21
9.05319e-22
3.58391e-21
-9.10824e-23
-1.44151e-21
-2.09993e-21
-1.441e-21
-4.07293e-21
-4.51004e-21
3.07136e-22
6.93481e-22
-4.97579e-22
1.88268e-21
2.75264e-21
-5.39621e-22
-3.82113e-23
-1.88782e-23
6.31607e-22
3.31371e-21
2.40502e-22
-1.48456e-21
-5.56777e-22
-3.27496e-21
-7.31575e-22
6.39208e-22
1.2273e-21
1.67517e-23
-1.10406e-20
-8.66605e-21
-6.05559e-21
-2.89209e-21
-1.18216e-21
-4.52335e-21
-9.66587e-22
-2.04594e-21
-3.86602e-21
-3.93788e-21
-2.70346e-21
-1.98142e-21
-6.86848e-22
-9.10035e-23
3.10716e-21
1.22631e-21
-3.2278e-22
2.739e-22
1.3173e-21
-1.27194e-21
-4.09089e-21
-3.14734e-21
-2.16247e-21
-4.70941e-21
-1.41895e-21
9.37512e-22
3.17028e-21
1.43694e-21
3.15434e-22
-7.61453e-22
-2.60788e-22
-1.59153e-22
8.34041e-22
1.8941e-22
1.03792e-21
-2.32464e-21
-1.18966e-21
1.25863e-21
9.30976e-22
-7.36114e-22
-6.56078e-21
-6.76449e-21
-7.19605e-21
-3.85205e-21
-1.30318e-21
-3.71845e-21
-4.21612e-21
-4.54267e-21
-2.19434e-21
-2.11547e-21
-2.65661e-21
-2.36257e-21
8.83218e-22
5.41169e-22
1.04191e-21
4.84409e-22
-6.50869e-22
-3.20296e-22
1.3921e-21
-4.04422e-23
-2.89192e-21
-2.54441e-21
-1.38739e-21
-2.22977e-21
-1.5805e-21
-7.49427e-22
1.64377e-21
1.80713e-21
2.23012e-21
-2.52878e-21
-1.05182e-21
1.17411e-21
-4.37596e-22
-9.64829e-22
1.5612e-22
-6.98606e-22
-6.11095e-22
1.62282e-21
1.02679e-21
-6.37778e-22
-2.61581e-21
-3.953e-21
-6.53352e-21
-5.78226e-21
-3.45741e-21
-3.48415e-21
-3.78255e-21
-3.65124e-21
-9.70865e-22
-1.6467e-21
-3.9215e-21
-8.53923e-22
-5.825e-22
-7.35296e-22
6.54916e-22
6.53685e-22
-7.91851e-22
-3.84966e-22
2.08244e-21
2.8547e-21
-1.05376e-21
-3.03556e-21
-4.41535e-22
-4.36154e-21
-2.91902e-21
-6.68274e-22
-4.08734e-22
5.76272e-22
2.59096e-22
2.36272e-22
1.83315e-21
1.56073e-21
-2.09094e-21
-1.14688e-21
-1.94008e-21
-1.19125e-21
1.36497e-21
1.3092e-21
5.86974e-22
7.18046e-22
-5.00315e-21
-4.59916e-21
-4.70962e-21
-4.86194e-21
-4.4092e-21
-2.75617e-21
-3.14486e-21
-2.6322e-21
-6.03031e-22
3.95767e-22
-2.71422e-21
-1.37655e-21
-2.40158e-21
-4.1117e-21
3.55864e-22
1.51452e-21
5.27292e-22
-3.07079e-23
2.8949e-21
2.66572e-21
-4.65495e-22
-1.33223e-21
-3.21782e-21
-4.97847e-21
-2.33639e-21
-1.76882e-21
2.77062e-22
2.85041e-22
-4.28304e-22
7.66239e-22
9.67948e-22
-1.88021e-22
-8.9644e-22
3.41067e-22
-8.24631e-22
-2.49345e-22
4.27638e-22
-1.14585e-21
1.64738e-21
2.30621e-21
-1.5639e-21
-1.9778e-21
-3.72111e-21
-6.39683e-21
-3.83579e-21
-4.72395e-21
-2.31205e-21
-1.07074e-21
1.86724e-22
-4.81856e-22
-7.20564e-22
-5.48961e-22
-2.77565e-21
-3.48168e-21
-2.52736e-21
-1.60964e-21
-1.16664e-21
1.02496e-21
5.25853e-21
5.26471e-21
-1.45634e-21
-5.1277e-21
-3.53124e-21
-2.80652e-21
-2.70722e-21
-1.35715e-21
7.28958e-22
1.22869e-21
-8.55749e-22
-3.32967e-22
1.33075e-21
-3.08289e-22
-3.21432e-22
-1.69581e-22
-1.00322e-21
-2.4048e-22
-4.10861e-22
-8.28197e-22
9.10133e-22
1.69827e-21
-2.9034e-21
-3.96324e-21
-3.6921e-21
-4.71401e-21
-2.16101e-21
-1.56718e-21
-1.94602e-21
-3.17868e-21
-1.51279e-21
-8.15169e-22
2.76174e-22
-8.70975e-22
-1.11613e-21
-2.65013e-21
-4.0436e-21
-1.21325e-21
-1.16441e-21
1.04621e-21
4.58411e-21
5.13957e-21
-1.5772e-21
-4.20444e-21
-2.30643e-21
-4.73345e-21
-2.50127e-21
-3.97604e-22
8.24217e-22
-2.10245e-21
-5.25395e-22
1.08916e-22
1.03116e-21
5.05518e-22
3.1894e-22
-4.4167e-22
-1.26069e-21
-2.04142e-21
-7.3472e-22
-1.52666e-22
6.13758e-22
6.64119e-22
-2.77935e-21
-4.82283e-21
-4.2951e-21
-2.4411e-21
-1.0125e-21
-3.08193e-21
-3.65256e-21
-2.81136e-21
-1.89439e-21
-9.4178e-22
-3.83409e-22
-7.64988e-22
-5.80681e-22
-2.59232e-21
-2.16316e-21
-8.0176e-22
9.30806e-22
2.08016e-21
2.22114e-21
3.03114e-21
-1.4983e-21
-5.3077e-21
-3.06472e-21
-2.72491e-21
-1.68022e-21
-1.31429e-21
-4.51776e-22
-2.57165e-21
-1.40077e-21
-5.15523e-23
1.21306e-21
9.92253e-22
1.31334e-21
-4.91795e-22
-2.24827e-21
-2.96567e-21
1.05983e-23
7.81217e-22
8.70384e-22
1.00512e-21
-2.00427e-21
-3.83724e-21
-3.58174e-21
-2.63262e-21
-1.5417e-21
-2.0458e-21
-3.34154e-21
-2.53238e-21
-2.13338e-21
-1.88103e-21
-1.78522e-22
-7.8251e-22
-1.42057e-22
-1.06853e-21
-1.58761e-21
-1.91927e-21
-2.64496e-21
-8.391e-23
3.44616e-21
4.67276e-21
9.27778e-23
-5.66639e-21
-3.1009e-21
-2.36666e-21
-3.29804e-21
-3.23301e-21
-3.41348e-22
2.04426e-21
-6.8883e-22
1.0026e-21
-1.47626e-22
-6.42198e-23
1.05345e-21
-7.89946e-22
-2.09055e-21
-2.39889e-21
-9.64463e-22
-1.21156e-21
1.40392e-21
1.00263e-21
-3.96954e-21
-3.48684e-21
-2.28811e-21
-3.01028e-21
-2.46639e-21
-3.07791e-21
-1.70298e-21
-2.70655e-21
-1.39097e-21
1.28364e-22
2.4512e-22
-1.13252e-21
-4.7025e-22
2.99079e-22
-5.41428e-22
-4.28798e-21
-2.25898e-21
-3.36776e-22
2.11571e-21
3.19585e-21
1.69309e-21
-3.33033e-21
-2.9443e-21
-1.35081e-21
-2.25234e-21
-3.06523e-21
-1.04162e-21
3.82666e-22
-1.03507e-22
-2.67821e-23
-7.30333e-22
-3.54153e-22
4.29387e-22
-5.67012e-22
-1.50286e-21
-5.22531e-22
-1.46611e-21
-3.79564e-22
-2.08959e-22
1.077e-23
-6.71415e-21
-4.87825e-21
-2.29585e-21
-3.73844e-21
-2.71221e-21
-1.99775e-21
-2.02681e-21
-2.8077e-21
-1.31866e-21
1.09303e-21
2.27477e-21
-3.69627e-21
4.77564e-22
2.01133e-21
-1.38354e-21
-4.81082e-21
-5.01604e-22
7.21435e-22
3.34526e-22
1.67233e-21
2.32998e-21
-1.0353e-21
-5.22221e-21
-4.33601e-21
-1.93166e-21
-6.37703e-23
5.46998e-23
2.83942e-22
5.93316e-22
7.93132e-22
-2.98251e-21
-2.14667e-21
1.12861e-21
-1.26953e-22
-1.36366e-21
-1.31453e-21
-2.30351e-21
1.1812e-22
1.12778e-21
2.86675e-23
-6.03406e-21
-3.56777e-21
-1.54608e-21
-2.53516e-21
-3.152e-21
-9.26071e-22
-1.01891e-21
-3.41523e-21
-1.64665e-21
1.38113e-21
-2.50729e-22
3.92205e-22
-5.7271e-22
1.64893e-21
-1.90224e-21
-3.63241e-21
-1.8428e-21
-7.74458e-22
3.23954e-21
2.16049e-21
8.23522e-22
-2.1775e-22
-3.98163e-21
-3.63471e-21
-5.59151e-21
-2.69361e-21
1.49642e-21
1.08267e-21
5.34344e-22
-1.35891e-21
-8.26974e-22
2.34013e-23
1.39105e-21
9.02915e-22
1.19371e-21
6.80889e-23
-3.72551e-21
-4.08863e-21
-2.13214e-21
-1.18993e-21
-5.59762e-21
-3.37526e-21
-1.53862e-21
-3.5951e-21
-1.84114e-21
-3.09635e-23
-1.567e-21
-1.00473e-21
-1.74856e-21
-2.87049e-22
-3.22206e-22
1.07074e-21
6.26493e-22
-7.34082e-22
-3.28024e-21
-2.69379e-21
-1.93129e-21
-1.38068e-21
1.05232e-21
3.1263e-21
3.5539e-21
-8.55641e-22
-3.20883e-21
-4.58649e-21
-3.65624e-21
-9.00025e-22
-3.01367e-22
-2.2261e-22
4.37641e-22
-1.74572e-21
-5.4115e-22
2.01935e-21
1.5616e-21
2.35824e-21
1.08303e-21
-2.58165e-21
-3.46223e-21
-6.49149e-22
-2.23827e-21
-2.1218e-21
-4.78758e-21
-2.70364e-21
-1.04494e-21
-1.15483e-21
-8.56836e-22
-2.74015e-21
-2.21754e-21
-1.37563e-21
-2.59843e-21
-1.51274e-21
-2.39454e-22
-7.00502e-22
2.70299e-21
2.34681e-21
-2.291e-21
-4.95449e-21
-4.93034e-21
-1.78358e-21
3.36153e-21
2.98473e-21
2.57394e-21
-1.52139e-21
-2.94365e-21
-2.83175e-21
-7.83184e-22
-4.48909e-22
-2.27044e-21
-4.05817e-21
-4.95117e-22
-8.27704e-22
2.36464e-22
2.63913e-21
1.20887e-21
1.58838e-22
-2.43542e-22
-3.65965e-21
-1.55601e-21
1.47004e-21
-1.45591e-22
-1.69099e-22
-2.85737e-21
-2.34218e-21
-9.39279e-22
1.83598e-22
-4.32783e-22
-2.95348e-21
-2.45802e-21
-1.28844e-21
-1.82605e-21
-1.81017e-21
-9.43378e-22
-3.50981e-22
5.71105e-22
1.63251e-21
-9.70954e-22
-3.43693e-21
-3.66456e-21
3.81875e-22
3.15296e-21
2.6899e-21
3.7772e-22
-4.34507e-21
-3.21674e-21
-1.70525e-21
3.24862e-23
-1.34605e-22
-4.21544e-22
-1.3623e-21
-1.6564e-21
-7.92643e-22
-8.05551e-22
9.82979e-22
4.12165e-22
9.6583e-22
1.90772e-21
-2.14712e-21
-7.41625e-22
7.58169e-22
-9.50604e-22
-2.04357e-21
-3.28881e-21
-3.14229e-21
-6.05587e-22
-1.11275e-21
-1.16302e-21
-1.10033e-21
-1.72775e-21
-3.42716e-21
-1.94705e-21
-7.83274e-22
-1.02612e-21
4.3911e-22
1.72059e-22
-6.4748e-22
-1.81779e-21
-1.56157e-21
-2.00125e-21
1.29399e-21
3.29792e-21
1.78973e-21
9.20451e-22
-3.5355e-21
-1.9631e-21
-1.96141e-21
-1.82531e-21
-3.70837e-22
3.43968e-22
4.51339e-22
-2.02955e-22
-2.43109e-21
-2.31513e-21
-7.63929e-22
9.13383e-22
1.65459e-21
6.33634e-23
-1.83744e-21
4.92581e-23
7.48406e-22
-3.24843e-22
-7.03373e-22
-4.28513e-21
-2.56578e-21
-1.76326e-21
-5.75832e-22
-2.04927e-21
-3.35596e-21
-2.17578e-21
-2.15545e-21
-1.18431e-21
-1.05975e-21
3.31113e-22
4.79317e-22
4.2122e-22
-6.45074e-22
-1.15746e-21
3.91978e-22
-4.83125e-22
-2.75739e-22
2.62683e-21
3.87767e-21
3.14196e-22
-4.01362e-21
-2.78402e-21
-2.73643e-21
-1.92097e-22
2.10065e-23
-8.45946e-22
1.15906e-22
4.32995e-22
-1.89452e-21
-3.10389e-21
-1.26189e-21
-2.3825e-22
7.62266e-22
6.03e-22
7.84597e-23
-3.04349e-23
2.41661e-21
4.98014e-22
-1.01281e-21
-2.20824e-21
-9.11403e-22
-2.12171e-21
-2.96196e-21
-2.72357e-21
-2.71088e-21
-1.93746e-21
-1.50575e-21
-5.80907e-22
-7.09858e-22
6.43897e-22
2.45904e-21
1.15761e-21
-1.75376e-21
-2.17552e-21
3.48706e-23
3.60494e-23
6.13709e-22
8.59508e-22
1.17092e-21
2.08751e-21
-4.08309e-22
-2.8461e-21
-1.44402e-21
-2.80683e-21
-3.80014e-22
1.00122e-21
2.61135e-21
-2.19902e-21
-3.85728e-21
-1.71013e-21
-1.57681e-21
-4.8702e-22
7.35995e-22
1.32845e-21
-6.55583e-22
-9.52693e-22
1.09453e-21
1.07719e-21
-7.47477e-22
-4.64681e-21
-1.30731e-21
-1.51233e-21
1.6365e-22
5.61096e-22
-1.31123e-21
-3.22415e-21
-2.16088e-21
-8.11624e-22
-2.26609e-22
1.66815e-21
1.54171e-21
-2.71842e-22
-9.01484e-22
-2.16489e-21
-6.83176e-22
3.46177e-22
3.67613e-23
1.12589e-21
9.65275e-22
1.02007e-21
-4.89427e-22
-1.54181e-22
-1.56307e-21
-1.25425e-21
-2.93046e-22
4.08451e-22
1.53296e-21
-2.47603e-22
-1.29284e-22
-2.25354e-21
-1.17483e-21
-5.76177e-22
2.05603e-22
9.50482e-22
-2.05694e-21
-2.06446e-21
-9.71041e-22
3.15428e-22
-5.72156e-23
2.80777e-22
-9.75176e-22
-3.72786e-21
-3.03841e-21
-1.05282e-21
-2.81168e-21
-6.27184e-22
8.31801e-22
5.57099e-24
1.26456e-21
-1.19071e-21
-1.73571e-21
-1.46542e-21
-1.94742e-22
-7.61835e-23
-2.53687e-21
-2.0981e-21
3.59305e-23
3.0755e-21
2.15698e-21
-1.13382e-21
-2.4005e-21
-2.30538e-21
-2.33216e-21
-3.58561e-21
-1.24588e-21
-7.2339e-22
-1.98907e-22
-5.21377e-24
-1.36513e-21
-4.53925e-22
1.22609e-22
-1.29886e-21
2.41698e-21
1.95111e-21
-4.53717e-22
5.85503e-22
-1.18072e-23
-3.70223e-22
4.27712e-22
-1.40244e-21
-3.00492e-21
-2.85048e-21
-5.47857e-21
-2.04832e-22
-2.43909e-21
-2.48771e-21
-7.3501e-22
-7.55171e-22
-8.55548e-22
-2.03513e-21
-7.6502e-22
-1.89221e-22
-2.49501e-21
-1.90308e-21
-5.84473e-22
-2.52681e-23
-7.69732e-22
2.10567e-21
4.01294e-21
-2.51568e-22
-4.93524e-21
-3.665e-21
-4.33836e-21
-3.0438e-21
-1.75886e-22
2.40946e-21
3.88608e-22
-2.79713e-21
-2.68149e-21
7.66481e-22
1.96283e-21
-1.89042e-21
1.62122e-21
1.39862e-21
-1.23166e-21
6.18603e-22
2.81961e-21
1.45047e-21
1.84974e-22
-1.68958e-21
-2.80249e-21
-2.11486e-21
-3.0693e-21
-2.54126e-21
-2.15403e-21
-1.86835e-21
-5.07254e-21
-1.90997e-21
1.09843e-21
-8.13565e-22
-1.53312e-21
-6.77059e-22
-8.75943e-22
-1.44929e-21
-2.38131e-21
-1.63655e-21
-7.50534e-22
2.1613e-21
5.77996e-21
-1.59311e-21
-3.65985e-21
-3.42501e-21
-3.90017e-21
-3.38548e-21
1.0515e-21
1.79566e-21
-2.42485e-21
-1.56764e-21
-1.15574e-21
-4.3275e-22
-7.3737e-22
2.3161e-23
1.79362e-21
-2.45419e-22
2.17662e-22
1.08182e-21
1.48715e-21
6.25229e-22
7.42278e-23
-5.71504e-21
-5.67452e-21
-2.92548e-21
-3.87611e-21
-3.48914e-21
-3.74696e-21
-2.12077e-21
-2.1683e-21
-3.40483e-21
1.85151e-21
5.40185e-22
-3.00706e-21
-4.61813e-22
-7.27226e-23
-1.35542e-21
-2.53521e-21
-1.43555e-21
-1.08848e-21
2.14637e-22
5.09479e-21
-7.52164e-22
-3.54913e-21
-5.32846e-21
-5.03929e-21
-2.28736e-21
7.25168e-22
5.22715e-22
2.38168e-21
3.19918e-23
-2.153e-21
-1.40734e-21
7.21574e-23
4.34118e-22
-7.8756e-22
1.70517e-21
5.27393e-22
1.60654e-22
-5.30446e-22
-1.44444e-21
-3.09508e-22
-5.87665e-21
-5.8379e-21
-3.10109e-21
-3.53632e-21
-3.41669e-21
-3.80299e-21
-2.23068e-21
-9.49763e-22
-6.31145e-22
-5.65402e-22
-1.50449e-21
-3.07583e-21
-2.40831e-22
7.83037e-23
-1.82309e-21
-3.84033e-21
-2.65241e-21
-8.31696e-23
2.14482e-21
2.92502e-21
1.04636e-22
-3.83534e-21
-4.75407e-21
-4.83743e-21
-1.21791e-21
7.50379e-22
-1.02032e-21
-1.27097e-21
2.25214e-23
7.84106e-22
7.88207e-22
-1.56272e-22
-9.12628e-22
-7.62952e-22
1.23158e-22
5.05222e-22
1.42023e-21
-3.3487e-22
-8.51353e-22
-1.00877e-21
-4.08177e-21
-3.80508e-21
-2.40128e-21
-2.15275e-21
-2.87239e-21
-3.53379e-21
-2.03556e-21
-1.94382e-21
-1.69486e-21
-1.92312e-21
-1.57492e-21
-3.68143e-21
4.57019e-23
3.78635e-22
-1.68924e-21
-3.11127e-21
-3.01788e-21
-7.00034e-22
2.40817e-21
2.79524e-21
-1.2939e-22
-4.34508e-21
-5.56151e-21
-4.29377e-21
-2.60791e-21
-5.53285e-22
6.51367e-22
-7.449e-22
-4.33308e-22
-4.00563e-22
-2.42656e-21
8.37454e-22
1.2823e-21
1.24278e-21
5.17122e-22
2.0966e-22
1.56227e-23
-2.66165e-21
-1.34885e-21
-5.03198e-23
-4.83807e-21
-5.92337e-21
-1.55326e-21
-3.58963e-21
-5.3661e-21
-2.42036e-21
-2.52253e-21
-5.60321e-22
-2.24694e-21
-3.7065e-21
-3.20713e-21
-1.00624e-21
3.52835e-22
1.33111e-21
-1.41735e-21
-2.76628e-21
-1.52189e-21
-2.54329e-22
2.12921e-21
1.46354e-21
-1.52123e-22
-3.61971e-21
-4.16912e-21
-5.13644e-21
-4.44698e-21
-1.56475e-21
-6.51365e-22
-1.22187e-21
1.41816e-21
7.62134e-22
-3.39754e-21
1.65047e-21
1.66988e-21
1.76088e-21
2.52888e-21
5.63186e-22
1.23519e-22
-2.19947e-21
-3.75853e-21
6.58194e-22
-4.17093e-21
-5.1218e-21
-3.66624e-21
-4.5065e-21
-3.91008e-21
-2.09217e-21
-2.58622e-21
-1.71304e-21
-2.58244e-21
-2.15505e-21
-3.67739e-21
-3.02989e-21
-1.53884e-21
1.80969e-21
-4.62419e-22
-2.58584e-21
-7.57022e-22
6.1899e-22
2.39283e-21
5.99167e-22
2.05671e-22
-4.59881e-21
-6.04082e-21
-5.40768e-21
-3.77464e-21
-2.6255e-22
1.1947e-21
-3.74456e-22
4.56426e-22
-1.42885e-21
-3.35661e-21
1.05921e-21
1.75258e-21
9.68844e-22
2.09247e-21
8.15253e-22
1.52973e-21
5.98836e-22
-3.14692e-21
-1.48726e-21
-5.37373e-21
-6.19125e-21
-3.82903e-21
-3.85922e-21
-5.51186e-21
-3.47908e-21
-3.76154e-21
-9.33323e-22
-1.17446e-21
-3.21127e-21
-3.09163e-21
-5.63016e-21
-1.77296e-21
3.16693e-22
-9.73627e-23
-1.33048e-21
-1.72472e-21
-4.6652e-22
5.65467e-22
-7.36931e-22
4.80246e-22
-3.36671e-21
-6.0862e-21
-8.00644e-21
-2.57236e-21
1.59885e-21
1.02674e-21
8.56748e-22
1.76037e-21
-2.76542e-22
-2.55019e-21
-1.99531e-21
-7.83939e-22
2.02751e-21
3.36855e-21
3.38848e-21
1.22696e-21
3.21593e-23
-9.33214e-22
-1.55466e-21
-6.96688e-21
-5.4851e-21
-4.79568e-21
-4.79884e-21
-5.18616e-21
-3.85206e-21
-3.03449e-21
-2.74727e-21
-1.00094e-21
-1.82775e-21
-3.22938e-21
-4.7628e-21
-2.1163e-21
9.04405e-22
-2.52562e-21
-1.77784e-21
-1.49511e-21
-5.92195e-22
6.09336e-22
1.58589e-21
-1.34126e-21
-4.79832e-21
-5.87848e-21
-6.72338e-21
-2.00664e-21
1.38289e-21
4.68276e-21
-4.51877e-22
-6.65214e-22
-1.67527e-21
-2.28707e-21
-7.97806e-22
-2.6078e-22
3.82192e-21
4.10874e-21
8.38415e-22
-5.92946e-23
-6.8661e-22
-7.83875e-22
-7.7107e-22
-6.70388e-21
-9.40216e-21
-4.90994e-21
-6.61834e-21
-5.24602e-21
-1.65539e-21
-6.1931e-21
-2.71735e-21
-2.22817e-21
-2.05192e-21
-2.49635e-21
-2.67493e-21
-3.22922e-21
3.9389e-22
-4.00352e-21
-3.23867e-21
1.64371e-22
1.14994e-22
1.35674e-21
2.63463e-21
-4.15454e-21
-4.57912e-21
-5.1961e-21
-5.89942e-21
-3.56393e-21
4.44939e-22
3.10115e-21
1.53465e-21
-5.89727e-22
-1.91763e-21
-1.6804e-21
-8.76301e-22
4.30577e-22
2.64429e-21
3.43856e-21
1.49777e-21
-2.35609e-22
-2.43786e-22
-6.30085e-22
5.37614e-22
-6.78881e-21
-1.00928e-20
-6.95127e-21
-7.09135e-21
-4.78841e-21
-2.52757e-21
-4.71298e-21
-2.23739e-21
-6.57651e-22
-3.30996e-21
-2.33936e-21
-2.71861e-21
-2.45402e-21
-2.2862e-21
-4.86169e-21
-4.07498e-21
-9.87174e-23
9.42113e-22
1.2316e-21
1.46568e-21
-2.8516e-21
-4.36741e-21
-4.62299e-21
-4.11927e-21
-3.05487e-21
6.40843e-23
1.831e-21
2.78559e-21
4.12563e-22
-3.62817e-21
-4.70579e-22
-1.60943e-21
-2.13388e-21
1.70414e-21
2.07458e-21
1.43202e-21
1.95289e-21
1.43652e-21
-2.10467e-22
-1.14974e-21
-9.70289e-21
-9.28219e-21
-8.05655e-21
-7.65464e-21
-6.214e-21
-4.36909e-21
-9.13638e-22
-1.85943e-21
-1.64447e-21
-1.90562e-21
-1.88394e-21
-3.3755e-21
-3.34519e-21
-3.74198e-21
-4.74955e-21
-2.41753e-21
6.13116e-22
1.02582e-21
3.2337e-22
1.84815e-22
-3.44138e-21
-3.03707e-21
-2.15328e-21
-1.65509e-21
-2.07085e-21
3.45447e-22
8.1958e-22
6.32993e-22
-8.83178e-22
-6.0289e-22
-2.00743e-21
-1.01753e-21
5.41033e-22
9.35915e-22
-1.23861e-24
7.53152e-22
1.89336e-21
4.18999e-22
-1.55632e-21
3.46939e-22
-1.17968e-20
-1.18411e-20
-9.71665e-21
-7.0549e-21
-6.07215e-21
-3.92847e-21
-3.24457e-21
-6.40822e-22
-2.2419e-21
-3.28152e-21
-3.85423e-21
-2.99663e-21
-4.40485e-21
-4.49663e-21
-4.11034e-21
-3.09958e-21
1.13114e-21
1.76708e-21
3.02149e-21
2.77767e-21
-4.88772e-21
-4.15789e-21
-1.54305e-21
-1.08818e-21
-1.54748e-21
-9.22646e-22
5.08714e-22
1.44196e-21
-4.88494e-22
-1.52526e-22
-5.9073e-22
8.03963e-22
1.38765e-22
-1.81366e-22
-1.33054e-22
1.76596e-21
3.05219e-21
-3.40221e-22
-9.89483e-22
2.00107e-21
-1.53275e-20
-1.23024e-20
-9.51631e-21
-6.34037e-21
-5.13499e-21
-4.4551e-21
-3.94227e-21
-2.33737e-21
-3.45795e-21
-3.31244e-21
-3.71318e-21
-2.65121e-21
-3.40391e-21
-4.00376e-21
-3.89219e-21
-2.27878e-21
2.38233e-21
1.15922e-21
1.34649e-21
1.06976e-21
-3.3103e-21
-4.71401e-21
-1.72223e-21
7.74746e-22
1.79541e-21
-4.37519e-22
-1.07669e-21
-8.84559e-22
-8.36789e-22
-1.47169e-21
-1.30776e-21
8.74363e-22
2.16502e-21
8.50071e-22
-9.1458e-22
-7.11212e-22
7.59802e-22
2.7904e-21
6.05628e-22
1.32806e-21
-1.39896e-20
-1.26727e-20
-1.02211e-20
-8.39342e-21
-6.29538e-21
-5.23985e-21
-4.30711e-21
-3.89893e-21
-2.91579e-21
-2.39522e-21
-3.74171e-21
-2.3908e-21
-4.11592e-21
-2.23516e-21
-1.2844e-21
-1.92185e-21
4.02577e-22
8.05995e-22
1.73232e-21
1.67186e-21
-4.22149e-21
-4.56671e-21
-2.26501e-21
5.32984e-22
7.85878e-22
-2.57422e-22
5.31687e-23
-3.20288e-22
-1.19027e-21
-5.20815e-22
-7.15044e-22
1.05737e-21
2.74931e-21
1.99647e-21
5.56213e-23
-3.04895e-21
-7.60679e-22
2.05024e-21
1.07309e-21
1.23054e-21
-1.26503e-20
-1.29715e-20
-8.73505e-21
-6.44851e-21
-5.11468e-21
-4.78515e-21
-4.88778e-21
-6.06513e-21
-2.95994e-21
-2.04778e-21
-3.35774e-21
-2.48212e-21
-4.68901e-21
-3.3358e-21
-9.70157e-22
1.15612e-21
5.97268e-22
-5.25133e-22
-1.31072e-21
-1.02683e-21
-3.75916e-21
-3.7761e-22
7.73029e-22
-5.13475e-22
-5.77267e-22
-1.71818e-22
1.27948e-21
2.40495e-22
-1.45099e-21
-1.25779e-21
-1.25867e-21
5.29072e-22
2.39628e-21
2.20416e-21
-1.04675e-21
-1.88338e-21
1.1696e-22
2.78491e-21
9.71315e-22
1.06869e-21
-1.13031e-20
-1.34937e-20
-1.14779e-20
-7.99851e-21
-4.46808e-21
-5.20547e-21
-4.35515e-21
-3.23445e-21
-3.21788e-21
-4.47025e-21
-2.8388e-21
-1.31682e-21
-3.02547e-21
-2.71558e-21
-2.12418e-21
-3.54144e-22
-1.62273e-21
-1.15148e-22
1.85949e-21
-2.63938e-21
-4.36116e-21
-2.68748e-21
1.29032e-22
-2.5952e-22
-2.47883e-21
5.01333e-22
3.00453e-21
2.37508e-21
-1.75107e-21
-1.05252e-21
1.22423e-21
9.83869e-22
5.80214e-22
7.97701e-22
-2.34469e-22
-4.47802e-22