/*--------------------------------*- C++ -*----------------------------------*\
| =========                 |                                                 |
| \\      /  F ield         | OpenFOAM: The Open Source CFD Toolbox           |
|  \\    /   O peration     | Version:  v2012                                 |
|   \\  /    A nd           | Website:  www.openfoam.com                      |
|    \\/     M anipulation  |                                                 |
\*---------------------------------------------------------------------------*/
FoamFile
{
    version     2.0;
    format      ascii;
    class       surfaceScalarField;
    location    "4";
    object      phi;
}
// * * * * * * * * * * * * * * * * * * * * * * * * * * * * * * * * * * * * * //

dimensions      [0 3 -1 0 0 0 0];
oriented        oriented;


internalField   nonuniform List<scalar> 
187200
(
1.875e-06
1.75991e-22
1.02223e-22
1.875e-06
1.78842e-22
1.17634e-22
1.875e-06
-4.43263e-23
1.92427e-22
1.875e-06
1.14355e-24
8.47962e-23
1.875e-06
6.67901e-23
-4.67436e-23
1.875e-06
1.3559e-22
1.72977e-23
1.875e-06
1.16101e-22
4.12943e-23
1.875e-06
8.05605e-23
8.37151e-23
1.875e-06
1.066e-23
3.12081e-23
1.875e-06
1.57586e-23
-1.11381e-22
1.875e-06
2.64339e-23
1.69979e-23
1.875e-06
7.00599e-23
1.44468e-22
1.875e-06
-3.45343e-23
6.45244e-23
1.875e-06
-8.3993e-23
-4.59826e-23
1.875e-06
7.91901e-23
-1.84598e-23
1.875e-06
3.17675e-23
6.93875e-23
1.875e-06
2.13622e-23
3.76018e-23
1.875e-06
-1.8122e-23
3.85213e-23
1.875e-06
3.20409e-23
-2.69748e-23
1.875e-06
-1.65786e-22
-8.16159e-23
1.875e-06
-2.17704e-22
-1.13152e-22
1.875e-06
-4.71189e-23
-6.05256e-23
1.875e-06
1.0387e-22
3.25108e-23
1.875e-06
2.53881e-22
5.34176e-23
1.875e-06
4.58134e-23
-4.59429e-23
1.875e-06
-8.75208e-23
2.23221e-23
1.875e-06
-7.53953e-23
9.98384e-23
1.875e-06
-8.00771e-23
4.31985e-23
1.875e-06
4.81394e-23
9.18165e-24
1.875e-06
-5.08987e-23
2.98426e-23
1.875e-06
-9.93604e-23
1.29797e-23
1.875e-06
-9.57706e-23
-3.52389e-23
1.875e-06
-1.19396e-22
1.24903e-23
1.875e-06
-1.04253e-22
-2.0461e-22
1.875e-06
2.32789e-23
-1.33186e-22
1.875e-06
-1.73072e-23
-7.63851e-23
1.875e-06
-1.15097e-22
-1.32402e-22
1.875e-06
5.7348e-23
7.08366e-23
1.875e-06
-5.76675e-25
8.39967e-23
-4.58797e-23
2.55249e-23
1.875e-06
3.5291e-23
4.05981e-23
1.875e-06
5.24167e-24
8.13652e-23
1.875e-06
5.88471e-23
2.15043e-22
1.875e-06
2.60867e-23
1.98013e-22
1.875e-06
-8.01511e-23
-1.15677e-22
1.875e-06
1.77197e-23
-3.97886e-23
1.875e-06
4.08031e-23
8.94684e-23
1.875e-06
1.22645e-22
8.2566e-23
1.875e-06
4.98741e-23
9.87597e-23
1.875e-06
-6.38568e-23
4.58064e-23
1.875e-06
2.44391e-23
1.02433e-22
1.875e-06
2.23173e-23
-3.79426e-23
1.875e-06
7.21081e-23
5.833e-23
1.875e-06
3.73974e-23
1.29978e-22
1.875e-06
-6.65078e-23
1.91003e-23
1.875e-06
-6.92411e-23
-2.71386e-23
1.875e-06
5.53546e-23
-5.90516e-23
1.875e-06
8.00794e-23
6.31431e-23
1.875e-06
1.182e-22
2.33713e-23
1.875e-06
6.17529e-23
-9.81212e-23
1.875e-06
-1.19174e-22
-6.73634e-24
1.875e-06
-1.37507e-22
1.04261e-22
1.875e-06
-5.12829e-24
-1.78684e-23
1.875e-06
5.73734e-23
-9.97064e-23
1.875e-06
-2.8e-23
-5.34644e-23
1.875e-06
1.09719e-23
1.88777e-23
1.875e-06
-1.19089e-23
-5.41161e-23
1.875e-06
-1.28336e-23
1.89173e-23
1.875e-06
1.20412e-23
7.95924e-23
1.875e-06
-9.06521e-23
1.33121e-22
1.875e-06
2.37184e-23
4.84759e-23
1.875e-06
3.31733e-23
-7.56578e-23
1.875e-06
-9.25394e-23
4.95523e-23
1.875e-06
-7.52892e-23
-6.05359e-23
1.875e-06
-9.20356e-23
-1.83409e-22
1.875e-06
-1.35378e-22
-6.12653e-23
1.875e-06
5.71095e-23
-8.18652e-23
1.875e-06
5.96356e-23
-1.50905e-22
1.875e-06
7.64717e-23
-1.51795e-23
5.12133e-23
8.23505e-23
1.875e-06
1.56958e-22
5.64323e-23
1.875e-06
1.48761e-22
7.96111e-23
1.875e-06
1.05682e-22
1.55633e-22
1.875e-06
5.56914e-23
1.19842e-22
1.875e-06
-3.06575e-23
5.56375e-23
1.875e-06
-2.66213e-23
-3.71592e-23
1.875e-06
2.87039e-23
3.45557e-24
1.875e-06
2.13636e-23
2.09669e-22
1.875e-06
6.50669e-23
1.61309e-22
1.875e-06
5.67579e-23
2.17928e-23
1.875e-06
7.22132e-24
6.69282e-23
1.875e-06
5.77746e-23
5.55566e-23
1.875e-06
4.75591e-23
4.51934e-23
1.875e-06
-7.78145e-24
4.3092e-23
1.875e-06
1.19071e-23
4.95251e-23
1.875e-06
1.02424e-22
1.1665e-22
1.875e-06
-2.51391e-23
-1.02157e-23
1.875e-06
3.24203e-23
3.11374e-23
1.875e-06
1.39757e-23
-1.07665e-22
1.875e-06
-1.38442e-23
-1.96029e-22
1.875e-06
-7.12354e-24
1.52508e-22
1.875e-06
-8.69359e-23
1.44188e-22
1.875e-06
9.61634e-24
-1.77632e-24
1.875e-06
4.30907e-23
-1.00198e-22
1.875e-06
-6.23467e-23
-6.01856e-24
1.875e-06
-1.70988e-23
-3.87798e-23
1.875e-06
2.47908e-23
-7.34189e-23
1.875e-06
-4.24941e-23
1.04518e-22
1.875e-06
-8.99057e-23
4.6712e-23
1.875e-06
1.06574e-22
1.35128e-22
1.875e-06
5.23973e-23
6.05176e-23
1.875e-06
-5.40697e-23
-1.70671e-23
1.875e-06
-2.56343e-23
3.69166e-23
1.875e-06
-3.94224e-23
-7.46817e-23
1.875e-06
-1.06691e-22
-9.01544e-23
1.875e-06
7.09369e-24
-1.65721e-23
1.875e-06
-5.3619e-24
-1.60225e-22
1.875e-06
1.20858e-23
-1.78805e-22
1.875e-06
8.86137e-23
-6.7228e-23
8.63261e-23
2.43178e-23
1.875e-06
8.9276e-23
8.02752e-23
1.875e-06
1.31041e-23
8.94248e-23
1.875e-06
3.71696e-23
9.87218e-23
1.875e-06
-2.39915e-23
1.00325e-22
1.875e-06
2.89666e-23
1.20025e-22
1.875e-06
-2.42156e-23
7.49892e-23
1.875e-06
1.47606e-23
6.7406e-23
1.875e-06
-1.89042e-23
8.66369e-23
1.875e-06
9.22303e-24
1.58823e-22
1.875e-06
8.92661e-23
4.92695e-24
1.875e-06
9.15439e-23
6.53622e-23
1.875e-06
8.62385e-23
1.43513e-22
1.875e-06
-7.9047e-23
4.65281e-23
1.875e-06
-6.68675e-23
1.67298e-23
1.875e-06
5.09133e-23
5.85733e-23
1.875e-06
1.49864e-22
6.32019e-23
1.875e-06
4.85048e-23
1.8987e-23
1.875e-06
-9.47495e-23
1.76861e-23
1.875e-06
-1.5696e-22
-3.85628e-23
1.875e-06
9.61042e-24
-1.61083e-22
1.875e-06
2.72865e-23
1.6098e-22
1.875e-06
1.05387e-22
2.30086e-22
1.875e-06
4.26701e-23
7.62172e-23
1.875e-06
-6.78886e-23
-5.88981e-23
1.875e-06
-5.88584e-23
3.47631e-23
1.875e-06
-7.48766e-23
-1.56756e-23
1.875e-06
4.26041e-23
-6.01982e-23
1.875e-06
1.82578e-22
-7.62366e-23
1.875e-06
1.05266e-22
4.49967e-23
1.875e-06
-9.10549e-23
5.86241e-23
1.875e-06
-6.12172e-23
2.19431e-23
1.875e-06
-3.81968e-23
-9.23889e-23
1.875e-06
-3.38707e-23
-1.47631e-23
1.875e-06
1.59975e-23
6.36285e-23
1.875e-06
9.11324e-23
-8.26339e-23
1.875e-06
1.52984e-24
-1.31003e-22
1.875e-06
-9.90994e-23
-1.24488e-22
1.875e-06
-3.98355e-23
-2.36495e-23
1.875e-06
1.62262e-24
-5.08396e-24
-2.88648e-24
-1.18386e-23
1.875e-06
-1.53195e-22
4.57397e-23
1.875e-06
-6.36017e-23
1.20549e-22
1.875e-06
-8.15187e-23
6.73973e-23
1.875e-06
-1.14061e-23
9.65142e-23
1.875e-06
2.75487e-23
1.0971e-22
1.875e-06
1.11782e-23
8.64055e-23
1.875e-06
1.30431e-23
1.09993e-22
1.875e-06
4.91085e-23
1.31335e-22
1.875e-06
2.63449e-23
1.02817e-22
1.875e-06
1.57838e-23
5.23703e-23
1.875e-06
-7.25691e-24
1.13132e-22
1.875e-06
-3.58254e-23
5.78143e-23
1.875e-06
7.11313e-23
1.47586e-22
1.875e-06
1.90505e-23
1.48357e-22
1.875e-06
-2.70986e-23
6.71566e-23
1.875e-06
-1.97616e-23
-3.8345e-23
1.875e-06
2.63786e-23
-3.44356e-23
1.875e-06
1.65067e-24
3.6223e-23
1.875e-06
-5.21856e-23
4.16318e-23
1.875e-06
-1.09445e-22
-5.28523e-23
1.875e-06
-2.89939e-23
8.41539e-23
1.875e-06
8.89489e-24
1.71715e-22
1.875e-06
1.04216e-22
3.53672e-23
1.875e-06
-2.96933e-23
6.33646e-24
1.875e-06
2.09941e-23
4.49713e-23
1.875e-06
7.48913e-23
6.45404e-23
1.875e-06
9.68553e-23
3.61635e-23
1.875e-06
3.46157e-23
-1.96562e-23
1.875e-06
-1.87693e-23
1.72311e-24
1.875e-06
2.38942e-23
-2.27047e-23
1.875e-06
4.70859e-23
-1.04327e-22
1.875e-06
-3.15668e-23
1.90303e-23
1.875e-06
-6.11939e-23
-4.20894e-23
1.875e-06
-3.85635e-23
-7.24057e-23
1.875e-06
3.44239e-24
-1.38238e-22
1.875e-06
-3.2241e-23
-7.65286e-23
1.875e-06
-1.15235e-23
-1.15496e-22
1.875e-06
8.76842e-23
-2.21819e-23
1.875e-06
7.72216e-24
-1.73489e-23
-3.63563e-24
3.25833e-23
1.875e-06
-8.314e-24
1.46864e-22
1.875e-06
4.6216e-23
1.30011e-22
1.875e-06
4.35525e-23
7.97672e-23
1.875e-06
6.11144e-23
6.0845e-23
1.875e-06
5.51798e-23
1.19027e-22
1.875e-06
2.85098e-23
1.07922e-22
1.875e-06
-1.19675e-23
1.17714e-22
1.875e-06
-1.5241e-23
1.65379e-22
1.875e-06
4.31247e-23
1.49902e-22
1.875e-06
3.51427e-23
1.11402e-22
1.875e-06
2.66694e-23
1.22177e-22
1.875e-06
6.22777e-24
1.8048e-22
1.875e-06
7.0653e-23
8.77832e-23
1.875e-06
1.00317e-22
1.28244e-22
1.875e-06
-7.32499e-24
8.99331e-23
1.875e-06
-1.39626e-22
-3.27235e-23
1.875e-06
-1.11922e-22
-4.31244e-23
1.875e-06
-3.26726e-23
4.65495e-23
1.875e-06
-7.7012e-23
6.71511e-23
1.875e-06
-2.759e-23
3.7347e-23
1.875e-06
6.15092e-23
1.06859e-22
1.875e-06
5.45056e-23
1.44733e-22
1.875e-06
-4.24419e-23
-8.54327e-24
1.875e-06
-1.44133e-24
1.64943e-23
1.875e-06
7.1076e-23
5.52422e-23
1.875e-06
7.74871e-23
4.45106e-23
1.875e-06
-2.95359e-23
-5.08325e-23
1.875e-06
-8.60379e-23
-6.04639e-23
1.875e-06
2.55754e-23
3.15351e-23
1.875e-06
1.0045e-22
1.00126e-22
1.875e-06
1.06177e-22
8.28761e-23
1.875e-06
-3.33282e-24
-3.97189e-23
1.875e-06
-4.03263e-23
-1.07508e-22
1.875e-06
-1.4514e-23
-1.64496e-22
1.875e-06
-3.24942e-23
-1.83539e-22
1.875e-06
-5.75115e-23
-8.92952e-23
1.875e-06
-4.56903e-23
-5.21379e-23
1.875e-06
-1.13781e-23
-1.04273e-23
1.875e-06
8.25055e-23
-3.15817e-23
4.1257e-23
-1.59693e-23
1.875e-06
2.36488e-23
1.55129e-22
1.875e-06
5.44632e-23
2.14277e-22
1.875e-06
1.33886e-22
1.06618e-22
1.875e-06
7.14215e-23
1.52097e-22
1.875e-06
2.26141e-23
1.98052e-22
1.875e-06
-7.01456e-23
1.29473e-22
1.875e-06
-5.94258e-23
1.41968e-22
1.875e-06
8.5672e-23
1.31123e-22
1.875e-06
-1.98576e-23
1.20187e-22
1.875e-06
1.44458e-23
1.62759e-22
1.875e-06
7.54332e-23
1.87357e-22
1.875e-06
5.51064e-23
9.45085e-23
1.875e-06
7.82014e-23
7.27173e-23
1.875e-06
8.02514e-23
5.03746e-24
1.875e-06
8.08309e-24
5.95834e-23
1.875e-06
-1.2854e-23
8.02904e-23
1.875e-06
-3.15294e-23
5.28455e-25
1.875e-06
-9.76006e-23
5.06148e-23
1.875e-06
1.72629e-23
6.67064e-23
1.875e-06
-1.39104e-23
1.02052e-22
1.875e-06
2.34155e-23
1.06872e-22
1.875e-06
3.85163e-23
8.00831e-23
1.875e-06
-3.4415e-23
-7.89936e-23
1.875e-06
1.16089e-23
5.54049e-23
1.875e-06
5.66859e-24
1.03182e-22
1.875e-06
-1.40265e-23
5.42785e-23
1.875e-06
-6.31672e-23
-2.11167e-23
1.875e-06
-4.02861e-23
2.37584e-23
1.875e-06
-4.55746e-23
-2.56471e-23
1.875e-06
2.10578e-24
-6.57355e-23
1.875e-06
3.69782e-23
1.39049e-23
1.875e-06
1.15139e-22
-4.39666e-23
1.875e-06
4.99747e-23
-4.40843e-23
1.875e-06
1.27613e-22
-1.35102e-22
1.875e-06
1.92709e-23
-1.88384e-22
1.875e-06
-2.3433e-23
-1.31076e-22
1.875e-06
-5.62155e-23
-1.35718e-22
1.875e-06
-2.94008e-24
-3.92826e-23
1.875e-06
-6.71271e-23
-3.32932e-23
-4.39778e-23
-1.1138e-22
1.875e-06
2.65149e-22
8.16935e-23
1.875e-06
1.81573e-22
1.52742e-22
1.875e-06
-2.1709e-23
1.34057e-22
1.875e-06
3.62953e-23
2.17457e-22
1.875e-06
3.57851e-23
2.10785e-22
1.875e-06
3.56302e-23
1.95407e-22
1.875e-06
4.07581e-23
2.35903e-22
1.875e-06
-5.65838e-23
1.20892e-22
1.875e-06
-7.05645e-24
9.30894e-23
1.875e-06
6.86285e-23
8.48021e-23
1.875e-06
1.77999e-23
1.70876e-22
1.875e-06
1.67385e-23
1.54465e-22
1.875e-06
-4.70415e-24
5.76364e-23
1.875e-06
-3.41187e-23
-4.63173e-23
1.875e-06
2.07331e-23
2.64183e-23
1.875e-06
7.14043e-23
6.61061e-23
1.875e-06
7.67127e-23
-8.81056e-24
1.875e-06
-5.71138e-23
6.1404e-23
1.875e-06
5.47583e-23
7.79672e-23
1.875e-06
7.27988e-23
1.21019e-22
1.875e-06
-3.33603e-23
4.50202e-23
1.875e-06
6.83295e-23
1.32373e-22
1.875e-06
8.17357e-23
6.87655e-23
1.875e-06
-5.37168e-23
6.17896e-23
1.875e-06
-1.02811e-22
9.96276e-23
1.875e-06
8.56527e-24
-1.27671e-23
1.875e-06
-9.31984e-23
-6.50382e-23
1.875e-06
-1.22241e-22
3.76824e-23
1.875e-06
1.21662e-23
3.00027e-23
1.875e-06
5.02313e-23
2.7744e-23
1.875e-06
-3.43309e-23
2.04144e-23
1.875e-06
1.0706e-22
-3.97634e-23
1.875e-06
2.54039e-22
-1.67105e-23
1.875e-06
-6.08406e-23
-1.84462e-22
1.875e-06
-5.6739e-23
-1.93972e-22
1.875e-06
-3.16984e-24
-1.43851e-22
1.875e-06
-5.66208e-23
-1.65856e-22
1.875e-06
-1.00057e-22
-1.91352e-22
1.875e-06
-1.35859e-22
-1.65238e-23
-8.38141e-23
1.01628e-23
1.875e-06
-2.06626e-22
-1.34624e-22
1.875e-06
-2.84677e-23
1.01451e-22
1.875e-06
1.96718e-22
2.30444e-22
1.875e-06
9.7949e-23
1.8446e-22
1.875e-06
-4.23182e-25
2.97064e-22
1.875e-06
7.01797e-23
2.4923e-22
1.875e-06
6.48032e-23
2.54748e-22
1.875e-06
5.11568e-23
1.16802e-22
1.875e-06
-2.28449e-24
6.65399e-23
1.875e-06
-1.05157e-22
7.15991e-23
1.875e-06
-2.5877e-23
1.26228e-22
1.875e-06
1.86905e-24
1.79226e-22
1.875e-06
-5.35319e-23
9.38415e-23
1.875e-06
-1.7724e-23
8.41935e-23
1.875e-06
6.78797e-23
-2.31026e-24
1.875e-06
2.62261e-23
1.80046e-23
1.875e-06
-2.10377e-23
-2.94178e-23
1.875e-06
7.06873e-23
1.12204e-22
1.875e-06
-1.66254e-23
1.09692e-22
1.875e-06
-4.94992e-23
1.98293e-22
1.875e-06
-5.36995e-23
6.1042e-23
1.875e-06
-3.27948e-23
2.61016e-23
1.875e-06
-7.19371e-24
9.9979e-24
1.875e-06
-7.05893e-24
2.29181e-22
1.875e-06
4.84439e-23
1.42896e-22
1.875e-06
-3.50857e-23
-1.43613e-22
1.875e-06
-1.46884e-25
3.6934e-23
1.875e-06
-6.81361e-23
1.09699e-23
1.875e-06
7.13265e-23
-7.49414e-23
1.875e-06
1.18889e-23
9.7338e-25
1.875e-06
3.01789e-23
1.11712e-22
1.875e-06
4.56177e-23
1.70487e-23
1.875e-06
9.80893e-24
-5.77209e-23
1.875e-06
8.84246e-23
-9.75785e-23
1.875e-06
5.05427e-23
-1.80584e-22
1.875e-06
-8.80525e-24
-2.92379e-22
1.875e-06
5.10829e-23
-1.83649e-22
1.875e-06
-1.01231e-22
-1.17343e-22
1.875e-06
-1.39864e-22
1.37946e-23
-7.01602e-23
7.65604e-23
1.875e-06
1.09988e-23
1.55443e-22
1.875e-06
4.7699e-23
1.55084e-22
1.875e-06
6.14128e-23
1.64164e-22
1.875e-06
1.14244e-22
2.53111e-22
1.875e-06
4.17036e-23
2.79744e-22
1.875e-06
5.66474e-23
2.06605e-22
1.875e-06
1.13538e-22
2.39729e-22
1.875e-06
-4.45681e-23
1.39696e-22
1.875e-06
3.29403e-23
9.175e-23
1.875e-06
2.7031e-23
9.9038e-23
1.875e-06
-1.2309e-23
1.14097e-22
1.875e-06
-5.33408e-23
1.54867e-22
1.875e-06
-3.63746e-23
1.34537e-22
1.875e-06
1.71561e-23
9.28438e-23
1.875e-06
-3.5298e-24
7.49314e-23
1.875e-06
-1.62908e-23
2.81468e-24
1.875e-06
-5.9561e-23
-1.19122e-23
1.875e-06
-6.20385e-23
5.73818e-23
1.875e-06
-8.50103e-23
1.38058e-22
1.875e-06
6.15987e-23
1.58175e-22
1.875e-06
1.60827e-22
1.83897e-22
1.875e-06
1.16528e-22
7.25481e-23
1.875e-06
-9.59259e-23
2.97456e-23
1.875e-06
-1.53812e-23
1.87307e-22
1.875e-06
3.75888e-23
9.13878e-23
1.875e-06
5.53848e-23
-1.20251e-22
1.875e-06
3.16536e-23
-2.02676e-22
1.875e-06
-2.72193e-23
3.50972e-23
1.875e-06
-5.59707e-23
-2.0549e-23
1.875e-06
6.38597e-25
7.44256e-23
1.875e-06
-1.98662e-23
1.12298e-22
1.875e-06
1.02941e-22
-1.86887e-23
1.875e-06
1.39619e-23
-5.44783e-23
1.875e-06
-3.58741e-23
-2.22921e-22
1.875e-06
7.14352e-23
-2.16194e-22
1.875e-06
5.81004e-23
-2.11215e-22
1.875e-06
-6.60256e-23
-1.77955e-22
1.875e-06
-8.85451e-23
-8.32484e-23
1.875e-06
-1.29673e-22
2.90669e-23
-1.46279e-22
-1.4682e-23
1.875e-06
5.16103e-23
1.77475e-22
1.875e-06
9.91909e-23
2.76954e-22
1.875e-06
1.02044e-22
1.70924e-22
1.875e-06
2.63064e-23
2.81652e-22
1.875e-06
9.45806e-24
3.09177e-22
1.875e-06
1.80014e-23
1.42495e-22
1.875e-06
-3.35288e-23
2.584e-22
1.875e-06
7.84183e-23
2.02801e-22
1.875e-06
-5.41911e-23
1.17794e-22
1.875e-06
-7.33613e-23
7.572e-23
1.875e-06
-1.86173e-23
7.53525e-23
1.875e-06
2.29726e-23
1.16717e-22
1.875e-06
6.85888e-23
1.96579e-22
1.875e-06
8.76361e-23
9.89791e-23
1.875e-06
-1.93079e-23
2.2055e-22
1.875e-06
-3.94586e-23
9.94982e-23
1.875e-06
-3.61514e-23
-3.46312e-23
1.875e-06
-7.5756e-24
1.0298e-22
1.875e-06
6.59674e-23
1.46914e-22
1.875e-06
-7.60938e-23
2.83659e-23
1.875e-06
1.04311e-22
1.47181e-22
1.875e-06
-4.93888e-24
-2.2627e-23
1.875e-06
-4.58031e-24
6.53869e-23
1.875e-06
4.33259e-23
1.6718e-22
1.875e-06
-1.07344e-22
8.64889e-23
1.875e-06
-3.51255e-23
-1.33156e-22
1.875e-06
4.66018e-23
-1.80163e-22
1.875e-06
6.98068e-23
-1.03069e-23
1.875e-06
1.14942e-23
3.46785e-23
1.875e-06
-7.56244e-23
7.93868e-23
1.875e-06
-1.39402e-23
1.35757e-22
1.875e-06
8.61521e-24
-9.69237e-24
1.875e-06
4.9299e-23
-9.36791e-23
1.875e-06
-9.35325e-24
-1.78336e-22
1.875e-06
7.65529e-23
-2.76674e-22
1.875e-06
5.57029e-23
-2.58194e-22
1.875e-06
-3.97357e-23
-6.61126e-23
1.875e-06
-6.86622e-23
-5.09195e-23
1.875e-06
-4.93883e-23
4.13962e-23
9.74787e-23
-4.42636e-23
1.875e-06
1.07615e-22
1.67863e-22
1.875e-06
7.48279e-23
2.74152e-22
1.875e-06
5.62938e-23
2.29979e-22
1.875e-06
3.37028e-23
2.98816e-22
1.875e-06
7.73478e-23
3.54965e-22
1.875e-06
1.56306e-23
1.8153e-22
1.875e-06
-1.53482e-23
2.83469e-22
1.875e-06
-4.9808e-23
1.36674e-22
1.875e-06
-4.73079e-23
6.46783e-23
1.875e-06
4.76552e-23
1.8075e-22
1.875e-06
-5.14516e-24
9.74201e-23
1.875e-06
-4.91405e-23
7.72216e-23
1.875e-06
-2.79332e-23
7.60241e-23
1.875e-06
7.21924e-23
1.43352e-22
1.875e-06
3.19766e-23
2.59713e-22
1.875e-06
-4.88236e-24
1.46951e-22
1.875e-06
-5.18133e-23
-2.73582e-24
1.875e-06
9.35695e-24
7.74866e-23
1.875e-06
-3.03583e-23
1.26007e-22
1.875e-06
1.12403e-22
1.10408e-22
1.875e-06
1.82654e-23
3.50977e-23
1.875e-06
-5.38131e-23
-2.01043e-23
1.875e-06
-1.05918e-22
-1.01437e-23
1.875e-06
-1.34203e-22
2.87205e-23
1.875e-06
1.58775e-23
1.52909e-22
1.875e-06
-3.52452e-23
-5.48439e-23
1.875e-06
2.97243e-23
-1.27923e-22
1.875e-06
1.12865e-22
-6.34796e-23
1.875e-06
-2.80425e-24
-1.08922e-23
1.875e-06
6.52289e-24
1.80306e-22
1.875e-06
6.83909e-23
7.69164e-23
1.875e-06
-9.90783e-23
-7.51941e-24
1.875e-06
-1.49054e-22
-7.18476e-24
1.875e-06
1.9122e-23
-9.4873e-23
1.875e-06
5.53297e-24
-2.3546e-22
1.875e-06
4.70989e-23
-1.74677e-22
1.875e-06
8.58658e-23
-1.34734e-22
1.875e-06
5.7419e-23
-3.44977e-23
1.875e-06
1.30943e-22
5.75032e-23
-2.30599e-23
-1.12021e-22
1.875e-06
9.61303e-23
1.77691e-22
1.875e-06
6.4475e-23
2.27865e-22
1.875e-06
3.60089e-23
2.35998e-22
1.875e-06
1.22646e-23
3.32956e-22
1.875e-06
4.41438e-23
4.0237e-22
1.875e-06
-7.10015e-25
2.43438e-22
1.875e-06
2.77283e-23
1.5881e-22
1.875e-06
-1.02933e-23
1.49653e-22
1.875e-06
1.01017e-22
1.64023e-22
1.875e-06
1.06276e-22
1.31105e-22
1.875e-06
1.70102e-23
1.13043e-22
1.875e-06
-4.50065e-23
1.24923e-22
1.875e-06
2.26144e-23
1.12987e-22
1.875e-06
6.37566e-23
1.17066e-22
1.875e-06
-3.5326e-23
1.93695e-22
1.875e-06
-5.00429e-23
6.46707e-23
1.875e-06
-4.50393e-23
-6.92812e-24
1.875e-06
-8.56373e-23
4.77234e-23
1.875e-06
-6.72421e-23
1.32563e-22
1.875e-06
-5.87978e-23
1.10202e-22
1.875e-06
4.79897e-23
1.0231e-22
1.875e-06
8.53449e-23
-4.41311e-23
1.875e-06
7.75263e-23
-1.66512e-23
1.875e-06
-1.61828e-24
9.66492e-24
1.875e-06
-1.32244e-22
4.83253e-23
1.875e-06
1.22625e-23
-7.27205e-24
1.875e-06
-2.68529e-23
-4.8738e-23
1.875e-06
8.62722e-23
-9.81751e-24
1.875e-06
4.94976e-23
5.70721e-23
1.875e-06
2.58725e-24
3.23563e-23
1.875e-06
-2.75796e-23
4.68565e-23
1.875e-06
-1.32555e-22
2.12243e-23
1.875e-06
-4.29554e-23
2.05494e-23
1.875e-06
3.91525e-23
-1.66132e-23
1.875e-06
9.55875e-23
-9.28883e-23
1.875e-06
-3.75173e-23
-8.56064e-23
1.875e-06
2.70646e-23
-1.95097e-22
1.875e-06
-1.46062e-23
-1.08072e-22
1.875e-06
1.62946e-23
4.6491e-23
-1.00669e-22
-1.47089e-22
1.875e-06
-5.90855e-23
1.90576e-22
1.875e-06
4.33287e-23
2.77592e-22
1.875e-06
4.05944e-23
3.09988e-22
1.875e-06
-4.24867e-23
3.28461e-22
1.875e-06
-3.35104e-23
3.39053e-22
1.875e-06
6.40957e-23
2.94045e-22
1.875e-06
5.25273e-23
2.36858e-22
1.875e-06
7.78325e-23
1.51331e-22
1.875e-06
5.14187e-23
1.25515e-22
1.875e-06
-2.20341e-23
8.43702e-23
1.875e-06
3.79807e-24
1.56816e-22
1.875e-06
1.6653e-23
1.24728e-22
1.875e-06
-8.04848e-23
1.27186e-22
1.875e-06
-1.42242e-22
8.69642e-23
1.875e-06
-1.27646e-23
1.90634e-22
1.875e-06
1.05342e-23
1.23169e-22
1.875e-06
-5.96429e-23
-5.93457e-24
1.875e-06
8.58982e-23
5.28732e-23
1.875e-06
1.93042e-22
4.51183e-23
1.875e-06
7.59253e-23
2.54117e-23
1.875e-06
-3.32268e-23
7.04335e-23
1.875e-06
-8.33318e-23
-8.11721e-23
1.875e-06
-7.92381e-24
-8.59824e-23
1.875e-06
-5.60973e-23
-6.75684e-23
1.875e-06
-6.7825e-23
1.37985e-22
1.875e-06
-1.26132e-23
3.08237e-23
1.875e-06
1.00228e-22
2.10846e-23
1.875e-06
5.80768e-23
-7.23867e-23
1.875e-06
5.15606e-23
1.46983e-23
1.875e-06
-2.99788e-24
-8.50895e-24
1.875e-06
-1.17187e-24
2.10963e-23
1.875e-06
-6.17952e-24
-4.84901e-24
1.875e-06
-1.07184e-22
2.62957e-23
1.875e-06
-6.06923e-23
-4.55904e-23
1.875e-06
-1.10336e-22
-1.22589e-22
1.875e-06
1.15041e-22
-5.64964e-23
1.875e-06
5.66204e-23
-2.03388e-22
1.875e-06
-2.74319e-23
-8.39801e-23
1.875e-06
-5.00248e-23
-9.82779e-23
-5.73616e-23
-1.87735e-22
1.875e-06
6.2226e-23
3.63045e-22
1.875e-06
-2.19008e-23
3.22295e-22
1.875e-06
-5.69164e-23
3.31477e-22
1.875e-06
-1.22896e-23
3.59555e-22
1.875e-06
-1.35951e-24
3.3139e-22
1.875e-06
-4.2303e-23
2.73962e-22
1.875e-06
1.16616e-23
2.42558e-22
1.875e-06
6.22666e-23
1.75123e-22
1.875e-06
4.36487e-23
1.63589e-22
1.875e-06
-6.74993e-23
1.24377e-22
1.875e-06
1.00625e-23
1.73244e-22
1.875e-06
-2.81857e-23
1.19556e-22
1.875e-06
-3.99831e-23
1.52284e-22
1.875e-06
-6.52967e-23
1.76603e-22
1.875e-06
-6.20391e-23
1.67435e-22
1.875e-06
-6.27879e-23
2.99698e-23
1.875e-06
7.6407e-23
-1.44048e-23
1.875e-06
-3.56656e-23
-3.33641e-23
1.875e-06
-1.01529e-22
-2.29157e-23
1.875e-06
1.48027e-22
4.78088e-23
1.875e-06
5.78791e-23
8.13029e-23
1.875e-06
4.64873e-23
2.80192e-23
1.875e-06
7.10425e-24
-3.19796e-23
1.875e-06
-1.27732e-22
-8.36238e-23
1.875e-06
2.50904e-23
5.26663e-23
1.875e-06
-2.76508e-23
2.2388e-23
1.875e-06
-2.41247e-23
2.51904e-23
1.875e-06
9.2565e-23
2.90467e-23
1.875e-06
7.78977e-23
1.01503e-23
1.875e-06
-6.06311e-23
2.92885e-23
1.875e-06
-6.77139e-23
-6.15179e-23
1.875e-06
9.74388e-24
-6.89503e-23
1.875e-06
-6.5243e-24
1.0285e-23
1.875e-06
-5.81726e-23
2.24093e-24
1.875e-06
-2.98815e-24
6.80667e-23
1.875e-06
5.11715e-23
-7.1777e-23
1.875e-06
8.10463e-23
-1.22954e-22
1.875e-06
1.15543e-22
-1.22084e-22
1.875e-06
2.54863e-23
-1.62194e-22
-4.72069e-24
-1.4623e-22
1.875e-06
-2.91086e-23
3.6297e-22
1.875e-06
6.69588e-25
4.32206e-22
1.875e-06
8.94817e-23
3.9711e-22
1.875e-06
-4.46655e-23
4.60888e-22
1.875e-06
-9.40348e-23
3.64495e-22
1.875e-06
-4.3714e-23
2.83688e-22
1.875e-06
-6.14703e-24
2.42704e-22
1.875e-06
7.39193e-23
1.90529e-22
1.875e-06
8.27521e-24
1.1658e-22
1.875e-06
1.66728e-23
1.61744e-22
1.875e-06
-5.84992e-23
1.57777e-22
1.875e-06
-6.01156e-23
1.37305e-22
1.875e-06
-3.44888e-23
2.06357e-22
1.875e-06
-4.85101e-23
1.36405e-22
1.875e-06
-3.6473e-23
7.81412e-23
1.875e-06
-7.77177e-23
4.28961e-23
1.875e-06
4.54555e-23
3.12334e-23
1.875e-06
1.10857e-22
5.74032e-23
1.875e-06
2.11004e-22
7.92563e-23
1.875e-06
1.81229e-22
-5.61058e-23
1.875e-06
9.40475e-23
6.19842e-23
1.875e-06
-8.81818e-23
1.05745e-23
1.875e-06
-1.61042e-22
4.32731e-24
1.875e-06
-5.95678e-23
1.25628e-23
1.875e-06
8.09386e-24
1.72336e-23
1.875e-06
-4.32844e-23
5.34736e-23
1.875e-06
2.84518e-23
6.50217e-23
1.875e-06
-2.76749e-23
-6.881e-23
1.875e-06
-9.01637e-23
-3.0744e-23
1.875e-06
9.55273e-23
6.01631e-23
1.875e-06
5.6433e-23
-5.12295e-23
1.875e-06
-2.31822e-23
-1.04713e-22
1.875e-06
-4.62022e-23
-5.34815e-23
1.875e-06
-1.02092e-22
-2.40824e-23
1.875e-06
5.7879e-24
-6.36075e-23
1.875e-06
-4.3735e-23
2.46279e-23
1.875e-06
8.53423e-23
-2.27117e-23
1.875e-06
7.39946e-23
-1.74846e-22
1.875e-06
2.82784e-23
-1.85801e-22
1.43155e-22
-1.3559e-22
1.875e-06
-9.48232e-23
3.32937e-22
1.875e-06
-4.19903e-23
4.37468e-22
1.875e-06
1.78857e-23
2.79161e-22
1.875e-06
7.08259e-23
4.1582e-22
1.875e-06
5.08224e-24
3.84451e-22
1.875e-06
-1.0456e-22
2.97043e-22
1.875e-06
-2.69023e-23
2.55688e-22
1.875e-06
4.25787e-23
2.0924e-22
1.875e-06
-2.96491e-23
7.8977e-23
1.875e-06
-1.35103e-23
1.6052e-22
1.875e-06
-1.72294e-23
2.08133e-22
1.875e-06
1.21614e-23
1.98109e-22
1.875e-06
-1.07355e-22
2.82332e-22
1.875e-06
-2.70793e-23
2.52267e-22
1.875e-06
8.50021e-23
4.34323e-23
1.875e-06
-1.89384e-23
-5.59898e-23
1.875e-06
-7.94749e-23
-8.22673e-24
1.875e-06
7.63287e-23
5.1772e-23
1.875e-06
6.56865e-23
9.59698e-23
1.875e-06
1.09937e-22
-1.45312e-23
1.875e-06
8.73864e-23
-1.20009e-23
1.875e-06
5.91653e-23
-2.11204e-23
1.875e-06
-9.42522e-23
-5.33394e-23
1.875e-06
1.00343e-23
8.49494e-23
1.875e-06
1.90141e-24
5.84587e-23
1.875e-06
-6.70286e-23
9.75898e-23
1.875e-06
-6.38631e-23
-2.72534e-24
1.875e-06
-1.43355e-22
-5.61727e-23
1.875e-06
6.1415e-24
7.13647e-23
1.875e-06
-2.62002e-23
-2.86665e-23
1.875e-06
-1.17361e-22
-1.20233e-22
1.875e-06
3.62279e-23
-7.68026e-23
1.875e-06
7.6161e-23
-5.40663e-24
1.875e-06
8.17556e-23
-6.04212e-24
1.875e-06
5.46904e-23
7.6967e-24
1.875e-06
3.51158e-23
4.86287e-23
1.875e-06
-6.44344e-23
-1.50636e-22
1.875e-06
-2.31991e-23
-2.23068e-22
1.875e-06
4.82187e-23
-1.58231e-22
9.29955e-24
-1.82916e-22
1.875e-06
-5.66665e-23
3.45814e-22
1.875e-06
-1.00292e-22
4.83976e-22
1.875e-06
-1.27273e-22
3.56352e-22
1.875e-06
-7.14883e-24
3.88605e-22
1.875e-06
6.34087e-23
3.17715e-22
1.875e-06
6.37616e-23
3.94371e-22
1.875e-06
-3.78395e-23
2.37071e-22
1.875e-06
-1.74167e-22
5.5316e-23
1.875e-06
-5.27439e-23
1.45414e-22
1.875e-06
1.90022e-23
2.42556e-22
1.875e-06
8.02679e-25
1.95664e-22
1.875e-06
3.33505e-23
1.57336e-22
1.875e-06
-3.30486e-23
2.55057e-22
1.875e-06
-1.55935e-22
1.98899e-22
1.875e-06
-7.93336e-23
-5.64206e-24
1.875e-06
8.42528e-23
4.73644e-23
1.875e-06
1.79725e-23
1.4696e-22
1.875e-06
1.06686e-22
3.32192e-23
1.875e-06
2.55268e-22
-7.27309e-23
1.875e-06
9.2778e-23
4.99701e-24
1.875e-06
-6.80789e-23
4.33175e-24
1.875e-06
-1.32274e-22
-8.63781e-24
1.875e-06
2.17404e-23
6.621e-23
1.875e-06
5.09457e-24
9.67101e-23
1.875e-06
-4.57605e-23
1.23563e-22
1.875e-06
2.24017e-23
1.00752e-22
1.875e-06
-4.48615e-23
-3.38901e-23
1.875e-06
-1.41503e-22
-5.36165e-23
1.875e-06
-1.80009e-22
-1.67899e-23
1.875e-06
-4.10079e-23
1.76336e-23
1.875e-06
1.00461e-22
-5.84396e-23
1.875e-06
-7.54285e-23
-1.61551e-22
1.875e-06
-6.15055e-23
-2.37746e-23
1.875e-06
3.29952e-24
-1.92652e-23
1.875e-06
1.55174e-22
-5.17192e-23
1.875e-06
-2.7303e-23
-9.61667e-23
1.875e-06
-6.13282e-23
-1.35314e-22
1.875e-06
2.76442e-24
-2.24989e-22
1.875e-06
1.85315e-23
-1.78853e-22
3.03785e-23
-1.26827e-22
1.875e-06
-2.70673e-23
3.67105e-22
1.875e-06
-2.66366e-23
4.7869e-22
1.875e-06
-1.15162e-23
4.6031e-22
1.875e-06
-5.22568e-23
4.52461e-22
1.875e-06
-3.75664e-23
2.59624e-22
1.875e-06
-1.7037e-23
3.4905e-22
1.875e-06
-3.22835e-23
2.22084e-22
1.875e-06
-9.40363e-24
9.87877e-23
1.875e-06
-9.03366e-23
1.83517e-22
1.875e-06
-5.16158e-23
2.91241e-22
1.875e-06
-2.22534e-23
1.73639e-22
1.875e-06
-2.83121e-23
1.14731e-22
1.875e-06
1.20682e-22
2.30401e-22
1.875e-06
7.34296e-23
2.55897e-22
1.875e-06
-8.19954e-23
2.8973e-23
1.875e-06
-9.15657e-23
6.2101e-23
1.875e-06
-1.76737e-23
1.53405e-22
1.875e-06
-3.15816e-23
-9.93573e-23
1.875e-06
8.44934e-23
-1.75042e-22
1.875e-06
-3.69239e-24
-5.36954e-23
1.875e-06
2.91288e-23
2.63614e-23
1.875e-06
6.2e-23
1.08867e-22
1.875e-06
7.93862e-26
1.85789e-22
1.875e-06
5.4034e-24
1.12787e-22
1.875e-06
-2.24937e-23
9.02182e-23
1.875e-06
-2.68456e-23
1.0236e-23
1.875e-06
1.06506e-22
3.46056e-24
1.875e-06
1.6966e-23
3.30406e-23
1.875e-06
-8.48592e-23
3.56377e-23
1.875e-06
-8.14527e-23
-5.85732e-23
1.875e-06
-1.6122e-22
-1.00798e-22
1.875e-06
-1.10607e-22
-1.2859e-22
1.875e-06
2.1843e-23
-1.32181e-22
1.875e-06
1.23592e-22
9.47394e-24
1.875e-06
-1.52137e-23
-4.29066e-23
1.875e-06
-2.58365e-23
-9.90321e-23
1.875e-06
7.19224e-23
-1.1952e-22
1.875e-06
5.88676e-24
-1.76871e-22
1.875e-06
-2.30963e-23
-2.58188e-22
1.40765e-23
-1.59364e-22
1.875e-06
1.03304e-22
4.74671e-22
1.875e-06
4.79835e-23
4.78308e-22
1.875e-06
1.81058e-23
3.8619e-22
1.875e-06
-1.0176e-22
3.81242e-22
1.875e-06
-3.47509e-23
3.19692e-22
1.875e-06
1.30326e-23
3.51924e-22
1.875e-06
-4.91301e-23
1.93621e-22
1.875e-06
-1.54268e-22
8.99302e-23
1.875e-06
-8.20237e-23
2.23268e-22
1.875e-06
4.66006e-23
2.76187e-22
1.875e-06
-2.19339e-22
1.16194e-22
1.875e-06
4.52101e-22
1.81983e-22
1.875e-06
7.89083e-23
1.41543e-22
1.875e-06
3.22528e-24
1.49425e-22
1.875e-06
-4.34825e-23
2.1074e-22
1.875e-06
-8.85192e-23
1.38555e-22
1.875e-06
-8.98713e-23
4.92529e-24
1.875e-06
-1.08693e-22
-1.42455e-22
1.875e-06
-3.73818e-23
-1.35513e-22
1.875e-06
-3.59342e-23
-3.54587e-23
1.875e-06
3.52676e-24
-1.86095e-23
1.875e-06
3.79076e-23
7.60908e-23
1.875e-06
1.28967e-23
2.27744e-22
1.875e-06
1.25041e-23
8.68261e-23
1.875e-06
1.17441e-22
1.63124e-22
1.875e-06
5.27061e-23
3.19042e-23
1.875e-06
-1.21192e-22
-6.86565e-23
1.875e-06
3.77493e-23
6.93726e-23
1.875e-06
-1.03629e-22
1.01385e-23
1.875e-06
1.52516e-22
-1.12858e-22
1.875e-06
-6.75514e-25
-7.50232e-23
1.875e-06
-1.18745e-22
-7.28695e-23
1.875e-06
1.4646e-22
-1.56079e-22
1.875e-06
-1.16832e-22
2.26611e-23
1.875e-06
-1.94237e-22
-7.49522e-23
1.875e-06
1.15267e-22
-1.0303e-22
1.875e-06
5.98877e-23
-2.28741e-22
1.875e-06
1.13071e-22
-1.9908e-22
1.875e-06
-1.92819e-23
-2.63976e-22
-6.1184e-23
-1.41864e-22
1.875e-06
1.96021e-22
4.1339e-22
1.875e-06
8.42769e-23
4.57746e-22
1.875e-06
-6.25837e-23
3.82261e-22
1.875e-06
-6.89168e-23
3.79859e-22
1.875e-06
-6.17401e-23
3.59287e-22
1.875e-06
1.38598e-24
2.74237e-22
1.875e-06
-3.61781e-23
1.38881e-22
1.875e-06
2.69586e-23
1.26146e-22
1.875e-06
2.65768e-23
2.39151e-22
1.875e-06
2.17431e-23
2.94335e-22
1.875e-06
2.53259e-23
2.09995e-22
1.875e-06
5.49746e-23
2.10533e-22
1.875e-06
-2.27567e-23
1.97907e-22
1.875e-06
1.51452e-22
2.01425e-22
1.875e-06
-7.13983e-23
1.80603e-22
1.875e-06
-1.76379e-22
9.40681e-23
1.875e-06
1.10803e-23
-9.09711e-23
1.875e-06
-6.58048e-23
-1.55934e-22
1.875e-06
-1.4786e-22
-6.62771e-23
1.875e-06
-9.33386e-23
1.40915e-24
1.875e-06
-2.28664e-24
-1.79576e-23
1.875e-06
7.77032e-23
-2.11879e-24
1.875e-06
3.68588e-24
1.74114e-22
1.875e-06
3.97651e-23
1.56559e-22
1.875e-06
4.89323e-23
1.30463e-23
1.875e-06
2.73511e-23
4.32857e-23
1.875e-06
-3.90151e-23
7.58898e-23
1.875e-06
5.38841e-23
3.33367e-23
1.875e-06
1.32099e-22
2.1946e-23
1.875e-06
7.25424e-23
-1.46693e-22
1.875e-06
-4.38493e-23
-1.74861e-22
1.875e-06
-2.93931e-23
-1.10071e-22
1.875e-06
-4.09922e-23
-2.51338e-22
1.875e-06
1.82042e-23
2.14472e-23
1.875e-06
7.0527e-24
2.50018e-23
1.875e-06
3.0871e-23
-8.50009e-23
1.875e-06
-2.88204e-23
-7.8481e-23
1.875e-06
-6.75271e-23
-2.23413e-22
1.875e-06
-3.04373e-23
-3.20512e-22
4.41963e-23
-1.24331e-22
1.875e-06
9.78321e-23
3.8328e-22
1.875e-06
-2.36062e-23
4.8974e-22
1.875e-06
-5.41588e-23
3.70186e-22
1.875e-06
3.49809e-23
2.69758e-22
1.875e-06
-1.06361e-23
3.38015e-22
1.875e-06
2.02817e-23
3.2904e-22
1.875e-06
-1.09102e-23