/*--------------------------------*- C++ -*----------------------------------*\
| =========                 |                                                 |
| \\      /  F ield         | OpenFOAM: The Open Source CFD Toolbox           |
|  \\    /   O peration     | Version:  v2012                                 |
|   \\  /    A nd           | Website:  www.openfoam.com                      |
|    \\/     M anipulation  |                                                 |
\*---------------------------------------------------------------------------*/
FoamFile
{
    version     2.0;
    format      ascii;
    class       volVectorField;
    location    "4";
    object      U;
}
// * * * * * * * * * * * * * * * * * * * * * * * * * * * * * * * * * * * * * //

dimensions      [0 1 -1 0 0 0 0];


internalField   nonuniform List<vector> 
64000
(
(0.003 3.17142e-20 3.55743e-20)
(0.003 4.0164e-20 2.97255e-20)
(0.003 4.96502e-21 1.16982e-19)
(0.003 4.59177e-20 1.51145e-19)
(0.003 1.14643e-19 8.9933e-20)
(0.003 1.53436e-19 2.73955e-20)
(0.003 8.90833e-20 -3.12571e-20)
(0.003 8.454e-21 3.20827e-20)
(0.003 4.21345e-20 5.19097e-23)
(0.003 9.613e-20 -3.67828e-20)
(0.003 8.07188e-20 4.69068e-20)
(0.003 2.49501e-20 5.12062e-20)
(0.003 1.80558e-20 7.1451e-20)
(0.003 6.03037e-20 5.57385e-20)
(0.003 7.81068e-20 5.60752e-20)
(0.003 3.52072e-20 1.21517e-19)
(0.003 4.68313e-20 1.53946e-19)
(0.003 -4.91096e-20 5.55532e-20)
(0.003 -1.36571e-19 -2.49282e-19)
(0.003 -2.76948e-19 -2.96502e-19)
(0.003 -2.59384e-19 -1.25517e-19)
(0.003 9.00698e-20 5.62493e-20)
(0.003 1.68821e-19 9.02872e-20)
(0.003 2.38527e-19 8.43082e-20)
(0.003 1.87085e-19 9.74859e-20)
(0.003 -5.42806e-20 9.1533e-20)
(0.003 -1.59717e-19 3.56099e-20)
(0.003 -1.34016e-19 -5.67351e-20)
(0.003 2.2191e-20 -5.59273e-20)
(0.003 -7.52835e-21 5.75253e-20)
(0.003 -1.43371e-19 2.29553e-20)
(0.003 -1.75946e-19 -7.52424e-20)
(0.003 -1.36323e-19 -7.59731e-20)
(0.003 -1.42059e-19 -1.7917e-19)
(0.003 7.71751e-21 -1.40059e-19)
(0.003 5.92122e-20 -5.33569e-20)
(0.003 -8.85284e-20 -1.0547e-19)
(0.003 -7.45045e-20 2.83605e-21)
(0.003 -7.78392e-20 9.76263e-20)
(0.003 -1.38758e-19 6.12502e-20)
(0.003 7.13694e-20 7.63113e-20)
(0.003 3.28016e-20 1.31924e-19)
(0.003 -9.11933e-20 1.52307e-19)
(0.003 -5.43456e-20 1.52727e-19)
(0.003 6.68002e-20 1.21569e-19)
(0.003 1.61735e-19 1.15499e-19)
(0.003 1.05267e-19 7.99628e-20)
(0.003 9.16252e-20 7.5053e-20)
(0.003 7.05235e-20 8.95404e-20)
(0.003 3.70052e-20 8.12314e-20)
(0.003 6.90258e-20 9.9689e-20)
(0.003 8.22759e-20 1.25682e-19)
(0.003 1.21194e-20 1.09142e-19)
(0.003 -1.66021e-20 1.0705e-19)
(0.003 2.55493e-20 1.45888e-19)
(0.003 3.16063e-20 1.09724e-19)
(0.003 4.67684e-20 1.07075e-19)
(0.003 5.44852e-20 7.90585e-20)
(0.003 8.7589e-20 -1.62695e-19)
(0.003 -8.98555e-20 -3.69463e-19)
(0.003 -1.71748e-19 -1.58904e-19)
(0.003 -4.59182e-20 1.44027e-19)
(0.003 7.7737e-20 1.88983e-19)
(0.003 1.13837e-19 2.04028e-19)
(0.003 7.67069e-21 1.19476e-19)
(0.003 -8.01688e-20 -3.64971e-20)
(0.003 -8.25752e-20 -1.15237e-19)
(0.003 4.91166e-21 -1.11638e-19)
(0.003 5.39216e-20 3.56455e-20)
(0.003 -8.88848e-20 8.05746e-20)
(0.003 -1.30413e-19 -2.93257e-20)
(0.003 -8.75262e-20 -1.05669e-19)
(0.003 -1.40836e-19 -8.6428e-20)
(0.003 -1.16372e-19 -1.6397e-19)
(0.003 -3.09586e-20 -9.76302e-20)
(0.003 -7.02242e-20 -2.96416e-20)
(0.003 -4.40511e-20 -1.74472e-19)
(0.003 7.92461e-20 -1.65443e-19)
(0.003 7.28329e-20 -2.94228e-20)
(0.003 1.73898e-20 7.08771e-20)
(0.003 1.1741e-19 1.27431e-19)
(0.003 1.08415e-19 1.50326e-19)
(0.003 1.29518e-19 9.40001e-20)
(0.003 4.15326e-20 1.09535e-19)
(0.003 -6.82276e-20 1.4173e-19)
(0.003 -6.76031e-21 1.36588e-19)
(0.003 7.8156e-20 1.164e-19)
(0.003 1.45699e-19 1.95903e-19)
(0.003 1.07642e-19 1.64957e-19)
(0.003 -1.70562e-20 3.91576e-20)
(0.003 -3.0479e-20 1.07789e-19)
(0.003 3.11974e-20 1.55738e-19)
(0.003 7.49228e-20 6.58206e-20)
(0.003 8.48214e-21 1.15286e-19)
(0.003 -9.18861e-21 1.41127e-19)
(0.003 6.33115e-20 1.73403e-19)
(0.003 1.87175e-20 1.67958e-19)
(0.003 7.3968e-20 7.76923e-20)
(0.003 1.04152e-19 -1.53085e-19)
(0.003 4.27987e-20 -2.94288e-19)
(0.003 -1.52521e-20 -4.54817e-20)
(0.003 -1.14019e-19 1.36773e-19)
(0.003 -1.91886e-20 2.06333e-19)
(0.003 4.23413e-20 2.38603e-19)
(0.003 -1.49862e-20 1.25725e-19)
(0.003 4.70999e-20 -9.85908e-20)
(0.003 1.29249e-20 -1.55758e-19)
(0.003 -4.31917e-20 3.39007e-20)
(0.003 -6.03751e-20 3.12872e-20)
(0.003 -8.31598e-20 4.45981e-20)
(0.003 3.63209e-20 1.42769e-20)
(0.003 3.72791e-20 -8.41738e-20)
(0.003 -5.75461e-20 -1.39408e-19)
(0.003 -6.59918e-20 -1.80117e-19)
(0.003 -1.31771e-19 -8.00972e-20)
(0.003 -1.3556e-19 -7.66378e-20)
(0.003 4.78281e-21 -1.83862e-19)
(0.003 6.50728e-20 -1.42883e-19)
(0.003 9.7258e-20 5.6051e-21)
(0.003 1.18338e-19 -4.3576e-21)
(0.003 1.57792e-19 1.76386e-19)
(0.003 1.29026e-19 2.56976e-19)
(0.003 9.89451e-20 1.65304e-19)
(0.003 8.57142e-20 1.86474e-19)
(0.003 2.49691e-20 1.21261e-19)
(0.003 5.47442e-21 1.62959e-19)
(0.003 4.20646e-20 1.4173e-19)
(0.003 9.4745e-21 1.73716e-19)
(0.003 1.74635e-20 2.18756e-19)
(0.003 8.93911e-20 7.57398e-20)
(0.003 9.42658e-20 5.75135e-20)
(0.003 7.04917e-20 1.69635e-19)
(0.003 -1.25407e-20 1.55e-19)
(0.003 -3.35545e-20 1.08593e-19)
(0.003 5.39409e-20 1.78771e-19)
(0.003 1.17688e-19 1.78023e-19)
(0.003 2.6235e-20 7.60602e-20)
(0.003 -2.4447e-20 9.09829e-20)
(0.003 -7.44072e-20 -1.01933e-19)
(0.003 1.15505e-20 -2.72243e-19)
(0.003 -1.02466e-20 3.82164e-20)
(0.003 -3.21129e-21 1.80653e-19)
(0.003 3.58108e-20 2.63577e-19)
(0.003 -2.25157e-20 2.85997e-19)
(0.003 -6.10997e-20 1.68854e-19)
(0.003 -7.79931e-21 -2.79723e-20)
(0.003 1.02281e-19 -1.74115e-19)
(0.003 1.3017e-19 -1.57599e-19)
(0.003 4.67019e-21 1.37691e-20)
(0.003 2.97575e-20 5.09706e-20)
(0.003 6.86379e-21 -1.37133e-20)
(0.003 -9.4635e-20 -1.23007e-19)
(0.003 -4.76417e-20 -1.26236e-19)
(0.003 -1.81217e-20 -1.14519e-19)
(0.003 -7.27685e-20 -1.81438e-19)
(0.003 -3.48659e-20 -1.53265e-19)
(0.003 -3.32412e-20 -1.10277e-19)
(0.003 -1.88936e-20 -3.99817e-20)
(0.003 5.18331e-20 2.08158e-20)
(0.003 5.49072e-20 1.31943e-21)
(0.003 -7.21052e-20 1.79759e-19)
(0.003 -4.71985e-20 2.45928e-19)
(0.003 -4.41347e-20 1.63487e-19)
(0.003 -5.86088e-20 1.71669e-19)
(0.003 2.41925e-20 1.7996e-19)
(0.003 3.62848e-20 1.61883e-19)
(0.003 5.91233e-20 1.70311e-19)
(0.003 1.97819e-20 1.55221e-19)
(0.003 -1.40309e-21 1.61924e-19)
(0.003 4.61622e-20 1.66221e-19)
(0.003 9.35897e-20 2.10157e-19)
(0.003 9.05977e-20 2.18005e-19)
(0.003 -7.71758e-21 1.09077e-19)
(0.003 -7.17527e-20 9.64917e-20)
(0.003 -1.25253e-20 1.98503e-19)
(0.003 8.1907e-20 2.19688e-19)
(0.003 8.26329e-20 8.47971e-20)
(0.003 -7.40638e-20 -1.4763e-21)
(0.003 -1.54367e-19 -1.4213e-19)
(0.003 -4.16551e-20 -1.82698e-19)
(0.003 -7.17662e-20 4.93813e-21)
(0.003 2.48978e-20 2.25353e-19)
(0.003 1.05607e-19 2.81812e-19)
(0.003 -2.59668e-20 2.27546e-19)
(0.003 -4.52565e-20 1.95843e-19)
(0.003 1.47026e-20 5.60009e-20)
(0.003 1.40745e-19 -5.68571e-20)
(0.003 1.82555e-19 -1.56397e-21)
(0.003 1.35028e-19 -1.20658e-20)
(0.003 -9.63472e-21 -1.49174e-19)
(0.003 -2.81345e-20 -1.52798e-19)
(0.003 -6.65993e-20 -9.81833e-20)
(0.003 -9.42178e-20 -1.5371e-19)
(0.003 -6.71566e-20 -1.70927e-19)
(0.003 1.68382e-20 -1.75538e-19)
(0.003 -4.74782e-20 -1.48739e-19)
(0.003 -6.89665e-20 -1.61132e-19)
(0.003 2.74717e-20 -3.88351e-20)
(0.003 8.42151e-21 7.48895e-20)
(0.003 -1.74288e-20 9.60639e-21)
(0.003 5.85472e-22 1.92629e-19)
(0.003 3.78973e-20 1.86153e-19)
(0.003 -7.13245e-21 1.19118e-19)
(0.003 3.41298e-20 1.18902e-19)
(0.003 6.13018e-20 1.74867e-19)
(0.003 1.69345e-20 1.81926e-19)
(0.003 -3.32352e-21 1.77555e-19)
(0.003 3.1249e-20 2.21317e-19)
(0.003 4.91117e-20 2.08843e-19)
(0.003 6.26479e-20 1.29279e-19)
(0.003 1.73937e-20 1.57089e-19)
(0.003 -1.00546e-20 3.00907e-19)
(0.003 1.00856e-19 1.57241e-19)
(0.003 7.18997e-20 2.60148e-20)
(0.003 -4.20079e-20 1.4275e-19)
(0.003 -1.17945e-19 2.65717e-19)
(0.003 -7.54296e-20 1.26834e-19)
(0.003 -6.8943e-20 1.83819e-20)
(0.003 -1.23185e-19 -1.03014e-19)
(0.003 -1.15472e-19 -1.40887e-19)
(0.003 2.79685e-20 -4.8069e-20)
(0.003 2.17745e-20 1.72497e-19)
(0.003 -1.07368e-20 3.51476e-19)
(0.003 1.79025e-20 2.44218e-19)
(0.003 6.05937e-20 1.31226e-19)
(0.003 1.3548e-19 7.19311e-20)
(0.003 7.72322e-20 1.62397e-20)
(0.003 -2.77446e-20 -3.55045e-20)
(0.003 2.24405e-20 -9.9578e-20)
(0.003 1.55735e-19 2.02951e-20)
(0.003 1.39631e-19 8.70833e-20)
(0.003 -6.66508e-20 -1.06773e-19)
(0.003 -1.30661e-19 -2.05316e-19)
(0.003 -4.08205e-20 -2.29449e-19)
(0.003 -6.23372e-20 -2.53003e-19)
(0.003 -1.18691e-19 -2.11334e-19)
(0.003 -5.21751e-20 -1.51149e-19)
(0.003 9.45295e-20 3.07882e-20)
(0.003 1.05666e-19 6.06564e-20)
(0.003 3.59083e-20 -1.67928e-21)
(0.003 1.06211e-19 2.41725e-19)
(0.003 1.56565e-19 2.61844e-19)
(0.003 1.28699e-19 1.25804e-19)
(0.003 9.61135e-20 1.81562e-19)
(0.003 7.93485e-20 2.59767e-19)
(0.003 -2.39056e-20 2.39068e-19)
(0.003 -5.53763e-20 1.91442e-19)
(0.003 1.59791e-20 1.6385e-19)
(0.003 2.81572e-20 2.24625e-19)
(0.003 6.64579e-20 2.56176e-19)
(0.003 6.45267e-20 2.62903e-19)
(0.003 2.79387e-20 2.0044e-19)
(0.003 1.06277e-19 1.2964e-19)
(0.003 1.17894e-19 3.87942e-20)
(0.003 1.29243e-20 8.7981e-20)
(0.003 -7.06184e-20 2.01313e-19)
(0.003 -1.13961e-19 6.98803e-20)
(0.003 -1.06675e-19 2.26165e-20)
(0.003 -5.83502e-20 -9.81123e-20)
(0.003 -3.52227e-20 -1.00374e-19)
(0.003 4.44408e-20 -3.43761e-20)
(0.003 2.03732e-20 1.053e-19)
(0.003 -8.52522e-20 2.39878e-19)
(0.003 -2.61785e-20 2.92886e-19)
(0.003 4.40376e-20 2.31519e-19)
(0.003 4.19807e-20 1.23172e-19)
(0.003 -3.90276e-20 6.41184e-21)
(0.003 -6.42099e-20 -2.54394e-20)
(0.003 -5.08066e-20 -3.54768e-20)
(0.003 6.04673e-20 1.45555e-20)
(0.003 1.47493e-19 3.25928e-20)
(0.003 1.21244e-19 -9.39971e-20)
(0.003 4.44707e-20 -1.72243e-19)
(0.003 1.01622e-19 -2.68849e-19)
(0.003 2.16486e-20 -3.16407e-19)
(0.003 -7.62454e-20 -2.64392e-19)
(0.003 -5.49818e-20 -2.59165e-19)
(0.003 -1.11922e-20 1.09359e-21)
(0.003 -1.07666e-21 7.95929e-20)
(0.003 1.31733e-20 -8.07604e-20)
(0.003 2.294e-19 2.21049e-19)
(0.003 2.25248e-19 2.84366e-19)
(0.003 1.54521e-19 2.36008e-19)
(0.003 1.0559e-19 2.64011e-19)
(0.003 3.60898e-20 2.79975e-19)
(0.003 -3.26737e-20 2.38902e-19)
(0.003 -2.06506e-20 1.83125e-19)
(0.003 2.32717e-20 2.06464e-19)
(0.003 -4.32973e-21 2.39944e-19)
(0.003 5.89201e-20 2.27024e-19)
(0.003 9.25359e-20 2.75556e-19)
(0.003 9.20512e-20 2.52058e-19)
(0.003 8.47989e-20 2.12997e-19)
(0.003 1.08581e-19 1.00561e-19)
(0.003 4.88637e-20 1.14285e-19)
(0.003 -1.95592e-21 1.43759e-19)
(0.003 -1.25052e-20 3.79598e-21)
(0.003 -5.23124e-20 -7.36773e-20)
(0.003 4.14997e-20 -9.88039e-20)
(0.003 -9.32386e-21 -1.0805e-19)
(0.003 -2.33438e-20 -1.23841e-20)
(0.003 4.53795e-20 1.52699e-19)
(0.003 -9.45019e-21 2.4712e-19)
(0.003 -4.17551e-20 2.6867e-19)
(0.003 -4.91467e-21 2.26261e-19)
(0.003 -4.22865e-20 8.58678e-20)
(0.003 -1.49554e-19 -3.40407e-20)
(0.003 -1.49471e-19 -5.67053e-20)
(0.003 -8.80967e-21 1.989e-21)
(0.003 4.7423e-20 1.32464e-19)
(0.003 4.25129e-20 1.28762e-19)
(0.003 2.61691e-19 -3.44325e-20)
(0.003 2.99841e-19 -1.16e-19)
(0.003 9.56691e-20 -1.8147e-19)
(0.003 1.32169e-20 -3.63724e-19)
(0.003 -4.37431e-20 -2.82082e-19)
(0.003 -1.01195e-19 -2.69517e-19)
(0.003 -1.30278e-19 -1.1198e-19)
(0.003 -1.41438e-19 3.02084e-20)
(0.003 -8.97596e-20 -5.47748e-20)
(0.003 7.70951e-20 2.57091e-19)
(0.003 1.58477e-19 4.45671e-19)
(0.003 1.86883e-19 3.19571e-19)
(0.003 1.18203e-19 3.11698e-19)
(0.003 5.24713e-20 3.32043e-19)
(0.003 1.09591e-19 2.74774e-19)
(0.003 6.51439e-20 2.68799e-19)
(0.003 -1.91209e-20 2.18524e-19)
(0.003 -2.47122e-20 1.66764e-19)
(0.003 1.18085e-20 2.64443e-19)
(0.003 -1.22367e-20 2.75605e-19)
(0.003 -2.1124e-20 2.81527e-19)
(0.003 -4.11039e-20 2.58388e-19)
(0.003 -3.74682e-20 1.33676e-19)
(0.003 9.03069e-20 1.36353e-19)
(0.003 1.37135e-19 1.42168e-19)
(0.003 6.31198e-20 1.35548e-20)
(0.003 -1.18658e-21 -3.07081e-20)
(0.003 3.23779e-20 3.24831e-20)
(0.003 -4.44363e-20 1.54452e-20)
(0.003 -1.15388e-19 -7.09975e-21)
(0.003 1.12428e-20 1.44408e-19)
(0.003 8.78037e-20 2.51062e-19)
(0.003 7.53559e-21 3.14983e-19)
(0.003 -3.49383e-20 1.65111e-19)
(0.003 -3.91924e-20 -2.19122e-20)
(0.003 -1.04687e-19 -1.59106e-19)
(0.003 -1.72189e-19 -1.01246e-19)
(0.003 4.30409e-20 -7.47739e-21)
(0.003 7.29701e-20 1.33796e-19)
(0.003 1.50373e-20 1.38321e-19)
(0.003 1.13554e-19 7.23251e-20)
(0.003 1.67751e-19 2.29572e-20)
(0.003 2.00415e-20 -2.08188e-19)
(0.003 -5.55604e-20 -4.00442e-19)
(0.003 1.17626e-20 -4.12958e-19)
(0.003 2.9596e-20 -3.02543e-19)
(0.003 -1.24449e-19 -1.77181e-19)
(0.003 -2.3773e-19 -6.03132e-20)
(0.003 -1.78712e-19 -7.41998e-21)
(0.003 -1.10247e-19 3.18177e-19)
(0.003 2.67014e-20 4.39101e-19)
(0.003 2.09438e-19 4.27856e-19)
(0.003 1.73053e-19 3.72568e-19)
(0.003 5.26566e-20 3.68947e-19)
(0.003 1.03934e-19 3.47888e-19)
(0.003 1.48729e-19 3.03373e-19)
(0.003 6.77276e-20 2.51665e-19)
(0.003 2.86714e-20 1.73337e-19)
(0.003 -9.62874e-20 1.44748e-19)
(0.003 -4.40373e-20 2.16152e-19)
(0.003 -3.3289e-20 2.93343e-19)
(0.003 -7.82763e-20 2.01406e-19)
(0.003 -3.31191e-20 1.50979e-19)
(0.003 3.19054e-20 2.27726e-19)
(0.003 -9.45197e-21 1.91357e-19)
(0.003 -7.09406e-20 4.01272e-20)
(0.003 -2.39457e-20 -4.30196e-20)
(0.003 -8.92518e-21 -1.4345e-20)
(0.003 1.05192e-20 4.78234e-21)
(0.003 7.64666e-20 2.24585e-21)
(0.003 6.26011e-20 9.17083e-20)
(0.003 -4.47181e-20 2.80062e-19)
(0.003 -1.13657e-20 3.07681e-19)
(0.003 5.42341e-20 1.71521e-19)
(0.003 4.74492e-20 -7.51791e-20)
(0.003 1.34227e-20 -2.40909e-19)
(0.003 -7.11999e-20 -1.11627e-19)
(0.003 1.18734e-20 9.49056e-20)
(0.003 3.99348e-20 1.90719e-19)
(0.003 2.78244e-20 1.71196e-19)
(0.003 1.002e-19 9.44297e-20)
(0.003 6.24828e-20 -1.16415e-20)
(0.003 -4.53741e-21 -2.50815e-19)
(0.003 6.64562e-20 -4.34276e-19)
(0.003 8.99967e-20 -4.28732e-19)
(0.003 -3.45373e-20 -2.80689e-19)
(0.003 -1.89278e-19 -1.87025e-19)
(0.003 -3.07476e-19 -6.82221e-20)
(0.003 -2.35351e-19 -6.36655e-20)
(0.003 1.50237e-20 3.35804e-19)
(0.003 7.94411e-20 5.06584e-19)
(0.003 1.18606e-19 4.86752e-19)
(0.003 1.71737e-19 4.82281e-19)
(0.003 7.26445e-20 4.11362e-19)
(0.003 2.72089e-20 4.02351e-19)
(0.003 1.05468e-19 3.95964e-19)
(0.003 5.56605e-20 2.88831e-19)
(0.003 -2.23661e-20 2.16191e-19)
(0.003 -4.92729e-20 1.36268e-19)
(0.003 -3.71923e-20 1.1294e-19)
(0.003 -4.72392e-20 2.07586e-19)
(0.003 1.90621e-20 1.99696e-19)
(0.003 5.33589e-20 8.51377e-20)
(0.003 -1.98757e-20 2.84255e-19)
(0.003 -4.94407e-20 2.69253e-19)
(0.003 -7.47077e-20 7.4795e-20)
(0.003 -1.07048e-20 8.76919e-20)
(0.003 -5.79152e-20 -1.57534e-20)
(0.003 -8.13878e-21 -1.12804e-19)
(0.003 1.99915e-19 8.61541e-21)
(0.003 1.25482e-19 1.63265e-19)
(0.003 -8.95337e-21 2.05383e-19)
(0.003 9.15496e-21 2.68702e-19)
(0.003 5.37427e-22 2.23085e-19)
(0.003 3.66936e-20 -6.99904e-20)
(0.003 8.22094e-20 -1.84447e-19)
(0.003 2.94467e-20 -6.81712e-20)
(0.003 -2.96608e-20 9.51757e-20)
(0.003 -3.65056e-20 2.5548e-19)
(0.003 1.33806e-20 2.1198e-19)
(0.003 8.02254e-20 1.52326e-19)
(0.003 2.35493e-20 -3.36802e-20)
(0.003 -5.48055e-22 -3.15787e-19)
(0.003 9.7465e-20 -3.87736e-19)
(0.003 6.0391e-20 -3.93516e-19)
(0.003 -9.4544e-20 -3.23805e-19)
(0.003 -1.69159e-19 -2.36845e-19)
(0.003 -7.62551e-20 -1.87611e-19)
(0.003 1.70046e-20 -2.03511e-19)
(0.003 1.06067e-19 3.37221e-19)
(0.003 1.23067e-19 5.86508e-19)
(0.003 1.17103e-19 6.10349e-19)
(0.003 7.12298e-20 4.95367e-19)
(0.003 9.06982e-20 4.1671e-19)
(0.003 6.00869e-20 4.35379e-19)
(0.003 -1.87916e-20 3.32629e-19)
(0.003 -8.35652e-21 2.50324e-19)
(0.003 -4.47145e-20 1.59606e-19)
(0.003 -4.76599e-20 1.66796e-19)
(0.003 -4.15763e-20 1.52558e-19)
(0.003 5.34244e-21 1.93677e-19)
(0.003 2.08777e-20 2.06907e-19)
(0.003 7.77362e-20 1.67901e-19)
(0.003 1.58674e-20 2.79805e-19)
(0.003 -2.90369e-20 2.20345e-19)
(0.003 -3.12788e-20 1.11382e-19)
(0.003 -2.18757e-22 6.00158e-20)
(0.003 4.18803e-20 1.53741e-20)
(0.003 7.03713e-20 -1.34323e-19)
(0.003 5.43324e-20 -5.24524e-21)
(0.003 -5.84256e-20 1.45544e-19)
(0.003 -4.75208e-20 1.81637e-19)
(0.003 1.98207e-20 2.81708e-19)
(0.003 -6.9537e-21 2.69325e-19)
(0.003 -2.7652e-21 -2.83263e-20)
(0.003 8.00844e-20 -1.3983e-19)
(0.003 1.24699e-19 -1.31978e-20)
(0.003 -4.02734e-20 5.96592e-20)
(0.003 -6.51512e-20 2.32626e-19)
(0.003 4.35421e-20 2.32125e-19)
(0.003 -5.29939e-20 1.63842e-19)
(0.003 -8.98004e-20 4.2669e-20)
(0.003 -8.77673e-21 -2.36702e-19)
(0.003 1.0439e-19 -2.1376e-19)
(0.003 9.9328e-20 -3.10774e-19)
(0.003 1.93965e-20 -4.95719e-19)
(0.003 -7.80817e-21 -3.47031e-19)
(0.003 4.89566e-20 -2.35382e-19)
(0.003 1.53018e-20 -2.06466e-19)
(0.003 1.47906e-19 4.32067e-19)
(0.003 1.42173e-19 6.27916e-19)
(0.003 6.02549e-20 6.08739e-19)
(0.003 6.28126e-20 5.60419e-19)
(0.003 1.33488e-19 5.26805e-19)
(0.003 4.66222e-20 4.0687e-19)
(0.003 -5.17914e-20 3.0489e-19)
(0.003 -5.53608e-20 2.33904e-19)
(0.003 6.19772e-20 1.62911e-19)
(0.003 1.35574e-19 1.24864e-19)
(0.003 1.25493e-21 1.35027e-19)
(0.003 -9.89141e-20 1.95915e-19)
(0.003 -6.33768e-20 2.47162e-19)
(0.003 6.68492e-20 2.65713e-19)
(0.003 4.28936e-20 3.00308e-19)
(0.003 -7.1985e-20 1.93893e-19)
(0.003 -1.97832e-20 2.03812e-20)
(0.003 -5.16085e-20 8.8876e-21)
(0.003 -1.25366e-19 3.56111e-21)
(0.003 5.12105e-20 -8.86862e-20)
(0.003 8.54613e-20 4.84422e-20)
(0.003 7.04794e-20 1.47244e-19)
(0.003 3.6139e-20 1.56646e-19)
(0.003 -6.81695e-20 1.87059e-19)
(0.003 -4.65817e-20 2.15601e-19)
(0.003 4.54423e-20 1.0961e-19)
(0.003 6.8174e-20 -4.17742e-21)
(0.003 1.28028e-19 3.8985e-20)
(0.003 2.01958e-20 1.00931e-19)
(0.003 -4.57399e-20 1.1728e-19)
(0.003 -2.81886e-20 1.59026e-19)
(0.003 -1.67297e-19 1.3086e-19)
(0.003 -9.49095e-20 -1.53789e-20)
(0.003 6.86911e-20 -1.10007e-19)
(0.003 8.29802e-20 -1.2071e-19)
(0.003 1.87575e-20 -2.58954e-19)
(0.003 5.4961e-20 -3.93561e-19)
(0.003 7.09946e-20 -3.10555e-19)
(0.003 8.54397e-20 -1.76026e-19)
(0.003 -2.23054e-20 -1.8804e-19)
(0.003 6.13317e-21 4.78758e-19)
(0.003 2.01575e-20 7.01651e-19)
(0.003 5.084e-20 7.04611e-19)
(0.003 3.99586e-21 5.44739e-19)
(0.003 -9.70314e-21 5.30447e-19)
(0.003 6.51107e-20 4.63896e-19)
(0.003 9.24361e-20 3.12626e-19)
(0.003 5.1521e-20 1.89093e-19)
(0.003 7.10669e-20 2.09275e-19)
(0.003 3.52753e-20 2.73283e-19)
(0.003 2.4971e-20 2.11531e-19)
(0.003 -4.1287e-20 1.32641e-19)
(0.003 -7.62062e-20 1.86542e-19)
(0.003 -5.86102e-20 2.41989e-19)
(0.003 -4.42811e-20 2.7858e-19)
(0.003 -3.24665e-20 1.32401e-19)
(0.003 -5.18183e-20 -2.16045e-20)
(0.003 6.30598e-21 -2.91158e-20)
(0.003 4.6197e-20 -5.42392e-20)
(0.003 -3.59254e-20 -2.0498e-19)
(0.003 3.23472e-20 3.51308e-20)
(0.003 9.83233e-20 2.52762e-19)
(0.003 9.87504e-20 2.37364e-19)
(0.003 -1.65945e-20 2.15401e-19)
(0.003 -1.16938e-19 1.90567e-19)
(0.003 -4.6169e-20 1.38008e-19)
(0.003 4.70249e-20 6.47018e-20)
(0.003 1.27974e-19 7.14674e-20)
(0.003 1.29729e-19 1.38961e-20)
(0.003 3.10652e-21 4.25222e-20)
(0.003 -7.89221e-20 9.51031e-20)
(0.003 -1.19498e-19 -9.16319e-21)
(0.003 -9.87567e-20 7.22576e-21)
(0.003 -7.56313e-21 -6.63244e-20)
(0.003 -6.88404e-21 -5.8886e-20)
(0.003 6.11517e-20 -1.6822e-19)
(0.003 3.74717e-20 -3.95405e-19)
(0.003 -2.32158e-20 -3.27572e-19)
(0.003 -3.64349e-20 -2.8286e-19)
(0.003 -1.33214e-19 -3.92495e-19)
(0.003 -1.10424e-21 5.32243e-19)
(0.003 2.51713e-20 7.4269e-19)
(0.003 -2.17914e-20 7.04036e-19)
(0.003 -7.39075e-20 5.00772e-19)
(0.003 -6.63333e-20 4.09411e-19)
(0.003 -1.21186e-20 4.87089e-19)
(0.003 7.10796e-20 4.06789e-19)
(0.003 1.07152e-19 2.94424e-19)
(0.003 5.11036e-20 2.46594e-19)
(0.003 -8.17759e-20 2.51001e-19)
(0.003 -2.37571e-20 2.40224e-19)
(0.003 -1.58835e-20 1.15672e-19)
(0.003 -8.27497e-20 1.5011e-19)
(0.003 -1.26248e-19 2.14733e-19)
(0.003 -1.02927e-19 2.28518e-19)
(0.003 -6.21218e-20 1.59534e-19)
(0.003 5.07491e-21 -6.64387e-20)
(0.003 4.68121e-20 -1.3867e-19)
(0.003 1.38047e-19 -4.24142e-20)
(0.003 1.8185e-19 -1.9169e-19)
(0.003 5.53454e-20 8.71913e-20)
(0.003 -9.79784e-22 3.13597e-19)
(0.003 -3.81273e-20 2.94177e-19)
(0.003 -1.17871e-19 2.11198e-19)
(0.003 -9.93521e-20 8.72734e-20)
(0.003 -1.53443e-20 1.03697e-19)
(0.003 1.09928e-19 1.11378e-19)
(0.003 1.223e-19 1.24375e-19)
(0.003 7.51813e-20 7.95143e-20)
(0.003 -4.7641e-20 8.49424e-20)
(0.003 -5.96442e-20 3.50342e-20)
(0.003 -4.63972e-20 -1.43711e-19)
(0.003 -1.46483e-19 -1.37921e-19)
(0.003 -1.17722e-19 -9.43631e-20)
(0.003 -1.46549e-20 3.0419e-20)
(0.003 7.44769e-20 -3.90374e-20)
(0.003 9.11374e-20 -2.43126e-19)
(0.003 6.83674e-20 -3.7147e-19)
(0.003 5.16227e-21 -4.26123e-19)
(0.003 -1.62791e-20 -4.44046e-19)
(0.003 -1.40264e-20 5.26957e-19)
(0.003 -4.86375e-20 7.64675e-19)
(0.003 -3.45579e-20 6.9967e-19)
(0.003 -6.23938e-20 5.09462e-19)
(0.003 -4.54909e-20 4.68963e-19)
(0.003 -6.72345e-20 4.53831e-19)
(0.003 -2.97683e-20 3.84617e-19)
(0.003 1.004e-19 3.48919e-19)
(0.003 3.40277e-20 2.51961e-19)
(0.003 -2.89282e-20 1.6946e-19)
(0.003 -3.2048e-20 2.20438e-19)
(0.003 -6.21457e-20 1.91279e-19)
(0.003 -2.22122e-20 2.12129e-19)
(0.003 -6.86775e-20 1.5268e-19)
(0.003 -1.17752e-19 1.10912e-19)
(0.003 -1.01034e-19 1.02166e-19)
(0.003 1.84982e-20 -3.20307e-20)
(0.003 7.53544e-20 -5.35694e-20)
(0.003 1.61701e-19 -4.74554e-20)
(0.003 3.0864e-19 -1.24715e-19)
(0.003 1.29169e-19 1.1783e-19)
(0.003 -1.02916e-19 3.17258e-19)
(0.003 -2.05163e-19 2.66611e-19)
(0.003 -1.52883e-19 1.3036e-19)
(0.003 3.17054e-20 1.22306e-19)
(0.003 -1.56121e-20 1.59364e-19)
(0.003 2.00423e-20 1.29791e-19)
(0.003 6.13281e-20 1.00158e-19)
(0.003 -1.45979e-20 7.61038e-20)
(0.003 1.85648e-20 4.9555e-20)
(0.003 -3.17818e-21 -3.91033e-20)
(0.003 -3.22277e-20 -1.7583e-19)
(0.003 -7.67187e-20 -2.51615e-19)
(0.003 -1.4715e-19 -2.19907e-19)
(0.003 -3.99258e-20 -5.44139e-20)
(0.003 4.58999e-21 2.59611e-20)
(0.003 1.10036e-19 -1.03189e-19)
(0.003 1.45699e-19 -3.29968e-19)
(0.003 8.39946e-20 -4.18962e-19)
(0.003 1.03721e-19 -4.33834e-19)
(0.003 -1.03388e-19 4.86061e-19)
(0.003 -5.3466e-20 6.85685e-19)
(0.003 3.53959e-20 6.63261e-19)
(0.003 -1.13461e-20 4.95277e-19)
(0.003 -5.81886e-20 3.88744e-19)
(0.003 -7.17841e-20 3.87029e-19)
(0.003 -7.55907e-21 4.02072e-19)
(0.003 3.32869e-20 3.87653e-19)
(0.003 1.958e-20 3.0332e-19)
(0.003 5.27378e-20 2.30768e-19)
(0.003 -8.89619e-20 2.54061e-19)
(0.003 -5.29193e-20 1.94948e-19)
(0.003 -4.79896e-20 2.12668e-19)
(0.003 -5.7411e-20 1.7202e-19)
(0.003 -2.15672e-20 5.65795e-20)
(0.003 -4.41707e-20 -1.62862e-20)
(0.003 2.39412e-20 -3.6953e-20)
(0.003 1.06261e-19 4.89984e-20)
(0.003 1.46679e-19 8.259e-20)
(0.003 1.91826e-19 7.59177e-20)
(0.003 1.29294e-19 1.94828e-19)
(0.003 -5.14885e-20 1.39498e-19)
(0.003 -2.18521e-19 5.03452e-20)
(0.003 -1.47999e-19 6.22211e-20)
(0.003 -6.98034e-21 1.44474e-19)
(0.003 -3.29113e-20 1.703e-19)
(0.003 -6.98733e-20 7.65383e-20)
(0.003 -9.15182e-20 1.16403e-19)
(0.003 -2.92627e-20 9.09759e-20)
(0.003 6.96469e-20 6.86193e-20)
(0.003 2.64803e-20 1.98464e-20)
(0.003 2.1161e-21 -1.78304e-19)
(0.003 -3.19927e-21 -2.62244e-19)
(0.003 -4.12503e-20 -2.32294e-19)
(0.003 -2.47092e-20 -1.04469e-19)
(0.003 2.65256e-20 -6.80695e-20)
(0.003 3.46377e-20 -1.78261e-19)
(0.003 2.83115e-20 -2.94851e-19)
(0.003 6.66399e-20 -3.65333e-19)
(0.003 9.42532e-20 -3.65896e-19)
(0.003 -9.86994e-20 4.27018e-19)
(0.003 -1.02107e-19 7.58263e-19)
(0.003 -4.02584e-20 7.42778e-19)
(0.003 3.28167e-20 5.22658e-19)
(0.003 2.38288e-20 4.04839e-19)
(0.003 -8.77483e-21 3.96438e-19)
(0.003 -4.9525e-20 3.93473e-19)
(0.003 -9.37999e-20 3.80596e-19)
(0.003 -4.31188e-20 3.0239e-19)
(0.003 2.68326e-20 2.45758e-19)
(0.003 2.90093e-20 2.08688e-19)
(0.003 1.73102e-20 1.58429e-19)
(0.003 -8.97434e-20 1.6717e-19)
(0.003 -1.27063e-19 1.33484e-19)
(0.003 -9.02849e-21 7.67587e-20)
(0.003 5.66506e-20 5.74101e-20)
(0.003 -1.62062e-20 6.95713e-20)
(0.003 1.06341e-19 2.03137e-20)
(0.003 3.0383e-19 -7.92963e-20)
(0.003 1.56307e-19 5.55963e-20)
(0.003 -1.70193e-20 2.42392e-19)
(0.003 -9.60975e-20 2.36347e-19)
(0.003 -6.71009e-20 8.84827e-20)
(0.003 -2.38961e-20 6.28357e-20)
(0.003 -6.97835e-20 1.42749e-19)
(0.003 -7.4814e-20 1.37747e-19)
(0.003 -8.81562e-20 3.78092e-20)
(0.003 -1.568e-19 4.40355e-20)
(0.003 -5.30552e-20 1.17092e-19)
(0.003 2.66648e-20 9.25331e-20)
(0.003 -5.60771e-21 -6.62917e-20)
(0.003 -5.0504e-20 -2.34594e-19)
(0.003 -2.2507e-20 -2.14167e-19)
(0.003 5.04578e-20 -1.25375e-19)
(0.003 1.11248e-19 -7.3266e-20)
(0.003 2.74748e-20 -9.37405e-20)
(0.003 -2.99035e-20 -2.56492e-19)
(0.003 1.85631e-20 -3.33918e-19)
(0.003 1.24908e-20 -4.13848e-19)
(0.003 -1.6822e-20 -3.66528e-19)
(0.003 -5.71226e-20 4.19664e-19)
(0.003 -9.93278e-20 6.65132e-19)
(0.003 -7.20494e-20 7.27655e-19)
(0.003 -4.32831e-20 6.15378e-19)
(0.003 -2.3563e-20 4.59962e-19)
(0.003 1.46881e-20 3.50311e-19)
(0.003 -3.19694e-20 3.58698e-19)
(0.003 -7.22374e-20 3.06034e-19)
(0.003 -4.31808e-20 3.20808e-19)
(0.003 -3.12257e-20 3.367e-19)
(0.003 1.31384e-20 2.38502e-19)
(0.003 1.90056e-20 1.55548e-19)
(0.003 -8.37464e-20 1.68514e-19)
(0.003 -1.12881e-19 7.03273e-20)
(0.003 -4.63332e-20 4.17868e-20)
(0.003 -1.66034e-20 1.72061e-19)
(0.003 -3.20178e-20 1.19406e-19)
(0.003 6.28767e-20 1.25609e-20)
(0.003 2.13415e-19 4.61506e-20)
(0.003 7.25984e-20 8.05974e-20)
(0.003 -4.13842e-20 1.43076e-19)
(0.003 -5.4919e-20 1.76402e-19)
(0.003 4.40454e-20 2.20425e-19)
(0.003 3.9169e-20 1.58648e-19)
(0.003 -9.61035e-20 5.9182e-20)
(0.003 -7.39069e-20 2.58438e-20)
(0.003 9.94243e-21 8.94683e-21)
(0.003 -1.16448e-19 9.68571e-21)
(0.003 -1.91394e-19 1.10026e-20)
(0.003 -8.7018e-20 2.01099e-20)
(0.003 -1.07043e-19 1.3776e-20)
(0.003 -1.16921e-19 -1.58811e-19)
(0.003 -1.7031e-21 -2.90778e-19)
(0.003 1.09506e-19 -1.44864e-19)
(0.003 1.00555e-19 1.49265e-20)
(0.003 -3.539e-20 -8.04427e-20)
(0.003 -2.1435e-20 -2.07659e-19)
(0.003 -2.74278e-20 -3.12972e-19)
(0.003 -2.28316e-20 -4.04758e-19)
(0.003 4.42972e-20 -2.92095e-19)
(0.003 5.64592e-20 4.85759e-19)
(0.003 2.66248e-20 6.99679e-19)
(0.003 -8.69113e-21 6.97312e-19)
(0.003 -9.69582e-20 5.31257e-19)
(0.003 -9.7809e-20 3.90148e-19)
(0.003 -4.71737e-20 4.10169e-19)
(0.003 -6.53346e-20 3.4754e-19)
(0.003 -9.5864e-20 3.07981e-19)
(0.003 -9.91504e-20 3.55972e-19)
(0.003 -1.98879e-20 2.71154e-19)
(0.003 6.78451e-20 1.77435e-19)
(0.003 6.44021e-20 1.70413e-19)
(0.003 1.60575e-19 6.87894e-20)
(0.003 9.72128e-20 6.21096e-20)
(0.003 -6.63446e-20 1.13739e-19)
(0.003 -9.9397e-20 2.01796e-19)
(0.003 -1.33884e-19 1.90807e-20)
(0.003 -1.20795e-19 -1.19703e-19)
(0.003 -2.57808e-20 6.39997e-20)
(0.003 -1.11471e-20 7.35475e-20)
(0.003 2.7046e-20 1.42603e-19)
(0.003 5.76069e-20 2.29514e-19)
(0.003 2.43478e-20 2.34714e-19)
(0.003 4.21435e-20 1.27101e-19)
(0.003 6.74511e-20 7.19362e-20)
(0.003 -3.08082e-20 -1.5028e-20)
(0.003 -3.75391e-20 5.34386e-20)
(0.003 2.96168e-20 1.14003e-19)
(0.003 -4.50977e-20 -2.10711e-20)
(0.003 -1.17701e-19 -7.87294e-20)
(0.003 -1.4217e-19 -5.66729e-20)
(0.003 -1.01871e-19 -1.88105e-19)
(0.003 5.09744e-20 -3.21837e-19)
(0.003 3.23341e-20 -7.73565e-20)
(0.003 -1.24249e-19 2.96618e-20)
(0.003 2.51689e-20 -8.1648e-20)
(0.003 1.63692e-19 -2.27179e-19)
(0.003 8.63042e-20 -3.21993e-19)
(0.003 -6.21037e-20 -3.65736e-19)
(0.003 -9.60888e-20 -3.06383e-19)
(0.003 1.43552e-19 5.25243e-19)
(0.003 9.13512e-20 7.31614e-19)
(0.003 -6.44626e-20 6.63033e-19)
(0.003 -1.84304e-19 4.93441e-19)
(0.003 -7.7893e-20 4.12417e-19)
(0.003 2.51179e-21 3.46852e-19)
(0.003 -6.07213e-20 2.33062e-19)
(0.003 -1.16314e-19 2.01579e-19)
(0.003 -7.58731e-20 2.61821e-19)
(0.003 4.22702e-20 3.42289e-19)
(0.003 1.14549e-19 3.34632e-19)
(0.003 9.83968e-20 2.66315e-19)
(0.003 1.00388e-19 1.49863e-19)
(0.003 1.18177e-19 1.01037e-19)
(0.003 -8.13099e-20 1.96986e-19)
(0.003 -2.00748e-19 1.00291e-19)
(0.003 -1.28058e-19 -1.09546e-19)
(0.003 -1.40804e-19 -1.79551e-19)
(0.003 -1.47954e-19 1.74073e-20)
(0.003 -1.12102e-19 8.66478e-20)
(0.003 1.04567e-20 1.30978e-19)
(0.003 1.32892e-19 1.86809e-19)
(0.003 4.21919e-20 1.78686e-19)
(0.003 4.40868e-21 1.30669e-19)
(0.003 8.36474e-20 9.5042e-20)
(0.003 5.20196e-20 5.8012e-20)
(0.003 -8.64086e-20 8.50968e-20)
(0.003 2.26944e-20 8.49366e-20)
(0.003 1.22964e-19 1.58686e-20)
(0.003 3.86329e-20 -1.59755e-19)
(0.003 -1.92065e-20 -1.25752e-19)
(0.003 -1.17061e-19 -2.63179e-19)
(0.003 -9.57051e-21 -3.13392e-19)
(0.003 -5.71642e-20 -8.11457e-20)
(0.003 -1.57074e-19 -1.15515e-19)
(0.003 6.88604e-20 -4.33185e-20)
(0.003 5.50768e-20 -3.36945e-20)
(0.003 8.06064e-21 -2.30157e-19)
(0.003 2.21952e-20 -4.06957e-19)
(0.003 4.44713e-20 -3.73844e-19)
(0.003 7.66581e-20 5.47663e-19)
(0.003 -2.89743e-20 7.49564e-19)
(0.003 -9.83054e-20 6.24179e-19)
(0.003 -3.60357e-20 3.77839e-19)
(0.003 -4.70473e-20 3.35446e-19)
(0.003 -2.96634e-20 3.36695e-19)
(0.003 -1.53027e-20 2.79315e-19)
(0.003 8.19309e-20 2.50779e-19)
(0.003 1.01076e-19 2.6501e-19)
(0.003 2.51874e-20 3.17888e-19)
(0.003 1.129e-20 2.97073e-19)
(0.003 1.22389e-21 2.85517e-19)
(0.003 -6.47284e-21 1.8487e-19)
(0.003 -1.81474e-20 1.32255e-19)
(0.003 -2.01327e-19 1.21447e-19)
(0.003 -1.97845e-19 -4.43677e-20)
(0.003 -9.53458e-20 -1.07439e-19)
(0.003 -1.29134e-19 -1.59056e-19)
(0.003 -2.82898e-19 -5.13373e-20)
(0.003 -1.68586e-19 1.44717e-20)
(0.003 -2.45686e-20 1.77311e-19)
(0.003 2.52433e-20 2.66842e-19)
(0.003 1.0987e-19 1.91319e-19)
(0.003 2.33035e-19 1.72605e-19)
(0.003 1.65725e-19 1.22219e-19)
(0.003 6.28066e-20 8.34539e-20)
(0.003 -6.5495e-20 9.23064e-21)
(0.003 -9.6236e-21 1.27603e-20)
(0.003 7.23288e-20 2.34844e-20)
(0.003 1.90591e-20 -4.95551e-20)
(0.003 5.99239e-20 -1.38524e-19)
(0.003 1.01845e-19 -2.2375e-19)
(0.003 -1.91755e-20 -2.64592e-19)
(0.003 -6.11009e-20 -1.38342e-19)
(0.003 -3.5496e-20 -1.00165e-19)
(0.003 -1.19941e-20 -6.94775e-20)
(0.003 -5.67574e-20 -1.54076e-19)
(0.003 -6.59539e-20 -3.31852e-19)
(0.003 5.53597e-20 -2.89685e-19)
(0.003 1.06485e-19 -1.01798e-19)
(0.003 -1.30531e-19 5.56558e-19)
(0.003 -1.70045e-19 7.1344e-19)
(0.003 -7.42241e-20 5.79639e-19)
(0.003 2.62682e-20 3.59919e-19)
(0.003 2.68282e-21 2.83861e-19)
(0.003 4.24559e-20 3.8057e-19)
(0.003 8.39639e-20 2.78305e-19)
(0.003 8.99132e-20 2.09443e-19)
(0.003 3.78514e-20 2.82845e-19)
(0.003 -4.17841e-21 3.37845e-19)
(0.003 -6.41663e-20 2.93058e-19)
(0.003 -6.53293e-20 2.51586e-19)
(0.003 -4.01657e-20 1.78825e-19)
(0.003 -1.65439e-19 -1.70467e-21)