/*--------------------------------*- C++ -*----------------------------------*\
| =========                 |                                                 |
| \\      /  F ield         | OpenFOAM: The Open Source CFD Toolbox           |
|  \\    /   O peration     | Version:  v2012                                 |
|   \\  /    A nd           | Website:  www.openfoam.com                      |
|    \\/     M anipulation  |                                                 |
\*---------------------------------------------------------------------------*/
FoamFile
{
    version     2.0;
    format      ascii;
    class       volScalarField;
    location    "730/bottomWater";
    object      p;
}
// * * * * * * * * * * * * * * * * * * * * * * * * * * * * * * * * * * * * * //

dimensions      [1 -1 -2 0 0 0 0];


internalField   nonuniform List<scalar> 
1460
(
353.44714
353.44656
353.4452
353.45128
353.45367
353.46777
353.47116
353.45102
353.45882
353.45926
353.45043
353.47217
353.46576
353.46729
353.47896
353.48019
353.4754
353.47463
353.45862
353.47137
353.48074
353.49556
353.49772
353.49904
353.49008
353.4931
353.49653
353.50386
353.5037
353.49636
274.42918
274.42987
274.46302
274.4793
274.49246
274.52284
274.48842
274.42874
274.42095
274.42695
274.43511
274.45386
274.41468
274.41552
274.4461
274.43295
274.38978
274.40772
274.41027
274.44885
274.47647
274.46209
274.42659
274.37947
274.40094
274.41988
274.44476
274.46144
274.45107
274.41457
196.32289
196.286
196.27053
196.2658
196.25245
196.24025
196.23756
196.24867
196.27816
196.27709
196.27481
196.27019
196.32525
196.29527
196.26503
196.26866
196.2984
196.29601
196.26392
196.23944
196.27095
196.26572
196.26174
196.28427
196.30014
196.25378
196.2677
196.27462
196.26483
196.29117
117.6745
117.64628
117.63039
117.66459
117.67041
117.6491
117.65481
117.64382
117.6978
117.68803
117.65216
117.68939
117.67238
117.6594
117.65034
117.63978
117.67718
117.68001
117.65251
117.64639
117.67727
117.69142
117.65116
117.67698
117.65774
117.65195
117.67211
117.67827
117.64817
117.64423
39.271213
39.255591
39.257635
39.235451
39.240188
39.267366
39.253675
39.241327
39.234928
39.227118
39.219603
39.227759
39.236636
39.23086
39.274518
39.256662
39.255774
39.256666
39.255297
39.250153
39.23133
39.233189
39.23848
39.250457
39.249909
39.259871
39.236063
39.233961
39.233794
39.250475
353.44445
353.45196
353.44006
353.43331
353.42896
353.43111
353.43407
353.4379
353.44278
353.44843
353.46782
353.45885
353.46593
353.46564
353.47958
353.47564
353.47631
353.47806
353.46793
353.46805
353.49119
353.50213
353.493
353.49669
353.49266
353.49045
353.48495
353.48601
353.48568
353.488
274.43427
274.47389
274.4602
274.44459
274.43927
274.43645
274.44495
274.42426
274.41386
274.43572
274.48114
274.47137
274.45001
274.46646
274.48868
274.42727
274.38786
274.39725
274.39453
274.42172
274.45111
274.4329
274.3849
274.36516
274.37096
274.37094
274.38341
274.39187
274.40096
274.37656
196.29822
196.25501
196.27667
196.30451
196.30379
196.26934
196.28468
196.28874
196.27025
196.25012
196.23784
196.27946
196.28691
196.27462
196.24339
196.2526
196.28489
196.32672
196.26489
196.26051
196.26819
196.24227
196.28217
196.28873
196.33518
196.30933
196.31163
196.305
196.29809
196.3279
117.65631
117.63887
117.64238
117.67232
117.67654
117.6392
117.64667
117.67577
117.66967
117.63487
117.64088
117.66392
117.67543
117.65089
117.63415
117.62703
117.6713
117.67661
117.66016
117.63014
117.66608
117.66487
117.64778
117.68725
117.67386
117.67114
117.64443
117.62284
117.6041
117.66494
39.239782
39.247648
39.236625
39.223375
39.228995
39.254195
39.243272
39.247038
39.236351
39.233652
39.229218
39.222396
39.223818
39.22521
39.25215
39.262649
39.258122
39.273949
39.252354
39.247447
39.227854
39.238268
39.238599
39.250957
39.260708
39.254311
39.235356
39.25703
39.273973
39.262371
353.44542
353.45088
353.4408
353.44279
353.44667
353.44557
353.44977
353.45035
353.44832
353.45725
353.47237
353.45904
353.4487
353.46611
353.46909
353.46725
353.47075
353.46727
353.4625
353.46777
353.47409
353.48649
353.48161
353.50263
353.4835
353.49529
353.48984
353.48616
353.48431
353.48588
274.44211
274.46089
274.43436
274.42322
274.42191
274.41532
274.42168
274.41965
274.42092
274.45392
274.49602
274.46432
274.43656
274.47169
274.45197
274.40483
274.39564
274.38695
274.39189
274.40701
274.39531
274.36712
274.39812
274.42257
274.38307
274.38102
274.37912
274.39388
274.40141
274.37875
196.29773
196.26908
196.28718
196.31076
196.3183
196.30373
196.3042
196.28786
196.26513
196.24211
196.23203
196.24996
196.28667
196.26561
196.26127
196.26489
196.29613
196.3034
196.28792
196.27088
196.30272
196.28701
196.30381
196.25678
196.29268
196.33395
196.30556
196.31
196.29356
196.3329
117.64659
117.63123
117.637
117.67983
117.69943
117.6777
117.68668
117.67742
117.65803
117.64362
117.65629
117.6447
117.66876
117.67046
117.66018
117.62244
117.66616
117.67046
117.64772
117.65781
117.6578
117.67994
117.63293
117.65467
117.65577
117.70794
117.6866
117.63008
117.6293
117.67967
39.292181
39.270019
39.239501
39.231218
39.244096
39.250192
39.263774
39.263068
39.253805
39.254541
39.260104
39.247348
39.234045
39.228811
39.229308
39.244427
39.243828
39.257284
39.263352
39.266281
39.252587
39.25898
39.280878
39.264534
39.241618
39.25285
39.247665
39.265705
39.292705
39.276372
353.43842
353.43308
353.43721
353.43047
353.43441
353.4302
353.42647
353.42583
353.43065
353.4342
353.44005
353.44409
353.44612
353.44634
353.44632
353.45421
353.45571
353.44423
353.46549
353.49752
353.50164
353.51223
353.49334
353.51414
353.49061
353.49212
353.48162
353.4945
353.50163
353.49627
274.43618
274.4481
274.44412
274.42827
274.42416
274.423
274.42232
274.43207
274.43262
274.4346
274.42787
274.42566
274.42429
274.43814
274.43531
274.41467
274.42385
274.40651
274.43704
274.46981
274.39749
274.36234
274.3796
274.43457
274.40855
274.38268
274.38668
274.4261
274.43834
274.38415
196.30265
196.2915
196.28406
196.29755
196.32646
196.31005
196.3037
196.28649
196.29168
196.28998
196.27805
196.29735
196.30819
196.29938
196.30233
196.30996
196.31961
196.29377
196.2332
196.23123
196.24653
196.28633
196.3361
196.23767
196.29324
196.27671
196.29388
196.25933
196.23108
196.29306
117.65248
117.63747
117.62984
117.65555
117.68144
117.6644
117.6498
117.62787
117.64839
117.63713
117.63464
117.6464
117.66896
117.63447
117.64393
117.66
117.67313
117.63852
117.63291
117.62735
117.60318
117.6768
117.67163
117.64707
117.61738
117.65535
117.64575
117.63587
117.6177
117.64271
39.264302
39.279867
39.255804
39.231885
39.235744
39.243502
39.258964
39.281676
39.262273
39.266151
39.265599
39.238108
39.226441
39.258757
39.259526
39.230298
39.235941
39.22588
39.238544
39.269972
39.270507
39.281908
39.269232
39.272392
39.252374
39.226385
39.221858
39.225027
39.238568
39.239534
353.44976
353.45136
353.4517
353.4307
353.44555
353.43772
353.4407
353.45732
353.46016
353.45676
353.46018
353.4597
353.45424
353.47183
353.47629
353.492
353.49514
353.49935
353.49531
353.49146
353.49853
353.49934
353.50113
353.5011
353.49896
353.49792
274.42918
274.47741
274.47083
274.43021
274.42941
274.436
274.441
274.4906
274.46139
274.42608
274.40209
274.40404
274.4285
274.42679
274.43441
274.48411
274.45116
274.37443
274.38005
274.40841
274.43688
274.45515
274.45824
274.46254
274.43256
274.39287
196.29348
196.24307
196.2488
196.28593
196.31018
196.2883
196.25635
196.24545
196.25955
196.27099
196.27909
196.29664
196.2893
196.31603
196.24964
196.22727
196.23815
196.28212
196.29528
196.28387
196.2655
196.26568
196.26018
196.27269
196.25629
196.3015
117.6692
117.63428
117.65717
117.65535
117.69474
117.65675
117.64731
117.65145
117.66986
117.65557
117.688
117.68209
117.65873
117.6976
117.65944
117.65054
117.651
117.65949
117.66975
117.61617
117.65181
117.67707
117.69263
117.67966
117.63745
117.67512
39.247634
39.251769
39.237129
39.224855
39.234664
39.233896
39.244874
39.264141
39.245586
39.244952
39.265313
39.261649
39.25899
39.244301
39.213641
39.250538
39.259893
39.263454
39.280129
39.254222
39.227877
39.233625
39.23267
39.22582
39.234631
39.244773
353.45416
353.46042
353.45099
353.44625
353.44775
353.44195
353.43694
353.45646
353.45577
353.44674
353.45231
353.45187
353.45211
353.46722
353.46945
353.46742
353.47079
353.51289
353.49912
353.49865
353.49807
353.49797
353.49238
353.49658
353.49293
353.49336
274.44481
274.48731
274.48423
274.44743
274.433
274.42739
274.43416
274.49055
274.48392
274.42457
274.41424
274.4188
274.45702
274.39916
274.39419
274.40067
274.41275
274.4417
274.40666
274.40421
274.44562
274.46414
274.45466
274.46582
274.4258
274.39083
196.27694
196.22867
196.26345
196.28002
196.31795
196.27887
196.25787
196.23231
196.2643
196.25219
196.295
196.30038
196.27605
196.30922
196.2982
196.26641
196.28008
196.22639
196.28708
196.29812
196.25973
196.26065
196.25938
196.26478
196.24013
196.28566
117.6628
117.65288
117.67073
117.67868
117.70448
117.68753
117.65763
117.65835
117.68159
117.64091
117.68462
117.67655
117.66761
117.65388
117.63437
117.62127
117.61734
117.64548
117.60755
117.65774
117.68469
117.6878
117.66653
117.66302
117.63611
117.66503
39.233919
39.234519
39.216045
39.217148
39.2387
39.226254
39.230503
39.245199
39.235277
39.254359
39.259575
39.251433
39.244582
39.235187
39.232811
39.252653
39.272033
39.255161
39.246229
39.201156
39.219103
39.227195
39.211728
39.221092
39.235475
39.239358
353.44704
353.44658
353.45119
353.42473
353.43815
353.44226
353.46236
353.4515
353.46992
353.46171
353.46223
353.46448
353.45976
353.45878
353.47735
353.47305
353.48058
353.47908
353.48089
353.47941
353.4663
353.46667
353.48345
353.48692
353.4663
353.47943
353.46022
353.50599
353.48578
353.49228
274.4332
274.45033
274.46839
274.44748
274.43932
274.4502
274.48287
274.48258
274.47924
274.42132
274.39523
274.40534
274.41151
274.41849
274.45521
274.46223
274.4463
274.40916
274.38664
274.39557
274.38946
274.4053
274.44
274.44626
274.42053
274.41187
274.41408
274.44126
274.39568
274.38661
196.28951
196.24923
196.26509
196.29381
196.29441
196.28635
196.26082
196.26893
196.23741
196.23964
196.2747
196.29578
196.28086
196.25965
196.26127
196.28027
196.26969
196.29357
196.303
196.32166
196.26904
196.2603
196.23324
196.25955
196.28751
196.264
196.26537
196.23385
196.25744
196.28934
117.66647
117.63737
117.67167
117.64572
117.67231
117.68219
117.68528
117.65463
117.65517
117.63754
117.68025
117.68282
117.66835
117.63988
117.67374
117.6539
117.63351
117.61363
117.6698
117.68317
117.67012
117.64136
117.64312
117.65025
117.648
117.64232
117.6185
117.63811
117.60642
117.67
39.246211
39.244867
39.230376
39.231982
39.229591
39.228548
39.222321
39.22049
39.244348
39.254179
39.260814
39.267834
39.250978
39.25035
39.238242
39.234063
39.236903
39.256477
39.260539
39.277064
39.262966
39.259431
39.254088
39.225729
39.22263
39.226621
39.240791
39.256368
39.256239
39.257583
353.45889
353.45759
353.45646
353.45909
353.45919
353.46123
353.46619
353.46434
353.45856
353.45718
353.46355
353.45607
353.45932
353.46497
353.47078
353.47923
353.47568
353.4848
353.46992
353.47427
353.47035
353.46933
353.46351
353.47905
353.46262
353.47693
353.47119
353.47916
353.48257
353.488
274.41779
274.40676
274.42598
274.46013
274.47702
274.48533
274.48437
274.46
274.42442
274.40924
274.41087
274.42533
274.42011
274.40028
274.41447
274.45893
274.46494
274.45725
274.40842
274.38763
274.39116
274.39269
274.4177
274.42906
274.40451
274.38245
274.38957
274.39214
274.37303
274.38114
196.31501
196.26468
196.26708
196.24616
196.26082
196.26452
196.26255
196.25355
196.26113
196.27565
196.31273
196.28022
196.30933
196.28371
196.26071
196.26461
196.27829
196.24427
196.25529
196.29188
196.32341
196.27412
196.29671
196.2429
196.2801
196.29821
196.30955
196.27453
196.29617
196.34999
117.68598
117.68514
117.63677
117.64896
117.64773
117.66507
117.69028
117.67449
117.66563
117.66661
117.68019
117.63028
117.66919
117.68055
117.64687
117.67479
117.65547
117.63042
117.63125
117.66536
117.66709
117.66921
117.63635
117.66124
117.62883
117.6753
117.67647
117.64148
117.67104
117.68661
39.261916
39.252539
39.247269
39.258349
39.237043
39.228398
39.230218
39.233009
39.234765
39.243459
39.262009
39.271423
39.250869
39.243014
39.241949
39.231693
39.233876
39.255757
39.259777
39.256252
39.265098
39.249399
39.269013
39.258174
39.260467
39.259436
39.255983
39.274604
39.270295
39.282857
353.44374
353.44804
353.44727
353.4476
353.44186
353.46193
353.44959
353.45146
353.45321
353.46513
353.44798
353.4746
353.47481
353.48013
353.47895
353.47949
353.46261
353.4639
353.45898
353.47528
353.4592
353.47406
353.47998
353.47613
353.47206
353.47619
353.46715
353.49153
353.4869
353.49031
274.42763
274.43116
274.41956
274.41244
274.43531
274.46461
274.42848
274.42356
274.4113
274.41713
274.42449
274.44762
274.43937
274.39385
274.39924
274.43853
274.42113
274.4099
274.40689
274.40245
274.398
274.42355
274.39469
274.39711
274.40207
274.38994
274.39187
274.41559
274.39481
274.37518
196.31642
196.30258
196.31363
196.2769
196.28765
196.2344
196.28274
196.25416
196.29228
196.28394
196.27143
196.25885
196.25673
196.28193
196.3192
196.24032
196.28461
196.32251
196.29755
196.31436
196.29485
196.24558
196.30734
196.30743
196.30123
196.32137
196.30105
196.25658
196.28158
196.29409
117.65841
117.63709
117.66646
117.67155
117.63615
117.65704
117.6543
117.63536
117.66666
117.67502
117.65705
117.68061
117.65338
117.6713
117.66226
117.6251
117.64466
117.65284
117.64236
117.65058
117.64764
117.63709
117.66814
117.64161
117.62876
117.66635
117.63961
117.62843
117.60796
117.67486
39.250776
39.265581
39.260819
39.248778
39.259255
39.244371
39.236059
39.256366
39.254311
39.246674
39.240231
39.239011
39.234106
39.255755
39.255781
39.24742
39.246733
39.224486
39.248493
39.240958
39.243247
39.253903
39.247088
39.260356
39.24364
39.233902
39.231579
39.254304
39.271187
39.273317
353.45858
353.4666
353.45507
353.45793
353.4488
353.45967
353.45626
353.4602
353.45964
353.45752
353.46549
353.4724
353.47323
353.47356
353.47201
353.47443
353.46916
353.46331
353.46102
353.47562
353.45068
353.47657
353.48697
353.47253
353.48504
353.46954
353.46693
353.48866
353.49683
353.49061
274.46692
274.47473
274.45411
274.41775
274.44166
274.43627
274.41598
274.41095
274.41063
274.42079
274.45809
274.48363
274.46759
274.43288
274.39861
274.41074
274.42984
274.41063
274.40412
274.41357
274.40561
274.4637
274.47148
274.41684
274.45578
274.40303
274.41636
274.44938
274.45718
274.41972
196.28211
196.2389
196.27787
196.26303
196.30383
196.24662
196.29056
196.29588
196.29762
196.26753
196.24431
196.27007
196.27254
196.25644
196.29471
196.32333
196.26325
196.29983
196.31705
196.32558
196.30044
196.26107
196.275
196.29519
196.28403
196.33401
196.31484
196.27391
196.26664
196.28896
117.67353
117.65554
117.63007
117.68528
117.64485
117.66289
117.65792
117.68221
117.6851
117.63785
117.64722
117.66605
117.66766
117.62947
117.67094
117.64699
117.63908
117.64213
117.67932
117.67793
117.66398
117.65102
117.63046
117.64161
117.6566
117.69938
117.66324
117.65732
117.62756
117.61592
39.234436
39.245908
39.264184
39.252854
39.274337
39.251915
39.253143
39.269937
39.268314
39.271259
39.261745
39.239655
39.246474
39.267508
39.265883
39.265222
39.257397
39.239514
39.232981
39.23416
39.230585
39.224828
39.262174
39.238843
39.220032
39.240686
39.22913
39.227776
39.242937
39.269789
)
;

boundaryField
{
    minX
    {
        type            calculated;
        value           nonuniform List<scalar> 
50
(
353.44714
274.42918
196.32289
117.6745
39.271213
353.44445
274.43427
196.29822
117.65631
39.239782
353.44542
274.44211
196.29773
117.64659
39.292181
353.43842
274.43618
196.30265
117.65248
39.264302
353.44976
274.42918
196.29348
117.6692
39.247634
353.45416
274.44481
196.27694
117.6628
39.233919
353.44704
274.4332
196.28951
117.66647
39.246211
353.45889
274.41779
196.31501
117.68598
39.261916
353.44374
274.42763
196.31642
117.65841
39.250776
353.45858
274.46692
196.28211
117.67353
39.234436
)
;
    }
    maxX
    {
        type            calculated;
        value           nonuniform List<scalar> 
50
(
353.49636
274.41457
196.29117
117.64423
39.250475
353.488
274.37656
196.3279
117.66494
39.262371
353.48588
274.37875
196.3329
117.67967
39.276372
353.49627
274.38415
196.29306
117.64271
39.239534
353.49792
274.39287
196.3015
117.67512
39.244773
353.49336
274.39083
196.28566
117.66503
39.239358
353.49228
274.38661
196.28934
117.67
39.257583
353.488
274.38114
196.34999
117.68661
39.282857
353.49031
274.37518
196.29409
117.67486
39.273317
353.49061
274.41972
196.28896
117.61592
39.269789
)
;
    }
    minY
    {
        type            calculated;
        value           nonuniform List<scalar> 
292
(
392.4
392.4
392.4
392.4
392.4
392.4
392.4
392.4
392.4
392.4
392.4
392.4
392.4
392.4
392.4
392.4
392.4
392.4
392.4
392.4
392.4
392.4
392.4
392.4
392.4
392.4
392.4
392.4
392.4
392.4
392.4
392.4
392.4
392.4
392.4
392.4
392.4
392.4
392.4
392.4
392.4
392.4
392.4
392.4
392.4
392.4
392.4
392.4
392.4
392.4
392.4
392.4
392.4
392.4
392.4
392.4
392.4
392.4
392.4
392.4
392.4
392.4
392.4
392.4
392.4
392.4
392.4
392.4
392.4
392.4
392.4
392.4
392.4
392.4
392.4
392.4
392.4
392.4
392.4
392.4
392.4
392.4
392.4
392.4
392.4
392.4
392.4
392.4
392.4
392.4
392.4
392.4
392.4
392.4
392.4
392.4
392.4
392.4
392.4
392.4
392.4
392.4
392.4
392.4
392.4
392.4
392.4
392.4
392.4
392.4
392.4
392.4
392.4
392.4
392.4
392.4
392.4
392.4
392.4
392.4
392.4
392.4
392.4
392.4
392.4
392.4
392.4
392.4
392.4
392.4
392.4
392.4
392.4
392.4
392.4
392.4
392.4
392.4
392.4
392.4
392.4
392.4
392.4
392.4
392.4
392.4
392.4
392.4
392.4
392.4
392.4
392.4
392.4
392.4
392.4
392.4
392.4
392.4
392.4
392.4
392.4
392.4
392.4
392.4
392.4
392.4
392.4
392.4
392.4
392.4
392.4
392.4
392.4
392.4
392.4
392.4
392.4
392.4
392.4
392.4
392.4
392.4
392.4
392.4
392.4
392.4
392.4
392.4
392.4
392.4
392.4
392.4
392.4
392.4
392.4
392.4
392.4
392.4
392.4
392.4
392.4
392.4
392.4
392.4
392.4
392.4
392.4
392.4
392.4
392.4
392.4
392.4
392.4
392.4
392.4
392.4
392.4
392.4
392.4
392.4
392.4
392.4
392.4
392.4
392.4
392.4
392.4
392.4
392.4
392.4
392.4
392.4
392.4
392.4
392.4
392.4
392.4
392.4
392.4
392.4
392.4
392.4
392.4
392.4
392.4
392.4
392.4
392.4
392.4
392.4
392.4
392.4
392.4
392.4
392.4
392.4
392.4
392.4
392.4
392.4
392.4
392.4
392.4
392.4
392.4
392.4
392.4
392.4
392.4
392.4
392.4
392.4
392.4
392.4
392.4
392.4
392.4
392.4
392.4
392.4
392.4
392.4
392.4
392.4
392.4
392.4
392.4
392.4
392.4
392.4
392.4
392.4
)
;
    }
    minZ
    {
        type            calculated;
        value           nonuniform List<scalar> 
150
(
353.44714
274.42918
196.32289
117.6745
39.271213
353.44656
274.42987
196.286
117.64628
39.255591
353.4452
274.46302
196.27053
117.63039
39.257635
353.45128
274.4793
196.2658
117.66459
39.235451
353.45367
274.49246
196.25245
117.67041
39.240188
353.46777
274.52284
196.24025
117.6491
39.267366
353.47116
274.48842
196.23756
117.65481
39.253675
353.45102
274.42874
196.24867
117.64382
39.241327
353.45882
274.42095
196.27816
117.6978
39.234928
353.45926
274.42695
196.27709
117.68803
39.227118
353.45043
274.43511
196.27481
117.65216
39.219603
353.47217
274.45386
196.27019
117.68939
39.227759
353.46576
274.41468
196.32525
117.67238
39.236636
353.46729
274.41552
196.29527
117.6594
39.23086
353.47896
274.4461
196.26503
117.65034
39.274518
353.48019
274.43295
196.26866
117.63978
39.256662
353.4754
274.38978
196.2984
117.67718
39.255774
353.47463
274.40772
196.29601
117.68001
39.256666
353.45862
274.41027
196.26392
117.65251
39.255297
353.47137
274.44885
196.23944
117.64639
39.250153
353.48074
274.47647
196.27095
117.67727
39.23133
353.49556
274.46209
196.26572
117.69142
39.233189
353.49772
274.42659
196.26174
117.65116
39.23848
353.49904
274.37947
196.28427
117.67698
39.250457
353.49008
274.40094
196.30014
117.65774
39.249909
353.4931
274.41988
196.25378
117.65195
39.259871
353.49653
274.44476
196.2677
117.67211
39.236063
353.50386
274.46144
196.27462
117.67827
39.233961
353.5037
274.45107
196.26483
117.64817
39.233794
353.49636
274.41457
196.29117
117.64423
39.250475
)
;
    }
    maxZ
    {
        type            calculated;
        value           nonuniform List<scalar> 
150
(
353.45858
274.46692
196.28211
117.67353
39.234436
353.4666
274.47473
196.2389
117.65554
39.245908
353.45507
274.45411
196.27787
117.63007
39.264184
353.45793
274.41775
196.26303
117.68528
39.252854
353.4488
274.44166
196.30383
117.64485
39.274337
353.45967
274.43627
196.24662
117.66289
39.251915
353.45626
274.41598
196.29056
117.65792
39.253143
353.4602
274.41095
196.29588
117.68221
39.269937
353.45964
274.41063
196.29762
117.6851
39.268314
353.45752
274.42079
196.26753
117.63785
39.271259
353.46549
274.45809
196.24431
117.64722
39.261745
353.4724
274.48363
196.27007
117.66605
39.239655
353.47323
274.46759
196.27254
117.66766
39.246474
353.47356
274.43288
196.25644
117.62947
39.267508
353.47201
274.39861
196.29471
117.67094
39.265883
353.47443
274.41074
196.32333
117.64699
39.265222
353.46916
274.42984
196.26325
117.63908
39.257397
353.46331
274.41063
196.29983
117.64213
39.239514
353.46102
274.40412
196.31705
117.67932
39.232981
353.47562
274.41357
196.32558
117.67793
39.23416
353.45068
274.40561
196.30044
117.66398
39.230585
353.47657
274.4637
196.26107
117.65102
39.224828
353.48697
274.47148
196.275
117.63046
39.262174
353.47253
274.41684
196.29519
117.64161
39.238843
353.48504
274.45578
196.28403
117.6566
39.220032
353.46954
274.40303
196.33401
117.69938
39.240686
353.46693
274.41636
196.31484
117.66324
39.22913
353.48866
274.44938
196.27391
117.65732
39.227776
353.49683
274.45718
196.26664
117.62756
39.242937
353.49061
274.41972
196.28896
117.61592
39.269789
)
;
    }
    bottomWater_to_rightSolid
    {
        type            calculated;
        value           nonuniform List<scalar> 
130
(
0.016665569
0.015297449
0.010153284
-0.0086696076
-0.0068113923
-0.0015197251
0.010456769
0.0099088361
0.0198714
-0.0039372197
-0.0060393734
-0.0062062434
0.010475007
0.033949049
0.012354159
0.0074467441
-0.01214636
-0.0017322141
-0.0014005201
0.010957226
0.020707945
0.014311116
-0.004643983
0.017030475
0.033972752
0.022371129
0.017284189
0.023352194
0.026281134
0.012587128
0.018980228
0.040878395
0.024533754
0.0016184803
0.012849968
0.0076654193
0.025704588
0.052705113
0.036371655
-0.014120338
-0.0014562577
0.029972344
0.030507248
0.041907905
0.02923244
0.032392191
0.012374454
-0.013615368
-0.018142037
-0.014973179
-0.0014317164
-0.0004658151
0.0043007045
-0.026358967
0.010537875
0.019893371
0.023454231
0.040128628
0.014221623
-0.012122702
-0.006375447
-0.0073301921
-0.01418027
-0.0053685296
0.0047728217
-0.0048133736
-0.0071887236
0.01265272
0.032033273
0.015160795
0.0062290812
-0.038844406
-0.020897134
-0.012804509
-0.028271667
-0.01890763
-0.0045246721
-0.00064209954
0.016477224
0.02053876
0.03706363
0.022965802
0.01943107
0.014087552
-0.014271446
-0.017369592
-0.01337896
0.00079123925
0.016367818
0.016238857
0.017582969
0.015756935
0.019777433
0.016251618
0.025097871
0.0093992825
0.029013243
0.018174217
0.020466627
0.019435956
0.015983313
0.034603579
0.030295276
0.042856891
-0.015514169
0.0084930667
0.00095839873
0.0032466584
0.013902616
0.0070883126
0.020356188
0.0036404246
-0.0060984291
-0.0084213405
0.014303806
0.031186858
0.03331684
-0.00048571853
-0.00701947
-0.0058395019
-0.0094145016
-0.015172421
0.0221745
-0.0011565045
-0.019968148
0.00068582912
-0.010870403
-0.012224169
0.0029372195
0.029789369
)
;
    }
    bottomWater_to_leftSolid
    {
        type            calculated;
        value           nonuniform List<scalar> 
130
(
0.031213187
0.015591358
0.017635411
-0.0045492829
0.00018783526
0.027365912
0.013675079
0.0013269198
-0.0050717022
-0.012882014
-0.020396835
-0.012240797
-0.0033636527
-0.00021830832
0.0076477934
-0.003374962
-0.016625145
-0.011005248
0.014194584
0.003272176
0.0070379304
-0.003649228
-0.006347618
-0.01078247
-0.01760445
-0.01618193
0.052180902
0.030018783
-0.00049889175
-0.0087816884
0.004095953
0.010191772
0.02377376
0.023068078
0.013804718
0.014540559
0.020104445
0.0073480696
-0.0059546622
0.024301916
0.039866886
0.015803887
-0.0081146446
-0.0042559442
0.0035016224
0.018964366
0.041675896
0.022272659
0.026150693
0.025598896
-0.0018922997
-0.013558727
0.0076344643
0.011769136
-0.0028712422
-0.015145323
-0.0053364078
-0.0061038831
0.0048736672
0.024140577
0.005585629
0.0049520711
0.025312948
0.021649469
0.018990478
-0.0060806689
-0.0054809067
-0.023954598
-0.022852045
-0.0012997974
-0.013746326
-0.0094965217
0.0051987519
-0.004723429
0.014358822
0.019574613
0.011433072
0.0045823073
0.0062105925
0.0048668835
-0.0096238311
-0.0080183506
-0.010408611
-0.011451746
-0.017679356
-0.01950991
0.0043479152
0.01417919
0.020813655
0.027833584
0.010978033
0.021916344
0.01253901
0.0072692828
0.018349186
-0.0029569005
-0.01160245
-0.0097817788
-0.0069909559
-0.0052350654
0.0034592313
0.022008501
0.031423023
0.010869028
0.010776429
0.025581432
0.020818924
0.0087777498
0.019255362
0.0043712674
-0.0039411974
0.016365616
0.014311012
0.0066741585
0.00023140011
-0.00098897734
-0.0058935203
-0.0055639202
0.0059080364
0.024184206
0.012853762
0.034336668
0.011915398
0.013142763
0.029936943
0.028313531
0.031259433
0.021745312
-0.00034541257
0.0064743988
)
;
    }
    bottomWater_to_heater
    {
        type            calculated;
        value           nonuniform List<scalar> 
92
(
-0.0091401973
0.034517974
0.016661534
0.015773541
-0.01478964
0.012150194
0.022648693
0.018122244
-0.011189376
-0.010691852
0.0044265419
0.0038278183
353.44634
353.44632
353.45421
353.45571
274.43814
274.43531
274.41467
274.42385
196.29938
196.30233
196.30996
196.31961
117.63447
117.64393
117.66
117.67313
0.018756507
39.258757
0.019525735
39.259526
-0.0097017223
39.230298
-0.0040592112
39.235941
353.45424
353.47183
274.4285
274.42679
196.2893
196.31603
117.65873
117.6976
39.25899
39.244301
353.45211
353.45878
353.47735
353.47305
353.46722
353.48058
274.45702
274.41849
274.45521
274.46223
274.39916
274.4463
196.27605
196.25965
196.26127
196.28027
196.30922
196.26969
117.66761
117.63988
117.67374
117.6539
117.65388
117.63351
39.244582
39.25035
39.238242
39.234063
39.235187
39.236903
0.010350341
-0.0017575715
-0.0059367035
-0.003096689
0.0030137334
0.0019492008
-0.0083074252
-0.0061236816
0.015755152
0.015781385
0.0074199346
0.0067334337
0.027507661
0.025882557
0.025221738
0.017397485
)
;
    }
}


// ************************************************************************* //
