/*--------------------------------*- C++ -*----------------------------------*\
| =========                 |                                                 |
| \\      /  F ield         | OpenFOAM: The Open Source CFD Toolbox           |
|  \\    /   O peration     | Version:  v2012                                 |
|   \\  /    A nd           | Website:  www.openfoam.com                      |
|    \\/     M anipulation  |                                                 |
\*---------------------------------------------------------------------------*/
FoamFile
{
    version     2.0;
    format      ascii;
    class       surfaceScalarField;
    location    "730/bottomWater";
    object      phi;
}
// * * * * * * * * * * * * * * * * * * * * * * * * * * * * * * * * * * * * * //

dimensions      [1 0 -1 0 0 0 0];
oriented        oriented;


internalField   nonuniform List<scalar> 
3858
(
-0.00018246099
0.00012815019
5.8714372e-05
-0.00023923364
8.961642e-05
-2.8203916e-05
-0.00024541106
-3.473128e-05
4.5862606e-05
-0.00016482434
-0.00016055986
8.3679243e-05
-3.0151085e-05
-0.00022905379
9.7466454e-05
0.00018503389
-0.00035493835
0.00013993678
0.00034760293
-0.00027865895
0.00011571705
0.00020053005
5.1684564e-05
9.9184335e-05
-6.2138655e-05
0.00014572014
0.00011892321
-0.0002356676
0.00014808229
2.728373e-05
-0.00025648776
4.70255e-05
-2.2386735e-05
-3.539903e-05
-0.00026815088
4.6209396e-05
-6.0047487e-05
4.3226002e-05
-1.8406157e-05
-6.6570869e-05
9.023297e-05
-8.3755443e-05
0.00013151832
-0.00011499416
-8.559367e-05
0.00016416354
8.1675788e-06
-4.3620554e-05
4.4041329e-05
0.00013684533
-1.8479408e-05
-0.00016422313
0.00017831415
2.8405238e-05
-0.00034828371
0.00015483301
3.1380853e-05
-0.00027283184
-0.00015322037
7.728936e-05
-7.9083034e-05
-0.00026554524
6.9155586e-05
0.0001274419
-0.00030851815
9.608053e-05
0.00010470806
-0.00011247732
0.00012870865
-7.7958889e-05
0.00010234476
7.3429446e-05
-0.00027369155
0.00011964178
7.1304438e-05
-0.00026485235
-7.4673462e-05
6.0509281e-05
-0.00015803582
-0.00023738248
0.00012459664
3.7239114e-05
-0.00034310683
0.00014018331
0.00015886178
-0.0002571942
0.00012786907
5.3346885e-05
9.9182287e-05
-0.00034002889
0.00057240264
-0.00010422357
-0.00038454417
0.00029291912
-0.00015878742
-0.00019905933
-0.00019013956
-3.0076555e-05
-4.9403948e-05
-0.00040524284
9.5027592e-05
8.1959212e-05
-0.000484246
0.00012382905
0.00024569694
-0.00064899531
0.00013031922
0.00046294061
-0.00060500418
0.00010910156
0.00047473516
3.0260248e-05
9.6297705e-06
1.0098503e-06
0.00058880796
3.0637483e-05
-0.00035290909
0.00053109885
-2.9097624e-05
-0.00021986491
-4.1756651e-05
-4.4262031e-05
0.00012541432
-0.00061856963
5.1395134e-06
4.0799051e-05
0.00024644648
-0.00011860521
1.0821514e-05
0.00035143464
-0.00023122414
0.00037132594
-0.00033790149
-0.0001375971
0.00055453885
-0.00011304178
-6.2003558e-05
0.00018816382
0.00055254386
-4.9323509e-05
-0.00024365906
0.00054497949
6.515754e-05
-0.00031272325
0.00013065081
9.3246382e-05
-0.00012045804
-0.00045054217
0.00010505658
9.7639083e-05
-0.00055598607
7.2343704e-05
0.00034156094
-0.00066880937
0.00011636937
0.00039455528
-0.0003095888
0.00014411714
-9.8886038e-05
0.00051132892
8.4457165e-05
-0.00035350017
0.00028197818
9.2277741e-05
-0.00025605133
-0.00029750888
0.00012538659
-0.00011918756
-0.00056269703
0.00018845079
6.3237097e-05
-0.0007039494
0.00017841792
0.00027737305
-0.00058482495
0.0001134948
0.00015326711
0.00017745282
2.80491e-05
0.00056871367
-2.4360122e-05
0.00014790499
0.00019869071
-2.5627477e-05
0.00013690606
-6.5110157e-05
-0.00011403047
0.00018928815
-0.0003100707
-0.00014755423
0.00023256714
-0.00028557026
-0.00024195472
-1.2221679e-05
-8.9704033e-05
-0.00031450246
-0.00026959882
-8.0407469e-05
-0.00026721957
-0.0001150973
-2.1068153e-05
-0.00010317313
-8.6080698e-05
0.00050752551
5.2265847e-05
-2.7247463e-05
0.00035755796
0.00011470766
5.8028119e-05
-0.00032652264
0.0001994904
-0.00012118097
-0.00049289349
5.3532953e-05
0.00015169636
-8.6331005e-05
5.990014e-05
0.00035709839
0.00016200982
-1.5977218e-05
0.00012314214
-7.2461841e-05
-3.1483413e-05
8.5867354e-05
-0.00010161948
2.585247e-05
0.00026178191
0.00039727699
-2.06477e-05
0.00033578035
0.00045377528
1.7205771e-05
0.00036982326
7.2385339e-05
2.4222565e-05
0.00010273027
-9.8292541e-05
-8.5156641e-05
2.5115437e-05
-0.0004182601
-6.0111132e-05
-7.696716e-05
-0.00055617335
-1.0553415e-05
-0.00010908957
-0.00019792506
-7.9541325e-05
-5.3740798e-05
0.00038436275
7.1617413e-05
6.1051631e-05
0.00017792956
-1.0743799e-05
5.5325895e-05
-0.00010244105
-0.00018934208
-1.1106448e-05
-0.00037117866
-0.00012508602
-3.1270217e-05
-0.00053145338
-0.00015233224
-0.00012684752
-0.00029797533
-0.00019127231
5.856149e-05
-3.2141897e-05
0.00023699963
0.00027008016
6.1633882e-05
0.00027936416
8.5624706e-05
7.070148e-05
4.2394056e-05
0.00016944937
2.4105762e-06
-2.4240664e-05
-0.00026397946
2.0543481e-05
-4.1675025e-05
-0.00024203024
-2.610566e-05
-0.0002359848
0.00022139721
-0.00011679147
-0.00034573407
0.00014595415
-0.00011661234
-0.00030195861
1.5724224e-05
-8.056785e-05
3.114477e-05
3.3623213e-05
0.00014079892
0.00025154353
-7.6408609e-05
0.0002135678
0.00015309352
-0.00032727056
9.9197932e-05
0.00012514958
-0.0004944949
2.9545341e-05
0.00023543789
-0.00018090206
-1.5717275e-05
0.00031000712
0.00012882569
-4.138512e-05
2.017656e-05
0.00028468822
-6.7319524e-05
-0.00016268682
7.6957097e-05
4.2867874e-06
0.00013715754
0.00011239498
-1.4962351e-05
0.0003942181
0.00016412629
3.2588428e-05
0.00028549459
0.00015820955
2.2899285e-05
7.1056156e-05
8.3419777e-05
3.2726125e-05
6.7904172e-05
-0.00038438988
-3.0718224e-05
3.0895253e-05
-0.0005166704
-2.4940117e-06
-4.8811569e-05
-0.00014201956
2.3801341e-05
8.6277251e-05
0.00017694321
7.2330738e-05
0.0001071958
0.00015612867
8.823591e-07
2.5893269e-05
0.00017032832
-0.00019146682
2.4376264e-06
-0.0002943091
-5.3413898e-05
-6.6589893e-06
-0.0005032043
-1.9152459e-05
-7.4070934e-05
-0.00024554544
1.4982057e-05
6.063288e-05
-7.6142323e-05
0.00027793282
-7.8526563e-06
0.00033578117
2.7776364e-05
0.00043423326
7.0997281e-05
7.3346298e-05
9.6907501e-05
-0.00024545007
7.6766129e-05
-1.3567657e-05
-1.0485204e-05
0.00017507439
-4.2687901e-05
0.00027761413
-8.6815524e-05
0.0003825698
-7.133246e-05
0.00041876861
-0.00011260741
0.00025332936
-0.00016183132
-9.9409919e-05
-0.00014175563
-0.00028537606
5.0640691e-06
-0.0002105672
5.4016811e-05
-5.5558343e-06
7.9676845e-05
4.3134684e-05
2.8266565e-05
0.00012022224
3.5307413e-05
0.00026900899
1.5339535e-05
0.00039406783
3.3150714e-05
0.00048113101
-3.6434042e-06
0.00018642266
-8.9681528e-05
-0.00016845679
-0.00016179094
-0.00021919965
-9.1276694e-05
-4.5518929e-05
3.2625058e-06
9.4413532e-05
1.619622e-05
0.00027366543
-8.9235643e-06
6.3988065e-05
-8.4631733e-05
-0.00021281672
-0.00022639951
-0.00022814228
-0.00023021987
-0.0001675094
-7.3475071e-05
0.00010771374
2.9379267e-05
9.2206537e-05
-0.00013799373
-5.255052e-05
0.00017829806
-2.494818e-05
-9.3794682e-06
0.00011958964
0.00010852114
4.1363184e-05
2.7062196e-05
0.00010795747
9.0411285e-05
-2.6423718e-05
2.82483e-05
0.00017305023
-0.00014252889
0.00011198895
0.00012716065
-0.00029422491
0.00017848526
7.9089089e-05
-0.00039194359
0.00015247395
6.9980276e-05
-0.00038198204
-9.087918e-06
3.0866431e-05
-0.00016866544
-0.00025612014
2.069357e-05
-0.00011850737
-0.00010887407
0.00010690356
-0.00012904907
-8.6006942e-05
7.8489284e-05
-3.812309e-05
-0.0001298788
-4.4395933e-05
0.00017809664
-0.00029925324
-5.0269121e-06
0.00015555159
-7.6158686e-05
5.338708e-05
-3.5782187e-05
0.00011057096
6.0335853e-05
-0.00020937022
0.00014831209
5.1431514e-05
-0.00033899253
0.00019481319
-3.3589929e-05
-0.00034624325
0.00011049447
-2.5688348e-05
-8.0944157e-05
-0.00023390027
3.2913702e-05
0.0001463205
-0.00020830462
6.9766735e-05
0.00012146212
6.090465e-05
8.7236056e-05
4.449536e-05
0.00016858157
-2.4511703e-05
-3.7603084e-05
0.00014553621
2.2998517e-06
-8.4150362e-05
0.0001507735
-4.8731568e-05
-0.00011092592
0.00011048972
3.7134854e-05
-3.8102029e-05
5.2313939e-05
1.0968297e-05
1.3615722e-05
8.0350982e-05
-8.2765562e-06
0.00016447395
-5.6181932e-05
-0.00022441018
0.00032203079
-9.413044e-05
-3.8267134e-06
-0.00041338018
-0.00010398443
0.00015600352
-0.00019520367
-1.9651297e-05
0.00021377071
1.2675223e-05
0.00013310632
0.00019809667
-6.8796293e-06
0.0002543402
0.00017996299
-0.00012128729
0.0002979885
4.1813444e-05
7.3008601e-05
0.00028623145
-0.00030149028
0.00054403932
-1.2620565e-05
-0.00051982631
0.00042399631
-2.2548846e-05
-0.00041494067
-0.00010800112
-3.507006e-05
-0.00011925734
-0.00059841437
2.3488652e-06
-1.3676597e-05
-0.00028852672
7.9211423e-05
-1.4185061e-05
-0.00027837717
7.4273471e-05
5.4266736e-05
-0.00031549938
-0.00011405537
0.00034561149
-0.00062588486
-0.00010231025
0.00050609431
-0.00025099334
-4.7651733e-05
0.00014961856
0.00050795775
-9.0234551e-05
-0.00029000313
0.00068501127
-3.1919943e-05
-0.00046421983
0.00053589506
-7.3618788e-05
-0.00022509134
3.2065551e-06
-2.6783999e-05
7.5174988e-05
-0.00055231692
9.0494032e-05
0.00034601248
-0.00055504021
0.00019226748
0.00048248522
-2.0664184e-05
8.9213242e-05
0.00021485458
0.00051275862
7.9107672e-06
-0.00011109536
0.00061445141
-5.068752e-05
-0.00028028405
0.00044319589
2.1528855e-06
-0.00019741772
0.00013050742
8.5566765e-05
2.0713565e-05
-5.4342797e-05
6.6943377e-05
0.0002596102
-4.1052865e-05
-3.9979845e-06
0.00058816184
1.3375134e-05
0.00012958489
0.00023567766
-6.7591883e-05
-0.0001250521
-7.3424036e-05
-0.00011094662
-0.00020577942
-0.00012091689
-0.00010758992
0.00012439175
-0.00041789807
-4.7152105e-05
0.00032038439
-0.00038081468
-6.4012317e-05
8.6820806e-05
-9.6695458e-05
-0.00010553072
-8.5443626e-05
1.6636488e-05
-3.8583023e-05
-9.8209988e-05
0.0004915292
-3.7896644e-05
6.8910864e-05
0.0003310479
-2.1906599e-05
0.00012096122
-8.3336624e-05
3.7992812e-05
-0.00020264759
-0.00010433007
2.9014908e-05
-0.00016025968
-0.00028672403
9.3423511e-06
0.00011960159
-0.00048524138
-1.3096935e-05
0.00013746054
-0.00029436536
-5.4970205e-05
-0.0002400225
-9.875593e-05
-0.00018112931
-0.00018961003
-6.8464604e-05
-0.00020708876
-1.1874034e-05
0.00044111529
-0.00013154124
-2.2607796e-05
0.00071243414
5.1665586e-07
3.2555463e-05
0.00043480576
7.0148611e-05
7.8115273e-05
-0.00018352794
5.601804e-05
-8.4996641e-05
-0.00045551618
6.2000471e-06
-0.00035065697
-0.00030323439
3.3010964e-06
-0.00012477352
-0.0002067254
-0.00011936355
-3.16095e-05
0.00036507412
0.00012613791
-5.435417e-05
0.00056207621
6.4376091e-05
-9.3948503e-06
0.00031385962
-0.00010496511
0.0002019026
-0.00013173056
-7.4145489e-05
0.0001382376
-0.00015398567
1.0975633e-05
-1.5268376e-06
-0.0001308069
3.8246161e-05
0.00055320291
1.2901932e-06
0.00027436865
-1.7314903e-05
4.0257808e-05
0.00011807254
0.00010219589
5.1377661e-05
3.1827172e-05
-5.83427e-05
2.6081758e-05
0.00012374592
-0.00047436111
-1.4912225e-05
0.0001090061
-0.00037324566
-1.8934854e-05
-0.00018478139
0.00017476539
-9.4464839e-05
-0.0003127612
6.7896716e-05
-3.989276e-05
-5.6779211e-06
0.00011295634
-9.0782686e-06
0.00028734724
6.5139056e-05
0.00011368261
0.00022358516
2.6653305e-05
0.00016733995
6.2422531e-05
3.6840991e-05
0.00011918949
-3.2787988e-06
-0.00027825401
8.6776644e-05
7.6234024e-06
-0.00049286028
-1.9000589e-05
-1.964223e-05
-0.00024125792
-6.7226953e-05
-0.00025327619
0.0001512523
-8.3693822e-05
-0.00038089567
0.00019055218
-0.00012711053
-9.9470098e-05
0.00023684915
-9.21218e-05
0.00013797782
0.00044787677
5.9697872e-05
0.00024867045
0.00020891061
0.00013810181
7.7615525e-05
-7.8844808e-05
9.9097919e-05
-2.4755557e-05
-0.00046844025
8.4576936e-05
-0.00013924909
-0.00019921828
7.9834271e-06
-0.0002124858
-0.00014119367
3.150634e-05
-2.6282202e-05
3.4369238e-05
0.00021683204
7.88347e-05
0.00031786215
0.00013997953
0.00024850628
6.1466089e-05
-0.00010874486
0.00042181581
-0.00025525361
-0.00010320037
0.00016140708
9.385965e-05
-6.5890309e-06
-0.00027343154
0.00033621226
-1.7198476e-05
0.00022986923
-2.6240179e-05
0.00012547212
-0.00015063967
0.00036068818
-0.0001052438
0.00044528872
-7.1945958e-05
0.00012458691
-5.6751803e-05
-0.00016221999
-9.6726273e-06
-1.8497119e-05
2.0557312e-05
6.4289921e-05
-5.7578227e-05
0.00019698711
-0.00010655637
0.00029553576
-0.00010474205
0.00034498587
-0.00013540422
0.00038509599
-0.00016510045
0.0001146396
-0.00014955326
-0.00031083867
-6.2317954e-05
-0.00047835936
-1.9720431e-05
-0.00035892092
0.00011149068
-0.00023749836
9.7396176e-05
-6.3941606e-05
9.8599804e-05
0.00023632788
0.00016294682
0.00036806769
0.00011032152
0.00033913815
-5.3558675e-05
3.7782008e-06
-0.00022276182
-0.00014972659
-0.00020750443
-0.00020140414
-0.00018079279
-0.00011715075
-4.6621635e-05
0.00017228246
4.4625164e-05
0.00014693114
7.7893855e-05
-0.0001990997
6.1455109e-06
-0.00028225713
-4.9382425e-05
-0.00012032626
-5.5938482e-05
-5.7966435e-05
-1.09893e-05
9.512044e-05
-5.0123238e-05
0.00010602136
-9.1892514e-05
-7.4129753e-05
8.8674952e-05
0.00013188038
-0.00011809685
3.2339927e-05
0.00014381989
-4.0816659e-05
-2.3287819e-05
0.00013061421
1.9849566e-05
-0.00014658968
0.00014607868
0.00015519824
-0.00024734173
0.00015204739
7.9963392e-05
-0.00033068903
0.00016747021
-1.0047233e-06
-0.00039386316
0.00013756321
1.3781178e-07
-0.00029674596
-0.00011300006
4.9333862e-05
1.9443686e-05
-0.00038637071
9.0139338e-05
4.2352798e-05
-7.3918613e-05
0.00015973324
-0.0001463224
0.00015792145
0.00011341041
4.5241474e-06
-0.00029605082
0.00010124754
0.00014041707
-0.00025621765
0.00011503298
1.6852324e-05
5.5800448e-05
0.00012117733
-0.00012632889
0.00012927279
7.3524932e-05
-0.00021923043
0.00016050507
-1.6000417e-05
-0.00028011735
0.00011869657
-9.0061225e-05
-0.00025669391
5.6685016e-05
-0.00010561159
-0.00022817975
0.00012717975
-0.0001239231
-0.00017777846
0.00011677677
-0.000101299
-0.00012681818
7.8880386e-05
-4.5588044e-05
0.00010631089
-0.00023624224
-2.8931243e-05
0.00011487902
0.00010876329
-0.00011848
8.0770713e-05
0.00012093015
-0.00014150984
7.0115174e-05
0.00015020686
-0.00010724511
8.0563262e-05
0.00013442513
-0.00013794497
6.4944513e-05
0.00013762221
-0.00013392419
0.00016598104
-0.00016116344
-0.00012293483
0.00016487373
-4.0948899e-05
0.00014243746
-0.00034071544
-0.0001205338
0.00026394178
0.000145353
-0.00015462823
0.00023899435
0.00039395535
-9.2081721e-05
0.00020093055
0.00038730622
3.5711988e-05
7.7047784e-05
0.00042737884
0.0001405711
-9.6047431e-05
0.00057716797
3.420608e-05
-0.00031113292
0.00059259851
-0.00022266338
-0.00038832094
0.00030880217
-0.00011659978
-0.00024191025
-0.00033887089
4.4390081e-05
-5.011031e-06
-0.00076715719
0.00014623612
1.8936247e-05
-0.00025197003
0.00023331556
3.5791032e-06
6.3584588e-05
0.00018396748
0.00014974583
-0.00064631571
9.0042784e-05
0.00038225527
-0.00062978237
3.8745032e-05
0.00039001168
-4.3896918e-06
4.7819839e-06
4.8408599e-05
0.0005465333
-0.00016589198
-0.00020667346
0.00055217071
-0.00016850353
-6.6748271e-05
5.2109027e-05
-0.00014695643
0.00015436585
-9.330246e-05
-9.7910639e-05
5.2673506e-05
0.00028971693
2.9649187e-05
-0.0003029255
0.00058950886
7.5134404e-05
-0.00020206641
4.9361357e-05
1.7873192e-05
0.00020694227
-0.00060390021
-3.3439932e-05
0.00027819188
0.00020931379
-0.00022248763
2.0245727e-05
0.00065762258
-0.00027659338
-0.00013536803
0.00061526819
-0.0002238808
8.2224465e-05
9.4149378e-05
-0.00011037337
0.00030557958
-1.3547885e-05
-7.6183009e-05
0.00056310686
-7.8171107e-05
0.00010554363
3.11692e-05
-3.9430985e-05
-0.00018950486
-7.8233619e-05
-7.8379945e-05
-0.00015302489
9.3566483e-06
-8.0735421e-06
0.00010250909
0.00011243637
-2.1167109e-05
0.00024402212
0.00018861076
-6.8298915e-06
0.00017237824
0.00031691793
7.6574067e-05
7.8028603e-05
0.00050176054
0.00013117405
7.7275335e-06
0.00054388051
8.1122422e-05
0.00017746237
0.00019296166
-7.5800918e-05
0.00014317298
-0.00011115569
-0.000155433
-0.00024332808
-0.00012727149
-0.00022436973
-0.00027370045
-0.00011196898
-0.00010028634
6.2631786e-05
-0.00026190196
-2.3942635e-05
2.8285121e-05
-0.00048778581
-0.00017915345
-0.0001988659
-0.00035169628
-0.0002320644
-0.00014163075
-3.9474049e-05
-0.00022923957
-2.6023878e-05
0.00043665056
-0.00013726537
9.8919724e-05
0.00047549204
-4.7748281e-05
0.00015713137
-2.9883458e-05
9.3929449e-05
4.0823427e-05
-0.00015344843
0.00023247195
-1.4721689e-05
0.0001041407
0.00024732141
6.8787287e-05
0.00047704955
3.2251435e-05
0.00013285302
-4.0425556e-05
-9.3642359e-05
-0.00027779406
-9.4074697e-05
2.6959479e-05
-0.00015758833
0.00010146934
5.2014832e-05
6.1660588e-05
0.00040329318
-6.9884622e-05
0.00011343032
0.00046411977
2.5233203e-05
9.0987848e-05
-4.6681385e-05
0.00017424887
-2.6941796e-05
-0.00013757899
0.00028020691
0.00051439148
2.3063779e-05
-0.00020916882
0.00035079549
-7.019966e-05
-0.00043662358
0.0002361596
-3.5560798e-05
-0.00041062925
2.4589633e-05
-1.5145555e-05
-7.6114514e-05
-0.00025222975
1.5239165e-05
0.00019470425
-0.00012245493
2.1312078e-05
0.00018819602
0.00016836079
6.0600539e-05
0.00017087102
0.00031299233
0.00016620045
0.00024186989
0.00030255388
0.00016124949
0.00034530768
0.00015471845
4.8488028e-05
0.00026931832
0.00013279458
-6.2095526e-07
0.00014343493
0.00017942017
-6.1618788e-05
5.0744541e-05
0.00012139673
-5.3898695e-05
9.7045438e-05
-0.00024658225
-8.0621208e-05
3.9407655e-05
-0.00049057647
-6.7985308e-06
-0.00010605765
-0.00031810319
2.8178372e-05
-0.00027385434
0.00012876123
-0.00012754913
-6.4598902e-05
0.00015457483
-1.9301528e-05
0.0002157478
0.00019354441
6.1298791e-05
0.00011524123
0.0001207159
8.8009007e-05
-0.00011429332
1.871892e-05
0.00015646513
-0.00010739672
-2.6974297e-05
0.00020879533
0.00014771903
0.00021218843
1.7728803e-05
-9.0762329e-05
0.00030474278
-7.5180619e-05
-0.0003242899
0.00014445577
0.00021182917
-0.00019028174
-3.359053e-05
0.00014103125
0.00021356201
-0.00021098315
0.00010168773
0.00052195363
-1.3741588e-05
6.6269384e-05
0.0002383423
0.00026064973
-3.0308807e-05
-0.00018216151
0.00028611737
-2.0391023e-05
0.00026754088
3.8448919e-05
0.00018424239
1.5913431e-05
0.00035052762
-3.5369424e-05
0.00037955046
-7.6379163e-05
0.0001089189
-3.8349992e-05
-7.5223088e-05
5.2014423e-05
-2.4775711e-05
0.00013847072
0.00011238663
0.00011825176
0.00025127159
5.7112545e-05
0.0002704224
3.082559e-05
0.0002637846
4.0281523e-06
0.00035556684
-7.7462524e-05
0.00040006666
-7.2656359e-05
0.00021014157
-0.00011897513
-0.00016227162
-0.00013788373
-0.00036416539
-4.718747e-06
-0.00024847674
0.00011046874
-0.0001445404
0.00014923829
-1.8557923e-05
0.00023050875
3.339191e-05
0.00017908758
3.7939136e-07
-1.8272324e-06
-0.00012925785
-0.00012009888
-2.8572857e-05
-9.6000976e-05
0.00020487465
-0.0001094975
0.00030338556
-6.7676747e-07
0.00028286915
3.1551055e-05
2.1043904e-05
0.00012873595
-0.00016418427
0.00017763211
-0.00015145997
0.00019854301
-9.0490989e-05
0.00016920991
0.00011908345
-3.5847167e-06
0.00014175151
-0.00018199766
-5.471758e-06
0.00012686283
-0.00019165343
3.3801898e-05
4.7148857e-05
-0.00019796197
-1.795962e-05
0.00017312206
-0.00015414425
-3.5913426e-05
0.0001400423
-9.514116e-05
-6.0384644e-05
0.00016226588
2.5507882e-05
-0.00011169731
0.00015030752
-1.0137308e-05
-0.00013164071
0.0001077477
-7.9761706e-05
-0.00016904782
0.00014933741
-0.00010370304
-0.0001968992
0.00013903223
-5.4488843e-05
-0.00010176829
2.1244256e-05
-2.0275026e-05
-6.7272639e-05
0.00011947559
1.0867959e-05
-0.0001156765
0.000139688
2.6794658e-05
-9.3578541e-05
8.3726829e-05
-0.00011627883
0.00014237064
-0.00015536919
0.00016326348
-0.00022948883
0.00015035638
-0.00033066531
0.00018753767
-9.6984238e-05
-0.00019257987
-0.00021144077
-1.5934147e-05
1.8847422e-05
-0.00036233202
3.9044252e-05
1.9423259e-05
-7.9262428e-05
-5.2765841e-05
-8.2668666e-05
4.1407803e-05
-5.0441609e-05
-9.3158888e-05
2.6563381e-05
-6.7362353e-05
0.00010122304
-0.00023322503
-1.7601741e-07
0.00012993352
6.6460986e-06
-0.00015877028
3.9098883e-05
9.8710336e-05
-0.00015460277
-5.7285417e-05
0.00010815808
-0.00012207267
5.7183439e-05
-0.00016939979
-8.8794098e-05
0.00015968192
-0.00021303494
-3.0638554e-05
6.2329549e-05
-7.0006596e-05
-0.00011190135
0.00026759815
-5.4894188e-05
-6.808276e-05
6.6248836e-05
-0.00010373839
0.00010750092
-0.00012524619
-0.00015781686
0.00012189622
0.00028113652
-0.00021449148
1.8191541e-05
0.00042377673
-0.00014431776
-4.0695513e-05
0.0003937717
-3.2047665e-05
-3.7113741e-05
0.00024320251
-6.2270689e-05
-1.298348e-05
-7.6773927e-07
-0.0001382782
-0.00011679396
0.00020656664
-7.0018541e-05
-9.648512e-05
4.0211588e-05
0.00012290189
-4.2226447e-05
-0.00010892473
0.00022214644
-9.2690998e-05
0.00017126978
0.00023198593
-0.00014950686
0.00026893382
0.00011153752
5.3281597e-05
-2.9018854e-05
0.00018199439
5.2402864e-05
4.145271e-06
0.00034589458
-0.00017243793
0.00016104759
-4.8920119e-05
-1.876174e-05
-8.572194e-05
0.00017597011
-0.00058677736
3.4899242e-06
0.00043222672
-0.00074866304
3.2163768e-05
0.00058921487
-0.00016042227
-4.617912e-05
4.3548441e-06
0.00081013674
-0.00010873451
-0.00032388801
0.00048511888
-0.00011243945
9.4464743e-05
-0.00061385201
-7.1165698e-05
0.0001935132
-9.5353158e-05
-0.00021953682
-7.8556722e-05
0.00035406712
-0.00025988024
-7.3312649e-05
6.1167849e-05
-0.00018213464
0.00017802216
-0.00048132849
-4.9779477e-05
0.00039086829
-0.00057686775
7.4803676e-05
0.00037056478
4.4619455e-06
7.6040382e-05
0.00015319213
-1.0653427e-06
-7.6003509e-05
1.6662341e-06
0.00013824655
-0.00022001054
-5.4547488e-05
6.5234785e-05
-0.00014951911
0.00022146678
-3.1988791e-05
6.1741241e-05
0.00028870381
-8.3017323e-05
0.00017854396
0.00031771008
3.5832972e-05
0.00023815672
0.0001756802
0.00013908359
0.00010974463
-4.9215684e-05
0.00025798247
5.7374068e-05
0.00010087394
8.2262346e-05
-3.7305612e-05
-4.0337463e-05
1.9795734e-05
-0.00024563695
-5.3441879e-05
-7.1521247e-05
-0.00016140379
-4.249537e-05
2.9245639e-05
5.70397e-05
-9.0107365e-05
0.00011665505
-2.0203662e-05
-0.00013092896
-0.00012862894
-7.1236274e-05
-1.8246091e-05
6.2721524e-06
0.00026098754
-0.00025545141
0.00056525335
-0.00031149682
-5.9279023e-05
0.0003127559
-0.00020060143
-3.9749043e-05
-0.00011943754
-0.00011930853
3.5310881e-05
-9.5984373e-05
-3.7620656e-05
0.00010106663
-5.3317507e-06
0.00077649764
-2.4762079e-05
1.4139731e-05
0.00041856814
-4.656309e-05
-0.00019842681
-0.00015400185
-0.00022032414
-0.00012961976
-9.9641304e-05
-1.2504055e-05
0.00016663026
-2.5100956e-05
1.3033439e-05
0.00038732036
-0.00028774836
0.00015345931
0.00023410811
-0.00023585665
8.1989279e-05
-3.227036e-05
-0.00015129613
0.00012101377
0.00030472376
5.6634451e-05
1.7474405e-05
0.00017043801
-0.00010491995
-0.00020552774
0.00025258263
-6.3475046e-05
-0.0004196106
0.00025688919
-0.00011249936
-0.00024190671
2.618417e-05
3.2817889e-05
0.00015901741
-0.0001148606
2.3952366e-05
0.00036790012
0.00011062267
5.880524e-05
0.0003661079
0.00025822264
8.5450227e-05
0.00011158089
0.00030430002
6.2260784e-05
0.00011749948
0.00013146633
1.1977052e-05
6.5419747e-05
7.5226455e-05
-6.4105144e-05
-7.6303813e-05
0.00019207809
-0.0001654152
4.0087552e-05
-0.00011349804
-9.9287405e-05
0.00027043308
-0.00034209702
-5.8977104e-05
-3.1545644e-05
0.00016425121
-0.00025864381
0.00018404025
-0.00010902065
-0.00027090015
7.0967887e-06
-0.00039087039
6.0500995e-05
-0.00030663372
3.0314834e-06
3.0343403e-05
-9.3329129e-05
1.0894285e-05
-0.00019817872
0.00021913241
4.6546317e-05
-0.00032468138
0.00028389413
1.3783216e-05
-7.0653801e-06
0.00043950334
3.7107114e-05
0.00016812785
0.00024011763
-7.1923318e-05
-1.145237e-05
0.00022600101
1.1406547e-05
-9.9166126e-05
0.00020161888
-7.2515171e-05
0.00012965245
-0.00024701096
9.4779177e-05
0.00019858726
-0.00038515374
9.4739958e-05
7.1548481e-05
-0.0001275333
-1.1593362e-05
-0.00018286774
0.0001118606
-2.9131527e-05
0.00014605534
1.4249601e-05
4.2682769e-05
0.00014366868
0.00014681789
0.00011307809
0.00023109353
9.6234379e-05
9.8864149e-05
0.00012006356
-0.00010340212
0.00013942009
-8.4528688e-05
0.00023021996
7.1829082e-05
0.00022011663
0.00024220539
0.00019103627
0.00021044759
0.00019404972
0.00019642681
9.3275392e-05
0.00035437003
-4.3327669e-05
0.00024550629
-7.7290667e-05
-6.6624097e-05
-0.00014894177
-4.0256631e-05
0.00013906486
-2.1366565e-05
-0.00026299867
-0.0004279399
8.8816247e-05
-0.00046963286
0.00012745142
-0.00034390476
9.1577072e-05
-0.00023242656
5.2317056e-05
4.0087928e-05
7.0987881e-05
0.00020754309
-3.6835031e-05
0.00033470178
9.8165558e-05
0.00042522405
0.00014264769
0.00018883443
0.00011811462
-0.0001713224
0.0001526352
-0.00028227537
0.00018196268
-0.00016006658
0.00015886172
0.00010507222
-0.00013199069
7.7815888e-05
-0.00012388454
-7.4025958e-05
-0.00012774576
-0.00011820136
6.1717717e-05
-0.00021216681
-0.00011792527
-4.0828444e-05
0.00014209988
-0.00018559916
-0.00014585406
0.00013096714
-0.00011623959
-0.00020535403
0.00017183351
-8.0212537e-05
-0.00011523775
-5.5456898e-05
-3.898006e-05
0.00011968905
-0.0003042108
-8.1077825e-06
0.00020302619
-0.00015929898
-2.5997997e-05
0.00012016574
9.0072516e-05
-5.9288058e-05
4.4242761e-05
0.00015589227
-9.8642464e-05
-1.1794558e-05
0.00016192933
-9.3411113e-05
5.2442169e-05
-3.477825e-05
-0.00018704491
0.00012991002
-4.0741669e-05
-0.0001167842
-0.00016758888
7.9608641e-05
7.8594619e-05
-0.00031731669
0.00015591507
0.00013498145
-0.00024100185
0.00012603909
1.668779e-05
4.3854888e-07
6.0359477e-05
-0.00015757511
0.00010784128
-7.0344225e-06
-0.00021884712
5.0317985e-05
5.5877977e-06
-0.00011531853
-0.00022089991
-4.7829352e-05
-4.3230006e-05
-0.00022683673
-6.6513078e-06
6.7588929e-05
-0.00032643217
8.6445094e-05
0.00021137676
-0.00027622083
3.6580008e-05
0.00021202835
-0.00010714392
6.9213739e-05
8.0467351e-05
5.4970264e-05
-0.00036014822
0.00044920645
-6.6136525e-05
-0.00019835775
-0.00037124049
-2.2034135e-05
6.1292881e-05
-0.00054572142
-8.3912885e-05
0.00011270765
6.729537e-05
-0.00019110175
-0.0001677094
0.00042315353
-0.00015608711
-0.00011358217
0.00018225901
-9.6600387e-05
8.0631506e-05
-0.00027996706
-3.1974205e-05
0.00026328436
-0.00064919043
2.404857e-05
0.00039015399
-0.00041031112
5.4123971e-05
0.00040021446
0.00012133638
8.1577561e-05
5.1977937e-05
0.00063277384
9.3501387e-05
-0.0002362181
0.0006200915
6.2019784e-05
-0.00010973999
3.7501572e-05
-7.5533096e-05
4.0879159e-05
7.8842015e-05
8.8131909e-05
-0.00049801042
0.00017024645
0.00025421469
-0.00064663527
0.00019539956
0.00047148152
-0.00056524308
6.0795278e-05
0.00014509559
0.00034682698
-0.00012873701
-0.00038867886
0.00084855331
-0.00031937703
-0.00035125547
9.9790265e-05
-0.00015806136
-0.00010410054
-0.00054357879
-0.00014401287
-2.0074679e-05
-0.00051780837
-5.2934465e-05
8.0153437e-05
-0.00068179419
7.2999267e-05
0.00027661556
-0.00057669738
5.4234946e-05
0.00044182358
-0.00028447231
8.6924049e-05
0.00045881955
6.7933332e-05
6.1992416e-05
0.00039630597
-1.015728e-05
-0.00016525995
-7.5746559e-05
7.0004985e-05
-0.00048262452
-0.00012991599
-3.3206072e-05
-0.00025469085
-0.00016519278
-2.7434309e-05
0.000152689
1.6160909e-05
-8.3404553e-05
0.00045028299
-3.0239472e-05
-4.9262536e-05
0.00040293353
-8.7808407e-05
-5.7255989e-06
5.1262343e-05
-0.00010970484
7.0168065e-05
-0.00015849452
-0.00027126465
0.00015297274
-3.3877798e-06
-0.00020174586
0.00018777122
-6.6089986e-05
0.0005497783
7.4176491e-05
-1.4530858e-05
0.00053531523
6.2462768e-05
-0.0001076129
9.9997097e-05
0.00041678111
-0.00049847596
6.3294978e-05
0.00034980108
-0.00045437598
-1.6403456e-05
6.89637e-06
-0.00010326067
-0.00016515902
-0.00016250662
-0.00011124635
-0.00018352711
-0.00012026168
0.00026741825
1.2401724e-05
-2.9914068e-05
0.00079207349
-8.0430867e-05
0.00013134623
-6.2289391e-05
-0.00021950477
7.0390769e-05
-0.00035544611
-0.00013968127
5.994613e-05
-0.0004753665
-1.8963783e-05
4.0302875e-05
-0.00058717621
7.8484592e-05
-8.2427744e-05
-0.00045443286
8.2455385e-05
-7.6263606e-05
-0.00020917507
3.9552401e-05
0.00035269163
8.6498772e-05
0.00022562648
9.8444359e-05
-3.2684813e-05
2.1399434e-05
0.00016769188
-0.00010268644
-0.00014639555
4.9815803e-05
-0.00012443617
-1.3689596e-05
-0.00022426205
-4.0818791e-05
0.00028910122
-0.00031610432
5.3426772e-05
0.00037930406
-8.7496136e-05
2.5859061e-05
0.00024141119
0.00017271864
-3.7183951e-05
1.3151247e-05
0.00023278515
-5.196926e-05
-0.00013425621
-0.00017810509
6.6224946e-05
-0.00018376871
-0.00029320349
7.6864986e-05
-4.538124e-05
0.00022505279
2.0922835e-05
0.00015125399
0.00021050686
2.8885724e-05
1.0340124e-05
-2.5676145e-05
-5.3553543e-05
-0.00051479654
7.2905585e-05
-9.1645895e-05
-0.00045075979
4.5370438e-05
-0.00014570618
2.3757479e-05
-2.6411546e-05
-0.00020624502
5.4699085e-05
-9.1623381e-05
-0.00013283158
0.00010702402
0.0001240879
9.9827468e-05
0.00043053358
5.6957562e-05
2.6672366e-05
0.00020799556
-0.00018572329
-4.9141478e-05
-0.00018707729
-0.00016507014
1.233125e-05
-0.00040696653
-3.5093515e-05
9.3104955e-06
-0.00055226501
6.2849519e-05
-5.9188407e-05
-0.00042967725
3.214995e-05
-0.00020320114
-0.00014867928
5.4385433e-05
0.00012453968
3.9200409e-05
0.00012322755
0.00011888549
0.00031016679
9.383073e-05
0.00037003192
8.6185055e-05
0.00023923394
2.6599489e-05
-9.5211524e-06
7.2070863e-05
-0.00013400503
0.0002672077
1.3752987e-06
0.00025745494
0.00019551596
0.00022968075
3.4889442e-05
0.00017657115
-0.00020939598
4.4357315e-05
-5.5937862e-05
2.8266998e-05
0.00010465307
-2.7374751e-05
-3.3948579e-05
-0.00033665815
-8.9322152e-05
-0.00055419696
-0.00010576956
-0.00039844313
-4.0419279e-05
-0.00025558045
-3.5846536e-05
-0.00012317248
4.5603943e-05
0.00024527075
2.5255323e-05
0.00048434747
6.7084411e-05
0.00040626238
3.3655491e-05
0.00016566503
-4.8254549e-05
-0.00016904971
-6.4915062e-05
-0.00033770397
-7.9060307e-05
-0.00026515126
-6.2370256e-05
-3.5539353e-05
-0.00015525421
3.2327243e-05
1.8705123e-06
-5.303321e-05
-0.00023866009
1.9903936e-05
5.0836946e-05
-0.00019310302
-2.5096973e-05
2.0721448e-05
-5.2852326e-05
-9.8031395e-05
-8.5555769e-05
0.00010196809
-0.0001076371
-0.00018856818
0.00013946606
-0.00011098649
-0.0002066915
8.4047172e-05
-9.8132285e-05
4.1760553e-05
-0.00029166573
3.7629547e-05
0.0002197873
-0.0002703673
6.9047443e-05
0.00012372048
2.2614405e-05
1.8684751e-05