/*--------------------------------*- C++ -*----------------------------------*\
| =========                 |                                                 |
| \\      /  F ield         | OpenFOAM: The Open Source CFD Toolbox           |
|  \\    /   O peration     | Version:  v2012                                 |
|   \\  /    A nd           | Website:  www.openfoam.com                      |
|    \\/     M anipulation  |                                                 |
\*---------------------------------------------------------------------------*/
FoamFile
{
    version     2.0;
    format      ascii;
    class       volScalarField;
    location    "730/bottomWater";
    object      T;
}
// * * * * * * * * * * * * * * * * * * * * * * * * * * * * * * * * * * * * * //

dimensions      [0 0 0 1 0 0 0];


internalField   nonuniform List<scalar> 
1460
(
974.04506
971.93526
969.9736
968.36005
967.86139
968.62355
969.52602
971.89605
970.58514
960.39121
958.51681
955.85123
944.75079
935.95215
931.78335
934.85117
935.81103
925.09485
923.32094
921.55026
918.89581
915.0749
913.21316
912.26059
916.3371
916.81322
917.18511
917.19964
916.89282
912.96292
968.92618
967.00309
965.87124
965.61406
965.85194
967.40942
968.50097
969.29301
969.22414
958.92284
957.95153
955.91868
946.44259
933.96835
933.14796
932.46053
932.57221
926.69321
924.17955
925.24907
921.43405
917.13971
916.69555
916.28459
918.44013
918.75467
918.66808
918.90979
919.57922
918.97166
968.667
966.9255
966.38167
965.67504
965.73376
967.25214
968.59172
967.57579
967.62293
959.30935
962.89569
955.9153
944.13858
938.15641
937.30816
936.28428
933.24023
928.90003
927.72147
926.52728
922.31425
916.81748
916.39144
916.6009
918.65271
918.34938
918.33823
918.60791
919.32845
919.36787
968.36165
967.40679
966.92778
965.70364
965.69211
967.78902
967.72944
967.28464
967.34701
961.31767
962.87222
958.36275
942.4628
938.50318
933.64078
934.19075
932.76039
929.83047
929.48746
928.10115
923.00359
917.07203
915.98653
916.7069
918.36545
918.36968
917.89337
918.10894
918.80591
919.36421
967.51473
966.9374
966.53151
966.05011
965.85676
966.94125
966.61312
965.94565
965.48701
964.7674
963.92592
956.93583
933.21277
932.73751
931.75721
931.62444
930.86719
929.07036
928.32973
927.0714
924.02154
916.88114
914.99466
915.89849
917.4554
917.65363
917.32716
917.63909
917.63773
917.47215
976.84945
972.58303
972.89712
974.0279
975.04429
975.31137
974.04372
968.22987
962.94526
958.21032
955.87302
949.45916
937.35398
929.4659
921.22659
924.46664
926.77139
920.86273
919.75618
918.3625
916.45664
914.05786
912.58342
910.90637
913.75218
914.38669
916.38475
916.00051
914.86133
911.45714
970.7712
967.67594
966.07479
967.96557
968.85958
968.66886
970.70998
964.72406
960.68126
959.25109
958.81358
952.92588
940.55106
929.1929
920.03477
919.57392
920.62688
920.74207
919.75787
919.56836
917.79058
916.89345
916.425
915.25338
916.16218
917.61602
918.39486
918.68113
918.73523
917.02535
970.30596
968.05322
966.20318
965.49356
965.83629
967.44003
969.00166
964.65226
961.65134
961.1404
959.9688
954.00828
940.75752
930.23192
919.83536
918.76901
919.87703
921.04096
920.1905
919.95998
917.16184
916.49858
916.29834
915.68894
916.62459
917.49399
918.39427
918.79424
919.09545
917.26634
969.28483
968.40809
966.3206
965.03994
965.12386
967.5032
967.34808
965.53623
963.59057
963.00197
963.31831
961.70664
939.56949
926.9022
919.63765
918.82025
919.72784
921.45868
920.78573
920.63364
916.58872
916.08503
915.95048
916.21036
917.13734
917.4843
917.70708
918.2399
918.24821
917.54136
964.95744
965.6446
965.29393
965.01937
965.31175
966.60439
966.82915
965.55295
964.27831
963.38597
962.44877
961.54531
937.88602
923.41635
922.04986
920.97862
921.12591
921.11634
920.95754
919.52417
916.14359
914.46001
915.10948
915.84195
917.03047
916.89302
917.33285
917.893
917.93958
917.38937
979.8376
972.38364
974.50885
977.21952
978.48364
976.19425
969.39639
962.08646
958.09493
955.24102
953.13302
950.2754
936.30731
928.27523
918.05302
923.62547
922.37698
917.82247
915.45532
913.45106
911.36639
910.67935
913.08253
913.95113
913.66091
911.09453
914.44784
915.87397
915.59346
912.97081
972.32611
967.54554
968.71205
970.05501
971.06858
971.25438
969.48309
960.59862
956.10955
954.52839
952.15955
949.27724
940.07828
930.48021
916.84622
917.16524
916.40227
914.05016
914.53189
915.19672
914.8538
915.77119
916.54409
916.86706
916.02911
915.23147
917.47686
917.87655
917.56095
916.62767
970.78314
967.84962
968.1104
969.39538
970.31196
970.87617
970.11875
961.74756
956.84601
956.38983
951.80868
948.23342
946.30395
932.03028
914.48757
913.39618
914.88429
913.92969
916.48331
917.68197
915.6038
916.05097
916.79009
916.65861
916.38873
915.56441
917.49159
918.16103
918.57822
916.96267
965.73691
965.13978
965.1012
965.32302
967.5285
969.47143
970.11785
963.75296
960.88042
961.29064
960.42652
959.14397
949.80077
934.34715
917.92443
913.01898
914.73301
914.86476
917.10152
917.80629
916.27681
916.31092
916.50451
916.83255
916.79712
915.82788
917.13019
917.51345
918.11759
917.35754
965.0025
964.58357
964.12455
963.61426
964.79224
968.56118
969.98782
965.1415
963.05049
962.10768
960.36863
959.15208
952.97129
931.98021
917.84587
916.82002
916.85022
917.01725
917.04667
915.10849
913.42016
914.74405
915.344
915.36558
915.13902
915.33222
917.46147
917.59712
917.90535
917.33644
975.50949
972.50857
970.27808
974.52855
978.96859
980.51546
974.82256
968.61386
963.02616
958.00418
953.05358
947.26281
933.87205
923.85425
920.03454
919.26718
915.48829
913.60684
914.22528
913.4417
908.44699
903.54984
909.74155
911.76701
912.03094
911.99725
917.28587
916.88708
916.29063
913.30701
972.34652
967.72658
965.48498
967.53496
970.79115
973.89825
969.956
965.54131
958.88343
953.42967
949.07769
944.2399
932.03402
920.9281
916.39201
915.70917
910.06387
908.83713
912.77347
914.82564
914.79612
914.00456
915.84866
916.16989
915.53639
915.56883
918.43677
918.53825
919.08358
918.6815
972.81425
968.4371
966.50994
967.67479
969.57147
972.23392
970.35372
967.11525
960.56025
952.08239
945.57436
941.21933
932.49258
924.42801
909.36814
912.74445
909.12419
911.26441
912.63902
915.20031
915.3254
914.13755
916.13831
916.06482
916.58951
915.94986
917.32056
918.10402
919.01125
919.05942
967.47407
965.48372
965.56168
966.78055
967.21897
969.20595
969.06999
966.49341
960.16739
953.35085
949.6937
944.78163
932.70586
928.57375
906.81327
906.97295
911.23492
914.67853
915.58604
916.26176
915.17016
914.27216
916.08184
916.62432
916.07803
915.77454
917.31527
918.65219
920.20986
919.48348
965.77186
964.86712
964.58505
963.83221
964.61971
967.70461
968.38847
965.54664
962.63804
959.4845
953.47248
949.55719
933.17419
920.18512
903.0975
906.77014
912.90848
914.64048
914.3926
914.28361
913.97095
913.69297
914.7519
915.31239
915.28805
915.11327
917.1577
918.39481
918.87316
918.6879
969.42264
966.22171
964.81865
968.60452
971.35782
970.58096
967.41771
964.89044
962.0201
963.15989
956.9311
933.00448
913.38666
899.04137
907.3216
907.83007
908.57532
902.84109
908.54605
911.27955
912.9038
913.90587
916.43872
917.6276
917.10366
914.36049
964.17171
963.68354
962.81563
963.42966
965.40563
966.11046
964.63659
964.50397
958.15947
957.82885
954.84947
932.22286
917.84809
894.4213
906.33984
908.39911
911.19595
911.822
914.31335
914.72201
914.56486
915.68435
917.92755
919.90292
920.57527
920.08177
963.95163
964.91421
963.36942
963.47122
964.40677
964.63231
965.33718
964.98766
954.5254
951.8278
952.03808
931.42103
918.51125
900.99153
906.11315
908.10447
912.25452
912.56651
914.52741
914.40475
914.21136
915.2052
917.59577
919.82033
920.87693
920.49016
963.79071
963.70225
962.87854
963.22977
963.26142
964.38104
964.57448
962.11052
954.44256
948.08505
949.6606
930.63689
920.74057
904.40321
910.82708
912.61682
912.16503
913.37614
914.64553
913.65693
913.93679
914.96439
917.51446
919.65916
921.14694
921.19724
964.26303
963.93499
963.62694
963.3428
963.31755
966.21154
965.90705
962.54635
961.56125
948.39904
944.11698
929.4729
919.07946
906.06303
910.16693
911.11304
911.71803
912.78679
914.14779
913.86127
913.95212
914.27147
917.05775
918.88142
919.30031
919.80286
966.80883
963.77071
963.64665
964.50075
967.35421
965.75468
963.82649
961.25822
955.8035
959.20663
950.48112
924.08169
909.83454
900.36436
910.60839
910.17673
909.66756
908.96297
908.70307
910.33258
912.61468
914.63086
916.72841
917.44129
917.17592
914.39779
962.3486
962.20385
961.3877
960.65595
961.14592
960.16374
959.61076
959.51038
952.75221
953.01683
952.14549
918.81868
910.06276
896.04358
909.12578
910.61595
912.44176
914.20935
916.58872
915.31537
914.07432
916.81546
918.52194
920.10218
920.70869
919.84186
962.05675
962.48867
961.70837
961.48307
960.93286
960.4761
960.21813
959.34917
950.9294
948.6826
947.64414
920.38504
913.40837
893.80277
904.20311
907.15716
909.89542
914.15104
915.78081
913.93597
913.78371
916.5751
918.31343
920.18077
920.87728
920.32576
962.16745
962.69836
962.64273
962.09688
961.03594
962.27998
961.85453
957.78818
950.1451
944.54033
943.03511
921.46172
916.29011
897.38019
902.42584
903.66284
908.3547
913.4797
914.59944
912.52353
912.92879
916.93454
918.32328
919.90405
921.5887
921.0202
963.12229
962.99102
962.86249
962.3577
961.3039
964.0658
962.58771
958.4144
951.41879
944.60372
943.28976
926.16725
920.59308
899.68351
903.8529
904.60742
908.25043
909.43637
910.47605
911.18668
912.36062
916.96412
917.94329
918.38435
918.48584
918.96301
968.01872
964.84077
962.58115
964.36303
962.87457
959.27562
955.99878
956.56164
952.54398
955.13108
946.45399
930.8812
921.59146
914.60255
913.47048
903.54981
899.36936
900.20337
901.7775
912.34983
914.37792
915.07616
916.26349
914.6962
915.31949
914.77753
918.5612
916.36833
916.04647
913.5497
962.50843
960.68637
959.52732
957.96706
957.63839
954.8646
953.43345
951.30271
949.97816
950.1859
949.54345
936.05568
920.45269
917.93806
920.09839
907.63254
903.86316
904.77334
905.68899
911.35597
915.2221
916.55521
917.10282
916.62529
916.05927
916.2297
918.77596
918.50051
919.28081
918.50505
962.49884
962.22752
959.96515
958.03083
957.79895
956.91403
953.73341
950.301
948.98133
948.03138
948.99934
934.99022
922.85932
921.37759
921.33295
908.98413
903.65363
896.09853
905.12155
910.2339
915.15984
916.32249
917.01217
916.28201
916.25138
916.36075
916.66876
918.13496
919.05641
918.92398
962.8767
963.1884
962.05163
958.62017
958.56168
957.80746
953.36754
949.73055
947.83927
946.00121
945.83617
933.45043
926.15293
924.21461
921.68909
907.99516
906.77624
902.58494
905.11129
910.25986
914.325
915.29164
916.37776
915.46878
915.67235
916.46339
916.98476
919.65712
919.8226
919.31507
963.22796
963.21732
962.91951
961.99529
959.7663
958.5676
954.63935
949.71946
945.8741
944.62705
943.46423
931.86012
928.95033
924.46888
922.0095
903.03148
901.16139
903.10917
905.24607
909.54553
911.35639
912.32777
913.42237
914.02067
915.28437
916.95256
917.64768
918.49592
918.39551
918.42742
970.67605
967.11286
964.17091
960.89324
958.18308
956.26277
954.23288
955.02341
955.89207
957.7861
950.40356
941.24253
933.7471
925.10228
919.36368
919.00117
912.22065
911.09668
911.64116
912.58086
917.23723
918.70507
918.39898
916.75604
918.48908
915.10089
917.91483
915.50731
914.74652
911.26774
965.11724
961.95551
959.54802
959.3702
956.69298
954.82031
952.9408
951.50505
951.03344
952.32788
950.61538
943.42559
937.09896
921.98907
921.97392
922.21601
915.55886
910.79925
912.93031
912.75883
917.20847
918.34788
917.86632
917.45402
917.4482
916.4564
918.44641
918.48567
918.045
916.8369
965.23578
962.06255
962.94325
962.59116
957.1569
955.2865
953.01381
950.91643
950.32372
952.45361
949.58622
938.57202
937.98283
923.72828
925.3716
923.76424
915.37228
909.65834
915.54288
913.19135
917.45034
918.28122
917.79928
917.45178
917.46446
916.61288
918.13169
918.56419
917.9884
917.18927
965.42272
963.22184
963.55656
961.66854
955.72308
956.00465
952.85959
950.07878
947.93767
950.5138
948.03448
937.67257
934.83372
924.12724
925.6661
923.89631
913.37108
914.42465
913.80878
913.66987
917.55177
918.03542
917.94897
917.43492
917.18636
916.75372
918.00862
918.35731
917.94197
917.44312
965.30451
964.29366
963.18325
961.61725
959.71806
958.1217
953.13425
949.19419
945.41689
944.1025
944.06812
936.06106
934.65247
930.64556
928.73035
923.62609
911.30835
910.40046
911.6429
912.21679
916.26787
915.66798
916.06887
915.62255
916.26265
916.53116
917.44896
917.63721
917.37854
917.21911
976.44802
974.2589
973.91
968.8974
963.47873
958.84401
960.35533
959.95612
958.24072
954.06746
949.2291
944.93392
942.58568
934.70269
923.45742
923.76092
920.91691
918.82415
917.80405
915.93233
921.07713
918.58916
916.71644
917.10721
917.2052
916.87606
918.02344
916.43992
916.23485
912.30141
968.8803
968.44984
965.96968
961.28116
958.30062
956.50088
954.93955
954.99444
954.26411
951.60493
948.82732
944.29846
940.7025
939.93581
924.43136
925.10676
920.26707
917.47009
917.43276
917.04565
919.80449
919.31601
918.42357
917.132
917.12734
918.01486
918.67642
919.27782
919.56947
918.50858
964.82649
965.32266
965.65619
962.54393
960.52385
957.10608
955.31533
955.25331
954.16672
951.65067
949.72345
944.38787
938.17036
939.81703
925.31393
925.11247
922.49202
919.61388
919.96804
918.33197
919.14005
919.40174
917.91519
917.30619
917.89637
918.08813
918.60334
919.02438
919.21752
918.76727
963.23961
963.65709
964.4955
963.13522
960.17209
955.5813
955.06432
954.81485
953.89868
951.33939
949.35685
943.71627
937.48413
939.18492
930.0574
928.89554
926.40958
919.51706
919.09133
918.43814
918.94149
919.11072
918.0305
917.53253
917.74751
917.75596
918.48344
918.75334
919.01337
918.92586
963.07139
963.22605
963.55704
962.61876
959.77062
957.83814
955.17223
954.27892
952.7317
951.53745
949.60298
942.75979
936.4355
937.18209
929.83492
928.58433
927.09739
919.29668
911.86225
913.9209
916.51645
917.30944
916.43913
916.88884
916.20549
916.78946
917.85038
918.32383
918.57545
918.57392
967.83931
966.9073
970.76055
970.76596
964.35253
961.03549
963.93422
959.74523
955.37234
951.35484
948.56277
945.94757
943.29014
941.91604
932.84066
924.07423
924.60501
925.02541
923.18118
919.53347
921.30146
918.27885
916.53858
916.66758
916.08997
919.09588
919.49553
918.35979
918.26875
914.94339
963.46887
964.05843
964.89147
965.75333
960.79966
957.14243
957.35652
956.56231
951.71105
949.3269
948.91064
945.59529
941.75915
941.23247
936.37566
923.98202
923.08281
922.52864
921.85417
919.62312
919.39388
918.31133
917.7968
917.11241
917.02507
919.11596
919.5949
919.3122
920.07562
920.10876
963.41862
964.28864
965.06634
965.21151
962.15928
957.81333
956.90846
956.34394
951.94353
950.71984
950.09619
945.99834
940.12249
938.6472
934.52457
924.90686
923.42377
922.82709
922.07401
919.39376
918.20271
918.097
916.9582
916.92061
916.96256
918.24404
918.79737
919.08546
919.967
921.29998
962.95481
963.84542
964.38834
964.60869
959.79389
956.02972
955.99124
956.23827
952.09541
951.64842
950.18261
945.92459
938.14494
937.64754
934.11999
929.92396
924.1461
922.72977
921.00717
916.40185
916.24063
916.79145
916.91178
916.23926
916.08288
917.48363
918.57627
919.00562
919.5531
919.85805
962.78367
962.78476
962.80895
962.49309
958.58872
957.50673
955.45683
955.50865
951.69997
951.34104
950.75743
946.69199
934.80887
934.40017
932.17713
929.76303
926.99003
926.17982
920.56866
915.37596
915.73803
916.21641
916.07815
915.75284
915.58219
917.07857
918.14441
918.58823
918.87333
919.20266
)
;

boundaryField
{
    minX
    {
        type            zeroGradient;
    }
    maxX
    {
        type            zeroGradient;
    }
    minY
    {
        type            fixedValue;
        value           uniform 1073;
    }
    minZ
    {
        type            zeroGradient;
    }
    maxZ
    {
        type            zeroGradient;
    }
    bottomWater_to_rightSolid
    {
        type            compressible::turbulentTemperatureCoupledBaffleMixed;
        refValue        nonuniform List<scalar> 
130
(
749.98123
757.94348
766.24284
774.46617
782.30865
789.58323
796.13165
801.84132
806.63953
810.49532
813.39689
815.33351
816.30191
744.08416
753.39213
762.87309
772.05279
780.63964
788.44857
795.36284
801.32022
806.28717
810.26025
813.23723
815.21821
816.20636
732.35758
744.74009
756.74287
767.83174
777.79262
786.54804
794.0993
800.48063
805.73626
809.90672
813.007
815.06164
816.08378
714.90845
733.08024
749.13883
762.92221
774.63044
784.51816
792.80105
799.655
805.21736
809.58945
812.82139
814.9536
816.01275
694.30118
722.00397
742.86347
759.22363
772.38994
783.13528
791.93742
799.11839
804.89175
809.39857
812.71439
814.89406
815.97695
694.26186
721.95028
742.80871
759.18164
772.35329
783.10068
791.90989
799.10251
804.89291
809.39586
812.70463
814.88033
815.96189
714.87615
733.02237
749.08979
762.88945
774.60604
784.49363
792.77678
799.6387
805.21024
809.57671
812.8034
814.93118
815.9899
732.43532
744.76516
756.7598
767.8665
777.82119
786.56332
794.10047
800.47545
805.72735
809.89199
812.99168
815.04629
816.07114
744.25355
753.46143
762.91596
772.11098
780.70203
788.49081
795.37989
801.31423
806.27717
810.2548
813.238
815.22653
816.22132
750.15947
758.02337
766.264
774.49013
782.35722
789.62582
796.14768
801.8329
806.63103
810.49876
813.41181
815.35964
816.33649
)
;
        refGradient     uniform 0;
        valueFraction   uniform 0.99248593;
        value           nonuniform List<scalar> 
130
(
751.32694
759.22378
767.45129
775.58987
783.31978
790.5256
797.0316
802.71008
807.47373
811.29809
814.18021
816.10227
817.06214
745.41442
754.65126
764.05019
773.13546
781.64521
789.40033
796.26816
802.18972
807.1183
811.06484
814.02366
815.99011
816.9667
733.74516
746.0348
757.93289
768.92572
778.82169
787.51583
795.01052
801.3422
806.55981
810.71495
813.79294
815.83446
816.84464
716.40926
734.44264
750.37975
764.05722
775.67538
785.49676
793.72163
800.5239
806.04315
810.39779
813.61472
815.73451
816.78432
695.89237
723.41785
744.12772
760.3695
773.4449
784.11974
792.85358
799.98128
805.71366
810.20759
813.51218
815.67862
816.75715
695.80542
723.31711
744.02446
760.30178
773.38334
784.05778
792.80615
799.95356
805.73505
810.21153
813.49875
815.65886
816.73587
716.29056
734.31649
750.29548
764.00506
775.64093
785.46244
793.68784
800.50769
806.0499
810.3888
813.59761
815.70865
816.75965
733.77258
746.0191
757.92793
768.9816
778.857
787.53644
795.01361
801.3455
806.55995
810.7002
813.77802
815.81525
816.8312
745.56881
754.65169
764.05065
773.19607
781.72854
789.45224
796.29293
802.17754
807.10759
811.06331
814.02765
816.00314
816.99044
751.48213
759.24476
767.38443
775.5515
783.36307
790.576
797.04642
802.68763
807.46098
811.30765
814.20215
816.13749
817.10947
)
;
        Tnbr            T;
        thicknessLayers List<scalar> 0();
        kappaLayers     List<scalar> 0();
        kappaMethod     fluidThermo;
        kappa           none;
        alphaAni        none;
        alpha           none;
        field           T;
    }
    bottomWater_to_leftSolid
    {
        type            compressible::turbulentTemperatureCoupledBaffleMixed;
        refValue        nonuniform List<scalar> 
130
(
927.67661
927.65553
927.60865
927.53275
927.42744
927.2912
927.10881
926.88202
926.61908
926.32839
926.01881
925.69474
925.41199
927.60773
927.59021
927.54451
927.47025
927.36765
927.23164
927.04441
926.803
926.5237
926.22358
925.91733
925.62255
925.35807
927.51262
927.49023
927.4408
927.3639
927.26345
927.13091
926.93354
926.65781
926.34615
926.01956
925.69607
925.40909
925.20037
927.41176
927.38376
927.32618
927.23647
927.11863
926.9644
926.74128
926.44024
926.08854
925.70594
925.32108
924.97957
924.72134
927.30252
927.27078
927.20184
927.09373
926.94751
926.76276
926.50638
926.17328
925.78596
925.33544
924.90908
924.51193
924.25853
927.2079
927.17005
927.08688
926.95402
926.77324
926.55485
926.26786
925.91334
925.50917
925.08637
924.68582
924.298
924.07139
927.14946
927.1042
927.00529
926.84758
926.63228
926.37371
926.06314
925.71178
925.34308
924.9815
924.63528
924.30868
924.12582
927.12797
927.07463
926.96452
926.79477
926.57016
926.30419
925.99691
925.66835
925.33069
925.00778
924.70911
924.43833
924.28661
927.09956
927.05209
926.94889
926.78311
926.55887
926.30166
926.02089
925.73077
925.43201
925.14004
924.8623
924.61128
924.45196
927.09155
927.04443
926.94158
926.77877
926.55713
926.31179
926.04649
925.77396
925.48611
925.2138
924.95767
924.72319
924.55203
)
;
        refGradient     uniform 0;
        valueFraction   uniform 0.99248593;
        value           nonuniform List<scalar> 
130
(
927.97593
927.95067
927.9011
927.82215
927.71617
927.58912
927.40563
927.17554
926.91113
926.61722
926.30364
925.92949
925.47063
927.88839
927.87615
927.82816
927.75238
927.65274
927.52748
927.34333
927.09418
926.80739
926.50282
926.19184
925.8925
925.45237
927.79429
927.76893
927.71642
927.63626
927.54543
927.44221
927.25707
926.94697
926.62193
926.29072
925.95663
925.66271
925.40904
927.69996
927.6654
927.60611
927.51142
927.40039
927.27048
927.05417
926.73402
926.36312
925.95974
925.53261
925.16429
924.78467
927.58022
927.54628
927.47553
927.36609
927.22077
927.05914
926.8024
926.44652
926.05473
925.50864
925.05334
924.54918
924.2196
927.47775
927.4392
927.35569
927.22005
927.03268
926.83667
926.54073
926.15751
925.70386
925.23305
924.82563
924.31212
924.04527
927.42055
927.37554
927.27514
927.11168
926.88118
926.61554
926.27783
925.89215
925.49736
925.12914
924.77681
924.36532
924.16203
927.41484
927.35428
927.23665
927.05641
926.81919
926.54321
926.20083
925.84516
925.48162
925.15124
924.85455
924.52563
924.36452
927.36984
927.3239
927.22394
927.05239
926.80838
926.53856
926.23992
925.94527
925.63714
925.33838
925.04817
924.74761
924.54201
927.35976
927.313
927.21106
927.04707
926.79776
926.54616
926.26747
925.99738
925.68307
925.4101
925.15152
924.88818
924.62913
)
;
        Tnbr            T;
        thicknessLayers List<scalar> 0();
        kappaLayers     List<scalar> 0();
        kappaMethod     fluidThermo;
        kappa           none;
        alphaAni        none;
        alpha           none;
        field           T;
    }
    bottomWater_to_heater
    {
        type            compressible::turbulentTemperatureCoupledBaffleMixed;
        refValue        nonuniform List<scalar> 
92
(
730.81077
732.92033
737.02438
742.84662
721.38243
723.84491
728.6825
735.60579
701.75556
704.87993
711.25278
720.66165
345.0875
342.44754
342.47038
345.08436
421.19739
417.95156
418.14133
421.55307
486.42158
483.68447
484.36989
487.98715
541.99751
540.33309
542.21973
546.63477
669.79312
587.9925
673.71125
588.25054
682.26729
592.85601
696.09112
600.36862
345.0875
345.08436
421.19739
421.55307
486.42158
487.98715
541.99751
546.63477
587.9925
600.36862
345.03881
345.03881
342.41729
342.42968
345.04495
345.04495
421.13029
421.13029
417.92834
418.10213
421.51146
421.51146
486.37559
486.37559
483.68572
484.33854
487.91065
487.91065
541.97374
541.97374
540.35547
542.20338
546.55981
546.55981
588.03502
588.03502
588.30353
592.84965
600.2989
600.2989
670.11986
674.03702
682.44328
696.13395
702.21476
705.32969
711.58997
720.84365
721.96623
724.36173
729.10255
735.90563
731.33113
733.38445
737.39898
743.12061
)
;
        refGradient     uniform 0;
        valueFraction   nonuniform List<scalar> 
92
(
0.99248593
0.99248593
0.99248593
0.99248593
0.99248593
0.99248593
0.99248593
0.99248593
0.99248593
0.99248593
0.99248593
0.99248593
0.99248593
0.99248593
0.99248593
0.99248593
0.99248593
0.99248593
0.99248593
0.99248593
0.99248593
0.99248593
0.99248593
0.99248593
0.99248593
0.99248593
0.99248593
0.99248593
0.99248593
0.99248593
0.99248593
0.99248593
0.99248593
0.99248593
0.99248593
0.99248593
0.99248593
0.99248593
0.99248593
0.99248593
0.99248593
0.99248593
0.99248593
0.99248593
0.99248593
0.99248593
0.99248593
0.99248593
0.99248593
0.99248593
0.99248593
0.99248593
0.99248593
0.99248593
0.99248593
0.99248593
0.99248593
0.99248593
0.99248593
0.99248593
0.99248593
0.99248593
0.99248593
0.99248593
0.99248593
0.99248593
0.99248593
0.99248593
0.99248593
0.99248593
0.99248593
0.99248593
0.99248593
0.99248593
0.99248593
0.99248593
0.99248593
0.99248593
0.99248593
0.99248593
0.99248593
0.99248593
0.99248593
0.99248593
0.99248593
0.99248593
0.99248593
0.99248593
0.99248593
0.99248593
0.99248593
0.99248593
)
;
        value           nonuniform List<scalar> 
92
(
732.32806
734.41439
738.48667
744.25946
722.9006
725.33431
730.12752
736.99988
703.48549
706.48026
712.79753
722.13589
349.43634
346.78759
346.8045
349.37042
424.95232
421.69688
421.8801
425.22379
489.71279
486.88308
487.58867
491.15159
544.90231
543.08688
544.96053
549.37438
671.67466
590.48869
675.43493
590.61638
683.95427
595.21484
697.72029
602.71706
349.35786
349.24683
424.92931
425.10625
489.66826
491.09049
544.84339
549.32306
590.4803
602.66563
349.28279
349.31855
346.70821
346.64597
349.21766
349.21018
424.80418
424.86334
421.70169
421.7805
425.07712
425.13588
489.58433
489.64424
486.97424
487.52936
490.96056
491.03457
544.78638
544.84594
543.22083
544.95196
549.19591
549.26652
590.5339
590.56298
590.811
595.18034
602.54851
602.55963
672.03103
675.90028
684.10076
697.67456
703.93119
707.00832
713.18317
722.27481
723.58339
725.90567
730.60147
737.34226
732.85701
734.87816
738.84444
744.50227
)
;
        Tnbr            T;
        thicknessLayers List<scalar> 0();
        kappaLayers     List<scalar> 0();
        kappaMethod     fluidThermo;
        kappa           none;
        alphaAni        none;
        alpha           none;
        field           T;
    }
}


// ************************************************************************* //
