/*--------------------------------*- C++ -*----------------------------------*\
| =========                 |                                                 |
| \\      /  F ield         | OpenFOAM: The Open Source CFD Toolbox           |
|  \\    /   O peration     | Version:  v2012                                 |
|   \\  /    A nd           | Website:  www.openfoam.com                      |
|    \\/     M anipulation  |                                                 |
\*---------------------------------------------------------------------------*/
FoamFile
{
    version     2.0;
    format      ascii;
    class       volVectorField;
    location    "730/bottomWater";
    object      U;
}
// * * * * * * * * * * * * * * * * * * * * * * * * * * * * * * * * * * * * * //

dimensions      [0 1 -1 0 0 0 0];


internalField   nonuniform List<vector> 
1460
(
(-0.0017548511 -0.015608038 0.0017160765)
(-0.0028446082 -0.015275328 0.00086050663)
(-0.003327896 -0.014058391 0.0012505288)
(-0.0025837154 -0.011863255 0.0012042127)
(-0.0017608824 -0.012118694 0.00066518535)
(0.0011304837 -0.013583759 0.00072726849)
(0.003694897 -0.012458022 0.0010738283)
(0.004388586 -0.014156846 0.002079554)
(0.0010156798 -0.016291615 0.0028436871)
(-0.0025389391 -0.016145455 0.00055716364)
(-0.0038085821 -0.014089808 -0.00084564163)
(-0.0020238606 -0.011208539 0.00025942324)
(0.0009654568 -0.018661139 -0.00091559189)
(-0.0024827575 -0.018957777 -0.0013583098)
(0.00099498509 -0.014062795 -0.0018068701)
(0.0021577958 -0.018925646 -0.0010173778)
(0.0018056209 -0.018371223 -0.00053697464)
(-0.0005671243 -0.015569653 6.1418817e-05)
(-0.0039438604 -0.012071359 0.00037027446)
(-0.004283412 -0.011280334 0.0009206527)
(-0.0027396001 -0.012196175 0.00059293315)
(0.00093996886 -0.012164816 0.00086704189)
(0.0020631018 -0.013523444 0.0017248015)
(0.00070510548 -0.017550573 0.0020081659)
(-0.0028563706 -0.01586228 0.0014349688)
(-0.0037287987 -0.012891377 0.0014208787)
(-0.0030174243 -0.011817357 0.0015777585)
(-0.0007445104 -0.01262975 0.0014239423)
(0.0016858458 -0.012496537 0.0011050227)
(0.0020616387 -0.018595101 0.0022512736)
(-0.0039050008 0.016949829 -0.0016368327)
(-0.0050466851 0.015891446 -0.0028320827)
(-0.0039470373 0.011507302 -0.0012595264)
(-0.0012712036 0.0043838484 -0.00091133759)
(-0.00010917873 0.0021066249 -0.0020024479)
(0.0025482864 -0.00088673199 -0.0022232049)
(0.0031593203 0.00060839526 -0.0026632702)
(0.0075727123 0.014116802 -0.0014834883)
(0.0048876406 0.017979545 2.381609e-05)
(-0.00485116 0.017892006 -0.001947504)
(-0.0041884973 0.013902009 -0.0029194833)
(-0.00073321291 -0.00041246482 -0.00079264258)
(0.0033403359 0.018213034 -0.0034991782)
(-0.0022178174 0.019509948 -0.0050709489)
(0.0026294946 0.0082291599 -0.0024952837)
(0.0063609737 0.017476145 -0.0014504276)
(0.0065128398 0.019763271 -0.0010135096)
(-0.0012587077 0.017864967 0.00074836025)
(-0.0053401474 0.013939371 0.0012583727)
(-0.0019342266 0.0039850071 0.00042868184)
(-0.00079631006 0.0006981551 0.0010201983)
(0.003030372 -0.00097689081 0.0013088306)
(0.0052830036 0.0077218914 0.0014927414)
(0.0037828607 0.018209701 0.0020051309)
(-0.0058574818 0.0168946 0.0012786995)
(-0.0031343314 0.0086721703 -0.00053603031)
(-0.0030248554 0.0012321753 0.00019358449)
(0.00025309015 -0.0018033253 -0.00018408831)
(0.0013473674 0.0011645292 -0.00075930981)
(0.0049767308 0.018381503 0.0020783831)
(-0.0012669602 0.0046084326 -0.00044724435)
(0.0017725157 -0.0040266847 -0.00054733699)
(0.0021071382 -0.014838551 -0.001941796)
(0.0015520191 -0.013248415 -0.0026579621)
(0.0029916796 -0.01318873 -0.0045105081)
(0.0027332909 -0.014823442 -0.0057987019)
(-0.0030725453 -0.014963014 -0.0051511106)
(-0.0038411352 -0.012184376 -0.0033440072)
(0.0013356083 0.0039239049 0.00034544424)
(-0.0037240146 0.0020735252 -0.00025616502)
(0.0030484259 -0.013996595 0.0025521468)
(-0.0018830617 -0.013976441 -2.5638411e-05)
(-0.00050950356 -0.0078171023 0.00058544341)
(0.0037615358 -0.0055029915 -0.0012680242)
(0.0046597703 -0.01516695 0.00048421021)
(-0.0014172258 -0.018965792 0.0025987718)
(0.0039050434 0.0012068695 0.00028976695)
(0.002530107 0.0027526049 -0.00036304104)
(0.0053842309 -0.0079517969 -0.00010998735)
(0.0032540727 -0.013962328 -0.0013476416)
(-0.00022042893 -0.013476454 -0.00025793926)
(0.00070027666 -0.014808525 0.00031460612)
(-0.0028311313 -0.013875354 -0.0016428808)
(0.0003863991 0.0014066249 0.001064718)
(-0.0014656388 -0.005225148 -0.0017852043)
(0.0025712514 -0.01452117 -0.0055679309)
(-0.00089469335 -0.014025496 -0.0026963268)
(0.00066671951 -0.014833792 -0.0029262472)
(-0.0016437682 -0.014539988 -0.0032269062)
(-0.001101854 -0.0114392 -0.0025416518)
(0.00073513645 0.0092693043 0.00043129291)
(0.0047404665 0.0081137756 0.00036014585)
(0.0017783994 0.011825323 -0.00072011235)
(-0.00043895333 0.0019422579 0.0007719328)
(-0.00015584764 0.002826538 -0.00032008529)
(-0.0011165105 0.011082439 -0.0014115788)
(-0.0043158448 0.011561444 -0.0015392449)
(-0.0050859658 0.0110321 -0.0012177087)
(-0.0015503149 0.0087958999 0.0016698586)
(0.0021632684 0.0064989286 0.0024698991)
(0.0033893844 0.0019725829 0.00035581993)
(0.0010993812 -0.0031839791 -0.00023515707)
(0.0016277944 0.0039470855 -0.00030779506)
(0.0041358275 0.0087071854 -0.00091344012)
(0.0038372 0.011911888 -0.00064705101)
(-0.0034861536 0.014599594 0.0012686346)
(-2.5843329e-05 0.0081296315 0.00021045029)
(0.0034216828 0.0081983773 -0.00020671161)
(0.0057946068 0.0090380598 -0.00074558813)
(0.001056293 0.0098474839 0.00015263702)
(0.0010141934 -0.0013314856 6.5398858e-05)
(0.00092206741 -0.0043381344 -0.00038470975)
(-0.00044601386 0.0061991905 -0.00042689409)
(-0.00041273094 0.0076386031 0.00031523532)
(0.0022271734 0.0087405183 -0.0013785402)
(0.00028331658 0.010188356 -0.003708482)
(0.0005192009 0.00066479352 0.00027193108)
(-0.00042429454 -0.0036860709 -0.0016061615)
(0.00015528023 0.0035091969 -0.00053341841)
(-0.0018071307 0.012142609 -0.0024492106)
(0.0023307379 0.00024632525 0.002534268)
(0.0041721739 -0.0047149101 0.002160363)
(0.0047607722 -0.0055202916 0.0021970084)
(0.0054236082 -0.0087003972 0.0026749237)
(-0.0035058717 -0.0090295956 0.0019490873)
(-0.002041635 -0.0031753871 0.00017129621)
(0.0015859826 -0.0062397011 0.00039807904)
(0.0028589895 -0.01021932 -0.00064011098)
(0.0041422328 -0.0074590798 -0.00054377032)
(0.0053184151 -0.0082788828 -0.0013141989)
(0.0048294826 -0.010482878 -0.0023297066)
(0.0017784209 -0.010463396 -0.0018336802)
(-0.0040979236 -0.0083150631 0.00042507106)
(-0.0036690221 -0.0039581145 0.00019566087)
(-0.00086102435 -0.0018626693 0.00070563197)
(0.00061658284 -0.01148894 0.00019525119)
(0.00058130822 -0.0039225725 0.000371606)
(0.0025065642 -0.0023008647 -0.00079566328)
(0.0043272062 -0.0032430635 -0.00034066587)
(0.0057517293 -0.0066021544 -5.0242031e-05)
(0.0057222714 -0.0089644981 -0.00048340303)
(-0.00081470079 -0.0099491476 -0.0018765984)
(-0.0034654577 -0.009518926 -0.00028890296)
(-0.00171677 -0.0013428578 0.00041956519)
(0.0004225909 -0.0029864424 -0.00091448264)
(0.002251624 -0.003982425 -0.0015924967)
(0.0040078178 -0.0083236988 -0.0014198099)
(-0.0022398957 -0.0099898811 -0.0047805744)
(-0.0033222347 -0.0096456857 -0.0052410948)
(-0.0019822225 -0.0096222064 -0.0036774528)
(-0.0014459601 -0.015334826 0.0003869803)
(-0.00017591344 -0.012706897 -0.0018343999)
(0.0022560703 -0.013694576 0.00036232529)
(0.0021923368 -0.014090804 0.0016405918)
(0.00070423427 -0.013821864 0.0026003813)
(3.1636379e-05 -0.014660033 0.003991231)
(-0.00069265678 -0.015191049 0.0027837124)
(-0.0028435202 -0.01464717 0.0013527067)
(-0.0045497571 -0.014430839 0.0013091154)
(-0.0055437637 -0.014176803 0.00032780917)
(-0.0034335664 -0.012328078 0.00013033584)
(-0.0011907623 -0.013399349 0.0013076018)
(-0.0015236235 -0.013349178 0.00031467208)
(-0.0019517255 -0.013156397 -0.0018267662)
(0.0011675295 -0.012812524 -0.0012527598)
(0.0029753248 -0.01365421 -0.00059743387)
(0.0010479359 -0.016304507 -9.8544232e-05)
(-0.0018407139 -0.017107224 0.0011109258)
(-0.0037022091 -0.014917208 0.00093436863)
(-0.0050620094 -0.014391299 0.0018813598)
(-0.0030942543 -0.012016556 0.002242439)
(0.0011851231 -0.012078242 0.0029796025)
(0.0021453669 -0.01549913 0.0030624431)
(0.0011259985 -0.017047548 0.00061225743)
(-0.00011303264 -0.018221836 0.0013862242)
(-0.00075700236 -0.016764356 0.0007325491)
(-0.0014835766 -0.016110174 0.0028212836)
(-0.0011540961 -0.01745838 0.0034999774)
(0.0001447628 -0.018960001 0.0033755883)
(0.00023491829 -0.016840058 0.001289084)
(-0.004111836 0.016294048 -0.0022694709)
(-0.00082146433 0.0060920332 -0.0025408671)
(0.00065567845 0.011436194 0.00025158562)
(0.0030337055 0.015108496 0.0041607069)
(0.00248584 0.014830833 0.0061530816)
(0.0023008805 0.013979447 0.006452283)
(0.0025903856 0.016288333 0.0063763129)
(-0.0017391475 0.017099386 0.0018216768)
(-0.0061432865 0.016305609 0.0010091109)
(-0.0066424524 0.012339779 0.00087424051)
(-0.0029186768 0.001277158 0.0015374349)
(-0.00039726369 0.0078903905 0.0010568619)
(-7.3591448e-05 0.0087222681 -0.00047110801)
(-0.00017794178 0.0067904878 -0.0029104259)
(0.0018688332 0.00016570319 -0.0020654443)
(0.0059099826 0.0094305296 -0.00075894171)
(0.0062553895 0.017182442 -0.0009468158)
(-0.0020741359 0.018723525 0.001571283)
(-0.0056387481 0.01760032 0.0019756701)
(-0.0055389455 0.01535859 0.0032097264)
(0.00039860406 0.001589636 0.0017468874)
(0.0013128797 0.0025543648 0.0031588992)
(0.0067096333 0.015465218 0.0033567525)
(0.005488966 0.018997891 0.00076808157)
(0.00023955669 0.019686442 0.0018053894)
(-0.0032184421 0.018355936 0.0046965143)
(-0.0034959803 0.016942911 0.0061873388)
(-0.0015816679 0.017179865 0.0061309844)
(0.0022286083 0.019277714 0.0045116946)
(0.0036930018 0.018720025 0.0040368154)
(0.00096140965 -0.0033841303 -0.00063143034)
(0.0017111523 -0.015152286 -0.00062845264)
(-0.0044372524 -0.014867451 -0.0023138595)
(-0.00032035282 -0.013643041 -0.0024062278)
(0.0035308091 -0.01395025 -0.0039109552)
(0.0037268126 -0.01568191 -0.0056550291)
(-0.0012086978 -0.012574561 -0.0042223959)
(-0.00079801306 0.0033473962 -8.6542116e-05)
(-0.0018604615 4.9453882e-05 0.0015129553)
(0.0034647643 -0.013774215 0.0042236171)
(-0.00079086158 -0.015372669 0.0044015209)
(-0.0036548015 -0.013651175 0.0022687641)
(-0.000563743 -0.014134724 0.0013381167)
(0.0036147177 -0.013214235 0.00056180945)
(-0.00060142732 -0.014988167 -0.0018713133)
(-0.0051095217 -0.014165223 -0.0017955026)
(0.00057445781 0.0022437681 -0.0011949721)
(-0.00069393226 0.0068093102 0.0011913802)
(-0.00016469195 0.0026470536 0.00091306582)
(0.0011653831 -0.014165693 -0.0016027348)
(0.0010733283 -0.014134315 -0.0022229218)
(-0.0036370793 -0.015207917 -0.00085959317)
(-0.0042626776 -0.014844906 -0.0011473704)
(0.00069017193 0.00070818847 0.0018706154)
(-0.0011898512 0.0036709938 0.0015532741)
(-0.00052479426 -0.00094314441 -0.00093890384)
(0.00038172422 -0.010767931 -0.0014856972)
(0.0044860163 -0.017359765 -0.0023654542)
(-0.0013734949 -0.019231853 -0.003405821)
(0.0013999272 0.0037043491 0.0015638715)
(0.0026415581 0.0084316985 0.001695)
(0.0037381914 0.011903345 0.0022005336)
(-0.00082889009 0.0098327235 0.00085209014)
(0.0018236959 -0.0014421874 5.7854814e-05)
(0.0014749915 0.00010294359 -0.00073575926)
(0.00078633058 0.011503175 -0.0033568859)
(-0.0050931546 0.012495822 -0.0032134685)
(-0.0021138407 0.0086889951 -0.0014808195)
(0.0019438457 0.0076934543 0.0032504753)
(0.0045801193 0.010138705 0.0048182064)
(0.0013474796 0.011088688 0.0030832908)
(0.00041556072 0.0030524425 0.0011976633)
(-0.00045512317 -0.0030109231 -0.00021317148)
(0.00055511125 0.0022986941 -0.00082473553)
(-0.0010745656 0.010849329 -0.0021785988)
(-0.005731765 0.011032461 -0.0011516268)
(-0.0029373703 0.0083192807 -0.0007993294)
(0.0002642448 0.010956313 0.0014530917)
(0.00301911 0.007812884 0.0017347386)
(0.0025555049 0.0068836739 0.00086217298)
(-0.00018462552 -0.0019781663 -0.0013150171)
(-0.00054476816 0.0041765821 0.00023065249)
(-0.0034174809 0.0067187313 0.0013943112)
(-0.0011693549 0.0078355171 0.0026886901)
(0.00031714624 0.0098602542 0.0014475294)
(0.0019000096 0.0079485839 -0.0034450956)
(0.0039361297 0.0051772921 -0.0026172167)
(0.0066930486 0.010908571 0.000658103)
(-0.003182054 0.013576129 0.00089276817)
(-0.0027292986 0.0095740602 -0.00020710509)
(0.00021229933 -0.008605664 -0.0029759101)
(0.0032031193 -0.0079642627 -0.0012759187)
(0.0054501391 -0.010926064 0.00019902248)
(0.0053439121 -0.011313048 0.00070909753)
(-0.0023096942 -0.0099737906 0.00067346449)
(-0.0012900735 -0.0050727601 -0.00063915249)
(0.00067859887 -0.0097501627 -0.0022053501)
(0.0011428255 -0.0045122987 -0.0027364547)
(0.0034646885 -0.0051653063 -0.0022853277)
(0.0041490628 -0.0089067712 -0.0030345833)
(0.004531387 -0.0095101879 -0.0039160397)
(0.0048519606 -0.010246756 -0.0038005378)
(-0.0018619645 -0.010362968 -0.00029838809)
(-0.0062898654 -0.0083543396 0.0016994325)
(-0.0050568277 -0.0052397979 0.0020925353)
(-0.0039040876 -0.0040231524 0.0010046407)
(-0.0024563965 -1.1860908e-05 0.0010752555)
(0.0011479646 0.0042663879 0.0015076032)
(0.0042322927 -0.00041171654 0.0014736227)
(0.0054524595 -0.008440531 -0.00013214839)
(0.00247365 -0.010639503 -0.0031226246)
(-0.0023208378 -0.009186062 -0.0043481198)
(-0.0016977016 -0.0099588615 -0.0034247837)
(-0.0030768665 -0.0063908164 -0.000330463)
(0.00032927562 0.0011831556 0.0016480361)
(0.0039645786 -0.0054597819 0.0012141876)
(-0.00071440048 -0.011446429 -0.0019065632)
(-0.0038168182 -0.0071135483 -0.0033058096)
(-0.002879837 -0.001496084 -0.002859789)
(-0.00045589594 -0.0013399526 -0.0024287062)
(-0.00082646646 -0.018898135 0.00080764608)
(0.00062627115 -0.013052257 -2.0904778e-05)
(0.0017665509 -0.014963335 -0.00066896109)
(0.00058832853 -0.015434034 0.00012965531)
(0.00029303675 -0.016101733 0.0011829944)
(-0.00094850802 -0.015475811 0.0030612188)
(-0.0025549642 -0.016151483 0.0024974886)
(-0.0036637548 -0.015166336 0.0019446723)
(-0.0048863629 -0.013973027 0.001575199)
(-0.0048753064 -0.012715125 0.0010205429)
(-0.0020880775 -0.012747585 0.00075160796)
(0.0024576757 -0.01462618 0.002962068)
(-0.001556722 -0.014807364 0.0023885386)
(-0.0017243039 -0.01147433 0.00031129274)
(0.0018058197 -0.010452814 0.001068244)
(0.0015342739 -0.014623307 0.002621247)
(-0.0010442995 -0.01760839 0.0024184058)
(-0.0022407757 -0.01663078 0.00078794877)
(-0.0034174442 -0.017140174 -0.0023115398)
(-0.0034365699 -0.018171441 -0.0029629115)
(-0.0031122045 -0.018008252 -0.0012330835)
(-0.0022517265 -0.017972637 -0.00067572769)
(-0.0026005086 -0.017961577 -1.5274629e-05)
(-0.00013275081 -0.011453699 -0.0014808064)
(0.0023685752 -0.015949133 -0.0013399898)
(0.00086308116 -0.019125878 -0.0024275871)
(0.00096934516 -0.017921177 -0.0012685907)
(0.00077630749 -0.017324566 -0.0030397773)
(0.0011929442 -0.018154644 -0.00370526)
(0.0005131526 -0.016561284 -0.0034842608)
(-0.0023847425 0.019624506 -0.0010764288)
(-0.00026627947 0.0082419825 -0.0017125581)
(0.0033893528 0.016426766 -0.0011539654)
(0.0033380426 0.017106823 0.00066290431)
(0.002888596 0.017483551 0.003658609)
(0.0018759639 0.017181617 0.0051662343)
(0.00023539482 0.017984672 0.0043170388)
(-0.0027801168 0.017338198 -0.0023646369)
(-0.0053933362 0.015532872 -0.0017942322)
(-0.0039524001 0.007048522 -0.0020106642)
(-0.0014458299 -0.0029230106 -0.0013948932)
(0.0012218043 0.010559458 0.0020298795)
(-0.00091079711 0.016798417 0.0029635845)
(0.0011145423 -0.0010821005 -0.0014630454)
(0.0023404324 -0.00071247456 -0.0022329673)
(0.0065076718 0.014577876 -0.0012600197)
(0.0037585108 0.018871948 -0.0025222386)
(-0.0026823049 0.018523847 -0.0028926334)
(-0.0021361598 0.018214571 -0.0047785462)
(0.00059238913 0.018151727 -0.0044109945)
(0.0032626034 0.019217649 0.0012091177)
(-0.0022545338 0.018914953 0.0034461577)
(-0.0046014803 0.018260581 0.00043833237)
(-1.6667655e-05 0.00083135194 -0.00032503981)
(0.0045232027 0.016762403 -0.0035321315)
(0.0028856643 0.020122198 -0.0045563951)
(-0.0024642969 0.019523226 -0.0026926797)
(-0.00066588574 0.018634076 -0.0033704952)
(0.0029330801 0.01955526 -0.0046231271)
(0.0041157159 0.018480204 -0.0034293969)
(0.0029998558 -0.012348381 -0.0017363995)
(-0.00078930367 -0.015299492 -0.0032410962)
(-0.0035373916 -0.0098839543 -0.0015160798)
(-2.1329158e-05 -0.0016591321 0.00052972962)
(0.0026900899 -0.0022553394 0.0013081158)
(0.0029840503 -0.00059165754 0.0019640806)
(0.0016541461 0.0036503684 0.0026924613)
(0.00017515878 0.0047593097 -0.0015193161)
(-1.3346405e-05 -0.0031616114 -0.0024540707)
(0.0042308584 -0.014166007 -0.0029739564)
(-0.00084894038 -0.015926887 -0.0034239725)
(-0.0051054113 -0.015462592 -0.0020774169)
(-0.0010547622 -0.013459535 -0.0017566893)
(0.0022927409 -0.014158118 -0.0028139068)
(-0.0015158973 -0.013999606 -0.0047109002)
(-0.0037287456 -0.013556998 -0.0059822285)
(0.00058700946 0.0018706646 -0.0035794301)
(-0.0012502243 0.0024860134 -0.0012155415)
(0.0035014791 -0.015431881 0.0021147645)
(1.3947879e-05 -0.019177614 0.0039251899)
(0.0013147566 -0.0072632862 0.0025934776)
(-0.0018484201 0.0033814996 0.0010820489)
(0.0039538603 -0.015510048 -0.0035481497)
(-0.0012947476 -0.014624542 0.0024935738)
(-0.0049729018 -0.0076978366 0.00044106542)
(0.0015439656 0.0045841049 -0.0026687194)
(-0.00038084712 0.0036664706 -0.0015588936)
(0.003585326 -0.013896551 0.0028678064)
(-0.0017179721 -0.01871919 0.0049697207)
(0.0012896079 0.0030898394 -0.0014964664)
(-0.0010286914 0.01250703 -0.00026878772)
(-0.0046053109 0.011790623 -0.0004008225)
(-0.006654928 0.0095523478 2.8255903e-05)
(-0.0028925184 0.0036622099 -0.00051328465)
(0.0011647823 0.0061736505 0.00018386374)
(0.003143365 0.0078178768 0.00027527648)
(0.0020009147 0.0086153745 0.0020556257)
(0.0021179782 0.0086982888 0.001206437)
(0.0037054934 0.0072195338 0.0011899701)
(0.0045103438 0.0095788979 0.0019770444)
(0.0027768805 0.010900771 0.0017931428)
(0.00036749338 0.01083917 0.0018925884)
(0.0011648585 0.0035927986 -0.00058386637)
(0.0011271365 -0.0028983456 -0.0013397263)
(-2.6548294e-05 0.0012992045 -0.000558635)
(-0.0031417734 0.011521495 -0.0039130008)
(-0.0028398246 0.0085196109 -0.0028117432)
(0.0011191863 0.0088800245 0.00091885394)
(0.0036480573 0.013642053 0.0030807808)
(-0.00035400726 0.012974711 0.0033178597)
(-0.0028036166 0.0089769717 0.0047817587)
(0.00059412012 0.0081394556 0.00017618088)
(0.0023904042 0.013305209 -0.00044771788)
(-0.0042121277 0.010601109 0.0048846053)
(-0.0046055508 0.0093760488 0.0036355505)
(0.00057516401 0.0048994771 -0.00012903512)
(0.0043485682 0.0075104891 -0.00066689355)
(0.0077354995 0.011479566 -0.00080809249)
(-0.0018178943 0.012885356 -0.0013297726)
(-0.0020899851 0.0091600918 -0.00061060462)
(0.0013703272 -0.00012717258 -0.0019158983)
(0.0029938866 -0.0032396844 -0.0023604604)
(0.0053172357 -0.0083709374 -0.0027677606)
(0.0042136356 -0.010121156 -0.0026598368)
(-0.0012293554 -0.0091077217 -0.00093174584)
(-0.00080814701 -0.0017743116 0.0014851391)
(0.00030199478 0.0021021301 0.00032327109)
(0.0023981741 0.0017065775 -0.0011312776)
(0.003576951 -0.0015772695 -0.0014059477)
(0.0033245413 -0.0046266533 -0.0017888285)
(0.0036235399 -0.0044733719 -0.0018835169)
(0.00493121 -0.0062866971 -0.0013606626)
(0.0048386117 -0.0098571847 -0.0018037936)
(0.00051210944 -0.010402715 -0.0025252274)
(-0.0047364865 -0.0095918731 0.0017325699)
(-0.0038957149 -0.0066055914 0.0024086262)
(-0.0027087658 -0.0029082021 0.0023946101)
(-0.00064616996 -0.0019372332 0.0043337777)
(0.00011952237 -0.0089982851 0.0029780001)
(0.00082968806 -0.012038286 -0.0016760956)
(-0.00085606241 -0.0093361975 -0.0048561588)
(-0.002246356 -0.00067639316 -0.0032498262)
(0.0017176325 -0.0023736259 -0.0027488709)
(0.0030505408 -0.005256491 -0.0012806829)
(0.0040150277 -0.0099033173 -0.00022250879)
(0.0036159792 -0.010259065 0.0019292854)
(-0.0032303591 -0.0076499601 0.0022234783)
(-0.00064769145 -0.0020491994 0.0016495783)
(-0.0027171696 -0.002530349 0.0010175335)
(0.00010029979 0.00028818026 0.00052342988)
(0.00029735004 -0.016026473 -0.0028614094)
(-0.0004216499 -0.015318865 -0.0030608896)
(0.0003355998 -0.013121271 -0.0039949863)
(0.00037818172 -0.01291024 -0.001840303)
(-0.00073629123 -0.015285434 -0.00059841551)
(-0.00024267463 -0.014559947 0.0023327945)
(-0.0013323912 -0.014165732 0.00012740948)
(-0.0014975424 -0.014351074 -0.0020426971)
(-0.0016667768 -0.014815706 -0.0016156809)
(-0.0026001074 -0.016435509 0.00053725374)
(-0.0022490434 -0.016111509 0.0022018043)
(-0.00024779602 -0.016281208 0.0026229456)
(-0.001468611 -0.016804293 0.0019743467)
(-0.0014105034 -0.01686056 0.0031849763)
(-0.0010607377 -0.015672112 0.0029476404)
(-0.0016537219 -0.015733372 0.0017043529)
(-0.0020941788 -0.015066826 0.00013731961)
(-0.0041207922 -0.01173183 -0.0015439452)
(-0.003756283 -0.01056079 -0.0011435403)
(-0.00063441362 -0.013103815 -0.0006198152)
(0.00095943221 -0.01509911 -0.0030140506)
(-0.00033348228 -0.021549056 -0.0027025951)
(-0.0021133266 -0.019766203 -0.0015177217)
(0.00021409963 -0.012857497 0.00055658095)
(0.0019083866 -0.017006988 -0.0029142432)
(0.0016733091 -0.017230931 -0.0031138556)
(-0.00087680871 -0.014012991 -0.003069419)
(-0.00035618078 -0.011457957 -0.0019604734)
(0.0018734975 -0.012470118 -0.00097646642)
(0.0018711826 -0.016227442 -0.0022833093)
(-0.0011250848 0.017691884 -0.00056516183)
(-0.0014205925 0.01671886 -0.0031424685)
(-0.00027137336 0.012992269 -0.0044147078)
(0.002727018 0.015261512 -0.0038860629)
(0.00046719037 0.016887751 -0.0022075776)
(1.1956246e-05 0.0166538 0.00035286749)
(-0.0011242255 0.016015688 -0.002993612)
(0.00032099934 0.015359332 -0.0063362857)
(-0.00070384234 0.016665603 -0.0027255551)
(-0.0019825401 0.018065373 0.0034925959)
(-0.00065692907 0.01516154 0.0062561053)
(-0.00033361751 0.017463161 0.0062223593)
(-0.0021420495 0.018383543 0.0037200867)
(-0.001271711 0.017368054 0.0044572068)
(0.0025959076 0.017326827 0.0037110282)
(0.0015163509 0.017764524 0.0015077456)
(-0.0013376062 0.016833761 -0.0033014593)
(-0.0035163823 0.014316391 -0.0031501393)
(0.0025220783 0.0010480357 -0.00027501634)
(0.0024913296 -0.0019069526 0.0012641013)
(0.0073185172 0.010844905 5.359834e-05)
(0.0067417413 0.020811468 -0.00036031605)
(-0.0065936452 0.018639887 6.9084918e-05)
(-0.00059599782 0.0023587515 -0.0010065578)
(0.0025418306 0.015398184 -0.0046181554)
(0.0019548299 0.017850327 -0.0064591061)
(-0.0040156215 0.014819706 -0.0061898154)
(0.0025058444 0.0034035844 -0.00052686815)
(0.0023238095 0.0027913363 0.0021303557)
(0.0064458906 0.01621208 0.00044741052)
(0.00091489095 -0.0066866809 0.0003904864)
(0.00083111882 -0.013261521 0.00068227453)
(-0.0029064749 -0.014753137 0.0012751681)
(-0.0024663858 -0.0037898591 -0.0014252642)
(-0.00082204757 -0.00035800019 -0.0015100907)
(0.0020861609 -0.0012014272 0.00087462324)
(0.0026561068 -0.0058539837 0.0024872586)
(0.0028883958 -0.014277849 0.0048174807)
(0.00012817345 -0.0078649957 7.1130903e-06)
(0.0012840284 -0.01575127 -0.0022065435)
(-0.0024043373 -0.016545312 -0.0043247411)
(-0.0032761496 -0.0099181548 -0.0011465631)
(-0.00059327982 -0.0072960993 0.0010478287)
(0.0018159221 -0.017103733 -0.0033644903)
(-0.0022623302 -0.014411706 -0.0034431792)
(-0.00088524332 -0.0038967666 -0.0019946837)
(0.00055783373 -0.0096170514 -0.0012532085)
(0.005971833 -0.01369277 -0.00070963432)
(0.0071454736 -0.01462671 0.00085192207)
(0.0011575944 -0.016201494 0.0041690311)
(-0.0041246663 -0.013323732 0.0058389403)
(0.0018363515 0.0088800539 -3.469616e-05)
(-0.0018165733 0.00029638032 0.00047678682)
(0.0018468293 -0.016543902 -0.0016566375)
(-0.0057865441 -0.016384177 0.0018021872)
(0.0019819218 -0.0036670414 -0.00039960968)
(0.0027513377 -0.011465967 0.0025977339)
(0.006260087 -0.013955061 0.0029926419)
(-0.001043881 -0.016033357 0.0046052178)
(0.00057769522 -0.0013658131 0.0021376676)
(0.00093981691 0.0095935164 -0.0023095834)
(-0.00059091344 0.012666485 -0.00079066383)
(-0.004898489 0.012108927 -0.00070824281)
(-0.0050600736 0.0084813301 0.00094397685)
(-0.00052475923 0.0067751608 0.00042347778)
(0.0041017598 0.0083730036 0.0017178613)
(0.0052731588 0.0093178772 0.0035532411)
(0.0032981334 0.011812939 0.0041861299)
(-7.5524723e-05 0.0095257439 0.00044703695)
(0.0026507066 0.013615145 -0.0020263963)
(-0.0010019477 0.01394935 -0.0045055973)
(-0.00082537577 0.0077510236 -0.0040329779)
(0.0020839712 0.0033424461 -0.0022702036)
(0.0038919445 0.01157265 0.00096314852)
(-0.0045123562 0.011102256 0.0014185257)
(-0.0017996643 0.0034649384 -0.00039727544)
(-0.0005901285 -0.00017779863 0.0021849475)
(0.00065407974 0.0019574708 0.00098531984)
(0.0010505396 0.0069326218 5.3362794e-05)
(-0.00017052655 0.011312671 0.001951143)
(-0.0055012796 0.011351848 0.0022333452)
(-0.0015039983 0.010878915 0.00047724153)
(0.0012306534 0.0093374863 -0.0019484486)
(0.0028354476 0.010438153 0.0035232998)
(-0.0032655877 0.011947569 0.0011158187)
(0.0013063747 0.0022560568 0.0033290908)
(0.0015624108 0.00055079807 0.0026453853)
(0.0035758415 0.0049670159 -0.00049361158)
(-0.0020809989 0.0099834731 0.00038426288)
(-0.0019557166 0.00809465 0.0017248148)
(-1.9398276e-05 -0.0032756944 0.0023275687)
(0.0013250033 -0.0035170587 0.0011701232)
(0.001996141 -0.0028918651 0.00018731429)
(0.0034042226 -0.0072794065 0.0012479012)
(-0.00070054102 -0.0094240456 0.002688713)
(-0.0019814961 -0.0041980239 0.0036656745)
(-7.7583071e-05 -0.00012879127 0.003919464)
(0.0021592085 -0.00091372873 0.0034955009)
(0.0032996584 -0.0045355247 0.0026598465)
(0.0023080296 -0.010516464 0.001987134)
(0.0029257172 -0.0068661953 -0.00120143)
(0.0053626697 -0.010228068 -0.0016922527)
(0.00041863714 -0.012264482 -0.0030394986)
(-0.0017387956 -0.0054007768 -0.0022336498)
(0.00074087373 -0.0043073945 -0.0018126091)
(0.0022755466 -0.010288643 0.0015947688)
(-0.0026522556 -0.010054184 0.0032746774)
(-0.0043757221 -0.0096845933 0.0037818196)
(-0.0062090463 -0.0089297955 0.0034375468)
(-0.0048559825 -0.0033691225 0.0016281714)
(-0.0042704445 -0.0011045681 0.00060574006)
(-0.0011341075 0.0040013206 -3.9522666e-05)
(0.0019410481 -0.00075799044 -0.0017814065)
(0.003672085 -0.0023584866 0.0012757145)
(0.0043535568 -0.0044834814 0.0016229508)
(0.0058298163 -0.0084928347 0.002499119)
(-0.00089395632 -0.010562147 0.0039032052)
(-0.0034721394 -0.007878581 0.0051768286)
(-0.0032271868 -0.0056821604 0.004650266)
(-0.00096950918 -0.0026522871 0.0034410061)
(-0.0013859712 -0.015518934 -0.0036535199)
(-0.0018592663 -0.012623365 -0.0036927492)
(0.00019494433 -0.010705449 -0.0030576011)
(0.0010614493 -0.01208668 -0.0040275993)
(-0.0018440755 -0.016635822 -0.0027018144)
(-0.0021335215 -0.013171204 -0.0012523965)
(-0.0029903622 -0.010418918 -0.00039269334)
(0.00037888589 -0.011921414 -0.00054452968)
(0.0024698869 -0.011616579 -0.0018365583)
(0.0023751181 -0.015170437 -0.0022686022)
(0.00079405405 -0.016405408 -0.002764603)
(0.0003390406 -0.016808997 -0.0020962331)
(-0.00068844609 -0.01767153 -0.00085463151)
(-0.0022561888 -0.015784176 -0.0016682911)
(-0.0025731387 -0.011183697 0.00064375356)
(-9.6710668e-05 -0.0134203 0.0019793586)
(0.0019029717 -0.012581753 0.0011142112)
(0.0016427698 -0.017630011 0.00053863652)
(-0.0012827856 -0.021228923 -0.0011303321)
(-0.0028452654 -0.01832511 -0.00060483015)
(-0.0023483231 -0.012029669 -0.0028656823)
(-0.00066180452 -0.012829724 -0.0024380638)
(-0.00037173458 -0.01260038 -0.0011140713)
(0.00208775 -0.012988286 -0.001247145)
(0.0030885743 -0.014142696 -0.00028190423)
(0.0022221627 -0.017552698 -0.00041624433)
(-0.0056032477 0.015907359 -0.0016610385)
(-0.0025157395 0.0064304787 -0.0003722037)
(-0.0027137888 0.0012823003 -0.001198374)
(0.0039254561 0.013783699 -0.0044313897)
(-0.00082613069 0.018048306 -0.0031083649)
(-0.0032927405 0.015496795 -0.0014137678)
(0.0001210975 0.0071601522 0.00091762532)
(0.0023761726 -0.00081364819 0.0017147566)
(0.0035740467 0.0041320649 0.00027141489)
(0.0058902863 0.015774201 0.00096807695)
(0.0038123944 0.018268358 0.0021091982)
(-0.0024658194 0.018788493 0.0022236387)
(-0.002953362 0.017600005 0.00032579533)
(-0.0025452415 0.017092258 0.00022632417)
(0.00042550181 0.0032773225 0.00038523081)
(0.0022767161 7.736055e-05 0.00011771774)
(0.0036567324 0.0019059692 -0.001441132)
(0.0070150448 0.015733098 -0.0040247869)
(-0.0029602052 0.022000307 -0.0043835589)
(-0.0063899158 0.018032603 -0.0019634952)
(-0.0021517212 0.0020388078 -0.0033290988)
(-0.00036075028 0.0026456701 -0.0024395948)
(-0.00022653155 -0.0012210637 0.0001018874)
(0.0024779981 0.0009918074 -0.0011414909)
(0.0040846505 0.0085671513 0.00042460186)
(0.0063079436 0.017841106 -0.00024302206)
(-0.0013008609 0.0013744219 -0.00044358493)
(0.0024571975 -0.014464251 0.0039307621)
(-0.0063077684 -0.013905277 0.0008237422)
(-0.0051243107 -0.010288703 0.00019252755)
(-0.00083073885 -0.0016428404 -0.0018980679)
(0.0043057381 -0.007615816 0.00029074881)
(0.0064191003 -0.012683147 0.0021933491)
(0.0037527265 -0.014718657 0.0042756368)
(-0.0023003027 -0.013090768 0.0026563887)
(-0.0016003365 -0.010160087 0.0027715885)
(0.0014837888 0.0052039684 0.0013394621)
(-0.0029153756 0.0043586734 0.0020565023)
(0.0024471118 -0.018977677 0.0029829904)
(0.0041762527 -0.014634324 -0.0012180014)
(0.005256313 -0.014416566 -0.0021632687)
(0.0037439964 -0.015530171 -0.0029263825)
(-0.0035638476 -0.0149316 -0.0022002754)
(-2.5145758e-05 -0.0017508428 -0.00073489185)
(-0.003091822 0.0088719524 -0.0025562203)
(0.0022356041 -0.013141012 -0.005937757)
(0.00078662843 -0.014278902 -0.0023926955)
(0.0011636516 -0.0143059 0.0010006258)
(0.00016002767 -0.014916399 0.0027535037)
(0.0010545959 -0.014230794 0.00046938336)
(-0.0035288454 -0.014110176 0.00052014922)
(0.0020575272 3.1127096e-06 0.00028984131)
(0.00181936 0.0079914517 -0.0013419701)
(0.0031339106 0.011148094 -0.0018037751)
(-0.0023917329 0.0087210047 -0.0031708781)
(-0.0017381956 0.0036906041 0.00025406705)
(0.0015925933 0.0016011564 0.00061455419)
(0.0048080758 0.0059935256 0.00028751705)
(0.0049935613 0.0089018872 -0.00015082511)
(0.00097252746 0.010229025 -0.0014939247)
(-0.00052445373 0.0030838032 0.00011195215)
(-0.0033287474 0.0023278301 -6.4312237e-05)