/*--------------------------------*- C++ -*----------------------------------*\
| =========                 |                                                 |
| \\      /  F ield         | OpenFOAM: The Open Source CFD Toolbox           |
|  \\    /   O peration     | Version:  v2012                                 |
|   \\  /    A nd           | Website:  www.openfoam.com                      |
|    \\/     M anipulation  |                                                 |
\*---------------------------------------------------------------------------*/
FoamFile
{
    version     2.0;
    format      ascii;
    class       volScalarField;
    location    "740/bottomWater";
    object      p;
}
// * * * * * * * * * * * * * * * * * * * * * * * * * * * * * * * * * * * * * //

dimensions      [1 -1 -2 0 0 0 0];


internalField   nonuniform List<scalar> 
1460
(
353.49769
353.49385
353.51386
353.47486
353.48437
353.48901
353.51111
353.49906
353.49218
353.50332
353.492
353.508
353.4972
353.50133
353.49728
353.51349
353.51043
353.51111
353.5011
353.52949
353.52795
353.53582
353.54256
353.54461
353.53845
353.53641
353.54117
353.54686
353.54403
353.53985
274.40681
274.41851
274.45774
274.42792
274.42844
274.44729
274.48458
274.44523
274.40685
274.39805
274.41633
274.43007
274.39919
274.39047
274.41379
274.42167
274.38676
274.38538
274.38724
274.45212
274.45717
274.44972
274.42598
274.39386
274.35598
274.39287
274.41031
274.45403
274.42375
274.40086
196.31496
196.29258
196.24888
196.31496
196.32833
196.26685
196.27628
196.26043
196.3029
196.29395
196.31847
196.27039
196.35477
196.29209
196.31182
196.25515
196.33277
196.29306
196.27671
196.25528
196.29459
196.28144
196.28315
196.28108
196.28798
196.30574
196.27962
196.30486
196.29839
196.31872
117.69063
117.65135
117.65191
117.67699
117.68469
117.66619
117.64513
117.64779
117.67034
117.70513
117.6652
117.68368
117.67156
117.67299
117.62893
117.64864
117.64793
117.69083
117.65204
117.65968
117.70103
117.68433
117.67472
117.61061
117.68434
117.60855
117.67574
117.67378
117.63853
117.62676
39.263356
39.259552
39.253525
39.235173
39.241074
39.237209
39.261808
39.241616
39.236561
39.249139
39.242233
39.231136
39.256761
39.2511
39.282783
39.263311
39.249164
39.249175
39.243023
39.237771
39.233849
39.24172
39.230543
39.265442
39.260067
39.276564
39.244035
39.243643
39.239359
39.265086
353.49248
353.50157
353.49344
353.48612
353.48863
353.48291
353.48988
353.48587
353.485
353.49219
353.49867
353.48586
353.4895
353.49281
353.51902
353.51667
353.51941
353.51745
353.51007
353.51438
353.5277
353.52809
353.52978
353.53318
353.53597
353.54055
353.52524
353.54909
353.53355
353.53909
274.40432
274.43329
274.42589
274.40282
274.3982
274.40381
274.42599
274.4118
274.40858
274.41784
274.42725
274.41191
274.41065
274.41924
274.47251
274.42312
274.37327
274.37648
274.36915
274.40497
274.41677
274.39434
274.37017
274.34722
274.34899
274.35196
274.35265
274.40768
274.37876
274.35553
196.32958
196.27993
196.31278
196.30499
196.34991
196.30789
196.31206
196.31116
196.30037
196.28034
196.29071
196.3244
196.31875
196.27642
196.26375
196.27177
196.30879
196.33455
196.28829
196.27122
196.28773
196.27924
196.28808
196.30234
196.33379
196.32767
196.29868
196.26561
196.28795
196.31095
117.67113
117.65256
117.63108
117.65257
117.64807
117.62952
117.60496
117.64518
117.63667
117.63802
117.66031
117.68132
117.67327
117.64798
117.64644
117.64202
117.65225
117.67127
117.65809
117.60977
117.65707
117.63183
117.6287
117.64533
117.67442
117.66912
117.63719
117.64011
117.60541
117.68028
39.250101
39.250345
39.278325
39.250875
39.2425
39.248108
39.274757
39.25247
39.242679
39.241445
39.219446
39.232576
39.239244
39.232839
39.259834
39.264815
39.261152
39.281277
39.256207
39.262685
39.239182
39.243388
39.266068
39.257151
39.2802
39.270866
39.258496
39.255264
39.274225
39.270435
353.49693
353.50736
353.48449
353.49297
353.49423
353.49428
353.49748
353.49134
353.49229
353.51426
353.49887
353.49127
353.48797
353.49873
353.51283
353.51092
353.5131
353.51299
353.51299
353.51202
353.51933
353.52731
353.52695
353.55127
353.52672
353.53872
353.53169
353.5302
353.52928
353.53209
274.40594
274.43577
274.40938
274.39241
274.39222
274.3925
274.39419
274.39221
274.40883
274.47686
274.45409
274.41543
274.41661
274.43571
274.4412
274.38358
274.36829
274.36922
274.38805
274.38332
274.3703
274.36153
274.35867
274.40771
274.37709
274.35307
274.35246
274.3722
274.36379
274.35154
196.32692
196.25517
196.30446
196.30578
196.35485
196.32752
196.32008
196.27455
196.26125
196.24927
196.24013
196.27342
196.32619
196.28065
196.27015
196.28501
196.32212
196.34373
196.32657
196.33032
196.31691
196.32877
196.33347
196.28439
196.31073
196.31861
196.31986
196.33249
196.33441
196.35716
117.6712
117.65955
117.64332
117.68363
117.69836
117.68362
117.68042
117.66433
117.64588
117.65669
117.65175
117.63879
117.66729
117.66291
117.63715
117.62335
117.65531
117.67111
117.60286
117.65924
117.65908
117.66813
117.67259
117.65557
117.63613
117.70652
117.69203
117.62105
117.61641
117.67309
39.262228
39.27528
39.273632
39.246647
39.260971
39.264118
39.271835
39.256534
39.256432
39.257498
39.251606
39.245104
39.243267
39.232027
39.241631
39.259645
39.258639
39.273171
39.276922
39.259012
39.264539
39.265224
39.27932
39.293109
39.278161
39.261128
39.255901
39.276906
39.297125
39.279048
353.49928
353.50899
353.48613
353.49334
353.4952
353.49341
353.49133
353.48958
353.49879
353.51673
353.49209
353.49329
353.49468
353.49138
353.49524
353.49993
353.50091
353.49737
353.51816
353.52441
353.52689
353.52712
353.53512
353.53095
353.5404
353.53662
353.52358
353.53667
353.536
353.53535
274.39986
274.44441
274.40829
274.39163
274.38999
274.38945
274.39064
274.39916
274.44902
274.46898
274.40172
274.39212
274.39368
274.40632
274.4124
274.39503
274.39022
274.39336
274.42694
274.42985
274.38701
274.35733
274.35394
274.35951
274.40384
274.39685
274.37282
274.41107
274.40337
274.36326
196.33301
196.26107
196.30982
196.31482
196.35093
196.337
196.30602
196.27003
196.26196
196.24965
196.26602
196.3014
196.29434
196.31808
196.29046
196.32505
196.30601
196.28949
196.27627
196.26843
196.27588
196.3047
196.33846
196.333
196.27994
196.30989
196.29792
196.29228
196.2568
196.30716
117.67685
117.65517
117.6446
117.67828
117.68283
117.67465
117.66993
117.64575
117.65861
117.66536
117.65804
117.67946
117.68896
117.66077
117.65169
117.66547
117.65724
117.63572
117.66351
117.64405
117.62171
117.65002
117.66439
117.64724
117.62387
117.59451
117.63341
117.65184
117.6132
117.64911
39.264504
39.277544
39.278837
39.255478
39.268072
39.266134
39.267566
39.258176
39.256169
39.264257
39.259759
39.248517
39.250202
39.23082
39.253331
39.239857
39.241691
39.26669
39.237495
39.247719
39.261047
39.255906
39.282489
39.271249
39.273612
39.269481
39.22545
39.230334
39.243121
39.241693
353.4876
353.50082
353.48455
353.49402
353.48924
353.48684
353.48339
353.49637
353.50476
353.49898
353.49214
353.49589
353.49132
353.52173
353.52758
353.53109
353.54625
353.53827
353.54092
353.53992
353.53296
353.54859
353.53857
353.55288
353.54241
353.54391
274.41632
274.43726
274.40647
274.39224
274.39694
274.39416
274.40426
274.4471
274.45766
274.40399
274.38798
274.39211
274.41187
274.39728
274.41053
274.45812
274.457
274.40245
274.35562
274.35499
274.38596
274.41784
274.43028
274.44386
274.40081
274.36879
196.31077
196.25053
196.30107
196.30885
196.31375
196.27938
196.2685
196.24947
196.26607
196.28508
196.28981
196.33496
196.32835
196.33781
196.28714
196.25813
196.25591
196.25975
196.30493
196.31173
196.29814
196.29107
196.28352
196.29362
196.28342
196.32027
117.66979
117.64669
117.64086
117.68836
117.67038
117.65544
117.63895
117.64718
117.6741
117.66021
117.66818
117.6694
117.63432
117.68236
117.66141
117.64951
117.65776
117.64914
117.66639
117.67689
117.61276
117.66646
117.67201
117.69379
117.64409
117.67181
39.251119
39.262086
39.251561
39.243724
39.245855
39.244945
39.255794
39.253327
39.244682
39.247346
39.254173
39.265196
39.288981
39.241918
39.222154
39.249371
39.266238
39.260017
39.262212
39.260123
39.24101
39.226661
39.231296
39.23663
39.230397
39.243917
353.50045
353.51855
353.49884
353.50105
353.49231
353.49345
353.49965
353.51424
353.51352
353.50368
353.50607
353.50436
353.50802
353.51196
353.51715
353.51319
353.51106
353.52882
353.53105
353.52842
353.52005
353.53918
353.52769
353.54742
353.54904
353.54349
274.41089
274.4344
274.40552
274.39361
274.40143
274.41107
274.44029
274.47788
274.45347
274.39901
274.38096
274.38911
274.42826
274.3766
274.37523
274.38382
274.39303
274.43025
274.42834
274.37845
274.39315
274.41612
274.43782
274.43666
274.37826
274.35785
196.2996
196.24087
196.33043
196.29328
196.30883
196.28666
196.26141
196.26286
196.27927
196.282
196.29873
196.33028
196.28231
196.32709
196.31843
196.30168
196.28771
196.29183
196.26281
196.29758
196.32461
196.27785
196.28682
196.28293
196.26064
196.30887
117.66881
117.65764
117.66735
117.70113
117.6729
117.66008
117.6534
117.66667
117.67802
117.63974
117.68189
117.67309
117.67721
117.6601
117.64258
117.63014
117.62608
117.6624
117.65407
117.67355
117.6593
117.69305
117.66525
117.66501
117.62255
117.66317
39.238997
39.241582
39.227438
39.232853
39.231758
39.231123
39.233158
39.239584
39.233203
39.243959
39.257727
39.262465
39.256968
39.249193
39.243237
39.261221
39.262972
39.225205
39.257172
39.230184
39.228954
39.237217
39.226895
39.228592
39.246054
39.251918
353.49116
353.48852
353.49727
353.48774
353.50235
353.50231
353.51119
353.49127
353.51266
353.49911
353.50342
353.50424
353.50293
353.50097
353.51602
353.51874
353.52501
353.52627
353.52669
353.52687
353.51494
353.51451
353.53263
353.52069
353.52131
353.51656
353.50757
353.5538
353.53565
353.54302
274.39976
274.40681
274.43312
274.42002
274.44544
274.4647
274.46385
274.40895
274.45034
274.39489
274.37755
274.38227
274.39785
274.40612
274.44504
274.45132
274.43275
274.40279
274.36369
274.36698
274.36581
274.38416
274.41988
274.37658
274.37567
274.37914
274.38442
274.42539
274.3633
274.35755
196.31627
196.29337
196.28695
196.28615
196.27936
196.28438
196.27828
196.32649
196.28089
196.29148
196.30708
196.33533
196.29648
196.28925
196.26824
196.29978
196.29741
196.30549
196.32379
196.35072
196.29586
196.30154
196.26162
196.30349
196.31894
196.30085
196.28867
196.2585
196.28228
196.31342
117.66615
117.62915
117.63986
117.64102
117.66969
117.69586
117.68622
117.65768
117.66542
117.62798
117.67561
117.67501
117.64118
117.64619
117.65946
117.66953
117.65393
117.62653
117.67319
117.68257
117.67109
117.6346
117.66026
117.6406
117.66692
117.64879
117.61394
117.64294
117.59992
117.67338
39.260186
39.269817
39.262982
39.231641
39.224911
39.236044
39.232204
39.23797
39.247625
39.263372
39.265397
39.27911
39.264274
39.266527
39.247036
39.243381
39.252433
39.265106
39.267416
39.287709
39.275572
39.275714
39.275742
39.253713
39.240979
39.232124
39.240477
39.259443
39.26574
39.268621
353.50623
353.50208
353.50165
353.5083
353.50174
353.50521
353.51024
353.49975
353.51369
353.50299
353.51073
353.50796
353.50892
353.50918
353.50784
353.52272
353.52492
353.5264
353.52407
353.52159
353.51741
353.52957
353.52
353.52107
353.52154
353.52437
353.50616
353.54552
353.5413
353.54505
274.39356
274.38856
274.42747
274.45844
274.46073
274.47257
274.46826
274.43755
274.43315
274.39984
274.37497
274.38275
274.38221
274.38257
274.39674
274.44008
274.46
274.45217
274.416
274.37851
274.37467
274.41388
274.39143
274.35909
274.36652
274.37093
274.38404
274.40013
274.34148
274.35644
196.32151
196.28386
196.26059
196.2607
196.2775
196.29232
196.27891
196.30689
196.26456
196.29938
196.30353
196.34836
196.31507
196.31087
196.26616
196.27892
196.29453
196.27406
196.2559
196.30684
196.32196
196.27402
196.30934
196.29691
196.3532
196.29528
196.30387
196.25769
196.3053
196.36065
117.68631
117.66698
117.63848
117.66109
117.65764
117.68448
117.67894
117.65066
117.6462
117.62509
117.68579
117.67707
117.68561
117.67908
117.6399
117.6845
117.66629
117.65396
117.64821
117.65849
117.67426
117.64815
117.63952
117.67123
117.68838
117.67627
117.64465
117.66564
117.65272
117.68774
39.274692
39.264146
39.260476
39.255567
39.239318
39.233278
39.233868
39.233647
39.260069
39.274072
39.27439
39.273312
39.264441
39.257745
39.251029
39.241704
39.238881
39.254671
39.258869
39.262833
39.249203
39.25994
39.281964
39.250247
39.26429
39.248928
39.27625
39.276797
39.275101
39.290095
353.49342
353.49723
353.49542
353.49328
353.49841
353.50488
353.51207
353.49937
353.50719
353.50637
353.50278
353.51244
353.49569
353.5169
353.51419
353.51102
353.52649
353.5123
353.51086
353.52257
353.51257
353.52398
353.52355
353.52038
353.52531
353.5274
353.50635
353.54736
353.54051
353.54316
274.40582
274.38552
274.38746
274.39956
274.41277
274.44995
274.44461
274.40207
274.38571
274.38353
274.40485
274.41645
274.39616
274.39134
274.37927
274.39415
274.4302
274.38816
274.39442
274.37304
274.3874
274.42196
274.42413
274.36585
274.36385
274.3717
274.37885
274.40354
274.36253
274.3491
196.31881
196.3172
196.3021
196.29164
196.27397
196.27553
196.26697
196.27622
196.29231
196.30557
196.29555
196.28265
196.30989
196.31416
196.29756
196.29066
196.25884
196.30738
196.28871
196.31961
196.28962
196.27132
196.26829
196.28699
196.32929
196.31684
196.29452
196.25796
196.2925
196.31371
117.62356
117.66873
117.67276
117.65285
117.64586
117.65857
117.64888
117.62328
117.67302
117.68578
117.63548
117.6683
117.65175
117.69325
117.67846
117.63941
117.65198
117.66302
117.64912
117.6802
117.66315
117.66928
117.64837
117.65375
117.68257
117.6745
117.60679
117.63835
117.61076
117.674
39.286197
39.255354
39.249987
39.237574
39.261766
39.231668
39.247478
39.256478
39.257217
39.266572
39.266246
39.251231
39.241649
39.255967
39.25662
39.264383
39.257314
39.236822
39.257106
39.25699
39.254958
39.240687
39.255337
39.246198
39.24527
39.235543
39.239741
39.264892
39.276698
39.279366
353.50641
353.50657
353.49621
353.49366
353.49721
353.49518
353.50086
353.49982
353.50754
353.49932
353.52087
353.51154
353.51505
353.5216
353.51627
353.51404
353.51336
353.51359
353.51899
353.51919
353.51269
353.52802
353.52203
353.51922
353.51563
353.52683
353.5072
353.53263
353.54091
353.53831
274.45775
274.44483
274.42498
274.39252
274.3891
274.40042
274.40928
274.38738
274.39703
274.40665
274.4535
274.46413
274.4491
274.43343
274.40964
274.37627
274.39543
274.36729
274.37824
274.37221
274.38468
274.43808
274.46093
274.40551
274.37974
274.38293
274.38514
274.42196
274.42785
274.38753
196.2987
196.28955
196.30226
196.29777
196.31509
196.31757
196.30764
196.31544
196.31114
196.28174
196.26058
196.29612
196.28638
196.28675
196.29789
196.30513
196.32061
196.32221
196.34283
196.31945
196.29865
196.28501
196.28568
196.27166
196.32976
196.33788
196.32333
196.28844
196.2688
196.30142
117.66256
117.66151
117.63034
117.67971
117.68221
117.63159
117.6266
117.6748
117.68139
117.63485
117.65291
117.66585
117.67827
117.67235
117.62017
117.68716
117.63026
117.67069
117.69929
117.69807
117.67761
117.69455
117.67891
117.66905
117.68409
117.70473
117.65957
117.64748
117.6191
117.61827
39.249469
39.24213
39.269941
39.261199
39.264527
39.27421
39.288322
39.27538
39.273171
39.272631
39.271704
39.244317
39.241424
39.241232
39.263694
39.266141
39.281642
39.251429
39.253356
39.252547
39.245153
39.237566
39.242413
39.245757
39.24044
39.243404
39.228295
39.2281
39.257628
39.280033
)
;

boundaryField
{
    minX
    {
        type            calculated;
        value           nonuniform List<scalar> 
50
(
353.49769
274.40681
196.31496
117.69063
39.263356
353.49248
274.40432
196.32958
117.67113
39.250101
353.49693
274.40594
196.32692
117.6712
39.262228
353.49928
274.39986
196.33301
117.67685
39.264504
353.4876
274.41632
196.31077
117.66979
39.251119
353.50045
274.41089
196.2996
117.66881
39.238997
353.49116
274.39976
196.31627
117.66615
39.260186
353.50623
274.39356
196.32151
117.68631
39.274692
353.49342
274.40582
196.31881
117.62356
39.286197
353.50641
274.45775
196.2987
117.66256
39.249469
)
;
    }
    maxX
    {
        type            calculated;
        value           nonuniform List<scalar> 
50
(
353.53985
274.40086
196.31872
117.62676
39.265086
353.53909
274.35553
196.31095
117.68028
39.270435
353.53209
274.35154
196.35716
117.67309
39.279048
353.53535
274.36326
196.30716
117.64911
39.241693
353.54391
274.36879
196.32027
117.67181
39.243917
353.54349
274.35785
196.30887
117.66317
39.251918
353.54302
274.35755
196.31342
117.67338
39.268621
353.54505
274.35644
196.36065
117.68774
39.290095
353.54316
274.3491
196.31371
117.674
39.279366
353.53831
274.38753
196.30142
117.61827
39.280033
)
;
    }
    minY
    {
        type            calculated;
        value           nonuniform List<scalar> 
292
(
392.4
392.4
392.4
392.4
392.4
392.4
392.4
392.4
392.4
392.4
392.4
392.4
392.4
392.4
392.4
392.4
392.4
392.4
392.4
392.4
392.4
392.4
392.4
392.4
392.4
392.4
392.4
392.4
392.4
392.4
392.4
392.4
392.4
392.4
392.4
392.4
392.4
392.4
392.4
392.4
392.4
392.4
392.4
392.4
392.4
392.4
392.4
392.4
392.4
392.4
392.4
392.4
392.4
392.4
392.4
392.4
392.4
392.4
392.4
392.4
392.4
392.4
392.4
392.4
392.4
392.4
392.4
392.4
392.4
392.4
392.4
392.4
392.4
392.4
392.4
392.4
392.4
392.4
392.4
392.4
392.4
392.4
392.4
392.4
392.4
392.4
392.4
392.4
392.4
392.4
392.4
392.4
392.4
392.4
392.4
392.4
392.4
392.4
392.4
392.4
392.4
392.4
392.4
392.4
392.4
392.4
392.4
392.4
392.4
392.4
392.4
392.4
392.4
392.4
392.4
392.4
392.4
392.4
392.4
392.4
392.4
392.4
392.4
392.4
392.4
392.4
392.4
392.4
392.4
392.4
392.4
392.4
392.4
392.4
392.4
392.4
392.4
392.4
392.4
392.4
392.4
392.4
392.4
392.4
392.4
392.4
392.4
392.4
392.4
392.4
392.4
392.4
392.4
392.4
392.4
392.4
392.4
392.4
392.4
392.4
392.4
392.4
392.4
392.4
392.4
392.4
392.4
392.4
392.4
392.4
392.4
392.4
392.4
392.4
392.4
392.4
392.4
392.4
392.4
392.4
392.4
392.4
392.4
392.4
392.4
392.4
392.4
392.4
392.4
392.4
392.4
392.4
392.4
392.4
392.4
392.4
392.4
392.4
392.4
392.4
392.4
392.4
392.4
392.4
392.4
392.4
392.4
392.4
392.4
392.4
392.4
392.4
392.4
392.4
392.4
392.4
392.4
392.4
392.4
392.4
392.4
392.4
392.4
392.4
392.4
392.4
392.4
392.4
392.4
392.4
392.4
392.4
392.4
392.4
392.4
392.4
392.4
392.4
392.4
392.4
392.4
392.4
392.4
392.4
392.4
392.4
392.4
392.4
392.4
392.4
392.4
392.4
392.4
392.4
392.4
392.4
392.4
392.4
392.4
392.4
392.4
392.4
392.4
392.4
392.4
392.4
392.4
392.4
392.4
392.4
392.4
392.4
392.4
392.4
392.4
392.4
392.4
392.4
392.4
392.4
392.4
392.4
392.4
392.4
392.4
392.4
392.4
392.4
392.4
392.4
392.4
392.4
)
;
    }
    minZ
    {
        type            calculated;
        value           nonuniform List<scalar> 
150
(
353.49769
274.40681
196.31496
117.69063
39.263356
353.49385
274.41851
196.29258
117.65135
39.259552
353.51386
274.45774
196.24888
117.65191
39.253525
353.47486
274.42792
196.31496
117.67699
39.235173
353.48437
274.42844
196.32833
117.68469
39.241074
353.48901
274.44729
196.26685
117.66619
39.237209
353.51111
274.48458
196.27628
117.64513
39.261808
353.49906
274.44523
196.26043
117.64779
39.241616
353.49218
274.40685
196.3029
117.67034
39.236561
353.50332
274.39805
196.29395
117.70513
39.249139
353.492
274.41633
196.31847
117.6652
39.242233
353.508
274.43007
196.27039
117.68368
39.231136
353.4972
274.39919
196.35477
117.67156
39.256761
353.50133
274.39047
196.29209
117.67299
39.2511
353.49728
274.41379
196.31182
117.62893
39.282783
353.51349
274.42167
196.25515
117.64864
39.263311
353.51043
274.38676
196.33277
117.64793
39.249164
353.51111
274.38538
196.29306
117.69083
39.249175
353.5011
274.38724
196.27671
117.65204
39.243023
353.52949
274.45212
196.25528
117.65968
39.237771
353.52795
274.45717
196.29459
117.70103
39.233849
353.53582
274.44972
196.28144
117.68433
39.24172
353.54256
274.42598
196.28315
117.67472
39.230543
353.54461
274.39386
196.28108
117.61061
39.265442
353.53845
274.35598
196.28798
117.68434
39.260067
353.53641
274.39287
196.30574
117.60855
39.276564
353.54117
274.41031
196.27962
117.67574
39.244035
353.54686
274.45403
196.30486
117.67378
39.243643
353.54403
274.42375
196.29839
117.63853
39.239359
353.53985
274.40086
196.31872
117.62676
39.265086
)
;
    }
    maxZ
    {
        type            calculated;
        value           nonuniform List<scalar> 
150
(
353.50641
274.45775
196.2987
117.66256
39.249469
353.50657
274.44483
196.28955
117.66151
39.24213
353.49621
274.42498
196.30226
117.63034
39.269941
353.49366
274.39252
196.29777
117.67971
39.261199
353.49721
274.3891
196.31509
117.68221
39.264527
353.49518
274.40042
196.31757
117.63159
39.27421
353.50086
274.40928
196.30764
117.6266
39.288322
353.49982
274.38738
196.31544
117.6748
39.27538
353.50754
274.39703
196.31114
117.68139
39.273171
353.49932
274.40665
196.28174
117.63485
39.272631
353.52087
274.4535
196.26058
117.65291
39.271704
353.51154
274.46413
196.29612
117.66585
39.244317
353.51505
274.4491
196.28638
117.67827
39.241424
353.5216
274.43343
196.28675
117.67235
39.241232
353.51627
274.40964
196.29789
117.62017
39.263694
353.51404
274.37627
196.30513
117.68716
39.266141
353.51336
274.39543
196.32061
117.63026
39.281642
353.51359
274.36729
196.32221
117.67069
39.251429
353.51899
274.37824
196.34283
117.69929
39.253356
353.51919
274.37221
196.31945
117.69807
39.252547
353.51269
274.38468
196.29865
117.67761
39.245153
353.52802
274.43808
196.28501
117.69455
39.237566
353.52203
274.46093
196.28568
117.67891
39.242413
353.51922
274.40551
196.27166
117.66905
39.245757
353.51563
274.37974
196.32976
117.68409
39.24044
353.52683
274.38293
196.33788
117.70473
39.243404
353.5072
274.38514
196.32333
117.65957
39.228295
353.53263
274.42196
196.28844
117.64748
39.2281
353.54091
274.42785
196.2688
117.6191
39.257628
353.53831
274.38753
196.30142
117.61827
39.280033
)
;
    }
    bottomWater_to_rightSolid
    {
        type            calculated;
        value           nonuniform List<scalar> 
130
(
0.0091746437
0.003022631
-0.0022290704
-0.0061505568
0.001719728
-0.0094569571
0.025441523
0.020067215
0.036564176
0.0040351599
0.0036428678
-0.00064139239
0.025086275
0.041277327
0.016207079
0.022685221
-0.00081847513
0.0033882133
0.026068309
0.017150971
0.040200118
0.030866441
0.018496101
0.015264268
0.034224646
0.030435259
0.033170614
0.036922329
0.019011559
0.024538985
0.02522433
0.039319805
0.053109003
0.03816118
0.021127659
0.015900974
0.036905873
0.05712496
0.039047908
0.026690074
-0.0025053685
0.0077194687
0.021046832
0.015905877
0.042488857
0.031249128
0.033611656
0.029480703
-0.014549763
-0.0096657431
0.0031206355
0.0016928464
0.0019175518
-0.017846117
0.0093706252
0.026238142
0.0200166
0.022212159
0.020123405
0.0010097034
-0.013338538
-0.0087041247
-0.0033699212
-0.0096028943
0.003917046
0.0091928205
0.0032373109
0.021221053
0.022971689
-0.014794585
0.017172321
-0.0098157896
-0.011045559
-0.002782731
-0.013104993
-0.011407901
0.0060544935
0.011918092
0.025106487
0.027415858
0.047708535
0.035571664
0.035713627
0.035741776
0.013713205
0.00097880296
-0.0078755923
0.00047664624
0.019442842
0.025739722
0.028621048
0.014671473
0.018869454
0.022832577
0.0092026316
0.019940014
0.041964451
0.010246504
0.024289848
0.0089275553
0.036249634
0.036796618
0.035101476
0.050095442
-0.0031779699
0.017105557
0.016990308
0.014958053
0.00068657819
0.01533711
0.0061980981
0.0052695326
-0.0044566659
-0.00025908838
0.024892064
0.036698263
0.039365536
0.011428797
0.013355658
0.012546622
0.0051530851
-0.002434495
0.0024129704
0.0057567692
0.00044035431
0.0034043223
-0.011705231
-0.011900327
0.017628409
0.040033064
)
;
    }
    bottomWater_to_leftSolid
    {
        type            calculated;
        value           nonuniform List<scalar> 
130
(
0.023355664
0.019552486
0.013525248
-0.0048265468
0.00107424
-0.002791427
0.021808244
0.0016155061
-0.0034390912
0.009139264
0.0022332134
-0.0088639606
0.016761038
0.010101339
0.01034489
0.038325249
0.010875045
0.0025003992
0.0081083337
0.034756554
0.012470389
0.0026794679
0.0014445041
-0.020554255
-0.0074242342
-0.00075646711
0.022228223
0.035280056
0.033632044
0.006646915
0.020970773
0.024118491
0.031834837
0.016534278
0.016431832
0.017498319
0.011606314
0.005104009
0.003267413
0.024503721
0.037543912
0.038836536
0.015478362
0.02807182
0.026134443
0.027566389
0.018176458
0.016169407
0.024257472
0.019758721
0.0085172119
0.010201777
0.011119306
0.022085529
0.011561244
0.003723557
0.0058546105
0.0049446319
0.015794474
0.013327212
0.0046819625
0.0073461354
0.014173403
0.0251963
0.048980771
-0.0010031292
0.0015824032
-0.012561914
-0.0071474936
-0.0082416622
-0.008877212
-0.0068420712
-0.00041606653
-0.0067968681
0.0039590037
0.017727468
0.022465438
0.016967654
0.020185972
0.029816576
0.02298154
-0.0083592515
-0.015089308
-0.0039559388
-0.0077958257
-0.0020301115
0.0076248475
0.023371995
0.025396551
0.039110336
0.024274053
0.034691591
0.024146132
0.02047556
0.015566646
-0.00068231415
-0.0067216886
-0.0061321713
-0.0063526526
0.020069269
0.034072133
0.034390189
0.033312284
0.024440674
0.046196935
0.015353886
0.009986988
-0.002426129
0.021766449
-0.0083317667
0.0074779553
0.016478383
0.017216803
0.026571844
0.026245775
0.011230656
0.001649283
0.0094690747
0.002129732
0.029941141
0.021199255
0.024527396
0.034209902
0.048322339
0.035380295
0.033171052
0.032631228
0.031703907
0.0043167008
0.0014235086
)
;
    }
    bottomWater_to_heater
    {
        type            calculated;
        value           nonuniform List<scalar> 
92
(
0.011099796
0.042782628
0.023310704
0.0091639488
-0.0071611042
0.019833574
0.02481548
0.021152483
-0.0079732583
0.00163103
0.019645408
0.018639232
353.49138
353.49524
353.49993
353.50091
274.40632
274.4124
274.39503
274.39022
196.31808
196.29046
196.32505
196.30601
117.66077
117.65169
117.66547
117.65724
-0.0091801038
39.23082
0.013331326
39.253331
-0.00014325994
39.239857
0.0016909662
39.241691
353.49132
353.52173
274.41187
274.39728
196.32835
196.33781
117.63432
117.68236
39.288981
39.241918
353.50802
353.50097
353.51602
353.51874
353.51196
353.52501
274.42826
274.40612
274.44504
274.45132
274.3766
274.43275
196.28231
196.28925
196.26824
196.29978
196.32709
196.29741
117.67721
117.64619
117.65946
117.66953
117.6601
117.65393
39.256968
39.266527
39.247036
39.243381
39.249193
39.252433
0.026527017
0.0070362939
0.0033811634
0.012433245
0.017745466
0.01102856
0.0017037302
-0.001118881
0.015966925
0.016619537
0.024382769
0.017314277
0.001231638
0.023693708
0.026141399
0.041642218
)
;
    }
}


// ************************************************************************* //
