/*--------------------------------*- C++ -*----------------------------------*\
| =========                 |                                                 |
| \\      /  F ield         | OpenFOAM: The Open Source CFD Toolbox           |
|  \\    /   O peration     | Version:  v2012                                 |
|   \\  /    A nd           | Website:  www.openfoam.com                      |
|    \\/     M anipulation  |                                                 |
\*---------------------------------------------------------------------------*/
FoamFile
{
    version     2.0;
    format      ascii;
    class       volScalarField;
    location    "740/bottomWater";
    object      p_rgh;
}
// * * * * * * * * * * * * * * * * * * * * * * * * * * * * * * * * * * * * * //

dimensions      [1 -1 -2 0 0 0 0];


internalField   nonuniform List<scalar> 
1460
(
0.33769253
0.33384789
0.35385866
0.31485629
0.32437047
0.32900521
0.35110642
0.33905555
0.33217778
0.34332492
0.33200007
0.34800344
0.33719689
0.34132531
0.33727684
0.35348884
0.35043497
0.3511081
0.34109809
0.36949438
0.36795401
0.37581812
0.38255654
0.38460974
0.37844669
0.37640834
0.38116707
0.38686247
0.38403225
0.37984783
-0.27319323
-0.26148696
-0.22225888
-0.25208401
-0.25156124
-0.23271145
-0.19542383
-0.23476652
-0.27314879
-0.28195135
-0.26366846
-0.24992964
-0.28081019
-0.28952977
-0.26621115
-0.25832643
-0.29323788
-0.29462385
-0.29275505
-0.22787609
-0.22283454
-0.23028218
-0.25402342
-0.28613567
-0.32401646
-0.28713167
-0.26968868
-0.22597121
-0.25624809
-0.27913889
0.11495946
0.092583133
0.048880584
0.11495997
0.128334
0.066851552
0.076283908
0.060430041
0.10289853
0.093951434
0.11846869
0.070394827
0.15476691
0.092089318
0.1118161
0.055149163
0.13277434
0.093061576
0.076711027
0.055281678
0.094594866
0.081443451
0.083152708
0.081084994
0.08798023
0.10574244
0.079619941
0.10485912
0.09839498
0.11872275
-0.029370308
-0.068651495
-0.068087748
-0.043006847
-0.035311896
-0.053813284
-0.074872928
-0.072210481
-0.049663015
-0.01486596
-0.054801737
-0.036322824
-0.048443394
-0.04700932
-0.091070416
-0.071364817
-0.072068079
-0.029168608
-0.067959548
-0.060317373
-0.018967864
-0.035673057
-0.045277859
-0.10938694
-0.035663051
-0.11144602
-0.044262637
-0.046217911
-0.081472006
-0.093235183
0.023355664
0.019552486
0.013525248
-0.0048265468
0.00107424
-0.002791427
0.021808244
0.0016155061
-0.0034390912
0.009139264
0.0022332134
-0.0088639606
0.016761038
0.011099796
0.042782628
0.023310704
0.0091639488
0.0091746437
0.003022631
-0.0022290704
-0.0061505568
0.001719728
-0.0094569571
0.025441523
0.020067215
0.036564176
0.0040351599
0.0036428678
-0.00064139239
0.025086275
0.33247714
0.3415667
0.33343819
0.32612113
0.3286252
0.32290667
0.32988361
0.32587425
0.32500136
0.33218774
0.33867254
0.32586236
0.32949663
0.33281083
0.35901518
0.35667084
0.35941075
0.35744898
0.35006753
0.35438254
0.36769915
0.36809446
0.36978488
0.37318395
0.37597311
0.38055479
0.36524322
0.38908941
0.37355001
0.37908603
-0.27568494
-0.24671359
-0.25411013
-0.27718371
-0.28180025
-0.27618853
-0.2540061
-0.26819982
-0.2714222
-0.2621604
-0.25274511
-0.26808829
-0.26935213
-0.2607601
-0.20748698
-0.25687891
-0.30673348
-0.3035187
-0.31084919
-0.27503228
-0.26323394
-0.28565653
-0.30982645
-0.3327789
-0.33101462
-0.32803899
-0.32735406
-0.2723211
-0.30123953
-0.32447054
0.12958274
0.07993141
0.11278309
0.10499228
0.14990541
0.10788545
0.1120628
0.11116271
0.10037334
0.080337327
0.090708563
0.12439913
0.11874777
0.076422786
0.063754246
0.071765914
0.10879488
0.13454607
0.088285527
0.071216241
0.087728758
0.079243871
0.088075246
0.10234302
0.13378613
0.12767454
0.098676981
0.065612991
0.087949553
0.11094777
-0.048865687
-0.067442479
-0.088919112
-0.06742589
-0.071933611
-0.090476376
-0.11504294
-0.074819805
-0.083333652
-0.081976505
-0.059685586
-0.038676503
-0.046733681
-0.072021897
-0.073561243
-0.077978961
-0.067754144
-0.048734137
-0.06190899
-0.11023316
-0.062929117
-0.088173006
-0.091300071
-0.074665595
-0.045580417
-0.050876657
-0.082813894
-0.079888517
-0.11458862
-0.039715319
0.010101339
0.01034489
0.038325249
0.010875045
0.0025003992
0.0081083337
0.034756554
0.012470389
0.0026794679
0.0014445041
-0.020554255
-0.0074242342
-0.00075646711
-0.0071611042
0.019833574
0.02481548
0.021152483
0.041277327
0.016207079
0.022685221
-0.00081847513
0.0033882133
0.026068309
0.017150971
0.040200118
0.030866441
0.018496101
0.015264268
0.034224646
0.030435259
0.33693113
0.34735742
0.3244886
0.33297004
0.33422773
0.33428228
0.33748378
0.33133639
0.33228596
0.35426455
0.33887384
0.33126752
0.3279747
0.33872634
0.35283044
0.3509214
0.35309752
0.35298974
0.3529909
0.35201995
0.3593325
0.36731283
0.366952
0.39127189
0.36671552
0.3787246
0.37169193
0.3701967
0.36927998
0.37208703
-0.27406461
-0.24422772
-0.27061946
-0.28759417
-0.28777819
-0.28749976
-0.28580515
-0.28779029
-0.27116567
-0.20313918
-0.22591146
-0.26456595
-0.26339464
-0.24429483
-0.23880456
-0.29641802
-0.31171154
-0.3107823
-0.29195354
-0.29668351
-0.30970275
-0.31846954
-0.3213316
-0.27229128
-0.30290729
-0.32692599
-0.3275436
-0.30779951
-0.31621459
-0.32845732
0.12691932
0.055166913
0.10445855
0.10578322
0.1548464
0.12751931
0.12007963
0.074545405
0.061245747
0.049273622
0.040127891
0.073417717
0.12618757
0.080649284
0.07014743
0.085006058
0.1221207
0.14372939
0.12656605
0.13032185
0.11691445
0.12876509
0.13347347
0.084393903
0.11073252
0.11860756
0.11985727
0.132488
0.13441053
0.15716255
-0.048799216
-0.06044954
-0.076675803
-0.036369374
-0.021636484
-0.036375338
-0.039575774
-0.055666923
-0.074118016
-0.063309596
-0.068252566
-0.081206255
-0.052712517
-0.057093518
-0.08285215
-0.096646241
-0.064694047
-0.04888894
-0.11713758
-0.06075775
-0.060919248
-0.051873433
-0.047406588
-0.064431175
-0.083869023
-0.013479591
-0.027972249
-0.098952186
-0.10359032
-0.04691372
0.022228223
0.035280056
0.033632044
0.006646915
0.020970773
0.024118491
0.031834837
0.016534278
0.016431832
0.017498319
0.011606314
0.005104009
0.003267413
-0.0079732583
0.00163103
0.019645408
0.018639232
0.033170614
0.036922329
0.019011559
0.024538985
0.02522433
0.039319805
0.053109003
0.03816118
0.021127659
0.015900974
0.036905873
0.05712496
0.039047908
0.33928412
0.34898689
0.32612829
0.33334309
0.33519774
0.33340927
0.33132669
0.32958384
0.33878938
0.35673375
0.3320896
0.33328882
0.33468334
0.3313847
0.33524161
0.33993066
0.34091076
0.33736936
0.35816412
0.36441396
0.3668907
0.36711833
0.37512234
0.37095474
0.38040003
0.37662143
0.36358166
0.37667024
0.3760025
0.37534962
-0.28014123
-0.23559155
-0.27171447
-0.28837062
-0.29000841
-0.29055405
-0.28936353
-0.28083585
-0.23098399
-0.21102469
-0.27827666
-0.28787602
-0.28631531
-0.27367978
-0.26760071
-0.28497329
-0.28977608
-0.28664432
-0.2530568
-0.25014856
-0.29299255
-0.32266924
-0.32606128
-0.3204929
-0.27616193
-0.28314761
-0.30718242
-0.26892966
-0.27662878
-0.31673859
0.13300913
0.061072583
0.10981941
0.11481766
0.15093247
0.13700028
0.1060231
0.070029177
0.061958926
0.04965295
0.066022866
0.10140048
0.094339047
0.11808416
0.09046315
0.12504732
0.1060128
0.089485567
0.076272369
0.068425705
0.075877213
0.10470422
0.13845932
0.13300142
0.079943587
0.10989196
0.097923487
0.092280741
0.056803805
0.10716042
-0.043153467
-0.064827655
-0.075404594
-0.041717292
-0.037170147
-0.045347238
-0.050073795
-0.074248943
-0.061388362
-0.054641152
-0.061959961
-0.040537599
-0.031040832
-0.059229586
-0.068314017
-0.054529254
-0.062760772
-0.084280231
-0.056493308
-0.075945792
-0.098294201
-0.06997778
-0.055606072
-0.072760564
-0.096127865
-0.1254901
-0.086585348
-0.068160574
-0.10680424
-0.070885617
0.024503721
0.037543912
0.038836536
0.015478362
0.02807182
0.026134443
0.027566389
0.018176458
0.016169407
0.024257472
0.019758721
0.0085172119
0.010201777
-0.0091801038
0.013331326
-0.00014325994
0.0016909662
0.026690074
-0.0025053685
0.0077194687
0.021046832
0.015905877
0.042488857
0.031249128
0.033611656
0.029480703
-0.014549763
-0.0096657431
0.0031206355
0.0016928464
0.32759803
0.34081999
0.32455381
0.33401548
0.32923588
0.32684072
0.32338989
0.33636826
0.34476286
0.33898349
0.33213783
0.33589245
0.33132411
0.36173256
0.36758047
0.37108556
0.38625483
0.37826702
0.38091816
0.37992127
0.37296411
0.38858739
0.37857396
0.39287571
0.38241275
0.38390661
-0.26367808
-0.24273755
-0.27353345
-0.28776339
-0.28305552
-0.28584485
-0.27574235
-0.23289866
-0.22233515
-0.27601117
-0.29202407
-0.28788898
-0.26813109
-0.2827197
-0.26947384
-0.2218822
-0.22299689
-0.27755485
-0.32438231
-0.32501061
-0.29403685
-0.26216355
-0.24971662
-0.23614054
-0.27918658
-0.31121152
0.11077038
0.050531543
0.10107458
0.10884649
0.11375104
0.0793807
0.068496627
0.049471967
0.066068706
0.085082492
0.089809366
0.13496188
0.12835036
0.1378088
0.087138244
0.058130785
0.055911893
0.059746197
0.10492925
0.11172692
0.0981385
0.091071542
0.083517156
0.093622958
0.083420326
0.12026617
-0.050205927
-0.073314983
-0.079135351
-0.03163923
-0.049622394
-0.064563585
-0.081047607
-0.072824489
-0.045900118
-0.059789797
-0.051820578
-0.050603635
-0.085684119
-0.037636856
-0.05858623
-0.070493351
-0.062235496
-0.070862417
-0.053605432
-0.043107409
-0.10723933
-0.053539047
-0.047989178
-0.026208871
-0.075912349
-0.048189664
0.011119306
0.022085529
0.011561244
0.003723557
0.0058546105
0.0049446319
0.015794474
0.013327212
0.0046819625
0.0073461354
0.014173403
0.0251963
0.048980771
0.0019175518
-0.017846117
0.0093706252
0.026238142
0.0200166
0.022212159
0.020123405
0.0010097034
-0.013338538
-0.0087041247
-0.0033699212
-0.0096028943
0.003917046
0.34045119
0.35855216
0.3388387
0.34104983
0.33231036
0.33344657
0.33965293
0.35424036
0.35352385
0.34368417
0.34607099
0.34435838
0.34801589
0.3519575
0.35715474
0.3531855
0.35106429
0.36882008
0.37105261
0.36842475
0.36005294
0.37918314
0.3676911
0.38741973
0.38904336
0.38349258
-0.26910528
-0.24560419
-0.27447973
-0.28638894
-0.27857356
-0.2689329
-0.23970759
-0.20212053
-0.22652757
-0.28098515
-0.29904441
-0.29088723
-0.25173892
-0.30340112
-0.30476894
-0.29618427
-0.28697105
-0.24975222
-0.25166341
-0.30154955
-0.28685244
-0.26387603
-0.24218376
-0.24334427
-0.30173753
-0.32215267
0.099595024
0.040873103
0.13042659
0.093284373
0.10882788
0.086661732
0.061413635
0.062855587
0.079266732
0.082000871
0.09872676
0.13027725
0.082305562
0.12708608
0.11842731
0.10167688
0.087710867
0.091825258
0.062814172
0.097581471
0.12461494
0.077845493
0.086815394
0.082927657
0.060641805
0.10886614
-0.051186807
-0.062359302
-0.05265202
-0.01886561
-0.047100679
-0.059923661
-0.066599015
-0.053334748
-0.041983983
-0.080257483
-0.038107988
-0.046907892
-0.042792495
-0.059904721
-0.07742454
-0.08985887
-0.09392064
-0.057600501
-0.06592853
-0.046448169
-0.060698377
-0.026954274
-0.054749891
-0.054987627
-0.097454856
-0.056827028
-0.0010031292
0.0015824032
-0.012561914
-0.0071474936
-0.0082416622
-0.008877212
-0.0068420712
-0.00041606653
-0.0067968681
0.0039590037
0.017727468
0.022465438
0.016967654
0.0091928205
0.0032373109
0.021221053
0.022971689
-0.014794585
0.017172321
-0.0098157896
-0.011045559
-0.002782731
-0.013104993
-0.011407901
0.0060544935
0.011918092
0.33115535
0.32851827
0.33727232
0.32773782
0.34235059
0.34230692
0.35118676
0.33126714
0.35266447
0.33910939
0.34341532
0.34424031
0.34293374
0.34096635
0.35602145
0.3587367
0.36501018
0.36626991
0.36668621
0.36686549
0.35494232
0.35450641
0.37262641
0.36069425
0.36131494
0.35655834
0.3475679
0.39380387
0.37565011
0.38302231
-0.28023943
-0.27318844
-0.24688089
-0.25997991
-0.23456484
-0.21529681
-0.21614954
-0.27105332
-0.2296625
-0.28510714
-0.30245367
-0.29773024
-0.28215428
-0.27387505
-0.23496292
-0.228683
-0.2472481
-0.27720879
-0.31630776
-0.31301918
-0.31418686
-0.29584344
-0.26012334
-0.30341979
-0.30433133
-0.30086209
-0.29558128
-0.25460927
-0.31669936
-0.32245015
0.11627373
0.093366874
0.086953571
0.0861524
0.079363246
0.084375373
0.078284688
0.12648914
0.080891772
0.091478746
0.10708075
0.13533296
0.096481291
0.089254308
0.068238624
0.099781538
0.097406949
0.10549287
0.12379306
0.15072087
0.095863555
0.10153692
0.0616247
0.10349052
0.11894046
0.1008521
0.088668001
0.058495905
0.082280428
0.11341798
-0.053845384
-0.09085043
-0.080139245
-0.078982357
-0.050307491
-0.024135228
-0.033783503
-0.062316471
-0.054581806
-0.092024754
-0.044388559
-0.044992593
-0.078823573
-0.073813578
-0.060538957
-0.050468195
-0.066072982
-0.09346514
-0.046811502
-0.037427921
-0.048910331
-0.085396466
-0.059738974
-0.079404444
-0.053082891
-0.07120529
-0.10605988
-0.07705642
-0.12008006
-0.046623169
0.020185972
0.029816576
0.02298154
-0.0083592515
-0.015089308
-0.0039559388
-0.0077958257
-0.0020301115
0.0076248475
0.023371995
0.025396551
0.039110336
0.024274053
0.026527017
0.0070362939
0.0033811634
0.012433245
0.025106487
0.027415858
0.047708535
0.035571664
0.035713627
0.035741776
0.013713205
0.00097880296
-0.0078755923
0.00047664624
0.019442842
0.025739722
0.028621048
0.34623448
0.34207782
0.34164974
0.34830433
0.34174242
0.34520784
0.35024013
0.33975393
0.35369468
0.3429934
0.35072624
0.34796364
0.34892165
0.3491785
0.34783665
0.36271699
0.36492303
0.36639627
0.36407394
0.36158664
0.3574114
0.36956898
0.36000118
0.3610716
0.36153541
0.36437468
0.34616069
0.38552402
0.38130448
0.38505381
-0.28644187
-0.29144377
-0.25253278
-0.22155911
-0.21927157
-0.20742629
-0.21173988
-0.24244558
-0.24684942
-0.28015869
-0.30503497
-0.2972488
-0.29778931
-0.29742713
-0.28325976
-0.23991578
-0.21999741
-0.22783009
-0.26399512
-0.30148591
-0.30533356
-0.2661192
-0.2885695
-0.32091057
-0.31348318
-0.30907439
-0.29595707
-0.27986597
-0.33852454
-0.32355836
0.12150547
0.083858935
0.060585142
0.060701192
0.077500626
0.092316806
0.078913373
0.10688714
0.064561997
0.09938458
0.1035252
0.14836016
0.11507063
0.11086513
0.066163612
0.078923924
0.094530076
0.074064776
0.055895766
0.10683511
0.12196272
0.074018973
0.10934034
0.096910761
0.15319849
0.095279038
0.10387269
0.057685788
0.10529584
0.16064838
-0.033689678
-0.053016744
-0.081520248
-0.05891172
-0.062360842
-0.035517921
-0.041064605
-0.06933556
-0.073804943
-0.094908368
-0.034208768
-0.042926035
-0.034391939
-0.040916114
-0.080102065
-0.035498971
-0.053711811
-0.066035726
-0.071785869
-0.061507401
-0.045738656
-0.071846308
-0.080480466
-0.048771879
-0.031616828
-0.043727425
-0.075353794
-0.054359568
-0.067278271
-0.032263331
0.034691591
0.024146132
0.02047556
0.015566646
-0.00068231415
-0.0067216886
-0.0061321713
-0.0063526526
0.020069269
0.034072133
0.034390189
0.033312284
0.024440674
0.017745466
0.01102856
0.0017037302
-0.001118881
0.014671473
0.018869454
0.022832577
0.0092026316
0.019940014
0.041964451
0.010246504
0.024289848
0.0089275553
0.036249634
0.036796618
0.035101476
0.050095442
0.33342339
0.33722599
0.33542106
0.33328017
0.3384086
0.34488423
0.35206949
0.33936686
0.34719123
0.34637436
0.34277544
0.35243894
0.33569251
0.3569
0.35418674
0.35102159
0.36649067
0.35229944
0.35086401
0.36256789
0.35257256
0.36398179
0.36354646
0.36038404
0.36531009
0.36740433
0.34635414
0.38736053
0.38050762
0.38316234
-0.27418432
-0.29448301
-0.29254478
-0.28043585
-0.26722715
-0.23004822
-0.2353869
-0.27793034
-0.29428765
-0.2964653
-0.27515131
-0.26354653
-0.28383831
-0.2886597
-0.30073015
-0.28585103
-0.24979869
-0.29184029
-0.28558165
-0.30696119
-0.29260251
-0.25804082
-0.25587125
-0.31414914
-0.31614896
-0.30829989
-0.30114631
-0.27646052
-0.31747005
-0.33089913
0.11881495
0.11720436
0.1021012
0.091637778
0.073969788
0.075526792
0.0669732
0.076222473
0.09231056
0.10556706
0.095553591
0.082653018
0.10989313
0.11416434
0.097564749
0.090664938
0.058839992
0.10737653
0.08870873
0.11960764
0.089622638
0.071319402
0.068291917
0.086987805
0.12928574
0.11683949
0.094518037
0.057960846
0.092499059
0.11371455
-0.096436608
-0.051269364
-0.04724011
-0.067149687
-0.074136647
-0.061425875
-0.071123
-0.096721613
-0.046976382
-0.034220002
-0.084520538
-0.051695054
-0.068245406
-0.026753947
-0.041542845
-0.08059227
-0.068016948
-0.056978597
-0.070882162
-0.039802961
-0.05684865
-0.050717069
-0.07162545
-0.066247405
-0.03742939
-0.045500071
-0.11321078
-0.081648227
-0.10924139
-0.045998852
0.046196935
0.015353886
0.009986988
-0.002426129
0.021766449
-0.0083317667
0.0074779553
0.016478383
0.017216803
0.026571844
0.026245775
0.011230656
0.001649283
0.015966925
0.016619537
0.024382769
0.017314277
-0.0031779699
0.017105557
0.016990308
0.014958053
0.00068657819
0.01533711
0.0061980981
0.0052695326
-0.0044566659
-0.00025908838
0.024892064
0.036698263
0.039365536
0.34641404
0.34657184
0.33620677
0.33365774
0.33720683
0.33518244
0.34085728
0.33982047
0.34754041
0.33931806
0.36086631
0.3515401
0.35505011
0.36160143
0.35627098
0.35403548
0.35336062
0.35358651
0.35899238
0.35919247
0.35269448
0.36801859
0.36203342
0.35921591
0.35562631
0.36683214
0.34720362
0.37263493
0.38091313
0.37830528
-0.22225081
-0.23517283
-0.25502159
-0.28747716
-0.2908968
-0.27957853
-0.27072151
-0.29261582
-0.28297476
-0.27334731
-0.22650423
-0.21586713
-0.23090176
-0.24656562
-0.27036139
-0.30372927
-0.28456829
-0.3127139
-0.30176079
-0.30779285
-0.29532459
-0.24191776
-0.21906591
-0.27449292
-0.30025606
-0.2970663
-0.29486499
-0.25804448
-0.25214803
-0.29247061
0.098703686
0.089551458
0.10226031
0.097768031
0.11509
0.11756619
0.10764038
0.11544273
0.11114364
0.081737712
0.060579175
0.096115776
0.086380085
0.086752082
0.097893723
0.10513396
0.12061389
0.12220976
0.14282665
0.11944585
0.098650109
0.085007652
0.085676289
0.071664895
0.12976187
0.13788471
0.12333115
0.088436931
0.068796739
0.1014162
-0.057443453
-0.058489417
-0.089664047
-0.040293122
-0.037788563
-0.088412432
-0.093404821
-0.045195121
-0.038613856
-0.085152604
-0.067088296
-0.054146564
-0.04172972
-0.047652574
-0.099831374
-0.032841723
-0.089736012
-0.049305099
-0.020710744
-0.021929278
-0.042385113
-0.025454914
-0.04109127
-0.050948737
-0.035907852
-0.015268333
-0.060434007
-0.072518258
-0.10089907
-0.1017295
0.0094690747
0.002129732
0.029941141
0.021199255
0.024527396
0.034209902
0.048322339
0.035380295
0.033171052
0.032631228
0.031703907
0.0043167008
0.0014235086
0.001231638
0.023693708
0.026141399
0.041642218
0.011428797
0.013355658
0.012546622
0.0051530851
-0.002434495
0.0024129704
0.0057567692
0.00044035431
0.0034043223
-0.011705231
-0.011900327
0.017628409
0.040033064
)
;

boundaryField
{
    minX
    {
        type            fixedFluxPressure;
        gradient        uniform 0;
        value           nonuniform List<scalar> 
50
(
0.33769253
-0.27319323
0.11495946
-0.029370308
0.023355664
0.33247714
-0.27568494
0.12958274
-0.048865687
0.010101339
0.33693113
-0.27406461
0.12691932
-0.048799216
0.022228223
0.33928412
-0.28014123
0.13300913
-0.043153467
0.024503721
0.32759803
-0.26367808
0.11077038
-0.050205927
0.011119306
0.34045119
-0.26910528
0.099595024
-0.051186807
-0.0010031292
0.33115535
-0.28023943
0.11627373
-0.053845384
0.020185972
0.34623448
-0.28644187
0.12150547
-0.033689678
0.034691591
0.33342339
-0.27418432
0.11881495
-0.096436608
0.046196935
0.34641404
-0.22225081
0.098703686
-0.057443453
0.0094690747
)
;
    }
    maxX
    {
        type            fixedFluxPressure;
        gradient        uniform 0;
        value           nonuniform List<scalar> 
50
(
0.37984783
-0.27913889
0.11872275
-0.093235183
0.025086275
0.37908603
-0.32447054
0.11094777
-0.039715319
0.030435259
0.37208703
-0.32845732
0.15716255
-0.04691372
0.039047908
0.37534962
-0.31673859
0.10716042
-0.070885617
0.0016928464
0.38390661
-0.31121152
0.12026617
-0.048189664
0.003917046
0.38349258
-0.32215267
0.10886614
-0.056827028
0.011918092
0.38302231
-0.32245015
0.11341798
-0.046623169
0.028621048
0.38505381
-0.32355836
0.16064838
-0.032263331
0.050095442
0.38316234
-0.33089913
0.11371455
-0.045998852
0.039365536
0.37830528
-0.29247061
0.1014162
-0.1017295
0.040033064
)
;
    }
    minY
    {
        type            fixedValue;
        value           uniform 0;
    }
    minZ
    {
        type            fixedFluxPressure;
        gradient        uniform 0;
        value           nonuniform List<scalar> 
150
(
0.33769253
-0.27319323
0.11495946
-0.029370308
0.023355664
0.33384789
-0.26148696
0.092583133
-0.068651495
0.019552486
0.35385866
-0.22225888
0.048880584
-0.068087748
0.013525248
0.31485629
-0.25208401
0.11495997
-0.043006847
-0.0048265468
0.32437047
-0.25156124
0.128334
-0.035311896
0.00107424
0.32900521
-0.23271145
0.066851552
-0.053813284
-0.002791427
0.35110642
-0.19542383
0.076283908
-0.074872928
0.021808244
0.33905555
-0.23476652
0.060430041
-0.072210481
0.0016155061
0.33217778
-0.27314879
0.10289853
-0.049663015
-0.0034390912
0.34332492
-0.28195135
0.093951434
-0.01486596
0.009139264
0.33200007
-0.26366846
0.11846869
-0.054801737
0.0022332134
0.34800344
-0.24992964
0.070394827
-0.036322824
-0.0088639606
0.33719689
-0.28081019
0.15476691
-0.048443394
0.016761038
0.34132531
-0.28952977
0.092089318
-0.04700932
0.011099796
0.33727684
-0.26621115
0.1118161
-0.091070416
0.042782628
0.35348884
-0.25832643
0.055149163
-0.071364817
0.023310704
0.35043497
-0.29323788
0.13277434
-0.072068079
0.0091639488
0.3511081
-0.29462385
0.093061576
-0.029168608
0.0091746437
0.34109809
-0.29275505
0.076711027
-0.067959548
0.003022631
0.36949438
-0.22787609
0.055281678
-0.060317373
-0.0022290704
0.36795401
-0.22283454
0.094594866
-0.018967864
-0.0061505568
0.37581812
-0.23028218
0.081443451
-0.035673057
0.001719728
0.38255654
-0.25402342
0.083152708
-0.045277859
-0.0094569571
0.38460974
-0.28613567
0.081084994
-0.10938694
0.025441523
0.37844669
-0.32401646
0.08798023
-0.035663051
0.020067215
0.37640834
-0.28713167
0.10574244
-0.11144602
0.036564176
0.38116707
-0.26968868
0.079619941
-0.044262637
0.0040351599
0.38686247
-0.22597121
0.10485912
-0.046217911
0.0036428678
0.38403225
-0.25624809
0.09839498
-0.081472006
-0.00064139239
0.37984783
-0.27913889
0.11872275
-0.093235183
0.025086275
)
;
    }
    maxZ
    {
        type            fixedFluxPressure;
        gradient        uniform 0;
        value           nonuniform List<scalar> 
150
(
0.34641404
-0.22225081
0.098703686
-0.057443453
0.0094690747
0.34657184
-0.23517283
0.089551458
-0.058489417
0.002129732
0.33620677
-0.25502159
0.10226031
-0.089664047
0.029941141
0.33365774
-0.28747716
0.097768031
-0.040293122
0.021199255
0.33720683
-0.2908968
0.11509
-0.037788563
0.024527396
0.33518244
-0.27957853
0.11756619
-0.088412432
0.034209902
0.34085728
-0.27072151
0.10764038
-0.093404821
0.048322339
0.33982047
-0.29261582
0.11544273
-0.045195121
0.035380295
0.34754041
-0.28297476
0.11114364
-0.038613856
0.033171052
0.33931806
-0.27334731
0.081737712
-0.085152604
0.032631228
0.36086631
-0.22650423
0.060579175
-0.067088296
0.031703907
0.3515401
-0.21586713
0.096115776
-0.054146564
0.0043167008
0.35505011
-0.23090176
0.086380085
-0.04172972
0.0014235086
0.36160143
-0.24656562
0.086752082
-0.047652574
0.001231638
0.35627098
-0.27036139
0.097893723
-0.099831374
0.023693708
0.35403548
-0.30372927
0.10513396
-0.032841723
0.026141399
0.35336062
-0.28456829
0.12061389
-0.089736012
0.041642218
0.35358651
-0.3127139
0.12220976
-0.049305099
0.011428797
0.35899238
-0.30176079
0.14282665
-0.020710744
0.013355658
0.35919247
-0.30779285
0.11944585
-0.021929278
0.012546622
0.35269448
-0.29532459
0.098650109
-0.042385113
0.0051530851
0.36801859
-0.24191776
0.085007652
-0.025454914
-0.002434495
0.36203342
-0.21906591
0.085676289
-0.04109127
0.0024129704
0.35921591
-0.27449292
0.071664895
-0.050948737
0.0057567692
0.35562631
-0.30025606
0.12976187
-0.035907852
0.00044035431
0.36683214
-0.2970663
0.13788471
-0.015268333
0.0034043223
0.34720362
-0.29486499
0.12333115
-0.060434007
-0.011705231
0.37263493
-0.25804448
0.088436931
-0.072518258
-0.011900327
0.38091313
-0.25214803
0.068796739
-0.10089907
0.017628409
0.37830528
-0.29247061
0.1014162
-0.1017295
0.040033064
)
;
    }
    bottomWater_to_rightSolid
    {
        type            fixedFluxPressure;
        gradient        uniform 0;
        value           nonuniform List<scalar> 
130
(
0.0091746437
0.003022631
-0.0022290704
-0.0061505568
0.001719728
-0.0094569571
0.025441523
0.020067215
0.036564176
0.0040351599
0.0036428678
-0.00064139239
0.025086275
0.041277327
0.016207079
0.022685221
-0.00081847513
0.0033882133
0.026068309
0.017150971
0.040200118
0.030866441
0.018496101
0.015264268
0.034224646
0.030435259
0.033170614
0.036922329
0.019011559
0.024538985
0.02522433
0.039319805
0.053109003
0.03816118
0.021127659
0.015900974
0.036905873
0.05712496
0.039047908
0.026690074
-0.0025053685
0.0077194687
0.021046832
0.015905877
0.042488857
0.031249128
0.033611656
0.029480703
-0.014549763
-0.0096657431
0.0031206355
0.0016928464
0.0019175518
-0.017846117
0.0093706252
0.026238142
0.0200166
0.022212159
0.020123405
0.0010097034
-0.013338538
-0.0087041247
-0.0033699212
-0.0096028943
0.003917046
0.0091928205
0.0032373109
0.021221053
0.022971689
-0.014794585
0.017172321
-0.0098157896
-0.011045559
-0.002782731
-0.013104993
-0.011407901
0.0060544935
0.011918092
0.025106487
0.027415858
0.047708535
0.035571664
0.035713627
0.035741776
0.013713205
0.00097880296
-0.0078755923
0.00047664624
0.019442842
0.025739722
0.028621048
0.014671473
0.018869454
0.022832577
0.0092026316
0.019940014
0.041964451
0.010246504
0.024289848
0.0089275553
0.036249634
0.036796618
0.035101476
0.050095442
-0.0031779699
0.017105557
0.016990308
0.014958053
0.00068657819
0.01533711
0.0061980981
0.0052695326
-0.0044566659
-0.00025908838
0.024892064
0.036698263
0.039365536
0.011428797
0.013355658
0.012546622
0.0051530851
-0.002434495
0.0024129704
0.0057567692
0.00044035431
0.0034043223
-0.011705231
-0.011900327
0.017628409
0.040033064
)
;
    }
    bottomWater_to_leftSolid
    {
        type            fixedFluxPressure;
        gradient        uniform 0;
        value           nonuniform List<scalar> 
130
(
0.023355664
0.019552486
0.013525248
-0.0048265468
0.00107424
-0.002791427
0.021808244
0.0016155061
-0.0034390912
0.009139264
0.0022332134
-0.0088639606
0.016761038
0.010101339
0.01034489
0.038325249
0.010875045
0.0025003992
0.0081083337
0.034756554
0.012470389
0.0026794679
0.0014445041
-0.020554255
-0.0074242342
-0.00075646711
0.022228223
0.035280056
0.033632044
0.006646915
0.020970773
0.024118491
0.031834837
0.016534278
0.016431832
0.017498319
0.011606314
0.005104009
0.003267413
0.024503721
0.037543912
0.038836536
0.015478362
0.02807182
0.026134443
0.027566389
0.018176458
0.016169407
0.024257472
0.019758721
0.0085172119
0.010201777
0.011119306
0.022085529
0.011561244
0.003723557
0.0058546105
0.0049446319
0.015794474
0.013327212
0.0046819625
0.0073461354
0.014173403
0.0251963
0.048980771
-0.0010031292
0.0015824032
-0.012561914
-0.0071474936
-0.0082416622
-0.008877212
-0.0068420712
-0.00041606653
-0.0067968681
0.0039590037
0.017727468
0.022465438
0.016967654
0.020185972
0.029816576
0.02298154
-0.0083592515
-0.015089308
-0.0039559388
-0.0077958257
-0.0020301115
0.0076248475
0.023371995
0.025396551
0.039110336
0.024274053
0.034691591
0.024146132
0.02047556
0.015566646
-0.00068231415
-0.0067216886
-0.0061321713
-0.0063526526
0.020069269
0.034072133
0.034390189
0.033312284
0.024440674
0.046196935
0.015353886
0.009986988
-0.002426129
0.021766449
-0.0083317667
0.0074779553
0.016478383
0.017216803
0.026571844
0.026245775
0.011230656
0.001649283
0.0094690747
0.002129732
0.029941141
0.021199255
0.024527396
0.034209902
0.048322339
0.035380295
0.033171052
0.032631228
0.031703907
0.0043167008
0.0014235086
)
;
    }
    bottomWater_to_heater
    {
        type            fixedFluxPressure;
        gradient        uniform 0;
        value           nonuniform List<scalar> 
92
(
0.011099796
0.042782628
0.023310704
0.0091639488
-0.0071611042
0.019833574
0.02481548
0.021152483
-0.0079732583
0.00163103
0.019645408
0.018639232
0.3313847
0.33524161
0.33993066
0.34091076
-0.27367978
-0.26760071
-0.28497329
-0.28977608
0.11808416
0.09046315
0.12504732
0.1060128
-0.059229586
-0.068314017
-0.054529254
-0.062760772
-0.0091801038
-0.0091801038
0.013331326
0.013331326
-0.00014325994
-0.00014325994
0.0016909662
0.0016909662
0.33132411
0.36173256
-0.26813109
-0.2827197
0.12835036
0.1378088
-0.085684119
-0.037636856
0.048980771
0.0019175518
0.34801589
0.34096635
0.35602145
0.3587367
0.3519575
0.36501018
-0.25173892
-0.27387505
-0.23496292
-0.228683
-0.30340112
-0.2472481
0.082305562
0.089254308
0.068238624
0.099781538
0.12708608
0.097406949
-0.042792495
-0.073813578
-0.060538957
-0.050468195
-0.059904721
-0.066072982
0.016967654
0.026527017
0.0070362939
0.0033811634
0.0091928205
0.012433245
0.026527017
0.0070362939
0.0033811634
0.012433245
0.017745466
0.01102856
0.0017037302
-0.001118881
0.015966925
0.016619537
0.024382769
0.017314277
0.001231638
0.023693708
0.026141399
0.041642218
)
;
    }
}


// ************************************************************************* //
