/*--------------------------------*- C++ -*----------------------------------*\
| =========                 |                                                 |
| \\      /  F ield         | OpenFOAM: The Open Source CFD Toolbox           |
|  \\    /   O peration     | Version:  v2012                                 |
|   \\  /    A nd           | Website:  www.openfoam.com                      |
|    \\/     M anipulation  |                                                 |
\*---------------------------------------------------------------------------*/
FoamFile
{
    version     2.0;
    format      ascii;
    class       volScalarField;
    location    "740/bottomWater";
    object      T;
}
// * * * * * * * * * * * * * * * * * * * * * * * * * * * * * * * * * * * * * //

dimensions      [0 0 0 1 0 0 0];


internalField   nonuniform List<scalar> 
1460
(
975.933
972.79895
969.39977
973.02026
971.53641
969.24742
967.31546
968.42201
970.56066
968.09428
961.99514
958.70246
942.35252
931.92769
930.35398
931.69893
933.82443
926.31256
924.90695
922.86725
921.48848
916.58313
914.6859
911.97295
912.59996
913.98935
914.16957
913.93173
914.22905
912.14364
970.57848
968.71946
968.4506
967.73956
967.2055
967.05927
966.79911
966.02553
966.30531
962.80472
958.76229
958.01883
946.09458
929.34967
927.45842
930.26235
931.26367
925.18648
924.31711
923.67967
921.98225
916.82463
915.40529
915.61738
915.14404
915.59632
915.32173
915.3457
916.02508
915.97703
970.48561
969.60191
968.5772
967.4988
966.78343
967.03356
966.83237
965.00664
966.54956
962.90333
961.83217
958.07447
945.43863
930.59087
930.79329
930.06705
930.24846
925.36388
925.48669
923.75016
921.16881
915.86123
914.55287
915.96053
915.37827
915.5022
915.03515
915.05501
915.85601
916.88591
970.19192
969.79564
969.52426
967.70257
966.53693
966.5091
966.00241
965.32
965.01624
962.43109
962.43424
957.49585
951.26063
937.25008
936.55972
931.86496
929.48464
925.95137
926.46156
926.72482
921.01992
915.33343
914.21969
915.89051
915.75772
915.11969
914.45507
914.63171
915.08701
915.82045
968.98629
968.09907
967.78085
967.26806
966.26793
965.95025
965.84368
964.7975
964.36449
963.71586
962.97219
954.95657
940.90844
936.76625
936.40377
934.96435
931.85193
926.20806
922.75711
921.44716
919.50519
913.7715
913.55821
914.42059
915.11336
914.42982
913.94632
914.30527
914.77264
915.06055
977.73197
970.87457
972.61971
974.72033
975.8207
975.37839
970.98574
967.76881
964.25635
960.50725
955.92023
946.18807
933.46956
928.73945
924.00719
923.77513
923.46524
922.27906
921.25036
920.10346
918.03191
915.41421
913.8387
911.04194
909.36528
910.35062
913.75654
913.22092
913.21916
910.92667
971.86571
969.2417
969.04449
969.82694
970.32488
970.04351
966.91444
962.5779
959.37835
957.07831
954.47075
945.73247
932.15642
929.79444
924.66473
921.9274
923.10817
921.59995
919.63944
919.49494
917.63821
915.54877
915.36902
914.54041
913.32196
914.13376
915.36448
915.64939
915.93952
915.15338
970.54878
969.31638
968.59536
969.07848
969.07392
968.58094
967.48273
963.76527
961.36862
959.33727
954.62033
946.96645
934.15423
931.23261
925.43735
919.77713
924.32563
921.25186
919.59519
918.11521
916.19989
914.03515
914.2915
914.79207
913.60889
914.10091
914.93062
915.37034
916.03988
915.41446
967.85258
967.95738
967.87192
967.55315
967.34167
967.84116
966.53539
963.46162
963.81973
960.99907
957.54989
946.49147
932.40996
927.54698
920.62932
921.3331
922.55896
921.22834
920.02777
921.71262
916.31543
913.67271
914.42962
914.637
913.97872
914.14444
914.33622
914.66851
915.24745
915.55802
967.27083
967.31172
967.53223
966.72178
966.19428
966.96926
966.19949
964.34079
963.97133
963.2473
961.13165
947.3519
929.12744
922.98242
920.85177
918.35058
919.18431
919.98432
918.89526
918.56818
914.78202
912.50078
913.00252
913.1824
913.50941
913.62998
913.38647
914.42281
914.89135
914.95228
979.52947
971.59365
974.79289
977.14762
979.05496
972.08663
966.63767
962.7092
960.13508
957.83071
953.63499
953.72559
938.07925
929.62885
920.66544
922.99837
922.12434
917.67253
914.42433
913.32783
910.72086
909.19783
909.35953
909.72989
910.21674
908.81848
911.15606
912.5646
912.96422
910.91746
971.18148
969.94783
970.75795
971.98297
973.14539
969.22883
963.95697
960.51199
958.95118
957.51921
950.15188
950.49493
940.17005
925.53485
919.1169
919.05868
918.36596
914.20971
913.14691
913.29505
913.05299
912.77417
913.23347
914.3058
913.49586
912.87721
913.67568
914.5485
914.69183
913.90398
970.88931
970.29145
970.52193
971.11124
972.78254
969.99934
964.52122
960.60265
961.63119
958.35219
949.05684
945.90956
942.64875
924.09709
917.21795
914.60634
917.58203
913.80261
915.97456
914.46439
913.25482
912.95828
913.14198
914.06709
913.82333
913.06143
913.94488
915.35446
915.43833
914.25915
970.41818
969.97947
970.45864
971.0943
972.50472
970.69591
966.22479
962.79237
963.26563
962.05217
952.29074
946.20461
944.40588
918.57794
915.25631
913.11873
917.10135
914.29871
915.37773
914.19582
913.58185
913.21328
913.12534
914.1826
913.72081
913.23565
914.00995
914.46833
915.02608
914.59734
968.36445
968.5506
968.73306
966.83255
966.46711
970.17018
967.17443
965.35685
964.61231
963.38396
957.63743
952.38247
944.45954
914.75414
913.37798
913.04862
914.77589
913.93447
914.49906
913.4305
911.70268
912.38029
912.4443
913.42649
913.07674
912.69425
913.0365
914.35906
914.68202
914.32002
973.38787
969.02974
970.99516
972.93714
977.19934
973.11693
967.69643
964.25841
960.7914
955.59756
957.03113
957.53897
944.5763
924.96146
919.52504
918.32654
914.63384
911.92786
912.48317
913.06503
910.25183
906.02065
904.79211
909.68145
911.37173
910.72252
913.28191
913.63596
913.66897
911.48984
967.7431
966.985
966.58925
968.39989
968.98653
967.26339
964.38176
963.19166
962.21779
954.82304
952.4269
952.94669
934.704
922.05983
914.97893
914.56587
909.36934
908.02658
911.293
913.0192
912.75116
911.60945
911.23905
913.18064
913.73594
913.68728
914.25749
915.1324
916.03359
915.18124
967.77014
966.96397
966.67225
967.67726
968.67509
968.48094
965.36535
964.37838
964.64463
954.59673
948.91136
949.12607
934.96392
921.28332
916.76998
913.2029
909.13261
907.62384
911.15746
913.22273
913.10296
911.9377
911.63458
913.14857
913.55082
914.27204
913.79883
914.70304
915.9057
915.50712
967.9358
967.30033
967.20804
967.71415
968.808
969.53531
967.1273
966.50238
966.37463
959.88675
947.88175
945.55065
934.74036
919.37596
914.41051
907.30464
907.71118
909.72113
912.56512
912.98827
912.95833
912.25987
911.97996
913.05364
913.35092
913.78
913.26
914.74521
916.51435
915.86288
966.62933
967.03198
966.92589
966.99847
968.47466
970.06951
968.26805
967.54288
966.80721
961.70836
950.65792
944.40339
935.30329
906.42522
905.51544
907.88679
909.97077
911.26258
912.09634
911.45379
911.65077
911.5741
911.66112
912.30491
912.62445
912.8603
912.76799
913.80018
914.51916
914.09248
971.7571
966.14443
970.15354
970.12628
968.33982
966.52825
965.38873
965.20384
962.51509
962.49655
963.03606
953.39431
925.6503
896.47853
905.62342
906.83142
908.21789
907.50545
904.83941
907.16308
911.271
911.92486
912.49865
913.60998
913.49999
911.20935
965.74518
964.30605
965.80092
965.50662
963.42116
962.78527
962.94057
964.34264
961.93235
958.91908
958.08398
949.27624
911.68378
894.22213
904.87353
907.37108
910.19838
911.38348
912.48964
912.69378
913.61818
913.66022
913.46996
915.28772
916.38931
915.90302
965.52994
964.44868
964.26052
964.68482
963.39524
963.2888
964.29772
964.96671
961.76041
954.1705
956.10539
945.97047
923.30911
897.63666
903.98361
906.99398
910.58699
912.46375
912.97202
913.12195
912.99859
913.43845
913.22961
915.02383
916.59465
916.34413
966.11922
964.39942
964.28846
964.61641
964.08887
964.96127
965.95696
966.5287
966.25954
952.9417
955.23131
943.56346
934.16203
902.05482
908.0723
910.96918
910.69981
912.78934
913.24268
913.44004
912.74664
913.10587
912.77679
914.53722
916.15733
917.02763
965.6238
965.14802
965.35674
965.46068
966.80496
968.26226
967.38717
967.1462
966.53442
948.63942
939.74154
936.47478
926.17831
903.92031
907.32808
908.27617
909.87717
911.32048
912.09631
912.36386
912.14838
912.15959
912.36261
914.10391
914.90622
915.12446
967.91067
963.45538
966.66228
965.80759
963.50528
961.85467
960.04664
961.31042
958.05048
959.60541
959.82662
927.32465
907.19339
899.2976
910.13407
911.20441
912.06902
911.85176
913.08707
910.42081
913.1336
913.59519
914.6932
914.57214
914.05887
911.92585
964.37873
963.22836
963.65888
962.16062
960.79901
960.19744
960.56607
961.1017
956.87468
956.31511
956.89524
932.76063
915.64727
896.70839
908.15135
909.72754
910.94568
911.20828
914.78239
913.74294
913.99847
914.40326
915.57993
916.55945
917.18275
916.39124
964.20823
963.41486
963.06573
962.15169
962.172
963.16876
963.45033
961.5507
955.87664
952.43061
956.31343
932.14582
919.52966
893.57174
904.40144
906.86646
909.16047
910.05211
914.41915
914.34752
913.00926
914.12305
915.49132
916.56833
917.64901
916.72362
964.58218
963.57763
963.49279
963.10215
963.72934
964.98563
964.92436
964.74872
957.47338
951.7303
955.07519
929.1228
917.45775
895.06782
900.72603
903.2417
908.27797
908.62646
912.76581
913.82091
912.26588
914.16481
915.69833
916.40265
917.48044
917.21697
964.07132
963.62254
963.7114
963.69005
964.41007
967.2261
966.95342
965.9952
956.16014
947.54742
947.46352
927.19896
919.18153
897.45133
902.70434
904.31942
905.91066
907.58916
910.23235
910.77115
911.10867
913.86105
915.6996
916.0774
916.28727
916.55067
971.11764
967.37763
964.4751
963.13765
961.07018
959.87872
955.77497
962.1211
954.26
957.84499
949.26263
926.59914
916.28997
912.80758
912.67995
906.84297
900.10331
900.7865
900.90088
910.00903
917.58157
918.35062
916.72524
914.98327
914.62395
916.10301
916.40638
914.70665
913.88646
911.86565
965.09834
962.74979
961.56608
960.8274
960.83334
959.41811
955.55317
956.5826
952.77254
952.52549
952.0802
928.48695
916.50318
916.75378
918.7932
911.95628
906.06041
904.45593
905.96918
909.94424
915.92217
916.95032
916.58898
916.27373
915.23382
915.65538
916.00046
916.72496
916.99901
916.16279
964.63634
963.24768
962.53369
961.932
961.94985
959.95929
956.26503
952.62798
951.59522
950.26282
951.63335
929.43106
918.7756
919.108
920.46167
914.48628
905.64862
896.55003
905.4943
909.34277
915.33647
915.82937
916.32077
916.01585
915.26044
915.43118
915.60516
916.61447
917.19588
916.46213
964.14891
963.61224
962.92901
962.55249
962.1915
960.91709
957.66732
953.47051
951.6376
949.26429
948.91508
930.18986
926.29282
924.41556
922.26767
915.02243
907.1975
904.26607
905.30276
909.4707
913.9554
914.86085
915.728
915.32191
914.49899
915.19361
915.62636
917.06988
917.32277
916.7983
963.37557
963.14878
962.85187
962.62666
962.41866
961.41812
958.16889
951.5122
945.64302
944.63524
942.59776
931.49705
928.72494
924.82921
922.55589
913.84539
900.74271
903.65467
905.12738
909.02653
910.8739
911.5004
913.06673
913.16746
913.10808
915.08022
915.78243
916.24166
916.34828
916.29945
967.90622
963.93562
961.95774
960.58965
959.33787
957.31346
953.13148
954.79633
954.15808
956.9994
956.75112
942.46344
933.10692
925.39863
919.95972
919.67633
913.3766
912.44877
913.19069
912.66821
916.6637
917.743
919.06571
919.27577
917.64471
917.25576
917.30785
914.88909
912.87866
910.46856
964.71551
962.01442
961.36546
960.36333
958.62752
956.58538
951.35844
951.50628
951.27314
952.13432
952.23578
942.71107
927.98223
924.24472
923.12353
924.35919
915.59245
912.53945
914.83037
914.19445
916.81398
917.45833
917.65523
917.99707
917.30679
916.63966
916.89725
917.23653
917.01344
915.71266
964.6235
962.55995
962.70334
961.30881
960.00064
957.14162
951.27984
950.16521
950.9921
951.50668
951.63378
941.09495
928.54143
925.11617
925.6035
926.71347
915.69194
911.8779
916.15127
913.63787
917.11141
917.27558
917.64485
918.04188
917.52243
916.76223
917.09615
917.1742
916.90562
915.93838
964.52103
963.62408
963.33907
962.06375
960.84318
957.6193
951.21003
950.21323
950.94013
950.57764
949.71282
938.01317
929.48277
926.93284
926.46323
926.60264
914.72196
916.31108
915.42892
914.75601
916.33123
916.573
917.43524
917.88697
917.68244
917.07789
917.16776
917.02899
916.696
916.14123
964.24929
963.71481
963.32997
962.71663
962.53422
958.28228
951.40156
949.81621
948.92752
948.65856
947.55385
936.85277
932.96884
929.68865
928.31115
926.48248
912.70167
909.09095
911.97073
911.14255
913.21404
915.48718
916.5234
915.88118
914.99328
915.62612
915.96124
915.73194
915.69921
915.72962
974.00409
971.1685
966.06784
964.12721
962.61313
961.15925
957.10615
959.36002
958.33389
955.47731
950.74391
946.84417
946.0538
943.04379
925.17389
922.68818
919.05715
917.391
917.20924
916.26635
920.75565
917.49905
917.1919
918.01844
918.7149
917.90983
917.85094
915.31822
913.79597
910.76689
967.56625
966.14525
961.96624
960.8968
960.78522
960.32598
955.53557
954.5383
954.25063
951.39775
947.09935
943.34245
940.56417
940.13505
924.56444
923.45367
922.18816
917.51542
916.85039
917.19608
919.09218
917.1555
916.88912
917.02013
917.95692
917.72184
917.76004
917.8003
917.81723
916.57234
965.0905
966.08657
961.97476
962.64917
963.0824
960.67295
955.37805
954.06009
954.13973
951.46628
950.44734
941.86139
936.29543
939.82689
926.75701
929.3914
923.59994
918.47615
919.49767
917.38209
918.05304
917.13937
917.19023
917.47104
917.97097
917.83977
917.88126
917.79042
917.35489
916.80411
965.6483
965.91491
962.36824
963.30681
963.64273
960.00505
954.50076
954.06288
953.58901
951.46946
950.74258
944.92815
937.10631
939.18634
928.64439
929.18214
924.66899
917.3299
918.63249
917.81768
917.03474
915.74214
916.90037
917.75421
917.97289
917.56352
917.63217
917.65624
917.21134
916.92566
964.90132
964.67526
963.94917
963.57486
962.86246
958.14812
955.12652
954.30088
952.51868
951.38439
950.08593
945.22526
937.07118
928.5
926.47656
925.12483
921.55712
915.91589
911.84366
914.11755
912.73996
914.21048
915.4747
915.81195
914.88263
915.29549
915.91952
916.30029
916.31495
916.30025
965.76957
966.09998
968.21155
969.93067
971.51321
966.81001
962.77831
960.29245
956.44394
953.55572
951.14152
950.25756
943.44474
942.11587
943.65718
938.80096
929.50414
924.67324
922.26387
920.04727
919.15959
916.09473
916.09033
917.19561
919.85525
919.94412
919.45799
916.48589
916.04508
913.46264
964.20154
964.04697
964.33632
964.99846
965.04687
962.68039
959.66389
957.82671
952.96468
951.28104
950.856
948.31541
941.25238
938.5703
939.41847
937.36803
931.00989
924.61228
920.75143
918.1043
916.95416
915.86481
915.65747
916.49265
918.12134
919.00442
918.18001
916.91524
917.49441
917.43441
964.28799
964.01979
963.46626
964.86934
964.84636
961.19494
958.433
957.70409
953.09872
952.1846
951.37172
947.75206
940.90344
937.16474
936.39609
935.76606
925.48238
923.25798
920.97081
918.874
917.8178
915.74978
915.64967
916.87587
917.4407
918.19297
916.69075
916.7284
917.47042
918.3308
964.06211
964.01432
963.78028
964.844
964.62247
963.27674
957.59601
957.35464
952.98573
952.46325
951.5307
949.36439
942.78337
935.78657
934.69447
931.82561
920.80009
920.31287
919.13147
919.03958
916.35598
914.11891
914.50512
915.26106
915.01679
915.42172
915.95926
916.48643
917.23323
917.41521
964.03322
963.89153
963.87051
964.38003
962.59051
958.68968
956.77272
956.79308
952.72534
952.23782
951.66178
950.31721
943.27006
928.62502
928.53441
924.68584
919.7348
918.62509
914.87422
914.22338
912.81345
913.07653
913.96446
914.09091
914.24431
915.14088
915.71951
916.04037
916.23114
916.6054
)
;

boundaryField
{
    minX
    {
        type            zeroGradient;
    }
    maxX
    {
        type            zeroGradient;
    }
    minY
    {
        type            fixedValue;
        value           uniform 1073;
    }
    minZ
    {
        type            zeroGradient;
    }
    maxZ
    {
        type            zeroGradient;
    }
    bottomWater_to_rightSolid
    {
        type            compressible::turbulentTemperatureCoupledBaffleMixed;
        refValue        nonuniform List<scalar> 
130
(
749.6814
757.64056
765.94521
774.16298
781.97771
789.20824
795.70494
801.36364
806.11919
809.94485
812.82807
814.75672
815.72347
743.76232
753.07743
762.5627
771.72732
780.27772
788.04159
794.90761
800.8188
805.74899
809.69212
812.65249
814.62563
815.612
732.00387
744.39043
756.38828
767.45826
777.38674
786.1047
793.62087
799.96488
805.18298
809.31826
812.4018
814.44643
815.46446
714.54407
732.70493
748.7456
762.50939
774.19221
784.04792
792.30053
799.12395
804.65299
808.98662
812.19568
814.31576
815.36845
693.93706
721.61215
742.45015
758.79303
771.94054
782.66209
791.43981
798.59103
804.33041
808.79958
812.09372
814.26228
815.33892
693.88975
721.55469
742.39477
758.74388
771.9017
782.63833
791.42628
798.58917
804.34649
808.82629
812.11757
814.2827
815.35842
714.49783
732.62144
748.67094
762.45459
774.15901
784.0368
792.30234
799.13888
804.68781
809.03252
812.24043
814.35692
815.40972
732.03204
744.3525
756.33234
767.42356
777.38076
786.12259
793.64815
800
805.23029
809.37021
812.44849
814.48954
815.50801
743.80809
753.02677
762.48153
771.66039
780.25081
788.04691
794.93115
800.84938
805.78972
809.74173
812.70282
814.67506
815.66175
749.66595
757.54855
765.81395
774.03904
781.90651
789.18049
795.69997
801.37192
806.14603
809.98725
812.87767
814.80916
815.77787
)
;
        refGradient     uniform 0;
        valueFraction   uniform 0.99248593;
        value           nonuniform List<scalar> 
130
(
751.00776
758.88126
767.11371
775.25518
782.96811
790.14263
796.59699
802.21838
806.93307
810.72635
813.59061
815.50827
816.46991
745.08644
754.32338
763.73493
772.80228
781.27128
788.98059
795.79636
801.66558
806.55964
810.47131
813.41722
815.37906
816.35846
733.37091
745.66865
757.56833
768.54215
778.40112
787.05406
794.52112
800.81483
805.99085
810.09763
813.16794
815.19963
816.20729
716.02228
734.05291
749.96823
763.63007
775.22453
785.00684
793.20228
799.97684
805.4661
809.76647
812.95916
815.06872
816.11029
695.51495
723.00768
743.69622
759.92833
772.98789
783.6347
792.34846
799.44433
805.14066
809.57779
812.86028
815.01856
816.08876
695.41936
722.91588
743.6115
759.8497
772.92129
783.59712
792.32306
799.43465
805.1694
809.62936
812.89875
815.04919
816.11881
715.91916
733.91768
749.8759
763.56984
775.191
785.00632
793.21052
799.99524
805.51733
809.83466
813.02192
815.12331
816.16784
733.36248
745.61199
757.49562
768.51904
778.41849
787.10243
794.56662
800.86405
806.05982
810.17114
813.22459
815.25005
816.26109
745.10139
754.22011
763.62093
772.72049
781.25739
789.00442
795.83947
801.70623
806.61256
810.53956
813.48126
815.43881
816.41797
750.93555
758.73073
766.9291
775.08181
782.89214
790.11814
796.58959
802.22005
806.96504
810.78174
813.65286
815.57127
816.53551
)
;
        Tnbr            T;
        thicknessLayers List<scalar> 0();
        kappaLayers     List<scalar> 0();
        kappaMethod     fluidThermo;
        kappa           none;
        alphaAni        none;
        alpha           none;
        field           T;
    }
    bottomWater_to_leftSolid
    {
        type            compressible::turbulentTemperatureCoupledBaffleMixed;
        refValue        nonuniform List<scalar> 
130
(
928.20209
928.18447
928.14725
928.08259
927.98598
927.85721
927.68946
927.47885
927.23439
926.95825
926.65563
926.33611
926.09191
928.14266
928.12877
928.09388
928.02811
927.93247
927.80457
927.62651
927.40001
927.1391
926.84373
926.51659
926.16793
925.90687
928.06597
928.05049
928.01138
927.93977
927.84325
927.71804
927.52096
927.27032
926.978
926.64807
926.29545
925.97974
925.76797
927.94294
927.92693
927.88506
927.81464
927.71587
927.57257
927.35629
927.07812
926.74022
926.34169
925.9263
925.58116
925.35671
927.80253
927.77931
927.72922
927.64663
927.52962
927.3632
927.12208
926.81004
926.42198
925.94441
925.49238
925.12277
924.88008
927.66794
927.63864
927.57578
927.47327
927.32871
927.13431
926.86172
926.51334
926.0866
925.63644
925.21891
924.81367
924.57608
927.5684
927.53365
927.45705
927.33248
927.15327
926.90888
926.59192
926.21878
925.82329
925.44364
925.08513
924.75608
924.5682
927.51536
927.47542
927.38931
927.24997
927.05107
926.77751
926.444
926.10153
925.7613
925.43639
925.12856
924.84149
924.6732
927.48656
927.44705
927.35904
927.21765
927.01462
926.74366
926.43705
926.12446
925.81084
925.5125
925.23573
924.9888
924.82107
927.46703
927.4302
927.34726
927.21018
927.00644
926.74269
926.45486
926.16039
925.85542
925.57458
925.32076
925.10338
924.94771
)
;
        refGradient     uniform 0;
        valueFraction   uniform 0.99248593;
        value           nonuniform List<scalar> 
130
(
928.50854
928.48439
928.44505
928.37702
928.27363
928.14344
927.97615
927.75926
927.5134
927.23446
926.92852
926.55117
926.20317
928.43666
928.42317
928.3902
928.31884
928.21995
928.09883
927.91633
927.67757
927.41586
927.11726
926.77669
926.3271
925.931
928.36879
928.35479
928.31732
928.23198
928.1334
928.03702
927.81895
927.55651
927.26079
926.9241
926.53097
926.17816
925.90858
928.23363
928.22078
928.17842
928.10905
928.02212
927.89194
927.66374
927.38219
927.04129
926.60742
926.11215
925.72263
925.43146
928.08672
928.06009
928.01194
927.93075
927.8247
927.67055
927.42466
927.11314
926.7234
926.11507
925.59947
925.20797
924.88966
927.94148
927.90902
927.8473
927.74539
927.6073
927.43557
927.16296
926.80998
926.31261
925.80109
925.38606
924.83151
924.5355
927.83744
927.80125
927.723
927.59768
927.41825
927.1682
926.82918
926.40885
925.97222
925.58781
925.21671
924.80681
924.59947
927.79138
927.74772
927.65937
927.51646
927.31768
927.01433
926.63152
926.27968
925.93533
925.61086
925.29708
924.93176
924.7356
927.76769
927.72677
927.63397
927.49083
927.28399
926.97969
926.65262
926.33617
926.01153
925.70691
925.42247
925.14088
924.91312
927.74178
927.70417
927.6217
927.48948
927.27385
926.9827
926.68265
926.39055
926.05731
925.77492
925.51868
925.29284
925.08531
)
;
        Tnbr            T;
        thicknessLayers List<scalar> 0();
        kappaLayers     List<scalar> 0();
        kappaMethod     fluidThermo;
        kappa           none;
        alphaAni        none;
        alpha           none;
        field           T;
    }
    bottomWater_to_heater
    {
        type            compressible::turbulentTemperatureCoupledBaffleMixed;
        refValue        nonuniform List<scalar> 
92
(
730.56998
732.67425
736.76046
742.56273
721.04228
723.50664
728.34159
735.27212
701.29144
704.47504
710.8746
720.30131
345.0921
342.41396
342.4266
345.02922
421.07995
417.8412
418.02539
421.42926
486.30826
483.55085
484.20454
487.79348
541.84837
540.15005
542.00122
546.38285
669.33993
587.7313
673.3402
587.99073
681.9212
592.58527
695.73813
600.0718
345.0921
345.02922
421.07995
421.42926
486.30826
487.79348
541.84837
546.38285
587.7313
600.0718
344.99235
344.99235
342.37672
342.39465
345.0029
345.0029
421.05045
421.05045
417.82565
418.0024
421.40769
421.40769
486.25297
486.25297
483.53363
484.18284
487.73943
487.73943
541.77648
541.77648
540.14832
541.99477
546.32059
546.32059
587.7656
587.7656
588.04206
592.597
600.01
600.01
669.79986
673.72365
682.14856
695.78697
701.85108
704.97167
711.23765
720.46614
721.52352
723.934
728.67004
735.45777
730.8766
732.9318
736.92709
742.62798
)
;
        refGradient     uniform 0;
        valueFraction   nonuniform List<scalar> 
92
(
0.99248593
0.99248593
0.99248593
0.99248593
0.99248593
0.99248593
0.99248593
0.99248593
0.99248593
0.99248593
0.99248593
0.99248593
0.99248593
0.99248593
0.99248593
0.99248593
0.99248593
0.99248593
0.99248593
0.99248593
0.99248593
0.99248593
0.99248593
0.99248593
0.99248593
0.99248593
0.99248593
0.99248593
0.99248593
0.99248593
0.99248593
0.99248593
0.99248593
0.99248593
0.99248593
0.99248593
0.99248593
0.99248593
0.99248593
0.99248593
0.99248593
0.99248593
0.99248593
0.99248593
0.99248593
0.99248593
0.99248593
0.99248593
0.99248593
0.99248593
0.99248593
0.99248593
0.99248593
0.99248593
0.99248593
0.99248593
0.99248593
0.99248593
0.99248593
0.99248593
0.99248593
0.99248593
0.99248593
0.99248593
0.99248593
0.99248593
0.99248593
0.99248593
0.99248593
0.99248593
0.99248593
0.99248593
0.99248593
0.99248593
0.99248593
0.99248593
0.99248593
0.99248593
0.99248593
0.99248593
0.99248593
0.99248593
0.99248593
0.99248593
0.99248593
0.99248593
0.99248593
0.99248593
0.99248593
0.99248593
0.99248593
0.99248593
)
;
        value           nonuniform List<scalar> 
92
(
732.11942
734.20515
738.24983
743.98504
722.55966
724.98949
729.76931
736.65402
702.89548
706.04475
712.39373
721.76259
349.44931
346.75041
346.75396
349.30928
424.84441
421.57672
421.75643
425.09567
489.57685
486.80615
487.42807
490.95945
544.68529
542.96233
544.74615
549.09794
671.12128
590.12586
675.08486
590.37672
683.61912
594.95447
697.34792
602.40043
349.45426
349.17286
424.76629
424.98186
489.592
490.87314
544.79612
549.05546
590.27424
602.355
349.21678
349.25897
346.66201
346.63589
349.16792
349.17393
424.76686
424.7752
421.58995
421.71393
424.97914
425.04935
489.50858
489.50545
486.81674
487.41612
490.78889
490.8796
544.59929
544.65162
543.01957
544.79767
548.94115
549.03222
590.25583
590.29833
590.55563
595.0108
602.24502
602.26972
671.71618
675.5934
683.88947
697.32701
703.5631
706.64989
712.85503
721.91058
723.07886
725.45593
730.1462
736.85616
732.36258
734.4016
738.33789
743.95878
)
;
        Tnbr            T;
        thicknessLayers List<scalar> 0();
        kappaLayers     List<scalar> 0();
        kappaMethod     fluidThermo;
        kappa           none;
        alphaAni        none;
        alpha           none;
        field           T;
    }
}


// ************************************************************************* //
