/*--------------------------------*- C++ -*----------------------------------*\
| =========                 |                                                 |
| \\      /  F ield         | OpenFOAM: The Open Source CFD Toolbox           |
|  \\    /   O peration     | Version:  v2012                                 |
|   \\  /    A nd           | Website:  www.openfoam.com                      |
|    \\/     M anipulation  |                                                 |
\*---------------------------------------------------------------------------*/
FoamFile
{
    version     2.0;
    format      ascii;
    class       volVectorField;
    location    "740/bottomWater";
    object      U;
}
// * * * * * * * * * * * * * * * * * * * * * * * * * * * * * * * * * * * * * //

dimensions      [0 1 -1 0 0 0 0];


internalField   nonuniform List<vector> 
1460
(
(-0.0011116171 -0.016533909 0.00064039872)
(-0.0026994485 -0.015906747 7.6180149e-05)
(0.00017158391 -0.011935648 0.0012581235)
(0.0025276984 -0.015062953 0.0014104499)
(-0.0027130792 -0.014291547 0.0011870255)
(-0.00188542 -0.010315801 0.00061058819)
(0.0016961819 -0.01277939 6.1984038e-05)
(0.0043496976 -0.012917357 0.00067983974)
(0.0032965181 -0.014932347 0.0014819639)
(0.0014224889 -0.017541898 0.002095568)
(-0.0019289565 -0.01531538 0.0001645736)
(-0.00052151925 -0.010193248 0.0015498632)
(0.00077415685 -0.017660185 0.0013868092)
(-0.0023208501 -0.016418499 -0.00052707707)
(-0.002318381 -0.015556125 -0.0017899863)
(-0.0012251156 -0.010414729 0.00053857638)
(0.0010059327 -0.017463444 -0.00013755973)
(-0.0028319685 -0.015192265 0.00072520875)
(-0.0050010396 -0.013225313 0.00096681582)
(-0.0037871347 -0.012377446 0.0013977083)
(-0.0017411454 -0.012586052 0.0015032037)
(0.00040387827 -0.012476099 0.0018391134)
(0.0019196591 -0.01186624 0.0021103134)
(0.002751945 -0.017875379 0.0028158556)
(-0.00083577754 -0.017780339 0.0016216264)
(-0.0033458608 -0.015939839 0.00097812257)
(-0.0028547872 -0.011354509 0.0012734524)
(-0.00033298927 -0.013123135 0.0007366801)
(0.0022299412 -0.012193251 0.0013314585)
(0.0020675768 -0.019234981 0.0018960451)
(-0.0043651417 0.017934429 -0.00080475424)
(-0.0053602563 0.015018026 -0.0015661308)
(-0.0011496307 -0.0021477667 -0.00076027912)
(0.0028133951 0.015701201 0.0025169222)
(-0.0025777876 0.015246449 0.0017312174)
(0.0015136324 0.00025499226 -0.00040806409)
(0.0026215056 -0.0020319728 -0.0015483092)
(0.0046330442 0.0072314941 -0.0013641716)
(0.0062861669 0.015590284 -0.001028978)
(-0.00019762926 0.018991653 -0.0014976096)
(-0.004436726 0.015806054 -0.0014927074)
(0.00046405875 3.4986939e-05 -0.00085184509)
(0.0032747658 0.017382379 -0.0017599443)
(-0.0029025106 0.018015021 -0.0037914166)
(-0.0031765785 0.015831579 -0.0041340357)
(-1.4130724e-05 0.0024210105 0.0003659244)
(0.0046034131 0.017662842 0.0016135735)
(-0.0048336654 0.017298461 0.0012324726)
(-0.0065532371 0.012452308 0.00083465055)
(-0.0025179637 -0.00025867579 -4.686906e-05)
(-0.0014695033 0.0016634705 0.0016742303)
(0.0023829039 0.00048218496 0.001273605)
(0.0033376898 0.00073832648 0.0010463735)
(0.0072065107 0.01530842 0.002968344)
(0.00065925903 0.019579118 0.0025804837)
(-0.0062980202 0.015824395 0.0021250851)
(-0.0024349099 0.00044763586 0.00023107941)
(2.4360166e-05 -0.00019293517 0.00072506632)
(0.0023953677 0.0014220888 0.00036631889)
(0.0043154404 0.018807908 0.0035845405)
(-0.00157127 0.002302189 -0.0012627361)
(0.0064850197 -0.013833764 0.00021408006)
(-0.00098516981 -0.016322062 -0.001976334)
(-0.0048879972 -0.014913408 0.00073783443)
(0.0038761543 -0.014382105 -0.0011319268)
(0.0055740908 -0.013725297 -0.0021745413)
(0.002942224 -0.014635517 -0.0039689852)
(-0.0037410152 -0.013111133 -0.0038316693)
(0.0027328281 -0.0016721982 -0.00083146024)
(-0.00079004055 0.0050068649 -0.00077395816)
(0.0034538077 -0.012331765 0.0021533778)
(-0.00047163728 -0.014157749 -0.0017042363)
(0.00059186407 -0.0051578206 0.00064385594)
(0.00026703452 0.0033337413 -0.0025244444)
(0.0046690606 -0.012306586 0.001524677)
(-0.0018503008 -0.014648224 0.00030595907)
(-0.0017271637 -0.0088864243 0.0022963785)
(0.00015577921 0.0015279845 -0.00080812606)
(0.0052255474 -0.013193545 -0.0014459915)
(0.0012463201 -0.015554084 -0.0022677177)
(-0.0013850972 -0.014244575 -0.0001815783)
(0.00058591111 -0.014385728 -0.0011772503)
(0.00035612469 -0.014617407 -0.0014889846)
(-0.00068241839 -0.016703768 -0.00022804386)
(-0.00063072798 0.0048289788 0.00077216755)
(0.0024810679 -0.015222673 -0.0033875682)
(0.00089436659 -0.01450321 -0.002344635)
(0.00077628292 -0.013946958 -0.0010288232)
(-0.00059565007 -0.013867027 -0.0016430968)
(-0.0014748425 -0.015261349 -0.0014846053)
(0.0018136928 0.0075398961 -0.0001480077)
(0.0055659576 0.011231346 -0.00013328029)
(0.0018636849 0.01203692 0.0015609047)
(0.0010078566 0.0028467103 0.00057759051)
(0.00098690573 -0.00131336 2.7654669e-05)
(0.0027185748 0.0024939415 0.00089039484)
(-0.00020818257 0.0097313238 0.0018827373)
(-0.0046383636 0.0080182061 0.00061184153)
(-0.002293583 0.0050855027 0.0013768909)
(-0.00027097167 0.0089218007 0.0021778707)
(0.004143038 0.0068277236 0.00094333657)
(0.0014387878 -0.00077217083 -0.00042968813)
(0.0021656853 0.0082045959 8.7522334e-05)
(0.0033466521 0.0079872248 -0.00072164748)
(0.0048403588 0.011548133 -0.0012482896)
(-0.0024606814 0.0083922241 -5.3375491e-05)
(-0.0027022889 0.0062560083 -0.0010360001)
(0.00097193222 0.0047305115 -0.00013058136)
(0.0052918076 0.0087828021 -0.00071221494)
(0.00013928547 0.0089180953 0.0022226115)
(0.0010691678 -0.0024565703 -0.00034375831)
(-0.00014336232 -0.004241325 -0.0010712277)
(0.0019759118 -0.00077040712 -0.0010435177)
(-0.0019648916 0.011766903 -0.0020541569)
(-0.00067538481 0.00803175 0.00093830115)
(0.0015637423 0.012877067 -0.0055556915)
(-0.00051102982 0.00012777849 -0.0012174721)
(0.0016572802 -0.003215438 -0.0024899626)
(0.0020719844 0.00063648198 -0.0021021946)
(0.0013250696 0.011372475 -0.0050399732)
(0.001355023 -0.0032126655 0.0011996724)
(0.0024402957 -0.0097801799 0.00058629361)
(0.0041437085 -0.010117935 -0.00098942514)
(0.0048420391 -0.010645996 -0.0016853475)
(0.00015059507 -0.01070355 -0.0017446252)
(-0.0038343105 -0.0076613713 -0.0017342925)
(-0.00053104657 -0.0016820409 -0.00066009944)
(0.0036644279 -0.0082505202 -0.0021966877)
(0.0026360034 -0.0092521386 -0.0022081945)
(0.0025835909 -0.0076826573 -0.001152323)
(0.0044352293 -0.010452716 -0.00069183828)
(0.0007592826 -0.0098089795 -0.0010424487)
(-0.0024254336 -0.0049918969 0.0015427657)
(-0.00033753338 0.0011865513 0.00077838431)
(0.0025105482 -0.00029830614 0.00052456696)
(0.0046217387 -0.0055472386 8.8311398e-05)
(0.0043138343 -0.0096626642 -0.0010451867)
(0.0025650596 -0.0076221549 -0.0029444809)
(0.003271357 -0.0096707279 -0.0028840012)
(0.0042555459 -0.011446047 -0.0031217847)
(0.0033088434 -0.01049258 -0.0030876941)
(-0.0028671244 -0.0095538303 -0.0038690415)
(-0.0046970783 -0.0081605431 -0.0039379691)
(-0.0042135954 -0.0078352407 -0.0015596154)
(-0.001787786 0.00013536715 -0.0015766907)
(0.0028605558 -0.0051437877 -0.0029363506)
(0.0046179147 -0.0089917901 -0.0031060815)
(-0.0012889192 -0.011073831 -0.0046874275)
(-0.003341436 -0.0080762492 -0.0048406666)
(-0.0024873428 -0.0053488804 -0.0034125936)
(-0.0019874494 -0.015890396 -0.00018858951)
(0.00081677927 -0.010472491 -0.001520506)
(0.0027458795 -0.015820301 0.0019505528)
(0.0027414245 -0.016559837 0.0010268182)
(0.0015357534 -0.016278063 0.0011514513)
(0.0001068473 -0.014753696 0.0019340061)
(-0.00052327654 -0.016897838 0.0030487093)
(-0.0015499381 -0.015268636 0.0014124799)
(-0.0031211781 -0.014549739 0.00041457956)
(-0.0029502836 -0.013650398 -0.00016753849)
(-0.0010760799 -0.010671135 0.00061168431)
(-0.0009513892 -0.014833332 0.0020189054)
(-0.0037598644 -0.014347744 2.5307961e-05)
(-0.0038366904 -0.011709945 -0.00090244345)
(-0.00092717804 -0.012735751 -0.0010765602)
(0.0019947822 -0.013232752 0.00036180786)
(0.00066746305 -0.017255406 0.0002967394)
(-0.0020888762 -0.016951062 0.001173728)
(-0.0037527323 -0.015265956 0.0014629424)
(-0.0041764913 -0.015370268 0.0028923849)
(-0.0022314888 -0.011858111 0.0023743507)
(0.00077817056 -0.012173065 0.0027289629)
(0.001254517 -0.015288948 0.0032884818)
(0.0013161692 -0.016773258 0.0015894596)
(-0.00035593053 -0.018014874 0.001565472)
(-5.040115e-05 -0.01781653 0.00040612857)
(-0.0024674146 -0.014030962 0.0028839975)
(-0.00018337012 -0.012456802 0.0030150814)
(0.0022078828 -0.017816975 0.0036806708)
(0.00056708103 -0.018503514 0.003028741)
(-0.0038919008 0.016715219 -0.00045088978)
(0.0011668515 0.0019588919 -0.00082196675)
(0.0024478392 0.013778192 0.0022328688)
(0.0040267634 0.018035062 0.0035309637)
(0.001393234 0.017634535 0.0040039284)
(-0.00049528165 0.015864894 0.0058142416)
(-0.00018355725 0.017277783 0.0069027249)
(-0.0023264324 0.017308851 0.0024993686)
(-0.0043157302 0.016277699 -0.00080510241)
(-0.0033737531 0.011598564 -0.00154833)
(-0.0025471333 0.0032525738 0.0010656261)
(0.0012218086 0.016686636 0.0019571906)
(-0.0031739332 0.016168101 -0.001871096)
(-0.00077080427 0.0078211232 -0.0015071739)
(0.0013161812 -0.0013523606 0.0001546779)
(0.0044522516 0.0077902667 0.0005327092)
(0.0064559898 0.017571604 0.0013954897)
(-0.0011466714 0.018832282 0.0018809405)
(-0.0057054562 0.017665944 0.0018273869)
(-0.0048532954 0.014977083 0.0037380729)
(-0.00018033626 0.0044771231 0.002474589)
(0.0028799346 0.0078396347 0.0027173735)
(0.0050024752 0.015062519 0.0042129058)
(0.005644597 0.018590806 0.002672768)
(0.0029417174 0.019841428 0.00067221927)
(-0.0029808165 0.019388024 0.003017599)
(-0.0050522338 0.015107453 0.0048134863)
(0.0013347907 0.0024905592 0.0015321354)
(0.0049268647 0.017119511 0.0045753363)
(0.0046652909 0.020111551 0.0054122013)
(0.0030895584 -0.0073854553 -0.0012285325)
(0.0033482772 -0.013447209 9.2324981e-05)
(-0.0043079676 -0.016130206 -0.0022399912)
(-0.0016740085 -0.0071665328 0.0026066462)
(0.0012433994 -0.0047195902 -2.9382652e-05)
(0.0042820884 -0.01168156 -0.0032535066)
(0.0027026836 -0.014606855 -0.0043335993)
(0.00062391346 -0.0049941305 -0.00048210496)
(0.001975563 -0.0083770324 0.0024411693)
(-0.00034604102 -0.014397674 0.0047688741)
(-0.003331805 -0.01355861 0.0029414878)
(-0.0032775777 -0.01223669 0.0010738979)
(0.003331805 -0.010604785 0.0019954806)
(0.0061099361 -0.013662798 0.0023006)
(0.0017627642 -0.015161324 0.0015955559)
(-0.005207396 -0.013860181 -0.0020586629)
(-1.0012871e-05 -0.001517449 0.0019139088)
(-5.0841132e-05 0.007299813 -1.1883846e-05)
(-0.00095101336 0.0031247161 -0.00064359755)
(0.00053652215 -0.01617756 -0.005310768)
(-0.00051341807 -0.014089559 -0.0020970493)
(-0.00097297209 -0.014038201 -0.0035246891)
(-0.0027169814 -0.015427556 -0.0033593893)
(0.00076981223 -0.0030636409 0.0021761237)
(0.0012725375 0.0059411756 0.00041231732)
(-0.00023782501 0.0060409584 0.0011411609)
(0.0029349936 -0.0086253877 -0.0013896237)
(0.0034693228 -0.016144376 -0.0024882997)
(-0.0050768892 -0.016692258 -0.0018758814)
(0.0027042262 0.0049779196 0.0033992528)
(0.001539126 0.0030055546 -0.0012175537)
(0.0040889796 0.0064437701 -0.0018380862)
(-0.00049309013 0.01228112 -0.00054082092)
(-0.0035223725 0.009085766 -0.0007572283)
(0.0021833729 0.0022852432 -0.0032137757)
(0.0048020904 0.0087276737 -0.0034564023)
(0.0011832183 0.012367085 -0.0039324997)
(-0.002334572 0.0085468868 -0.0011836077)
(0.00085585206 0.0095131625 0.0044915422)
(-0.0017142559 0.010905362 0.0050812619)
(-0.00092476357 0.0010833497 -0.00088588921)
(-0.0014368545 0.00065129918 0.00062052334)
(0.00067447742 0.001329693 0.0012771216)
(0.0025662767 0.0058507614 0.0018038943)
(-0.00148505 0.011107991 -1.5128562e-05)
(-0.0037226222 0.010251444 0.0014609911)
(-0.0027539793 0.0078595966 0.0009393388)
(-0.00021021068 0.010661726 0.00072141194)
(0.0032113218 0.0080226578 0.0015600638)
(0.0025085165 0.01010371 0.0011572465)
(0.00012922085 -0.0010355427 -0.00074076195)
(-0.00018470644 0.0041379604 -0.0012137783)
(-0.0024570395 0.010633033 -0.0010131381)
(-0.0035927695 0.007888479 -8.1092101e-05)
(-0.00036404201 0.0097228377 0.0021932254)
(0.001455404 0.0097868795 -0.0021900178)
(0.0044050541 0.0087679523 -0.0028149899)
(0.0067594067 0.010337636 -0.00045975441)
(0.00011279306 0.012302307 0.00080819237)
(-0.0021285916 0.0086095038 0.0011756521)
(-0.0017733477 -0.010558911 -0.0026619266)
(-0.0028240147 -0.0079576107 -0.0034688952)
(-9.8879243e-05 -0.00037135958 -0.0016207091)
(0.0042848802 -0.0077794627 -0.0020070321)
(0.00053042034 -0.01123765 -0.0031726954)
(-0.0037196079 -0.0084228789 -0.0034780357)
(0.00051451062 -0.00028987871 -0.0032703743)
(0.0027474614 -0.0025710748 -0.0024912592)
(0.003307375 -0.0063783451 -0.0019226187)
(0.0042541191 -0.0090276734 -0.001612397)
(0.0040930497 -0.0095440644 -0.0028190189)
(-0.00030903692 -0.010255074 -0.0022147611)
(-0.0031077628 -0.009555773 0.0018534277)
(-0.0047561368 -0.0079863467 0.0026756725)
(-0.0040903201 -0.0066077753 0.002306586)
(-0.0028828624 -0.0078484937 0.00043270046)
(-0.0029267346 -0.0022332264 -0.00043362119)
(0.000250267 0.0042249031 -0.00035622987)
(0.003435411 0.00099465069 -0.00088119422)
(0.004500422 -0.0059033506 -0.0011411003)
(0.001449318 -0.0094565333 -0.00338915)
(-0.0045121778 -0.0081635444 -0.0042663699)
(-0.0030341409 -0.0054312271 -0.0040620392)
(-0.0027624439 -0.0058576734 -0.0013475773)
(-0.0013560151 0.0020464394 0.0010971062)
(0.0030418445 0.00044905041 -0.00024223634)
(0.0031412858 -0.010153706 -0.0014455512)
(-0.0029999416 -0.010947631 -0.0039600106)
(-0.0015809674 -0.001982431 -0.0026963771)
(-0.0010389409 0.00036560915 -2.5582157e-05)
(-0.0016298781 -0.016402593 -0.00085505637)
(0.00077691606 -0.010943116 -0.00066404655)
(0.0029868173 -0.014418865 -0.00056005825)
(0.00080969437 -0.015493257 -0.0010798155)
(0.00015812266 -0.016786798 -8.9958978e-05)
(-0.0017117781 -0.016149053 0.00039868692)
(-0.0025192136 -0.015941083 0.00016404113)
(-0.0038870832 -0.014506838 -0.00091451578)
(-0.0047018782 -0.014539465 -0.00087021823)
(-0.0020188631 -0.012690065 0.00013377181)
(0.0011685035 -0.011020586 0.0024132914)
(0.0022641956 -0.015973122 0.0013766403)
(-0.0026655965 -0.014238313 -0.00047244621)
(-0.0019780749 -0.01001795 -0.00057057718)
(0.0010645959 -0.010933564 0.0009168243)
(0.0015540969 -0.014724223 0.00246985)
(-6.9521117e-05 -0.01681626 0.0026892572)
(-0.0016940953 -0.016832662 0.00083624218)
(-0.0017167506 -0.016822162 -0.0022684568)
(-0.0019130304 -0.016314379 -0.001896386)
(-0.0021334135 -0.016204473 -0.001171078)
(-0.0018429732 -0.016612585 -0.00021905673)
(-0.0025441718 -0.016673285 -0.00038791476)
(-0.00026111557 -0.013163954 -0.00045971917)
(0.0017412505 -0.015963104 -0.002518337)
(0.00090773116 -0.019103576 -0.0023889617)
(1.2823097e-05 -0.017550175 -0.0015343189)
(0.00021487024 -0.017770755 6.8459955e-05)
(0.0011373047 -0.018574079 -0.00030948267)
(-1.0273916e-05 -0.01664938 -0.00031279085)
(-0.0041936375 0.016360283 -0.00043439624)
(-0.0010788387 0.00097513618 -0.00022369921)
(0.004582954 0.015652272 5.2848343e-06)
(0.0042501734 0.017741434 0.00042129112)
(0.0021764281 0.018210876 0.0017699836)
(-0.0012157488 0.017975428 0.0040852486)
(-0.0033218691 0.017967001 0.0027518699)
(-0.0062141612 0.016743997 -0.00054638739)
(-0.0066669624 0.012980703 -0.00044989027)
(-0.0015005014 -0.00050326775 0.001918973)
(-0.0013497236 0.0012750874 0.0028571778)
(0.0041345134 0.017738045 0.0032105857)
(-0.0025696253 0.016065128 0.0016518507)
(0.0011305174 -0.00063541671 -0.0015009647)
(0.0028208045 -0.00046158075 -0.0011405771)
(0.0072339547 0.013339838 -0.00023215207)
(0.0052554466 0.017985436 -0.00065697523)
(-0.0014368121 0.018344848 -0.0025304626)
(-0.0014106794 0.017043914 -0.0052324854)
(0.0019416384 0.017830847 -0.0035856386)
(0.0023652114 0.018071198 0.00012882621)
(0.0011560584 0.018213161 0.0027891401)
(-0.0027769826 0.017866777 0.0015377587)
(-0.00030382387 0.0051324249 -0.00046229074)
(0.004257724 0.016366624 -0.0044004638)
(0.0034330313 0.020439013 -0.0063330646)
(-0.0020801194 0.019599612 -0.0044545181)
(-0.001133506 0.018763597 -0.0021311913)
(0.003301232 0.020203876 -0.0016172003)
(0.0031993695 0.018777143 -0.0004111198)
(0.0028519861 -0.0035435431 -0.00049413364)
(-0.00090837748 -0.015287919 0.00069054238)
(-0.0063817533 -0.014105569 0.00076150594)
(-0.00056933567 -0.00095427907 -8.9593734e-05)
(0.0006908536 0.0011866241 0.0017646548)
(0.0011515592 0.0032408868 0.0027938489)
(0.00021798764 0.0048317076 0.0030922266)
(-0.00099965505 0.0009904483 0.0014805269)
(0.0037843124 -0.014084708 0.0035097001)
(0.00102805 -0.015359366 0.004050951)
(-0.005394412 -0.014740537 0.0022113304)
(-0.0057585713 -0.011872487 0.001697451)
(-0.00048733778 -0.0095851517 -0.00022873945)
(0.0027618916 -0.013685733 -0.0021251782)
(7.4756066e-05 -0.014283742 -0.0034788274)
(-0.0040800934 -0.013430248 -0.0048453864)
(0.0010390035 0.003351604 -0.00070517359)
(-0.0012084021 0.0027470688 -0.00035343731)
(0.00241929 -0.016753528 0.0017764501)
(-0.000921279 -0.014391022 0.00010501666)
(0.0017325669 -0.0049427033 0.0013808546)
(-0.00031576276 0.0017185087 0.0015497754)
(0.001133132 -0.0016602674 -0.001842674)
(0.00060716486 -0.015690918 -9.5333858e-05)
(-0.0041083406 -0.01512484 0.0033060956)
(0.0022699984 0.0043707268 -0.0048309573)
(-0.002302542 0.0047694421 -0.004090813)
(0.0028110245 -0.018291811 -0.0032703208)
(-0.0030036322 -0.016080574 0.002805105)
(0.0016079568 0.0040237689 4.5923812e-05)
(0.0037151205 0.0081219803 -0.0014160615)
(0.00073445069 0.0097834915 -0.0010685382)
(-0.0063393562 0.011250611 -0.0011935402)
(-0.00447995 0.0082252998 -0.00095738603)
(0.00060940324 0.0093972491 -0.00020088233)
(0.0022789036 0.0088667545 0.00044822969)
(0.0018589483 0.0089479039 0.00048399646)
(0.0026983386 0.0066836794 0.00092268206)
(0.0030679421 0.0091264952 0.0014174164)
(0.00037585261 0.010588277 0.0020525808)
(0.00034247446 0.01022381 -0.00038182997)
(-0.003309599 0.010133846 -0.0017991579)
(0.0011289709 -0.00067451994 -0.0038723572)
(-0.0007406155 -0.003459858 -0.00038842294)
(0.0017238406 0.0052849415 -0.00089960328)
(-0.003510042 0.010692379 -0.0030862042)
(-0.0022898864 0.008990013 -0.0010918399)
(0.0023042483 0.0091634411 0.0012455089)
(0.0015968023 0.012444297 0.00080962129)
(-0.0040648684 0.0053363032 0.00019206991)
(-0.0017334233 0.0066619455 0.0023091043)
(-0.0014964213 0.0082558308 0.00024403756)
(0.0018018095 0.008303914 -0.0040113593)
(-4.2120934e-06 0.011368701 0.0015783664)
(-0.0048167617 0.0122665 0.0030595605)
(-0.0015916291 0.0087346015 -0.00063117794)
(0.002869655 0.0072287356 -0.0021947747)
(0.0073534639 0.011088315 -0.002583749)
(-0.0041938181 0.013508881 -0.00060273022)
(-0.0021685142 0.0094624033 0.0012021765)
(-0.0019481963 -0.0072850524 -0.0029432995)
(-0.00076533143 -0.002464901 -0.0027961449)
(-0.00030560111 -0.0033883305 -0.0010002768)
(0.0028295117 -0.0078202693 -0.0011282302)
(-0.0011181139 -0.0074097659 -0.0027411122)
(0.00025921752 0.0011232995 -0.00075878256)
(0.0020076675 0.0019420012 0.00062113476)
(0.0034310439 -0.0013421694 0.00020656745)
(0.0030413261 -0.0058184445 -0.00080395913)
(0.002567513 -0.007012175 -0.0017260459)
(0.0028720371 -0.0076513727 -0.0036011518)
(0.0027106187 -0.0096304818 -0.0037826416)
(0.0034508902 -0.010338271 -0.0041701702)
(-0.0042115564 -0.0095334068 0.00078386287)
(-0.0056356514 -0.0072171848 0.00090999424)
(-0.0042075383 -0.0021594545 0.00033435904)
(-0.0027992604 0.00018546105 0.00098343249)
(4.2187354e-05 0.001712863 0.001973443)
(0.0024796274 -0.0023761854 0.0021757322)
(0.0023201576 -0.010015175 0.0017394267)
(-0.0035039315 -0.0078918141 -0.0029060901)
(-0.0029275221 -0.0010271342 -0.0022651244)
(-0.0015253472 -0.00034754544 -0.0036586672)
(0.00052704433 -0.0034587518 -0.00018704279)
(0.001963703 -0.0060902123 0.0011835651)
(0.0043510761 -0.0083624625 0.0011451206)
(9.448534e-05 -0.010025515 0.0034427365)
(-0.0022623002 -0.0056705604 0.0018714163)
(-0.0031545419 0.0001379416 0.0017820479)
(0.00014324998 -0.00014525969 0.0028501236)
(-0.001430284 -0.016259497 -0.00047837686)
(-9.8965145e-05 -0.012514863 -0.00088714395)
(0.0025603898 -0.012726793 -0.0010507564)
(0.00073257741 -0.014437267 -0.0016937213)
(-0.00083357915 -0.016321454 1.7780843e-05)
(-0.0012699411 -0.015184822 0.00053954867)
(-0.0024865595 -0.013829691 -0.00062627903)
(-0.0035491915 -0.013327669 -0.0017107622)
(-0.0034472318 -0.012819251 -0.0010035374)
(0.00030342443 -0.012444064 0.0017740327)
(0.0031377817 -0.013462508 0.0027350588)
(0.0021333321 -0.015279456 0.0020165142)
(0.00047581899 -0.016601953 0.0014752277)
(-0.0012569825 -0.015723736 0.0023480704)
(-0.0011932671 -0.016228309 0.0028047762)
(-0.0010082737 -0.015851907 0.0019907819)
(-0.0021700948 -0.015012589 0.00028147284)
(-0.0036739179 -0.013271264 -0.0016192947)
(-0.0020139187 -0.010587215 -0.0011722472)
(0.0008018653 -0.011246248 -0.0010189399)
(0.0014285341 -0.014344418 -0.0034429133)
(0.00072893442 -0.016038332 -0.0031746223)
(-0.00011128656 -0.019391517 -0.0026119185)
(-0.0020849016 -0.016985403 -0.00032663116)
(-0.00098143498 -0.011683684 -0.0019124159)
(0.0013330622 -0.019495391 -0.0030882994)
(-0.0016032518 -0.015820325 -0.0027482724)
(-0.00091819098 -0.012566943 -0.0028397917)
(0.0016518783 -0.012684348 -0.0012667654)
(0.001496963 -0.016212488 -0.0018235381)
(-0.0049169513 0.016451525 -0.0018301812)
(-0.0010979686 0.0042352676 -0.00096298487)
(0.0016977735 0.011499233 -0.001415448)
(0.0030329064 0.016580793 -0.0020607481)
(-0.00093325642 0.017874506 -0.0024981992)
(-0.0026330847 0.017200016 -0.0016088711)
(-0.0043392244 0.016277812 -0.0034712679)
(-0.0050786379 0.014493137 -0.0039984701)
(-0.0022232546 0.006878898 -0.0017379878)
(0.0002065017 -0.0010767592 0.00098785853)
(0.0044063462 0.012656528 0.0046568821)
(0.0039832424 0.017359501 0.0043638985)
(-0.0017970825 0.018819959 0.0024463347)
(-0.0023975128 0.017124669 0.0039405707)
(0.0016063321 0.017020859 0.002794654)
(0.0025910514 0.017917026 0.0012270232)
(-0.0020283233 0.017389063 -0.0024511547)
(-0.0030672797 0.013708491 -0.0025901977)
(0.00084816213 -0.0018884461 0.00025346509)
(0.0022487211 0.00079410854 0.0011763507)
(0.0057057599 0.011662485 -0.00197453)
(0.0063737327 0.016792808 -0.0037415599)
(0.0028610245 0.020327333 -0.0032842611)
(-0.0055348709 0.017144674 0.0012882477)
(-0.00054155934 0.0017147273 -0.0013485057)
(0.0016007879 0.018458865 -0.0063412128)
(-0.0019831659 0.016488862 -0.0062413528)
(0.00041967448 0.0059638043 -0.0015080677)
(0.0019572772 0.0070366333 0.0010056483)
(0.0049956477 0.017304837 -0.00052152933)
(0.00057496096 -0.0013526028 -0.00095828501)
(-0.00053044939 -0.015644235 -0.00094350473)
(-0.0066424281 -0.013550161 -0.0021294901)
(-0.0019468763 -0.0021903876 -0.002139394)
(-0.0018022728 0.0028076718 -0.00084349032)
(0.00064354327 0.0033149119 0.0013237896)
(0.0012673955 0.0016580778 0.00054353974)
(0.0027523916 -0.0083322948 0.00055966741)
(0.0043527027 -0.014683975 0.00096817681)
(-0.0022185737 -0.015218395 -0.0018394251)
(-0.0056797511 -0.013093281 -0.0023318841)
(-0.00022741403 0.00024401329 0.0013040129)
(-0.0024503514 0.0037206493 0.0021440468)
(0.0024873427 -0.01381594 -0.0018065084)
(0.0003742417 -0.01767587 -0.0028492999)
(0.00099497208 -0.0040852214 -0.0016925777)
(0.0020761276 -0.0052237806 -0.001208993)
(0.0047535107 -0.015277726 -0.00085966404)
(0.002801755 -0.014713208 0.0012554864)
(-0.00031201047 -0.014180855 0.0048181625)
(-0.0032398617 -0.013669217 0.005035337)
(0.0008899722 0.00019984824 0.00029405519)
(0.00089849338 0.0077650709 -0.0020715434)
(0.0012259925 -0.0040238125 -0.0018432055)
(0.0026046384 -0.015607089 -0.00072070534)
(-0.0035279478 -0.018421158 0.003979415)
(0.0016154025 -0.012047828 0.0035197033)
(0.0032595494 -0.014025632 0.0029095229)
(-0.0022724742 -0.015296157 0.0039748367)
(-4.7503145e-05 -0.0018304763 0.0016004428)
(0.0027019882 0.0078054472 -0.00063418428)
(0.00066447548 0.0099869024 -0.00038675819)
(-0.0062812191 0.010765529 -0.0014279025)
(-0.0045701419 0.0083182692 -0.0013506591)
(-0.0017325433 0.0094215939 0.00018140403)
(0.0017560361 0.009226992 0.0024758315)
(0.0030608098 0.0078533692 0.0027741019)
(0.0041849408 0.0083372201 0.0029829148)
(0.0030437676 0.010040707 0.001009625)
(0.00062932225 0.0098128869 -8.0724985e-06)
(-0.0035156571 0.0093901513 -0.0021879433)
(-0.0026354584 0.0076253315 -0.00038150805)
(-2.962676e-05 0.0075449598 0.0027154212)
(0.0032661689 0.0062893154 0.000246024)
(0.00041605255 0.011479432 -0.0011000256)
(-0.0019965008 0.0049286478 -0.0016406716)
(0.0029710064 0.0073038164 0.00090079402)
(0.0019077406 0.011305281 -0.00012745445)
(-0.00087732303 0.00048041942 0.00038104736)
(-0.00056291242 0.0038423096 0.0022759925)
(-0.0031352686 0.0096911198 0.0019008422)
(-0.0023823791 0.0077958223 0.001092456)
(0.00064976991 0.010939074 -0.0017852333)
(0.0037583044 0.0091240653 -0.0028912912)
(0.005300667 0.010764174 -0.00094306986)
(0.00061207809 0.014089472 0.0028895897)
(0.00056677606 0.00021205032 0.0040425508)
(-0.0002958884 0.0004541674 0.00045824115)
(-0.0031177677 0.010369798 -0.00039040761)
(-0.0037912697 0.008034965 0.0014202858)
(-0.0031279697 -0.0073580014 0.0021349063)
(-0.0011144553 -0.0018798733 0.0010218257)
(-0.0015730005 -0.0024007634 0.00072049151)
(0.00025836018 -0.0047401806 0.00080312382)
(-0.0023515742 -0.00033274873 0.0018121182)
(0.00097396546 0.0021513786 0.0030924242)
(0.0025162434 -0.00014219495 0.0031994034)
(0.0032571825 -0.0063759945 0.0025622594)
(0.0015143292 -0.0090608981 0.0022745309)
(0.00052596972 -0.0061029557 0.0015044541)
(0.00091400783 -0.0057018006 -0.0012835453)
(0.00066377534 -0.0032082804 -0.0025330744)
(0.0028485938 -0.0063350088 -0.0044976116)
(-0.0014985174 -0.011246442 -0.0013881882)
(-0.001774081 -0.010803594 -0.00047300122)
(-0.0018125213 -0.0096806513 0.0034890525)
(-0.0036889729 -0.008574198 0.0036874589)
(0.00054568374 -0.00600447 0.0037319291)
(-0.00058124662 -0.008807772 0.0044585152)
(-0.0046999064 -0.0090507913 0.0013363969)
(-0.0041473914 -0.0034840837 0.00079865701)
(-0.0034240104 0.00034259387 0.00049913683)
(-0.00081680198 0.0038008056 -0.00062335543)
(0.0030359931 -0.0016500924 0.00057602085)
(0.0040220463 -0.0042870896 0.0019233832)
(0.0056286864 -0.0054377664 0.0033318518)
(0.005762768 -0.009459903 0.0041266066)
(-0.0012631556 -0.0098558514 0.0054160091)
(-0.002993513 -0.0081094625 0.0060978943)
(3.2228851e-05 -0.0065514326 0.004995239)
(-0.0022162966 -0.016287037 -0.00087355613)
(0.00012458147 -0.010319153 -0.0010334614)
(0.002277596 -0.013993806 -0.0013395954)
(-0.0010425219 -0.016312644 -0.0025133417)
(-0.0013058384 -0.014780803 -0.002462282)
(-0.0021253766 -0.013340862 -0.002986563)
(-0.0028023517 -0.012414914 -0.0034665089)
(-0.0022486055 -0.011328864 -0.0032020839)
(0.0011185209 -0.011556461 -0.0015867598)
(0.0027232763 -0.014015497 0.00087189596)
(0.0028677608 -0.014308816 0.00011577457)
(0.0018411857 -0.015595025 -0.00092061989)
(0.00069414225 -0.015495236 -0.0020608599)
(-0.0021191093 -0.016376287 -0.00067566521)
(-0.002146101 -0.01161525 0.0012199555)
(-0.0010568326 -0.013241112 0.0016728342)
(0.0013333376 -0.013515506 0.00019060171)
(0.0025585825 -0.01394607 -0.0011588355)
(0.0020617061 -0.0180771 -0.0010733781)
(0.00028423403 -0.019284972 -0.00087498581)
(-0.0028893671 -0.015756577 -0.00050909791)
(-0.0020906259 -0.012010575 -0.0020507934)
(-0.0010273087 -0.012059772 -0.00072805738)
(0.0013913371 -0.013244321 -0.00049026284)
(0.0031787225 -0.013377437 -2.3689578e-06)
(0.00210852 -0.017223812 -0.00017162274)
(-0.0033704669 0.016798377 -0.0015549257)
(-0.00035847183 -0.00012291784 3.6206029e-05)
(0.0049655505 0.014999455 -0.00041407746)
(0.0014872832 0.018270337 -0.0027541676)
(-0.002961744 0.016966831 -0.0049998026)
(-0.003462195 0.015907457 -0.0052838836)
(-0.0043184259 0.013920223 -0.0050010139)
(-8.4200888e-05 0.0036355112 -0.0022329095)
(0.0014032989 0.0015007496 -0.00022838314)
(0.0052286098 0.011925006 0.0030576575)
(0.0050365605 0.016165282 0.0033209936)
(0.0014240336 0.017554008 0.0013034637)
(-0.0026511521 0.017144629 -0.0042951156)
(-0.0026909578 0.017467114 0.0012164295)
(-0.0006694104 0.0042706558 0.0011933241)
(0.0013382427 0.0027185434 0.00075258622)
(0.0022694516 -0.00064394467 -0.0011335743)
(0.0048372193 0.0086460528 -0.0039659549)
(0.0053993416 0.017384714 -0.0061089346)
(-0.0040510493 0.020298223 -0.0029700825)
(-0.0051884935 0.013864054 -0.0025917922)
(-0.0018623596 0.00015301685 -0.0024440296)
(-0.00031037363 -0.0009604297 -0.00070276893)
(0.0018595963 -0.0012141487 0.00025189352)
(0.0039241144 0.0073062748 0.00089609705)
(0.0055980687 0.017625291 0.00082447764)
(0.0051351116 -0.0098778147 0.0023121523)
(-0.00074158807 -0.014542116 -0.00031961134)
(-0.0055318558 -0.010854202 -0.0031243501)
(-8.481417e-05 0.0025167549 -0.0023140185)
(-0.00016915047 -0.00065675049 -0.0020955448)
(0.0017721267 -0.0024607363 -0.0012893697)
(0.0041814985 -0.011393406 0.0018441772)
(0.0037679505 -0.014361305 0.0019716025)
(-0.0016322214 -0.014176359 0.00031719451)
(-0.0032370246 -0.013409125 1.5834443e-05)
(-0.00010996937 -0.0017232674 0.00074342077)
(-0.0011629368 0.0027787052 -1.1937126e-05)
(0.00021756187 -0.013814052 0.0029481921)
(0.0037112221 -0.011153945 -0.0014340103)
(0.0043804061 -0.013881839 -0.0015545907)
(0.0045547639 -0.014905792 -0.0014196166)
(-0.00054248575 -0.016147029 -0.0013840809)
(-0.0040542288 -0.0138179 -0.001287781)
(-0.00041243279 0.00039765926 -0.0021231932)
(-0.0034974743 0.0041550221 -0.0016614935)
(0.0034291957 -0.015255342 -0.005830538)
(0.00050625645 -0.014890188 -0.0022400582)
(0.0012411594 -0.014468031 0.0017792683)
(0.00044760889 -0.014797189 0.0015643465)
(-0.0029518896 -0.013800191 0.00049711787)
(0.0015200697 -0.0026130265 0.00059471606)
(0.001878065 0.005270957 0.0032897152)
(-0.0011152985 0.010040601 -0.0016484393)
(-0.0057349538 0.010186089 -0.0027457154)
(-0.0024352061 0.0066268245 -0.0022297363)
(0.0020257867 0.0071109247 -0.00012331627)
(0.0039942468 0.007104582 0.00073247601)
(0.004373459 0.0092886375 0.0023219356)
(0.0016225858 0.0096909225 0.0016930175)
(0.0012059487 0.0042680894 0.0013168585)
(-0.0013469394 0.0020568114 0.0022541435)