/*--------------------------------*- C++ -*----------------------------------*\
| =========                 |                                                 |
| \\      /  F ield         | OpenFOAM: The Open Source CFD Toolbox           |
|  \\    /   O peration     | Version:  v2012                                 |
|   \\  /    A nd           | Website:  www.openfoam.com                      |
|    \\/     M anipulation  |                                                 |
\*---------------------------------------------------------------------------*/
FoamFile
{
    version     2.0;
    format      ascii;
    class       volScalarField;
    location    "400/bottomWater";
    object      p_rgh;
}
// * * * * * * * * * * * * * * * * * * * * * * * * * * * * * * * * * * * * * //

dimensions      [1 -1 -2 0 0 0 0];


internalField   nonuniform List<scalar> 
1460
(
0.25654476
0.2668085
0.27109872
0.27256881
0.27273039
0.26986741
0.26659279
0.26404524
0.26809994
0.27421316
0.27928626
0.29141027
0.30430576
0.30374681
0.29038038
0.29446288
0.3078646
0.31895029
0.31928992
0.31996044
0.31379701
0.32059611
0.31667084
0.31726402
0.33288917
0.31479595
0.33689783
0.33071041
0.33088635
0.33269296
-0.197902
-0.19018203
-0.20783423
-0.24209043
-0.24520204
-0.24201351
-0.22540224
-0.22229224
-0.23059334
-0.23766621
-0.24556809
-0.20590834
-0.20047113
-0.25973278
-0.24235769
-0.23503397
-0.20310431
-0.18702348
-0.1981391
-0.23784221
-0.27197274
-0.28525853
-0.27472384
-0.25126309
-0.21878385
-0.24206128
-0.2205136
-0.27295357
-0.31204884
-0.29239197
0.07708563
0.061634553
0.045210463
0.062682154
0.091025723
0.096312762
0.077612359
0.077073542
0.086140621
0.10009555
0.10794184
0.050191327
0.055736387
0.08623075
0.079986123
0.040953325
0.057106927
0.054373183
0.073854823
0.032056132
0.067758866
0.090831011
0.084418156
0.077274435
0.076796033
0.098199717
0.055717108
0.07648407
0.079383451
0.16652469
-0.050306502
-0.045992546
-0.057572591
-0.061859192
-0.037547773
-0.047723529
-0.072202815
-0.079332036
-0.072349422
-0.042593101
-0.048145041
-0.073021036
-0.074752698
-0.045597041
-0.051878181
-0.059314674
-0.046245753
-0.020801896
-0.050132415
-0.070512859
-0.075424856
-0.045168165
-0.067358241
-0.067869906
-0.052420048
-0.091920358
-0.095826948
-0.11347629
-0.066600462
-0.03633969
0.0040263988
-0.014242031
-0.004990536
0.0025315231
0.0029046641
0.00060778811
0.0034263806
0.03452697
0.0058632304
-0.002201939
-0.015865152
0.0063271995
0.011599979
-0.00010948794
0.0070911617
0.01253929
0.00042949078
-0.0034129017
-0.0087149542
0.013464185
0.021635293
0.015423401
0.0054226396
-0.0060412614
-0.0060005054
-0.011681817
0.015914653
0.029791377
0.034905881
0.051386396
0.25981022
0.27275672
0.26515007
0.26414112
0.26705998
0.27182351
0.28329211
0.29204163
0.28873596
0.29527312
0.29524953
0.29770362
0.2985262
0.30193505
0.30071259
0.29590615
0.29306243
0.30657843
0.31421189
0.32069144
0.32199118
0.31872332
0.31972047
0.33794478
0.32605794
0.33275312
0.32411215
0.34191072
0.33267879
0.33309984
-0.20771795
-0.20663287
-0.22199134
-0.24460874
-0.25132439
-0.2503098
-0.22215472
-0.197211
-0.20999084
-0.22933318
-0.25312843
-0.2535731
-0.26979548
-0.27365599
-0.2689774
-0.28065283
-0.26813943
-0.25052192
-0.24320607
-0.29464016
-0.28765596
-0.30010475
-0.28026156
-0.22066248
-0.21997244
-0.23804333
-0.27610908
-0.23146712
-0.28992107
-0.3008494
0.075169284
0.053628716
0.064645634
0.062325563
0.079711934
0.071524432
0.031104288
0.031023157
0.048213778
0.08148888
0.1096083
0.093592079
0.095425668
0.10798372
0.11455381
0.080333158
0.061772479
0.055920986
0.04313446
0.064259747
0.10263258
0.07439497
0.050374289
0.036209372
0.068456638
0.082630412
0.10172709
0.062553679
0.074747026
0.10611427
-0.063809115
-0.051835457
-0.070653282
-0.060363192
-0.048126307
-0.053649186
-0.082724134
-0.071158453
-0.06003378
-0.039555662
-0.056455462
-0.084226295
-0.064789721
-0.050328713
-0.042106795
-0.050572389
-0.082878299
-0.045394706
-0.0739778
-0.055119485
-0.042617182
-0.049023009
-0.088931882
-0.089890549
-0.057474341
-0.069386949
-0.10343775
-0.10197037
-0.12868334
-0.066136637
0.010477708
-0.015069567
0.0029117735
0.0015849554
0.013547646
0.0033371246
0.0081336746
-0.0017681619
-0.025344483
-0.014503267
-0.0085034147
0.0094219611
0.016438299
0.016600546
0.029080399
0.020928642
0.022600771
-0.0036556842
0.011795006
0.0097447656
0.025308337
0.017521734
0.018119861
0.0099944231
0.00042119748
-0.01350896
-0.0085170727
0.013241766
0.025693733
0.024873023
0.26172661
0.25691895
0.27512638
0.28735102
0.2854677
0.28359556
0.28978155
0.28259258
0.29091584
0.28118276
0.29201562
0.29052942
0.3003446
0.29882148
0.29655832
0.30883527
0.30516026
0.30573538
0.30705927
0.30917763
0.3120225
0.31812335
0.3129405
0.31374191
0.31619214
0.31193
0.32945739
0.32137367
0.33658926
0.32791948
-0.22222749
-0.22354296
-0.18660874
-0.18792452
-0.24133713
-0.25356434
-0.24861497
-0.24364449
-0.20676859
-0.20550769
-0.20565073
-0.21153911
-0.22443639
-0.26912181
-0.28830421
-0.28411808
-0.28186579
-0.27351716
-0.26757331
-0.27256266
-0.29664235
-0.29465734
-0.30688015
-0.27066453
-0.26022904
-0.26897546
-0.23034745
-0.21854989
-0.23633502
-0.27760895
0.071953405
0.054173832
0.027510942
0.034524772
0.047880213
0.070411629
0.086114162
0.047480338
0.038434917
0.070507566
0.063529592
0.064625756
0.046327503
0.055734582
0.071731814
0.12460122
0.10286033
0.096099723
0.10171736
0.10612478
0.099802837
0.14680902
0.10174736
0.10211286
0.10234324
0.11838514
0.076256103
0.071243981
0.046664232
0.094050086
-0.041563666
-0.058717079
-0.071690649
-0.056936455
-0.084044644
-0.039273499
-0.044434952
-0.09838455
-0.075214456
-0.064195354
-0.04235152
-0.069086647
-0.085267728
-0.086997959
-0.054406786
-0.037910877
-0.040559365
-0.080174487
-0.081779878
-0.095821158
-0.060451497
-0.047531208
-0.061159062
-0.10779982
-0.10166958
-0.081760857
-0.058641624
-0.081714582
-0.086886777
-0.071995548
-0.0095954087
-0.014010081
-0.00013983627
0.012336794
0.017218939
0.021936113
0.017954495
0.018715969
0.0040477352
-0.017759083
-0.0089282798
-0.0090018645
-0.00069346651
0.017971593
0.020849866
0.036469508
0.030886314
0.0083240226
0.036461361
0.042878352
0.022808321
0.043713747
0.018768239
0.030030195
0.0081019782
-0.009131281
-0.016990676
-0.025737118
-0.0026835659
-0.0042079789
0.26327227
0.26138477
0.25778564
0.25305181
0.27531169
0.28986851
0.29922708
0.29448141
0.29033411
0.29979188
0.29685795
0.30607273
0.297895
0.31504661
0.29423532
0.30028324
0.29866155
0.3009446
0.30930907
0.31973254
0.31730832
0.31756512
0.32022627
0.31951439
0.31487494
0.31734199
0.31194965
0.32703408
0.3257157
0.32271425
-0.23052773
-0.22777395
-0.22172034
-0.219157
-0.19313984
-0.21309247
-0.25821242
-0.25359865
-0.2480548
-0.19953016
-0.17879079
-0.18377715
-0.19859609
-0.19802916
-0.25767345
-0.27038267
-0.2594068
-0.25105599
-0.2207803
-0.23071128
-0.28111922
-0.29804467
-0.29229156
-0.26240057
-0.28328732
-0.28960259
-0.28019343
-0.2420786
-0.23626133
-0.25907566
0.10342697
0.087140993
0.071724851
0.059596398
0.037987708
0.014871153
0.07271175
0.068878108
0.035513341
0.032214816
0.052509748
0.059926741
0.063698296
0.029791328
0.045333268
0.076243213
0.084114145
0.069420715
0.051967579
0.032379777
0.043770551
0.072550413
0.1148565
0.086902737
0.11210665
0.10454582
0.1012919
0.069200327
0.07500264
0.093926797
-0.023714313
-0.038286107
-0.059137607
-0.074327017
-0.067724374
-0.088212057
-0.041477371
-0.034978651
-0.094263639
-0.072263092
-0.061961739
-0.042710722
-0.043654107
-0.066053085
-0.066904836
-0.048469893
-0.058028703
-0.057964759
-0.06673191
-0.080360691
-0.083835708
-0.064776604
-0.051742339
-0.091139939
-0.051215749
-0.031918809
-0.037904983
-0.05657114
-0.098715805
-0.10072338
-0.0012706534
-0.0064824212
-0.012956413
-0.013625809
0.0039897972
0.013237597
0.023304088
0.030444099
0.018258471
0.007784248
-0.0053616254
-0.0093397623
-0.0092922487
0.010625568
0.013685255
0.010366556
0.011064238
-0.0090837557
-0.0090583938
0.0010868004
0.016775888
0.0094027053
0.010426794
-0.00065132122
-0.0095873715
-0.019000847
-0.0091516653
-0.021275641
-0.01748957
0.027379365
0.26314904
0.26362413
0.25934046
0.26135503
0.27257837
0.28439809
0.28919831
0.28917236
0.2877869
0.28086234
0.29332578
0.27751679
0.27293102
0.3240781
0.33375137
0.32124347
0.33740341
0.32771619
0.32396454
0.32561735
0.31931591
0.30679383
0.31321871
0.29722542
0.32056092
0.31115105
-0.23397336
-0.22995081
-0.22488779
-0.22455502
-0.19761451
-0.20085965
-0.2503443
-0.26369578
-0.25235611
-0.25967785
-0.20344016
-0.21793709
-0.23133331
-0.23193601
-0.21159602
-0.20262179
-0.19265509
-0.24314231
-0.30844995
-0.22854143
-0.25054278
-0.26778887
-0.28518422
-0.27674568
-0.24475774
-0.25968022
0.11055338
0.093531698
0.08907823
0.081173512
0.050158664
0.045292919
0.040571662
0.076072464
0.07224557
0.042140801
0.030723363
0.039213134
0.085138696
0.087471523
0.061620736
0.077112023
0.029934304
0.03607382
0.057645316
0.08480596
0.06616883
0.094962478
0.085294899
0.10557856
0.069142075
0.10351357
-0.022108275
-0.032950077
-0.027029733
-0.036109642
-0.061907164
-0.067282079
-0.10191294
-0.038784144
-0.038430029
-0.095756786
-0.074603169
-0.09164586
-0.054445716
-0.027535896
-0.02768638
-0.068028011
-0.069051626
-0.080164885
-0.049805535
-0.078233427
-0.050943831
-0.073721825
-0.028553155
-0.071393331
-0.099889229
-0.10346861
-0.0012669777
-0.0036462925
-0.0082315504
-0.018563275
-0.025022503
-0.0091872222
0.015084226
0.028792748
0.022886278
0.017917923
0.014684256
0.00061549793
-0.0078750521
-0.014785376
-0.017711277
-0.026526027
0.0088390211
0.014370266
-0.011213129
-0.019799152
-0.017383267
-0.010610051
-0.010465835
-0.01855346
-0.013206864
0.019498628
0.26663926
0.25929326
0.26616438
0.27869666
0.27838858
0.28213418
0.29428604
0.28167275
0.28198347
0.27817579
0.2679718
0.27405029
0.27468475
0.31220564
0.31440141
0.32223136
0.33597342
0.32475339
0.32888175
0.32537769
0.3366245
0.29730826
0.32125176
0.31010449
0.32005383
0.31412927
-0.2353936
-0.22824084
-0.20872543
-0.17730454
-0.18520476
-0.17631536
-0.20022129
-0.25658274
-0.26043496
-0.26111804
-0.24655714
-0.25012507
-0.25136197
-0.27277499
-0.27855366
-0.23789499
-0.22776294
-0.27483738
-0.30465359
-0.26184024
-0.24424217
-0.27232186
-0.28898779
-0.28246447
-0.25838998
-0.27695658
0.087202976
0.061958074
0.048563449
0.060548439
0.061454434
0.045869779
0.037153981
0.045744369
0.078966302
0.08453445
0.076452766
0.084312669
0.08215272
0.099832678
0.089648507
0.051392135
0.023658508
0.061122397
0.046642931
0.074048404
0.015750585
0.068380752
0.075222002
0.10799459
0.036039251
0.10456246
-0.039557903
-0.073423636
-0.052811596
-0.032450242
-0.038542155
-0.066306842
-0.061443696
-0.079961255
-0.03636928
-0.050105618
-0.082266908
-0.078879642
-0.049968374
-0.04414634
-0.061148512
-0.069522878
-0.080805293
-0.090067571
-0.04565926
-0.099438773
-0.070398225
-0.1021245
-0.028442868
-0.046896124
-0.065302652
-0.046640186
0.011190254
0.014661011
-0.00043125061
-0.0070473119
-0.01349776
-0.0062856047
0.016668526
0.022637446
0.024573939
0.023225305
0.030722747
0.017254621
0.00081934611
-0.0085748971
-0.015417667
-0.025048108
0.0043918243
0.011018545
0.0086702074
0.017908636
0.021222043
0.01430594
0.006930151
-0.0059958705
0.0099747946
0.011339831
0.2642636
0.25973263
0.25965314
0.26945507
0.27226126
0.27966484
0.28545973
0.28012246
0.28637053
0.2844252
0.28355284
0.28203033
0.28029688
0.29122687
0.30796176
0.31965354
0.31671194
0.32041101
0.32058168
0.31615005
0.3168448
0.3183373
0.32391858
0.31932122
0.32241985
0.30510471
0.31060044
0.30718321
0.30235384
0.30475743
-0.23653797
-0.23586064
-0.22088043
-0.19104939
-0.19196149
-0.17859587
-0.21112061
-0.26382436
-0.27062803
-0.26133687
-0.26265472
-0.25616951
-0.24281134
-0.23261169
-0.20571416
-0.22717201
-0.27849503
-0.28886757
-0.29509038
-0.29193774
-0.28317107
-0.30775421
-0.30237553
-0.2977165
-0.27690285
-0.27605852
-0.2886784
-0.2891643
-0.27680198
-0.2696202
0.097991098
0.069447657
0.05529255
0.046599738
0.060401504
0.032685866
0.035037818
0.054557599
0.092995867
0.12387663
0.10013004
0.094690634
0.08703627
0.077751856
0.067162676
0.058070305
0.067669749
0.092890354
0.091445018
0.093736744
0.090925941
0.09978369
0.12884484
0.094553294
0.065299022
0.098129403
0.10831757
0.13612036
0.10458369
0.12038773
-0.042695701
-0.066615491
-0.076823084
-0.06111441
-0.057577534
-0.077047697
-0.072439472
-0.077495243
-0.038857008
-0.037176926
-0.047566128
-0.052735525
-0.071558971
-0.059471987
-0.046762836
-0.052359831
-0.068029039
-0.048471027
-0.053598526
-0.068695387
-0.088473175
-0.052726495
-0.040468857
-0.0515532
-0.073117188
-0.084123771
-0.050617464
-0.042841128
-0.11608841
-0.096665317
0.019184757
0.018215374
0.0079905204
-0.0021743579
-0.016025229
0.0055844733
0.013204891
0.02221071
0.027220204
0.032784613
0.019305168
0.012385529
0.0073432099
-0.0036319693
-0.011446034
-0.011570695
-0.010475746
-0.00694669
0.0031242916
0.0065738185
0.034056152
0.01951354
0.034180728
0.021669481
0.041578665
0.037302718
0.0081865601
0.0023421929
0.0103849
0.061406264
0.26718335
0.26683932
0.26136143
0.26363986
0.27319601
0.28134621
0.28501765
0.28133722
0.28438201
0.2834891
0.28236232
0.27546323
0.29936692
0.30322956
0.31343937
0.32147717
0.31800059
0.32057607
0.31305599
0.32166495
0.31981714
0.32456623
0.32215005
0.31447471
0.33450454
0.29717241
0.31109872
0.31547794
0.31438273
0.3208164
-0.23677176
-0.24569367
-0.23531551
-0.2187359
-0.18567902
-0.19841131
-0.23887904
-0.26890381
-0.26609635
-0.26149394
-0.25390035
-0.23747962
-0.21811374
-0.20726047
-0.21741459
-0.25439048
-0.3011394
-0.28724379
-0.27388307
-0.26692844
-0.28809856
-0.29947278
-0.30390822
-0.28958716
-0.2429997
-0.27477362
-0.28512992
-0.284849
-0.28478908
-0.24027998
0.12217817
0.091665153
0.068001088
0.056144981
0.035404214
0.061090339
0.048256759
0.075104998
0.12012615
0.10719124
0.092014322
0.068440913
0.054892034
0.066306575
0.058555437
0.032647767
0.076335204
0.1021767
0.093968504
0.085304724
0.089816099
0.12320992
0.078941367
0.062232444
0.023841043
0.060502194
0.072619413
0.11622902
0.085593334
0.054648258
-0.030613729
-0.043414378
-0.064908396
-0.070616989
-0.063272819
-0.054945241
-0.07566938
-0.053180415
-0.039998327
-0.039737454
-0.057012586
-0.096118153
-0.057651626
-0.05946186
-0.062887162
-0.083804851
-0.056073943
-0.046673971
-0.097246954
-0.066238635
-0.070965007
-0.044024493
-0.043769894
-0.088530897
-0.06278598
-0.081945817
-0.055812509
-0.014410134
-0.060937072
-0.064857954
0.030902383
0.023605334
0.015590476
0.0080454425
-0.00013776482
-0.011517952
0.0053890204
0.010254277
0.025430294
0.028614658
0.017782375
0.01757186
0.0053953685
-0.0091088246
-0.0061002359
0.0052453268
0.00034100899
0.0029549467
0.039746833
-0.0064143278
0.0089133386
0.027107796
0.020687334
0.023894758
0.018693915
-0.0039056869
-0.0094562726
0.0036673799
-0.012324232
0.010372353
0.26478988
0.2630773
0.25961859
0.26726474
0.28177243
0.28699177
0.28798498
0.2843859
0.28187886
0.28093802
0.28189292
0.28561593
0.2767177
0.31732201
0.31888981
0.33032088
0.32266033
0.31500428
0.32998345
0.33315982
0.33384773
0.32621846
0.32439002
0.33372508
0.32867117
0.32081684
0.31331402
0.31352345
0.3165313
0.31707153
-0.23406807
-0.23864731
-0.2261281
-0.20639019
-0.17205374
-0.20733111
-0.24885689
-0.26551341
-0.26566441
-0.24365536
-0.25550801
-0.24182981
-0.25937341
-0.22677625
-0.2470723
-0.30837055
-0.2934001
-0.27502869
-0.2445854
-0.23576617
-0.26808375
-0.30402315
-0.28740643
-0.22609829
-0.18918525
-0.23236297
-0.26545532
-0.2717102
-0.2851323
-0.24275907
0.088759331
0.065997079
0.053918011
0.030117557
0.023367482
0.060140862
0.069198702
0.093629152
0.11436106
0.095715101
0.10309891
0.11100036
0.079836918
0.037158793
0.040675104
0.070030189
0.094534289
0.065849395
0.043222289
0.062449765
0.079816551
0.046810691
0.046891575
0.026989692
0.041430715
0.049164724
0.079046981
0.093244313
0.089593528
0.07095154
-0.033942801
-0.040919302
-0.069135555
-0.072481615
-0.071572851
-0.050799648
-0.0638902
-0.064505598
-0.0576794
-0.1019957
-0.075477819
-0.062596817
-0.070633324
-0.091476523
-0.10374589
-0.06196023
-0.043981403
-0.10375399
-0.084252042
-0.05334723
-0.066991662
-0.043591125
-0.081070057
-0.067146914
-0.076811775
-0.06081529
-0.04096311
-0.056187698
-0.056461732
-0.080937298
0.019237496
0.012103925
0.010175069
0.0014255034
-0.0072589687
-0.017174216
-0.010080634
-0.004413789
0.017313067
0.025682827
0.0075636429
-0.0098425034
-0.0039317217
0.01115206
0.010930525
0.020002578
0.031485851
0.028810106
0.0050606248
-0.012778505
-0.0018147541
0.0088902185
0.0077240293
0.011511287
-0.00087724232
-0.023141726
-0.010743373
-0.0063813826
-0.0043022401
0.020982315
0.25807752
0.27464822
0.26797115
0.26757636
0.2625283
0.27783823
0.28767235
0.2865661
0.27994136
0.29788279
0.29526285
0.29681219
0.30338189
0.32078181
0.31168956
0.32370029
0.31591487
0.30722357
0.33487782
0.32609265
0.32822235
0.32573292
0.31911517
0.32433408
0.32528983
0.32274811
0.31988081
0.32231844
0.31486445
0.31880805
-0.2042773
-0.19883529
-0.23661705
-0.22939574
-0.21880385
-0.19760032
-0.19576228
-0.24418562
-0.21387553
-0.1955778
-0.20760555
-0.21692048
-0.21905983
-0.27040266
-0.28689823
-0.28716928
-0.28410748
-0.28116875
-0.20923239
-0.23718905
-0.27860292
-0.29587544
-0.2886381
-0.24078735
-0.21121289
-0.20123821
-0.21223549
-0.23025396
-0.26280789
-0.27723304
0.060705044
0.029775489
0.085695203
0.067111019
0.05788775
0.057859559
0.063253929
0.10245061
0.079991767
0.064554483
0.075562264
0.078703047
0.05187614
0.082790899
0.082945959
0.1361816
0.093986089
0.068513249
0.043323014
0.069649567
0.10520704
0.094638582
0.072006208
0.032733482
0.061867493
0.057789731
0.076986145
0.054557773
0.074836748
0.087316185
-0.049605637
-0.041770725
-0.03655687
-0.026385818
-0.061275503
-0.030325956
-0.039880006
-0.064722036
-0.078823318
-0.064836643
-0.053784117
-0.069113277
-0.08747835
-0.098038366
-0.079884003
-0.043190983
-0.037527618
-0.089585378
-0.08463995
-0.055990253
-0.04537703
-0.038533719
-0.069296106
-0.083934776
-0.054884821
-0.032801057
-0.06090005
-0.06895565
-0.094511014
-0.034967159
0.0209921
0.0094454936
-0.00067417786
-0.011541417
-0.020845656
-0.017549319
-0.013958011
-0.017110969
0.0092629248
5.8766328e-05
-0.0090411682
-0.012231789
0.0024425618
0.014004194
0.012416137
0.042348535
0.032914177
0.034375835
0.019291784
-0.0091879568
-0.0048526056
0.032350351
0.0050368124
0.0015406381
-0.019577372
-0.0069365366
-0.0081408848
0.0059514348
0.024441577
0.024143019
)
;

boundaryField
{
    minX
    {
        type            fixedFluxPressure;
        gradient        uniform 0;
        value           nonuniform List<scalar> 
50
(
0.25654476
-0.197902
0.07708563
-0.050306502
0.0040263988
0.25981022
-0.20771795
0.075169284
-0.063809115
0.010477708
0.26172661
-0.22222749
0.071953405
-0.041563666
-0.0095954087
0.26327227
-0.23052773
0.10342697
-0.023714313
-0.0012706534
0.26314904
-0.23397336
0.11055338
-0.022108275
-0.0012669777
0.26663926
-0.2353936
0.087202976
-0.039557903
0.011190254
0.2642636
-0.23653797
0.097991098
-0.042695701
0.019184757
0.26718335
-0.23677176
0.12217817
-0.030613729
0.030902383
0.26478988
-0.23406807
0.088759331
-0.033942801
0.019237496
0.25807752
-0.2042773
0.060705044
-0.049605637
0.0209921
)
;
    }
    maxX
    {
        type            fixedFluxPressure;
        gradient        uniform 0;
        value           nonuniform List<scalar> 
50
(
0.33269296
-0.29239197
0.16652469
-0.03633969
0.051386396
0.33309984
-0.3008494
0.10611427
-0.066136637
0.024873023
0.32791948
-0.27760895
0.094050086
-0.071995548
-0.0042079789
0.32271425
-0.25907566
0.093926797
-0.10072338
0.027379365
0.31115105
-0.25968022
0.10351357
-0.10346861
0.019498628
0.31412927
-0.27695658
0.10456246
-0.046640186
0.011339831
0.30475743
-0.2696202
0.12038773
-0.096665317
0.061406264
0.3208164
-0.24027998
0.054648258
-0.064857954
0.010372353
0.31707153
-0.24275907
0.07095154
-0.080937298
0.020982315
0.31880805
-0.27723304
0.087316185
-0.034967159
0.024143019
)
;
    }
    minY
    {
        type            fixedValue;
        value           uniform 0;
    }
    minZ
    {
        type            fixedFluxPressure;
        gradient        uniform 0;
        value           nonuniform List<scalar> 
150
(
0.25654476
-0.197902
0.07708563
-0.050306502
0.0040263988
0.2668085
-0.19018203
0.061634553
-0.045992546
-0.014242031
0.27109872
-0.20783423
0.045210463
-0.057572591
-0.004990536
0.27256881
-0.24209043
0.062682154
-0.061859192
0.0025315231
0.27273039
-0.24520204
0.091025723
-0.037547773
0.0029046641
0.26986741
-0.24201351
0.096312762
-0.047723529
0.00060778811
0.26659279
-0.22540224
0.077612359
-0.072202815
0.0034263806
0.26404524
-0.22229224
0.077073542
-0.079332036
0.03452697
0.26809994
-0.23059334
0.086140621
-0.072349422
0.0058632304
0.27421316
-0.23766621
0.10009555
-0.042593101
-0.002201939
0.27928626
-0.24556809
0.10794184
-0.048145041
-0.015865152
0.29141027
-0.20590834
0.050191327
-0.073021036
0.0063271995
0.30430576
-0.20047113
0.055736387
-0.074752698
0.011599979
0.30374681
-0.25973278
0.08623075
-0.045597041
-0.00010948794
0.29038038
-0.24235769
0.079986123
-0.051878181
0.0070911617
0.29446288
-0.23503397
0.040953325
-0.059314674
0.01253929
0.3078646
-0.20310431
0.057106927
-0.046245753
0.00042949078
0.31895029
-0.18702348
0.054373183
-0.020801896
-0.0034129017
0.31928992
-0.1981391
0.073854823
-0.050132415
-0.0087149542
0.31996044
-0.23784221
0.032056132
-0.070512859
0.013464185
0.31379701
-0.27197274
0.067758866
-0.075424856
0.021635293
0.32059611
-0.28525853
0.090831011
-0.045168165
0.015423401
0.31667084
-0.27472384
0.084418156
-0.067358241
0.0054226396
0.31726402
-0.25126309
0.077274435
-0.067869906
-0.0060412614
0.33288917
-0.21878385
0.076796033
-0.052420048
-0.0060005054
0.31479595
-0.24206128
0.098199717
-0.091920358
-0.011681817
0.33689783
-0.2205136
0.055717108
-0.095826948
0.015914653
0.33071041
-0.27295357
0.07648407
-0.11347629
0.029791377
0.33088635
-0.31204884
0.079383451
-0.066600462
0.034905881
0.33269296
-0.29239197
0.16652469
-0.03633969
0.051386396
)
;
    }
    maxZ
    {
        type            fixedFluxPressure;
        gradient        uniform 0;
        value           nonuniform List<scalar> 
150
(
0.25807752
-0.2042773
0.060705044
-0.049605637
0.0209921
0.27464822
-0.19883529
0.029775489
-0.041770725
0.0094454936
0.26797115
-0.23661705
0.085695203
-0.03655687
-0.00067417786
0.26757636
-0.22939574
0.067111019
-0.026385818
-0.011541417
0.2625283
-0.21880385
0.05788775
-0.061275503
-0.020845656
0.27783823
-0.19760032
0.057859559
-0.030325956
-0.017549319
0.28767235
-0.19576228
0.063253929
-0.039880006
-0.013958011
0.2865661
-0.24418562
0.10245061
-0.064722036
-0.017110969
0.27994136
-0.21387553
0.079991767
-0.078823318
0.0092629248
0.29788279
-0.1955778
0.064554483
-0.064836643
5.8766328e-05
0.29526285
-0.20760555
0.075562264
-0.053784117
-0.0090411682
0.29681219
-0.21692048
0.078703047
-0.069113277
-0.012231789
0.30338189
-0.21905983
0.05187614
-0.08747835
0.0024425618
0.32078181
-0.27040266
0.082790899
-0.098038366
0.014004194
0.31168956
-0.28689823
0.082945959
-0.079884003
0.012416137
0.32370029
-0.28716928
0.1361816
-0.043190983
0.042348535
0.31591487
-0.28410748
0.093986089
-0.037527618
0.032914177
0.30722357
-0.28116875
0.068513249
-0.089585378
0.034375835
0.33487782
-0.20923239
0.043323014
-0.08463995
0.019291784
0.32609265
-0.23718905
0.069649567
-0.055990253
-0.0091879568
0.32822235
-0.27860292
0.10520704
-0.04537703
-0.0048526056
0.32573292
-0.29587544
0.094638582
-0.038533719
0.032350351
0.31911517
-0.2886381
0.072006208
-0.069296106
0.0050368124
0.32433408
-0.24078735
0.032733482
-0.083934776
0.0015406381
0.32528983
-0.21121289
0.061867493
-0.054884821
-0.019577372
0.32274811
-0.20123821
0.057789731
-0.032801057
-0.0069365366
0.31988081
-0.21223549
0.076986145
-0.06090005
-0.0081408848
0.32231844
-0.23025396
0.054557773
-0.06895565
0.0059514348
0.31486445
-0.26280789
0.074836748
-0.094511014
0.024441577
0.31880805
-0.27723304
0.087316185
-0.034967159
0.024143019
)
;
    }
    bottomWater_to_rightSolid
    {
        type            fixedFluxPressure;
        gradient        uniform 0;
        value           nonuniform List<scalar> 
130
(
-0.0034129017
-0.0087149542
0.013464185
0.021635293
0.015423401
0.0054226396
-0.0060412614
-0.0060005054
-0.011681817
0.015914653
0.029791377
0.034905881
0.051386396
-0.0036556842
0.011795006
0.0097447656
0.025308337
0.017521734
0.018119861
0.0099944231
0.00042119748
-0.01350896
-0.0085170727
0.013241766
0.025693733
0.024873023
0.0083240226
0.036461361
0.042878352
0.022808321
0.043713747
0.018768239
0.030030195
0.0081019782
-0.009131281
-0.016990676
-0.025737118
-0.0026835659
-0.0042079789
-0.0090837557
-0.0090583938
0.0010868004
0.016775888
0.0094027053
0.010426794
-0.00065132122
-0.0095873715
-0.019000847
-0.0091516653
-0.021275641
-0.01748957
0.027379365
-0.014785376
-0.017711277
-0.026526027
0.0088390211
0.014370266
-0.011213129
-0.019799152
-0.017383267
-0.010610051
-0.010465835
-0.01855346
-0.013206864
0.019498628
-0.0085748971
-0.015417667
-0.025048108
0.0043918243
0.011018545
0.0086702074
0.017908636
0.021222043
0.01430594
0.006930151
-0.0059958705
0.0099747946
0.011339831
-0.00694669
0.0031242916
0.0065738185
0.034056152
0.01951354
0.034180728
0.021669481
0.041578665
0.037302718
0.0081865601
0.0023421929
0.0103849
0.061406264
0.0029549467
0.039746833
-0.0064143278
0.0089133386
0.027107796
0.020687334
0.023894758
0.018693915
-0.0039056869
-0.0094562726
0.0036673799
-0.012324232
0.010372353
0.028810106
0.0050606248
-0.012778505
-0.0018147541
0.0088902185
0.0077240293
0.011511287
-0.00087724232
-0.023141726
-0.010743373
-0.0063813826
-0.0043022401
0.020982315
0.034375835
0.019291784
-0.0091879568
-0.0048526056
0.032350351
0.0050368124
0.0015406381
-0.019577372
-0.0069365366
-0.0081408848
0.0059514348
0.024441577
0.024143019
)
;
    }
    bottomWater_to_leftSolid
    {
        type            fixedFluxPressure;
        gradient        uniform 0;
        value           nonuniform List<scalar> 
130
(
0.0040263988
-0.014242031
-0.004990536
0.0025315231
0.0029046641
0.00060778811
0.0034263806
0.03452697
0.0058632304
-0.002201939
-0.015865152
0.0063271995
0.011599979
0.010477708
-0.015069567
0.0029117735
0.0015849554
0.013547646
0.0033371246
0.0081336746
-0.0017681619
-0.025344483
-0.014503267
-0.0085034147
0.0094219611
0.016438299
-0.0095954087
-0.014010081
-0.00013983627
0.012336794
0.017218939
0.021936113
0.017954495
0.018715969
0.0040477352
-0.017759083
-0.0089282798
-0.0090018645
-0.00069346651
-0.0012706534
-0.0064824212
-0.012956413
-0.013625809
0.0039897972
0.013237597
0.023304088
0.030444099
0.018258471
0.007784248
-0.0053616254
-0.0093397623
-0.0092922487
-0.0012669777
-0.0036462925
-0.0082315504
-0.018563275
-0.025022503
-0.0091872222
0.015084226
0.028792748
0.022886278
0.017917923
0.014684256
0.00061549793
-0.0078750521
0.011190254
0.014661011
-0.00043125061
-0.0070473119
-0.01349776
-0.0062856047
0.016668526
0.022637446
0.024573939
0.023225305
0.030722747
0.017254621
0.00081934611
0.019184757
0.018215374
0.0079905204
-0.0021743579
-0.016025229
0.0055844733
0.013204891
0.02221071
0.027220204
0.032784613
0.019305168
0.012385529
0.0073432099
0.030902383
0.023605334
0.015590476
0.0080454425
-0.00013776482
-0.011517952
0.0053890204
0.010254277
0.025430294
0.028614658
0.017782375
0.01757186
0.0053953685
0.019237496
0.012103925
0.010175069
0.0014255034
-0.0072589687
-0.017174216
-0.010080634
-0.004413789
0.017313067
0.025682827
0.0075636429
-0.0098425034
-0.0039317217
0.0209921
0.0094454936
-0.00067417786
-0.011541417
-0.020845656
-0.017549319
-0.013958011
-0.017110969
0.0092629248
5.8766328e-05
-0.0090411682
-0.012231789
0.0024425618
)
;
    }
    bottomWater_to_heater
    {
        type            fixedFluxPressure;
        gradient        uniform 0;
        value           nonuniform List<scalar> 
92
(
-0.00010948794
0.0070911617
0.01253929
0.00042949078
0.016600546
0.029080399
0.020928642
0.022600771
0.017971593
0.020849866
0.036469508
0.030886314
0.31504661
0.29423532
0.30028324
0.29866155
-0.19802916
-0.25767345
-0.27038267
-0.2594068
0.029791328
0.045333268
0.076243213
0.084114145
-0.066053085
-0.066904836
-0.048469893
-0.058028703
0.010625568
0.010625568
0.013685255
0.013685255
0.010366556
0.010366556
0.011064238
0.011064238
0.27293102
0.3240781
-0.23133331
-0.23193601
0.085138696
0.087471523
-0.054445716
-0.027535896
-0.0078750521
-0.014785376
0.27468475
0.29122687
0.30796176
0.31965354
0.31220564
0.31671194
-0.25136197
-0.23261169
-0.20571416
-0.22717201
-0.27277499
-0.27849503
0.08215272
0.077751856
0.067162676
0.058070305
0.099832678
0.067669749
-0.049968374
-0.059471987
-0.046762836
-0.052359831
-0.04414634
-0.068029039
0.00081934611
-0.0036319693
-0.011446034
-0.011570695
-0.0085748971
-0.010475746
-0.0036319693
-0.011446034
-0.011570695
-0.010475746
-0.0091088246
-0.0061002359
0.0052453268
0.00034100899
0.01115206
0.010930525
0.020002578
0.031485851
0.014004194
0.012416137
0.042348535
0.032914177
)
;
    }
}


// ************************************************************************* //
