/*--------------------------------*- C++ -*----------------------------------*\
| =========                 |                                                 |
| \\      /  F ield         | OpenFOAM: The Open Source CFD Toolbox           |
|  \\    /   O peration     | Version:  v2012                                 |
|   \\  /    A nd           | Website:  www.openfoam.com                      |
|    \\/     M anipulation  |                                                 |
\*---------------------------------------------------------------------------*/
FoamFile
{
    version     2.0;
    format      ascii;
    class       volVectorField;
    location    "400/bottomWater";
    object      U;
}
// * * * * * * * * * * * * * * * * * * * * * * * * * * * * * * * * * * * * * //

dimensions      [0 1 -1 0 0 0 0];


internalField   nonuniform List<vector> 
1460
(
(-0.0023870589 -0.014728209 0.0012349788)
(-0.0020341359 -0.010188929 0.0010537777)
(-0.000283626 -0.010469668 0.0016970002)
(-0.00048683359 -0.014599085 0.0006066872)
(-0.0017155519 -0.015780229 -0.00069522138)
(-0.002135589 -0.015784689 -0.0019345598)
(-0.0027683778 -0.016072869 -0.0029880051)
(-0.0031812836 -0.016073336 -0.0034118445)
(-0.0034333324 -0.015650568 -0.0029154045)
(-0.0033784306 -0.015920735 -0.0022451655)
(-0.0037630597 -0.01554166 -0.00088521121)
(-0.0030062883 -0.013409793 0.0010941161)
(-0.00052199662 -0.014341042 0.0019007523)
(-0.0015543066 -0.016684313 0.0015099887)
(-0.0041349678 -0.013995561 0.00093416852)
(-0.0050979823 -0.011723535 0.001356034)
(-0.0040248492 -0.012012629 0.0015867759)
(-0.0014152419 -0.01306496 0.0011704581)
(0.001758621 -0.012555301 0.0013356423)
(0.0030042129 -0.01175125 0.00084594521)
(0.0030106731 -0.014587345 0.00053685731)
(9.5014339e-05 -0.017072453 0.0012734428)
(-0.002975407 -0.016256109 0.00024197419)
(-0.0037313635 -0.01394134 -0.00057330986)
(-0.00085695838 -0.012577353 0.00074228664)
(-0.00015050543 -0.013935979 -0.00094401536)
(0.00061472883 -0.01317541 0.0014335724)
(0.0027464649 -0.017114669 -0.00013447014)
(0.0024222935 -0.017416846 -0.00010803097)
(0.00038751643 -0.019040719 0.00043733384)
(-0.0024399207 0.015941477 0.002477444)
(0.00033580428 0.0018041256 0.0010996117)
(0.0013018362 0.0053133961 0.00087534283)
(0.0044522203 0.015741645 0.0012726197)
(0.0010318224 0.017673614 0.00062012348)
(-0.0048180477 0.017803733 -0.0015255545)
(-0.0046369415 0.018129521 -0.0028198625)
(-0.0026875138 0.017965589 -0.0035496577)
(-0.0010822866 0.017401509 -0.0025857478)
(-0.0014218257 0.017586774 -0.00072361908)
(-0.0034595432 0.016807446 0.00025504852)
(0.0011966414 0.0075511229 0.00085711197)
(0.0035421068 0.0074459859 0.0011354717)
(0.0050649218 0.017116985 0.0020294934)
(-0.0051104968 0.015442023 0.0018469994)
(-0.0026413282 0.007136887 0.00023079051)
(-0.0029025229 -0.00029841021 0.00043769186)
(-0.0002824553 -0.0026326238 2.9659244e-05)
(0.0023811506 -0.00044482571 0.00075948954)
(0.0032554724 0.0043681438 0.00012616279)
(0.0062945945 0.015396189 0.00081916051)
(0.0012275489 0.018848479 0.0012711998)
(-0.0059791485 0.017422044 0.00028282899)
(-0.0039788705 0.010568629 -0.00039508919)
(-0.0005495552 0.0016777517 0.00032246256)
(0.0019591619 0.010388611 0.00065258488)
(0.0027264031 0.0030717151 -2.7014828e-05)
(0.007625133 0.014573781 -0.0024165318)
(0.0072067086 0.018658872 -0.0034668547)
(0.0041677618 0.019699791 -0.0027028457)
(0.00082143415 -0.014080958 0.00079826057)
(0.00023891689 -0.012769484 2.6541636e-05)
(-0.0034223797 -0.012542677 -0.00040424918)
(-0.0041624392 -0.0078128112 0.0010398487)
(-0.0020286456 0.002557395 0.001246472)
(-0.0032243161 -0.0012840957 0.0013926359)
(-0.0018253053 -0.01469149 0.0042512303)
(-0.0039654886 -0.016380181 0.0036915223)
(-0.004400317 -0.010537121 0.0018289501)
(-0.0030860266 -0.0068890764 0.0007392694)
(0.0020964486 -0.01034019 -0.00066744656)
(0.0058912505 -0.015185064 -0.0028052949)
(-0.00080671218 -0.015166902 -0.0041009877)
(0.0022566484 -8.955147e-06 0.0002020547)
(0.0013491466 -0.0047106935 -0.0011722705)
(0.0031682761 -0.013330413 -0.0037954599)
(-0.00020851629 -0.013600747 -0.0022669607)
(0.0001618659 -0.01471855 -0.0022716293)
(-0.00022563432 -0.013498777 -0.0010262291)
(-0.0024639396 -0.01399374 -0.0032708858)
(-0.0048046859 -0.010526335 -0.0017655532)
(-0.00041713387 0.0032872171 0.0015996257)
(-0.0028868576 -0.0050123423 0.0022752192)
(0.0028066647 -0.014341133 0.0024548748)
(0.00050104136 -0.014134005 0.0004515521)
(0.0027647751 -0.013660107 0.00068982664)
(0.00053970388 -0.015798051 -0.0025925048)
(-0.0046475003 -0.014771377 -0.00025700976)
(0.00038938582 0.0030915062 -0.0028047386)
(-0.00040681219 0.0071921943 -0.00059378704)
(-0.0022117426 0.008939234 -0.00014826899)
(-0.0018241283 -0.00079486621 -0.00050100977)
(-0.0026958347 0.0057163836 0.00029917298)
(-0.0045321539 0.0096068975 0.00036066166)
(-0.0029322041 0.0083154841 0.0014561887)
(5.4574388e-05 0.0082437902 0.001417511)
(0.0032735703 0.01232918 0.0023989111)
(-0.00028019252 0.013332671 -0.00079821231)
(-0.0044597892 0.0099778187 -0.0016340112)
(-0.0016514983 0.0036648226 -0.00032527273)
(-0.0014925196 -0.0005080368 -0.0015197429)
(0.0030967072 0.012449843 -0.00084031544)
(-0.0042179201 0.01188835 -0.0015034453)
(-0.00055218945 0.0077939211 7.2200952e-05)
(0.0022098331 0.0080015139 -0.0018197881)
(0.0017265574 0.0094858475 -0.00224842)
(-0.00032342049 0.0013174087 -0.00053893992)
(0.00091190591 -0.0055964197 -0.0019959237)
(-0.0014707104 -0.0031787781 -0.002028564)
(0.00047745698 0.0095849825 -0.0022095005)
(-0.0042112092 0.010758991 -0.0018484657)
(-0.0010448637 0.008325524 0.0013458302)
(0.0021034556 0.0083622871 0.0032141767)
(0.0024621669 0.00093606935 0.00028036982)
(0.0013453453 -0.0038611501 -0.00036390284)
(0.0016215552 0.0037345171 -0.00065103775)
(-0.00063925291 0.012002522 -0.00043269173)
(-0.005920346 0.011083552 -0.00033941907)
(-0.004481463 0.0082038865 0.00053670804)
(-0.0019341025 0.011635222 0.00045056634)
(0.0028233407 -0.0070984738 -0.00073807337)
(-0.0023298076 -0.0098494812 -0.00089166264)
(-0.0054966609 -0.008254569 -0.00061040427)
(-0.0040550277 -0.0045457508 0.00014256053)
(-0.002397799 -0.0033896003 0.00022017172)
(-0.00089103996 -0.0081146127 0.00097311015)
(-0.0026571666 -0.013025251 0.00034337584)
(-0.0001231625 -0.0032634851 0.0022642268)
(0.0020392499 -0.0043413792 0.0019300523)
(0.0033467416 -0.0091738187 0.0013670469)
(-0.0047040186 -0.010614822 -0.0022288615)
(-0.0042894047 -0.0087624353 -0.0019638798)
(-0.0024609812 -0.0072316054 -0.0021753078)
(-0.0008897503 -0.0078858294 -0.0027659989)
(-0.00070002419 -0.0056290187 -0.0032355938)
(0.0024116377 -0.0055402034 -0.0027595139)
(0.0043612991 -0.0082451366 -0.0037540345)
(0.00086292212 -0.0097763514 -0.0034196487)
(-0.0057091669 -0.0099715263 -0.0034654018)
(-0.005258025 -0.0081065748 -0.0019248143)
(-0.0029553045 -0.0035887906 -0.0017414221)
(0.0013221524 -0.0017439406 -0.0008469607)
(0.0039853082 -0.0082130247 -0.0022099326)
(0.0044057683 -0.01076804 -0.0029479605)
(-0.00086989031 -0.010639816 -0.00088548202)
(-0.0071592118 -0.0074106968 0.001518028)
(-0.0063268281 -0.0033542587 0.0016780922)
(-0.006118895 -0.0033894082 0.0015784053)
(-0.0047781938 0.00023379533 0.0016024047)
(-0.0029142657 0.0047949539 0.0017559592)
(-0.0023000782 -0.014538113 0.0019680718)
(-0.0012773738 -0.010476665 0.0028730754)
(-8.1018726e-05 -0.014269151 -0.00013409625)
(-0.0017866851 -0.013939406 -0.0026292118)
(-0.0030170373 -0.014579494 -0.002803817)
(-0.0043366578 -0.013993733 -0.0021882264)
(-0.0046196805 -0.012061411 -0.00097926906)
(-0.0030326919 -0.011152998 -3.0546441e-05)
(-0.0013625592 -0.011016778 -0.0016083856)
(-0.0001507438 -0.013269772 -0.0024083108)
(-0.00050240216 -0.017601244 -0.0032740253)
(-0.00030599549 -0.017473091 -0.0013294481)
(-0.00064815842 -0.016858874 0.00073880804)
(-0.00055033307 -0.01741548 0.00022754471)
(-0.0015937271 -0.016298582 0.00053088997)
(-0.0029552389 -0.014369973 0.0016946819)
(-0.0037232351 -0.014589731 0.0031901935)
(-0.0028487075 -0.013166744 0.0037505912)
(-0.0004523449 -0.014196775 0.003608139)
(-0.00026764468 -0.01668819 0.0022821205)
(-0.0018342442 -0.017353757 0.00075178539)
(-0.0035579991 -0.015524644 0.00089879598)
(-0.0051682761 -0.014659771 0.00066252375)
(-0.0035298069 -0.012661838 0.00045808113)
(-0.0017745763 -0.012320255 0.0016710947)
(0.0018152915 -0.013159142 0.0015484374)
(-0.0010294807 -0.01827347 0.0013394778)
(0.00040556705 -0.013556531 -0.0010265566)
(0.0025147246 -0.017609719 -0.0017312429)
(0.0011793137 -0.018184843 -0.00054705007)
(-0.0020148006 0.016229936 0.0040354002)
(0.00059034168 0.00280709 0.0036091821)
(0.0035705977 0.014383822 0.0010176174)
(0.0036239655 0.016126451 -0.0024110181)
(0.0010873335 0.016872719 -0.0019346902)
(-0.0043727878 0.015403554 0.00064559231)
(-0.0036524381 0.0068777422 0.0025760427)
(-0.0030196382 -0.0001979445 0.002905349)
(-0.00092631204 0.0022522337 0.0009046923)
(0.0022760048 0.0086949109 -0.00099976938)
(0.0041307466 0.016753978 -0.0038542144)
(0.0045765758 0.018133359 -0.0028937659)
(0.0049036207 0.018245817 -0.0010564899)
(0.0041261396 0.018923013 -0.00080904853)
(-0.0013083985 0.018044826 0.003710836)
(-0.0035160026 0.016378281 0.0054637121)
(-0.0042085422 0.015208676 0.0063912714)
(-0.00093128061 0.0073592437 0.0039030109)
(0.0030038621 0.0095407093 0.0038591595)
(0.0047723373 0.017460991 0.004199781)
(-0.00061813385 0.01917503 0.0025258785)
(-0.0061386826 0.017649338 0.0012868149)
(-0.007559132 0.01341836 0.00082499543)
(-0.0030581699 0.00066699268 -0.00077192695)
(-0.00212227 0.001091769 0.00093653102)
(0.0026911699 0.0058310249 0.0014169535)
(0.00089024452 0.018793788 0.001360953)
(0.0021976114 0.0044390297 -0.0023877489)
(0.0062919516 0.016351696 -0.0057580918)
(0.0052367058 0.019453629 -0.0047330143)
(0.0015966003 -0.0094965814 0.0033269067)
(-0.00023030699 -0.0136733 0.0021754726)
(-0.0026050514 -0.014586699 0.0021386677)
(0.00031410215 -0.0032530941 0.00028842465)
(-0.00012616611 0.0046190477 0.00034579858)
(-0.00050325076 0.00055319985 0.0017709353)
(0.0033101753 -0.01381488 0.0012963633)
(-0.0026646197 -0.014684332 0.0026950019)
(-0.0033535645 -0.013218606 0.0022510011)
(-0.0027847049 -0.014192513 0.0018093295)
(0.0015526141 -0.012295763 0.0015590213)
(0.0038838361 -0.010922101 -0.0013296903)
(0.003230437 -0.0059941497 -0.0008240581)
(0.0026365353 0.0023675571 0.00026889943)
(0.00090797357 0.0042450825 0.002854238)
(0.0012725917 -0.000777049 -1.4819082e-06)
(0.0022794338 -0.01415229 -0.0037398594)
(0.0024733092 -0.015472955 -0.0021735903)
(-0.00059784929 -0.015537439 -0.0011768705)
(-0.0010673729 0.00013084709 -9.3769864e-05)
(-0.0014932865 0.0058872157 0.00062837383)
(-0.0022118825 0.0027071146 -0.0014453259)
(0.0036634005 -0.014761078 -0.0019235017)
(0.00043027753 -0.016229232 -0.0023246671)
(-0.0031397259 -0.014234668 -0.00097159924)
(-0.0019471634 -0.01425821 -0.00039305893)
(0.0027169469 -0.010427935 -0.0015505865)
(0.0010758474 -0.016108253 -0.00043234455)
(-0.0058038905 -0.014984114 0.0014175717)
(0.0023679048 0.0047479125 -0.0017901736)
(-0.0010502822 0.0096772357 0.00016514943)
(-0.00099212049 0.0033112997 0.00091660562)
(-0.0021015945 0.0095165331 0.00088366483)
(-0.002976257 0.0075017773 0.00018366177)
(-0.0013314935 0.0087092309 0.0021142129)
(0.0022211075 0.0074417705 0.00055866168)
(0.0037524241 0.0093921995 -0.0017522813)
(0.0012135209 0.0080401082 -0.00079647613)
(0.0017040681 6.9483396e-05 -0.00056280504)
(0.00152031 -0.0029724396 0.00028674345)
(0.002609534 0.0026130167 -0.0010030554)
(0.0022778463 0.010216773 -0.00082862712)
(-0.0018970699 0.0089064067 0.00070981768)
(0.0003468861 0.0087300479 0.0022741024)
(0.0010694188 0.0093117726 0.0023450324)
(0.0037997137 0.0076627197 -0.00066379769)
(0.0028654857 0.010591329 -0.0012262963)
(0.0010091867 0.002308501 0.0012933132)
(-0.0019797979 0.0086602744 0.0031727195)
(-0.0038500183 0.0075229649 0.001037273)
(-0.0018418947 0.0096119151 -0.0002188792)
(0.001219471 0.0077585367 -0.0012201717)
(0.0045008044 0.010369782 -0.0015917255)
(-2.0855216e-05 0.010428906 0.001638015)
(0.0011932484 0.00097026884 0.0011930769)
(-0.00010174797 -0.0038250357 0.0013123711)
(0.0026170876 0.0081705371 -0.0020268406)
(0.00052837589 0.012128775 -0.0022771899)
(-0.0053656173 0.012207368 0.0010341696)
(-0.0019592465 0.0091325701 7.0980795e-06)
(0.002325634 -0.0044445746 0.00151399)
(-0.0014152841 -0.01015429 -0.00055665839)
(-0.004830342 -0.0084912868 -0.0010840263)
(-0.0036414544 -0.0026483064 -0.00025523579)
(-0.0019142117 0.00087694909 0.00052605699)
(0.0017951933 -0.0019880714 -0.0011217544)
(0.0030604816 -0.0059492034 -0.0018481902)
(0.0051907747 -0.0092035348 -0.00050664424)
(0.0054482679 -0.01007132 -0.00059778192)
(0.0020588635 -0.010819639 -0.00044306986)
(-0.0033688084 -0.0085817058 -0.00056157664)
(-0.0026206121 -0.0028583062 0.00125182)
(-0.0025154418 -0.0016036411 0.0014050996)
(-0.0015776329 0.00019242189 0.0006651886)
(0.00064447283 0.0019341205 0.00075327246)
(0.002428942 -0.00118951 -0.0016717089)
(0.0046209414 -0.0056981375 -0.0027210367)
(0.0017343175 -0.0097714531 -0.0030405454)
(-0.0046943883 -0.0088177183 -0.0039997789)
(-0.003822415 -0.0017100986 -0.0020157022)
(-0.0023311814 0.0010440173 -0.00093932165)
(0.00094364597 -0.00029772537 -0.0028516707)
(0.0032956802 -0.0041079677 -0.0025550257)
(0.0040272906 -0.0067604607 -0.0030167427)
(0.0052952025 -0.0093590759 -0.0028741778)
(-0.0039270751 -0.010757957 0.0022777565)
(-0.0067056629 -0.0084752457 0.0041214358)
(-0.0051695969 -0.0045480559 0.0035533956)
(-0.0044656878 -0.0039876356 0.0037611681)
(-0.0019667198 -0.0003819075 0.0038227275)
(-0.0010362793 -0.014320277 0.0021747231)
(-0.0028919083 -0.012326399 0.002778396)
(-0.0016876445 -0.011000324 0.0013213565)
(0.00094467358 -0.011865662 -0.00017798041)
(0.00046166367 -0.015220299 -0.0026875965)
(-0.00052674239 -0.016833705 -0.0032573726)
(-0.0015223913 -0.01802642 -0.0013411843)
(-0.0025093654 -0.014701592 0.00042708338)
(-0.0016263613 -0.011689511 0.00032992257)
(-0.00070860355 -0.01228872 -0.0014555918)
(-0.00022152926 -0.011969978 -0.0021030807)
(0.00071642319 -0.012042399 -0.0027716726)
(0.0018792005 -0.012313517 -0.0022814471)
(0.0025521398 -0.015009828 -0.0027204442)
(0.0013870304 -0.014867332 -0.0016134428)
(-0.00074317729 -0.0178412 -0.0015744616)
(-0.0011842193 -0.01736891 -0.00046127483)
(-0.0014391164 -0.017002575 0.00030475327)
(-0.00067170992 -0.018261933 0.00070246697)
(0.00021772871 -0.018475322 -0.0016557591)
(-0.00065249041 -0.016732814 -0.0011730278)
(-0.0014764258 -0.017770133 -0.00048458384)
(-0.0025940895 -0.017108983 0.00050630436)
(-0.0029478052 -0.018335389 0.0023163219)
(-0.0015419819 -0.017190016 0.0028077154)
(-0.0019623766 -0.016038649 0.0023889301)
(-0.0024524356 -0.012823596 0.0009346226)
(0.0012345596 -0.012539592 0.00043902919)
(0.0013990471 -0.013899138 -0.0013489536)
(0.0021451429 -0.018265402 0.00028885987)
(-0.0021426587 0.016443976 0.004251851)
(-0.0033024045 0.013360279 0.0040088186)
(0.0020651143 0.00077298379 0.00050293168)
(0.0027038667 0.002626443 0.00043710445)
(0.006992885 0.014022088 -0.0033006993)
(0.0054685161 0.017493496 -0.0042296064)
(-0.0039451997 0.018468595 0.0032803783)
(-0.0048844145 0.014501015 0.003863838)
(-0.0018582459 0.0041312386 0.00072711742)
(-0.00031366862 0.0069255296 -0.0011463844)
(0.0018751133 0.0045041361 -0.003208844)
(0.0031769934 0.005736002 -0.0031936702)
(0.0055851426 0.0061916072 -0.0027561795)
(0.0080692811 0.014239504 -0.0044708903)
(0.0070349265 0.016872035 -0.0037670019)
(0.0032261473 0.018977369 -0.0023030943)
(-0.0031901266 0.019077399 0.00083384088)
(-0.0022863624 0.018403758 -6.3624454e-05)
(0.00084358778 0.018777445 -0.0014478422)
(0.0040531941 0.01923168 -0.0045389083)
(0.0045610076 0.018727973 -0.0034164846)
(-0.00022457408 0.01908986 -0.0011198773)
(-0.0064770198 0.018957349 0.001801454)
(-0.0059621496 0.018069225 0.0030474146)
(-0.002688143 0.015535343 0.003714381)
(-0.0023705179 0.015871332 0.0040084262)
(-0.0021217366 0.0028373952 -0.00019316605)
(0.0026377853 0.0035578788 -0.001261218)
(0.0029545345 0.0066829304 -0.004032231)
(0.0051391623 0.018545066 -0.0044726048)
(0.00023545211 -0.0019099268 0.0026364934)
(0.0050552626 -0.013000201 -6.4048701e-05)
(0.0046223016 -0.014293384 -1.8172555e-05)
(-0.0014637946 -0.01460089 0.0020297738)
(-0.0029719607 -0.012641032 0.0034242969)
(0.0022186266 0.0059024269 -0.0014706823)
(-0.001803146 0.0047623032 0.001167035)
(0.0046411894 -0.011650808 -0.0027732908)
(0.0012203452 -0.014307315 -0.0012856627)
(-0.00081058298 -0.013266123 0.0014211961)
(0.0021949341 -0.013705493 0.00042147715)
(0.0021826003 -0.013095285 0.0012763701)
(0.0029388389 -0.014194811 0.0022842336)
(-0.0014996832 -0.014118699 0.0065692802)
(0.0011205013 0.0012663451 0.00043340995)
(0.00098518921 0.0062380659 -0.0017050895)
(-0.001306244 0.0046027276 -4.7261481e-05)
(0.00058678509 -0.012051616 0.001098936)
(0.0017687817 -0.018797033 0.00092095733)
(0.00021203457 -0.016889854 0.003418419)
(0.0011253356 0.0012313564 0.00015267811)
(-0.0005166807 0.0061378516 -0.001102767)
(-0.0026040406 0.002662038 -0.0016660678)
(0.0015623503 -0.018275741 -0.0044004254)
(-0.0034875011 -0.016585715 -0.0043064407)
(0.0010334311 -0.013409086 -0.0027473069)
(0.0015764825 -0.014428013 -0.00069789052)
(0.0026562936 -0.013614073 -0.0018230446)
(-0.0023358445 -0.015253767 -0.0029141045)
(-0.00059564537 -0.0041342881 -0.0030951317)
(0.0024173719 0.0070930918 -0.00067337486)
(0.0041422557 0.0078441116 -0.00077825904)
(0.0034761489 0.0096181884 -0.00089135935)
(0.00025912925 0.010506593 0.0017574987)
(-0.0024831432 0.010488978 0.0024937239)
(-0.00048883135 0.0087900788 0.00032271441)
(0.0023792797 0.0086177661 -0.0012677336)
(0.0040174739 0.010627785 -0.0036544778)
(0.00070472978 0.0090203173 -0.0015736323)
(0.0015008942 0.00188395 -0.0022524542)
(0.0021739729 -0.0028492562 -0.0028875109)
(0.00047228647 -0.0022692131 -0.00041606269)
(0.002392555 0.0075789683 -0.00073754338)
(-0.0040565404 0.010234399 0.0029373656)
(-0.0023956962 0.0074595601 0.0014592766)
(5.2324707e-07 0.010509398 -0.0015898708)
(0.0016454669 0.0088710438 -0.0011423949)
(0.0044517091 0.0081744865 0.00063526774)
(0.0041439746 0.012162938 0.00066494807)
(-0.0044814078 0.012662566 0.002655162)
(-0.0027553707 0.0085088687 0.0016908839)
(-0.00059806501 0.011002082 -0.0005998696)
(0.0018313314 0.0087325301 -0.0031119363)
(0.0038164835 0.012563398 -0.003555736)
(-0.0038307078 0.011031937 -0.0029199758)
(-0.00036524742 0.0011778949 -0.0021010352)
(-0.0019990803 -0.0038203963 -0.00012292387)
(-0.00057601239 0.0032234998 -0.0010562346)
(-0.0021687435 0.010978914 -0.0025052282)
(-0.0026148532 0.0088732097 0.00045515856)
(0.0018399504 -0.0077567146 0.002269307)
(-0.0021783657 -0.010697787 0.0012903505)
(-0.0021021913 -0.0047999571 0.0017699185)
(-0.0025250365 -0.0053191784 0.0023579053)
(-0.002331325 -0.0047237944 0.0017449309)
(-0.00028314596 0.0019602846 -2.308503e-05)
(0.0022225027 -0.00061829981 -0.0020082281)
(0.0039001052 -0.0049841902 -0.0036034831)
(0.0057524765 -0.009008092 -0.0049147114)
(0.0050392637 -0.010289729 -0.0053616217)
(0.0020454514 -0.01072213 -0.0037888816)
(-0.0047232229 -0.0085079388 0.0032330045)
(-0.0051593151 -0.0063640573 0.0031495818)
(-0.0042962207 -0.0029197274 0.0023542711)
(-0.0025840265 -0.0013644869 0.001671227)
(-0.00070936633 0.0039869268 -0.00060077138)
(0.0037718292 -0.00084760661 0.00018330341)
(0.00026002326 -0.01032814 0.0018473296)
(-0.0026937599 -0.0044618476 0.0028550118)
(-0.0025031666 -0.0022206203 0.0024937215)
(-0.0018841567 -0.0023805503 0.001514948)
(-0.00018668544 0.0033925886 -0.00010719863)
(0.0027641016 6.8719898e-05 -0.0014189012)
(0.0040118213 -0.0018400718 -0.0017811442)
(0.0039298821 -0.0041566847 -0.001392714)
(0.0048857228 -0.009769471 -0.00034903902)
(-0.0030744033 -0.010912482 0.003563577)
(-0.0053202119 -0.0096659624 0.0048192829)
(-0.0043787955 -0.0089338807 0.0039551711)
(-0.001399423 -0.0075304434 0.001453859)
(-0.00051007437 -0.014568626 0.0018801255)
(-0.0020635132 -0.013829174 0.0018575672)
(-0.0025131555 -0.012731301 0.0022609373)
(-0.0032908151 -0.012271956 0.0010534606)
(-0.00088963483 -0.011215986 -0.0014930082)
(0.00044712177 -0.013461339 -0.0022445333)
(0.00050623808 -0.018628188 -0.0014526838)
(-0.0012861139 -0.018262197 -0.00020511411)
(-0.0033591888 -0.014899666 0.00094745559)
(-0.0033215025 -0.012502382 0.00087786371)
(-0.0022029538 -0.013184928 0.00057520441)
(0.00018161839 -0.012544175 0.0014995563)
(-0.00024157546 -0.011407918 0.0019313226)
(0.0023688371 -0.012190125 0.00017099868)
(0.0039791342 -0.013242194 -3.125581e-05)
(0.0026804551 -0.014837102 0.00011366506)
(-0.0012718523 -0.016233871 -0.0015355354)
(-0.0020348472 -0.012009806 -0.0027783163)
(-0.00032143254 -0.011361708 -0.0021729066)
(0.0023976839 -0.011272553 -0.0014290248)
(0.0029926745 -0.014186888 -0.002767686)
(0.0027011153 -0.015859464 -0.0022660665)
(-0.00020906891 -0.019385588 -0.0024268944)
(0.00032079729 -0.014918031 -0.0026219359)
(0.001288552 -0.016128783 -0.00074123294)
(-0.00092793221 -0.017465036 0.0026681842)
(-0.0024537121 -0.014881968 0.0030063136)
(-0.00047832683 -0.011040533 0.0015508525)
(0.0018480115 -0.012533087 0.00090341711)
(0.0015140398 -0.019449407 0.0021932483)
(-0.0021045693 0.016406189 0.0035697153)
(-0.0031407913 0.015856244 0.0034739461)
(-0.0022561836 0.014358166 0.0035396987)
(-5.9970361e-05 0.011951796 -0.00050910961)
(0.0044009536 0.0025456406 -0.0031656324)
(0.005509199 0.0077106441 -0.0029277232)
(0.0071006459 0.017883027 -0.0029043917)
(-0.0034658114 0.019408228 0.0022975321)
(-0.0064992484 0.014963783 0.0030510235)
(-0.0038895003 0.0035894222 0.0014120631)
(-0.0027582726 0.0041890003 0.00030410677)
(0.00010189754 1.1211787e-05 9.8046457e-06)
(0.00081891942 0.00012771722 -0.00097043104)
(0.0027865034 1.544074e-05 0.0015584928)
(0.0059383223 0.011249308 0.00044482045)
(0.0047905144 0.01660751 -0.00042920813)
(-0.0032045699 0.017897322 -0.0029332396)
(-0.0009178066 0.0090465901 -0.0019746387)
(0.0016197342 0.0017354258 9.3451506e-05)
(0.0041532231 0.00096183718 0.00020776602)
(0.0066569774 0.01224829 -0.003114989)
(0.00619851 0.01718189 -0.0039726506)
(-0.002321732 0.020160077 -0.0029989099)
(-0.0021569132 0.013147839 -0.0032098718)
(0.0032118863 0.017984116 -0.001225318)
(-0.0017977621 0.01885254 0.0028630722)
(-0.0037970305 0.013375466 0.0033260113)
(0.00098593386 -0.0014025229 -0.00059518914)
(0.0019344946 0.0050124499 -0.0018271418)
(0.0037006076 0.019684766 -0.002276946)
(-0.00027371734 2.8041727e-05 0.0012143476)
(0.0019000498 -0.0051947092 -0.00056106429)
(0.0046768673 -0.010092398 -0.0029384106)
(0.0062967303 -0.013459112 -0.003802057)
(0.0067374869 -0.014710164 -0.0024527029)
(-0.0012199904 -0.014434031 0.0016117827)
(0.0031286009 0.0054594302 -0.0006530396)
(-0.0011460851 0.0089090173 0.001137894)
(0.0030149111 -0.010490374 -0.0014713318)
(0.00079884458 -0.014909049 -0.00076581641)
(-0.0023428335 -0.01349225 0.00043389428)
(-0.00139351 -0.013879926 -0.00039393563)
(-0.00017809314 -0.013626809 -0.0015972168)
(-0.00067819816 -0.015195634 0.005307593)
(-0.0043954208 -0.013287921 0.0039030344)
(0.00087274442 7.6469743e-05 0.0021737712)
(-0.0013685656 -0.0059664297 -0.00049165516)
(0.0040038246 -0.013686034 0.00099759117)
(0.0033056193 -0.01401698 0.0027946011)
(0.0011825938 -0.015285247 0.0034662513)
(-0.0035768189 -0.013272426 0.0056586582)
(0.00026321793 0.0021048553 0.0010413019)
(-0.0022948271 -0.00063434853 -0.00091415626)
(-0.0008573742 -0.015104915 -0.00012462266)
(-0.0023315176 -0.0081743222 0.0016506346)
(-0.0010362291 0.00083244677 0.0034279739)
(0.0037978653 -0.014932944 -0.0018277127)
(0.0035485725 -0.014582049 -0.0029529785)
(0.000619402 -0.013628024 -0.0028944893)
(-0.0019218129 -0.013713916 -0.002380478)
(0.0015790563 0.0084743954 -0.00025870781)
(0.004210529 0.0050651528 -0.0007438397)
(0.0048883907 0.0051930352 -0.0014117582)
(0.0042307264 0.0078453455 -0.0016423017)
(0.0046606362 0.0096951409 -0.0019692441)
(-0.0016376157 0.0087603241 0.0016958373)
(-0.00046041167 0.0085662111 0.0015782207)
(0.0015976219 0.01017607 -0.0009292532)
(0.0048611273 0.0099509572 -0.0029741944)
(0.0013598557 0.010991792 -9.8877658e-06)
(-0.00013285043 0.0053974705 -0.00042186736)
(-0.00038364712 -0.0056587423 -0.0011868489)
(-0.0022246688 -0.0028714255 0.00036685191)
(0.00053187222 0.010140612 0.00065774948)
(-0.0034188554 0.0097803594 0.003197202)
(9.4227889e-05 0.0071321975 0.0024681316)
(0.0012840886 0.0087815122 0.0023024325)
(0.0035194251 0.0010891546 0.00057123706)
(0.00061496224 -0.00055377517 0.0017137071)
(0.0010643335 0.0077957158 -0.00087104601)
(-0.0036499888 0.010263246 0.0023623308)
(-0.0018236553 0.0079183477 0.0021640042)
(0.00070237435 0.0089512376 -0.0012864507)
(-0.00029653292 0.0091017281 -0.0042290657)
(-0.0030930581 0.0064968069 -0.0029858586)
(0.0010441471 0.0011036855 0.00024943089)
(0.0023049971 -0.0018017843 -0.0022595683)
(0.0015590418 -0.002932298 -0.0021447799)
(0.0024344673 0.0031009711 -0.0016078472)
(0.0020007782 0.012599647 -0.00050689241)
(0.0018276006 -0.0071063548 0.0012380028)
(0.00083468884 -0.0108903 0.0015592174)
(-0.0020480993 -0.0098307806 0.0037259999)
(-0.0037993929 -0.0088842211 0.0043580022)
(-0.0029855231 -0.0055314448 0.003404694)
(-0.0028952846 -0.0044002444 0.0030443433)
(-0.001324152 0.0012706356 0.0011469888)
(0.0020510271 0.0012759872 -0.0014268631)
(0.003861014 -0.00548472 -0.0034343295)
(0.0039751682 -0.007680258 -0.0048490945)
(0.0044247745 -0.0090146977 -0.0055536495)
(0.0013839465 -0.010509786 -0.0027785427)
(-0.0052881602 -0.0098517588 0.0027284643)
(-0.0046684481 -0.0093562509 0.0029494748)
(-0.0020172763 -0.0065675596 0.0028877489)
(0.0006251718 -0.0024363948 0.003448342)
(0.0037277248 -0.0060346807 0.0032207)
(0.0039868266 -0.0099432982 0.0036960205)
(-0.0040669887 -0.0085687503 0.0064929125)
(-0.0044694152 -0.0068334428 0.0057596192)
(-0.0030292914 -0.0035752513 0.0032122154)
(-0.00017932346 -0.00096289583 0.0034768489)
(0.0023502452 -0.0013010729 0.0021618107)
(0.0045834759 -0.008037224 0.0039615717)
(0.0050037418 -0.0099572717 0.0027911125)
(0.0033155203 -0.010372108 0.00019151042)
(0.00064376439 -0.011129843 -0.0017231578)
(-0.0042436698 -0.010786402 -0.0015886499)
(-0.0061929019 -0.0084216529 -0.001596227)
(-0.0029421284 -0.0020687082 -0.0024721456)
(-0.0002030514 -0.015706105 0.00064701583)
(-0.0017060956 -0.01605976 -6.019213e-05)
(-0.0028195708 -0.014187274 -0.0015286412)
(-0.0036483085 -0.012563112 -0.0021194535)
(-0.0020451083 -0.010663392 -0.0011784895)
(0.00071104754 -0.011222747 -0.0010916552)
(0.0013333161 -0.015567199 -0.00061241381)
(0.00058132947 -0.017440146 0.0014198536)
(-0.0015032197 -0.015906971 0.0023120653)
(-0.0027904655 -0.012721331 0.0026133761)
(-0.00152609 -0.011138855 0.0010718232)
(0.0022650264 -0.012237951 0.0041465093)
(0.00064211044 -0.013541284 0.0043085662)
(-0.0011150727 -0.014678221 0.0010133897)
(-0.00051925715 -0.012929097 0.0022909759)
(0.0012028838 -0.013629177 0.00095103898)
(0.0022215719 -0.01384102 -0.00073174729)
(0.0046435 -0.015617528 -0.00050418664)
(0.0026615917 -0.01898593 -0.00051899433)
(-0.001062012 -0.013583761 -0.00035420216)
(0.0024693194 -0.010942314 -0.0012405634)
(0.0021125384 -0.015912879 0.0015780448)
(0.0014087186 -0.017232224 0.0011849788)
(-0.0011389897 -0.013334112 0.0030547913)
(-0.00036810733 -0.011370334 0.0014323662)
(0.0017678339 -0.019525956 0.0021758124)
(-0.0018869101 0.017244916 0.0017685158)
(-0.0031669248 0.017688264 0.00014889872)
(-0.0030882453 0.016025799 -0.0020583374)
(-0.0032046488 0.012428776 -0.0031149798)
(0.0013782502 0.0022321584 -0.0016698586)
(0.0033022386 0.0024276951 -0.002177278)
(0.0065310178 0.01411982 -0.0041202883)
(0.0053152105 0.018582474 -0.0024015047)
(-0.0049558913 0.017472452 0.0028498399)
(-0.0059169132 0.012754699 0.0024430508)
(-0.0022212827 -0.00097916703 -0.0016164554)
(-0.00097526453 0.0076430859 0.0019083317)
(0.0015968912 0.014760383 0.0053703719)
(-0.00060035686 0.0096961526 0.0010966941)
(-0.00082685304 0.000352097 0.0026635326)
(0.0014912503 0.0046065455 0.0010120825)
(0.0028486695 0.00040209258 -0.00044264945)
(0.006584114 0.0089281834 -0.00088998864)
(0.002617934 0.019831167 -6.1413284e-05)
(-0.0030138564 0.0067100777 -0.00082591563)
(0.0007559453 0.0022195239 0.0014362765)
(0.004198811 0.016879565 0.00090144747)
(0.0011023965 0.018895257 0.0025265338)
(-0.0037664646 0.01429311 0.0041620994)
(0.0014640013 0.0030576327 0.0010241801)
(0.0027511596 0.019666676 0.0025864386)
(-0.00014965124 -0.0022205371 0.0022328393)
(0.00095656862 -0.0080938914 0.0019587591)
(0.0014453881 -0.0093707582 0.0011373156)
(0.0040582745 -0.013511846 5.0051675e-05)
(0.0036486372 -0.013100781 -0.0011172818)
(0.00024903023 -0.013738667 -0.00053255447)
(-0.0037759709 -0.014019943 0.0025170024)
(0.0025530032 0.0065221439 -0.0011930906)
(-0.0020767171 0.0055195856 0.00049654875)
(0.0036553297 -0.010860459 -0.0049968008)
(6.9406845e-05 -0.01536176 -0.0050777614)
(-0.0052716392 -0.015051021 -0.0026874697)
(-0.0021188566 -0.013514464 -0.003420279)
(0.0017781987 -0.014842435 -0.0012683286)
(0.00088411941 -0.014707365 0.00049674533)
(0.0026847073 -0.013204553 0.00050081934)
(0.00098573482 -0.016223762 0.0012869922)
(-0.0034283172 -0.016233109 0.00045982463)
(-0.0013952164 -0.0033530175 0.0031156813)
(0.0014230063 -0.013292599 -0.0018902787)
(-0.0018353616 -0.013798422 0.0036937416)
(-0.0016829939 -0.011294514 0.0045270856)
(0.00063327405 0.0011490304 0.003313617)
(0.0032116696 -0.011829463 -0.001843055)
(0.0030042457 -0.014180575 -0.00038308308)
(-0.004108078 -0.012588126 -2.0270237e-05)
(0.0012081653 0.0091672851 0.0025631949)
(0.0022086782 0.0086463482 0.0030704613)
(0.00097626595 0.0022048081 0.0018328681)
(0.00081243233 0.00022930542 0.00060748026)
(-0.00044683421 0.0014887862 0.00038145912)
(0.00021772261 0.0053065047 0.00075359595)
(-0.0034473022 0.01031107 0.0029059692)
(-0.0013449263 0.0093507239 0.00097261907)
(0.0018235174 0.008427268 -0.0019382947)
(0.0047628925 0.0096770106 -0.0034075383)