/*--------------------------------*- C++ -*----------------------------------*\
| =========                 |                                                 |
| \\      /  F ield         | OpenFOAM: The Open Source CFD Toolbox           |
|  \\    /   O peration     | Version:  v2012                                 |
|   \\  /    A nd           | Website:  www.openfoam.com                      |
|    \\/     M anipulation  |                                                 |
\*---------------------------------------------------------------------------*/
FoamFile
{
    version     2.0;
    format      ascii;
    class       volScalarField;
    location    "410/topAir";
    object      T;
}
// * * * * * * * * * * * * * * * * * * * * * * * * * * * * * * * * * * * * * //

dimensions      [0 0 0 1 0 0 0];


internalField   nonuniform List<scalar> 
1200
(
323.81655
345.85028
365.78779
384.19117
401.53167
418.09676
434.00464
449.14266
463.19011
476.11752
487.81564
498.07891
506.45636
507.29501
505.81649
501.98988
496.39812
490.00835
483.7499
478.25091
473.80959
470.49365
468.24853
466.98394
466.63128
467.18214
468.72683
471.51818
476.14945
483.53884
300.5131
301.48104
302.80617
304.43034
306.31246
308.42112
310.72774
313.35578
316.98653
321.84171
328.68158
338.00711
350.05503
363.30337
376.46594
388.3006
398.1668
405.86508
411.40204
414.91695
416.78929
417.57763
417.84852
418.09635
418.74859
420.22059
422.99542
427.78475
435.90867
448.36226
300.01141
300.04364
300.10345
300.19667
300.32829
300.50255
300.72287
300.99533
301.34126
301.78476
302.39176
304.20664
309.01556
317.67088
329.49428
343.32689
357.46874
370.75855
382.421
391.99334
399.34483
404.67479
408.39674
411.0035
412.98066
414.7823
416.85543
419.74133
424.3852
432.07916
300.00028
300.00134
300.00391
300.00894
300.01765
300.0315
300.05224
300.082
300.12393
300.18275
300.26927
300.44854
300.99034
303.89737
312.1883
324.52007
337.84764
351.02487
363.4087
374.47023
383.83391
391.38075
397.25218
401.74606
405.21376
408.00336
410.45378
412.95067
416.1073
420.87177
323.81185
345.61068
365.08788
382.80725
399.20658
414.51576
428.79649
442.00027
453.9412
464.318
472.69688
478.55817
481.23238
474.52373
465.05838
454.30236
444.31399
436.5271
431.27647
428.11465
426.37069
425.53366
425.30627
425.57716
426.36649
427.79085
430.0777
433.661
439.62126
449.73907
300.51243
301.46242
302.73756
304.26919
306.0052
307.90179
309.91413
311.99091
314.07129
316.07503
317.89356
319.38822
320.39114
320.65486
320.34238
320.05203
320.53966
322.06612
324.38482
327.10944
330.02985
333.13278
336.47978
340.1882
344.39659
349.20794
354.63385
360.59686
367.23775
376.6403
300.01137
300.04275
300.09947
300.18556
300.3038
300.45588
300.64218
300.86141
301.11039
301.38257
301.66658
301.96378
302.27278
302.59419
303.41937
305.55872
310.04261
316.61149
324.15909
331.45848
338.1672
344.95773
351.68384
358.20145
364.35059
370.47754
377.11386
384.20066
391.75052
399.96267
300.00027
300.0013
300.0037
300.00824
300.01584
300.02749
300.0443
300.0674
300.09797
300.13728
300.18719
300.25555
300.39032
300.96685
303.48299
309.74357
319.46749
332.08284
345.5593
358.35331
369.22978
377.58464
384.3068
389.91482
394.8297
399.04784
402.48085
405.48702
408.4889
412.64571
323.80951
345.6476
365.18024
382.96969
399.46041
414.89398
429.38078
442.95099
455.54942
467.01389
477.03816
485.11038
490.27064
484.84349
476.15599
465.86065
455.56026
445.97525
437.45264
430.12247
423.94324
418.88845
415.05995
412.63936
411.75859
412.41697
414.53887
418.12912
424.21342
435.08646
300.51246
301.46553
302.7464
304.28557
306.03148
307.94266
309.98064
312.10475
314.26407
316.38969
318.37603
320.05579
321.17464
321.39668
321.06211
320.9633
321.39664
322.3174
323.76583
325.74743
328.27346
331.45247
335.46173
340.46605
346.54505
353.68162
361.75906
370.48476
380.04923
391.9305
300.01137
300.04288
300.09991
300.18643
300.30513
300.45765
300.6445
300.86478
301.11563
301.39061
301.67658
301.94866
302.17472
302.49457
303.96586
307.3648
311.36758
315.0903
319.08248
323.40786
328.19788
333.93759
341.06041
349.74802
359.76133
370.25139
380.12206
388.8471
398.32912
410.58146
300.00027
300.00131
300.00372
300.00828
300.01589
300.02752
300.04421
300.06705
300.09709
300.13532
300.18277
300.24385
300.38181
301.37222
307.12381
318.83062
327.31381
330.2272
338.958
350.47312
361.36579
370.26188
377.50418
383.5974
388.95563
393.69901
397.76581
401.59797
410.29266
427.34822
323.8116
345.66535
365.23437
383.08765
399.68805
415.30963
430.11052
444.18219
457.56868
470.24658
482.06971
492.63318
500.93153
498.59197
495.843
494.96209
496.08876
498.14433
500.07996
501.25779
501.25375
499.85109
497.02849
492.972
488.22231
483.92523
481.93079
484.26201
490.77287
501.26353
300.51255
301.46691
302.75186
304.29935
306.06025
307.99752
310.08013
312.27826
314.55716
316.8648
319.10437
321.0849
322.49052
323.13339
323.94414
325.30341
326.98715
328.81834
330.78911
333.01143
335.66708
338.91655
342.8175
347.3662
352.62844
358.76377
365.87241
374.20448
391.10936
423.39142
300.01137
300.04295
300.10021
300.18731
300.30719
300.46188
300.65257
300.87939
301.14081
301.43181
301.73895
302.03118
302.29421
303.18615
306.75874
310.71702
313.52344
315.75902
318.39605
322.01296
327.01993
333.65477
341.85011
351.61467
363.07424
375.7258
387.74864
398.01403
409.24213
427.6114
300.00027
300.00131
300.00373
300.00834
300.01603
300.02784
300.0449
300.06839
300.0996
300.13986
300.19118
300.26822
300.60149
304.07736
320.8208
341.21349
345.72206
345.52385
346.50886
353.21191
361.36101
368.99267
375.89584
382.49057
389.61305
397.75122
406.80051
416.15272
426.89426
443.68129
323.81194
345.67058
365.24898
383.11527
399.73389
415.38192
430.21656
444.33068
457.75937
470.44997
482.17014
492.31884
499.7161
495.52628
493.15884
493.95439
496.56576
500.26955
504.59871
509.21052
513.79654
518.04797
521.6631
524.39304
526.13295
527.06795
527.82828
529.53335
533.77515
542.46822
300.51257
301.46747
302.75408
304.30479
306.07088
308.01597
310.10961
312.32256
314.61887
316.93852
319.15868
321.02907
322.21297
323.05715
324.54482
326.45763
329.64742
334.89094
341.8332
350.52101
361.02191
373.32091
387.2275
402.2817
417.79736
433.20992
448.49949
464.17532
480.87117
501.60571
300.01138
300.04298
300.10036
300.18775
300.30818
300.46384
300.65609
300.88527
301.14993
301.44424
301.75105
302.03178
302.36185
304.71524
309.07646
312.03061
313.75168
315.42742
317.89807
321.59378
327.30087
334.94805
344.1222
355.46904
368.91225
384.22496
401.28059
420.40132
442.57995
470.45156
300.00027
300.00131
300.00374
300.00837
300.01611
300.02803
300.04529
300.06917
300.10107
300.14262
300.19728
300.30241
301.09377
311.23549
346.82478
353.74314
356.06925
357.63601
359.67099
363.10647
367.38744
371.93888
376.15553
379.55141
383.68458
389.71102
397.96655
412.29204
433.56849
461.33645
323.81183
345.67072
365.24972
383.11597
399.73357
415.37984
430.21388
444.3308
457.77379
470.51109
482.36089
492.81086
500.59424
495.63212
491.75407
491.02437
493.13144
496.85922
501.09752
505.45205
509.56373
513.11809
515.88176
517.73559
518.70753
519.04572
519.3963
520.87644
524.92557
533.03817
300.51256
301.46748
302.75417
304.30502
306.07135
308.01684
310.11134
312.32634
314.62838
316.96375
319.2252
321.18711
322.45905
322.88742
324.1208
325.85823
327.84938
330.70885
334.29964
337.82127
340.87535
343.93208
348.19188
354.48496
363.04836
373.99724
387.61293
404.65503
427.85949
459.82132
300.01138
300.04298
300.10037
300.18776
300.30822
300.46394
300.6563
300.88573
301.1511
301.44756
301.76071
302.0538
302.30337
303.6613
309.24015
313.11039
315.40511
317.02413
319.0223
322.55539
328.70239
338.07639
349.79935
360.766
369.59416
376.54767
382.87475
393.09395
409.8039
435.65702
300.00027
300.00131
300.00374
300.00837
300.01612
300.02804
300.04531
300.06919
300.10108
300.14254
300.19582
300.27496
300.64206
306.68824
347.54452
356.72207
360.0567
362.39997
364.67868
367.12397
370.16159
374.05797
378.28826
382.58364
387.38057
393.01078
399.09297
406.46532
420.69232
439.69082
323.81289
345.66838
365.23927
383.09317
399.69135
415.30899
430.10346
444.16932
457.54889
470.22197
482.06064
492.70295
501.15429
498.4614
494.44825
491.8641
491.2842
491.73448
491.98058
491.16197
488.95483
485.55488
481.45138
477.13349
472.95694
469.36304
467.68552
470.42837
479.83809
490.59103
300.51257
301.46704
302.75227
304.30029
306.06197
308.00031
310.08434
312.28485
314.56834
316.88561
319.14801
321.17996
322.6564
323.14757
323.59599
324.77463
326.35682
328.08077
329.84935
331.74489
333.99946
336.90715
340.73287
345.57334
351.42799
358.3303
366.1262
374.09309
385.31286
413.24037
300.01138
300.04295
300.10024
300.18739
300.30737
300.46223
300.65321
300.88054
301.14293
301.436
301.74809
302.05086
302.29819
302.7549
306.26289
311.47347
315.30248
318.18265
321.18009
325.28445
331.23231
339.2477
348.97919
359.12347
368.75221
377.63596
386.37066
393.53146
400.79045
413.71917
300.00027
300.00131
300.00373
300.00834
300.01605
300.02788
300.04497
300.06853
300.09985
300.14027
300.19138
300.25876
300.42825
302.14677
317.94312
344.21453
349.57471
349.8521
349.15692
351.77084
358.40441
365.56122
372.19216
377.60989
382.68699
387.88145
397.02141
406.96448
418.10155
429.27023
323.81363
345.65557
365.19171
382.98406
399.47736
414.91315
429.39715
442.96712
455.56726
467.02997
477.04929
485.13164
490.33937
484.76821
475.45295
464.10875
452.78542
442.55876
433.75577
426.42449
420.54349
416.11001
413.15556
411.68887
411.64016
412.83992
415.118
418.55321
424.16388
435.56277
300.51254
301.46585
302.74722
304.28732
306.03471
307.94799
309.98867
312.11618
314.28065
316.41209
318.40865
320.11002
321.26525
321.46779
320.92746
320.60777
320.99247
322.00003
323.56933
325.68753
328.3715
331.70581
335.80476
340.71299
346.38389
352.74426
359.84051
367.45339
375.39247
385.27362
300.01137
300.0429
300.09996
300.18656
300.30543
300.45824
300.64556
300.86655
301.11844
301.39513
301.68403
301.96187
302.19028
302.40039
303.57664
307.21038
311.92235
316.19947
320.41322
324.98822
330.20819
336.43141
343.78779
351.94308
360.35702
368.48484
376.49328
384.07753
391.42281
399.85002
300.00027
300.00131
300.00372
300.00829
300.01591
300.02757
300.04433
300.06727
300.09748
300.13597
300.18366
300.2426
300.33757
300.85311
305.54458
318.37413
329.04522
333.08608
339.71938
349.45225
359.27256
367.70715
374.70594
380.57812
385.62847
389.96216
393.76452
397.45107
403.57824
412.75924
323.81615
345.61841
365.0983
382.81987
399.22057
414.53177
428.82228
442.03421
453.98223
464.35578
472.71368
478.53371
481.16937
474.39525
464.9087
454.14598
444.08678
436.14502
430.6516
427.19874
425.17524
424.13964
423.86067
424.25028
425.28225
426.9887
429.50934
433.2905
439.45824
448.97414
300.51251
301.46273
302.73843
304.27118
306.00904
307.90844
309.92499
312.0072
314.09276
316.10083
317.92281
319.42186
320.43631
320.72258
320.43004
320.15822
320.62185
322.09719
324.34257
326.99202
329.82944
332.83947
336.07479
339.61247
343.52901
347.88519
352.70871
357.93825
363.60589
372.66759
300.01137
300.04276
300.09952
300.18572
300.30419
300.4567
300.64369
300.86395
301.11432
301.38826
301.67471
301.977
302.2939
302.63257
303.4812
305.71417
310.14883
316.64825
323.98295
331.02062
337.23655
343.26736
349.23317
355.10908
360.78906
366.59064
372.77464
379.3839
386.52316
394.38352
300.00027
300.0013
300.0037
300.00825
300.01587
300.02758
300.04448
300.06775
300.0986
300.13837
300.18915
300.26005
300.40615
301.04516
303.70183
310.42149
320.64037
333.21255
346.11124
358.1767
368.58669
376.75514
383.25967
388.64731
393.26474
397.03317
400.16395
402.93293
405.6921
408.71763
323.82036
345.85798
365.79958
384.20794
401.55452
418.12658
434.04464
449.20661
463.27597
476.21967
487.92382
498.17734
506.52306
507.25225
505.63872
501.6539
495.88409
489.30309
482.84001
477.12347
472.46098
468.94333
466.54597
465.19944
464.82994
465.39804
466.9486
469.70067
474.21387
481.24098
300.51317
301.48137
302.80716
304.43265
306.31702
308.42906
310.73987
313.3534
316.96423
321.80918
328.68089
338.1583
350.48187
364.02099
377.34793
389.14527
398.79082
406.15069
411.28596
414.38197
415.84125
416.24986
416.2011
416.19073
416.61056
417.81741
420.25312
424.63982
432.3536
444.90942
300.01141
300.04365
300.10351
300.19686
300.32874
300.50349
300.72458
300.99778
301.34446
301.78914
302.4007
304.26442
309.38141
318.50697
330.77746
344.83519
359.08468
372.20123
383.48745
392.56852
399.39046
404.20968
407.47744
409.69966
411.34872
412.84636
414.60269
417.13508
421.37688
428.79503
300.00028
300.00134
300.00391
300.00895
300.01769
300.0316
300.05245
300.08242
300.12468
300.18412
300.27237
300.46192
301.07686
304.59343
313.84368
326.58944
339.92354
352.82061
364.74521
375.26152
384.07033
391.10499
396.53034
400.64794
403.79872
406.30964
408.49583
410.71634
413.5508
417.98181
)
;

boundaryField
{
    maxY
    {
        type            zeroGradient;
    }
    minX
    {
        type            fixedValue;
        value           uniform 300;
    }
    maxX
    {
        type            inletOutlet;
        inletValue      uniform 300;
        value           nonuniform List<scalar> 
40
(
483.61007
448.46903
432.12928
420.87368
449.85895
376.71359
399.92587
412.48717
435.31159
391.85978
410.27251
426.55339
501.35518
423.60908
427.51198
442.99948
542.51697
501.77948
470.67571
460.97358
533.07204
460.04432
435.83034
439.23282
490.64016
413.35155
413.69927
428.62381
435.59138
385.19048
399.66723
412.29142
449.00493
372.6613
394.36413
408.7163
481.26391
444.94519
428.80236
417.97361
)
;
    }
    minZ
    {
        type            zeroGradient;
    }
    maxZ
    {
        type            zeroGradient;
    }
    topAir_to_rightSolid
    {
        type            compressible::turbulentTemperatureCoupledBaffleMixed;
        refValue        nonuniform List<scalar> 
130
(
751.13444
759.18036
767.55767
775.83704
783.69937
790.92698
797.38774
803.00679
807.72948
811.51841
814.36038
816.25471
817.2019
745.29728
754.66495
764.20486
773.4142
781.97803
789.71812
796.5416
802.40832
807.30806
811.21918
814.14346
816.08793
817.05901
733.53152
745.94569
757.98557
769.07499
778.98877
787.67462
795.14576
801.44972
806.63724
810.75609
813.81682
815.84388
816.85542
715.9013
734.10913
750.19715
763.96356
775.62329
785.4446
793.66648
800.46661
805.98296
810.32584
813.53854
815.65488
816.70752
695.09771
722.82332
743.68618
760.02212
773.14608
783.84697
792.62324
799.80003
805.55688
810.04063
813.34298
815.51538
816.59448
694.75315
722.4764
743.36064
759.73329
772.89486
783.63984
792.45228
799.65692
805.43669
809.93698
813.2548
815.43834
816.52378
714.92941
733.15383
749.2861
763.14231
774.90155
784.83497
793.14762
800.04643
805.64708
810.033
813.28316
815.43084
816.50032
732.03329
744.48872
756.62945
767.84601
777.90127
786.7229
794.32139
800.74714
806.04792
810.25869
813.40393
815.489
816.52958
743.51843
752.90371
762.51717
771.86283
780.59907
788.50265
795.47584
801.48112
806.50921
810.5621
813.59904
815.61917
816.62947
749.25301
757.30922
765.74335
774.13372
782.15412
789.55178
796.17699
801.94468
806.8173
810.77725
813.7452
815.72324
816.71187
)
;
        refGradient     uniform 0;
        valueFraction   uniform 0.99967867;
        value           nonuniform List<scalar> 
130
(
751.05053
759.09185
767.46471
775.73999
783.59873
790.8233
797.28157
802.89871
807.62006
811.40827
814.25023
816.14545
817.09471
745.19806
754.56103
764.09687
773.30268
781.8635
789.60103
796.4224
802.28749
807.18612
811.09673
814.02123
815.967
816.94102
733.43911
745.84656
757.88021
768.96409
778.87306
787.55489
795.02286
801.32452
806.51058
810.6288
813.68971
815.71809
816.73282
715.83133
734.03393
750.11716
763.87914
775.53467
785.35192
793.56986
800.36628
805.87949
810.22035
813.43279
815.55052
816.60619
695.03511
722.75321
743.61084
759.94301
773.06411
783.76272
792.53705
799.71209
805.46739
809.94995
813.25179
815.42485
816.50641
694.68955
722.40526
743.28419
759.6529
772.81139
783.5538
792.364
799.56664
805.34465
809.84362
813.16085
815.34499
816.4327
714.85769
733.07633
749.20315
763.0542
774.80856
784.73747
793.04605
799.94131
805.53901
809.92299
813.173
815.32302
816.39561
731.94028
744.38887
756.52334
767.7344
777.78501
786.60285
794.19843
800.62209
805.92156
810.13171
813.27705
815.36326
816.40718
743.41967
752.80017
762.40943
771.75144
780.48453
788.38549
795.35656
801.36024
806.38726
810.43966
813.47685
815.49831
816.51134
749.16948
757.22103
765.65061
774.03679
782.05348
789.448
796.07064
801.83636
806.7076
810.66677
813.63465
815.61351
816.60408
)
;
        Tnbr            T;
        thicknessLayers List<scalar> 0();
        kappaLayers     List<scalar> 0();
        kappaMethod     fluidThermo;
        kappa           none;
        alphaAni        none;
        alpha           none;
        field           T;
    }
    topAir_to_heater
    {
        type            compressible::turbulentTemperatureCoupledBaffleMixed;
        refValue        nonuniform List<scalar> 
40
(
731.77534
733.91493
738.064
743.93296
722.48216
724.97086
729.83385
736.7816
702.81246
706.00781
712.41155
721.82348
670.7375
674.7272
683.29033
697.08281
623.90861
627.5261
636.99123
656.07275
623.67105
627.27894
636.72573
655.77966
669.89863
673.83653
682.35261
696.12542
701.45491
704.58225
710.93718
720.32775
720.77723
723.24546
728.08623
735.01481
729.9867
732.10426
736.21736
742.06236
)
;
        refGradient     uniform 0;
        valueFraction   uniform 0.99967867;
        value           nonuniform List<scalar> 
40
(
731.70321
733.84163
737.98814
743.85342
722.40248
724.88733
729.74531
736.68762
702.74241
705.93394
712.33232
721.73791
670.68218
674.66972
683.22981
697.01822
623.86735
627.48292
636.94528
656.02151
623.62991
627.23539
636.67891
655.72739
669.84356
673.7789
682.29141
696.0596
701.38529
704.50864
710.85788
720.24179
720.69806
723.16245
727.99821
734.92134
729.91513
732.03149
736.14199
741.98326
)
;
        Tnbr            T;
        thicknessLayers List<scalar> 0();
        kappaLayers     List<scalar> 0();
        kappaMethod     fluidThermo;
        kappa           none;
        alphaAni        none;
        alpha           none;
        field           T;
    }
    topAir_to_leftSolid
    {
        type            compressible::turbulentTemperatureCoupledBaffleMixed;
        refValue        nonuniform List<scalar> 
130
(
885.28326
885.24945
885.17628
885.05319
884.8991
884.71327
884.50497
884.27367
884.04735
883.82844
883.62985
883.46759
883.38304
885.31414
885.28171
885.21566
885.10516
884.95274
884.75731
884.52718
884.28457
884.04587
883.81307
883.59543
883.41105
883.31507
885.33049
885.2974
885.22272
885.10956
884.95149
884.74793
884.50508
884.24076
883.97427
883.71433
883.47026
883.25874
883.12158
885.38605
885.3247
885.21106
885.06929
884.8956
884.68332
884.43065
884.13422
883.83552
883.54394
883.27091
883.03567
882.85981
885.4155
885.3441
885.20495
885.02527
884.82477
884.5949
884.3293
884.02729
883.69336
883.36375
883.05487
882.79682
882.63038
885.41399
885.34817
885.21256
885.00742
884.76987
884.51346
884.2297
883.91925
883.58179
883.2193
882.87434
882.58925
882.42299
885.42444
885.36392
885.23979
885.04845
884.78238
884.5024
884.20581
883.88414
883.53383
883.1593
882.8013
882.52467
882.36334
885.4408
885.38177
885.2642
885.08836
884.85589
884.57402
884.2602
883.93913
883.59548
883.22554
882.88628
882.61958
882.46282
885.43597
885.37623
885.26281
885.09603
884.87626
884.60521
884.2872
883.95493
883.61842
883.26745
882.92461
882.65241
882.4776
885.39436
885.34165
885.23699
885.07884
884.86786
884.60485
884.29212
883.948
883.61018
883.2665
882.93306
882.64263
882.44323
)
;
        refGradient     uniform 0;
        valueFraction   uniform 0.99967867;
        value           nonuniform List<scalar> 
130
(
885.10285
885.07613
885.00938
884.89225
884.74378
884.56333
884.36022
884.13385
883.91212
883.69743
883.50266
883.34375
883.26192
885.13371
885.1083
885.04853
884.94376
884.79665
884.60621
884.38074
884.14245
883.90767
883.67828
883.4634
883.28096
883.18586
885.15006
885.124
885.05562
884.94821
884.79549
884.59695
884.35883
884.09896
883.83661
883.58043
883.33966
883.1308
882.99534
885.2056
885.15129
885.04398
884.90799
884.73969
884.5325
884.28466
883.99286
883.69854
883.41114
883.14199
882.91022
882.73708
885.23504
885.17069
885.03787
884.86399
884.6689
884.44413
884.18338
883.88601
883.5565
883.23107
882.92605
882.67134
882.50733
885.23353
885.17475
885.04549
884.84614
884.61401
884.36272
884.08381
883.778
883.44497
883.08669
882.74564
882.46401
882.3003
885.24398
885.1905
885.0727
884.88716
884.6265
884.35163
884.05989
883.74285
883.39695
883.02661
882.67253
882.39941
882.24085
885.26033
885.20835
885.09709
884.92702
884.69993
884.42311
884.11404
883.79744
883.45795
883.09181
882.75587
882.49186
882.33682
885.2555
885.20279
885.09566
884.93464
884.7202
884.45416
884.14085
883.81293
883.48036
883.13285
882.7928
882.52255
882.34865
885.21391
885.1683
885.07008
884.91789
884.71256
884.45496
884.14744
883.80831
883.47511
883.1357
882.80614
882.51909
882.32244
)
;
        Tnbr            T;
        thicknessLayers List<scalar> 0();
        kappaLayers     List<scalar> 0();
        kappaMethod     fluidThermo;
        kappa           none;
        alphaAni        none;
        alpha           none;
        field           T;
    }
}


// ************************************************************************* //
