/*--------------------------------*- C++ -*----------------------------------*\
| =========                 |                                                 |
| \\      /  F ield         | OpenFOAM: The Open Source CFD Toolbox           |
|  \\    /   O peration     | Version:  v2012                                 |
|   \\  /    A nd           | Website:  www.openfoam.com                      |
|    \\/     M anipulation  |                                                 |
\*---------------------------------------------------------------------------*/
FoamFile
{
    version     2.0;
    format      ascii;
    class       volVectorField;
    location    "410/topAir";
    object      U;
}
// * * * * * * * * * * * * * * * * * * * * * * * * * * * * * * * * * * * * * //

dimensions      [0 1 -1 0 0 0 0];


internalField   nonuniform List<vector> 
1200
(
(0.10429429 -0.0023837656 0.000872862)
(0.1174484 -0.0024890909 0.0013054538)
(0.1287557 -0.0022976906 0.0013821845)
(0.13757866 -0.0017730901 0.0012454152)
(0.14528389 -0.00097813135 0.00091004415)
(0.15248382 -7.9298576e-05 0.00033761388)
(0.15941765 0.00083007478 -0.00049682205)
(0.16634883 0.0016751552 -0.0017319143)
(0.17344909 0.0025404027 -0.0036219807)
(0.18100402 0.0035965452 -0.0064599981)
(0.18919551 0.0051473094 -0.01062478)
(0.19776596 0.0075475599 -0.016515642)
(0.20540231 0.011197445 -0.024406007)
(0.21068113 0.015636878 -0.034205483)
(0.2135322 0.020715738 -0.045249424)
(0.21441275 0.025722658 -0.056414589)
(0.21352369 0.030044304 -0.066503757)
(0.21101948 0.033392398 -0.0747124)
(0.20725405 0.035674096 -0.080761715)
(0.20285294 0.036872233 -0.084768234)
(0.1985801 0.037083691 -0.087048867)
(0.19509122 0.036523353 -0.087963568)
(0.19277924 0.035419354 -0.087821917)
(0.1917716 0.033970635 -0.086842505)
(0.19195546 0.032372048 -0.085130877)
(0.19290538 0.03088915 -0.082637614)
(0.19364386 0.029959732 -0.079085865)
(0.19219199 0.030440101 -0.073883712)
(0.18507924 0.034355954 -0.066007767)
(0.14399638 0.047850946 -0.053348519)
(0.098705408 -0.0037741288 0.00084729883)
(0.09847928 -0.0045995006 0.0012755895)
(0.098857365 -0.0046713742 0.0014522789)
(0.099669287 -0.004229948 0.0015309927)
(0.10100763 -0.0034637079 0.001540119)
(0.102903 -0.0026128879 0.0014664451)
(0.10533199 -0.0018289286 0.0012881643)
(0.10840219 -0.0012101701 0.0009535062)
(0.11259866 -0.00044539679 0.00034463084)
(0.11838682 0.00081410337 -0.0006956143)
(0.126625 0.0033290893 -0.0024560361)
(0.1376755 0.0080794954 -0.0052988653)
(0.15137533 0.015920376 -0.0097163953)
(0.16616723 0.026033886 -0.01589611)
(0.18012506 0.037826941 -0.023492696)
(0.19156827 0.049953315 -0.031583926)
(0.19937738 0.061306339 -0.039159112)
(0.2031693 0.071125883 -0.045628838)
(0.20336049 0.078789779 -0.050816869)
(0.20104858 0.083840665 -0.054750961)
(0.19762212 0.086291759 -0.057508404)
(0.19420817 0.086629851 -0.05913616)
(0.19144526 0.085434816 -0.059711448)
(0.18960108 0.083197104 -0.059340279)
(0.18870039 0.080311084 -0.058085782)
(0.18850098 0.077265181 -0.055836568)
(0.18830467 0.07488917 -0.052174643)
(0.18672884 0.074813604 -0.046196689)
(0.1823734 0.08045531 -0.035863409)
(0.15390287 0.09653043 -0.015965127)
(0.098834695 -0.0028665339 0.00087390803)
(0.098028221 -0.0041544037 0.0013231815)
(0.096445837 -0.0045577018 0.0015206819)
(0.094442986 -0.0046438275 0.0016375596)
(0.09248301 -0.0046007571 0.0017265382)
(0.090747638 -0.0045120355 0.001799795)
(0.089228341 -0.0044738035 0.0018743269)
(0.087853162 -0.0045588193 0.0019874431)
(0.086653832 -0.0045878925 0.0022043645)
(0.085904954 -0.0044616092 0.0025633634)
(0.086094619 -0.0039476769 0.0030199751)
(0.089029185 -0.0017480571 0.003221143)
(0.097710086 0.0048625315 0.0025533543)
(0.11217551 0.017319695 0.00072533542)
(0.12991548 0.033947213 -0.002227277)
(0.14759313 0.052094264 -0.0054540252)
(0.16233413 0.068730014 -0.0081520181)
(0.1727753 0.082624863 -0.010058828)
(0.17888676 0.093322992 -0.011408278)
(0.18165828 0.10066515 -0.012647092)
(0.18250363 0.10471971 -0.014053048)
(0.18248391 0.10582897 -0.015503709)
(0.18206558 0.10455654 -0.016612165)
(0.18139095 0.10147514 -0.017080654)
(0.18051097 0.097075445 -0.016755229)
(0.17939648 0.091846553 -0.015516991)
(0.17779915 0.086591705 -0.013100863)
(0.17528663 0.083050849 -0.0089571647)
(0.17241425 0.085114703 -0.0020764314)
(0.15623677 0.099216226 0.010888977)
(0.096876916 -0.0015471226 0.00083990299)
(0.0947003 -0.0022820514 0.0012511349)
(0.091037751 -0.0025052934 0.0014100903)
(0.086545682 -0.0025361488 0.0014864414)
(0.082040221 -0.0024747945 0.0015363563)
(0.077766617 -0.0023510961 0.0015757343)
(0.073690379 -0.0022034345 0.0016274969)
(0.069717891 -0.0020716282 0.001734486)
(0.065726881 -0.0019845831 0.0019678432)
(0.061520301 -0.0020873032 0.0024334042)
(0.056721479 -0.0028187729 0.0033420808)
(0.050926033 -0.0042984159 0.0050913923)
(0.043601594 -0.0049748952 0.008288926)
(0.038692541 0.00049470742 0.012915727)
(0.043650129 0.014866217 0.018307407)
(0.057427124 0.03220287 0.023996563)
(0.073218198 0.047217876 0.029660385)
(0.087661529 0.05927627 0.035095398)
(0.099901004 0.068553038 0.039895771)
(0.11020922 0.075131279 0.043435683)
(0.11912298 0.078990289 0.045633933)
(0.12693376 0.080167582 0.046671034)
(0.1335911 0.079034569 0.046732125)
(0.13886168 0.076110376 0.046103026)
(0.14256692 0.071931922 0.045146259)
(0.14468873 0.066976472 0.044235332)
(0.14551257 0.061899532 0.043689247)
(0.14605768 0.058042464 0.043413689)
(0.15066716 0.058439373 0.042775085)
(0.17464628 0.069164841 0.042285518)
(0.10555098 -0.0023841862 0.00099449612)
(0.1195554 -0.0024970315 0.0013836274)
(0.13211498 -0.0023902855 0.0013758964)
(0.14228366 -0.0020436845 0.0011426535)
(0.15115027 -0.0015256806 0.00070479607)
(0.15927111 -0.0010105091 2.2606674e-05)
(0.16666709 -0.00063976809 -0.00095684828)
(0.17326115 -0.00047876406 -0.0023769148)
(0.17903477 -0.00059095555 -0.004480054)
(0.18397631 -0.0010421611 -0.0075358542)
(0.18802791 -0.0019486333 -0.011871243)
(0.19109749 -0.00343587 -0.017766437)
(0.19266716 -0.0056142293 -0.025268207)
(0.19248102 -0.009085868 -0.033864213)
(0.19200097 -0.013252887 -0.042505407)
(0.1925249 -0.017372551 -0.050020704)
(0.19402258 -0.020450758 -0.055895319)
(0.19557579 -0.021979746 -0.060319979)
(0.19630331 -0.022250829 -0.063599837)
(0.19589993 -0.022002565 -0.065905215)
(0.19466208 -0.021809129 -0.06735172)
(0.1931654 -0.021805373 -0.068037831)
(0.19193747 -0.021956128 -0.068023969)
(0.19134849 -0.022210903 -0.067321302)
(0.19164583 -0.022510679 -0.065885974)
(0.19298375 -0.022672334 -0.06357727)
(0.19534849 -0.022228317 -0.060065978)
(0.1984819 -0.020031075 -0.054778273)
(0.20186455 -0.012533611 -0.046966113)
(0.19585816 0.010741007 -0.036537803)
(0.09999217 -0.003784361 0.0010475642)
(0.10070184 -0.0046421781 0.0015833111)
(0.10246289 -0.0048455806 0.0017717484)
(0.1048363 -0.004651541 0.0018092094)
(0.10765147 -0.004251534 0.0017390319)
(0.11085178 -0.0038883737 0.0015406804)
(0.11434777 -0.0037507955 0.0011741402)
(0.11805621 -0.0039444925 0.00057123256)
(0.12197507 -0.0045820289 -0.000381008)
(0.12606943 -0.005824021 -0.0018302802)
(0.13034224 -0.0078901495 -0.0039427914)
(0.13486707 -0.01101416 -0.0069042251)
(0.13977987 -0.015442578 -0.010835538)
(0.14507237 -0.021805578 -0.015352632)
(0.15081485 -0.029050293 -0.019491787)
(0.15690069 -0.035292944 -0.022238592)
(0.16277246 -0.038378421 -0.023543462)
(0.16740603 -0.037653555 -0.024369454)
(0.17004228 -0.034204828 -0.025507126)
(0.17067576 -0.029970959 -0.027164121)
(0.17003623 -0.026428414 -0.029105786)
(0.16893516 -0.02393776 -0.030985313)
(0.16776634 -0.022371928 -0.032382087)
(0.16669611 -0.021571516 -0.032826504)
(0.16601915 -0.021551506 -0.031832257)
(0.16637048 -0.022361642 -0.028937942)
(0.1688014 -0.023807775 -0.023631035)
(0.17556149 -0.025211808 -0.015133066)
(0.19279212 -0.024810793 -0.0021239651)
(0.25306988 -0.015277231 0.013003333)
(0.10013144 -0.0028938569 0.0010676989)
(0.10027503 -0.0042058998 0.0016296471)
(0.10013609 -0.0046505192 0.0018637003)
(0.099837048 -0.0048110822 0.001974287)
(0.099588644 -0.0048803191 0.0020221395)
(0.099506247 -0.0049425588 0.0020086349)
(0.09960337 -0.0050801485 0.0019317103)
(0.099857146 -0.0053835328 0.0018025683)
(0.1002536 -0.0059695584 0.0016451973)
(0.10082399 -0.0070652825 0.0014470231)
(0.10166147 -0.0089617142 0.0010834853)
(0.10292863 -0.012065123 0.00033691765)
(0.10484996 -0.016965811 -0.00079800144)
(0.10750068 -0.024342489 -0.0017502805)
(0.11098745 -0.033056138 -0.0012645064)
(0.11510041 -0.040392428 0.0027284559)
(0.12055955 -0.042419039 0.010582911)
(0.12650382 -0.039076223 0.019156032)
(0.13150596 -0.032774986 0.026372628)
(0.13467878 -0.026649926 0.031123947)
(0.13602776 -0.021931864 0.034084106)
(0.13640537 -0.017899832 0.037074881)
(0.13737427 -0.015209864 0.039857546)
(0.13892767 -0.014263036 0.042191431)
(0.14014838 -0.015530541 0.0434864)
(0.14081731 -0.018548216 0.044242382)
(0.14113448 -0.022359537 0.045111476)
(0.14249646 -0.027055369 0.046347475)
(0.1499292 -0.032776764 0.049675148)
(0.1831793 -0.039201031 0.050776986)
(0.098117311 -0.0015736168 0.0010430472)
(0.096832763 -0.0023375537 0.0015864229)
(0.094542652 -0.0025929523 0.001806721)
(0.091674492 -0.0026681714 0.0019004088)
(0.088798117 -0.0026668765 0.0019276481)
(0.086104241 -0.0026214732 0.0018935671)
(0.083592493 -0.0025725524 0.0018029017)
(0.081231418 -0.0025720654 0.0016729572)
(0.07897755 -0.0026908533 0.0015377937)
(0.076794678 -0.0030553264 0.0014535406)
(0.074613468 -0.0038922633 0.0014979234)
(0.072251271 -0.0056075207 0.0018047306)
(0.06937774 -0.0087701785 0.0024459833)
(0.06568096 -0.013652072 0.0034987032)
(0.06137424 -0.018536533 0.0067235882)
(0.057910819 -0.01870137 0.017527268)
(0.058878463 -0.0110477 0.040524195)
(0.061524955 0.0013224855 0.063650141)
(0.064667854 0.014281559 0.08208985)
(0.06861287 0.025024854 0.095362897)
(0.07441572 0.032264767 0.10372695)
(0.081685341 0.035250587 0.10741479)
(0.08841408 0.035144429 0.1083665)
(0.094107593 0.032640605 0.10722356)
(0.098473696 0.028633851 0.10426826)
(0.10176017 0.023473581 0.099135152)
(0.10418403 0.017348146 0.091816182)
(0.10594777 0.010628514 0.083016757)
(0.11370392 0.0038952778 0.074033097)
(0.15079292 -0.00087945759 0.052120001)
(0.10542702 -0.0024044049 0.00033151457)
(0.11923263 -0.002516038 0.00053795806)
(0.13169903 -0.0023847537 0.00060981027)
(0.14188243 -0.0019923651 0.00058852285)
(0.15081006 -0.0014179821 0.00049913675)
(0.15895179 -0.00084534292 0.00034363727)
(0.16633301 -0.0003816776 9.0226524e-05)
(0.17293908 -5.9892109e-05 -0.00027873469)
(0.17878338 9.89121e-05 -0.0007778871)
(0.18385379 5.5185757e-05 -0.0014311017)
(0.18809864 -0.00025790699 -0.0022593978)
(0.19141996 -0.00095174693 -0.0032480428)
(0.19321927 -0.0022113101 -0.0042805173)
(0.19313888 -0.0048506537 -0.0051128453)
(0.19266364 -0.0082597314 -0.00530962)
(0.19271366 -0.011817879 -0.004890058)
(0.19262657 -0.01533224 -0.0046322717)
(0.19162929 -0.018897424 -0.0053130598)
(0.18969017 -0.022418086 -0.0070699855)
(0.18702944 -0.025862038 -0.0095212726)
(0.18393142 -0.029296558 -0.012194921)
(0.1807881 -0.03268375 -0.014727681)
(0.17797188 -0.035808513 -0.016877102)
(0.17570221 -0.038415241 -0.018471783)
(0.17408827 -0.040386647 -0.019319121)
(0.17328211 -0.041846168 -0.019171546)
(0.17380009 -0.042974537 -0.017987864)
(0.17693604 -0.043278995 -0.016958723)
(0.18436055 -0.038646205 -0.019521647)
(0.19319348 -0.020093331 -0.026440846)
(0.099871369 -0.003797137 0.00032699423)
(0.10035152 -0.0046437282 0.00055022783)
(0.10198508 -0.0048074322 0.00063929424)
(0.104344 -0.0045475934 0.0006300602)
(0.10717685 -0.0040656973 0.00053637706)
(0.11036735 -0.0036094417 0.00034160956)
(0.11380157 -0.0033177045 1.2646962e-05)
(0.11738666 -0.0032452044 -0.00049188143)
(0.1210652 -0.0034606853 -0.0012160629)
(0.12481426 -0.0040681045 -0.0022487779)
(0.12865558 -0.0052584517 -0.0036704299)
(0.13268769 -0.0073546716 -0.0055279618)
(0.13714579 -0.01087133 -0.0077353333)
(0.1420954 -0.016752756 -0.0099161392)
(0.14729188 -0.023304111 -0.011640199)
(0.15192812 -0.028188081 -0.013514361)
(0.15460361 -0.031369682 -0.016844659)
(0.15499727 -0.03388372 -0.021745803)
(0.15380368 -0.035712381 -0.027464984)
(0.15145362 -0.037064008 -0.033152461)
(0.14814482 -0.038478043 -0.038078229)
(0.14418653 -0.040263909 -0.041792342)
(0.13989064 -0.042277212 -0.044076439)
(0.13539824 -0.044243107 -0.04477844)
(0.13083444 -0.046140134 -0.043526749)
(0.12637154 -0.048527091 -0.039790346)
(0.12358918 -0.052137322 -0.033590773)
(0.12739278 -0.056507476 -0.028433713)
(0.14540923 -0.053874563 -0.036395811)
(0.19814514 -0.033489556 -0.058720179)
(0.10001483 -0.0028893492 0.00033168204)
(0.099939677 -0.0041956891 0.00056144931)
(0.099680599 -0.0046212055 0.0006649188)
(0.099377387 -0.0047509738 0.00067478949)
(0.099171655 -0.0047773433 0.00060254497)
(0.099132278 -0.0047772526 0.00043066106)
(0.099253836 -0.0048149465 0.00012706637)
(0.099493088 -0.004959389 -0.00035542285)
(0.099824365 -0.0053122586 -0.0010775409)
(0.10022995 -0.0060253814 -0.002119947)
(0.10068046 -0.0073951755 -0.0036051028)
(0.10118921 -0.0099630015 -0.0056817501)
(0.10191168 -0.014654954 -0.0084014929)
(0.10302107 -0.022337718 -0.011445577)
(0.10392189 -0.030266636 -0.01410808)
(0.10381389 -0.03369759 -0.016650758)
(0.10098462 -0.03364208 -0.02035244)
(0.096946738 -0.033407709 -0.023243445)
(0.093143953 -0.032908791 -0.026081872)
(0.08897253 -0.032871681 -0.029957191)
(0.083446761 -0.033987801 -0.033625803)
(0.076757711 -0.036199993 -0.035568768)
(0.069738589 -0.03892911 -0.035340534)
(0.063147399 -0.041654069 -0.032681737)
(0.058036564 -0.044416855 -0.026474772)
(0.054510518 -0.048389592 -0.016304748)
(0.054837194 -0.054415242 -0.003898861)
(0.062983517 -0.06326058 0.0020112474)
(0.076806053 -0.0664856 -0.024239035)
(0.11492413 -0.055214593 -0.073057743)
(0.098003026 -0.0015689235 0.00032320226)
(0.096503298 -0.002328065 0.00054244405)
(0.094095076 -0.0025756259 0.00063697483)
(0.091222045 -0.0026409264 0.00063900794)
(0.088386827 -0.0026269606 0.00056000421)
(0.085733976 -0.0025636588 0.00038199424)
(0.083242015 -0.0024869954 7.223386e-05)
(0.080858328 -0.002442905 -0.00041888583)
(0.078540864 -0.00248881 -0.0011599787)
(0.076200466 -0.0027215438 -0.0022452457)
(0.07363638 -0.0033499916 -0.0038685961)
(0.070490419 -0.0048407017 -0.0063917001)
(0.066079885 -0.0082864918 -0.01053958)
(0.059132726 -0.01530373 -0.017560025)
(0.047610061 -0.021937552 -0.027580587)
(0.034342546 -0.019644587 -0.034066969)
(0.024221714 -0.014669294 -0.028132457)
(0.029214837 -0.011640176 0.0041984041)
(0.029455219 -0.0021615641 0.040673877)
(0.031245171 0.0080080798 0.065508896)
(0.035432509 0.015387628 0.079875974)
(0.040611722 0.018965574 0.086912365)
(0.044970463 0.01929164 0.089423625)
(0.047293621 0.016775005 0.088466196)
(0.046867029 0.011575635 0.084229136)
(0.04422472 0.0034996722 0.076569131)
(0.040534642 -0.0074156054 0.065601137)
(0.039492922 -0.021751869 0.047531673)
(0.026595785 -0.026893682 -0.013827738)
(0.03987034 -0.0051421057 -0.10538779)
(0.10539784 -0.002405154 0.00015916485)
(0.11912422 -0.0025114333 0.0002812432)
(0.1315024 -0.0023656226 0.0003418034)
(0.14161623 -0.0019435482 0.00034158688)
(0.15050095 -0.0013144708 0.00028625627)
(0.15863919 -0.00064988434 0.00017664096)
(0.16608184 -4.3329862e-05 1.3781156e-05)
(0.17283655 0.00048515102 -0.00020385631)
(0.17896267 0.00094334657 -0.00048407981)
(0.18454254 0.0013329345 -0.00082522462)
(0.18968179 0.0016328771 -0.0011957819)
(0.19454036 0.0017727629 -0.0014850959)
(0.19885873 0.0016127478 -0.001390429)
(0.20272821 0.00062519335 -0.00038789844)
(0.20763436 0.00041068089 0.0021116973)
(0.21341186 0.0013790821 0.0058635795)
(0.21854666 0.0026156104 0.010210696)
(0.22234128 0.0034115101 0.014907532)
(0.22499265 0.0035452211 0.019995103)
(0.22678363 0.0029766056 0.025645075)
(0.22778351 0.0017500192 0.032011821)
(0.22800004 -6.8713805e-05 0.039037002)
(0.2274492 -0.002410486 0.046347115)
(0.22625793 -0.0051381225 0.053279138)
(0.22477368 -0.0078623317 0.05906721)
(0.22340185 -0.0097140608 0.063008896)
(0.2220267 -0.0094980827 0.064409935)
(0.21921055 -0.0062883905 0.062128261)
(0.2098403 0.0031231174 0.051909051)
(0.14722791 0.032480114 0.028654096)
(0.099841357 -0.0037979987 0.00015794194)
(0.1002216 -0.0046376533 0.00028692937)
(0.10172395 -0.0047802656 0.00035041084)
(0.10395613 -0.0044769281 0.00034349063)
(0.10666594 -0.0039161285 0.00026825755)
(0.10972517 -0.0033284822 0.0001187271)
(0.11300995 -0.0028314522 -0.00012121127)
(0.11642752 -0.0024601296 -0.00047805657)
(0.1199359 -0.0022364414 -0.00098848366)
(0.12355156 -0.0022326088 -0.0016867745)
(0.127394 -0.002633621 -0.0025850706)
(0.13178297 -0.0038335257 -0.0036007381)
(0.13735106 -0.0064578692 -0.004400081)
(0.1445787 -0.010670664 -0.0042409407)
(0.15314189 -0.011909946 -0.0027904224)
(0.16121656 -0.0093526142 -0.0013775341)
(0.1669522 -0.0063335317 -0.0011312942)
(0.17041768 -0.0048198114 -0.0022328721)
(0.1723339 -0.0050059507 -0.0044085258)
(0.17316758 -0.0062075629 -0.0070840353)
(0.17316435 -0.0078695616 -0.0094985186)
(0.17237627 -0.0097737117 -0.010997987)
(0.17071446 -0.012014006 -0.011287182)
(0.16813834 -0.014795629 -0.010474286)
(0.16506207 -0.017960703 -0.0089485567)
(0.16265758 -0.020206222 -0.0079960938)
(0.16352542 -0.018123156 -0.010294499)
(0.16889826 -0.0083501652 -0.018087388)
(0.17991811 0.013274413 -0.031899996)
(0.17958251 0.052670418 -0.050553813)
(0.099985916 -0.0028866191 0.00015879192)
(0.099813665 -0.0041897837 0.00028831443)
(0.099420863 -0.0046061838 0.00035465944)
(0.09897912 -0.004717618 0.00035009879)
(0.09862793 -0.004712465 0.00027285204)
(0.098420862 -0.0046608246 0.00011236194)
(0.098332938 -0.0046148618 -0.0001549001)
(0.09831251 -0.0046276593 -0.000566681)
(0.098307638 -0.0047816209 -0.0011746373)
(0.098269651 -0.005242939 -0.0020597728)
(0.098193637 -0.0063795795 -0.0033093242)
(0.098253292 -0.008984839 -0.004958027)
(0.09908053 -0.014496974 -0.0067628265)
(0.10100602 -0.022796106 -0.0077121864)
(0.10378768 -0.025223481 -0.0064163581)
(0.10703248 -0.020417738 -0.0039884911)
(0.10480255 -0.015312828 -0.0035372898)
(0.099028307 -0.012205838 -0.0057216124)
(0.091889393 -0.012315408 -0.0096255587)
(0.085145496 -0.014762245 -0.013843767)
(0.078511288 -0.018287544 -0.016833801)
(0.071385733 -0.021945916 -0.017323146)
(0.064074905 -0.025156959 -0.015647657)
(0.056676107 -0.028097419 -0.012735162)
(0.049627739 -0.031522517 -0.009471693)
(0.04499918 -0.034984961 -0.010807287)
(0.049229417 -0.032229855 -0.024082839)
(0.065810574 -0.020517619 -0.042602585)
(0.089362211 0.0023679516 -0.064337989)
(0.097601323 0.037724525 -0.088841)
(0.09797468 -0.0015705864 0.00015443924)
(0.096380431 -0.0023318183 0.00027790189)
(0.093841299 -0.0025790542 0.00033796044)
(0.090830468 -0.0026403214 0.00032657315)
(0.087847007 -0.0026173087 0.00024108079)
(0.085016457 -0.0025380056 6.9611829e-05)
(0.08229194 -0.0024353346 -0.00021635573)
(0.079593395 -0.0023511427 -0.00066445117)
(0.076809865 -0.0023470093 -0.0013514844)
(0.073736093 -0.0025412273 -0.0024225016)
(0.069974965 -0.0032241582 -0.004117779)
(0.064712843 -0.0051824175 -0.0068904941)
(0.056492783 -0.010498552 -0.01168393)
(0.042294049 -0.020251539 -0.020121302)
(0.018081362 -0.01828626 -0.030975423)
(-0.0047667052 -0.0020566002 -0.029478272)
(-0.02213887 0.0028710701 -0.019831149)
(-0.030859167 0.0016812968 -0.0059761594)
(-0.024047434 -0.0010411865 0.016898841)
(-0.018792422 0.00048702975 0.036231156)
(-0.012120569 0.0022243319 0.048123836)
(-0.0066633363 0.0026252115 0.054358477)
(-0.0038233731 0.0015371271 0.057378381)
(-0.0047556613 -0.0017709544 0.057401009)
(-0.011199095 -0.0088324562 0.049771742)
(-0.024235153 -0.018019606 0.024354413)
(-0.040407155 -0.019023974 -0.020289326)
(-0.04337552 0.0010632163 -0.060589298)
(-0.027610115 0.024295881 -0.086341141)
(-0.0024192236 0.053769559 -0.11374257)
(0.10538026 -0.0024091453 1.0752486e-05)
(0.11906159 -0.0025186226 1.080288e-05)
(0.13138335 -0.0023749791 -8.7195777e-06)
(0.14144228 -0.0019534645 -4.9374143e-05)
(0.15027668 -0.0013224238 -0.00011043926)
(0.15836749 -0.00065259467 -0.00019284112)
(0.16575576 -4.2322429e-05 -0.00029968371)
(0.17243715 0.00048631597 -0.00043812423)
(0.17846348 0.00093388565 -0.00061947444)
(0.18391885 0.0012877032 -0.00085713048)
(0.18893705 0.0014952565 -0.0011624364)
(0.19379369 0.0014361276 -0.0015339859)
(0.19845466 0.00099262978 -0.0019327528)
(0.20336502 0.00011124512 -0.0022931544)
(0.20980541 0.00069612601 -0.0023842468)
(0.21686071 0.0020293994 -0.0022951729)
(0.22314011 0.0035033957 -0.0022709628)
(0.22859038 0.0052953913 -0.0023869762)
(0.23391656 0.0076011448 -0.0025676323)
(0.23956487 0.010540364 -0.0026808888)
(0.24553522 0.014138037 -0.0024367533)
(0.25140615 0.018292258 -0.0013822583)
(0.25647038 0.022791309 0.00094977724)
(0.259925 0.027339643 0.0047322513)
(0.26095818 0.031737443 0.0096328163)
(0.25846207 0.036084945 0.014821993)
(0.25042187 0.040916537 0.019160715)
(0.23342099 0.047181438 0.02127272)
(0.20401943 0.056965985 0.018653963)
(0.10158892 0.079176204 0.0089860593)
(0.099822055 -0.0038025961 7.8261244e-06)
(0.10014529 -0.0046457275 4.8193858e-06)
(0.10156983 -0.0047895832 -2.0181752e-05)
(0.10372098 -0.0044843358 -7.0040464e-05)
(0.10634969 -0.0039174453 -0.00014491627)
(0.10931911 -0.0033184785 -0.00024738957)
(0.11249376 -0.0028111855 -0.00038530609)
(0.1157658 -0.0024336527 -0.00057032611)
(0.11908507 -0.0022229874 -0.00082168759)
(0.12248083 -0.0022889088 -0.001160157)
(0.12614349 -0.0029042336 -0.0016089139)
(0.13061411 -0.0046234086 -0.0021743566)
(0.13692899 -0.0080147927 -0.0028064336)
(0.14561389 -0.010901933 -0.0032377354)
(0.15569342 -0.0080303273 -0.0029176785)
(0.16396749 -0.0037079495 -0.0027541859)
(0.17078481 -0.00012046255 -0.0031090555)
(0.17758941 0.0028756099 -0.0038883472)
(0.18451013 0.0059485021 -0.0049922064)
(0.19227327 0.0098528387 -0.0063767379)
(0.20114222 0.015333195 -0.0077367381)
(0.21093563 0.022810168 -0.0084097127)
(0.22110697 0.031987701 -0.0076966643)
(0.23085601 0.042326938 -0.0053501982)
(0.23908822 0.053591779 -0.0019162939)
(0.24392571 0.065981705 0.0015401294)
(0.24210102 0.079561445 0.0040570811)
(0.22884691 0.094423681 0.0047668314)
(0.2021396 0.1113313 0.0017727008)
(0.10609954 0.13733807 -0.008376948)
(0.099966384 -0.0028876639 7.0247491e-06)
(0.099736461 -0.0041926177 3.1033809e-06)
(0.099261467 -0.0046095889 -2.3096846e-05)
(0.098728168 -0.0047196943 -7.5557148e-05)
(0.098278408 -0.004711208 -0.00015604378)
(0.097953583 -0.0046528411 -0.00026901633)
(0.097710782 -0.0046000764 -0.0004259794)
(0.097470452 -0.0046122932 -0.00064374726)
(0.097145283 -0.0047891883 -0.00095176393)
(0.096653547 -0.0053512852 -0.0013929254)
(0.095993958 -0.0068133201 -0.0020327522)
(0.09557444 -0.010336643 -0.0029707613)
(0.096609544 -0.017849635 -0.0043722611)
(0.098541566 -0.024910346 -0.0062432542)
(0.10558782 -0.019293594 -0.00515163)
(0.1068516 -0.012750495 -0.004543493)
(0.10515859 -0.0069437006 -0.0051775813)
(0.10176296 -0.0016381148 -0.0067271937)
(0.099757269 0.0022291296 -0.0091738917)
(0.10010885 0.0042569737 -0.012366377)
(0.10284708 0.0054866263 -0.015023047)
(0.10968485 0.0077890317 -0.016270992)
(0.12212891 0.012936079 -0.015971039)
(0.13599264 0.021156108 -0.012771936)
(0.15138823 0.032962747 -0.0075195394)
(0.16600767 0.048071746 -0.0019910626)
(0.17437932 0.064672298 0.0017447016)
(0.17066368 0.083523092 0.0019211673)
(0.15504803 0.10697947 -0.0020595363)
(0.077629448 0.14176834 -0.011398382)
(0.097955198 -0.0015708011 6.3569504e-06)
(0.096303391 -0.0023323635 1.4111611e-06)
(0.093681144 -0.0025793871 -2.6150451e-05)
(0.090575183 -0.0026398527 -8.0695238e-05)
(0.087487202 -0.002615612 -0.00016467798)
(0.084526305 -0.0025336042 -0.00028329488)
(0.081616766 -0.0024286508 -0.00045102997)
(0.07863444 -0.0023472249 -0.00069057005)
(0.075391032 -0.0023619423 -0.0010405304)
(0.071540848 -0.0026320042 -0.0015713092)
(0.066386761 -0.0035823301 -0.0024177245)
(0.058436765 -0.0064830159 -0.0038877465)
(0.045369532 -0.014667982 -0.006907983)
(0.019081988 -0.023459832 -0.015176034)
(-0.025811042 0.00090312465 -0.022028479)
(-0.042059383 0.0051011012 -0.013846209)
(-0.059621402 0.0054056165 -0.0073648768)
(-0.068497122 0.0029397258 0.00011786595)
(-0.069969293 -0.0015160498 0.0090102299)
(-0.065603179 -0.005855103 0.018759998)
(-0.057075519 -0.009291812 0.02641336)
(-0.047674561 -0.011746201 0.032092137)
(-0.037543367 -0.012141705 0.036324635)
(-0.02338673 -0.0091760322 0.037486352)
(-0.0080641332 -0.0028791004 0.034392475)
(0.013650674 0.014538669 0.022713486)
(0.03107502 0.037006004 0.019262505)
(0.030592561 0.058023862 0.015183195)
(0.02975508 0.086289311 0.0049956132)
(0.013885719 0.12543382 -0.0086079002)
(0.1053796 -0.0024094513 -9.6180343e-05)
(0.11905827 -0.0025193458 -0.00017807363)
(0.13137491 -0.0023759436 -0.00023910181)
(0.14142639 -0.0019545598 -0.00028132814)
(0.15025058 -0.0013238184 -0.00030939466)
(0.15832648 -0.00065521674 -0.0003272698)
(0.16569626 -4.5926014e-05 -0.00033779082)
(0.1723564 0.00048222531 -0.00034064251)
(0.1783567 0.00093193203 -0.0003334969)
(0.18377709 0.0012992833 -0.00032124434)
(0.18873385 0.0015444962 -0.00032422505)
(0.19342777 0.0015635726 -0.00040433773)
(0.1976129 0.0011763223 -0.00074330541)
(0.20156251 -0.00013610682 -0.0016442225)
(0.20710577 9.4532069e-05 -0.003237001)
(0.21331647 0.0013195099 -0.0051035978)
(0.21861097 0.0025915905 -0.0069749123)
(0.2225361 0.0037566351 -0.0090991135)
(0.22565218 0.004905608 -0.011918009)
(0.22872118 0.005799598 -0.015778548)
(0.23241221 0.0062622052 -0.020800259)
(0.23706471 0.0065437335 -0.026843454)
(0.24232111 0.0071774447 -0.033560845)
(0.24718878 0.0084591184 -0.040470049)
(0.250542 0.010182182 -0.046954189)
(0.25126366 0.01229674 -0.052080498)
(0.24768002 0.015654292 -0.054302671)
(0.2367534 0.021948153 -0.051559568)
(0.21461213 0.034416433 -0.041583167)
(0.12492633 0.064158707 -0.022870097)
(0.099821107 -0.003803154 -9.7059494e-05)
(0.10014103 -0.0046469321 -0.00018445466)
(0.10155986 -0.0047912333 -0.00024939873)
(0.10370301 -0.0044862598 -0.00029061257)
(0.10632029 -0.0039196656 -0.00031033742)
(0.10927412 -0.0033217887 -0.00030988895)
(0.11242972 -0.0028143929 -0.00028721349)
(0.11567794 -0.0024335976 -0.00023736969)
(0.11896558 -0.0022092698 -0.00015592382)
(0.12230454 -0.0022338428 -4.4738769e-05)
(0.1258331 -0.0027464564 7.3941096e-05)
(0.12997356 -0.0042664698 0.00010130902)
(0.13567534 -0.007621903 -0.00023689002)
(0.14334112 -0.01250045 -0.0013756704)
(0.15291203 -0.010613868 -0.0031845577)
(0.16066409 -0.0063795591 -0.0041830743)
(0.16597641 -0.0029555102 -0.0042588697)
(0.16996866 -0.0011272189 -0.0040107918)
(0.1733888 -0.00082320681 -0.0039240162)
(0.17578674 -0.0016035198 -0.0041041131)
(0.17717605 -0.002842185 -0.0043697578)
(0.1783159 -0.0036759403 -0.0045251023)
(0.18055171 -0.0029106734 -0.0047114422)
(0.18530455 0.00014048304 -0.0054935207)
(0.19304045 0.00590176 -0.0074424102)
(0.20183735 0.014554479 -0.0099297121)
(0.20747287 0.025861105 -0.01039014)
(0.2067579 0.04085545 -0.0059521033)
(0.19952346 0.064067248 0.0058694092)
(0.15484084 0.10280378 0.024701277)
(0.099965423 -0.0028880905 -9.7170972e-05)
(0.099732082 -0.0041934137 -0.00018404581)
(0.099251064 -0.0046107333 -0.00024946452)
(0.098709268 -0.0047210519 -0.00029102492)
(0.09824727 -0.0047124694 -0.00030910416)
(0.097906292 -0.0046540644 -0.00030263814)
(0.097645737 -0.0045995024 -0.0002655728)
(0.097387919 -0.0046048377 -0.00018686633)
(0.097046073 -0.0047588497 -5.1296251e-05)
(0.096525443 -0.00526023 0.00016233496)
(0.095761477 -0.0065640394 0.00047305636)
(0.094948295 -0.009717441 0.000843068)
(0.095382305 -0.016870037 0.0010474373)
(0.095554746 -0.028518655 0.00073048341)
(0.10018078 -0.023384593 -0.0023985767)
(0.10022249 -0.016190361 -0.0034577041)
(0.096530908 -0.009702758 -0.0023801512)
(0.090606386 -0.0044367019 -0.00048033173)
(0.082338551 -0.0019261342 0.0016597229)
(0.071463822 -0.0035518642 0.0044460759)
(0.058412278 -0.0086402064 0.0082502976)
(0.044875464 -0.014913338 0.013001858)
(0.034116019 -0.019486197 0.018689026)
(0.034337478 -0.020522437 0.023933825)
(0.044117999 -0.017486613 0.028291604)
(0.064604332 -0.0088517342 0.030979487)
(0.09455137 0.0052851264 0.033394225)
(0.11228741 0.025416482 0.040663177)
(0.12375699 0.054384857 0.053552611)
(0.11322126 0.095020104 0.068558328)
(0.097954295 -0.0015710189 -9.4684067e-05)
(0.096299098 -0.0023327671 -0.00017810873)
(0.093670776 -0.0025799791 -0.00023974967)
(0.090556324 -0.0026405391 -0.00027691608)
(0.08745565 -0.0026161666 -0.00028925185)
(0.084478763 -0.0025341727 -0.00027482895)
(0.081555155 -0.0024283109 -0.0002240043)
(0.078569894 -0.0023429541 -0.00011838887)
(0.075349908 -0.0023423048 7.3598575e-05)
(0.071574334 -0.0025645137 0.000420433)
(0.066604185 -0.0033615404 0.00106388)
(0.059062077 -0.005746221 0.0023125541)
(0.046458214 -0.012797797 0.0049401539)
(0.02264221 -0.027932864 0.010375178)
(-0.034809337 -0.0023504525 0.015027976)
(-0.053956265 0.0047913057 0.013016757)
(-0.074077879 0.0061149626 0.014422041)
(-0.085320591 0.0043057024 0.01494339)
(-0.08836583 -7.9750769e-05 0.014661448)
(-0.082910825 -0.0055340027 0.013525289)
(-0.072119988 -0.01026805 0.01235815)
(-0.060971799 -0.013999642 0.01341033)
(-0.05087072 -0.01716338 0.016146275)
(-0.041944538 -0.019840496 0.019485324)
(-0.034618941 -0.020838353 0.023502221)
(-0.028545687 -0.016514101 0.031201348)
(-0.021511489 -0.0022419242 0.048090818)
(-0.0085693217 0.022573338 0.066338885)
(0.005647814 0.052675987 0.08663473)
(0.039717952 0.084978422 0.10045473)
(0.10539523 -0.0024062486 -0.00023507105)
(0.11911197 -0.0025138516 -0.0004297801)
(0.13147199 -0.0023692729 -0.00056166964)
(0.14155922 -0.0019484608 -0.00063466678)
(0.15040839 -0.0013211748 -0.00065779641)
(0.15850167 -0.00065860964 -0.00063533282)
(0.16588643 -5.610563e-05 -0.00056858605)
(0.17256698 0.00046741296 -0.00047321731)
(0.17859042 0.0009152379 -0.00035149559)
(0.18402042 0.0012878052 -0.0002108739)
(0.18894419 0.0015711816 -8.832933e-05)