/*--------------------------------*- C++ -*----------------------------------*\
| =========                 |                                                 |
| \\      /  F ield         | OpenFOAM: The Open Source CFD Toolbox           |
|  \\    /   O peration     | Version:  v2012                                 |
|   \\  /    A nd           | Website:  www.openfoam.com                      |
|    \\/     M anipulation  |                                                 |
\*---------------------------------------------------------------------------*/
FoamFile
{
    version     2.0;
    format      ascii;
    class       volScalarField;
    location    "750/heater";
    object      T;
}
// * * * * * * * * * * * * * * * * * * * * * * * * * * * * * * * * * * * * * //

dimensions      [0 0 0 1 0 0 0];


internalField   nonuniform List<scalar> 
80
(
730.24267
732.34132
736.41458
742.20763
720.7607
723.20547
728.02379
734.93694
700.99598
704.16574
710.54283
719.93885
669.07469
673.04878
681.58314
695.34516
345.20185
342.4368
342.42236
345.02145
421.20643
417.83701
417.97327
421.36499
486.24134
483.43624
484.0557
487.5913
541.71515
539.97784
541.78184
546.06459
587.61697
587.80397
592.32548
599.71813
622.60702
626.19915
635.59436
654.56615
345.05901
342.40099
342.40885
345.01629
421.1385
417.84139
417.98756
421.37873
486.31952
483.50256
484.10327
487.62457
541.79423
540.05619
541.8418
546.09646
587.67259
587.87837
592.3846
599.72888
622.7065
626.29101
635.66073
654.59235
669.48826
673.41071
681.84333
695.43843
701.43964
704.56468
710.84368
720.08394
721.06281
723.46446
728.21335
735.00515
730.38411
732.42249
736.4554
742.18306
)
;

boundaryField
{
    minY
    {
        type            fixedValue;
        value           uniform 300;
    }
    minZ
    {
        type            zeroGradient;
    }
    maxZ
    {
        type            zeroGradient;
    }
    heater_to_topAir
    {
        type            compressible::turbulentTemperatureCoupledBaffleMixed;
        refValue        nonuniform List<scalar> 
40
(
520.35215
517.07973
511.36673
503.99603
483.57844
471.53389
458.74561
447.44396
494.71052
483.46661
471.36397
459.92053
509.46107
505.33348
503.51026
503.63871
506.33605
503.35619
503.64665
505.76091
505.77545
503.82068
504.93489
506.86968
507.56117
503.93758
502.82206
503.41896
492.67607
481.28554
469.5401
458.70618
482.32351
469.93115
457.02898
445.8791
519.88684
516.49402
510.66534
503.23305
)
;
        refGradient     uniform 0;
        valueFraction   nonuniform List<scalar> 
40
(
0.00032132529
0.00032132529
0.00032132529
0.00032132529
0.00032132529
0.00032132529
0.00032132529
0.00032132529
0.00032132529
0.00032132529
0.00032132529
0.00032132529
0.00032132529
0.00032132529
0.00032132529
0.00032132529
0.00032132529
0.00032132529
0.00032132529
0.00032132529
0.00032132529
0.00032132529
0.00032132529
0.00032132529
0.00032132529
0.00032132529
0.00032132529
0.00032132529
0.00032132529
0.00032132529
0.00032132529
0.00032132529
0.00032132529
0.00032132529
0.00032132529
0.00032132529
0.00032132529
0.00032132529
0.00032132529
0.00032132529
)
;
        value           nonuniform List<scalar> 
40
(
730.17563
732.27258
736.34273
742.13159
720.68475
723.12496
727.93768
734.84503
700.93002
704.09521
710.46642
719.8558
669.02377
672.99529
681.52639
695.2841
622.56999
626.16002
635.55237
654.51883
622.66916
626.25195
635.61908
654.54531
669.43653
673.3566
681.78619
695.37716
701.37298
704.49337
710.76661
720.00045
720.9865
723.38341
728.12674
734.91281
730.31682
732.35356
736.38334
742.10677
)
;
        Tnbr            T;
        thicknessLayers List<scalar> 0();
        kappaLayers     List<scalar> 0();
        kappaMethod     solidThermo;
        kappa           none;
        alphaAni        none;
        alpha           none;
        field           T;
    }
    heater_to_rightSolid
    {
        type            compressible::turbulentTemperatureCoupledBaffleMixed;
        refValue        nonuniform List<scalar> 10(749.31384 743.40024 731.6113 714.09886 693.48302 693.4821 714.10481 731.62218 743.35936 749.22181);
        refGradient     uniform 0;
        valueFraction   nonuniform List<scalar> 10(0.49999997 0.49999997 0.49999997 0.49999997 0.49999997 0.49999997 0.49999997 0.49999997 0.49999997 0.49999997);
        value           nonuniform List<scalar> 10(745.76099 739.16883 725.77533 704.72228 674.02483 674.03744 704.77183 725.85331 739.18254 745.70268);
        Tnbr            T;
        thicknessLayers List<scalar> 0();
        kappaLayers     List<scalar> 0();
        kappaMethod     solidThermo;
        kappa           none;
        alphaAni        none;
        alpha           none;
        field           T;
    }
    heater_to_leftSolid
    {
        type            compressible::turbulentTemperatureCoupledBaffleMixed;
        refValue        nonuniform List<scalar> 10(926.68625 926.43601 926.1221 925.8472 925.51956 925.20564 925.09773 925.11602 925.24743 925.39248);
        refGradient     uniform 0;
        valueFraction   nonuniform List<scalar> 10(2.0832898e-05 2.0832898e-05 2.0832898e-05 2.0832898e-05 2.0832898e-05 2.0832898e-05 2.0832898e-05 2.0832898e-05 2.0832898e-05 2.0832898e-05);
        value           nonuniform List<scalar> 10(730.24716 720.76525 701.00099 669.0804 622.61366 622.71304 669.49389 701.44472 721.06747 730.38852);
        Tnbr            T;
        thicknessLayers List<scalar> 1(0.001);
        kappaLayers     List<scalar> 1(0.0005);
        kappaMethod     solidThermo;
        kappa           none;
        alphaAni        none;
        alpha           none;
        field           T;
    }
    heater_to_bottomWater
    {
        type            compressible::turbulentTemperatureCoupledBaffleMixed;
        refValue        nonuniform List<scalar> 
92
(
935.31074
935.18144
931.84721
928.79628
929.912
923.04218
919.91007
920.90763
918.33341
915.05865
913.8628
914.3326
924.87192
919.62092
918.84806
915.86228
919.54959
914.73058
914.4687
909.81239
911.81386
908.24811
910.80396
909.04292
907.27473
905.93147
907.25732
907.16939
908.32406
908.32406
907.44093
907.44093
906.75714
906.75714
906.65367
906.65367
943.12287
897.67344
937.17924
897.46098
925.72442
891.83165
932.07295
888.72181
931.49856
895.21468
916.7529
916.56734
916.93808
914.0108
901.2512
905.67846
922.30952
919.6422
921.84556
917.85863
898.23336
909.2857
930.50303
924.79825
923.88985
919.9119
894.17423
908.47529
933.58816
928.23643
924.65707
920.68675
890.43569
908.15419
925.80611
926.70023
923.48308
921.0544
894.48667
901.45952
926.70023
923.48308
921.0544
901.45952
928.94194
927.37656
925.85408
918.07248
933.11062
926.84599
925.07956
919.32133
935.29148
925.42444
927.51044
925.32139
)
;
        refGradient     uniform 0;
        valueFraction   nonuniform List<scalar> 
92
(
0.0075140686
0.0075140686
0.0075140686
0.0075140686
0.0075140686
0.0075140686
0.0075140686
0.0075140686
0.0075140686
0.0075140686
0.0075140686
0.0075140686
0.0075140686
0.0075140686
0.0075140686
0.0075140686
0.0075140686
0.0075140686
0.0075140686
0.0075140686
0.0075140686
0.0075140686
0.0075140686
0.0075140686
0.0075140686
0.0075140686
0.0075140686
0.0075140686
0.0075140686
0.0075140686
0.0075140686
0.0075140686
0.0075140686
0.0075140686
0.0075140686
0.0075140686
0.0075140679
0.0075140679
0.0075140679
0.0075140679
0.0075140679
0.0075140679
0.0075140679
0.0075140679
0.0075140679
0.0075140679
0.0075140679
0.0075140686
0.0075140686
0.0075140686
0.0075140679
0.0075140686
0.0075140679
0.0075140686
0.0075140686
0.0075140686
0.0075140679
0.0075140686
0.0075140679
0.0075140686
0.0075140686
0.0075140686
0.0075140679
0.0075140686
0.0075140679
0.0075140686
0.0075140686
0.0075140686
0.0075140679
0.0075140686
0.0075140679
0.0075140686
0.0075140686
0.0075140686
0.0075140679
0.0075140686
0.0075140686
0.0075140686
0.0075140686
0.0075140686
0.0075140686
0.0075140686
0.0075140686
0.0075140686
0.0075140686
0.0075140686
0.0075140686
0.0075140686
0.0075140686
0.0075140686
0.0075140686
0.0075140686
)
;
        value           nonuniform List<scalar> 
92
(
731.78396
733.8659
737.88353
743.61017
722.33254
724.70741
729.46605
736.3348
702.62939
705.75078
712.07103
721.40004
349.55734
346.77373
346.75364
349.31076
424.95058
421.57057
421.70395
425.03518
489.43888
486.6283
487.26242
490.75822
544.46226
542.72785
544.52832
548.77831
670.87279
590.02715
674.81041
590.20605
683.27558
594.6885
696.93349
602.02491
349.69447
349.17409
425.08305
424.94237
489.5434
490.62889
544.6486
548.6397
590.20128
601.93896
349.35433
349.35293
346.71798
346.70386
349.19584
349.2291
424.90416
424.88412
421.62841
421.74358
424.96183
425.04488
489.65706
489.6142
486.81162
487.37801
490.6795
490.78696
544.73798
544.69777
542.94615
544.68862
548.68409
548.81723
590.21338
590.2201
590.40029
594.85451
601.94403
601.99643
671.42127
675.29011
683.64116
696.98691
703.14953
706.23934
712.45975
721.57213
722.65656
724.99309
729.69314
736.39067
731.92414
733.87317
737.89149
743.55966
)
;
        Tnbr            T;
        thicknessLayers List<scalar> 0();
        kappaLayers     List<scalar> 0();
        kappaMethod     solidThermo;
        kappa           none;
        alphaAni        none;
        alpha           none;
        field           T;
    }
}


// ************************************************************************* //
