/*--------------------------------*- C++ -*----------------------------------*\
| =========                 |                                                 |
| \\      /  F ield         | OpenFOAM: The Open Source CFD Toolbox           |
|  \\    /   O peration     | Version:  v2012                                 |
|   \\  /    A nd           | Website:  www.openfoam.com                      |
|    \\/     M anipulation  |                                                 |
\*---------------------------------------------------------------------------*/
FoamFile
{
    version     2.0;
    format      ascii;
    class       volScalarField;
    location    "530/rightSolid";
    object      T;
}
// * * * * * * * * * * * * * * * * * * * * * * * * * * * * * * * * * * * * * //

dimensions      [0 0 0 1 0 0 0];


internalField   nonuniform List<scalar> 
130
(
753.21513
761.15715
769.46891
777.73618
785.65008
792.97268
799.54219
805.26473
810.07986
813.95087
816.86142
818.81129
819.79433
747.36702
756.66303
766.15987
775.38445
784.01918
791.85695
798.77964
804.73027
809.70037
813.67408
816.64806
818.63124
819.62526
735.63617
748.0317
760.06922
771.20659
781.20122
789.97613
797.5345
803.90156
809.12607
813.25764
816.3364
818.38134
819.40213
718.17756
736.40557
752.5178
766.34819
778.08898
787.99303
796.27813
803.10271
808.61403
812.91731
816.09372
818.19976
819.25649
697.61317
725.43833
746.37115
762.77083
775.95382
786.69716
795.4851
802.61916
808.32355
812.74689
815.99263
818.13476
819.20902
697.78477
725.62007
746.54578
762.92716
776.0827
786.79616
795.55493
802.67265
808.36933
812.789
816.03439
818.17586
819.24349
718.70655
736.91448
752.99187
766.77111
778.4504
788.28419
796.49953
803.27794
808.76123
813.05357
816.22714
818.32168
819.36453
736.39702
748.75228
760.73964
771.80647
781.71732
790.40386
797.87783
804.17962
809.35997
813.46534
816.51764
818.54067
819.5495
748.22858
757.48523
766.92552
776.08184
784.62299
792.35807
799.18662
805.05957
809.96548
813.89162
816.83003
818.78583
819.76379
754.11358
762.04202
770.28018
778.46598
786.28836
793.51049
799.97822
805.60236
810.34235
814.16042
817.0306
818.94696
819.90641
)
;

boundaryField
{
    maxX
    {
        type            zeroGradient;
    }
    minZ
    {
        type            zeroGradient;
    }
    maxZ
    {
        type            zeroGradient;
    }
    rightSolid_to_bottomWater
    {
        type            compressible::turbulentTemperatureCoupledBaffleMixed;
        refValue        nonuniform List<scalar> 
130
(
928.91409
927.67341
926.01358
923.63093
924.00548
925.31472
926.5354
928.92325
931.16155
932.62307
933.2195
934.45083
936.22973
927.19591
926.38048
924.12382
923.28835
924.86809
926.53406
927.56472
926.90941
929.52117
931.96167
932.61773
933.32492
933.85764
921.72102
921.38328
920.8901
922.78467
924.40828
925.4198
927.45562
928.22423
927.89427
927.96985
929.71651
931.11579
931.19308
919.54798
919.83054
920.74593
921.91987
923.04987
925.20588
928.83251
928.83207
929.06256
928.41842
927.65702
928.73617
931.18772
916.26347
919.36975
920.23017
921.00102
922.69449
924.45454
927.63917
928.12865
928.46941
928.68303
928.19612
928.18411
930.6601
916.96581
923.33083
924.042
924.15523
923.93836
924.39522
925.56424
926.01502
927.01578
927.35
927.13315
928.22007
929.25068
928.19536
927.90363
928.26669
927.99573
927.90604
927.67194
927.46926
927.08592
926.86185
926.99312
928.4015
928.58773
928.7279
931.09455
929.3203
929.49393
929.43085
929.11134
928.56931
928.36655
928.02893
927.62165
929.01292
929.14459
929.15456
928.98059
935.47657
931.48299
929.22111
930.52484
929.62047
928.23782
927.64523
927.09192
928.85112
930.05308
930.14176
929.99528
929.90066
939.41506
938.20268
930.2825
927.68319
927.85542
928.13025
927.85822
926.98623
928.6399
930.04604
930.29577
930.44699
930.45038
)
;
        refGradient     uniform 0;
        valueFraction   nonuniform List<scalar> 
130
(
0.0075140686
0.0075140686
0.0075140686
0.0075140686
0.0075140686
0.0075140686
0.0075140686
0.0075140686
0.0075140686
0.0075140686
0.0075140686
0.0075140686
0.0075140686
0.0075140686
0.0075140686
0.0075140686
0.0075140686
0.0075140686
0.0075140686
0.0075140686
0.0075140686
0.0075140686
0.0075140686
0.0075140686
0.0075140686
0.0075140686
0.0075140686
0.0075140686
0.0075140686
0.0075140686
0.0075140686
0.0075140686
0.0075140686
0.0075140686
0.0075140686
0.0075140686
0.0075140686
0.0075140686
0.0075140686
0.0075140686
0.0075140686
0.0075140686
0.0075140686
0.0075140686
0.0075140686
0.0075140686
0.0075140686
0.0075140686
0.0075140686
0.0075140686
0.0075140686
0.0075140686
0.0075140686
0.0075140686
0.0075140686
0.0075140686
0.0075140686
0.0075140686
0.0075140686
0.0075140686
0.0075140686
0.0075140686
0.0075140686
0.0075140686
0.0075140686
0.0075140686
0.0075140686
0.0075140686
0.0075140686
0.0075140686
0.0075140686
0.0075140686
0.0075140686
0.0075140686
0.0075140686
0.0075140686
0.0075140686
0.0075140686
0.0075140686
0.0075140686
0.0075140686
0.0075140686
0.0075140686
0.0075140686
0.0075140686
0.0075140686
0.0075140686
0.0075140686
0.0075140686
0.0075140686
0.0075140686
0.0075140686
0.0075140686
0.0075140686
0.0075140686
0.0075140686
0.0075140686
0.0075140686
0.0075140686
0.0075140686
0.0075140686
0.0075140686
0.0075140686
0.0075140686
0.0075140686
0.0075140686
0.0075140686
0.0075140686
0.0075140686
0.0075140686
0.0075140686
0.0075140686
0.0075140686
0.0075140686
0.0075140686
0.0075140686
0.0075140686
0.0075140686
0.0075140686
0.0075140686
0.0075140686
0.0075140686
0.0075140686
0.0075140686
0.0075140686
0.0075140686
0.0075140686
0.0075140686
0.0075140686
0.0075140686
)
;
        value           nonuniform List<scalar> 
130
(
754.53543
762.40844
770.64527
778.83251
786.68977
793.96719
800.49648
806.19394
810.98969
814.84257
817.73571
819.68016
820.66919
748.71834
757.93838
767.3469
776.4959
785.07762
792.86901
799.7474
805.64837
810.60072
814.56289
817.51943
819.493
820.48355
737.03453
749.33439
761.27775
772.34567
782.27739
790.99396
798.51081
804.83576
810.01851
814.11958
817.18831
819.22838
820.24206
719.69076
737.78392
753.78196
767.51727
779.17832
789.02414
797.27421
804.04747
809.51909
813.78516
816.93196
819.03028
820.09748
699.25616
726.8956
747.67762
763.95988
777.05653
787.73237
796.47819
803.56227
809.22635
813.61804
816.83571
818.96168
820.04646
699.43172
727.10571
747.87956
764.13873
777.19381
787.83021
796.53194
803.59954
809.26092
813.64988
816.86924
819.0028
820.07015
720.28067
738.34959
754.30892
767.98262
779.57351
789.33166
797.48375
804.20834
809.64875
813.90983
817.07015
819.15036
820.18642
737.86004
750.10909
762.00767
772.9909
782.8249
791.44211
798.85841
805.11032
810.24869
814.33369
817.36407
819.37199
820.37194
749.63562
758.79268
768.14501
777.24233
785.71254
793.37913
800.15194
805.97661
810.85886
814.76457
817.6816
819.62162
820.59153
755.50594
763.3657
771.48247
779.58722
787.35213
794.52207
800.93918
806.51451
811.2313
815.03127
817.88178
819.7849
820.73717
)
;
        Tnbr            T;
        thicknessLayers List<scalar> 0();
        kappaLayers     List<scalar> 0();
        kappaMethod     solidThermo;
        kappa           none;
        alphaAni        none;
        alpha           none;
        field           T;
    }
    rightSolid_to_topAir
    {
        type            compressible::turbulentTemperatureCoupledBaffleMixed;
        refValue        nonuniform List<scalar> 
130
(
493.57384
486.57014
480.47633
475.55573
471.86188
469.3486
467.94113
467.57009
468.19893
469.86192
472.73863
477.33768
484.53195
436.82679
431.53738
428.33282
426.49217
425.54103
425.27444
425.66111
426.73168
428.54681
431.22077
435.06381
441.04995
451.02193
448.43869
440.15077
432.84513
426.55745
421.43251
417.71359
415.59882
415.12612
416.16049
418.50786
422.14726
428.09101
438.36366
502.97802
504.10255
503.92991
502.09998
498.77727
494.43723
489.55699
484.60101
480.42504
478.69189
481.23356
487.08497
497.32755
507.24404
511.2297
515.43456
519.49009
523.05013
525.82836
527.63923
528.45446
528.5207
528.51161
529.54793
533.05011
540.77543
504.98403
509.04256
513.25875
517.26722
520.72379
523.33421
524.89493
525.36235
524.98188
524.43821
524.89518
527.87373
535.00579
499.92305
500.24651
499.44547
497.17704
493.54056
488.93968
483.82004
478.59744
474.01448
471.48237
473.15145
480.50599
490.99872
447.41438
438.47536
430.93281
424.71806
419.79468
416.22302
414.0988
413.44984
414.17768
416.13439
419.30151
424.41355
433.67039
438.56852
432.92943
429.45152
427.43707
426.39158
426.06088
426.36501
427.29247
428.87125
431.22439
434.71902
440.3024
449.56044
494.27998
487.20351
481.02321
476.01923
472.24764
469.65225
468.14194
467.62908
468.06119
469.46847
472.04435
476.29815
483.05487
)
;
        refGradient     uniform 0;
        valueFraction   nonuniform List<scalar> 
130
(
0.00032132529
0.00032132529
0.00032132529
0.00032132529
0.00032132529
0.00032132529
0.00032132529
0.00032132529
0.00032132529
0.00032132529
0.00032132529
0.00032132529
0.00032132529
0.00032132529
0.00032132529
0.00032132529
0.00032132529
0.00032132529
0.00032132529
0.00032132529
0.00032132529
0.00032132529
0.00032132529
0.00032132529
0.00032132529
0.00032132529
0.00032132529
0.00032132529
0.00032132529
0.00032132529
0.00032132529
0.00032132529
0.00032132529
0.00032132529
0.00032132529
0.00032132529
0.00032132529
0.00032132529
0.00032132529
0.00032132529
0.00032132529
0.00032132529
0.00032132529
0.00032132529
0.00032132529
0.00032132529
0.00032132529
0.00032132529
0.00032132529
0.00032132529
0.00032132529
0.00032132529
0.00032132529
0.00032132529
0.00032132529
0.00032132529
0.00032132529
0.00032132529
0.00032132529
0.00032132529
0.00032132529
0.00032132529
0.00032132529
0.00032132529
0.00032132529
0.00032132529
0.00032132529
0.00032132529
0.00032132529
0.00032132529
0.00032132529
0.00032132529
0.00032132529
0.00032132529
0.00032132529
0.00032132529
0.00032132529
0.00032132529
0.00032132529
0.00032132529
0.00032132529
0.00032132529
0.00032132529
0.00032132529
0.00032132529
0.00032132529
0.00032132529
0.00032132529
0.00032132529
0.00032132529
0.00032132529
0.00032132529
0.00032132529
0.00032132529
0.00032132529
0.00032132529
0.00032132529
0.00032132529
0.00032132529
0.00032132529
0.00032132529
0.00032132529
0.00032132529
0.00032132529
0.00032132529
0.00032132529
0.00032132529
0.00032132529
0.00032132529
0.00032132529
0.00032132529
0.00032132529
0.00032132529
0.00032132529
0.00032132529
0.00032132529
0.00032132529
0.00032132529
0.00032132529
0.00032132529
0.00032132529
0.00032132529
0.00032132529
0.00032132529
0.00032132529
0.00032132529
0.00032132529
0.00032132529
0.00032132529
0.00032132529
)
;
        value           nonuniform List<scalar> 
130
(
753.13179
761.069
769.37612
777.63915
785.54933
792.86877
799.4357
805.15625
809.97002
813.84029
816.75081
818.70151
819.68656
747.26731
756.55864
766.05139
775.27243
783.90409
791.73924
798.65981
804.60885
809.57791
813.55117
816.52542
818.50986
819.50675
735.544
747.93289
759.96419
771.09596
781.08572
789.85661
797.41184
803.77667
808.99981
813.13079
816.20971
818.25588
819.27962
718.1085
736.33101
752.438
766.26338
777.99933
787.89878
796.17963
803.00038
808.50857
812.80988
815.98607
818.09331
819.15297
697.55204
725.36956
746.29703
762.69276
775.87265
786.61343
795.39911
802.53108
808.23366
812.65555
815.90057
818.04315
819.11955
697.72283
725.55051
746.47088
762.84832
776.00076
786.71162
795.46807
802.58363
808.27834
812.69641
815.94089
818.08264
819.15221
718.63626
736.83844
752.91042
766.68454
778.35894
788.18811
796.39916
803.17371
808.65377
812.94392
816.11703
818.21326
819.25914
736.30421
748.65259
760.63366
771.69497
781.60108
790.2837
797.75459
804.05416
809.23308
813.33779
816.39015
818.41419
819.42568
748.12912
757.38096
766.81707
775.96981
784.50791
792.24042
799.0669
804.93826
809.84309
813.76876
816.70738
818.66437
819.645
754.03008
761.9537
770.18726
778.3688
786.18747
793.40647
799.87165
805.49383
810.23242
814.04974
816.91985
818.83698
819.7983
)
;
        Tnbr            T;
        thicknessLayers List<scalar> 0();
        kappaLayers     List<scalar> 0();
        kappaMethod     solidThermo;
        kappa           none;
        alphaAni        none;
        alpha           none;
        field           T;
    }
    rightSolid_to_heater
    {
        type            compressible::turbulentTemperatureCoupledBaffleMixed;
        refValue        nonuniform List<scalar> 10(746.14219 738.93546 723.95592 699.31131 658.36901 658.52475 699.844 724.73633 739.79186 746.98366);
        refGradient     uniform 0;
        valueFraction   nonuniform List<scalar> 10(0.50000003 0.50000003 0.50000003 0.50000003 0.50000003 0.50000003 0.50000003 0.50000003 0.50000003 0.50000003);
        value           nonuniform List<scalar> 10(749.6787 743.15128 729.7961 708.74448 677.99111 678.15476 709.27528 730.5667 744.01024 750.54862);
        Tnbr            T;
        thicknessLayers List<scalar> 0();
        kappaLayers     List<scalar> 0();
        kappaMethod     solidThermo;
        kappa           none;
        alphaAni        none;
        alpha           none;
        field           T;
    }
}


// ************************************************************************* //
