/*--------------------------------*- C++ -*----------------------------------*\
| =========                 |                                                 |
| \\      /  F ield         | OpenFOAM: The Open Source CFD Toolbox           |
|  \\    /   O peration     | Version:  v2012                                 |
|   \\  /    A nd           | Website:  www.openfoam.com                      |
|    \\/     M anipulation  |                                                 |
\*---------------------------------------------------------------------------*/
FoamFile
{
    version     2.0;
    format      ascii;
    class       volScalarField;
    location    "380/bottomWater";
    object      T;
}
// * * * * * * * * * * * * * * * * * * * * * * * * * * * * * * * * * * * * * //

dimensions      [0 0 0 1 0 0 0];


internalField   nonuniform List<scalar> 
1460
(
972.02215
970.83256
969.27606
967.17434
964.92999
964.82962
964.72455
964.29375
959.27322
955.96552
955.14162
954.89444
954.29868
952.96554
954.25471
955.71311
958.38828
956.89653
955.78055
954.78489
953.14582
953.79225
954.56608
954.16417
953.50899
952.59033
956.91923
955.41035
956.37352
956.62429
971.37262
970.85529
970.39111
967.45246
964.43275
964.06097
963.87014
964.00897
959.11175
956.53674
955.9441
955.14547
954.15009
952.79719
954.08111
954.93048
956.13789
956.3775
956.61475
954.99516
953.3551
954.38684
954.38889
953.84305
953.37612
952.90162
954.76665
955.97382
956.1139
956.31352
971.65972
972.10587
971.11332
967.43454
964.11514
963.65582
963.18102
963.073
959.22723
956.78341
956.44779
955.29482
953.95641
952.86286
954.3945
955.44659
956.38952
956.95968
957.10553
954.70139
953.31272
954.53062
954.49385
953.88619
953.91359
952.64824
954.6087
956.19413
956.77429
956.40547
971.98511
972.56123
971.14815
967.57925
963.28296
962.66187
962.29839
961.90601
959.68666
957.14122
955.73316
955.25534
953.78415
952.27741
954.31224
955.6695
956.61944
957.47648
957.23864
954.27996
952.68858
953.97561
954.45856
953.97382
954.02286
952.18267
954.50565
955.92852
956.69889
956.52159
971.91177
972.11976
972.0977
968.07426
962.97789
961.88137
961.14601
961.00398
959.97857
957.35875
956.44528
956.54341
953.37787
951.06388
952.65924
954.44185
955.58383
955.96838
955.88334
953.74194
952.25845
952.6264
953.01425
952.49815
951.78084
951.81683
954.57148
955.16951
955.62722
955.65742
973.33571
971.72317
969.99209
968.18707
966.00146
964.2941
962.23365
959.90716
959.44963
958.2507
956.36609
956.58343
956.9476
953.89906
956.98667
948.19515
949.82369
952.6757
958.20943
958.23839
956.83436
956.57487
955.49858
954.54853
954.04863
953.46749
954.4384
954.94147
955.80607
956.36336
972.69555
971.01132
969.25314
967.2608
965.73628
965.35716
964.55634
960.87366
959.19888
957.92046
955.37511
955.73447
954.92149
952.18457
954.06032
950.20916
950.49404
953.39582
957.25614
957.3424
954.66592
955.39182
954.75221
953.85112
953.63568
953.53864
954.26159
955.3991
955.43809
955.75016
973.07573
973.36792
969.79414
968.42591
968.67545
965.0979
963.65778
961.33914
959.60784
957.86715
956.02936
956.01851
950.76353
951.74546
952.40068
950.3596
950.8224
954.15245
954.77038
954.34062
954.57849
955.00862
954.67973
953.85574
953.78886
953.18803
954.22457
955.76866
956.31125
955.86729
973.3542
973.6942
970.85828
969.09322
966.8063
962.85177
961.9068
961.52802
961.25035
958.75984
954.26683
955.2027
948.94652
950.8085
950.90277
950.50845
951.46194
953.03792
953.29744
952.82593
954.26015
954.70425
954.59399
953.94608
953.95842
952.87127
954.02906
955.553
956.26758
956.0488
972.93942
973.32067
972.75451
968.79022
964.96144
963.30178
961.80654
960.84629
960.5004
958.89647
956.93112
956.5526
947.81197
947.44407
948.2881
949.05398
950.46749
951.40592
951.59834
952.29812
953.12886
953.60786
953.58996
953.09757
952.67311
952.02745
954.03067
955.01565
955.46075
955.4516
976.9219
975.46111
972.69903
972.25517
967.72988
960.65565
959.30272
958.99482
958.29724
957.14124
951.97879
953.46304
954.4004
955.20724
950.14356
941.69536
945.21071
948.30248
953.16652
955.65189
955.85052
956.72729
955.48912
954.18029
954.42287
954.34154
954.05723
954.26187
955.32036
956.64849
975.68909
974.4713
971.423
970.92963
969.52261
963.58317
959.74917
959.83701
959.95207
957.8119
951.73467
951.22535
952.08856
953.09237
950.13323
942.45075
945.49432
948.41085
953.36258
955.5981
954.27791
954.1416
953.6844
953.2389
953.53453
953.32844
953.32948
953.96181
954.42683
954.9893
974.87859
974.22202
970.70678
969.98914
969.66999
963.74772
959.90784
961.36988
961.11764
958.53366
951.92859
949.38068
951.88905
953.18652
950.67536
943.76883
944.78583
947.67759
952.91882
954.61313
954.08513
953.56652
953.58334
953.28209
953.58654
953.4263
953.11571
953.95582
955.64328
955.10534
972.84539
973.4477
970.37402
969.3929
968.89517
964.30557
960.58412
961.48278
961.56877
960.1846
951.83317
946.96506
952.45378
953.11136
949.97682
945.11295
946.00786
946.98003
951.13006
953.34882
952.08981
953.56494
953.66801
953.49113
953.63657
953.40068
953.39658
953.39903
955.66688
955.35061
971.60068
970.30995
968.59629
967.61862
967.19768
964.37938
961.89223
961.49663
961.03017
960.14113
951.35151
946.30287
948.51513
947.40532
947.11881
944.47058
945.68797
947.32078
951.85882
952.52352
952.43436
953.02778
953.20348
952.89934
952.65323
952.49594
951.94825
952.71179
954.24846
954.7292
977.31578
974.99013
972.23036
970.42456
969.82128
964.10072
957.96624
957.77816
956.73537
952.46831
948.0478
946.61934
946.74751
945.08772
941.44284
934.53835
937.82776
943.86771
951.17724
953.60556
951.27196
953.57175
954.3844
952.81671
953.65168
952.64363
955.64643
953.5708
954.63329
956.14923
974.36766
971.46141
970.94893
970.49818
970.1241
967.99932
959.05372
959.30691
958.01261
952.34662
946.23977
945.51818
946.83914
945.20467
940.77779
936.10817
938.13225
943.00905
950.91554
951.56128
948.73015
949.43311
951.75293
952.18658
953.2053
952.28765
953.1413
952.5238
953.71615
954.18309
972.21279
971.13392
970.81655
970.23797
969.71165
967.84703
959.06799
960.50672
959.44972
953.07257
944.70453
945.29274
947.51135
944.26601
939.41822
936.35187
937.67011
942.4738
950.28728
950.59238
947.19849
948.17949
951.05991
951.77762
952.6714
952.02136
951.36449
952.22151
954.18528
954.43325
971.04803
969.98877
970.55458
968.8502
968.49537
967.84045
960.00655
961.24177
960.60717
955.08393
942.74122
942.36681
942.44929
943.01344
938.19971
939.46333
939.15407
942.49814
949.51782
947.90504
946.76042
949.34039
951.07026
952.02744
952.45207
951.85402
951.08474
952.12374
954.72222
954.78296
970.23239
969.19289
968.68741
968.10474
967.71304
967.517
962.30279
961.51133
960.96501
956.94731
939.52868
938.72271
938.09032
935.87388
936.95494
937.70006
938.85685
942.30542
949.98422
949.88279
949.52569
950.17324
950.9329
951.03096
951.12895
951.0477
950.86131
951.88078
953.55439
954.0027
978.5683
975.5842
973.07336
969.85767
968.34759
962.29141
957.31926
957.06041
956.87811
949.59865
948.20241
948.54394
939.59594
930.32894
941.756
947.61867
951.43936
953.39689
954.3352
951.33137
954.66668
956.02602
955.93387
954.02917
954.43763
956.40069
975.5356
972.86813
970.53929
968.8391
968.35878
966.97604
956.83992
956.56219
956.45585
947.61757
946.46599
946.15735
942.63407
934.47439
944.30849
946.98159
948.25169
950.38266
952.343
950.60015
954.37119
954.78248
952.48255
952.43032
953.54553
953.83664
972.22987
970.08773
969.2851
968.64651
967.91463
966.87268
957.14808
956.46977
956.14714
947.6989
945.82394
943.65563
940.57764
936.36439
945.78096
945.68984
944.76827
947.7554
947.91351
949.58957
953.78697
952.62629
951.13129
952.37633
954.03245
954.10258
969.76428
968.17883
967.64605
966.53284
967.08118
966.97596
958.15582
958.59313
957.82581
947.74635
946.31461
941.46326
937.21121
935.66676
943.9135
943.26633
943.85015
946.99457
948.52853
950.50463
952.14556
951.039
950.64039
952.60165
953.82746
954.49554
968.64575
967.58565
966.74307
966.1763
965.65486
964.62578
957.80844
957.88932
957.65898
947.55353
940.37017
938.9133
928.10872
935.82127
942.08653
942.53923
944.58926
948.02486
949.13015
949.88295
950.26241
950.24598
950.37009
953.06411
953.7316
954.15468
979.85196
976.16549
973.60077
970.06698
969.92611
962.72508
957.70689
957.56401
955.09599
955.27959
953.54513
952.19298
932.77683
924.29149
933.08179
940.18927
947.10218
952.96978
957.44091
954.24962
958.72631
960.40979
960.02005
958.78873
958.67163
959.98669
975.87017
973.35131
971.85648
967.46527
967.93461
967.75669
957.72253
954.32273
953.08614
951.26245
950.70739
949.71746
939.22648
928.78028
936.61647
940.24983
944.38885
950.771
954.2242
952.68522
957.05702
957.72278
956.91532
955.67499
955.95302
957.42642
974.92181
972.91772
970.98788
967.08037
967.53701
967.63337
957.81082
956.1078
952.47319
947.7567
946.36765
949.43136
938.46411
930.32209
943.63421
941.10408
943.57627
948.41988
949.19905
951.92762
957.07927
956.43661
954.35407
954.49751
955.97512
957.52803
973.04134
970.80681
969.79821
963.82697
966.2706
966.05821
957.92003
957.26265
954.57958
946.24668
945.23713
945.77752
936.20794
929.88071
942.9227
941.23488
940.83584
944.59166
947.24956
949.53478
954.13942
953.48876
952.60263
953.78927
956.78998
957.72125
972.81556
972.50662
969.6844
962.98169
961.93553
961.8849
957.92848
957.36617
956.93042
946.55111
942.1768
939.8081
932.26928
930.65954
936.63921
936.23312
938.28635
945.02847
949.31763
950.07238
952.18408
951.59653
952.78399
955.30741
956.20241
956.66546
981.00981
977.49854
975.42931
973.26733
971.37462
967.08243
963.90219
958.95174
955.68169
947.93975
940.31167
935.36783
931.58698
928.54591
926.37015
924.05825
926.0614
929.4184
932.45017
937.2492
943.34794
950.02348
956.9875
965.43723
967.39452
966.77289
965.00307
964.21645
963.41359
965.5343
976.58315
974.07598
972.77666
970.95311
969.64746
968.3867
967.59764
960.63798
955.28002
949.39273
940.2246
937.16404
935.19006
933.42765
929.41473
927.00594
926.7265
929.22663
931.20366
934.4638
939.37242
946.03019
960.72388
964.61546
964.44569
962.95278
960.70652
959.45901
959.98721
963.03078
976.15216
974.12454
972.9976
971.62225
969.13966
965.10848
966.54378
958.58801
951.82091
949.18251
940.58129
938.03821
938.57841
935.09555
931.04316
928.57629
928.22987
930.93455
932.82615
935.12175
938.78971
944.01706
954.16073
955.01259
958.95369
961.69488
959.73341
959.77258
960.13248
959.49793
975.51709
974.0014
973.51729
971.33288
968.16417
964.07294
964.44731
957.03556
948.75888
947.22909
942.93608
939.19955
938.0223
936.5073
931.57793
930.37858
931.15194
932.89984
936.69315
935.81503
938.72285
942.69482
948.73844
949.99107
954.63613
955.62267
952.85521
955.26598
957.60936
957.24783
974.48167
973.85296
973.45425
973.04496
967.72068
962.23394
963.0042
957.22889
955.38053
949.57549
942.96897
938.99695
936.39394
933.46897
931.6671
930.80618
931.13192
932.27548
934.69427
935.40196
937.9645
942.01982
949.45238
950.36514
952.90009
951.96752
952.40948
954.28961
955.37291
956.09172
977.63265
977.3019
975.96223
974.81545
973.6557
969.30945
968.3799
966.4152
962.1485
956.61029
948.04931
946.60554
944.41248
940.77087
938.44833
932.90655
935.92496
937.05717
938.67549
942.2662
945.99784
949.30824
954.63596
959.5978
960.55533
962.05493
961.93965
962.68352
962.56864
960.07831
974.48903
973.89904
973.14095
972.53874
971.90738
968.3206
967.1295
965.18534
959.02527
955.80794
946.95868
946.4844
945.04751
941.73472
937.77066
932.22645
936.65937
937.98536
938.77942
941.00428
944.68795
947.95605
957.37077
958.36256
954.56937
958.27696
958.63828
960.04526
960.57275
959.37196
974.36106
973.83704
973.32583
972.71427
971.86448
966.57646
966.87687
963.94658
955.63675
954.14825
947.29764
949.03125
944.86846
942.07003
937.83657
935.34214
936.56352
938.20182
938.86817
940.46754
944.07025
947.35901
957.24243
955.53417
953.31805
954.81939
958.68741
959.85982
960.13496
959.41033
974.10696
973.8052
973.6543
972.97563
972.07144
966.82392
966.22166
962.75875
955.53122
954.66003
954.12259
950.98754
943.86594
942.75009
938.22018
938.40213
939.60886
940.05208
940.70883
940.4657
943.21039
946.34515
954.30656
953.25442
951.15457
951.53112
952.81377
957.56939
957.28522
956.34814
972.80849
972.43897
972.18124
971.95868
971.35207
966.09305
962.8354
960.67616
956.22981
955.94139
954.65191
951.31862
945.58304
942.43083
937.33793
936.97147
936.6619
936.87965
936.73275
939.22153
941.99701
944.86161
952.21818
952.44992
951.40357
950.36603
951.94072
952.99026
953.79057
954.50796
972.7079
972.29171
971.48292
970.31187
970.73614
966.29839
965.07152
964.4587
962.237
961.59902
955.06318
952.17047
950.638
944.98215
944.24733
941.20504
942.76525
943.66859
948.95428
948.57846
952.26745
959.75751
957.57858
954.24614
951.89177
954.19703
955.83224
958.79797
960.26253
959.75353
969.60234
969.5171
969.51388
970.21678
968.71143
966.12945
964.44061
962.70484
958.52727
958.19724
953.70169
951.33971
951.46639
944.5087
942.13858
938.4261
939.52795
940.61617
945.24547
944.62506
948.29995
953.78186
953.58857
952.26954
950.87454
953.31454
953.40419
955.40805
959.1729
958.24063
969.39499
969.8522
971.15704
970.25173
969.43539
966.12594
965.15008
962.38357
955.1649
955.18466
952.88833
952.50527
951.57915
944.01845
940.47217
939.08795
941.48621
939.07016
943.70603
943.98281
946.83126
952.30887
953.98855
953.32797
950.94858
953.42877
956.81483
955.95086
959.0038
958.00483
969.16538
969.84167
970.17951
969.88694
969.22078
966.54249
965.21254
962.5249
955.93904
953.96271
952.76407
952.95133
950.5826
945.75832
942.00188
940.17249
941.77213
938.27698
942.46562
943.88157
947.61785
950.51021
952.99021
950.3274
949.59135
951.83136
953.87098
956.04575
957.88951
957.07574
968.42511
968.66024
968.85476
969.01829
968.86973
966.75201
961.68094
960.5542
956.31211
953.96493
952.89213
952.61712
949.73092
944.8648
940.40727
940.27176
937.95841
937.55469
940.00412
942.74623
944.77886
946.19096
949.40296
949.64957
949.23867
951.28271
952.66532
953.64634
954.288
954.88747
972.39076
971.11985
969.32213
969.4591
967.05845
962.97399
962.22436
961.83907
958.37944
959.76116
960.96662
961.53443
958.26662
952.96292
952.47834
951.15362
947.35988
944.71954
942.71767
944.62401
947.69619
950.47679
954.87725
959.09654
956.29033
954.2555
952.73322
954.31267
955.63522
957.24199
968.62033
967.66855
967.46515
966.85254
966.63076
962.88079
960.79835
959.79782
956.82618
956.38783
957.3509
958.41316
955.06553
949.80312
948.41005
944.5174
942.24504
941.28661
941.03252
945.17305
948.88729
949.14542
951.58155
953.19776
951.61656
950.60996
952.38758
954.79923
955.05869
955.98998
968.13232
967.68737
968.10782
966.59083
966.73616
963.20012
959.65949
959.59719
956.55676
955.71384
957.04844
957.89813
951.24227
946.92786
947.65665
944.57334
942.44923
938.69695
940.47235
945.54043
949.37971
951.25784
952.05939
953.19602
949.73352
950.07182
952.46508
955.861
956.95426
955.91677
967.69564
967.76935
967.27627
966.72698
966.75102
963.08576
959.04975
959.70287
957.61136
956.68514
956.77023
957.34245
951.32354
946.51833
946.72893
944.5597
942.79632
938.62272
941.93621
947.45711
948.28006
948.73573
950.10892
948.06567
948.95784
949.75389
951.45499
955.91339
956.4471
955.83411
966.38816
966.4318
966.53403
966.71846
966.89411
963.15507
957.64666
955.99546
955.4533
954.45392
954.96496
954.17634
950.1722
943.8225
943.44807
943.47613
941.09189
938.5862
940.52387
942.2682
943.38657
943.82718
945.28743
945.80785
949.40817
951.47241
952.45856
954.15744
954.49995
954.55785
)
;

boundaryField
{
    minX
    {
        type            zeroGradient;
    }
    maxX
    {
        type            zeroGradient;
    }
    minY
    {
        type            fixedValue;
        value           uniform 1073;
    }
    minZ
    {
        type            zeroGradient;
    }
    maxZ
    {
        type            zeroGradient;
    }
    bottomWater_to_rightSolid
    {
        type            compressible::turbulentTemperatureCoupledBaffleMixed;
        refValue        nonuniform List<scalar> 
130
(
748.34338
756.25444
764.46281
772.57301
780.29202
787.40022
793.75443
799.2753
803.92411
807.68106
810.51121
812.40446
813.353
742.50407
751.742
761.12472
770.18172
778.60941
786.22651
792.93771
798.70337
803.51322
807.3741
810.27481
812.21149
813.18095
730.82268
743.10717
754.97627
765.9004
775.66647
784.2145
791.56028
797.75209
802.84254
806.87768
809.89393
811.90536
812.91116
713.36749
731.37281
747.2347
760.81198
772.31356
781.99232
790.07372
796.74326
802.14262
806.37729
809.52121
811.60781
812.64827
692.69098
720.10009
740.70286
756.84202
769.81407
780.36969
788.99217
796.0016
801.61652
805.99089
809.22606
811.36041
812.42297
692.26619
719.65838
740.27093
756.4436
769.471
780.08335
788.74574
795.7863
801.41759
805.80521
809.048
811.18783
812.25338
712.11243
730.11055
746.02484
759.70329
771.33568
781.15489
789.34022
796.08736
801.5331
805.80208
808.96894
811.06594
812.11258
728.93844
741.24821
753.20803
764.27102
774.202
782.92875
790.40887
796.69691
801.85791
805.95053
809.00097
811.02805
812.04229
740.17453
749.48944
759.00017
768.21508
776.81353
784.60679
791.46697
797.35518
802.2667
806.19262
809.13485
811.09602
812.07837
745.75902
753.76452
762.12619
770.41601
778.31123
785.59333
792.10931
797.78187
802.54503
806.37036
809.24943
811.16996
812.13126
)
;
        refGradient     uniform 0;
        valueFraction   uniform 0.99248593;
        value           nonuniform List<scalar> 
130
(
749.90355
757.75455
765.88518
773.92319
781.58697
788.64467
794.94726
800.42125
805.03539
808.78481
811.59819
813.48066
814.4223
744.07379
753.24377
762.56122
771.55641
779.92439
787.48411
794.14118
799.86033
804.62919
808.47608
811.36242
813.2879
814.25001
732.4495
744.67579
756.46072
767.3021
776.99922
785.48432
792.77262
798.91604
803.96707
807.96776
810.96709
812.97495
813.97681
715.08782
733.01551
748.75745
762.23003
773.65004
783.26178
791.2832
797.90335
803.26152
807.46297
810.59093
812.67442
813.71044
694.51795
721.76817
742.2195
758.25279
771.1532
781.63779
790.20115
797.16074
802.73334
807.07577
810.30688
812.43021
813.48797
694.05754
721.28886
741.74346
757.81002
770.79024
781.35505
789.95805
796.96151
802.54606
806.90959
810.14702
812.2775
813.33855
713.76673
731.6478
747.44785
761.04279
772.6183
782.41957
790.55025
797.2657
802.6635
806.90369
810.06087
812.15024
813.19444
730.50096
742.7171
754.60571
765.60645
775.48433
784.20084
791.62648
797.8594
802.97381
807.04751
810.08291
812.10077
813.11276
741.65764
750.92095
760.38083
769.54179
778.08622
785.84511
792.65557
798.49642
803.38642
807.29322
810.22072
812.17198
813.15144
747.20791
755.16783
763.47979
771.71575
779.55493
786.79328
793.2642
798.92122
803.66407
807.46806
810.33827
812.24694
813.20146
)
;
        Tnbr            T;
        thicknessLayers List<scalar> 0();
        kappaLayers     List<scalar> 0();
        kappaMethod     fluidThermo;
        kappa           none;
        alphaAni        none;
        alpha           none;
        field           T;
    }
    bottomWater_to_leftSolid
    {
        type            compressible::turbulentTemperatureCoupledBaffleMixed;
        refValue        nonuniform List<scalar> 
130
(
876.80587
876.75396
876.63866
876.45001
876.21573
875.97948
875.74657
875.52083
875.29852
875.08368
874.90252
874.76812
874.68241
876.70854
876.65511
876.53759
876.35174
876.1237
875.88037
875.63052
875.38392
875.14157
874.90234
874.68262
874.51193
874.39257
876.50339
876.44347
876.32488
876.15511
875.94221
875.68888
875.4133
875.13521
874.85102
874.55726
874.25877
874.03523
873.92696
876.2495
876.18975
876.07416
875.90577
875.68949
875.42707
875.11676
874.79845
874.46248
874.09661
873.72621
873.47935
873.34934
875.98846
875.92332
875.79562
875.61047
875.37532
875.09024
874.75222
874.40851
874.04026
873.63118
873.26517
872.99797
872.82249
875.77284
875.70429
875.55612
875.33321
875.07241
874.77258
874.43149
874.07416
873.6946
873.28081
872.9264
872.65913
872.48927
875.53122
875.46948
875.34077
875.14023
874.86271
874.53399
874.19335
873.82066
873.44547
873.06158
872.71975
872.45972
872.3105
875.24371
875.1908
875.07815
874.8994
874.65034
874.3336
873.9922
873.63753
873.28368
872.95647
872.6657
872.43012
872.28452
874.97067
874.92582
874.82605
874.66403
874.4356
874.1428
873.81333
873.4821
873.15368
872.85579
872.60335
872.41011
872.29105
874.81319
874.77012
874.67445
874.51854
874.29656
874.00531
873.68306
873.36968
873.07581
872.81046
872.58906
872.41444
872.30246
)
;
        refGradient     uniform 0;
        valueFraction   uniform 0.99248593;
        value           nonuniform List<scalar> 
130
(
877.52054
877.47058
877.35598
877.13855
876.8677
876.62499
876.3883
876.1632
875.93487
875.70192
875.51528
875.38263
875.27388
877.43167
877.38149
877.26061
877.04637
876.79126
876.53729
876.27807
876.02612
875.783
875.53353
875.30066
875.12843
874.94429
877.21799
877.14882
877.01824
876.8424
876.62793
876.35534
876.06314
875.78416
875.49861
875.20038
874.83806
874.57815
874.48736
876.95573
876.88861
876.7701
876.59859
876.38099
876.11906
875.77192
875.45006
875.11251
874.71905
874.22068
873.96965
873.83592
876.68474
876.6121
876.47902
876.291
876.0537
875.76303
875.37633
875.03583
874.66863
874.18661
873.76942
873.49327
873.23803
876.50206
876.43171
876.2634
875.99178
875.7251
875.42715
875.05893
874.70006
874.32011
873.83129
873.44679
873.1637
872.93849
876.27475
876.20876
876.07802
875.87591
875.56052
875.19293
874.86069
874.4474
874.06131
873.63649
873.24768
872.9597
872.79204
875.97678
875.92151
875.80777
875.6287
875.37696
875.02306
874.65982
874.29146
873.90703
873.58007
873.28179
873.0228
872.83516
875.67286
875.63012
875.53256
875.37299
875.14517
874.83858
874.4736
874.13633
873.77852
873.46526
873.20664
873.01277
872.87291
875.50128
875.45885
875.36467
875.21132
874.99233
874.67506
874.31396
873.99052
873.6948
873.42395
873.20806
873.02879
872.88755
)
;
        Tnbr            T;
        thicknessLayers List<scalar> 0();
        kappaLayers     List<scalar> 0();
        kappaMethod     fluidThermo;
        kappa           none;
        alphaAni        none;
        alpha           none;
        field           T;
    }
    bottomWater_to_heater
    {
        type            compressible::turbulentTemperatureCoupledBaffleMixed;
        refValue        nonuniform List<scalar> 
92
(
729.13112
731.26339
735.38865
741.22036
719.8248
722.30835
727.15425
734.06386
700.31565
703.49117
709.84961
719.20717
345.52782
342.78055
342.82767
345.62421
421.98406
418.61088
418.87584
422.59847
487.11059
484.28622
485.06844
488.99925
542.23709
540.53816
542.53162
547.21216
668.52813
587.57883
672.50285
587.83308
681.01628
592.50403
694.72009
600.19617
345.52782
345.62421
421.98406
422.59847
487.11059
488.99925
542.23709
547.21216
587.57883
600.19617
345.44369
345.44369
342.72074
342.77283
345.54547
345.54547
421.88197
421.88197
418.52478
418.78597
422.47361
422.47361
487.01337
487.01337
484.19677
484.96722
488.85979
488.85979
542.14002
542.14002
540.43686
542.41084
547.05645
547.05645
587.45898
587.45898
587.6872
592.33575
599.99334
599.99334
667.39167
671.33811
679.82041
693.49455
698.51577
701.65543
707.99038
717.32599
717.58437
720.02481
724.83441
731.71786
726.62306
728.72355
732.8118
738.61678
)
;
        refGradient     uniform 0;
        valueFraction   nonuniform List<scalar> 
92
(
0.99248593
0.99248593
0.99248593
0.99248593
0.99248593
0.99248593
0.99248593
0.99248593
0.99248593
0.99248593
0.99248593
0.99248593
0.99248593
0.99248593
0.99248593
0.99248593
0.99248593
0.99248593
0.99248593
0.99248593
0.99248593
0.99248593
0.99248593
0.99248593
0.99248593
0.99248593
0.99248593
0.99248593
0.99248593
0.99248593
0.99248593
0.99248593
0.99248593
0.99248593
0.99248593
0.99248593
0.99248593
0.99248593
0.99248593
0.99248593
0.99248593
0.99248593
0.99248593
0.99248593
0.99248593
0.99248593
0.99248593
0.99248593
0.99248593
0.99248593
0.99248593
0.99248593
0.99248593
0.99248593
0.99248593
0.99248593
0.99248593
0.99248593
0.99248593
0.99248593
0.99248593
0.99248593
0.99248593
0.99248593
0.99248593
0.99248593
0.99248593
0.99248593
0.99248593
0.99248593
0.99248593
0.99248593
0.99248593
0.99248593
0.99248593
0.99248593
0.99248593
0.99248593
0.99248593
0.99248593
0.99248593
0.99248593
0.99248593
0.99248593
0.99248593
0.99248593
0.99248593
0.99248593
0.99248593
0.99248593
0.99248593
0.99248593
)
;
        value           nonuniform List<scalar> 
92
(
730.79875
732.92699
737.03466
742.83113
721.53512
724.00637
728.82164
735.68993
702.17228
705.32172
711.61256
720.90899
350.033
347.27897
347.27388
350.07415
425.91559
422.53443
422.76239
426.47226
490.54571
487.70601
488.45941
492.37061
545.24866
543.52621
545.51426
550.15729
670.53709
590.19605
674.49005
590.45648
682.94508
595.09791
696.55462
602.74095
349.99166
350.01777
425.89627
426.44482
490.518
492.36089
545.20498
550.1311
590.13772
602.71815
349.85703
349.82515
347.10635
347.14066
349.89426
349.90753
425.76936
425.72574
422.36365
422.60474
426.2781
426.26261
490.40564
490.38026
487.55442
488.30049
492.17709
492.16122
545.10111
545.10331
543.37592
545.32602
549.93307
549.94252
590.04995
590.05891
590.27187
594.879
602.47803
602.48152
669.39098
673.29422
681.70629
695.28015
700.34855
703.42632
709.71091
718.97408
719.29221
721.68076
726.4532
733.26753
728.25513
730.33699
734.39475
740.13816
)
;
        Tnbr            T;
        thicknessLayers List<scalar> 0();
        kappaLayers     List<scalar> 0();
        kappaMethod     fluidThermo;
        kappa           none;
        alphaAni        none;
        alpha           none;
        field           T;
    }
}


// ************************************************************************* //
