/*--------------------------------*- C++ -*----------------------------------*\
| =========                 |                                                 |
| \\      /  F ield         | OpenFOAM: The Open Source CFD Toolbox           |
|  \\    /   O peration     | Version:  v2012                                 |
|   \\  /    A nd           | Website:  www.openfoam.com                      |
|    \\/     M anipulation  |                                                 |
\*---------------------------------------------------------------------------*/
FoamFile
{
    version     2.0;
    format      ascii;
    class       surfaceScalarField;
    location    "40/topAir";
    object      phi;
}
// * * * * * * * * * * * * * * * * * * * * * * * * * * * * * * * * * * * * * //

dimensions      [1 0 -1 0 0 0 0];
oriented        oriented;


internalField   nonuniform List<scalar> 
3140
(
9.2462159e-06
-5.5881609e-08
7.8890004e-08
9.2175569e-06
-6.8383288e-08
9.7513219e-08
9.2083173e-06
-8.7996131e-08
9.7890596e-08
9.1990266e-06
-8.2978366e-08
9.3081759e-08
9.1820776e-06
-6.5859954e-08
8.3759693e-08
9.1592732e-06
-4.5874912e-08
6.9753278e-08
9.1344368e-06
-2.5064712e-08
5.1086629e-08
9.1141443e-06
-6.2056992e-09
2.7786202e-08
9.0949238e-06
2.0328789e-08
2.7507741e-10
9.0924086e-06
5.2153928e-08
-4.8171705e-08
9.1096009e-06
9.1370549e-08
-1.0702264e-07
9.1500559e-06
1.4388989e-07
-1.8274163e-07
9.215229e-06
2.1747393e-07
-2.8099079e-07
9.3060825e-06
3.1838909e-07
-4.0755514e-07
9.4166654e-06
4.5700359e-07
-5.6587856e-07
9.5350082e-06
6.4060049e-07
-7.5722768e-07
9.6453557e-06
8.7073455e-07
-9.7937288e-07
9.732621e-06
1.1398974e-06
-1.2254749e-06
9.7875697e-06
1.4308608e-06
-1.4841559e-06
9.8091999e-06
1.7210777e-06
-1.7410969e-06
9.8034629e-06
1.9889879e-06
-1.981684e-06
9.7792274e-06
2.2191569e-06
-2.1933947e-06
9.7443315e-06
2.4032821e-06
-2.3668907e-06
9.7016777e-06
2.5397423e-06
-2.4956138e-06
9.6431943e-06
2.6330077e-06
-2.5730589e-06
9.5381741e-06
2.6954631e-06
-2.5889759e-06
9.3108388e-06
2.7550759e-06
-2.5262603e-06
8.7965677e-06
2.8717429e-06
-2.3559655e-06
7.6574166e-06
3.1726503e-06
-2.0319534e-06
3.9768014e-06
-1.4910789e-06
9.2211619e-06
-9.0822302e-08
8.2748144e-08
9.1922043e-06
-1.4650361e-07
1.0709425e-07
9.1571041e-06
-1.6785578e-07
1.1499095e-07
9.1293634e-06
-1.7578608e-07
1.205977e-07
9.1129035e-06
-1.7383348e-07
1.2450367e-07
9.1059791e-06
-1.6492378e-07
1.2606686e-07
9.1076527e-06
-1.5215047e-07
1.2553124e-07
9.1167384e-06
-1.3823728e-07
1.2309212e-07
9.1387789e-06
-1.2047192e-07
1.189345e-07
9.1763887e-06
-9.6925676e-08
1.1168364e-07
9.2332955e-06
-6.42259e-08
9.8956359e-08
9.3150091e-06
-1.5521021e-08
7.803588e-08
9.4293486e-06
5.7544131e-08
4.6025573e-08
9.5743729e-06
1.7120274e-07
2.7248282e-09
9.7638882e-06
3.4176284e-07
-7.356393e-08
9.9908559e-06
5.8912977e-07
-1.7462168e-07
1.0236004e-05
9.3350253e-07
-3.0687764e-07
1.0471128e-05
1.3748924e-06
-4.6894303e-07
1.0667787e-05
1.8875415e-06
-6.5206751e-07
1.0807155e-05
2.4245397e-06
-8.4150954e-07
1.088431e-05
2.9344011e-06
-1.0212407e-06
1.0904264e-05
3.3786966e-06
-1.1781855e-06
1.0876309e-05
3.7383774e-06
-1.3058682e-06
1.0806041e-05
4.009309e-06
-1.3980717e-06
1.0685368e-05
4.196514e-06
-1.4416498e-06
1.0477067e-05
4.3165599e-06
-1.4116464e-06
1.0090292e-05
4.4111039e-06
-1.2681256e-06
9.3562125e-06
4.5662599e-06
-9.5931247e-07
8.0473577e-06
4.9356338e-06
-4.5297312e-07
5.6772694e-06
4.2290162e-07
9.249349e-06
-1.548317e-07
8.3615768e-08
9.1850762e-06
-1.9092082e-07
1.086903e-07
9.0960691e-06
-1.9642265e-07
1.1757498e-07
8.9941521e-06
-1.9822167e-07
1.2435469e-07
8.8861073e-06
-1.958231e-07
1.3003782e-07
8.7754702e-06
-1.8871819e-07
1.3443705e-07
8.6639223e-06
-1.7894658e-07
1.3835188e-07
8.5510806e-06
-1.6820894e-07
1.4282443e-07
8.4381411e-06
-1.5670031e-07
1.4918254e-07
8.3263673e-06
-1.4372e-07
1.5858732e-07
8.2190967e-06
-1.2899068e-07
1.7206024e-07
8.1265716e-06
-1.1310908e-07
1.9014584e-07
8.0634913e-06
-9.1540076e-08
2.1221317e-07
8.0480829e-06
-5.0960718e-08
2.3765729e-07
8.0961265e-06
2.8253249e-08
2.6562508e-07
8.2373345e-06
1.5470522e-07
2.9350442e-07
8.477353e-06
3.7991018e-07
3.1405509e-07
8.7986607e-06
7.3036852e-07
3.2393967e-07
9.1542789e-06
1.2048391e-06
3.2805587e-07
9.4909867e-06
1.749663e-06
3.393499e-07
9.7720615e-06
2.2836193e-06
3.7103116e-07
9.9788492e-06
2.7432634e-06
4.300457e-07
1.0101379e-05
3.0986857e-06
5.1858209e-07
1.0129508e-05
3.3457045e-06
6.3687845e-07
1.0049053e-05
3.4949221e-06
7.834089e-07
9.8327281e-06
3.5642029e-06
9.6999579e-07
9.4166037e-06
3.5830095e-06
1.2454844e-06
8.69248e-06
3.6277973e-06
1.6638125e-06
7.4312722e-06
3.8841605e-06
2.3138854e-06
4.7346511e-06
3.2610446e-06
9.0324516e-06
8.1663524e-08
8.7358173e-06
1.0571347e-07
8.4258553e-06
1.1353923e-07
8.108924e-06
1.1870964e-07
7.7905757e-06
1.2252522e-07
7.4769484e-06
1.249093e-07
7.1713046e-06
1.2669771e-07
6.8740619e-06
1.2903448e-07
6.5842164e-06
1.3314648e-07
6.3000274e-06
1.4047074e-07
6.0182936e-06
1.5274585e-07
5.7329215e-06
1.7226676e-07
5.4388362e-06
2.0255099e-07
5.1397516e-06
2.4813311e-07
4.8539634e-06
3.1406097e-07
4.600236e-06
4.0848515e-07
4.4311095e-06
5.4918135e-07
4.4048213e-06
7.569971e-07
4.5631883e-06
1.0471102e-06
4.8976466e-06
1.4161605e-06
5.3460837e-06
1.8363892e-06
5.8266842e-06
2.264026e-06
6.2667595e-06
2.6600494e-06
6.6085315e-06
3.0053905e-06
6.8022024e-06
3.3026925e-06
6.7990654e-06
3.5687418e-06
6.5643556e-06
3.8190706e-06
6.0926757e-06
4.1007735e-06
5.5468624e-06
4.4312161e-06
4.6663446e-06
9.366314e-06
-5.4029396e-08
3.5830298e-08
9.4694785e-06
-6.6829368e-08
6.1647868e-08
9.5861198e-06
-9.0420258e-08
7.231979e-08
9.6980944e-06
-9.3472239e-08
7.5382391e-08
9.7958967e-06
-8.7581585e-08
7.4473646e-08
9.8792011e-06
-8.2722688e-08
7.0221028e-08
9.9497455e-06
-8.0882882e-08
6.257569e-08
1.0010051e-05
-8.2648227e-08
5.1368719e-08
1.0065085e-05
-8.8997555e-08
3.5555809e-08
1.010992e-05
-1.0317169e-07
1.1549364e-08
1.0147001e-05
-1.2585858e-07
-1.6805885e-08
1.017555e-05
-1.5886276e-07
-5.0945758e-08
1.0196049e-05
-2.0405463e-07
-9.5925144e-08
1.0216087e-05
-2.7184291e-07
-1.5424241e-07
1.0236621e-05
-3.5655327e-07
-2.2837352e-07
1.0260266e-05
-4.593317e-07
-3.2008935e-07
1.0289922e-05
-5.7728246e-07
-4.3034405e-07
1.0328295e-05
-7.0306561e-07
-5.5943564e-07
1.0377421e-05
-8.2458739e-07
-7.0740017e-07
1.043758e-05
-9.2600002e-07
-8.7400424e-07
1.0507469e-05
-9.9248173e-07
-1.057867e-06
1.0585783e-05
-1.0160485e-06
-1.254447e-06
1.0670408e-05
-9.9896901e-07
-1.45133e-06
1.0761876e-05
-9.5051712e-07
-1.6353382e-06
1.0862564e-05
-8.8111469e-07
-1.7913868e-06
1.0966213e-05
-7.888066e-07
-1.9025471e-06
1.1039666e-05
-6.4666441e-07
-1.9517377e-06
1.1003847e-05
-3.9350725e-07
-1.9252713e-06
1.0722151e-05
7.6596005e-08
-1.8254107e-06
1.7088541e-06
-1.6340419e-06
9.3511528e-06
-9.1343138e-08
3.7878416e-08
9.4716727e-06
-1.481892e-07
6.7950307e-08
9.5844754e-06
-1.7170717e-07
8.3505637e-08
9.7035524e-06
-1.8410277e-07
9.2198782e-08
9.8317928e-06
-1.8918144e-07
9.793018e-08
9.9645535e-06
-1.9054025e-07
1.0121171e-07
1.009885e-05
-1.916506e-07
1.021125e-07
1.0233741e-05
-1.9509079e-07
1.0077797e-07
1.0369766e-05
-2.0297368e-07
9.7042238e-08
1.0506258e-05
-2.1789581e-07
9.0095806e-08
1.0643717e-05
-2.4283759e-07
7.8679672e-08
1.0782839e-05
-2.8087912e-07
6.1153659e-08
1.0925091e-05
-3.3575536e-07
3.5713946e-08
1.1068118e-05
-4.131318e-07
1.2366516e-09
1.1207137e-05
-5.1669389e-07
-5.2183835e-08
1.1343519e-05
-6.4598222e-07
-1.240907e-07
1.1477976e-05
-7.9711072e-07
-2.2124355e-07
1.1613171e-05
-9.5892961e-07
-3.4801371e-07
1.1752506e-05
-1.109312e-06
-5.0641579e-07
1.1897224e-05
-1.2178561e-06
-6.9410001e-07
1.2045757e-05
-1.2588362e-06
-9.0312613e-07
1.2194944e-05
-1.223024e-06
-1.1200764e-06
1.233896e-05
-1.1201412e-06
-1.3283594e-06
1.2475895e-05
-9.7565847e-07
-1.5094851e-06
1.2622325e-05
-8.247136e-07
-1.6440736e-06
1.2824615e-05
-6.8947605e-07
-1.7128346e-06
1.3160286e-05
-5.4750168e-07
-1.7025006e-06
1.3777497e-05
-3.7196827e-07
-1.5975813e-06
1.4882006e-05
-9.8861261e-08
-1.3814805e-06
4.6541803e-07
-1.0728745e-06
9.3799001e-06
-1.5693881e-07
3.8266634e-08
9.4651945e-06
-1.936364e-07
6.884342e-08
9.5255766e-06
-1.9977221e-07
8.5258919e-08
9.5741472e-06
-2.0349466e-07
9.5177936e-08
9.6166714e-06
-2.042372e-07
1.0257264e-07
9.6539696e-06
-2.0153794e-07
1.0814148e-07
9.6861008e-06
-1.9768418e-07
1.1226131e-07
9.7129668e-06
-1.9467399e-07
1.155512e-07
9.7343146e-06
-1.9375244e-07
1.1862595e-07
9.7493421e-06
-1.9626318e-07
1.2194303e-07
9.7569119e-06
-2.0406337e-07
1.2573562e-07
9.7559653e-06
-2.1969954e-07
1.2993627e-07
9.745291e-06
-2.467767e-07
1.3393651e-07
9.7232046e-06
-2.8994149e-07
1.3658656e-07
9.6902473e-06
-3.5436233e-07
1.3629141e-07
9.6524599e-06
-4.45065e-07
1.3042714e-07
9.6201516e-06
-5.6566391e-07
1.1498717e-07
9.6082553e-06
-7.1019337e-07
8.7198783e-08
9.6297558e-06
-8.5272967e-07
5.0118449e-08
9.7016046e-06
-9.4428676e-07
-5.8497453e-09
9.8240766e-06
-9.4016051e-07
-6.9794552e-08
9.9932063e-06
-8.3029363e-07
-1.3138112e-07
1.0179296e-05
-6.4381273e-07
-1.4330561e-07
1.0345228e-05
-4.1342107e-07
-9.068803e-08
1.0425554e-05
-1.4262025e-07
2.1648459e-08
1.0442718e-05
4.9974585e-08
2.1413012e-07
1.03985e-05
2.0100646e-07
5.4202428e-07
1.0297814e-05
3.1102286e-07
1.0824052e-06
1.0168698e-05
4.3874125e-07
1.906355e-06
6.0977741e-07
3.1190361e-06
9.1565422e-06
3.7129374e-08
9.0022632e-06
6.6355904e-08
8.8343962e-06
8.1633964e-08
8.6591642e-06
9.0447012e-08
8.4807541e-06
9.669813e-08
8.3029766e-06
1.0114901e-07
8.1277265e-06
1.0426401e-07
7.9552943e-06
1.0679333e-07
7.7851385e-06
1.095508e-07
7.6160206e-06
1.1332686e-07
7.4457326e-06
1.1897249e-07
7.270761e-06
1.2754149e-07
7.0860588e-06
1.4048007e-07
6.8845372e-06
1.5971815e-07
6.6566724e-06
1.8757077e-07
6.3926983e-06
2.2740778e-07
6.0900357e-06
2.8621297e-07
5.7601617e-06
3.7676741e-07
5.4361908e-06
5.1857629e-07
5.1732483e-06
7.352827e-07
5.0250144e-06
1.0452445e-06
5.0075797e-06
1.4522512e-06
5.0835685e-06
1.9415486e-06
5.192022e-06
2.4849321e-06
5.3029353e-06
3.0506081e-06
5.3211793e-06
3.6018432e-06
5.2061276e-06
4.1364338e-06
4.9286572e-06
4.690513e-06
4.5136214e-06
5.2861909e-06
5.9056217e-06
9.3402732e-06
-5.4517214e-08
1.9299731e-08
9.4340198e-06
-6.6538084e-08
3.4910333e-08
9.5516361e-06
-8.8722051e-08
4.4077751e-08
9.6683508e-06
-8.9175035e-08
4.8648462e-08
9.7730273e-06
-7.9839874e-08
5.057538e-08
9.8646787e-06
-7.1043708e-08
5.0667806e-08
9.9438272e-06
-6.461137e-08
4.9196046e-08
1.0011351e-05
-6.1258213e-08
4.6352214e-08
1.0067821e-05
-6.1850768e-08
4.2266934e-08
1.0111314e-05
-6.7559906e-08
3.7017565e-08
1.0143272e-05
-7.8348667e-08
3.104968e-08
1.0163922e-05
-9.4326686e-08
2.4249715e-08
1.0169748e-05
-1.162828e-07
1.6094964e-08
1.0168859e-05
-1.5571118e-07
3.9338898e-09
1.0158282e-05
-2.0680824e-07
-9.4099195e-09
1.0138481e-05
-2.7460841e-07
-2.411309e-08
1.0111941e-05
-3.6283203e-07
-3.9433811e-08
1.0083112e-05
-4.7546597e-07
-5.3649529e-08
1.0060313e-05
-6.1673089e-07
-6.6449196e-08
1.0055887e-05
-7.8882039e-07
-7.942936e-08
1.0083687e-05
-9.8824328e-07
-9.6199932e-08
1.0154315e-05
-1.2021322e-06
-1.2181255e-07
1.0274432e-05
-1.4087397e-06
-1.6164072e-07
1.0444652e-05
-1.5844435e-06
-2.2006381e-07
1.0662558e-05
-1.7094162e-06
-2.9879688e-07
1.0921854e-05
-1.764126e-06
-3.9657474e-07
1.1196329e-05
-1.7124598e-06
-5.1252521e-07
1.1380646e-05
-1.4547988e-06
-6.5345317e-07
1.118963e-05
-7.6656751e-07
-8.6632607e-07
9.5922633e-07
-1.263968e-06
9.3230105e-06
-9.0981604e-08
2.0301657e-08
9.4338313e-06
-1.4735727e-07
3.7964897e-08
9.548881e-06
-1.6976875e-07
4.9533171e-08
9.6757842e-06
-1.8037617e-07
5.6544581e-08
9.8160255e-06
-1.8302845e-07
6.0944838e-08
9.9640824e-06
-1.8125696e-07
6.3456611e-08
1.011585e-05
-1.7833008e-07
6.417454e-08
1.0269009e-05
-1.7658865e-07
6.3084568e-08
1.042199e-05
-1.7769624e-07
6.0065129e-08
1.0573131e-05
-1.8321712e-07
5.479471e-08
1.0721517e-05
-1.9468445e-07
4.6835284e-08
1.086675e-05
-2.1374061e-07
3.5564404e-08
1.100917e-05
-2.4285073e-07
2.0111687e-08
1.1143068e-05
-2.8684155e-07
-1.2640999e-09
1.1264098e-05
-3.5125778e-07
-2.8483288e-08
1.1370422e-05
-4.3945911e-07
-6.5274907e-08
1.1458532e-05
-5.577405e-07
-1.141571e-07
1.1526299e-05
-7.1208233e-07
-1.7888272e-07
1.1575323e-05
-9.0794706e-07
-2.6395847e-07
1.161066e-05
-1.1428762e-06
-3.7513606e-07
1.1640612e-05
-1.4029974e-06
-5.1809524e-07
1.1673286e-05
-1.6591143e-06
-6.9553929e-07
1.1717876e-05
-1.8785276e-06
-9.0290903e-07
1.1785444e-05
-2.034819e-06
-1.1263802e-06
1.1894041e-05
-2.1173324e-06
-1.3443993e-06
1.2079388e-05
-2.1248882e-06
-1.5370045e-06
1.2428952e-05
-2.0640678e-06
-1.6999817e-06
1.3164272e-05
-1.9181231e-06
-1.8690406e-06
1.4770239e-05
-1.615803e-06
-2.1375782e-06
-9.8358281e-07
-2.3895272e-06
9.3523539e-06
-1.5656826e-07
2.0454658e-08
9.4284258e-06
-1.928982e-07
3.8312836e-08
9.4917954e-06
-1.9818382e-07
5.0305358e-08
9.5495402e-06
-2.0092213e-07
5.7981045e-08
9.6063502e-06
-2.0054586e-07
6.3283245e-08
9.6627263e-06
-1.9646241e-07
6.6975835e-08
9.7182907e-06
-1.9087793e-07
6.9251822e-08
9.7726792e-06
-1.8568574e-07
7.0269396e-08
9.8253903e-06
-1.8194316e-07
7.0174194e-08
9.8756024e-06
-1.8047616e-07
6.9005761e-08
9.9222605e-06
-1.8225106e-07
6.6663387e-08
9.9640942e-06
-1.8851038e-07
6.2895501e-08
9.9991784e-06
-2.0114459e-07
5.7173378e-08
1.0023332e-05
-2.2313191e-07
4.8754788e-08
1.0030154e-05
-2.5842873e-07
3.6675321e-08
1.0013449e-05
-3.1135401e-07
1.9065904e-08
9.9677652e-06
-3.8797954e-07
-9.0489214e-09
9.887097e-06
-4.9676217e-07
-4.740947e-08
9.7788415e-06
-6.4431577e-07
-1.0521105e-07
9.6526321e-06
-8.3254784e-07
-1.899119e-07
9.5271392e-06
-1.0424578e-06
-3.0475366e-07
9.4139331e-06
-1.2301049e-06
-4.470301e-07
9.3355191e-06
-1.3423707e-06
-6.0079039e-07
9.3081087e-06
-1.359985e-06
-7.3773588e-07
9.3398767e-06
-1.3073857e-06
-8.1959462e-07
9.4417724e-06
-1.2174113e-06
-7.946894e-07
9.6669465e-06
-1.1321911e-06
-6.1440314e-07
1.0137711e-05
-1.0883029e-06
-2.1748584e-07
1.1130579e-05
-1.1700567e-06
4.6852315e-07
-1.6895045e-06
1.466958e-06
9.129596e-06
1.991195e-08
8.9659217e-06
3.7131932e-08
8.8008774e-06
4.8494391e-08
8.634867e-06
5.5535257e-08
8.4708267e-06
6.0192578e-08
8.3122288e-06
6.328472e-08
8.1605237e-06
6.5091473e-08
8.0157492e-06
6.5882698e-08
7.8773986e-06
6.5959149e-08
7.7446743e-06
6.5576361e-08
7.6164586e-06
6.4939093e-08
7.4912071e-06
6.4285142e-08
7.3665636e-06
6.3982223e-08
7.2386211e-06
6.45329e-08
7.1010849e-06
6.6683547e-08
6.9454678e-06
7.16778e-08
6.7617291e-06
8.1981924e-08
6.5396518e-06
1.0210061e-07
6.2748599e-06
1.3909578e-07
5.9723647e-06
2.0534358e-07
5.6544801e-06
3.2094182e-07
5.3605998e-06
5.1656496e-07
5.1386308e-06
8.2202528e-07
5.0130051e-06
1.2517652e-06
4.95932e-06
1.7983004e-06
4.9139198e-06
2.4312708e-06
4.7972828e-06
3.1222793e-06
4.5140202e-06
3.8867974e-06
3.8393031e-06
4.792095e-06
5.9618006e-06
9.3347725e-06
-5.4453585e-08
8.2063595e-09
9.4207496e-06
-6.6050984e-08
1.5455706e-08
9.532546e-06
-8.7499458e-08
2.0433961e-08
9.6451504e-06
-8.6553027e-08
2.3404148e-08
9.7467419e-06
-7.5100146e-08
2.5024656e-08
9.8360313e-06
-6.331087e-08
2.5747399e-08
9.9131985e-06
-5.2600749e-08
2.5792609e-08
9.9786673e-06
-4.3157485e-08
2.5298203e-08
1.0032827e-05
-3.4932885e-08
2.4383402e-08
1.007587e-05
-2.7766468e-08
2.3161527e-08
1.0107864e-05
-2.122937e-08
2.177695e-08
1.0127667e-05
-1.464093e-08
2.0647016e-08
1.0132393e-05
-7.4129439e-09
2.0402863e-08
1.0128103e-05
-8.2147251e-09
1.8089876e-08
1.0117232e-05
-1.0672583e-08
1.3813844e-08
1.010039e-05
-1.4891856e-08
9.3294396e-09
1.0078087e-05
-2.2177764e-08
6.7831766e-09
1.0051819e-05
-3.3912676e-08
8.2955206e-09
1.0024169e-05
-5.2737606e-08
1.5726089e-08
9.9989349e-06
-8.316741e-08
3.0772269e-08
9.9821944e-06
-1.3181339e-07
5.4150992e-08
9.9834708e-06
-2.0624114e-07
8.4921721e-08
1.001549e-05
-3.1142308e-07
1.1947917e-07
1.008974e-05
-4.4314297e-07
1.5047507e-07
1.0206781e-05
-5.813691e-07
1.6711015e-07
1.0340294e-05
-6.8621921e-07
1.5766852e-07
1.0405658e-05
-6.8743074e-07
1.1107033e-07
1.0180809e-05
-4.4057746e-07
1.3540392e-08
9.112366e-06
4.2506448e-07
-2.2125974e-07
2.9594419e-06
-6.648617e-07
9.317017e-06
-9.0798299e-08
8.5986608e-09
9.4190904e-06
-1.4691949e-07
1.677626e-08
9.5271257e-06
-1.6881573e-07
2.2844884e-08
9.6487373e-06
-1.7844915e-07
2.6877044e-08
9.784731e-06
-1.7954228e-07
2.9460932e-08
9.9293781e-06
-1.7540067e-07
3.098847e-08
1.0078406e-05
-1.6893204e-07
3.1589578e-08
1.0229181e-05
-1.6201009e-07
3.1298578e-08
1.0379939e-05
-1.5557473e-07
3.0110016e-08
1.0529369e-05
-1.5017553e-07
2.7960601e-08
1.0676674e-05
-1.4623385e-07
2.4747393e-08
1.0821726e-05
-1.4415786e-07
2.0267846e-08
1.0964942e-05
-1.4455806e-07
1.4305918e-08
1.1098538e-05
-1.5033421e-07
7.549258e-09
1.1225136e-05
-1.6343001e-07
-2.0097162e-09
1.13422e-05
-1.8393305e-07
-1.2962836e-08
1.1449059e-05
-2.1388973e-07
-2.8948825e-08
1.1545279e-05
-2.57676e-07
-5.0970179e-08
1.1630046e-05
-3.2062288e-07
-8.0459222e-08
1.1702265e-05
-4.1054773e-07
-1.1958941e-07
1.1761743e-05
-5.3720642e-07
-1.7180011e-07
1.181121e-05
-7.0848626e-07
-2.4239379e-07
1.1858423e-05
-9.2264096e-07
-3.3855026e-07
1.1914956e-05
-1.1578789e-06
-4.6782813e-07
1.1994578e-05
-1.3705041e-06
-6.3451679e-07
1.2113723e-05
-1.5090244e-06
-8.3293159e-07
1.2300626e-05
-1.5186853e-06
-1.0551633e-06
1.259465e-05
-1.2836198e-06
-1.3194821e-06
1.3056446e-05
-5.3202237e-07
-1.6415088e-06
1.2080143e-06
-1.9576274e-06
9.3465565e-06
-1.5658876e-07
8.6438993e-09
9.4140749e-06
-1.9300429e-07
1.6879594e-08
9.4706154e-06
-1.9814872e-07
2.3098854e-08
9.5232493e-06
-2.0048097e-07
2.7380913e-08
9.5761177e-06
-1.9942761e-07
3.0303384e-08
9.6297412e-06
-1.9429667e-07
3.2253351e-08
9.6838444e-06
-1.871456e-07
3.33694e-08
9.7380727e-06
-1.7967325e-07
3.3713905e-08
9.7919973e-06
-1.7264235e-07
3.332986e-08
9.8450666e-06
-1.6643168e-07
3.2208722e-08
9.8966497e-06
-1.6138994e-07
3.0256125e-08
9.946134e-06
-1.5795751e-07
2.7234817e-08
9.9929872e-06
-1.5684686e-07
2.2637489e-08
1.0034442e-05
-1.5959494e-07
1.6593873e-08
1.0067043e-05
-1.6807271e-07
8.7549551e-09
1.0087568e-05
-1.83746e-07
-1.602033e-09
1.0090569e-05
-2.0975814e-07
-1.6133576e-08
1.0071657e-05
-2.5078447e-07
-3.5336426e-08
1.0022554e-05
-3.1498008e-07
-6.1694614e-08
9.933911e-06
-4.1332093e-07
-9.8436297e-08
9.8006731e-06
-5.5825595e-07
-1.5040403e-07
9.6286676e-06
-7.5862264e-07
-2.2481732e-07
9.4407654e-06
-1.0056509e-06
-3.2977762e-07
9.2710087e-06
-1.2594035e-06
-4.6627925e-07
9.1545453e-06
-1.4582964e-06
-6.1503597e-07
9.144279e-06
-1.5588929e-06
-7.340963e-07
9.352068e-06
-1.5737171e-06
-7.6655051e-07
1.0065757e-05
-1.5581262e-06
-6.5592068e-07
1.2036776e-05
-1.5918664e-06
-4.4179051e-07
-1.8050508e-06
-3.2467294e-07
9.1238692e-06
8.4008322e-09
8.9516983e-06
1.6298394e-08
8.7798878e-06
2.2156189e-08
8.608891e-06
2.6050996e-08
8.4410901e-06
2.8565975e-08
8.2799632e-06
3.0115085e-08
8.1270344e-06
3.0875005e-08
7.9822916e-06
3.0952888e-08
7.8451611e-06
3.0448248e-08
7.7148797e-06
2.9427457e-08
7.5905296e-06
2.7901217e-08
7.4710352e-06
2.5824563e-08
7.355059e-06
2.3114981e-08
7.2402297e-06
1.9771525e-08
7.1228955e-06
1.5950423e-08
6.9989622e-06
1.18718e-08
6.8630892e-06
8.1049119e-09
6.7087559e-06
5.6594877e-09
6.5271106e-06
5.7744171e-09
6.3086579e-06
1.049649e-08
6.0463765e-06
2.5012113e-08
5.7426083e-06
6.1823866e-08
5.4171016e-06
1.4215899e-07
5.1114027e-06
2.9863595e-07
4.88073e-06
5.7163562e-07
4.7635996e-06
9.9079266e-07
4.7477503e-06
1.5658637e-06
4.7687652e-06
2.309125e-06
4.6761381e-06
3.2942513e-06
4.6952759e-06
9.3319727e-06
-5.454111e-08
1.689174e-13
9.4140106e-06
-6.611111e-08
7.4315831e-14
9.522565e-06
-8.7467591e-08
4.5001432e-14
9.6330166e-06
-8.6240699e-08
1.6736518e-14
9.7332315e-06
-7.4249923e-08
-3.9885565e-15
9.8216869e-06
-6.1649977e-08
-2.276706e-14
9.8984555e-06
-4.9812778e-08
-3.4414856e-14
9.963896e-06
-3.8884156e-08
-4.2175399e-14
1.0018386e-05
-2.8762391e-08
-4.5130456e-14
1.0062189e-05
-1.9218424e-08
-4.2037664e-14
1.009542e-05
-9.9593693e-09
-3.7473961e-14
1.011807e-05
-4.4052215e-10
-2.2680711e-14
1.0121954e-05
1.8143646e-08
-2.3207631e-14
1.0121145e-05
2.0542581e-08
1.4818386e-15
1.0114272e-05
2.2349019e-08
7.1280302e-14
1.0101799e-05
2.3485434e-08
2.0323783e-13
1.0085062e-05
2.5227982e-08
3.6049329e-13
1.0064004e-05
3.1093084e-08
5.9626121e-13
1.0040345e-05
4.1161773e-08
8.8971051e-13
1.0016919e-05
5.6014615e-08
1.361248e-12
9.9972239e-06
7.5700545e-08
1.9474303e-12
9.9851049e-06
9.8932849e-08
2.8642723e-12
9.9841317e-06
1.2237861e-07
4.0189858e-12
9.9957827e-06
1.4078015e-07
5.6406667e-12
1.0013398e-05
1.5147921e-07
7.7373749e-12
1.0000775e-05
1.7230717e-07
1.026106e-11
9.8280082e-06
2.8589197e-07
1.2899843e-11
9.1380625e-06
7.0558306e-07
1.4570498e-11
7.0747489e-06
1.8441766e-06
1.2126799e-11
4.6487412e-06
6.0342111e-12
9.3137852e-06
-9.075855e-08
1.7608926e-13
9.4112933e-06
-1.4682674e-07
7.6555867e-14
9.5152661e-06
-1.6856485e-07
3.8630642e-14
9.6338138e-06
-1.7786333e-07
3.5998266e-15
9.7674869e-06
-1.7839442e-07
-3.5820346e-14
9.9103174e-06
-1.7340264e-07
-7.3058803e-14
1.0057914e-05
-1.6570711e-07
-1.0895036e-13
1.0207542e-05
-1.5707745e-07
-1.504921e-13
1.0357372e-05
-1.4832071e-07
-1.9190387e-13
1.0506121e-05
-1.3981823e-07
-2.3609711e-13
1.0652942e-05
-1.3181944e-07
-2.8292759e-13
1.0797416e-05
-1.2440461e-07
-3.3559796e-13
1.0944161e-05
-1.1402421e-07
-3.9271722e-13
1.1079602e-05
-1.0704838e-07
-4.5341896e-13
1.1205554e-05
-1.0528136e-07
-5.0989852e-13
1.1322383e-05
-1.0594596e-07
-6.0622009e-13
1.1428785e-05
-1.0973281e-07
-7.00744e-13
1.1526062e-05
-1.1673257e-07
-7.9059522e-13
1.1614666e-05
-1.2744632e-07
-8.6886385e-13
1.1695522e-05
-1.4393886e-07
-9.6706579e-13
1.1769944e-05
-1.6999345e-07
-1.0258739e-12
1.183924e-05
-2.1219583e-07
-1.1337997e-12
1.1904302e-05
-2.8065786e-07
-1.2685004e-12
1.1965367e-05
-3.8755686e-07
-1.5758149e-12
1.2020294e-05
-5.3748303e-07
-2.2626907e-12
1.2056116e-05
-6.9609191e-07
-3.6346693e-12
1.2004761e-05
-7.176847e-07
-6.4723888e-12
1.1734852e-05
-3.437394e-07
-1.1452847e-11
1.0841288e-05
1.0968996e-06
-1.7046641e-11
4.4020435e-06
-2.7260775e-11
9.3434013e-06
-1.565608e-07
1.7922248e-13
9.4064235e-06
-1.929691e-07
7.8492843e-14
9.4589474e-06
-1.979889e-07
3.9396716e-14
9.508537e-06
-2.0007016e-07
5.0587899e-15
9.5590984e-06
-1.9864908e-07
-3.1276573e-14
9.6109583e-06
-1.9300405e-07
-6.6099622e-14
9.663774e-06
-1.8514616e-07
-1.0009972e-13
9.717141e-06
-1.7672065e-07
-1.4253246e-13
9.7705798e-06
-1.6841681e-07
-1.8241725e-13
9.8234908e-06
-1.6050409e-07
-2.3076113e-13
9.875111e-06
-1.5316324e-07
-2.795648e-13
9.9244597e-06
-1.4649392e-07
-3.4092704e-13
9.9734906e-06
-1.403882e-07
-4.2707388e-13
1.0018758e-05
-1.3568766e-07
-5.3524469e-13
1.0056507e-05
-1.342344e-07
-6.764077e-13
1.0084811e-05
-1.3580554e-07
-8.6305873e-13
1.010012e-05
-1.4112312e-07
-1.0689565e-12
1.0099558e-05
-1.5144696e-07
-1.3389081e-12
1.0079432e-05
-1.6894868e-07
-1.6940001e-12
1.0034717e-05
-1.975857e-07
-2.1391711e-12
9.9587356e-06
-2.4433606e-07
-2.7685655e-12
9.8430216e-06
-3.2121309e-07
-3.6165342e-12
9.6792944e-06
-4.4661795e-07
-4.8829176e-12
9.4687542e-06
-6.431988e-07
-6.7091352e-12
9.2406934e-06
-9.2433446e-07
-9.2501841e-12
9.0756441e-06
-1.264927e-06
-1.2637953e-11
9.1736699e-06
-1.5818597e-06
-1.7088623e-11
9.9352449e-06
-1.7605658e-06
-2.3209752e-11
1.1994101e-05
-1.4029152e-06
-2.6887881e-11
6.6951163e-08
-4.555609e-11
9.1207867e-06
1.8680916e-13
8.9441158e-06
8.6235522e-14
8.7682829e-06
5.9363865e-14
8.5942637e-06
3.6129853e-14
8.4241806e-06
1.8506066e-14
8.2612918e-06
1.2473023e-15
8.1070211e-06
-1.8527218e-14
7.961254e-06
-3.7504094e-14
7.8232865e-06
-5.9725511e-14
7.6922113e-06
-8.2662905e-14
7.5669514e-06
-1.0467812e-13
7.4462847e-06
-1.2958949e-13
7.3290151e-06
-1.6339896e-13
7.2131036e-06
-2.0726125e-13
7.0948254e-06
-2.7291567e-13
6.9708989e-06
-3.6130996e-13
6.8378896e-06
-4.7911857e-13
6.692113e-06
-6.4945601e-13
6.528952e-06
-8.813112e-13
6.3418789e-06
-1.2169189e-12
6.1225751e-06
-1.6941138e-12
5.8632134e-06
-2.3858291e-12
5.5588021e-06
-3.4412918e-12
5.2143502e-06
-4.8524177e-12
4.8619346e-06
-6.6574208e-12
4.5884252e-06
-9.2545689e-12
4.5735135e-06
-1.3659672e-11
5.1235445e-06
-2.1170056e-11
7.016518e-06
-2.8996485e-11
1.1980319e-11
9.3319727e-06
-5.4541099e-08
-8.2060101e-09
9.4140106e-06
-6.6111105e-08
-1.5455556e-08
9.5225649e-06
-8.7467579e-08
-2.0433897e-08
9.6330166e-06
-8.6240679e-08
-2.3404147e-08
9.7332315e-06
-7.4249883e-08
-2.5024717e-08
9.8216869e-06
-6.1649911e-08
-2.574751e-08
9.8984556e-06
-4.9812678e-08
-2.5792776e-08
9.963896e-06
-3.8884027e-08
-2.5298415e-08
1.0018386e-05
-2.8762223e-08
-2.4383657e-08
1.0062189e-05
-1.9218215e-08
-2.3161821e-08
1.009542e-05
-9.9591488e-09
-2.1777285e-08
1.011807e-05
-4.4024808e-10
-2.0647424e-08
1.0121955e-05
1.8143992e-08
-2.0403362e-08
1.0121145e-05
2.0543043e-08
-1.8090505e-08
1.0114273e-05
2.2349648e-08
-1.3814514e-08
1.01018e-05
2.3486319e-08
-9.3301901e-09
1.0085063e-05
2.5229173e-08
-6.7840235e-09
1.0064006e-05
3.1094737e-08
-8.2964953e-09
1.0040348e-05
4.1164066e-08
-1.572735e-08
1.0016922e-05
5.6017832e-08
-3.0773881e-08
9.997229e-06
7.570516e-08
-5.4153144e-08
9.9851121e-06
9.8939407e-08
-8.4924625e-08
9.9841413e-06
1.2238817e-07
-1.1948315e-07
9.9957955e-06
1.4079391e-07
-1.5048062e-07
1.0013414e-05
1.5149925e-07
-1.6711762e-07
1.0000792e-05
1.7233607e-07
-1.5767816e-07
9.828022e-06
2.8593178e-07
-1.1108123e-07
9.1380595e-06
7.0563504e-07
-1.3546339e-08
7.0747203e-06
1.8442331e-06
2.21253e-07
4.6487755e-06
6.6485725e-07
9.3137852e-06
-9.0758543e-08
-8.5982964e-09
9.4112933e-06
-1.4682673e-07
-1.6776099e-08
9.5152661e-06
-1.6856485e-07
-2.2844793e-08
9.6338138e-06
-1.7786332e-07
-2.6877021e-08
9.7674869e-06
-1.783944e-07
-2.9460976e-08
9.9103174e-06
-1.734026e-07
-3.0988584e-08
1.0057914e-05
-1.6570705e-07
-3.1589764e-08
1.0207542e-05
-1.5707737e-07
-3.1298832e-08
1.0357372e-05
-1.483206e-07
-3.0110349e-08
1.0506121e-05
-1.3981809e-07
-2.7961018e-08
1.0652942e-05
-1.3181926e-07
-2.4747909e-08
1.0797416e-05
-1.244044e-07
-2.0268465e-08
1.0944161e-05
-1.1402391e-07
-1.4306672e-08
1.1079602e-05
-1.0704795e-07
-7.550222e-09
1.1205554e-05
-1.0528077e-07
2.0088451e-09
1.1322383e-05
-1.0594507e-07
1.2961548e-08
1.1428785e-05
-1.097315e-07
2.8947236e-08
1.1526062e-05
-1.1673067e-07
5.0968199e-08
1.1614667e-05
-1.2744362e-07
8.0456839e-08
1.1695523e-05
-1.43935e-07
1.195865e-07
1.1769946e-05
-1.6998789e-07
1.717966e-07
1.1839242e-05
-2.1218788e-07
2.4238955e-07
1.1904304e-05
-2.8064642e-07
3.3854511e-07
1.196537e-05
-3.8754061e-07
4.6782192e-07
1.2020297e-05
-5.3745994e-07
6.3450928e-07
1.2056117e-05
-6.9605908e-07
8.3292286e-07
1.2004751e-05
-7.1763751e-07
1.0551534e-06
1.1734821e-05
-3.4367981e-07
1.3194722e-06
1.0841186e-05
1.0970057e-06
1.6414972e-06
4.4021685e-06
1.9576231e-06
9.3434013e-06
-1.565608e-07
-8.6435298e-09
9.4064235e-06
-1.9296911e-07
-1.6879438e-08
9.4589474e-06
-1.9798891e-07
-2.3098768e-08
9.508537e-06
-2.0007016e-07
-2.7380892e-08
9.5590984e-06
-1.9864907e-07
-3.0303427e-08
9.6109583e-06
-1.9300404e-07
-3.2253452e-08
9.663774e-06
-1.8514613e-07
-3.336956e-08
9.717141e-06
-1.7672061e-07
-3.3714125e-08
9.7705798e-06
-1.6841676e-07
-3.3330144e-08
9.8234908e-06
-1.6050402e-07
-3.2209074e-08
9.875111e-06
-1.5316315e-07
-3.0256563e-08
9.9244597e-06
-1.4649383e-07
-2.7235343e-08
9.9734905e-06
-1.4038807e-07
-2.2638118e-08
1.0018758e-05
-1.3568747e-07
-1.6594624e-08
1.0056506e-05
-1.3423414e-07
-8.7558537e-09
1.0084811e-05
-1.3580515e-07
1.60082e-09
1.010012e-05
-1.411226e-07
1.6132304e-08
1.0099558e-05
-1.5144621e-07
3.5334938e-08
1.0079432e-05
-1.6894756e-07
6.1692875e-08
1.0034716e-05
-1.9758404e-07
9.8434273e-08
9.9587349e-06
-2.4433356e-07
1.5040171e-07
9.8430205e-06
-3.2120926e-07
2.2481457e-07
9.6792924e-06
-4.4661224e-07
3.297745e-07
9.4687502e-06
-6.4319041e-07
4.6627575e-07
9.2406858e-06
-9.2432253e-07
6.1503216e-07
9.0756311e-06
-1.2649103e-06
7.3409255e-07
9.1736488e-06
-1.5818354e-06
7.6654732e-07
9.9351985e-06
-1.7605265e-06
6.5591967e-07
1.1993984e-05
-1.4028106e-06
4.4180894e-07
6.7116814e-08
3.2471096e-07
9.1207867e-06
-8.4004542e-09
8.9441158e-06
-1.629821e-08
8.7682829e-06
-2.215606e-08
8.5942637e-06
-2.6050911e-08
8.4241806e-06
-2.8565927e-08
8.2612918e-06
-3.0115066e-08
8.1070211e-06
-3.0875014e-08
7.961254e-06
-3.095292e-08
7.8232864e-06
-3.0448308e-08
7.6922113e-06
-2.9427538e-08
7.5669513e-06
-2.7901321e-08
7.4462846e-06
-2.5824686e-08
7.3290149e-06
-2.3115121e-08
7.2131033e-06
-1.9771673e-08
7.094825e-06
-1.5950574e-08
6.9708983e-06
-1.1871949e-08
6.8378887e-06
-8.1050584e-09
6.6921117e-06
-5.6596201e-09
6.5289501e-06
-5.7745203e-09
6.3418763e-06
-1.0496519e-08
6.1225714e-06
-2.5011878e-08
5.8632076e-06
-6.1822718e-08
5.5587932e-06
-1.4215707e-07
5.2143366e-06
-2.9863259e-07
4.8619145e-06
-5.7163047e-07
4.5883977e-06
-9.9078707e-07
4.5734788e-06
-1.5658594e-06
5.1235061e-06
-2.3091243e-06
7.0165297e-06
-3.2942548e-06
-4.6952251e-06
9.3347725e-06
-5.445357e-08
-1.9299371e-08
9.4207496e-06
-6.6050973e-08
-3.4910206e-08
9.5325461e-06
-8.7499451e-08
-4.4077695e-08
9.6451505e-06
-8.6553019e-08
-4.8648477e-08
9.7467419e-06
-7.5100132e-08
-5.0575468e-08
9.8360313e-06
-6.331084e-08
-5.0667964e-08
9.9131985e-06
-5.2600691e-08
-4.9196275e-08
9.9786674e-06
-4.3157398e-08
-4.6352504e-08
1.0032827e-05
-3.4932744e-08
-4.2267311e-08
1.007587e-05
-2.7766283e-08
-3.7018012e-08
1.0107864e-05
-2.1229102e-08
-3.1050214e-08
1.0127667e-05
-1.4640625e-08
-2.425035e-08
1.0132393e-05
-7.4125607e-09
-1.609578e-08
1.0128103e-05
-8.2141812e-09
-3.9352687e-09
1.0117232e-05
-1.0671937e-08
9.4088421e-09
1.010039e-05
-1.489106e-08
2.4111604e-08
1.0078087e-05
-2.2176689e-08
3.9431913e-08
1.0051819e-05
-3.3911342e-08
5.3647169e-08
1.0024168e-05
-5.2735914e-08
6.6446267e-08
9.9989348e-06
-8.3165418e-08
7.9425699e-08
9.9821942e-06
-1.3181095e-07
9.6195425e-08
9.9834706e-06
-2.0623835e-07
1.2180685e-07
1.001549e-05
-3.1141993e-07
1.6163366e-07
1.0089739e-05
-4.4313956e-07
2.20055e-07
1.020678e-05
-5.8136532e-07
2.9878618e-07
1.0340291e-05
-6.8621429e-07
3.9656204e-07
1.0405651e-05
-6.8742314e-07
5.1251069e-07
1.01808e-05
-4.4056505e-07