/*--------------------------------*- C++ -*----------------------------------*\
| =========                 |                                                 |
| \\      /  F ield         | OpenFOAM: The Open Source CFD Toolbox           |
|  \\    /   O peration     | Version:  v2012                                 |
|   \\  /    A nd           | Website:  www.openfoam.com                      |
|    \\/     M anipulation  |                                                 |
\*---------------------------------------------------------------------------*/
FoamFile
{
    version     2.0;
    format      ascii;
    class       volScalarField;
    location    "40/topAir";
    object      rho;
}
// * * * * * * * * * * * * * * * * * * * * * * * * * * * * * * * * * * * * * //

dimensions      [1 -3 0 0 0 0 0];


internalField   nonuniform List<scalar> 
1200
(
1.136384
1.1158275
1.0974314
1.0808419
1.0657268
1.05184
1.0389891
1.0270446
1.0160226
1.0059221
0.99668345
0.98826791
0.98066845
0.97443865
0.96898904
0.96437877
0.96068864
0.95799711
0.95635591
0.95574235
0.95604648
0.95707332
0.95858187
0.96032148
0.96204978
0.96350756
0.96435022
0.96403119
0.96172923
0.95705447
1.1581258
1.1571731
1.1558423
1.1541859
1.1522475
1.1500627
1.1476607
1.1450592
1.1419891
1.1382812
1.1338155
1.1283724
1.121778
1.1138581
1.1045135
1.0937734
1.0819716
1.0697625
1.0579797
1.0473908
1.0384996
1.0314783
1.0262316
1.0224694
1.0197415
1.0174173
1.0145908
1.0098764
1.0011187
0.98731613
1.1586084
1.1585767
1.1585176
1.1584249
1.1582935
1.1581189
1.1578972
1.1576246
1.1572908
1.1568812
1.1563778
1.1557496
1.1547421
1.1529746
1.1499369
1.1449968
1.1374663
1.1270141
1.1140154
1.0995253
1.0848739
1.0712074
1.0592479
1.0492763
1.0412152
1.0347027
1.0290964
1.0233564
1.0156867
1.0040225
1.1586181
1.1586171
1.1586146
1.1586097
1.1586014
1.1585883
1.1585689
1.1585414
1.1585036
1.1584526
1.1583848
1.1582948
1.158167
1.1579674
1.157588
1.1566537
1.1543821
1.1495024
1.1408658
1.1285524
1.1140101
1.0990186
1.0848751
1.0722589
1.0613794
1.0521267
1.0441306
1.0366712
1.0283613
1.0173686
1.1363742
1.1160386
1.0980529
1.0820256
1.0676165
1.0545899
1.0427735
1.0320388
1.0223016
1.0135225
1.0056938
0.99883989
0.99302304
0.98903701
0.98620348
0.98456197
0.98409584
0.9846987
0.98616874
0.98821444
0.99051559
0.99280201
0.99490839
0.99674488
0.99823224
0.99916906
0.99905945
0.99686806
0.99113107
0.98432896
1.1581261
1.1571912
1.1559105
1.1543464
1.1525507
1.1505674
1.1484346
1.1461869
1.1438521
1.1414582
1.1390397
1.1366416
1.1343304
1.1322161
1.130312
1.1286575
1.1272725
1.1261348
1.1251611
1.1242043
1.1230977
1.1217248
1.1200593
1.1181414
1.1160254
1.1137005
1.1110909
1.1081308
1.1040633
1.0858941
1.1586084
1.1585776
1.1585215
1.1584357
1.1583171
1.1581635
1.1579732
1.1577455
1.1574799
1.1571763
1.1568348
1.1564558
1.1560334
1.1555508
1.1549715
1.1542322
1.1532408
1.1518739
1.1499391
1.1471208
1.1431093
1.1377892
1.1313044
1.1239213
1.1159758
1.1074076
1.0975665
1.0860519
1.0721328
1.056027
1.1586181
1.1586171
1.1586148
1.1586104
1.1586031
1.158592
1.158576
1.1585541
1.158525
1.1584875
1.1584401
1.158381
1.1583074
1.1582133
1.1580826
1.1578608
1.1573822
1.1562074
1.1534397
1.1478651
1.1386979
1.1263471
1.1122438
1.0979324
1.0844536
1.0724603
1.0621691
1.0527137
1.0430653
1.032333
1.1363704
1.1159854
1.0979486
1.0818778
1.0674251
1.0543483
1.0424642
1.0316326
1.0217503
1.0127572
1.0046133
0.99729585
0.99082513
0.98628528
0.98261648
0.97989511
0.9782275
0.97775223
0.97864651
0.98106047
0.98501234
0.99027168
0.99631455
1.0024216
1.0078657
1.0120037
1.0141499
1.0130241
1.005734
0.99192102
1.1581259
1.1571876
1.1559012
1.1543317
1.1525322
1.1505475
1.1484157
1.1461703
1.1438424
1.141463
1.139064
1.1366805
1.1343539
1.1321605
1.130156
1.1284023
1.1269682
1.1259222
1.125321
1.1251772
1.1254121
1.125818
1.126087
1.1259112
1.1250776
1.1234404
1.1208782
1.1171217
1.1110012
1.0947943
1.1586084
1.1585775
1.1585211
1.158435
1.1583163
1.1581631
1.1579742
1.1577492
1.1574885
1.1571929
1.1568642
1.1565051
1.1561192
1.1557124
1.1552915
1.1548648
1.1544418
1.154032
1.1536323
1.1531918
1.1524907
1.1511468
1.1487214
1.1449858
1.1399732
1.1335685
1.1256333
1.1155705
1.1027305
1.0864629
1.1586181
1.1586171
1.1586148
1.1586104
1.1586031
1.1585921
1.1585763
1.158555
1.1585269
1.1584913
1.158447
1.1583933
1.1583291
1.1582534
1.1581645
1.1580574
1.1579154
1.1576805
1.1571713
1.155921
1.1530187
1.1472625
1.1378369
1.1250482
1.1102801
1.0952518
1.0811778
1.068185
1.0556626
1.0429009
1.1363749
1.1159805
1.0979167
1.0818043
1.067293
1.0541348
1.0421366
1.0311419
1.0210194
1.0116652
1.0029933
0.99492746
0.98743667
0.98209564
0.97710471
0.97238253
0.96785594
0.96350095
0.95944763
0.95590205
0.95313525
0.95147114
0.95122909
0.95257943
0.95534941
0.95884677
0.9616689
0.96112146
0.95464728
0.94625884
1.158126
1.1571867
1.1558974
1.154322
1.1525131
1.1505143
1.1483615
1.1460849
1.14371
1.1412591
1.1387518
1.136206
1.1336381
1.13111
1.1286436
1.1262597
1.1239829
1.1218474
1.1199019
1.1182134
1.1168649
1.1159344
1.1154411
1.1152597
1.1150672
1.1144015
1.1126633
1.1085923
1.095173
1.0575324
1.1586084
1.1585774
1.1585208
1.1584344
1.158315
1.1581606
1.15797
1.1577425
1.1574779
1.1571767
1.1568394
1.1564673
1.1560619
1.1556264
1.1551651
1.1546832
1.1541873
1.1536872
1.1531957
1.1527275
1.1522872
1.1518304
1.1511712
1.1498745
1.1473252
1.1430735
1.1370762
1.1294855
1.1195151
1.1033925
1.1586181
1.1586171
1.1586147
1.1586103
1.158603
1.1585919
1.158576
1.1585544
1.1585261
1.15849
1.1584453
1.1583909
1.1583259
1.1582494
1.1581608
1.1580591
1.1579431
1.1578094
1.1576458
1.1574077
1.1569459
1.1558361
1.1531422
1.1474425
1.1375587
1.1236683
1.1074281
1.0906229
1.0740738
1.0579789
1.1363765
1.1159773
1.0979016
1.0817715
1.0672374
1.0540497
1.0420148
1.0309747
1.0207947
1.0113619
1.0025832
0.99438183
0.98685525
0.98241849
0.9782515
0.97415028
0.96985029
0.96506723
0.96011656
0.95518248
0.95038189
0.9457983
0.94150253
0.93755807
0.93399946
0.93077917
0.92769872
0.92433056
0.92043527
0.91511733
1.158126
1.1571863
1.1558955
1.1543172
1.1525039
1.1504985
1.1483363
1.1460465
1.1436532
1.1411762
1.1386319
1.1360279
1.1331235
1.1302378
1.1273892
1.1245882
1.1218212
1.1190201
1.1161305
1.1131059
1.1099218
1.1066073
1.1032879
1.1002119
1.0976484
1.095377
1.0913454
1.0798351
1.0536313
1.0088263
1.1586084
1.1585774
1.1585207
1.1584341
1.1583143
1.1581593
1.1579677
1.1577388
1.1574722
1.157168
1.1568265
1.156448
1.1560279
1.1555687
1.1550736
1.1545458
1.1539886
1.1534044
1.1527957
1.1521666
1.1515246
1.1508838
1.1502625
1.1496556
1.1489196
1.1475272
1.1444599
1.138695
1.1242901
1.0903564
1.1586181
1.1586171
1.1586147
1.1586103
1.158603
1.1585918
1.1585758
1.1585541
1.1585255
1.1584892
1.158444
1.1583889
1.1583228
1.1582446
1.1581533
1.1580479
1.1579274
1.1577907
1.1576364
1.1574619
1.1572598
1.1570032
1.1565871
1.1556444
1.1531754
1.1473626
1.1364868
1.1207133
1.1022847
1.0845181
1.1363765
1.1159773
1.0979016
1.0817715
1.0672374
1.0540497
1.0420148
1.0309747
1.0207947
1.0113619
1.0025832
0.99438182
0.98685524
0.98241847
0.97825148
0.97415025
0.96985027
0.96506721
0.96011654
0.95518246
0.95038186
0.94579827
0.9415025
0.93755805
0.93399943
0.93077915
0.9276987
0.92433052
0.92043518
0.91511718
1.158126
1.1571863
1.1558955
1.1543172
1.1525039
1.1504985
1.1483363
1.1460465
1.1436532
1.1411762
1.1386319
1.1360279
1.1331235
1.1302378
1.1273892
1.1245881
1.1218211
1.11902
1.1161304
1.1131057
1.1099216
1.1066069
1.1032874
1.1002112
1.0976474
1.0953756
1.0913435
1.0798325
1.0536286
1.0088241
1.1586084
1.1585774
1.1585207
1.1584341
1.1583143
1.1581593
1.1579677
1.1577388
1.1574722
1.157168
1.1568265
1.156448
1.1560279
1.1555687
1.1550736
1.1545458
1.1539886
1.1534044
1.1527957
1.1521666
1.1515246
1.1508838
1.1502625
1.1496556
1.1489196
1.1475272
1.1444598
1.1386949
1.1242892
1.0903543
1.1586181
1.1586171
1.1586147
1.1586103
1.158603
1.1585918
1.1585758
1.1585541
1.1585255
1.1584892
1.158444
1.1583889
1.1583228
1.1582446
1.1581533
1.1580479
1.1579274
1.1577907
1.1576364
1.1574619
1.1572598
1.1570032
1.1565871
1.1556444
1.1531754
1.1473627
1.1364868
1.1207133
1.1022846
1.0845182
1.1363749
1.1159805
1.0979167
1.0818043
1.067293
1.0541348
1.0421366
1.0311419
1.0210194
1.0116652
1.0029933
0.99492745
0.98743665
0.98209561
0.97710467
0.97238249
0.96785588
0.96350089
0.95944756
0.95590196
0.95313514
0.95147101
0.95122893
0.95257924
0.9553492
0.95884653
0.96166859
0.96112104
0.95464691
0.9462585
1.158126
1.1571867
1.1558974
1.154322
1.1525131
1.1505143
1.1483615
1.1460849
1.14371
1.1412591
1.1387518
1.136206
1.1336381
1.13111
1.1286436
1.1262597
1.1239829
1.1218474
1.1199019
1.1182134
1.1168649
1.1159343
1.1154411
1.1152596
1.1150671
1.1144013
1.112663
1.1085918
1.095172
1.0575312
1.1586084
1.1585774
1.1585208
1.1584344
1.158315
1.1581606
1.15797
1.1577425
1.1574779
1.1571767
1.1568394
1.1564673
1.1560619
1.1556264
1.1551651
1.1546832
1.1541873
1.1536872
1.1531957
1.1527275
1.1522871
1.1518304
1.1511712
1.1498745
1.1473252
1.1430735
1.1370762
1.1294855
1.1195152
1.1033924
1.1586181
1.1586171
1.1586147
1.1586103
1.158603
1.1585919
1.158576
1.1585544
1.1585261
1.15849
1.1584453
1.1583909
1.1583259
1.1582494
1.1581608
1.1580591
1.1579431
1.1578094
1.1576458
1.1574077
1.1569459
1.1558361
1.1531422
1.1474426
1.1375588
1.1236684
1.1074282
1.090623
1.0740739
1.057979
1.1363704
1.1159854
1.0979486
1.0818778
1.0674251
1.0543483
1.0424642
1.0316326
1.0217503
1.0127572
1.0046133
0.99729584
0.99082512
0.98628527
0.98261647
0.9798951
0.97822749
0.97775223
0.9786465
0.98106047
0.98501236
0.99027172
0.99631463
1.0024217
1.0078659
1.012004
1.0141503
1.0130245
1.0057344
0.99192136
1.1581259
1.1571876
1.1559012
1.1543317
1.1525322
1.1505475
1.1484157
1.1461703
1.1438424
1.1414629
1.139064
1.1366805
1.1343539
1.1321605
1.130156
1.1284023
1.1269682
1.1259222
1.125321
1.1251772
1.1254121
1.125818
1.126087
1.1259112
1.1250776
1.1234405
1.1208782
1.1171216
1.1110011
1.0947941
1.1586084
1.1585775
1.1585211
1.158435
1.1583163
1.1581631
1.1579742
1.1577492
1.1574885
1.1571929
1.1568642
1.1565051
1.1561192
1.1557124
1.1552915
1.1548648
1.1544418
1.154032
1.1536323
1.1531918
1.1524907
1.1511468
1.1487214
1.1449858
1.1399733
1.1335686
1.1256333
1.1155706
1.1027305
1.086463
1.1586181
1.1586171
1.1586148
1.1586104
1.1586031
1.1585921
1.1585763
1.158555
1.1585269
1.1584913
1.158447
1.1583933
1.1583291
1.1582534
1.1581645
1.1580574
1.1579154
1.1576805
1.1571713
1.155921
1.1530188
1.1472626
1.137837
1.1250483
1.1102802
1.0952519
1.0811779
1.0681851
1.0556626
1.0429009
1.1363742
1.1160386
1.0980529
1.0820256
1.0676165
1.0545899
1.0427735
1.0320388
1.0223016
1.0135225
1.0056938
0.99883987
0.99302302
0.98903701
0.98620348
0.98456197
0.98409584
0.98469871
0.98616875
0.98821446
0.99051562
0.99280206
0.99490847
0.99674498
0.99823237
0.99916923
0.99905966
0.99686831
0.99113131
0.98432919
1.1581261
1.1571912
1.1559105
1.1543464
1.1525507
1.1505674
1.1484346
1.1461869
1.1438521
1.1414582
1.1390397
1.1366416
1.1343304
1.1322161
1.130312
1.1286575
1.1272725
1.1261347
1.1251611
1.1242043
1.1230977
1.1217248
1.1200593
1.1181415
1.1160255
1.1137005
1.1110909
1.1081308
1.1040633
1.0858943
1.1586084
1.1585776
1.1585215
1.1584357
1.1583171
1.1581635
1.1579732
1.1577455
1.1574799
1.1571763
1.1568348
1.1564558
1.1560334
1.1555508
1.1549715
1.1542322
1.1532408
1.1518739
1.1499391
1.1471209
1.1431093
1.1377892
1.1313044
1.1239213
1.1159758
1.1074076
1.0975666
1.086052
1.0721328
1.056027
1.1586181
1.1586171
1.1586148
1.1586104
1.1586031
1.158592
1.158576
1.1585541
1.158525
1.1584875
1.1584401
1.158381
1.1583074
1.1582133
1.1580826
1.1578608
1.1573822
1.1562074
1.1534397
1.1478652
1.138698
1.1263473
1.1122439
1.0979325
1.0844537
1.0724604
1.0621691
1.0527137
1.0430653
1.032333
1.136384
1.1158275
1.0974314
1.0808419
1.0657268
1.05184
1.0389891
1.0270447
1.0160226
1.0059221
0.99668346
0.98826793
0.98066846
0.9744387
0.9689891
0.96437884
0.9606887
0.95799717
0.95635596
0.95574241
0.95604653
0.95707336
0.9585819
0.96032152
0.96204983
0.96350761
0.96435028
0.96403126
0.96172928
0.95705448
1.1581258
1.1571731
1.1558423
1.1541859
1.1522475
1.1500627
1.1476607
1.1450592
1.1419891
1.1382812
1.1338155
1.1283724
1.121778
1.1138581
1.1045136
1.0937735
1.0819718
1.0697626
1.0579798
1.047391
1.0384997
1.0314784
1.0262317
1.0224695
1.0197415
1.0174173
1.0145908
1.0098764
1.0011187
0.98731616
1.1586084
1.1585767
1.1585176
1.1584249
1.1582935
1.1581189
1.1578972
1.1576246
1.1572908
1.1568812
1.1563778
1.1557496
1.1547421
1.1529746
1.1499369
1.1449968
1.1374663
1.1270142
1.1140155
1.0995255
1.084874
1.0712075
1.0592481
1.0492764
1.0412153
1.0347028
1.0290965
1.0233564
1.0156867
1.0040225
1.1586181
1.1586171
1.1586146
1.1586097
1.1586014
1.1585883
1.1585689
1.1585414
1.1585036
1.1584526
1.1583848
1.1582948
1.158167
1.1579674
1.157588
1.1566538
1.1543822
1.1495025
1.1408659
1.1285525
1.1140103
1.0990188
1.0848753
1.0722591
1.0613795
1.0521268
1.0441307
1.0366712
1.0283614
1.0173687
)
;

boundaryField
{
    maxY
    {
        type            calculated;
        value           nonuniform List<scalar> 
300
(
1.1586176
1.1586176
1.1586176
1.1586176
1.1586176
1.1586176
1.1586176
1.1586176
1.1586176
1.1586176
1.1586165
1.1586166
1.1586166
1.1586166
1.1586166
1.1586166
1.1586166
1.1586166
1.1586166
1.1586165
1.158614
1.1586142
1.1586142
1.1586142
1.1586142
1.1586142
1.1586142
1.1586142
1.1586142
1.158614
1.1586092
1.1586099
1.1586098
1.1586098
1.1586098
1.1586098
1.1586098
1.1586098
1.1586099
1.1586092
1.1586009
1.1586026
1.1586026
1.1586025
1.1586024
1.1586024
1.1586025
1.1586026
1.1586026
1.1586009
1.1585878
1.1585915
1.1585915
1.1585914
1.1585913
1.1585913
1.1585914
1.1585915
1.1585915
1.1585878
1.1585684
1.1585755
1.1585758
1.1585755
1.1585753
1.1585753
1.1585755
1.1585758
1.1585755
1.1585684
1.1585409
1.1585536
1.1585544
1.1585539
1.1585536
1.1585536
1.1585539
1.1585544
1.1585536
1.1585409
1.1585031
1.1585245
1.1585264
1.1585256
1.158525
1.158525
1.1585256
1.1585264
1.1585245
1.1585031
1.1584521
1.158487
1.1584907
1.1584895
1.1584886
1.1584886
1.1584895
1.1584907
1.158487
1.1584521
1.1583843
1.1584396
1.1584465
1.1584448
1.1584434
1.1584434
1.1584448
1.1584465
1.1584396
1.1583843
1.1582942
1.1583805
1.1583928
1.1583903
1.1583884
1.1583884
1.1583903
1.1583928
1.1583805
1.1582942
1.1581664
1.1583069
1.1583286
1.1583253
1.1583223
1.1583223
1.1583253
1.1583286
1.1583069
1.1581664
1.1579668
1.1582128
1.1582529
1.1582489
1.1582441
1.1582441
1.1582489
1.1582529
1.1582128
1.1579668
1.1575875
1.158082
1.158164
1.1581603
1.1581528
1.1581528
1.1581603
1.158164
1.158082
1.1575875
1.1566532
1.1578603
1.1580569
1.1580586
1.1580474
1.1580474
1.1580586
1.1580569
1.1578603
1.1566532
1.1543816
1.1573817
1.1579149
1.1579426
1.1579269
1.1579269
1.1579426
1.1579149
1.1573817
1.1543816
1.1495019
1.1562069
1.15768
1.1578089
1.1577902
1.1577902
1.1578089
1.15768
1.1562069
1.1495019
1.1408653
1.1534392
1.1571708
1.1576453
1.1576359
1.1576359
1.1576453
1.1571708
1.1534392
1.1408654
1.1285519
1.1478646
1.1559205
1.1574072
1.1574614
1.1574614
1.1574072
1.1559205
1.1478647
1.128552
1.1140096
1.1386974
1.1530182
1.1569454
1.1572593
1.1572593
1.1569454
1.1530182
1.1386975
1.1140098
1.0990182
1.1263466
1.147262
1.1558356
1.1570026
1.1570026
1.1558356
1.1472621
1.1263468
1.0990183
1.0848746
1.1122433
1.1378364
1.1531417
1.1565866
1.1565866
1.1531417
1.1378365
1.1122434
1.0848748
1.0722585
1.097932
1.1250477
1.147442
1.1556438
1.1556438
1.1474421
1.1250478
1.0979321
1.0722586
1.061379
1.0844532
1.1102796
1.1375582
1.1531749
1.1531749
1.1375583
1.1102797
1.0844533
1.0613791
1.0521263
1.0724599
1.0952513
1.1236678
1.1473621
1.1473621
1.1236679
1.0952514
1.0724599
1.0521264
1.0441302
1.0621687
1.0811773
1.1074276
1.1364863
1.1364863
1.1074277
1.0811774
1.0621687
1.0441303
1.0366707
1.0527133
1.0681846
1.0906224
1.1207128
1.1207128
1.0906225
1.0681846
1.0527133
1.0366708
1.0283609
1.0430649
1.0556622
1.0740734
1.1022842
1.1022841
1.0740734
1.0556622
1.0430649
1.028361
1.0173682
1.0323326
1.0429005
1.0579785
1.0845176
1.0845177
1.0579785
1.0429005
1.0323326
1.0173683
)
;
    }
    minX
    {
        type            calculated;
        value           nonuniform List<scalar> 
40
(
1.1586215
1.1586205
1.1586194
1.1586184
1.1586215
1.1586205
1.1586194
1.1586184
1.1586215
1.1586205
1.1586194
1.1586184
1.1586215
1.1586205
1.1586194
1.1586184
1.1586215
1.1586205
1.1586194
1.1586184
1.1586215
1.1586205
1.1586194
1.1586184
1.1586215
1.1586205
1.1586194
1.1586184
1.1586215
1.1586205
1.1586194
1.1586184
1.1586215
1.1586205
1.1586194
1.1586184
1.1586215
1.1586205
1.1586194
1.1586184
)
;
    }
    maxX
    {
        type            calculated;
        value           nonuniform List<scalar> 
40
(
0.95710996
0.98736144
1.0040658
1.0174109
0.98438201
1.0859163
1.056062
1.0323736
0.99197856
1.0948281
1.0864935
1.0429418
0.94632253
1.0575772
1.1034286
1.058024
0.9151931
1.0088749
1.0903976
1.0845735
0.91519296
1.0088727
1.0903955
1.0845736
0.94632219
1.057576
1.1034284
1.0580241
0.99197891
1.0948279
1.0864936
1.0429418
0.98438223
1.0859165
1.0560621
1.0323736
0.95710997
0.98736147
1.0040658
1.0174109
)
;
    }
    minZ
    {
        type            calculated;
        value           nonuniform List<scalar> 
120
(
1.136384
1.1581258
1.1586084
1.1586181
1.1158275
1.1571731
1.1585767
1.1586171
1.0974314
1.1558423
1.1585176
1.1586146
1.0808419
1.1541859
1.1584249
1.1586097
1.0657268
1.1522475
1.1582935
1.1586014
1.05184
1.1500627
1.1581189
1.1585883
1.0389891
1.1476607
1.1578972
1.1585689
1.0270446
1.1450592
1.1576246
1.1585414
1.0160226
1.1419891
1.1572908
1.1585036
1.0059221
1.1382812
1.1568812
1.1584526
0.99668345
1.1338155
1.1563778
1.1583848
0.98826791
1.1283724
1.1557496
1.1582948
0.98066845
1.121778
1.1547421
1.158167
0.97443865
1.1138581
1.1529746
1.1579674
0.96898904
1.1045135
1.1499369
1.157588
0.96437877
1.0937734
1.1449968
1.1566537
0.96068864
1.0819716
1.1374663
1.1543821
0.95799711
1.0697625
1.1270141
1.1495024
0.95635591
1.0579797
1.1140154
1.1408658
0.95574235
1.0473908
1.0995253
1.1285524
0.95604648
1.0384996
1.0848739
1.1140101
0.95707332
1.0314783
1.0712074
1.0990186
0.95858187
1.0262316
1.0592479
1.0848751
0.96032148
1.0224694
1.0492763
1.0722589
0.96204978
1.0197415
1.0412152
1.0613794
0.96350756
1.0174173
1.0347027
1.0521267
0.96435022
1.0145908
1.0290964
1.0441306
0.96403119
1.0098764
1.0233564
1.0366712
0.96172923
1.0011187
1.0156867
1.0283613
0.95705447
0.98731613
1.0040225
1.0173686
)
;
    }
    maxZ
    {
        type            calculated;
        value           nonuniform List<scalar> 
120
(
1.136384
1.1581258
1.1586084
1.1586181
1.1158275
1.1571731
1.1585767
1.1586171
1.0974314
1.1558423
1.1585176
1.1586146
1.0808419
1.1541859
1.1584249
1.1586097
1.0657268
1.1522475
1.1582935
1.1586014
1.05184
1.1500627
1.1581189
1.1585883
1.0389891
1.1476607
1.1578972
1.1585689
1.0270447
1.1450592
1.1576246
1.1585414
1.0160226
1.1419891
1.1572908
1.1585036
1.0059221
1.1382812
1.1568812
1.1584526
0.99668346
1.1338155
1.1563778
1.1583848
0.98826793
1.1283724
1.1557496
1.1582948
0.98066846
1.121778
1.1547421
1.158167
0.9744387
1.1138581
1.1529746
1.1579674
0.9689891
1.1045136
1.1499369
1.157588
0.96437884
1.0937735
1.1449968
1.1566538
0.9606887
1.0819718
1.1374663
1.1543822
0.95799717
1.0697626
1.1270142
1.1495025
0.95635596
1.0579798
1.1140155
1.1408659
0.95574241
1.047391
1.0995255
1.1285525
0.95604653
1.0384997
1.084874
1.1140103
0.95707336
1.0314784
1.0712075
1.0990188
0.9585819
1.0262317
1.0592481
1.0848753
0.96032152
1.0224695
1.0492764
1.0722591
0.96204983
1.0197415
1.0412153
1.0613795
0.96350761
1.0174173
1.0347028
1.0521268
0.96435028
1.0145908
1.0290965
1.0441307
0.96403126
1.0098764
1.0233564
1.0366712
0.96172928
1.0011187
1.0156867
1.0283614
0.95705448
0.98731616
1.0040225
1.0173687
)
;
    }
    topAir_to_rightSolid
    {
        type            calculated;
        value           nonuniform List<scalar> 
130
(
0.79423411
0.79307548
0.79195622
0.79103112
0.79027157
0.78964673
0.78909169
0.78860694
0.78823901
0.78802391
0.78792358
0.78790943
0.78793003
0.7958105
0.79420881
0.79274577
0.7915481
0.79059008
0.78983705
0.78918372
0.78862953
0.78821218
0.78794941
0.78782316
0.78778324
0.78779833
0.79923707
0.79662231
0.79437273
0.79259832
0.79126625
0.79026333
0.78942245
0.78874637
0.78825066
0.78796011
0.78781192
0.78776252
0.78777007
0.80489876
0.80023473
0.79665088
0.79405769
0.79219781
0.79082788
0.78973883
0.78891794
0.78834755
0.78802182
0.78785621
0.78780742
0.7878093
0.81221946
0.80396759
0.79869649
0.79524226
0.79288592
0.7911758
0.78988752
0.78896379
0.78835693
0.78801116
0.78784594
0.78780081
0.78780712
0.81221947
0.80396762
0.79869652
0.79524228
0.79288593
0.79117581
0.78988752
0.78896378
0.7883569
0.78801113
0.78784591
0.78780078
0.78780709
0.80489879
0.80023477
0.79665092
0.79405771
0.79219781
0.79082788
0.78973881
0.78891791
0.7883475
0.78802177
0.78785615
0.78780735
0.78780922
0.79923715
0.79662239
0.79437278
0.79259835
0.79126625
0.79026332
0.78942244
0.78874634
0.78825061
0.78796002
0.7878118
0.78776237
0.7877699
0.79581062
0.79420892
0.79274584
0.79154814
0.79059009
0.78983705
0.7891837
0.78862949
0.7882121
0.78794928
0.78782296
0.78778297
0.787798
0.79423434
0.79307565
0.79195631
0.79103118
0.79027159
0.78964673
0.78909166
0.78860689
0.78823891
0.78802373
0.78792329
0.78790898
0.78792934
)
;
    }
    topAir_to_heater
    {
        type            calculated;
        value           nonuniform List<scalar> 
40
(
0.79716226
0.79688493
0.79627789
0.79538142
0.79983821
0.79945666
0.79862214
0.79737876
0.80595066
0.80535703
0.80400074
0.80189147
0.81715719
0.81641586
0.81420112
0.81022765
0.8357755
0.83625775
0.83335066
0.825632
0.83577542
0.83625767
0.83335058
0.82563193
0.8171571
0.81641582
0.81420111
0.81022768
0.80595073
0.8053571
0.80400079
0.80189155
0.79983845
0.79945685
0.79862225
0.79737885
0.79716284
0.79688526
0.79627802
0.79538141
)
;
    }
    topAir_to_leftSolid
    {
        type            calculated;
        value           nonuniform List<scalar> 
130
(
0.78811954
0.78804611
0.78796109
0.78791177
0.78791723
0.78800142
0.78811074
0.78817933
0.78818848
0.78818905
0.7882087
0.7882909
0.78832319
0.78796531
0.78789373
0.78782727
0.78779262
0.78782785
0.78793276
0.78806577
0.78816081
0.78818783
0.78822237
0.78827992
0.78839108
0.78847895
0.78792544
0.78785473
0.78778698
0.78775644
0.78778969
0.78792355
0.78809715
0.78824737
0.78831235
0.78838874
0.78851873
0.78869037
0.78883184
0.78798606
0.78791766
0.78783881
0.78780639
0.78784153
0.78799319
0.78821506
0.78845021
0.7886067
0.78874713
0.78891929
0.78914863
0.78935054
0.78800425
0.78792939
0.78784067
0.78779387
0.78782427
0.78797093
0.78822552
0.78853782
0.78881452
0.78904161
0.78927823
0.789567
0.78983824
0.78800424
0.78792938
0.78784066
0.78779386
0.78782426
0.78797091
0.78822551
0.78853781
0.7888145
0.7890416
0.78927824
0.78956704
0.78983826
0.78798606
0.78791766
0.78783881
0.78780638
0.78784151
0.78799317
0.78821505
0.78845019
0.78860668
0.78874709
0.78891927
0.78914865
0.78935053
0.78792545
0.78785473
0.78778698
0.78775644
0.78778969
0.78792355
0.78809715
0.78824736
0.78831233
0.78838872
0.78851871
0.78869041
0.78883186
0.78796532
0.78789374
0.78782728
0.78779262
0.78782785
0.78793276
0.78806577
0.7881608
0.78818782
0.78822237
0.78827992
0.78839111
0.78847897
0.78811955
0.78804611
0.78796109
0.78791177
0.78791723
0.78800142
0.78811074
0.78817932
0.78818847
0.78818904
0.78820869
0.78829091
0.78832321
)
;
    }
}


// ************************************************************************* //
