/*--------------------------------*- C++ -*----------------------------------*\
| =========                 |                                                 |
| \\      /  F ield         | OpenFOAM: The Open Source CFD Toolbox           |
|  \\    /   O peration     | Version:  v2012                                 |
|   \\  /    A nd           | Website:  www.openfoam.com                      |
|    \\/     M anipulation  |                                                 |
\*---------------------------------------------------------------------------*/
FoamFile
{
    version     2.0;
    format      ascii;
    class       volScalarField;
    location    "40/topAir";
    object      T;
}
// * * * * * * * * * * * * * * * * * * * * * * * * * * * * * * * * * * * * * //

dimensions      [0 0 0 1 0 0 0];


internalField   nonuniform List<scalar> 
1200
(
305.87061
311.50554
316.72727
321.58862
326.14967
330.45561
334.5429
338.43361
342.10503
345.5401
348.74305
351.71274
354.43826
356.70426
358.71036
360.4252
361.80963
362.82615
363.44879
363.68211
363.56642
363.17635
362.6048
361.94795
361.29771
360.75107
360.43584
360.55512
361.41814
363.1835
300.12814
300.37524
300.72109
301.15264
301.65926
302.23234
302.86489
303.55299
304.36904
305.36051
306.56324
308.04205
309.85287
312.05603
314.69613
317.78622
321.25252
324.91898
328.53762
331.85904
334.70029
336.97859
338.70142
339.94768
340.85707
341.63573
342.58748
344.18678
347.1977
352.05149
300.00286
300.01105
300.02637
300.05038
300.08442
300.12965
300.18711
300.25779
300.3444
300.45074
300.58155
300.74491
301.00733
301.46876
302.26513
303.56925
305.57901
308.41301
312.01169
316.12352
320.39283
324.48041
328.14396
331.26244
333.82707
335.92819
337.75826
339.65276
342.21757
346.19327
300.00007
300.00034
300.00098
300.00223
300.00438
300.00777
300.0128
300.01992
300.02972
300.04292
300.06048
300.08381
300.11692
300.16865
300.26701
300.50956
301.10091
302.3791
304.66817
307.99236
312.01289
316.26899
320.3922
324.16193
327.48471
330.3647
332.89469
335.29006
337.99942
341.65154
305.87322
311.44662
316.54799
321.2368
325.57238
329.59393
333.32881
336.79589
340.00381
342.9489
345.61855
347.99013
350.02856
351.43924
352.44899
353.0366
353.20382
352.98758
352.46139
351.73176
350.91462
350.10646
349.36523
348.72153
348.20193
347.87545
347.91362
348.67843
350.69669
353.12014
300.12806
300.37052
300.70333
301.11078
301.57991
302.09977
302.66081
303.25431
303.87331
304.5106
305.15717
305.801
306.42406
306.99627
307.51344
307.96422
308.34259
308.65411
308.92121
309.18411
309.48877
309.86754
310.32831
310.86059
311.44998
312.10016
312.83317
313.66884
314.82442
320.09205
300.00286
300.01082
300.02535
300.04757
300.07829
300.11811
300.16742
300.22645
300.29534
300.37413
300.4628
300.56126
300.67108
300.79665
300.94753
301.1403
301.39918
301.75684
302.26454
303.00714
304.0705
305.49227
307.24341
309.2617
311.46357
313.87342
316.68768
320.04528
324.20032
329.14479
300.00007
300.00033
300.00093
300.00206
300.00395
300.00682
300.01096
300.01664
300.02417
300.03388
300.04616
300.06146
300.08053
300.10491
300.13879
300.19628
300.32041
300.62556
301.34692
302.8104
305.24821
308.59536
312.50837
316.58187
320.5167
324.10105
327.24122
330.18047
333.23466
336.69903
305.87426
311.46146
316.57807
321.28068
325.63076
329.66947
333.4277
336.92851
340.18724
343.20805
345.99026
348.5289
350.80501
352.41976
353.73559
354.71798
355.32267
355.49539
355.17054
354.29662
352.87518
351.00106
348.87216
346.74672
344.87372
343.46356
342.7367
343.11758
345.6047
350.4174
300.12811
300.37148
300.70574
301.11461
301.58475
302.10497
302.66578
303.25872
303.87589
304.50934
305.15066
305.79053
306.41771
307.01136
307.55587
308.03387
308.42586
308.71239
308.87732
308.91679
308.8523
308.74095
308.66719
308.71538
308.94413
309.39433
310.10157
311.14435
312.85842
317.48984
300.00286
300.01086
300.02547
300.04776
300.07851
300.11821
300.16716
300.22548
300.29311
300.36982
300.45516
300.54846
300.64876
300.7546
300.86417
300.97534
301.08561
301.19253
301.29687
301.41198
301.59533
301.94742
302.58495
303.57215
304.90699
306.62972
308.79133
311.57672
315.20467
319.9242
300.00007
300.00033
300.00093
300.00207
300.00395
300.00681
300.01088
300.01641
300.02367
300.03291
300.04436
300.05828
300.0749
300.09451
300.11756
300.14531
300.18211
300.24303
300.37514
300.70005
301.45694
302.96946
305.47919
308.95164
313.06109
317.35672
321.48783
325.39822
329.25814
333.28719
305.87304
311.46283
316.58726
321.3025
325.67106
329.73622
333.53251
337.08883
340.43079
343.57852
346.5491
349.35856
352.00882
353.92319
355.73098
357.45851
359.13032
360.75357
362.27762
363.62136
364.67689
365.31471
365.40767
364.88968
363.8317
362.50463
361.44082
361.64669
364.09928
367.32697
300.12809
300.37169
300.70674
301.11714
301.58975
302.1137
302.68006
303.28131
303.91106
304.56374
305.23432
305.91822
306.61118
307.2965
307.96801
308.61987
309.24503
309.8337
310.37193
310.84059
311.2159
311.47541
311.61315
311.66384
311.71764
311.90385
312.3911
313.53825
317.38009
328.67654
300.00286
300.01088
300.02552
300.04792
300.07885
300.11884
300.16824
300.22723
300.29585
300.37403
300.4616
300.55828
300.66369
300.77699
300.89709
301.02267
301.152
301.28254
301.41095
301.53338
301.64861
301.76822
301.94102
302.28151
302.95318
304.08002
305.68383
307.73818
310.47889
315.01553
300.00007
300.00033
300.00094
300.00208
300.00397
300.00685
300.01096
300.01655
300.02389
300.03322
300.04482
300.05891
300.07575
300.09555
300.11852
300.14487
300.17493
300.2096
300.25202
300.31379
300.43366
300.72213
301.42467
302.92192
305.55391
309.33105
313.86733
318.70366
323.61417
328.53726
305.87261
311.46373
316.59162
321.31227
325.68803
329.76285
333.5715
337.14352
340.50571
343.68156
346.69085
349.55026
352.21621
353.80688
355.31396
356.80985
358.39182
360.16808
362.02522
363.89529
365.73341
367.50585
369.18265
370.73586
372.14839
373.43594
374.67594
376.04122
377.63263
379.82714
300.12809
300.3718
300.70723
301.11838
301.59217
302.11787
302.68671
303.29147
303.92617
304.58587
305.26645
305.9662
306.75043
307.53362
308.31068
309.0786
309.84094
310.61652
311.42069
312.2669
313.16271
314.10071
315.04571
315.92653
316.66436
317.32098
318.49322
321.88814
329.8935
344.54506
300.00286
300.01088
300.02555
300.048
300.07903
300.11919
300.16884
300.22819
300.29734
300.37628
300.46495
300.56329
300.67252
300.792
300.92093
301.05849
301.20386
301.35643
301.51554
301.68018
301.84835
302.01643
302.17956
302.33907
302.53275
302.89984
303.71166
305.24927
309.16025
318.78181
300.00007
300.00033
300.00094
300.00209
300.00399
300.00688
300.01101
300.01664
300.02403
300.03345
300.04516
300.05943
300.07655
300.0968
300.12046
300.14778
300.17902
300.21445
300.25446
300.29973
300.35218
300.4188
300.52687
300.77203
301.41598
302.94302
305.84209
310.14666
315.33188
320.49765
305.87261
311.46373
316.59162
321.31227
325.68803
329.76285
333.5715
337.14352
340.50571
343.68156
346.69085
349.55026
352.21622
353.80688
355.31397
356.80986
358.39183
360.16809
362.02523
363.8953
365.73342
367.50585
369.18266
370.73587
372.1484
373.43595
374.67595
376.04124
377.63267
379.8272
300.12809
300.3718
300.70723
301.11838
301.59217
302.11787
302.68671
303.29147
303.92617
304.58587
305.26645
305.9662
306.75043
307.53362
308.31069
309.07861
309.84095
310.61654
311.42072
312.26695
313.16278
314.1008
315.04585
315.92673
316.66465
317.32139
318.49379
321.88891
329.89434
344.54581
300.00286
300.01088
300.02555
300.048
300.07903
300.11919
300.16884
300.22819
300.29734
300.37628
300.46495
300.56329
300.67252
300.792
300.92093
301.05849
301.20386
301.35643
301.51554
301.68018
301.84836
302.01644
302.17956
302.33909
302.53276
302.89986
303.71168
305.24929
309.16048
318.78242
300.00007
300.00033
300.00094
300.00209
300.00399
300.00688
300.01101
300.01664
300.02403
300.03345
300.04516
300.05943
300.07655
300.0968
300.12046
300.14778
300.17902
300.21445
300.25446
300.29973
300.35218
300.4188
300.52687
300.77203
301.41598
302.94301
305.84209
310.14667
315.33191
320.49762
305.87304
311.46283
316.58726
321.3025
325.67106
329.73622
333.53251
337.08884
340.43079
343.57852
346.5491
349.35856
352.00883
353.9232
355.73099
357.45853
359.13034
360.7536
362.27765
363.6214
364.67694
365.31476
365.40773
364.88975
363.83178
362.50472
361.44093
361.64685
364.09942
367.3271
300.12809
300.37169
300.70674
301.11714
301.58975
302.1137
302.68006
303.28131
303.91106
304.56374
305.23432
305.91822
306.61118
307.2965
307.96802
308.61987
309.24504
309.8337
310.37194
310.8406
311.21592
311.47543
311.61316
311.66387
311.71767
311.9039
312.39118
313.53839
317.38037
328.67691
300.00286
300.01088
300.02552
300.04792
300.07885
300.11884
300.16824
300.22723
300.29585
300.37403
300.4616
300.55828
300.66369
300.77699
300.89709
301.02267
301.152
301.28255
301.41095
301.53338
301.64861
301.76822
301.94102
302.28151
302.95317
304.08001
305.68382
307.73817
310.47886
315.01557
300.00007
300.00033
300.00094
300.00208
300.00397
300.00685
300.01096
300.01655
300.02389
300.03322
300.04482
300.05891
300.07575
300.09555
300.11852
300.14487
300.17493
300.2096
300.25202
300.31379
300.43366
300.72212
301.42466
302.92191
305.55388
309.33102
313.8673
318.70363
323.61415
328.53724
305.87426
311.46146
316.57807
321.28068
325.63076
329.66947
333.4277
336.92851
340.18724
343.20805
345.99026
348.5289
350.80502
352.41976
353.73559
354.71798
355.32268
355.49539
355.17054
354.29662
352.87517
351.00104
348.87213
346.74667
344.87364
343.46347
342.73658
343.11744
345.60455
350.41728
300.12811
300.37148
300.70574
301.11461
301.58475
302.10497
302.66578
303.25872
303.8759
304.50934
305.15066
305.79053
306.41771
307.01136
307.55587
308.03387
308.42586
308.71239
308.87732
308.91679
308.8523
308.74095
308.66718
308.71538
308.94412
309.39433
310.10158
311.14437
312.85847
317.4899
300.00286
300.01086
300.02547
300.04776
300.07851
300.11821
300.16716
300.22548
300.29311
300.36982
300.45516
300.54846
300.64876
300.7546
300.86417
300.97534
301.08561
301.19253
301.29687
301.41198
301.59533
301.94742
302.58495
303.57214
304.90698
306.62971
308.79131
311.5767
315.20465
319.92417
300.00007
300.00033
300.00093
300.00207
300.00395
300.00681
300.01088
300.01641
300.02367
300.03291
300.04436
300.05828
300.0749
300.09451
300.11756
300.14531
300.18211
300.24303
300.37514
300.70004
301.45693
302.96944
305.47917
308.95161
313.06106
317.35669
321.48781
325.3982
329.25813
333.28718
305.87322
311.44662
316.54799
321.2368
325.57238
329.59393
333.32881
336.79589
340.00381
342.9489
345.61855
347.99013
350.02856
351.43924
352.44899
353.0366
353.20382
352.98758
352.46139
351.73175
350.91461
350.10645
349.3652
348.72149
348.20189
347.8754
347.91355
348.67834
350.6966
353.12006
300.12806
300.37052
300.70333
301.11078
301.57991
302.09977
302.66081
303.25431
303.87331
304.5106
305.15717
305.801
306.42406
306.99627
307.51344
307.96422
308.34259
308.65411
308.92121
309.18411
309.48877
309.86754
310.3283
310.86059
311.44997
312.10015
312.83317
313.66884
314.82441
320.09201
300.00286
300.01082
300.02535
300.04757
300.07829
300.11811
300.16742
300.22645
300.29534
300.37413
300.4628
300.56126
300.67108
300.79665
300.94753
301.14029
301.39918
301.75684
302.26454
303.00714
304.07049
305.49226
307.24339
309.26169
311.46356
313.8734
316.68767
320.04527
324.20031
329.14478
300.00007
300.00033
300.00093
300.00206
300.00395
300.00682
300.01096
300.01664
300.02417
300.03388
300.04616
300.06146
300.08053
300.10491
300.13879
300.19628
300.32041
300.62556
301.34691
302.81039
305.24819
308.59533
312.50834
316.58184
320.51667
324.10103
327.24121
330.18047
333.23467
336.69904
305.87061
311.50554
316.72727
321.58862
326.14967
330.4556
334.5429
338.43361
342.10502
345.54009
348.74304
351.71274
354.43825
356.70424
358.71034
360.42517
361.80961
362.82613
363.44877
363.68209
363.5664
363.17633
362.60479
361.94793
361.2977
360.75105
360.43582
360.5551
361.41812
363.18349
300.12814
300.37524
300.72109
301.15264
301.65926
302.23234
302.86489
303.55299
304.36904
305.36051
306.56323
308.04204
309.85286
312.05602
314.69611
317.78619
321.25249
324.91894
328.53758
331.859
334.70026
336.97857
338.7014
339.94766
340.85706
341.63572
342.58747
344.18677
347.19769
352.05148
300.00286
300.01105
300.02637
300.05038
300.08442
300.12965
300.18711
300.25779
300.3444
300.45074
300.58155
300.74491
301.00733
301.46875
302.26512
303.56924
305.57899
308.41298
312.01165
316.12348
320.39278
324.48036
328.14392
331.2624
333.82704
335.92817
337.75825
339.65274
342.21756
346.19326
300.00007
300.00034
300.00098
300.00223
300.00438
300.00777
300.0128
300.01992
300.02972
300.04292
300.06048
300.08381
300.11692
300.16865
300.26701
300.50955
301.1009
302.37909
304.66814
307.99233
312.01285
316.26895
320.39215
324.16189
327.48467
330.36467
332.89467
335.29004
337.99941
341.65152
)
;

boundaryField
{
    maxY
    {
        type            zeroGradient;
    }
    minX
    {
        type            fixedValue;
        value           uniform 300;
    }
    maxX
    {
        type            inletOutlet;
        inletValue      uniform 300;
        value           nonuniform List<scalar> 
40
(
363.16246
352.03534
346.17836
341.63734
353.10112
320.08548
329.13387
336.6858
350.39708
317.48003
319.91518
333.27413
367.30226
328.6626
315.0052
328.52326
379.79572
344.52847
318.76974
320.48124
379.79578
344.52921
318.77034
320.48121
367.3024
328.66297
315.00524
328.52325
350.39695
317.48009
319.91516
333.27412
353.10104
320.08545
329.13386
336.68581
363.16245
352.03533
346.17834
341.63732
)
;
    }
    minZ
    {
        type            zeroGradient;
    }
    maxZ
    {
        type            zeroGradient;
    }
    topAir_to_rightSolid
    {
        type            compressible::turbulentTemperatureCoupledBaffleMixed;
        refValue        nonuniform List<scalar> 
130
(
437.66143
438.30079
438.92032
439.4338
439.85639
440.20471
440.51464
440.7857
440.99168
441.11219
441.16833
441.17598
441.16388
436.79743
437.67872
438.48691
439.15081
439.68335
440.10289
440.46753
440.7773
441.01085
441.15794
441.22841
441.25012
441.24088
434.92346
436.35148
437.58779
438.56814
439.30725
439.8656
440.33493
440.71306
440.99074
441.15362
441.2365
441.26337
441.25758
431.86169
434.37891
436.33311
437.7581
438.78592
439.54618
440.15265
440.6111
440.9304
441.11304
441.20572
441.23226
441.23017
427.96837
432.3616
435.21519
437.10552
438.40431
439.35162
440.06788
440.5828
440.92163
441.11475
441.20685
441.23162
441.22738
427.96837
432.36159
435.21518
437.10551
438.4043
439.35162
440.06789
440.58281
440.92165
441.11477
441.20687
441.23164
441.2274
431.86168
434.37888
436.33309
437.75809
438.78591
439.54618
440.15265
440.61111
440.93042
441.11307
441.20576
441.2323
441.23022
434.92341
436.35144
437.58776
438.56812
439.30724
439.8656
440.33494
440.71308
440.99077
441.15367
441.23656
441.26345
441.25768
436.79736
437.67866
438.48687
439.15078
439.68335
440.10289
440.46754
440.77732
441.01089
441.15801
441.22852
441.25027
441.24107
437.66131
438.3007
438.92027
439.43377
439.85638
440.20472
440.51466
440.78573
440.99174
441.11229
441.16849
441.17623
441.16427
)
;
        refGradient     uniform 0;
        valueFraction   uniform 0.99967867;
        value           nonuniform List<scalar> 
130
(
437.63738
438.27673
438.89614
439.40942
439.83174
440.17977
440.48939
440.76015
440.96589
441.08626
441.14242
441.15035
441.13882
436.77049
437.65133
438.45903
439.12245
439.65456
440.07372
440.43804
440.74754
440.98091
441.12797
441.19866
441.22101
441.21256
434.89793
436.32539
437.56102
438.5406
439.27887
439.83635
440.30486
440.68227
440.9594
441.12199
441.20496
441.23263
441.22839
431.83883
434.35573
436.30974
437.73461
438.7623
439.52235
440.12845
440.58642
440.90519
441.08744
441.18015
441.20747
441.20642
427.94658
432.33899
435.19227
437.08258
438.38152
439.32907
440.0456
440.56081
440.89994
441.0934
441.1859
441.21117
441.20764
427.94658
432.33898
435.19225
437.08257
438.38151
439.32907
440.0456
440.56081
440.89995
441.09342
441.18592
441.21119
441.20766
431.83882
434.35571
436.30972
437.7346
438.7623
439.52236
440.12846
440.58643
440.90522
441.08746
441.18019
441.20751
441.20646
434.89788
436.32535
437.56099
438.54058
439.27886
439.83635
440.30486
440.68228
440.95943
441.12204
441.20503
441.23271
441.22848
436.77043
437.65127
438.45899
439.12243
439.65456
440.07373
440.43805
440.74757
440.98096
441.12804
441.19877
441.22117
441.21275
437.63725
438.27664
438.89609
439.40939
439.83173
440.17978
440.48941
440.76018
440.96595
441.08636
441.14258
441.1506
441.1392
)
;
        Tnbr            T;
        thicknessLayers List<scalar> 0();
        kappaLayers     List<scalar> 0();
        kappaMethod     fluidThermo;
        kappa           none;
        alphaAni        none;
        alpha           none;
        field           T;
    }
    topAir_to_heater
    {
        type            compressible::turbulentTemperatureCoupledBaffleMixed;
        refValue        nonuniform List<scalar> 
40
(
436.05536
436.20651
436.53858
437.03028
434.59781
434.80495
435.25922
435.93806
431.30058
431.61815
432.34613
433.48346
425.38366
425.76945
426.92735
429.02109
415.90503
415.66463
417.11457
421.01465
415.90507
415.66468
417.11461
421.01468
425.38371
425.76947
426.92736
429.02107
431.30054
431.61811
432.3461
433.48342
434.59767
434.80484
435.25916
435.93801
436.05505
436.20633
436.53851
437.03029
)
;
        refGradient     uniform 0;
        valueFraction   uniform 0.99967867;
        value           nonuniform List<scalar> 
40
(
436.02986
436.1816
436.51412
437.0061
434.57108
434.77848
435.2328
435.91147
431.27522
431.59312
432.32118
433.45834
425.3607
425.74694
426.90502
428.99862
415.88507
415.64524
417.09518
420.99452
415.88511
415.64528
417.09523
420.99455
425.36074
425.74696
426.90503
428.9986
431.27519
431.59308
432.32115
433.4583
434.57095
434.77837
435.23274
435.91142
436.02954
436.18142
436.51405
437.00611
)
;
        Tnbr            T;
        thicknessLayers List<scalar> 0();
        kappaLayers     List<scalar> 0();
        kappaMethod     fluidThermo;
        kappa           none;
        alphaAni        none;
        alpha           none;
        field           T;
    }
    topAir_to_leftSolid
    {
        type            compressible::turbulentTemperatureCoupledBaffleMixed;
        refValue        nonuniform List<scalar> 
130
(
441.0763
441.11559
441.16151
441.18756
441.18303
441.1345
441.07197
441.03232
441.02602
441.02459
441.01255
440.9656
440.94665
441.16265
441.20094
441.23652
441.25442
441.23328
441.17322
441.09754
441.04321
441.02706
441.00677
440.97371
440.91075
440.86094
441.18497
441.22278
441.25908
441.27467
441.25464
441.17836
441.07994
440.99473
440.95732
440.91361
440.84
440.74322
440.66342
441.15103
441.18753
441.23004
441.24668
441.22559
441.13934
441.0139
440.8812
440.79261
440.7131
440.61594
440.48695
440.37339
441.14084
441.18096
441.229
441.25369
441.23525
441.15179
441.00804
440.83218
440.67643
440.54854
440.41546
440.25342
440.10134
441.14085
441.18097
441.229
441.2537
441.23526
441.1518
441.00805
440.83219
440.67644
440.54855
440.41546
440.2534
440.10132
441.15103
441.18753
441.23004
441.24669
441.2256
441.13935
441.01391
440.88121
440.79262
440.71311
440.61595
440.48693
440.3734
441.18497
441.22278
441.25908
441.27467
441.25464
441.17836
441.07994
440.99473
440.95733
440.91362
440.84001
440.7432
440.66341
441.16264
441.20093
441.23652
441.25442
441.23328
441.17322
441.09754
441.04322
441.02706
441.00678
440.97371
440.91073
440.86093
441.07629
441.11559
441.16151
441.18756
441.18303
441.13449
441.07197
441.03233
441.02602
441.02459
441.01256
440.96559
440.94664
)
;
        refGradient     uniform 0;
        valueFraction   uniform 0.99967867;
        value           nonuniform List<scalar> 
130
(
441.03285
441.07394
441.12152
441.14913
441.14607
441.09893
441.03774
440.99935
440.99423
440.9939
440.9829
440.93691
440.91885
441.11917
441.15924
441.19645
441.21585
441.19611
441.13737
441.06291
441.00971
440.99459
440.97526
440.94306
440.88088
440.83175
441.14149
441.18108
441.21901
441.23611
441.21748
441.14252
441.04534
440.96128
440.92493
440.88221
440.80952
440.71358
440.63454
441.10756
441.14585
441.18999
441.20814
441.18845
441.10354
440.97936
440.84784
440.76035
440.68188
440.5857
440.45766
440.34499
441.09738
441.13928
441.18895
441.21515
441.19812
441.116
440.97352
440.79886
440.64423
440.51741
440.38534
440.22427
440.07309
441.09738
441.13928
441.18895
441.21516
441.19813
441.11601
440.97352
440.79887
440.64424
440.51742
440.38534
440.22425
440.07308
441.10756
441.14585
441.18999
441.20814
441.18846
441.10355
440.97937
440.84785
440.76037
440.6819
440.58572
440.45765
440.345
441.14149
441.18108
441.21901
441.23611
441.21749
441.14252
441.04535
440.96129
440.92494
440.88222
440.80953
440.71356
440.63453
441.11917
441.15924
441.19645
441.21585
441.19611
441.13736
441.0629
441.00972
440.9946
440.97526
440.94306
440.88087
440.83174
441.03285
441.07394
441.12152
441.14913
441.14606
441.09893
441.03774
440.99936
440.99423
440.9939
440.98291
440.93691
440.91884
)
;
        Tnbr            T;
        thicknessLayers List<scalar> 0();
        kappaLayers     List<scalar> 0();
        kappaMethod     fluidThermo;
        kappa           none;
        alphaAni        none;
        alpha           none;
        field           T;
    }
}


// ************************************************************************* //
