/*--------------------------------*- C++ -*----------------------------------*\
| =========                 |                                                 |
| \\      /  F ield         | OpenFOAM: The Open Source CFD Toolbox           |
|  \\    /   O peration     | Version:  v2012                                 |
|   \\  /    A nd           | Website:  www.openfoam.com                      |
|    \\/     M anipulation  |                                                 |
\*---------------------------------------------------------------------------*/
FoamFile
{
    version     2.0;
    format      ascii;
    class       volVectorField;
    location    "40/topAir";
    object      U;
}
// * * * * * * * * * * * * * * * * * * * * * * * * * * * * * * * * * * * * * //

dimensions      [0 1 -1 0 0 0 0];


internalField   nonuniform List<vector> 
1200
(
(0.099231041 -0.00035689096 0.00083098515)
(0.10253113 -0.00044037793 0.0012450268)
(0.10508125 -0.0005500855 0.001378462)
(0.10663731 -0.00053297694 0.0013835921)
(0.1078497 -0.00038175053 0.0013056682)
(0.10898098 -0.00014980335 0.001143047)
(0.11004286 0.00012654145 0.00088402474)
(0.11104686 0.00042487148 0.00050821212)
(0.11199208 0.00072730716 -2.2452577e-05)
(0.11296975 0.0010669254 -0.00071352977)
(0.11408567 0.0014722914 -0.0016173687)
(0.1154082 0.0019797014 -0.0028114908)
(0.11695765 0.0026432416 -0.0043910041)
(0.11872924 0.0034982866 -0.0064635896)
(0.12070402 0.0046300557 -0.0091175095)
(0.12278664 0.0061046373 -0.012409664)
(0.12478429 0.0079473809 -0.016342306)
(0.12646544 0.010110875 -0.020836515)
(0.12764246 0.012466341 -0.025720371)
(0.12823611 0.01483221 -0.03074319)
(0.12829084 0.017024849 -0.035614989)
(0.12793768 0.018904642 -0.04005476)
(0.12733055 0.020389867 -0.043826122)
(0.12658444 0.021454102 -0.04675243)
(0.12571443 0.022128608 -0.048693748)
(0.12453664 0.022537181 -0.049489773)
(0.1224788 0.022986209 -0.048890398)
(0.11823772 0.024164812 -0.046456773)
(0.10981586 0.027557858 -0.041398277)
(0.073644697 0.037841526 -0.031932858)
(0.099055968 -0.0009410259 0.00084488859)
(0.099217518 -0.0013659953 0.0012821277)
(0.099261612 -0.0016316159 0.0014744202)
(0.099080976 -0.0016767173 0.0015837432)
(0.098943445 -0.0015382433 0.0016558598)
(0.098975067 -0.0012949387 0.001695873)
(0.099157561 -0.0010009563 0.0017063046)
(0.099450001 -0.00069251156 0.0016895534)
(0.099884997 -0.00036103571 0.001645838)
(0.10052542 5.8995512e-05 0.00156056)
(0.10142913 0.00062790969 0.0014030974)
(0.1026861 0.0014466017 0.0011271009)
(0.10436944 0.0026637241 0.00066555814)
(0.10653335 0.0044303008 -8.760919e-05)
(0.10933006 0.0069207017 -0.0012378846)
(0.11279538 0.01029266 -0.0029214963)
(0.11679529 0.014643443 -0.0052586533)
(0.12099974 0.019886342 -0.0082916206)
(0.12496432 0.025711511 -0.01193277)
(0.12827802 0.031653523 -0.01595637)
(0.13069339 0.037235983 -0.020048743)
(0.13215954 0.042111433 -0.023885144)
(0.13276511 0.046102411 -0.027179523)
(0.1326411 0.049175794 -0.029703291)
(0.13184773 0.05141291 -0.031253523)
(0.13023093 0.053056827 -0.031541547)
(0.12721434 0.054699924 -0.030025613)
(0.12152417 0.057552276 -0.025703387)
(0.11220612 0.063810187 -0.016862459)
(0.079016375 0.076130353 -0.00021739275)
(0.099154233 -0.0017705848 0.00085753936)
(0.099248551 -0.0025819135 0.0013051118)
(0.098765186 -0.0028714155 0.0015062206)
(0.09772884 -0.0029719899 0.0016239591)
(0.09651708 -0.0029730418 0.0017090137)
(0.09531044 -0.0029065578 0.0017728534)
(0.094126262 -0.0028036004 0.0018260761)
(0.092942181 -0.002691667 0.0018825359)
(0.09175075 -0.002551347 0.001960487)
(0.090565595 -0.0023589656 0.0020788386)
(0.089414256 -0.0020936121 0.0022561921)
(0.088344838 -0.0017176197 0.0025067902)
(0.087523494 -0.0011193232 0.0028228545)
(0.08717869 -0.00011400217 0.0031806309)
(0.087575638 0.0016503456 0.0035328318)
(0.08891467 0.0046042518 0.0037854118)
(0.09157023 0.0091422504 0.0037500037)
(0.095599712 0.015460076 0.0032462768)
(0.1006493 0.023322063 0.0022182261)
(0.10605902 0.032014626 0.00079032504)
(0.1111545 0.040603347 -0.00076789076)
(0.11546244 0.048287885 -0.0021849477)
(0.11871532 0.054587371 -0.0032520108)
(0.12074607 0.059326487 -0.0038469865)
(0.12140157 0.06254812 -0.0038965103)
(0.12046549 0.064477558 -0.0032778596)
(0.11748722 0.06564325 -0.0014410559)
(0.11152412 0.067278698 0.0026790343)
(0.10251405 0.071998294 0.010784784)
(0.06856494 0.084175428 0.025818026)
(0.097080076 -0.0012135751 0.00082821267)
(0.095555844 -0.00173304 0.0012426567)
(0.092858667 -0.001877607 0.0014092857)
(0.089377438 -0.0019049799 0.001490087)
(0.085790914 -0.001878605 0.0015380912)
(0.082329346 -0.0018079016 0.0015649321)
(0.078990761 -0.0017051762 0.001581056)
(0.075746975 -0.0015838287 0.0016009572)
(0.072585432 -0.0014475329 0.0016415982)
(0.069494933 -0.0012980852 0.0017233396)
(0.066452071 -0.0011418107 0.0018714932)
(0.063408995 -0.0010010029 0.002119581)
(0.060302571 -0.00089205016 0.0025176598)
(0.057081948 -0.00077697712 0.0031336466)
(0.053803106 -0.00048592922 0.0040471198)
(0.050786451 0.00035003939 0.0053602618)
(0.048397215 0.002186463 0.0072460778)
(0.04738906 0.0056314929 0.0098167663)
(0.048564398 0.011049764 0.012969674)
(0.052128286 0.018026679 0.01638765)
(0.057496712 0.025504806 0.019754991)
(0.063737883 0.032451902 0.022900666)
(0.069955128 0.038235524 0.025786978)
(0.075386215 0.04260473 0.02844935)
(0.079372826 0.045566291 0.030993587)
(0.081298892 0.047286742 0.033694626)
(0.080612653 0.048124977 0.036883271)
(0.076897993 0.049073669 0.041046455)
(0.07308089 0.052787235 0.046564)
(0.067103966 0.064648398 0.05237477)
(0.10049284 -0.00033922581 0.0010552986)
(0.10467768 -0.00040986326 0.0015758896)
(0.10851969 -0.00053612803 0.001745712)
(0.11154888 -0.00057292361 0.001759792)
(0.11418693 -0.00052610018 0.0016771062)
(0.1166277 -0.00045609335 0.0014989873)
(0.11887169 -0.00040157522 0.0012184664)
(0.12090411 -0.00037977325 0.00082237339)
(0.1227604 -0.00040286088 0.00027714319)
(0.12443282 -0.00049614634 -0.0004398461)
(0.12591022 -0.00067519651 -0.0013872688)
(0.12718279 -0.00095507444 -0.0026380133)
(0.12821698 -0.0013500348 -0.0042686523)
(0.12900907 -0.0019420884 -0.006366778)
(0.12962023 -0.0027225289 -0.0089919575)
(0.13010431 -0.0036977988 -0.012162075)
(0.1304992 -0.0048521842 -0.015841703)
(0.13084834 -0.0061298321 -0.019929021)
(0.13120586 -0.0074271321 -0.024259981)
(0.13162432 -0.0086027177 -0.028631834)
(0.13213875 -0.0095207606 -0.032836474)
(0.13276513 -0.010110638 -0.036689445)
(0.13350391 -0.010392966 -0.040046329)
(0.13435622 -0.010449464 -0.042774162)
(0.1353528 -0.010353697 -0.044716456)
(0.13651854 -0.010027788 -0.045666872)
(0.13774209 -0.009008776 -0.045361953)
(0.13858118 -0.0061467322 -0.043503336)
(0.1379851 0.0010475639 -0.039754261)
(0.12090107 0.019812277 -0.032710892)
(0.10037324 -0.00093008652 0.0011002467)
(0.1015089 -0.0013625641 0.0016961717)
(0.10297556 -0.0016751808 0.0019633521)
(0.10444036 -0.0018158972 0.0021114515)
(0.10593442 -0.0018343711 0.0022058536)
(0.10752004 -0.0018161663 0.002254966)
(0.10917735 -0.0018166989 0.0022624619)
(0.1108677 -0.0018653249 0.0022318355)
(0.11257714 -0.001985177 0.0021646599)
(0.11430513 -0.002219198 0.0020449112)
(0.11605087 -0.0026016174 0.001842607)
(0.11781634 -0.0031710839 0.0015207465)
(0.11960757 -0.0039736103 0.0010301365)
(0.12142426 -0.0051326721 0.00030094176)
(0.12319436 -0.0066322053 -0.00073274423)
(0.12490214 -0.0084730119 -0.0021474135)
(0.12655205 -0.010602571 -0.004001168)
(0.12816313 -0.012880638 -0.0062977897)
(0.12977619 -0.01506401 -0.0089614952)
(0.13144282 -0.016836263 -0.011836731)
(0.13319526 -0.017881784 -0.014736068)
(0.13502734 -0.0180349 -0.017486116)
(0.13688804 -0.017333155 -0.01993418)
(0.13871374 -0.016004416 -0.021903094)
(0.14055265 -0.014415242 -0.023124263)
(0.14270615 -0.012894818 -0.023168908)
(0.14585711 -0.011227558 -0.021474566)
(0.15124906 -0.0085633248 -0.017195614)
(0.16319297 -0.0030865041 -0.0091577441)
(0.19446572 0.011781958 0.0026646802)
(0.10047257 -0.0017933264 0.0011098828)
(0.10154034 -0.0026196096 0.0017151824)
(0.10248718 -0.002926615 0.0019978805)
(0.10311997 -0.0030610471 0.0021672693)
(0.10358591 -0.0031171098 0.0022926118)
(0.10400402 -0.0031293157 0.0023881865)
(0.10439299 -0.0031302933 0.0024657764)
(0.10473696 -0.0031484633 0.0025411611)
(0.10502532 -0.0032076479 0.0026332164)
(0.1052527 -0.0033357693 0.0027588175)
(0.10541043 -0.0035641883 0.0029314761)
(0.1054861 -0.0039314488 0.0031575898)
(0.10546785 -0.004485253 0.0034321566)
(0.10534212 -0.0052884653 0.0037499396)
(0.10510356 -0.0063958526 0.0041105083)
(0.10478452 -0.0078430752 0.0045058856)
(0.10447793 -0.0096456765 0.004896246)
(0.10432139 -0.011756006 0.0052943777)
(0.10447051 -0.013987456 0.0058276587)
(0.1051326 -0.015952165 0.0067444579)
(0.10650076 -0.017174819 0.008193843)
(0.10861988 -0.017384891 0.010205991)
(0.11128829 -0.016607979 0.012755558)
(0.11408333 -0.015051119 0.01589394)
(0.11660982 -0.013056754 0.019685854)
(0.11823834 -0.010663937 0.024562771)
(0.11905022 -0.0077421124 0.031303016)
(0.11952376 -0.0043613359 0.040341618)
(0.12044094 -7.068447e-05 0.05293473)
(0.11944394 0.0056540472 0.069546442)
(0.098340859 -0.0012386667 0.0010808701)
(0.097731445 -0.0017820616 0.0016656923)
(0.096393565 -0.0019500354 0.001931197)
(0.094496954 -0.0020054746 0.002079933)
(0.092485295 -0.0020123457 0.0021810933)
(0.090526309 -0.0019819961 0.0022499143)
(0.08862302 -0.0019294283 0.0022994799)
(0.086754516 -0.0018711174 0.0023477369)
(0.084911595 -0.0018202095 0.0024146426)
(0.08308719 -0.0017891709 0.0025220621)
(0.081265565 -0.0017931993 0.0026952424)
(0.079417493 -0.001854563 0.0029662116)
(0.077497568 -0.0020070994 0.0033811337)
(0.075440209 -0.0022966003 0.0039993626)
(0.073155244 -0.0027717522 0.0048885021)
(0.070539893 -0.0034729282 0.0061618356)
(0.067506895 -0.0044011416 0.0080780426)
(0.064081961 -0.0053912188 0.011056489)
(0.060530683 -0.0059595003 0.015621007)
(0.057439885 -0.0053451089 0.022131732)
(0.055546062 -0.0030102571 0.030403102)
(0.055293386 0.00087412406 0.039650529)
(0.056496517 0.0054648704 0.048927154)
(0.05848696 0.0098779077 0.057617453)
(0.06058531 0.013657227 0.065556559)
(0.062094676 0.016739581 0.072687639)
(0.062441068 0.018599383 0.079119006)
(0.06046268 0.019494089 0.08586241)
(0.057032486 0.020316255 0.093378714)
(0.048286736 0.022093048 0.1001668)
(0.10037042 -0.00034613434 0.00040401598)
(0.10434866 -0.00041660156 0.00069121441)
(0.1081042 -0.00053277016 0.00085330753)
(0.11116751 -0.00054835592 0.00093995052)
(0.11389036 -0.00046930272 0.00097952292)
(0.11643219 -0.00035730763 0.00097986784)
(0.11878622 -0.00025313306 0.00094541039)
(0.120928 -0.00017579011 0.00088115542)
(0.12285601 -0.00013691591 0.00078909091)
(0.12456403 -0.00014755431 0.0006545538)
(0.12604389 -0.00020963128 0.00047007315)
(0.12729577 -0.00032502495 0.00022754682)
(0.12826942 -0.00049862789 -7.9372571e-05)
(0.12892989 -0.00082082998 -0.00047986344)
(0.12932342 -0.0012764383 -0.0010100991)
(0.12947723 -0.001896169 -0.0016780045)
(0.12939478 -0.0027230684 -0.0024859722)
(0.12909252 -0.0038089115 -0.0034546103)
(0.1286259 -0.0052154453 -0.0046355845)
(0.12810903 -0.0069956323 -0.0061155202)
(0.12771348 -0.0091581257 -0.0079990481)
(0.12763278 -0.011617282 -0.010360984)
(0.12804156 -0.014171868 -0.01318127)
(0.12906612 -0.016544474 -0.01629395)
(0.13077515 -0.018451303 -0.019405936)
(0.1331935 -0.019612166 -0.022181169)
(0.1362561 -0.019609096 -0.024359634)
(0.13956976 -0.017341977 -0.025887699)
(0.14216161 -0.009669974 -0.027191181)
(0.12781705 0.011892905 -0.029297672)
(0.10024985 -0.00092969673 0.00041432718)
(0.10116909 -0.0013529156 0.00072426509)
(0.10254777 -0.0016455938 0.00091478645)
(0.10406612 -0.0017538969 0.0010364713)
(0.10568438 -0.0017270221 0.0011189327)
(0.10742677 -0.0016516033 0.0011687256)
(0.1092643 -0.0015843538 0.0011862111)
(0.11115123 -0.0015541067 0.0011710357)
(0.11305699 -0.0015801409 0.0011194341)
(0.11496216 -0.0016820115 0.0010198391)
(0.11685125 -0.001871144 0.0008567653)
(0.1187136 -0.00216166 0.00061101185)
(0.120544 -0.0025763684 0.00026013397)
(0.12231236 -0.0032287349 -0.00022402018)
(0.12395415 -0.0041321678 -0.00089820443)
(0.12541986 -0.0053380555 -0.00182711)
(0.12666977 -0.0069128256 -0.003090958)
(0.12766427 -0.0089223596 -0.0047824232)
(0.12838429 -0.011423746 -0.0069975788)
(0.12885659 -0.01440551 -0.009813443)
(0.12916116 -0.017736903 -0.013228907)
(0.12941971 -0.02113062 -0.0171051)
(0.12977309 -0.024217769 -0.021156253)
(0.13037821 -0.026659204 -0.025004665)
(0.13141266 -0.028239808 -0.028257532)
(0.13317357 -0.028816552 -0.030560456)
(0.13628982 -0.028171247 -0.031779083)
(0.14233498 -0.025412345 -0.032164748)
(0.15645163 -0.01760172 -0.032769521)
(0.19668595 0.0021812185 -0.03433166)
(0.10035102 -0.0017886445 0.000418058)
(0.10120827 -0.0026105242 0.0007322077)
(0.10207418 -0.002905695 0.0009312031)
(0.10277094 -0.0030226766 0.0010659793)
(0.10337918 -0.0030565265 0.0011668104)
(0.10398468 -0.0030408375 0.0012416785)
(0.10460327 -0.0030061375 0.0012936901)
(0.10522112 -0.0029772311 0.001327102)
(0.10582659 -0.002972571 0.0013458045)
(0.10641224 -0.0030091535 0.0013507714)
(0.1069692 -0.0031048804 0.0013392653)
(0.10748533 -0.0032828762 0.0013038952)
(0.10794392 -0.0035771629 0.0012304929)
(0.1083137 -0.0040447322 0.0010972829)
(0.10853832 -0.004743629 0.00086872201)
(0.10854735 -0.0057380563 0.00048400182)
(0.10827347 -0.007113611 -0.00015973695)
(0.10765245 -0.0089642794 -0.0012149757)
(0.10667598 -0.011379988 -0.0028521272)
(0.10541948 -0.014382842 -0.0051663621)
(0.10404398 -0.01783126 -0.0079702994)
(0.10276731 -0.021340333 -0.010831534)
(0.10185454 -0.024416099 -0.013219627)
(0.10156368 -0.026720181 -0.014672194)
(0.10200174 -0.028202837 -0.014686278)
(0.10334259 -0.028828646 -0.012271227)
(0.10590826 -0.02873209 -0.0065986192)
(0.1108435 -0.028037073 0.0036699701)
(0.12133826 -0.027272408 0.020280066)
(0.14806469 -0.02828325 0.045374819)
(0.098221933 -0.001232933 0.00040736585)
(0.097403332 -0.0017700193 0.00070860477)
(0.095984152 -0.0019301261 0.0008948323)
(0.094150842 -0.0019777241 0.0010163599)
(0.092282095 -0.0019766419 0.0011041086)
(0.09051178 -0.0019372954 0.0011673237)
(0.088839474 -0.0018739694 0.0012107174)
(0.087246268 -0.001802417 0.0012407935)
(0.085723275 -0.001734586 0.0012647664)
(0.08426513 -0.0016797509 0.0012891395)
(0.082863182 -0.0016467964 0.0013198845)
(0.081503655 -0.0016465722 0.001363692)
(0.08016616 -0.00169511 0.0014296328)
(0.078818494 -0.0018178182 0.0015303028)
(0.077407996 -0.0020487632 0.0016822176)
(0.075856888 -0.0024313672 0.0019113397)
(0.074065534 -0.0030291131 0.002268175)
(0.071923056 -0.0039282311 0.0028511311)
(0.06934245 -0.0051896099 0.0038783327)
(0.066319534 -0.0067663864 0.0058055994)
(0.063020636 -0.0083141004 0.0093619239)
(0.059855348 -0.0091514158 0.01529948)
(0.057405993 -0.0085524272 0.023899368)
(0.056120964 -0.0063368325 0.034678461)
(0.05597439 -0.0030419349 0.046645322)
(0.056358024 0.00050280265 0.058774478)
(0.056421161 0.0033388752 0.070782471)
(0.054900914 0.0047605834 0.083294565)
(0.051137679 0.0037984896 0.097294185)
(0.029202236 -0.0032927086 0.11359846)
(0.10034581 -0.00034428494 0.0002244636)
(0.10425099 -0.00041079446 0.00041867469)
(0.10792419 -0.00051996508 0.000559101)
(0.11092607 -0.00052346653 0.00065117537)
(0.11360995 -0.00042446243 0.00070789641)
(0.1161274 -0.0002823703 0.00073810799)
(0.11846698 -0.00013516068 0.00074650754)
(0.12060206 3.0117093e-06 0.00073588737)
(0.12253118 0.00012887101 0.00070788371)
(0.12426324 0.00024374029 0.00066432915)
(0.1258046 0.00035379363 0.00061614677)
(0.12715056 0.0004715518 0.00057509346)
(0.1282339 0.0006168315 0.00055137136)
(0.12900161 0.00067330026 0.0005147073)
(0.12954404 0.00071198172 0.00044581126)
(0.12997134 0.00074894687 0.0003807119)
(0.13031855 0.00077839805 0.00038840786)
(0.13058713 0.00079387727 0.00055269353)
(0.1307791 0.00077723453 0.00094766025)
(0.13090519 0.00069066782 0.0016117401)
(0.13099112 0.00047264235 0.0025242894)
(0.13109323 4.2920504e-05 0.0035805852)
(0.1313155 -0.00067455521 0.0045803269)
(0.13180139 -0.0016984914 0.0052434773)
(0.13266997 -0.0029154518 0.0052805791)
(0.13388118 -0.0039951894 0.0044807733)
(0.13500957 -0.0042388868 0.0027333709)
(0.13474999 -0.0021268069 -9.4065138e-05)
(0.13022151 0.0059632768 -0.0051806527)
(0.08338775 0.032864396 -0.015262214)
(0.10022577 -0.00092844744 0.00023126284)
(0.10106737 -0.0013474039 0.00043934165)
(0.102353 -0.0016304966 0.00059597259)
(0.10379771 -0.0017209812 0.00070471821)
(0.10536437 -0.0016644576 0.00077792138)
(0.10706805 -0.0015440285 0.00082316282)
(0.10887464 -0.001411543 0.00084317879)
(0.11073643 -0.0012877939 0.00083862978)
(0.11262122 -0.0011791817 0.00080851558)
(0.11451094 -0.0010870854 0.00074996513)
(0.11639415 -0.0010090245 0.00065975075)
(0.11826475 -0.00093814521 0.00053350113)
(0.120122 -0.00086436844 0.00036577562)
(0.12192844 -0.00091640954 0.00015953893)
(0.12364491 -0.00103404 -0.00011111216)
(0.12526159 -0.0012165214 -0.00047342977)
(0.12676518 -0.0014895627 -0.00095440223)
(0.12814304 -0.0018907178 -0.0015873419)
(0.12938244 -0.002476517 -0.0024143131)
(0.130465 -0.0033335462 -0.0035019781)
(0.13136998 -0.0045778812 -0.004951077)
(0.13209199 -0.0063230677 -0.006887873)
(0.13267161 -0.0086036866 -0.0094164787)
(0.13322293 -0.011257748 -0.012546483)
(0.13393513 -0.013852098 -0.016142533)
(0.13504258 -0.015719307 -0.019986327)
(0.13683824 -0.015829594 -0.024010059)
(0.14009585 -0.011851864 -0.028846008)
(0.15006372 0.0028456601 -0.035857222)
(0.16411047 0.038733197 -0.043012534)
(0.10032762 -0.001786621 0.00023268079)
(0.10110951 -0.00260683 0.00044204904)
(0.10188482 -0.0028975507 0.0006020029)
(0.10250987 -0.0030056909 0.00071635537)
(0.10306866 -0.0030254894 0.0007973654)
(0.10363966 -0.0029888674 0.00085278985)
(0.10423604 -0.0029233541 0.00088609123)
(0.10484489 -0.002849218 0.00089935267)
(0.10545569 -0.0027781946 0.0008937984)
(0.10606281 -0.002717949 0.00086921383)
(0.10666094 -0.0026756115 0.00082363743)
(0.10724371 -0.0026603001 0.00075261685)
(0.10780524 -0.0026863951 0.00064760368)
(0.10832947 -0.002785141 0.00050434212)
(0.10878313 -0.0029671455 0.00031470379)
(0.10912838 -0.0032569274 6.5354335e-05)
(0.10931921 -0.0036923872 -0.00026000457)
(0.10930164 -0.004339964 -0.0006914786)
(0.10900766 -0.0052903059 -0.0012792967)
(0.10834166 -0.006668355 -0.0021322239)
(0.10721219 -0.0086223014 -0.0034109035)
(0.10559797 -0.011274957 -0.0052624993)
(0.10363673 -0.014609227 -0.007633559)
(0.10167101 -0.0183248 -0.010151072)
(0.10017778 -0.021841043 -0.012202631)
(0.099718155 -0.024557324 -0.013180808)
(0.10115835 -0.026047812 -0.01256167)
(0.10649406 -0.025773253 -0.0096864347)
(0.12183896 -0.022427431 -0.0031641767)
(0.1775053 -0.0139738 0.0065777101)
(0.098198547 -0.0012346571 0.00022647791)
(0.097305468 -0.0017740853 0.00042767965)
(0.095796849 -0.0019349703 0.00057897269)
(0.0938927 -0.0019812897 0.00068409997)
(0.091975866 -0.0019767708 0.00075547752)
(0.090173189 -0.0019311785 0.00080153809)
(0.088481303 -0.0018577763 0.00082674697)
(0.086881608 -0.0017710238 0.00083447119)
(0.085365308 -0.0016809911 0.00082766246)
(0.083926824 -0.0015941522 0.00080840022)
(0.08255838 -0.0015154217 0.00077773436)
(0.08124942 -0.0014496146 0.00073590556)
(0.079987 -0.001403228 0.00068280169)
(0.078752108 -0.0013886697 0.0006198769)
(0.077513642 -0.0014204644 0.00055147676)
(0.076229636 -0.0015179694 0.00048529582)
(0.074849195 -0.0017140121 0.00043750748)
(0.073309664 -0.0020594967 0.00043549434)
(0.071530779 -0.002643748 0.00051844283)
(0.069415155 -0.0035995194 0.0007389451)
(0.066870819 -0.0050820452 0.0012118292)
(0.06386486 -0.0071838718 0.0022567574)
(0.060523253 -0.0097192471 0.0045896208)
(0.057241044 -0.012027066 0.0092619052)
(0.054671409 -0.013167042 0.017123511)
(0.053420083 -0.012589434 0.02812853)
(0.053644656 -0.010776456 0.04150913)
(0.054797227 -0.0091266202 0.056957545)
(0.057222864 -0.0099415259 0.075771381)
(0.049133664 -0.018232841 0.1013611)
(0.10033236 -0.00034503329 6.6137659e-05)
(0.10420131 -0.00041203606 0.0001226872)
(0.10783159 -0.00052112952 0.00016200538)
(0.11079968 -0.0005231406 0.00018535489)
(0.11346283 -0.00042023789 0.00019744642)
(0.11596945 -0.00027113365 0.00020215673)
(0.11830498 -0.00011341885 0.00020180937)
(0.12044171 3.9214601e-05 0.00019797173)
(0.1223785 0.00018420745 0.00019202803)
(0.12412586 0.0003241764 0.00018554121)
(0.12569227 0.00046644827 0.00018073452)
(0.12707752 0.00062397925 0.00018056932)
(0.12815948 0.00082550416 0.00019045338)
(0.12886461 0.00089495714 0.00018175044)
(0.12933657 0.00093409492 0.00014159319)
(0.12972964 0.00096454726 7.654891e-05)
(0.13011063 0.0010057854 2.8350822e-06)
(0.13049625 0.0011013451 -5.1980282e-05)
(0.13087446 0.0012697754 -6.0946009e-05)
(0.13123949 0.0015288412 -3.7680216e-06)
(0.13161103 0.0018945946 0.00013961535)
(0.13202691 0.0023750802 0.00039021215)
(0.13252979 0.0029648238 0.00075635626)
(0.13315092 0.0036481061 0.0012072833)
(0.13386741 0.0044357505 0.0016508648)
(0.1344452 0.0054810308 0.0019342098)
(0.13394743 0.0073575796 0.0018391593)
(0.12964362 0.011690462 0.00093237017)
(0.11819433 0.022641787 -0.0019853449)
(0.038767948 0.055421057 -0.0081428786)
(0.10021181 -0.00092879316 6.7791756e-05)
(0.10101344 -0.0013472371 0.00012785381)
(0.10224883 -0.0016282788 0.00017092299)
(0.10365112 -0.0017140821 0.00019753753)
(0.1051878 -0.0016489994 0.00021211089)
(0.10687018 -0.0015150332 0.00021811301)
(0.10866047 -0.0013630929 0.00021720309)
(0.11050943 -0.0012127354 0.00021010742)
(0.11238438 -0.0010685958 0.00019709232)
(0.11426741 -0.00092940365 0.0001780024)
(0.11614749 -0.00079018718 0.00015240278)
(0.11802028 -0.00064076461 0.00011933433)
(0.11992164 -0.00042998386 7.8055759e-05)
(0.12179708 -0.00035904664 3.8857979e-05)
(0.12357021 -0.00033105948 -3.5626643e-06)
(0.12523026 -0.0003253404 -6.6442867e-05)
(0.12678335 -0.00033182279 -0.00016259325)
(0.12823862 -0.00031853872 -0.00030560349)
(0.12961106 -0.00028215133 -0.00050964895)
(0.13091505 -0.00022679263 -0.0007931821)
(0.13216574 -0.00016885522 -0.0011828596)
(0.13337525 -0.00014910585 -0.0017219253)
(0.13454246 -0.000244259 -0.0024851392)
(0.13564197 -0.00056278309 -0.003591341)
(0.13661713 -0.0011608734 -0.0051819973)
(0.13738046 -0.0017163432 -0.0073389094)
(0.13786077 -0.00065413099 -0.010001294)
(0.13842371 0.0065751392 -0.01320105)
(0.14048939 0.027726606 -0.016997009)
(0.11458589 0.07367389 -0.021498477)
(0.10031389 -0.0017859568 6.80535e-05)
(0.10105667 -0.0026057262 0.00012830774)
(0.10178266 -0.0028947045 0.0001721566)
(0.1023657 -0.0029990377 0.00020017863)
(0.10289456 -0.0030126664 0.00021669888)
(0.10344435 -0.0029670408 0.00022512918)
(0.104025 -0.0028888958 0.00022713442)
(0.10462253 -0.0027973782 0.00022351911)
(0.10522618 -0.0027026844 0.0002146884)
(0.10582998 -0.002610451 0.00020056307)
(0.10642769 -0.0025254188 0.00018034093)
(0.10701035 -0.0024520893 0.00015191785)
(0.10758151 -0.0023686655 0.00011059326)
(0.10813733 -0.0023203271 5.6585458e-05)
(0.10864175 -0.0023088416 -1.1986629e-05)
(0.10905863 -0.0023333681 -0.00010262836)
(0.10935665 -0.0024085447 -0.00022571393)
(0.10950262 -0.0025513162 -0.00039463789)
(0.10946152 -0.0027915494 -0.00063179702)
(0.10918873 -0.003177574 -0.00096834408)
(0.10862351 -0.00378891 -0.001449093)
(0.10768462 -0.004754858 -0.0021495196)
(0.10627513 -0.0062663861 -0.003190303)
(0.10432805 -0.0085586378 -0.0047051554)
(0.10194462 -0.011791984 -0.0066658661)
(0.099658352 -0.015703037 -0.0085712805)
(0.098978051 -0.019002434 -0.0093997743)
(0.10273035 -0.01870849 -0.0082157164)
(0.12210206 -0.0062266688 -0.0075035247)
(0.17237937 0.032232862 -0.013703375)
(0.098184938 -0.0012343116 6.6272842e-05)
(0.097253233 -0.0017732771 0.00012415049)
(0.095695725 -0.0019328594 0.00016546557)
(0.093749575 -0.001976936 0.00019075174)
(0.091802831 -0.0019693422 0.00020436213)
(0.089979061 -0.0019196915 0.00020991054)
(0.088271281 -0.0018409129 0.0002093381)
(0.086659236 -0.0017470642 0.00020374371)
(0.085133157 -0.0016476955 0.00019386928)
(0.083686198 -0.0015485126 0.00018004338)
(0.082308964 -0.0014531741 0.00016202154)
(0.080989123 -0.0013637926 0.00013887255)
(0.079713384 -0.0012792557 0.00010892602)
(0.078465056 -0.0012119325 7.0665116e-05)
(0.077214972 -0.0011712818 2.3409316e-05)
(0.075924515 -0.0011616134 -3.4004793e-05)
(0.074555371 -0.0011924223 -0.00010160212)
(0.073069334 -0.0012768812 -0.00017510058)
(0.071423085 -0.0014378079 -0.00024391006)
(0.06955901 -0.0017171199 -0.0002894309)
(0.067399176 -0.0021933815 -0.00029047384)
(0.064855119 -0.0030115275 -0.00022985163)
(0.061851595 -0.004409122 -7.0070787e-05)
(0.058373884 -0.0066869187 0.00037799431)
(0.054604129 -0.0099930088 0.0017494419)
(0.051221068 -0.01389583 0.0053121205)
(0.049831701 -0.017314009 0.012516458)
(0.053225468 -0.019553236 0.024245774)
(0.067548401 -0.020306647 0.04115963)
(0.12237623 -0.021367943 0.06375237)
(0.10033236 -0.00034503322 -6.6131935e-05)
(0.10420131 -0.00041203606 -0.00012268454)
(0.10783159 -0.00052112945 -0.00016200378)
(0.11079968 -0.00052314047 -0.00018535427)
(0.11346284 -0.00042023756 -0.00019744658)
(0.11596945 -0.00027113303 -0.00020215759)
(0.11830498 -0.00011341785 -0.00020181079)
(0.12044171 3.9215977e-05 -0.00019797351)
(0.1223785 0.00018420931 -0.00019203006)
(0.12412586 0.00032417889 -0.00018554318)
(0.12569227 0.00046645121 -0.00018073651)
(0.12707752 0.00062398252 -0.00018057106)
(0.12815948 0.00082550749 -0.00019045536)
(0.12886461 0.0008949616 -0.00018175196)
(0.12933658 0.00093410078 -0.00014159288)
(0.12972965 0.00096455549 -7.6545762e-05)
(0.13011065 0.001005796 -2.8284207e-06)
(0.13049627 0.0011013592 5.1992659e-05)
(0.13087449 0.0012697941 6.0966075e-05)
(0.13123953 0.0015288665 3.8009355e-06)
(0.13161109 0.0018946311 -0.00013956679)
(0.13202699 0.0023751299 -0.0003901381)
(0.1325299 0.0029648967 -0.0007562513)
(0.13315107 0.0036482066 -0.0012071337)
(0.1338676 0.0044358909 -0.0016506576)
(0.13444543 0.0054812264 -0.0019339315)
(0.13394765 0.0073578481 -0.0018388008)
(0.12964373 0.011690828 -0.00093194948)
(0.11819422 0.022642258 0.0019857474)
(0.03876732 0.055421378 0.0081431481)
(0.10021181 -0.00092879303 -6.7785903e-05)
(0.10101344 -0.0013472371 -0.00012785114)
(0.10224883 -0.0016282787 -0.00017092148)
(0.10365112 -0.001714082 -0.00019753722)
(0.1051878 -0.0016489989 -0.00021211175)
(0.10687018 -0.0015150324 -0.00021811507)
(0.10866047 -0.0013630916 -0.00021720636)
(0.11050943 -0.0012127337 -0.00021011199)
(0.11238438 -0.0010685935 -0.00019709827)
(0.11426741 -0.00092940056 -0.00017800984)
(0.11614749 -0.00079018344 -0.0001524119)
(0.11802028 -0.00064076042 -0.00011934527)
(0.11992164 -0.00042997897 -7.8068944e-05)
(0.12179708 -0.00035903955 -3.8873696e-05)
(0.12357021 -0.00033104972 3.543694e-06)
(0.12523026 -0.00032532616 6.6420333e-05)
(0.12678335 -0.00033180289 0.00016256672)
(0.12823864 -0.00031851057 0.00030557264)
(0.12961108 -0.00028211185 0.000509614)
(0.13091508 -0.00022673653 0.00079314229)
(0.13216578 -0.00016877474 0.0011828161)
(0.13337531 -0.00014899041 0.0017218759)
(0.13454254 -0.00024409145 0.0024850829)
(0.13564209 -0.00056254171 0.0035912716)
(0.13661729 -0.0011605224 0.0051819029)
(0.13738066 -0.0017158318 0.0073387716)
(0.13786099 -0.00065338003 0.010001085)
(0.13842386 0.0065762146 0.013200743)
(0.14048902 0.027727778 0.016996564)
(0.11458352 0.07367503 0.021497877)
(0.10031389 -0.0017859568 -6.8047551e-05)
(0.10105667 -0.0026057263 -0.00012830512)
(0.10178266 -0.0028947045 -0.00017215517)
(0.1023657 -0.0029990376 -0.00020017836)
(0.10289456 -0.0030126663 -0.0002166997)
(0.10344435 -0.0029670406 -0.00022513107)
(0.104025 -0.0028888954 -0.00022713738)
(0.10462253 -0.0027973776 -0.00022352334)
(0.10522618 -0.0027026837 -0.00021469388)
(0.10582998 -0.00261045 -0.00020057003)
(0.10642769 -0.0025254176 -0.0001803495)
(0.10701035 -0.0024520878 -0.00015192842)
(0.10758151 -0.0023686632 -0.00011060633)
(0.10813733 -0.0023203235 -5.6601816e-05)
(0.10864174 -0.0023088364 1.1966109e-05)
(0.10905862 -0.00233336 0.00010260268)
(0.10935665 -0.0024085324 0.00022568201)
(0.10950261 -0.0025512982 0.00039459824)
(0.10946152 -0.002791523 0.00063174769)
(0.10918873 -0.0031775357 0.00096828299)
(0.1086235 -0.0037888546 0.0014490151)
(0.10768461 -0.0047547773 0.0021494198)
(0.10627512 -0.0062662707 0.0031901704)
(0.10432802 -0.0085584731 0.0047049772)
(0.10194457 -0.011791752 0.0066656285)
(0.09965825 -0.015702712 0.0085709673)
(0.09897787 -0.019001967 0.0093993649)
(0.10272994 -0.018707772 0.0082151812)
(0.12210163 -0.006225053 0.0075030355)
(0.17237677 0.03223544 0.013702506)
(0.098184938 -0.0012343116 -6.6266702e-05)
(0.097253233 -0.0017732771 -0.00012414755)
(0.095695725 -0.0019328594 -0.0001654635)
(0.093749575 -0.001976936 -0.0001907504)
(0.091802831 -0.0019693421 -0.00020436142)
(0.089979061 -0.0019196914 -0.00020991039)
(0.088271281 -0.0018409127 -0.00020933855)
(0.086659236 -0.0017470639 -0.0002037447)
(0.085133157 -0.0016476951 -0.00019387096)
(0.083686198 -0.001548512 -0.00018004567)
(0.082308963 -0.0014531733 -0.00016202455)
(0.080989122 -0.0013637918 -0.00013887627)
(0.079713382 -0.0012792545 -0.00010893075)
(0.078465053 -0.0012119309 -7.067105e-05)
(0.077214968 -0.0011712797 -2.3416923e-05)
(0.07592451 -0.0011616104 3.399495e-05)
(0.074555363 -0.0011924184 0.00010158938)
(0.073069322 -0.001276876 0.00017508384)
(0.071423068 -0.0014378007 0.00024388792)
(0.069558986 -0.0017171099 0.0002894008)
(0.067399143 -0.0021933656 0.00029043215)
(0.064855068 -0.0030115027 0.00022979257)
(0.061851518 -0.0044090823 6.9986138e-05)
(0.058373765 -0.006686859 -0.00037811264)
(0.054603949 -0.0099929257 -0.0017496016)
(0.051220808 -0.013895719 -0.0053123402)
(0.049831355 -0.01731385 -0.012516788)
(0.053225056 -0.019552969 -0.024246311)
(0.067547854 -0.020305968 -0.041160399)
(0.12237766 -0.021366214 -0.063751707)
(0.10034581 -0.00034428483 -0.00022445771)
(0.10425099 -0.0004107944 -0.00041867227)
(0.10792419 -0.00051996509 -0.00055910007)
(0.11092607 -0.00052346656 -0.00065117564)