/*--------------------------------*- C++ -*----------------------------------*\
| =========                 |                                                 |
| \\      /  F ield         | OpenFOAM: The Open Source CFD Toolbox           |
|  \\    /   O peration     | Version:  v2012                                 |
|   \\  /    A nd           | Website:  www.openfoam.com                      |
|    \\/     M anipulation  |                                                 |
\*---------------------------------------------------------------------------*/
FoamFile
{
    version     2.0;
    format      ascii;
    class       volScalarField;
    location    "480/bottomWater";
    object      p;
}
// * * * * * * * * * * * * * * * * * * * * * * * * * * * * * * * * * * * * * //

dimensions      [1 -1 -2 0 0 0 0];


internalField   nonuniform List<scalar> 
1460
(
353.44592
353.44612
353.44906
353.44805
353.45337
353.45895
353.46267
353.47146
353.46999
353.46966
353.47073
353.47071
353.45878
353.44511
353.4494
353.45727
353.44909
353.44673
353.44084
353.46355
353.46084
353.47284
353.47608
353.47545
353.47343
353.46715
353.45792
353.45804
353.46498
353.46697
274.4397
274.42069
274.42362
274.43003
274.44023
274.4674
274.48224
274.46739
274.40857
274.40245
274.40276
274.46675
274.45974
274.42854
274.41206
274.4073
274.41295
274.41006
274.42031
274.4858
274.48949
274.4959
274.49192
274.46855
274.4651
274.44144
274.41042
274.39897
274.40473
274.41802
196.30575
196.30314
196.31421
196.29561
196.29618
196.26077
196.26365
196.23304
196.26508
196.28978
196.27041
196.2283
196.24866
196.26992
196.2962
196.30765
196.30615
196.27174
196.25061
196.22749
196.27587
196.25938
196.27648
196.26969
196.26388
196.2594
196.28487
196.32344
196.33745
196.35449
117.62856
117.66013
117.68201
117.67241
117.68461
117.68011
117.66585
117.65565
117.64959
117.68594
117.64756
117.63258
117.65757
117.65573
117.66508
117.68444
117.67901
117.67008
117.66093
117.66388
117.68318
117.69986
117.68056
117.6559
117.64422
117.62234
117.63416
117.65272
117.66214
117.60515
39.278102
39.230868
39.243122
39.239071
39.231434
39.222889
39.225467
39.254358
39.271608
39.28006
39.251636
39.251448
39.22467
39.259418
39.251408
39.264337
39.26265
39.259671
39.253421
39.244757
39.227222
39.234495
39.234439
39.229378
39.230771
39.253506
39.233415
39.232064
39.229657
39.267573
353.44239
353.45073
353.44898
353.45324
353.45736
353.443
353.47142
353.46804
353.47244
353.4684
353.46958
353.46345
353.43514
353.44977
353.44417
353.44974
353.44782
353.45439
353.44433
353.4512
353.46521
353.46653
353.47057
353.47076
353.46839
353.46512
353.46158
353.46085
353.46058
353.46427
274.44947
274.44736
274.42407
274.41491
274.4195
274.42301
274.46853
274.44368
274.3908
274.39591
274.42646
274.44779
274.42342
274.42748
274.42926
274.42023
274.4114
274.40777
274.40347
274.42371
274.46177
274.46742
274.44723
274.41589
274.39001
274.38859
274.42421
274.40228
274.40361
274.40588
196.29213
196.25643
196.28513
196.29331
196.27705
196.23929
196.22063
196.2327
196.27851
196.27441
196.23923
196.24809
196.29431
196.28985
196.31099
196.28359
196.3112
196.30204
196.26651
196.24202
196.25437
196.27269
196.26723
196.2613
196.28086
196.30461
196.33236
196.29954
196.31801
196.33969
117.63858
117.62264
117.64613
117.69762
117.69807
117.64751
117.67284
117.65741
117.69036
117.67873
117.60757
117.64851
117.64422
117.68252
117.61611
117.63872
117.67084
117.67876
117.65825
117.64443
117.66765
117.64489
117.62601
117.61001
117.643
117.66006
117.60546
117.60617
117.634
117.65454
39.288814
39.237164
39.230622
39.233165
39.235679
39.237342
39.249669
39.255481
39.262601
39.267897
39.252013
39.23707
39.227613
39.247212
39.280212
39.258345
39.254996
39.264774
39.252559
39.248764
39.236769
39.229627
39.233806
39.253807
39.253481
39.270556
39.28778
39.26048
39.231473
39.234504
353.44854
353.45261
353.45637
353.44909
353.46319
353.44487
353.46828
353.46665
353.46757
353.46009
353.47266
353.45751
353.45934
353.46296
353.45591
353.48064
353.44725
353.46467
353.46088
353.45721
353.45373
353.47844
353.4798
353.48728
353.48577
353.47952
353.49145
353.46644
353.4565
353.46648
274.45709
274.48082
274.46827
274.44008
274.42051
274.4437
274.44213
274.42745
274.40229
274.42058
274.47194
274.46899
274.4584
274.41985
274.44305
274.45266
274.40919
274.40513
274.40766
274.41315
274.41962
274.43412
274.39875
274.37769
274.38122
274.39917
274.45908
274.44924
274.3991
274.40931
196.28718
196.2617
196.27111
196.27876
196.27387
196.2885
196.22053
196.2752
196.26003
196.25452
196.22632
196.254
196.27136
196.25534
196.30537
196.23466
196.2701
196.29495
196.3179
196.26302
196.3021
196.23605
196.29582
196.2854
196.30144
196.2957
196.24957
196.26491
196.28937
196.32678
117.63439
117.62357
117.66608
117.65882
117.67976
117.65584
117.68489
117.65337
117.68624
117.61216
117.63402
117.6504
117.66009
117.67831
117.62901
117.66832
117.63252
117.68884
117.67173
117.65693
117.65668
117.64273
117.64015
117.69287
117.69424
117.6177
117.63674
117.61559
117.62899
117.66452
39.272921
39.231732
39.226863
39.232125
39.241384
39.265345
39.258842
39.261237
39.275068
39.26723
39.251049
39.230118
39.225562
39.242061
39.27834
39.246301
39.265133
39.265455
39.264388
39.259588
39.241876
39.258025
39.270798
39.292311
39.284678
39.285992
39.280592
39.248064
39.22582
39.233071
353.45083
353.45363
353.45783
353.45703
353.45786
353.45174
353.4564
353.4632
353.45692
353.4576
353.47095
353.4661
353.46388
353.46521
353.44117
353.47326
353.44175
353.46266
353.45419
353.45565
353.45901
353.45963
353.46405
353.46801
353.47052
353.47099
353.47666
353.48087
353.47926
353.46916
274.44564
274.47689
274.49785
274.48249
274.46312
274.45057
274.4154
274.41002
274.4005
274.42944
274.49435
274.48154
274.48704
274.47657
274.44868
274.46582
274.4153
274.40791
274.40588
274.41711
274.40912
274.41547
274.39282
274.41237
274.44199
274.41906
274.42071
274.457
274.44675
274.4305
196.2891
196.25101
196.27679
196.25837
196.24317
196.23784
196.26038
196.29303
196.26152
196.23539
196.22276
196.25429
196.25731
196.25806
196.30601
196.26283
196.27133
196.29924
196.31779
196.30282
196.31238
196.31131
196.30571
196.31201
196.28083
196.30839
196.30873
196.285
196.27693
196.2894
117.65636
117.64614
117.67331
117.69025
117.66939
117.64884
117.66204
117.67848
117.67389
117.62861
117.6407
117.66421
117.70063
117.692
117.64672
117.68028
117.63676
117.67684
117.66011
117.65
117.65759
117.63452
117.64854
117.59681
117.59324
117.62449
117.6229
117.6468
117.66031
117.64727
39.245536
39.237481
39.220413
39.231277
39.228227
39.245637
39.248908
39.261514
39.255827
39.250039
39.23935
39.210619
39.22984
39.221932
39.237007
39.227215
39.243065
39.24606
39.249397
39.250493
39.238739
39.26417
39.255397
39.266301
39.268756
39.241352
39.23215
39.219407
39.221293
39.242501
353.44632
353.44549
353.45297
353.42648
353.43736
353.44151
353.45063
353.45668
353.45229
353.45652
353.46426
353.44639
353.44738
353.45774
353.45047
353.46236
353.47283
353.46854
353.46803
353.48331
353.48069
353.48823
353.48059
353.48092
353.47798
353.47691
274.42788
274.45877
274.48147
274.43412
274.43385
274.42121
274.41154
274.40996
274.39853
274.43741
274.46343
274.43656
274.44019
274.41879
274.42099
274.43001
274.45791
274.39373
274.41243
274.44211
274.45895
274.47105
274.46472
274.45417
274.42844
274.40585
196.27919
196.24346
196.23945
196.27088
196.28578
196.27826
196.28281
196.29441
196.24805
196.24619
196.24394
196.27704
196.31047
196.31125
196.2974
196.25553
196.27354
196.27043
196.28902
196.24236
196.27514
196.27125
196.27548
196.26838
196.25799
196.29704
117.66743
117.64015
117.65626
117.65466
117.67495
117.6566
117.67781
117.6856
117.67245
117.62573
117.66296
117.65887
117.69269
117.68551
117.66664
117.65788
117.61911
117.66974
117.61958
117.65771
117.65921
117.67777
117.66796
117.6548
117.62934
117.6489
39.245537
39.249439
39.236454
39.232725
39.232059
39.238959
39.244075
39.262258
39.252589
39.243608
39.221967
39.222799
39.22194
39.240155
39.228835
39.2283
39.25475
39.248353
39.244765
39.231305
39.216358
39.225336
39.225745
39.228595
39.244183
39.244653
353.43695
353.4337
353.43354
353.4336
353.43952
353.44096
353.44139
353.44173
353.4374
353.44299
353.43912
353.44175
353.4388
353.45764
353.45145
353.47201
353.48129
353.47454
353.46944
353.46433
353.47704
353.48409
353.48755
353.47404
353.47209
353.47717
274.42507
274.43071
274.45385
274.42636
274.4277
274.42428
274.41735
274.42824
274.43019
274.42907
274.42433
274.4106
274.42563
274.42236
274.42133
274.466
274.46987
274.3791
274.42448
274.41042
274.43717
274.46339
274.47272
274.41418
274.39307
274.39504
196.32075
196.2919
196.27782
196.29562
196.30151
196.3224
196.30722
196.26967
196.27953
196.28483
196.28772
196.28784
196.30139
196.30226
196.27219
196.23642
196.26177
196.28336
196.29153
196.27849
196.26479
196.27112
196.22597
196.26158
196.27335
196.32795
117.67344
117.65689
117.64197
117.66656
117.66895
117.67896
117.65333
117.6116
117.61603
117.6209
117.61495
117.6562
117.66277
117.68895
117.64104
117.64617
117.62793
117.65941
117.63451
117.63704
117.66476
117.67355
117.6365
117.63456
117.64449
117.67148
39.263983
39.257312
39.273914
39.244123
39.242051
39.233133
39.209654
39.237722
39.268545
39.289708
39.259876
39.230517
39.226989
39.231373
39.22124
39.243834
39.267217
39.25428
39.2613
39.239984
39.2342
39.23433
39.2437
39.254977
39.25305
39.268029
353.43806
353.43759
353.43871
353.43636
353.43888
353.44226
353.46192
353.47395
353.46561
353.45337
353.46131
353.45735
353.4639
353.45818
353.46586
353.45799
353.47044
353.46422
353.47067
353.48257
353.48053
353.47733
353.47471
353.47546
353.48095
353.47896
353.50036
353.46518
353.47265
353.47518
274.42224
274.42356
274.44333
274.43305
274.43766
274.43502
274.48336
274.50232
274.45552
274.41916
274.40881
274.4183
274.46356
274.46559
274.4126
274.43876
274.45634
274.44707
274.47138
274.46266
274.39837
274.38026
274.39487
274.38295
274.37994
274.3911
274.44542
274.40752
274.38605
274.39409
196.3088
196.28662
196.27675
196.28782
196.29061
196.27268
196.20458
196.22321
196.22325
196.26193
196.27639
196.2839
196.25146
196.24738
196.2962
196.29381
196.27818
196.2817
196.24307
196.23735
196.27496
196.29604
196.30961
196.29797
196.29436
196.26514
196.23147
196.27476
196.27868
196.33912
117.67438
117.65424
117.63894
117.65399
117.66811
117.67768
117.66305
117.6651
117.6578
117.64903
117.67955
117.66543
117.65932
117.64825
117.6759
117.64872
117.68177
117.66612
117.64133
117.64997
117.61534
117.67597
117.65127
117.66944
117.6872
117.65297
117.67477
117.6481
117.67408
117.68306
39.258184
39.252216
39.26579
39.235451
39.222362
39.220732
39.227077
39.238672
39.24575
39.249912
39.254919
39.24179
39.235697
39.269057
39.24315
39.234603
39.228879
39.221289
39.233647
39.247314
39.249686
39.265798
39.270975
39.252664
39.24799
39.257201
39.259656
39.256375
39.263565
39.274
353.43935
353.43136
353.45551
353.42719
353.44656
353.44428
353.45759
353.45248
353.44481
353.44703
353.4546
353.449
353.45035
353.45065
353.46235
353.46654
353.47294
353.47623
353.47838
353.47658
353.4787
353.47344
353.48187
353.46642
353.47796
353.4826
353.48231
353.47326
353.4484
353.46179
274.42736
274.43123
274.48164
274.46085
274.47376
274.486
274.51172
274.4635
274.4175
274.414
274.41148
274.40666
274.43152
274.43263
274.44784
274.46894
274.48007
274.46305
274.43109
274.38536
274.39768
274.40279
274.43018
274.40115
274.39648
274.38729
274.43765
274.43811
274.40402
274.40874
196.2719
196.24431
196.22039
196.25389
196.26255
196.25358
196.22014
196.23436
196.25024
196.28878
196.30919
196.28382
196.27046
196.25994
196.24863
196.25148
196.24853
196.25527
196.23186
196.26793
196.29084
196.29357
196.23711
196.28106
196.28584
196.30243
196.25721
196.24465
196.28972
196.31002
117.67808
117.65074
117.65512
117.64493
117.67165
117.67663
117.6461
117.65089
117.6342
117.66876
117.67993
117.6665
117.63601
117.64185
117.6608
117.67389
117.67749
117.67257
117.64583
117.65912
117.67156
117.66028
117.64956
117.65717
117.69008
117.68104
117.62301
117.64852
117.6492
117.67743
39.247705
39.243321
39.248248
39.237817
39.212095
39.218131
39.230737
39.242787
39.251084
39.261321
39.271956
39.253682
39.259727
39.246715
39.217679
39.216365
39.229689
39.210956
39.236741
39.24103
39.259001
39.256078
39.259119
39.245608
39.272854
39.26984
39.275038
39.258457
39.241133
39.256147
353.44195
353.42935
353.46375
353.43054
353.4509
353.44442
353.44337
353.44693
353.45285
353.45202
353.45126
353.46392
353.44391
353.44923
353.44334
353.44116
353.45131
353.45802
353.4612
353.46466
353.46421
353.47294
353.47718
353.47728
353.48259
353.48158
353.48874
353.4809
353.47185
353.4665
274.43206
274.4328
274.49664
274.46491
274.48208
274.47481
274.45876
274.42364
274.41349
274.41196
274.41919
274.45652
274.43478
274.40743
274.41882
274.4154
274.42017
274.42767
274.39763
274.39844
274.40769
274.43544
274.47343
274.44754
274.42513
274.40039
274.38665
274.44961
274.41476
274.40972
196.27002
196.24109
196.22089
196.27142
196.25545
196.25769
196.23619
196.25377
196.28421
196.29646
196.27937
196.24687
196.27221
196.28185
196.29198
196.28434
196.27662
196.27008
196.28146
196.28757
196.25742
196.23387
196.24646
196.25927
196.24011
196.28535
196.29341
196.26683
196.27348
196.3153
117.68433
117.64432
117.65293
117.66169
117.68719
117.67286
117.64571
117.6518
117.68759
117.69143
117.65891
117.66986
117.65584
117.68222
117.66532
117.65796
117.64257
117.64571
117.67542
117.68844
117.66439
117.65547
117.66284
117.66951
117.64524
117.66168
117.66894
117.6329
117.65719
117.66527
39.249392
39.243761
39.235784
39.213486
39.218553
39.226904
39.237343
39.245374
39.242395
39.256053
39.263441
39.267245
39.25768
39.235586
39.235936
39.233611
39.259544
39.246502
39.230231
39.247014
39.232605
39.243901
39.23665
39.229487
39.239945
39.245618
39.253106
39.251726
39.230716
39.234926
353.44211
353.43545
353.44522
353.44419
353.45057
353.44744
353.44561
353.44513
353.4507
353.42493
353.45711
353.45918
353.45302
353.4556
353.45659
353.45439
353.45505
353.44566
353.48113
353.47002
353.46777
353.47422
353.47999
353.48247
353.48149
353.48101
353.47312
353.46427
353.46478
353.46915
274.43253
274.42321
274.45019
274.48694
274.46967
274.44602
274.42432
274.42181
274.43946
274.42868
274.4848
274.4782
274.41006
274.4076
274.41228
274.41198
274.40637
274.42213
274.45609
274.39945
274.39754
274.44746
274.4757
274.4863
274.4773
274.45746
274.42239
274.39779
274.40556
274.4155
196.30692
196.26039
196.24942
196.23049
196.26937
196.27109
196.27669
196.29965
196.31511
196.2731
196.24795
196.24933
196.27301
196.31462
196.30898
196.30399
196.28519
196.27776
196.25309
196.30492
196.26981
196.22959
196.26245
196.25702
196.26739
196.25801
196.25739
196.28883
196.31833
196.3286
117.6823
117.66305
117.63776
117.65345
117.66574
117.65586
117.65971
117.689
117.69407
117.66836
117.6688
117.6688
117.66898
117.6891
117.6885
117.68622
117.68656
117.64457
117.64251
117.67683
117.6623
117.64241
117.6787
117.69726
117.68358
117.66595
117.65265
117.66153
117.65237
117.6293
39.26109
39.249483
39.244658
39.23156
39.219591
39.249686
39.239417
39.264597
39.242453
39.246325
39.263152
39.267644
39.252376
39.26791
39.251037
39.24482
39.237385
39.247098
39.262259
39.258346
39.241792
39.242796
39.220155
39.229579
39.232063
39.221131
39.248085
39.231188
39.244302
39.279679
)
;

boundaryField
{
    minX
    {
        type            calculated;
        value           nonuniform List<scalar> 
50
(
353.44592
274.4397
196.30575
117.62856
39.278102
353.44239
274.44947
196.29213
117.63858
39.288814
353.44854
274.45709
196.28718
117.63439
39.272921
353.45083
274.44564
196.2891
117.65636
39.245536
353.44632
274.42788
196.27919
117.66743
39.245537
353.43695
274.42507
196.32075
117.67344
39.263983
353.43806
274.42224
196.3088
117.67438
39.258184
353.43935
274.42736
196.2719
117.67808
39.247705
353.44195
274.43206
196.27002
117.68433
39.249392
353.44211
274.43253
196.30692
117.6823
39.26109
)
;
    }
    maxX
    {
        type            calculated;
        value           nonuniform List<scalar> 
50
(
353.46697
274.41802
196.35449
117.60515
39.267573
353.46427
274.40588
196.33969
117.65454
39.234504
353.46648
274.40931
196.32678
117.66452
39.233071
353.46916
274.4305
196.2894
117.64727
39.242501
353.47691
274.40585
196.29704
117.6489
39.244653
353.47717
274.39504
196.32795
117.67148
39.268029
353.47518
274.39409
196.33912
117.68306
39.274
353.46179
274.40874
196.31002
117.67743
39.256147
353.4665
274.40972
196.3153
117.66527
39.234926
353.46915
274.4155
196.3286
117.6293
39.279679
)
;
    }
    minY
    {
        type            calculated;
        value           nonuniform List<scalar> 
292
(
392.4
392.4
392.4
392.4
392.4
392.4
392.4
392.4
392.4
392.4
392.4
392.4
392.4
392.4
392.4
392.4
392.4
392.4
392.4
392.4
392.4
392.4
392.4
392.4
392.4
392.4
392.4
392.4
392.4
392.4
392.4
392.4
392.4
392.4
392.4
392.4
392.4
392.4
392.4
392.4
392.4
392.4
392.4
392.4
392.4
392.4
392.4
392.4
392.4
392.4
392.4
392.4
392.4
392.4
392.4
392.4
392.4
392.4
392.4
392.4
392.4
392.4
392.4
392.4
392.4
392.4
392.4
392.4
392.4
392.4
392.4
392.4
392.4
392.4
392.4
392.4
392.4
392.4
392.4
392.4
392.4
392.4
392.4
392.4
392.4
392.4
392.4
392.4
392.4
392.4
392.4
392.4
392.4
392.4
392.4
392.4
392.4
392.4
392.4
392.4
392.4
392.4
392.4
392.4
392.4
392.4
392.4
392.4
392.4
392.4
392.4
392.4
392.4
392.4
392.4
392.4
392.4
392.4
392.4
392.4
392.4
392.4
392.4
392.4
392.4
392.4
392.4
392.4
392.4
392.4
392.4
392.4
392.4
392.4
392.4
392.4
392.4
392.4
392.4
392.4
392.4
392.4
392.4
392.4
392.4
392.4
392.4
392.4
392.4
392.4
392.4
392.4
392.4
392.4
392.4
392.4
392.4
392.4
392.4
392.4
392.4
392.4
392.4
392.4
392.4
392.4
392.4
392.4
392.4
392.4
392.4
392.4
392.4
392.4
392.4
392.4
392.4
392.4
392.4
392.4
392.4
392.4
392.4
392.4
392.4
392.4
392.4
392.4
392.4
392.4
392.4
392.4
392.4
392.4
392.4
392.4
392.4
392.4
392.4
392.4
392.4
392.4
392.4
392.4
392.4
392.4
392.4
392.4
392.4
392.4
392.4
392.4
392.4
392.4
392.4
392.4
392.4
392.4
392.4
392.4
392.4
392.4
392.4
392.4
392.4
392.4
392.4
392.4
392.4
392.4
392.4
392.4
392.4
392.4
392.4
392.4
392.4
392.4
392.4
392.4
392.4
392.4
392.4
392.4
392.4
392.4
392.4
392.4
392.4
392.4
392.4
392.4
392.4
392.4
392.4
392.4
392.4
392.4
392.4
392.4
392.4
392.4
392.4
392.4
392.4
392.4
392.4
392.4
392.4
392.4
392.4
392.4
392.4
392.4
392.4
392.4
392.4
392.4
392.4
392.4
392.4
392.4
392.4
392.4
392.4
392.4
392.4
392.4
392.4
392.4
392.4
392.4
)
;
    }
    minZ
    {
        type            calculated;
        value           nonuniform List<scalar> 
150
(
353.44592
274.4397
196.30575
117.62856
39.278102
353.44612
274.42069
196.30314
117.66013
39.230868
353.44906
274.42362
196.31421
117.68201
39.243122
353.44805
274.43003
196.29561
117.67241
39.239071
353.45337
274.44023
196.29618
117.68461
39.231434
353.45895
274.4674
196.26077
117.68011
39.222889
353.46267
274.48224
196.26365
117.66585
39.225467
353.47146
274.46739
196.23304
117.65565
39.254358
353.46999
274.40857
196.26508
117.64959
39.271608
353.46966
274.40245
196.28978
117.68594
39.28006
353.47073
274.40276
196.27041
117.64756
39.251636
353.47071
274.46675
196.2283
117.63258
39.251448
353.45878
274.45974
196.24866
117.65757
39.22467
353.44511
274.42854
196.26992
117.65573
39.259418
353.4494
274.41206
196.2962
117.66508
39.251408
353.45727
274.4073
196.30765
117.68444
39.264337
353.44909
274.41295
196.30615
117.67901
39.26265
353.44673
274.41006
196.27174
117.67008
39.259671
353.44084
274.42031
196.25061
117.66093
39.253421
353.46355
274.4858
196.22749
117.66388
39.244757
353.46084
274.48949
196.27587
117.68318
39.227222
353.47284
274.4959
196.25938
117.69986
39.234495
353.47608
274.49192
196.27648
117.68056
39.234439
353.47545
274.46855
196.26969
117.6559
39.229378
353.47343
274.4651
196.26388
117.64422
39.230771
353.46715
274.44144
196.2594
117.62234
39.253506
353.45792
274.41042
196.28487
117.63416
39.233415
353.45804
274.39897
196.32344
117.65272
39.232064
353.46498
274.40473
196.33745
117.66214
39.229657
353.46697
274.41802
196.35449
117.60515
39.267573
)
;
    }
    maxZ
    {
        type            calculated;
        value           nonuniform List<scalar> 
150
(
353.44211
274.43253
196.30692
117.6823
39.26109
353.43545
274.42321
196.26039
117.66305
39.249483
353.44522
274.45019
196.24942
117.63776
39.244658
353.44419
274.48694
196.23049
117.65345
39.23156
353.45057
274.46967
196.26937
117.66574
39.219591
353.44744
274.44602
196.27109
117.65586
39.249686
353.44561
274.42432
196.27669
117.65971
39.239417
353.44513
274.42181
196.29965
117.689
39.264597
353.4507
274.43946
196.31511
117.69407
39.242453
353.42493
274.42868
196.2731
117.66836
39.246325
353.45711
274.4848
196.24795
117.6688
39.263152
353.45918
274.4782
196.24933
117.6688
39.267644
353.45302
274.41006
196.27301
117.66898
39.252376
353.4556
274.4076
196.31462
117.6891
39.26791
353.45659
274.41228
196.30898
117.6885
39.251037
353.45439
274.41198
196.30399
117.68622
39.24482
353.45505
274.40637
196.28519
117.68656
39.237385
353.44566
274.42213
196.27776
117.64457
39.247098
353.48113
274.45609
196.25309
117.64251
39.262259
353.47002
274.39945
196.30492
117.67683
39.258346
353.46777
274.39754
196.26981
117.6623
39.241792
353.47422
274.44746
196.22959
117.64241
39.242796
353.47999
274.4757
196.26245
117.6787
39.220155
353.48247
274.4863
196.25702
117.69726
39.229579
353.48149
274.4773
196.26739
117.68358
39.232063
353.48101
274.45746
196.25801
117.66595
39.221131
353.47312
274.42239
196.25739
117.65265
39.248085
353.46427
274.39779
196.28883
117.66153
39.231188
353.46478
274.40556
196.31833
117.65237
39.244302
353.46915
274.4155
196.3286
117.6293
39.279679
)
;
    }
    bottomWater_to_rightSolid
    {
        type            calculated;
        value           nonuniform List<scalar> 
130
(
0.019671074
0.01342067
0.0047567116
-0.012777554
-0.0055049271
-0.005561128
-0.010621545
-0.0092294153
0.01350633
-0.0065853152
-0.0079358284
-0.010343489
0.027572711
0.024774141
0.012559147
0.0087640001
-0.0032309601
-0.010372989
-0.0061942265
0.013806821
0.013481041
0.030555883
0.047780285
0.020480368
-0.0085265808
-0.0054961599
0.025455039
0.024387806
0.019588229
0.0018756999
0.018025047
0.030797581
0.052310641
0.044677511
0.04599192
0.040592013
0.0080640834
-0.014180217
-0.0069293578
0.0060598462
0.0093973899
0.01049315
-0.0012605683
0.024169618
0.015397387
0.026301391
0.028756185
0.0013516487
-0.0078495852
-0.020593447
-0.018707413
0.002501107
0.00015524365
-0.01116482
-0.011700124
0.014749661
0.0083528676
0.0047649015
-0.0086947609
-0.023642169
-0.014664305
-0.014254572
-0.011405486
0.0041830614
0.0046527398
-0.0086267895
-0.018759873
0.0038337083
0.027217466
0.014279976
0.021299726
-1.5766583e-05
-0.0058000748
-0.0056704201
0.0036997944
0.014976938
0.013049697
0.028028904
-0.018710785
-0.0063528029
0.0073144144
0.0096861838
0.02579793
0.030974941
0.01266397
0.0079900862
0.0172011
0.019656349
0.016374768
0.023565119
0.034000431
-0.029044041
-0.0032587599
0.0010295637
0.019001246
0.016077949
0.019118789
0.0056075349
0.032853837
0.029839937
0.035038014
0.018457359
0.0011333287
0.016146757
0.006501979
-0.0097689247
0.0070135313
-0.0073946445
0.0039008709
-0.0033496532
-0.010512936
-5.5141846e-05
0.0056177437
0.013106145
0.011725817
-0.0092844451
-0.0050738079
0.007098051
0.022259434
0.018346045
0.0017920897
0.0027964775
-0.019845153
-0.010421057
-0.0079368561
-0.018868739
0.0080854227
-0.0088123473
0.0043016225
0.039679282
)
;
    }
    bottomWater_to_leftSolid
    {
        type            calculated;
        value           nonuniform List<scalar> 
130
(
0.038102095
-0.0091318014
0.0031219228
-0.00092903354
-0.0085655914
-0.017111037
-0.014532879
0.01435803
0.031608121
0.040060396
0.011635911
0.011448387
-0.015329961
0.04881393
-0.0028361744
-0.0093783097
-0.0068350633
-0.004321131
-0.0026579838
0.0096688812
0.015481335
0.022600633
0.027896738
0.012012845
-0.0029302795
-0.012387021
0.032921197
-0.0082683632
-0.01313742
-0.0078749486
0.0013836144
0.025345414
0.018841627
0.021237091
0.035067707
0.027230299
0.011049455
-0.009881667
-0.014437845
0.0055361776
-0.0025190376
-0.019586688
-0.0087231927
-0.011773361
0.0056371718
0.0089080357
0.021514312
0.015826858
0.010038806
-0.00065032408
-0.029381172
-0.010159899
0.0055366312
0.0094388197
-0.0035460471
-0.0072753796
-0.0079406682
-0.0010414054
0.004074921
0.022258254
0.012589083
0.0036084505
-0.018033204
-0.017200777
-0.018060354
0.023983099
0.017311767
0.033914262
0.0041229282
0.0020514417
-0.0068669549
-0.03034615
-0.0022781303
0.028544675
0.049708082
0.019875938
-0.009482977
-0.013011461
0.018184233
0.012216086
0.025789868
-0.0045486218
-0.017638024
-0.019267934
-0.012923233
-0.0013283296
0.0057497135
0.0099117107
0.014919175
0.0017903165
-0.0043029372
0.0077046812
0.0033209514
0.0082483218
-0.0021826404
-0.027905043
-0.021868552
-0.0092626885
0.0027873359
0.01108379
0.021321072
0.031955837
0.013681559
0.019726863
0.0093916558
0.0037606308
-0.0042164465
-0.026514379
-0.021447112
-0.013096197
-0.0026573543
0.0053738023
0.0023953646
0.01605294
0.023440744
0.027244564
0.017679734
0.021089601
0.0094827755
0.0046576768
-0.0084401042
-0.020409356
0.009686258
-0.00058272961
0.024596547
0.0024525102
0.00632539
0.023152439
0.027643963
0.012375848
)
;
    }
    bottomWater_to_heater
    {
        type            calculated;
        value           nonuniform List<scalar> 
92
(
0.019418045
0.011408423
0.02433725
0.022650463
0.0072116385
0.040211899
0.018344893
0.014995532
0.0020610162
0.038340352
0.0063006745
0.025132896
353.46521
353.44117
353.47326
353.44175
274.47657
274.44868
274.46582
274.4153
196.25806
196.30601
196.26283
196.27133
117.692
117.64672
117.68028
117.63676
-0.018068258
39.221932
-0.0029930088
39.237007
-0.012785044
39.227215
0.0030650013
39.243065
353.44738
353.45774
274.44019
274.41879
196.31047
196.31125
117.69269
117.68551
39.22194
39.240155
353.4388
353.45818
353.46586
353.45799
353.45764
353.47044
274.42563
274.46559
274.4126
274.43876
274.42236
274.45634
196.30139
196.24738
196.2962
196.29381
196.30226
196.27818
117.66277
117.64825
117.6759
117.64872
117.68895
117.68177
39.226989
39.269057
39.24315
39.234603
39.231373
39.228879
0.029056907
0.0031498228
-0.0053974523
-0.011120873
0.0067147457
-0.02232072
-0.023635289
-0.010311076
-0.0044138584
-0.0040639916
-0.0063891044
0.019543874
0.027909982
0.011037415
0.0048202383
-0.0026145989
)
;
    }
}


// ************************************************************************* //
