/*--------------------------------*- C++ -*----------------------------------*\
| =========                 |                                                 |
| \\      /  F ield         | OpenFOAM: The Open Source CFD Toolbox           |
|  \\    /   O peration     | Version:  v2012                                 |
|   \\  /    A nd           | Website:  www.openfoam.com                      |
|    \\/     M anipulation  |                                                 |
\*---------------------------------------------------------------------------*/
FoamFile
{
    version     2.0;
    format      ascii;
    class       volScalarField;
    location    "480/bottomWater";
    object      p_rgh;
}
// * * * * * * * * * * * * * * * * * * * * * * * * * * * * * * * * * * * * * //

dimensions      [1 -1 -2 0 0 0 0];


internalField   nonuniform List<scalar> 
1460
(
0.28591549
0.28612043
0.28905541
0.28804584
0.29336784
0.29895189
0.30266853
0.31145965
0.30999256
0.30965787
0.31072625
0.3107071
0.29878023
0.28511094
0.28939635
0.29726805
0.28908695
0.28672638
0.28084313
0.303553
0.30083525
0.31283993
0.31608158
0.31544617
0.31342881
0.30715318
0.29792226
0.29804034
0.30498447
0.30696542
-0.24029901
-0.25930778
-0.25637755
-0.24997427
-0.2397703
-0.21260119
-0.19776312
-0.21261015
-0.27142557
-0.27755077
-0.27724427
-0.21325201
-0.22026259
-0.25145775
-0.26794407
-0.27269914
-0.26704809
-0.26993982
-0.25968626
-0.19420187
-0.19050726
-0.18409782
-0.18807661
-0.21144796
-0.21490083
-0.23856168
-0.26957602
-0.28103098
-0.27527274
-0.26197653
0.10575084
0.10313795
0.11420699
0.095607886
0.096184114
0.060768155
0.06364588
0.033037471
0.065076934
0.089784887
0.070409271
0.028304455
0.048662062
0.06991955
0.096201883
0.10765494
0.10614856
0.071738199
0.050610594
0.02748897
0.075872942
0.059381642
0.076477009
0.069688274
0.063879316
0.059399797
0.084870676
0.12343671
0.13745009
0.15448959
-0.091438913
-0.059872878
-0.037988298
-0.047585009
-0.0353855
-0.039887418
-0.054153685
-0.064354475
-0.070412503
-0.03405829
-0.072435605
-0.087423057
-0.062433343
-0.064265275
-0.054923556
-0.035557246
-0.040985833
-0.049915111
-0.059073771
-0.056116337
-0.0368229
-0.020136411
-0.039437888
-0.064103125
-0.075777114
-0.09766474
-0.085836337
-0.067277643
-0.057856293
-0.1148537
0.038102095
-0.0091318014
0.0031219228
-0.00092903354
-0.0085655914
-0.017111037
-0.014532879
0.01435803
0.031608121
0.040060396
0.011635911
0.011448387
-0.015329961
0.019418045
0.011408423
0.02433725
0.022650463
0.019671074
0.01342067
0.0047567116
-0.012777554
-0.0055049271
-0.005561128
-0.010621545
-0.0092294153
0.01350633
-0.0065853152
-0.0079358284
-0.010343489
0.027572711
0.28238542
0.29072953
0.28897799
0.29324107
0.29736252
0.2830049
0.31141989
0.30803641
0.31244084
0.30839513
0.30957618
0.30344968
0.27514369
0.28977168
0.28416994
0.28974279
0.28782204
0.2943869
0.2843282
0.29120423
0.30520986
0.30653401
0.31057281
0.31076218
0.30839446
0.3051182
0.30157905
0.30085007
0.30057988
0.30427215
-0.23052803
-0.232639
-0.25593114
-0.26509266
-0.26049798
-0.25699211
-0.21147218
-0.23632087
-0.28920073
-0.28408989
-0.2535401
-0.23220506
-0.25657756
-0.25252476
-0.25073586
-0.25977101
-0.26859588
-0.27222513
-0.27652558
-0.25628805
-0.21823007
-0.2125787
-0.23277196
-0.26411335
-0.28999115
-0.29140915
-0.25579215
-0.27772174
-0.27639168
-0.27411656
0.092132395
0.056430663
0.085127471
0.093312801
0.077054787
0.039286644
0.020632583
0.032704529
0.078510517
0.074405556
0.03922689
0.048087249
0.094308405
0.089846011
0.11099488
0.083585366
0.11120202
0.10204085
0.066509742
0.042020012
0.054369743
0.072690476
0.067229337
0.061300002
0.08085892
0.10460985
0.13236315
0.099540131
0.11801485
0.13969482
-0.081415132
-0.097360855
-0.073874293
-0.022377456
-0.021928401
-0.072487485
-0.047160543
-0.062587852
-0.029644507
-0.041273207
-0.11242534
-0.071494051
-0.075778565
-0.037481483
-0.10388855
-0.081277029
-0.049162006
-0.041240064
-0.061746544
-0.075566024
-0.05234612
-0.075113703
-0.093992778
-0.10998537
-0.077004882
-0.059938205
-0.11454373
-0.11383329
-0.086003857
-0.065456667
0.04881393
-0.0028361744
-0.0093783097
-0.0068350633
-0.004321131
-0.0026579838
0.0096688812
0.015481335
0.022600633
0.027896738
0.012012845
-0.0029302795
-0.012387021
0.0072116385
0.040211899
0.018344893
0.014995532
0.024774141
0.012559147
0.0087640001
-0.0032309601
-0.010372989
-0.0061942265
0.013806821
0.013481041
0.030555883
0.047780285
0.020480368
-0.0085265808
-0.0054961599
0.28854473
0.29261404
0.29637268
0.28908757
0.30319297
0.28487485
0.30828177
0.30664592
0.30757468
0.30008516
0.3126622
0.29751396
0.29933889
0.30296239
0.29590509
0.3206368
0.28725438
0.30466733
0.30087804
0.29721327
0.29373286
0.31844023
0.31980375
0.32727595
0.32576518
0.31951976
0.33144819
0.30644198
0.29649567
0.30648147
-0.22290715
-0.19918026
-0.21172809
-0.23991935
-0.25948937
-0.23629671
-0.23786816
-0.25255429
-0.27771066
-0.25942197
-0.20806165
-0.2110091
-0.22159888
-0.26015106
-0.23695128
-0.22733828
-0.27081353
-0.27486929
-0.2723365
-0.2668491
-0.26038028
-0.24587731
-0.28124953
-0.3023138
-0.29878481
-0.28083467
-0.22092409
-0.23076188
-0.28089727
-0.27068562
0.087177679
0.061695004
0.07110952
0.078761944
0.073873318
0.088503454
0.02053329
0.075200616
0.060030834
0.054516926
0.026321843
0.054002935
0.071362083
0.055341079
0.1053691
0.034660082
0.070104458
0.094950602
0.11790152
0.063020366
0.10209638
0.036047314
0.095818757
0.085403505
0.10144387
0.095703175
0.049572074
0.06490727
0.089369516
0.12678211
-0.08560843
-0.096434515
-0.05392081
-0.061181432
-0.040243151
-0.064157208
-0.035109795
-0.066628065
-0.033758804
-0.1078357
-0.085975348
-0.069596755
-0.0599069
-0.04168802
-0.090986925
-0.051675902
-0.08748478
-0.031164538
-0.048270462
-0.063073352
-0.063323186
-0.077268257
-0.079845085
-0.027129013
-0.025757849
-0.10229919
-0.08325662
-0.1044096
-0.091009167
-0.055480768
0.032921197
-0.0082683632
-0.01313742
-0.0078749486
0.0013836144
0.025345414
0.018841627
0.021237091
0.035067707
0.027230299
0.011049455
-0.009881667
-0.014437845
0.0020610162
0.038340352
0.0063006745
0.025132896
0.025455039
0.024387806
0.019588229
0.0018756999
0.018025047
0.030797581
0.052310641
0.044677511
0.04599192
0.040592013
0.0080640834
-0.014180217
-0.0069293578
0.29082562
0.29362999
0.29782785
0.29702676
0.29785991
0.29174279
0.29639848
0.30319554
0.2969233
0.29760146
0.31094832
0.30610192
0.30388304
0.30521391
0.28117206
0.31325948
0.28175125
0.30266456
0.29418776
0.2956498
0.29901486
0.29963258
0.3040516
0.30801392
0.31051783
0.3109855
0.31666092
0.32087272
0.31925509
0.30916225
-0.23435556
-0.20310659
-0.18215199
-0.19750712
-0.21687851
-0.22943
-0.26460471
-0.26997559
-0.27950205
-0.25055778
-0.18565425
-0.19846052
-0.19296333
-0.20342854
-0.23132088
-0.21417997
-0.26470139
-0.2720939
-0.27411539
-0.26288641
-0.27087928
-0.26453085
-0.28718016
-0.26762784
-0.23800638
-0.26093837
-0.25928544
-0.22299778
-0.23324916
-0.24950238
0.089100081
0.05100908
0.076788808
0.058371192
0.043165925
0.037842184
0.060378539
0.093028515
0.061516851
0.035389335
0.022762257
0.054289026
0.057314684
0.058060691
0.10601257
0.062833906
0.071329947
0.099241517
0.11778517
0.10282003
0.11238428
0.11131428
0.10571388
0.11201376
0.080827367
0.10839367
0.10873365
0.084997342
0.076930962
0.089401879
-0.063644192
-0.073857074
-0.046694088
-0.029750741
-0.05060876
-0.071164216
-0.057964449
-0.041523104
-0.0461126
-0.091391526
-0.079301449
-0.055788875
-0.019374849
-0.028003704
-0.073278043
-0.039723992
-0.083241943
-0.043155615
-0.059890784
-0.070002338
-0.06240946
-0.085478721
-0.071461132
-0.12319472
-0.12676262
-0.095508085
-0.097102057
-0.07320358
-0.059693053
-0.072734104
0.0055361776
-0.0025190376
-0.019586688
-0.0087231927
-0.011773361
0.0056371718
0.0089080357
0.021514312
0.015826858
0.010038806
-0.00065032408
-0.029381172
-0.010159899
-0.018068258
-0.0029930088
-0.012785044
0.0030650013
0.0060598462
0.0093973899
0.01049315
-0.0012605683
0.024169618
0.015397387
0.026301391
0.028756185
0.0013516487
-0.0078495852
-0.020593447
-0.018707413
0.002501107
0.28632348
0.28548509
0.29296745
0.26648264
0.27735662
0.28150792
0.29063438
0.2966845
0.29229187
0.29652152
0.30425773
0.28639382
0.28738161
0.29773908
0.29046938
0.30236059
0.31283177
0.30853752
0.30802631
0.3233125
0.32068697
0.3282287
0.32058817
0.32091544
0.31798082
0.31690531
-0.25211706
-0.22122736
-0.1985309
-0.24587678
-0.24615422
-0.25879024
-0.26846078
-0.27004496
-0.28147385
-0.24259218
-0.216569
-0.24343928
-0.23981325
-0.26121095
-0.25900927
-0.24998775
-0.22209445
-0.28626684
-0.26757385
-0.23788593
-0.22105456
-0.20895126
-0.21528499
-0.22583424
-0.25155774
-0.27414518
0.079188957
0.043460887
0.039449659
0.070875716
0.085782858
0.0782605
0.082807935
0.094412763
0.048051096
0.046189657
0.043935878
0.077040068
0.11047002
0.11125279
0.097398095
0.055531411
0.073543223
0.070425108
0.089021735
0.042358271
0.075136422
0.071250514
0.075479537
0.068378203
0.057990893
0.097038096
-0.052571225
-0.079847909
-0.063743572
-0.065341797
-0.045049428
-0.063404294
-0.042190045
-0.034396928
-0.04755182
-0.094268565
-0.057039329
-0.061128347
-0.02731099
-0.034492786
-0.053355738
-0.062124036
-0.10089096
-0.050263832
-0.10042055
-0.062289893
-0.060793592
-0.042234492
-0.052036864
-0.065198483
-0.09066168
-0.071097274
0.0055366312
0.0094388197
-0.0035460471
-0.0072753796
-0.0079406682
-0.0010414054
0.004074921
0.022258254
0.012589083
0.0036084505
-0.018033204
-0.017200777
-0.018060354
0.00015524365
-0.01116482
-0.011700124
0.014749661
0.0083528676
0.0047649015
-0.0086947609
-0.023642169
-0.014664305
-0.014254572
-0.011405486
0.0041830614
0.0046527398
0.27695077
0.27370279
0.273543
0.27360188
0.27952335
0.28096238
0.28138681
0.28173279
0.27739884
0.28298921
0.27912335
0.28174634
0.27880442
0.29764233
0.29144827
0.31200801
0.32128573
0.31453643
0.30944026
0.30433488
0.31704018
0.3240933
0.32754908
0.31404052
0.31208602
0.31717061
-0.25492646
-0.24929368
-0.22614914
-0.2536356
-0.25230469
-0.2557222
-0.26264709
-0.25176046
-0.24981096
-0.25092677
-0.25567462
-0.26939719
-0.25437067
-0.25764427
-0.25866517
-0.21400405
-0.21012613
-0.30090341
-0.25552417
-0.26958426
-0.24283253
-0.21660956
-0.20728188
-0.26582006
-0.2869337
-0.28496213
0.12074742
0.091900443
0.077823244
0.095623396
0.10151214
0.12239995
0.10722448
0.069671386
0.079528636
0.084832081
0.087721945
0.087840286
0.10139091
0.10225957
0.07219254
0.036422159
0.061773255
0.083358403
0.091528705
0.078493898
0.064789137
0.071124925
0.025972678
0.061583358
0.073354373
0.1279465
-0.046560973
-0.06310766
-0.078034654
-0.053442208
-0.051052624
-0.041035287
-0.066667838
-0.10840472
-0.10396515
-0.099102569
-0.10504926
-0.063804426
-0.057230853
-0.031047964
-0.0789555
-0.073827684
-0.092069798
-0.060587664
-0.085487634
-0.082956599
-0.055239654
-0.046445824
-0.083499502
-0.085438207
-0.075509234
-0.048516261
0.023983099
0.017311767
0.033914262
0.0041229282
0.0020514417
-0.0068669549
-0.03034615
-0.0022781303
0.028544675
0.049708082
0.019875938
-0.009482977
-0.013011461
-0.0086267895
-0.018759873
0.0038337083
0.027217466
0.014279976
0.021299726
-1.5766583e-05
-0.0058000748
-0.0056704201
0.0036997944
0.014976938
0.013049697
0.028028904
0.27806298
0.27758606
0.27871378
0.27636326
0.27887611
0.28225529
0.3019198
0.31394869
0.30560542
0.29336628
0.30130505
0.29734599
0.30390137
0.29817915
0.30585612
0.29798701
0.31043918
0.30422182
0.3106653
0.32256942
0.32052563
0.31733117
0.3147102
0.31545763
0.32094876
0.31896326
0.34035699
0.30518369
0.31264866
0.31517935
-0.25775824
-0.25644481
-0.23666714
-0.24694758
-0.2423386
-0.24498121
-0.19664079
-0.17768068
-0.22448355
-0.26084035
-0.27118714
-0.26170462
-0.21643744
-0.21440506
-0.26739808
-0.24124178
-0.22365567
-0.23293239
-0.20862422
-0.21734481
-0.28162777
-0.29973704
-0.28512771
-0.29704864
-0.30006114
-0.28889676
-0.23457924
-0.27247622
-0.29394767
-0.2859102
0.1088047
0.086619471
0.076753338
0.087815536
0.090612274
0.072680331
0.0045801254
0.02320581
0.023246163
0.061928193
0.076387195
0.083895582
0.051462978
0.04738151
0.096197804
0.093805073
0.07818073
0.081696003
0.043070439
0.037346006
0.074955469
0.096037156
0.10960696
0.097968135
0.094357395
0.065142561
0.031466251
0.074764576
0.078683008
0.13912384
-0.045617659
-0.065757911
-0.081057681
-0.066005373
-0.051892255
-0.042316662
-0.056954806
-0.054897413
-0.062200266
-0.070973751
-0.04045483
-0.054566344
-0.060682119
-0.07175013
-0.044102452
-0.071275714
-0.038226796
-0.053878948
-0.078674774
-0.07003234
-0.10466017
-0.04402791
-0.068727023
-0.050560687
-0.032804536
-0.067032722
-0.045233586
-0.071896793
-0.045916095
-0.036938152
0.018184233
0.012216086
0.025789868
-0.0045486218
-0.017638024
-0.019267934
-0.012923233
-0.0013283296
0.0057497135
0.0099117107
0.014919175
0.0017903165
-0.0043029372
0.029056907
0.0031498228
-0.0053974523
-0.011120873
-0.018710785
-0.0063528029
0.0073144144
0.0096861838
0.02579793
0.030974941
0.01266397
0.0079900862
0.0172011
0.019656349
0.016374768
0.023565119
0.034000431
0.27934977
0.2713572
0.29550691
0.26718703
0.28655605
0.28428044
0.29758688
0.29247612
0.28480619
0.28703035
0.29459719
0.28900333
0.29034985
0.29064536
0.30235307
0.30654401
0.31294462
0.31622548
0.31837905
0.31658106
0.31869503
0.31343817
0.32186962
0.30641942
0.31796483
0.32259947
0.32231127
0.3132578
0.28840019
0.30178679
-0.25264346
-0.24877029
-0.19835733
-0.21915116
-0.20624453
-0.19400045
-0.16828201
-0.21649901
-0.26250161
-0.26599583
-0.26852102
-0.27333776
-0.24847862
-0.24736663
-0.2321588
-0.21106259
-0.19993217
-0.21694728
-0.24890893
-0.29464176
-0.28232122
-0.27721257
-0.24982384
-0.27884702
-0.28351563
-0.29271156
-0.24234992
-0.24188712
-0.27597933
-0.2712566
0.071901794
0.044313354
0.020386679
0.053890205
0.062554432
0.053576567
0.020140435
0.034362687
0.050235118
0.088777549
0.10919173
0.083815908
0.070458903
0.059937636
0.048629385
0.05147998
0.048532821
0.055266666
0.031859538
0.067931973
0.090843851
0.093571802
0.037109504
0.081055733
0.085840132
0.10242932
0.057206078
0.044647977
0.089721831
0.11002339
-0.041921
-0.06926439
-0.064882558
-0.075070366
-0.048353115
-0.043373885
-0.073904645
-0.069111347
-0.085797775
-0.051236348
-0.0400653
-0.0535013
-0.08399096
-0.078147399
-0.059204795
-0.046113295
-0.042511557
-0.047426883
-0.074172129
-0.060880079
-0.048443341
-0.059723074
-0.070437847
-0.062830259
-0.029923729
-0.038963633
-0.096987426
-0.071477022
-0.070800472
-0.042573377
0.0077046812
0.0033209514
0.0082483218
-0.0021826404
-0.027905043
-0.021868552
-0.0092626885
0.0027873359
0.01108379
0.021321072
0.031955837
0.013681559
0.019726863
0.0067147457
-0.02232072
-0.023635289
-0.010311076
-0.029044041
-0.0032587599
0.0010295637
0.019001246
0.016077949
0.019118789
0.0056075349
0.032853837
0.029839937
0.035038014
0.018457359
0.0011333287
0.016146757
0.28194545
0.26935441
0.30374661
0.2705438
0.2908965
0.28441867
0.28336788
0.2869319
0.29284843
0.29201935
0.29126231
0.30391758
0.28391336
0.28922977
0.28334317
0.28116198
0.2913138
0.29802019
0.30120254
0.30466004
0.30420802
0.31293514
0.31718259
0.31727707
0.32259246
0.32158152
0.32874313
0.32090142
0.31185324
0.30649898
-0.24794234
-0.2471963
-0.1833578
-0.21508877
-0.19792364
-0.20518743
-0.22124489
-0.25635565
-0.26651409
-0.26803803
-0.26081114
-0.22348294
-0.24522496
-0.27257105
-0.2611843
-0.26459703
-0.25982835
-0.25232858
-0.28237281
-0.28155615
-0.27230623
-0.24455518
-0.20657444
-0.23246094
-0.25487466
-0.27960604
-0.29334968
-0.23038926
-0.26523518
-0.27028404
0.070019382
0.04109266
0.020893063
0.071421555
0.055448682
0.057690127
0.036194882
0.053765653
0.084213913
0.096458025
0.07936563
0.046873071
0.072209867
0.081851247
0.091977596
0.084341456
0.076615405
0.070083211
0.081463099
0.087566139
0.05741922
0.033870173
0.046456542
0.059265993
0.040114565
0.085353263
0.093414268
0.066832053
0.073475162
0.11530326
-0.035671118
-0.075676768
-0.067071967
-0.058311822
-0.032813765
-0.04714
-0.074293757
-0.068197901
-0.032406607
-0.02856557
-0.061093094
-0.050138072
-0.064160478
-0.037784363
-0.054683304
-0.062044103
-0.077433021
-0.074287974
-0.044578658
-0.031559559
-0.05561393
-0.06452622
-0.057160142
-0.050494957
-0.074759103
-0.058315446
-0.051055054
-0.087103121
-0.062813532
-0.054727484
0.0093916558
0.0037606308
-0.0042164465
-0.026514379
-0.021447112
-0.013096197
-0.0026573543
0.0053738023
0.0023953646
0.01605294
0.023440744
0.027244564
0.017679734
-0.0044138584
-0.0040639916
-0.0063891044
0.019543874
0.006501979
-0.0097689247
0.0070135313
-0.0073946445
0.0039008709
-0.0033496532
-0.010512936
-5.5141846e-05
0.0056177437
0.013106145
0.011725817
-0.0092844451
-0.0050738079
0.28211477
0.2754465
0.28522158
0.28419338
0.29057437
0.28743564
0.28561076
0.2851262
0.29069571
0.26492509
0.29711389
0.29917895
0.29301729
0.29560058
0.29658683
0.29439174
0.295051
0.28566132
0.32113091
0.31002466
0.30776604
0.31422443
0.31999075
0.32247481
0.32149354
0.32101068
0.31312156
0.30426924
0.30478487
0.30914679
-0.2474701
-0.25678623
-0.22980889
-0.19306013
-0.21033327
-0.23398023
-0.25567635
-0.2581924
-0.24054014
-0.25131713
-0.19519599
-0.20179969
-0.269943
-0.27239998
-0.2677193
-0.26802103
-0.27362935
-0.25787489
-0.22391054
-0.28055398
-0.28245651
-0.23254007
-0.20430249
-0.19369788
-0.20270194
-0.22253667
-0.25760513
-0.28221348
-0.27444361
-0.26450416
0.10692273
0.060385053
0.049420343
0.030486116
0.069374154
0.071092243
0.076693471
0.099645688
0.11510598
0.073097344
0.047945422
0.049330838
0.073006088
0.11461737
0.10897703
0.1039944
0.085192701
0.077764101
0.053094072
0.10491899
0.069807578
0.029589379
0.062450868
0.057020653
0.067390417
0.058014131
0.0573907
0.088833177
0.11832852
0.12860014
-0.037699119
-0.056949001
-0.082236118
-0.066552756
-0.054259067
-0.064136375
-0.060285679
-0.031003456
-0.025930126
-0.05163733
-0.05120049
-0.051198175
-0.051016305
-0.030899726
-0.031499722
-0.03377999
-0.033440039
-0.07542535
-0.077490493
-0.043166461
-0.057697768
-0.07758661
-0.041302021
-0.022741887
-0.036421544
-0.054053558
-0.06734576
-0.058471551
-0.067631658
-0.090700707
0.021089601
0.0094827755
0.0046576768
-0.0084401042
-0.020409356
0.009686258
-0.00058272961
0.024596547
0.0024525102
0.00632539
0.023152439
0.027643963
0.012375848
0.027909982
0.011037415
0.0048202383
-0.0026145989
0.007098051
0.022259434
0.018346045
0.0017920897
0.0027964775
-0.019845153
-0.010421057
-0.0079368561
-0.018868739
0.0080854227
-0.0088123473
0.0043016225
0.039679282
)
;

boundaryField
{
    minX
    {
        type            fixedFluxPressure;
        gradient        uniform 0;
        value           nonuniform List<scalar> 
50
(
0.28591549
-0.24029901
0.10575084
-0.091438913
0.038102095
0.28238542
-0.23052803
0.092132395
-0.081415132
0.04881393
0.28854473
-0.22290715
0.087177679
-0.08560843
0.032921197
0.29082562
-0.23435556
0.089100081
-0.063644192
0.0055361776
0.28632348
-0.25211706
0.079188957
-0.052571225
0.0055366312
0.27695077
-0.25492646
0.12074742
-0.046560973
0.023983099
0.27806298
-0.25775824
0.1088047
-0.045617659
0.018184233
0.27934977
-0.25264346
0.071901794
-0.041921
0.0077046812
0.28194545
-0.24794234
0.070019382
-0.035671118
0.0093916558
0.28211477
-0.2474701
0.10692273
-0.037699119
0.021089601
)
;
    }
    maxX
    {
        type            fixedFluxPressure;
        gradient        uniform 0;
        value           nonuniform List<scalar> 
50
(
0.30696542
-0.26197653
0.15448959
-0.1148537
0.027572711
0.30427215
-0.27411656
0.13969482
-0.065456667
-0.0054961599
0.30648147
-0.27068562
0.12678211
-0.055480768
-0.0069293578
0.30916225
-0.24950238
0.089401879
-0.072734104
0.002501107
0.31690531
-0.27414518
0.097038096
-0.071097274
0.0046527398
0.31717061
-0.28496213
0.1279465
-0.048516261
0.028028904
0.31517935
-0.2859102
0.13912384
-0.036938152
0.034000431
0.30178679
-0.2712566
0.11002339
-0.042573377
0.016146757
0.30649898
-0.27028404
0.11530326
-0.054727484
-0.0050738079
0.30914679
-0.26450416
0.12860014
-0.090700707
0.039679282
)
;
    }
    minY
    {
        type            fixedValue;
        value           uniform 0;
    }
    minZ
    {
        type            fixedFluxPressure;
        gradient        uniform 0;
        value           nonuniform List<scalar> 
150
(
0.28591549
-0.24029901
0.10575084
-0.091438913
0.038102095
0.28612043
-0.25930778
0.10313795
-0.059872878
-0.0091318014
0.28905541
-0.25637755
0.11420699
-0.037988298
0.0031219228
0.28804584
-0.24997427
0.095607886
-0.047585009
-0.00092903354
0.29336784
-0.2397703
0.096184114
-0.0353855
-0.0085655914
0.29895189
-0.21260119
0.060768155
-0.039887418
-0.017111037
0.30266853
-0.19776312
0.06364588
-0.054153685
-0.014532879
0.31145965
-0.21261015
0.033037471
-0.064354475
0.01435803
0.30999256
-0.27142557
0.065076934
-0.070412503
0.031608121
0.30965787
-0.27755077
0.089784887
-0.03405829
0.040060396
0.31072625
-0.27724427
0.070409271
-0.072435605
0.011635911
0.3107071
-0.21325201
0.028304455
-0.087423057
0.011448387
0.29878023
-0.22026259
0.048662062
-0.062433343
-0.015329961
0.28511094
-0.25145775
0.06991955
-0.064265275
0.019418045
0.28939635
-0.26794407
0.096201883
-0.054923556
0.011408423
0.29726805
-0.27269914
0.10765494
-0.035557246
0.02433725
0.28908695
-0.26704809
0.10614856
-0.040985833
0.022650463
0.28672638
-0.26993982
0.071738199
-0.049915111
0.019671074
0.28084313
-0.25968626
0.050610594
-0.059073771
0.01342067
0.303553
-0.19420187
0.02748897
-0.056116337
0.0047567116
0.30083525
-0.19050726
0.075872942
-0.0368229
-0.012777554
0.31283993
-0.18409782
0.059381642
-0.020136411
-0.0055049271
0.31608158
-0.18807661
0.076477009
-0.039437888
-0.005561128
0.31544617
-0.21144796
0.069688274
-0.064103125
-0.010621545
0.31342881
-0.21490083
0.063879316
-0.075777114
-0.0092294153
0.30715318
-0.23856168
0.059399797
-0.09766474
0.01350633
0.29792226
-0.26957602
0.084870676
-0.085836337
-0.0065853152
0.29804034
-0.28103098
0.12343671
-0.067277643
-0.0079358284
0.30498447
-0.27527274
0.13745009
-0.057856293
-0.010343489
0.30696542
-0.26197653
0.15448959
-0.1148537
0.027572711
)
;
    }
    maxZ
    {
        type            fixedFluxPressure;
        gradient        uniform 0;
        value           nonuniform List<scalar> 
150
(
0.28211477
-0.2474701
0.10692273
-0.037699119
0.021089601
0.2754465
-0.25678623
0.060385053
-0.056949001
0.0094827755
0.28522158
-0.22980889
0.049420343
-0.082236118
0.0046576768
0.28419338
-0.19306013
0.030486116
-0.066552756
-0.0084401042
0.29057437
-0.21033327
0.069374154
-0.054259067
-0.020409356
0.28743564
-0.23398023
0.071092243
-0.064136375
0.009686258
0.28561076
-0.25567635
0.076693471
-0.060285679
-0.00058272961
0.2851262
-0.2581924
0.099645688
-0.031003456
0.024596547
0.29069571
-0.24054014
0.11510598
-0.025930126
0.0024525102
0.26492509
-0.25131713
0.073097344
-0.05163733
0.00632539
0.29711389
-0.19519599
0.047945422
-0.05120049
0.023152439
0.29917895
-0.20179969
0.049330838
-0.051198175
0.027643963
0.29301729
-0.269943
0.073006088
-0.051016305
0.012375848
0.29560058
-0.27239998
0.11461737
-0.030899726
0.027909982
0.29658683
-0.2677193
0.10897703
-0.031499722
0.011037415
0.29439174
-0.26802103
0.1039944
-0.03377999
0.0048202383
0.295051
-0.27362935
0.085192701
-0.033440039
-0.0026145989
0.28566132
-0.25787489
0.077764101
-0.07542535
0.007098051
0.32113091
-0.22391054
0.053094072
-0.077490493
0.022259434
0.31002466
-0.28055398
0.10491899
-0.043166461
0.018346045
0.30776604
-0.28245651
0.069807578
-0.057697768
0.0017920897
0.31422443
-0.23254007
0.029589379
-0.07758661
0.0027964775
0.31999075
-0.20430249
0.062450868
-0.041302021
-0.019845153
0.32247481
-0.19369788
0.057020653
-0.022741887
-0.010421057
0.32149354
-0.20270194
0.067390417
-0.036421544
-0.0079368561
0.32101068
-0.22253667
0.058014131
-0.054053558
-0.018868739
0.31312156
-0.25760513
0.0573907
-0.06734576
0.0080854227
0.30426924
-0.28221348
0.088833177
-0.058471551
-0.0088123473
0.30478487
-0.27444361
0.11832852
-0.067631658
0.0043016225
0.30914679
-0.26450416
0.12860014
-0.090700707
0.039679282
)
;
    }
    bottomWater_to_rightSolid
    {
        type            fixedFluxPressure;
        gradient        uniform 0;
        value           nonuniform List<scalar> 
130
(
0.019671074
0.01342067
0.0047567116
-0.012777554
-0.0055049271
-0.005561128
-0.010621545
-0.0092294153
0.01350633
-0.0065853152
-0.0079358284
-0.010343489
0.027572711
0.024774141
0.012559147
0.0087640001
-0.0032309601
-0.010372989
-0.0061942265
0.013806821
0.013481041
0.030555883
0.047780285
0.020480368
-0.0085265808
-0.0054961599
0.025455039
0.024387806
0.019588229
0.0018756999
0.018025047
0.030797581
0.052310641
0.044677511
0.04599192
0.040592013
0.0080640834
-0.014180217
-0.0069293578
0.0060598462
0.0093973899
0.01049315
-0.0012605683
0.024169618
0.015397387
0.026301391
0.028756185
0.0013516487
-0.0078495852
-0.020593447
-0.018707413
0.002501107
0.00015524365
-0.01116482
-0.011700124
0.014749661
0.0083528676
0.0047649015
-0.0086947609
-0.023642169
-0.014664305
-0.014254572
-0.011405486
0.0041830614
0.0046527398
-0.0086267895
-0.018759873
0.0038337083
0.027217466
0.014279976
0.021299726
-1.5766583e-05
-0.0058000748
-0.0056704201
0.0036997944
0.014976938
0.013049697
0.028028904
-0.018710785
-0.0063528029
0.0073144144
0.0096861838
0.02579793
0.030974941
0.01266397
0.0079900862
0.0172011
0.019656349
0.016374768
0.023565119
0.034000431
-0.029044041
-0.0032587599
0.0010295637
0.019001246
0.016077949
0.019118789
0.0056075349
0.032853837
0.029839937
0.035038014
0.018457359
0.0011333287
0.016146757
0.006501979
-0.0097689247
0.0070135313
-0.0073946445
0.0039008709
-0.0033496532
-0.010512936
-5.5141846e-05
0.0056177437
0.013106145
0.011725817
-0.0092844451
-0.0050738079
0.007098051
0.022259434
0.018346045
0.0017920897
0.0027964775
-0.019845153
-0.010421057
-0.0079368561
-0.018868739
0.0080854227
-0.0088123473
0.0043016225
0.039679282
)
;
    }
    bottomWater_to_leftSolid
    {
        type            fixedFluxPressure;
        gradient        uniform 0;
        value           nonuniform List<scalar> 
130
(
0.038102095
-0.0091318014
0.0031219228
-0.00092903354
-0.0085655914
-0.017111037
-0.014532879
0.01435803
0.031608121
0.040060396
0.011635911
0.011448387
-0.015329961
0.04881393
-0.0028361744
-0.0093783097
-0.0068350633
-0.004321131
-0.0026579838
0.0096688812
0.015481335
0.022600633
0.027896738
0.012012845
-0.0029302795
-0.012387021
0.032921197
-0.0082683632
-0.01313742
-0.0078749486
0.0013836144
0.025345414
0.018841627
0.021237091
0.035067707
0.027230299
0.011049455
-0.009881667
-0.014437845
0.0055361776
-0.0025190376
-0.019586688
-0.0087231927
-0.011773361
0.0056371718
0.0089080357
0.021514312
0.015826858
0.010038806
-0.00065032408
-0.029381172
-0.010159899
0.0055366312
0.0094388197
-0.0035460471
-0.0072753796
-0.0079406682
-0.0010414054
0.004074921
0.022258254
0.012589083
0.0036084505
-0.018033204
-0.017200777
-0.018060354
0.023983099
0.017311767
0.033914262
0.0041229282
0.0020514417
-0.0068669549
-0.03034615
-0.0022781303
0.028544675
0.049708082
0.019875938
-0.009482977
-0.013011461
0.018184233
0.012216086
0.025789868
-0.0045486218
-0.017638024
-0.019267934
-0.012923233
-0.0013283296
0.0057497135
0.0099117107
0.014919175
0.0017903165
-0.0043029372
0.0077046812
0.0033209514
0.0082483218
-0.0021826404
-0.027905043
-0.021868552
-0.0092626885
0.0027873359
0.01108379
0.021321072
0.031955837
0.013681559
0.019726863
0.0093916558
0.0037606308
-0.0042164465
-0.026514379
-0.021447112
-0.013096197
-0.0026573543
0.0053738023
0.0023953646
0.01605294
0.023440744
0.027244564
0.017679734
0.021089601
0.0094827755
0.0046576768
-0.0084401042
-0.020409356
0.009686258
-0.00058272961
0.024596547
0.0024525102
0.00632539
0.023152439
0.027643963
0.012375848
)
;
    }
    bottomWater_to_heater
    {
        type            fixedFluxPressure;
        gradient        uniform 0;
        value           nonuniform List<scalar> 
92
(
0.019418045
0.011408423
0.02433725
0.022650463
0.0072116385
0.040211899
0.018344893
0.014995532
0.0020610162
0.038340352
0.0063006745
0.025132896
0.30521391
0.28117206
0.31325948
0.28175125
-0.20342854
-0.23132088
-0.21417997
-0.26470139
0.058060691
0.10601257
0.062833906
0.071329947
-0.028003704
-0.073278043
-0.039723992
-0.083241943
-0.018068258
-0.018068258
-0.0029930088
-0.0029930088
-0.012785044
-0.012785044
0.0030650013
0.0030650013
0.28738161
0.29773908
-0.23981325
-0.26121095
0.11047002
0.11125279
-0.02731099
-0.034492786
-0.018060354
0.00015524365
0.27880442
0.29817915
0.30585612
0.29798701
0.29764233
0.31043918
-0.25437067
-0.21440506
-0.26739808
-0.24124178
-0.25764427
-0.22365567
0.10139091
0.04738151
0.096197804
0.093805073
0.10225957
0.07818073
-0.057230853
-0.07175013
-0.044102452
-0.071275714
-0.031047964
-0.038226796
-0.013011461
0.029056907
0.0031498228
-0.0053974523
-0.0086267895
-0.011120873
0.029056907
0.0031498228
-0.0053974523
-0.011120873
0.0067147457
-0.02232072
-0.023635289
-0.010311076
-0.0044138584
-0.0040639916
-0.0063891044
0.019543874
0.027909982
0.011037415
0.0048202383
-0.0026145989
)
;
    }
}


// ************************************************************************* //
