/*--------------------------------*- C++ -*----------------------------------*\
| =========                 |                                                 |
| \\      /  F ield         | OpenFOAM: The Open Source CFD Toolbox           |
|  \\    /   O peration     | Version:  v2012                                 |
|   \\  /    A nd           | Website:  www.openfoam.com                      |
|    \\/     M anipulation  |                                                 |
\*---------------------------------------------------------------------------*/
FoamFile
{
    version     2.0;
    format      ascii;
    class       volScalarField;
    location    "480/bottomWater";
    object      T;
}
// * * * * * * * * * * * * * * * * * * * * * * * * * * * * * * * * * * * * * //

dimensions      [0 0 0 1 0 0 0];


internalField   nonuniform List<scalar> 
1460
(
988.39675
982.3287
977.40912
972.20527
967.45185
964.35909
963.2073
962.55282
963.74498
956.63772
950.28387
948.8875
947.22966
949.16101
950.07849
939.5758
939.43834
938.34245
936.93337
934.72982
933.129
930.68395
928.87118
928.41279
928.38967
928.65733
928.71602
929.0414
928.69195
928.72422
984.9648
982.66989
973.30385
967.85772
963.82068
962.74447
962.1709
962.60629
962.72263
956.47153
949.43904
948.6469
946.05842
946.32651
945.76881
942.01633
937.44814
936.56743
935.8277
935.339
933.79971
930.99001
929.21233
928.66621
928.68592
928.89805
928.9097
928.81562
928.57217
929.65173
982.58503
981.49838
973.09049
968.77016
963.85243
962.93776
962.33657
962.65022
961.19324
956.53247
949.84302
949.49356
945.74936
943.04193
945.00811
942.62378
938.27555
936.88846
936.30491
935.494
933.6107
930.84665
928.50182
928.10515
928.44589
928.8588
928.75949
928.62797
928.59134
929.92834
976.5813
976.75545
971.50521
967.00691
964.20932
962.74842
962.33628
962.30922
961.39869
957.48817
951.86403
952.36728
947.72696
942.80464
944.85967
942.89906
939.31532
937.96334
937.26664
937.13767
933.35215
930.42634
927.7839
927.53685
927.93565
928.89896
928.6986
928.13268
928.27263
928.63622
975.56112
974.03293
972.1538
967.68335
964.34482
962.99286
961.5759
960.75721
960.58973
958.56459
954.85415
954.17983
948.58224
940.39152
941.55771
941.44218
938.01864
936.07151
934.4956
933.02199
931.61289
929.46859
926.57305
926.89741
927.0632
927.72735
927.2676
927.18904
927.59126
928.18445
982.41686
979.09275
977.61182
978.20886
974.43397
970.15294
968.25123
965.92342
959.29287
953.25022
950.98604
950.35955
952.04317
946.90877
946.23681
936.09066
935.38673
934.77652
935.35977
933.44515
931.38386
929.86589
929.0848
928.50747
927.63734
926.49204
925.99117
928.09832
930.15298
930.99586
980.30433
977.05502
975.32829
973.76135
969.86122
968.04117
968.39804
966.61846
964.37711
951.39691
950.35826
948.95249
947.52716
943.45503
940.80476
938.51733
935.28514
933.98117
933.60307
932.21358
930.68214
929.19315
928.99762
928.92378
928.74237
928.30445
929.05526
929.38784
930.1065
930.43681
979.63876
977.06736
973.87277
973.8946
970.57591
970.38403
969.31163
964.98917
963.57265
951.67373
951.69613
948.59533
946.46355
941.8592
941.09599
940.78336
935.65618
933.33358
932.81482
931.47565
929.84359
928.589
928.69463
928.62345
928.77867
928.33569
929.36503
929.28831
929.81378
930.31794
973.73339
972.99244
971.57609
971.56595
971.06193
970.76783
969.88288
964.38098
963.52589
953.07631
952.88659
951.25797
947.89652
938.35446
941.34811
938.02696
935.95075
932.58076
932.27003
931.57758
930.12838
928.30393
928.44991
928.67874
928.80342
928.32432
928.88325
929.00437
929.05247
928.86342
973.39964
972.7171
971.90001
968.03578
966.22891
966.40386
964.42635
962.10873
961.54791
954.21126
953.67314
953.63093
948.6205
938.3486
939.11766
936.06087
934.14621
931.63408
930.53756
929.64974
928.46799
926.8872
927.21862
927.66744
927.70579
927.65278
928.34768
928.37326
928.01828
927.53716
978.27596
974.56024
971.67771
974.46598
976.34426
973.88676
969.86371
967.48041
954.73151
951.76931
950.72608
949.9307
948.46384
938.61208
936.16205
930.55531
931.59538
929.99894
930.7141
930.36642
929.07668
926.72651
925.36582
918.18895
923.29514
925.45127
928.183
929.57404
931.06351
931.17699
973.8024
973.06756
970.08764
968.93593
970.42805
972.74958
970.27158
969.70232
959.01762
952.54998
952.20504
949.44131
945.19498
936.46624
933.30744
931.51117
928.6731
927.11268
930.33963
930.02836
929.12171
927.8572
928.29931
927.79745
929.19138
929.85904
929.77769
929.89024
930.5087
930.80429
975.53266
973.27215
970.3015
968.13407
970.32074
970.9338
970.43995
966.04097
959.13543
953.59531
953.02933
949.84126
944.88505
937.42457
935.13323
931.51025
925.57541
925.84248
929.59216
928.97329
927.21934
927.82522
928.95239
928.06576
929.32938
929.71859
929.69731
929.8279
930.18865
930.81174
971.61386
971.00543
970.31019
968.0468
970.65211
970.21845
969.6595
966.02947
959.52595
957.40386
955.87033
954.26106
945.57373
935.91063
930.76514
928.47186
927.36163
925.299
929.04738
928.38831
926.9118
927.93547
928.86087
928.19252
929.47054
929.37518
929.4076
929.14348
928.78725
928.48648
971.58181
971.31873
970.97572
967.82239
968.52576
968.83886
965.48935
964.25858
959.37228
957.44487
956.15322
955.25625
944.5438
932.16606
931.13147
929.25231
926.86509
925.2362
928.11883
927.26205
926.00172
926.798
927.82809
927.71504
928.80787
928.47816
928.53631
928.34193
927.92351
927.43159
976.72208
973.44327
971.8321
970.30955
970.38996
972.28077
972.30994
960.10372
952.55857
950.89172
950.31606
946.64411
942.06745
924.35348
924.85832
916.86825
918.32027
921.83905
928.01906
927.02431
927.458
928.49749
928.71125
929.26608
929.20882
929.33789
928.97919
928.23584
929.04656
929.59223
972.82769
971.77722
970.81497
968.96535
968.17357
968.73641
969.6122
964.13046
954.82239
955.02191
953.58959
948.52191
940.47451
922.95641
921.79562
917.84599
917.3364
918.39727
924.74221
925.6935
926.99254
928.56542
930.01459
930.25873
930.09814
930.02114
929.87034
929.02298
929.5627
930.00613
973.43755
972.29013
970.99421
968.9088
967.88593
969.67677
970.29178
964.78377
955.39719
958.2796
955.19196
950.79147
940.81328
923.6785
919.54825
917.32725
916.76623
917.80281
924.33915
925.70708
926.16846
927.96682
930.09068
930.24151
930.04901
930.02032
929.94419
928.87658
929.34219
930.72686
973.31426
971.84028
971.27798
968.91352
967.26049
968.05861
969.179
965.31519
957.15921
956.94394
957.11934
955.6528
945.27514
924.84695
920.43751
919.04546
918.39831
918.11369
923.94747
924.83358
925.00448
926.49712
929.91578
929.83542
929.82861
929.49889
929.60202
928.15974
928.60027
929.88512
971.8016
971.58863
971.48768
969.09424
966.82052
967.19023
967.47026
965.70733
958.61729
957.47145
956.80916
956.13506
946.53881
925.05183
923.96154
922.71283
921.51753
920.97817
922.9347
923.09519
924.66624
925.98437
928.2074
927.76127
928.51413
928.12438
927.97106
927.8281
928.29452
929.33286
978.27957
974.71689
972.20108
974.60129
975.86921
976.28453
968.94913
960.32977
957.2709
956.57652
953.96616
950.8977
937.55358
913.11773
926.56154
924.05523
925.10694
928.26092
929.57801
929.29519
929.11309
928.94541
930.19554
929.61403
929.31668
928.48574
973.34737
972.02854
970.79452
969.86701
971.45408
972.62739
970.6829
965.01581
960.55175
958.25117
952.89058
946.64986
933.67911
916.55169
925.2824
922.33004
925.26911
928.58729
930.61926
930.52979
929.64875
929.89261
931.49156
930.78591
930.60364
930.20576
973.37776
973.65963
970.73153
969.9517
969.25981
971.42549
971.01881
966.27101
961.7017
963.26649
952.58291
943.85975
939.45871
912.72078
918.80799
921.92988
925.96232
928.59654
931.02694
930.70034
929.11019
929.60029
931.19518
930.67719
930.54486
930.55478
973.47834
973.72689
970.13963
968.67837
967.63894
968.25029
970.74769
966.96977
963.63466
963.2924
960.95729
955.80697
944.60315
913.71543
921.55701
924.83578
927.44192
928.46477
930.77589
930.33667
928.41562
929.08475
930.9407
930.75527
930.70199
930.82094
973.49327
973.32029
972.51732
970.57676
967.51975
967.09487
968.36431
966.86729
963.66377
961.92059
958.99085
955.44923
948.10031
917.34989
924.46792
925.22909
926.3415
926.83422
927.62119
927.44569
927.65043
928.39272
930.25722
930.38861
930.45895
930.4673
983.24683
979.73439
978.91792
980.51252
979.32059
978.62682
973.32271
971.31705
973.09472
974.13512
964.39137
958.41317
935.65661
918.04987
926.56754
921.31404
922.49888
927.78713
930.20132
930.30723
930.18254
930.9051
931.44723
930.95944
930.61755
929.22169
976.73245
975.31087
975.06686
975.787
972.81148
971.58193
968.50795
968.14139
968.11653
967.39051
963.94973
950.64767
929.16993
921.03002
926.16414
920.87777
924.53127
927.66304
931.11472
931.17622
930.70519
932.31315
932.80336
932.27316
931.69203
930.95138
976.28228
974.42629
971.95237
973.24524
970.57103
966.74524
964.31098
965.08466
964.83732
962.75612
955.13794
945.87614
928.34818
917.5147
919.65326
920.82377
926.39056
928.16202
931.52922
931.07752
929.67954
932.05309
932.54846
932.12395
931.68089
931.06771
976.08233
974.98967
971.22569
969.42462
967.6005
964.48333
962.79379
965.85525
965.34772
958.42061
949.42256
946.54938
936.97313
921.48057
924.31007
925.43243
927.85662
928.21171
930.22194
930.02561
929.1925
931.8014
933.23323
932.50829
931.92581
931.27891
975.37986
974.24406
971.90879
969.14414
967.47781
964.42203
962.45614
962.24822
962.42836
959.81798
951.09453
948.49697
942.46181
924.23934
926.81066
926.09104
926.74212
926.97365
928.23407
927.69435
928.32095
931.37104
931.40173
931.39968
931.13015
930.97169
986.10891
982.04118
979.11469
977.13109
973.45529
971.02152
968.06154
966.28067
966.46424
968.25939
949.92058
938.30791
932.73523
929.84193
926.70851
929.6456
927.12084
934.22719
930.36384
927.18127
923.61681
924.86642
929.71864
929.55342
928.57795
928.97043
931.63455
932.46402
931.75265
929.99568
979.27115
976.54635
974.76108
973.56931
969.60309
967.86461
966.93433
966.32826
964.92521
966.25047
953.29979
938.56533
932.67258
933.58575
933.82865
932.89013
930.99092
932.25833
930.97796
930.23053
928.77787
928.39655
930.50433
931.31203
932.11128
933.36095
933.69616
933.62758
933.32719
932.25473
978.23214
974.76016
971.22005
971.21548
967.5228
966.51139
966.44315
966.25316
964.01479
961.27889
950.53486
941.37826
933.32573
935.78709
932.01906
931.19311
931.39464
931.18086
930.50807
931.31992
928.80527
928.64699
931.25144
931.5524
932.19756
932.75843
933.60927
933.67285
933.29301
932.24358
977.41384
975.7769
971.78926
967.50001
966.77742
966.11465
969.71469
967.54211
962.90246
956.39077
948.91617
943.61771
940.57932
940.72434
933.04662
934.26955
932.03421
933.08997
935.91151
933.38137
929.43924
928.93972
930.80605
931.29962
931.20092
932.46695
934.00074
933.35183
933.20748
932.34391
975.71794
974.50395
972.51388
971.28705
967.40636
963.65152
962.39002
960.25999
956.95079
952.48243
946.17332
943.1858
940.50541
936.36982
932.03854
929.98444
931.43159
931.84895
930.91157
928.70894
927.4303
928.53877
929.89097
929.46332
929.65414
931.89189
931.9613
931.50794
931.98836
931.90989
983.25356
979.29298
975.36958
979.46496
973.60429
972.69437
973.29718
972.68342
973.28549
975.10497
962.47528
943.44816
941.05821
942.99456
947.41976
946.75539
943.73437
941.61682
937.27094
929.65136
927.2532
930.63777
931.25609
932.83264
930.43582
926.5076
929.40051
933.42816
935.82541
932.60341
976.69107
973.5798
972.99337
974.68486
969.52429
969.20907
972.43708
971.78629
970.63065
970.91153
956.18288
940.54298
939.77423
942.62064
946.97009
946.31645
944.56421
941.62707
940.0511
936.86879
933.06517
933.16328
932.32709
933.0441
932.85985
933.28973
933.92887
933.76889
935.30736
934.02458
976.80673
975.27905
972.8873
971.56944
969.7962
969.47072
972.84386
972.48611
971.58421
970.06084
954.09257
940.76115
946.07856
948.28557
947.18476
946.29795
944.45028
940.39977
939.20646
936.69751
933.2686
932.49706
932.07023
931.74954
933.00462
933.42096
933.76703
933.58944
933.47808
933.87651
976.6805
976.2538
975.73519
972.82225
970.45361
969.99116
972.78406
971.57223
969.9859
967.05263
952.66107
943.96496
946.21272
950.69155
945.44243
944.32267
942.55004
938.62037
938.61173
936.76178
933.52692
932.49097
932.93922
931.23001
933.13555
933.51094
933.75523
933.38323
932.56544
932.27803
975.18988
974.43857
973.96843
972.97405
970.98284
969.22309
967.9008
966.12971
964.66846
962.45177
950.3997
946.72233
946.36069
944.00981
941.9789
941.74254
940.8456
937.08694
935.36161
934.03525
931.86325
930.7191
930.70425
930.02301
932.29469
932.99727
933.03726
932.66479
932.23105
931.62268
986.42436
982.15785
978.09367
982.33974
977.29967
977.34314
977.96499
978.28813
978.62801
967.61031
962.67397
952.91961
953.93343
952.76807
951.23532
948.01838
943.7799
939.59265
935.74318
933.44322
934.48499
935.27468
934.43385
932.70247
931.66916
930.2914
925.72538
929.89918
932.29109
933.20404
979.86171
977.22595
976.94369
975.50369
974.20827
974.18033
974.37497
974.52075
974.68572
965.50141
955.7694
950.11162
947.66999
947.57316
948.9208
947.40912
945.70587
942.69177
939.59706
935.60997
935.78725
935.97533
935.14727
933.21128
933.35431
933.3525
933.16087
934.1409
933.87923
933.73075
979.69879
978.31683
977.47527
975.2623
973.98461
974.13696
974.88324
974.54316
974.16079
965.97283
957.90316
950.26167
950.11909
948.18048
949.77505
948.80196
946.87011
943.4574
939.74924
936.39351
936.24576
935.59346
934.82145
932.38805
933.30644
933.66256
933.4321
933.89118
933.55505
933.52331
979.75289
979.96315
980.04047
976.85436
974.64104
974.06237
974.12132
973.2158
972.63587
966.17685
961.49883
956.31599
957.73107
954.18202
951.70213
949.55767
945.90338
940.67195
939.52107
937.13819
937.48289
937.13488
935.19474
932.13834
932.74405
933.95058
933.66762
933.86268
933.00293
932.61593
978.3318
977.42662
976.49439
975.47641
974.40054
973.5805
972.80259
969.59051
964.3107
963.73819
957.37301
957.15803
957.45183
955.682
951.87273
946.54684
943.45132
941.04
939.40801
935.92772
932.35781
931.37245
930.59344
930.39655
932.2124
933.03205
932.98249
933.04558
932.60477
932.31147
987.15518
983.78711
981.38689
980.11439
980.16391
982.04407
982.83011
981.48943
973.39443
969.86263
965.00051
965.89945
969.09846
961.45394
950.82682
947.32197
944.14798
941.77335
939.12097
934.87032
934.22289
933.58578
933.00389
931.86032
931.80843
932.12821
931.4768
931.59493
931.89445
931.8081
981.4405
979.13564
978.02792
978.24559
977.69485
977.14405
977.52692
977.19046
970.53667
968.25674
964.3628
961.54356
960.38896
957.59356
949.27293
946.3597
944.10984
942.99333
943.66102
937.65619
935.44036
935.43368
934.15
932.48199
932.78037
933.52264
933.86437
933.45394
933.04433
932.9338
981.48119
979.21777
979.65964
978.4445
978.38644
976.93061
977.20108
976.58244
970.79499
968.63404
964.87094
959.47152
960.2169
956.70877
949.00389
946.72349
944.45016
945.09318
943.36927
937.98217
935.76242
936.62613
934.18849
932.17782
932.58535
933.60546
934.0145
933.66265
933.64062
934.91437
981.54467
980.32059
980.4388
979.667
978.67787
977.52373
976.47362
975.53159
965.18081
965.25387
963.6454
958.97557
959.00936
955.8573
949.14938
947.61184
944.76982
945.22422
942.71281
938.46994
936.23223
936.73505
933.80989
931.86784
932.23686
932.93962
934.38368
933.79642
934.02292
933.92536
981.07419
980.47982
980.08926
979.70777
978.98059
975.12969
975.26189
972.49627
962.97211
962.24351
961.61948
958.91117
958.80269
954.80427
950.98652
948.10206
942.08567
941.60243
940.95823
937.89083
936.2101
934.76258
933.10577
931.45944
931.93473
932.51613
932.85388
933.11514
933.48145
933.6515
)
;

boundaryField
{
    minX
    {
        type            zeroGradient;
    }
    maxX
    {
        type            zeroGradient;
    }
    minY
    {
        type            fixedValue;
        value           uniform 1073;
    }
    minZ
    {
        type            zeroGradient;
    }
    maxZ
    {
        type            zeroGradient;
    }
    bottomWater_to_rightSolid
    {
        type            compressible::turbulentTemperatureCoupledBaffleMixed;
        refValue        nonuniform List<scalar> 
130
(
753.58152
761.57
769.90097
778.15674
786.0188
793.27043
799.77963
805.44443
810.20769
814.03442
816.91333
818.83814
819.80394
747.68971
757.025
766.53875
775.7458
784.33356
792.12236
799.00479
804.92391
809.8565
813.79868
816.74892
818.71199
819.69285
735.88049
748.31758
760.36483
771.48201
781.45016
790.20035
797.73435
804.09349
809.31458
813.44295
816.51106
818.54424
819.5583
718.3058
736.56502
752.69017
766.52359
778.26196
788.16029
796.43337
803.27025
808.80156
813.13001
816.32566
818.43798
819.49243
697.6148
725.48032
746.43545
762.85148
776.04535
786.80003
795.59788
802.76279
808.50946
812.9795
816.25912
818.41522
819.48599
697.66976
725.52136
746.46393
762.87197
776.0621
786.81686
795.61719
802.79109
808.55135
813.02083
816.29943
818.45323
819.52203
718.4213
736.67163
752.7788
766.59365
778.32491
788.2198
796.49798
803.34776
808.90289
813.24357
816.44226
818.55299
819.60197
735.99469
748.42659
760.47098
771.58274
781.54523
790.29366
797.83454
804.21354
809.45684
813.5992
816.67462
818.71069
819.7246
747.75521
757.11159
766.63206
775.84256
784.44169
792.23878
799.13234
805.0742
810.02807
813.98322
816.94342
818.9127
819.89703
753.59469
761.62542
769.9816
778.25914
786.14447
793.41633
799.93342
805.6132
810.39307
814.23746
817.12988
819.06277
820.03117
)
;
        refGradient     uniform 0;
        valueFraction   uniform 0.99248593;
        value           nonuniform List<scalar> 
130
(
754.95278
762.86938
771.12668
779.30984
787.09671
794.27209
800.73481
806.35829
811.09075
814.88527
817.74197
819.65534
820.61834
749.07194
758.32883
767.76443
776.89341
785.40475
793.13749
799.97158
805.84651
810.74164
814.65942
817.58769
819.53334
820.50322
737.30338
749.66864
761.61893
772.6431
782.54231
791.23451
798.71105
805.03061
810.21
814.30778
817.35138
819.36614
820.36889
719.82878
737.96542
753.97064
767.7119
779.37198
789.21262
797.42017
804.21133
809.69817
813.99294
817.16351
819.26349
820.31782
699.26598
726.97557
747.77895
764.07997
777.17839
787.8582
796.58863
803.70123
809.41028
813.86077
817.11673
819.25715
820.31994
699.37226
727.0339
747.81368
764.10331
777.19607
787.87947
796.60962
803.73435
809.47425
813.91038
817.16433
819.29993
820.35949
720.02502
738.13122
754.10076
767.80218
779.45367
789.28433
797.49709
804.29685
809.82706
814.13566
817.30689
819.40537
820.44588
737.50571
749.83126
761.77519
772.78711
782.66616
791.34873
798.82783
805.17597
810.38515
814.49668
817.5462
819.56371
820.56544
749.2076
758.48138
767.90418
777.01866
785.54575
793.2784
800.11869
806.02954
810.95235
814.87741
817.81585
819.76702
820.74175
755.00745
762.97296
771.24333
779.44602
787.26122
794.46599
800.92173
806.5624
811.31073
815.12877
818.00143
819.92256
820.88495
)
;
        Tnbr            T;
        thicknessLayers List<scalar> 0();
        kappaLayers     List<scalar> 0();
        kappaMethod     fluidThermo;
        kappa           none;
        alphaAni        none;
        alpha           none;
        field           T;
    }
    bottomWater_to_leftSolid
    {
        type            compressible::turbulentTemperatureCoupledBaffleMixed;
        refValue        nonuniform List<scalar> 
130
(
903.04077
902.98202
902.86659
902.69762
902.50861
902.3152
902.1136
901.908
901.70242
901.49363
901.29778
901.14899
901.04567
903.03893
902.98713
902.88148
902.72241
902.54376
902.35241
902.13724
901.90643
901.6718
901.42996
901.23247
901.08155
900.97621
903.06794
903.01997
902.91935
902.76532
902.59111
902.39183
902.15733
901.90329
901.631
901.37791
901.16079
900.98629
900.85109
903.15513
903.1053
903.00009
902.83632
902.63627
902.41659
902.17097
901.89134
901.58232
901.30316
901.06066
900.86334
900.71621
903.28776
903.23093
903.11093
902.92841
902.69934
902.44622
902.17469
901.87371
901.55122
901.2379
900.94704
900.70859
900.54858
903.43327
903.36534
903.22632
903.02135
902.76796
902.47493
902.16068
901.83437
901.49686
901.14836
900.80237
900.53807
900.37252
903.57955
903.50998
903.36899
903.16051
902.88718
902.5747
902.24314
901.88842
901.51247
901.12489
900.75423
900.47822
900.32256
903.73541
903.67008
903.53784
903.3374
903.07477
902.76919
902.4342
902.07206
901.69096
901.30003
900.91079
900.63316
900.4887
903.9053
903.84148
903.71267
903.52006
903.26927
902.97115
902.63542
902.25978
901.86203
901.4875
901.14311
900.89925
900.77058
904.02046
903.95977
903.83678
903.6508
903.40284
903.09693
902.75966
902.37698
901.96397
901.60006
901.29135
901.05754
900.93452
)
;
        refGradient     uniform 0;
        valueFraction   uniform 0.99248593;
        value           nonuniform List<scalar> 
130
(
903.58567
903.51586
903.38721
903.18588
902.97324
902.77114
902.56041
902.3502
902.14493
901.92258
901.7002
901.54747
901.4029
903.5676
903.51105
903.40007
903.21314
903.02229
902.83369
902.6053
902.35877
902.12169
901.82656
901.62651
901.47642
901.33431
903.58273
903.53315
903.43071
903.25411
903.08652
902.89109
902.63323
902.37184
902.06488
901.7992
901.57399
901.39407
901.17946
903.67094
903.61988
903.5147
903.33416
903.11854
902.90329
902.66165
902.37091
902.01084
901.72519
901.47955
901.27864
901.06057
903.81529
903.75759
903.63247
903.43671
903.18642
902.93196
902.67202
902.3621
902.01792
901.69384
901.38313
901.11986
900.90582
903.97388
903.89791
903.74244
903.51815
903.25418
902.9404
902.61367
902.28822
901.95465
901.58932
901.18023
900.89843
900.68876
904.12157
904.04341
903.88857
903.67244
903.37196
903.03366
902.69516
902.32714
901.92915
901.51087
901.09537
900.79904
900.62443
904.27232
904.20185
904.06707
903.86068
903.58502
903.26852
902.92614
902.55344
902.16424
901.75959
901.28251
900.97943
900.83334
904.46456
904.39442
904.25957
904.06077
903.80378
903.50172
903.1627
902.76578
902.33132
901.95524
901.56564
901.32202
901.19652
904.59946
904.53476
904.40975
904.2223
903.97072
903.63822
903.30448
902.90386
902.42243
902.05577
901.74472
901.49228
901.36937
)
;
        Tnbr            T;
        thicknessLayers List<scalar> 0();
        kappaLayers     List<scalar> 0();
        kappaMethod     fluidThermo;
        kappa           none;
        alphaAni        none;
        alpha           none;
        field           T;
    }
    bottomWater_to_heater
    {
        type            compressible::turbulentTemperatureCoupledBaffleMixed;
        refValue        nonuniform List<scalar> 
92
(
734.35002
736.479
740.59681
746.42652
724.92418
727.4115
732.26161
739.19511
705.1073
708.30444
714.71321
724.14792
345.67533
342.94251
342.96143
345.66081
422.59143
419.26198
419.47856
423.0448
488.45024
485.63044
486.3372
490.07009
544.49771
542.75031
544.6577
549.16045
672.93525
590.81016
676.94121
590.98465
685.54211
595.61656
699.40981
603.22415
345.67533
345.66081
422.59143
423.0448
488.45024
490.07009
544.49771
549.16045
590.81016
603.22415
345.68083
345.68083
342.95928
343.00171
345.71774
345.71774
422.59709
422.59709
419.3037
419.54924
423.14397
423.14397
488.43803
488.43803
485.67653
486.41712
490.18575
490.18575
544.50894
544.50894
542.80325
544.74125
549.28523
549.28523
590.82138
590.82138
591.02248
595.67476
603.32222
603.32222
672.99535
676.99926
685.61485
699.50943
705.14754
708.34959
714.78457
724.24857
724.96111
727.42932
732.27866
739.23027
734.35234
736.45235
740.55356
746.39441
)
;
        refGradient     uniform 0;
        valueFraction   nonuniform List<scalar> 
92
(
0.99248593
0.99248593
0.99248593
0.99248593
0.99248593
0.99248593
0.99248593
0.99248593
0.99248593
0.99248593
0.99248593
0.99248593
0.99248593
0.99248593
0.99248593
0.99248593
0.99248593
0.99248593
0.99248593
0.99248593
0.99248593
0.99248593
0.99248593
0.99248593
0.99248593
0.99248593
0.99248593
0.99248593
0.99248593
0.99248593
0.99248593
0.99248593
0.99248593
0.99248593
0.99248593
0.99248593
0.99248593
0.99248593
0.99248593
0.99248593
0.99248593
0.99248593
0.99248593
0.99248593
0.99248593
0.99248593
0.99248593
0.99248593
0.99248593
0.99248593
0.99248593
0.99248593
0.99248593
0.99248593
0.99248593
0.99248593
0.99248593
0.99248593
0.99248593
0.99248593
0.99248593
0.99248593
0.99248593
0.99248593
0.99248593
0.99248593
0.99248593
0.99248593
0.99248593
0.99248593
0.99248593
0.99248593
0.99248593
0.99248593
0.99248593
0.99248593
0.99248593
0.99248593
0.99248593
0.99248593
0.99248593
0.99248593
0.99248593
0.99248593
0.99248593
0.99248593
0.99248593
0.99248593
0.99248593
0.99248593
0.99248593
0.99248593
)
;
        value           nonuniform List<scalar> 
92
(
735.89825
738.02
742.10599
747.86618
726.52788
729.00227
733.793
740.66003
706.81346
709.97881
716.32529
725.67121
350.02352
347.31507
347.27386
349.96385
426.35128
423.03811
423.22344
426.75903
491.72064
488.89102
489.57576
493.27635
547.35568
545.58835
547.47084
551.93501
674.82967
593.32168
678.79735
593.48667
687.32425
598.07441
701.07882
605.6159
350.12279
349.92473
426.43181
426.75304
491.83899
493.24589
547.50405
551.89981
593.49479
605.58458
350.11395
350.07025
347.3457
347.40982
350.01814
350.08651
426.40347
426.43666
423.1697
423.40641
426.88507
426.95997
491.74343
491.79938
489.03024
489.75921
493.39667
493.50102
547.45787
547.48616
545.73564
547.66805
552.08192
552.16124
593.46361
593.41785
593.58494
598.18687
605.73365
605.78771
674.97435
678.91569
687.45114
701.25217
706.94228
710.105
716.48993
725.87607
726.69476
729.11572
733.88862
740.76478
736.00885
738.06444
742.11307
747.86479
)
;
        Tnbr            T;
        thicknessLayers List<scalar> 0();
        kappaLayers     List<scalar> 0();
        kappaMethod     fluidThermo;
        kappa           none;
        alphaAni        none;
        alpha           none;
        field           T;
    }
}


// ************************************************************************* //
