/*--------------------------------*- C++ -*----------------------------------*\
| =========                 |                                                 |
| \\      /  F ield         | OpenFOAM: The Open Source CFD Toolbox           |
|  \\    /   O peration     | Version:  v2012                                 |
|   \\  /    A nd           | Website:  www.openfoam.com                      |
|    \\/     M anipulation  |                                                 |
\*---------------------------------------------------------------------------*/
FoamFile
{
    version     2.0;
    format      ascii;
    class       volVectorField;
    location    "480/bottomWater";
    object      U;
}
// * * * * * * * * * * * * * * * * * * * * * * * * * * * * * * * * * * * * * //

dimensions      [0 1 -1 0 0 0 0];


internalField   nonuniform List<vector> 
1460
(
(-0.00026688756 -0.017711149 -0.00028460988)
(-0.0018520783 -0.015145622 -0.0010007153)
(-0.0024586065 -0.016351324 -0.00035540909)
(-0.0038037786 -0.015973818 0.00023052786)
(-0.0043337667 -0.01401191 0.0010001594)
(-0.0031851214 -0.011237163 0.0016989438)
(-0.0018555561 -0.012239086 5.4960577e-05)
(0.000679484 -0.011906169 0.00029140063)
(0.0015844258 -0.017299145 0.00045122021)
(-0.0010381272 -0.018840248 0.0009602692)
(-0.0023118132 -0.016644819 0.00030902672)
(-0.0016964184 -0.013415135 0.00045559295)
(0.001220177 -0.010463423 0.0014098787)
(0.0030216981 -0.014679645 -0.00032708705)
(4.3378229e-05 -0.016252816 -0.00018139394)
(5.1714102e-05 -0.016408707 -0.001848281)
(-0.00017702739 -0.014603936 0.00026656425)
(-0.0031527692 -0.01279751 0.00075277566)
(-0.0050183062 -0.012428096 0.0016327396)
(-0.0038402272 -0.012380202 0.0019837638)
(-0.0025787965 -0.013422476 0.0015143335)
(-0.00073872457 -0.013050648 0.0013594324)
(0.00178798 -0.013113215 0.0017666283)
(0.0029717938 -0.012801389 0.0022405165)
(0.0041046347 -0.012478311 0.0022029769)
(0.0053307747 -0.0131241 0.0019952433)
(0.0053142066 -0.015107556 0.00089764942)
(0.0041482583 -0.015186162 8.7397132e-05)
(0.0026177412 -0.017116738 0.00052740012)
(0.00011755568 -0.019829631 0.0010752099)
(0.0018347262 0.019117915 -0.0018780925)
(0.0015956796 0.017025135 -0.0026357724)
(-0.002378144 0.017911908 1.6566481e-05)
(-0.0041748452 0.017289325 0.0016437824)
(-0.0035981138 0.011237205 0.0019403671)
(-0.001416966 0.0017158911 0.0018418375)
(0.0010412955 0.0038051531 0.00090776116)
(0.0022419915 0.0025318751 -0.00055686426)
(0.0073350115 0.016772712 0.00052582748)
(5.6932577e-05 0.020002078 -0.00050283458)
(-0.0076328474 0.016407257 -0.0019604076)
(-0.0045381775 0.0058209773 -0.00072262013)
(-0.0020993934 -0.00038647406 -0.00050746721)
(0.0054074606 0.016295317 -0.0010829275)
(0.0040174633 0.018323959 -0.0023497054)
(0.0020801106 0.018250463 -0.0031286313)
(-0.0021256758 0.016811702 0.00022232377)
(-0.0049371819 0.015365676 0.0011627471)
(-0.0056595889 0.011451983 0.0012966785)
(-0.0019406139 0.001606889 0.0011226229)
(-0.0016684226 0.0056935276 0.0024045783)
(0.0016707894 0.0014658525 0.00075767313)
(0.0028377808 0.0018711101 0.0013154956)
(0.0038945814 0.0043157044 0.0019748448)
(0.0042193235 0.0041200304 0.0016023405)
(0.0041425166 0.0083071046 0.0013358014)
(0.0059680218 0.016278587 0.00013138424)
(0.0053739761 0.017128296 -0.00013147456)
(0.0018297854 0.018571474 0.00033102944)
(-0.0026305901 0.020489064 0.0021573591)
(0.00022497411 -0.014372576 0.001552782)
(0.00010606953 -0.00098867869 0.00079091918)
(-0.0016854709 -0.00091916867 0.0016473861)
(-0.0018383734 -0.0090430938 0.0015786564)
(0.0021119379 -0.015118163 -0.00051521064)
(0.001697673 -0.014299433 -0.00037959851)
(0.001257331 -0.013208557 0.00013158404)
(-0.003083644 -0.01460826 -0.0022197237)
(-0.0035437493 -0.010301081 -0.0016036354)
(-9.1030353e-06 0.0083802791 -0.00011438577)
(-0.0019591322 0.00092651288 -0.000709989)
(-0.00052679015 -0.014604157 -0.0020630194)
(-0.004796761 -0.014012183 -0.0023132623)
(-0.0045718095 -0.014909342 -0.0035859679)
(0.0013111446 -4.2135261e-06 -0.0027368829)
(0.0011882733 0.0035753971 -0.0021448992)
(0.0010472159 0.001811514 -0.00049701282)
(0.00231792 -0.0048244684 -0.0012112447)
(0.0056913521 -0.013696931 -0.0018920897)
(0.0027803509 -0.015488285 -0.0021326669)
(-0.00047450189 -0.01374666 0.00052613941)
(0.0019749429 -0.013976425 -0.00061436185)
(0.0011421447 -0.013425796 -0.00075113546)
(0.0018775319 -0.013269772 -0.00092727364)
(0.001948118 -0.01399224 -0.0027934452)
(-0.0040453734 -0.014704123 -0.0034211248)
(-0.0031364137 -0.0078872706 -0.0013987692)
(-0.0018637302 -0.0039952181 0.0021113731)
(-0.0012435456 -0.00071460796 0.0015382853)
(0.00016660814 -0.019102485 0.00031209146)
(-0.0063022443 0.01263594 0.0022571869)
(-0.0044798711 0.0091433312 0.0028971933)
(-0.0029330632 0.0091750549 0.002232702)
(-0.0018284815 0.0097935663 -0.0016382405)
(-0.00078281045 8.925324e-05 -0.0026690747)
(-0.0020795408 -0.0020843668 -0.0020846726)
(-0.0021483743 0.0015561628 -0.002785229)
(-0.00072347161 0.0094419164 -0.0025153913)
(-0.0034278209 0.010663546 -0.0038850909)
(-4.0624433e-05 0.010450166 0.00022789528)
(0.0025731852 0.0075760958 0.0015343153)
(0.0010331345 0.0083317741 -0.00053203324)
(-0.00151484 -0.00037720732 0.00098668969)
(-0.0019932807 0.011346025 -0.0023781581)
(-0.0015815828 0.0080331319 0.00073508203)
(8.6537353e-05 0.0087913252 0.00026357558)
(0.0018987872 0.0083510737 0.00019271899)
(0.0036013432 0.0075108612 -0.00069079786)
(0.0044172246 0.0096149636 -0.00063048662)
(0.0018330227 0.010553516 0.00096352363)
(0.0017604332 0.0023673861 -0.00014379913)
(0.002522414 -0.0041799742 -0.00015639081)
(0.0015793629 -0.0031823323 -0.0010782706)
(0.0015403865 0.00091164408 -0.0010549795)
(0.0025489819 0.0054713753 -0.0020311879)
(3.8828266e-05 0.012120495 -0.0025273855)
(-0.0035122948 0.0086765417 0.0025409005)
(-0.001384825 0.0035802589 0.00091411149)
(0.001868023 0.0062210045 0.0019445326)
(0.0050441485 0.014192803 -0.0018410147)
(3.8055203e-06 -0.0019858951 0.0010355998)
(0.0044834542 -0.0083020523 0.00046605703)
(-6.8434072e-05 -0.0058401773 0.0022150466)
(0.0022523613 -0.0081602094 0.0010545887)
(-0.00061652984 -0.010529721 -0.0026836473)
(-0.0041727428 -0.010046347 -0.0040230086)
(-0.0066416399 -0.0099014195 -0.0032802139)
(-0.0065361964 -0.0086495781 -0.0018981839)
(-0.0039304524 -0.0027668547 -0.0013752564)
(0.0011608422 0.0037666662 0.00092213791)
(0.0037975579 0.00013228875 0.001248215)
(0.0054968206 -0.0059083835 0.001634384)
(0.00070537078 -0.0098166066 0.0011192539)
(-0.0049396891 -0.010000439 0.00072548123)
(-0.002140158 -0.003503237 -0.00094717686)
(-0.0014987159 0.00017188162 0.00061743552)
(0.0018705017 -4.3686957e-05 0.0010311569)
(0.0030792512 -0.0045479648 -0.00010477582)
(0.0044869877 -0.0075002635 -0.00051359744)
(0.0061446804 -0.010067511 -0.0011101734)
(0.006190331 -0.010724475 -0.0019692953)
(0.0026406168 -0.010614673 -0.0027668247)
(-0.002751543 -0.0089391833 -0.0046337339)
(-0.0026885297 -0.0083962853 -0.005206473)
(-0.0035975937 -0.0086180741 -0.0042539037)
(-0.00049223438 -0.0041309063 -0.0033148506)
(0.0030669222 -0.0095782363 -0.0055414641)
(0.0025277051 -0.012231497 -0.004604785)
(-0.0037626411 -0.009888628 -0.0010077506)
(-0.0009957613 -0.003008231 0.00019448517)
(-0.0016997435 -0.017480716 -0.001585553)
(-0.00063031209 -0.010399805 -0.0010079389)
(0.00044983902 -0.014424784 -0.0025785813)
(-0.001394355 -0.016962527 -0.001464252)
(-0.0011581773 -0.016771981 -0.00051526756)
(-0.0039159087 -0.012997951 0.0019590683)
(-0.0013639202 -0.01179087 0.001591379)
(0.0016321863 -0.013413066 0.0017156593)
(-0.00025301968 -0.01841887 0.00080522133)
(-0.0019107434 -0.017969928 0.00029094678)
(-0.0020539867 -0.015707084 -0.0011983875)
(0.00030727734 -0.011120395 -0.00023436631)
(0.002680385 -0.012276451 0.00019198536)
(0.0020043333 -0.016797651 -0.0024276216)
(0.00040125025 -0.019772309 -0.001905252)
(1.9431156e-05 -0.015985789 -0.0042065372)
(-0.00075947511 -0.01524985 -0.0015671546)
(-0.0026915518 -0.015082691 -0.0013213021)
(-0.0043049794 -0.012883403 0.00035175967)
(-0.0049928769 -0.013340045 0.0017189264)
(-0.0031015185 -0.011644217 0.0013303238)
(-4.0885087e-05 -0.012533255 0.0013505868)
(0.0022173687 -0.012209776 0.0020094872)
(0.002793619 -0.015571199 0.0011184323)
(0.0031906745 -0.015866386 0.00039230931)
(0.0029017982 -0.016970199 -0.00085882817)
(0.0014410066 -0.019472472 -0.0034448503)
(0.0017683965 -0.012793416 -0.0017069223)
(0.0022676385 -0.013487567 -0.00031609448)
(-0.00069246094 -0.016079461 -0.00068588811)
(-0.0012604044 0.019151215 -0.0023469184)
(0.00128314 0.004453375 0.00037564287)
(0.003781723 0.014796159 -0.0030023046)
(0.0021602317 0.018135393 -0.0026476548)
(-0.0036654235 0.018430378 0.0013706236)
(-0.0053713547 0.014742211 0.0027939886)
(0.0027190044 -0.00016363752 0.0029020978)
(0.0042025487 0.0085563058 0.0012596921)
(0.0058724292 0.018710822 0.00091603911)
(-0.0071096488 0.018794877 -0.0033976624)
(-0.0057431438 0.012771855 -0.0033308581)
(-0.0045125463 0.0032856375 -0.001375451)
(0.0028180067 0.013459146 -0.00066569197)
(0.0019636738 0.018516926 -0.0024393252)
(0.00021694326 0.020862839 -0.0041560694)
(0.0020267184 0.015728668 -0.0035870168)
(0.0020437143 0.017137248 -0.0019773006)
(-0.0038213377 0.017216891 0.0012360983)
(-0.0057610201 0.015326774 0.0024572329)
(-0.0051462232 0.011912947 0.0029914885)
(-0.0020023458 0.0018570541 0.00056313162)
(0.0017745487 0.0047668454 0.0026454096)
(0.004766704 0.0056422765 0.0034211128)
(0.0069091718 0.014067229 0.0054976039)
(0.0068206254 0.0165267 0.006177847)
(0.0025668702 0.018308482 0.0036647079)
(-0.0032267373 0.019607781 -0.0038112512)
(-4.8618178e-05 0.010520123 0.00039540592)
(0.0024314656 0.015680603 -0.00024107883)
(0.00023265572 0.01759147 -1.5936729e-05)
(0.0037559305 -0.015344937 0.002367613)
(-0.00087468797 -0.013564559 0.004086999)
(-0.0039868171 -0.0099588713 0.0029207669)
(0.0022332309 0.0029899211 -0.0016021163)
(0.00057263595 0.0031316249 0.0015883054)
(0.0055180211 -0.0115325 1.2303475e-05)
(0.0042501945 -0.015754076 0.0015506227)
(-0.005294322 -0.013833089 -0.0043017767)
(0.0024754853 0.0044829178 0.00056127217)
(-0.0042894426 0.005872862 -0.0017306752)
(0.0033742381 -0.01482353 0.0038540612)
(-0.0063668953 -0.01440814 -0.0010795259)
(-0.0036757 -0.013311981 -6.3950456e-05)
(-0.00070194079 -0.0056784279 -0.0012048785)
(0.002850326 -0.016533238 -0.0012436323)
(-0.00067337783 -0.017010825 0.005445152)
(0.00029335418 -0.00037509758 0.00011700715)
(-0.00020948698 0.0030096306 -0.00014512309)
(0.0013415241 -0.0040737137 -0.0024275412)
(0.0023315243 -0.013932233 -0.0039200376)
(0.0011620204 -0.014282679 -0.0033610574)
(0.00052530059 -0.013119457 -0.00068538937)
(0.0020773997 -0.013398896 -0.001604588)
(-0.0021581063 -0.014375383 -0.003135781)
(0.0026196712 -0.00045051315 0.0030070654)
(-0.00038313194 0.0058598677 0.0022357463)
(0.00041951427 -0.01427084 0.0035755743)
(-0.0020756029 -0.013556442 0.0054289062)
(-0.0032333845 -0.0049735043 0.0031697116)
(-0.0015387386 -0.0017001403 0.001687683)
(-0.0040458889 0.012671933 0.0028451521)
(-0.0056311845 0.010116316 0.0037786013)
(-0.0057306116 0.006815677 0.0021928845)
(-0.0022946833 0.0047042927 0.00057469139)
(0.0038426399 0.0083682396 0.0015864951)
(0.0054916845 0.010559515 0.0028059871)
(0.0025347576 0.011000242 0.0010036359)
(-0.0033001118 0.010425991 -0.0015368947)
(0.00068939953 0.008216409 -0.0017237527)
(0.0010007925 0.0087379928 0.0011178712)
(0.0046435033 0.010317823 0.0024037223)
(-0.003878904 0.0051398113 -0.0006363346)
(-0.00081561431 -0.0021833761 0.0016841917)
(-0.00038376346 0.0054422819 -0.00060718903)
(0.00031798265 0.015379403 0.0043078011)
(-0.0060368714 0.012444696 0.0028421552)
(-0.0026205398 0.0085064568 0.0022154146)
(0.00032993211 0.0085414478 -0.0010082217)
(0.0036810977 0.0075847943 -0.0021390009)
(0.0027425166 0.0094425492 -0.0016650901)
(0.003185257 0.0027101364 -0.00084838113)
(0.001918891 -0.00083125297 -0.00086390803)
(0.0044017586 0.0060617915 0.0015394647)
(-0.0018159612 0.010949259 -0.0019225223)
(-0.0023935459 0.0074209489 -0.00014164755)
(0.0016528903 0.010056081 0.0024811534)
(0.0014958465 0.014063686 0.0032163675)
(-0.005506739 0.011592755 0.0034573565)
(-0.004691639 0.0089317654 0.0021056203)
(-0.001740076 0.0056598635 -0.0014080087)
(0.001280481 -0.00039812574 0.0024826311)
(0.0049885386 -0.0063832607 0.0023288158)
(0.0031027197 -0.010249282 0.0031091035)
(0.00052476628 -0.0098612718 0.0013360713)
(-0.0022225776 -0.0080787661 -0.0025531845)
(-0.0020731002 -0.0079982848 -0.0037510036)
(-0.0025425497 -0.0079656151 -0.0033321618)
(-0.0029200123 -0.0087879429 -0.0025197427)
(-0.001159364 -0.00097826259 -0.0017920383)
(0.0015599978 0.0010524109 0.001803054)
(0.0049529735 -0.0027535637 0.002124311)
(0.0063560935 -0.0072204945 0.0028831303)
(0.0015571777 -0.010658065 0.0023826324)
(-0.0063889872 -0.0079984507 0.0024790226)
(-0.0017695226 -0.0030258283 0.0019531928)
(-0.00073675483 -0.0098576028 0.0023292238)
(-0.0015148915 -0.0062811708 0.0009455505)
(0.00058375688 -0.00029619497 -0.0010438326)
(0.0033183533 -0.0035186766 -0.0019129009)
(0.0044817453 -0.0072543502 -0.0023000595)
(0.0043160398 -0.010472337 -0.0028340939)
(-0.0026902719 -0.0098775348 -0.0047364145)
(-0.0048652865 -0.0059956657 -0.0049347663)
(-0.0031405031 -0.0021807826 -0.0043440692)
(-0.00263625 -0.0025634534 -0.0027406627)
(-0.0015680494 0.0020210056 0.00030976225)
(0.002332152 0.0016048648 0.00078807662)
(0.0023832784 -0.0012900272 0.0016703154)
(0.0034804539 -0.0058297395 0.0016860986)
(0.0020279239 -0.0098512699 0.002828803)
(-0.0016266005 -0.018576056 -0.0013959671)
(-0.001919688 -0.011846081 -0.00021547304)
(0.0010782796 -0.010808674 -0.0015808276)
(0.0012025852 -0.013291977 -0.0020095737)
(0.0016928515 -0.017801791 -0.0016477414)
(-0.0022655363 -0.015392554 -0.0012900555)
(-0.00056717579 -0.010541177 0.00076948288)
(0.0015129851 -0.018018576 0.0025611221)
(-0.0014988804 -0.018337325 0.0021229627)
(-0.0034326815 -0.015855872 3.2781108e-05)
(-0.0022985781 -0.012703152 -0.0014706039)
(-0.00041061313 -0.012132947 -0.0014466766)
(0.00084090479 -0.011968337 -0.0033058089)
(0.0021549039 -0.017863131 -0.0031802135)
(-0.0032185823 -0.020645399 -0.00047639808)
(0.00083510822 -0.012522302 -0.0011514626)
(0.0036281877 -0.01370085 -0.00074595974)
(-0.00043723363 -0.017406875 -0.0012314162)
(-0.0019005525 -0.016659354 -0.00040338133)
(-0.0034722917 -0.014903263 0.00061094633)
(-0.0043124215 -0.013494138 0.0010249939)
(-0.0017394189 -0.011119884 0.00039926409)
(0.0003400571 -0.017744035 0.002709484)
(-0.00079150506 -0.021053045 0.00094095309)
(-0.00081821721 -0.020702676 -0.0012872147)
(-0.0020428484 -0.020360371 -0.00029337773)
(2.9475894e-05 -0.012721791 0.00089009632)
(0.0035407666 -0.011794569 -0.0010406782)
(0.0031102373 -0.012182154 -0.0021309941)
(0.00054335174 -0.015405319 -0.0020100762)
(-0.0037644257 0.018742819 0.00063587833)
(-0.0010668278 0.0036608996 0.00053197259)
(0.00056623909 0.00063201574 -0.00077155397)
(0.0040578499 0.010169435 -0.0030480244)
(0.0022437439 0.018025321 -0.0038627573)
(-0.0034582271 0.017445551 -0.0020855839)
(0.0038633101 0.0014703152 -0.00072088235)
(0.0067791247 0.01629637 0.0009438693)
(-0.00088711864 0.019908064 -0.00090588529)
(-0.00753187 0.015928553 -0.0028888406)
(-0.0023999608 0.0036049921 -0.0017768986)
(-0.0024999874 0.0045982164 -0.001952581)
(0.002458711 0.0051910888 -0.0027628608)
(0.0018763627 0.018307929 -0.0045445364)
(-0.0038002155 0.019317659 -0.0018051437)
(7.0247963e-05 -0.0051748368 0.00040855698)
(0.0055809015 0.013734934 -0.00091913876)
(0.0034571025 0.018802703 -0.0014292222)
(-0.0040124464 0.018306468 0.0011621255)
(-0.0043135237 0.01722567 0.0023022068)
(-0.0030229545 0.013652211 0.0030958247)
(0.0019709512 0.0018609131 -0.0011653818)
(0.0059670337 0.016180084 0.0024011548)
(0.003073031 0.021496657 0.0013340544)
(-0.0052919701 0.021111841 -0.0023268905)
(-0.0067582144 0.018257618 -0.00097022885)
(-0.0013776878 -0.0026817762 0.0018574786)
(-0.00041251823 0.0046396482 -0.00077066382)
(0.0046545618 0.013942158 -0.0035196145)
(0.0020700214 0.016947019 -0.0034153754)
(0.0028320896 -0.01319955 0.0015108045)
(-0.00027169284 -0.013336967 0.0023024644)
(-0.0024837796 -0.013101608 0.0026910964)
(-0.0021424944 -0.013075652 0.0031805315)
(0.0015767668 0.00078680629 -0.0016195451)
(0.004065368 -0.010166924 -0.0020476527)
(0.0031554426 -0.014841233 -0.003373616)
(-0.0016924734 -0.0098128708 -0.0048095258)
(0.00032650641 0.0087202052 -0.00043224419)
(0.0013267325 -0.011495785 0.0015320384)
(0.0017046357 -0.015324023 0.0021027593)
(-0.0036937082 -0.013421759 -1.6096234e-05)
(-0.001953492 -0.013251856 0.001066929)
(-0.0013980461 -0.0040377857 -0.0012832165)
(0.0037383737 -0.018988339 -0.0008945433)
(-0.0018212127 -0.016950635 0.002013894)
(-0.006937184 -0.012929589 0.00073734385)
(-0.00014111839 0.0037807157 -0.0016256261)
(-0.0016125849 0.0039305457 -0.0013436963)
(-0.0012177518 -0.0054657845 -0.0023935787)
(0.0025991508 -0.014312379 -0.0042224108)
(0.0006877411 -0.014669305 -0.0037917581)
(-0.0026078306 -0.0076562871 -0.0027913681)
(0.0016361434 0.010223136 -0.00035748606)
(-0.0047338716 0.0075143702 -0.0020187258)
(0.0048823399 -0.015230051 -0.0006206596)
(0.00078090815 -0.016325691 0.0022040253)
(-0.0062533931 -0.014022891 0.0028276977)
(-0.0053640305 -0.010125178 0.0023338936)
(-0.001257247 -0.0022760435 0.00038570674)
(-0.0021460179 0.012144932 0.0002472803)
(-0.0044291766 0.0071087367 0.0010703603)
(-0.00054094798 -0.0017035441 0.0018654185)
(-0.0030417108 -0.00061351153 0.0018458834)
(0.0025328875 0.00745557 0.00084110212)
(0.0025009977 0.010976874 0.00031464553)
(0.0020284689 0.009898842 0.0014161288)
(-0.00072123636 0.010876822 -0.0034959292)
(0.002226321 0.0098536954 -0.00013655018)
(0.005350942 0.010506534 0.00304861)
(0.00087225271 0.010677744 5.72263e-05)
(0.0010661093 0.0028981032 0.00046626771)
(-0.0017814967 -0.0047208134 1.6392945e-05)
(0.0026599739 0.0059680738 -0.0011338813)
(-0.0014362972 0.014878025 -0.0019840829)
(-0.0044788943 0.010598777 -0.0010322754)
(-0.0045649111 0.011058601 0.00084953808)
(-0.0027123285 0.0084483521 -0.0014763109)
(0.0005515442 0.0095065929 -0.0014070519)
(0.0019669361 0.0075355869 -0.0022080303)
(0.00085094943 0.0018045978 -0.0013415648)
(0.00021934781 0.0076330947 0.00024625091)
(-0.0044710314 0.0099564445 -0.0023644806)
(-0.00077356697 0.011553134 -8.6785356e-05)
(0.0001073097 0.010146179 -0.00020401034)
(0.0043399725 0.012437251 0.00083863543)
(0.00027490386 0.011949049 7.3710265e-05)
(-0.0037006695 0.010506453 -0.00080852808)
(-0.0040548957 0.0062866599 0.00092255055)
(-0.0017459026 0.0019038574 0.0018467183)
(0.0020494242 7.1891398e-05 0.0029798659)
(0.0060001237 -0.007351306 0.0027779496)
(0.0045898267 -0.010181946 0.0033048942)
(-0.0024130136 -0.0097341923 0.0016016386)
(-0.0034370677 -0.0026468828 0.0011165242)
(-0.00076830758 -0.00093324 -1.5034369e-05)
(5.7791071e-05 -0.0085900024 6.5679467e-05)
(-0.0021015181 -0.0069377517 -0.0018991225)
(0.0015804444 0.0026133274 0.00013811254)
(0.0042859487 -0.0036784634 0.0021785466)
(0.0056392114 -0.0055790491 0.0021820966)
(0.006812142 -0.0088898617 0.0032932142)
(-0.00039279743 -0.01011554 0.0026027386)
(-0.0067859561 -0.0064154028 0.0027441137)
(-0.002251488 -0.0020946727 0.0017780883)
(-0.0017563555 -0.011858159 0.0032889051)
(-0.0038189122 -0.0071107719 0.0017130918)
(-0.0021029748 0.00063265508 0.00058346309)
(0.0011019109 0.0022415107 -0.00094987642)
(0.0037756837 -0.0047964493 -0.0012488694)
(-0.001888299 -0.010352013 -0.0022056679)
(-0.0053126358 -0.0059805377 -0.0034984468)
(-0.0046352612 0.00085550852 -0.0023219417)
(-0.0014276685 0.0054527085 -0.00058097511)
(0.0012251332 0.002431089 -0.00070044556)
(0.0026808824 -0.0030801436 0.0021798572)
(0.003817425 -0.0020578141 0.003336124)
(0.0049524832 -0.0046342356 0.0036749054)
(0.0052241589 -0.0090309255 0.0034274781)
(0.002670843 -0.011648483 0.0017087167)
(-0.0020173129 -0.016928329 0.0014628871)
(-0.0026176423 -0.012662602 0.0017677956)
(-0.0010632552 -0.012244053 0.00064168533)
(0.0021255001 -0.011531112 0.00095153464)
(0.0030424089 -0.010916301 0.0010834775)
(0.0034871703 -0.012977374 0.00046577043)
(0.0010887285 -0.015187466 0.0022478254)
(-0.0013896162 -0.01771846 0.0031753854)
(-0.003766033 -0.015642457 0.0020877535)
(-0.0051349979 -0.01434741 0.0006042512)
(-0.0034182251 -0.01276558 0.00031364653)
(-0.0011684283 -0.012231887 0.0018708729)
(-0.001081367 -0.012263069 0.0014044645)
(0.0029181293 -0.01236329 -0.00045338432)
(0.00071186519 -0.016344088 0.00039989232)
(0.0012171803 -0.013277507 -0.00080924963)
(0.0032510249 -0.013713856 -0.00017369152)
(-0.00017728846 -0.017078605 0.0006589567)
(-0.0014055129 -0.016151894 -0.00049255348)
(-0.0027939157 -0.016313716 -0.0022214438)
(-0.0027946663 -0.017767334 -0.001973883)
(-0.0035842589 -0.018532435 0.00029214139)
(-0.0037796161 -0.017067804 -0.00012931346)
(-0.0039282424 -0.017292683 -0.0014184252)
(-0.0026259188 -0.016357245 -0.0019569221)
(-0.0016150073 -0.019387122 -0.0015630481)
(-0.0020436921 -0.018206768 9.4367289e-05)
(-0.00025507026 -0.011871114 -0.00014482199)
(0.0018302008 -0.011157083 -0.00036223194)
(0.0024674619 -0.01654596 -0.0013008632)
(-0.0047077618 0.01719659 0.0033248645)
(-0.0029938647 0.0062955216 0.0023924984)
(-0.0007387317 0.00015858961 0.0005337407)
(0.0027601476 -0.0016167503 -0.00035966514)
(0.0040377308 0.0018024883 -0.0013462851)
(0.0052548419 0.0091138472 -0.00061194272)
(0.0057714852 0.016522019 0.0015818447)
(0.0020360285 0.019255896 0.0020819451)
(-0.0068371703 0.01724177 -0.00082047344)
(-0.0069859858 0.011705673 -0.0018202512)
(-0.0032609794 0.00077177165 -0.0013029815)
(-0.0019283386 0.0012886141 0.0011202606)
(-0.0010462193 -0.0029489384 0.00068222201)
(0.00013129293 0.0034055345 -0.00082703968)
(0.0014582073 0.017359382 -0.00020725388)
(0.0018306633 0.0042363504 -0.0023809286)
(0.006238687 0.014233985 -0.0023375419)
(0.0036056008 0.018460779 -0.0025108818)
(-0.0016088483 0.017930394 -0.0028080983)
(-0.0017921133 0.017791696 -0.0031696432)
(-0.0016585779 0.019053999 -0.0026011295)
(-0.0011939725 0.020078993 0.0014170502)
(-0.0049095654 0.018616778 -0.0039754076)
(-0.0057487195 0.017150705 -0.005686789)
(-0.0033312925 0.01210683 -0.0047073417)
(-0.0018156462 0.0195458 -0.0040625838)
(-0.0042874745 0.017515745 -6.4549522e-06)
(9.4780163e-05 0.0017155549 0.0010925896)
(0.00035369795 0.00024497817 0.0017516873)
(0.003089453 0.017482006 0.0012212945)
(0.00048581033 -0.0043458853 0.0030517963)
(0.0013760885 -0.013297786 0.0017846282)
(-0.0003519926 -0.01294208 0.0010950672)
(0.00097538675 -0.014025501 -0.00085912784)
(0.0013676342 -0.013435332 -0.0015364316)
(-0.00013497313 -0.014937874 -0.0025931444)
(-0.00054522185 -0.0054275522 -0.003607431)
(0.0017939962 0.0066659801 0.00081511008)
(-0.0021132392 0.0031365098 -0.00044350147)
(0.0052725733 -0.014438405 -0.0011336717)
(-0.00031647781 -0.015230361 -0.0023927662)
(-0.0025392149 -0.013578157 -0.00019250352)
(-0.0013927498 -0.014834209 0.00011727595)
(-0.0033622198 -0.014069992 0.0021035574)
(0.0007380564 -0.01543428 -2.8254176e-05)
(-0.0008292155 -0.015479754 -0.0024737528)
(-0.0053552952 -0.013600012 -0.0028158288)
(-0.00037811604 -0.00037093177 -0.0031653043)
(-0.0012928498 0.0014373491 -0.0016812475)
(-0.00079971464 -0.0099681046 -0.0014056733)
(-0.00075612971 -0.0086427423 0.00079420509)
(0.00015337141 -0.011581476 -0.0030407416)
(-0.002868331 0.0009058246 -0.0023627822)
(0.00074444173 -0.014192645 0.0022392066)
(-0.0025935381 -0.017520689 0.00015323175)
(-0.0036368724 -0.012102849 -0.0021423475)
(0.00077756442 -0.011700425 -0.0023589479)
(0.0019948834 -0.013263849 0.0013025392)
(-0.0014771799 -0.014065446 0.0030466425)
(-0.00069598635 -0.015236798 0.0036486507)
(0.0012841404 0.0085409649 -0.0012306485)
(-0.00019012607 0.0075818985 -0.0016529423)
(0.00051940486 -0.002394855 -0.00096374289)
(0.00024621388 -0.0039360564 -0.001693625)
(0.00099208506 1.9992683e-05 9.6901114e-05)
(-0.00066410715 0.009444992 -0.0032716568)
(-0.003159437 0.0083200389 -0.0021731793)
(0.00090165839 0.0099191112 -0.00090629086)
(0.0020456675 0.0075201145 -1.7256261e-05)
(0.0054960518 0.0097715419 -8.7322597e-05)
(-0.00054616726 0.010534176 -0.0021970778)
(0.00075284628 -0.0020544011 0.0017140768)
(-0.00054386752 -0.0057012517 0.0013589325)
(-0.00055151944 -0.0030880701 0.0030648033)
(-0.00016328531 0.0098269891 0.00028608969)
(-0.001854569 0.0062508299 1.4855849e-05)
(-0.0025301866 0.009215734 -0.0015897676)
(-0.0018689076 0.0080011041 -0.002470003)
(0.00064544399 0.0090653079 -0.0013830614)
(0.0018703437 0.010022901 -0.00030873554)
(0.002216552 0.0058765726 0.0012862629)
(0.0017162739 0.012870737 -0.0017589368)
(-0.00039024968 0.0088597614 -0.0017156798)
(0.0046514803 0.013536987 0.0014545545)
(0.00015347575 0.014755507 0.001976282)
(-0.0023588957 0.010061241 -0.0059830636)
(-0.0010406038 0.0069634605 -0.0014570117)
(0.0013519514 -0.0010968042 0.0023105204)
(-0.0001877217 -0.0035437777 0.0015733981)
(0.0012813733 0.011451539 0.0032223694)
(0.0024414181 -0.0033517099 0.0020964197)
(0.0048605266 -0.0086818784 -0.00020088677)
(0.0044889972 -0.0097761962 -0.0017778062)
(0.00023178833 -0.009698934 -0.0020095356)
(-0.0046115446 -0.0069683943 0.00065188511)
(-0.0038981553 -0.0038200319 0.00028595126)
(-0.0031094955 -0.0019004361 -0.00017502392)
(-0.0001481375 0.0011615693 -0.00093335091)
(0.002046618 -0.0010293904 0.0013975082)
(0.0042676295 -0.0065351191 0.0023157071)
(0.0064275987 -0.0086532741 0.0028210453)
(0.0066552072 -0.0096548461 0.0027565076)
(0.0015379746 -0.0099918894 0.0029646279)
(-0.0050365077 -0.010039537 0.0047750363)
(-0.0040269849 -0.011852897 0.0050076665)
(-0.0036690369 -0.012406196 0.0039157659)
(-0.0038916663 -0.010351665 0.0031689805)
(-0.0023748196 -0.0023993257 0.001619242)
(-0.00023198493 -2.7513197e-05 0.0017824952)
(0.0032326562 -0.011128525 0.003687122)
(-0.0025582987 -0.010805445 -0.00090419153)
(-0.0014875197 -0.003864004 -0.0007197959)
(0.00031318816 -0.0029147931 0.00088767612)
(0.0012042811 -0.0069799408 0.0043193315)
(0.0024894168 -0.003645591 0.0048709026)
(0.0043837059 -0.0081042169 0.005223677)
(0.005142621 -0.0097188025 0.0060751772)
(0.0053043538 -0.010063837 0.0054214468)
(0.00010726362 -0.011226979 0.0015376431)
(-0.0031385509 -0.0098547264 -0.00025981314)
(-0.0014863258 -0.015711917 0.0030100553)
(-0.002629539 -0.013051127 0.0032065266)
(-0.00017192427 -0.01145784 0.0017696828)
(0.0029179622 -0.011617601 0.0032199195)
(0.0015536625 -0.013379591 0.0034017914)
(-0.00035738216 -0.015384988 0.0034204304)
(-0.0019122756 -0.016671741 0.0039699947)
(-0.0021684018 -0.01682455 0.0041763823)
(-0.003507438 -0.01483413 0.0028723784)
(-0.0038941328 -0.014898692 0.0019396053)
(-0.0010377264 -0.011336846 0.0020807268)
(0.0019611638 -0.01620313 0.0043006573)
(-0.0011903599 -0.015997524 0.0044802873)
(0.00068515995 -0.016618821 -0.00034713041)
(-0.0029492115 -0.013298596 -0.0015226623)
(-0.002255371 -0.010456389 -0.0022866564)
(-0.00078892602 -0.01486052 -0.0029619299)
(-0.0028526431 -0.016680202 -0.0026060651)
(-0.0049391294 -0.01514075 -0.0020949743)
(-0.00419367 -0.012308824 -0.0018537033)
(-0.0029473516 -0.012574948 -0.0023480079)
(-0.00088969611 -0.012912869 -0.0026226847)
(0.00074841501 -0.013962826 -0.0023790297)
(0.0023305366 -0.012907897 0.0011491284)
(0.0030469915 -0.014539062 0.0019585539)
(0.0022284764 -0.016890815 0.00076207982)
(-0.004780566 0.016737186 0.0034739829)
(-0.003328396 0.008859402 0.0019844068)
(-0.0018295705 -0.0022920319 -0.00027724048)
(0.0029980504 0.010066286 0.0019267174)
(0.0043415691 0.014950956 0.0032308015)
(0.0046302977 0.017327917 0.0028740836)
(0.0027919661 0.018679233 0.00035702781)
(-0.0001699569 0.018801744 -0.0021834338)
(-0.0045652177 0.017265836 -0.001862397)
(-0.005121874 0.012279129 -0.0013165455)
(-0.0021392076 -0.00030646223 -2.7315301e-05)
(0.0002949397 0.015708007 0.0059712154)
(-0.00084895859 0.015663878 0.0063345731)
(-0.00084721747 0.01813533 -0.0029548123)
(-0.0033777151 0.015554617 -0.0026563719)
(0.0015412693 0.0025632693 -0.00021730632)
(0.0025915328 0.0093751891 -0.00057537194)
(-0.00026331668 0.018562491 0.00018061033)
(-0.0070075414 0.015336531 -0.0024071316)
(-0.0033342543 0.0032087054 -0.0010796791)
(-0.0033478808 0.0035385955 -0.002146367)
(-3.8320876e-05 0.0015045647 -0.001844035)
(0.00034915058 0.0070698861 -0.0019809139)
(0.0029675388 0.0053079636 0.0024527266)
(0.0033944296 0.011166604 0.0044146204)
(0.004257434 0.018008411 0.0042012332)
(-0.0011231168 0.0010223603 0.0018522898)
(0.004648306 -0.013624857 -0.0023994727)
(-0.0034716626 -0.014651861 -0.0025528636)
(-0.0045788156 -0.012742463 -0.0039330126)
(-0.0018604251 -0.010752844 -0.0039669971)
(0.0028648095 -0.0051270156 -0.0031893285)
(0.0018643968 0.0028248137 -0.0020454867)
(0.001925911 0.0059946248 -0.0012894795)
(-0.00055934811 0.0026536514 -0.0023114326)
(0.0025541738 -0.015558214 -0.0033451438)
(-0.0027502338 -0.015052754 -0.0032340783)
(-0.0061117892 -0.016391804 -0.0025643998)
(-0.0019570821 -0.014449149 -0.0020255047)
(0.00082383575 -0.0048667018 -0.0025866735)
(0.004709402 -0.011373903 0.00068485333)
(0.0045466388 -0.01373107 0.0024389725)
(-0.001220713 -0.014106341 0.0045767663)
(-0.00091683177 0.0036166981 0.0018233626)
(0.00012305842 -0.011151697 -0.00019726001)
(0.00027721996 -0.016056128 -0.00083441688)
(-0.0017201272 -0.013960506 -0.0019434697)
(0.000763434 -0.014484058 0.00010585633)
(-0.0010304637 -0.013910785 0.0013890157)
(0.00078568032 -0.014022227 0.0012748487)
(-0.0035585305 -0.014628307 0.002285739)
(0.00021740479 -0.0031274502 0.0019306975)
(0.001785775 0.0074647128 0.0003378108)
(0.0031093049 0.011141335 -0.00089560779)
(-0.0023700032 0.0083282317 0.001655216)
(-0.0022283657 0.0049786751 -0.00094533695)
(-0.0017758308 0.0021562676 -0.0016030116)
(-0.00080695704 0.006862759 -0.0033443166)
(-0.00045068729 0.0080668643 -0.0017141076)
(0.002043467 0.0095599948 0.00098996715)
(0.0039313599 0.007199561 0.0012001381)
(0.0046493217 0.009816484 0.0011543193)
(0.0021981209 0.0045318148 0.00091054873)