/*--------------------------------*- C++ -*----------------------------------*\
| =========                 |                                                 |
| \\      /  F ield         | OpenFOAM: The Open Source CFD Toolbox           |
|  \\    /   O peration     | Version:  v2012                                 |
|   \\  /    A nd           | Website:  www.openfoam.com                      |
|    \\/     M anipulation  |                                                 |
\*---------------------------------------------------------------------------*/
FoamFile
{
    version     2.0;
    format      ascii;
    class       volScalarField;
    location    "110/rightSolid";
    object      T;
}
// * * * * * * * * * * * * * * * * * * * * * * * * * * * * * * * * * * * * * //

dimensions      [0 0 0 1 0 0 0];


internalField   nonuniform List<scalar> 
130
(
589.60247
592.97578
596.39697
599.68118
602.67183
605.30697
607.57231
609.48515
611.06517
612.29835
613.21371
613.8233
614.12711
586.45542
590.58374
594.66047
598.46177
601.84907
604.77463
607.24457
609.30144
610.96476
612.23044
613.17
613.79912
614.11521
580.02481
585.84105
591.31554
596.1963
600.37514
603.84781
606.68022
608.96548
610.76203
612.10877
613.07513
613.71935
614.04435
570.25294
579.34566
587.10739
593.53601
598.72855
602.84714
606.08906
608.62186
610.57239
612.00889
613.0139
613.65556
613.97166
558.46742
573.04398
583.59025
591.53882
597.55282
602.14795
605.67684
608.38495
610.43953
611.93415
612.96608
613.61342
613.9257
558.44456
573.0286
583.59636
591.54381
597.55581
602.15094
605.67959
608.38833
610.44393
611.94031
612.97541
613.62353
613.93575
570.20045
579.30436
587.08119
593.53017
598.72365
602.84456
606.08778
608.62213
610.57312
612.01333
613.02337
613.6651
613.97949
579.95801
585.7841
591.27087
596.17344
600.35691
603.83422
606.67241
608.96001
610.7563
612.10583
613.0745
613.7198
614.04615
586.3954
590.52717
594.6149
598.43918
601.83329
604.76021
607.23196
609.28814
610.94907
612.22026
613.16295
613.79447
614.11177
589.55095
592.92495
596.35843
599.65898
602.65775
605.30093
607.56705
609.47606
611.04972
612.2871
613.20594
613.81856
614.12268
)
;

boundaryField
{
    maxX
    {
        type            zeroGradient;
    }
    minZ
    {
        type            zeroGradient;
    }
    maxZ
    {
        type            zeroGradient;
    }
    rightSolid_to_bottomWater
    {
        type            compressible::turbulentTemperatureCoupledBaffleMixed;
        refValue        nonuniform List<scalar> 
130
(
1001.15
1002.107
1004.0703
1008.9302
1009.3103
1008.7027
1007.345
1006.7798
1010.5183
1011.3014
1013.0521
1014.8861
1015.389
999.80476
1004.6197
1007.8367
1010.1172
1010.1733
1009.8879
1008.6513
1011.0077
1015.9117
1011.847
1013.8456
1016.9047
1018.4882
995.93485
994.38209
997.00946
1002.5346
1008.0797
1010.0443
1010.2742
1012.7827
1015.4572
1013.9103
1011.2822
1013.9132
1016.0329
989.11809
989.49062
990.19123
1000.8587
1010.5439
1012.9353
1013.6866
1014.1809
1017.5524
1016.7897
1014.713
1012.9171
1012.4715
967.12765
973.47162
982.79079
1006.3643
1010.3733
1011.8135
1012.6291
1013.9054
1017.2185
1016.5372
1014.302
1012.1001
1010.1826
965.85366
972.02048
987.03949
1007.3867
1010.7721
1012.3037
1012.9275
1014.2997
1017.6696
1016.8365
1015.3678
1013.1137
1011.4496
988.6582
988.69253
988.90028
1002.8563
1010.551
1013.1952
1013.748
1014.4341
1017.3954
1016.9487
1015.7309
1013.6932
1012.877
995.08028
993.17473
994.63413
1002.8395
1006.9856
1009.0055
1010.1452
1012.9191
1015.1877
1014.012
1011.4143
1013.8638
1016.3819
998.09046
1002.2127
1005.1733
1010.9103
1010.1395
1008.7124
1007.6623
1010.1555
1014.373
1011.587
1013.5416
1016.7701
1018.4216
998.74117
999.48618
1002.6184
1008.7193
1008.555
1008.9834
1007.3981
1006.5976
1009.0214
1010.9289
1012.7988
1015.0453
1015.2855
)
;
        refGradient     uniform 0;
        valueFraction   nonuniform List<scalar> 
130
(
0.0075140686
0.0075140686
0.0075140686
0.0075140686
0.0075140686
0.0075140686
0.0075140686
0.0075140686
0.0075140686
0.0075140686
0.0075140686
0.0075140686
0.0075140686
0.0075140686
0.0075140686
0.0075140686
0.0075140686
0.0075140686
0.0075140686
0.0075140686
0.0075140686
0.0075140686
0.0075140686
0.0075140686
0.0075140686
0.0075140686
0.0075140686
0.0075140686
0.0075140686
0.0075140686
0.0075140686
0.0075140686
0.0075140686
0.0075140686
0.0075140686
0.0075140686
0.0075140686
0.0075140686
0.0075140686
0.0075140686
0.0075140686
0.0075140686
0.0075140686
0.0075140686
0.0075140686
0.0075140686
0.0075140686
0.0075140686
0.0075140686
0.0075140686
0.0075140686
0.0075140686
0.0075140686
0.0075140686
0.0075140686
0.0075140686
0.0075140686
0.0075140686
0.0075140686
0.0075140686
0.0075140686
0.0075140686
0.0075140686
0.0075140686
0.0075140686
0.0075140686
0.0075140686
0.0075140686
0.0075140686
0.0075140686
0.0075140686
0.0075140686
0.0075140686
0.0075140686
0.0075140686
0.0075140686
0.0075140686
0.0075140686
0.0075140686
0.0075140686
0.0075140686
0.0075140686
0.0075140686
0.0075140686
0.0075140686
0.0075140686
0.0075140686
0.0075140686
0.0075140686
0.0075140686
0.0075140686
0.0075140686
0.0075140686
0.0075140686
0.0075140686
0.0075140686
0.0075140686
0.0075140686
0.0075140686
0.0075140686
0.0075140686
0.0075140686
0.0075140686
0.0075140686
0.0075140686
0.0075140686
0.0075140686
0.0075140686
0.0075140686
0.0075140686
0.0075140686
0.0075140686
0.0075140686
0.0075140686
0.0075140686
0.0075140686
0.0075140686
0.0075140686
0.0075140686
0.0075140686
0.0075140686
0.0075140686
0.0075140686
0.0075140686
0.0075140686
0.0075140686
0.0075140686
0.0075140686
0.0075140686
0.0075140686
)
;
        value           nonuniform List<scalar> 
130
(
592.6706
596.02509
599.43463
602.72998
605.70036
608.31051
610.54808
612.44185
614.03774
615.26723
616.18863
616.80724
617.11245
589.53746
593.67022
597.73975
601.52889
604.89045
607.79122
610.23272
612.29138
613.97865
615.20398
616.15127
616.79848
617.124
583.12684
588.88685
594.33909
599.22388
603.41216
606.87278
609.68497
611.97137
613.77407
615.09874
616.03788
616.69689
617.0353
573.37825
582.40424
590.1118
596.57129
601.79664
605.90146
609.124
611.64093
613.60166
615.02129
616.0029
616.6261
616.93642
561.51738
576.03024
586.5658
594.63062
600.62856
605.19915
608.70696
611.40374
613.4673
614.94518
615.95228
616.57806
616.87356
561.4851
576.00406
586.60378
594.64325
600.63453
605.20581
608.71194
611.41006
613.47506
614.95356
615.96955
616.59572
616.89304
573.32269
582.35725
590.07611
596.58051
601.79184
605.90086
609.1232
611.64309
613.60121
615.0269
616.01994
616.64139
616.94721
583.05414
588.82128
594.27697
599.20354
603.38588
606.85153
609.67629
611.96699
613.76638
615.09658
616.03823
616.69695
617.03969
589.46513
593.5961
597.6746
601.51249
604.87457
607.76813
610.21284
612.27182
613.95154
615.19195
616.142
616.79285
617.12008
592.60153
595.95509
599.38557
602.70645
605.68077
608.30668
610.54332
612.43151
614.01121
615.2533
616.17904
616.80374
617.10729
)
;
        Tnbr            T;
        thicknessLayers List<scalar> 0();
        kappaLayers     List<scalar> 0();
        kappaMethod     solidThermo;
        kappa           none;
        alphaAni        none;
        alpha           none;
        field           T;
    }
    rightSolid_to_topAir
    {
        type            compressible::turbulentTemperatureCoupledBaffleMixed;
        refValue        nonuniform List<scalar> 
130
(
422.25854
421.00679
419.41532
417.75353
416.22606
414.9737
414.08205
413.60287
413.59396
414.18322
415.65531
418.51742
422.986
396.47592
394.30659
392.59094
391.31243
390.43509
389.93681
389.79535
390.0031
390.62852
391.9513
394.63408
399.72614
405.46403
402.53044
398.13387
393.78966
390.15133
387.46347
385.65151
384.51105
383.88569
383.78358
384.4479
386.6362
392.25265
401.72933
425.42193
426.43812
426.15132
424.56693
422.17243
419.6549
417.33463
415.31453
413.76016
413.13143
414.85102
420.91352
428.74912
425.23498
428.86434
432.62179
435.64549
436.98475
437.53841
438.02467
438.80424
440.44784
443.8784
447.53365
451.71851
457.30237
425.2296
428.85668
432.60247
435.42908
436.5834
436.89827
437.03864
437.35349
438.3723
441.02177
444.84677
449.18974
454.89456
425.3738
426.36741
426.03992
424.38174
421.83891
419.12184
416.54856
414.25415
412.42066
411.50868
412.89299
419.05792
426.86841
402.4915
398.08971
393.74437
390.10426
387.40693
385.58092
384.42852
383.80405
383.72201
384.42747
386.6573
392.28102
401.61823
396.48002
394.32233
392.61804
391.34627
390.46713
389.95662
389.79498
389.98281
390.59911
391.93302
394.64619
399.7383
405.4632
422.25602
421.00396
419.41407
417.75406
416.22592
414.96831
414.06617
413.57351
413.55258
414.13638
415.61142
418.475
422.9408
)
;
        refGradient     uniform 0;
        valueFraction   nonuniform List<scalar> 
130
(
0.00032132529
0.00032132529
0.00032132529
0.00032132529
0.00032132529
0.00032132529
0.00032132529
0.00032132529
0.00032132529
0.00032132529
0.00032132529
0.00032132529
0.00032132529
0.00032132529
0.00032132529
0.00032132529
0.00032132529
0.00032132529
0.00032132529
0.00032132529
0.00032132529
0.00032132529
0.00032132529
0.00032132529
0.00032132529
0.00032132529
0.00032132529
0.00032132529
0.00032132529
0.00032132529
0.00032132529
0.00032132529
0.00032132529
0.00032132529
0.00032132529
0.00032132529
0.00032132529
0.00032132529
0.00032132529
0.00032132529
0.00032132529
0.00032132529
0.00032132529
0.00032132529
0.00032132529
0.00032132529
0.00032132529
0.00032132529
0.00032132529
0.00032132529
0.00032132529
0.00032132529
0.00032132529
0.00032132529
0.00032132529
0.00032132529
0.00032132529
0.00032132529
0.00032132529
0.00032132529
0.00032132529
0.00032132529
0.00032132529
0.00032132529
0.00032132529
0.00032132529
0.00032132529
0.00032132529
0.00032132529
0.00032132529
0.00032132529
0.00032132529
0.00032132529
0.00032132529
0.00032132529
0.00032132529
0.00032132529
0.00032132529
0.00032132529
0.00032132529
0.00032132529
0.00032132529
0.00032132529
0.00032132529
0.00032132529
0.00032132529
0.00032132529
0.00032132529
0.00032132529
0.00032132529
0.00032132529
0.00032132529
0.00032132529
0.00032132529
0.00032132529
0.00032132529
0.00032132529
0.00032132529
0.00032132529
0.00032132529
0.00032132529
0.00032132529
0.00032132529
0.00032132529
0.00032132529
0.00032132529
0.00032132529
0.00032132529
0.00032132529
0.00032132529
0.00032132529
0.00032132529
0.00032132529
0.00032132529
0.00032132529
0.00032132529
0.00032132529
0.00032132529
0.00032132529
0.00032132529
0.00032132529
0.00032132529
0.00032132529
0.00032132529
0.00032132529
0.00032132529
0.00032132529
0.00032132529
0.00032132529
0.00032132529
)
;
        value           nonuniform List<scalar> 
130
(
589.52426
592.89541
596.31429
599.59621
602.58474
605.218
607.48179
609.39341
610.97256
612.20523
613.12052
613.73065
614.03571
586.37031
590.49588
594.57
598.36893
601.75414
604.67793
607.14645
609.20226
610.86484
612.13024
613.07014
613.70051
614.01826
579.94447
585.75656
591.22703
596.10424
600.28004
603.75029
606.58075
608.86453
610.66002
612.00622
612.97275
613.61843
613.9463
570.18417
579.27308
587.0311
593.45616
598.64531
602.76097
606.00044
608.53121
610.48014
611.91562
612.92062
613.56388
613.88234
558.40372
572.9749
583.5175
591.46332
597.47481
602.06781
605.59502
608.30193
610.3559
611.85075
612.88324
613.53156
613.84552
558.38084
572.95952
583.52359
591.46823
597.47768
602.07059
605.59747
608.30485
610.35964
611.85601
612.89171
613.54087
613.85477
570.13167
579.23177
587.00489
593.45027
598.64032
602.75823
605.99891
608.53113
610.48044
611.91955
612.92945
613.5728
613.88953
579.87769
585.69963
591.18242
596.08142
600.26183
603.73672
606.57295
608.85906
610.65429
612.00326
612.97211
613.61888
613.94804
586.31043
590.43945
594.52454
598.34643
601.73842
604.66358
607.13391
609.189
610.84917
612.12008
613.0631
613.69587
614.01481
589.47291
592.84474
596.27586
599.5741
602.57073
605.21202
607.47658
609.38436
610.95715
612.194
613.11276
613.72591
614.03127
)
;
        Tnbr            T;
        thicknessLayers List<scalar> 0();
        kappaLayers     List<scalar> 0();
        kappaMethod     solidThermo;
        kappa           none;
        alphaAni        none;
        alpha           none;
        field           T;
    }
    rightSolid_to_heater
    {
        type            compressible::turbulentTemperatureCoupledBaffleMixed;
        refValue        nonuniform List<scalar> 10(586.50059 582.60319 574.38198 560.56096 537.10163 537.07889 560.4971 574.30207 582.54128 586.45622);
        refGradient     uniform 0;
        valueFraction   nonuniform List<scalar> 10(0.50000003 0.50000003 0.50000003 0.50000003 0.50000003 0.50000003 0.50000003 0.50000003 0.50000003 0.50000003);
        value           nonuniform List<scalar> 10(588.03931 584.51726 577.19174 565.39583 547.77408 547.75127 565.33765 577.11839 584.45636 587.99144);
        Tnbr            T;
        thicknessLayers List<scalar> 0();
        kappaLayers     List<scalar> 0();
        kappaMethod     solidThermo;
        kappa           none;
        alphaAni        none;
        alpha           none;
        field           T;
    }
}


// ************************************************************************* //
