/*--------------------------------*- C++ -*----------------------------------*\
| =========                 |                                                 |
| \\      /  F ield         | OpenFOAM: The Open Source CFD Toolbox           |
|  \\    /   O peration     | Version:  v2012                                 |
|   \\  /    A nd           | Website:  www.openfoam.com                      |
|    \\/     M anipulation  |                                                 |
\*---------------------------------------------------------------------------*/
FoamFile
{
    version     2.0;
    format      ascii;
    class       volScalarField;
    location    "500/heater";
    object      T;
}
// * * * * * * * * * * * * * * * * * * * * * * * * * * * * * * * * * * * * * //

dimensions      [0 0 0 1 0 0 0];


internalField   nonuniform List<scalar> 
80
(
734.28157
736.39798
740.50389
746.32259
724.84389
727.32504
732.1723
739.08736
705.00857
708.19485
714.59628
724.03002
672.84819
676.84724
685.44505
699.31406
345.68364
342.95291
342.97879
345.67107
422.71187
419.34127
419.53766
423.06374
488.61487
485.75449
486.42557
490.10454
544.64623
542.86244
544.72706
549.15939
590.92846
591.06718
595.6562
603.19628
626.08741
629.70333
639.18976
658.34166
345.68463
342.98657
343.02646
345.7253
422.72661
419.40608
419.62573
423.16179
488.63258
485.83101
486.53482
490.23629
544.68184
542.95682
544.85408
549.30785
591.00617
591.17572
595.77831
603.32866
626.20474
629.82828
639.32147
658.478
673.32906
677.32203
685.91346
699.76884
705.63367
708.82348
715.23164
724.66341
725.49677
727.96301
732.79758
739.71588
734.8661
736.97772
741.07893
746.89142
)
;

boundaryField
{
    minY
    {
        type            fixedValue;
        value           uniform 300;
    }
    minZ
    {
        type            zeroGradient;
    }
    maxZ
    {
        type            zeroGradient;
    }
    heater_to_topAir
    {
        type            compressible::turbulentTemperatureCoupledBaffleMixed;
        refValue        nonuniform List<scalar> 
40
(
513.93214
511.62697
506.87704
500.3557
479.14674
468.52103
456.76459
446.01322
490.00193
479.70851
467.82451
456.27762
504.20378
499.93249
497.4615
497.00867
500.96724
497.43589
497.09771
499.41916
500.41576
498.93815
500.53404
502.85006
502.81423
500.07286
499.69952
501.17034
488.59195
478.55611
467.77807
457.58225
478.48854
467.44915
455.58197
445.0987
513.9555
511.5405
506.72904
500.25902
)
;
        refGradient     uniform 0;
        valueFraction   nonuniform List<scalar> 
40
(
0.00032132529
0.00032132529
0.00032132529
0.00032132529
0.00032132529
0.00032132529
0.00032132529
0.00032132529
0.00032132529
0.00032132529
0.00032132529
0.00032132529
0.00032132529
0.00032132529
0.00032132529
0.00032132529
0.00032132529
0.00032132529
0.00032132529
0.00032132529
0.00032132529
0.00032132529
0.00032132529
0.00032132529
0.00032132529
0.00032132529
0.00032132529
0.00032132529
0.00032132529
0.00032132529
0.00032132529
0.00032132529
0.00032132529
0.00032132529
0.00032132529
0.00032132529
0.00032132529
0.00032132529
0.00032132529
0.00032132529
)
;
        value           nonuniform List<scalar> 
40
(
734.21077
736.32575
740.42882
746.24355
724.76494
727.24188
732.08381
738.99319
704.93949
708.12143
714.51698
723.94398
672.794
676.79039
685.38465
699.24906
626.04721
629.66083
639.1441
658.2906
626.16432
629.78622
639.27688
658.42799
673.27427
677.26508
685.85362
699.70503
705.56393
708.74949
715.15212
724.57759
725.4174
727.8793
732.70851
739.62121
734.79511
736.90528
741.00362
746.81217
)
;
        Tnbr            T;
        thicknessLayers List<scalar> 0();
        kappaLayers     List<scalar> 0();
        kappaMethod     solidThermo;
        kappa           none;
        alphaAni        none;
        alpha           none;
        field           T;
    }
    heater_to_rightSolid
    {
        type            compressible::turbulentTemperatureCoupledBaffleMixed;
        refValue        nonuniform List<scalar> 10(753.43893 747.54693 735.76189 718.2149 697.57197 697.71256 718.63507 736.37945 748.20857 754.05721);
        refGradient     uniform 0;
        valueFraction   nonuniform List<scalar> 10(0.49999997 0.49999997 0.49999997 0.49999997 0.49999997 0.49999997 0.49999997 0.49999997 0.49999997 0.49999997);
        value           nonuniform List<scalar> 10(749.88076 743.31715 729.89595 708.76448 677.95681 678.09528 709.20196 730.52143 743.96222 750.47431);
        Tnbr            T;
        thicknessLayers List<scalar> 0();
        kappaLayers     List<scalar> 0();
        kappaMethod     solidThermo;
        kappa           none;
        alphaAni        none;
        alpha           none;
        field           T;
    }
    heater_to_leftSolid
    {
        type            compressible::turbulentTemperatureCoupledBaffleMixed;
        refValue        nonuniform List<scalar> 10(904.59825 904.63512 904.69726 904.71292 904.80777 904.78175 904.81171 905.03855 905.29663 905.43931);
        refGradient     uniform 0;
        valueFraction   nonuniform List<scalar> 10(2.0832898e-05 2.0832898e-05 2.0832898e-05 2.0832898e-05 2.0832898e-05 2.0832898e-05 2.0832898e-05 2.0832898e-05 2.0832898e-05 2.0832898e-05);
        value           nonuniform List<scalar> 10(734.28512 724.84763 705.01273 672.85302 626.09322 626.21054 673.33388 705.63782 725.50052 734.86965);
        Tnbr            T;
        thicknessLayers List<scalar> 1(0.001);
        kappaLayers     List<scalar> 1(0.0005);
        kappaMethod     solidThermo;
        kappa           none;
        alphaAni        none;
        alpha           none;
        field           T;
    }
    heater_to_bottomWater
    {
        type            compressible::turbulentTemperatureCoupledBaffleMixed;
        refValue        nonuniform List<scalar> 
92
(
939.17446
938.04319
937.21574
936.5781
936.43132
936.08373
935.80461
933.47142
928.70176
925.9263
923.69548
922.66577
925.03967
918.95178
917.58569
916.514
919.2887
918.99998
918.80934
918.72182
919.6153
920.55903
921.34221
920.3371
916.74287
915.67261
917.07579
919.24398
913.1876
913.1876
912.2978
912.2978
913.44872
913.44872
915.27448
915.27448
932.88774
912.02186
939.94293
908.55372
942.96013
904.41761
947.18751
904.55366
950.39912
909.60274
927.1556
928.48041
927.99805
928.80719
913.76931
926.22322
932.69569
930.64527
932.71959
933.86372
912.41066
928.05732
934.56954
932.01123
933.63842
936.73185
912.26606
930.227
939.50186
932.08039
934.72373
938.9197
912.90041
932.26522
944.87088
936.19435
933.21716
931.97394
911.57076
931.82567
936.19435
933.21716
931.97394
931.82567
947.38815
945.76953
945.25446
944.2033
954.81934
952.72265
949.92859
945.59971
948.31085
948.69975
949.29219
941.49216
)
;
        refGradient     uniform 0;
        valueFraction   nonuniform List<scalar> 
92
(
0.0075140686
0.0075140686
0.0075140686
0.0075140686
0.0075140686
0.0075140686
0.0075140686
0.0075140686
0.0075140686
0.0075140686
0.0075140686
0.0075140686
0.0075140686
0.0075140686
0.0075140686
0.0075140686
0.0075140686
0.0075140686
0.0075140686
0.0075140686
0.0075140686
0.0075140686
0.0075140686
0.0075140686
0.0075140686
0.0075140686
0.0075140686
0.0075140686
0.0075140686
0.0075140686
0.0075140686
0.0075140686
0.0075140686
0.0075140686
0.0075140686
0.0075140686
0.0075140679
0.0075140679
0.0075140679
0.0075140679
0.0075140679
0.0075140679
0.0075140679
0.0075140679
0.0075140679
0.0075140679
0.0075140679
0.0075140686
0.0075140686
0.0075140686
0.0075140679
0.0075140686
0.0075140679
0.0075140686
0.0075140686
0.0075140686
0.0075140679
0.0075140686
0.0075140679
0.0075140686
0.0075140686
0.0075140686
0.0075140679
0.0075140686
0.0075140679
0.0075140686
0.0075140686
0.0075140686
0.0075140679
0.0075140686
0.0075140679
0.0075140686
0.0075140686
0.0075140686
0.0075140679
0.0075140686
0.0075140686
0.0075140686
0.0075140686
0.0075140686
0.0075140686
0.0075140686
0.0075140686
0.0075140686
0.0075140686
0.0075140686
0.0075140686
0.0075140686
0.0075140686
0.0075140686
0.0075140686
0.0075140686
)
;
        value           nonuniform List<scalar> 
92
(
735.82115
737.91315
741.98199
747.75218
726.43377
728.89366
733.70241
740.54798
706.68942
709.8309
716.16746
725.52258
350.03697
347.28101
347.29643
349.96043
426.44319
423.09574
423.28922
426.78815
491.85344
489.02164
489.69356
493.33733
547.44219
545.66376
547.52492
551.94023
674.65412
593.34993
678.61643
593.48092
687.15829
598.04412
700.93681
605.54126
350.09594
349.92667
426.59838
426.71174
492.02885
493.21771
547.67095
551.82984
593.62954
605.49864
350.05384
350.0638
347.38238
347.42805
349.99362
350.0872
426.55855
426.54314
423.26316
423.48975
426.83804
426.95561
491.98338
491.96416
489.19587
489.91763
493.40745
493.54241
547.64854
547.59278
545.90058
547.81511
552.03991
552.18541
593.66513
593.59994
593.74585
598.30451
605.64481
605.797
675.30425
679.24485
687.76237
701.51253
707.45023
710.60391
716.96004
726.31305
727.21992
729.65187
734.42912
741.2629
736.46994
738.56861
742.64346
748.35366
)
;
        Tnbr            T;
        thicknessLayers List<scalar> 0();
        kappaLayers     List<scalar> 0();
        kappaMethod     solidThermo;
        kappa           none;
        alphaAni        none;
        alpha           none;
        field           T;
    }
}


// ************************************************************************* //
