/*--------------------------------*- C++ -*----------------------------------*\
| =========                 |                                                 |
| \\      /  F ield         | OpenFOAM: The Open Source CFD Toolbox           |
|  \\    /   O peration     | Version:  v2012                                 |
|   \\  /    A nd           | Website:  www.openfoam.com                      |
|    \\/     M anipulation  |                                                 |
\*---------------------------------------------------------------------------*/
FoamFile
{
    version     2.0;
    format      ascii;
    class       volScalarField;
    location    "600/heater";
    object      T;
}
// * * * * * * * * * * * * * * * * * * * * * * * * * * * * * * * * * * * * * //

dimensions      [0 0 0 1 0 0 0];


internalField   nonuniform List<scalar> 
80
(
733.64591
735.73484
739.85246
745.73256
724.23986
726.70611
731.55947
738.52873
704.54203
707.7314
714.13832
723.58722
672.48679
676.49785
685.09349
698.95813
345.5823
342.8824
342.89811
345.52318
422.33466
419.06034
419.25416
422.7105
488.09759
485.32529
486.00989
489.65712
544.08028
542.37193
544.26744
548.72663
590.34282
590.55374
595.17929
602.74917
625.5454
629.18958
638.70314
657.88438
345.48101
342.80907
342.84372
345.50963
422.2974
418.98995
419.20245
422.72903
488.0621
485.26749
485.97116
489.69761
544.01437
542.3156
544.22784
548.73937
590.29852
590.51746
595.16018
602.77551
625.54436
629.19521
638.72663
657.9383
672.50905
676.53177
685.17549
699.11931
704.6329
707.86418
714.34769
723.87886
724.40798
726.94165
731.87634
738.89759
733.82174
735.98928
740.17944
746.09605
)
;

boundaryField
{
    minY
    {
        type            fixedValue;
        value           uniform 300;
    }
    minZ
    {
        type            zeroGradient;
    }
    maxZ
    {
        type            zeroGradient;
    }
    heater_to_topAir
    {
        type            compressible::turbulentTemperatureCoupledBaffleMixed;
        refValue        nonuniform List<scalar> 
40
(
517.71638
514.84641
509.53635
502.53628
481.39131
469.76932
457.30471
446.21053
492.07712
481.31811
469.74089
458.80102
506.74935
503.0118
501.57335
502.04349
504.08926
501.52304
502.16733
504.46155
503.74919
501.80434
502.94616
505.06021
505.66336
502.08611
500.91646
501.5071
491.17813
480.18072
468.62387
457.89892
480.90123
469.03765
456.47821
445.4806
517.69823
514.73723
509.32717
502.25652
)
;
        refGradient     uniform 0;
        valueFraction   nonuniform List<scalar> 
40
(
0.00032132529
0.00032132529
0.00032132529
0.00032132529
0.00032132529
0.00032132529
0.00032132529
0.00032132529
0.00032132529
0.00032132529
0.00032132529
0.00032132529
0.00032132529
0.00032132529
0.00032132529
0.00032132529
0.00032132529
0.00032132529
0.00032132529
0.00032132529
0.00032132529
0.00032132529
0.00032132529
0.00032132529
0.00032132529
0.00032132529
0.00032132529
0.00032132529
0.00032132529
0.00032132529
0.00032132529
0.00032132529
0.00032132529
0.00032132529
0.00032132529
0.00032132529
0.00032132529
0.00032132529
0.00032132529
0.00032132529
)
;
        value           nonuniform List<scalar> 
40
(
733.57653
735.66386
739.77845
745.65442
724.16182
726.62354
731.47134
738.4348
704.47376
707.65865
714.05979
723.50214
672.43353
676.4421
685.03452
698.89485
625.50637
629.14856
638.65927
657.83508
625.50522
629.15427
638.683
657.88917
672.45543
676.47572
685.11629
699.05581
704.56431
707.79102
714.26873
723.79339
724.32974
726.85877
731.78785
738.8033
733.7523
735.91819
740.10526
746.0177
)
;
        Tnbr            T;
        thicknessLayers List<scalar> 0();
        kappaLayers     List<scalar> 0();
        kappaMethod     solidThermo;
        kappa           none;
        alphaAni        none;
        alpha           none;
        field           T;
    }
    heater_to_rightSolid
    {
        type            compressible::turbulentTemperatureCoupledBaffleMixed;
        refValue        nonuniform List<scalar> 10(752.9454 747.08045 735.35215 717.85151 697.15392 697.24911 718.06858 735.66735 747.44587 753.3018);
        refGradient     uniform 0;
        valueFraction   nonuniform List<scalar> 10(0.49999997 0.49999997 0.49999997 0.49999997 0.49999997 0.49999997 0.49999997 0.49999997 0.49999997 0.49999997);
        value           nonuniform List<scalar> 10(749.33898 742.80459 729.46968 708.40482 677.51915 677.5937 708.59394 729.7731 743.17173 749.69893);
        Tnbr            T;
        thicknessLayers List<scalar> 0();
        kappaLayers     List<scalar> 0();
        kappaMethod     solidThermo;
        kappa           none;
        alphaAni        none;
        alpha           none;
        field           T;
    }
    heater_to_leftSolid
    {
        type            compressible::turbulentTemperatureCoupledBaffleMixed;
        refValue        nonuniform List<scalar> 10(917.98541 917.9088 917.87892 917.84726 917.78222 917.55811 917.2257 917.06006 916.99865 917.00315);
        refGradient     uniform 0;
        valueFraction   nonuniform List<scalar> 10(2.0832898e-05 2.0832898e-05 2.0832898e-05 2.0832898e-05 2.0832898e-05 2.0832898e-05 2.0832898e-05 2.0832898e-05 2.0832898e-05 2.0832898e-05);
        value           nonuniform List<scalar> 10(733.64975 724.24389 704.54648 672.4919 625.55149 625.55044 672.51414 704.63733 724.412 733.82556);
        Tnbr            T;
        thicknessLayers List<scalar> 1(0.001);
        kappaLayers     List<scalar> 1(0.0005);
        kappaMethod     solidThermo;
        kappa           none;
        alphaAni        none;
        alpha           none;
        field           T;
    }
    heater_to_bottomWater
    {
        type            compressible::turbulentTemperatureCoupledBaffleMixed;
        refValue        nonuniform List<scalar> 
92
(
928.83204
925.06182
925.32671
926.66027
928.95896
926.46848
924.73537
924.31746
931.42101
928.73444
926.94278
924.12056
938.0117
936.12573
935.3948
931.7207
937.09746
934.50502
930.90996
925.12022
935.41416
932.90009
930.18221
924.92663
933.05426
931.75307
929.78042
928.02538
926.56928
926.56928
928.0557
928.0557
926.3468
926.3468
925.31728
925.31728
931.2848
899.55623
920.33827
901.69834
930.19238
904.15249
939.40858
912.28595
943.71396
912.06319
922.2721
912.43763
914.13927
915.06923
906.99895
916.61662
932.27227
917.08865
918.11063
917.4008
911.51461
920.85494
935.24776
919.90639
919.83424
918.2354
915.26146
922.41595
935.29462
921.8588
920.53225
917.06298
917.03226
922.78737
939.58769
921.91066
919.30293
917.33944
917.8781
923.46064
921.91066
919.30293
917.33944
923.46064
923.32784
921.72842
922.23724
926.97663
925.63893
927.67333
928.72503
929.34328
927.71485
928.67269
929.40458
929.61095
)
;
        refGradient     uniform 0;
        valueFraction   nonuniform List<scalar> 
92
(
0.0075140686
0.0075140686
0.0075140686
0.0075140686
0.0075140686
0.0075140686
0.0075140686
0.0075140686
0.0075140686
0.0075140686
0.0075140686
0.0075140686
0.0075140686
0.0075140686
0.0075140686
0.0075140686
0.0075140686
0.0075140686
0.0075140686
0.0075140686
0.0075140686
0.0075140686
0.0075140686
0.0075140686
0.0075140686
0.0075140686
0.0075140686
0.0075140686
0.0075140686
0.0075140686
0.0075140686
0.0075140686
0.0075140686
0.0075140686
0.0075140686
0.0075140686
0.0075140679
0.0075140679
0.0075140679
0.0075140679
0.0075140679
0.0075140679
0.0075140679
0.0075140679
0.0075140679
0.0075140679
0.0075140679
0.0075140686
0.0075140686
0.0075140686
0.0075140679
0.0075140686
0.0075140679
0.0075140686
0.0075140686
0.0075140686
0.0075140679
0.0075140686
0.0075140679
0.0075140686
0.0075140686
0.0075140686
0.0075140679
0.0075140686
0.0075140679
0.0075140686
0.0075140686
0.0075140686
0.0075140679
0.0075140686
0.0075140679
0.0075140686
0.0075140686
0.0075140686
0.0075140679
0.0075140686
0.0075140686
0.0075140686
0.0075140686
0.0075140686
0.0075140686
0.0075140686
0.0075140686
0.0075140686
0.0075140686
0.0075140686
0.0075140686
0.0075140686
0.0075140686
0.0075140686
0.0075140686
0.0075140686
)
;
        value           nonuniform List<scalar> 
92
(
735.11255
737.15745
741.24612
747.09206
725.77813
728.20713
733.011
739.92476
706.24682
709.39203
715.73735
725.09404
350.03386
347.34007
347.35017
349.92791
426.20262
422.93342
423.09878
426.48564
491.45876
488.6884
489.34743
492.92776
547.00306
545.29777
547.16421
551.57671
674.39598
592.86925
678.38807
593.08975
686.90629
597.6677
700.659
605.17297
349.98331
349.68622
426.07669
426.30965
491.41952
492.77167
547.05081
551.45844
592.99807
605.07338
349.81506
349.74116
347.10208
347.14346
349.7287
349.80097
426.12939
426.0153
422.74038
422.94594
426.4018
426.47199
491.42228
491.30701
488.53285
489.21922
492.89532
492.94908
546.95448
546.85352
545.15755
547.02935
551.50675
551.54999
592.92311
592.79028
592.98797
597.58105
605.14321
605.18516
674.38307
678.35597
686.91999
700.80503
706.27619
709.47117
715.90979
725.40495
725.92005
728.44996
733.35548
740.32861
735.27867
737.43712
741.60129
747.47499
)
;
        Tnbr            T;
        thicknessLayers List<scalar> 0();
        kappaLayers     List<scalar> 0();
        kappaMethod     solidThermo;
        kappa           none;
        alphaAni        none;
        alpha           none;
        field           T;
    }
}


// ************************************************************************* //
