/*--------------------------------*- C++ -*----------------------------------*\
| =========                 |                                                 |
| \\      /  F ield         | OpenFOAM: The Open Source CFD Toolbox           |
|  \\    /   O peration     | Version:  v2012                                 |
|   \\  /    A nd           | Website:  www.openfoam.com                      |
|    \\/     M anipulation  |                                                 |
\*---------------------------------------------------------------------------*/
FoamFile
{
    version     2.0;
    format      ascii;
    class       volScalarField;
    location    "43";
    object      p;
}
// * * * * * * * * * * * * * * * * * * * * * * * * * * * * * * * * * * * * * //

dimensions      [0 2 -2 0 0 0 0];


internalField   nonuniform List<scalar> 
64000
(
-4.58609e-22
-4.64981e-21
-3.51665e-21
-5.81696e-21
-9.05752e-21
-3.49366e-21
-5.25027e-21
-4.99426e-21
-5.68272e-21
-6.10912e-21
-4.32303e-21
-7.52406e-21
-5.38501e-21
-7.50428e-21
-4.98466e-21
-6.17211e-21
-1.8498e-21
-1.52681e-21
-2.08598e-21
-2.91436e-21
-2.00708e-21
-2.82663e-21
-3.35569e-21
-3.73367e-21
-2.76956e-21
-1.43425e-21
1.00902e-21
-5.55738e-21
-2.74012e-21
-1.72465e-21
-1.57184e-21
-1.3369e-21
-2.03815e-21
-1.46483e-21
-1.7252e-21
-5.25368e-21
-1.18091e-22
-4.03545e-22
-1.04851e-21
-5.93748e-22
-7.18298e-21
-1.08992e-20
-1.16092e-20
-1.00265e-20
-1.17318e-20
-1.1796e-20
-9.02764e-21
-7.13756e-21
-4.61956e-21
-1.10936e-20
-1.2359e-20
-1.21029e-20
-6.74998e-21
-6.88155e-21
-8.17763e-21
-7.49427e-21
-4.87318e-21
6.89259e-22
-1.47169e-21
-6.68793e-21
6.64218e-23
-3.61987e-21
-6.8348e-21
-1.02778e-20
-5.42884e-21
-3.14811e-21
-3.23799e-21
-6.30488e-21
-3.12835e-21
-1.87611e-21
5.45341e-22
-1.07302e-21
-5.52073e-21
-3.66195e-21
-9.74407e-22
-1.57904e-21
-3.59812e-22
5.77806e-23
-2.14922e-21
-2.36701e-21
-6.696e-21
-9.02172e-21
-1.38662e-20
-1.20228e-20
-1.0327e-20
-1.17045e-20
-1.1613e-20
-8.6006e-21
-8.46269e-21
-1.06061e-20
-9.42157e-21
-1.10761e-20
-9.32389e-21
-7.20071e-21
-5.9447e-21
-3.25686e-21
-1.02916e-20
-4.83709e-21
-1.44729e-21
-1.28549e-21
-3.62287e-21
-7.40407e-21
-7.4588e-21
-7.57782e-21
-4.26274e-21
-4.63032e-21
-4.04427e-21
-5.92799e-21
-4.05186e-21
-4.17541e-21
-1.73321e-21
-1.63942e-21
-3.40874e-21
-1.79666e-21
-1.91646e-21
-1.69497e-21
-1.15526e-22
1.26697e-21
-6.31742e-22
-1.25705e-22
-9.28053e-21
-9.99982e-21
-1.16581e-20
-1.50913e-20
-1.27977e-20
-1.62082e-20
-1.61499e-20
-7.65469e-21
-9.21852e-21
-1.15601e-20
-1.0341e-20
-1.12934e-20
-1.02202e-20
-7.57609e-21
-7.63812e-21
-6.48332e-21
-6.2934e-21
-6.73996e-21
-6.55386e-22
-8.66361e-22
-5.11794e-21
-6.38391e-21
-1.07961e-20
-8.42835e-21
-8.83546e-21
-1.10844e-21
-4.30914e-21
-3.85459e-21
-4.75129e-21
-5.41925e-21
-1.46767e-21
-1.44595e-21
-2.61321e-21
-2.35424e-21
-2.5641e-21
-1.59775e-21
-1.64475e-21
9.14192e-22
-1.61126e-21
-2.5717e-22
-1.65656e-20
-1.14449e-20
-1.08357e-20
-1.38575e-20
-1.33839e-20
-1.67702e-20
-1.38936e-20
-9.41654e-21
-7.51383e-21
-1.37825e-20
-1.38371e-20
-7.91059e-21
-8.71117e-21
-7.26121e-21
-1.12731e-20
-1.33904e-20
-6.18604e-21
-2.77216e-21
-5.66589e-21
-1.16662e-21
-3.85819e-21
-6.72288e-21
-9.66486e-21
-9.29231e-21
-5.89266e-21
-2.59202e-21
-3.54392e-21
-4.90193e-21
-7.37851e-21
-2.56233e-21
-1.34473e-21
6.53974e-22
-1.01426e-21
-1.98762e-21
-5.36107e-21
-2.84629e-21
-5.97279e-22
2.46224e-22
7.72025e-22
-1.56821e-21
-1.43911e-20
-1.10469e-20
-9.44666e-21
-1.46795e-20
-1.43547e-20
-1.41289e-20
-1.10366e-20
-1.42487e-20
-1.31374e-20
-1.30359e-20
-1.17235e-20
-8.95724e-21
-1.04121e-20
-7.66727e-21
-9.88074e-21
-1.18263e-20
-5.58196e-21
-3.81291e-21
-2.94734e-21
-4.26756e-21
-3.03003e-21
-6.25372e-21
-1.08245e-20
-9.76545e-21
-9.18005e-21
-1.06188e-21
-3.24485e-21
-2.75974e-21
-5.80564e-21
-3.59808e-21
-3.90647e-21
-2.91048e-21
-1.17336e-21
-1.21565e-21
-3.42282e-21
-9.76817e-22
-1.01315e-21
-3.44831e-22
1.44671e-23
2.5452e-22
-1.5029e-20
-1.49277e-20
-9.28904e-21
-1.26263e-20
-1.43321e-20
-1.4751e-20
-1.16646e-20
-1.3325e-20
-1.45292e-20
-1.27001e-20
-1.18794e-20
-1.1555e-20
-9.65157e-21
-9.03241e-21
-8.58972e-21
-1.04756e-20
-6.55624e-21
-1.24817e-21
-2.79512e-21
-4.86294e-21
-5.73402e-21
-1.03773e-20
-1.13812e-20
-1.14699e-20
-4.95399e-21
-4.81818e-21
-4.38946e-21
-1.1156e-21
-3.69181e-21
-2.32597e-21
-5.84917e-21
-5.24239e-21
2.26456e-21
-9.87948e-22
-2.90657e-21
-3.60003e-21
-1.24386e-21
-4.15285e-22
-2.34619e-21
-1.13603e-21
-1.43713e-20
-1.3982e-20
-1.21416e-20
-1.0841e-20
-1.39927e-20
-1.29172e-20
-1.29272e-20
-1.90556e-20
-1.63895e-20
-1.34931e-20
-1.06034e-20
-1.01627e-20
-9.92763e-21
-1.06257e-20
-8.13825e-21
-9.88083e-21
-6.06265e-21
-2.633e-21
-4.86705e-21
-2.73204e-21
-5.00392e-21
-9.39123e-21
-1.00517e-20
-9.83106e-21
-5.59216e-21
-6.35409e-21
-4.86599e-21
-3.19908e-21
-3.4528e-21
-3.30854e-21
-4.12353e-21
-3.94891e-21
-1.43292e-22
-2.4658e-21
-5.27171e-21
-5.26527e-21
-1.00708e-21
-2.46102e-22
-7.28944e-22
-1.7042e-21
-1.94231e-20
-1.56303e-20
-1.21348e-20
-1.33947e-20
-1.47879e-20
-1.61851e-20
-1.44727e-20
-1.40343e-20
-1.4382e-20
-1.69458e-20
-8.59168e-21
-9.30529e-21
-1.27266e-20
-9.89891e-21
-9.82347e-21
-9.59637e-21
-4.71212e-21
-9.02399e-23
-5.68986e-21
-7.63857e-21
-2.70147e-21
-8.50326e-21
-1.31123e-20
-8.46656e-21
-3.74204e-21
-5.50632e-21
-7.62511e-21
-5.98141e-21
-3.70211e-21
-4.15255e-21
-2.70231e-21
-2.14722e-21
-6.51219e-22
-2.62446e-21
-5.87964e-21
-2.47115e-21
-2.95637e-22
-1.3716e-21
-1.24292e-21
-2.25592e-21
-1.26971e-20
-1.31543e-20
-1.30015e-20
-1.27437e-20
-1.67177e-20
-1.76301e-20
-1.3479e-20
-1.35629e-20
-1.29138e-20
-1.53865e-20
-1.3169e-20
-9.17218e-21
-1.07934e-20
-9.71211e-21
-1.11051e-20
-8.65445e-21
-6.27708e-21
-3.4571e-21
-1.61043e-21
-4.2771e-21
-7.14666e-21
-8.26082e-21
-1.24463e-20
-1.00807e-20
-7.69415e-21
-5.34836e-21
-4.04353e-21
-3.95295e-21
-5.59362e-21
-4.57237e-21
-1.46201e-21
-1.6001e-21
-2.28257e-21
-2.13164e-21
-5.16086e-21
-4.58481e-21
-2.47372e-21
-7.07901e-22
-9.20854e-22
-1.26203e-22
-1.10233e-20
-1.45003e-20
-1.49666e-20
-1.71684e-20
-1.45404e-20
-1.62091e-20
-1.83409e-20
-1.19053e-20
-1.363e-20
-1.51904e-20
-1.17776e-20
-9.84161e-21
-1.06106e-20
-1.02409e-20
-1.13919e-20
-1.15639e-20
-8.1056e-21
4.52218e-22
1.75223e-21
-4.39292e-21
-1.01125e-20
-1.34662e-20
-1.09672e-20
-1.07604e-20
-1.03591e-20
-4.72778e-21
-4.25931e-22
-2.64428e-21
-5.04639e-21
-8.22113e-21
-2.66743e-21
6.02979e-22
-4.54095e-21
-1.16348e-21
-1.87657e-21
-6.6013e-21
-2.20298e-21
-1.1787e-21
-1.13714e-21
-6.76202e-22
-1.16532e-20
-1.55531e-20
-1.55259e-20
-1.52236e-20
-1.59777e-20
-1.98436e-20
-1.43587e-20
-1.49854e-20
-1.03849e-20
-1.46414e-20
-1.7475e-20
-1.00667e-20
-7.87141e-21
-1.12767e-20
-1.15307e-20
-1.02799e-20
-7.76628e-21
-1.48176e-21
-1.96826e-21
-2.80534e-21
-7.85288e-21
-1.26202e-20
-1.16789e-20
-1.14357e-20
-1.10726e-20
-3.23183e-21
-3.19126e-21
-4.35053e-21
-5.67236e-21
-4.18118e-21
-1.76178e-21
-1.83879e-21
-2.51781e-21
-3.01082e-21
-3.41075e-21
-2.68916e-21
-4.59078e-22
-1.01555e-21
-1.54236e-21
-2.49809e-21
-1.68025e-20
-1.55783e-20
-1.5205e-20
-1.56381e-20
-1.81857e-20
-1.7709e-20
-1.75051e-20
-1.76483e-20
-1.30019e-20
-1.39297e-20
-1.50233e-20
-8.73765e-21
-8.93705e-21
-1.16869e-20
-1.02377e-20
-1.07249e-20
-7.00242e-21
-2.80335e-21
-2.41566e-21
-5.598e-21
-6.48966e-21
-1.22538e-20
-1.06973e-20
-1.18701e-20
-6.1248e-21
-3.36087e-21
-4.4066e-21
-6.78122e-21
-4.9553e-21
-2.1559e-21
-6.02258e-21
-3.39995e-21
4.60535e-22
-5.19378e-21
-6.59416e-21
-1.68649e-21
4.17794e-23
-1.52663e-21
-4.22773e-22
-1.3607e-21
-1.91613e-20
-1.93975e-20
-1.57875e-20
-1.82383e-20
-1.51726e-20
-1.55847e-20
-1.70062e-20
-1.53108e-20
-1.29897e-20
-1.68243e-20
-1.30763e-20
-1.09984e-20
-1.13442e-20
-1.15267e-20
-1.10234e-20
-1.05381e-20
-7.64956e-21
-1.35628e-21
-2.90607e-21
-5.66299e-21
-8.47185e-21
-1.1522e-20
-1.22916e-20
-9.59182e-21
-6.77178e-21
-1.38961e-21
-1.00938e-21
-6.24106e-21
-7.06725e-21
-2.2783e-23
-3.23666e-21
-7.30875e-21
-2.49959e-21
-3.13844e-21
-6.25177e-21
-3.64469e-21
-1.44911e-21
-3.09882e-22
3.44889e-22
-1.53999e-21
-1.28297e-20
-2.03357e-20
-1.9688e-20
-1.69016e-20
-1.43441e-20
-1.67418e-20
-1.88787e-20
-1.97441e-20
-1.45559e-20
-1.2716e-20
-1.03926e-20
-1.41619e-20
-1.29691e-20
-9.99855e-21
-8.53946e-21
-9.92451e-21
-1.01075e-20
-6.25002e-21
-5.69369e-21
-7.06743e-21
-1.09584e-20
-7.56017e-21
-9.75948e-21
-1.04314e-20
-6.75529e-21
-3.85562e-21
-3.91062e-21
-4.77087e-21
-3.91129e-21
-2.12079e-21
-1.3634e-21
-3.41894e-21
-3.64339e-21
-2.48004e-21
-5.44629e-21
-2.65848e-21
-3.43926e-22
-2.05139e-21
-1.1262e-21
6.88039e-22
-1.37924e-20
-1.54443e-20
-2.02099e-20
-1.66069e-20
-1.70534e-20
-1.57905e-20
-1.70737e-20
-1.88635e-20
-1.3821e-20
-1.06636e-20
-1.40272e-20
-1.22005e-20
-1.28848e-20
-1.05174e-20
-1.19063e-20
-1.21938e-20
-8.62656e-21
-7.04594e-21
-4.66539e-21
-5.75035e-21
-1.08707e-20
-1.21271e-20
-1.11967e-20
-6.56841e-21
-4.03576e-21
-5.59797e-21
-5.99422e-21
-3.42173e-21
-3.19817e-21
-1.46118e-21
-2.14722e-21
-2.88775e-21
-4.39406e-21
-3.79505e-21
-6.87605e-21
-4.77783e-21
1.4427e-21
5.72917e-22
-1.47544e-21
2.16828e-22
-1.47779e-20
-1.45587e-20
-1.81041e-20
-1.40659e-20
-1.45426e-20
-1.65106e-20
-1.87536e-20
-1.91388e-20
-1.50422e-20
-1.34074e-20
-1.09797e-20
-1.50347e-20
-7.72471e-21
-1.14941e-20
-1.27093e-20
-9.81578e-21
-9.50988e-21
-7.90731e-21
-8.36018e-21
-6.00371e-21
-1.22114e-20
-1.02995e-20
-1.14839e-20
-5.53873e-21
-5.70753e-21
-5.74756e-22
-5.01677e-21
-8.12735e-21
-1.12835e-21
-3.05048e-21
-1.70333e-21
-3.93849e-21
-5.69898e-21
-1.97543e-21
-2.85617e-21
-3.00114e-21
-9.57397e-22
-4.34726e-22
-2.24692e-22
-1.27387e-21
-1.1e-20
-1.57829e-20
-2.00738e-20
-1.42848e-20
-1.28962e-20
-1.90451e-20
-1.57023e-20
-1.56227e-20
-1.60566e-20
-1.54571e-20
-1.33756e-20
-1.21849e-20
-9.45585e-21
-9.86734e-21
-1.64978e-20
-1.21019e-20
-9.33108e-21
-2.93604e-21
-7.2593e-21
-9.30452e-21
-1.5575e-20
-8.88822e-21
-6.50181e-21
-5.30538e-21
-5.18569e-21
-5.29115e-21
-5.9362e-21
-6.01152e-21
-3.68794e-21
-3.86744e-21
-2.51542e-21
-7.86065e-22
-2.81417e-21
-2.22977e-21
-1.32447e-21
-2.64016e-21
-1.81792e-21
-2.70452e-21
1.50102e-21
1.49876e-22
-9.11885e-21
-1.26706e-20
-1.68196e-20
-1.60442e-20
-1.61569e-20
-1.59269e-20
-1.50851e-20
-1.46167e-20
-1.59502e-20
-1.56635e-20
-1.27502e-20
-1.27306e-20
-1.05813e-20
-7.81366e-21
-1.41369e-20
-1.47262e-20
-9.98056e-21
-8.10425e-21
-1.10009e-20
-1.09461e-20
-1.17109e-20
-2.79485e-21
-5.68526e-21
-6.09368e-21
-4.05438e-21
-5.23478e-21
-7.49537e-21
-4.6155e-21
-3.12099e-21
-4.41268e-21
-5.83503e-21
-1.14041e-21
-1.64766e-21
-2.28143e-21
-1.63987e-22
-2.0276e-21
-7.38035e-22
-1.5914e-21
-2.50085e-21
-2.43483e-21
-6.63254e-21
-1.42703e-20
-1.90837e-20
-1.69854e-20
-1.47528e-20
-1.28455e-20
-1.217e-20
-1.5506e-20
-1.95507e-20
-1.62288e-20
-1.16847e-20
-1.14581e-20
-1.22035e-20
-1.1217e-20
-1.30801e-20
-1.22768e-20
-8.32722e-21
-7.37704e-21
-1.40638e-20
-9.32478e-21
-9.72809e-21
-7.55611e-21
-5.49678e-21
-6.33223e-21
-2.71461e-21
-2.57892e-21
-1.09464e-20
-9.14189e-21
-6.40345e-21
-6.61505e-22
-2.05233e-21
-1.51673e-21
-2.3808e-21
-1.70484e-21
-1.82726e-21
-2.53745e-21
-2.1965e-21
-9.91636e-22
-2.05403e-21
-2.24885e-21
-1.15131e-20
-1.4638e-20
-1.76814e-20
-1.48956e-20
-1.02116e-20
-1.31166e-20
-1.54185e-20
-1.49837e-20
-1.67237e-20
-1.64697e-20
-1.63993e-20
-1.42974e-20
-1.05319e-20
-1.38641e-20
-1.32102e-20
-6.82992e-21
-7.32085e-21
-5.73782e-21
-1.31466e-20
-9.87265e-21
-9.02452e-21
-5.22828e-21
-6.14679e-21
-8.75854e-21
-7.51065e-21
-3.52055e-21
-7.10134e-21
-6.21216e-21
-5.21885e-21
-2.65983e-21
-3.84824e-21
-1.57864e-21
-3.94306e-21
-5.71641e-22
-1.93928e-21
-4.25643e-21
-6.99496e-22
-1.7082e-21
-1.71896e-21
-2.1679e-21
-1.93203e-20
-1.74285e-20
-1.51655e-20
-1.4891e-20
-1.39758e-20
-1.23506e-20
-1.49552e-20
-1.3501e-20
-1.62568e-20
-1.62224e-20
-1.55971e-20
-1.60133e-20
-1.36667e-20
-1.56163e-20
-1.12685e-20
-8.40325e-21
-7.20182e-21
-6.01062e-21
-8.8073e-21
-9.57891e-21
-9.73288e-21
-2.83613e-21
-7.22114e-21
-8.08955e-21
-7.5695e-21
-5.31466e-21
-6.43405e-21
-8.83775e-21
-4.60115e-21
-1.18156e-21
-3.68528e-21
-1.00497e-21
-5.71283e-22
-2.38553e-21
-4.93901e-21
-4.95829e-21
-7.20504e-22
-1.63719e-21
-4.98973e-23
3.76629e-22
-1.91839e-20
-1.94793e-20
-1.43202e-20
-1.44394e-20
-1.48077e-20
-1.66483e-20
-1.43376e-20
-1.23242e-20
-1.76538e-20
-1.26953e-20
-1.53274e-20
-1.69591e-20
-1.37607e-20
-1.09646e-20
-1.03869e-20
-8.3376e-21
-5.00128e-21
-3.00751e-21
-5.45198e-21
-1.0117e-20
-1.11079e-20
-5.81799e-21
-8.13075e-21
-8.91517e-21
-8.54888e-21
-8.48563e-21
-6.56778e-21
-6.5767e-21
-3.26886e-21
-1.43439e-21
-3.00533e-21
-3.78494e-21
-5.92741e-22
-5.09822e-22
-8.18093e-21
-3.96728e-21
-1.36478e-21
8.49969e-23
-1.01473e-21
-6.93672e-22
-1.55466e-20
-1.58627e-20
-1.74781e-20
-1.38872e-20
-1.43895e-20
-1.59039e-20
-1.62771e-20
-1.62489e-20
-1.31738e-20
-1.43913e-20
-1.64759e-20
-1.65069e-20
-9.0196e-21
-1.37741e-20
-1.4307e-20
-8.05138e-21
-3.37848e-21
-3.33333e-21
-7.6661e-21
-6.2137e-21
-7.20146e-21
-9.37636e-21
-1.11895e-20
-8.96517e-21
-1.03329e-20
-4.49322e-21
-6.36357e-21
-8.10481e-21
-1.49317e-21
-2.75186e-21
-6.40577e-21
-4.12749e-21
1.97301e-22
-4.90362e-21
-8.12242e-21
-4.73161e-21
-2.71028e-21
1.1598e-21
-1.77196e-21
-2.59583e-21
-9.17018e-21
-1.33067e-20
-1.65799e-20
-1.563e-20
-1.31949e-20
-1.64327e-20
-1.56501e-20
-1.51943e-20
-1.17291e-20
-1.55528e-20
-1.89011e-20
-1.49696e-20
-7.58739e-21
-1.05081e-20
-1.15251e-20
-7.0744e-21
-5.80112e-21
-8.91862e-21
-6.66977e-21
-6.54314e-21
-7.41013e-21
-9.83248e-21
-8.05055e-21
-8.48772e-21
-1.1601e-20
-7.61909e-21
-4.3086e-21
-4.55208e-21
-4.59328e-21
-4.17562e-21
-3.36815e-21
-4.20067e-21
-2.43093e-21
-3.85438e-21
-8.72266e-21
-5.08251e-21
-1.71926e-21
-1.24005e-22
-2.589e-22
-1.146e-21
-1.27115e-20
-1.57522e-20
-1.78419e-20
-1.27519e-20
-1.24162e-20
-1.49847e-20
-1.54463e-20
-1.83955e-20
-1.04446e-20
-1.28035e-20
-2.02133e-20
-1.66712e-20
-1.02923e-20
-1.09919e-20
-6.92895e-21
-8.16885e-21
-8.11482e-21
-5.35415e-21
-3.87505e-21
-7.48802e-21
-7.87943e-21
-1.2012e-20
-1.07509e-20
-1.16023e-20
-9.7243e-21
-7.67843e-21
-5.03807e-21
-6.68315e-21
-4.92941e-21
-1.90244e-21
-2.76626e-21
-3.50225e-21
-1.0221e-21
-2.00106e-21
-5.61327e-21
-7.5236e-21
-3.11113e-21
-1.44978e-21
-2.82084e-22
-6.37385e-22
-1.12465e-20
-1.40652e-20
-1.56623e-20
-1.72103e-20
-1.49323e-20
-1.69248e-20
-1.42392e-20
-1.3513e-20
-1.19949e-20
-1.35414e-20
-1.88934e-20
-1.59721e-20
-7.81768e-21
-1.06096e-20
-9.85603e-21
-1.20433e-20
-7.92277e-21
-5.89081e-21
-1.41756e-21
-4.26875e-21
-6.68876e-21
-1.2896e-20
-1.05819e-20
-8.97085e-21
-9.97295e-21
-8.36494e-21
-3.69094e-21
-2.36076e-21
-6.5751e-21
-3.30556e-21
-1.54543e-21
-5.64059e-21
-4.76724e-21
-2.12044e-21
-6.51962e-21
-4.58e-21
-3.9925e-21
-2.5102e-21
-8.41831e-22
-1.77503e-21
-9.63519e-21
-1.40721e-20
-1.53103e-20
-1.61031e-20
-1.39981e-20
-1.54981e-20
-1.44243e-20
-1.36882e-20
-1.35239e-20
-1.42403e-20
-1.84603e-20
-9.67087e-21
-1.00315e-20
-1.08419e-20
-8.88587e-21
-7.55141e-21
-9.6524e-21
-7.14671e-21
-6.26214e-21
-6.28137e-21
-8.05743e-21
-7.00286e-21
-9.91813e-21
-1.01571e-20
-7.42043e-21
-6.13503e-21
-5.65426e-21
-3.95701e-21
-5.03415e-21
-3.02915e-21
-3.6945e-21
-4.71073e-21
-6.69618e-21
-6.8851e-21
-4.77744e-21
-4.39566e-21
-3.4458e-21
-2.9841e-21
-1.15122e-21
-1.25849e-21
-1.26399e-20
-1.85891e-20
-1.53372e-20
-1.16375e-20
-1.67465e-20
-1.6978e-20
-1.49808e-20
-1.3687e-20
-1.37963e-20
-1.39725e-20
-1.45988e-20
-1.08797e-20
-1.1584e-20
-9.48987e-21
-1.16198e-20
-6.74482e-21
-8.05785e-21
-4.86281e-21
-6.92765e-21
-4.94098e-21
-8.84545e-21
-8.23204e-21
-7.81335e-21
-8.99339e-21
-9.88316e-21
-4.53662e-21
-4.72579e-21
-5.80177e-21
-2.9824e-21
-5.10981e-21
-3.57949e-21
-4.75506e-21
-7.11322e-21
-4.53669e-21
-6.94846e-21
-5.11167e-21
-2.7363e-21
-4.73562e-21
-1.02369e-21
-2.83779e-22
-1.12815e-20
-1.58444e-20
-1.84278e-20
-1.32683e-20
-1.32143e-20
-1.84919e-20
-1.55524e-20
-8.9737e-21
-1.22495e-20
-1.71913e-20
-1.26309e-20
-1.25842e-20
-1.40469e-20
-1.05093e-20
-9.98934e-21
-9.06468e-21
-6.78841e-21
-8.34431e-21
-4.2002e-21
-4.28874e-21
-5.69745e-21
-9.83778e-21
-1.0817e-20
-1.00142e-20
-1.11603e-20
-6.79178e-21
-4.12698e-21
-4.14279e-22
-3.33566e-21
-3.97677e-21
-4.44018e-21
-6.74612e-21
-3.27253e-21
-2.92355e-21
-6.33182e-21
-8.67399e-21
-2.79858e-21
-1.53717e-21
-8.37938e-22
-2.30366e-22
-1.2827e-20
-1.3463e-20
-1.51311e-20
-1.49867e-20
-1.53732e-20
-1.51536e-20
-1.58971e-20
-1.34628e-20
-1.17317e-20
-1.30349e-20
-1.20137e-20
-1.07196e-20
-1.26489e-20
-1.29844e-20
-1.0915e-20
-1.04787e-20
-5.82073e-21
-7.12184e-21
-2.62489e-21
-5.54944e-21
-5.83643e-21
-7.20046e-21
-1.07275e-20
-1.34332e-20
-9.8186e-21
-6.025e-21
-3.27329e-21
-4.57961e-21
-5.68393e-21
-3.12431e-21
-3.98065e-21
-4.02148e-21
-1.94016e-21
-2.08901e-21
-3.4457e-21
-6.94427e-21
-3.12063e-21
-2.07448e-21
-2.43947e-21
-2.7794e-21
-1.67256e-20
-1.46804e-20
-1.36884e-20
-1.4204e-20
-1.81373e-20
-1.62007e-20
-1.43787e-20
-1.29291e-20
-1.28426e-20
-1.10082e-20
-9.08427e-21
-1.23547e-20
-1.53792e-20
-1.30977e-20
-9.30925e-21
-1.03215e-20
-6.18856e-21
-4.37235e-21
-2.07237e-21
-5.16483e-21
-5.69371e-21
-8.78226e-21
-1.56315e-20
-1.04176e-20
-8.27202e-21
-8.2754e-21
-3.73408e-21
-2.31892e-21
-2.69126e-21
-5.94769e-21
-4.8383e-21
-6.94045e-21
9.13019e-22
-1.91874e-21
-5.14316e-21
-2.01604e-21
-2.23443e-21
-6.38938e-22
-2.32962e-21
-3.46134e-21
-1.06141e-20
-1.14355e-20
-1.39811e-20
-1.24342e-20
-1.88767e-20
-1.51722e-20
-1.38188e-20
-1.43207e-20
-1.18647e-20
-1.19139e-20
-1.20449e-20
-1.04856e-20
-1.26213e-20
-9.9452e-21
-7.55259e-21
-1.05042e-20
-8.31805e-21
-6.21627e-21
-4.41129e-21
-1.23472e-21
-6.3622e-21
-1.17428e-20
-1.12506e-20
-1.02599e-20
-1.06597e-20
-8.9586e-21
-7.9448e-23
-2.16668e-21
-5.19708e-21
-4.528e-21
-4.25366e-21
-4.91622e-21
-6.15371e-23
-9.16597e-22
-1.33625e-21
-3.88093e-21
-2.19414e-21
-4.18379e-21
-1.60416e-21
-1.13156e-21
-1.2227e-20
-1.28845e-20
-1.37083e-20
-1.48206e-20
-1.5911e-20
-1.09417e-20
-1.32173e-20
-1.26157e-20
-1.24584e-20
-1.15448e-20
-1.04673e-20
-1.39369e-20
-1.15892e-20
-7.35817e-21
-8.76334e-21
-1.13156e-20
-9.62251e-21
-5.48889e-21
-5.38402e-21
-4.94456e-21
-4.45509e-21
-7.44228e-21
-1.22317e-20
-1.10244e-20
-8.21945e-21
-7.32893e-21
-4.27768e-21
-3.58155e-21
-2.6659e-21
-5.14922e-21
-4.72801e-21
-4.20857e-21
-4.11459e-22
1.33551e-21
2.14825e-21
-5.12737e-21
-2.35351e-21
6.47679e-22
-4.04803e-21
-3.488e-21
-1.38217e-20
-1.10255e-20
-1.11129e-20
-1.12659e-20
-1.44077e-20
-1.47733e-20
-1.38534e-20
-1.59211e-20
-1.33358e-20
-1.13545e-20
-6.21062e-21
-1.17616e-20
-6.35818e-21
-6.19637e-21
-9.44326e-21
-1.1447e-20
-1.24726e-20
-6.87119e-21
-4.19323e-21
-3.98911e-21
-4.18279e-21
-9.40522e-21
-1.03941e-20
-9.28709e-21
-9.66736e-21
-5.64089e-21
-5.17089e-21
-8.62363e-21
-2.60761e-21
-3.99397e-21
-5.52365e-21
-3.60638e-21
-2.65668e-21
-1.21847e-21
1.00192e-21
1.6956e-21
-2.99249e-21
3.29114e-22
8.6562e-22
-5.6848e-22
-8.46616e-21
-1.09814e-20
-1.31317e-20
-1.09032e-20
-1.19011e-20
-1.40351e-20
-1.12901e-20
-1.2675e-20
-1.31902e-20
-1.39507e-20
-1.00447e-20
-5.04215e-21
-8.41247e-21
-8.35455e-21
-9.1357e-21
-9.09995e-21
-8.2224e-21
-6.11591e-21
-6.01617e-21
-6.18741e-21
-3.84401e-21
-7.07205e-21
-1.0255e-20
-1.11494e-20
-8.6964e-21
-5.23805e-21
-3.07504e-21
-3.70567e-21
-4.77065e-21
-2.03942e-21
-5.36617e-21
-3.94057e-21
-2.66349e-21
-2.00291e-21
-2.7896e-21
-3.75966e-22
7.24814e-22
5.97852e-22
1.21572e-21
-7.18802e-22
-7.02793e-21
-9.32357e-21
-1.16399e-20
-1.32545e-20
-9.91154e-21
-1.18269e-20
-1.21634e-20
-1.04176e-20
-9.13474e-21
-1.14773e-20
-9.83199e-21
-7.12514e-21
-1.01873e-20
-6.77393e-21
-8.60969e-21
-9.40001e-21
-6.44932e-21
-1.41115e-21
-3.01469e-21
-8.68028e-21
-3.30571e-21
-9.94874e-21
-1.18723e-20
-9.05038e-21
-7.82972e-21
-7.37511e-21
-6.75923e-21
5.87125e-22
-3.05358e-21
-2.40095e-21
-5.10513e-21
-3.24883e-21
-4.49968e-21
-1.97415e-21
-1.02012e-21
-6.74837e-22
1.01011e-21
-1.81935e-21
-9.49743e-22
-3.42735e-22
-4.72491e-21
-9.15852e-21
-1.24919e-20
-8.25708e-21
-7.95149e-21
-1.15906e-20
-9.96867e-21
-1.01295e-20
-9.41223e-21
-1.01361e-20
-6.45385e-21
-9.01438e-21
-8.91618e-21
-9.34372e-21
-6.91692e-21
-4.45978e-21
-3.71198e-21
-4.80254e-21
-3.95584e-21
-9.3959e-21
-6.71848e-21
-8.29416e-21
-1.24819e-20
-1.27571e-20
-4.24545e-21
-4.34606e-21
-4.66372e-21
-3.43963e-21
2.9369e-22
-2.8029e-21
-4.9617e-21
-4.18715e-21
-6.43704e-21
-2.10273e-21
-1.85165e-21
-3.4354e-21
2.08252e-21
3.69468e-21
-9.15496e-22
-1.30483e-21
-5.4942e-21
-7.75817e-21
-1.02748e-20
-6.87237e-21
-5.58015e-21
-1.31573e-20
-9.75123e-21
-7.22992e-21
-9.37283e-21
-9.62841e-21
-6.87468e-21
-6.52059e-21
-7.03108e-21
-7.81822e-21
-8.32356e-21
-7.70745e-21
-1.70814e-21
-1.70268e-21
-5.45182e-21
-5.99336e-21
-3.30661e-21
-7.0182e-21
-9.7068e-21
-1.25156e-20
-8.32678e-21
-5.20624e-21
-4.45272e-21
1.60841e-23
-2.13791e-21
-2.27132e-21
-2.74199e-21
-3.69158e-21
-4.12163e-21
-1.40841e-21
-1.14809e-21
-5.04514e-21
4.71539e-22
1.98048e-21
-2.2404e-22
8.49182e-23
-6.32939e-21
-5.21438e-21
-6.62734e-21
-3.60026e-21
-4.31805e-21
-2.6648e-21
-8.18767e-21
-4.93523e-21
-6.65401e-21
-6.27701e-21
-2.54248e-21
-2.48781e-21
-6.00314e-21
-5.6232e-21
-2.89546e-21
-4.82569e-21
-1.31549e-21
7.80644e-22
-5.8101e-21
-1.85471e-21
-4.94646e-21
-8.31595e-21
-6.32868e-21
-6.57896e-21
-3.0174e-21
-3.48727e-21
-2.86277e-21
-9.39777e-22
-5.61273e-22
5.86348e-22
-9.63437e-22
-1.31273e-21
-2.48362e-21
-2.09964e-21
4.76178e-22
-3.28989e-21
-1.07086e-21
-2.1965e-21
-2.88639e-21
2.22321e-22
-6.79239e-21
-9.80646e-21
-1.36543e-20
-1.04275e-20
-1.00729e-20
-1.24963e-20
-8.72123e-21
-5.35282e-21
-1.20999e-20
-1.05242e-20
-6.31309e-21
-1.06629e-20
-1.07054e-20
-5.87675e-21
-7.64403e-21
-9.9116e-21
-6.30653e-21
-6.50293e-22
-3.50294e-21
-6.31223e-21
-3.87435e-21
-4.26061e-21
-5.71747e-21
-4.69992e-21
-2.27898e-21
-1.60173e-21
-2.00548e-21
-3.46425e-21
-6.07206e-21
-3.80586e-21
-4.28693e-21
-2.30323e-21
-3.76044e-21
-1.38977e-21
-4.02777e-21
-4.03205e-21
4.50579e-22
-3.64031e-21
-1.69383e-21
-9.11308e-22
-1.10114e-20
-1.40273e-20
-1.9096e-20
-1.56521e-20
-1.32231e-20
-1.68244e-20
-1.49651e-20
-1.09751e-20
-9.98553e-21
-1.66795e-20
-1.48426e-20
-1.36082e-20
-1.29911e-20
-9.08348e-21
-1.14686e-20
-1.06899e-20
-8.04006e-21
-6.27861e-21
-8.38679e-21
-7.17307e-21
-6.4599e-21
-6.36403e-21
-8.04626e-21
-9.61026e-21
-4.24323e-21
-3.79757e-21
-5.02468e-21
-4.37955e-21
-8.1484e-21
-3.41402e-21
-3.09834e-21
-2.92257e-21
-4.08674e-21
-2.70296e-21
-6.34455e-21
-2.85605e-21
1.02894e-21
1.355e-21
1.05126e-23
4.13319e-22
-1.24041e-20
-1.45582e-20
-1.46338e-20
-1.64584e-20
-1.61131e-20
-1.95794e-20
-1.56877e-20
-1.4481e-20
-1.39349e-20
-1.34069e-20
-1.32275e-20
-1.36385e-20
-1.15747e-20
-9.94686e-21
-1.18168e-20
-1.11633e-20
-9.768e-21
-7.5197e-21
-6.46728e-21
-6.79378e-21
-6.99081e-21
-5.11912e-21
-5.74162e-21
-7.79004e-21
-7.36154e-21
-4.49869e-21
-6.29853e-21
-7.35136e-21
-4.45224e-21
-6.88791e-21
-6.21947e-21
-2.2754e-21
-2.38586e-21
-2.81067e-21
-3.3136e-21
-2.56019e-21
5.32787e-22
-7.11929e-22
-3.4973e-22
5.28722e-22
-1.69018e-20
-1.62835e-20
-1.77679e-20
-1.80181e-20
-1.66405e-20
-1.80946e-20
-1.77342e-20
-1.44088e-20
-1.39342e-20
-1.40913e-20
-1.50514e-20
-1.6967e-20
-1.01383e-20
-1.09391e-20
-1.33317e-20
-1.08437e-20
-9.53182e-21
-9.17706e-21
-6.72055e-21
-4.48416e-21
-8.84627e-21
-9.5719e-21
-8.19415e-21
-7.87526e-21
-6.37441e-21
-5.30649e-21
-6.59115e-21
-5.84548e-21
-5.55536e-21
-7.62829e-21
-5.00462e-21
8.17373e-23
-5.28384e-21
-3.29303e-21
-3.21246e-21
-1.5574e-21
1.03795e-22
-8.57598e-22
-8.5462e-22
-4.28928e-22
-1.94821e-20
-1.74306e-20
-1.56826e-20
-1.8738e-20
-2.03924e-20
-2.15747e-20
-1.74016e-20
-1.43474e-20
-1.21518e-20
-1.5809e-20
-1.50945e-20
-1.53984e-20
-1.05127e-20
-1.33167e-20
-1.73638e-20
-1.42285e-20
-1.04122e-20
-9.24577e-21
-7.06775e-21
-5.48691e-21
-8.40347e-21
-8.91061e-21
-8.69958e-21
-8.95149e-21
-7.88497e-21
-4.65557e-21
-5.97256e-21
-6.65332e-21
-6.11821e-21
-5.25888e-21
-5.20189e-21
-3.6299e-21
-1.97883e-21
-2.21433e-21
-2.89986e-21
-2.07195e-21
1.54467e-22
-7.03856e-22
-9.22034e-24
-1.26171e-21
-1.71331e-20
-1.73852e-20
-1.66325e-20
-1.82021e-20
-2.09464e-20
-2.22937e-20
-1.57246e-20
-1.90873e-20
-1.72582e-20
-1.57471e-20
-1.43842e-20
-1.59958e-20
-1.28212e-20
-1.35143e-20
-1.62798e-20
-1.28888e-20
-1.19451e-20
-8.09995e-21
-7.30712e-21
-6.0123e-21
-8.07085e-21
-1.06844e-20
-9.10125e-21
-8.95363e-21
-7.95072e-21
-5.46795e-21
-5.51559e-21
-6.03679e-21
-6.81321e-21
-5.79571e-21
-5.20079e-21
-3.2541e-21
5.68667e-22
-2.43696e-21
-3.83151e-21
-2.88507e-21
-7.78662e-23
1.60432e-21
3.13226e-21
-1.66574e-21
-2.05111e-20
-2.20241e-20
-1.73841e-20
-1.90254e-20
-2.17322e-20
-2.07065e-20
-1.86781e-20
-1.82165e-20
-1.97034e-20
-1.87942e-20
-1.48701e-20
-1.52074e-20
-1.37692e-20
-1.49215e-20
-1.54192e-20
-1.36113e-20
-8.89694e-21
-6.15894e-21
-7.94583e-21
-7.84911e-21
-9.29864e-21
-1.12354e-20
-1.01498e-20
-1.01019e-20
-7.07972e-21
-5.62896e-21
-5.8976e-21
-6.25648e-21
-5.29879e-21
-3.83312e-21
-6.51808e-21
-4.07263e-21
2.48499e-21
-3.10007e-22
-5.06288e-21
-5.42938e-21
-8.92267e-22
4.73161e-22
7.18545e-22
-2.02425e-21
-1.83049e-20
-1.98453e-20
-1.81088e-20
-1.94095e-20
-2.29079e-20
-2.28718e-20
-1.76215e-20
-1.9572e-20
-2.0947e-20
-1.986e-20
-1.64212e-20
-1.65501e-20
-1.35527e-20
-1.24078e-20
-1.66389e-20
-1.57003e-20
-1.07072e-20
-6.82589e-21
-2.30759e-21
-4.1011e-21
-8.94156e-21
-1.36077e-20
-1.16268e-20
-1.16053e-20
-9.20294e-21
-5.41438e-21
-5.78828e-21
-7.67555e-21
-3.10416e-21
-4.10521e-21
-7.47287e-21
-2.75046e-21
-2.2684e-21
-2.71987e-21
-4.10412e-21
-1.55883e-21
-3.41477e-24
4.698e-22
-9.48621e-22
-3.40968e-22
-1.98218e-20
-2.29741e-20
-2.18835e-20
-2.19784e-20
-2.13896e-20
-2.12309e-20
-1.97967e-20
-2.01794e-20
-2.03918e-20
-1.9264e-20
-1.62742e-20
-1.87748e-20
-1.33112e-20
-1.33459e-20
-1.45571e-20
-1.32865e-20
-1.15084e-20
-6.45054e-21
-6.95624e-21
-7.95519e-21
-6.58072e-21
-1.2093e-20
-1.36533e-20
-1.37021e-20
-8.13491e-21
-6.63967e-21
-5.58328e-21
-6.84977e-21
-3.16239e-21
-4.87255e-21
-5.91584e-21
-3.74569e-21
-2.04335e-21
-1.55148e-21
-1.92165e-21
-4.60582e-22
-7.55793e-22
-4.36414e-22
-7.69715e-22
-7.76166e-22
-1.7818e-20
-1.9802e-20
-1.94824e-20
-2.33619e-20
-2.42956e-20
-2.2533e-20
-2.35541e-20
-2.06706e-20
-1.68245e-20
-1.82312e-20
-1.82367e-20
-1.64521e-20
-1.56957e-20
-1.49732e-20
-1.57628e-20
-1.29442e-20
-1.00526e-20
-6.8997e-21
-6.18239e-21
-5.07521e-21
-1.04817e-20
-1.44699e-20
-1.52981e-20
-1.46176e-20
-9.17568e-21
-6.13254e-21
-4.16192e-21
-5.22801e-21
-5.7835e-21
-5.56143e-21
-3.26997e-21
-3.05869e-21
-3.52638e-21
-2.44115e-21
-2.45865e-21
-3.18884e-22
7.68275e-22
-6.00353e-22
-1.84971e-21
-6.83545e-22
-2.40581e-20
-2.4825e-20
-2.10153e-20
-2.17781e-20
-2.21376e-20
-2.22993e-20
-2.33673e-20
-2.4576e-20
-1.96454e-20
-1.85239e-20
-1.53265e-20
-1.38543e-20
-1.41346e-20
-1.22364e-20
-1.52717e-20
-1.43982e-20
-1.07408e-20
-7.41544e-21
-5.89201e-21
-8.23806e-21
-1.26418e-20
-1.30721e-20
-1.49211e-20
-1.6206e-20
-8.64027e-21
-3.93572e-21
-4.36199e-21
-8.03861e-21
-5.34027e-21
-5.09322e-21
-4.46324e-21
-2.54139e-21
-1.0029e-21
-2.64672e-21
-2.14806e-21
-3.30495e-22
-7.23574e-22
-1.89244e-21
-1.97987e-21
-2.49435e-21
-2.34488e-20
-2.53223e-20
-2.08908e-20
-2.11716e-20
-2.28234e-20
-2.34904e-20
-2.3617e-20
-2.38896e-20
-1.7371e-20
-2.05777e-20
-1.61125e-20
-1.3588e-20
-1.68486e-20
-1.32938e-20
-1.40978e-20
-1.50327e-20
-1.31582e-20
-6.08721e-21
-5.44723e-21
-7.81636e-21
-1.25704e-20
-1.41429e-20
-1.29563e-20
-1.25063e-20
-8.699e-21
-8.31313e-21
-6.49958e-21
-6.19417e-21
-3.28587e-21
-7.01767e-21
-5.69066e-21
-2.62979e-21
-6.66968e-22
-1.9128e-21
-3.10849e-21
-1.89573e-21
8.08123e-22
-8.00195e-22
-1.47224e-21
2.31995e-22
-2.47365e-20
-2.42766e-20
-2.23499e-20
-2.35301e-20
-2.355e-20
-2.52259e-20
-2.22578e-20
-2.11057e-20
-1.96721e-20
-1.91235e-20
-1.56029e-20
-1.59701e-20
-1.61872e-20
-1.39141e-20
-1.41992e-20
-1.29085e-20
-9.78505e-21
-6.53521e-21
-8.57718e-21
-1.11825e-20
-8.90296e-21
-1.13264e-20
-1.26969e-20
-1.39606e-20
-1.05057e-20
-6.11711e-21
-6.80929e-21
-5.32267e-21
-4.83853e-21
-4.7676e-21
-5.76878e-21
-4.97337e-21
-1.46134e-21
-1.41344e-21
-8.41768e-21
1.15591e-22
1.70599e-21
-2.88836e-21
-1.27799e-21
5.50739e-22
-2.69714e-20
-2.67446e-20
-2.35253e-20
-2.48319e-20
-2.38948e-20
-2.28788e-20
-2.33837e-20
-1.90267e-20
-1.91512e-20
-2.14074e-20
-1.74646e-20
-1.43533e-20
-1.70973e-20
-1.23304e-20
-1.43233e-20
-1.41241e-20
-1.49669e-20
-8.81227e-21
-6.01398e-21
-7.13592e-21
-1.09546e-20
-1.27036e-20
-1.27263e-20
-1.51233e-20
-8.51192e-21
-5.12146e-21
-4.67649e-21
-6.18541e-21
-7.48463e-21
-4.81426e-21
-5.66617e-21
-4.47892e-21
-1.71841e-21
-3.48093e-21
-5.9389e-21
-2.09841e-21
-7.40532e-22
3.38973e-21
-4.1216e-22
-1.96018e-22
-2.92224e-20
-2.72758e-20
-2.28479e-20
-2.27899e-20
-2.45277e-20
-2.2197e-20
-2.25861e-20
-1.91786e-20
-1.96459e-20
-1.89125e-20
-1.6971e-20
-1.64099e-20
-1.75619e-20
-1.45801e-20
-1.39268e-20
-1.32891e-20
-1.29808e-20
-1.03705e-20
-1.01276e-20
-1.17093e-20
-9.45341e-21
-1.29709e-20
-1.44736e-20
-1.1601e-20
-8.69905e-21
-7.42988e-21
-6.03994e-21
-5.47828e-21
-5.92241e-21
-3.59613e-21
-5.33132e-21
-4.26862e-21
-2.99201e-21
-1.46481e-21
-4.93223e-21
-3.79109e-21
1.61482e-21
2.94742e-22
-1.05071e-21
-3.6379e-23
-2.49122e-20
-2.57554e-20
-2.67222e-20
-2.45483e-20
-2.48673e-20
-2.22701e-20
-2.12955e-20
-2.01473e-20
-1.90669e-20
-1.67925e-20
-1.74535e-20
-1.76241e-20
-1.82792e-20
-1.47477e-20
-1.45291e-20
-1.26946e-20
-1.26786e-20
-1.17963e-20
-9.25204e-21
-8.47219e-21
-1.17637e-20
-1.50537e-20
-1.37087e-20
-9.0859e-21
-7.7504e-21
-8.1013e-21
-6.1908e-21
-5.71187e-21
-6.39547e-21
-4.37109e-21
-3.45479e-21
-4.34257e-21
-3.87923e-21
-2.67957e-21
-4.18581e-21
-2.53989e-21
-3.00414e-22
-1.34617e-21
-8.43121e-22
-5.13651e-22
-2.29744e-20
-2.39793e-20
-2.53342e-20
-2.21302e-20
-2.60684e-20
-2.26647e-20
-2.18226e-20
-2.21829e-20
-2.0099e-20
-1.5724e-20
-1.72238e-20
-1.84432e-20
-1.72384e-20
-1.62307e-20
-1.46488e-20
-1.23963e-20
-1.21673e-20
-9.55442e-21
-1.29836e-20
-1.11539e-20
-1.34876e-20
-1.10691e-20
-1.04163e-20
-8.08062e-21
-8.10144e-21