/*--------------------------------*- C++ -*----------------------------------*\
| =========                 |                                                 |
| \\      /  F ield         | OpenFOAM: The Open Source CFD Toolbox           |
|  \\    /   O peration     | Version:  v2012                                 |
|   \\  /    A nd           | Website:  www.openfoam.com                      |
|    \\/     M anipulation  |                                                 |
\*---------------------------------------------------------------------------*/
FoamFile
{
    version     2.0;
    format      ascii;
    class       volVectorField;
    location    "43";
    object      U;
}
// * * * * * * * * * * * * * * * * * * * * * * * * * * * * * * * * * * * * * //

dimensions      [0 1 -1 0 0 0 0];


internalField   nonuniform List<vector> 
64000
(
(0.003 2.81319e-19 2.60904e-19)
(0.003 4.71408e-19 4.21802e-19)
(0.003 5.33014e-19 5.44556e-19)
(0.003 5.68777e-19 6.28888e-19)
(0.003 6.47591e-19 6.28733e-19)
(0.003 6.16126e-19 5.62097e-19)
(0.003 5.59181e-19 5.34957e-19)
(0.003 4.19277e-19 4.84904e-19)
(0.003 3.91985e-19 5.52031e-19)
(0.003 6.04985e-19 4.91332e-19)
(0.003 6.34892e-19 4.10274e-19)
(0.003 5.68234e-19 5.63689e-19)
(0.003 4.95678e-19 5.37763e-19)
(0.003 4.71072e-19 4.06609e-19)
(0.003 4.01183e-19 4.64559e-19)
(0.003 3.40618e-19 4.77964e-19)
(0.003 2.72358e-19 3.46462e-19)
(0.003 1.32951e-19 1.82845e-19)
(0.003 1.37026e-19 1.76463e-19)
(0.003 2.46123e-19 2.78765e-19)
(0.003 1.33276e-19 2.41173e-19)
(0.003 2.23191e-19 2.58716e-19)
(0.003 3.74092e-19 3.03865e-19)
(0.003 4.54995e-19 2.43513e-19)
(0.003 3.62929e-19 1.58426e-19)
(0.003 2.32509e-19 1.5041e-19)
(0.003 1.61486e-19 1.70505e-19)
(0.003 2.72523e-19 2.33307e-19)
(0.003 2.69425e-19 2.48576e-19)
(0.003 1.36869e-19 2.57703e-19)
(0.003 1.64577e-20 2.22169e-19)
(0.003 5.03905e-20 1.72132e-19)
(0.003 1.85943e-19 1.73235e-19)
(0.003 1.35385e-19 1.29138e-19)
(0.003 8.37839e-20 1.48313e-19)
(0.003 7.85274e-20 1.38648e-19)
(0.003 -3.61228e-20 5.52662e-20)
(0.003 -8.53412e-20 2.38989e-19)
(0.003 -7.47163e-20 2.39277e-19)
(0.003 -4.67692e-20 1.40223e-19)
(0.003 2.59249e-19 4.50714e-19)
(0.003 4.25461e-19 8.81385e-19)
(0.003 6.57577e-19 1.14712e-18)
(0.003 6.2443e-19 1.19542e-18)
(0.003 5.42127e-19 1.14171e-18)
(0.003 7.01401e-19 1.20873e-18)
(0.003 7.24584e-19 1.1977e-18)
(0.003 6.52822e-19 9.83688e-19)
(0.003 5.72435e-19 8.76697e-19)
(0.003 5.68286e-19 1.1477e-18)
(0.003 5.63138e-19 1.16014e-18)
(0.003 5.13325e-19 1.04182e-18)
(0.003 4.39822e-19 9.31486e-19)
(0.003 3.43121e-19 8.47487e-19)
(0.003 2.77159e-19 8.56105e-19)
(0.003 2.3226e-19 8.26822e-19)
(0.003 4.49223e-19 7.24129e-19)
(0.003 4.00048e-19 5.72415e-19)
(0.003 2.15219e-19 5.19359e-19)
(0.003 1.15862e-19 5.22354e-19)
(0.003 2.60504e-19 4.69991e-19)
(0.003 3.78906e-19 5.32521e-19)
(0.003 3.45327e-19 5.72711e-19)
(0.003 3.9359e-19 6.37294e-19)
(0.003 3.2325e-19 4.95068e-19)
(0.003 3.01381e-19 4.05361e-19)
(0.003 3.47889e-19 3.94638e-19)
(0.003 2.43241e-19 4.28758e-19)
(0.003 2.12074e-19 5.24045e-19)
(0.003 2.10458e-19 3.94746e-19)
(0.003 1.21415e-19 2.4081e-19)
(0.003 9.18356e-20 2.28604e-19)
(0.003 1.08408e-19 3.03905e-19)
(0.003 7.53841e-20 2.34927e-19)
(0.003 1.14958e-20 2.5558e-19)
(0.003 -8.92877e-20 2.22703e-19)
(0.003 -6.02785e-20 2.84296e-20)
(0.003 -6.98628e-20 6.59348e-20)
(0.003 -8.40017e-20 1.23733e-19)
(0.003 -9.59665e-20 8.91279e-20)
(0.003 1.82349e-19 5.65856e-19)
(0.003 2.47023e-19 9.89723e-19)
(0.003 3.15789e-19 1.24404e-18)
(0.003 4.62316e-19 1.36831e-18)
(0.003 4.42249e-19 1.33792e-18)
(0.003 5.86513e-19 1.38508e-18)
(0.003 6.8408e-19 1.43039e-18)
(0.003 5.86808e-19 1.36518e-18)
(0.003 5.87731e-19 1.26681e-18)
(0.003 4.57278e-19 1.23377e-18)
(0.003 3.9379e-19 1.1724e-18)
(0.003 3.71061e-19 1.14627e-18)
(0.003 3.76884e-19 1.05757e-18)
(0.003 3.13397e-19 9.67248e-19)
(0.003 2.96151e-19 9.48664e-19)
(0.003 2.72612e-19 8.9645e-19)
(0.003 3.4244e-19 8.92934e-19)
(0.003 4.86285e-19 7.83932e-19)
(0.003 2.32667e-19 6.10318e-19)
(0.003 1.16069e-19 5.23545e-19)
(0.003 2.99064e-19 6.03032e-19)
(0.003 2.88202e-19 6.37798e-19)
(0.003 3.40688e-19 6.17929e-19)
(0.003 2.6305e-19 6.38559e-19)
(0.003 3.19774e-19 5.59164e-19)
(0.003 2.52997e-19 5.33773e-19)
(0.003 2.22526e-19 5.38765e-19)
(0.003 1.03137e-19 5.80402e-19)
(0.003 1.47778e-19 5.3012e-19)
(0.003 2.06762e-19 4.8563e-19)
(0.003 1.9077e-19 4.10671e-19)
(0.003 9.36916e-20 2.82293e-19)
(0.003 -6.18605e-20 2.72987e-19)
(0.003 -3.25015e-20 2.32058e-19)
(0.003 5.80068e-20 2.04303e-19)
(0.003 2.35948e-20 1.67568e-19)
(0.003 4.70431e-21 7.82596e-20)
(0.003 -4.06817e-20 6.54921e-20)
(0.003 -7.3309e-20 8.31603e-20)
(0.003 -1.00155e-19 5.30126e-20)
(0.003 3.83307e-19 7.16258e-19)
(0.003 3.15004e-19 1.17123e-18)
(0.003 2.02113e-19 1.372e-18)
(0.003 3.37012e-19 1.5095e-18)
(0.003 4.31124e-19 1.47222e-18)
(0.003 5.03641e-19 1.55632e-18)
(0.003 4.95855e-19 1.56422e-18)
(0.003 4.58194e-19 1.38476e-18)
(0.003 3.94511e-19 1.30857e-18)
(0.003 4.70337e-19 1.33562e-18)
(0.003 4.73847e-19 1.33327e-18)
(0.003 3.22954e-19 1.34328e-18)
(0.003 2.86009e-19 1.14396e-18)
(0.003 2.89454e-19 1.05724e-18)
(0.003 5.07705e-19 1.07026e-18)
(0.003 6.32455e-19 9.32744e-19)
(0.003 3.07467e-19 8.7164e-19)
(0.003 2.55135e-19 8.96866e-19)
(0.003 3.18657e-19 7.06468e-19)
(0.003 2.03521e-19 5.72829e-19)
(0.003 1.55333e-19 6.79066e-19)
(0.003 2.0284e-19 7.24292e-19)
(0.003 3.01031e-19 7.24709e-19)
(0.003 2.74039e-19 7.37697e-19)
(0.003 3.24484e-19 7.06336e-19)
(0.003 1.89734e-19 5.59588e-19)
(0.003 1.26308e-19 5.16262e-19)
(0.003 9.66446e-20 5.0592e-19)
(0.003 1.25018e-19 5.65051e-19)
(0.003 4.34841e-20 5.38166e-19)
(0.003 4.94585e-20 3.98006e-19)
(0.003 3.26844e-20 2.82256e-19)
(0.003 -5.10616e-20 3.34288e-19)
(0.003 -2.54314e-20 2.52809e-19)
(0.003 9.75162e-20 1.96444e-19)
(0.003 4.94648e-20 1.71146e-19)
(0.003 4.99561e-20 1.00754e-19)
(0.003 9.554e-21 7.13114e-20)
(0.003 -3.16928e-20 9.38546e-20)
(0.003 1.04554e-20 7.82747e-20)
(0.003 2.17838e-19 7.96111e-19)
(0.003 2.60678e-19 1.30223e-18)
(0.003 1.40583e-19 1.41059e-18)
(0.003 1.91315e-19 1.58747e-18)
(0.003 2.92093e-19 1.64118e-18)
(0.003 2.14335e-19 1.72041e-18)
(0.003 1.25151e-19 1.62818e-18)
(0.003 4.23686e-19 1.43305e-18)
(0.003 5.6756e-19 1.31686e-18)
(0.003 5.19436e-19 1.45284e-18)
(0.003 3.84894e-19 1.44142e-18)
(0.003 2.62131e-19 1.28297e-18)
(0.003 3.10136e-19 1.16791e-18)
(0.003 3.08974e-19 1.17822e-18)
(0.003 4.16344e-19 1.25795e-18)
(0.003 5.30119e-19 1.19139e-18)
(0.003 3.11121e-19 9.63284e-19)
(0.003 1.62892e-19 8.12883e-19)
(0.003 3.06214e-19 7.79428e-19)
(0.003 3.24985e-19 6.2272e-19)
(0.003 1.68121e-19 6.31278e-19)
(0.003 1.5279e-19 7.66271e-19)
(0.003 1.70233e-19 7.9944e-19)
(0.003 2.3236e-19 7.94221e-19)
(0.003 2.03841e-19 7.51439e-19)
(0.003 1.75284e-19 6.42614e-19)
(0.003 1.48248e-19 5.2255e-19)
(0.003 1.03662e-19 5.5696e-19)
(0.003 9.28679e-20 5.7795e-19)
(0.003 -3.18786e-21 4.37958e-19)
(0.003 7.97251e-20 3.59202e-19)
(0.003 1.09977e-19 3.50419e-19)
(0.003 -1.74753e-20 2.80176e-19)
(0.003 -1.51653e-20 2.17433e-19)
(0.003 2.94701e-20 2.09364e-19)
(0.003 -1.00647e-20 1.89878e-19)
(0.003 1.242e-20 8.24928e-20)
(0.003 3.36625e-20 -3.27511e-21)
(0.003 -8.20974e-20 6.40207e-20)
(0.003 -6.18537e-20 1.51718e-19)
(0.003 4.7456e-20 7.91723e-19)
(0.003 2.05179e-19 1.31034e-18)
(0.003 1.36454e-19 1.4447e-18)
(0.003 1.14195e-19 1.62817e-18)
(0.003 2.03121e-19 1.76752e-18)
(0.003 2.13768e-19 1.74411e-18)
(0.003 2.0689e-19 1.65217e-18)
(0.003 4.17159e-19 1.67965e-18)
(0.003 5.79681e-19 1.55858e-18)
(0.003 4.31142e-19 1.43018e-18)
(0.003 3.56301e-19 1.37554e-18)
(0.003 3.81486e-19 1.38644e-18)
(0.003 3.08066e-19 1.29128e-18)
(0.003 3.23504e-19 1.18651e-18)
(0.003 2.462e-19 1.29987e-18)
(0.003 2.56701e-19 1.25057e-18)
(0.003 2.44607e-19 1.02193e-18)
(0.003 5.21025e-20 8.41803e-19)
(0.003 8.01195e-20 7.34577e-19)
(0.003 2.72304e-19 6.42292e-19)
(0.003 2.85216e-19 6.94993e-19)
(0.003 3.44175e-19 8.03553e-19)
(0.003 3.00835e-19 8.23405e-19)
(0.003 2.5443e-19 8.04125e-19)
(0.003 1.72685e-19 7.4954e-19)
(0.003 2.2787e-19 6.2269e-19)
(0.003 2.3377e-19 5.96402e-19)
(0.003 3.26721e-20 5.38033e-19)
(0.003 -1.09999e-19 5.24614e-19)
(0.003 -2.8691e-20 5.28598e-19)
(0.003 2.1289e-19 4.63674e-19)
(0.003 2.19381e-19 3.4595e-19)
(0.003 -1.86478e-20 1.81363e-19)
(0.003 -1.61561e-20 2.52708e-19)
(0.003 -2.31905e-20 2.87251e-19)
(0.003 5.75157e-20 1.18081e-19)
(0.003 1.34787e-20 1.08421e-20)
(0.003 4.53055e-20 -8.9921e-20)
(0.003 1.14093e-19 -3.10659e-20)
(0.003 5.69087e-20 1.4764e-19)
(0.003 4.218e-20 9.65641e-19)
(0.003 2.17631e-19 1.52562e-18)
(0.003 2.4031e-19 1.50028e-18)
(0.003 9.63848e-20 1.61707e-18)
(0.003 1.82813e-19 1.80776e-18)
(0.003 2.22877e-19 1.87101e-18)
(0.003 3.11701e-19 1.75286e-18)
(0.003 5.15089e-19 1.66286e-18)
(0.003 5.30286e-19 1.65798e-18)
(0.003 3.99784e-19 1.60039e-18)
(0.003 2.70535e-19 1.53584e-18)
(0.003 2.51536e-19 1.39957e-18)
(0.003 2.68936e-19 1.31488e-18)
(0.003 3.60236e-19 1.29329e-18)
(0.003 2.38078e-19 1.27396e-18)
(0.003 1.72783e-19 1.22799e-18)
(0.003 2.00282e-19 1.00962e-18)
(0.003 1.84377e-19 7.78694e-19)
(0.003 1.77232e-19 6.88457e-19)
(0.003 1.02005e-19 6.94038e-19)
(0.003 2.24557e-19 7.87526e-19)
(0.003 2.93621e-19 8.60831e-19)
(0.003 2.65255e-19 8.49987e-19)
(0.003 2.0242e-19 8.69142e-19)
(0.003 9.8207e-20 7.2239e-19)
(0.003 2.62924e-19 6.76431e-19)
(0.003 2.00372e-19 6.06598e-19)
(0.003 9.25855e-20 5.02188e-19)
(0.003 2.6304e-20 4.60856e-19)
(0.003 5.04646e-20 4.30941e-19)
(0.003 9.12615e-20 4.86849e-19)
(0.003 7.12453e-20 3.67368e-19)
(0.003 4.38281e-20 1.05305e-19)
(0.003 7.74445e-20 1.84124e-19)
(0.003 9.01975e-20 2.58669e-19)
(0.003 1.78121e-19 2.06888e-19)
(0.003 3.87854e-20 6.17901e-20)
(0.003 3.96626e-21 -3.45007e-20)
(0.003 8.37491e-20 2.77231e-20)
(0.003 5.94351e-20 7.36628e-20)
(0.003 1.52518e-19 8.41919e-19)
(0.003 1.58383e-19 1.41459e-18)
(0.003 1.9343e-19 1.56606e-18)
(0.003 2.25619e-19 1.72362e-18)
(0.003 2.31881e-19 1.94256e-18)
(0.003 2.93948e-19 1.92575e-18)
(0.003 3.994e-19 1.77647e-18)
(0.003 3.57795e-19 1.7995e-18)
(0.003 3.24111e-19 1.7884e-18)
(0.003 3.57224e-19 1.73311e-18)
(0.003 2.01526e-19 1.5807e-18)
(0.003 1.70764e-19 1.44571e-18)
(0.003 2.86504e-19 1.30756e-18)
(0.003 3.18243e-19 1.24002e-18)
(0.003 2.66514e-19 1.32237e-18)
(0.003 1.71496e-19 1.33517e-18)
(0.003 9.24173e-20 1.08028e-18)
(0.003 1.73271e-19 7.69816e-19)
(0.003 3.05303e-19 6.1545e-19)
(0.003 2.70961e-19 5.851e-19)
(0.003 1.39869e-19 7.2927e-19)
(0.003 1.29663e-19 8.99544e-19)
(0.003 1.63665e-19 9.29195e-19)
(0.003 1.12765e-19 9.39595e-19)
(0.003 1.5314e-19 7.79093e-19)
(0.003 2.22207e-19 6.78517e-19)
(0.003 2.17038e-19 6.02364e-19)
(0.003 1.96523e-19 5.29938e-19)
(0.003 9.28803e-20 4.00315e-19)
(0.003 1.10158e-19 4.14192e-19)
(0.003 -4.12637e-20 4.99743e-19)
(0.003 -5.6175e-20 3.64531e-19)
(0.003 6.16124e-20 2.36252e-19)
(0.003 7.02014e-20 2.4132e-19)
(0.003 1.81477e-19 2.31372e-19)
(0.003 4.33718e-20 -4.68745e-21)
(0.003 -4.46475e-20 -6.90932e-20)
(0.003 6.28765e-21 7.31919e-20)
(0.003 6.07584e-22 4.64727e-20)
(0.003 4.99113e-20 3.11312e-20)
(0.003 -6.64429e-20 8.36482e-19)
(0.003 -3.5148e-20 1.58979e-18)
(0.003 1.02848e-19 1.68503e-18)
(0.003 1.66878e-19 1.81104e-18)
(0.003 2.80466e-19 1.92326e-18)
(0.003 4.38622e-19 1.95571e-18)
(0.003 3.98235e-19 1.91444e-18)
(0.003 1.62783e-19 1.84584e-18)
(0.003 1.22159e-19 1.80511e-18)
(0.003 2.52496e-19 1.79505e-18)
(0.003 2.37543e-19 1.57368e-18)
(0.003 1.48178e-19 1.45971e-18)
(0.003 2.03772e-19 1.38638e-18)
(0.003 2.23986e-19 1.26919e-18)
(0.003 2.72221e-19 1.2881e-18)
(0.003 1.8788e-19 1.27294e-18)
(0.003 2.33546e-19 1.08029e-18)
(0.003 2.01627e-19 7.7431e-19)
(0.003 7.23474e-20 7.57322e-19)
(0.003 1.65048e-19 7.38032e-19)
(0.003 2.38693e-19 7.06523e-19)
(0.003 1.96767e-19 8.84065e-19)
(0.003 2.48242e-19 1.00017e-18)
(0.003 2.32827e-19 1.01846e-18)
(0.003 2.34612e-19 7.92277e-19)
(0.003 1.18427e-19 6.63854e-19)
(0.003 2.42013e-20 6.11625e-19)
(0.003 9.98228e-20 5.31821e-19)
(0.003 1.35184e-19 4.03757e-19)
(0.003 9.03471e-20 4.28031e-19)
(0.003 -1.0979e-19 4.7938e-19)
(0.003 -1.25692e-19 3.67033e-19)
(0.003 5.7626e-20 2.42557e-19)
(0.003 5.56947e-20 1.82582e-19)
(0.003 5.38993e-21 -3.25693e-21)
(0.003 3.56689e-21 -2.03504e-19)
(0.003 1.3169e-19 -3.45194e-20)
(0.003 5.91062e-20 6.01492e-20)
(0.003 -1.99137e-21 1.27566e-20)
(0.003 -8.68846e-21 -2.2848e-20)
(0.003 -1.89621e-19 9.10562e-19)
(0.003 -2.18569e-20 1.45405e-18)
(0.003 1.4991e-19 1.63468e-18)
(0.003 2.8504e-19 1.86485e-18)
(0.003 2.32022e-19 2.04994e-18)
(0.003 2.14768e-19 2.06008e-18)
(0.003 3.5179e-19 2.00998e-18)
(0.003 2.78569e-19 1.93454e-18)
(0.003 1.89507e-19 1.74052e-18)
(0.003 1.2584e-19 1.70284e-18)
(0.003 2.53599e-19 1.58111e-18)
(0.003 1.61986e-19 1.41326e-18)
(0.003 5.72618e-20 1.37087e-18)
(0.003 1.50541e-19 1.30797e-18)
(0.003 2.47498e-19 1.3461e-18)
(0.003 2.78758e-19 1.29284e-18)
(0.003 2.9463e-19 1.07179e-18)
(0.003 1.57255e-19 8.15119e-19)
(0.003 -7.53173e-20 6.75409e-19)
(0.003 3.66429e-20 6.56735e-19)
(0.003 3.00543e-19 8.20424e-19)
(0.003 3.71316e-19 9.9879e-19)
(0.003 2.37672e-19 1.10623e-18)
(0.003 2.66212e-19 1.09165e-18)
(0.003 3.67323e-19 9.25739e-19)
(0.003 1.13402e-19 7.04725e-19)
(0.003 -1.68062e-19 4.93656e-19)
(0.003 -1.09225e-19 4.85538e-19)
(0.003 6.15942e-20 5.18935e-19)
(0.003 1.14919e-19 4.47839e-19)
(0.003 1.67246e-20 3.3848e-19)
(0.003 -6.02147e-20 3.73883e-19)
(0.003 2.77314e-20 3.33288e-19)
(0.003 -1.84185e-20 2.09737e-19)
(0.003 -1.07062e-19 6.82474e-20)
(0.003 8.44918e-20 -2.14634e-19)
(0.003 1.85761e-19 -4.84148e-19)
(0.003 1.2357e-19 -3.10346e-19)
(0.003 8.68308e-20 -1.38839e-19)
(0.003 5.60171e-20 -1.48854e-19)
(0.003 5.20419e-20 1.0761e-18)
(0.003 1.74992e-19 1.6298e-18)
(0.003 2.49525e-19 1.74124e-18)
(0.003 2.66834e-19 1.91194e-18)
(0.003 1.79614e-19 2.00795e-18)
(0.003 2.12253e-19 2.04089e-18)
(0.003 2.20105e-19 2.0913e-18)
(0.003 2.36845e-19 2.04225e-18)
(0.003 1.65145e-19 1.84647e-18)
(0.003 1.61101e-19 1.63796e-18)
(0.003 2.23997e-19 1.43769e-18)
(0.003 1.33149e-19 1.35162e-18)
(0.003 8.98643e-20 1.30654e-18)
(0.003 1.75902e-19 1.20345e-18)
(0.003 1.91236e-19 1.33863e-18)
(0.003 2.68955e-19 1.36345e-18)
(0.003 2.48749e-19 1.14375e-18)
(0.003 1.472e-19 7.82355e-19)
(0.003 8.53366e-20 6.49579e-19)
(0.003 1.04744e-19 7.4637e-19)
(0.003 2.44154e-19 9.2812e-19)
(0.003 3.60849e-19 1.10248e-18)
(0.003 2.31746e-19 1.14262e-18)
(0.003 1.58971e-19 1.11349e-18)
(0.003 1.36444e-19 8.86109e-19)
(0.003 1.00896e-20 5.80587e-19)
(0.003 6.50602e-21 5.45991e-19)
(0.003 4.89805e-20 5.44928e-19)
(0.003 2.38186e-20 4.79995e-19)
(0.003 1.84925e-20 5.38775e-19)
(0.003 -3.24211e-21 5.02806e-19)
(0.003 -1.89953e-20 3.3796e-19)
(0.003 4.77785e-20 2.47119e-19)
(0.003 5.71702e-21 9.92707e-20)
(0.003 -5.57893e-20 4.97325e-20)
(0.003 -6.83787e-20 -1.685e-19)
(0.003 -1.03835e-19 -5.16255e-19)
(0.003 4.72017e-20 -3.10799e-19)
(0.003 1.44582e-19 -2.32379e-19)
(0.003 1.60921e-19 -2.28653e-19)
(0.003 2.31217e-19 1.09021e-18)
(0.003 2.32355e-19 1.68605e-18)
(0.003 1.61438e-19 1.79977e-18)
(0.003 1.57118e-19 1.85867e-18)
(0.003 2.41834e-19 2.01846e-18)
(0.003 1.91558e-19 2.12475e-18)
(0.003 1.33927e-19 2.05216e-18)
(0.003 2.53394e-19 2.07637e-18)
(0.003 1.48495e-19 1.78894e-18)
(0.003 8.60962e-20 1.67322e-18)
(0.003 1.92471e-19 1.52656e-18)
(0.003 1.58545e-19 1.32293e-18)
(0.003 1.62895e-19 1.36921e-18)
(0.003 1.90666e-19 1.29378e-18)
(0.003 1.4695e-19 1.30788e-18)
(0.003 9.73677e-20 1.29074e-18)
(0.003 9.38911e-20 1.10583e-18)
(0.003 2.19103e-19 8.18843e-19)
(0.003 3.58887e-19 7.46941e-19)
(0.003 2.44436e-19 8.1369e-19)
(0.003 1.31683e-19 9.33386e-19)
(0.003 1.28721e-19 1.05579e-18)
(0.003 4.90112e-20 1.02514e-18)
(0.003 9.19554e-20 1.02187e-18)
(0.003 -5.55378e-20 9.48151e-19)
(0.003 -6.42354e-20 7.13971e-19)
(0.003 7.46637e-20 6.15402e-19)
(0.003 9.38098e-20 5.97042e-19)
(0.003 3.91112e-20 4.56643e-19)
(0.003 -1.59725e-19 5.30232e-19)
(0.003 3.2571e-20 5.1371e-19)
(0.003 1.43794e-19 3.4656e-19)
(0.003 -4.34508e-20 2.11177e-19)
(0.003 6.04938e-20 8.19065e-21)
(0.003 1.74419e-19 -4.29778e-20)
(0.003 -1.47962e-19 -1.77286e-19)
(0.003 -2.20581e-19 -4.3539e-19)
(0.003 -5.25277e-20 -3.1225e-19)
(0.003 3.05498e-20 -3.37863e-19)
(0.003 4.24375e-20 -3.67597e-19)
(0.003 2.50889e-19 1.08576e-18)
(0.003 2.79124e-19 1.67526e-18)
(0.003 2.39926e-19 1.83681e-18)
(0.003 2.53976e-19 1.99212e-18)
(0.003 1.14163e-19 2.11792e-18)
(0.003 -9.42866e-21 2.10335e-18)
(0.003 1.34586e-19 2.04163e-18)
(0.003 1.16821e-19 1.99843e-18)
(0.003 1.58115e-19 1.78043e-18)
(0.003 1.33005e-19 1.65111e-18)
(0.003 4.0796e-20 1.54129e-18)
(0.003 1.91515e-19 1.43688e-18)
(0.003 2.66882e-19 1.39659e-18)
(0.003 1.81978e-19 1.36185e-18)
(0.003 1.33261e-19 1.3144e-18)
(0.003 8.54619e-20 1.25276e-18)
(0.003 1.2584e-19 1.02666e-18)
(0.003 1.79966e-19 8.15301e-19)
(0.003 2.50663e-19 8.37526e-19)
(0.003 3.09414e-19 8.97921e-19)
(0.003 1.96524e-19 9.04569e-19)
(0.003 7.21493e-20 1.0106e-18)
(0.003 9.64676e-20 1.00592e-18)
(0.003 -1.63713e-20 1.05318e-18)
(0.003 -1.5559e-19 9.14255e-19)
(0.003 -1.42529e-19 6.84955e-19)
(0.003 -1.08073e-19 6.30234e-19)
(0.003 2.75732e-20 6.60867e-19)
(0.003 2.44387e-20 5.14297e-19)
(0.003 -1.66601e-19 4.25949e-19)
(0.003 -9.94628e-23 5.06695e-19)
(0.003 1.43371e-19 4.19293e-19)
(0.003 2.33915e-20 1.92311e-19)
(0.003 7.04343e-20 1.03551e-19)
(0.003 1.09619e-19 3.59139e-20)
(0.003 -5.59553e-20 -3.69149e-19)
(0.003 -7.81447e-20 -4.59726e-19)
(0.003 -1.10982e-19 -2.84279e-19)
(0.003 -2.47521e-19 -2.71533e-19)
(0.003 -2.78816e-19 -3.44108e-19)
(0.003 -1.09687e-20 1.17564e-18)
(0.003 2.10381e-19 1.83175e-18)
(0.003 2.77107e-19 1.91772e-18)
(0.003 1.40497e-19 2.0306e-18)
(0.003 -3.24902e-20 2.07547e-18)
(0.003 -3.17735e-20 2.08931e-18)
(0.003 8.42538e-20 2.04104e-18)
(0.003 1.70114e-19 1.86981e-18)
(0.003 1.78637e-19 1.71465e-18)
(0.003 3.45344e-20 1.73127e-18)
(0.003 -3.15886e-20 1.58966e-18)
(0.003 2.64405e-19 1.45492e-18)
(0.003 3.10158e-19 1.44994e-18)
(0.003 1.61654e-19 1.35636e-18)
(0.003 7.34677e-20 1.32251e-18)
(0.003 7.14806e-20 1.25851e-18)
(0.003 2.04453e-19 1.13767e-18)
(0.003 3.1963e-19 9.34727e-19)
(0.003 2.93036e-19 8.08365e-19)
(0.003 2.53591e-19 8.6399e-19)
(0.003 2.69709e-19 9.05818e-19)
(0.003 6.0898e-20 1.01846e-18)
(0.003 3.55753e-20 1.05708e-18)
(0.003 -8.73138e-20 9.98578e-19)
(0.003 -1.03439e-19 8.85175e-19)
(0.003 -2.05177e-20 6.81118e-19)
(0.003 -3.50975e-20 5.01176e-19)
(0.003 -7.44163e-20 6.09237e-19)
(0.003 -1.08409e-19 6.01211e-19)
(0.003 -8.60275e-20 4.38815e-19)
(0.003 -2.04145e-19 5.31354e-19)
(0.003 -9.15134e-20 4.78571e-19)
(0.003 8.66267e-20 2.70955e-19)
(0.003 -3.45252e-20 1.2128e-19)
(0.003 -1.01569e-19 -3.46234e-20)
(0.003 -4.02241e-20 -3.84715e-19)
(0.003 -5.33209e-20 -5.40857e-19)
(0.003 -1.25056e-19 -4.93325e-19)
(0.003 -1.8092e-19 -4.15497e-19)
(0.003 -2.52512e-19 -4.35433e-19)
(0.003 -2.23268e-19 1.20112e-18)
(0.003 -1.86451e-19 1.81914e-18)
(0.003 9.95157e-20 1.9908e-18)
(0.003 4.8015e-20 1.97292e-18)
(0.003 6.05445e-20 2.06456e-18)
(0.003 2.5272e-20 2.0718e-18)
(0.003 3.43261e-20 2.00338e-18)
(0.003 1.3002e-19 1.87717e-18)
(0.003 4.5288e-20 1.78642e-18)
(0.003 -7.08803e-20 1.71017e-18)
(0.003 9.61037e-20 1.59641e-18)
(0.003 2.58505e-19 1.55714e-18)
(0.003 2.3247e-19 1.53252e-18)
(0.003 1.15693e-19 1.3702e-18)
(0.003 1.20237e-19 1.22112e-18)
(0.003 1.34773e-19 1.23615e-18)
(0.003 1.75512e-19 1.14619e-18)
(0.003 3.06522e-19 9.9416e-19)
(0.003 2.62787e-19 9.65192e-19)
(0.003 1.93736e-19 9.25852e-19)
(0.003 2.34368e-19 9.41964e-19)
(0.003 1.13895e-19 9.61439e-19)
(0.003 -2.51848e-20 1.06729e-18)
(0.003 -1.66455e-19 9.7738e-19)
(0.003 -1.53972e-19 8.32326e-19)
(0.003 7.74675e-20 7.17572e-19)
(0.003 1.23404e-19 5.57351e-19)
(0.003 -7.5088e-20 6.14503e-19)
(0.003 -1.52059e-19 5.46998e-19)
(0.003 -6.98781e-20 3.74529e-19)
(0.003 -1.11754e-19 4.30923e-19)
(0.003 -1.49743e-19 4.57721e-19)
(0.003 -1.96611e-20 3.57589e-19)
(0.003 -1.68001e-20 9.6076e-20)
(0.003 -7.00306e-20 -4.98216e-20)
(0.003 -6.32329e-20 -3.20564e-19)
(0.003 -1.53778e-19 -5.02335e-19)
(0.003 -9.15139e-20 -4.22739e-19)
(0.003 -9.74842e-20 -4.10953e-19)
(0.003 -2.29154e-19 -4.74013e-19)
(0.003 -8.12469e-20 1.12562e-18)
(0.003 -2.55215e-19 1.80928e-18)
(0.003 -1.7597e-19 2.08627e-18)
(0.003 -1.4722e-19 2.08406e-18)
(0.003 4.84216e-21 2.12461e-18)
(0.003 3.72529e-20 2.08229e-18)
(0.003 -4.18781e-20 1.95969e-18)
(0.003 1.67328e-20 1.88341e-18)
(0.003 3.50833e-20 1.76433e-18)
(0.003 3.00752e-20 1.60861e-18)
(0.003 1.18507e-19 1.63272e-18)
(0.003 1.3071e-19 1.63744e-18)
(0.003 2.51454e-20 1.60444e-18)
(0.003 1.48925e-19 1.40628e-18)
(0.003 2.646e-19 1.30656e-18)
(0.003 1.61102e-19 1.25344e-18)
(0.003 1.20581e-19 1.08374e-18)
(0.003 1.64596e-19 9.8534e-19)
(0.003 1.87814e-19 9.04885e-19)
(0.003 1.25676e-19 8.8409e-19)
(0.003 1.48073e-19 9.36013e-19)
(0.003 1.35993e-19 1.07685e-18)
(0.003 4.04806e-20 1.09235e-18)
(0.003 -1.51566e-19 8.77785e-19)
(0.003 -1.36725e-19 6.94701e-19)
(0.003 -1.20149e-19 7.29626e-19)
(0.003 1.84256e-20 6.13421e-19)
(0.003 6.82952e-20 5.19582e-19)
(0.003 -3.67334e-20 5.33032e-19)
(0.003 1.06939e-20 3.98388e-19)
(0.003 -4.94921e-20 3.83021e-19)
(0.003 -6.55393e-20 4.13534e-19)
(0.003 -7.70866e-21 3.89301e-19)
(0.003 -8.85261e-20 1.81935e-19)
(0.003 -1.828e-19 -3.74392e-20)
(0.003 -1.65703e-19 -3.57585e-19)
(0.003 -6.00748e-20 -4.2926e-19)
(0.003 -1.4551e-19 -2.32962e-19)
(0.003 -1.19275e-19 -3.14423e-19)
(0.003 -8.45108e-20 -4.25117e-19)
(0.003 -1.53161e-19 1.0515e-18)
(0.003 -1.22696e-19 1.74157e-18)
(0.003 -5.68162e-20 2.03297e-18)
(0.003 -1.44541e-19 2.05747e-18)
(0.003 -1.71377e-19 2.12238e-18)
(0.003 -2.29321e-20 2.07848e-18)
(0.003 -9.29299e-20 2.04214e-18)
(0.003 -1.58456e-19 2.00047e-18)
(0.003 6.15888e-20 1.87523e-18)
(0.003 2.79861e-19 1.67998e-18)
(0.003 1.41828e-19 1.6289e-18)
(0.003 6.38527e-20 1.65154e-18)
(0.003 -5.42232e-20 1.56734e-18)
(0.003 6.03584e-20 1.47653e-18)
(0.003 2.49721e-19 1.3263e-18)
(0.003 2.20793e-19 1.20275e-18)
(0.003 1.14825e-19 1.0597e-18)
(0.003 -8.35175e-21 9.91322e-19)
(0.003 1.66064e-19 1.00158e-18)
(0.003 2.46256e-19 9.29929e-19)
(0.003 2.31263e-19 1.01652e-18)
(0.003 2.33552e-21 9.58876e-19)
(0.003 -1.72615e-19 9.6519e-19)
(0.003 -1.42412e-19 7.92318e-19)
(0.003 -5.1531e-20 7.15083e-19)
(0.003 -4.33121e-20 6.75579e-19)
(0.003 3.68377e-20 5.65112e-19)
(0.003 1.05798e-19 6.19375e-19)
(0.003 4.30454e-20 5.27068e-19)
(0.003 4.87686e-20 4.22535e-19)
(0.003 1.37456e-20 3.57453e-19)
(0.003 -1.00698e-19 3.40009e-19)
(0.003 -1.7239e-19 3.33635e-19)
(0.003 -1.82099e-19 2.51074e-19)
(0.003 -2.9764e-19 1.59609e-19)
(0.003 -1.98967e-19 -1.50517e-19)
(0.003 2.73297e-20 -4.13466e-19)
(0.003 7.12132e-20 -2.06667e-19)
(0.003 -9.65001e-20 -3.77866e-19)
(0.003 -1.0622e-19 -5.01415e-19)
(0.003 -1.91059e-19 9.919e-19)
(0.003 -1.80174e-19 1.78213e-18)
(0.003 -1.25181e-19 2.13978e-18)
(0.003 -8.2982e-22 2.09538e-18)
(0.003 -1.0729e-20 2.01488e-18)
(0.003 -1.14251e-19 2.07027e-18)
(0.003 -2.09544e-19 2.02074e-18)
(0.003 -1.94629e-19 1.96719e-18)
(0.003 2.72689e-20 1.94652e-18)
(0.003 1.47979e-19 1.81332e-18)
(0.003 1.32034e-19 1.65752e-18)
(0.003 3.8287e-20 1.62358e-18)
(0.003 8.6906e-20 1.56437e-18)
(0.003 9.40923e-21 1.45961e-18)
(0.003 1.07284e-19 1.43399e-18)
(0.003 1.66224e-19 1.30473e-18)
(0.003 1.1641e-19 1.13254e-18)
(0.003 1.71573e-19 9.26542e-19)
(0.003 2.34434e-19 9.10193e-19)
(0.003 2.62933e-19 9.23053e-19)
(0.003 7.1362e-20 1.03421e-18)
(0.003 -2.2284e-19 1.05833e-18)
(0.003 -2.57319e-19 9.2009e-19)
(0.003 -6.9528e-20 7.22381e-19)
(0.003 -4.38917e-20 7.43676e-19)
(0.003 6.03954e-20 7.36356e-19)
(0.003 1.24133e-19 6.90376e-19)
(0.003 2.76711e-20 5.594e-19)
(0.003 4.72938e-20 4.9775e-19)
(0.003 7.88599e-20 4.32481e-19)
(0.003 8.92264e-20 3.11474e-19)
(0.003 -1.25356e-19 2.49316e-19)
(0.003 -2.40784e-19 2.96215e-19)
(0.003 -1.35871e-19 3.1892e-19)
(0.003 -1.56021e-19 1.12184e-19)
(0.003 -1.20537e-19 -3.26405e-20)
(0.003 -8.10782e-20 -1.25846e-19)
(0.003 -1.1354e-20 -1.59759e-19)
(0.003 6.52382e-20 -3.56119e-19)
(0.003 1.14295e-19 -4.4562e-19)
(0.003 -9.58147e-20 1.00357e-18)
(0.003 -1.37112e-19 1.71756e-18)
(0.003 -1.42784e-19 2.03166e-18)
(0.003 1.94552e-20 2.1059e-18)
(0.003 -1.13616e-20 2.12641e-18)
(0.003 -2.46147e-19 2.05372e-18)
(0.003 -2.44146e-19 2.00828e-18)
(0.003 -1.45445e-19 2.04466e-18)
(0.003 7.19742e-20 1.99611e-18)
(0.003 6.49239e-20 1.85033e-18)
(0.003 -1.27433e-21 1.66785e-18)
(0.003 5.78319e-20 1.63094e-18)
(0.003 1.41937e-19 1.58059e-18)
(0.003 1.43314e-19 1.48392e-18)
(0.003 9.90727e-21 1.42729e-18)
(0.003 -2.47761e-21 1.35322e-18)
(0.003 5.12775e-20 1.23228e-18)
(0.003 1.63597e-19 1.03166e-18)
(0.003 2.76386e-19 9.44331e-19)
(0.003 1.36948e-19 9.20509e-19)
(0.003 -1.22891e-19 9.45359e-19)
(0.003 -1.65795e-19 9.15822e-19)
(0.003 -8.40459e-20 9.71299e-19)
(0.003 -1.03973e-20 8.76373e-19)
(0.003 -7.00693e-20 7.10805e-19)
(0.003 -4.06893e-20 6.91813e-19)
(0.003 1.4562e-19 6.99472e-19)
(0.003 1.67878e-19 5.8881e-19)
(0.003 8.34598e-20 4.52588e-19)
(0.003 2.91511e-20 4.36795e-19)
(0.003 2.56291e-20 3.58677e-19)
(0.003 -5.67834e-20 2.01896e-19)
(0.003 -8.97228e-20 2.45202e-19)
(0.003 -5.9684e-20 3.81586e-19)
(0.003 -3.31219e-20 1.67168e-19)
(0.003 -5.98705e-20 5.42908e-20)
(0.003 -9.81419e-21 -1.76945e-20)
(0.003 -2.08117e-20 -1.05182e-19)
(0.003 7.37627e-20 -3.09739e-19)
(0.003 1.71155e-19 -3.85202e-19)
(0.003 1.16282e-19 1.02403e-18)
(0.003 1.41426e-19 1.76773e-18)
(0.003 4.87287e-20 1.92732e-18)
(0.003 -1.26113e-19 1.982e-18)
(0.003 -2.65244e-19 2.0879e-18)
(0.003 -1.99824e-19 1.99753e-18)
(0.003 -8.76921e-20 1.96841e-18)
(0.003 -1.15496e-19 2.03278e-18)
(0.003 -9.27569e-20 2.09948e-18)
(0.003 3.1721e-20 1.9709e-18)
(0.003 1.27031e-19 1.6956e-18)
(0.003 1.42528e-19 1.67269e-18)
(0.003 1.95841e-19 1.53125e-18)
(0.003 2.19618e-19 1.55509e-18)
(0.003 6.59549e-21 1.5056e-18)
(0.003 -1.81404e-19 1.39724e-18)
(0.003 -1.7567e-19 1.16877e-18)
(0.003 -1.41205e-19 9.39704e-19)
(0.003 2.45694e-20 1.00096e-18)
(0.003 1.78288e-20 8.96628e-19)
(0.003 -1.01673e-19 8.84447e-19)
(0.003 -1.49958e-20 9.71057e-19)
(0.003 -9.11337e-21 1.03308e-18)
(0.003 4.04758e-20 9.10273e-19)
(0.003 1.36796e-19 6.84861e-19)
(0.003 3.5458e-20 6.51497e-19)
(0.003 4.47693e-20 7.28652e-19)
(0.003 9.21653e-20 6.82818e-19)
(0.003 8.24565e-20 5.04919e-19)
(0.003 3.07817e-22 3.84952e-19)
(0.003 -4.638e-20 3.68354e-19)
(0.003 -4.0184e-20 2.34076e-19)
(0.003 -2.15789e-20 2.14173e-19)
(0.003 -2.62919e-20 2.93446e-19)
(0.003 7.86312e-20 1.94738e-19)
(0.003 1.02609e-19 1.64677e-19)
(0.003 3.04905e-20 3.25194e-20)
(0.003 -2.15068e-20 -2.33404e-19)
(0.003 -3.71956e-20 -4.81307e-19)
(0.003 -3.49189e-20 -5.28812e-19)
(0.003 3.52421e-19 1.0577e-18)
(0.003 2.38463e-19 1.67944e-18)
(0.003 -1.35376e-20 1.84174e-18)
(0.003 -1.23597e-19 1.94621e-18)
(0.003 -8.97292e-20 1.95838e-18)
(0.003 3.6305e-21 1.96658e-18)
(0.003 2.16597e-20 1.98747e-18)
(0.003 -1.46235e-19 1.98369e-18)
(0.003 -2.33696e-19 2.00672e-18)
(0.003 -5.82455e-20 2.07501e-18)
(0.003 1.8452e-19 1.92883e-18)
(0.003 1.8163e-19 1.78667e-18)
(0.003 1.47476e-19 1.61565e-18)
(0.003 1.71985e-19 1.56541e-18)
(0.003 -3.84414e-20 1.46506e-18)
(0.003 -1.56179e-19 1.29963e-18)
(0.003 -1.36117e-19 1.12482e-18)
(0.003 -1.52242e-19 9.17459e-19)
(0.003 -2.38091e-19 1.05257e-18)
(0.003 -1.4626e-19 9.89444e-19)
(0.003 -1.01152e-19 9.09454e-19)
(0.003 -1.20714e-19 9.09114e-19)
(0.003 -8.43965e-21 9.82352e-19)
(0.003 5.54364e-20 9.16753e-19)
(0.003 2.20899e-19 8.38284e-19)
(0.003 1.95332e-19 7.24532e-19)
(0.003 -2.87526e-20 6.42813e-19)
(0.003 -1.0321e-20 6.25385e-19)
(0.003 4.53354e-20 5.47338e-19)
(0.003 -7.14723e-21 4.07605e-19)
(0.003 -1.61994e-20 3.59002e-19)
(0.003 -2.67108e-21 2.13191e-19)
(0.003 -5.25064e-20 1.75354e-19)
(0.003 1.96692e-20 2.5858e-19)
(0.003 1.72612e-19 2.49912e-19)
(0.003 1.91252e-19 1.84007e-19)
(0.003 1.31096e-20 -7.24943e-20)
(0.003 -5.07825e-20 -2.7285e-19)
(0.003 -1.50053e-19 -4.53948e-19)
(0.003 -2.44814e-19 -4.30217e-19)
(0.003 2.57452e-19 1.11032e-18)
(0.003 2.16193e-19 1.69988e-18)
(0.003 -6.09131e-20 1.83215e-18)
(0.003 -8.07345e-21 1.88336e-18)
(0.003 1.64081e-19 1.9469e-18)
(0.003 1.46286e-19 1.91144e-18)
(0.003 3.40723e-20 1.90801e-18)
(0.003 -8.85138e-20 1.90729e-18)
(0.003 -1.47822e-19 1.95967e-18)
(0.003 -2.04227e-19 2.1036e-18)
(0.003 -6.80639e-20 1.99642e-18)
(0.003 7.25494e-20 1.80862e-18)
(0.003 6.61538e-20 1.68363e-18)
(0.003 -1.12817e-19 1.60754e-18)
(0.003 -1.62144e-19 1.48838e-18)
(0.003 -1.17961e-19 1.35216e-18)
(0.003 -1.95007e-19 1.16755e-18)
(0.003 -2.12023e-19 9.27749e-19)
(0.003 -3.09081e-19 9.17507e-19)
(0.003 -1.60384e-19 9.76492e-19)
(0.003 -6.13542e-20 9.3037e-19)
(0.003 -3.16892e-20 8.85296e-19)
(0.003 7.56243e-20 1.02627e-18)
(0.003 1.04748e-19 9.0869e-19)
(0.003 1.29614e-19 8.04166e-19)
(0.003 1.94904e-19 7.43905e-19)
(0.003 4.85408e-20 6.80558e-19)
(0.003 6.36996e-20 6.95501e-19)
(0.003 1.34955e-20 5.79946e-19)
(0.003 -7.06059e-20 3.57281e-19)
(0.003 6.88824e-23 3.18096e-19)
(0.003 1.12595e-19 1.98553e-19)
(0.003 -3.36106e-21 7.86218e-20)
(0.003 4.79072e-20 2.11137e-19)
(0.003 2.65978e-19 3.8602e-19)
(0.003 1.82205e-19 1.86969e-19)
(0.003 1.35705e-19 -2.74586e-19)
(0.003 -1.40623e-20 -4.45032e-19)
(0.003 -7.50916e-20 -4.0083e-19)
(0.003 -4.28889e-20 -3.75383e-19)
(0.003 -9.91771e-20 1.14092e-18)
(0.003 -6.11748e-20 1.77874e-18)
(0.003 6.05578e-20 1.83972e-18)
(0.003 9.31369e-21 1.83204e-18)
(0.003 2.50865e-20 1.87834e-18)
(0.003 1.4512e-19 2.00181e-18)
(0.003 1.15365e-19 1.96083e-18)
(0.003 9.41539e-20 1.81111e-18)
(0.003 -9.45221e-20 1.89764e-18)
(0.003 -1.97375e-19 1.99867e-18)
(0.003 -1.22627e-19 1.97655e-18)
(0.003 -1.27693e-19 1.88555e-18)
(0.003 -2.44413e-19 1.75847e-18)
(0.003 -2.38198e-19 1.48856e-18)
(0.003 -1.24651e-19 1.36073e-18)
(0.003 -1.46028e-19 1.24694e-18)
(0.003 -2.21813e-19 1.1053e-18)
(0.003 -2.06247e-19 9.77446e-19)
(0.003 -1.75346e-19 9.65693e-19)
(0.003 -2.31605e-19 9.80446e-19)
(0.003 -1.64054e-19 9.58729e-19)
(0.003 7.63005e-20 9.39055e-19)
(0.003 1.74248e-19 1.00411e-18)
(0.003 1.37488e-19 9.15214e-19)
(0.003 1.2828e-19 8.77664e-19)
(0.003 7.25557e-20 8.11898e-19)