/*--------------------------------*- C++ -*----------------------------------*\
| =========                 |                                                 |
| \\      /  F ield         | OpenFOAM: The Open Source CFD Toolbox           |
|  \\    /   O peration     | Version:  v2012                                 |
|   \\  /    A nd           | Website:  www.openfoam.com                      |
|    \\/     M anipulation  |                                                 |
\*---------------------------------------------------------------------------*/
FoamFile
{
    version     2.0;
    format      ascii;
    class       volScalarField;
    location    "460/topAir";
    object      rho;
}
// * * * * * * * * * * * * * * * * * * * * * * * * * * * * * * * * * * * * * //

dimensions      [1 -3 0 0 0 0 0];


internalField   nonuniform List<scalar> 
1200
(
1.0716474
1.0020696
0.94646193
0.90032726
0.86076882
0.82607422
0.7952828
0.76805616
0.74440888
0.72390875
0.70633085
0.69163688
0.68015582
0.67954858
0.68212475
0.68797474
0.69641084
0.70618128
0.71598543
0.72485111
0.73223655
0.73793097
0.74192116
0.74427606
0.74507447
0.74435321
0.74203805
0.73780862
0.73088709
0.72032863
1.1565993
1.1528044
1.14765
1.1413951
1.134231
1.1263106
1.1177726
1.1081169
1.0950234
1.0779276
1.0544982
1.0240613
0.98721242
0.94998038
0.91620521
0.88843049
0.86710261
0.85163681
0.84127016
0.83524593
0.83257885
0.83205682
0.83250832
0.83293455
0.83250047
0.83042965
0.82581394
0.81727705
0.8024477
0.77954297
1.1585751
1.1584479
1.1582119
1.1578441
1.1573252
1.1566388
1.1557722
1.1547
1.1533391
1.1515949
1.1491861
1.1414422
1.1213372
1.0881729
1.0469919
1.0037225
0.96369984
0.92970714
0.90240446
0.88163233
0.86670614
0.85654215
0.84988928
0.8455365
0.84241627
0.83960259
0.83621595
0.83119411
0.82274533
0.80839667
1.158618
1.1586138
1.1586037
1.1585838
1.1585493
1.1584946
1.1584126
1.1582949
1.158129
1.1578959
1.1575491
1.156788
1.1543374
1.1402285
1.1059482
1.0621992
1.0200099
0.98233651
0.94995789
0.92315069
0.90184514
0.88555208
0.87343212
0.86451183
0.85785749
0.85264349
0.84812859
0.84352003
0.83762366
0.82858313
1.0716655
1.0027855
0.94832571
0.90366823
0.86591488
0.83339628
0.80517688
0.78074384
0.75991873
0.7427575
0.72954107
0.72068209
0.71684614
0.72771058
0.74314108
0.76127783
0.77896881
0.79350332
0.8038594
0.81048748
0.81443324
0.81654026
0.81728138
0.81680558
0.81509506
0.81204495
0.80738858
0.80036055
0.78918645
0.77280352
1.156602
1.1528778
1.1479172
1.1420155
1.1353995
1.128259
1.1207819
1.1131727
1.1056656
1.0985472
1.0921887
1.0870382
1.0836129
1.0826979
1.083724
1.0847017
1.0831609
1.0782094
1.0707487
1.0621091
1.0530821
1.0437539
1.0339917
1.0235653
1.0122461
0.9998793
0.98643106
0.97207065
0.9567507
0.93252272
1.1585753
1.1584514
1.1582277
1.1578881
1.157422
1.156823
1.1560903
1.1552297
1.1542548
1.1531929
1.152089
1.1509234
1.1497084
1.1483865
1.1450933
1.1367547
1.1202662
1.0970228
1.0718941
1.0488998
1.0296331
1.0115995
0.99454034
0.9781378
0.96243071
0.9470808
0.9311421
0.91435005
0.89665242
0.87778764
1.158618
1.1586139
1.1586045
1.1585865
1.1585565
1.1585104
1.158444
1.1583528
1.1582322
1.1580772
1.15788
1.1576043
1.1570287
1.1544438
1.1440515
1.1194174
1.0833161
1.0420795
1.0028295
0.96860304
0.94081282
0.92038989
0.90474269
0.89215224
0.88161114
0.87282083
0.86563753
0.85933533
0.85309286
0.8463131
1.0716693
1.0026672
0.94806795
0.90326192
0.86533715
0.83260621
0.80405193
0.77901582
0.75713228
0.73827513
0.72255705
0.71037796
0.70278166
0.71128074
0.72551564
0.74356621
0.76264789
0.78086597
0.79726349
0.81138752
0.8230719
0.83222284
0.83867461
0.84224079
0.84288332
0.84081288
0.83639479
0.82967301
0.81912355
0.79837437
1.1566018
1.1528651
1.1478821
1.1419516
1.1352984
1.1281041
1.1205332
1.1127512
1.1049521
1.0973857
1.0904067
1.0845537
1.0806454
1.0799625
1.0816913
1.0828911
1.0818817
1.078795
1.073815
1.067093
1.0587666
1.048722
1.0366621
1.022432
1.0062075
0.98836378
0.96910356
0.94883706
0.92820498
0.90410087
1.1585752
1.1584509
1.1582259
1.1578846
1.1574167
1.1568161
1.1560812
1.1552161
1.154233
1.1531575
1.1520401
1.1509737
1.1500998
1.1492
1.144624
1.1319494
1.115604
1.1007584
1.0863514
1.0713729
1.0553502
1.0372005
1.0162004
0.99295823
0.96900923
0.94612262
0.92497137
0.9055086
0.88745668
0.86837604
1.158618
1.1586139
1.1586044
1.1585864
1.1585563
1.1585104
1.1584444
1.1583542
1.1582357
1.158085
1.1578988
1.1576666
1.1572539
1.1548357
1.136768
1.095455
1.0611125
1.0469403
1.0252622
0.99539738
0.96690364
0.94386657
0.92569318
0.91100858
0.89869896
0.88813588
0.87897918
0.87079946
0.85882015
0.84121783
1.071658
1.0026061
0.94791151
0.90296172
0.86481715
0.83174064
0.80264789
0.7768102
0.75372107
0.73307323
0.71478722
0.6991467
0.68727452
0.69124468
0.69684541
0.70062483
0.7017202
0.70136995
0.7012631
0.70255137
0.70568476
0.7105005
0.71646742
0.7229035
0.72920364
0.7345833
0.73730148
0.73361551
0.71921716
0.70411881
1.1566013
1.1528594
1.1478604
1.1418981
1.1351887
1.127898
1.1201648
1.1121172
1.103895
1.0956883
1.0878229
1.0809135
1.076023
1.074315
1.0726293
1.0687808
1.0636861
1.0582161
1.0526993
1.0468604
1.0401138
1.0316882
1.0209302
1.0075388
0.99146924
0.97268961
0.95179315
0.9314017
0.90684865
0.84551077
1.1585752
1.1584506
1.1582247
1.1578811
1.1574086
1.1567994
1.1560494
1.1551586
1.1541336
1.1529942
1.1517906
1.1506387
1.1496809
1.1475081
1.1345289
1.1163405
1.1031573
1.0934813
1.0837388
1.0712215
1.0539107
1.0311259
1.0038893
0.97499442
0.94692875
0.92054069
0.89712771
0.88027409
0.86484846
0.83915726
1.158618
1.1586139
1.1586043
1.1585862
1.1585557
1.1585091
1.1584417
1.1583488
1.1582256
1.1580669
1.1578661
1.1575904
1.1567306
1.1484214
1.0915606
1.0190102
0.99779987
0.99716597
0.99973911
0.9907684
0.97049312
0.94865972
0.93215235
0.91780138
0.90441878
0.89080748
0.87353909
0.85402385
0.83008541
0.80944948
1.0716441
1.0025696
0.94784565
0.90286284
0.86468006
0.83155761
0.80240972
0.77650808
0.75336652
0.73272119
0.71460424
0.69954957
0.68899321
0.69630793
0.70197231
0.70320761
0.70043765
0.69510201
0.68916639
0.6831706
0.67756267
0.67270268
0.66884163
0.66610006
0.66445474
0.6636656
0.66306527
0.66135918
0.65673848
0.64753323
1.156601
1.1528564
1.1478505
1.1418755
1.1351467
1.1278278
1.1200556
1.1119581
1.1036817
1.0954478
1.0876732
1.0811707
1.0771657
1.0754861
1.0712137
1.0653951
1.0588371
1.050264
1.0394089
1.028584
1.0188641
1.0095684
0.9989636
0.98529986
0.96720216
0.94341214
0.91222958
0.87244327
0.82116403
0.75931619
1.1585752
1.1584505
1.1582241
1.1578794
1.1574047
1.1567918
1.1560358
1.1551362
1.1540998
1.1529501
1.1517534
1.1506608
1.1496048
1.143227
1.1229756
1.1092579
1.1010971
1.0954939
1.0886177
1.0770824
1.0580038
1.0303461
0.99726993
0.96460838
0.93727378
0.91649646
0.90169111
0.88183869
0.84772992
0.79734758
1.158618
1.1586139
1.1586043
1.158586
1.1585554
1.1585083
1.1584401
1.1583458
1.1582199
1.1580564
1.1578444
1.1574856
1.1553347
1.1294243
1.0024211
0.97755829
0.96820401
0.96145978
0.95505195
0.94834681
0.93975848
0.92856136
0.9170354
0.90577216
0.89435405
0.88124517
0.86657835
0.85014068
0.82305918
0.78860748
1.0716273
1.0025421
0.94781227
0.90282711
0.86464613
0.83152989
0.80239795
0.77653327
0.75347643
0.73303358
0.71540361
0.70138359
0.69211107
0.6977442
0.69974201
0.69744413
0.69415212
0.68935003
0.68375718
0.67789239
0.67219537
0.66704814
0.66274922
0.65947756
0.65724747
0.65580645
0.65445668
0.65197071
0.6466468
0.63644865
1.1566005
1.1528553
1.1478484
1.1418725
1.1351429
1.1278244
1.1200562
1.1119731
1.1037412
1.095634
1.0881945
1.0824346
1.0791433
1.0749016
1.0690369
1.0621916
1.0488883
1.0301454
1.0068581
0.9797376
0.94977883
0.91815416
0.88608453
0.85471253
0.82492069
0.79720676
0.77119325
0.74566682
0.71981381
0.69000366
1.1585752
1.1584505
1.158224
1.1578792
1.1574045
1.1567914
1.1560354
1.1551364
1.1541037
1.1529688
1.1518216
1.1508235
1.148794
1.1327566
1.1195381
1.1111041
1.1057539
1.0984226
1.0878873
1.0733617
1.0534556
1.0281382
0.9988606
0.96607013
0.93126902
0.89548887
0.85906456
0.82140484
0.78125277
0.7356777
1.158618
1.1586139
1.1586043
1.158586
1.1585554
1.1585083
1.1584399
1.1583454
1.1582188
1.1580534
1.1578271
1.1572105
1.1500896
1.0584968
0.9879616
0.97465121
0.9686342
0.96320904
0.9559993
0.94579262
0.9351521
0.92501039
0.91615809
0.9090221
0.90099823
0.88610872
0.8664436
0.83681588
0.79686956
0.75020431
1.07161
1.0025277
0.94781571
0.90285958
0.86472065
0.83165957
0.8025943
0.77680426
0.75380113
0.73332633
0.71540937
0.70054237
0.68996326
0.69439892
0.69818282
0.69880467
0.69679744
0.69400204
0.69173583
0.69085444
0.69186838
0.69477138
0.69917644
0.70454077
0.71020693
0.7149689
0.71639146
0.7117694
0.70295191
0.68849838
1.1566002
1.1528562
1.1478546
1.1418897
1.1351785
1.1278876
1.1201581
1.1121247
1.1039417
1.0958388
1.088233
1.0819023
1.0779059
1.0757152
1.0720103
1.0667711
1.0607718
1.0544998
1.047921
1.0406411
1.0319905
1.0213537
1.0085281
0.99376978
0.97745706
0.95969656
0.9405676
0.91980557
0.8773959
0.81087528
1.1585752
1.1584505
1.1582245
1.1578807
1.157408
1.1567985
1.1560483
1.155158
1.154136
1.1530086
1.1518433
1.1507841
1.1496612
1.1429422
1.1265977
1.1136439
1.1048833
1.0973318
1.0877084
1.0740041
1.055414
1.0320868
1.0053418
0.97653225
0.94634271
0.91588374
0.88858239
0.86643728
0.84364542
0.80659582
1.158618
1.1586139
1.1586043
1.1585861
1.1585557
1.1585089
1.1584414
1.1583483
1.1582245
1.1580644
1.1578575
1.1574893
1.1549708
1.1258566
1.0513458
1.0022367
0.99834713
0.99874203
0.99270138
0.97487453
0.95520988
0.93745094
0.9217229
0.90732295
0.89249393
0.87451448
0.85363882
0.83268609
0.81222705
0.78183906
1.0715973
1.0025486
0.94792041
0.90309896
0.86517145
0.83244911
0.8039133
0.77891534
0.7571004
0.73836828
0.72290372
0.71125749
0.70469737
0.71451744
0.7291293
0.74580016
0.76238158
0.77809018
0.79261954
0.80576409
0.81736826
0.82709678
0.83438003
0.83865503
0.83966692
0.83759618
0.83284107
0.82551991
0.81358276
0.79325231
1.1566
1.1528602
1.1478733
1.1419386
1.1352817
1.1280846
1.1205134
1.1127387
1.1049655
1.0974695
1.090661
1.0851864
1.0819706
1.0818271
1.0826821
1.0820515
1.0795518
1.0755989
1.070163
1.0631946
1.0545139
1.043675
1.03024
1.0141302
0.9956724
0.97541592
0.9538911
0.93177415
0.90796923
0.87962788
1.1585752
1.1584507
1.1582255
1.157884
1.1574158
1.1568146
1.156079
1.1552135
1.1542315
1.1531624
1.1520674
1.1510603
1.1502293
1.1481792
1.1394979
1.1244274
1.1093428
1.096351
1.0829859
1.0686496
1.052403
1.0329179
1.0098898
0.9841951
0.9572798
0.93137114
0.9086168
0.88927259
0.86785192
0.84067547
1.158618
1.1586139
1.1586044
1.1585863
1.1585562
1.1585102
1.158444
1.1583534
1.1582342
1.1580822
1.1578928
1.1576336
1.1567775
1.1488983
1.115869
1.0712733
1.0454473
1.0396028
1.0132218
0.98171337
0.95464887
0.93357095
0.91681898
0.90296904
0.89112037
0.88117641
0.87273204
0.86466301
0.84597623
0.81008141
1.0715742
1.0026344
0.94813724
0.90345841
0.8656978
0.83318819
0.80499404
0.78059691
0.75982052
0.74272324
0.72961193
0.72097134
0.71762638
0.72941946
0.74602444
0.76499196
0.78273029
0.79664219
0.80608449
0.81187604
0.81520147
0.81693117
0.81748597
0.8169464
0.81522451
0.8121286
0.8073801
0.80037563
0.78933534
0.7712094
1.1565998
1.1528715
1.1479061
1.1419992
1.1353783
1.1282338
1.1207544
1.1131456
1.105646
1.0985515
1.0922588
1.0872674
1.0841765
1.0837781
1.0851296
1.0857903
1.0832961
1.0772291
1.0688098
1.0594303
1.0496481
1.0394471
1.0285984
1.016812
1.0038874
0.98976698
0.97458198
0.95862354
0.94150902
0.91970983
1.1585752
1.1584513
1.1582272
1.1578874
1.1574208
1.1568211
1.1560873
1.1552251
1.1542486
1.1531862
1.152087
1.1509514
1.1497919
1.1484559
1.1444366
1.1344619
1.1159444
1.0913876
1.0656189
1.0428816
1.0227857
1.0037898
0.985931
0.96920424
0.95357534
0.93761571
0.92093817
0.90409041
0.8870395
0.86863617
1.158618
1.1586139
1.1586045
1.1585865
1.1585564
1.1585102
1.1584436
1.1583518
1.1582303
1.1580738
1.1578746
1.1575985
1.1570122
1.1541497
1.1417491
1.1156574
1.0806052
1.0387818
0.99792759
0.96277023
0.93569052
0.91577382
0.90024868
0.88756889
0.8767949
0.86850158
0.86179103
0.85592464
0.85006129
0.84096256
1.0715453
1.0018995
0.94624811
0.90008708
0.86051771
0.82582863
0.79505844
0.76787456
0.74427576
0.72382874
0.70630993
0.69169003
0.68032516
0.67991321
0.68276972
0.68889288
0.69746952
0.70719648
0.71680229
0.72538114
0.73244539
0.73782253
0.74151565
0.74359112
0.74411351
0.74309678
0.74045416
0.73589067
0.72863151
0.71748442
1.1565968
1.1527973
1.1476372
1.1413759
1.1342055
1.1262792
1.117736
1.1080505
1.0949468
1.0779079
1.0547489
1.024736
0.98855419
0.9519227
0.9183208
0.89011268
0.8678811
0.85139204
0.84017758
0.8335676
0.83045721
0.8295142
0.82949544
0.82938173
0.82836062
0.82570195
0.82059344
0.81186433
0.79738891
0.77539076
1.1585751
1.1584477
1.1582114
1.1578432
1.1573237
1.1566364
1.1557683
1.1546939
1.1533305
1.1515862
1.1492051
1.1420696
1.1235659
1.0918289
1.051555
1.0083752
0.9677907
0.93255715
0.90385437
0.88187187
0.86602368
0.85517487
0.84798223
0.84315815
0.83959246
0.83634467
0.83256381
0.82727139
0.81879591
0.80476517
1.158618
1.1586138
1.1586036
1.1585837
1.1585492
1.1584943
1.158412
1.1582937
1.1581265
1.1578913
1.1575433
1.1568103
1.1545593
1.1427588
1.1105492
1.0670696
1.0242337
0.98510902
0.95105974
0.92286142
0.90062371
0.8837751
0.87132292
0.86217602
0.8553371
0.84996171
0.84530568
0.84059477
0.83467092
0.82574056
)
;

boundaryField
{
    maxY
    {
        type            calculated;
        value           nonuniform List<scalar> 
300
(
1.1586175
1.1586175
1.1586175
1.1586175
1.1586175
1.1586175
1.1586175
1.1586175
1.1586175
1.1586175
1.1586133
1.1586134
1.1586134
1.1586134
1.1586134
1.1586134
1.1586134
1.1586134
1.1586134
1.1586133
1.1586031
1.158604
1.1586039
1.1586038
1.1586038
1.1586038
1.1586038
1.1586039
1.1586039
1.1586031
1.1585832
1.158586
1.1585858
1.1585856
1.1585855
1.1585855
1.1585856
1.1585858
1.158586
1.1585832
1.1585488
1.158556
1.1585558
1.1585552
1.1585549
1.1585549
1.1585552
1.1585557
1.1585559
1.1585487
1.158494
1.1585099
1.1585098
1.1585085
1.1585078
1.1585077
1.1585084
1.1585097
1.1585097
1.1584938
1.1584121
1.1584435
1.1584439
1.1584411
1.1584396
1.1584394
1.1584409
1.1584435
1.158443
1.1584115
1.1582944
1.1583523
1.1583537
1.1583483
1.1583453
1.1583448
1.1583478
1.1583529
1.1583513
1.1582931
1.1581285
1.1582316
1.1582352
1.1582251
1.1582194
1.1582183
1.1582239
1.1582336
1.1582297
1.158126
1.1578953
1.1580767
1.1580845
1.1580663
1.1580559
1.1580528
1.1580639
1.1580817
1.1580732
1.1578908
1.1575486
1.1578795
1.1578982
1.1578656
1.1578439
1.1578265
1.157857
1.1578923
1.1578741
1.1575427
1.1567875
1.1576037
1.1576661
1.1575898
1.1574851
1.15721
1.1574888
1.1576331
1.157598
1.1568097
1.1543369
1.1570281
1.1572534
1.1567301
1.1553342
1.150089
1.1549703
1.156777
1.1570117
1.1545587
1.140228
1.1544433
1.1548352
1.1484209
1.1294238
1.0584964
1.1258561
1.1488977
1.1541492
1.1427583
1.1059477
1.144051
1.1367675
1.0915601
1.0024207
0.98796122
1.0513453
1.1158685
1.1417486
1.1105487
1.0621988
1.1194169
1.0954546
1.0190098
0.97755791
0.97465084
1.0022363
1.0712728
1.1156569
1.0670691
1.0200095
1.0833156
1.061112
0.99779948
0.96820364
0.96863384
0.99834674
1.0454469
1.0806047
1.0242333
0.98233613
1.0420791
1.0469398
0.99716558
0.96145941
0.96320868
0.99874164
1.0396024
1.0387814
0.98510864
0.94995754
1.0028291
1.0252618
0.99973872
0.95505159
0.95599894
0.99270099
1.0132214
0.9979272
0.95105938
0.92315035
0.96860268
0.99539699
0.99076801
0.94834645
0.94579227
0.97487416
0.981713
0.96276986
0.92286108
0.90184482
0.94081247
0.96690327
0.97049275
0.93975814
0.93515175
0.95520953
0.95464851
0.93569017
0.90062339
0.88555177
0.92038956
0.94386622
0.94865936
0.92856102
0.92501005
0.9374506
0.93357061
0.91577349
0.88377479
0.87343182
0.90474237
0.92569285
0.93215201
0.91703507
0.91615776
0.92172257
0.91681865
0.90024836
0.87132263
0.86451154
0.89215193
0.91100825
0.91780105
0.90577184
0.90902178
0.90732263
0.90296872
0.88756858
0.86217573
0.8578572
0.88161084
0.89869864
0.90441846
0.89435374
0.90099792
0.89249361
0.89112006
0.8767946
0.85533682
0.85264321
0.87282053
0.88813557
0.89080717
0.88124486
0.88610842
0.87451418
0.8811761
0.86850128
0.84996142
0.84812831
0.86563724
0.87897887
0.87353879
0.86657805
0.86644331
0.85363853
0.87273174
0.86179074
0.8453054
0.84351975
0.85933504
0.87079916
0.85402356
0.8501404
0.8368156
0.83268582
0.86466271
0.85592435
0.8405945
0.83762339
0.85309258
0.85881986
0.83008514
0.82305891
0.79686931
0.8122268
0.84597595
0.85006101
0.83467065
0.82858286
0.84631282
0.84121755
0.80944923
0.78860724
0.75020409
0.78183882
0.81008115
0.84096229
0.82574029
)
;
    }
    minX
    {
        type            calculated;
        value           nonuniform List<scalar> 
40
(
1.1586222
1.1586212
1.1586201
1.1586191
1.1586222
1.1586212
1.1586201
1.1586191
1.1586222
1.1586212
1.1586201
1.1586191
1.1586222
1.1586212
1.1586201
1.1586191
1.1586222
1.1586212
1.1586201
1.1586191
1.1586222
1.1586212
1.1586201
1.1586191
1.1586222
1.1586212
1.1586201
1.1586191
1.1586222
1.1586212
1.1586201
1.1586191
1.1586222
1.1586212
1.1586201
1.1586191
1.1586222
1.1586212
1.1586201
1.1586191
)
;
    }
    maxX
    {
        type            calculated;
        value           nonuniform List<scalar> 
40
(
0.72023343
0.7793543
0.80824735
0.82846355
0.77271555
0.93235044
0.87752283
0.84616269
0.79846767
0.90404407
0.86839932
0.84174765
0.70408036
0.84520532
0.83919407
0.81094066
0.64752516
0.75864918
0.79699101
0.78974681
0.63644156
0.69005584
0.73562825
0.75105441
0.68846712
0.81038716
0.80657811
0.78318752
0.79300004
0.87974856
0.84113876
0.81150134
0.77103802
0.91969099
0.86877785
0.84130402
0.71739413
0.77526657
0.80469934
0.82572098
)
;
    }
    minZ
    {
        type            calculated;
        value           nonuniform List<scalar> 
120
(
1.0716474
1.1565993
1.1585751
1.158618
1.0020696
1.1528044
1.1584479
1.1586138
0.94646193
1.14765
1.1582119
1.1586037
0.90032726
1.1413951
1.1578441
1.1585838
0.86076882
1.134231
1.1573252
1.1585493
0.82607422
1.1263106
1.1566388
1.1584946
0.7952828
1.1177726
1.1557722
1.1584126
0.76805616
1.1081169
1.1547
1.1582949
0.74440888
1.0950234
1.1533391
1.158129
0.72390875
1.0779276
1.1515949
1.1578959
0.70633085
1.0544982
1.1491861
1.1575491
0.69163688
1.0240613
1.1414422
1.156788
0.68015582
0.98721242
1.1213372
1.1543374
0.67954858
0.94998038
1.0881729
1.1402285
0.68212475
0.91620521
1.0469919
1.1059482
0.68797474
0.88843049
1.0037225
1.0621992
0.69641084
0.86710261
0.96369984
1.0200099
0.70618128
0.85163681
0.92970714
0.98233651
0.71598543
0.84127016
0.90240446
0.94995789
0.72485111
0.83524593
0.88163233
0.92315069
0.73223655
0.83257885
0.86670614
0.90184514
0.73793097
0.83205682
0.85654215
0.88555208
0.74192116
0.83250832
0.84988928
0.87343212
0.74427606
0.83293455
0.8455365
0.86451183
0.74507447
0.83250047
0.84241627
0.85785749
0.74435321
0.83042965
0.83960259
0.85264349
0.74203805
0.82581394
0.83621595
0.84812859
0.73780862
0.81727705
0.83119411
0.84352003
0.73088709
0.8024477
0.82274533
0.83762366
0.72032863
0.77954297
0.80839667
0.82858313
)
;
    }
    maxZ
    {
        type            calculated;
        value           nonuniform List<scalar> 
120
(
1.0715453
1.1565968
1.1585751
1.158618
1.0018995
1.1527973
1.1584477
1.1586138
0.94624811
1.1476372
1.1582114
1.1586036
0.90008708
1.1413759
1.1578432
1.1585837
0.86051771
1.1342055
1.1573237
1.1585492
0.82582863
1.1262792
1.1566364
1.1584943
0.79505844
1.117736
1.1557683
1.158412
0.76787456
1.1080505
1.1546939
1.1582937
0.74427576
1.0949468
1.1533305
1.1581265
0.72382874
1.0779079
1.1515862
1.1578913
0.70630993
1.0547489
1.1492051
1.1575433
0.69169003
1.024736
1.1420696
1.1568103
0.68032516
0.98855419
1.1235659
1.1545593
0.67991321
0.9519227
1.0918289
1.1427588
0.68276972
0.9183208
1.051555
1.1105492
0.68889288
0.89011268
1.0083752
1.0670696
0.69746952
0.8678811
0.9677907
1.0242337
0.70719648
0.85139204
0.93255715
0.98510902
0.71680229
0.84017758
0.90385437
0.95105974
0.72538114
0.8335676
0.88187187
0.92286142
0.73244539
0.83045721
0.86602368
0.90062371
0.73782253
0.8295142
0.85517487
0.8837751
0.74151565
0.82949544
0.84798223
0.87132292
0.74359112
0.82938173
0.84315815
0.86217602
0.74411351
0.82836062
0.83959246
0.8553371
0.74309678
0.82570195
0.83634467
0.84996171
0.74045416
0.82059344
0.83256381
0.84530568
0.73589067
0.81186433
0.82727139
0.84059477
0.72863151
0.79738891
0.81879591
0.83467092
0.71748442
0.77539076
0.80476517
0.82574056
)
;
    }
    topAir_to_rightSolid
    {
        type            calculated;
        value           nonuniform List<scalar> 
130
(
0.46145177
0.4566177
0.45167104
0.44686545
0.44237286
0.43829687
0.43470228
0.43162129
0.42906402
0.42703111
0.42551231
0.42450337
0.42399921
0.46506473
0.45934448
0.45364357
0.4482498
0.44332843
0.43895109
0.43514761
0.43192407
0.42927107
0.42717378
0.42561288
0.4245797
0.42406496
0.47252234
0.46470001
0.45734314
0.45074586
0.44498782
0.44004913
0.43587121
0.43239983
0.42958606
0.42738404
0.42575496
0.42468193
0.42414821
0.48415912
0.47216833
0.46204899
0.45370139
0.4468448
0.44121439
0.43660338
0.43286201
0.42987665
0.42756487
0.42586782
0.4247543
0.42420206
0.49864789
0.4794803
0.46598395
0.45593046
0.44815509
0.44200456
0.43708466
0.43315747
0.43005402
0.42766523
0.4259292
0.42479556
0.42423441
0.49868438
0.47950722
0.46601184
0.45595576
0.44817724
0.44202209
0.43710473
0.43317613
0.43006722
0.42768013
0.42594526
0.4248124
0.42425123
0.4843789
0.47232762
0.46216403
0.45379252
0.44692488
0.44128901
0.43667449
0.43292781
0.4299322
0.42761508
0.42592058
0.4248088
0.42425585
0.47288351
0.46497956
0.45756761
0.45093039
0.44514583
0.44019051
0.43600499
0.43252765
0.42970273
0.42748616
0.42585352
0.42477616
0.42423739
0.46549878
0.45970135
0.45394562
0.44850955
0.44355164
0.43915152
0.43533429
0.43209715
0.42942505
0.42730694
0.42573365
0.42469087
0.42416862
0.46187918
0.45699013
0.45199942
0.44715572
0.4426311
0.43853367
0.43492244
0.43182208
0.42924135
0.42718224
0.42564226
0.42461843
0.42410653
)
;
    }
    topAir_to_heater
    {
        type            calculated;
        value           nonuniform List<scalar> 
40
(
0.47338713
0.47206103
0.46949249
0.46585464
0.4795059
0.4779254
0.4748027
0.47038019
0.49295324
0.49080224
0.48645169
0.48014823
0.51660445
0.51362992
0.50723577
0.49721307
0.55564201
0.55244558
0.54423391
0.52838284
0.55582907
0.55259895
0.54434878
0.52845646
0.51720178
0.51411749
0.50763075
0.49751833
0.49370968
0.49145586
0.48700517
0.48060418
0.48028156
0.47861846
0.47541178
0.47090477
0.47413748
0.47274629
0.47007826
0.46635492
)
;
    }
    topAir_to_leftSolid
    {
        type            calculated;
        value           nonuniform List<scalar> 
130
(
0.38688041
0.38689845
0.38693133
0.38698254
0.38704862
0.38711532
0.38718239
0.38725029
0.38731848
0.38738646
0.38745109
0.38750289
0.38753897
0.38687383
0.38689048
0.38692541
0.38698076
0.38705524
0.38713117
0.38720816
0.38728649
0.3873648
0.38744508
0.38750809
0.3875535
0.38758057
0.38685391
0.38686985
0.38690773
0.38696872
0.38705278
0.38714615
0.38724026
0.38733584
0.38742837
0.38751861
0.38759107
0.38764182
0.38766963
0.38681552
0.38683409
0.38687663
0.38694551
0.38704154
0.38715221
0.38726936
0.38739382
0.38751449
0.38762501
0.38771911
0.3877855
0.38782234
0.38676214
0.38678405
0.38683482
0.38691524
0.38702317
0.38714838
0.38728868
0.38744975
0.38760725
0.38775239
0.38787719
0.38797317
0.38802904
0.38670785
0.38673343
0.38679147
0.38688245
0.38700843
0.3871498
0.38731053
0.38749155
0.38765796
0.38780944
0.38795573
0.38806746
0.3881323
0.38666049
0.38668668
0.38674571
0.3868433
0.38698684
0.38714048
0.38730414
0.38747713
0.38764696
0.38781054
0.38796613
0.38808552
0.3881465
0.38662143
0.3866438
0.38669754
0.38678722
0.3869181
0.38706947
0.38723395
0.3874112
0.38758537
0.38775058
0.38790705
0.38802281
0.38808338
0.38657886
0.38660095
0.38665082
0.38673136
0.38684524
0.38698166
0.38713119
0.3872987
0.38747794
0.38765431
0.3878135
0.38792729
0.38798985
0.38655066
0.38657305
0.38662198
0.38670075
0.38681244
0.38695428
0.38709801
0.38725267
0.38742163
0.38758715
0.3877346
0.38784624
0.38790964
)
;
    }
}


// ************************************************************************* //
