/*--------------------------------*- C++ -*----------------------------------*\
| =========                 |                                                 |
| \\      /  F ield         | OpenFOAM: The Open Source CFD Toolbox           |
|  \\    /   O peration     | Version:  v2012                                 |
|   \\  /    A nd           | Website:  www.openfoam.com                      |
|    \\/     M anipulation  |                                                 |
\*---------------------------------------------------------------------------*/
FoamFile
{
    version     2.0;
    format      ascii;
    class       volScalarField;
    location    "460/topAir";
    object      T;
}
// * * * * * * * * * * * * * * * * * * * * * * * * * * * * * * * * * * * * * //

dimensions      [0 0 0 1 0 0 0];


internalField   nonuniform List<scalar> 
1200
(
324.34795
346.86877
367.24841
386.06699
403.8095
420.76923
437.06039
452.55363
466.92967
480.15249
492.10166
502.55644
511.0396
511.49625
509.56448
505.23154
499.11131
492.20581
485.46591
479.52815
474.69156
471.02849
468.49521
467.01287
466.51243
466.96445
468.42138
471.10656
475.56796
482.53876
300.52443
301.51372
302.8679
304.52765
306.45111
308.60612
310.96339
313.673
317.42368
322.45797
329.62249
339.41944
352.08869
365.88789
379.37605
391.23635
400.85947
408.13911
413.16844
416.14842
417.48151
417.74343
417.51687
417.30322
417.5208
418.56196
420.90141
425.29795
433.15752
445.88466
300.01166
300.0446
300.10575
300.20106
300.33567
300.5139
300.73924
301.01848
301.37368
301.83013
302.46279
304.51478
309.97457
319.42168
331.98539
346.29693
360.67872
373.86614
385.17763
394.2528
401.04252
405.80142
408.978
411.0834
412.60601
413.98873
415.66537
418.17671
422.47096
429.96963
300.00028
300.00137
300.00399
300.00914
300.01806
300.03224
300.05347
300.08396
300.12695
300.18737
300.27731
300.47486
301.11276
304.83865
314.28752
327.23216
340.76704
353.83573
365.89597
376.52117
385.41626
392.50745
397.95398
402.06019
405.17895
407.65666
409.82676
412.06585
414.96654
419.49417
324.34249
346.62113
366.52664
384.63965
401.40969
417.07244
431.68976
445.19929
457.3997
467.9678
476.44554
482.30224
484.8831
477.64397
467.72622
456.58306
446.2137
438.04045
432.39719
428.86108
426.78333
425.68205
425.29602
425.54376
426.43678
428.0385
430.50707
434.28738
440.43645
449.77341
300.52372
301.49454
302.7974
304.36219
306.13573
308.07319
310.12844
312.24835
314.36841
316.40547
318.24752
319.7554
320.76614
321.03723
320.73326
320.44415
320.89999
322.37364
324.61986
327.26042
330.06571
333.01553
336.15964
339.58385
343.38119
347.62821
352.3675
357.57302
363.29864
372.73752
300.01162
300.04368
300.10166
300.18966
300.31055
300.46604
300.65647
300.88046
301.13458
301.41189
301.70069
302.00624
302.32539
302.67338
303.54385
305.77048
310.2709
316.84482
324.27269
331.38151
337.58236
343.6004
349.4941
355.35482
361.1543
367.00774
373.28995
380.14542
387.64852
395.97957
300.00028
300.00133
300.00378
300.00843
300.0162
300.02813
300.04533
300.06896
300.10021
300.14037
300.19149
300.263
300.41236
301.08501
303.81999
310.5059
320.85347
333.5501
346.605
358.85261
369.45259
377.65054
384.18188
389.60363
394.26198
398.23266
401.53731
404.48211
407.44189
410.70588
324.34134
346.66203
366.62629
384.81267
401.67769
417.4682
432.29374
446.18684
459.08306
470.80902
481.05072
489.2981
494.58687
488.67705
479.08901
467.45879
455.76283
445.1296
435.9745
428.38537
422.30398
417.66042
414.44742
412.69258
412.37798
413.39342
415.57708
418.94395
424.3395
435.36777
300.52379
301.49785
302.80666
304.37925
306.16298
308.11548
310.19728
312.36663
314.57141
316.74036
318.76761
320.48792
321.64699
321.85038
321.33597
320.97994
321.27941
322.19865
323.69291
325.73194
328.29359
331.43795
335.2937
339.96029
345.44194
351.67847
358.66781
366.3287
374.47142
384.45512
300.01162
300.04383
300.10212
300.19056
300.31191
300.46785
300.65885
300.88399
301.14028
301.42114
301.71349
301.99303
302.2225
302.45914
303.66831
307.06853
311.56755
315.76958
319.95726
324.43046
329.35608
335.11938
342.04473
350.05098
358.70247
367.37944
375.78028
383.85721
391.66531
400.27128
300.00028
300.00133
300.0038
300.00847
300.01625
300.02815
300.04524
300.0686
300.09931
300.13834
300.18663
300.24681
300.35389
300.98282
305.76662
317.29803
327.56728
332.00148
339.02129
349.19293
359.48332
368.25728
375.48699
381.53949
386.7655
391.36552
395.44255
399.15709
404.72476
413.19354
324.34476
346.68316
366.6868
384.94061
401.91921
417.90265
433.04993
447.45371
461.16079
474.14989
486.2798
497.1583
505.74634
502.84159
498.80011
496.1094
495.33496
495.58232
495.65782
494.74892
492.55213
489.21363
485.13932
480.82007
476.66589
473.17506
471.43062
473.79926
483.28446
493.64749
300.5239
301.49933
302.81238
304.39351
306.19258
308.17179
310.2993
312.5447
314.87266
317.23106
319.52476
321.56722
323.02873
323.54229
324.05073
325.21759
326.77526
328.46439
330.18573
332.02738
334.18103
336.91022
340.46037
344.9855
350.57696
357.34551
365.19097
373.18619
383.29024
411.09616
300.01163
300.04389
300.10243
300.19147
300.31402
300.47217
300.66712
300.89899
301.16621
301.46381
301.77885
302.08097
302.33261
302.90508
306.37037
311.36202
315.0829
317.87102
320.72857
324.47631
329.80594
337.09368
346.23938
356.50051
367.0667
377.58897
387.44318
394.86111
401.90394
414.20842
300.00028
300.00134
300.00382
300.00852
300.0164
300.02849
300.04594
300.06999
300.10191
300.14305
300.19509
300.2666
300.48978
302.66392
318.43009
341.10131
348.35214
348.57359
347.67643
350.8244
358.15374
366.39665
372.88513
378.71567
384.31949
390.1918
397.90524
406.99775
418.73497
429.41012
324.34897
346.69579
366.71228
384.98276
401.98293
417.99463
433.17847
447.6278
461.37782
474.3777
486.40432
496.87199
504.48477
499.18514
495.15709
494.28725
496.24196
500.05113
504.35794
508.78439
512.99539
516.70156
519.68433
521.82327
523.11539
523.7374
524.21157
525.56386
529.26164
536.78557
300.524
301.50012
302.815
304.39952
306.20391
308.19097
310.32956
312.58942
314.93351
317.30069
319.56873
321.4907
322.68605
323.18998
324.47896
326.25111
328.27175
330.95135
334.40766
337.92698
341.15078
344.29197
347.9469
352.77208
359.37293
368.43523
381.02937
398.40557
423.28481
457.76223
300.01163
300.04393
300.10259
300.19192
300.31503
300.47415
300.67065
300.90481
301.17504
301.47535
301.78859
302.07516
302.35263
304.03937
309.52232
313.35004
315.67245
317.28703
319.29116
322.71071
328.53002
337.3488
348.53755
360.339
370.8479
379.25516
385.48235
394.16053
410.01976
435.92787
300.00028
300.00134
300.00383
300.00856
300.01648
300.02868
300.04634
300.07077
300.10339
300.14577
300.20072
300.29377
300.85284
307.75478
346.74624
355.56522
359.0005
361.51874
363.94432
366.51754
369.8671
374.32717
379.032
383.74525
388.64448
394.42573
401.10139
408.85678
422.30961
440.75897
324.35406
346.70527
366.72519
384.998
401.9987
418.00857
433.18482
447.61328
461.31051
474.17554
485.86083
495.57273
502.21213
498.15759
496.7353
498.3719
500.73541
504.22358
508.34791
512.74587
517.09152
521.0816
524.46158
527.06341
528.85177
530.01382
531.10693
533.13205
537.52139
546.1344
300.52411
301.50042
302.81555
304.40032
306.20492
308.1919
310.32939
312.58521
314.91652
317.24676
319.41564
321.11533
322.0947
323.36572
325.13969
327.23504
331.38543
337.41481
345.21876
354.77489
365.96551
378.57073
392.27215
406.67039
421.35719
436.00516
450.71227
466.14152
482.88359
503.74558
300.01163
300.04394
300.10261
300.19196
300.3151
300.47426
300.67076
300.90475
301.17402
301.47046
301.77073
302.03245
302.56602
306.84969
310.47271
312.82939
314.34302
316.44107
319.50555
323.82934
329.94841
338.07323
347.98251
359.79377
373.23911
388.15225
404.6099
423.16044
444.90856
472.47058
300.00028
300.00134
300.00383
300.00856
300.01649
300.0287
300.04639
300.07089
300.10367
300.14655
300.20521
300.36516
302.22492
328.37674
351.82109
356.62576
358.84106
360.86219
363.58367
367.50735
371.689
375.76416
379.39496
382.37328
385.77853
392.26087
401.16378
415.36713
436.18912
463.3216
324.35927
346.71027
366.72386
384.98415
401.96406
417.94339
433.07884
447.45713
461.1118
473.98625
485.85691
496.16782
503.77549
500.55748
497.84463
497.40159
498.83443
500.84369
502.48451
503.12557
502.38822
500.28906
497.13705
493.35188
489.41582
486.15611
485.19073
488.34143
494.46694
504.84721
300.52421
301.50019
302.81391
304.39573
306.19534
308.17464
310.30114
312.5426
314.85934
317.18747
319.40434
321.27331
322.46444
323.12114
324.23787
325.83026
327.67303
329.62198
331.69132
334.01169
336.81151
340.31921
344.64711
349.7654
355.6026
362.18351
369.54947
377.89101
396.15669
428.65562
300.01163
300.04392
300.10249
300.19157
300.31419
300.47241
300.6674
300.89914
301.16557
301.46007
301.76504
302.04278
302.33779
304.11514
308.5272
312.11593
314.59071
316.75562
319.55809
323.63563
329.33619
336.77981
345.73916
355.9391
367.29402
379.50888
391.16915
401.16696
412.00486
430.92961
300.00028
300.00134
300.00382
300.00853
300.01641
300.02852
300.04601
300.07013
300.10221
300.14369
300.19731
300.29281
300.94762
308.73002
330.61029
346.81
348.16119
348.02353
350.14128
356.54407
363.88416
370.77753
377.10439
383.08935
389.4545
397.46143
407.18133
417.42716
427.94168
444.57465
324.36313
346.70306
366.68336
384.88211
401.75462
417.54699
432.36828
446.24439
459.10238
470.74963
480.82003
488.69303
493.24234
486.46338
476.71458
466.05858
455.92203
446.71756
438.52886
431.37507
425.25084
420.24893
416.5806
414.45709
413.95762
414.98101
417.35034
421.05162
427.22941
438.17896
300.52425
301.49914
302.80899
304.3827
306.1675
308.12083
310.20276
312.37014
314.5676
316.71618
318.69328
320.30105
321.25302
321.29565
321.0419
321.229
321.97279
323.15605
324.79754
326.9263
329.61756
333.04072
337.38381
342.74325
349.09702
356.34672
364.38778
373.03702
382.8172
395.15144
300.01163
300.04386
300.1022
300.19072
300.31217
300.46824
300.65942
300.88467
301.14066
301.41986
301.70633
301.9703
302.18846
302.72803
305.03436
309.12267
313.32606
317.03897
320.95156
325.25722
330.27843
336.50884
344.18212
353.16779
363.09761
373.19818
382.54412
390.86554
400.51304
413.46038
300.00028
300.00134
300.0038
300.00848
300.01627
300.0282
300.04533
300.0688
300.0997
300.13908
300.18817
300.25539
300.47759
302.53829
311.49332
324.46036
332.47559
334.34473
343.04997
354.0603
364.09799
372.31851
379.12146
384.93652
390.05478
394.45652
398.2732
401.9899
410.86946
429.07515
324.37013
346.67336
366.5995
384.72898
401.51035
417.1766
431.78781
445.28309
457.45882
467.98939
476.39926
482.10874
484.35591
476.52495
465.91847
454.36629
444.06938
436.31451
431.20361
428.1276
426.38114
425.47835
425.18959
425.47041
426.36907
427.99442
430.5116
434.2792
440.35338
450.70311
300.52431
301.49617
302.80033
304.36653
306.14145
308.08008
310.13604
312.25596
314.37398
316.40422
318.22708
319.68798
320.59939
320.71724
320.31781
320.12286
320.85991
322.66702
325.20873
328.08792
331.14555
334.39534
337.92224
341.83926
346.24027
351.17989
356.65163
362.58889
369.17993
377.9303
300.01163
300.04373
300.10176
300.18986
300.31087
300.46655
300.65726
300.88164
301.13619
301.41362
301.70121
301.99888
302.30342
302.6551
303.71802
306.38844
311.47252
318.48081
326.18226
333.29382
339.84243
346.27369
352.54596
358.63029
364.50816
370.71264
377.42598
384.45933
391.84951
400.15141
300.00028
300.00133
300.00378
300.00844
300.01622
300.02818
300.04545
300.06921
300.10071
300.14126
300.19288
300.26449
300.41665
301.16172
304.43266
311.55238
321.65839
334.60899
348.30756
361.02667
371.47511
379.55414
386.09971
391.61553
396.42767
400.21317
403.32953
406.0939
408.89497
413.31897
324.37888
346.92765
367.3314
386.17
403.92733
420.89436
437.18372
452.66066
467.01319
480.20556
492.11623
502.51783
510.9124
511.22194
509.08313
504.55818
498.35372
491.49923
484.91268
479.17776
474.55621
471.09772
468.75141
467.44305
467.11489
467.75401
469.42337
472.33441
477.04015
484.45161
300.52508
301.51557
302.87129
304.53276
306.45801
308.61472
310.97358
313.6918
317.44587
322.46386
329.54416
339.19599
351.6108
365.14133
378.50205
390.49697
400.4999
408.25644
413.70573
416.98631
418.54809
419.0239
419.03337
419.09082
419.60742
420.95851
423.57913
428.13343
435.90556
448.27238
300.01167
300.04466
300.10587
300.2013
300.33606
300.51453
300.74023
301.02006
301.37591
301.83241
302.45779
304.3475
309.35971
318.35211
330.54479
344.69909
359.15412
372.72355
384.55976
394.14571
401.35856
406.45023
409.89777
412.24297
413.99374
415.60141
417.48875
420.15961
424.50875
431.90988
300.00028
300.00137
300.004
300.00916
300.01809
300.03231
300.05362
300.08428
300.12759
300.18855
300.27882
300.46909
301.0549
304.16367
312.98544
325.73859
339.36175
352.83989
365.47206
376.63919
385.93897
393.29665
398.91731
403.14946
406.37288
408.9429
411.19539
413.49984
416.43454
420.93827
)
;

boundaryField
{
    maxY
    {
        type            zeroGradient;
    }
    minX
    {
        type            fixedValue;
        value           uniform 300;
    }
    maxX
    {
        type            inletOutlet;
        inletValue      uniform 300;
        value           nonuniform List<scalar> 
40
(
482.60256
445.99262
430.04907
419.5547
449.82462
372.80634
396.09905
410.77887
435.3169
384.47924
400.26052
412.93345
493.67448
411.24471
414.19024
428.62051
536.79232
458.16471
436.1229
440.12312
546.14053
503.70753
472.50237
462.79719
504.87017
428.91381
430.93907
443.80921
438.31835
395.0972
413.23264
428.32437
450.8033
377.93799
400.08613
413.1512
484.51261
448.3442
431.94521
420.94822
)
;
    }
    minZ
    {
        type            zeroGradient;
    }
    maxZ
    {
        type            zeroGradient;
    }
    topAir_to_rightSolid
    {
        type            compressible::turbulentTemperatureCoupledBaffleMixed;
        refValue        nonuniform List<scalar> 
130
(
753.32973
761.30883
769.65023
777.93024
785.83336
793.14353
799.70382
805.41346
810.21454
814.07187
816.97722
818.91789
819.88957
747.49357
756.80573
766.31933
775.54273
784.15385
791.97513
798.89863
804.8617
809.83625
813.81214
816.79601
818.78194
819.77297
735.69171
748.08102
760.11942
771.24876
781.23179
790.00212
797.57628
803.98052
809.24708
813.41654
816.52836
818.59002
819.61669
717.98965
736.22712
752.35501
766.20111
777.96152
787.89253
796.21655
803.10116
808.68062
813.05441
816.2942
818.43152
819.49386
697.1216
724.99458
745.99595
762.44777
775.67767
786.47264
795.32647
802.53832
808.33077
812.8466
816.15991
818.33725
819.41753
697.06923
724.95259
745.95003
762.40412
775.63793
786.4399
795.28826
802.50189
808.30394
812.81605
816.1267
818.30216
819.38203
717.66213
735.9766
752.16503
766.04411
777.8186
787.75547
796.08289
802.97503
808.57197
812.95452
816.1884
818.32291
819.38636
735.12923
747.63038
759.7455
770.93217
780.95361
789.74767
797.33096
803.74236
809.0268
813.22161
816.33864
818.40744
819.44341
746.79702
756.2185
765.80958
775.09364
783.75928
791.61367
798.55603
804.53928
809.54585
813.55851
816.56426
818.5676
819.57229
752.63271
760.68846
769.09109
777.42522
785.3748
792.7151
799.2988
805.03871
809.87953
813.78349
816.72737
818.69549
819.68145
)
;
        refGradient     uniform 0;
        valueFraction   uniform 0.99967867;
        value           nonuniform List<scalar> 
130
(
753.24583
761.2202
769.55701
777.83281
785.73222
793.03922
799.59692
805.30457
810.10426
813.96082
816.8661
818.80758
819.78119
747.39414
756.7015
766.21091
775.43068
784.03868
791.85732
798.77867
804.74011
809.71358
813.689
816.67312
818.6604
819.65409
735.59836
747.98074
760.01284
771.13665
781.11497
789.88146
797.45262
803.85469
809.11989
813.28871
816.4006
818.46334
819.49321
717.9182
736.14984
752.27225
766.11321
777.86878
787.79529
796.11525
802.99632
808.57287
812.94469
816.18419
818.32385
819.38917
697.05829
724.9237
745.91974
762.36763
775.59448
786.38693
795.23861
802.44857
808.23935
812.75388
816.06655
818.24437
819.32671
697.00726
724.88299
745.87509
762.3253
775.55613
786.35572
795.20207
802.41397
808.21452
812.72554
816.03577
818.21194
819.29423
717.59245
735.90156
752.08499
765.95936
777.72939
787.66206
795.9856
802.87428
808.46839
812.84923
816.08309
818.21888
819.2853
735.03655
747.53105
759.63998
770.82108
780.83771
789.62776
797.20794
803.61713
808.90021
813.09443
816.21165
818.28178
819.32095
746.69725
756.11406
765.70106
774.98158
783.64414
791.49592
798.43614
804.41776
809.42325
813.43544
816.44145
818.44611
819.45379
752.5488
760.59984
768.99792
777.32789
785.2738
792.611
799.19216
804.93012
809.7696
813.67284
816.61672
818.58572
819.57376
)
;
        Tnbr            T;
        thicknessLayers List<scalar> 0();
        kappaLayers     List<scalar> 0();
        kappaMethod     fluidThermo;
        kappa           none;
        alphaAni        none;
        alpha           none;
        field           T;
    }
    topAir_to_heater
    {
        type            compressible::turbulentTemperatureCoupledBaffleMixed;
        refValue        nonuniform List<scalar> 
40
(
734.32613
736.39004
740.42102
746.20619
724.96454
727.36569
732.15401
739.04243
705.1804
708.27469
714.61421
724.0015
672.88404
676.78306
685.31738
699.13529
625.59926
629.22117
638.71784
657.883
625.38901
629.04599
638.58171
657.78988
672.10747
676.14139
684.78362
698.70511
704.10044
707.33329
713.80236
723.31448
723.79383
726.3128
731.21655
738.21969
733.16384
735.32254
739.49839
745.40577
)
;
        refGradient     uniform 0;
        valueFraction   uniform 0.99967867;
        value           nonuniform List<scalar> 
40
(
734.25453
736.31716
740.34545
746.12679
724.88507
727.28227
732.06548
738.94835
705.11084
708.20106
714.53481
723.91533
672.82941
676.72588
685.25659
699.06982
625.55865
629.1781
638.67144
657.83107
625.34813
629.00348
638.53666
657.73941
672.05234
676.08409
684.7234
698.64088
704.0305
707.25917
713.72274
723.22854
723.71437
726.22912
731.12758
738.12517
733.09252
735.24984
739.4229
745.32639
)
;
        Tnbr            T;
        thicknessLayers List<scalar> 0();
        kappaLayers     List<scalar> 0();
        kappaMethod     fluidThermo;
        kappa           none;
        alphaAni        none;
        alpha           none;
        field           T;
    }
    topAir_to_leftSolid
    {
        type            compressible::turbulentTemperatureCoupledBaffleMixed;
        refValue        nonuniform List<scalar> 
130
(
898.61928
898.57008
898.48712
898.36213
898.20298
898.04273
897.88188
897.71941
897.55667
897.39487
897.24128
897.11793
897.03165
898.63455
898.58866
898.5011
898.36671
898.18839
898.00715
897.82385
897.63786
897.45241
897.26301
897.11435
897.00732
896.94381
898.68084
898.63658
898.54213
898.39462
898.19402
897.97226
897.7492
897.52316
897.30461
897.09183
896.92077
896.80066
896.7346
898.77004
898.71965
898.61435
898.44847
898.22003
897.95806
897.68149
897.38841
897.10448
896.84447
896.62284
896.4658
896.37782
898.89408
898.83595
898.71149
898.51877
898.26265
897.96691
897.63667
897.25879
896.88969
896.54972
896.25731
896.03217
895.90066
899.02029
898.95361
898.81221
898.59491
898.29686
897.96362
897.58602
897.16197
896.77236
896.41788
896.07602
895.81484
895.663
899.13043
899.06229
898.91857
898.68587
898.34701
897.98527
897.60086
897.19543
896.79788
896.41539
896.05199
895.77295
895.62972
899.22128
899.16201
899.03059
898.81623
898.5067
898.15016
897.76382
897.34851
896.94106
896.55507
896.1901
895.92014
895.77882
899.3203
899.2617
899.13926
898.94611
898.67603
898.3541
898.00234
897.60954
897.19032
896.77864
896.40776
896.14291
895.99765
899.38592
899.32653
899.20611
899.01682
898.75147
898.41648
898.07758
897.71386
897.31766
896.93011
896.58511
896.3236
896.17436
)
;
        refGradient     uniform 0;
        valueFraction   uniform 0.99967867;
        value           nonuniform List<scalar> 
130
(
898.43475
898.3928
898.31642
898.19752
898.04412
897.88937
897.73381
897.57637
897.4183
897.2608
897.1111
896.99115
896.90762
898.45001
898.4113
898.33017
898.20164
898.02877
897.85262
897.67407
897.49248
897.31101
897.12506
896.97918
896.87406
896.81141
898.49629
898.45921
898.37121
898.22959
898.03448
897.81787
897.59964
897.37814
897.1638
896.95486
896.78714
896.66972
896.60538
898.58546
898.54227
898.44343
898.28347
898.06055
897.80381
897.5322
897.24383
896.9644
896.70864
896.49099
896.33749
896.25231
898.70947
898.65853
898.54054
898.35375
898.10318
897.81269
897.48742
897.11431
896.74974
896.41407
896.12561
895.90391
895.77489
898.83564
898.77616
898.64124
898.42988
898.13738
897.8094
897.43679
897.01752
896.63243
896.2822
895.94421
895.68623
895.53657
898.94574
898.88481
898.74756
898.5208
898.1875
897.83102
897.4516
897.05091
896.65788
896.27965
895.92018
895.64455
895.5038
899.03657
898.98449
898.85953
898.65109
898.34708
897.99573
897.61428
897.20356
896.80037
896.41825
896.05663
895.78928
895.64947
899.13555
899.08414
898.96814
898.78088
898.51628
898.19949
897.85254
897.46419
897.04902
896.64086
896.2728
896.00987
895.86538
899.20115
899.14903
899.03521
898.85203
898.59247
898.26304
897.92948
897.57085
897.17939
896.7962
896.45515
896.19706
896.05057
)
;
        Tnbr            T;
        thicknessLayers List<scalar> 0();
        kappaLayers     List<scalar> 0();
        kappaMethod     fluidThermo;
        kappa           none;
        alphaAni        none;
        alpha           none;
        field           T;
    }
}


// ************************************************************************* //
