/*--------------------------------*- C++ -*----------------------------------*\
| =========                 |                                                 |
| \\      /  F ield         | OpenFOAM: The Open Source CFD Toolbox           |
|  \\    /   O peration     | Version:  v2012                                 |
|   \\  /    A nd           | Website:  www.openfoam.com                      |
|    \\/     M anipulation  |                                                 |
\*---------------------------------------------------------------------------*/
FoamFile
{
    version     2.0;
    format      ascii;
    class       volScalarField;
    location    "360/leftSolid";
    object      T;
}
// * * * * * * * * * * * * * * * * * * * * * * * * * * * * * * * * * * * * * //

dimensions      [0 0 0 1 0 0 0];


internalField   nonuniform List<scalar> 
130
(
869.59989
869.51411
869.3708
869.18794
868.98004
868.75917
868.53987
868.35156
868.19823
868.06541
867.9505
867.85635
867.80348
869.48272
869.39744
869.24785
869.04264
868.82622
868.60626
868.37779
868.16147
867.98273
867.82265
867.677
867.55145
867.46094
869.26317
869.16581
869.00569
868.80892
868.58823
868.34721
868.08988
867.83366
867.6011
867.38348
867.18257
867.01495
866.88992
868.9761
868.8843
868.73394
868.53695
868.29765
868.02541
867.7186
867.41856
867.11786
866.80788
866.47919
866.23157
866.09493
868.67343
868.59615
868.44965
868.23661
867.96933
867.67317
867.32949
866.98404
866.62417
866.2382
865.86267
865.61099
865.47111
868.34052
868.27353
868.13761
867.92475
867.63669
867.31348
866.94416
866.56268
866.15908
865.72963
865.39429
865.15213
865.01378
867.95511
867.8952
867.76336
867.55369
867.26746
866.94589
866.58115
866.20455
865.81883
865.4157
865.1035
864.88937
864.77279
867.59234
867.53449
867.40929
867.21113
866.93989
866.6382
866.29615
865.95397
865.61122
865.26502
864.96309
864.76285
864.65486
867.31581
867.2593
867.13874
866.94664
866.70127
866.43053
866.13108
865.81768
865.51462
865.22376
864.95922
864.76611
864.66432
867.18422
867.12815
867.0069
866.81305
866.56898
866.30634
866.02596
865.74055
865.46858
865.21244
864.98907
864.81667
864.72314
)
;

boundaryField
{
    minX
    {
        type            zeroGradient;
    }
    minZ
    {
        type            zeroGradient;
    }
    maxZ
    {
        type            zeroGradient;
    }
    leftSolid_to_bottomWater
    {
        type            compressible::turbulentTemperatureCoupledBaffleMixed;
        refValue        nonuniform List<scalar> 
130
(
982.24203
978.81567
976.7002
975.46272
973.80962
971.38953
967.82179
967.78803
968.95514
968.87007
968.45942
966.33085
966.39288
981.27963
979.05236
977.81118
971.64105
969.67022
970.10091
967.955
965.48007
967.59631
967.74347
966.73651
964.29126
958.62497
980.36497
975.55248
971.68062
970.14227
969.53128
968.65576
966.95399
964.47434
965.30134
965.89829
966.36415
965.35015
955.7592
977.22815
972.87184
971.34448
971.08212
969.91091
968.89376
963.55947
963.71154
963.65125
963.73611
951.18687
943.25484
940.16601
976.61768
974.94743
973.35586
970.90349
968.40326
969.53555
963.56965
963.46564
963.08831
957.60854
942.79748
942.77311
940.48326
977.00065
976.37134
976.64018
975.49074
969.69233
968.3405
963.8137
962.16029
958.52223
943.56051
943.9886
941.81371
938.33361
973.8907
974.21634
973.99037
972.47307
966.37503
964.97856
961.08047
958.66836
957.50835
945.40924
944.35343
944.37824
943.4451
970.21816
970.33697
970.19021
969.49871
963.80355
962.7288
957.0534
956.41991
956.17429
951.5498
944.06263
944.637
943.50307
966.70778
966.61865
966.79628
964.58696
961.82036
961.96621
960.5537
957.14183
956.52504
955.61222
950.98572
947.85192
946.78274
966.52794
966.51993
966.39192
963.35679
959.39345
958.54713
956.94793
955.11893
955.17894
954.21708
953.49616
951.06539
949.78716
)
;
        refGradient     uniform 0;
        valueFraction   nonuniform List<scalar> 
130
(
0.0075140686
0.0075140686
0.0075140686
0.0075140686
0.0075140686
0.0075140686
0.0075140686
0.0075140686
0.0075140686
0.0075140686
0.0075140686
0.0075140686
0.0075140686
0.0075140686
0.0075140686
0.0075140686
0.0075140686
0.0075140686
0.0075140686
0.0075140686
0.0075140686
0.0075140686
0.0075140686
0.0075140686
0.0075140686
0.0075140686
0.0075140686
0.0075140686
0.0075140686
0.0075140686
0.0075140686
0.0075140686
0.0075140686
0.0075140686
0.0075140686
0.0075140686
0.0075140686
0.0075140686
0.0075140686
0.0075140686
0.0075140686
0.0075140686
0.0075140686
0.0075140686
0.0075140686
0.0075140686
0.0075140686
0.0075140686
0.0075140686
0.0075140686
0.0075140686
0.0075140686
0.0075140686
0.0075140686
0.0075140686
0.0075140686
0.0075140686
0.0075140686
0.0075140686
0.0075140686
0.0075140686
0.0075140686
0.0075140686
0.0075140686
0.0075140686
0.0075140686
0.0075140686
0.0075140686
0.0075140686
0.0075140686
0.0075140686
0.0075140686
0.0075140686
0.0075140686
0.0075140686
0.0075140686
0.0075140686
0.0075140686
0.0075140686
0.0075140686
0.0075140686
0.0075140686
0.0075140686
0.0075140686
0.0075140686
0.0075140686
0.0075140686
0.0075140686
0.0075140686
0.0075140686
0.0075140686
0.0075140686
0.0075140686
0.0075140686
0.0075140686
0.0075140686
0.0075140686
0.0075140686
0.0075140686
0.0075140686
0.0075140686
0.0075140686
0.0075140686
0.0075140686
0.0075140686
0.0075140686
0.0075140686
0.0075140686
0.0075140686
0.0075140686
0.0075140686
0.0075140686
0.0075140686
0.0075140686
0.0075140686
0.0075140686
0.0075140686
0.0075140686
0.0075140686
0.0075140686
0.0075140686
0.0075140686
0.0075140686
0.0075140686
0.0075140686
0.0075140686
0.0075140686
0.0075140686
0.0075140686
0.0075140686
)
;
        value           nonuniform List<scalar> 
130
(
870.44087
870.32997
870.17181
869.98102
869.76226
869.52487
869.28042
869.09327
868.94991
868.8175
868.70043
868.59107
868.5391
870.31737
870.21598
870.05815
869.8081
869.57851
869.36344
869.12058
868.88727
868.72579
868.56809
868.41603
868.27313
868.14077
870.09262
869.95981
869.77177
869.5649
869.34127
869.09548
868.8273
868.55436
868.32974
868.11824
867.92237
867.74848
867.55239
869.78414
869.66028
869.49955
869.30204
869.05572
868.77788
868.43328
868.13662
867.83769
867.53063
867.11002
866.80474
866.64596
869.47913
869.38988
869.23253
869.00263
868.71849
868.43305
868.04713
867.70349
867.34349
866.91922
866.43518
866.18519
866.02915
869.15154
869.08033
868.94743
868.72753
868.39806
868.06713
867.66651
867.27546
866.84758
866.3089
865.97926
865.72256
865.55908
868.74557
868.68856
868.556
868.33651
868.00665
867.67703
867.28568
866.89378
866.50223
866.01119
865.6934
865.48107
865.35835
868.35796
868.30143
868.17606
867.97419
867.6622
867.35475
866.97262
866.62826
866.28621
865.90782
865.55191
865.35749
865.24179
868.05718
868.00041
867.88208
867.67481
867.41051
867.14291
866.83511
866.49845
866.19302
865.89747
865.60013
865.38493
865.2759
867.92526
867.86954
867.74823
867.53302
867.26101
866.99399
866.70372
866.40674
866.13727
865.87583
865.64872
865.45935
865.35694
)
;
        Tnbr            T;
        thicknessLayers List<scalar> 0();
        kappaLayers     List<scalar> 0();
        kappaMethod     solidThermo;
        kappa           none;
        alphaAni        none;
        alpha           none;
        field           T;
    }
    leftSolid_to_heater
    {
        type            compressible::turbulentTemperatureCoupledBaffleMixed;
        refValue        nonuniform List<scalar> 10(726.77003 717.50188 698.066 666.3594 620.20017 619.88767 665.19087 696.13687 715.14766 724.18253);
        refGradient     uniform 0;
        valueFraction   nonuniform List<scalar> 10(2.08329e-05 2.08329e-05 2.08329e-05 2.08329e-05 2.08329e-05 2.08329e-05 2.08329e-05 2.08329e-05 2.08329e-05 2.08329e-05);
        value           nonuniform List<scalar> 10(867.79532 867.4526 866.88106 866.08518 865.46035 865.003 864.763 864.64577 864.6557 864.7148);
        Tnbr            T;
        thicknessLayers List<scalar> 1(0.001);
        kappaLayers     List<scalar> 1(0.0005);
        kappaMethod     solidThermo;
        kappa           none;
        alphaAni        none;
        alpha           none;
        field           T;
    }
    leftSolid_to_topAir
    {
        type            compressible::turbulentTemperatureCoupledBaffleMixed;
        refValue        nonuniform List<scalar> 
130
(
323.18526
344.64673
364.06625
381.98721
398.86733
414.98755
430.46738
445.20615
458.88534
471.4766
482.87396
492.87912
501.06458
323.17496
344.40012
363.36321
380.60804
396.56017
411.44543
425.32782
438.16177
449.77345
459.87507
468.05262
473.81452
476.55089
323.1635
344.41939
363.42995
380.7379
396.77534
411.779
425.85834
439.04911
451.30172
462.4666
472.26508
480.23946
485.52202
323.15177
344.41108
363.44728
380.80816
396.94164
412.11477
426.4821
440.13834
453.1339
465.46009
477.00769
487.46027
495.93774
323.13893
344.39192
363.42855
380.79517
396.94012
412.13249
426.52762
440.22249
453.26235
465.61837
477.12141
487.3022
495.05799
323.12555
344.36682
363.39341
380.75092
396.88682
412.07045
426.45865
440.15023
453.19881
465.59463
477.21754
487.68962
495.94617
323.11067
344.33386
363.33819
380.66896
396.77187
411.91346
426.24799
439.87254
452.83511
465.13504
476.69357
487.255
496.02805
323.0961
344.29177
363.24859
380.50563
396.49153
411.44145
425.45922
438.58506
450.77648
461.89
471.65957
479.66938
485.12336
323.08755
344.23359
363.12528
380.30287
396.18781
411.00519
424.82614
437.59992
449.15655
459.20807
467.35232
473.11696
475.93192
323.08781
344.46032
363.7982
381.64027
398.44139
414.48273
429.89028
444.58861
458.23154
470.79061
482.16197
492.15155
500.3402
)
;
        refGradient     uniform 0;
        valueFraction   nonuniform List<scalar> 
130
(
0.00032132529
0.00032132529
0.00032132529
0.00032132529
0.00032132529
0.00032132529
0.00032132529
0.00032132529
0.00032132529
0.00032132529
0.00032132529
0.00032132529
0.00032132529
0.00032132529
0.00032132529
0.00032132529
0.00032132529
0.00032132529
0.00032132529
0.00032132529
0.00032132529
0.00032132529
0.00032132529
0.00032132529
0.00032132529
0.00032132529
0.00032132529
0.00032132529
0.00032132529
0.00032132529
0.00032132529
0.00032132529
0.00032132529
0.00032132529
0.00032132529
0.00032132529
0.00032132529
0.00032132529
0.00032132529
0.00032132529
0.00032132529
0.00032132529
0.00032132529
0.00032132529
0.00032132529
0.00032132529
0.00032132529
0.00032132529
0.00032132529
0.00032132529
0.00032132529
0.00032132529
0.00032132529
0.00032132529
0.00032132529
0.00032132529
0.00032132529
0.00032132529
0.00032132529
0.00032132529
0.00032132529
0.00032132529
0.00032132529
0.00032132529
0.00032132529
0.00032132529
0.00032132529
0.00032132529
0.00032132529
0.00032132529
0.00032132529
0.00032132529
0.00032132529
0.00032132529
0.00032132529
0.00032132529
0.00032132529
0.00032132529
0.00032132529
0.00032132529
0.00032132529
0.00032132529
0.00032132529
0.00032132529
0.00032132529
0.00032132529
0.00032132529
0.00032132529
0.00032132529
0.00032132529
0.00032132529
0.00032132529
0.00032132529
0.00032132529
0.00032132529
0.00032132529
0.00032132529
0.00032132529
0.00032132529
0.00032132529
0.00032132529
0.00032132529
0.00032132529
0.00032132529
0.00032132529
0.00032132529
0.00032132529
0.00032132529
0.00032132529
0.00032132529
0.00032132529
0.00032132529
0.00032132529
0.00032132529
0.00032132529
0.00032132529
0.00032132529
0.00032132529
0.00032132529
0.00032132529
0.00032132529
0.00032132529
0.00032132529
0.00032132529
0.00032132529
0.00032132529
0.00032132529
0.00032132529
0.00032132529
0.00032132529
)
;
        value           nonuniform List<scalar> 
130
(
869.41886
869.33998
869.20293
869.02588
868.82346
868.60785
868.39361
868.2101
868.06125
867.93258
867.82143
867.7306
867.68041
869.30174
869.22329
869.0798
868.88018
868.66897
868.45386
868.22995
868.0178
867.84287
867.68615
867.54324
867.41967
867.33011
869.08228
868.99176
868.83777
868.6466
868.43113
868.19501
867.94229
867.69037
867.46181
867.24785
867.05018
866.88527
866.76204
868.7953
868.71035
868.56612
868.37475
868.14069
867.87341
867.57131
867.27573
866.97927
866.67331
866.34834
866.10424
865.97041
868.49269
868.42227
868.28194
868.07452
867.81243
867.52123
867.1823
866.84135
866.48579
866.10389
865.73213
865.48379
865.34644
868.15983
868.09969
867.96991
867.76269
867.4799
867.16168
866.79704
866.42007
866.02082
865.59546
865.26393
865.02519
864.88952
867.77445
867.72138
867.59567
867.39165
867.11073
866.79415
866.43408
866.06196
865.68053
865.28145
864.97306
864.7624
864.64867
867.41182
867.36079
867.24171
867.04916
866.78315
866.48641
866.14897
865.81113
865.47238
865.12982
864.83113
864.63353
864.52733
867.13542
867.08572
866.97125
866.78472
866.54455
866.27867
865.98377
865.6746
865.37534
865.08778
864.82592
864.63473
864.5339
867.00392
866.95472
866.83972
866.65165
866.41306
866.15567
865.88035
865.59978
865.33229
865.08026
864.86062
864.69149
864.60064
)
;
        Tnbr            T;
        thicknessLayers List<scalar> 0();
        kappaLayers     List<scalar> 0();
        kappaMethod     solidThermo;
        kappa           none;
        alphaAni        none;
        alpha           none;
        field           T;
    }
}


// ************************************************************************* //
