/*--------------------------------*- C++ -*----------------------------------*\
| =========                 |                                                 |
| \\      /  F ield         | OpenFOAM: The Open Source CFD Toolbox           |
|  \\    /   O peration     | Version:  v2012                                 |
|   \\  /    A nd           | Website:  www.openfoam.com                      |
|    \\/     M anipulation  |                                                 |
\*---------------------------------------------------------------------------*/
FoamFile
{
    version     2.0;
    format      ascii;
    class       volScalarField;
    location    "320/heater";
    object      T;
}
// * * * * * * * * * * * * * * * * * * * * * * * * * * * * * * * * * * * * * //

dimensions      [0 0 0 1 0 0 0];


internalField   nonuniform List<scalar> 
80
(
718.54465
720.48194
724.34769
729.90954
709.58722
711.8951
716.4883
723.09568
690.75329
693.77231
699.85947
708.84447
660.02314
663.79789
671.98973
685.22073
344.98323
342.15063
342.17784
344.94404
420.16218
416.68077
416.90425
420.59339
483.97558
481.03261
481.76412
485.67298
537.80077
535.94991
537.85903
542.51754
581.86262
581.91536
586.4189
593.99098
615.03343
618.48075
627.59235
645.98222
344.89487
342.1316
342.17262
344.9258
419.96644
416.61032
416.85794
420.50651
483.74979
480.94328
481.70674
485.60308
537.62425
535.86914
537.80636
542.47717
581.73697
581.84333
586.37315
593.966
614.91481
618.37656
627.5004
645.89766
659.62948
663.42703
671.64258
684.89692
690.13731
693.12787
699.2175
708.21169
708.81899
711.13123
715.72125
722.31392
717.66868
719.64293
723.53294
729.06111
)
;

boundaryField
{
    minY
    {
        type            fixedValue;
        value           uniform 300;
    }
    minZ
    {
        type            zeroGradient;
    }
    maxZ
    {
        type            zeroGradient;
    }
    heater_to_topAir
    {
        type            compressible::turbulentTemperatureCoupledBaffleMixed;
        refValue        nonuniform List<scalar> 
40
(
496.25985
495.67635
492.94229
488.44014
466.59709
459.28096
450.55846
441.87358
477.45053
470.83393
461.12928
450.04515
491.18221
488.95133
486.27046
484.96887
488.15423
484.62273
483.06053
484.49049
485.79142
483.14023
483.39723
486.18754
488.20272
485.82623
484.59436
485.26816
475.28408
467.9734
458.45305
448.46053
465.36803
457.45591
448.09819
439.07816
495.5886
494.8834
491.9572
487.26643
)
;
        refGradient     uniform 0;
        valueFraction   nonuniform List<scalar> 
40
(
0.00032132529
0.00032132529
0.00032132529
0.00032132529
0.00032132529
0.00032132529
0.00032132529
0.00032132529
0.00032132529
0.00032132529
0.00032132529
0.00032132529
0.00032132529
0.00032132529
0.00032132529
0.00032132529
0.00032132529
0.00032132529
0.00032132529
0.00032132529
0.00032132529
0.00032132529
0.00032132529
0.00032132529
0.00032132529
0.00032132529
0.00032132529
0.00032132529
0.00032132529
0.00032132529
0.00032132529
0.00032132529
0.00032132529
0.00032132529
0.00032132529
0.00032132529
0.00032132529
0.00032132529
0.00032132529
0.00032132529
)
;
        value           nonuniform List<scalar> 
40
(
718.47001
720.40653
724.27028
729.82886
709.50606
711.81095
716.39989
723.00232
690.68196
693.6979
699.77998
708.75848
659.96643
663.73928
671.9276
685.15382
614.99061
618.43569
627.54382
645.92812
614.87131
618.3311
627.45204
645.84414
659.57212
663.36772
671.58015
684.83027
690.06578
693.05303
699.13758
708.12552
708.73815
711.04707
715.63256
722.2201
717.59465
719.568
723.45572
728.98048
)
;
        Tnbr            T;
        thicknessLayers List<scalar> 0();
        kappaLayers     List<scalar> 0();
        kappaMethod     solidThermo;
        kappa           none;
        alphaAni        none;
        alpha           none;
        field           T;
    }
    heater_to_rightSolid
    {
        type            compressible::turbulentTemperatureCoupledBaffleMixed;
        refValue        nonuniform List<scalar> 10(736.72068 731.18958 720.01712 703.24394 683.47878 683.3887 702.92896 719.40005 730.40378 735.86042);
        refGradient     uniform 0;
        valueFraction   nonuniform List<scalar> 10(0.49999997 0.49999997 0.49999997 0.49999997 0.49999997 0.49999997 0.49999997 0.49999997 0.49999997 0.49999997);
        value           nonuniform List<scalar> 10(733.31356 727.14113 714.42938 694.23105 664.72939 664.64208 693.91169 713.80452 726.35745 732.4593);
        Tnbr            T;
        thicknessLayers List<scalar> 0();
        kappaLayers     List<scalar> 0();
        kappaMethod     solidThermo;
        kappa           none;
        alphaAni        none;
        alpha           none;
        field           T;
    }
    heater_to_leftSolid
    {
        type            compressible::turbulentTemperatureCoupledBaffleMixed;
        refValue        nonuniform List<scalar> 10(848.78784 848.49581 847.94223 847.21484 846.60012 846.25353 846.26649 846.52601 846.72447 846.82925);
        refGradient     uniform 0;
        valueFraction   nonuniform List<scalar> 10(2.0832898e-05 2.0832898e-05 2.0832898e-05 2.0832898e-05 2.0832898e-05 2.0832898e-05 2.0832898e-05 2.0832898e-05 2.0832898e-05 2.0832898e-05);
        value           nonuniform List<scalar> 10(718.54414 709.58703 690.75378 660.02458 615.0362 614.91762 659.63109 690.13807 708.81925 717.6687);
        Tnbr            T;
        thicknessLayers List<scalar> 1(0.001);
        kappaLayers     List<scalar> 1(0.0005);
        kappaMethod     solidThermo;
        kappa           none;
        alphaAni        none;
        alpha           none;
        field           T;
    }
    heater_to_bottomWater
    {
        type            compressible::turbulentTemperatureCoupledBaffleMixed;
        refValue        nonuniform List<scalar> 
92
(
969.49207
956.44146
950.31679
955.13285
963.18637
952.5633
950.72175
952.41481
956.59484
953.86061
951.01228
950.08301
956.30997
936.31069
938.36871
939.28907
955.84731
938.51301
939.75774
942.60062
954.58769
939.51296
942.23963
943.85482
952.53476
939.31582
942.82537
941.68475
947.27692
947.27692
936.17397
936.17397
936.22726
936.22726
936.3624
936.3624
950.3609
925.69629
951.03351
930.61683
948.63047
933.84791
946.44767
937.27253
940.48523
939.44562
943.71739
944.73535
944.33355
944.57762
923.96988
940.58784
936.97744
940.35163
941.88933
939.53314
922.25119
934.00679
930.6615
937.82184
940.27709
938.7897
932.25069
933.82728
934.2424
937.09289
937.51897
937.22106
938.52747
936.64927
933.29593
939.9722
933.53682
935.71507
941.31429
939.45624
939.9722
933.53682
935.71507
939.45624
951.59061
939.72788
939.345
940.11263
953.35643
946.02339
944.15242
944.48591
952.59704
947.03755
949.42482
947.11114
)
;
        refGradient     uniform 0;
        valueFraction   nonuniform List<scalar> 
92
(
0.0075140686
0.0075140686
0.0075140686
0.0075140686
0.0075140686
0.0075140686
0.0075140686
0.0075140686
0.0075140686
0.0075140686
0.0075140686
0.0075140686
0.0075140686
0.0075140686
0.0075140686
0.0075140686
0.0075140686
0.0075140686
0.0075140686
0.0075140686
0.0075140686
0.0075140686
0.0075140686
0.0075140686
0.0075140686
0.0075140686
0.0075140686
0.0075140686
0.0075140686
0.0075140686
0.0075140686
0.0075140686
0.0075140686
0.0075140686
0.0075140686
0.0075140686
0.0075140679
0.0075140679
0.0075140679
0.0075140679
0.0075140679
0.0075140679
0.0075140679
0.0075140679
0.0075140679
0.0075140679
0.0075140679
0.0075140686
0.0075140686
0.0075140686
0.0075140679
0.0075140686
0.0075140679
0.0075140686
0.0075140686
0.0075140686
0.0075140679
0.0075140686
0.0075140679
0.0075140686
0.0075140686
0.0075140686
0.0075140679
0.0075140686
0.0075140679
0.0075140686
0.0075140686
0.0075140686
0.0075140679
0.0075140686
0.0075140679
0.0075140686
0.0075140686
0.0075140686
0.0075140679
0.0075140686
0.0075140686
0.0075140686
0.0075140686
0.0075140686
0.0075140686
0.0075140686
0.0075140686
0.0075140686
0.0075140686
0.0075140686
0.0075140686
0.0075140686
0.0075140686
0.0075140686
0.0075140686
0.0075140686
)
;
        value           nonuniform List<scalar> 
92
(
720.42709
722.25181
726.0426
731.59881
711.48972
713.70054
718.24541
724.81582
692.74807
695.72388
701.74389
710.65434
349.57652
346.61496
346.65745
349.40976
424.18673
420.60125
420.83244
424.51524
487.51082
484.4767
485.22324
489.11488
540.91577
538.97949
540.90066
545.51564
662.17914
584.60662
665.84214
584.57558
673.97279
589.04569
687.10528
596.56189
349.53181
349.30762
424.15056
424.42519
487.46606
489.03969
540.87004
545.48249
584.55559
596.58506
349.39406
349.40171
346.65632
346.69894
349.27661
349.40148
423.85039
423.87574
420.55665
420.78482
424.27612
424.36446
487.10685
487.16065
484.39379
485.14039
488.95836
488.9702
540.60332
540.62474
538.88587
540.80631
545.45184
545.43773
584.37698
584.42715
584.48433
588.99647
596.57432
596.56036
661.73374
665.45443
673.62453
686.80721
692.09941
694.97837
701.0193
709.95153
710.65387
712.89359
717.43502
723.98055
719.4313
721.3489
725.22752
730.69664
)
;
        Tnbr            T;
        thicknessLayers List<scalar> 0();
        kappaLayers     List<scalar> 0();
        kappaMethod     solidThermo;
        kappa           none;
        alphaAni        none;
        alpha           none;
        field           T;
    }
}


// ************************************************************************* //
