/*--------------------------------*- C++ -*----------------------------------*\
| =========                 |                                                 |
| \\      /  F ield         | OpenFOAM: The Open Source CFD Toolbox           |
|  \\    /   O peration     | Version:  v2012                                 |
|   \\  /    A nd           | Website:  www.openfoam.com                      |
|    \\/     M anipulation  |                                                 |
\*---------------------------------------------------------------------------*/
FoamFile
{
    version     2.0;
    format      ascii;
    class       volScalarField;
    location    "520/topAir";
    object      rho;
}
// * * * * * * * * * * * * * * * * * * * * * * * * * * * * * * * * * * * * * //

dimensions      [1 -3 0 0 0 0 0];


internalField   nonuniform List<scalar> 
1200
(
1.0700682
0.99943264
0.94310077
0.89643923
0.85648018
0.82148087
0.79047673
0.76312932
0.73940679
0.71886594
0.70127589
0.68660549
0.6752215
0.67516692
0.67837869
0.68486416
0.69382609
0.70395755
0.71394959
0.72284827
0.73013264
0.73562486
0.73935691
0.74144627
0.74200369
0.741062
0.73851619
0.73403379
0.72681341
0.71566646
1.1565601
1.152693
1.1474435
1.1410768
1.133789
1.1257373
1.1170626
1.107138
1.0937527
1.0763025
1.0525895
1.0221645
0.98571041
0.94904827
0.9155142
0.88741671
0.86533053
0.84897841
0.83783669
0.83122495
0.82806718
0.82705917
0.82698388
0.8268332
0.82577533
0.82303738
0.81775654
0.80871472
0.79379988
0.77204886
1.1585742
1.1584446
1.1582041
1.1578296
1.1573013
1.1566028
1.1557211
1.154628
1.1532398
1.1514622
1.1490313
1.1415528
1.1227369
1.090961
1.050749
1.0076935
0.96711662
0.93178472
0.9028861
0.88062323
0.86444782
0.85326833
0.84577894
0.84071547
0.8369707
0.83358593
0.82967151
0.82420132
0.81546075
0.80131397
1.158618
1.1586137
1.1586034
1.1585831
1.158548
1.1584923
1.1584088
1.1582888
1.1581196
1.157882
1.1575319
1.1567982
1.1546186
1.1433497
1.1121867
1.0690428
1.0259107
0.98627312
0.95164142
0.92281887
0.89995105
0.88251847
0.86956276
0.86000762
0.85285191
0.84723437
0.84239277
0.83752608
0.83143919
0.82236906
1.070083
1.0001519
0.94497789
0.89980445
0.86166013
0.82884584
0.8004148
0.77583764
0.75492986
0.73775778
0.72462441
0.71601398
0.71277444
0.72515483
0.7423561
0.76193619
0.78033024
0.7948494
0.80470142
0.81062003
0.81381421
0.81523846
0.81544832
0.81466036
0.81285723
0.80983204
0.80519551
0.79822424
0.78714619
0.76933488
1.1565628
1.1527674
1.1477149
1.1417071
1.1349759
1.1277162
1.1201215
1.1124013
1.1047957
1.0976117
1.0912516
1.0862271
1.0831505
1.0828174
1.0842634
1.0850594
1.0827531
1.0768113
1.0683931
1.0589418
1.0491195
1.038959
1.0282626
1.0167054
1.00397
0.98989571
0.97459878
0.95840055
0.9409945
0.9173124
1.1585744
1.1584482
1.1582202
1.1578743
1.1573997
1.1567902
1.156045
1.1551705
1.1541814
1.1531071
1.1519992
1.1508576
1.1496955
1.1483376
1.1443303
1.1344514
1.1162501
1.0917832
1.0656947
1.0422817
1.0216437
1.0017629
0.98285126
0.96512793
0.94900668
0.93334482
0.91697289
0.90013479
0.88290741
0.86497971
1.158618
1.1586138
1.1586042
1.1585859
1.1585553
1.1585084
1.1584408
1.1583479
1.1582251
1.1580675
1.157868
1.1575926
1.1570018
1.1540523
1.1417916
1.1164631
1.0826152
1.0410146
0.99964185
0.96349195
0.9352847
0.91467396
0.89872747
0.88588975
0.87494932
0.86596283
0.858807
0.85264005
0.8465569
0.83925729
1.0700837
1.000028
0.94471234
0.8993881
0.86106921
0.82803355
0.79924269
0.77404475
0.75207561
0.73323079
0.7176983
0.70604611
0.69956243
0.7097966
0.72459641
0.74133124
0.75803514
0.77394441
0.7886718
0.80197298
0.81374441
0.82377101
0.83159225
0.83664286
0.83851108
0.83714245
0.83271361
0.82528067
0.81299244
0.79237272
1.1565624
1.1527543
1.1476785
1.1416405
1.1348702
1.1275534
1.11986
1.1119646
1.1040785
1.0964792
1.0895936
1.0840898
1.0808998
1.0807107
1.0814355
1.0807722
1.0783724
1.0745891
1.069349
1.0626092
1.0542527
1.0439008
1.0311012
1.0156154
0.99754126
0.97729515
0.95551216
0.93316637
0.90974128
0.8822
1.1585744
1.1584476
1.1582183
1.1578707
1.1573941
1.1567825
1.1560347
1.1551554
1.1541588
1.1530764
1.1519714
1.1509617
1.1501089
1.147752
1.1389216
1.1241854
1.1094455
1.0967077
1.0835562
1.0695043
1.0537964
1.0350735
1.0127433
0.98723103
0.95971994
0.93272723
0.90879792
0.8887331
0.8680104
0.84306943
1.158618
1.1586138
1.1586041
1.1585857
1.1585551
1.1585083
1.158441
1.158349
1.1582281
1.1580743
1.1578825
1.1576113
1.156608
1.147509
1.1145311
1.0709721
1.0463261
1.041094
1.0149435
0.98238218
0.95396603
0.93191128
0.91453757
0.90032373
0.88813417
0.87771079
0.86896704
0.86085286
0.84336187
0.81540592
1.0700689
0.99995945
0.94454408
0.89907176
0.8605258
0.82713333
0.7977932
0.77177222
0.74858315
0.72797041
0.70998268
0.69516171
0.68477797
0.68961642
0.69359547
0.69438896
0.692582
0.68994036
0.68773223
0.68675584
0.68754418
0.69028091
0.69488509
0.70105484
0.70807345
0.71436961
0.71717262
0.71347702
0.7040834
0.68937957
1.1565619
1.1527482
1.1476555
1.1415841
1.134755
1.127338
1.1194773
1.1113117
1.1030032
1.0947948
1.087131
1.0808349
1.0769663
1.0746934
1.0709093
1.0656123
1.0595986
1.0533353
1.0467817
1.0395567
1.0310778
1.0209039
1.0089956
0.99554838
0.98057729
0.96379842
0.94495929
0.92382021
0.8825582
0.81441247
1.1585744
1.1584473
1.158217
1.157867
1.1573855
1.156765
1.1560014
1.1550958
1.1540579
1.1529162
1.1517442
1.1506912
1.1494997
1.1421434
1.1259911
1.1130574
1.1042756
1.0968117
1.0875567
1.0745975
1.0570075
1.03485
1.0092796
0.98120481
0.9510492
0.92019232
0.89228631
0.86917645
0.84440242
0.80712396
1.158618
1.1586138
1.158604
1.1585855
1.1585545
1.1585069
1.1584381
1.1583434
1.1582175
1.1580549
1.1578438
1.1574449
1.1545505
1.1229617
1.052248
1.0021271
0.99881709
0.99919311
0.99333547
0.97454458
0.95359902
0.93481013
0.91835993
0.90327435
0.8879375
0.87144213
0.85334441
0.83418017
0.81251479
0.78441398
1.0700527
0.99991809
0.9444702
0.89896096
0.86037253
0.8269276
0.79752606
0.77144069
0.74820708
0.72763565
0.70994283
0.69596607
0.68687947
0.69310775
0.69566927
0.69390716
0.6906535
0.68592111
0.68041118
0.67463005
0.66901355
0.66396448
0.65983685
0.65688487
0.65516969
0.65440235
0.65376306
0.65185789
0.6468021
0.63646297
1.1565615
1.1527449
1.1476446
1.1415595
1.134709
1.1272613
1.119359
1.1111417
1.1027826
1.0945698
1.0870728
1.0813379
1.078159
1.0740563
1.0682113
1.0613712
1.0490935
1.0313295
1.0091628
0.9829986
0.95333844
0.92103642
0.88736156
0.85394962
0.82242557
0.79351561
0.76695271
0.74162933
0.7163242
0.68715209
1.1585743
1.1584472
1.1582164
1.1578651
1.1573813
1.1567566
1.1559866
1.1550716
1.1540217
1.1528715
1.1517159
1.1507187
1.1486631
1.1326226
1.1186094
1.1096736
1.1044795
1.0979158
1.088534
1.0748457
1.0548141
1.0296121
1.000895
0.96777723
0.93184646
0.89452442
0.85669578
0.81815607
0.77763553
0.73201454
1.158618
1.1586138
1.158604
1.1585854
1.1585542
1.1585061
1.1584364
1.15834
1.1582111
1.1580428
1.1578118
1.1571732
1.1500725
1.0637374
0.98745195
0.97429985
0.96864632
0.96424154
0.95791474
0.94866693
0.93823118
0.92771309
0.91845213
0.91107024
0.90132512
0.88727225
0.86755421
0.83739032
0.79703967
0.75051672
1.0700312
0.99988143
0.94442189
0.89890175
0.86030289
0.82684809
0.7974357
0.77133341
0.74806291
0.72740788
0.70952217
0.69515178
0.68572621
0.69282696
0.69698543
0.6967099
0.69350408
0.68890585
0.68366549
0.67836087
0.67348424
0.66942724
0.66644365
0.66462647
0.663884
0.66387288
0.66377934
0.66219964
0.657371
0.64756625
1.1565609
1.1527432
1.1476414
1.1415539
1.1347003
1.1272482
1.1193394
1.1111105
1.1027259
1.0944523
1.0868104
1.0807938
1.0775067
1.0742556
1.0689361
1.0625392
1.0543137
1.0421485
1.0282591
1.0152095
1.0038034
0.99236547
0.9778554
0.95854715
0.93475312
0.90705208
0.87577215
0.84033899
0.79748027
0.74510988
1.1585743
1.1584471
1.1582162
1.1578648
1.1573807
1.1567557
1.1559849
1.1550684
1.1540152
1.1528557
1.1516751
1.1506493
1.1491041
1.1338735
1.116773
1.1056674
1.0996883
1.0939396
1.087161
1.0748169
1.0539035
1.0237154
0.98831881
0.9569348
0.93329043
0.91539378
0.89851914
0.8738379
0.83780866
0.78846132
1.158618
1.1586138
1.158604
1.1585854
1.1585541
1.158506
1.1584363
1.1583399
1.1582109
1.158043
1.1578205
1.1573396
1.152531
1.0796795
0.98448198
0.96748775
0.96041199
0.95490617
0.94810394
0.9419848
0.93377705
0.92381105
0.91354872
0.90345181
0.89265604
0.88065767
0.86799538
0.85076736
0.82337922
0.78886762
1.0700067
0.99985417
0.94440767
0.89890901
0.86034063
0.82692699
0.79756595
0.77151967
0.74829992
0.72762999
0.70951117
0.69439498
0.68358911
0.68902339
0.69494313
0.6981485
0.6986203
0.69803616
0.69809926
0.69991632
0.70383889
0.70950078
0.71613207
0.72296915
0.72945683
0.73493038
0.73741843
0.73306205
0.71944611
0.70387716
1.1565604
1.1527435
1.1476463
1.1415685
1.1347312
1.1273036
1.1194294
1.1112441
1.1029036
1.0946346
1.0868398
1.0802764
1.0761062
1.0746315
1.0719421
1.0672199
1.0615653
1.0557101
1.0498718
1.0436576
1.0362656
1.0268254
1.0147291
1.0000157
0.98304697
0.96402846
0.94352749
0.9231566
0.89457672
0.83338371
1.1585743
1.1584472
1.1582167
1.1578661
1.157384
1.1567623
1.1559969
1.1550884
1.154045
1.1528919
1.1516935
1.1505929
1.1495947
1.1446945
1.1270321
1.1101002
1.0982522
1.0893305
1.0793001
1.0651835
1.0454147
1.0199496
0.99071743
0.96185162
0.9359676
0.91350411
0.89369193
0.87757078
0.86140761
0.83358072
1.158618
1.1586138
1.158604
1.1585855
1.1585544
1.1585067
1.1584377
1.1583426
1.1582162
1.158053
1.1578446
1.1575196
1.1557887
1.1349003
1.0599843
0.99606108
0.98909983
0.98979689
0.99158185
0.9803719
0.96155566
0.94253803
0.92619619
0.91291557
0.9007907
0.8889442
0.87253935
0.85205502
0.82911937
0.81185391
1.06999
0.99986867
0.94450409
0.89913911
0.86078222
0.82770821
0.7988837
0.77364185
0.75161574
0.73270542
0.71707999
0.70525405
0.69847193
0.708761
0.72465538
0.74337721
0.76215382
0.77971502
0.79556468
0.8094113
0.82102177
0.83010644
0.83631679
0.83941885
0.83946357
0.83683129
0.83197099
0.82490273
0.8139058
0.79308028
1.1565601
1.1527473
1.1476645
1.1416169
1.1348339
1.127501
1.1197876
1.1118672
1.1039463
1.0963024
1.0893386
1.0836839
1.0802715
1.0802407
1.0819313
1.0820936
1.0799027
1.0759264
1.0703132
1.0630868
1.0541741
1.0432951
1.0301752
1.0148892
0.99786975
0.97958805
0.96009188
0.93992154
0.91950841
0.89552794
1.1585743
1.1584474
1.1582177
1.1578694
1.1573917
1.1567784
1.1560279
1.1551448
1.1541427
1.1530506
1.1519285
1.1508863
1.1500543
1.1486003
1.1412038
1.1252085
1.1080095
1.0936828
1.0796561
1.0646627
1.0477926
1.0280175
1.0053767
0.98137171
0.95792247
0.93657639
0.9168022
0.89882903
0.88204173
0.86351944
1.158618
1.1586138
1.1586041
1.1585857
1.1585549
1.1585079
1.1584404
1.1583479
1.1582263
1.1580714
1.1578793
1.1576299
1.1570017
1.1516892
1.1235281
1.0738862
1.0430724
1.035919
1.0139672
0.98501222
0.95823425
0.93676029
0.91967867
0.90577066
0.89409966
0.88425604
0.87583695
0.86830252
0.85658294
0.8404597
1.0699686
0.99995923
0.9447271
0.89950575
0.86131722
0.82845481
0.79996338
0.77532553
0.75436458
0.73714752
0.72399138
0.71537005
0.7120621
0.72433238
0.74134969
0.76077599
0.77907859
0.79366501
0.80382401
0.8102407
0.81400933
0.81591481
0.81635504
0.81546287
0.81327168
0.80974038
0.80465349
0.7972771
0.7858153
0.76925856
1.1565599
1.152759
1.147698
1.1416785
1.134932
1.1276525
1.120033
1.1122836
1.1046528
1.0974438
1.0910606
1.085998
1.0828389
1.0823735
1.0837375
1.0845565
1.0822875
1.0764606
1.0682647
1.0590756
1.0495577
1.0397193
1.0293939
1.0183685
1.0064766
0.99362928
0.97983996
0.9653351
0.95003779
0.92588762
1.1585743
1.1584479
1.1582195
1.1578728
1.1573967
1.1567849
1.1560362
1.1551569
1.1541616
1.1530803
1.1519637
1.150803
1.1496367
1.1482319
1.1442525
1.1344656
1.1158966
1.0912718
1.0656033
1.042814
1.0235208
1.0052008
0.98777692
0.97122079
0.95577803
0.94072165
0.9252414
0.90919749
0.89246208
0.87470597
1.158618
1.1586138
1.1586042
1.1585858
1.1585551
1.158508
1.1584399
1.1583463
1.1582224
1.1580629
1.1578597
1.1575731
1.1569465
1.1539245
1.1415064
1.1138626
1.0770033
1.0352381
0.99569054
0.96168371
0.93463023
0.91487924
0.89966411
0.88741414
0.8771818
0.8688766
0.8621594
0.8563346
0.85061294
0.84442512
1.0699418
0.99921676
0.9428163
0.89609578
0.85607847
0.82101708
0.78994149
0.76251743
0.73872288
0.71812154
0.70049101
0.68580674
0.67443599
0.67448537
0.67784087
0.6845124
0.69368127
0.7040239
0.71424428
0.72340451
0.73098331
0.73677147
0.74074899
0.74298749
0.7435891
0.74262658
0.74006151
0.73560465
0.72849426
0.71779202
1.156557
1.1526835
1.1474241
1.1410436
1.1337373
1.1256621
1.1169594
1.1070093
1.0935693
1.0760759
1.052163
1.0211139
0.98365771
0.94611116
0.91223946
0.8843862
0.86291944
0.84737509
0.83711471
0.83137465
0.82903949
0.82876236
0.82928966
0.82961169
0.82895327
0.82663281
0.82183351
0.81327113
0.79867534
0.77628658
1.1585742
1.1584443
1.1582033
1.1578278
1.1572977
1.1565965
1.1557108
1.1546122
1.1532171
1.1514314
1.148971
1.1410764
1.120393
1.086408
1.0445176
1.0004572
0.96002117
0.92566073
0.89814813
0.8773838
0.86263454
0.85271112
0.84626932
0.84205018
0.83898742
0.83618782
0.83282085
0.82787819
0.81961662
0.80555842
1.158618
1.1586137
1.1586033
1.158583
1.1585478
1.1584917
1.1584077
1.1582868
1.158116
1.1578754
1.1575155
1.1567137
1.1540709
1.1390787
1.103214
1.0585468
1.0160317
0.97797658
0.94526777
0.91834825
0.89716545
0.88113378
0.86930711
0.86064827
0.85420741
0.84917675
0.84484417
0.84045208
0.83484307
0.82615921
)
;

boundaryField
{
    maxY
    {
        type            calculated;
        value           nonuniform List<scalar> 
300
(
1.1586174
1.1586174
1.1586174
1.1586174
1.1586174
1.1586174
1.1586174
1.1586174
1.1586174
1.1586174
1.1586132
1.1586133
1.1586133
1.1586133
1.1586133
1.1586133
1.1586133
1.1586133
1.1586133
1.1586132
1.1586028
1.1586037
1.1586036
1.1586035
1.1586035
1.1586035
1.1586035
1.1586036
1.1586036
1.1586028
1.1585826
1.1585854
1.1585852
1.158585
1.1585849
1.1585848
1.1585849
1.1585851
1.1585853
1.1585825
1.1585475
1.1585548
1.1585546
1.158554
1.1585536
1.1585536
1.1585539
1.1585544
1.1585546
1.1585473
1.1584917
1.1585079
1.1585077
1.1585064
1.1585056
1.1585055
1.1585061
1.1585074
1.1585074
1.1584912
1.1584082
1.1584403
1.1584405
1.1584376
1.1584359
1.1584358
1.1584372
1.1584399
1.1584394
1.1584072
1.1582883
1.1583474
1.1583485
1.1583428
1.1583395
1.1583393
1.1583421
1.1583474
1.1583458
1.1582863
1.1581191
1.1582246
1.1582276
1.1582169
1.1582106
1.1582104
1.1582157
1.1582258
1.1582218
1.1581155
1.1578815
1.158067
1.1580738
1.1580544
1.1580423
1.1580425
1.1580525
1.1580709
1.1580624
1.1578749
1.1575313
1.1578675
1.157882
1.1578432
1.1578113
1.15782
1.157844
1.1578788
1.1578592
1.157515
1.1567977
1.1575921
1.1576108
1.1574443
1.1571727
1.1573391
1.1575191
1.1576294
1.1575726
1.1567132
1.154618
1.1570013
1.1566075
1.15455
1.150072
1.1525305
1.1557882
1.1570012
1.156946
1.1540704
1.1433492
1.1540518
1.1475085
1.1229612
1.0637369
1.079679
1.1348998
1.1516887
1.153924
1.1390782
1.1121862
1.1417911
1.1145306
1.0522476
0.98745157
0.9844816
1.0599838
1.1235276
1.1415059
1.1032136
1.0690424
1.1164626
1.0709717
1.0021267
0.97429947
0.96748738
0.99606069
1.0738857
1.1138621
1.0585464
1.0259103
1.0826148
1.0463257
0.9988167
0.96864595
0.96041162
0.98909945
1.043072
1.0770028
1.0160313
0.98627274
1.0410142
1.0410935
0.99919272
0.96424118
0.95490581
0.98979651
1.0359186
1.0352376
0.9779762
0.95164107
0.99964145
1.0149431
0.99333508
0.95791438
0.94810359
0.99158146
1.0139668
0.99569015
0.94526741
0.92281853
0.96349159
0.9823818
0.9745442
0.94866657
0.94198445
0.98037152
0.98501184
0.96168335
0.91834792
0.89995073
0.93528435
0.95396568
0.95359867
0.93823083
0.93377671
0.96155529
0.95823389
0.93462989
0.89716514
0.88251816
0.91467363
0.93191094
0.93480978
0.92771276
0.92381072
0.94253768
0.93675995
0.91487891
0.88113347
0.86956246
0.89872716
0.91453725
0.9183596
0.91845179
0.9135484
0.92619585
0.91967834
0.8996638
0.86930682
0.86000733
0.88588944
0.90032342
0.90327403
0.91106992
0.90345149
0.91291525
0.90577033
0.88741383
0.86064797
0.85285163
0.87494902
0.88813386
0.88793719
0.9013248
0.89265572
0.90079038
0.89409935
0.8771815
0.85420713
0.84723409
0.86596254
0.87771049
0.87144183
0.88727194
0.88065736
0.88894389
0.88425574
0.8688763
0.84917647
0.84239249
0.85880671
0.86896674
0.85334412
0.86755392
0.86799509
0.87253905
0.87583665
0.86215911
0.84484389
0.83752581
0.85263976
0.86085257
0.83417989
0.83739005
0.85076708
0.85205474
0.86830223
0.85633431
0.84045181
0.83143892
0.84655662
0.84336159
0.81251453
0.79703942
0.82337895
0.8291191
0.85658265
0.85061266
0.8348428
0.82236879
0.83925702
0.81540566
0.78441374
0.7505165
0.78886738
0.81185365
0.84045943
0.84442484
0.82615894
)
;
    }
    minX
    {
        type            calculated;
        value           nonuniform List<scalar> 
40
(
1.1586222
1.1586212
1.1586201
1.1586191
1.1586222
1.1586212
1.1586201
1.1586191
1.1586222
1.1586212
1.1586201
1.1586191
1.1586222
1.1586212
1.1586201
1.1586191
1.1586222
1.1586212
1.1586201
1.1586191
1.1586222
1.1586212
1.1586201
1.1586191
1.1586222
1.1586212
1.1586201
1.1586191
1.1586222
1.1586212
1.1586201
1.1586191
1.1586222
1.1586212
1.1586201
1.1586191
1.1586222
1.1586212
1.1586201
1.1586191
)
;
    }
    maxX
    {
        type            calculated;
        value           nonuniform List<scalar> 
40
(
0.71566339
0.77204626
0.80137666
0.82243699
0.76928698
0.9171367
0.86497393
0.83942692
0.79218507
0.88221068
0.84338237
0.81656
0.68932538
0.81399586
0.8073218
0.78595911
0.6364445
0.68700134
0.73177613
0.75130826
0.6476407
0.745074
0.78839056
0.78983386
0.70396988
0.83338584
0.83369225
0.81306304
0.79334904
0.89560002
0.86350292
0.84074839
0.76936377
0.92597725
0.87475177
0.84446134
0.71787415
0.7763976
0.80567576
0.82623756
)
;
    }
    minZ
    {
        type            calculated;
        value           nonuniform List<scalar> 
120
(
1.0700682
1.1565601
1.1585742
1.158618
0.99943264
1.152693
1.1584446
1.1586137
0.94310077
1.1474435
1.1582041
1.1586034
0.89643923
1.1410768
1.1578296
1.1585831
0.85648018
1.133789
1.1573013
1.158548
0.82148087
1.1257373
1.1566028
1.1584923
0.79047673
1.1170626
1.1557211
1.1584088
0.76312932
1.107138
1.154628
1.1582888
0.73940679
1.0937527
1.1532398
1.1581196
0.71886594
1.0763025
1.1514622
1.157882
0.70127589
1.0525895
1.1490313
1.1575319
0.68660549
1.0221645
1.1415528
1.1567982
0.6752215
0.98571041
1.1227369
1.1546186
0.67516692
0.94904827
1.090961
1.1433497
0.67837869
0.9155142
1.050749
1.1121867
0.68486416
0.88741671
1.0076935
1.0690428
0.69382609
0.86533053
0.96711662
1.0259107
0.70395755
0.84897841
0.93178472
0.98627312
0.71394959
0.83783669
0.9028861
0.95164142
0.72284827
0.83122495
0.88062323
0.92281887
0.73013264
0.82806718
0.86444782
0.89995105
0.73562486
0.82705917
0.85326833
0.88251847
0.73935691
0.82698388
0.84577894
0.86956276
0.74144627
0.8268332
0.84071547
0.86000762
0.74200369
0.82577533
0.8369707
0.85285191
0.741062
0.82303738
0.83358593
0.84723437
0.73851619
0.81775654
0.82967151
0.84239277
0.73403379
0.80871472
0.82420132
0.83752608
0.72681341
0.79379988
0.81546075
0.83143919
0.71566646
0.77204886
0.80131397
0.82236906
)
;
    }
    maxZ
    {
        type            calculated;
        value           nonuniform List<scalar> 
120
(
1.0699418
1.156557
1.1585742
1.158618
0.99921676
1.1526835
1.1584443
1.1586137
0.9428163
1.1474241
1.1582033
1.1586033
0.89609578
1.1410436
1.1578278
1.158583
0.85607847
1.1337373
1.1572977
1.1585478
0.82101708
1.1256621
1.1565965
1.1584917
0.78994149
1.1169594
1.1557108
1.1584077
0.76251743
1.1070093
1.1546122
1.1582868
0.73872288
1.0935693
1.1532171
1.158116
0.71812154
1.0760759
1.1514314
1.1578754
0.70049101
1.052163
1.148971
1.1575155
0.68580674
1.0211139
1.1410764
1.1567137
0.67443599
0.98365771
1.120393
1.1540709
0.67448537
0.94611116
1.086408
1.1390787
0.67784087
0.91223946
1.0445176
1.103214
0.6845124
0.8843862
1.0004572
1.0585468
0.69368127
0.86291944
0.96002117
1.0160317
0.7040239
0.84737509
0.92566073
0.97797658
0.71424428
0.83711471
0.89814813
0.94526777
0.72340451
0.83137465
0.8773838
0.91834825
0.73098331
0.82903949
0.86263454
0.89716545
0.73677147
0.82876236
0.85271112
0.88113378
0.74074899
0.82928966
0.84626932
0.86930711
0.74298749
0.82961169
0.84205018
0.86064827
0.7435891
0.82895327
0.83898742
0.85420741
0.74262658
0.82663281
0.83618782
0.84917675
0.74006151
0.82183351
0.83282085
0.84484417
0.73560465
0.81327113
0.82787819
0.84045208
0.72849426
0.79867534
0.81961662
0.83484307
0.71779202
0.77628658
0.80555842
0.82615921
)
;
    }
    topAir_to_rightSolid
    {
        type            calculated;
        value           nonuniform List<scalar> 
130
(
0.46146441
0.45665436
0.45172816
0.44692996
0.44243761
0.43836403
0.43476866
0.43168463
0.42912931
0.42709836
0.42558257
0.42457502
0.42407075
0.46509915
0.45938985
0.45369391
0.44829408
0.44336598
0.4389904
0.43519637
0.4319822
0.42933973
0.42725159
0.42570038
0.42467111
0.42415589
0.47252971
0.46469349
0.45732643
0.45072168
0.4449636
0.44003123
0.43587654
0.43243751
0.42965302
0.42747557
0.42586627
0.42480354
0.42427491
0.48402084
0.47202544
0.46190942
0.45357043
0.44672869
0.44112115
0.43655024
0.43285557
0.42991347
0.42764454
0.42598468
0.42489328
0.42434956
0.49829199
0.47916898
0.46572152
0.45570189
0.44795846
0.44184305
0.43697649
0.43310471
0.43005836
0.4277247
0.42602587
0.42491221
0.42435872
0.49818163
0.47907219
0.46563919
0.45563305
0.44790129
0.44179753
0.43693829
0.43307064
0.4300262
0.42769125
0.42598815
0.42487314
0.42431934
0.48368517
0.47174222
0.46167227
0.4533714
0.44656256
0.44098513
0.43643466
0.43275201
0.42981972
0.42755024
0.42588289
0.42478722
0.42424255
0.4720637
0.46428535
0.45697732
0.45042355
0.44470695
0.43981245
0.43568938
0.43227483
0.42951064
0.42734466
0.42573956
0.42467913
0.42414966
0.46460993
0.45893179
0.45328749
0.44793939
0.44305564
0.4387218
0.43496912
0.43179781
0.42919092
0.42712415
0.4255809
0.42455679
0.42404492
0.46099018
0.45619267
0.45130455
0.44655278
0.44210526
0.43807762
0.43453384
0.43150257
0.42898809
0.42698085
0.42547625
0.42447616
0.42397606
)
;
    }
    topAir_to_heater
    {
        type            calculated;
        value           nonuniform List<scalar> 
40
(
0.47345551
0.47210066
0.46948979
0.46584148
0.4796269
0.47799691
0.47483996
0.47040345
0.49309304
0.49087967
0.48648588
0.48015841
0.51662383
0.51357948
0.50714472
0.49709556
0.55521631
0.55202486
0.543833
0.52800798
0.55508249
0.55188903
0.54369897
0.52788198
0.51620291
0.51316365
0.50674141
0.49671378
0.49256914
0.49035856
0.48597557
0.47966444
0.47910206
0.47749052
0.47434254
0.46991275
0.47293995
0.4716307
0.46903209
0.46538613
)
;
    }
    topAir_to_leftSolid
    {
        type            calculated;
        value           nonuniform List<scalar> 
130
(
0.38180056
0.38181429
0.38184837
0.38190495
0.38198646
0.3820968
0.38223269
0.38238287
0.38253475
0.38266886
0.38278373
0.38287641
0.38294695
0.38178196
0.38179614
0.38183152
0.38188903
0.38196891
0.38207177
0.38219541
0.38234255
0.38250772
0.38265296
0.38278267
0.38288534
0.3829619
0.38174999
0.3817659
0.3818049
0.38186847
0.38195224
0.38205325
0.38217578
0.38232069
0.3824691
0.382615
0.38275131
0.38285836
0.38293254
0.38170111
0.38171864
0.38176288
0.38183946
0.38193091
0.38203474
0.38215655
0.38229473
0.38243259
0.38256739
0.38269668
0.38280456
0.38287792
0.38163993
0.38165843
0.38170608
0.38178771
0.38188523
0.38199349
0.38211592
0.38225209
0.38238496
0.38251221
0.38263382
0.38274062
0.38281606
0.38157211
0.38159139
0.38164049
0.38172082
0.38182112
0.38193266
0.38205983
0.38219568
0.38232439
0.38244812
0.38256933
0.38267097
0.38273711
0.38150261
0.38152362
0.38157467
0.38165081
0.38174893
0.38185751
0.38198088
0.38211147
0.38223461
0.38235495
0.38247624
0.38256285
0.38261251
0.38145175
0.38147066
0.38151635
0.38158568
0.38167116
0.38176774
0.38187592
0.38198733
0.38209672
0.38220432
0.382303
0.38237502
0.38241981
0.38141575
0.38143184
0.38146986
0.38152883
0.38159975
0.38167718
0.38175855
0.38184481
0.38193581
0.38202677
0.3821105
0.38217613
0.38221584
0.38139615
0.38140977
0.38144286
0.381494
0.38155306
0.381618
0.38168904
0.38176404
0.3818444
0.38192676
0.38199882
0.38205403
0.38208524
)
;
    }
}


// ************************************************************************* //
