/*--------------------------------*- C++ -*----------------------------------*\
  =========                 |
  \\      /  F ield         | OpenFOAM: The Open Source CFD Toolbox
   \\    /   O peration     | Website:  https://openfoam.org
    \\  /    A nd           | Version:  12
     \\/     M anipulation  |
\*---------------------------------------------------------------------------*/
FoamFile
{
    format      ascii;
    class       volScalarField;
    location    "0/air1";
    object      epsilon;
}
// * * * * * * * * * * * * * * * * * * * * * * * * * * * * * * * * * * * * * //

dimensions      [0 2 -3 0 0 0 0];

internalField   uniform 0.00035;

boundaryField
{
    inlet
    {
        type            turbulentMixingLengthDissipationRateInlet;
        mixingLength    0.007;
        value           nonuniform List<scalar> 0();
    }
    outlet
    {
        type            inletOutlet;
        inletValue      uniform 0.00035;
        value           uniform 0.00035;
    }
    walls
    {
        type            compressible::epsilonWallFunction;
        value           uniform 0.00035;
    }
    air1_to_solid
    {
        type            compressible::epsilonWallFunction;
        value           uniform 0.00035;
    }
    air1_to_lid
    {
        type            compressible::epsilonWallFunction;
        value           uniform 0.00035;
    }
    procBoundary1to0
    {
        type            processor;
        value           uniform 0.00035;
    }
}


// ************************************************************************* //
