/*--------------------------------*- C++ -*----------------------------------*\
| =========                 |                                                 |
| \\      /  F ield         | OpenFOAM: The Open Source CFD Toolbox           |
|  \\    /   O peration     | Version:  v2012                                 |
|   \\  /    A nd           | Website:  www.openfoam.com                      |
|    \\/     M anipulation  |                                                 |
\*---------------------------------------------------------------------------*/
FoamFile
{
    version     2.0;
    format      ascii;
    class       volScalarField;
    location    "740/rightSolid";
    object      T;
}
// * * * * * * * * * * * * * * * * * * * * * * * * * * * * * * * * * * * * * //

dimensions      [0 0 0 1 0 0 0];


internalField   nonuniform List<scalar> 
130
(
749.68105
757.64011
765.94467
774.16241
781.97713
789.20769
795.70438
801.36303
806.11854
809.94417
812.82736
814.756
815.72274
743.76193
753.077
762.56224
771.72681
780.27718
788.04104
794.90703
800.81818
805.74833
809.69142
812.65176
814.6249
815.61127
732.00343
744.38996
756.38779
767.45775
777.3862
786.10413
793.62027
799.96425
805.1823
809.31754
812.40106
814.44568
815.46371
714.54359
732.70445
748.7451
762.50887
774.19166
784.04734
792.29992
799.12331
804.65232
808.98591
812.19494
814.315
815.36768
693.9366
721.61166
742.44963
758.79249
771.93999
782.66152
791.43921
798.5904
804.32974
808.79888
812.09298
814.26151
815.33815
693.88932
721.55421
742.39427
758.74336
771.90116
782.63776
791.42569
798.58855
804.34583
808.8256
812.11685
814.28196
815.35767
714.49741
732.62098
748.67044
762.45408
774.1585
784.03627
792.30178
799.13829
804.68717
809.03186
812.23974
814.35622
815.40902
732.03157
744.35201
756.33183
767.42304
777.38024
786.12206
793.64761
799.99944
805.22969
809.36958
812.44784
814.48888
815.50734
743.8075
753.02622
762.48099
771.65984
780.25027
788.04637
794.93059
800.84881
805.78912
809.74111
812.70218
814.67441
815.66108
749.66533
757.54795
765.81338
774.03848
781.90595
789.17993
795.6994
801.37134
806.14544
809.98663
812.87703
814.80851
815.77721
)
;

boundaryField
{
    maxX
    {
        type            zeroGradient;
    }
    minZ
    {
        type            zeroGradient;
    }
    maxZ
    {
        type            zeroGradient;
    }
    rightSolid_to_bottomWater
    {
        type            compressible::turbulentTemperatureCoupledBaffleMixed;
        refValue        nonuniform List<scalar> 
130
(
926.20806
922.75711
921.44716
919.50519
913.7715
913.55821
914.42059
915.11336
914.42982
913.94632
914.30527
914.77264
915.06055
919.98432
918.89526
918.56818
914.78202
912.50078
913.00252
913.1824
913.50941
913.62998
913.38647
914.42281
914.89135
914.95228
913.93447
914.49906
913.4305
911.70268
912.38029
912.4443
913.42649
913.07674
912.69425
913.0365
914.35906
914.68202
914.32002
911.26258
912.09634
911.45379
911.65077
911.5741
911.66112
912.30491
912.62445
912.8603
912.76799
913.80018
914.51916
914.09248
903.92031
907.32808
908.27617
909.87717
911.32048
912.09631
912.36386
912.14838
912.15959
912.36261
914.10391
914.90622
915.12446
897.45133
902.70434
904.31942
905.91066
907.58916
910.23235
910.77115
911.10867
913.86105
915.6996
916.0774
916.28727
916.55067
903.65467
905.12738
909.02653
910.8739
911.5004
913.06673
913.16746
913.10808
915.08022
915.78243
916.24166
916.34828
916.29945
909.09095
911.97073
911.14255
913.21404
915.48718
916.5234
915.88118
914.99328
915.62612
915.96124
915.73194
915.69921
915.72962
915.91589
911.84366
914.11755
912.73996
914.21048
915.4747
915.81195
914.88263
915.29549
915.91952
916.30029
916.31495
916.30025
918.62509
914.87422
914.22338
912.81345
913.07653
913.96446
914.09091
914.24431
915.14088
915.71951
916.04037
916.23114
916.6054
)
;
        refGradient     uniform 0;
        valueFraction   nonuniform List<scalar> 
130
(
0.0075140686
0.0075140686
0.0075140686
0.0075140686
0.0075140686
0.0075140686
0.0075140686
0.0075140686
0.0075140686
0.0075140686
0.0075140686
0.0075140686
0.0075140686
0.0075140686
0.0075140686
0.0075140686
0.0075140686
0.0075140686
0.0075140686
0.0075140686
0.0075140686
0.0075140686
0.0075140686
0.0075140686
0.0075140686
0.0075140686
0.0075140686
0.0075140686
0.0075140686
0.0075140686
0.0075140686
0.0075140686
0.0075140686
0.0075140686
0.0075140686
0.0075140686
0.0075140686
0.0075140686
0.0075140686
0.0075140686
0.0075140686
0.0075140686
0.0075140686
0.0075140686
0.0075140686
0.0075140686
0.0075140686
0.0075140686
0.0075140686
0.0075140686
0.0075140686
0.0075140686
0.0075140686
0.0075140686
0.0075140686
0.0075140686
0.0075140686
0.0075140686
0.0075140686
0.0075140686
0.0075140686
0.0075140686
0.0075140686
0.0075140686
0.0075140686
0.0075140686
0.0075140686
0.0075140686
0.0075140686
0.0075140686
0.0075140686
0.0075140686
0.0075140686
0.0075140686
0.0075140686
0.0075140686
0.0075140686
0.0075140686
0.0075140686
0.0075140686
0.0075140686
0.0075140686
0.0075140686
0.0075140686
0.0075140686
0.0075140686
0.0075140686
0.0075140686
0.0075140686
0.0075140686
0.0075140686
0.0075140686
0.0075140686
0.0075140686
0.0075140686
0.0075140686
0.0075140686
0.0075140686
0.0075140686
0.0075140686
0.0075140686
0.0075140686
0.0075140686
0.0075140686
0.0075140686
0.0075140686
0.0075140686
0.0075140686
0.0075140686
0.0075140686
0.0075140686
0.0075140686
0.0075140686
0.0075140686
0.0075140686
0.0075140686
0.0075140686
0.0075140686
0.0075140686
0.0075140686
0.0075140686
0.0075140686
0.0075140686
0.0075140686
0.0075140686
0.0075140686
0.0075140686
0.0075140686
0.0075140686
0.0075140686
)
;
        value           nonuniform List<scalar> 
130
(
751.00783
758.88126
767.11366
775.25509
782.96802
790.14262
796.59698
802.21836
806.93304
810.72633
813.59058
815.50825
816.46989
745.08646
754.3234
763.73494
772.80224
781.27125
788.98056
795.79633
801.66556
806.55962
810.47129
813.4172
815.37904
816.35845
733.37091
745.66864
757.5683
768.54213
778.40109
787.05403
794.5211
800.81481
805.99083
810.0976
813.16791
815.19961
816.20727
716.02223
734.05289
749.9682
763.63005
775.22451
785.00681
793.20225
799.9768
805.46607
809.76644
812.95914
815.0687
816.11027
695.51489
723.00764
743.69618
759.92829
772.98786
783.63467
792.34844
799.44431
805.14064
809.57776
812.86023
815.01852
816.08872
695.41933
722.91586
743.61148
759.8497
772.92127
783.59708
792.32305
799.43465
805.16939
809.62934
812.89873
815.04917
816.11878
715.91917
733.91767
749.87587
763.56983
775.19101
785.00634
793.21053
799.99525
805.5173
809.83464
813.0219
815.12329
816.16782
733.36248
745.61199
757.49559
768.51904
778.4185
787.10243
794.56662
800.86407
806.05981
810.17114
813.22457
815.25004
816.26108
745.10132
754.22013
763.62093
772.72047
781.25739
789.00441
795.83945
801.70623
806.61255
810.53956
813.48125
815.43879
816.41795
750.93553
758.73071
766.92911
775.0818
782.89213
790.11813
796.58957
802.22005
806.96503
810.78173
813.65284
815.57125
816.5355
)
;
        Tnbr            T;
        thicknessLayers List<scalar> 0();
        kappaLayers     List<scalar> 0();
        kappaMethod     solidThermo;
        kappa           none;
        alphaAni        none;
        alpha           none;
        field           T;
    }
    rightSolid_to_topAir
    {
        type            compressible::turbulentTemperatureCoupledBaffleMixed;
        refValue        nonuniform List<scalar> 
130
(
495.99775
488.5892
482.18425
477.02991
473.15525
470.48778
468.92941
468.39768
468.85925
470.36176
473.09766
477.579
484.66942
438.77653
433.29111
429.94547
428.00613
426.97196
426.60344
426.83839
427.69844
429.27455
431.72369
435.38029
441.18533
451.07197
450.26516
441.47765
433.84465
427.32138
421.96607
417.96659
415.52887
414.74658
415.53554
417.72634
421.27446
427.09018
436.81879
506.52921
507.37326
507.04436
505.16414
501.77045
497.17796
491.81941
486.3009
481.65774
479.53004
481.66385
487.58522
497.71167
510.07846
513.8822
517.92423
521.83653
525.2607
527.88217
529.48674
530.0447
529.8299
529.54033
530.31096
533.59135
541.18321
508.58218
512.18993
515.91622
519.36174
522.17406
524.0918
524.97628
524.86408
524.075
523.36286
523.89513
527.11299
534.61566
502.17257
502.01298
500.43705
497.20993
492.66577
487.42138
481.97614
476.68421
472.23323
470.09795
472.29366
479.93557
490.73257
447.81241
438.96779
431.38586
425.06203
420.06885
416.54821
414.59388
414.16199
415.081
417.15633
420.36989
425.54531
434.72282
437.83984
432.15731
428.65134
426.60277
425.5341
425.22114
425.59866
426.64342
428.36968
430.87352
434.48278
440.13696
449.59168
495.26384
487.68445
481.11547
475.81851
471.83845
469.11354
467.54591
467.03532
467.51434
468.99464
471.64466
475.95037
482.71684
)
;
        refGradient     uniform 0;
        valueFraction   nonuniform List<scalar> 
130
(
0.00032132529
0.00032132529
0.00032132529
0.00032132529
0.00032132529
0.00032132529
0.00032132529
0.00032132529
0.00032132529
0.00032132529
0.00032132529
0.00032132529
0.00032132529
0.00032132529
0.00032132529
0.00032132529
0.00032132529
0.00032132529
0.00032132529
0.00032132529
0.00032132529
0.00032132529
0.00032132529
0.00032132529
0.00032132529
0.00032132529
0.00032132529
0.00032132529
0.00032132529
0.00032132529
0.00032132529
0.00032132529
0.00032132529
0.00032132529
0.00032132529
0.00032132529
0.00032132529
0.00032132529
0.00032132529
0.00032132529
0.00032132529
0.00032132529
0.00032132529
0.00032132529
0.00032132529
0.00032132529
0.00032132529
0.00032132529
0.00032132529
0.00032132529
0.00032132529
0.00032132529
0.00032132529
0.00032132529
0.00032132529
0.00032132529
0.00032132529
0.00032132529
0.00032132529
0.00032132529
0.00032132529
0.00032132529
0.00032132529
0.00032132529
0.00032132529
0.00032132529
0.00032132529
0.00032132529
0.00032132529
0.00032132529
0.00032132529
0.00032132529
0.00032132529
0.00032132529
0.00032132529
0.00032132529
0.00032132529
0.00032132529
0.00032132529
0.00032132529
0.00032132529
0.00032132529
0.00032132529
0.00032132529
0.00032132529
0.00032132529
0.00032132529
0.00032132529
0.00032132529
0.00032132529
0.00032132529
0.00032132529
0.00032132529
0.00032132529
0.00032132529
0.00032132529
0.00032132529
0.00032132529
0.00032132529
0.00032132529
0.00032132529
0.00032132529
0.00032132529
0.00032132529
0.00032132529
0.00032132529
0.00032132529
0.00032132529
0.00032132529
0.00032132529
0.00032132529
0.00032132529
0.00032132529
0.00032132529
0.00032132529
0.00032132529
0.00032132529
0.00032132529
0.00032132529
0.00032132529
0.00032132529
0.00032132529
0.00032132529
0.00032132529
0.00032132529
0.00032132529
0.00032132529
0.00032132529
0.00032132529
0.00032132529
)
;
        value           nonuniform List<scalar> 
130
(
749.59989
757.55411
765.85403
774.06751
781.87848
789.10583
795.59994
801.25665
806.01082
809.83574
812.71891
814.64837
815.61709
743.66432
752.97467
762.45582
771.61687
780.16419
787.92545
794.78934
800.6989
805.62802
809.57067
812.53126
814.50564
815.49486
731.91334
744.29309
756.28464
767.34897
777.27254
785.98641
793.49938
799.8411
805.05778
809.19243
812.27612
814.32196
815.34279
714.47723
732.63253
748.66794
762.4267
774.10468
783.95574
792.20398
799.02344
804.54921
808.88076
812.08947
814.21078
815.26638
693.87798
721.5454
742.378
758.71689
771.86128
782.58023
791.35564
798.50474
804.2422
808.70985
812.00318
814.17209
815.25083
693.83021
721.48741
742.32199
758.66696
771.82146
782.55525
791.34066
798.50121
804.25643
808.73456
812.02495
814.19042
815.26821
714.4296
732.54734
748.59118
762.36936
774.06856
783.94149
792.20262
799.03526
804.58098
808.92361
812.13119
814.24946
815.3054
731.94072
744.25437
756.22793
767.31355
777.26594
786.00384
793.52635
799.87602
805.10492
809.24418
812.32251
814.36456
815.38565
743.70977
752.92366
762.37426
771.54951
780.13683
787.93033
794.81247
800.72914
805.66844
809.61999
812.58128
814.55471
815.54412
749.58421
757.46184
765.72247
773.94322
781.80688
789.07765
795.59453
801.26449
806.03722
809.87768
812.76802
814.70028
815.67085
)
;
        Tnbr            T;
        thicknessLayers List<scalar> 0();
        kappaLayers     List<scalar> 0();
        kappaMethod     solidThermo;
        kappa           none;
        alphaAni        none;
        alpha           none;
        field           T;
    }
    rightSolid_to_heater
    {
        type            compressible::turbulentTemperatureCoupledBaffleMixed;
        refValue        nonuniform List<scalar> 10(742.56241 735.27177 720.30089 695.73769 654.93287 654.92592 695.78659 720.46569 735.4572 742.62737);
        refGradient     uniform 0;
        valueFraction   nonuniform List<scalar> 10(0.50000003 0.50000003 0.50000003 0.50000003 0.50000003 0.50000003 0.50000003 0.50000003 0.50000003 0.50000003);
        value           nonuniform List<scalar> 10(746.12191 739.51704 726.15238 705.14088 674.43496 674.40784 705.14221 726.24887 739.63264 746.14666);
        Tnbr            T;
        thicknessLayers List<scalar> 0();
        kappaLayers     List<scalar> 0();
        kappaMethod     solidThermo;
        kappa           none;
        alphaAni        none;
        alpha           none;
        field           T;
    }
}


// ************************************************************************* //
