/*--------------------------------*- C++ -*----------------------------------*\
| =========                 |                                                 |
| \\      /  F ield         | OpenFOAM: The Open Source CFD Toolbox           |
|  \\    /   O peration     | Version:  v2012                                 |
|   \\  /    A nd           | Website:  www.openfoam.com                      |
|    \\/     M anipulation  |                                                 |
\*---------------------------------------------------------------------------*/
FoamFile
{
    version     2.0;
    format      ascii;
    class       volScalarField;
    location    "340/leftSolid";
    object      T;
}
// * * * * * * * * * * * * * * * * * * * * * * * * * * * * * * * * * * * * * //

dimensions      [0 0 0 1 0 0 0];


internalField   nonuniform List<scalar> 
130
(
860.83979
860.76809
860.64055
860.46618
860.25909
860.05911
859.87058
859.68797
859.51259
859.3461
859.21054
859.11603
859.06314
860.75678
860.6928
860.56705
860.39045
860.16693
859.94286
859.73027
859.51713
859.30385
859.1166
858.96336
858.85081
858.78648
860.6
860.54065
860.41587
860.22848
859.97592
859.70704
859.45003
859.18884
858.91218
858.66104
858.44693
858.29111
858.20249
860.37048
860.30924
860.17983
859.97185
859.69098
859.37808
859.06629
858.73435
858.39303
858.04762
857.70894
857.47203
857.34331
860.06152
859.99588
859.85918
859.63905
859.34463
858.9964
858.64203
858.268
857.86334
857.41497
857.05847
856.81972
856.67775
859.641
859.57673
859.44447
859.23616
858.95439
858.62769
858.27121
857.88727
857.46388
856.98796
856.61837
856.37105
856.23484
859.19941
859.13874
859.01353
858.82194
858.57732
858.28206
857.94509
857.58452
857.18515
856.74027
856.40803
856.1848
856.06502
858.84562
858.77757
858.65323
858.48292
858.26971
858.01131
857.71025
857.40087
857.07328
856.72197
856.42094
856.21017
856.10066
858.64473
858.57775
858.44693
858.26773
858.06438
857.83412
857.58165
857.31903
857.05227
856.7884
856.54823
856.3599
856.24532
858.53426
858.47346
858.35501
858.18082
857.96677
857.74869
857.52507
857.2981
857.06708
856.83955
856.63022
856.46783
856.35963
)
;

boundaryField
{
    minX
    {
        type            zeroGradient;
    }
    minZ
    {
        type            zeroGradient;
    }
    maxZ
    {
        type            zeroGradient;
    }
    leftSolid_to_bottomWater
    {
        type            compressible::turbulentTemperatureCoupledBaffleMixed;
        refValue        nonuniform List<scalar> 
130
(
985.57369
982.49566
980.21843
977.65637
972.73529
972.22413
973.13245
973.53275
974.06153
972.79459
972.66816
973.71147
973.45833
983.77803
982.42587
979.92251
978.4049
972.76686
972.11206
973.96534
974.07694
971.68699
972.76889
973.96105
974.31697
973.81193
982.29435
981.85946
980.25027
979.08322
972.5571
970.09985
972.40854
974.21059
969.62437
969.34443
969.42157
969.61318
968.66376
981.55384
981.1292
980.69778
977.54697
971.90558
968.29646
970.01974
967.99618
967.3679
966.196
950.69106
945.77678
943.21899
983.08296
982.22692
981.66843
978.03606
973.66437
965.98496
965.37424
965.01818
964.56592
948.76591
944.61293
945.80966
940.96796
978.99001
978.21521
977.72425
975.97115
970.96706
968.46742
966.54337
965.65252
964.74421
947.05838
941.7598
940.42378
937.87922
973.43324
973.37693
973.06934
970.4778
969.1962
966.92458
963.14847
962.16101
959.86863
941.29833
941.14187
941.52258
940.50619
971.02111
968.57467
966.61685
966.22156
966.14698
964.91828
959.87399
959.5431
959.11009
950.74667
945.12439
943.64561
944.04188
972.91288
971.42025
968.2022
963.73714
963.54719
962.61375
961.21393
959.80184
958.87666
957.82583
955.3606
952.04233
947.72334
971.05673
970.0312
969.37497
966.95148
961.58929
961.01856
960.84481
961.06558
960.64795
959.75214
957.26165
956.80581
951.87593
)
;
        refGradient     uniform 0;
        valueFraction   nonuniform List<scalar> 
130
(
0.0075140686
0.0075140686
0.0075140686
0.0075140686
0.0075140686
0.0075140686
0.0075140686
0.0075140686
0.0075140686
0.0075140686
0.0075140686
0.0075140686
0.0075140686
0.0075140686
0.0075140686
0.0075140686
0.0075140686
0.0075140686
0.0075140686
0.0075140686
0.0075140686
0.0075140686
0.0075140686
0.0075140686
0.0075140686
0.0075140686
0.0075140686
0.0075140686
0.0075140686
0.0075140686
0.0075140686
0.0075140686
0.0075140686
0.0075140686
0.0075140686
0.0075140686
0.0075140686
0.0075140686
0.0075140686
0.0075140686
0.0075140686
0.0075140686
0.0075140686
0.0075140686
0.0075140686
0.0075140686
0.0075140686
0.0075140686
0.0075140686
0.0075140686
0.0075140686
0.0075140686
0.0075140686
0.0075140686
0.0075140686
0.0075140686
0.0075140686
0.0075140686
0.0075140686
0.0075140686
0.0075140686
0.0075140686
0.0075140686
0.0075140686
0.0075140686
0.0075140686
0.0075140686
0.0075140686
0.0075140686
0.0075140686
0.0075140686
0.0075140686
0.0075140686
0.0075140686
0.0075140686
0.0075140686
0.0075140686
0.0075140686
0.0075140686
0.0075140686
0.0075140686
0.0075140686
0.0075140686
0.0075140686
0.0075140686
0.0075140686
0.0075140686
0.0075140686
0.0075140686
0.0075140686
0.0075140686
0.0075140686
0.0075140686
0.0075140686
0.0075140686
0.0075140686
0.0075140686
0.0075140686
0.0075140686
0.0075140686
0.0075140686
0.0075140686
0.0075140686
0.0075140686
0.0075140686
0.0075140686
0.0075140686
0.0075140686
0.0075140686
0.0075140686
0.0075140686
0.0075140686
0.0075140686
0.0075140686
0.0075140686
0.0075140686
0.0075140686
0.0075140686
0.0075140686
0.0075140686
0.0075140686
0.0075140686
0.0075140686
0.0075140686
0.0075140686
0.0075140686
0.0075140686
0.0075140686
0.0075140686
0.0075140686
)
;
        value           nonuniform List<scalar> 
130
(
861.77069
861.67641
861.53275
861.34046
861.09802
860.89571
860.7154
860.53718
860.3671
860.19229
860.05675
859.97073
859.91632
861.67484
861.60121
861.45764
861.271
861.00686
860.77951
860.5824
860.37169
860.14207
859.96431
859.82115
859.71209
859.64444
861.50815
861.44601
861.31011
861.11543
860.81579
860.53039
860.29257
860.04684
859.7378
859.48642
859.27449
859.12129
859.0262
861.27487
861.21091
861.07927
860.84927
860.52813
860.1904
859.89382
859.54909
859.20555
858.85391
858.40134
858.1293
857.9823
860.97971
860.90814
860.76829
860.52257
860.19755
859.7942
859.43785
859.06389
858.65879
858.09498
857.70999
857.48206
857.30478
860.53157
860.46197
860.32703
860.10713
859.7899
859.44685
859.07858
858.6908
858.26372
857.65841
857.25183
856.99636
856.84206
860.05156
859.99092
859.86432
859.65471
859.40232
859.09223
858.72944
858.36419
857.95059
857.3695
857.03857
856.81988
856.69336
859.6823
859.59637
859.45829
859.28631
859.07417
858.80851
858.47183
858.16233
857.83399
857.42253
857.0815
856.86116
856.75544
859.49716
859.41947
859.26546
859.05409
858.85087
858.61535
858.35428
858.08306
857.81139
857.54164
857.28479
857.07298
856.92682
859.3736
859.30555
859.18307
858.99198
858.73929
858.51858
858.29536
858.07178
857.8394
857.60686
857.38041
857.21584
857.07141
)
;
        Tnbr            T;
        thicknessLayers List<scalar> 0();
        kappaLayers     List<scalar> 0();
        kappaMethod     solidThermo;
        kappa           none;
        alphaAni        none;
        alpha           none;
        field           T;
    }
    leftSolid_to_heater
    {
        type            compressible::turbulentTemperatureCoupledBaffleMixed;
        refValue        nonuniform List<scalar> 10(722.9988 713.87984 694.65358 663.38485 617.81617 617.63946 662.72495 693.47648 712.36527 721.35069);
        refGradient     uniform 0;
        valueFraction   nonuniform List<scalar> 10(2.08329e-05 2.08329e-05 2.08329e-05 2.08329e-05 2.08329e-05 2.08329e-05 2.08329e-05 2.08329e-05 2.08329e-05 2.08329e-05);
        value           nonuniform List<scalar> 10(859.05387 858.77707 858.19273 857.33294 856.6664 856.22356 856.05479 856.09121 856.23641 856.35084);
        Tnbr            T;
        thicknessLayers List<scalar> 1(0.001);
        kappaLayers     List<scalar> 1(0.0005);
        kappaMethod     solidThermo;
        kappa           none;
        alphaAni        none;
        alpha           none;
        field           T;
    }
    leftSolid_to_topAir
    {
        type            compressible::turbulentTemperatureCoupledBaffleMixed;
        refValue        nonuniform List<scalar> 
130
(
322.83464
343.97654
363.10832
380.76193
397.38639
413.26066
428.51003
443.05475
456.55777
468.99118
480.25297
490.15212
498.27771
322.82585
343.73651
362.42047
379.41102
395.1244
409.78488
423.46436
436.11516
447.57251
457.55115
465.65633
471.4206
474.282
322.81717
343.76151
362.49627
379.55253
395.35311
410.13181
423.99577
436.98811
449.06624
460.08708
469.79298
477.77547
483.2614
322.80791
343.75755
362.51888
379.62771
395.52266
410.46723
424.61598
438.0647
450.86491
463.02373
474.46528
484.95043
493.7206
322.79493
343.73716
362.49714
379.60978
395.51461
410.47664
424.653
438.1415
450.99528
463.20714
474.66479
485.01777
493.25464
322.77795
343.70416
362.44881
379.54624
395.43518
410.38038
424.5388
438.0088
450.84234
463.03245
474.47045
484.81069
493.05957
322.76088
343.66659
362.38653
379.45509
395.3102
410.21372
424.31693
437.71408
450.45918
462.55733
473.93706
484.35766
493.05949
322.74669
343.62493
362.29723
379.29252
395.03211
409.7471
423.54218
436.45907
448.45402
459.38852
469.01446
476.93279
482.37631
322.74127
343.57402
362.18549
379.10597
394.75044
409.3411
422.9465
435.52256
446.9076
456.82914
464.90268
470.67221
473.57429
322.74229
343.79858
362.8503
380.42556
396.97029
412.76216
427.92911
442.39854
455.82923
468.19612
479.40167
489.26232
497.37692
)
;
        refGradient     uniform 0;
        valueFraction   nonuniform List<scalar> 
130
(
0.00032132529
0.00032132529
0.00032132529
0.00032132529
0.00032132529
0.00032132529
0.00032132529
0.00032132529
0.00032132529
0.00032132529
0.00032132529
0.00032132529
0.00032132529
0.00032132529
0.00032132529
0.00032132529
0.00032132529
0.00032132529
0.00032132529
0.00032132529
0.00032132529
0.00032132529
0.00032132529
0.00032132529
0.00032132529
0.00032132529
0.00032132529
0.00032132529
0.00032132529
0.00032132529
0.00032132529
0.00032132529
0.00032132529
0.00032132529
0.00032132529
0.00032132529
0.00032132529
0.00032132529
0.00032132529
0.00032132529
0.00032132529
0.00032132529
0.00032132529
0.00032132529
0.00032132529
0.00032132529
0.00032132529
0.00032132529
0.00032132529
0.00032132529
0.00032132529
0.00032132529
0.00032132529
0.00032132529
0.00032132529
0.00032132529
0.00032132529
0.00032132529
0.00032132529
0.00032132529
0.00032132529
0.00032132529
0.00032132529
0.00032132529
0.00032132529
0.00032132529
0.00032132529
0.00032132529
0.00032132529
0.00032132529
0.00032132529
0.00032132529
0.00032132529
0.00032132529
0.00032132529
0.00032132529
0.00032132529
0.00032132529
0.00032132529
0.00032132529
0.00032132529
0.00032132529
0.00032132529
0.00032132529
0.00032132529
0.00032132529
0.00032132529
0.00032132529
0.00032132529
0.00032132529
0.00032132529
0.00032132529
0.00032132529
0.00032132529
0.00032132529
0.00032132529
0.00032132529
0.00032132529
0.00032132529
0.00032132529
0.00032132529
0.00032132529
0.00032132529
0.00032132529
0.00032132529
0.00032132529
0.00032132529
0.00032132529
0.00032132529
0.00032132529
0.00032132529
0.00032132529
0.00032132529
0.00032132529
0.00032132529
0.00032132529
0.00032132529
0.00032132529
0.00032132529
0.00032132529
0.00032132529
0.00032132529
0.00032132529
0.00032132529
0.00032132529
0.00032132529
0.00032132529
0.00032132529
0.00032132529
0.00032132529
)
;
        value           nonuniform List<scalar> 
130
(
860.66051
860.59564
860.47432
860.3057
860.10408
859.90928
859.7257
859.54782
859.37685
859.21435
859.08241
858.99105
858.94077
860.57756
860.52035
860.40068
860.22964
860.0113
859.79197
859.5838
859.37478
859.16527
858.98124
858.83062
858.71993
858.65654
860.42089
860.36831
860.24963
860.06785
859.82051
859.55638
859.30382
859.04685
858.77416
858.52662
858.31569
858.16249
858.07566
860.19151
860.13704
860.01374
859.81141
859.53574
859.22769
858.92046
858.59288
858.25571
857.91429
857.57947
857.34603
857.22014
859.88264
859.82376
859.69315
859.47864
859.18946
858.84612
858.49636
858.12672
857.72624
857.28185
856.92918
856.69387
856.5546
859.46222
859.4047
859.27852
859.0758
858.79924
858.47743
858.1256
857.74608
857.3269
856.85498
856.48924
856.24534
856.11183
859.02078
858.96685
858.84767
858.66164
858.42222
858.13186
857.79956
857.44344
857.04828
856.60742
856.27893
856.05912
855.94217
858.6671
858.60577
858.4875
858.32274
858.11468
857.86112
857.56461
857.25952
856.93593
856.5883
856.29045
856.08225
855.97451
858.4663
858.40604
858.28124
858.10758
857.90935
857.68387
857.43588
857.17742
856.91444
856.65388
856.41641
856.23004
856.11644
858.35589
858.30188
858.18959
858.02111
857.81249
857.59958
857.38092
857.15871
856.93211
856.70865
856.50301
856.34386
856.2383
)
;
        Tnbr            T;
        thicknessLayers List<scalar> 0();
        kappaLayers     List<scalar> 0();
        kappaMethod     solidThermo;
        kappa           none;
        alphaAni        none;
        alpha           none;
        field           T;
    }
}


// ************************************************************************* //
