/*--------------------------------*- C++ -*----------------------------------*\
| =========                 |                                                 |
| \\      /  F ield         | OpenFOAM: The Open Source CFD Toolbox           |
|  \\    /   O peration     | Version:  v2012                                 |
|   \\  /    A nd           | Website:  www.openfoam.com                      |
|    \\/     M anipulation  |                                                 |
\*---------------------------------------------------------------------------*/
FoamFile
{
    version     2.0;
    format      ascii;
    class       volScalarField;
    location    "70/bottomWater";
    object      p;
}
// * * * * * * * * * * * * * * * * * * * * * * * * * * * * * * * * * * * * * //

dimensions      [1 -1 -2 0 0 0 0];


internalField   nonuniform List<scalar> 
1460
(
353.39859
353.39934
353.39136
353.39149
353.39816
353.40064
353.40264
353.40185
353.40362
353.40433
353.40183
353.40098
353.405
353.40151
353.40723
353.40742
353.40182
353.4052
353.40083
353.40186
353.40439
353.40363
353.40187
353.40261
353.40068
353.39817
353.39149
353.39144
353.39949
353.39862
274.47093
274.49238
274.48348
274.48791
274.51969
274.538
274.52492
274.5184
274.5172
274.51723
274.47063
274.48776
274.51924
274.5233
274.54433
274.54491
274.52515
274.51996
274.48786
274.47081
274.5173
274.5171
274.51831
274.52472
274.53794
274.51932
274.48754
274.48315
274.49202
274.47067
196.29458
196.26375
196.29526
196.27006
196.25067
196.2519
196.25033
196.24797
196.24497
196.23208
196.24777
196.25221
196.22836
196.26495
196.2502
196.24999
196.26414
196.22775
196.25121
196.24727
196.23229
196.24488
196.24797
196.25029
196.25173
196.2505
196.27014
196.29525
196.26375
196.29443
117.69631
117.65489
117.69745
117.68396
117.68104
117.67356
117.69008
117.69993
117.69246
117.66695
117.68879
117.65364
117.66756
117.6706
117.70775
117.70833
117.67112
117.66789
117.65408
117.68882
117.66703
117.6925
117.69984
117.68982
117.67336
117.68075
117.68364
117.69724
117.65433
117.69574
39.240416
39.245668
39.231413
39.225441
39.228891
39.239058
39.234268
39.233822
39.232278
39.241644
39.245243
39.245692
39.246787
39.21866
39.235191
39.235571
39.218499
39.246356
39.245504
39.245098
39.241528
39.232234
39.233762
39.234166
39.238939
39.228618
39.225119
39.231008
39.245322
39.239886
353.39522
353.39601
353.39674
353.39349
353.40782
353.4061
353.40074
353.3975
353.39515
353.39844
353.40043
353.39675
353.39898
353.40595
353.40277
353.40301
353.40572
353.39896
353.39663
353.40035
353.39839
353.39512
353.39749
353.40071
353.40609
353.40775
353.39356
353.39678
353.3961
353.39536
274.46805
274.4651
274.47808
274.48241
274.51123
274.5136
274.47993
274.47389
274.4784
274.46915
274.46213
274.46237
274.48343
274.52859
274.52658
274.52692
274.52868
274.48369
274.46241
274.4622
274.46918
274.47833
274.4738
274.47976
274.51345
274.51101
274.48241
274.47789
274.465
274.46813
196.28973
196.27046
196.26359
196.24741
196.22561
196.23484
196.24829
196.26703
196.26009
196.26581
196.27864
196.24689
196.23034
196.2206
196.24004
196.23947
196.22026
196.22973
196.2462
196.27828
196.26584
196.25998
196.26697
196.24837
196.23483
196.22548
196.24705
196.2634
196.27027
196.28942
117.68945
117.69077
117.67934
117.65948
117.64923
117.65167
117.64507
117.66706
117.64649
117.66203
117.67858
117.66006
117.66039
117.64891
117.68506
117.68519
117.64925
117.66082
117.66014
117.6786
117.66201
117.64643
117.66694
117.64491
117.65147
117.64894
117.6591
117.67895
117.6902
117.68855
39.250162
39.248248
39.236452
39.231318
39.242099
39.25371
39.249038
39.234723
39.254625
39.242644
39.255817
39.240609
39.244277
39.233343
39.224653
39.224607
39.233251
39.24415
39.240506
39.255685
39.242545
39.254553
39.234736
39.24904
39.253604
39.241827
39.230973
39.235928
39.247591
39.249288
353.38062
353.37879
353.37968
353.38941
353.39751
353.39848
353.39813
353.39818
353.39866
353.40034
353.40316
353.39706
353.39219
353.39216
353.38704
353.38683
353.3917
353.39195
353.39687
353.40317
353.40046
353.39875
353.39823
353.39816
353.39855
353.3976
353.38947
353.37976
353.37901
353.38107
274.49649
274.48941
274.48785
274.47701
274.45911
274.46333
274.46393
274.46085
274.4606
274.46107
274.46124
274.46096
274.45941
274.48186
274.47791
274.47773
274.48129
274.45978
274.46099
274.46124
274.46101
274.46044
274.46069
274.46376
274.46317
274.45898
274.47698
274.48774
274.48965
274.49825
196.26749
196.26463
196.26466
196.27443
196.28776
196.29079
196.28407
196.28251
196.27547
196.28751
196.29451
196.29078
196.26668
196.25253
196.2692
196.26878
196.25252
196.26636
196.29025
196.29451
196.28758
196.27545
196.28254
196.28398
196.29072
196.28759
196.2742
196.26441
196.26419
196.26704
117.65593
117.64797
117.65491
117.65732
117.67709
117.68537
117.69455
117.70294
117.70176
117.69797
117.70314
117.68136
117.6658
117.64453
117.67458
117.67425
117.64512
117.66578
117.68125
117.70308
117.69824
117.70176
117.70287
117.69446
117.68527
117.67686
117.65675
117.65436
117.64708
117.65344
39.256716
39.264602
39.263106
39.257142
39.256964
39.259574
39.258108
39.253456
39.258534
39.26112
39.270861
39.260644
39.255955
39.252737
39.244387
39.244149
39.252835
39.255894
39.260543
39.270841
39.261187
39.258539
39.253465
39.258014
39.259406
39.25667
39.256855
39.262651
39.263752
39.255265
353.38279
353.40335
353.41233
353.40113
353.40695
353.40048
353.39343
353.39567
353.38856
353.39519
353.39236
353.39447
353.396
353.39356
353.39257
353.39276
353.39336
353.396
353.39448
353.39242
353.39491
353.3887
353.39572
353.39344
353.40051
353.40698
353.4012
353.41242
353.40346
353.38299
274.49865
274.52269
274.51157
274.4547
274.45663
274.46777
274.47205
274.48346
274.47606
274.48608
274.46746
274.46399
274.46687
274.47717
274.47857
274.47828
274.47627
274.46674
274.46383
274.46738
274.48518
274.47605
274.48323
274.47197
274.46763
274.45647
274.45452
274.51144
274.52265
274.49861
196.27184
196.22527
196.22078
196.23477
196.26217
196.27319
196.26112
196.25477
196.27196
196.25661
196.26664
196.27931
196.29419
196.27359
196.28276
196.28123
196.27412
196.29396
196.27953
196.26711
196.25782
196.27182
196.25504
196.26107
196.27313
196.26206
196.2346
196.22059
196.22507
196.27168
117.68081
117.65836
117.66627
117.64844
117.69217
117.67841
117.64924
117.67089
117.66196
117.6559
117.66418
117.68281
117.67767
117.6263
117.66967
117.66918
117.63056
117.67852
117.68299
117.66448
117.65574
117.66172
117.67074
117.64886
117.67814
117.69196
117.64818
117.66591
117.65779
117.67998
39.229993
39.243298
39.250992
39.252528
39.258358
39.256267
39.252862
39.249697
39.2495
39.260618
39.262977
39.256725
39.256034
39.262771
39.249096
39.250059
39.261972
39.255932
39.256643
39.262976
39.260808
39.249731
39.249625
39.252824
39.256059
39.257994
39.252071
39.250451
39.242606
39.229138
353.4041
353.41231
353.41574
353.41337
353.41058
353.40045
353.41005
353.4146
353.41347
353.40736
353.40914
353.39277
353.40014
353.40019
353.39282
353.4092
353.40747
353.41356
353.41468
353.41012
353.40054
353.41061
353.41342
353.41556
353.41237
353.40415
274.53359
274.53005
274.50312
274.45645
274.4638
274.47865
274.50442
274.53129
274.52901
274.53652
274.51671
274.46998
274.47674
274.47671
274.46991
274.51641
274.5361
274.52894
274.53122
274.50442
274.47858
274.46364
274.45638
274.50324
274.52995
274.53352
196.24734
196.25099
196.22438
196.26249
196.27075
196.25593
196.24276
196.25577
196.24737
196.25376
196.23427
196.25118
196.27547
196.27558
196.25136
196.23426
196.25352
196.24743
196.25568
196.24287
196.25584
196.27075
196.26242
196.22431
196.25085
196.24717
117.6978
117.67414
117.64759
117.67641
117.6972
117.65821
117.6809
117.6979
117.70745
117.6901
117.68503
117.68073
117.70088
117.70106
117.68077
117.685
117.68997
117.7073
117.69792
117.68084
117.65805
117.69701
117.67619
117.64719
117.67376
117.69733
39.231934
39.221604
39.24051
39.245236
39.255981
39.261742
39.241659
39.240565
39.242572
39.243447
39.254013
39.242344
39.24596
39.245857
39.242246
39.2539
39.243481
39.242496
39.240441
39.241455
39.261526
39.255693
39.244926
39.240091
39.221078
39.231381
353.40409
353.41221
353.41434
353.41324
353.4106
353.40048
353.41006
353.41458
353.41344
353.40734
353.40907
353.39271
353.40009
353.40019
353.39282
353.40923
353.40746
353.41357
353.41468
353.41012
353.40052
353.41061
353.41333
353.41465
353.41229
353.40416
274.53383
274.53046
274.50521
274.45693
274.46385
274.47864
274.50439
274.53126
274.52898
274.53633
274.51653
274.46998
274.47678
274.47671
274.46993
274.51654
274.53626
274.52893
274.53123
274.50438
274.47859
274.46374
274.45666
274.50469
274.53022
274.53359
196.24742
196.25121
196.22488
196.26272
196.27084
196.25593
196.24276
196.25574
196.24739
196.25353
196.23426
196.25126
196.27549
196.27553
196.25127
196.23425
196.25364
196.24743
196.2557
196.24283
196.25586
196.27072
196.26252
196.22463
196.25092
196.24718
117.69781
117.67421
117.64768
117.67649
117.69729
117.6582
117.68095
117.69797
117.70738
117.69008
117.68504
117.68074
117.70092
117.70095
117.68069
117.685
117.68995
117.7073
117.69784
117.68078
117.65803
117.69696
117.67615
117.64721
117.67363
117.69718
39.231838
39.221477
39.240421
39.245184
39.25594
39.261778
39.241606
39.240547
39.242539
39.243444
39.253927
39.242301
39.245953
39.245883
39.242309
39.253973
39.243509
39.242523
39.240483
39.241509
39.261605
39.255779
39.244947
39.240119
39.221076
39.231293
353.38296
353.40343
353.41234
353.40114
353.40696
353.40049
353.39341
353.39564
353.3886
353.39503
353.39231
353.39445
353.39599
353.39353
353.3926
353.39265
353.39352
353.39604
353.39451
353.39243
353.39503
353.38868
353.39573
353.39348
353.40052
353.40701
353.4012
353.41239
353.40351
353.38308
274.4988
274.5229
274.51181
274.45478
274.45665
274.46776
274.47198
274.48341
274.47612
274.48575
274.46745
274.46397
274.46687
274.47689
274.47846
274.47835
274.47655
274.46677
274.46387
274.46736
274.48543
274.47601
274.48329
274.47199
274.46762
274.4565
274.45461
274.51161
274.52277
274.49884
196.2719
196.22533
196.22088
196.23479
196.26219
196.27327
196.26107
196.25489
196.27183
196.25713
196.26683
196.27946
196.2942
196.27406
196.28235
196.28195
196.27438
196.29417
196.27954
196.267
196.25741
196.2719
196.25488
196.26109
196.27308
196.26212
196.2347
196.22067
196.22503
196.27158
117.68037
117.65816
117.66626
117.64851
117.69225
117.67843
117.64944
117.67087
117.66199
117.6559
117.66434
117.68283
117.67773
117.62687
117.66929
117.66915
117.62752
117.67781
117.68279
117.66431
117.65575
117.66172
117.67074
117.64883
117.67814
117.69186
117.64804
117.66568
117.65748
117.67949
39.229517
39.242957
39.250761
39.252354
39.258205
39.256248
39.25284
39.249709
39.249672
39.260729
39.262988
39.256733
39.255973
39.262404
39.249457
39.249687
39.262077
39.255851
39.256627
39.262952
39.260726
39.249611
39.249643
39.252792
39.255983
39.258079
39.252127
39.250385
39.242372
39.228763
353.38099
353.37894
353.37973
353.38943
353.39755
353.39847
353.39809
353.39817
353.39867
353.40038
353.40319
353.397
353.39211
353.39204
353.38698
353.38692
353.39189
353.39206
353.39696
353.40319
353.40045
353.39875
353.39824
353.39817
353.39854
353.39759
353.38949
353.37982
353.37915
353.38141
274.49826
274.48982
274.48796
274.47711
274.45913
274.4633
274.46386
274.46085
274.46057
274.46109
274.46128
274.461
274.45955
274.48175
274.47788
274.4778
274.48151
274.45963
274.46097
274.46122
274.46099
274.46046
274.4607
274.46376
274.46317
274.45895
274.47691
274.48777
274.48993
274.49976
196.26718
196.26434
196.26456
196.27435
196.28771
196.29081
196.28416
196.28257
196.27548
196.28757
196.29455
196.29063
196.26661
196.25257
196.26908
196.269
196.25265
196.26651
196.29047
196.29453
196.28757
196.27545
196.2825
196.28396
196.29069
196.28758
196.27418
196.2643
196.26393
196.26675
117.65388
117.64741
117.65464
117.65715
117.67707
117.68543
117.69465
117.70305
117.70187
117.69815
117.70315
117.68133
117.66578
117.64472
117.6745
117.67446
117.64516
117.66584
117.68129
117.70309
117.69814
117.70173
117.70287
117.69442
117.68519
117.67677
117.65668
117.65417
117.64655
117.65164
39.255649
39.264042
39.262846
39.256998
39.256875
39.259596
39.25817
39.253551
39.258604
39.261196
39.270886
39.260624
39.25594
39.252726
39.24438
39.24426
39.252775
39.2559
39.260567
39.270833
39.261142
39.258499
39.253396
39.257962
39.259343
39.256621
39.256701
39.262307
39.263158
39.254231
353.3953
353.39604
353.39675
353.39352
353.40773
353.40599
353.40054
353.39739
353.39509
353.39839
353.40039
353.39668
353.39894
353.40587
353.40281
353.40292
353.40579
353.39896
353.39668
353.4004
353.39842
353.39515
353.3975
353.40072
353.40611
353.40779
353.39355
353.39682
353.39616
353.39547
274.46827
274.46518
274.4781
274.48265
274.5112
274.51345
274.47921
274.47379
274.47841
274.46918
274.4622
274.46241
274.48353
274.52865
274.52677
274.52691
274.52862
274.48355
274.46237
274.46217
274.46913
274.47832
274.47377
274.4797
274.51344
274.51098
274.48215
274.47782
274.46499
274.46826
196.28951
196.27029
196.26343
196.2471
196.22557
196.23502
196.24899
196.26717
196.26009
196.26584
196.27857
196.24668
196.23019
196.22051
196.23986
196.23967
196.22038
196.22996
196.24641
196.27844
196.26582
196.26001
196.26697
196.24836
196.23479
196.22549
196.2472
196.26335
196.27012
196.28929
117.68888
117.69043
117.67914
117.65932
117.6492
117.65181
117.64542
117.66724
117.6466
117.66215
117.67866
117.66011
117.66053
117.64899
117.68516
117.68523
117.6491
117.66067
117.66013
117.6786
117.66203
117.64642
117.66694
117.64489
117.65143
117.64888
117.659
117.67871
117.68983
117.68801
39.24958
39.247831
39.236182
39.231163
39.242036
39.253801
39.24922
39.234874
39.254691
39.242675
39.25584
39.240603
39.244267
39.233284
39.224735
39.224709
39.233239
39.244194
39.240524
39.255726
39.242543
39.254532
39.23467
39.248935
39.253515
39.24175
39.230818
39.235699
39.24722
39.248784
353.39857
353.39929
353.39131
353.39145
353.39811
353.4006
353.40258
353.40182
353.4036
353.40433
353.40182
353.40091
353.40504
353.40163
353.40727
353.40736
353.40177
353.40515
353.40089
353.40187
353.40439
353.40365
353.40189
353.40264
353.40069
353.39819
353.39153
353.39146
353.39952
353.39867
274.47093
274.49237
274.48336
274.48788
274.51964
274.53799
274.52487
274.5184
274.51721
274.51728
274.4707
274.48782
274.5195
274.52387
274.54458
274.5448
274.52457
274.51973
274.4878
274.47073
274.51723
274.5171
274.5183
274.52475
274.53792
274.51936
274.48752
274.48312
274.49196
274.47059
196.29439
196.26364
196.29521
196.27001
196.25064
196.25193
196.25044
196.24805
196.24499
196.23216
196.24764
196.2519
196.22819
196.26469
196.25011
196.25004
196.26436
196.22794
196.25149
196.24743
196.23219
196.24488
196.24794
196.25027
196.25172
196.25045
196.27001
196.29512
196.26355
196.29429
117.69605
117.65471
117.69728
117.68386
117.68103
117.67361
117.69018
117.70005
117.69257
117.66705
117.68887
117.6538
117.6677
117.67072
117.70798
117.70821
117.67093
117.6678
117.65394
117.6888
117.66698
117.69244
117.69983
117.68985
117.67332
117.68067
117.68354
117.69703
117.65406
117.69543
39.240072
39.245361
39.231227
39.225312
39.228834
39.239123
39.234377
39.233935
39.232373
39.241691
39.245269
39.245645
39.246696
39.218583
39.235379
39.235522
39.218518
39.246514
39.245527
39.245143
39.241549
39.232213
39.233726
39.234109
39.238862
39.228549
39.224989
39.230796
39.245034
39.239565
)
;

boundaryField
{
    minX
    {
        type            calculated;
        value           nonuniform List<scalar> 
50
(
353.39859
274.47093
196.29458
117.69631
39.240416
353.39522
274.46805
196.28973
117.68945
39.250162
353.38062
274.49649
196.26749
117.65593
39.256716
353.38279
274.49865
196.27184
117.68081
39.229993
353.4041
274.53359
196.24734
117.6978
39.231934
353.40409
274.53383
196.24742
117.69781
39.231838
353.38296
274.4988
196.2719
117.68037
39.229517
353.38099
274.49826
196.26718
117.65388
39.255649
353.3953
274.46827
196.28951
117.68888
39.24958
353.39857
274.47093
196.29439
117.69605
39.240072
)
;
    }
    maxX
    {
        type            calculated;
        value           nonuniform List<scalar> 
50
(
353.39862
274.47067
196.29443
117.69574
39.239886
353.39536
274.46813
196.28942
117.68855
39.249288
353.38107
274.49825
196.26704
117.65344
39.255265
353.38299
274.49861
196.27168
117.67998
39.229138
353.40415
274.53352
196.24717
117.69733
39.231381
353.40416
274.53359
196.24718
117.69718
39.231293
353.38308
274.49884
196.27158
117.67949
39.228763
353.38141
274.49976
196.26675
117.65164
39.254231
353.39547
274.46826
196.28929
117.68801
39.248784
353.39867
274.47059
196.29429
117.69543
39.239565
)
;
    }
    minY
    {
        type            calculated;
        value           nonuniform List<scalar> 
292
(
392.4
392.4
392.4
392.4
392.4
392.4
392.4
392.4
392.4
392.4
392.4
392.4
392.4
392.4
392.4
392.4
392.4
392.4
392.4
392.4
392.4
392.4
392.4
392.4
392.4
392.4
392.4
392.4
392.4
392.4
392.4
392.4
392.4
392.4
392.4
392.4
392.4
392.4
392.4
392.4
392.4
392.4
392.4
392.4
392.4
392.4
392.4
392.4
392.4
392.4
392.4
392.4
392.4
392.4
392.4
392.4
392.4
392.4
392.4
392.4
392.4
392.4
392.4
392.4
392.4
392.4
392.4
392.4
392.4
392.4
392.4
392.4
392.4
392.4
392.4
392.4
392.4
392.4
392.4
392.4
392.4
392.4
392.4
392.4
392.4
392.4
392.4
392.4
392.4
392.4
392.4
392.4
392.4
392.4
392.4
392.4
392.4
392.4
392.4
392.4
392.4
392.4
392.4
392.4
392.4
392.4
392.4
392.4
392.4
392.4
392.4
392.4
392.4
392.4
392.4
392.4
392.4
392.4
392.4
392.4
392.4
392.4
392.4
392.4
392.4
392.4
392.4
392.4
392.4
392.4
392.4
392.4
392.4
392.4
392.4
392.4
392.4
392.4
392.4
392.4
392.4
392.4
392.4
392.4
392.4
392.4
392.4
392.4
392.4
392.4
392.4
392.4
392.4
392.4
392.4
392.4
392.4
392.4
392.4
392.4
392.4
392.4
392.4
392.4
392.4
392.4
392.4
392.4
392.4
392.4
392.4
392.4
392.4
392.4
392.4
392.4
392.4
392.4
392.4
392.4
392.4
392.4
392.4
392.4
392.4
392.4
392.4
392.4
392.4
392.4
392.4
392.4
392.4
392.4
392.4
392.4
392.4
392.4
392.4
392.4
392.4
392.4
392.4
392.4
392.4
392.4
392.4
392.4
392.4
392.4
392.4
392.4
392.4
392.4
392.4
392.4
392.4
392.4
392.4
392.4
392.4
392.4
392.4
392.4
392.4
392.4
392.4
392.4
392.4
392.4
392.4
392.4
392.4
392.4
392.4
392.4
392.4
392.4
392.4
392.4
392.4
392.4
392.4
392.4
392.4
392.4
392.4
392.4
392.4
392.4
392.4
392.4
392.4
392.4
392.4
392.4
392.4
392.4
392.4
392.4
392.4
392.4
392.4
392.4
392.4
392.4
392.4
392.4
392.4
392.4
392.4
392.4
392.4
392.4
392.4
392.4
392.4
392.4
392.4
392.4
392.4
392.4
392.4
392.4
392.4
392.4
392.4
392.4
392.4
392.4
392.4
392.4
)
;
    }
    minZ
    {
        type            calculated;
        value           nonuniform List<scalar> 
150
(
353.39859
274.47093
196.29458
117.69631
39.240416
353.39934
274.49238
196.26375
117.65489
39.245668
353.39136
274.48348
196.29526
117.69745
39.231413
353.39149
274.48791
196.27006
117.68396
39.225441
353.39816
274.51969
196.25067
117.68104
39.228891
353.40064
274.538
196.2519
117.67356
39.239058
353.40264
274.52492
196.25033
117.69008
39.234268
353.40185
274.5184
196.24797
117.69993
39.233822
353.40362
274.5172
196.24497
117.69246
39.232278
353.40433
274.51723
196.23208
117.66695
39.241644
353.40183
274.47063
196.24777
117.68879
39.245243
353.40098
274.48776
196.25221
117.65364
39.245692
353.405
274.51924
196.22836
117.66756
39.246787
353.40151
274.5233
196.26495
117.6706
39.21866
353.40723
274.54433
196.2502
117.70775
39.235191
353.40742
274.54491
196.24999
117.70833
39.235571
353.40182
274.52515
196.26414
117.67112
39.218499
353.4052
274.51996
196.22775
117.66789
39.246356
353.40083
274.48786
196.25121
117.65408
39.245504
353.40186
274.47081
196.24727
117.68882
39.245098
353.40439
274.5173
196.23229
117.66703
39.241528
353.40363
274.5171
196.24488
117.6925
39.232234
353.40187
274.51831
196.24797
117.69984
39.233762
353.40261
274.52472
196.25029
117.68982
39.234166
353.40068
274.53794
196.25173
117.67336
39.238939
353.39817
274.51932
196.2505
117.68075
39.228618
353.39149
274.48754
196.27014
117.68364
39.225119
353.39144
274.48315
196.29525
117.69724
39.231008
353.39949
274.49202
196.26375
117.65433
39.245322
353.39862
274.47067
196.29443
117.69574
39.239886
)
;
    }
    maxZ
    {
        type            calculated;
        value           nonuniform List<scalar> 
150
(
353.39857
274.47093
196.29439
117.69605
39.240072
353.39929
274.49237
196.26364
117.65471
39.245361
353.39131
274.48336
196.29521
117.69728
39.231227
353.39145
274.48788
196.27001
117.68386
39.225312
353.39811
274.51964
196.25064
117.68103
39.228834
353.4006
274.53799
196.25193
117.67361
39.239123
353.40258
274.52487
196.25044
117.69018
39.234377
353.40182
274.5184
196.24805
117.70005
39.233935
353.4036
274.51721
196.24499
117.69257
39.232373
353.40433
274.51728
196.23216
117.66705
39.241691
353.40182
274.4707
196.24764
117.68887
39.245269
353.40091
274.48782
196.2519
117.6538
39.245645
353.40504
274.5195
196.22819
117.6677
39.246696
353.40163
274.52387
196.26469
117.67072
39.218583
353.40727
274.54458
196.25011
117.70798
39.235379
353.40736
274.5448
196.25004
117.70821
39.235522
353.40177
274.52457
196.26436
117.67093
39.218518
353.40515
274.51973
196.22794
117.6678
39.246514
353.40089
274.4878
196.25149
117.65394
39.245527
353.40187
274.47073
196.24743
117.6888
39.245143
353.40439
274.51723
196.23219
117.66698
39.241549
353.40365
274.5171
196.24488
117.69244
39.232213
353.40189
274.5183
196.24794
117.69983
39.233726
353.40264
274.52475
196.25027
117.68985
39.234109
353.40069
274.53792
196.25172
117.67332
39.238862
353.39819
274.51936
196.25045
117.68067
39.228549
353.39153
274.48752
196.27001
117.68354
39.224989
353.39146
274.48312
196.29512
117.69703
39.230796
353.39952
274.49196
196.26355
117.65406
39.245034
353.39867
274.47059
196.29429
117.69543
39.239565
)
;
    }
    bottomWater_to_rightSolid
    {
        type            calculated;
        value           nonuniform List<scalar> 
130
(
0.0063563031
0.0055039981
0.0050982744
0.0015279572
-0.0077659968
-0.0062378685
-0.0058340139
-0.0010613676
-0.011381608
-0.014881147
-0.0089921483
0.005321547
-0.0001140068
0.0041501075
0.00050645003
0.015684843
0.0025446318
0.014553309
-0.005264471
0.0090395588
0.013603905
0.0018269148
-0.0090265677
-0.0040719522
0.0075914429
0.009288439
0.015893783
0.020543289
0.030840848
0.021187429
0.018539493
0.013465057
0.018013618
0.019405863
0.016670268
0.016854987
0.02265086
0.023751599
0.015265322
0.015932169
0.016642681
0.022976242
0.020808353
0.009731292
0.0096254777
0.012823821
0.016058979
0.017993767
0.012071401
0.010450962
0.0026058929
-0.010861915
0.0058573882
0.0022459966
0.013899625
0.003480579
0.002495811
0.00044058027
0.0014550673
0.021525651
0.01569261
0.0049255476
9.0861531e-05
-0.018921765
-0.0086185365
0.0058828751
0.0023085031
0.013973286
0.0035091369
0.0025226588
0.00048291238
0.0015093625
0.021604962
0.015779089
0.0049469268
0.00011883124
-0.018924109
-0.0087073588
0.015850999
0.016626634
0.022952332
0.020725873
0.0096112823
0.0096428887
0.01279193
0.015982633
0.018079083
0.012127264
0.010384903
0.002372369
-0.011236629
0.015899951
0.020566562
0.030833178
0.021141614
0.018498748
0.013396325
0.017962193
0.019343414
0.01662136
0.016700944
0.022307398
0.023157813
0.014230616
0.004193966
0.00052421377
0.015726496
0.0025428649
0.014531754
-0.0053300314
0.0089350749
0.013514556
0.0017504103
-0.0091822682
-0.0043010643
0.0072200647
0.0087838237
0.0065138163
0.0055268699
0.0051431364
0.0015490739
-0.0077869366
-0.0062737015
-0.0058905133
-0.0011379286
-0.011451422
-0.015010611
-0.0092040196
0.0050337449
-0.00043484995
)
;
    }
    bottomWater_to_leftSolid
    {
        type            calculated;
        value           nonuniform List<scalar> 
130
(
0.00041554818
0.0056675193
-0.0085873343
-0.014559176
-0.011109439
-0.00094183051
-0.005731923
-0.0061779654
-0.0077222318
0.0016435579
0.0052430971
0.0056917299
0.0067867259
0.010161538
0.0082477107
-0.0035481825
-0.0086821611
0.0020993566
0.013709726
0.0090376065
-0.005277029
0.014625306
0.0026438915
0.015817049
0.00060897152
0.0042766362
0.016716045
0.024601562
0.023106217
0.017141582
0.016963745
0.019573828
0.018108326
0.013456099
0.018534122
0.021119922
0.03086144
0.02064354
0.015955191
-0.010007376
0.0032980339
0.010992395
0.012527585
0.018358175
0.016266947
0.012862389
0.0096974065
0.0094998139
0.02061839
0.022976682
0.016724649
0.016034008
-0.0080656684
-0.018395948
0.00050962281
0.0052361159
0.015980768
0.021742038
0.0016593425
0.00056521817
0.0025717193
0.0034470774
0.014012516
0.0023436947
0.0059595404
-0.0081616452
-0.018523157
0.00042118052
0.0051838009
0.015940031
0.021778282
0.0016058195
0.00054732491
0.0025392517
0.0034444875
0.013926883
0.0023012211
0.0059527816
-0.010483427
0.0029570657
0.010760536
0.012353836
0.018205094
0.016248341
0.012840127
0.0097092363
0.0096718582
0.02072947
0.022987515
0.016733003
0.015973012
0.01564905
0.024042175
0.02284568
0.016998013
0.01687508
0.019596234
0.018170464
0.0135512
0.018603816
0.021196284
0.03088556
0.020623562
0.015939849
0.0095797547
0.0078306753
-0.0038178396
-0.0088374543
0.0020355292
0.01380104
0.0092196657
-0.005125509
0.014691414
0.0026749748
0.015839948
0.00060294847
0.0042665988
7.2461703e-05
0.0053609078
-0.0087726491
-0.014687569
-0.011165957
-0.0008768457
-0.0056233448
-0.0060650487
-0.0076265903
0.001691495
0.0052692899
0.0056451625
0.0066963626
)
;
    }
    bottomWater_to_heater
    {
        type            calculated;
        value           nonuniform List<scalar> 
92
(
-0.021339624
-0.0048092363
-0.0044287337
-0.021500967
-0.0066574079
-0.015346511
-0.015393138
-0.0067492035
0.012736808
0.0043872641
0.004148877
0.01283504
353.39356
353.39257
353.39276
353.39336
274.47717
274.47857
274.47828
274.47627
196.27359
196.28276
196.28123
196.27412
117.6263
117.66967
117.66918
117.63056
0.022771025
39.262771
0.0090955741
39.249096
0.010059005
39.250059
0.021972225
39.261972
353.40014
353.40019
274.47674
274.47671
196.27547
196.27558
117.70088
117.70106
39.24596
39.245857
353.40009
353.39353
353.3926
353.39265
353.40019
353.39352
274.47678
274.47689
274.47846
274.47835
274.47671
274.47655
196.27549
196.27406
196.28235
196.28195
196.27553
196.27438
117.70092
117.62687
117.66929
117.66915
117.70095
117.62752
39.245953
39.262404
39.249457
39.249687
39.245883
39.262077
0.022404336
0.0094572983
0.009687115
0.022076582
0.012725998
0.0043796019
0.0042596413
0.012774821
-0.0067164366
-0.01526452
-0.015290608
-0.0067606859
-0.02141693
-0.0046208032
-0.0044781986
-0.021481928
)
;
    }
}


// ************************************************************************* //
