/*--------------------------------*- C++ -*----------------------------------*\
| =========                 |                                                 |
| \\      /  F ield         | OpenFOAM: The Open Source CFD Toolbox           |
|  \\    /   O peration     | Version:  v2012                                 |
|   \\  /    A nd           | Website:  www.openfoam.com                      |
|    \\/     M anipulation  |                                                 |
\*---------------------------------------------------------------------------*/
FoamFile
{
    version     2.0;
    format      ascii;
    class       volScalarField;
    location    "70/bottomWater";
    object      p_rgh;
}
// * * * * * * * * * * * * * * * * * * * * * * * * * * * * * * * * * * * * * //

dimensions      [1 -1 -2 0 0 0 0];


internalField   nonuniform List<scalar> 
1460
(
0.23859451
0.23934172
0.23136006
0.23149483
0.23815774
0.24063894
0.24264209
0.2418506
0.24362367
0.24432876
0.24182646
0.24098324
0.24499636
0.24151327
0.24722884
0.24741865
0.24181829
0.24519944
0.24082989
0.24185776
0.24439418
0.24362957
0.24187327
0.24260593
0.24068366
0.23816738
0.23149418
0.23143863
0.23949128
0.23862014
-0.2090723
-0.1876173
-0.19651889
-0.19209198
-0.16031332
-0.14200441
-0.15507834
-0.16160317
-0.16279915
-0.16276931
-0.20937321
-0.19224472
-0.16075553
-0.15669544
-0.13566626
-0.13508613
-0.15484522
-0.16003876
-0.19213814
-0.20919275
-0.16270282
-0.16290091
-0.16169167
-0.15527937
-0.14205998
-0.16067747
-0.19245998
-0.19685236
-0.18797731
-0.2093302
0.094575805
0.063747556
0.095259365
0.070057671
0.050668004
0.051901773
0.050326803
0.047967679
0.044972416
0.032077162
0.047769942
0.052206819
0.028358829
0.064945877
0.050204873
0.049988647
0.064136291
0.027746096
0.051209197
0.047267806
0.032285149
0.044875361
0.047966946
0.05029199
0.051726477
0.050496197
0.070138446
0.095249278
0.063751038
0.094426646
-0.023691794
-0.065107752
-0.022545953
-0.036035572
-0.038955267
-0.046442445
-0.029920767
-0.020066634
-0.027539403
-0.053045497
-0.031209546
-0.066363514
-0.052442328
-0.049404781
-0.012252181
-0.011672797
-0.048883257
-0.052110297
-0.065920253
-0.031184285
-0.052967469
-0.027503465
-0.020163351
-0.030179335
-0.046642065
-0.039251979
-0.03636371
-0.022759357
-0.065668854
-0.024264632
0.00041554818
0.0056675193
-0.0085873343
-0.014559176
-0.011109439
-0.00094183051
-0.005731923
-0.0061779654
-0.0077222318
0.0016435579
0.0052430971
0.0056917299
0.0067867259
-0.021339624
-0.0048092363
-0.0044287337
-0.021500967
0.0063563031
0.0055039981
0.0050982744
0.0015279572
-0.0077659968
-0.0062378685
-0.0058340139
-0.0010613676
-0.011381608
-0.014881147
-0.0089921483
0.005321547
-0.0001140068
0.23521782
0.23600923
0.23674132
0.23349046
0.24781788
0.24610096
0.24073996
0.2374953
0.23515053
0.23844288
0.24043309
0.2367518
0.23898353
0.24594648
0.24276777
0.24300776
0.24571584
0.23896107
0.23663365
0.24035297
0.23839189
0.23511692
0.23748848
0.24071491
0.24609303
0.24775463
0.2335639
0.23678426
0.236101
0.23535977
-0.21195166
-0.21490357
-0.2019238
-0.19759033
-0.16876687
-0.16639527
-0.20007211
-0.20611334
-0.20160393
-0.21084706
-0.21787393
-0.21763325
-0.19657181
-0.15141419
-0.15342082
-0.1530812
-0.15131853
-0.1963072
-0.2175919
-0.21779746
-0.21081812
-0.20166539
-0.20620056
-0.2002441
-0.16655035
-0.16898546
-0.19758872
-0.20211448
-0.21499718
-0.211869
0.089731419
0.070463329
0.063591401
0.047405479
0.025613416
0.034842191
0.048286954
0.06703385
0.060085594
0.065808122
0.078637509
0.046885701
0.030337395
0.020597637
0.040042683
0.039465741
0.020260459
0.029725898
0.046199887
0.078279496
0.065837232
0.059979549
0.066971248
0.048371202
0.034833005
0.025482569
0.047053113
0.063404996
0.070267231
0.089416522
-0.030551846
-0.029231165
-0.040659313
-0.060517878
-0.070769452
-0.068331911
-0.074932335
-0.052940267
-0.073505636
-0.057966173
-0.041418424
-0.059936276
-0.059612253
-0.0710884
-0.034942983
-0.034812836
-0.070747717
-0.059179472
-0.05985721
-0.041401375
-0.057994189
-0.073568805
-0.053060809
-0.075092123
-0.068534512
-0.071057957
-0.060901248
-0.041050178
-0.029801005
-0.031448483
0.010161538
0.0082477107
-0.0035481825
-0.0086821611
0.0020993566
0.013709726
0.0090376065
-0.005277029
0.014625306
0.0026438915
0.015817049
0.00060897152
0.0042766362
-0.0066574079
-0.015346511
-0.015393138
-0.0067492035
0.0041501075
0.00050645003
0.015684843
0.0025446318
0.014553309
-0.005264471
0.0090395588
0.013603905
0.0018269148
-0.0090265677
-0.0040719522
0.0075914429
0.009288439
0.22061962
0.21879337
0.21967716
0.22940937
0.23750967
0.23847881
0.23813177
0.23818463
0.23865713
0.24033957
0.2431557
0.23706217
0.23219272
0.23216279
0.2270429
0.22683309
0.2316958
0.23194654
0.23687326
0.24316805
0.24045516
0.23874789
0.23823462
0.23816019
0.2385471
0.23760035
0.22946707
0.21976033
0.21900955
0.22106937
-0.1835055
-0.19059026
-0.19214861
-0.2029932
-0.22089187
-0.21667461
-0.21607002
-0.21914683
-0.21940459
-0.21893069
-0.21876086
-0.21904352
-0.22058592
-0.19813922
-0.20208651
-0.20226934
-0.1987062
-0.22022377
-0.21900743
-0.21875581
-0.21899425
-0.21955521
-0.21931136
-0.2162375
-0.21682631
-0.2210241
-0.20302407
-0.19225955
-0.19034925
-0.18174668
0.06749225
0.064630947
0.064663495
0.074432786
0.087755838
0.090793677
0.084067018
0.082506129
0.075473724
0.087507538
0.094508353
0.090776945
0.066681584
0.052529193
0.069203226
0.068782901
0.05252219
0.066361097
0.09025289
0.094510561
0.08758088
0.075447017
0.082544488
0.083984325
0.090719354
0.087586948
0.074196481
0.064405512
0.064191135
0.067039018
-0.064072983
-0.072030457
-0.065088917
-0.062675833
-0.042906213
-0.034628906
-0.025454784
-0.017056348
-0.018235101
-0.022032241
-0.016860029
-0.038636096
-0.054203593
-0.075467964
-0.045424195
-0.045753465
-0.074879327
-0.054221629
-0.038748807
-0.016920469
-0.021756286
-0.018243507
-0.017132695
-0.025537492
-0.034726107
-0.043144309
-0.06324958
-0.06564243
-0.072915843
-0.066560264
0.016716045
0.024601562
0.023106217
0.017141582
0.016963745
0.019573828
0.018108326
0.013456099
0.018534122
0.021119922
0.03086144
0.02064354
0.015955191
0.012736808
0.0043872641
0.004148877
0.01283504
0.015893783
0.020543289
0.030840848
0.021187429
0.018539493
0.013465057
0.018013618
0.019405863
0.016670268
0.016854987
0.02265086
0.023751599
0.015265322
0.22278932
0.24334571
0.25233292
0.2411289
0.24694665
0.24047676
0.23342657
0.23567088
0.22856261
0.23519469
0.23235664
0.23446555
0.2360019
0.23356498
0.23257269
0.23276311
0.23335651
0.23600377
0.23448355
0.23241784
0.23490756
0.22870304
0.2357223
0.23344399
0.2405109
0.24698132
0.2411967
0.2524234
0.24346383
0.22299225
-0.18134892
-0.15731264
-0.16842956
-0.22530071
-0.22336931
-0.21222742
-0.20795353
-0.19653945
-0.20394009
-0.19392404
-0.21254411
-0.21600554
-0.21312981
-0.20283089
-0.20143159
-0.20171802
-0.20372977
-0.21326225
-0.21616769
-0.21261521
-0.19482085
-0.20395055
-0.19677493
-0.20803095
-0.21237438
-0.22353472
-0.22548015
-0.16855697
-0.15734566
-0.18138726
0.07183692
0.025265012
0.020782903
0.034772188
0.06217061
0.073185726
0.061123633
0.054772713
0.07195786
0.056605309
0.066636665
0.079314363
0.094186987
0.073591378
0.082757167
0.08123403
0.074116646
0.093964004
0.07953064
0.067113418
0.057820718
0.071815912
0.055036921
0.061066262
0.073126416
0.062058011
0.034599196
0.020586984
0.025065495
0.071677606
-0.039191244
-0.061644475
-0.053734401
-0.071564274
-0.027830819
-0.041588103
-0.070761993
-0.04910512
-0.058042219
-0.064104459
-0.055820635
-0.037190686
-0.042334103
-0.093703663
-0.050331574
-0.050818796
-0.089441923
-0.041482269
-0.03700818
-0.055523531
-0.064256758
-0.058279866
-0.049264473
-0.071137735
-0.041861341
-0.028036417
-0.071819869
-0.054087814
-0.062210344
-0.040022534
-0.010007376
0.0032980339
0.010992395
0.012527585
0.018358175
0.016266947
0.012862389
0.0096974065
0.0094998139
0.02061839
0.022976682
0.016724649
0.016034008
0.022771025
0.0090955741
0.010059005
0.021972225
0.015932169
0.016642681
0.022976242
0.020808353
0.009731292
0.0096254777
0.012823821
0.016058979
0.017993767
0.012071401
0.010450962
0.0026058929
-0.010861915
0.24409926
0.25231201
0.25574262
0.25337075
0.2505773
0.24045115
0.2500459
0.25460232
0.25347193
0.24735648
0.24914143
0.23276591
0.240138
0.24019029
0.23282164
0.24920252
0.24747093
0.25356058
0.25467515
0.25012099
0.24054255
0.25060827
0.25341596
0.25555576
0.2523709
0.24414817
-0.14640854
-0.14994869
-0.17688365
-0.22354829
-0.21620098
-0.20134618
-0.17557659
-0.14871423
-0.15098637
-0.14348044
-0.16329175
-0.21001929
-0.20326012
-0.20329076
-0.21008958
-0.16359129
-0.14390263
-0.15106122
-0.14878039
-0.17557946
-0.20141684
-0.2163583
-0.2236223
-0.17675867
-0.15004988
-0.14647682
0.047337413
0.050991429
0.024384
0.062491609
0.070754346
0.055934422
0.042764363
0.055766316
0.047371233
0.053757113
0.034272863
0.051181464
0.075470535
0.075584684
0.051362069
0.034256711
0.053524137
0.047433469
0.055684832
0.042867745
0.055838979
0.070747415
0.062419606
0.024306681
0.050846322
0.04716647
-0.022201139
-0.045861927
-0.072407446
-0.043586588
-0.022803942
-0.061793605
-0.039099547
-0.022102662
-0.012547326
-0.029899248
-0.034971844
-0.039274601
-0.019123169
-0.018942068
-0.039229677
-0.035003665
-0.030030633
-0.012704903
-0.022077547
-0.03916194
-0.061948082
-0.022985802
-0.043807608
-0.072809151
-0.046237966
-0.022667495
-0.0080656684
-0.018395948
0.00050962281
0.0052361159
0.015980768
0.021742038
0.0016593425
0.00056521817
0.0025717193
0.0034470774
0.014012516
0.0023436947
0.0059595404
0.0058573882
0.0022459966
0.013899625
0.003480579
0.002495811
0.00044058027
0.0014550673
0.021525651
0.01569261
0.0049255476
9.0861531e-05
-0.018921765
-0.0086185365
0.24409423
0.25221498
0.25434358
0.25324423
0.25059699
0.24047751
0.25005513
0.2545831
0.25343577
0.24733999
0.24907282
0.23271323
0.24009005
0.24018796
0.23281662
0.24922859
0.2474587
0.25356501
0.2546831
0.25011839
0.24052179
0.25060715
0.25332562
0.25465465
0.25228655
0.24415867
-0.14616945
-0.1495435
-0.17478817
-0.22306998
-0.21615265
-0.2013581
-0.1756115
-0.14874117
-0.15101643
-0.14367317
-0.16346989
-0.21001711
-0.20322062
-0.2032863
-0.21006637
-0.1634631
-0.14373562
-0.15107497
-0.14876674
-0.17562071
-0.20140552
-0.21626125
-0.22334325
-0.17530542
-0.14977729
-0.14641479
0.047423385
0.051207707
0.024883801
0.062720977
0.070842717
0.055931914
0.042763679
0.055735555
0.04739057
0.05353225
0.034255125
0.051260488
0.075490201
0.075527261
0.051270199
0.03425317
0.053637066
0.047425183
0.055701477
0.042834733
0.055857073
0.070721742
0.062519022
0.024631223
0.050916145
0.047180784
-0.022188873
-0.045785333
-0.07231981
-0.043514143
-0.02270954
-0.061798189
-0.039050319
-0.022032947
-0.012620765
-0.02991619
-0.034959474
-0.039256278
-0.019077808
-0.019047375
-0.039305127
-0.035003462
-0.030050362
-0.012702394
-0.022162683
-0.039224765
-0.061972509
-0.023039331
-0.043847494
-0.072789526
-0.046370283
-0.022820573
-0.0081616452
-0.018523157
0.00042118052
0.0051838009
0.015940031
0.021778282
0.0016058195
0.00054732491
0.0025392517
0.0034444875
0.013926883
0.0023012211
0.0059527816
0.0058828751
0.0023085031
0.013973286
0.0035091369
0.0025226588
0.00048291238
0.0015093625
0.021604962
0.015779089
0.0049469268
0.00011883124
-0.018924109
-0.0087073588
0.22295601
0.24343139
0.25234148
0.24113597
0.24696225
0.24049114
0.23340712
0.23564377
0.22860388
0.23502865
0.23230601
0.23444602
0.23598775
0.23353252
0.23260004
0.23265439
0.23352319
0.23603993
0.2345128
0.23243016
0.23502838
0.22868417
0.23572904
0.2334799
0.2405237
0.24700661
0.24120496
0.25238516
0.24351412
0.22307569
-0.18119985
-0.15710177
-0.16818887
-0.22522325
-0.2233541
-0.21223965
-0.20802418
-0.19659373
-0.2038816
-0.19424844
-0.21254704
-0.21602581
-0.21313101
-0.2031136
-0.20153598
-0.20165254
-0.20344663
-0.21322808
-0.21613321
-0.21263701
-0.19456726
-0.20398987
-0.19670632
-0.20800945
-0.21237566
-0.22349932
-0.22539431
-0.16839251
-0.15722712
-0.18116464
0.071901497
0.025331462
0.020876605
0.034786738
0.062187227
0.07327334
0.061070075
0.054890914
0.071830549
0.057129509
0.06683472
0.079456337
0.094199653
0.074061104
0.082353248
0.081953492
0.074379813
0.094166364
0.07954352
0.06699807
0.057414381
0.071900293
0.054884528
0.061094415
0.073076932
0.062123435
0.034700446
0.020668731
0.025028144
0.071583986
-0.039632971
-0.061842172
-0.053740643
-0.071492498
-0.027746355
-0.041568002
-0.070557355
-0.049134356
-0.058010959
-0.064102421
-0.055657532
-0.037171138
-0.042271474
-0.093134479
-0.050711737
-0.05084901
-0.0924845
-0.04218587
-0.037213879
-0.055686158
-0.064252953
-0.058279876
-0.049255544
-0.071169315
-0.04185711
-0.028144053
-0.071963414
-0.054317687
-0.062515044
-0.040511716
-0.010483427
0.0029570657
0.010760536
0.012353836
0.018205094
0.016248341
0.012840127
0.0097092363
0.0096718582
0.02072947
0.022987515
0.016733003
0.015973012
0.022404336
0.0094572983
0.009687115
0.022076582
0.015850999
0.016626634
0.022952332
0.020725873
0.0096112823
0.0096428887
0.01279193
0.015982633
0.018079083
0.012127264
0.010384903
0.002372369
-0.011236629
0.22098916
0.21894306
0.21973175
0.2294261
0.23755196
0.23846584
0.23809223
0.23817091
0.2386749
0.24038257
0.24319375
0.23699561
0.23211124
0.23204495
0.22697875
0.2269231
0.23188725
0.23205992
0.23696035
0.24319363
0.24044507
0.23874904
0.23824483
0.23817306
0.23854418
0.23759416
0.22948767
0.21981963
0.21914982
0.22140956
-0.18174043
-0.19018218
-0.19204329
-0.20289273
-0.22086958
-0.21670156
-0.21613523
-0.21915451
-0.21942897
-0.21891138
-0.21871932
-0.21899975
-0.22044949
-0.19825225
-0.20211727
-0.20219594
-0.19848573
-0.22037471
-0.21902527
-0.21877796
-0.21901041
-0.21954434
-0.21929944
-0.21623733
-0.2168314
-0.22104649
-0.20309124
-0.19222505
-0.19007244
-0.18024102
0.067182977
0.064338712
0.06455564
0.074352606
0.087711068
0.090813827
0.084162081
0.08256709
0.075476442
0.087567419
0.094547859
0.090628268
0.06660655
0.052570951
0.06907816
0.068997619
0.052649444
0.066513618
0.090471914
0.09453439
0.087569798
0.075451415
0.082503099
0.083958733
0.090689574
0.087583211
0.07418084
0.064304933
0.063926899
0.066750819
-0.066115774
-0.072594259
-0.065361353
-0.062854952
-0.042927396
-0.034572533
-0.025349584
-0.016949211
-0.018131927
-0.021850153
-0.016849809
-0.038667009
-0.054224613
-0.075284368
-0.045500414
-0.045544625
-0.074839128
-0.054156518
-0.038714083
-0.016914696
-0.021861277
-0.018265606
-0.017131458
-0.025582631
-0.034809782
-0.043234063
-0.063316815
-0.06583303
-0.073447156
-0.068363191
0.01564905
0.024042175
0.02284568
0.016998013
0.01687508
0.019596234
0.018170464
0.0135512
0.018603816
0.021196284
0.03088556
0.020623562
0.015939849
0.012725998
0.0043796019
0.0042596413
0.012774821
0.015899951
0.020566562
0.030833178
0.021141614
0.018498748
0.013396325
0.017962193
0.019343414
0.01662136
0.016700944
0.022307398
0.023157813
0.014230616
0.23529543
0.23603645
0.2367468
0.23351869
0.24773282
0.24599375
0.24053819
0.23739228
0.23509198
0.23839025
0.24038843
0.23668415
0.23894385
0.24586852
0.24281396
0.24292347
0.24579441
0.23896068
0.23667847
0.24040298
0.2384214
0.23514519
0.23749892
0.24072452
0.24610934
0.24778521
0.23354771
0.2368152
0.23616207
0.23546886
-0.21173102
-0.21481791
-0.20189642
-0.19735241
-0.16880264
-0.16654878
-0.20078733
-0.20621213
-0.20158816
-0.21081678
-0.21779993
-0.21758635
-0.19646672
-0.15135491
-0.15323227
-0.15309302
-0.15137992
-0.19644949
-0.21763262
-0.21783115
-0.21087429
-0.20168313
-0.20622551
-0.20030014
-0.16655724
-0.1690243
-0.19785106
-0.20217637
-0.21501023
-0.21173666
0.089507914
0.070294303
0.063426755
0.047097264
0.025568827
0.035016991
0.048993956
0.067172516
0.060085635
0.065843642
0.078572308
0.046683171
0.030185618
0.020512731
0.039864394
0.039666077
0.020379295
0.02996255
0.046414624
0.078440118
0.065816974
0.060006231
0.06696504
0.048355881
0.034786567
0.025485359
0.047198849
0.06335229
0.070117252
0.089287464
-0.031124861
-0.029569585
-0.040863434
-0.060675139
-0.070798097
-0.068193453
-0.074575088
-0.052760854
-0.073395127
-0.057851433
-0.041339735
-0.059889031
-0.059467394
-0.071012846
-0.034841805
-0.034766688
-0.070897311
-0.059334341
-0.059866626
-0.041403866
-0.057971037
-0.07357749
-0.053058343
-0.075106988
-0.068567015
-0.071123014
-0.060996921
-0.041292396
-0.030167672
-0.03198666
0.0095797547
0.0078306753
-0.0038178396
-0.0088374543
0.0020355292
0.01380104
0.0092196657
-0.005125509
0.014691414
0.0026749748
0.015839948
0.00060294847
0.0042665988
-0.0067164366
-0.01526452
-0.015290608
-0.0067606859
0.004193966
0.00052421377
0.015726496
0.0025428649
0.014531754
-0.0053300314
0.0089350749
0.013514556
0.0017504103
-0.0091822682
-0.0043010643
0.0072200647
0.0087838237
0.23857455
0.23929287
0.23130883
0.23145193
0.23811437
0.24059604
0.24257678
0.24181567
0.24360265
0.24433496
0.24182392
0.24091153
0.2450422
0.24163239
0.24726963
0.24735862
0.24176873
0.24514889
0.24088731
0.2418741
0.24439293
0.24364758
0.24188805
0.24264003
0.24069178
0.23818736
0.23152533
0.23146033
0.2395182
0.23867014
-0.20907167
-0.18763271
-0.1966361
-0.19211951
-0.16035576
-0.14201232
-0.15513276
-0.16159513
-0.16279082
-0.16272028
-0.2092958
-0.19218332
-0.16050461
-0.15613052
-0.13542262
-0.1351989
-0.15542989
-0.16026703
-0.1922016
-0.20927043
-0.16276503
-0.1629034
-0.1617001
-0.15525471
-0.14208348
-0.16063726
-0.19247616
-0.19688495
-0.18804291
-0.20940727
0.094389279
0.063637361
0.095209693
0.070009565
0.050639721
0.051925107
0.050444519
0.048048627
0.044994913
0.032158578
0.04764075
0.051895641
0.028193142
0.064685946
0.050114324
0.050040688
0.064362934
0.027937247
0.051485265
0.047430849
0.032185176
0.044882375
0.047937531
0.05026676
0.051722643
0.05044988
0.070013686
0.095123397
0.063548271
0.094286273
-0.023949212
-0.065285126
-0.022715254
-0.036137957
-0.03897421
-0.04639289
-0.02981765
-0.019953823
-0.027425038
-0.052951768
-0.031130443
-0.06620486
-0.052296531
-0.049275751
-0.012024977
-0.011793751
-0.049071997
-0.05220004
-0.06606412
-0.031199085
-0.053023377
-0.027555434
-0.020169026
-0.030152731
-0.046679614
-0.03932629
-0.03646198
-0.022966154
-0.065937936
-0.024570466
7.2461703e-05
0.0053609078
-0.0087726491
-0.014687569
-0.011165957
-0.0008768457
-0.0056233448
-0.0060650487
-0.0076265903
0.001691495
0.0052692899
0.0056451625
0.0066963626
-0.02141693
-0.0046208032
-0.0044781986
-0.021481928
0.0065138163
0.0055268699
0.0051431364
0.0015490739
-0.0077869366
-0.0062737015
-0.0058905133
-0.0011379286
-0.011451422
-0.015010611
-0.0092040196
0.0050337449
-0.00043484995
)
;

boundaryField
{
    minX
    {
        type            fixedFluxPressure;
        gradient        uniform 0;
        value           nonuniform List<scalar> 
50
(
0.23859451
-0.2090723
0.094575805
-0.023691794
0.00041554818
0.23521782
-0.21195166
0.089731419
-0.030551846
0.010161538
0.22061962
-0.1835055
0.06749225
-0.064072983
0.016716045
0.22278932
-0.18134892
0.07183692
-0.039191244
-0.010007376
0.24409926
-0.14640854
0.047337413
-0.022201139
-0.0080656684
0.24409423
-0.14616945
0.047423385
-0.022188873
-0.0081616452
0.22295601
-0.18119985
0.071901497
-0.039632971
-0.010483427
0.22098916
-0.18174043
0.067182977
-0.066115774
0.01564905
0.23529543
-0.21173102
0.089507914
-0.031124861
0.0095797547
0.23857455
-0.20907167
0.094389279
-0.023949212
7.2461703e-05
)
;
    }
    maxX
    {
        type            fixedFluxPressure;
        gradient        uniform 0;
        value           nonuniform List<scalar> 
50
(
0.23862014
-0.2093302
0.094426646
-0.024264632
-0.0001140068
0.23535977
-0.211869
0.089416522
-0.031448483
0.009288439
0.22106937
-0.18174668
0.067039018
-0.066560264
0.015265322
0.22299225
-0.18138726
0.071677606
-0.040022534
-0.010861915
0.24414817
-0.14647682
0.04716647
-0.022667495
-0.0086185365
0.24415867
-0.14641479
0.047180784
-0.022820573
-0.0087073588
0.22307569
-0.18116464
0.071583986
-0.040511716
-0.011236629
0.22140956
-0.18024102
0.066750819
-0.068363191
0.014230616
0.23546886
-0.21173666
0.089287464
-0.03198666
0.0087838237
0.23867014
-0.20940727
0.094286273
-0.024570466
-0.00043484995
)
;
    }
    minY
    {
        type            fixedValue;
        value           uniform 0;
    }
    minZ
    {
        type            fixedFluxPressure;
        gradient        uniform 0;
        value           nonuniform List<scalar> 
150
(
0.23859451
-0.2090723
0.094575805
-0.023691794
0.00041554818
0.23934172
-0.1876173
0.063747556
-0.065107752
0.0056675193
0.23136006
-0.19651889
0.095259365
-0.022545953
-0.0085873343
0.23149483
-0.19209198
0.070057671
-0.036035572
-0.014559176
0.23815774
-0.16031332
0.050668004
-0.038955267
-0.011109439
0.24063894
-0.14200441
0.051901773
-0.046442445
-0.00094183051
0.24264209
-0.15507834
0.050326803
-0.029920767
-0.005731923
0.2418506
-0.16160317
0.047967679
-0.020066634
-0.0061779654
0.24362367
-0.16279915
0.044972416
-0.027539403
-0.0077222318
0.24432876
-0.16276931
0.032077162
-0.053045497
0.0016435579
0.24182646
-0.20937321
0.047769942
-0.031209546
0.0052430971
0.24098324
-0.19224472
0.052206819
-0.066363514
0.0056917299
0.24499636
-0.16075553
0.028358829
-0.052442328
0.0067867259
0.24151327
-0.15669544
0.064945877
-0.049404781
-0.021339624
0.24722884
-0.13566626
0.050204873
-0.012252181
-0.0048092363
0.24741865
-0.13508613
0.049988647
-0.011672797
-0.0044287337
0.24181829
-0.15484522
0.064136291
-0.048883257
-0.021500967
0.24519944
-0.16003876
0.027746096
-0.052110297
0.0063563031
0.24082989
-0.19213814
0.051209197
-0.065920253
0.0055039981
0.24185776
-0.20919275
0.047267806
-0.031184285
0.0050982744
0.24439418
-0.16270282
0.032285149
-0.052967469
0.0015279572
0.24362957
-0.16290091
0.044875361
-0.027503465
-0.0077659968
0.24187327
-0.16169167
0.047966946
-0.020163351
-0.0062378685
0.24260593
-0.15527937
0.05029199
-0.030179335
-0.0058340139
0.24068366
-0.14205998
0.051726477
-0.046642065
-0.0010613676
0.23816738
-0.16067747
0.050496197
-0.039251979
-0.011381608
0.23149418
-0.19245998
0.070138446
-0.03636371
-0.014881147
0.23143863
-0.19685236
0.095249278
-0.022759357
-0.0089921483
0.23949128
-0.18797731
0.063751038
-0.065668854
0.005321547
0.23862014
-0.2093302
0.094426646
-0.024264632
-0.0001140068
)
;
    }
    maxZ
    {
        type            fixedFluxPressure;
        gradient        uniform 0;
        value           nonuniform List<scalar> 
150
(
0.23857455
-0.20907167
0.094389279
-0.023949212
7.2461703e-05
0.23929287
-0.18763271
0.063637361
-0.065285126
0.0053609078
0.23130883
-0.1966361
0.095209693
-0.022715254
-0.0087726491
0.23145193
-0.19211951
0.070009565
-0.036137957
-0.014687569
0.23811437
-0.16035576
0.050639721
-0.03897421
-0.011165957
0.24059604
-0.14201232
0.051925107
-0.04639289
-0.0008768457
0.24257678
-0.15513276
0.050444519
-0.02981765
-0.0056233448
0.24181567
-0.16159513
0.048048627
-0.019953823
-0.0060650487
0.24360265
-0.16279082
0.044994913
-0.027425038
-0.0076265903
0.24433496
-0.16272028
0.032158578
-0.052951768
0.001691495
0.24182392
-0.2092958
0.04764075
-0.031130443
0.0052692899
0.24091153
-0.19218332
0.051895641
-0.06620486
0.0056451625
0.2450422
-0.16050461
0.028193142
-0.052296531
0.0066963626
0.24163239
-0.15613052
0.064685946
-0.049275751
-0.02141693
0.24726963
-0.13542262
0.050114324
-0.012024977
-0.0046208032
0.24735862
-0.1351989
0.050040688
-0.011793751
-0.0044781986
0.24176873
-0.15542989
0.064362934
-0.049071997
-0.021481928
0.24514889
-0.16026703
0.027937247
-0.05220004
0.0065138163
0.24088731
-0.1922016
0.051485265
-0.06606412
0.0055268699
0.2418741
-0.20927043
0.047430849
-0.031199085
0.0051431364
0.24439293
-0.16276503
0.032185176
-0.053023377
0.0015490739
0.24364758
-0.1629034
0.044882375
-0.027555434
-0.0077869366
0.24188805
-0.1617001
0.047937531
-0.020169026
-0.0062737015
0.24264003
-0.15525471
0.05026676
-0.030152731
-0.0058905133
0.24069178
-0.14208348
0.051722643
-0.046679614
-0.0011379286
0.23818736
-0.16063726
0.05044988
-0.03932629
-0.011451422
0.23152533
-0.19247616
0.070013686
-0.03646198
-0.015010611
0.23146033
-0.19688495
0.095123397
-0.022966154
-0.0092040196
0.2395182
-0.18804291
0.063548271
-0.065937936
0.0050337449
0.23867014
-0.20940727
0.094286273
-0.024570466
-0.00043484995
)
;
    }
    bottomWater_to_rightSolid
    {
        type            fixedFluxPressure;
        gradient        uniform 0;
        value           nonuniform List<scalar> 
130
(
0.0063563031
0.0055039981
0.0050982744
0.0015279572
-0.0077659968
-0.0062378685
-0.0058340139
-0.0010613676
-0.011381608
-0.014881147
-0.0089921483
0.005321547
-0.0001140068
0.0041501075
0.00050645003
0.015684843
0.0025446318
0.014553309
-0.005264471
0.0090395588
0.013603905
0.0018269148
-0.0090265677
-0.0040719522
0.0075914429
0.009288439
0.015893783
0.020543289
0.030840848
0.021187429
0.018539493
0.013465057
0.018013618
0.019405863
0.016670268
0.016854987
0.02265086
0.023751599
0.015265322
0.015932169
0.016642681
0.022976242
0.020808353
0.009731292
0.0096254777
0.012823821
0.016058979
0.017993767
0.012071401
0.010450962
0.0026058929
-0.010861915
0.0058573882
0.0022459966
0.013899625
0.003480579
0.002495811
0.00044058027
0.0014550673
0.021525651
0.01569261
0.0049255476
9.0861531e-05
-0.018921765
-0.0086185365
0.0058828751
0.0023085031
0.013973286
0.0035091369
0.0025226588
0.00048291238
0.0015093625
0.021604962
0.015779089
0.0049469268
0.00011883124
-0.018924109
-0.0087073588
0.015850999
0.016626634
0.022952332
0.020725873
0.0096112823
0.0096428887
0.01279193
0.015982633
0.018079083
0.012127264
0.010384903
0.002372369
-0.011236629
0.015899951
0.020566562
0.030833178
0.021141614
0.018498748
0.013396325
0.017962193
0.019343414
0.01662136
0.016700944
0.022307398
0.023157813
0.014230616
0.004193966
0.00052421377
0.015726496
0.0025428649
0.014531754
-0.0053300314
0.0089350749
0.013514556
0.0017504103
-0.0091822682
-0.0043010643
0.0072200647
0.0087838237
0.0065138163
0.0055268699
0.0051431364
0.0015490739
-0.0077869366
-0.0062737015
-0.0058905133
-0.0011379286
-0.011451422
-0.015010611
-0.0092040196
0.0050337449
-0.00043484995
)
;
    }
    bottomWater_to_leftSolid
    {
        type            fixedFluxPressure;
        gradient        uniform 0;
        value           nonuniform List<scalar> 
130
(
0.00041554818
0.0056675193
-0.0085873343
-0.014559176
-0.011109439
-0.00094183051
-0.005731923
-0.0061779654
-0.0077222318
0.0016435579
0.0052430971
0.0056917299
0.0067867259
0.010161538
0.0082477107
-0.0035481825
-0.0086821611
0.0020993566
0.013709726
0.0090376065
-0.005277029
0.014625306
0.0026438915
0.015817049
0.00060897152
0.0042766362
0.016716045
0.024601562
0.023106217
0.017141582
0.016963745
0.019573828
0.018108326
0.013456099
0.018534122
0.021119922
0.03086144
0.02064354
0.015955191
-0.010007376
0.0032980339
0.010992395
0.012527585
0.018358175
0.016266947
0.012862389
0.0096974065
0.0094998139
0.02061839
0.022976682
0.016724649
0.016034008
-0.0080656684
-0.018395948
0.00050962281
0.0052361159
0.015980768
0.021742038
0.0016593425
0.00056521817
0.0025717193
0.0034470774
0.014012516
0.0023436947
0.0059595404
-0.0081616452
-0.018523157
0.00042118052
0.0051838009
0.015940031
0.021778282
0.0016058195
0.00054732491
0.0025392517
0.0034444875
0.013926883
0.0023012211
0.0059527816
-0.010483427
0.0029570657
0.010760536
0.012353836
0.018205094
0.016248341
0.012840127
0.0097092363
0.0096718582
0.02072947
0.022987515
0.016733003
0.015973012
0.01564905
0.024042175
0.02284568
0.016998013
0.01687508
0.019596234
0.018170464
0.0135512
0.018603816
0.021196284
0.03088556
0.020623562
0.015939849
0.0095797547
0.0078306753
-0.0038178396
-0.0088374543
0.0020355292
0.01380104
0.0092196657
-0.005125509
0.014691414
0.0026749748
0.015839948
0.00060294847
0.0042665988
7.2461703e-05
0.0053609078
-0.0087726491
-0.014687569
-0.011165957
-0.0008768457
-0.0056233448
-0.0060650487
-0.0076265903
0.001691495
0.0052692899
0.0056451625
0.0066963626
)
;
    }
    bottomWater_to_heater
    {
        type            fixedFluxPressure;
        gradient        uniform 0;
        value           nonuniform List<scalar> 
92
(
-0.021339624
-0.0048092363
-0.0044287337
-0.021500967
-0.0066574079
-0.015346511
-0.015393138
-0.0067492035
0.012736808
0.0043872641
0.004148877
0.01283504
0.23356498
0.23257269
0.23276311
0.23335651
-0.20283089
-0.20143159
-0.20171802
-0.20372977
0.073591378
0.082757167
0.08123403
0.074116646
-0.093703663
-0.050331574
-0.050818796
-0.089441923
0.022771025
0.022771025
0.0090955741
0.0090955741
0.010059005
0.010059005
0.021972225
0.021972225
0.240138
0.24019029
-0.20326012
-0.20329076
0.075470535
0.075584684
-0.019123169
-0.018942068
0.0059595404
0.0058573882
0.24009005
0.23353252
0.23260004
0.23265439
0.24018796
0.23352319
-0.20322062
-0.2031136
-0.20153598
-0.20165254
-0.2032863
-0.20344663
0.075490201
0.074061104
0.082353248
0.081953492
0.075527261
0.074379813
-0.019077808
-0.093134479
-0.050711737
-0.05084901
-0.019047375
-0.0924845
0.0059527816
0.022404336
0.0094572983
0.009687115
0.0058828751
0.022076582
0.022404336
0.0094572983
0.009687115
0.022076582
0.012725998
0.0043796019
0.0042596413
0.012774821
-0.0067164366
-0.01526452
-0.015290608
-0.0067606859
-0.02141693
-0.0046208032
-0.0044781986
-0.021481928
)
;
    }
}


// ************************************************************************* //
