/*--------------------------------*- C++ -*----------------------------------*\
| =========                 |                                                 |
| \\      /  F ield         | OpenFOAM: The Open Source CFD Toolbox           |
|  \\    /   O peration     | Version:  v2012                                 |
|   \\  /    A nd           | Website:  www.openfoam.com                      |
|    \\/     M anipulation  |                                                 |
\*---------------------------------------------------------------------------*/
FoamFile
{
    version     2.0;
    format      ascii;
    class       surfaceScalarField;
    location    "70/bottomWater";
    object      phi;
}
// * * * * * * * * * * * * * * * * * * * * * * * * * * * * * * * * * * * * * //

dimensions      [1 0 -1 0 0 0 0];
oriented        oriented;


internalField   nonuniform List<scalar> 
3858
(
-0.00017997201
0.00012133546
5.8691233e-05
-0.0002635674
7.0330472e-05
1.3263489e-05
-0.00033766835
9.7481723e-05
-2.0962547e-05
-0.00033521785
-4.347175e-06
4.2380553e-06
-0.00021116472
-0.00016691055
4.3423925e-05
-8.2026063e-05
-0.00017589145
4.6377024e-05
2.3423081e-05
-0.00018467401
7.8133409e-05
7.2118167e-05
-0.00014955954
9.9969362e-05
0.00015386486
-0.00019474002
0.00011180252
0.00014835253
-0.00011785349
0.0001219885
-8.2638582e-05
0.0001041904
0.00012603535
-0.00025288628
3.2807192e-05
0.00013695706
-0.00020844987
-0.00016523938
0.0001194571
-0.00017668837
-9.7030595e-05
6.4681866e-05
-5.3592553e-06
-0.00026105303
8.7525685e-05
0.00017041714
-0.00026519014
8.7159875e-05
0.00020866788
-0.00010670997
6.7794083e-05
0.00025643318
-0.00017097331
0.00012181831
8.5968001e-05
3.1686041e-05
0.00013834597
-0.00014606528
0.00010382407
0.00012743731
-0.00015279146
-0.00011733401
0.00012266121
-7.1309989e-05
-0.00019445573
0.00011177947
-2.2948774e-05
-0.00014921422
9.9949827e-05
8.1923409e-05
-0.0001837844
7.7828973e-05
0.0002114649
-0.00017638189
4.6452969e-05
0.00033537134
-0.00016639315
4.305008e-05
0.0003364841
-2.4029645e-06
3.6281707e-06
0.00026221419
9.7889726e-05
-2.1225372e-05
0.00017987401
6.8791466e-05
1.3502688e-05
0.00012114571
5.8775616e-05
-0.00034674921
0.00042008582
4.799885e-05
-0.00028258414
-7.3676798e-05
7.98422e-05
-0.00030135427
5.4711765e-05
6.1540098e-05
-0.00027279574
-0.00013999122
0.00010708552
-0.00014244495
-0.00041349919
0.00011623786
-1.3809164e-05
-0.00038091198
7.6384744e-05
6.7290215e-05
-0.00042146917
0.00015569578
0.00011707668
-0.00037393814
0.00017459214
0.00023259194
-0.00047953367
0.0001692784
0.00025241384
-0.0003193013
0.0001816259
-0.00025432251
0.00044981516
0.0001611116
-0.00044087998
2.9782544e-05
0.00018958211
-0.00027566467
-0.00044800697
0.00011755228
-0.0002166663
-0.00018868821
3.2659243e-05
-4.6596357e-06
-0.00049930578
2.6246085e-05
0.00020813257
-0.0005044319
2.6449558e-05
0.00027293712
-0.00020734425
3.582972e-05
0.00044118372
-0.00045596794
0.00011674804
0.00025797201
2.5715556e-05
0.0001891822
-0.00025010321
0.00045001843
0.00016188085
-0.00023239074
-0.00031738358
0.00018233711
-0.00011685499
-0.00047917748
0.000169186
-6.7370928e-05
-0.00037330195
0.00017460366
1.3565444e-05
-0.00042024277
0.000155522
0.00014229663
-0.00038191944
7.6806363e-05
0.00027308078
-0.00041318133
0.00011600404
0.00030169053
-0.00013725323
0.00010624053
0.00028205927
5.6288882e-05
6.1232116e-05
0.00034598002
-7.4986859e-05
7.9857582e-05
0.00041901538
4.8110362e-05
-1.0616496e-05
0.00034037655
9.0325765e-05
-2.4027105e-05
-8.2855476e-05
2.2589293e-05
0.00013827337
-0.00025116069
0.00014357198
0.00026063757
-0.00036495836
0.00010260295
7.657714e-05
-0.00028321609
5.3777336e-05
-5.9042122e-05
-0.00016589743
-7.939529e-05
-3.8481205e-05
-0.00032072065
-0.00012130944
7.7828141e-05
-0.00040321458
-8.7032911e-05
0.00011477814
-0.00035553806
-0.00016094561
3.27899e-06
-9.9261257e-05
-0.00010854089
9.4828097e-05
0.00032516361
3.3102442e-05
0.00014123101
-5.5945816e-05
3.9325445e-05
-0.00013038304
-9.2878698e-05
-8.3514224e-05
-5.925411e-05
-0.0002763078
1.6490667e-05
2.3667803e-06
-0.0004732
-8.7726671e-05
6.0882356e-05
-0.00047636502
-8.6582454e-05
0.00012535196
-0.00028079358
8.9797266e-06
-0.0001492573
-9.374689e-05
-8.7611792e-05
-0.00010046993
-5.8190528e-05
3.5118702e-05
-6.0148748e-06
0.0003230058
3.2557569e-05
-0.00011592466
-9.9702579e-05
-0.00010777123
-7.7975719e-05
-0.00035628234
-0.00016084409
3.8274527e-05
-0.00040271494
-8.683726e-05
5.8933662e-05
-0.00031944128
-0.00012146063
-7.8183178e-05
-0.0001653631
-7.9439497e-05
-0.00026242123
-0.00028274849
5.380522e-05
-0.00013740762
-0.00036507199
0.00010280517
2.5880021e-05
-0.00025062548
0.00014362674
1.0781762e-05
-8.2578214e-05
2.2689636e-05
0.00033920753
9.0589622e-05
0.00019006144
1.0907255e-05
0.00013940786
1.7200381e-05
8.3988695e-05
6.0168951e-06
2.3792836e-05
-0.00030383304
4.6079902e-05
2.007197e-05
-0.00039886932
3.7631832e-05
-5.2428316e-05
-0.00022831217
1.759637e-05
-0.00011445306
-6.0250763e-05
-4.3621919e-05
-8.3146748e-05
-0.00027499503
-7.7031932e-05
1.8447737e-05
-0.00039065327
-0.00011415579
4.2554428e-05
-0.00031183481
-6.7809942e-05
2.1948443e-05
-4.5028955e-06
-7.415238e-05
0.00022892538
8.3051304e-05
3.5135366e-05
0.00014470064
7.8222591e-05
-4.9943674e-05
-2.1660336e-06
8.2588319e-05
-2.8600346e-05
-3.1699399e-05
-0.00028484314
3.8068698e-05
-4.2626708e-07
-0.00044321818
-6.1254957e-05
2.9591527e-05
-0.00044521007
-6.1172739e-05
2.8349378e-06
-0.00029180431
3.7767315e-05
-0.0001418694
7.8921108e-05
-2.7963667e-05
-0.00022842264
7.7741864e-05
-4.9379149e-05
-2.2983683e-05
8.2839707e-05
3.4727129e-05
-4.317281e-05
-5.2627864e-06
-7.4250674e-05
-1.8374184e-05
-0.00031290576
-6.8175215e-05
8.3286844e-05
-0.00039014221
-0.00011423377
0.00011467461
-0.00027345228
-7.7376755e-05
5.2293052e-05
-5.9622399e-05
-4.3359134e-05
-2.0370936e-05
-0.00022801048
1.7926005e-05
-2.3558162e-05
-0.00039949633
3.7611589e-05
-1.6044319e-05
-0.00030455927
4.6419978e-05
-0.00018962124
8.5227803e-05
5.7709337e-06
1.0176072e-05
0.00013941023
4.019155e-05
-2.928429e-05
0.00019526618
-7.1085924e-05
6.833575e-05
-0.0001769026
-0.00010254259
-0.00022799098
-9.3883579e-05
-0.00023697118
7.8542145e-05
-0.00023267648
5.0625089e-05
-0.00024707797
-0.00013017006
-0.00020985812
-0.00023069225
-0.00021131262
-0.00011002382
-0.00012517133
6.7672368e-05
-9.4644884e-05
0.00022998468
-8.4089727e-05
0.00040549068
-9.2917683e-05
0.00029151365
-0.00017086611
3.6183581e-06
-0.00015532288
-0.00028608197
-0.00015550975
-0.00040495335
-0.00017293293
-0.00023196902
-9.4063221e-05
-6.9713446e-05
-8.4513717e-05
0.00010823426
-9.510801e-05
0.00022885468
-0.00012588321
0.00012782396
-0.00021187504
-5.1995995e-05
-0.00021032225
-7.8307178e-05
-0.0002471411
9.4644828e-05
-0.00023257439
0.00010335103
-0.00023671667
-6.7912885e-05
-0.00022823239
-0.00019551468
-0.00017695746
-3.9523306e-05
-7.076355e-05
-2.9347228e-05
-6.5803844e-05
0.00014000414
-1.4604575e-05
-0.00012864172
0.00014712903
-7.0217385e-05
-0.00018261412
0.00013350305
-9.9741484e-05
-0.00022354005
0.00011819048
-7.1333794e-05
-9.7793297e-06
-0.00017169485
-1.1032834e-06
0.00015745819
-0.00015026386
2.7358124e-05
0.00016348499
4.4981998e-05
2.6661613e-05
0.00013197131
9.3147448e-05
3.883724e-05
6.2865171e-05
9.6306818e-05
8.5717469e-05
-2.7789898e-05
0.00011521967
9.7554917e-05
-0.00016565896
0.00014056355
0.00012308187
-0.00027946706
0.0001202417
0.00013154809
-0.00026586483
-4.3750894e-05
0.00015003647
-0.000126821
-0.00022509198
0.00014920051
-2.5188071e-06
-0.00021434748
0.00017668772
0.00012591386
-0.00021923511
0.00017701642
0.00026643662
-0.00022450033
0.00015030965
0.00028156457
-4.4885741e-05
0.00015202146
0.00016744769
0.00012043189
0.00013309556
2.9020849e-05
0.00014074703
0.00012488715
-6.2411543e-05
0.000115051
9.9190887e-05
-0.00013176372
9.648339e-05
8.5772789e-05
-0.0001633032
9.3287857e-05
3.8704552e-05
-0.00015733675
4.5120578e-05
2.6285001e-05
9.9163248e-06
-0.0001497294
2.6885271e-05
0.00022320642
-0.00017105001
-1.6343931e-06
0.00018200625
0.0001185237
-7.2023586e-05
0.00012800157
0.00013361914
-0.00010010061
6.5488158e-05
0.00014709582
-7.0295742e-05
0.00014002214
-1.4893471e-05
-0.00011674478
0.00042542334
-0.00012067557
-0.00026276026
0.00051912512
-0.0001461384
-0.00031238991
0.0003341275
-8.9454709e-05
-0.00015740589
5.5165335e-05
1.5126646e-05
0.0001040549
-0.00045407388
0.0001371561
0.00027207051
-0.00039760175
0.00015570703
0.00028899602
3.7862637e-05
0.00014588963
0.00022311281
0.00021715308
0.00011646972
0.00028162047
1.0875269e-05
0.00019620228
9.7074988e-05
0.00028830381
0.00019308723
-0.00030515066
0.00056627179
0.00013762899
-0.00047066025
0.00031756767
0.00015776573
-0.00038022341
-0.00016367731
0.00014704187
-0.00014642613
-0.00051627711
9.0047098e-05
-1.4730041e-06
-0.00047295711
0.00013990258
0.00014620872
-0.00047982673
0.00013935945
0.00038029959
-0.00051462297
9.1861479e-05
0.00047132599
-0.0001664631
0.00014729899
0.00030744934
0.00031486356
0.00015862718
-9.4705199e-05
0.00056556601
0.00013921641
-0.00028083505
0.00028899016
0.00019452779
-0.0002228257
1.1383067e-05
0.00019627697
-0.0002892018
0.00021719967
0.00011706795
-0.00027246208
3.8176887e-05
0.00014572597
-0.00010418683
-0.00039657302
0.00015537474
0.00015727533
-0.00045301538
0.00013650725
0.00031189405
5.557752e-05
1.4567991e-05
0.00026184818
0.00033450859
-8.9611445e-05
0.00011609713
0.0005187914
-0.00014608694
0.00042469018
-0.00012046053
1.0241763e-05
0.00036903517
0.00013647217
-3.0383907e-05
0.00042371189
0.00015862819
0.00017623729
8.4003624e-05
0.00018707467
0.00038721083
-9.692929e-05
4.3724037e-05
0.00012310619
-8.7985796e-05
-4.8206097e-05
-0.00017494116
-6.5295914e-05
-0.00011365378
-0.00011479073
-5.6140189e-05
-8.7457039e-05
7.3885152e-05
-4.5731064e-05
-1.2824657e-05
7.4249206e-05
-6.5270842e-05
-8.5163558e-05
3.1684226e-05
0.00018208045
4.0247444e-05
-1.4297533e-06
0.00055470229
7.7785922e-05
0.00012543672
0.00021270286
1.7323788e-05
0.00013185707
-7.8055484e-05
-0.00017555641
-6.6275382e-05
-0.00010638979
-0.0001952642
8.2195405e-07
-0.00044451101
-0.0001832701
6.744742e-05
-0.00045058062
-0.00018245403
-0.00012905396
-0.00010839857
-0.00020074329
-0.00012466525
-7.8693809e-05
-0.00017976979
8.1263514e-09
0.00021000439
1.5304489e-05
-3.2771961e-05
0.00055335967
7.7543995e-05
-7.4708921e-05
0.00018268572
4.0470169e-05
-7.4371328e-05
-6.4817418e-05
-8.4981204e-05
0.00011342951
-4.4695419e-05
-1.2743021e-05
0.00017342527
-5.5650057e-05
-8.7629455e-05
-0.00012372005
-6.5079369e-05
-0.00011378782
-0.00038670204
-8.7779117e-05
-4.8449045e-05
-0.0001760503
-9.6391323e-05
4.41223e-05
3.0248749e-05
8.4565693e-05
0.00018727061
-1.0439495e-05
0.00042335929
0.00015881002
0.00036817835
0.00013666197
5.8167003e-05
0.00024933375
0.00020094228
0.00015982818
0.00013354254
0.00019452508
0.00031680836
-0.00014425654
0.00011735989
0.00030883913
-8.6062432e-05
3.4734215e-05
0.00019095086
0.0001316216
-8.4122755e-05
-2.0457863e-05
0.00022944864
-0.00012695775
-0.00012647303
7.2648718e-05
-9.9805677e-05
-5.6020031e-06
-0.00018872752
-9.203036e-05
-0.00013251826
0.00010493015
-0.00011109468
-0.00012050757
0.00011237113
-1.6453743e-05
0.00011183959
0.00029361998
6.387051e-05
0.00023686421
8.941993e-05
-5.1685368e-05
0.00015266363
7.845191e-05
-0.00010090716
5.3783304e-06
3.3977354e-05
4.4986854e-05
-5.5043335e-07
-0.00043261726
-6.7219946e-05
-4.1202999e-06
-0.0004390273
-6.9156191e-05
-0.00014924023
3.0871665e-05
4.3617002e-05
-0.00023551863
8.0192548e-05
-0.00010057163
-0.00011196696
8.931193e-05
-5.2238366e-05
0.00011964922
0.00029298204
6.3488578e-05
0.00013218699
0.0001124219
-1.652464e-05
5.8632065e-06
0.00010427141
-0.00011094027
0.00012611554
-0.00018695224
-9.2229294e-05
1.9497326e-05
7.39808e-05
-0.0001003894
-0.00019151737
0.00022957926
-0.00012700306
-0.00030875069
0.00013169032
-8.4310081e-05
-0.00031655957
-8.5744702e-05
3.4773872e-05
-0.00015915756
-0.00014401892
0.00011760261
-5.7852436e-05
0.00013332121
0.00019450393
0.00024894471
0.00020079145
0.00011672032
0.00010332914
0.00014532295
3.3853986e-05
-2.2474576e-05
-0.00015336161
-0.00012969024
-0.00020683774
-3.9133738e-05
-0.00019590607
0.00011737325
-0.00015973483
9.6472518e-05
-0.00015352852
-0.00010816913
-0.000193944
-0.00013093093
-8.3620678e-05
-6.7057387e-05
-7.6673742e-05
0.00013653329
-4.6155847e-06
0.00023627121
-9.4407723e-05
0.00034918802
-0.00012738258
0.00038555637
-0.00017325711
3.9192858e-06
-0.00020630306
-0.00038271125
-0.00020790652
-0.00035028611
-0.0001744864
-0.00023676406
-0.00012739273
-0.00013747095
-9.4494896e-05
6.565329e-05
-5.2502233e-06
0.00012965171
-7.7459737e-05
0.00010649231
-8.4444242e-05
-9.6872509e-05
-0.00019390967
-0.00011676009
-0.00015327272
3.9581437e-05
-0.00015933665
0.0001301256
-0.00019557051
2.2915673e-05
-0.00020676714
-0.00014491087
-0.00015314981
-0.00011629395
3.3940764e-05
0.00010330354
1.4024823e-05
0.00013521952
-0.00015881622
-1.0503348e-05
0.00012075513
-0.00016087187
-6.2342589e-05
0.00010488317
-0.00014741381
-0.00011553418
0.00013504423
-0.00015042256
-8.4014821e-05
8.862163e-05
-0.00012086851
-6.3352595e-05
8.9364726e-05
-8.2630126e-05
-6.4904463e-05
0.00013192943
-0.00010353446
-5.0358336e-05
0.00013231547
-0.00010785346
-4.9452235e-05
0.00014369684
-5.8853143e-05
-5.2255857e-05
0.0001370568
-3.7151553e-05
-5.234376e-05
0.00012321694
-1.310502e-06
-0.00010198828
0.00014045252
4.1300564e-05
-0.00012319904
0.00013449589
3.8753232e-05
-3.9097762e-05
-1.831737e-05
8.5291202e-05
1.0090345e-06
3.2807063e-05
0.00010702064
4.0138753e-05
3.1158233e-05
0.00011003661
0.00012315843
-1.593404e-05
8.5228747e-05
0.00010213798
0.00013509555
4.0020899e-05
5.2134409e-05
0.00014121226
4.2503673e-05
5.2625907e-05
0.0001228669
2.6241843e-07
5.0390707e-05
0.00013644381
-3.5502599e-05
5.1205631e-05
0.00014356534
-5.8598992e-05
6.565031e-05
0.00013223527
-0.00010781709
6.3799757e-05
0.00013206115
-0.00010375086
8.4309405e-05
8.9578396e-05
-8.3182092e-05
0.00011541767
8.8955328e-05
-0.00012134592
6.1974403e-05
0.00013493273
-0.00015076484
1.0163032e-05
0.00010475261
-0.00014769361
-1.4214635e-05
0.00012068904
-0.0001610949
0.00013505573
-0.00015925574
0.0001214232
4.2195574e-05
-0.00014907483
0.00019207085
-2.6015752e-07
-9.5770758e-05
0.00029752435
-3.1097117e-05
-5.8927911e-05
0.00032519343
0.00011129122
1.1210574e-05
0.00017277773
0.00033690233
4.1291107e-05
7.9012604e-05
0.00034957189
-1.0735016e-05
3.7832909e-05
0.00042438729
-0.00010538854
3.2179503e-05
0.00042996319
-0.0001755246
9.3366685e-05
0.00039338071
-0.00011466877
2.9925612e-05
0.00043147663
-3.7891537e-05
-0.0001864229
0.00055106183
-7.3867389e-05
-0.000314355
0.00043577317
-9.6228193e-06
-0.00032951415
0.0002403661
5.6330813e-05
-0.00014216024
-0.00019638722
8.0763038e-05
1.7268215e-06
-9.4772594e-05
0.00012359518
0.00014357146
-9.6655623e-05
0.00012532868
0.00032709857
-0.00019153406
8.3934379e-05
0.0003148893
0.00023662352
5.7980298e-05
0.00018987179
0.00043312284
-8.2659027e-06
-2.686626e-05
0.00055189071
-7.3069354e-05
-9.2918224e-05
0.00043608844
-3.9064879e-05
-3.2384956e-05
0.0003943483
-0.00011503927
-3.8003453e-05
0.00042938837
-0.00017446667
-7.9174133e-05
0.00042465295
-0.00010569517
-0.00017349895
0.00035076783
-1.1489892e-05
-0.00032624586
0.00033738856
4.0820927e-05
-0.00029750578
0.00010962576
1.1134895e-05
-0.00019208105
-3.1370072e-05
-5.8913483e-05
-0.00012157016
-1.6992115e-07
-9.5738847e-05
4.1344885e-05
-0.00014831983
4.6830046e-05
-2.4855773e-05
0.00015669348
-5.0113891e-05
-3.2951029e-05
0.000288263
-6.5196093e-05
-6.1202864e-05
0.00023226263
5.7386957e-05
1.3211479e-05
1.9220737e-05
0.00011710824
0.00024947563
-2.0500676e-05
0.00012291284
0.00026658556
-3.6472038e-05
9.9276523e-05
0.00032194284
3.8623733e-05
6.9891987e-05
0.00032802028
0.00011850278
1.265889e-05
0.0002562062
0.00010924405
-4.0150136e-05
0.00032956413
0.00019496897
-8.2469847e-05
0.00051142064
0.00015974682
-2.4835948e-05
0.00039711619
-1.6531326e-06
-7.4205948e-06
0.00015382057
-0.00010642625
-0.00011948342
-0.00011694281
-0.00016264578
-9.7524452e-07
-0.00028693828
-0.00010961259
0.00011835691
-0.00029151057
-0.00010693124
8.0537723e-06
-0.00011574819
-0.00016622602
2.4694148e-05
0.00014919992
-0.00010898656
8.228005e-05
0.00039341508
-2.5736532e-06
4.0760542e-05
0.0005122867
0.00015866751
-1.2586393e-05
0.00033487038
0.00019503515
-6.9886438e-05
0.00025704567
0.00010962147
-9.9093012e-05
0.00032732088
0.00011853103
-0.00012304762
0.00032230959
3.8668508e-05
-0.0001173676
0.0002678063
-3.6506311e-05
-5.738347e-05
0.0002497783
-2.0822901e-05
6.5156698e-05
1.2019921e-05
1.9188004e-05
4.9823541e-05
-6.104437e-05
0.0002322781
-4.7168384e-05
-3.2739953e-05
0.000288372
-2.598606e-05
0.00015682455
6.5110133e-05
-6.257884e-06
0.00011723427
-9.1068523e-05
0.00018221177
0.00013554095
-0.00020639579
0.00013945353
3.2030768e-05
-0.00018939301
0.00010796065
-7.7017736e-05
-5.4263993e-05
0.00015746761
-0.00012724375
-3.3822386e-05
0.00018614744
-6.6961243e-05
-7.4503386e-06
0.0001697803
2.5984816e-05
6.715407e-05
8.9005459e-05
7.2380049e-05
5.2557064e-05
0.00011901267
4.0695853e-05
8.1993336e-06
0.0002165466
0.00014092152
0.00010722665
0.00032509844
0.00015116539
0.00024364362
0.00022473992
-1.5726074e-05
0.00030768323
0.00010678705
-0.00011791325
9.2304776e-05
0.00013873361
4.6888857e-06
-3.3703764e-06
-0.00023768945
-2.0793621e-05
-9.5752663e-05
-0.00024526115
-2.302333e-05
-0.00030524244
0.00013942227
-2.0636826e-06
-0.00024312718
0.00010644208
-0.00011992906
-0.00010839419
0.00022314442
-1.6700697e-05
-8.8013927e-06
0.00032567894
0.00015050353
-5.1069844e-05
0.00021856123
0.00014205295
-6.5725102e-05
0.00011977709
4.0983554e-05
7.2583001e-06
9.0053853e-05
7.2054317e-05
3.3206727e-05
0.00017003957
2.5932177e-05
5.463936e-05
0.00018615561
-6.6785005e-05
0.00019081427
0.00015681154
-0.00012751821
0.00020646603
0.00010879825
-7.7656179e-05
9.0745002e-05
0.00014064764
3.1631664e-05
-6.4954286e-05
0.00018231284
0.00013515046
-6.9642143e-06
0.00011681534
-0.00011018874
0.00020726
-6.3383059e-05
0.00016926008
-8.0087849e-05
2.7967225e-06
-0.00011014357
-6.8821362e-05
-4.7154086e-05
-0.00010142795
5.2044616e-05
-7.278609e-05
6.4256078e-05
4.040309e-06
-4.8789244e-05
8.1067758e-06
-0.00011672751
0.00010333025
-6.7755195e-05
9.0900538e-05
0.00012433013
0.00012839752
0.00023814072
1.6521611e-05
0.00028569857
-6.8153381e-05
0.00034090256
-8.9727492e-05
3.4200669e-06
-0.00010651002
-0.00033864503
-0.00011110257
-0.00028506169
-8.8647471e-05
-0.00023862192
-6.7390423e-05
-0.00012638815
1.6415746e-05
6.5734381e-05
0.00012830618
0.00011606877
9.0767103e-05
4.8677081e-05
0.00010272453
-6.3915095e-05
8.736344e-06
-5.1645771e-05
4.4975238e-06
4.7617511e-05
-7.2444313e-05
0.00010990282
-0.00010104425
8.014815e-05
-6.8214192e-05
6.408516e-05
3.5608522e-06
0.00011092796
0.00016941083
0.00020726729
-8.0253499e-05
6.7944797e-05
-0.00014196104
4.6388388e-05
-0.00021109488
-7.7497926e-05
0.00020558915
-0.00027257444
-3.7476297e-05
0.00010919301
4.6288167e-05
-0.00010073735
-1.7423433e-05
0.00012342551
-0.00011985156
-0.00010793984
0.00012860581
-0.00012112222
-0.00014891379
9.8428198e-05
-0.00015925955
-9.3318115e-05
4.4016961e-06
-0.0001668457
-3.7198468e-05
4.4401963e-05
-0.0001565185
9.6684604e-05
-3.4396043e-05
-0.00013568633
0.00012113617
9.4813101e-05
-0.00011873671
7.6980937e-05
0.00014059873
-5.389223e-05
4.3439619e-05
0.00013782331
-6.4781862e-05
1.5178444e-05
0.00011488522
-5.6457781e-07
0.00012436257
-1.4261073e-05
0.0001252818
-4.2872457e-05
0.00011523009
-7.5521593e-05
0.00013794568
-6.453019e-05
-0.00011947894
0.00014105311
-5.3348487e-05
-9.518368e-05
9.637259e-05
-0.00011858706
3.5393143e-05
-2.8655097e-05
-0.00013640203
9.1888688e-05
4.4199696e-05
-0.00015648098
0.0001487022
3.1903719e-06
-0.00016683318
0.00010793705
9.8176446e-05
-0.00015943793
1.7483462e-05
0.00012855613
-0.00012169569
-0.00010933214
0.00012345275
-0.00012016566
-0.00020577694
4.6272424e-05
-0.00010103313
-4.6691401e-05
-0.00027264426
-3.7595164e-05
7.9482372e-05
-0.00021083225
-7.7548849e-05
6.6484738e-05
-0.00014177015
1.8707068e-05
-1.8855577e-05
-8.0981519e-05
0.00017267821
-0.00052441445
6.3577678e-05
0.00038846326
-0.00063898098
9.1693578e-05
0.00035998665
1.7025777e-05
6.8949574e-05
-4.6069777e-05
0.00060181328
-3.1040228e-05
-0.00029710007
0.00051284721
-0.00014394612
-0.00025549506
0.00011587271
-0.00016443807
-0.00013818849
-0.00011463123
-0.00017379824
5.5626101e-06
-4.4421475e-05
-0.00016959643
0.00024251257
-0.00018941707
-0.00011982047
0.00026990898
0.00012193409
-0.00012838479
2.2310845e-05
0.00046613282
-8.7558783e-05
-0.00023883997
0.00049993448
-4.4629535e-05
-0.00015893998
0.00011574827
3.2008543e-06
8.5816921e-05
0.00016018139
9.3629945e-05
0.00023044803
0.00012889784
-2.5537445e-05
0.00049598113
-4.4069681e-05
-0.00026797211
0.00046270979
-8.7487915e-05
-0.00024025008
0.00012399618
-0.00012841497
-7.1894852e-06
-0.00017837212
-0.00012240846
0.00013625808
-4.4608417e-05
-0.00016967873
0.00025478856
-0.00011655393
-0.00017325285
0.00029708722
0.00011466358
-0.00016448098
4.5822207e-05
0.00051238798
-0.00014405674
-0.00036017356
0.00060144859
-3.1179133e-05
-0.00038850204
1.6684659e-05
6.9051164e-05
-0.00017256504
-0.00063927276
9.1778056e-05
-1.8770946e-05
-0.00052399537
6.3630206e-05
-1.9893782e-05
-8.0712234e-05
0.00030899097
-0.00032487811
0.00015372504
5.6154184e-05
-0.00010071089
0.00011739624
-0.00029034625
-0.00010796676
4.7748852e-05
-0.00019597171
-3.9684139e-05
-1.844388e-05
-0.00010285773
0.00053296191
-4.4763295e-05
-6.5914542e-05
0.00045980259
-2.0370602e-05
-1.6886333e-06
2.702602e-05
6.3244515e-05
-2.8033146e-05
-0.00010184197
0.00013205804
3.3855131e-05
-0.00017288989
0.00017582419
-7.6866127e-05
-4.6692742e-05
0.0001629659
-6.3604534e-05
7.4743918e-05
0.00019367539
-8.1332818e-05
0.00043688269
4.5325285e-05
-0.00011086249
0.00043877192
-1.5734015e-05
-0.00017479014
1.7030141e-05
3.6232831e-06
-0.0002022091
0.00017580796
-0.00018548597
0.00011045415
2.8025617e-05
8.0368295e-05
0.00043246085
-1.538043e-05
6.224622e-05
0.00043236797
4.5890229e-05
7.5200115e-05
7.6070057e-05
0.00019363973
-2.8465324e-05
-4.5732304e-05
0.00016606077
3.0757671e-05
-0.00017011611
0.00017590615
1.9176559e-06
-0.00010185171
0.0001326688
6.6224226e-05
2.5676833e-05
6.334866e-05
0.00010279458
0.00045944449
-2.0133174e-05
0.00019621771
0.00053222023
-4.501765e-05
0.00029065454
-3.9924041e-05
-1.8640083e-05
-5.6011615e-05
-0.00010800083
4.767236e-05
-0.00030858578
-0.00010058178
0.00011753262
-0.00032527752
0.00015362253
7.7757194e-05
-0.00035147936
6.6078327e-05
3.3620249e-05
3.8281291e-05
4.0685714e-05
-0.00017061271
0.00010183141
2.6465558e-05
-0.00024409073
9.4757327e-05
-0.00013798118
-1.3240512e-05
0.00024784189
-7.2973932e-05
0.00013955743
0.00022382536
1.6218046e-05
7.4017061e-05
0.00010110023
1.7450971e-05
2.5359764e-05
-4.7141702e-05
6.6337073e-05
-4.2622671e-05
-0.00012305213
5.8840524e-05
-0.00018630276
0.0001790347
5.8874164e-05
-0.00016414453
0.00017889453
2.4856541e-05
4.7717486e-05
0.00020686153
2.4330682e-06
0.00024620699
0.00021131876
-8.8949595e-05
2.3462326e-05
0.00024446369
2.8876159e-06
-0.00020242801
-2.0731747e-05
-0.00018488993
-0.00023933982
0.00024457
-4.4029894e-05
0.00020648334
-8.9261466e-05
0.0001649534
0.00020497593
1.7080415e-06
0.00018835693
0.00017794918
2.5220878e-05
4.3591895e-05
0.00018170803
5.9377627e-05
-2.5590774e-05
-0.00011879445
5.8844554e-05
-7.3698656e-05
-4.7886932e-05
6.6197392e-05
-0.00014023129
0.00010071532
1.742631e-05
1.2656749e-05
0.00022339923
1.6372212e-05
0.00024387465
0.00024648717
-7.3003011e-05
0.0001705856
9.3615778e-05
-0.0001379069
-3.3554171e-05
0.00010115114
2.6619527e-05
-7.7572721e-05
3.8138079e-05
4.0449208e-05
-0.00035187167
6.5836806e-05
-0.00030869226
0.0001644729
-0.00027121704
0.00017006616
-0.00022752628
6.0937379e-05
-0.00018209758
-1.9492738e-05
-1.9945974e-06
-3.3689032e-05
0.00014975489
-7.1021754e-07
0.00016207437
9.2821056e-05
-2.8058683e-05
0.00015109813
-0.00023232585
0.00018454528
-0.0001621523
0.00019976169
-2.8741989e-05
0.00017388174
6.1953731e-05
0.00013268742
0.00014839151
5.6727599e-05
0.0003031277
-5.8103203e-06
-0.00030180283
-0.0001458803
-6.2929426e-05
5.6142034e-05
2.660077e-05
0.00013186148
0.00015904918
0.00017380694
0.00023143151
0.0002000928
2.9758763e-05
0.00018560279
-0.00016087933
0.0001514875
-0.0001489118
9.3245295e-05
2.6759741e-06
-6.3284827e-07
0.0001820323
-3.391338e-05
0.00022694631
-1.9512393e-05
0.00027091931
6.0739032e-05
0.00030870265
0.00016976562
0.00016409828
9.2245933e-05
-0.00023542609
-1.5738657e-07
0.00020194873
-0.00019076093
-3.072969e-08
0.00023294367
-7.3204597e-05
1.64451e-07
6.851079e-05
5.9511197e-05
1.8449867e-07
-0.00016835446
0.00011373748
6.6734347e-08
-0.00030997542
2.0200623e-05
7.2630153e-08
-0.00023354191
-0.00023828429
4.2004484e-08
-0.00010027289
-0.00030408309
6.4482709e-09
4.6997952e-05
-0.00030770975
5.9357978e-08
0.00015920693
-0.00025039022
3.1647858e-07
0.00028876101
-0.00025106684
3.4474729e-07
0.00019015919
4.629827e-05
2.8474556e-07
0.00012468599
3.2520796e-07
-0.00018965499
0.00012484106
-9.7880861e-08
-0.00028846942
4.7363644e-05
-4.0338092e-08
-0.00015932219
-0.00025009926
-8.498464e-08
-4.7541975e-05
-0.00025029908
-9.2363841e-08
9.9708487e-05
-0.00030758407
-3.3360179e-08
0.00023325907
-0.00030428192
-8.4657258e-08
0.0003097403
-0.00023844934
-4.0064852e-08
0.00016867316
1.9090477e-05
2.9469447e-08
-6.8128332e-05
0.00011347939
-6.171777e-08
-0.00023266061
5.9571183e-05
-8.4885108e-08
-0.00020205796
-7.2709695e-05
-5.1716525e-09
-9.2365145e-05
-0.00019083786
-1.0864235e-08
-0.00023551048
-1.5095605e-08
0.00018269863
-0.00049915627
5.0036883e-08
0.00045084491
-0.00039528784
-4.1689732e-08
0.00064460882
-0.00017508352
-1.913981e-07
0.00027068255
0.0005024806
-9.3557024e-08
-0.00025490749
0.00060818669
1.0060214e-07
-0.00036149891
-1.7304188e-05
1.5010693e-07
-0.00022304372
-0.00054112937
-4.8184191e-08
-0.00011254691
-0.00058825744
-1.2071288e-07
1.2394679e-05
-0.00060221363
-3.4146337e-08
0.00013201655
-0.0004899429
1.1033363e-07
0.00031283506
-0.00056031934
4.9199748e-08
0.00030481996
-3.3446532e-05
2.0112028e-07
0.00038480644
6.9968789e-08
-0.00030439172
0.00038518469
-2.1594009e-08
-0.00031202304
-3.2493288e-05
3.3761486e-10
-0.00013126987
-0.00055936433
9.6935671e-08
-1.3022451e-05
-0.00049101759
6.2618217e-08
0.00011179139
-0.0006020547
-2.1956968e-08
0.00022313516
-0.0005887554
-1.2316246e-07
0.0003613348
-0.0005411904
6.0422072e-08
0.00025498677
-1.8751696e-05
1.3344512e-07
-0.0002702027
0.00060750839
-1.8645399e-08
-0.00064469375
0.0005030625
5.0934782e-08
-0.00045133898
-0.00017427715
-9.2171891e-09
-0.00018301424
-0.00039553915
6.796339e-09
-0.00049922277
-1.4160149e-08
9.9241253e-05
-0.0004447772
1.0470577e-07
0.00010244863
-0.00028106055
-3.8428237e-08
8.9299454e-05
-0.00011404139
-1.4410193e-07
0.00016779185
0.00040558566
-4.1333186e-08
0.00021874914
0.00051245027
1.5844746e-08
0.0002138072
-3.2449964e-05
-2.8288552e-07
-7.9374371e-06
-0.00025593268
-2.0753481e-07
-4.153875e-05
-0.00042239439
-2.0370394e-07
-3.7054761e-06
-0.00046414391
-7.8810466e-08
-7.9481895e-05
-0.00025072649
-4.7409244e-07
-0.00033096079
-0.00011484541
-3.1964307e-07
-0.00018727884
-0.00013127484
-5.2836673e-07
0.00018200214
-2.0855354e-07
0.00018724139
0.00018229814
2.6473607e-07
0.00033163736
-0.00013141338
4.1434684e-07
8.0266006e-05
-0.00011470819
3.5493632e-07
4.5723549e-06
-0.0002498049
5.4173011e-07
4.1727468e-05
-0.00046323983
-6.3848408e-08
8.8685579e-06
-0.00042315683
-7.087958e-08
-0.0002123036
-0.00025679172
1.2211901e-07
-0.00021830568
-3.2799187e-05
-8.3614488e-08
-0.00016736897
0.00051156246
-8.4076859e-09
-8.9363231e-05
0.00040636192
5.4801877e-08
-0.000102401
-0.00011373401
1.6704741e-07
-9.9060551e-05
-0.00028139053
4.3604931e-08
-0.00044458854
-7.2232588e-08
6.3516391e-05
-0.00044226469
4.9434946e-08
8.1148353e-05
-0.00025788026
-1.2653419e-07
-7.3863135e-05
6.7890901e-05
-4.5523223e-07
3.6660346e-05
0.00015725171
-1.7069763e-07
0.00024173764
0.00023456916
-1.7011663e-07
1.2362534e-05
0.00021334178
-1.985875e-07
-9.9971417e-05
-0.00012572402
-4.2373619e-07
-4.9070632e-05
-0.00040678812
-1.6998257e-07
-3.2713317e-05
-0.00042161857
-4.2132113e-08
-3.7579934e-05
-0.00018726931
2.8359725e-07
-0.00015259252
2.5368511e-05
-3.4480416e-07
-0.00021536784
-6.6050472e-05
-1.5974637e-08
-0.00012225141
-6.3891195e-08
0.00021580308
-0.00012302704
2.6062975e-07
0.00015327935
-6.7386367e-05
2.0475607e-07
3.8076233e-05
2.5258719e-05
4.5707868e-07
3.2638653e-05
-0.00018522652
2.3681237e-07
4.913752e-05
-0.00042085618
-3.7993289e-08
9.998756e-05
-0.00040773739
-7.2116382e-08
-1.2318977e-05
-0.00012734576
2.8685854e-07
-0.00024156758
0.00021255891
2.6272016e-07
-3.6886752e-05
0.00023371457
1.6408002e-07
7.4066133e-05
0.00015719253
3.0966421e-07
-8.0931665e-05
6.7444624e-05
4.3875371e-07
-6.3465657e-05
-0.00025860952
2.0224428e-07
-0.00044217427
-4.3092965e-08
-0.00027807452
2.8272743e-07
-0.00036626063
3.720068e-07
-0.0002377336
3.0125554e-07
-0.0001001783
2.0368538e-07
0.00010041943
2.8239697e-07
0.0003131194
-6.8407418e-08
0.00028014744
6.8993461e-08
2.4523412e-05
-6.5966385e-08
-0.00021225922
-2.9066528e-07
-0.00019969801
-6.8838449e-08
-6.0200367e-07
1.5423788e-07
6.5654046e-05
3.8088984e-07
1.3023351e-07
-6.6190244e-05
-6.9476876e-07
-1.1910127e-06
-5.2412362e-07
0.00019774653
1.2810364e-07
0.00021254482
6.7975077e-08
-2.2750471e-05
4.189414e-08
-0.0002786956
-3.0478e-07
-0.00031252623
-2.6984303e-07
-0.0001004226
-1.7755987e-07
9.9848517e-05
-4.698972e-07
0.00023778818
-2.5948113e-07
0.00036632428
-3.5240447e-07
0.00027782599
-3.4557371e-07
-2.4998856e-07
9.249393e-05
-0.00023570976
0.00014168358
0.00020240586
-0.00019097518
7.7469068e-05
0.00023300982
-7.2094763e-05
3.7477092e-05
6.8870163e-05
5.9528151e-05
0.00010083248
-0.00016779761
0.00011356167
0.00011995761
-0.00030970458
2.0528725e-05
0.00012121763
-0.00023330838
-0.00023819987
0.0001592933
-9.9913966e-05
-0.00030409932
0.00016675404
4.7222295e-05
-0.00030734562
0.00015641707
0.00015921003
-0.00025003397