/*--------------------------------*- C++ -*----------------------------------*\
| =========                 |                                                 |
| \\      /  F ield         | OpenFOAM: The Open Source CFD Toolbox           |
|  \\    /   O peration     | Version:  v2012                                 |
|   \\  /    A nd           | Website:  www.openfoam.com                      |
|    \\/     M anipulation  |                                                 |
\*---------------------------------------------------------------------------*/
FoamFile
{
    version     2.0;
    format      ascii;
    class       volScalarField;
    location    "70/bottomWater";
    object      T;
}
// * * * * * * * * * * * * * * * * * * * * * * * * * * * * * * * * * * * * * //

dimensions      [0 0 0 1 0 0 0];


internalField   nonuniform List<scalar> 
1460
(
1040.3756
1038.0532
1036.8075
1035.2738
1033.9156
1032.9988
1030.9951
1028.2082
1029.1831
1030.7439
1029.6756
1024.1452
1022.6157
1019.4288
1017.5275
1017.198
1019.1637
1022.4578
1023.9784
1029.4886
1030.6446
1029.0767
1028.1049
1030.955
1032.9684
1033.8946
1035.2584
1036.793
1038.0349
1040.3599
1038.0869
1036.4527
1035.4953
1033.6893
1032.6984
1033.0768
1030.1296
1026.6654
1028.1932
1030.7171
1028.8368
1025.2547
1024.4894
1018.7635
1016.1978
1015.8758
1018.5527
1024.423
1025.1795
1028.7036
1030.6018
1028.0693
1026.5619
1030.0843
1033.0525
1032.6903
1033.6997
1035.4896
1036.4259
1038.0687
1038.6043
1032.3096
1027.9957
1029.2791
1030.7882
1032.8424
1029.7131
1025.4882
1027.9359
1031.7217
1029.5928
1030.8252
1027.175
1019.6831
1015.3949
1015.072
1019.3992
1027.1221
1030.7866
1029.4797
1031.6044
1027.7988
1025.3723
1029.6644
1032.8141
1030.7732
1029.2524
1027.9856
1032.2755
1038.5875
1038.6558
1033.7298
1022.7266
1026.3014
1028.8266
1031.0819
1027.7557
1023.4594
1024.8705
1031.8336
1030.5592
1030.9342
1031.0125
1019.3483
1015.0977
1014.7728
1019.0809
1030.8967
1030.8492
1030.4643
1031.7037
1024.698
1023.3289
1027.6899
1031.0341
1028.7965
1026.2601
1022.6747
1033.7138
1038.6417
1013.2625
1019.442
1020.535
1024.4557
1027.2577
1029.3376
1026.7685
1021.5863
1021.7346
1021.6032
1023.2986
1022.5087
1021.4859
1018.5871
1014.4836
1014.1565
1018.2974
1021.1596
1022.2734
1023.0934
1021.3769
1021.5208
1021.4396
1026.6918
1029.2774
1027.2031
1024.4214
1020.5123
1019.4427
1013.2028
1043.2676
1041.7701
1041.6504
1040.884
1038.7492
1037.9391
1036.6779
1034.3025
1033.1095
1032.4573
1027.8813
1023.9114
1021.8511
1019.3665
1016.699
1016.2489
1019.0306
1021.5897
1023.6883
1027.685
1032.3431
1033.0362
1034.2483
1036.6565
1037.9206
1038.7573
1040.8842
1041.642
1041.7566
1043.2516
1040.7633
1039.899
1039.8853
1038.9471
1036.893
1037.3003
1035.5484
1032.9987
1031.8638
1032.0311
1027.4368
1023.4904
1021.5985
1018.2408
1013.6819
1013.2698
1017.8809
1021.3337
1023.2894
1027.2549
1031.938
1031.7865
1032.9471
1035.5263
1037.2842
1036.8922
1038.9573
1039.8859
1039.8895
1040.7564
1041.0148
1039.5538
1036.8728
1035.6347
1036.5536
1037.2807
1034.4514
1032.1214
1033.7352
1032.9982
1028.4804
1025.4332
1023.616
1018.0704
1012.2945
1011.9363
1017.6816
1023.3215
1025.232
1028.334
1032.9148
1033.6593
1032.068
1034.4164
1037.2653
1036.5476
1035.6255
1036.863
1039.542
1041.0059
1040.7827
1039.3434
1033.1578
1032.886
1035.5568
1037.8219
1033.1321
1028.053
1034.1392
1032.4988
1029.2216
1027.5478
1026.1799
1026.4265
1013.1802
1012.8045
1026.3078
1026.0597
1027.404
1029.0905
1032.4197
1034.0719
1027.9617
1033.0898
1037.8049
1035.5329
1032.861
1033.1315
1039.3337
1040.7738
1035.7695
1030.9132
1027.4639
1028.9134
1031.8124
1033.7018
1030.04
1024.6584
1025.8898
1026.2112
1026.2941
1023.4246
1020.2385
1016.9809
1012.1293
1011.8219
1016.7299
1020.0054
1023.1953
1026.1148
1026.051
1025.7119
1024.5264
1029.974
1033.6581
1031.7685
1028.8766
1027.4407
1030.8957
1035.7526
1036.1035
1037.5251
1039.5558
1040.3015
1040.2007
1037.1577
1034.2888
1033.1308
1033.0964
1032.397
1029.6736
1026.5239
1024.6392
1022.8896
1020.885
1020.4714
1022.5943
1024.3736
1026.2998
1029.5231
1032.3057
1033.0067
1033.0355
1034.1904
1037.068
1040.1509
1040.277
1039.5385
1037.5099
1036.0903
1036.4131
1037.7936
1038.8407
1039.7059
1039.7508
1039.0949
1035.4102
1032.4399
1031.71
1032.4782
1027.5965
1023.4097
1019.9789
1014.9264
1015.2297
1014.6742
1014.5509
1019.6798
1023.1687
1027.3792
1032.3796
1031.6099
1032.3592
1035.3458
1039.0599
1039.7404
1039.6944
1038.8314
1037.7874
1036.4143
1040.7868
1039.8064
1038.3543
1040.0275
1040.277
1039.5336
1036.8272
1033.7397
1032.66
1032.8231
1028.0578
1024.3073
1017.3428
1007.436
1007.0792
1006.8586
1007.1186
1017.006
1024.0851
1027.8643
1032.7182
1032.5678
1033.6642
1036.7723
1039.5029
1040.2638
1040.0165
1038.3417
1039.7954
1040.7738
1039.0507
1039.0683
1038.1512
1039.709
1040.1272
1038.9086
1037.3076
1034.2961
1033.8301
1033.8376
1029.078
1026.157
1019.411
1021.3858
1011.3375
1010.972
1021.26
1019.222
1025.9821
1028.9137
1033.7362
1033.7481
1034.2255
1037.2563
1038.8743
1040.1108
1039.694
1038.1337
1039.055
1039.0168
1028.7277
1032.4522
1031.9744
1032.1564
1034.1778
1033.5437
1031.9918
1026.1002
1026.8419
1028.894
1026.7333
1024.1274
1017.3329
1013.3883
1006.7487
1006.4513
1013.2368
1017.0809
1023.889
1026.5286
1028.7582
1026.6909
1025.9914
1031.9169
1033.4829
1034.1252
1032.1292
1031.969
1032.4353
1028.7171
1032.0519
1034.856
1037.1151
1036.7545
1036.6013
1032.4387
1030.7011
1028.9023
1027.4555
1026.5656
1024.2034
1025.6643
1015.7627
1004.0405
1004.9902
1005.627
1004.3161
1016.0314
1025.5529
1024.0649
1026.378
1027.2897
1028.7606
1030.5734
1032.3221
1036.5564
1036.7397
1037.0989
1034.8382
1032.0285
1032.0234
1036.6125
1038.1855
1038.4107
1037.8564
1032.4892
1030.9849
1029.6053
1026.7793
1029.3054
1025.2168
1024.3107
1007.5749
1001.506
1002.7829
1003.342
1001.9469
1008.0511
1024.1795
1025.0451
1029.1141
1026.6084
1029.4975
1030.8744
1032.3863
1037.8322
1038.3993
1038.1727
1036.5986
1032.0142
1033.5626
1036.797
1038.3601
1037.9932
1037.3814
1033.1444
1032.3583
1034.6151
1029.8061
1031.7299
1027.3018
1021.8436
1004.092
991.63888
990.64594
990.85165
991.93613
1004.3757
1021.7203
1027.1263
1031.6502
1029.7071
1034.5134
1032.2593
1033.0454
1037.3501
1037.9739
1038.3465
1036.7855
1033.5393
1030.0524
1036.3315
1038.1066
1037.2467
1037.5703
1033.9855
1034.2271
1034.332
1027.7524
1031.0763
1027.0282
1022.6296
1003.7226
1001.8998
991.7015
991.59425
1001.5216
1003.7197
1022.4728
1026.8819
1030.9628
1027.6534
1034.2446
1034.1418
1033.8939
1037.5468
1037.2341
1038.0912
1036.315
1030.0189
1027.3253
1029.7796
1030.8072
1031.2791
1033.1262
1031.0469
1028.9748
1025.0264
1023.1187
1025.5185
1023.6843
1019.1651
1003.4813
998.04427
992.38486
992.4177
997.93521
1003.2831
1018.8428
1023.4572
1025.3527
1022.9022
1024.8448
1028.8537
1030.9485
1033.0533
1031.207
1030.7494
1029.7393
1027.2967
1028.2997
1030.0672
1030.8483
1032.4246
1033.0323
1031.0491
1030.3247
1027.6218
1024.6715
1022.7335
1018.2705
1019.7204
1009.2976
1009.1603
1019.5814
1018.1211
1022.5735
1024.4749
1027.4732
1030.1988
1030.9266
1032.949
1032.4116
1030.8272
1030.0424
1028.271
1027.5824
1030.7995
1032.4025
1033.0749
1033.7185
1033.3575
1032.1537
1028.1341
1024.0971
1022.3699
1014.7538
1015.3682
1009.4113
1009.2893
1015.2474
1014.5839
1022.2177
1023.8898
1027.9912
1032.042
1033.2731
1033.6636
1033.0576
1032.3806
1030.7735
1027.5492
1027.4578
1030.9079
1033.0639
1033.3092
1034.1225
1035.5662
1033.0955
1028.432
1023.6394
1022.2979
1012.2731
1005.3188
1005.129
1005.022
1005.1504
1012.0917
1022.153
1023.4269
1028.2909
1032.9889
1035.5229
1034.0794
1033.2941
1033.0459
1030.8804
1027.4219
1025.2368
1028.0975
1032.5153
1033.7388
1034.8146
1035.6055
1029.8862
1026.2871
1020.7384
1019.4036
1003.1489
997.02044
990.80408
990.47523
996.64057
1002.9082
1019.1577
1020.473
1026.1278
1029.7572
1035.5582
1034.7829
1033.7261
1032.502
1028.0546
1025.1954
1024.247
1026.1862
1027.2888
1028.923
1030.8227
1030.648
1027.7285
1024.8173
1019.0427
1018.7079
1016.6427
1012.1403
982.85136
981.97869
1011.5426
1016.2804
1018.3951
1018.7371
1024.6516
1027.6102
1030.5607
1030.7656
1028.8784
1027.2357
1026.135
1024.2017
1028.2914
1030.0607
1030.8452
1032.426
1033.0398
1031.0406
1030.3212
1027.6209
1024.6686
1022.733
1018.2688
1019.716
1009.2739
1009.1358
1019.5399
1018.0746
1022.5395
1024.4673
1027.4691
1030.1978
1030.9252
1032.9388
1032.4095
1030.8307
1030.049
1028.2786
1027.5696
1030.7874
1032.3935
1033.0697
1033.7146
1033.3464
1032.1529
1028.1293
1024.0929
1022.3683
1014.7438
1015.3868
1009.4096
1009.2471
1015.197
1014.5408
1022.1775
1023.8803
1027.9922
1032.0466
1033.2679
1033.6582
1033.0611
1032.388
1030.7845
1027.5607
1027.4432
1030.8934
1033.0572
1033.307
1034.1218
1035.5632
1033.092
1028.4224
1023.636
1022.2978
1012.2619
1005.3293
1005.1264
1004.9812
1005.1143
1012.0563
1022.1133
1023.4153
1028.2993
1032.9983
1035.5195
1034.0728
1033.2956
1033.0499
1030.8956
1027.4354
1025.2218
1028.0764
1032.5136
1033.7394
1034.8171
1035.6025
1029.8719
1026.2677
1020.7216
1019.3846
1003.1814
997.06118
990.85838
990.51784
996.62325
1002.8458
1019.1315
1020.4593
1026.1423
1029.7653
1035.5536
1034.776
1033.7256
1032.4986
1028.0779
1025.2119
1024.2305
1026.1667
1027.2664
1028.909
1030.8098
1030.6336
1027.7076
1024.7952
1019.0171
1018.7008
1016.6374
1012.0956
982.92566
982.2218
1011.5343
1016.2247
1018.3584
1018.7231
1024.6711
1027.6277
1030.576
1030.7888
1028.8991
1027.2649
1026.159
1024.2208
1032.0449
1034.854
1037.112
1036.7548
1036.6109
1032.4343
1030.6961
1028.9003
1027.449
1026.5386
1024.1869
1025.6581
1015.8084
1004.0872
1005.2157
1005.3976
1004.1424
1015.8235
1025.5366
1024.0362
1026.3724
1027.2825
1028.7546
1030.5693
1032.3167
1036.547
1036.7393
1037.1
1034.8415
1032.0322
1032.0283
1036.6104
1038.1844
1038.4095
1037.8635
1032.4848
1030.9816
1029.6045
1026.7785
1029.2634
1025.1826
1024.2893
1007.6784
1001.6437
1002.9795
1003.1135
1001.7473
1007.7687
1024.1501
1025.0292
1029.1236
1026.6022
1029.4861
1030.8696
1032.3797
1037.8224
1038.3997
1038.1729
1036.6014
1032.0178
1033.5562
1036.7972
1038.3597
1037.9915
1037.3865
1033.1387
1032.3494
1034.6082
1029.8287
1031.7312
1027.2563
1021.7959
1004.1384
991.71808
990.72529
990.75348
991.77954
1004.1749
1021.6699
1027.1311
1031.6409
1029.6949
1034.519
1032.2606
1033.0379
1037.3409
1037.9702
1038.3456
1036.7882
1033.5454
1030.0425
1036.3258
1038.1012
1037.2511
1037.5753
1033.9805
1034.2104
1034.3277
1027.7875
1031.0559
1026.9919
1022.5724
1003.7388
1001.8286
991.70756
991.63312
1001.6491
1003.6558
1022.4401
1026.8796
1030.9633
1027.6266
1034.2551
1034.1444
1033.8852
1037.5362
1037.2264
1038.0953
1036.3198
1030.0281
1027.3178
1029.7647
1030.7825
1031.2529
1033.0996
1031.0489
1028.9612
1025.0086
1023.1086
1025.5183
1023.6588
1019.1125
1003.5266
998.06671
992.45754
992.41555
997.96382
1003.2627
1018.8286
1023.4493
1025.335
1022.8936
1024.86
1028.8572
1030.9389
1033.0861
1031.2456
1030.7851
1029.7562
1027.3057
1036.1007
1037.5239
1039.5527
1040.3023
1040.2029
1037.1554
1034.2888
1033.1356
1033.0973
1032.3865
1029.6388
1026.4733
1024.5807
1022.8251
1020.8001
1020.5947
1022.6749
1024.4394
1026.3491
1029.5419
1032.3014
1033.005
1033.0355
1034.1936
1037.0702
1040.15
1040.2773
1039.5407
1037.5119
1036.0908
1036.416
1037.7931
1038.8396
1039.7051
1039.7531
1039.0959
1035.4171
1032.4461
1031.7106
1032.468
1027.5443
1023.3579
1019.9113
1014.8348
1015.0911
1014.836
1014.6687
1019.7669
1023.2311
1027.4184
1032.3798
1031.6086
1032.3545
1035.3447
1039.0589
1039.737
1039.6948
1038.8317
1037.7871
1036.4113
1040.788
1039.8057
1038.3574
1040.0267
1040.2766
1039.5309
1036.8318
1033.7456
1032.6604
1032.8089
1028.0126
1024.2585
1017.2476
1007.3501
1007.073
1006.9427
1007.2104
1017.0928
1024.14
1027.8984
1032.7225
1032.5674
1033.6619
1036.7724
1039.5011
1040.2625
1040.016
1038.3377
1039.7952
1040.7724
1039.0496
1039.0677
1038.1524
1039.7101
1040.1271
1038.9059
1037.3121
1034.3012
1033.8301
1033.824
1029.0424
1026.1198
1019.3756
1021.3682
1011.2809
1011.0846
1021.2822
1019.2614
1026.0169
1028.9394
1033.7416
1033.7478
1034.2234
1037.2537
1038.8682
1040.1079
1039.6909
1038.1304
1039.0551
1039.015
1028.7296
1032.4557
1031.9835
1032.1513
1034.1663
1033.5455
1031.9973
1026.1102
1026.8394
1028.8957
1026.7051
1024.1019
1017.3312
1013.3986
1006.714
1006.5326
1013.2482
1017.0877
1023.9099
1026.5452
1028.7538
1026.6816
1025.9725
1031.9101
1033.475
1034.1373
1032.1329
1031.9527
1032.4267
1028.7141
1043.2647
1041.7699
1041.6515
1040.8898
1038.7593
1037.9444
1036.6819
1034.3015
1033.1062
1032.4352
1027.8348
1023.8668
1021.8008
1019.301
1016.6124
1016.3825
1019.1274
1021.6538
1023.7342
1027.7171
1032.349
1033.0339
1034.2438
1036.6469
1037.9119
1038.7431
1040.8752
1041.6386
1041.7555
1043.2517
1040.7634
1039.9001
1039.8894
1038.9556
1036.9021
1037.3073
1035.5561
1033.0036
1031.8645
1032.0241
1027.3997
1023.4553
1021.5464
1018.1674
1013.6153
1013.3991
1017.9968
1021.4075
1023.336
1027.2873
1031.9409
1031.7858
1032.9414
1035.5162
1037.2748
1036.8811
1038.9446
1039.8789
1039.8869
1040.7533
1041.0152
1039.554
1036.8791
1035.6428
1036.5626
1037.2888
1034.4583
1032.1239
1033.7356
1032.9915
1028.4512
1025.394
1023.5402
1017.9816
1012.2476
1012.0476
1017.8103
1023.3989
1025.2743
1028.354
1032.9158
1033.6602
1032.0575
1034.4016
1037.2535
1036.5373
1035.6148
1036.8549
1039.5406
1041.0032
1040.7812
1039.3417
1033.1614
1032.8888
1035.5581
1037.8263
1033.1487
1028.0604
1034.1386
1032.4921
1029.1956
1027.521
1026.1629
1026.4057
1013.1266
1012.9061
1026.314
1026.0768
1027.4252
1029.1054
1032.4217
1034.0715
1027.9532
1033.0697
1037.7975
1035.5306
1032.8563
1033.1279
1039.3344
1040.773
1035.7659
1030.9151
1027.4613
1028.9072
1031.8056
1033.7052
1030.0474
1024.6618
1025.8773
1026.2055
1026.2713
1023.408
1020.2375
1016.9626
1012.0909
1011.8892
1016.7598
1020.0078
1023.2093
1026.1269
1026.0513
1025.7164
1024.5193
1029.9648
1033.6518
1031.775
1028.8814
1027.442
1030.898
1035.7556
1040.3777
1038.0565
1036.8122
1035.2793
1033.9216
1033.0045
1031.002
1028.207
1029.1812
1030.7392
1029.6316
1024.1169
1022.5954
1019.3855
1017.4744
1017.2773
1019.2146
1022.4741
1023.9972
1029.5125
1030.647
1029.0788
1028.1066
1030.9443
1032.961
1033.8869
1035.2495
1036.7847
1038.0284
1040.3542
1038.0887
1036.4573
1035.5015
1033.6999
1032.7064
1033.0848
1030.1388
1026.6688
1028.1909
1030.7083
1028.8182
1025.2589
1024.4997
1018.7455
1016.1502
1015.9502
1018.5836
1024.4166
1025.1753
1028.7167
1030.6085
1028.0739
1026.5587
1030.0721
1033.0439
1032.6803
1033.6832
1035.4805
1036.4225
1038.0651
1038.6056
1032.3121
1028.0089
1029.288
1030.7944
1032.851
1029.7239
1025.4921
1027.933
1031.7108
1029.5778
1030.8297
1027.1852
1019.6503
1015.349
1015.1444
1019.4465
1027.1182
1030.7713
1029.4871
1031.6147
1027.806
1025.3685
1029.6507
1032.8052
1030.7642
1029.2395
1027.9692
1032.2812
1038.5843
1038.653
1033.7302
1022.7358
1026.3026
1028.8253
1031.0877
1027.7645
1023.4635
1024.8661
1031.8213
1030.5468
1030.9228
1031.0037
1019.323
1015.0523
1014.8391
1019.1144
1030.9267
1030.8495
1030.4663
1031.7238
1024.7062
1023.3232
1027.6792
1031.0293
1028.7961
1026.2576
1022.6744
1033.7203
1038.6426
1013.2482
1019.4387
1020.5336
1024.4497
1027.2519
1029.3396
1026.773
1021.5901
1021.7267
1021.5965
1023.288
1022.4878
1021.4556
1018.5598
1014.44
1014.2186
1018.3304
1021.1898
1022.269
1023.0998
1021.3894
1021.5296
1021.4328
1026.6869
1029.2746
1027.2079
1024.4259
1020.5129
1019.4428
1013.2243
)
;

boundaryField
{
    minX
    {
        type            zeroGradient;
    }
    maxX
    {
        type            zeroGradient;
    }
    minY
    {
        type            fixedValue;
        value           uniform 1073;
    }
    minZ
    {
        type            zeroGradient;
    }
    maxZ
    {
        type            zeroGradient;
    }
    bottomWater_to_rightSolid
    {
        type            compressible::turbulentTemperatureCoupledBaffleMixed;
        refValue        nonuniform List<scalar> 
130
(
514.88441
516.58479
518.24819
519.77647
521.1346
522.30712
523.30488
524.09211
524.66146
525.053
525.30126
525.44652
525.49788
512.93647
515.13462
517.23022
519.09695
520.6981
522.04162
523.16273
524.03932
524.67109
525.10696
525.39986
525.5951
525.69933
508.87094
512.22627
515.2451
517.79456
519.86442
521.53138
522.86916
523.88601
524.62268
525.12571
525.45923
525.65948
525.74197
502.48172
508.07048
512.61331
516.1477
518.84793
520.92327
522.50548
523.67888
524.51788
525.08227
525.4468
525.65601
525.74316
494.67916
503.97553
510.34553
514.84142
518.087
520.48536
522.24783
523.52919
524.42736
525.02572
525.405
525.62231
525.71471
494.68024
503.97579
510.3454
514.84126
518.08693
520.48546
522.24799
523.52938
524.42761
525.02598
525.40527
525.62254
525.7149
502.4821
508.07064
512.61332
516.14763
518.84791
520.92336
522.50559
523.67903
524.51823
525.08268
525.44717
525.65629
525.74338
508.87151
512.22671
515.24538
517.79467
519.86444
521.53135
522.86916
523.88605
524.62284
525.12585
525.45932
525.65958
525.7421
512.93713
515.13514
517.2306
519.09719
520.69826
522.04167
523.16273
524.03935
524.67118
525.10707
525.39998
525.59525
525.69952
514.88511
516.58527
518.24859
519.77681
521.13483
522.30722
523.30492
524.09216
524.66156
525.05312
525.30142
525.44675
525.49827
)
;
        refGradient     uniform 0;
        valueFraction   uniform 0.99248593;
        value           nonuniform List<scalar> 
130
(
518.68866
520.38466
522.04171
523.54563
524.89461
526.0577
527.08741
527.88816
528.43758
528.80532
529.02235
529.1583
529.16257
516.74671
518.95231
521.0541
522.90631
524.49286
525.81739
526.971
527.86871
528.48149
528.89235
529.17222
529.39185
529.5319
512.68973
516.07104
519.08703
521.63405
523.67278
525.32193
526.69424
527.71525
528.45122
528.93542
529.26526
529.46745
529.52137
506.24481
511.90856
516.45191
519.97395
522.63549
524.70991
526.3103
527.49067
528.3391
528.88541
529.24376
529.44378
529.5119
498.34069
507.78949
514.14724
518.62522
521.849
524.27379
526.0452
527.33909
528.23208
528.81176
529.17584
529.38324
529.46041
498.34359
507.78969
514.14669
518.62477
521.84883
524.27403
526.04548
527.3394
528.23251
528.81218
529.17633
529.38364
529.46075
506.24503
511.90861
516.45186
519.97374
522.6354
524.71011
526.31043
527.49074
528.33969
528.8861
529.2444
529.44418
529.51219
512.69035
516.07163
519.08743
521.63412
523.67272
525.32176
526.69419
527.71523
528.45146
528.93559
529.26523
529.46749
529.52147
516.74737
518.95293
521.05456
522.90655
524.49305
525.81738
526.97094
527.86869
528.48164
528.8925
529.17235
529.39202
529.53212
518.68959
520.38511
522.04215
523.54606
524.89491
526.05774
527.08742
527.88818
528.43771
528.80548
529.02251
529.15853
529.16312
)
;
        Tnbr            T;
        thicknessLayers List<scalar> 0();
        kappaLayers     List<scalar> 0();
        kappaMethod     fluidThermo;
        kappa           none;
        alphaAni        none;
        alpha           none;
        field           T;
    }
    bottomWater_to_leftSolid
    {
        type            compressible::turbulentTemperatureCoupledBaffleMixed;
        refValue        nonuniform List<scalar> 
130
(
525.88702
525.93462
525.98795
526.0443
526.07585
526.0652
525.99252
525.88529
525.7944
525.71327
525.64279
525.57518
525.53022
526.10829
526.10813
526.12196
526.15136
526.16682
526.13815
526.04474
525.91829
525.81087
525.70886
525.60612
525.50293
525.43092
526.17011
526.1998
526.2255
526.24337
526.23931
526.18196
526.06869
525.91341
525.77128
525.63469
525.48104
525.3281
525.20902
526.17446
526.2067
526.24012
526.25707
526.24216
526.16565
526.03146
525.85226
525.65943
525.47048
525.25819
525.03339
524.83596
526.1427
526.17392
526.20942
526.231
526.21578
526.13664
525.98926
525.79043
525.55241
525.31179
525.04993
524.76627
524.48519
526.14254
526.17373
526.20922
526.23081
526.21559
526.13645
525.98906
525.79023
525.5522
525.31162
525.04981
524.76627
524.48571
526.17429
526.20649
526.23985
526.25678
526.24188
526.16548
526.03127
525.85206
525.6592
525.47026
525.25792
525.03322
524.83627
526.17006
526.19975
526.22544
526.24326
526.23918
526.18189
526.06864
525.91333
525.7711
525.63446
525.48071
525.32783
525.20894
526.10824
526.10811
526.12193
526.1513
526.16676
526.13813
526.04472
525.91821
525.81065
525.70859
525.60577
525.50262
525.4307
525.88684
525.93456
525.98793
526.04426
526.07581
526.06519
525.9925
525.88521
525.7942
525.71301
525.64247
525.57482
525.52989
)
;
        refGradient     uniform 0;
        valueFraction   uniform 0.99248593;
        value           nonuniform List<scalar> 
130
(
529.54923
529.64272
529.70405
529.78944
529.84175
529.84687
529.75543
529.61008
529.521
529.43952
529.38228
529.30926
529.25693
529.93792
529.90116
529.88907
529.92918
529.96632
529.95209
529.83185
529.66592
529.56854
529.46973
529.3684
529.24444
529.14902
529.94637
530.00383
530.02581
530.04489
530.05609
529.99441
529.87029
529.67186
529.53639
529.41628
529.24759
529.07622
528.90694
529.94017
529.99063
530.03155
530.05192
530.05097
529.95949
529.81069
529.60323
529.39742
529.22792
529.00348
528.74642
528.43256
529.88552
529.93109
529.97462
530.00832
530.0075
529.92761
529.7594
529.54024
529.26062
529.01925
528.74387
528.4285
527.92932
529.88524
529.93076
529.97425
530.00802
530.00721
529.92731
529.75905
529.53987
529.26021
529.01904
528.74371
528.42816
527.93039
529.93995
529.99032
530.0311
530.05144
530.05049
529.95934
529.8104
529.6029
529.39713
529.22771
529.00302
528.74586
528.43321
529.94634
530.00381
530.02582
530.04474
530.05588
529.99435
529.87028
529.67185
529.53619
529.41607
529.24705
529.07576
528.90685
529.93784
529.90115
529.88902
529.92908
529.9662
529.9521
529.83189
529.66586
529.56824
529.46943
529.36789
529.244
529.1488
529.54894
529.64265
529.70402
529.78935
529.84166
529.84687
529.75544
529.61002
529.52075
529.43921
529.38188
529.30875
529.25637
)
;
        Tnbr            T;
        thicknessLayers List<scalar> 0();
        kappaLayers     List<scalar> 0();
        kappaMethod     fluidThermo;
        kappa           none;
        alphaAni        none;
        alpha           none;
        field           T;
    }
    bottomWater_to_heater
    {
        type            compressible::turbulentTemperatureCoupledBaffleMixed;
        refValue        nonuniform List<scalar> 
92
(
510.60475
511.05477
511.96776
513.28066
507.35879
507.93588
509.11901
510.83924
500.29124
501.11922
502.88529
505.55871
332.45051
329.24726
329.27336
332.51114
381.28676
377.02965
377.12882
381.52409
417.93541
413.7922
414.05215
418.56888
444.374
440.75794
441.40504
445.99747
488.23323
461.70333
489.32032
459.20501
491.95126
460.73781
496.41052
465.86768
332.45051
332.51114
381.28676
381.52409
417.93541
418.56888
444.374
445.99747
461.70333
465.86768
332.45066
332.45066
329.24755
329.27283
332.51042
332.51042
381.2872
381.2872
377.02999
377.12812
381.52304
381.52304
417.93571
417.93571
413.79241
414.05188
418.56833
418.56833
444.37454
444.37454
440.75828
441.40532
445.99807
445.99807
461.70422
461.70422
459.20561
460.73837
465.86921
465.86921
488.23408
489.32118
491.95181
496.41102
500.29157
501.1196
502.88617
505.55946
507.35865
507.93598
509.11983
510.84011
510.60435
511.05472
511.96849
513.28156
)
;
        refGradient     uniform 0;
        valueFraction   nonuniform List<scalar> 
92
(
0.99248593
0.99248593
0.99248593
0.99248593
0.99248593
0.99248593
0.99248593
0.99248593
0.99248593
0.99248593
0.99248593
0.99248593
0.99248593
0.99248593
0.99248593
0.99248593
0.99248593
0.99248593
0.99248593
0.99248593
0.99248593
0.99248593
0.99248593
0.99248593
0.99248593
0.99248593
0.99248593
0.99248593
0.99248593
0.99248593
0.99248593
0.99248593
0.99248593
0.99248593
0.99248593
0.99248593
0.99248593
0.99248593
0.99248593
0.99248593
0.99248593
0.99248593
0.99248593
0.99248593
0.99248593
0.99248593
0.99248593
0.99248593
0.99248593
0.99248593
0.99248593
0.99248593
0.99248593
0.99248593
0.99248593
0.99248593
0.99248593
0.99248593
0.99248593
0.99248593
0.99248593
0.99248593
0.99248593
0.99248593
0.99248593
0.99248593
0.99248593
0.99248593
0.99248593
0.99248593
0.99248593
0.99248593
0.99248593
0.99248593
0.99248593
0.99248593
0.99248593
0.99248593
0.99248593
0.99248593
0.99248593
0.99248593
0.99248593
0.99248593
0.99248593
0.99248593
0.99248593
0.99248593
0.99248593
0.99248593
0.99248593
0.99248593
)
;
        value           nonuniform List<scalar> 
92
(
514.42184
514.83766
515.74133
517.07547
511.18822
511.72452
512.89646
514.64063
504.14677
504.91866
506.66923
509.37353
337.49656
334.32462
334.35532
337.55881
385.94698
381.7314
381.83405
386.18585
422.24622
418.12663
418.38616
422.87714
448.56341
444.89787
445.5393
450.17186
492.06405
465.7335
493.10044
463.21143
495.71187
464.73296
500.17909
469.86575
337.53644
337.59558
386.00662
386.24125
422.34771
422.97562
448.47997
450.08877
465.6192
469.7457
337.53641
337.49706
334.3266
334.35306
337.59467
337.55679
386.00704
385.94845
381.73323
381.83163
386.23989
386.1833
422.34799
422.24711
418.12743
418.38516
422.97477
422.87543
448.48091
448.56341
444.89825
445.53987
450.08968
450.17341
465.62065
465.73455
463.21257
464.7335
469.74905
469.86748
492.06507
493.10185
495.7124
500.1798
504.14718
504.91879
506.67071
509.37435
511.18794
511.72434
512.89777
514.64171
514.42124
514.83728
515.74252
517.07661
)
;
        Tnbr            T;
        thicknessLayers List<scalar> 0();
        kappaLayers     List<scalar> 0();
        kappaMethod     fluidThermo;
        kappa           none;
        alphaAni        none;
        alpha           none;
        field           T;
    }
}


// ************************************************************************* //
