/*--------------------------------*- C++ -*----------------------------------*\
| =========                 |                                                 |
| \\      /  F ield         | OpenFOAM: The Open Source CFD Toolbox           |
|  \\    /   O peration     | Version:  v2012                                 |
|   \\  /    A nd           | Website:  www.openfoam.com                      |
|    \\/     M anipulation  |                                                 |
\*---------------------------------------------------------------------------*/
FoamFile
{
    version     2.0;
    format      ascii;
    class       volVectorField;
    location    "70/bottomWater";
    object      U;
}
// * * * * * * * * * * * * * * * * * * * * * * * * * * * * * * * * * * * * * //

dimensions      [0 1 -1 0 0 0 0];


internalField   nonuniform List<vector> 
1460
(
(-0.0013518607 -0.015562154 0.00084906601)
(-0.002981803 -0.016681439 0.00036135691)
(-0.0039200394 -0.01402488 3.5889118e-05)
(-0.0046003391 -0.012478681 0.00039245967)
(-0.0034795784 -0.010780054 0.00063884307)
(-0.0019371752 -0.011552024 0.00080428812)
(-4.2110025e-05 -0.010941464 0.0012625817)
(0.00056753097 -0.010909534 0.0015137811)
(0.0013179212 -0.010474535 0.0014739797)
(0.0026157353 -0.011720107 0.0017298577)
(0.00095979379 -0.014711809 0.0022284734)
(-0.0031090589 -0.015209118 0.0023429127)
(-0.0029345573 -0.011737031 0.0018113936)
(-0.0025771931 -0.012904736 0.00086893919)
(-0.001576303 -0.01190331 0.00091427008)
(0.0014487019 -0.011928374 0.00092217593)
(0.0025516578 -0.012761489 0.00094863233)
(0.0029657507 -0.011660827 0.0018545049)
(0.0031554157 -0.015119623 0.002367759)
(-0.00091233186 -0.014751515 0.0022576577)
(-0.002607736 -0.011750125 0.0017481448)
(-0.0013026389 -0.010475262 0.0014771378)
(-0.00056024907 -0.010913719 0.0015165548)
(4.4845684e-05 -0.010941239 0.0012587633)
(0.0019362396 -0.011550134 0.0008075463)
(0.0034856085 -0.01077577 0.00063783899)
(0.0045961275 -0.012476431 0.00038586501)
(0.00389951 -0.014033049 3.4194307e-05)
(0.0029702788 -0.016702234 0.0003684429)
(0.0013536213 -0.015569113 0.00085441679)
(-0.004028958 0.016686196 0.0022735234)
(-0.0039486222 0.016918265 0.0025834114)
(-0.0036979774 0.014739382 0.0015415959)
(-0.0041495219 0.010711292 0.0019197756)
(-0.0021299384 0.0030134282 0.0021854374)
(-0.0011700496 0.0034736334 0.0014878713)
(0.00069757892 0.0024824719 0.00098645592)
(0.0010249771 0.0037806722 0.0006699693)
(0.0020005112 0.0016262321 0.00012329524)
(0.0043532086 0.0058454575 0.00040689608)
(0.0010784953 0.015532373 0.0021778894)
(-0.006865328 0.014533579 0.0031949039)
(-0.0035015977 0.0040327692 0.0018555346)
(-0.0039460796 0.0078634093 0.0010779301)
(-0.0010070451 0.00066710715 0.00024582705)
(0.00088952738 0.00054296623 0.00026964524)
(0.0038757717 0.007331248 0.0011884453)
(0.0034798485 0.0037404746 0.0018389227)
(0.0068933893 0.014412547 0.0031840962)
(-0.0010134234 0.015565818 0.0021987987)
(-0.0043647554 0.0058957855 0.00042401382)
(-0.0019853068 0.0016372941 0.00011961083)
(-0.0010299865 0.0037977909 0.00067048262)
(-0.0007014332 0.0025153099 0.00098329932)
(0.001167876 0.0034529837 0.0014926363)
(0.0021224677 0.0030278805 0.0021831317)
(0.0041662188 0.010766032 0.0019070699)
(0.0036928143 0.014754448 0.0015372069)
(0.0039371438 0.016912486 0.0025845372)
(0.0040235276 0.016688964 0.002274717)
(-0.00085839865 -0.00024049394 0.002193828)
(0.00041784345 -0.017577568 0.00034482156)
(-0.00072403158 -0.011705903 0.0021339488)
(0.0036798926 -0.012789342 0.0015881291)
(0.0025425838 -0.012084033 0.0020551525)
(-0.00040594852 -0.011742274 0.00019259201)
(-0.0011246271 -0.011779512 -0.0016924296)
(0.00015612168 -0.011839996 -0.0024545066)
(0.0019248262 -0.012471641 -0.0022255846)
(0.00059191165 -0.012513787 -0.0034392166)
(-0.00044601542 0.0016938091 0.00016851482)
(0.0030311701 -0.012556383 0.00089185878)
(-0.00011034309 -0.014106316 0.00020465259)
(-0.0024929491 -0.011170922 0.0024113415)
(0.00067131578 -0.012187391 -0.0007693597)
(-0.0006093549 -0.012206635 -0.0007398048)
(0.0024734603 -0.011098557 0.0023121936)
(2.0764189e-05 -0.014034082 0.00010936325)
(-0.0031315206 -0.012561471 0.00080789627)
(0.00040430103 0.0016631335 0.00016106211)
(-0.00063954751 -0.012514254 -0.0034266674)
(-0.0019110518 -0.012473303 -0.0022298907)
(-0.00016966109 -0.011839831 -0.0024547651)
(0.0011320845 -0.011778735 -0.0016953885)
(0.0003928516 -0.011748193 0.00019697482)
(-0.00257218 -0.012088662 0.0020581911)
(-0.0036876386 -0.012780441 0.0015865271)
(0.00074939836 -0.011655366 0.0021366086)
(-0.00040755424 -0.017595661 0.0003433058)
(0.00085324761 -0.00027842715 0.0021980803)
(0.0026313646 0.0080653523 0.0020450399)
(0.0012816202 0.013867576 -0.0015992255)
(-0.00057761354 0.0021440466 -0.00099945013)
(0.00095043834 -0.00045656696 -0.0013082442)
(-0.00035360262 0.0017162135 -0.00041688907)
(-0.0011684469 0.0052785889 -0.00019732632)
(-0.0013771417 0.00024353499 -0.0011226803)
(-0.00055250933 -0.0022959783 -0.0017846304)
(0.0010250111 -0.00014978266 -0.00047845936)
(-0.000253552 0.0084008668 -0.00087603816)
(0.0010690484 0.0059751572 0.00060953535)
(0.0038102655 0.0098951984 -0.00049491272)
(0.00031477143 0.010238474 0.00030671666)
(-0.00042530858 0.00088493763 -0.00046241041)
(-0.00010681767 -0.0040640905 -0.00099467117)
(0.00010011149 -0.0041366728 -0.00097950841)
(0.00038599282 0.000675914 -0.00051340619)
(-0.00025244361 0.010140742 0.00031321957)
(-0.0037934726 0.0098178825 -0.00047308221)
(-0.0010781383 0.0059524642 0.00060448991)
(0.00023131408 0.0083853972 -0.00086905562)
(-0.0010161538 -0.00017127823 -0.00049256749)
(0.00054377051 -0.0022809794 -0.0017889728)
(0.0013871931 0.00028273998 -0.0011205049)
(0.0011657354 0.0053029015 -0.00018212774)
(0.00035183608 0.0017354886 -0.00040447514)
(-0.00095710432 -0.00047209096 -0.0013206159)
(0.00059011259 0.0021111699 -0.00099716988)
(-0.001256973 0.013893959 -0.001612282)
(-0.0026445715 0.0080701432 0.0020443707)
(-0.001018426 -0.0075006082 -0.0020987468)
(0.0021973097 -0.010516546 -0.0020462867)
(0.0023006317 -0.010134231 -0.0031576315)
(-0.00060531915 -0.010229552 -0.00425248)
(-0.0019160649 -0.007579876 -0.0047961805)
(-0.00019028249 -0.0064908383 -0.0048163578)
(0.0019450089 -0.0074917147 -0.0049297549)
(-0.00059612593 -0.0084264413 -0.0038939084)
(-0.0028564015 -0.0082217234 -0.0037926804)
(-0.0025970915 -0.0083320409 -0.002118797)
(-0.00024148816 -0.0028647136 -0.0018260977)
(0.0018547579 -0.0067528836 -0.0010880321)
(0.0043262302 -0.0070525523 -0.0011216146)
(0.0049220455 -0.0082541787 -0.0025121393)
(0.0030516513 -0.0082968396 -0.0023484021)
(-0.0029496502 -0.0082903876 -0.0023467124)
(-0.0048919281 -0.008250867 -0.0025503466)
(-0.0043451057 -0.0070846963 -0.0011538014)
(-0.0018815312 -0.0066965253 -0.001096952)
(0.00021568784 -0.0028509063 -0.0018319455)
(0.0025764706 -0.0083396421 -0.0021289403)
(0.0028334503 -0.0082321745 -0.0038042953)
(0.00055821465 -0.0084256101 -0.0039060776)
(-0.001942872 -0.007484967 -0.0049322038)
(0.00019467531 -0.006499056 -0.0048143405)
(0.0019284872 -0.007590229 -0.0047913487)
(0.00061682055 -0.010230374 -0.0042577401)
(-0.0023068068 -0.010123037 -0.0031573408)
(-0.0021941829 -0.010498241 -0.0020404955)
(0.001031958 -0.0075351502 -0.0021012408)
(-0.00022388158 -0.014171008 0.0014663504)
(-0.0014047529 -0.015344199 0.00019954339)
(-0.0016964737 -0.015469629 -0.00068900047)
(-0.0031981141 -0.013651104 -0.00020373094)
(-0.0019281028 -0.010908104 0.001180489)
(0.0016220628 -0.011232546 0.0010911888)
(0.0021593367 -0.014317459 0.0016132583)
(0.0019854926 -0.014640501 0.0020743029)
(0.0011900585 -0.014736307 0.0024682124)
(0.00049144327 -0.014619172 0.0026348732)
(-0.0011271399 -0.014802609 0.0023715953)
(-0.0032352358 -0.013488217 0.0026259798)
(-0.0037178232 -0.011968675 0.0025524177)
(-0.0026191338 -0.011371555 0.0017570654)
(-0.00076577803 -0.011112285 0.0024841256)
(0.00071124677 -0.011114057 0.0024683543)
(0.0026357907 -0.011360803 0.0017941269)
(0.0037267466 -0.011919017 0.0025939253)
(0.0032596309 -0.013429926 0.0026541285)
(0.0011497381 -0.014788056 0.0023895986)
(-0.00048442745 -0.014628186 0.0026378465)
(-0.0011855856 -0.01473295 0.0024627902)
(-0.0019840555 -0.014642453 0.0020698976)
(-0.0021573358 -0.01432356 0.0016064525)
(-0.0016203175 -0.011238773 0.0010902874)
(0.0019296644 -0.010912179 0.0011659935)
(0.0031901793 -0.013656172 -0.00022213306)
(0.0016874907 -0.015469893 -0.00069677333)
(0.0013988892 -0.015345087 0.00020125762)
(0.00022088001 -0.014168708 0.0014640992)
(-0.00068524506 0.015675657 -0.00069266743)
(-0.0024697484 0.017010068 -1.1707579e-05)
(-0.0037178786 0.016891151 0.00058574794)
(-0.0045958457 0.014790879 0.0020878245)
(0.0011307327 0.0029134458 0.0024965275)
(0.0016250711 0.0040664528 0.0014036973)
(0.0044889005 0.01398701 0.0042872389)
(0.0030873027 0.015258912 0.0052819093)
(0.0028563117 0.015431497 0.0057145286)
(0.0038622463 0.015644218 0.0057558423)
(-0.0015338035 0.016309428 0.003636177)
(-0.0063719811 0.014627383 0.0034393484)
(-0.0055473398 0.0090229389 0.0021782984)
(-0.0031330572 0.0014574303 0.00037874363)
(-0.00097028051 0.0015668268 0.00083458887)
(0.00093979827 0.0013880777 0.00081887814)
(0.0031509783 0.0014703423 0.00039090029)
(0.0055366728 0.0089409453 0.0021618566)
(0.0063839614 0.01457398 0.0034349254)
(0.0015842196 0.016299532 0.0036426461)
(-0.003854667 0.015650195 0.0057642661)
(-0.0028459493 0.015431516 0.0057157363)
(-0.0030898667 0.015263374 0.0052823727)
(-0.0044902734 0.013996742 0.0042855889)
(-0.0016333662 0.0040928393 0.0014110539)
(-0.0011276257 0.0029419348 0.0024904967)
(0.0045912107 0.01480261 0.0020697152)
(0.0037077867 0.016893411 0.00057849215)
(0.002458691 0.017009903 -1.1682553e-05)
(0.0006794483 0.015673657 -0.00068983195)
(0.00050806673 0.00095133254 0.0013496801)
(-0.00035035283 0.0026939215 0.00061724115)
(-0.00027362843 -0.0035919961 0.0027439833)
(0.0045696079 -0.011812547 0.0017996506)
(0.0045196578 -0.013065236 -0.00045798265)
(-0.0011467818 -0.012701692 -0.0036247205)
(-0.0032048844 -0.011721834 -0.0032146283)
(0.00065188051 -0.0060325177 -0.00057677074)
(0.00090451276 -0.013967045 -0.0035792145)
(0.0010556519 -0.0038603536 -0.00025940857)
(-4.2498404e-05 0.0050724619 0.0012808196)
(-6.7520542e-05 -0.0018819549 0.00032962642)
(0.0033650375 -0.011728383 -0.0036070875)
(-0.00034972347 -0.013413546 -0.0020382579)
(-0.0010018159 -0.012304074 -0.002859267)
(0.0010165569 -0.012314039 -0.002846951)
(0.0003681011 -0.013386336 -0.0021566942)
(-0.0033207406 -0.011715524 -0.0036725026)
(4.0327409e-05 -0.0019261766 0.00027030534)
(3.4587017e-05 0.0050559064 0.0012660423)
(-0.0010772739 -0.0038422187 -0.00024599271)
(-0.00090090933 -0.01395194 -0.0035717884)
(-0.00066659189 -0.0060350088 -0.00057113564)
(0.0031881688 -0.011719844 -0.0032171465)
(0.0011256203 -0.012700147 -0.0036298911)
(-0.0045148847 -0.013064448 -0.00045959558)
(-0.0045628675 -0.011803733 0.0018073332)
(0.00027397008 -0.0035802637 0.0027434133)
(0.00034708875 0.0026838444 0.00062205344)
(-0.00050915576 0.00092825032 0.0013528309)
(0.00079137961 0.007610276 0.0034355369)
(0.00081118248 0.00749011 0.0019742704)
(0.0030664466 0.0049681191 0.0026022755)
(0.0044804337 0.0076757624 0.002488118)
(0.0032604654 0.009317877 0.00085480256)
(0.0018387132 0.0097514259 -0.0017583001)
(-0.0025032417 0.009032269 -0.0023313558)
(-0.00014156612 0.0037632979 -0.003072761)
(-0.00011583781 0.010887844 -0.0026118245)
(-0.0028313791 0.0075203767 -0.0022204196)
(0.00016529501 0.0085080651 0.00049556976)
(0.002217938 0.0063972061 -0.0014795096)
(0.0041407043 0.0083232354 -0.0015084214)
(-0.00084208307 0.0090533246 0.0016799807)
(0.0010953198 -0.0031648693 -0.0015428468)
(-0.0011077727 -0.0033415705 -0.0015562502)
(0.00090017738 0.0089581017 0.0017183559)
(-0.0041169144 0.0082911461 -0.0014875652)
(-0.0022132492 0.006375847 -0.0014834968)
(-0.00017171517 0.0084910201 0.00048659583)
(0.002817413 0.0075175004 -0.002232999)
(0.00012285971 0.010890111 -0.0026131707)
(0.00014284529 0.0038069761 -0.0030722112)
(0.0024939761 0.0090481226 -0.0023476462)
(-0.001856939 0.0097572712 -0.0017629889)
(-0.0032571716 0.0093240065 0.00085273207)
(-0.0044811714 0.0076866857 0.0025004667)
(-0.0030583062 0.0049693285 0.0026119422)
(-0.00080400688 0.0074893977 0.0019747822)
(-0.0007911829 0.0076094155 0.0034369093)
(0.00066932178 0.0010779184 0.0011067534)
(0.0024063372 -0.0026557238 -0.0007684249)
(0.00096584674 -0.0084219522 -0.003749457)
(-0.0016030278 -0.0095246458 -0.0044688611)
(-0.0014222007 -0.0043909851 -0.0038293023)
(0.00058213989 -0.001518871 -0.0035371188)
(0.002216547 -0.006045428 -0.0039888577)
(-0.00015725963 -0.0083218939 -0.0042641304)
(-0.0020880015 -0.006742394 -0.0036624701)
(-0.0016551754 -0.0032337965 -0.0028089952)
(0.00030777083 0.0017084045 -0.0016013136)
(0.002673356 -0.0029278762 -0.0023328824)
(0.0036939274 -0.0052502947 -0.0025600237)
(0.0046749229 -0.0075531271 -0.0037184585)
(0.0047647388 -0.0086789319 -0.0038743066)
(-0.0046687994 -0.0086938956 -0.0038867283)
(-0.0046993419 -0.0075750216 -0.003758021)
(-0.0036970729 -0.0051618491 -0.002568296)
(-0.0026820203 -0.0029121599 -0.0023396575)
(-0.00032169082 0.0017028851 -0.001613542)
(0.0016375774 -0.0032293531 -0.0028271053)
(0.0020712518 -0.0067676383 -0.0036719778)
(0.00013589091 -0.0083161334 -0.004268664)
(-0.0022044294 -0.0060132894 -0.0039861396)
(-0.00057963353 -0.0015193608 -0.0035346185)
(0.001429507 -0.0043944556 -0.003824032)
(0.001608029 -0.0095271427 -0.0044729653)
(-0.00096030456 -0.0084169564 -0.0037532433)
(-0.0024007576 -0.0026619364 -0.00076397724)
(-0.00066526825 0.0010670693 0.001106342)
(0.00042822697 -0.012991748 -0.0021282646)
(-0.00012193454 -0.013405984 -0.0031752109)
(-0.00018365345 -0.013310123 -0.0035120792)
(-0.0012395679 -0.014155577 -0.0026812685)
(-0.001518023 -0.015181218 -0.0012586067)
(-0.0007010093 -0.014999421 -0.00020099171)
(-0.00093275614 -0.014907028 -0.00058006223)
(-0.00070444903 -0.014938283 -0.00052121337)
(-0.00058327498 -0.014722627 0.00099629013)
(-0.00066250294 -0.014871443 0.0012195617)
(-0.00051970172 -0.015591807 0.0024830484)
(-0.00091276076 -0.013917246 0.0024571185)
(-0.0017362816 -0.012877695 0.0028783567)
(-0.001161783 -0.013913049 0.0034719716)
(7.7132708e-05 -0.013268337 0.0037484743)
(-5.4195673e-05 -0.013203233 0.0037669871)
(0.0011646962 -0.013898596 0.003474602)
(0.0017379874 -0.012850031 0.0029065393)
(0.0009101924 -0.013874406 0.0024839931)
(0.00051875453 -0.01561056 0.002537623)
(0.00067205203 -0.014915915 0.0012860784)
(0.0005936194 -0.014735323 0.001005237)
(0.00071481857 -0.014939759 -0.00052113742)
(0.00093991538 -0.014904589 -0.00058709718)
(0.00070710243 -0.015004031 -0.00021611759)
(0.0015189123 -0.015183215 -0.0012731361)
(0.0012358274 -0.014161925 -0.0026902435)
(0.00017834701 -0.013307783 -0.0035183948)
(0.00011832181 -0.013406908 -0.0031794623)
(-0.00042911057 -0.012979831 -0.0021375508)
(0.00079626058 0.014532672 -0.0033940811)
(0.0020416592 0.014642881 -0.0050733147)
(0.0030302993 0.014228407 -0.0039596224)
(0.0042378935 0.015616568 -0.0014377943)
(0.0034239654 0.01567343 0.0020573005)
(0.0012338204 0.015505385 0.0038550856)
(0.00075234122 0.016235757 0.0013347627)
(0.00011298682 0.016268051 -0.00097441695)
(0.00073029648 0.016288214 0.001427546)
(0.0016408622 0.016286254 0.0016224315)
(-0.00088468388 0.016718728 0.0015489731)
(-0.0037227163 0.015415879 0.0027277618)
(-0.004564414 0.014286474 0.0030871355)
(-0.0030180219 0.011719297 0.0025108642)
(-0.00088235196 0.012595541 0.0038498598)
(0.00092403191 0.012481788 0.0038440452)
(0.0030054708 0.011776493 0.0025646643)
(0.0045361207 0.014273069 0.0031215233)
(0.0037501926 0.015389826 0.0027668526)
(0.0009519392 0.016730626 0.0016022496)
(-0.0016332082 0.016317805 0.0016763347)
(-0.00072818061 0.016297632 0.0014248783)
(-0.00011966316 0.016267389 -0.00095594651)
(-0.00074972997 0.01623564 0.0013255733)
(-0.0012399901 0.015513522 0.0038361028)
(-0.0034369239 0.015681157 0.0020406455)
(-0.0042475395 0.01562064 -0.0014413407)
(-0.0030270476 0.014223301 -0.0039564392)
(-0.0020432974 0.014642611 -0.0050717424)
(-0.00079820845 0.014519343 -0.0033869532)
(0.00086515018 -0.012102122 0.0033682815)
(0.00021577566 -0.013548596 0.0056247525)
(-0.0015676069 -0.01406196 0.0049050419)
(5.2818226e-05 -0.010299864 0.00023142197)
(0.001531158 -0.0020634813 -0.00084571752)
(0.0013471609 -0.0014657308 5.5404355e-05)
(0.0015182455 0.00034015592 0.00042759896)
(0.0011145608 0.00049566052 0.00021923457)
(0.00041548344 -0.00081421912 0.00059551093)
(-3.1447298e-06 0.00056508215 0.0019853217)
(-0.00092760168 0.0042156491 0.001870992)
(-0.00098831609 0.0016127771 0.00055514072)
(0.0002165003 -0.0041783152 -0.0025283124)
(-0.00047119343 -0.015090195 -0.0046030192)
(-0.0021126904 -0.013649637 -0.0035056011)
(0.0020822586 -0.01357513 -0.0034796782)
(0.00048418347 -0.015031193 -0.0046835921)
(-0.00021228463 -0.0043021234 -0.0026136209)
(0.00097861396 0.0015449949 0.00052418435)
(0.00094224726 0.0042317961 0.0018769406)
(8.4780905e-07 0.0006918638 0.0019783344)
(-0.00041175864 -0.00078959408 0.00059611805)
(-0.0011165905 0.0004779122 0.00021647394)
(-0.0015145438 0.00034989843 0.00042359722)
(-0.0013520217 -0.0014317356 5.5207092e-05)
(-0.0015360197 -0.0020540322 -0.00085236593)
(-4.8495444e-05 -0.010368898 0.00024077596)
(0.0015636915 -0.014064842 0.0049128657)
(-0.00021986692 -0.013546599 0.0056271306)
(-0.00086867896 -0.012099561 0.0033735215)
(0.0011707406 0.010669541 0.0034122682)
(0.00025248164 0.011758839 0.0044724619)
(-0.0023170244 0.011153779 0.0014298481)
(-0.003149761 0.010035219 -0.0010107135)
(-0.0012143359 0.0073703568 -0.0035910072)
(-0.00027452996 0.0072517886 -0.0024076325)
(-0.00053439362 0.0069992156 -0.00065687928)
(0.00039235907 0.0070720837 0.00023262952)
(0.001171071 0.0065040696 -0.00074479831)
(1.0767539e-05 0.0069667068 0.001848378)
(0.00028894969 0.0082183064 0.0023220596)
(0.002081257 0.0075902176 -0.00023622893)
(0.0042661513 0.0071162205 -0.0021490876)
(0.0027312287 0.010121149 0.00021053675)
(5.120908e-05 0.002862527 -0.00087600922)
(-0.00014814741 0.002635097 -0.00093745322)
(-0.002719199 0.010106602 0.00011105365)
(-0.0042346391 0.0071278921 -0.002172525)
(-0.0020943831 0.0075616305 -0.0002527696)
(-0.00030405706 0.008225515 0.0023144099)
(-1.2815185e-05 0.0069826312 0.0018599862)
(-0.0011385232 0.0065013022 -0.00073741583)
(-0.00038924253 0.0070699542 0.00022602522)
(0.00052723546 0.0069991276 -0.00065942694)
(0.00026804393 0.0072495847 -0.0024032009)
(0.0012308799 0.0073688336 -0.0035954209)
(0.0031640114 0.010067705 -0.0010235085)
(0.0023108255 0.011162012 0.0014278385)
(-0.00025418305 0.011760667 0.0044698025)
(-0.001167264 0.010642776 0.0034032177)
(-0.0016890977 -0.010550549 0.0030637219)
(-0.00083218572 -0.0049444838 0.0022646686)
(-0.00084208472 -0.0058271014 -0.001486901)
(-0.0013168756 -0.0058106593 -0.002774809)
(-0.0013271218 -0.0015586456 -0.0032596879)
(0.00024220482 -0.00052374542 -0.0024463518)
(0.0010206914 -0.00090326979 -0.0015854553)
(0.00042719789 -0.0037455459 -0.0025501056)
(-0.0015137087 -0.0021598263 0.00042589356)
(-0.0015818263 0.00064868417 0.000216368)
(0.0001206882 0.0029160525 0.0014904964)
(0.0026907252 0.00042954057 -0.00084533891)
(0.0033965936 -0.0029985823 -0.0019283627)
(0.003935961 -0.0048331717 -0.0025567748)
(0.0042759932 -0.0087723454 -0.0033838618)
(-0.0041995173 -0.0087539049 -0.0034376911)
(-0.0039371952 -0.0047983408 -0.0025507742)
(-0.0033916365 -0.0030226318 -0.0019211836)
(-0.0027073061 0.00040497716 -0.00084209062)
(-0.00015255143 0.0029278238 0.0014831922)
(0.001567164 0.00069611249 0.00020716153)
(0.0015095118 -0.0021316805 0.00040362651)
(-0.00042474911 -0.0037075446 -0.0025440083)
(-0.0010158658 -0.00089469445 -0.0015822839)
(-0.00023581732 -0.0005215723 -0.0024388513)
(0.0013303551 -0.0015791461 -0.0032521867)
(0.0013113943 -0.0058128136 -0.002766049)
(0.00084885008 -0.0057939431 -0.00147349)
(0.00084218101 -0.0049421051 0.0022641133)
(0.0016964612 -0.010540679 0.0030634383)
(-0.00099612447 -0.012691522 -0.0036994849)
(-0.00074262821 -0.011170708 -0.0023423765)
(0.0020128599 -0.010766401 -0.0014350748)
(0.002665594 -0.012971521 -0.002716055)
(0.00036704718 -0.015982785 -0.0029804274)
(-0.00088237307 -0.014886111 -0.002735668)
(-0.0019838317 -0.013337557 -0.0035602394)
(-0.0014631123 -0.014457469 -0.0037951332)
(-0.0011226428 -0.012863987 -0.0034950012)
(0.00035701377 -0.011590395 -0.0027761184)
(0.0018573766 -0.012357231 -0.0025739155)
(0.0013066838 -0.013659175 -0.00097212789)
(0.0006992033 -0.015242886 -0.0013208495)
(0.00030531736 -0.016434228 -7.4359597e-05)
(6.6283511e-05 -0.014518748 0.00054994872)
(-7.6637752e-05 -0.014602937 0.00065602122)
(-0.00030475315 -0.01641427 -7.4833923e-05)
(-0.00068021613 -0.015218971 -0.0012962745)
(-0.0012902917 -0.013637761 -0.00095111879)
(-0.0018282936 -0.012357761 -0.0025621994)
(-0.00035756538 -0.011698436 -0.0027821178)
(0.0010863563 -0.012892075 -0.0034938018)
(0.001458775 -0.014465449 -0.0037943435)
(0.0019829317 -0.013340913 -0.0035623331)
(0.00088401177 -0.014882321 -0.002742105)
(-0.00036726357 -0.01598535 -0.0029840616)
(-0.0026687418 -0.012976765 -0.0027191911)
(-0.0020142103 -0.010769332 -0.0014381451)
(0.00073530337 -0.011176465 -0.0023459875)
(0.00098640121 -0.012689018 -0.0037008543)
(-0.001754414 0.012949139 -0.0027075153)
(0.0024073911 0.0017519843 0.0017793075)
(0.0020460985 -0.00097116639 0.0020202328)
(0.0066316235 0.012615455 0.0017437034)
(0.003042896 0.017120151 -0.00029559733)
(-0.0040539848 0.016162004 -0.0041339498)
(-0.0036875812 0.014065082 -0.0053720093)
(-0.0022800497 0.012934937 -0.005416182)
(-0.0015569873 0.012524268 -0.0058378775)
(0.0017845754 0.0089069585 -0.0029528409)
(0.003731227 0.013005575 -0.0045855559)
(0.0032543228 0.01518182 -0.0030689064)
(-0.0027216243 0.016697307 -0.00076560855)
(-0.0029324222 0.017472795 0.00080772672)
(-0.0012142627 0.015740418 0.0012054994)
(0.0012918246 0.015843109 0.0012800151)
(0.0028681552 0.017458063 0.00087719028)
(0.0026053972 0.016675599 -0.00074015802)
(-0.0032296045 0.015169026 -0.0030615821)
(-0.0036923586 0.013034371 -0.0046069086)
(-0.0017855799 0.0091840524 -0.0030608747)
(0.001508507 0.012545762 -0.0058435727)
(0.0022699444 0.01290527 -0.005397395)
(0.0036854746 0.014063554 -0.0053723478)
(0.0040523803 0.016156891 -0.0041391876)
(-0.0030468199 0.017122949 -0.00029821102)
(-0.0066328125 0.012619576 0.0017441036)
(-0.0020457733 -0.00097139166 0.0020173001)
(-0.0024000168 0.0017671602 0.0017783906)
(0.0017449741 0.012922017 -0.0026907425)
(0.0027445031 -0.012448185 0.0029989482)
(0.0041266008 -0.013886916 0.0043277506)
(-0.002533667 -0.014228873 0.0030517564)
(-0.0046187561 -0.010967216 0.00021049942)
(0.00011191768 0.0053760627 -0.00019887626)
(-0.0025675972 0.0033732863 -0.0017032497)
(0.00068681262 -0.0085852096 0.00075482083)
(-0.00076039988 -0.014456816 0.0037313941)
(0.000278628 -0.012610367 0.0035731983)
(0.00032023276 -0.012106091 0.0046676299)
(-0.0020131257 -0.007290395 0.0037231317)
(0.00040283203 0.0028137705 -0.00066125226)
(-0.0021435344 0.002520389 -0.0011430102)
(-0.0010858911 -0.011965626 -0.0013491053)
(-0.0028325318 -0.011428028 -0.0006692496)
(0.0028994011 -0.011221591 -0.0006326585)
(0.0010956117 -0.011446024 -0.0013746327)
(0.0021069642 0.0024061158 -0.0011513728)
(-0.00038295572 0.0027120106 -0.00067456705)
(0.0019465112 -0.0072388653 0.0036837804)
(-0.00028042644 -0.012115772 0.0046923307)
(-0.00021121023 -0.0126349 0.0035797731)
(0.00075596991 -0.014467377 0.0037375316)
(-0.00067566353 -0.0086298045 0.00076027184)
(0.0025663257 0.0033639363 -0.0017042031)
(-0.00011241532 0.0053618923 -0.00020632931)
(0.0046247638 -0.010981216 0.00020013321)
(0.0025352625 -0.014235625 0.0030444946)
(-0.0041241855 -0.013889634 0.0043298579)
(-0.0027369781 -0.012451506 0.0029991251)
(-0.00062288002 0.00050066894 0.001453058)
(0.0022183692 0.0097321517 0.0010339592)
(-0.0011369852 0.009843099 2.4341826e-05)
(-0.0037900861 0.008946972 -0.0021872925)
(-0.00140523 0.0078571731 -0.0012578511)
(0.00094478043 0.0076543644 -0.00033028013)
(0.0020285445 0.0086652109 0.0012633479)
(0.00025213563 0.010124611 0.0019536198)
(0.00022089509 0.0056284473 0.0017973217)
(-0.0014077352 0.0097897421 0.0026408862)
(-0.0031315004 0.0083533533 0.0026243916)
(-0.00057751932 0.0075633333 -0.00043800708)
(0.0019446969 0.0077928646 -0.0023860719)
(0.0032024315 0.011716855 -0.0001055899)
(-0.0022958563 0.0034100041 8.7926513e-05)
(0.0023455415 0.0037883933 6.9037008e-05)
(-0.003148782 0.01149811 -0.00022561037)
(-0.0018758324 0.0077433464 -0.002417428)
(0.00061343263 0.0075414532 -0.00045811251)
(0.0031233447 0.0083305937 0.0026121556)
(0.0014461042 0.0098334076 0.0026657571)
(-0.00023262469 0.0057493447 0.0017982929)
(-0.00024436151 0.01013311 0.0019482935)
(-0.002029109 0.0086868853 0.0012632589)
(-0.00095850092 0.0076524755 -0.00033016737)
(0.0014016508 0.0078506383 -0.0012635615)
(0.0037882256 0.0089509315 -0.0021971755)
(0.0011383675 0.0098484726 1.0806021e-05)
(-0.0022181521 0.009738678 0.0010224428)
(0.00062676597 0.00048837309 0.0014481974)
(-0.0037628773 -0.009755067 0.0041234169)
(-0.0035848954 -0.0080764354 0.0036795171)
(-0.003147181 -0.0059910868 0.0015328664)
(-0.0027767532 -0.005214046 -3.1202617e-05)
(-0.0015546529 0.00071268594 -0.00070366554)
(0.0014843554 0.00029870991 -0.00047533359)
(0.0021330438 -0.0046682348 0.0017044723)
(0.0019856312 -0.010974988 0.0027912113)
(-0.0027707178 -0.0083196584 0.0032425659)
(-0.0026873226 -0.0031746285 0.0031279291)
(-0.0013616468 -0.0017612522 0.0030554373)
(0.00053181123 -0.00018171122 0.001385104)
(0.00096585707 -0.00019699977 -0.0006229971)
(0.0030848246 -0.0026649713 -0.00076533668)
(0.0039577184 -0.0082390464 -0.0007701791)
(-0.004077528 -0.0081400312 -0.00086500902)
(-0.0029848361 -0.0024713831 -0.0007712905)
(-0.00098014944 -0.00031317045 -0.00061396762)
(-0.00055155646 -0.00022231589 0.0013780948)
(0.0013235165 -0.0017708963 0.0030591954)
(0.002662845 -0.003124783 0.003134722)
(0.0027752429 -0.0083276747 0.0032471395)
(-0.001948654 -0.011000671 0.0028061013)
(-0.0021294668 -0.0047016545 0.0017174446)
(-0.0014692202 0.00028778143 -0.00046894677)
(0.001559512 0.00067495019 -0.00069826035)
(0.0027710126 -0.0052580141 -1.9185469e-05)
(0.003139391 -0.0060199106 0.0015401992)
(0.0035840487 -0.0080881389 0.0036844153)
(0.0037639337 -0.0097528619 0.0041237273)
(0.00054470426 -0.010774009 -0.0012402551)
(0.0019520453 -0.011766961 -0.00067974367)
(0.0030005979 -0.014733184 -0.0001390541)
(0.0027554839 -0.016853254 -0.00088401451)
(-0.00094061282 -0.016817007 -0.0016062219)
(-0.0036277055 -0.013453204 -0.0018474837)
(-0.0036801256 -0.010611029 -0.0020160614)
(-0.0021188568 -0.011643695 -0.0020365751)
(-0.00039686715 -0.01157064 -0.0018582051)
(0.0014405355 -0.011693178 -0.0019837569)
(0.0028771538 -0.010908267 -0.0014958876)
(0.003767608 -0.01216425 -0.0010711198)
(0.0013965121 -0.014228421 -0.0010192415)
(-0.0013885413 -0.01423015 -0.0010367477)
(-0.0037624526 -0.012156839 -0.0010778063)
(-0.0028756523 -0.010897992 -0.0015022666)
(-0.0014441535 -0.011681141 -0.0019962057)
(0.00038715338 -0.011571334 -0.0018587255)
(0.00211416 -0.011646056 -0.0020367198)
(0.0036768728 -0.010617142 -0.0020195705)
(0.0036263189 -0.013457597 -0.0018536948)
(0.00094895444 -0.016823475 -0.0016137542)
(-0.0027525371 -0.016860846 -0.00089211377)
(-0.0029995834 -0.014739738 -0.00014155882)
(-0.0019540552 -0.011767189 -0.00067839502)
(-0.0005463769 -0.010775797 -0.0012348783)
(0.00082896036 0.00045405773 7.2444268e-05)
(0.0040325386 0.0030686799 0.00043265436)
(0.0069983846 0.010663162 0.0011122694)
(0.0081076549 0.016825025 0.0010538489)
(-0.00080064383 0.017764798 -0.00074939472)
(-0.0056553924 0.012369188 -0.0010225884)
(-0.0030876522 9.533852e-05 -0.00030721174)
(-0.0021010756 -0.0012190743 -0.00052815895)
(-0.0010538135 -0.0014299923 0.00012834144)
(0.0014810406 0.00081564534 -0.0010385633)
(0.0017814558 -3.1257651e-05 0.00033796832)
(0.0052154193 0.011872341 -8.4992022e-05)
(0.0031147122 0.015441777 -0.0007920233)
(-0.0031075121 0.015446254 -0.00079294419)
(-0.00521054 0.011896227 -8.5921324e-05)
(-0.0017685011 -7.4886177e-06 0.00035603618)
(-0.001483385 0.00080535344 -0.0010176488)
(0.0010389675 -0.0014256051 0.00012998867)
(0.0020941456 -0.0012244256 -0.00052568224)
(0.0030984275 9.4897169e-05 -0.00030811371)
(0.0056383623 0.01233977 -0.0010208478)
(0.0008131383 0.017765951 -0.00075196994)
(-0.0081058006 0.01683407 0.0010589638)
(-0.0070050041 0.010683037 0.0011178972)
(-0.0040354134 0.0030658074 0.0004355542)
(-0.00083356517 0.00045243174 6.8648635e-05)
(2.0677295e-06 -0.011906613 0.0023026105)
(0.002776241 -0.011682167 0.00061041471)
(-0.00074660872 -0.013705796 -0.0010041493)
(0.003479485 0.0023672959 -0.0006691062)
(0.00061026673 0.0049378764 -0.0012509408)
(0.0044832292 -0.011768838 0.0008402759)
(0.00049970687 -0.012487712 0.0014682391)
(-0.00058913921 -0.012549746 0.0015458305)
(-0.00065714037 -0.012771932 0.0025654848)
(0.00063305013 -0.011968205 0.0017781684)
(-0.0029971138 -0.013020289 0.0031265891)
(-0.0047965116 -0.011776709 0.0021203399)
(0.00051816327 -0.00032858098 0.00037843553)
(-0.00052231446 -0.0003194437 0.00040295391)
(0.0048020145 -0.011771189 0.0021513599)
(0.0030059366 -0.013016172 0.0031553662)
(-0.00062226752 -0.011985228 0.0018443232)
(0.00066154002 -0.01277046 0.0025645588)
(0.00058754596 -0.012557908 0.0015578348)
(-0.0004799387 -0.012487986 0.0014688878)
(-0.0044723374 -0.011782667 0.00085039806)
(-0.00060698957 0.0049155418 -0.001251797)
(-0.0034769803 0.0023785278 -0.00066470368)
(0.00074244745 -0.013706294 -0.00099960796)
(-0.0027710148 -0.01168501 0.00061371687)
(-2.3760368e-06 -0.011905947 0.0022981063)
(-0.00079428279 -0.0035219631 0.0011418174)
(0.0021921496 0.0013759449 0.0006508524)
(-0.00054203307 0.0090028234 0.00077038958)
(-0.00092713575 0.0072521986 -0.0024883374)
(0.0020826071 0.0077291778 -0.0015692179)
(0.0030421973 0.010027561 0.00081150329)
(-0.0025734197 0.0030156448 -0.00036479984)
(0.00013600802 -0.0022646501 0.0009439692)