/*--------------------------------*- C++ -*----------------------------------*\
| =========                 |                                                 |
| \\      /  F ield         | OpenFOAM: The Open Source CFD Toolbox           |
|  \\    /   O peration     | Version:  v2012                                 |
|   \\  /    A nd           | Website:  www.openfoam.com                      |
|    \\/     M anipulation  |                                                 |
\*---------------------------------------------------------------------------*/
FoamFile
{
    version     2.0;
    format      ascii;
    class       volScalarField;
    location    "540/bottomWater";
    object      p_rgh;
}
// * * * * * * * * * * * * * * * * * * * * * * * * * * * * * * * * * * * * * //

dimensions      [1 -1 -2 0 0 0 0];


internalField   nonuniform List<scalar> 
1460
(
0.31384113
0.30903865
0.3278018
0.28832432
0.3068111
0.29948656
0.3026874
0.30432885
0.30034221
0.29965515
0.30414329
0.30313622
0.29531513
0.29793835
0.29993286
0.30090687
0.30387533
0.28961994
0.30772324
0.30835226
0.31173423
0.32475889
0.31628304
0.30980222
0.31588054
0.29092155
0.32358415
0.3134869
0.31090112
0.31484181
-0.27418592
-0.2607306
-0.22939185
-0.25063325
-0.25990558
-0.27011278
-0.27605633
-0.27897632
-0.27715086
-0.25224628
-0.21642104
-0.23154085
-0.25138416
-0.27268938
-0.27169743
-0.25516818
-0.26433733
-0.25690102
-0.21924041
-0.19259962
-0.18821963
-0.19925327
-0.25105056
-0.27588662
-0.27136018
-0.25622443
-0.2213689
-0.25710014
-0.29127479
-0.27562755
0.081205713
0.059230807
0.032322008
0.074934039
0.090859343
0.11540317
0.10566889
0.11517337
0.088010534
0.051865552
0.053375709
0.072387146
0.070935769
0.089330251
0.10419121
0.10431063
0.089161697
0.057419328
0.028127993
0.060528706
0.060605486
0.069897836
0.074187566
0.088583093
0.10353204
0.076976209
0.053948318
0.076300737
0.079349622
0.14334151
-0.028825886
-0.096879875
-0.064258547
-0.090224056
-0.038964257
-0.03748852
-0.042394179
-0.025888638
-0.058705681
-0.067208163
-0.05714046
-0.050520675
-0.08007345
-0.059136038
-0.041213086
-0.068283632
-0.042349489
-0.065366667
-0.052504627
-0.046094544
-0.027804101
-0.016267403
-0.060326937
-0.03337845
-0.036461394
-0.081721005
-0.074974818
-0.090738624
-0.055570302
-0.040071597
0.028525147
0.023211138
0.010074025
-0.017176433
-0.011863283
-0.00027161862
0.0046133483
0.015093415
0.02516508
0.023966496
0.0054856093
-0.0053327569
0.01348283
0.012876312
0.020077154
0.040459453
0.014379015
0.016015648
-0.0054464562
-0.020611181
-0.016695077
-0.010097044
-0.021668358
-0.0116537
-0.010676186
-0.0034884815
0.015957573
0.024414929
0.021881548
0.03217192
0.31747463
0.31000059
0.32949947
0.30799804
0.3128064
0.29822808
0.29644896
0.30571231
0.30838584
0.30608459
0.31035481
0.31272692
0.30672689
0.3128858
0.29906053
0.30141578
0.30549723
0.30253799
0.30322276
0.29796701
0.30781858
0.31860706
0.32569354
0.31415329
0.31964371
0.3147541
0.31862532
0.32465925
0.31027639
0.31478477
-0.27983632
-0.27544436
-0.20712463
-0.20416403
-0.2344864
-0.26484253
-0.27980735
-0.28727756
-0.28864231
-0.29571765
-0.26221731
-0.22242565
-0.21573043
-0.2455081
-0.26343021
-0.28240194
-0.28532535
-0.28423192
-0.27718118
-0.2642004
-0.24022443
-0.21930213
-0.23657663
-0.26544167
-0.28963181
-0.27005053
-0.23297589
-0.2167118
-0.27432628
-0.2754799
0.085745003
0.042862641
0.033197307
0.037276383
0.054786881
0.076977722
0.058466321
0.095928212
0.12219849
0.07393943
0.052899965
0.056859091
0.057407799
0.045980088
0.065628774
0.092321898
0.1017185
0.091530552
0.069109064
0.050016069
0.04342547
0.065355162
0.047343202
0.091913335
0.071227246
0.10318152
0.064831682
0.043085599
0.055963299
0.091809266
-0.031175216
-0.11120276
-0.066610252
-0.099503475
-0.053933163
-0.061372309
-0.092681807
-0.048505948
-0.037202959
-0.047512586
-0.098761148
-0.057114926
-0.066795847
-0.093584544
-0.089642349
-0.039722659
-0.03395877
-0.035888308
-0.052361597
-0.084801122
-0.049585924
-0.058691397
-0.077363327
-0.089675132
-0.040757484
-0.062772152
-0.058806835
-0.080752856
-0.085783346
-0.053381461
0.034603592
0.025237936
0.016555956
-0.0041846292
-0.014301687
0.0061597395
0.020252521
0.025800032
0.037215759
0.02143228
0.015891303
0.0017491364
0.0032217719
0.020809944
0.021747816
0.014782985
0.030951
0.023170464
0.011776102
0.0079472616
-0.00079238632
-0.0093446321
0.0039804869
0.026306561
0.014356659
-0.00017693434
-0.010848669
0.0042856516
0.013151899
0.012562254
0.30920317
0.30067493
0.31989731
0.29769606
0.31774807
0.30888047
0.31212817
0.30246785
0.30888019
0.3098003
0.3065281
0.3130556
0.30479845
0.31081596
0.29992778
0.29700602
0.29876483
0.29317218
0.30239154
0.29543902
0.29401812
0.29447148
0.29996262
0.30280516
0.31573086
0.31941881
0.31138206
0.31904236
0.31733685
0.31538841
-0.27353785
-0.26312386
-0.2108977
-0.20986574
-0.19249831
-0.20041523
-0.22615838
-0.27094819
-0.2830146
-0.27271731
-0.25042432
-0.21623553
-0.20699712
-0.2182681
-0.24290561
-0.27437539
-0.25452253
-0.25824492
-0.27521112
-0.27255952
-0.26726996
-0.26077627
-0.25430048
-0.25372242
-0.22544332
-0.19296422
-0.21902211
-0.20595771
-0.23731096
-0.25432814
0.07369149
0.045047624
0.034152532
0.079847218
0.054019043
0.064652032
0.03269211
0.060345867
0.087150206
0.083592336
0.067410809
0.03937296
0.070723007
0.055819578
0.05594353
0.080794693
0.094519473
0.096742284
0.10178932
0.097012737
0.077971476
0.081973763
0.087673365
0.078267269
0.045253244
0.050308887
0.084804726
0.073317801
0.063553856
0.084099257
-0.03533857
-0.10591796
-0.073647762
-0.075308582
-0.025875248
-0.05261198
-0.077960465
-0.077605763
-0.049208462
-0.041699816
-0.096893377
-0.081927958
-0.06879971
-0.06079967
-0.11922085
-0.060377962
-0.11529713
-0.095357851
-0.055900337
-0.047738496
-0.082938039
-0.09847348
-0.10362478
-0.089523252
-0.097251939
-0.088251628
-0.061360068
-0.049271415
-0.078836681
-0.088525522
0.022641608
0.015059275
0.00096605236
-0.029332119
-0.0064449969
-0.0019524606
0.022001958
0.031807294
0.02266429
0.011864551
0.012207517
-0.011809693
-0.01884106
-0.02011893
0.00054681562
0.00085619603
0.037324469
0.036114692
0.013212582
0.017441799
0.0051878712
0.0032944172
0.02166829
0.037183477
0.016999215
-0.009071971
-0.02027586
-0.01626007
-0.019607812
0.0072500986
0.31203786
0.30483502
0.31735324
0.31403766
0.31896466
0.30503059
0.31587668
0.30774968
0.30803496
0.31848077
0.31188611
0.31994776
0.31740684
0.32297096
0.3060456
0.29492875
0.32262439
0.30867764
0.30841795
0.31267805
0.3082958
0.31171738
0.30908877
0.3079146
0.3114915
0.32588923
0.30913645
0.30559061
0.30456561
0.30783163
-0.27680745
-0.26777357
-0.22216682
-0.20438371
-0.19722589
-0.19910251
-0.2105951
-0.2542713
-0.27353089
-0.23150088
-0.26230318
-0.27462974
-0.2230809
-0.20092895
-0.21635419
-0.25731035
-0.20174209
-0.22891325
-0.26910306
-0.28823149
-0.28887083
-0.2911988
-0.2935123
-0.29914518
-0.27481857
-0.20707651
-0.23572469
-0.2607477
-0.27311786
-0.27929049
0.072366147
0.041130619
0.036588279
0.054281526
0.047764393
0.0807243
0.039805726
0.060766641
0.075997933
0.0369814
0.086623954
0.065444905
0.060452573
0.06010757
0.07397936
0.088955568
0.049794848
0.066632105
0.08880511
0.10830524
0.10482579
0.09200844
0.093841873
0.061548862
0.044561149
0.026963634
0.053948494
0.08664979
0.081843538
0.12282252
-0.040345267
-0.0990039
-0.063591483
-0.044781849
-0.016640012
-0.064091608
-0.06605104
-0.090400212
-0.040460335
-0.070011848
-0.057994178
-0.030317997
-0.042064204
-0.01343944
-0.059127921
-0.06814019
-0.086568001
-0.07604736
-0.089011786
-0.036102876
-0.036368706
-0.025728198
-0.036680216
-0.046419354
-0.075491131
-0.072476071
-0.059694681
-0.052771935
-0.060622974
-0.040043641
0.011918161
0.0077224501
-0.013741905
-0.017949546
-0.0068069889
-0.01834312
0.0073136993
0.015840654
0.010061726
0.0031961014
-0.0049352028
-0.018611981
-0.020947203
-0.0052952479
-0.030997616
-0.012997108
0.010270732
0.020675189
0.018317214
0.024364959
0.01743641
0.022534859
0.019764841
0.010441596
0.0058072739
0.0047824405
-0.010872444
-0.0066126107
0.010210715
0.023035746
0.30374537
0.29829169
0.30983547
0.2898855
0.2999797
0.31231387
0.2981432
0.30469411
0.30492634
0.31628384
0.31686308
0.30469317
0.29834951
0.29294226
0.29578039
0.28957461
0.3057296
0.29614817
0.306435
0.30723381
0.30858801
0.30828048
0.31386452
0.30227767
0.30852497
0.30686184
-0.27649192
-0.26803451
-0.23633353
-0.25601786
-0.24581782
-0.21685568
-0.25186344
-0.27576195
-0.24840664
-0.21387924
-0.21715952
-0.25583445
-0.27175924
-0.26423759
-0.26742048
-0.25977953
-0.24189152
-0.27168564
-0.28278773
-0.28346555
-0.29132512
-0.26496205
-0.23773575
-0.25477749
-0.26690687
-0.28369497
0.088666421
0.063458149
0.041364982
0.079044578
0.06543351
0.030356948
0.057596303
0.052320943
0.083732976
0.056384014
0.068201338
0.073369596
0.088898652
0.097507142
0.079277917
0.060315733
0.040847132
0.083456095
0.10077998
0.12974476
0.092060856
0.072451245
0.061396864
0.083471206
0.080591067
0.10859132
-0.041970088
-0.099225293
-0.084326444
-0.070045806
-0.049791827
-0.068568694
-0.062676128
-0.016921809
-0.064914509
-0.031983354
-0.05213391
-0.07011588
-0.03587105
-0.04760522
-0.058023252
-0.082494479
-0.068293319
-0.067348963
-0.038209528
-0.037329381
-0.061608843
-0.10140381
-0.081196397
-0.099434381
-0.08760572
-0.051973488
0.024166051
0.021747069
0.007851642
-0.016167886
-0.0045956205
0.010324631
-0.0018320864
-0.0071828171
-0.0062745782
-0.012119811
-0.012307555
0.0027100214
0.0073513112
0.00051758023
-0.009312342
0.010133925
0.022545681
0.026180106
0.018812452
0.034327898
0.018703877
0.015537605
0.02642664
0.023211019
-0.0026604409
0.016299476
0.3081763
0.30634919
0.30972734
0.29273096
0.29466374
0.28296175
0.28847881
0.29361867
0.29094332
0.30198218
0.30528828
0.29609547
0.29605075
0.29744848
0.29764521
0.30620063
0.31142801
0.31300802
0.30177578
0.31385643
0.31063058
0.31689639
0.31429472
0.30940217
0.31127511
0.30457582
-0.2807185
-0.28567706
-0.24743426
-0.25641302
-0.27305063
-0.25974263
-0.26929531
-0.27593615
-0.26927546
-0.22416333
-0.2067666
-0.25421334
-0.26407735
-0.25177371
-0.25486804
-0.22963903
-0.19100524
-0.24328164
-0.27477352
-0.28256188
-0.289155
-0.2368688
-0.20888287
-0.21393694
-0.22765868
-0.23918231
0.10830868
0.073510294
0.036963219
0.073107784
0.078702145
0.060647007
0.089143748
0.085138028
0.078005706
0.049914092
0.032851415
0.042778648
0.072864504
0.11692284
0.098199215
0.046003874
0.047058319
0.026837441
0.042015808
0.077614122
0.047571336
0.03232609
0.042461417
0.057339475
0.066664084
0.07871959
-0.036352478
-0.06832627
-0.070430325
-0.0699725
-0.029250904
-0.07403995
-0.048548022
-0.04128163
-0.060025933
-0.05638862
-0.06881978
-0.066424217
-0.041010761
-0.022095211
-0.043746223
-0.052191432
-0.054873696
-0.052643659
-0.060560715
-0.03923481
-0.065316499
-0.10322261
-0.075226386
-0.063500242
-0.066908492
-0.091173175
0.027463704
0.020706023
0.011500197
-0.00035214093
-0.00060877746
0.014565723
0.0087205801
0.0075321693
-0.003141886
-0.0078273254
0.0053189571
0.0040437194
-0.0003939842
-0.0024531702
-0.01886315
-0.025298522
-0.0094104544
0.0057085662
0.0095268502
0.020361823
0.0010411308
-0.0015623734
-0.018497652
-0.019833709
-0.028735292
-0.011306055
0.30564723
0.30397896
0.31010573
0.2797605
0.29870263
0.29208215
0.29426771
0.2923018
0.28886024
0.28333471
0.28522403
0.28808293
0.29394584
0.29743499
0.30144599
0.30146412
0.31535407
0.30301539
0.32011364
0.31936706
0.32505408
0.31594592
0.31747914
0.3207613
0.31894249
0.32376778
0.31943168
0.31838633
0.3142676
0.31253253
-0.27711484
-0.25216857
-0.23206162
-0.25537357
-0.26842662
-0.27261153
-0.27215649
-0.26854693
-0.26044951
-0.25191258
-0.24085205
-0.26186601
-0.26473911
-0.22956069
-0.20515387
-0.20785125
-0.1951229
-0.22112483
-0.1771845
-0.16736603
-0.20661116
-0.26809109
-0.27805865
-0.28583
-0.26564664
-0.21687702
-0.20199042
-0.20707514
-0.23506359
-0.25362117
0.078917378
0.047067809
0.041720683
0.06410924
0.081877412
0.092693925
0.11486285
0.10281345
0.087171885
0.082968683
0.089652855
0.093046112
0.073262271
0.047437983
0.051126127
0.061906973
0.0576839
0.072463074
0.033698683
0.035222104
0.032949744
0.02997159
0.082788804
0.071550597
0.047758041
0.037647129
0.066204973
0.074277157
0.080027601
0.10226768
-0.042468644
-0.086942471
-0.053980772
-0.0691169
-0.035832062
-0.037846739
-0.040725327
-0.032333792
-0.062656667
-0.081022855
-0.084438629
-0.05368796
-0.049182233
-0.075041908
-0.061111768
-0.039067693
-0.022673162
-0.048341402
-0.050692908
-0.048264526
-0.048556499
-0.071798083
-0.030411796
-0.042105322
-0.09908796
-0.087932507
-0.054714003
-0.054060821
-0.090186237
-0.0891075
0.0065697745
0.0083195283
-0.0015775957
-0.0028489134
0.0093773796
0.010991922
0.018782481
0.004314099
0.011252589
0.026064378
0.037345266
0.005940199
0.0009437422
0.0059671684
-0.014565796
-0.013992582
-0.0076698812
-0.022981051
-0.0030236306
0.0013181241
0.0053755624
0.0095894508
0.014841438
0.019630038
0.01157082
-0.0020686666
-0.012865376
-0.0048139568
-0.010375194
0.016036729
0.3102418
0.31046817
0.30865603
0.28331556
0.2877777
0.28798676
0.29131174
0.28818825
0.29460791
0.28788423
0.28916395
0.28970854
0.28983364
0.28823843
0.29146185
0.29405529
0.29613396
0.30519872
0.32146273
0.31830758
0.31477065
0.31965799
0.32012361
0.3166634
0.31692729
0.3057515
0.29442192
0.28914598
0.2987222
0.29918246
-0.27333569
-0.23220518
-0.2114504
-0.25278311
-0.25644129
-0.27222204
-0.27421854
-0.26204854
-0.25757526
-0.27110529
-0.26830345
-0.2688486
-0.2669489
-0.26186399
-0.25277414
-0.25147384
-0.25397752
-0.21589856
-0.18860116
-0.24308753
-0.28047939
-0.28590595
-0.2847818
-0.27476613
-0.22791202
-0.22141778
-0.25346902
-0.25027233
-0.25488533
-0.27725191
0.077973061
0.028821901
0.060421339
0.063672049
0.06398484
0.094956637
0.11730059
0.1028091
0.10061628
0.097001906
0.10294597
0.10485027
0.092954392
0.084922106
0.078414014
0.093280209
0.080655925
0.028357376
0.032029467
0.030490204
0.041801667
0.08233553
0.095223954
0.05907095
0.039789301
0.072011849
0.10588469
0.12063391
0.096684557
0.12065233
-0.047758464
-0.067728001
-0.03288106
-0.045343782
-0.064545309
-0.030242297
-0.034320439
-0.068515088
-0.074324943
-0.04894008
-0.043275998
-0.049466885
-0.05743466
-0.062644833
-0.078817754
-0.046181267
-0.06602862
-0.081381498
-0.068531872
-0.07332534
-0.089287044
-0.042175742
-0.039109041
-0.10704162
-0.092040025
-0.07197428
-0.072638227
-0.092244796
-0.11992461
-0.06637935
-0.0013039407
-0.0076511045
-0.013568137
-0.0033904919
0.0064542674
-0.0012961963
-0.00088131212
0.027740325
0.034713209
0.010319638
0.020296997
0.012572431
0.0075980077
0.0088217272
0.00094717528
-0.010077441
-0.016130669
0.00026030222
0.015036369
0.011107129
0.017578344
0.032200186
0.0318782
0.026097943
0.0078634775
-0.0031802095
-0.0061788758
4.9487e-05
0.016540438
0.016185677
0.31834149
0.31969169
0.31900058
0.30343348
0.29628593
0.29735633
0.30150364
0.31039609
0.30736986
0.27884656
0.29433427
0.28563995
0.28748421
0.3036891
0.29090668
0.29981662
0.29733289
0.29768507
0.29469295
0.3002269
0.30550514
0.31574598
0.30836268
0.31358302
0.31347737
0.30665569
0.3086538
0.29763155
0.30094458
0.30413126
-0.27390297
-0.23445948
-0.20427799
-0.21724468
-0.2547147
-0.26537469
-0.27496431
-0.2192559
-0.21917734
-0.25993969
-0.25800416
-0.25998081
-0.24594221
-0.21464769
-0.25381509
-0.27100031
-0.27509598
-0.26477137
-0.27011967
-0.28055846
-0.28295291
-0.28166763
-0.2758967
-0.24872095
-0.21351753
-0.21231403
-0.22494289
-0.25535515
-0.28361308
-0.2762043
0.088486724
0.027247777
0.066943273
0.040982184
0.041417014
0.066679554
0.080067406
0.027933398
0.03071234
0.087040475
0.097761908
0.076202058
0.071919365
0.046481076
0.076095945
0.079701842
0.084203339
0.090381008
0.077329535
0.089680577
0.10021065
0.10016624
0.075977132
0.043559814
0.057949905
0.077787982
0.042619129
0.082481844
0.085504483
0.14314558
-0.04203559
-0.091550072
-0.035309718
-0.033970575
-0.057362536
-0.033829315
-0.044069109
-0.069364768
-0.061360833
-0.05363492
-0.026287224
-0.057015492
-0.074588343
-0.072480217
-0.066137258
-0.030748717
-0.044457148
-0.076243763
-0.077925739
-0.05946006
-0.037373595
-0.042404399
-0.06833963
-0.082205293
-0.046793587
-0.06725405
-0.098288534
-0.097700437
-0.079191834
-0.050365186
0.0089488273
-0.00055164616
-0.0094039848
-0.01198812
-0.0073675532
-0.0037726969
-0.0027658636
0.018265519
0.0083358009
-0.010372416
0.0059859887
-0.0099117438
0.017117597
0.0049386263
-0.012464408
-0.0057024063
-0.0092036306
0.022677402
0.028133617
0.013057891
0.024092401
0.018734392
0.016534251
0.0055169404
-0.0047673792
-0.01112766
-0.00099896719
0.017181638
0.020699312
0.034650907
0.31523892
0.31551774
0.31664449
0.29647653
0.30956553
0.27721552
0.29730193
0.29297014
0.29553936
0.28919951
0.28565666
0.29302525
0.30893217
0.29820948
0.29859907
0.29836648
0.3011755
0.3015285
0.30480361
0.30744386
0.29450682
0.32516304
0.30491704
0.31108128
0.31522112
0.30283427
0.31638922
0.29194187
0.3012371
0.30174259
-0.2697753
-0.24745352
-0.21286051
-0.19352854
-0.20589947
-0.25911214
-0.26243588
-0.25304777
-0.26065524
-0.25136571
-0.24559745
-0.21611602
-0.16153224
-0.18415342
-0.20382589
-0.21511822
-0.2268953
-0.25721196
-0.27148055
-0.26822917
-0.26112444
-0.22022511
-0.26875438
-0.24693091
-0.21395363
-0.19482897
-0.19947544
-0.26387981
-0.28100271
-0.26721059
0.094977319
0.04255986
0.071051238
0.058254049
0.027806507
0.051714871
0.083248665
0.1129772
0.098254181
0.079518909
0.057732708
0.031514915
0.031820343
0.059435423
0.059648557
0.062068023
0.050396004
0.072968747
0.086992767
0.091111685
0.078584856
0.053257428
0.084456593
0.085593452
0.068894009
0.064980475
0.038157257
0.073710453
0.095367914
0.1499474
-0.027097327
-0.094853126
-0.040957078
-0.047704259
-0.06089473
-0.062676241
-0.032685638
-0.037147563
-0.041764628
-0.049610944
-0.048025293
-0.048306625
-0.055698951
-0.045979929
-0.042842022
-0.047956098
-0.072320959
-0.064910358
-0.024088562
-0.011779035
-0.075320442
-0.06815993
-0.047775715
-0.068747211
-0.038849899
-0.081010537
-0.08319617
-0.10687335
-0.060225639
-0.040002631
0.022209729
0.0069027767
-0.0064274833
-0.0042543947
0.0078724366
0.011095951
0.0059221268
0.012851809
0.0065761119
0.0045682349
0.0039413174
-0.016137466
0.0001606036
-0.015526747
-0.014739304
-0.0097420076
0.0079077987
-0.0061316955
0.0039326836
-0.0001822809
0.0053346537
0.028469034
0.010166264
-0.0046418494
-0.0094557883
-0.010531822
0.0079141973
0.018091169
0.026564121
0.037190247
)
;

boundaryField
{
    minX
    {
        type            fixedFluxPressure;
        gradient        uniform 0;
        value           nonuniform List<scalar> 
50
(
0.31384113
-0.27418592
0.081205713
-0.028825886
0.028525147
0.31747463
-0.27983632
0.085745003
-0.031175216
0.034603592
0.30920317
-0.27353785
0.07369149
-0.03533857
0.022641608
0.31203786
-0.27680745
0.072366147
-0.040345267
0.011918161
0.30374537
-0.27649192
0.088666421
-0.041970088
0.024166051
0.3081763
-0.2807185
0.10830868
-0.036352478
0.027463704
0.30564723
-0.27711484
0.078917378
-0.042468644
0.0065697745
0.3102418
-0.27333569
0.077973061
-0.047758464
-0.0013039407
0.31834149
-0.27390297
0.088486724
-0.04203559
0.0089488273
0.31523892
-0.2697753
0.094977319
-0.027097327
0.022209729
)
;
    }
    maxX
    {
        type            fixedFluxPressure;
        gradient        uniform 0;
        value           nonuniform List<scalar> 
50
(
0.31484181
-0.27562755
0.14334151
-0.040071597
0.03217192
0.31478477
-0.2754799
0.091809266
-0.053381461
0.012562254
0.31538841
-0.25432814
0.084099257
-0.088525522
0.0072500986
0.30783163
-0.27929049
0.12282252
-0.040043641
0.023035746
0.30686184
-0.28369497
0.10859132
-0.051973488
0.016299476
0.30457582
-0.23918231
0.07871959
-0.091173175
-0.011306055
0.31253253
-0.25362117
0.10226768
-0.0891075
0.016036729
0.29918246
-0.27725191
0.12065233
-0.06637935
0.016185677
0.30413126
-0.2762043
0.14314558
-0.050365186
0.034650907
0.30174259
-0.26721059
0.1499474
-0.040002631
0.037190247
)
;
    }
    minY
    {
        type            fixedValue;
        value           uniform 0;
    }
    minZ
    {
        type            fixedFluxPressure;
        gradient        uniform 0;
        value           nonuniform List<scalar> 
150
(
0.31384113
-0.27418592
0.081205713
-0.028825886
0.028525147
0.30903865
-0.2607306
0.059230807
-0.096879875
0.023211138
0.3278018
-0.22939185
0.032322008
-0.064258547
0.010074025
0.28832432
-0.25063325
0.074934039
-0.090224056
-0.017176433
0.3068111
-0.25990558
0.090859343
-0.038964257
-0.011863283
0.29948656
-0.27011278
0.11540317
-0.03748852
-0.00027161862
0.3026874
-0.27605633
0.10566889
-0.042394179
0.0046133483
0.30432885
-0.27897632
0.11517337
-0.025888638
0.015093415
0.30034221
-0.27715086
0.088010534
-0.058705681
0.02516508
0.29965515
-0.25224628
0.051865552
-0.067208163
0.023966496
0.30414329
-0.21642104
0.053375709
-0.05714046
0.0054856093
0.30313622
-0.23154085
0.072387146
-0.050520675
-0.0053327569
0.29531513
-0.25138416
0.070935769
-0.08007345
0.01348283
0.29793835
-0.27268938
0.089330251
-0.059136038
0.012876312
0.29993286
-0.27169743
0.10419121
-0.041213086
0.020077154
0.30090687
-0.25516818
0.10431063
-0.068283632
0.040459453
0.30387533
-0.26433733
0.089161697
-0.042349489
0.014379015
0.28961994
-0.25690102
0.057419328
-0.065366667
0.016015648
0.30772324
-0.21924041
0.028127993
-0.052504627
-0.0054464562
0.30835226
-0.19259962
0.060528706
-0.046094544
-0.020611181
0.31173423
-0.18821963
0.060605486
-0.027804101
-0.016695077
0.32475889
-0.19925327
0.069897836
-0.016267403
-0.010097044
0.31628304
-0.25105056
0.074187566
-0.060326937
-0.021668358
0.30980222
-0.27588662
0.088583093
-0.03337845
-0.0116537
0.31588054
-0.27136018
0.10353204
-0.036461394
-0.010676186
0.29092155
-0.25622443
0.076976209
-0.081721005
-0.0034884815
0.32358415
-0.2213689
0.053948318
-0.074974818
0.015957573
0.3134869
-0.25710014
0.076300737
-0.090738624
0.024414929
0.31090112
-0.29127479
0.079349622
-0.055570302
0.021881548
0.31484181
-0.27562755
0.14334151
-0.040071597
0.03217192
)
;
    }
    maxZ
    {
        type            fixedFluxPressure;
        gradient        uniform 0;
        value           nonuniform List<scalar> 
150
(
0.31523892
-0.2697753
0.094977319
-0.027097327
0.022209729
0.31551774
-0.24745352
0.04255986
-0.094853126
0.0069027767
0.31664449
-0.21286051
0.071051238
-0.040957078
-0.0064274833
0.29647653
-0.19352854
0.058254049
-0.047704259
-0.0042543947
0.30956553
-0.20589947
0.027806507
-0.06089473
0.0078724366
0.27721552
-0.25911214
0.051714871
-0.062676241
0.011095951
0.29730193
-0.26243588
0.083248665
-0.032685638
0.0059221268
0.29297014
-0.25304777
0.1129772
-0.037147563
0.012851809
0.29553936
-0.26065524
0.098254181
-0.041764628
0.0065761119
0.28919951
-0.25136571
0.079518909
-0.049610944
0.0045682349
0.28565666
-0.24559745
0.057732708
-0.048025293
0.0039413174
0.29302525
-0.21611602
0.031514915
-0.048306625
-0.016137466
0.30893217
-0.16153224
0.031820343
-0.055698951
0.0001606036
0.29820948
-0.18415342
0.059435423
-0.045979929
-0.015526747
0.29859907
-0.20382589
0.059648557
-0.042842022
-0.014739304
0.29836648
-0.21511822
0.062068023
-0.047956098
-0.0097420076
0.3011755
-0.2268953
0.050396004
-0.072320959
0.0079077987
0.3015285
-0.25721196
0.072968747
-0.064910358
-0.0061316955
0.30480361
-0.27148055
0.086992767
-0.024088562
0.0039326836
0.30744386
-0.26822917
0.091111685
-0.011779035
-0.0001822809
0.29450682
-0.26112444
0.078584856
-0.075320442
0.0053346537
0.32516304
-0.22022511
0.053257428
-0.06815993
0.028469034
0.30491704
-0.26875438
0.084456593
-0.047775715
0.010166264
0.31108128
-0.24693091
0.085593452
-0.068747211
-0.0046418494
0.31522112
-0.21395363
0.068894009
-0.038849899
-0.0094557883
0.30283427
-0.19482897
0.064980475
-0.081010537
-0.010531822
0.31638922
-0.19947544
0.038157257
-0.08319617
0.0079141973
0.29194187
-0.26387981
0.073710453
-0.10687335
0.018091169
0.3012371
-0.28100271
0.095367914
-0.060225639
0.026564121
0.30174259
-0.26721059
0.1499474
-0.040002631
0.037190247
)
;
    }
    bottomWater_to_rightSolid
    {
        type            fixedFluxPressure;
        gradient        uniform 0;
        value           nonuniform List<scalar> 
130
(
0.016015648
-0.0054464562
-0.020611181
-0.016695077
-0.010097044
-0.021668358
-0.0116537
-0.010676186
-0.0034884815
0.015957573
0.024414929
0.021881548
0.03217192
0.023170464
0.011776102
0.0079472616
-0.00079238632
-0.0093446321
0.0039804869
0.026306561
0.014356659
-0.00017693434
-0.010848669
0.0042856516
0.013151899
0.012562254
0.036114692
0.013212582
0.017441799
0.0051878712
0.0032944172
0.02166829
0.037183477
0.016999215
-0.009071971
-0.02027586
-0.01626007
-0.019607812
0.0072500986
0.020675189
0.018317214
0.024364959
0.01743641
0.022534859
0.019764841
0.010441596
0.0058072739
0.0047824405
-0.010872444
-0.0066126107
0.010210715
0.023035746
0.00051758023
-0.009312342
0.010133925
0.022545681
0.026180106
0.018812452
0.034327898
0.018703877
0.015537605
0.02642664
0.023211019
-0.0026604409
0.016299476
-0.0024531702
-0.01886315
-0.025298522
-0.0094104544
0.0057085662
0.0095268502
0.020361823
0.0010411308
-0.0015623734
-0.018497652
-0.019833709
-0.028735292
-0.011306055
-0.022981051
-0.0030236306
0.0013181241
0.0053755624
0.0095894508
0.014841438
0.019630038
0.01157082
-0.0020686666
-0.012865376
-0.0048139568
-0.010375194
0.016036729
0.00026030222
0.015036369
0.011107129
0.017578344
0.032200186
0.0318782
0.026097943
0.0078634775
-0.0031802095
-0.0061788758
4.9487e-05
0.016540438
0.016185677
0.022677402
0.028133617
0.013057891
0.024092401
0.018734392
0.016534251
0.0055169404
-0.0047673792
-0.01112766
-0.00099896719
0.017181638
0.020699312
0.034650907
-0.0061316955
0.0039326836
-0.0001822809
0.0053346537
0.028469034
0.010166264
-0.0046418494
-0.0094557883
-0.010531822
0.0079141973
0.018091169
0.026564121
0.037190247
)
;
    }
    bottomWater_to_leftSolid
    {
        type            fixedFluxPressure;
        gradient        uniform 0;
        value           nonuniform List<scalar> 
130
(
0.028525147
0.023211138
0.010074025
-0.017176433
-0.011863283
-0.00027161862
0.0046133483
0.015093415
0.02516508
0.023966496
0.0054856093
-0.0053327569
0.01348283
0.034603592
0.025237936
0.016555956
-0.0041846292
-0.014301687
0.0061597395
0.020252521
0.025800032
0.037215759
0.02143228
0.015891303
0.0017491364
0.0032217719
0.022641608
0.015059275
0.00096605236
-0.029332119
-0.0064449969
-0.0019524606
0.022001958
0.031807294
0.02266429
0.011864551
0.012207517
-0.011809693
-0.01884106
0.011918161
0.0077224501
-0.013741905
-0.017949546
-0.0068069889
-0.01834312
0.0073136993
0.015840654
0.010061726
0.0031961014
-0.0049352028
-0.018611981
-0.020947203
0.024166051
0.021747069
0.007851642
-0.016167886
-0.0045956205
0.010324631
-0.0018320864
-0.0071828171
-0.0062745782
-0.012119811
-0.012307555
0.0027100214
0.0073513112
0.027463704
0.020706023
0.011500197
-0.00035214093
-0.00060877746
0.014565723
0.0087205801
0.0075321693
-0.003141886
-0.0078273254
0.0053189571
0.0040437194
-0.0003939842
0.0065697745
0.0083195283
-0.0015775957
-0.0028489134
0.0093773796
0.010991922
0.018782481
0.004314099
0.011252589
0.026064378
0.037345266
0.005940199
0.0009437422
-0.0013039407
-0.0076511045
-0.013568137
-0.0033904919
0.0064542674
-0.0012961963
-0.00088131212
0.027740325
0.034713209
0.010319638
0.020296997
0.012572431
0.0075980077
0.0089488273
-0.00055164616
-0.0094039848
-0.01198812
-0.0073675532
-0.0037726969
-0.0027658636
0.018265519
0.0083358009
-0.010372416
0.0059859887
-0.0099117438
0.017117597
0.022209729
0.0069027767
-0.0064274833
-0.0042543947
0.0078724366
0.011095951
0.0059221268
0.012851809
0.0065761119
0.0045682349
0.0039413174
-0.016137466
0.0001606036
)
;
    }
    bottomWater_to_heater
    {
        type            fixedFluxPressure;
        gradient        uniform 0;
        value           nonuniform List<scalar> 
92
(
0.012876312
0.020077154
0.040459453
0.014379015
0.020809944
0.021747816
0.014782985
0.030951
-0.02011893
0.00054681562
0.00085619603
0.037324469
0.32297096
0.3060456
0.29492875
0.32262439
-0.20092895
-0.21635419
-0.25731035
-0.20174209
0.06010757
0.07397936
0.088955568
0.049794848
-0.01343944
-0.059127921
-0.06814019
-0.086568001
-0.0052952479
-0.0052952479
-0.030997616
-0.030997616
-0.012997108
-0.012997108
0.010270732
0.010270732
0.29834951
0.29294226
-0.27175924
-0.26423759
0.088898652
0.097507142
-0.03587105
-0.04760522
0.0073513112
0.00051758023
0.29605075
0.29743499
0.30144599
0.30146412
0.29744848
0.31535407
-0.26407735
-0.22956069
-0.20515387
-0.20785125
-0.25177371
-0.1951229
0.072864504
0.047437983
0.051126127
0.061906973
0.11692284
0.0576839
-0.041010761
-0.075041908
-0.061111768
-0.039067693
-0.022095211
-0.022673162
-0.0003939842
0.0059671684
-0.014565796
-0.013992582
-0.0024531702
-0.0076698812
0.0059671684
-0.014565796
-0.013992582
-0.0076698812
0.0088217272
0.00094717528
-0.010077441
-0.016130669
0.0049386263
-0.012464408
-0.0057024063
-0.0092036306
-0.015526747
-0.014739304
-0.0097420076
0.0079077987
)
;
    }
}


// ************************************************************************* //
