/*--------------------------------*- C++ -*----------------------------------*\
| =========                 |                                                 |
| \\      /  F ield         | OpenFOAM: The Open Source CFD Toolbox           |
|  \\    /   O peration     | Version:  v2012                                 |
|   \\  /    A nd           | Website:  www.openfoam.com                      |
|    \\/     M anipulation  |                                                 |
\*---------------------------------------------------------------------------*/
FoamFile
{
    version     2.0;
    format      ascii;
    class       surfaceScalarField;
    location    "540/bottomWater";
    object      phi;
}
// * * * * * * * * * * * * * * * * * * * * * * * * * * * * * * * * * * * * * //

dimensions      [1 0 -1 0 0 0 0];
oriented        oriented;


internalField   nonuniform List<scalar> 
3858
(
-0.00014920313
0.00014666308
4.9282641e-07
-0.00017095371
2.8057554e-05
-7.2715887e-06
0.00013464048
-0.00028502442
-2.5414739e-05
0.00016652602
0.0001223869
-0.00015053099
0.00018114361
0.00012545103
-0.00014033269
0.0001549941
0.00014156976
-0.0001141028
7.8032934e-05
0.00015448532
-7.7009495e-05
-2.7110796e-05
0.00014646047
-4.1301457e-05
-0.00011497663
0.00014701475
-5.8215485e-05
-2.0432099e-05
-6.9183949e-05
-2.4372168e-05
0.00017274935
-0.00020497539
1.1946283e-05
0.00028724457
-0.00010363694
-1.0351793e-05
0.00025236611
9.8810335e-05
-6.1617515e-05
0.00020963162
0.00014899564
-0.00010450737
0.0001261194
0.00015691228
-7.2201959e-05
1.8208457e-05
0.00013016157
-2.1483183e-05
-0.00011552845
0.00014497359
-1.1124536e-05
-0.00024512381
0.0001454056
-1.2394766e-05
-0.0001506216
-0.00020913464
0.00011425644
-5.815607e-05
-0.00025421436
0.00016115709
9.4973181e-05
-0.00028936856
0.00013487059
0.00029428872
-0.00031438713
0.00011106365
0.00030441696
-5.1814013e-05
3.9416381e-05
0.00015824323
9.9387605e-05
4.5862833e-05
1.0870213e-05
0.00013349489
1.1377464e-05
8.46177e-06
3.6393554e-05
-3.1196271e-05
0.00018368663
-0.0002025893
2.3268868e-05
0.00022200055
2.257497e-05
-6.2712588e-05
0.00011154235
0.00015406047
-4.4827074e-05
0.0001274644
-1.8221839e-05
-0.00047470422
0.00064163842
-2.0271119e-05
-0.0004276915
2.3947767e-06
-2.1349941e-05
2.4573083e-05
-0.00069143577
-4.5853238e-05
0.0003076731
5.0139387e-05
-0.00021085252
0.00036512711
0.00023354358
-0.00016554656
0.00035147688
0.00032627806
-0.00017105808
0.00016242431
0.00052041238
-0.00017687449
-0.00017282966
0.00057037871
-8.8664267e-05
-0.00023476067
0.00021652584
-7.5800638e-06
-4.4909396e-05
-0.00031556275
5.6527537e-05
0.00016335817
-0.0005262983
0.00011305536
0.00036328469
-0.00035124853
4.7685088e-05
0.00043873646
0.00010090364
-7.7545065e-05
0.00026836607
0.00046019193
-0.00014082589
9.3940314e-06
0.00056926765
-0.00015338333
-0.00013084796
0.00019679984
7.3603723e-05
-0.00029023827
0.0003174509
-1.3087005e-05
-0.00021836343
-4.4018458e-06
7.7932609e-05
-4.4610609e-05
-0.00055308005
0.00017019259
2.1962522e-05
-0.00053712878
0.00021634128
0.00019998946
-0.00057243643
0.00010504093
0.00048273198
-0.00064228571
4.5156053e-05
0.00056283438
-0.00014043849
8.5220774e-06
0.0001777367
0.00051191524
-2.7429955e-05
-0.00010192589
0.00041996856
-6.811083e-06
5.3942874e-05
-7.656555e-05
-4.2909667e-05
0.00039661064
-0.00054306106
-2.1960086e-06
0.0005564866
-2.8069709e-05
-0.00010923128
0.00034587894
0.00054092222
-0.00017625409
0.00061341076
-0.00014006743
0.00013251252
0.00053764843
-2.852254e-05
0.00015270518
-7.5587741e-05
5.7789856e-05
-0.00042283577
-0.00013691821
2.1023383e-05
-0.00031693716
-8.8110827e-05
3.2351596e-05
-1.5107169e-05
-0.00013416592
6.587951e-05
0.00022012213
-2.400028e-05
0.00011504904
0.00016486317
0.0004366564
0.00013901494
0.00023503619
0.00049866065
1.5450575e-06
0.00039411463
0.00014659939
-8.9151979e-05
0.00024683879
-6.5744279e-05
-0.00010254262
3.7698555e-05
-0.00028330606
-3.3851982e-05
9.1729976e-06
-0.00042689994
0.00010417699
7.2369601e-05
-2.9684688e-05
6.7391741e-05
6.1155154e-05
0.00038650084
8.4905552e-05
8.6470202e-05
0.00048077272
6.3179898e-05
0.00019455153
6.323888e-05
2.5479649e-05
0.00041827916
0.00014002221
-4.629894e-05
0.00051520541
-3.1488299e-05
-6.9839796e-05
0.00021865902
-0.00013119658
-0.00012533709
0.00010329196
-0.00029076985
-0.00013099187
6.1646594e-05
-0.0004472739
-8.3517169e-05
-1.3310157e-05
-0.0005213674
-4.5961561e-05
9.6410753e-05
-0.00035340272
0.00010324331
0.00020906503
0.00035436782
4.4893135e-05
0.0003855531
0.00017971733
6.376316e-05
0.0003619113
-6.2071188e-05
9.1474312e-06
-5.0868761e-05
-0.00010510197
-2.5179034e-05
-7.6743227e-05
-7.8694843e-05
7.6499596e-05
-1.3419352e-05
0.00045467628
2.2922062e-05
0.00061042088
-1.0429475e-05
0.00031780535
0.00023820176
-1.8358689e-05
5.9115852e-05
0.00014080723
4.2294529e-05
-0.00029128584
0.00014192411
7.1559352e-05
-0.00035587365
-3.6785379e-05
1.3262361e-05
-0.00021826419
-0.00033965715
6.7881763e-05
-3.8202621e-05
-0.00031710473
0.00011304289
0.00016197603
1.1360951e-05
0.0002251168
0.00037818761
0.00017009485
0.00011235423
0.0003989051
0.00018045326
-5.4571332e-05
0.00029560482
0.00013070748
-9.315146e-05
0.00019779901
-0.00022450313
3.9002917e-05
0.00012018578
-0.00040497869
5.569201e-05
-4.2127456e-05
8.2653181e-05
4.997539e-05
1.1963485e-06
0.00021103972
0.00013213733
5.7723215e-05
0.00023454906
0.00018969681
-2.6534377e-05
0.00028451
-0.00013701352
0.00011469351
2.0698047e-05
-2.1903717e-05
0.00012665404
3.9230524e-05
-8.2679357e-05
0.00013065279
-7.9263879e-05
-5.5931453e-05
0.00014425684
-0.0002822808
-2.2093117e-05
0.00016590602
-0.00043623653
-3.2686561e-05
0.00012292918
-0.00047202899
-6.3615705e-06
1.7714142e-05
-0.00033873761
9.0549915e-05
0.0001762329
-4.6467109e-05
0.00024231617
0.00041256246
-0.00013595674
7.934449e-05
0.00029511431
1.9503554e-05
3.5873404e-05
-6.5936125e-05
0.00022344672
3.2501736e-05
-0.0003177604
0.00020017392
-2.7044489e-05
-0.00017980039
0.00020822903
0.00010848723
0.0003552079
7.5412596e-05
0.00025457643
-1.6374675e-05
0.00037477893
2.0604723e-05
0.00047486267
4.1840372e-05
0.00039516597
4.2911311e-05
-1.5203076e-06
5.7029125e-05
-0.00030267345
-1.5951588e-05
-0.00025229491
-3.9017583e-05
-2.9644756e-05
-5.2555293e-05
0.00023509551
-8.4286989e-05
0.00041548239
-4.9679381e-05
0.00024995823
-5.8978957e-05
-0.00014352594
-1.1494501e-05
-0.00019345113
0.00013257839
-0.00011016817
0.00012775678
-2.4643113e-05
0.00014902402
0.00019865081
6.1216083e-05
0.00029900641
-7.9657552e-05
0.00043616665
-9.7929715e-05
0.00049438887
-0.00013748611
0.00041060658
-0.00019849852
0.00019555859
-0.00022118855
-9.0125299e-05
-0.00018634512
-0.00025566775
-0.00017319516
-0.00023999814
-6.2136726e-05
-0.00031917381
-5.6781066e-05
-0.0003515389
5.1868634e-05
-0.00029935144
0.00017125925
-0.00027105792
0.0001718804
-0.00021402931
0.00015120041
0.00014117859
-0.00015473465
0.00014965721
2.727618e-06
-0.00023187843
9.0981117e-05
-2.2166324e-05
-4.392855e-06
-0.00021291171
-4.5298322e-05
0.00014160983
-0.00017831181
-0.00011877002
0.00026831226
-0.00015397203
-0.00011447324
0.00026146117
4.3359241e-07
-0.00010597495
0.00014800805
0.00015529901
-0.00011675136
6.7411537e-06
0.000175624
-7.5827776e-05
-0.00012661149
0.00015125124
-7.6891256e-05
-0.00020800917
0.00014663087
-8.9734524e-05
-0.00017035795
-1.9565311e-05
-7.349713e-06
1.8638607e-05
-0.00020138285
2.9167051e-07
0.0001853249
-0.00017974682
-4.8907569e-05
0.00028097283
-7.2296071e-05
-0.00012932758
0.0002158821
0.00012318611
-0.00012871277
0.00010192693
0.00017227938
-7.8921048e-05
3.219525e-05
0.00016174058
-0.00010328627
-6.7358455e-05
0.0001679977
-8.0384242e-05
-0.00014942796
0.00015011269
4.6654408e-05
-0.00021028615
8.8889502e-05
0.00013488871
-0.00012758691
-0.00013565432
0.00018748309
4.8848009e-05
-0.00026309073
0.0001949836
0.00020524376
-0.00025444979
0.00013313295
0.00010150568
4.5958053e-05
0.00010167147
-7.8997513e-05
0.00014205532
4.6550849e-05
-0.00014202651
4.5213492e-05
-1.5642799e-05
1.2873272e-05
-0.00018935097
5.4703909e-05
0.00021595207
-0.00026444319
-5.5634206e-06
0.00015373027
6.352728e-05
-4.7235079e-05
0.00015028184
-1.6999728e-05
-0.00050256273
0.000717472
-8.552319e-05
-0.00042214391
9.4478776e-05
-0.00010526642
-8.2223623e-05
-0.00050906317
-8.9622071e-05
0.00010525381
-0.00046333671
-0.00011330506
0.00030953285
-0.00043595087
-8.7846751e-05
0.00038254658
-0.00013723977
-0.00010639845
0.00041558781
6.3718859e-05
-0.00011833556
0.00018009471
0.00045924165
-0.00013678883
-0.00023250703
0.00065972487
-0.00010345193
-0.00048806175
0.00053677722
-7.8064087e-05
-0.00032150863
-0.00011725638
4.4193317e-05
-2.6032517e-05
-0.00052213754
7.2963682e-05
0.00017142895
-0.00045479
3.6648583e-08
0.00035724934
-0.00028734057
-0.00011160177
0.00044316119
9.7024284e-05
-0.00021313335
0.00024312232
0.00060534644
-0.00015942446
-6.1887606e-06
0.00066622458
-0.00026825992
-0.00019338849
0.00057244551
-0.00013931547
-0.00027135811
0.00033270711
6.5567785e-05
-0.00022613175
-1.4085907e-05
0.00027409032
-3.4978238e-05
-0.00043962477
0.00021785786
0.0001123787
-0.0005955857
0.00023029408
0.00032950403
-0.00063025344
0.0001672004
0.00026736695
2.4297571e-05
5.6367604e-05
-0.00026387033
0.00072012487
-5.3643365e-05
-0.00029783428
9.0418779e-05
-5.4150997e-05
-1.442333e-05
-0.00049591545
2.0957519e-05
0.00028142296
-0.00062907425
-4.0446518e-05
0.00034896431
-1.8277997e-05
-0.00016199016
0.00048228483
-0.00012310611
9.8661025e-05
0.0006483113
-5.8022867e-05
0.00034600318
-2.9587494e-05
-6.548603e-05
5.3431854e-05
-0.0001162226
-7.9245865e-05
-0.00016959971
-0.00011109461
-9.6858955e-05
-9.5700477e-05
-0.0005146893
7.0718708e-05
-1.9754748e-05
-0.00030917077
0.00021103431
-3.800105e-05
-2.5771051e-05
0.00024675116
8.6870113e-06
0.00037726413
3.6834526e-05
-1.6895241e-05
0.00064954648
-5.3391329e-05
8.2376786e-05
0.00042080449
-8.5841898e-05
0.00017562725
-0.00013653515
-0.00010782365
6.1302203e-05
-0.00035736885
5.3733368e-05
-9.5646445e-05
-0.00030621502
7.5765427e-05
-0.00026006796
-8.1731124e-05
4.3717634e-05
-4.8016571e-05
-2.3220847e-05
-2.8626348e-05
0.0001448677
0.00052183894
-8.3897113e-05
0.00010261041
0.00060550406
5.667887e-05
0.00011093914
0.00048247856
1.1798423e-05
0.00023762204
0.00021977094
-0.00013908382
0.00023013533
-7.7538221e-05
-6.0052853e-05
8.7413776e-05
-0.00028932021
-9.1100188e-05
1.0171637e-06
-0.00042470891
-0.00013044174
-0.00017647508
-0.00024268547
-0.00010683242
-0.00010152646
-4.6417496e-05
4.0659578e-05
2.4564628e-05
0.00062370211
3.4094828e-05
0.00021171264
-0.00026237191
0.00017479011
4.2114665e-05
-0.00037954369
2.804717e-05
-0.00032633462
-0.00014421953
-3.9905847e-05
-0.00022222391
-8.0040004e-05
-1.942664e-05
0.00034864419
-9.9012742e-05
0.00033405369
0.00034035491
-4.4455995e-05
0.00025387669
0.0001463092
-5.3425169e-05
6.8334919e-05
0.00017286762
-3.1989106e-05
1.5126989e-05
4.6599972e-05
-9.1224294e-05
5.9960369e-05
-0.00051183696
2.019604e-05
-5.9658416e-05
-0.00021595595
0.00013944685
-0.00024643295
0.00023006246
0.00015605783
-0.00011970937
0.0002526633
0.0001102315
0.00012817926
0.00040686497
-5.9778438e-05
0.00030533337
0.00022545355
-7.495461e-05
0.00016686327
0.00013943848
-9.8500587e-05
0.00011966115
-0.00029002246
3.5547752e-05
-2.1616366e-05
-0.00024773556
0.00013277348
-0.00026468691
0.00024880598
4.4670785e-05
-0.00027963594
0.00014791236
3.3512651e-05
-2.3393216e-06
0.00015555051
-4.802169e-05
0.00014017059
0.00032180194
0.00011928849
0.00029176202
0.00020387446
4.4333305e-05
0.00041011463
8.7109643e-05
-4.1622775e-05
0.00022782288
0.00012150157
-3.8841166e-05
0.00014248871
-0.0002103794
-2.6293204e-05
0.00017787259
-0.0004179882
-4.8466169e-05
-2.7192495e-06
-8.9008876e-06
3.7357161e-05
-0.00022539549
0.00037583123
4.2743673e-05
6.2819436e-05
0.00024452868
0.00017030298
3.5268729e-05
-0.00031224631
0.00011329851
-2.9598881e-05
-0.00035116703
6.8992682e-05
-0.00015085982
2.2865801e-05
-7.2868881e-05
-0.00032094031
0.00015141202
4.7115685e-05
0.00010149518
1.6213e-06
0.00029352534
3.0454889e-05
0.00041050289
4.9936366e-05
0.00052628535
9.8925531e-05
0.00049452522
0.00012127141
-5.1469995e-05
9.1187375e-05
-0.00040643525
0.00012305772
-0.0003032267
8.7836337e-05
-0.00014382498
4.0706306e-05
0.00017989995
-1.1469308e-06
0.00032866264
2.7011497e-05
0.00041422981
-5.1076291e-06
5.3450509e-05
5.9262366e-05
-0.00028380893
0.00022210229
-0.00017451595
0.0002672698
-0.00011421636
0.00023663679
-5.1048406e-05
0.00015359864
0.00014638553
4.4710453e-05
0.00028304119
-3.0710922e-05
0.00032097081
-8.8306093e-05
0.00036986038
-0.00012588653
0.0001012364
-0.00016294398
-0.00029770301
-0.00020539391
-0.00033610824
-0.00014369082
-1.4973679e-05
-7.4400638e-06
0.00017857138
-5.7974489e-06
-0.00010731106
2.550476e-05
-0.00039620586
0.00010898702
-0.00033659229
0.00013513263
-0.00018332761
0.00014934775
5.9346156e-05
-0.00017429116
0.00016093223
1.5094334e-05
-0.00026325454
7.804646e-05
-1.0234715e-05
-0.00010941053
-0.00018520714
-1.7059422e-05
-5.2190713e-05
-0.00013428358
-4.0115375e-05
0.0001149602
-0.00031157905
2.7300175e-05
0.00022984349
-0.0002655931
4.4132071e-05
0.00029630226
-0.00020519344
2.07624e-05
0.00012128493
8.7614914e-05
1.2233928e-05
-6.9530037e-05
0.00015202416
-3.8953336e-05
-0.00013360759
0.00011137111
-0.00013801256
-0.00015718187
5.4465565e-05
-3.8634814e-05
-2.9816706e-05
-0.00019979743
7.0957367e-05
0.00010593581
-0.00021414386
2.9499554e-05
0.00026682768
-0.00020215649
-8.9059609e-05
0.00025254651
1.4078604e-05
-0.00012713849
0.00010318147
0.00015980979
-8.7443563e-05
5.5711596e-05
7.1916897e-05
-0.00012637234
4.6181267e-05
4.3168075e-05
-0.00011153501
2.3047668e-06
0.00013781972
-4.6867617e-05
-8.2896517e-05
0.00015821752
6.3947073e-05
-0.00011696541
0.00014623616
7.7834602e-05
-0.0001445904
9.671196e-05
0.0001283719
-0.00020199654
9.6185778e-05
9.5622293e-05
-0.00028942507
0.00011291406
7.6925308e-05
-0.0001996955
-0.00013561939
9.0345536e-05
-4.401904e-05
-0.00024414036
6.9762209e-05
4.0402344e-05
-0.00011993852
8.8728061e-05
0.0001638178
-0.00026103842
0.00012910462
0.00018532302
-0.00016572179
9.4447223e-05
7.9371923e-05
8.6617603e-05
-0.00052400307
0.00065478087
-5.5368764e-05
-0.00047864542
1.334184e-06
-7.391179e-05
-0.00019518194
-0.0004870087
-7.128399e-05
-3.7297997e-05
-0.00033017258
-7.530001e-05
0.00017358511
-0.00062218084
1.1871929e-05
0.00025038802
-0.00055589752
0.00010710305
0.00044030956
-0.00055092933
3.7478797e-05
0.00034491188
5.3818313e-05
-7.5945457e-06
-0.00015637891
0.00066307793
-0.0001132149
-0.0004276375
0.00052313005
-0.00021856443
-0.00031506635
9.3817008e-05
-0.00010772927
-0.00011182337
-0.00048966245
0.00015958573
7.4866156e-05
-0.00048408878
8.3292048e-05
0.00032235844
-0.00050080875
-6.0441783e-05
0.00038801001
-0.00010273548
-0.00016197084
9.2762068e-05
0.00047699057
-0.00018135729
8.1802365e-05
-2.5598646e-05
-0.00015978467
0.00024459081
-4.4397839e-05
-0.000214538
2.2957262e-05
0.00059693934
-0.00017191829
-0.00018927844
0.0005754741
6.906943e-05
-0.00016322589
0.00015500935
0.00018303212
-0.00014351815
-3.2524582e-06
0.00031055075
-0.00020037051
6.0813907e-05
0.00025942463
-0.00024435371
3.5159646e-05
0.00017810522
-0.00014056763
-0.00040577786
0.00011272902
5.0312362e-07
-0.00050284319
6.3481084e-05
0.00011995481
-0.00031695387
9.8521171e-05
0.00026132846
-0.00056894576
0.00012608717
0.00029457487
-0.0004382465
7.7288135e-05
0.00016516848
8.5672195e-05
0.00010463114
0.00055518896
-6.3062099e-05
0.00027979037
-9.8568585e-05
-0.00014074249
1.64824e-06
-0.00015297538
-0.00013513707
8.2360098e-05
-0.00037649496
-0.00013124843
0.00010473241
-0.0005717372
-2.0972486e-06
-1.5954615e-05
-0.00040452362
0.00018034744
-0.00028967168
-0.00010835728
7.7896176e-05
-0.00021450842
-2.8941535e-06
1.8383743e-05
-0.00013961513
0.00060174134
-6.6948024e-05
2.2278559e-06
0.00036236847
-6.6923286e-05
0.00017725181
-5.3640284e-05
-0.00013539029
-4.2915518e-05
-0.00021982033
4.0585927e-06
-1.3787738e-05
-0.00042921718
-8.2339305e-06
-9.8029815e-05
-0.00036200015
-1.084887e-05
-0.00011934264
-5.0574617e-05
-5.9474367e-05
-3.868959e-05
0.00036911494
-5.667452e-05
-0.00016261368
-7.9457962e-05
0.00023446228
-4.8295705e-05
-0.00010806097
-3.885642e-05
5.3603142e-05
0.00050282593
-0.00014686927
1.686503e-05
0.00053632681
1.583255e-05
0.00010133292
-3.4621497e-05
1.4062762e-05
0.00013785696
-0.00017116249
9.4424466e-07
0.00020476761
-7.1291757e-05
-4.1637411e-05
0.00036533647
-9.003957e-05
5.2899337e-06
0.00018294421
-0.00010209138
-8.7199398e-05
-3.4610847e-05
-0.00017333102
6.2832989e-05
7.2577066e-05
-0.00046350705
6.7412439e-05
5.7228059e-05
-0.00055969378
-3.3808819e-05
-3.6982397e-05
-0.00035339826
-1.0064419e-05
6.1868808e-05
-3.2695465e-05
0.00030992439
0.00024795206
-4.7143478e-05
0.00013837805
0.00012901687
-0.00010946429
3.7564335e-05
3.4533183e-05
-0.00011868396
0.00011486327
-0.00039954901
-0.00014546919
8.9030385e-05
-0.00054137485
1.566658e-05
-2.7389319e-06
-0.00032862555
0.0001553181
-0.00020024878
0.00017470081
7.0509585e-05
-0.00028549084
0.00025209223
-5.9512815e-05
-2.2957659e-05
0.00031809288
-3.8663145e-05
0.00016954949
0.00018291074
-8.8004007e-05
-1.5420917e-05
0.00026049946
-0.0002276699
-7.1331672e-05
-8.7899553e-05
-4.0462243e-05
6.3341838e-05
-0.00047623018
4.5112992e-05
2.5459753e-05
-0.00029217007
1.272281e-05
-4.6235026e-05
8.9000245e-05
-3.4367415e-05
0.00013697034
7.7699968e-05
6.0187926e-05
-0.0001599607
0.00028216722
5.4594345e-05
-0.00032829441
0.00021318391
-0.00010857787
-3.3036911e-05
0.00020594146
-3.9995813e-05
0.00028880773
0.00017924205
-3.6010612e-06
0.00040761615
-0.00014016842
-3.9554714e-05
0.00033922786
-9.443547e-05
-5.6804905e-05
0.00015955509
0.00025882831
-0.00011309015
6.2063758e-05
0.00022274399
-0.00017254856
-5.9125169e-05
0.00021281314
-2.3412614e-05
-4.3446374e-06
-9.2241908e-05
-2.2571141e-05
0.00010236591
-0.00051189569
1.067077e-05
7.1021321e-05
-0.00059247902
-8.7390684e-06
5.7490233e-05
-0.00030710206
1.4350569e-05
0.00018548977
-6.4509436e-05
0.00028166802
-3.2610828e-06
0.00048401041
-2.3389167e-05
0.00062651139
-9.0422622e-06
0.00038111894
-3.2885157e-05
-0.00011708699
4.8018451e-05
-0.00044864491
0.00012599008
-0.00031404017
0.00012793242
-0.00010209387
8.0852239e-05
0.00012599924
8.8852859e-05
0.00024107079
9.4850702e-05
0.00041972615
7.6736494e-05
0.00030054884
9.0540146e-05
-9.4977701e-05
0.00014139868
-0.00035172889
0.00023185092
-0.00030522218
0.00027913034
-0.00027344071
0.00019951714
-0.00011935336
0.00017279033
1.4754454e-05
4.8365174e-05
0.00013052651
1.8633014e-06
0.00020019343
-1.6311394e-05
-6.9412482e-06
-9.5977736e-05
-0.00016054462
-0.00014622602
1.4746596e-05
-6.0153724e-05
0.00025758943
-2.7538912e-05
0.00046902728
-4.4221643e-06
0.00048132604
-7.9035915e-05
0.00020090942
-0.00012249205
-0.00015035455
-0.00010608242
-0.00028780346
-2.0305401e-05
-4.2967532e-05
-0.00020894154
0.00016824415
5.4257379e-05
-0.00030462781
6.0636763e-05
2.4970194e-05
-0.00017601844
-0.00019686609
4.873276e-05
-7.9954203e-05
-0.00028093521
0.00014299433
6.90249e-05
-0.00033333554
0.00020881956
0.00015337147
-0.00017500926
0.00013488075
0.00023964966
-0.00025547504
0.00018791276
8.0760206e-05
2.9615825e-05
0.00014093902
-0.00012931096
0.00013415828
3.6258881e-05
-4.2915229e-05
-0.0001484687
-7.8825608e-05
-8.3057103e-05
7.1073158e-05
-7.1204316e-05
-0.00017028323
4.7526624e-05
0.00010740011
-0.00010178349
-0.00016328303
0.00012167305
0.00018535291
-0.00037986529
0.00016687556
-0.0001087791
-6.5673249e-05
0.00014731946
8.4707187e-05
-0.00028051812
0.00015701978
-0.00014153695
-4.3053297e-05
7.3509467e-05
8.9565164e-05
-5.3705604e-05
1.5027577e-05
0.00013135288
-1.0745707e-05
-4.7251605e-05
0.00017025694
-3.0965812e-05
-9.9707341e-05
0.00017346212
5.8879664e-06
-0.00020453457
0.00018511428
1.4553078e-05
-0.00029416439
0.00018744773
-2.1265939e-05
-0.00026756111
3.9416296e-05
2.3115925e-05
-2.1777864e-06
-0.00026285982
6.2845666e-05
0.00016484211
-0.00010040805
2.1139891e-05
0.0001728349
9.5344735e-05
2.5739862e-05
9.3612036e-05
0.00015626928
1.7554213e-05
0.00015285147
2.6691855e-05
-0.00047486175
0.0005770793
1.0657836e-05
-0.00045913918
-3.396298e-05
4.9653823e-06
-0.00022157925
-0.00049958783
-6.1221889e-06
-0.00014511192
-0.00059412557
0.00016142301
1.9190956e-05
-0.00068018057
0.00019441408
0.00019462789
-0.00037667639
0.00013333324
0.00044122929
-0.00061224139
0.00014764375
0.00034364067
1.3160499e-05
0.0001064494
-9.9646182e-05
0.00055453064
-9.0300405e-05
8.4649875e-05
-0.0004032554
-0.00014807378
-4.4715158e-06
0.00020708927
-0.00015462397
-0.00036930817
0.00051537471
5.6574304e-05
-0.00019448736
-0.00038404375
0.00012923196
0.00010682394
-0.00074161836
0.00012034239
-0.00028426839
-8.3154207e-06
9.4619992e-05
0.00016218739
-0.0006108056
0.00031268031
-0.00040668993
-9.9877949e-05
0.00026628502
0.00019298613
-0.00022894397
6.499311e-05
0.0006270259
-0.00022531168
-6.7472835e-05
0.00050681948
-2.106448e-05
-0.00019365421
0.00059511606
1.5078177e-05
-0.00037472474
0.00059496289
3.0646546e-05
-0.0005456795
0.00049057283
4.5934873e-05
-0.0004312917
-4.8053914e-05
8.5811434e-05
-6.1395546e-05
-0.00062633015
5.705526e-05
0.0002087052
-0.00033343502
6.1447397e-05
0.00037571847
8.2776443e-05
-2.8357809e-05
0.0003411442
0.00029472149
-2.6589801e-05
0.00060025822
-2.0590362e-05
0.00010948749
0.00046036798
-5.5838273e-05
0.00022395589
-0.0001026892
-0.00018648467
-4.6885546e-06
-0.00028644944
-0.00011963101
-6.9319838e-05
-0.00053422374
-0.00012651899
-3.1986225e-05
-0.00060371611
-0.00011589533
3.9912508e-05
-0.00034997609
8.1748404e-05
-0.00022176766
-0.0001625749
-0.00011009014
-0.00012491148
-7.8493318e-05
1.3181394e-05
-9.1713265e-06
0.00040987517
-3.8032692e-05
-0.0002453718
-0.00016413873
-6.9839477e-05
-0.00018644706
9.8291386e-06
2.9451134e-06
-1.3265163e-05
0.00024439416
0.00010185728
6.1813486e-05
-0.00047033192
2.9756188e-06
-0.00011173452
-0.00057891921
1.7868648e-05
-0.00047334591
0.00024236359
-0.00018654946
8.8218836e-06
-0.00014280161
-0.00014051142
-7.1682968e-05
-0.00022453009
2.8460974e-06
8.6089697e-05
-0.00018333035
9.4205878e-05
0.0005720438
-2.0545139e-05
2.5560082e-05
0.00041881363
0.0001707144
-9.203065e-05
0.00047949432
0.00023415671
-0.00013182508
0.00049120694
0.00010191296
6.4504529e-05
0.00033397989
-3.4446744e-05
0.00017046226
-0.00010831071
-0.00013290034
-0.000233985
-0.0001091603
-4.9889603e-05
-0.00034458115
-0.00023637459
8.094815e-05
-0.00010732314
-0.00026300264
7.4712247e-05
8.9500914e-06
0.00014603084
2.2352986e-05
0.00057996049
-3.4476392e-06
0.00030619443
0.00016385969
-5.6829618e-05
0.0001372093
8.7838089e-05
-0.00013100646
2.0985732e-05
-0.00019604284
-9.2867e-05
-5.8945378e-06
-0.00052817152
-0.00012464115
-2.5157665e-05
-0.00053824083
-3.0545577e-05
9.9436725e-05
-0.00035426818
3.5015797e-05
1.9618952e-05
2.8195564e-05
-4.0443102e-05
-0.00013148485
0.00019425642
-0.00018115874
4.5634408e-05
0.00019394017
1.526028e-07
-0.00014767865
6.4306355e-05
-0.00012313601
-0.00022814357
3.2698238e-06
-0.00014064565
5.1118871e-05
-0.00017358272
9.8252232e-05
4.9309626e-05
-0.00045181097
2.8401321e-05
-2.9016624e-06
-0.0005139851
-7.330965e-06
-0.000503284
6.7386659e-05
-0.00020107916
-1.2192499e-06
-1.9601354e-05
-0.0002059533
0.00019630981
-0.0001718366
-0.00029342906
0.0002225471
-8.8977451e-05
-6.8294259e-05
0.00031669812
2.6609802e-05
-9.8861528e-07
0.00019797694
0.00011397633
8.5541552e-06
0.00025216608
0.00016098056
8.0746985e-05
0.00024794413
5.7979829e-05
0.00027894488
5.7194447e-05
-9.3961018e-05
0.0002516392
3.0849414e-05
-0.00013526706
1.8452353e-05
0.00012484322
-2.3387825e-05
-0.00011949167
-0.00015778054
7.0020736e-05
-0.00014443876
-0.00032578403
7.8989419e-05
-0.00014469057
6.1402751e-05
9.9230458e-05
0.00035822483
1.253565e-05
0.00026605985
-0.00010546125
0.00047670794
-0.00014619917
0.00045152999
-0.00017990716
8.212108e-05
-0.00019164777
-0.00030153271
-0.00010656859
-0.00045132202
-7.8488791e-05
-0.00029111385
-4.0801824e-06
-1.2954736e-05
-3.0504431e-06
0.00020269993
6.7138383e-05
0.00031411739
4.7739612e-05
0.00041689362
-2.276989e-05
0.00036010659
-2.6255529e-05
4.7376304e-05
2.3180088e-06
-0.00023475786
-0.00045891152
-0.00046047353
-0.00030728455
-0.00022389355
0.00016128398
-0.00019338199
0.00019389883
-5.2618482e-05
0.00015962321
-2.5010774e-05
7.439149e-05
2.4167601e-05
5.6761675e-05
0.00013978127
7.2176729e-05
0.00020824253
-3.8805732e-05
0.0002791329
-4.4463123e-05
0.00037628551
-5.1345308e-05
0.00017632996
-8.0317039e-05
-0.00019750132
-5.8035177e-05
-0.0002437832
8.7379222e-05
7.1474097e-05
-0.00010516259
0.00017563173
-1.6010347e-05
-0.0001288607
0.00011262157
-6.2509412e-05
6.8048085e-06
-9.4188655e-05
6.0494126e-06
-9.6381611e-05
0.00011051707
0.00013899518
-7.2465946e-05
-2.1747978e-05
0.00020786543
0.00016391009
-0.00031515893
0.00021242759
0.00010098813
7.7015448e-06
0.00024482654
-0.00010710801
0.00014635428
0.00020293982
-0.00019729019
5.6869347e-06
0.00012077332
1.5493606e-05
-0.00032458589
3.066356e-05
0.00019633689
-0.0002676809
1.3123634e-05
0.00014185685
6.0406875e-05
0.00010165805
0.00013958448
0.00012547068
-7.8758203e-05
0.00015754122
-0.00011923186
-0.00013124715
0.00015657964
-0.00015569047
-9.0378279e-05
0.00010731067
-0.00015552629
9.225277e-05
-0.00016405434
-4.9731483e-05
1.6311528e-06
0.00012093295
-2.2662331e-05
-0.00011798406
0.00015987582
-2.6139436e-05
-0.00016043599
0.00015412189
-0.00013332263
-0.00018317855
0.0001744452
-0.00012920042
-0.00013513116
0.00010883888
-9.4657117e-05
3.6673152e-05
-7.1524367e-05
-8.1178094e-05
8.5783203e-05
0.00010118561
-0.00012403344
6.7729904e-05
0.00013374118
-9.8954246e-05
0.00017296074
-7.9023902e-05
-0.00039821707
0.0006143432
-2.9836562e-05
-0.00036016574
0.00010218708
-2.2651465e-05
-8.2190195e-05
-0.00038280289
4.5164975e-06
-0.00013519654
9.0171312e-05
0.00023477511
-0.00011727204
-0.00012261683
0.00027735843
0.0002715651
-0.00073204694
0.00016138411
0.00024019537
-4.7753627e-05
0.00023446864
-0.00026899559
0.00067358976
8.8404879e-05
-0.00027982624
-3.7515136e-05
-3.6267674e-05
3.0789306e-05
-0.00069558414
-8.7691071e-05
0.0002716786
-0.0005919881
-7.1206068e-05
0.00032533601
0.00010124215
-3.7918368e-05
0.00054116513
5.2987324e-05
-7.2854969e-05
0.00035733629
-0.00022681805
-0.00018721504
0.00034695033
-0.00030495459
-5.6410822e-05
-5.5456396e-05
-0.00019334883
0.00027776537
-0.00052683859
7.5435842e-06
0.00031847124
8.9694402e-05
5.61085e-06
6.1450044e-05
0.00045449539
-6.9518323e-06
-0.00027658121
0.0006158996
-7.7811576e-05
-0.00048164865
0.00056822323
-0.00010289916
-0.00037350227
0.00012213381
-6.4386046e-05
-2.3951879e-05
-0.00029318026
-6.6447106e-05
0.00022621285
6.916939e-06
-0.00018425387
0.00027952891
0.00019022702
-0.00013639171
0.0006380068
-0.00020610751
8.854903e-05
0.00054591721
-7.5961321e-05
0.00014182989
-7.7548118e-06
-0.00012982365
-0.00017700343
-0.00013943486
-4.4165724e-05
3.3971889e-05
-0.00030338778
5.6064783e-05
0.00013898809
-0.00034660117
3.0728079e-06
-0.00017272895
-0.00013857465
-0.00020000685
-0.00017489244
-6.8644786e-05
-8.7035486e-05
3.0461819e-05
0.00048490182
-3.4849183e-06
0.00019437966
-0.00018220268
-5.7262974e-05
3.6905073e-07
-0.00045579829
-0.00011561471
-0.00015780672
-0.00040661786
-2.4249331e-05
-2.3049702e-05
-1.917594e-05
8.7518373e-05
0.0004386439
8.2447168e-05
0.00016805802
3.4287506e-05
-6.9539325e-05
0.00032818027
6.5742277e-05
-6.2244545e-05
0.00028293282
-8.1814187e-05
5.1060095e-05
-0.00016954629
-8.0617561e-05
0.00017697247
-0.00019765714
5.1281464e-05
0.0003006805
-9.9243848e-05
0.00035266947
0.00010532558
-8.5648703e-05
0.00058926033
-2.1402622e-05
-9.541755e-05
0.00047469694
-2.9605201e-05
-0.00012639826
-1.2770255e-05
0.00011599517
-0.00026862409
-0.00013611061
6.6104329e-05
-0.00017737008
-0.00010413771
9.4512875e-05
-1.2339384e-05
1.4639718e-05
3.290959e-05
0.0006167973
5.4224736e-06
0.00031608883
0.0002557269
-8.2728135e-05
0.00011865227
0.00021959492
-0.00016091964
-6.8667307e-05
9.5456564e-05
-0.00014043885
-7.7666559e-05
-0.0003554541
-6.3575596e-05
-0.00013821452
-0.00029637842
-2.0220369e-05
-0.00028782861
0.00014525044
-9.9195197e-05
-0.00026940273
-1.7287804e-05
-0.00011022596
0.00013872389
-7.3216508e-05
-3.1167015e-05
0.00013774315
-0.00014087201
-4.0197309e-05
4.3616265e-05
-0.00043599605
-4.8811351e-05
-0.00012302075
-0.00041732593
3.6699454e-05
-0.00018773595
3.5785672e-05
0.00010800585
0.00017940453
9.9904762e-05
6.943284e-05
-0.00020696197
-1.9964317e-08
0.00023534129
-0.00013163897
-5.7504653e-05
6.9779031e-05
0.00010325559
7.1022816e-06
-0.00018913762
0.00018383153
0.00010844388
-0.00031544455
0.00020203809
0.00013653086
-0.00010620532
0.00012382719
7.7582879e-05
0.00013032533
0.00027706586
-1.8297206e-05
0.00030747465
0.000170147
-7.8664446e-06
0.00019976893
4.6402459e-05
2.5145171e-05
-8.8644437e-05
0.00021074083
1.1582657e-05
-0.00037545439
0.00020416998
5.7491673e-05
-0.00028247152
-8.0694803e-05
0.0001015821
0.00022198772
0.0001248737
0.00023145416
-8.1188516e-05
0.00040843743
-0.00010358752
0.00045932772
-0.00013534089
9.2775629e-05
-0.00018054978
-0.00015315355
-0.00015701783
6.1654363e-05
-0.00014804626
0.00017619084
-0.00013590445
0.00018092196
-8.0998063e-05
0.00018055128
-7.336294e-05
-5.5582123e-05
-0.00015212302
-0.00026903669
-0.00022664123
-0.00017166474
-8.7841787e-05
1.0057808e-05
-0.00022774124
0.00018206326
-0.00032625356
0.00016077218
-0.00026744957
0.00020407481
-0.00021259116
0.00020336461
-0.00014801165
0.00019422025
-8.2886741e-05
0.00013087901
0.00014079918
1.4574203e-05
0.00022807957
3.8403487e-05
0.00013850212
8.4634594e-05
0.00010873023
0.00016019567
5.9218057e-05
0.00019564698
-0.0001487576
0.00021466007
0.00014470422
-5.360336e-05
0.00015011299
-0.00011330423
-1.3877231e-05
4.2369982e-05
-0.00014502178
0.00018359671
-9.8586356e-05
-9.3928492e-05
0.00013012151
0.00020442711
-9.1132677e-06
0.00010205884
0.00016935664
6.9002566e-05
9.9091381e-05
6.1460557e-05
0.00015888483
-1.3842464e-05
0.00015617922
0.00020539319
-0.00016501574
0.0001576836
0.00019913578
-0.00020782815
4.2699485e-05
0.00012411508
-1.8982731e-05
-0.00028864656