/*--------------------------------*- C++ -*----------------------------------*\
| =========                 |                                                 |
| \\      /  F ield         | OpenFOAM: The Open Source CFD Toolbox           |
|  \\    /   O peration     | Version:  v2012                                 |
|   \\  /    A nd           | Website:  www.openfoam.com                      |
|    \\/     M anipulation  |                                                 |
\*---------------------------------------------------------------------------*/
FoamFile
{
    version     2.0;
    format      ascii;
    class       volScalarField;
    location    "540/bottomWater";
    object      T;
}
// * * * * * * * * * * * * * * * * * * * * * * * * * * * * * * * * * * * * * //

dimensions      [0 0 0 1 0 0 0];


internalField   nonuniform List<scalar> 
1460
(
968.76114
968.89332
968.03106
970.72839
970.33518
970.94122
971.08139
966.4979
960.31463
959.05347
956.38202
955.49339
954.39066
951.84245
950.28829
944.97142
934.86402
931.93072
929.2969
927.59681
925.2311
924.04872
925.25311
926.74907
929.14545
928.81235
928.77424
929.72997
931.01629
932.94294
968.92194
968.92097
968.78756
969.28124
969.11385
969.03746
969.03186
963.98647
959.34119
958.71025
956.43862
951.84765
951.1571
948.71554
944.77961
936.4753
931.41311
930.1151
929.80843
927.46577
925.03686
924.2339
924.41338
925.1589
928.00769
927.81728
929.16232
929.90732
930.53277
931.62986
968.96718
968.99965
968.651
968.59716
968.60131
968.9003
968.84705
964.33097
961.09254
958.93958
957.37418
949.35052
951.5427
949.00405
943.86028
936.7866
932.86584
931.74222
930.29411
927.66704
925.04918
923.99417
925.02381
925.5066
927.16727
927.31237
928.99379
930.69128
930.90148
932.0393
969.00165
969.00758
968.0313
967.36359
966.76457
964.46791
968.04921
964.76219
963.11927
960.83324
958.46864
950.64847
950.53111
948.67394
942.86626
933.561
931.64932
930.45405
929.37698
926.48456
924.41258
923.76237
924.96529
925.92965
927.35204
927.68138
929.83176
931.7906
931.64127
932.47296
968.51936
968.38951
968.11489
967.90427
967.61442
962.16838
961.55855
962.08226
960.8888
959.31951
957.58273
949.64614
945.38904
944.10395
939.06036
931.73244
929.59428
927.67638
926.00441
924.84383
923.57805
923.44704
925.49153
927.14424
928.9933
930.17768
930.62386
931.37078
931.73406
932.32042
968.56457
969.39716
968.82908
969.81027
968.90919
969.4953
969.82946
970.04364
956.63418
950.46213
948.82155
948.69071
942.96919
941.14975
940.49331
939.60086
933.3991
930.91212
930.30116
928.24745
925.80301
924.43783
925.33192
926.36179
928.72398
930.48693
930.29223
930.79624
931.65374
932.3374
969.73379
969.96306
969.95729
968.84685
968.16655
967.50868
967.70971
967.93062
957.92177
950.97964
950.93679
950.3027
942.72095
938.23077
936.48857
935.45326
929.20358
926.75924
928.2647
926.47734
925.23351
924.62137
926.09471
926.38701
928.79878
930.74545
930.72773
931.52833
931.26734
931.52381
969.78041
969.9765
970.03733
968.84861
967.96565
966.56806
967.88254
967.89889
957.55431
950.62644
950.75295
951.10587
943.37945
937.16179
934.97457
934.24605
930.06204
927.36397
926.24351
926.44577
925.5983
924.66235
926.20896
927.68241
928.7889
929.16743
930.50963
931.58923
931.9463
931.63849
969.81173
969.80528
969.57079
969.28886
968.11142
965.32866
966.39186
965.35016
957.42661
952.03004
952.45515
952.38927
943.7418
937.89634
935.60168
933.10235
930.05997
928.06575
926.94179
926.97725
924.77824
924.13916
925.00254
927.43322
928.73338
928.46877
930.94777
931.54674
932.2371
932.09269
969.38309
969.1513
968.96827
968.68402
968.12575
964.07279
964.10715
962.59613
957.32207
954.18958
953.5659
953.22369
939.14078
936.05388
932.90054
929.36286
928.55423
925.94944
924.12621
923.83332
922.55555
923.89737
925.5871
926.78338
927.36008
928.22864
930.71232
931.15317
931.53717
931.63481
971.36057
971.06958
970.04217
970.31395
968.19571
967.42226
966.90506
968.07863
960.33664
952.40708
950.41518
949.66529
944.59448
938.28784
935.75253
932.80341
924.12164
922.91914
927.86512
931.52415
929.76645
929.50666
930.68855
930.44926
929.63722
928.79911
929.58433
928.27112
929.17131
929.63555
970.66622
970.53536
970.48887
969.17115
968.36045
966.36035
965.23096
965.82857
960.41077
950.80033
949.17625
949.83795
945.20282
935.61063
931.28233
928.09936
921.31151
917.23805
921.34224
927.47449
926.96903
926.92866
928.63382
929.24096
928.874
929.04396
928.3148
928.44623
929.94851
930.21638
970.63091
971.0729
971.07421
969.52869
968.34806
965.62221
964.51055
961.59277
958.62825
951.01203
949.87182
950.4642
945.27522
933.53712
926.56708
926.63485
924.05723
920.0733
921.15491
926.91495
926.96074
925.84436
926.80275
927.73518
928.48436
928.90708
928.03866
928.39358
930.57153
930.90909
970.62074
970.80294
970.94208
969.58209
968.18578
964.25797
963.68646
960.80324
958.36024
952.37268
950.81587
951.04301
945.58755
934.10963
928.61735
926.39297
925.59538
921.16908
921.91355
926.89689
924.89988
924.90291
925.80279
927.77698
928.74331
928.69865
927.73305
928.32036
930.53859
931.58183
969.94627
969.83354
969.51812
969.22474
967.73645
962.34277
961.83595
960.22257
957.8653
954.76098
953.12158
953.26889
945.22565
929.74285
926.86984
924.23511
922.98168
919.10268
920.52685
922.72209
921.57905
923.86032
924.97183
926.42198
926.9855
926.77914
927.1791
928.46625
930.58617
930.86441
970.29866
970.08688
969.43899
968.31435
965.40672
966.42137
965.13703
966.40188
959.31147
953.54834
947.58946
942.8818
937.74336
932.1553
926.57162
920.08086
914.23805
915.60446
919.77333
925.72847
928.97766
930.51547
932.05256
931.39126
930.3239
929.1764
929.8806
930.47432
931.7751
933.12225
970.52932
970.56703
970.48917
968.92223
965.07604
964.90459
963.72141
964.07845
960.17944
952.93068
946.01265
944.78421
943.81184
933.17023
921.7743
916.86027
917.2959
914.59294
919.22941
922.88089
926.61929
928.68899
930.15305
930.13472
929.84089
929.8359
929.40772
929.52927
930.30374
931.22792
970.70052
971.43842
971.20206
969.91332
964.90461
964.18961
963.08426
960.80332
959.55012
951.2683
946.42092
944.99885
951.4812
932.44276
918.6372
916.08224
918.43085
913.82011
919.8947
922.93648
925.7788
928.57497
930.16451
930.10361
930.03744
929.84444
929.43186
929.73537
930.65917
931.43155
970.91394
971.32002
971.0887
970.54693
964.342
963.04298
963.83432
961.42137
959.12354
954.84833
947.28496
949.7366
951.65307
931.38618
919.12808
917.81082
917.4378
915.72457
921.99253
923.24915
925.45137
928.05777
929.9801
929.78924
929.78476
929.8908
928.81976
929.0617
931.27673
931.64772
970.79269
970.93207
970.89706
970.71192
964.27565
962.09094
961.44851
960.97375
958.14313
956.60609
955.16612
954.0978
952.00733
927.77153
919.71265
917.77347
917.27905
917.42395
920.9171
922.05373
923.22867
925.58666
928.06405
927.33904
927.32145
927.78106
927.52748
927.98696
930.10841
931.18311
973.74179
973.67852
971.44862
971.41881
967.57858
966.98129
967.43339
964.94023
957.83495
956.56113
942.92632
945.51161
936.34265
916.04767
929.65243
928.49242
924.87726
929.19989
930.75361
930.36563
931.01085
930.55547
929.98081
931.01693
931.22886
931.54256
972.02744
971.41266
970.80517
969.11258
966.2495
966.60561
965.66923
962.25891
957.10094
956.64481
941.09132
942.25557
937.9742
913.15501
925.17302
924.13925
923.27099
924.80851
926.78287
929.11332
929.91321
929.73449
929.58061
929.14887
929.60505
929.87221
971.95466
971.57562
970.97768
970.38271
967.52865
966.79785
964.22198
962.17961
960.76076
957.08867
939.54922
939.82436
935.24514
908.87775
919.94673
920.31523
923.56081
927.5165
927.62303
928.93279
929.93344
929.9671
929.96923
930.09706
930.10639
929.91363
971.91851
971.92305
970.86932
970.44233
966.53775
965.21235
963.99272
962.33305
961.61733
956.66391
937.75786
935.5116
933.30014
908.74768
918.90227
920.08679
924.01176
927.65791
928.03391
928.55874
929.66116
929.82764
929.7183
929.86022
930.0078
930.0094
971.5636
971.60641
971.28393
970.94526
966.74074
965.78026
965.9827
964.19721
961.25915
954.28015
933.78658
928.40478
927.03746
914.68233
920.26574
921.49462
923.34201
925.62504
926.2302
926.72007
927.73096
927.56057
928.26452
928.6078
928.39519
929.47437
975.35282
974.42419
971.40108
973.39162
971.82974
971.18915
970.17377
963.39962
958.05111
954.91777
944.41647
946.39718
936.88483
919.04618
926.06262
924.3186
923.64245
925.0848
926.32651
927.29886
928.71009
927.9449
927.9635
928.45317
928.84458
929.6239
971.69207
970.60526
970.6315
971.41805
969.27861
968.8697
967.99913
959.30868
955.23709
953.4993
941.56299
937.03856
933.17856
916.12261
923.07798
921.92899
923.522
926.03384
925.8949
927.23973
928.31198
928.27516
927.99899
927.88934
928.18104
928.76483
971.61395
970.93604
970.76841
971.13255
969.49357
970.25758
967.61493
959.17006
957.34837
953.17083
940.49321
932.27334
930.45849
911.47252
919.40248
921.63578
923.76734
926.91849
926.91856
927.31361
928.45913
929.19703
927.97073
927.86353
928.09294
929.42802
971.64336
971.55545
970.05832
970.02924
969.42834
969.39686
966.25676
959.31319
958.08559
949.12357
935.49293
929.68028
927.79004
914.04588
922.69562
923.20388
924.38365
926.2813
926.69673
927.04012
928.26988
928.32735
927.3681
927.26326
927.69219
929.21754
971.55789
971.5668
970.93769
970.43051
967.29895
967.46782
966.90351
961.23764
956.19717
942.98356
935.65522
929.34962
917.09514
915.89258
922.34752
922.53845
923.14747
923.93675
924.44332
925.54506
926.25505
926.4212
926.5322
926.84711
927.35198
928.08265
973.48356
971.90029
969.76663
972.35193
974.12116
975.05012
973.18501
964.42668
958.89621
953.25249
944.31029
937.85761
929.59691
924.53073
924.93722
925.0375
923.65548
924.51899
923.22271
926.22674
925.71163
925.58663
925.51007
926.9761
927.65361
926.77473
925.86051
926.52351
927.04644
926.79219
970.67348
969.90554
969.75463
970.51328
971.00567
971.84788
969.33694
959.24647
955.34697
951.37041
942.57086
931.66485
926.44426
924.77615
926.59046
927.60347
926.24444
922.46372
923.11435
926.78158
926.5817
926.36034
926.08423
927.69985
927.85935
927.49891
926.11765
926.79999
927.59058
927.5918
970.64841
971.45721
970.24407
970.79959
971.06494
971.66332
968.59408
958.08437
954.08686
953.1566
943.31111
933.28426
926.95167
925.37276
927.49582
928.49065
927.60783
921.60936
922.62077
927.04225
927.12527
926.47051
926.13344
927.73041
928.08682
927.82697
925.96797
926.73978
927.77895
928.15876
970.90572
970.93283
969.45207
969.34827
970.74392
970.17528
967.5857
958.63104
953.5544
951.94858
939.12005
934.44158
927.13811
925.85826
925.61213
925.07245
926.61701
926.47028
928.58543
928.69626
926.97966
926.31691
926.08231
927.62095
927.86066
927.37582
925.68342
926.40259
927.34502
928.77277
971.46127
971.26273
971.26431
967.78205
967.64189
966.61365
965.38115
960.5706
947.91002
945.96823
939.67096
936.29631
930.98309
924.67535
922.06686
922.15164
927.31285
928.43992
927.53321
926.33149
925.87885
925.43541
924.96831
925.86897
925.961
925.53041
925.31331
926.37924
927.0517
927.67538
970.81702
969.35473
968.12911
969.56196
971.21569
975.1112
974.70687
967.18925
964.28641
957.36069
953.08659
950.1185
944.39308
938.83029
935.03829
933.11173
933.17246
936.70489
937.50543
933.73896
930.58569
927.26675
928.12963
928.93968
928.28305
928.65625
929.66499
929.91439
929.4352
928.99211
969.46162
969.3008
967.99407
965.8081
967.63049
969.99533
969.12014
963.2969
959.33825
956.42891
948.92735
949.06413
941.0521
932.83002
931.3094
931.34691
931.94456
937.04476
938.58978
934.8958
932.06616
929.52455
928.38285
928.39816
928.21402
927.40765
927.61416
927.50395
927.73098
927.88458
969.51524
970.26323
968.54099
965.15366
967.57556
968.89551
967.54961
958.65887
955.14851
956.48107
949.20975
947.30097
939.68167
934.82464
936.64817
941.0642
937.56147
937.48815
939.1984
933.72611
931.85476
929.41531
928.4515
928.54949
928.30483
927.12752
926.69528
927.08606
928.00608
927.90465
969.86867
970.59062
970.42788
963.56533
964.58006
964.23908
961.38999
957.52074
956.53058
954.24171
949.54613
947.13567
938.13534
935.97828
937.69064
938.67649
934.26904
936.77835
935.9688
932.49944
930.58135
929.31268
928.54901
928.4267
928.16623
927.02659
926.50727
926.8108
927.79956
927.93412
970.37159
970.67689
970.17853
962.92173
961.69832
958.4637
956.44188
954.58646
954.50419
951.70502
949.85219
947.92426
941.18578
937.21132
936.19746
934.4901
932.4615
932.85147
931.27239
928.76173
928.52297
928.34718
927.76117
927.40548
926.87167
926.26745
926.22224
926.74947
927.10298
927.14032
969.38087
967.94955
967.1348
966.01024
967.94287
970.91353
966.46446
961.51795
959.7163
963.62576
966.62405
964.06491
958.95777
952.80446
958.52094
956.62139
947.73386
944.00639
940.01997
934.15799
931.00028
929.54749
929.9621
928.90279
928.29025
928.84345
928.7698
929.76983
929.93008
928.77929
968.82287
968.63145
967.30362
963.41439
964.78733
967.21216
961.88223
958.86473
959.00665
961.67243
963.24047
958.33606
952.22465
946.47397
949.83136
949.08271
944.82952
940.66138
939.56058
936.62903
932.58947
929.51871
928.73368
928.14243
927.63661
927.51322
927.79814
927.99447
928.23385
928.12172
968.92695
969.87588
967.53555
963.2366
965.41433
966.86969
963.0901
959.36423
958.94381
958.99859
961.24721
959.30721
952.17584
944.17991
944.96412
949.21061
945.93142
943.93999
942.71716
936.55934
932.17178
929.47636
928.87741
928.36349
927.44645
927.16984
927.65276
927.94328
928.2372
928.02649
969.0943
969.81866
968.37495
961.7406
963.25687
964.94015
961.26855
959.94583
961.91258
957.86301
954.79937
955.27059
950.78499
945.5174
942.78751
941.90739
945.04768
944.52854
939.92207
934.49294
932.00637
929.52157
929.19673
928.59731
927.03611
926.86055
927.8093
928.11554
928.22232
927.9941
969.16513
969.4941
969.33441
960.6993
959.09259
958.4262
958.34291
958.5982
957.63861
956.57954
953.0269
949.45141
948.88496
944.66227
941.83312
935.39488
936.99968
938.55817
934.20803
930.72743
930.26225
928.06721
927.6381
927.01913
926.48741
926.62517
926.99523
927.24957
927.24548
927.36819
969.78556
967.11573
965.66692
966.69081
965.86839
969.42097
971.92121
971.85032
967.50682
970.41943
965.98492
962.76511
959.42439
959.33053
956.13559
954.01094
953.22566
954.41033
944.97717
933.43914
932.00465
929.58819
930.8361
929.63753
929.16696
930.8005
929.15293
931.18043
931.3068
929.88207
966.86412
965.95299
964.77574
963.44893
964.73208
966.04155
967.50132
964.93104
964.69867
965.84631
963.53931
961.73023
958.0801
956.23488
950.59021
946.98716
946.06963
946.7369
944.75596
934.42044
931.1923
931.26948
928.95592
928.19912
928.18813
928.98882
928.94914
929.20339
929.45333
929.16177
967.30582
969.60059
965.02827
963.27426
965.02461
965.71298
966.1554
964.67832
964.48615
964.52298
962.95559
961.83771
957.71563
955.09391
947.34958
943.87778
944.88125
946.52133
944.88874
935.37047
933.81139
931.72449
928.83197
927.24116
927.69181
928.73143
928.84103
929.00393
929.26041
928.98598
967.81465
968.07189
964.99951
962.48444
963.59533
964.46874
964.94903
964.72408
964.30458
964.42051
961.40774
960.74255
958.91212
955.95249
947.30042
942.15721
944.00182
943.5301
944.38482
934.28695
933.48802
931.78761
928.92692
926.86294
927.45979
928.6755
929.37793
929.27251
929.18978
928.94978
968.31043
968.93506
965.88936
962.0208
962.42417
962.82908
962.88178
963.35968
962.97005
963.14833
962.54071
960.49226
957.59631
953.41843
944.64942
937.5807
938.10583
931.5138
928.75149
926.12501
927.08925
928.58226
927.35532
926.52095
926.9988
927.52336
927.87663
927.93607
928.07326
928.23108
)
;

boundaryField
{
    minX
    {
        type            zeroGradient;
    }
    maxX
    {
        type            zeroGradient;
    }
    minY
    {
        type            fixedValue;
        value           uniform 1073;
    }
    minZ
    {
        type            zeroGradient;
    }
    maxZ
    {
        type            zeroGradient;
    }
    bottomWater_to_rightSolid
    {
        type            compressible::turbulentTemperatureCoupledBaffleMixed;
        refValue        nonuniform List<scalar> 
130
(
753.13238
761.07059
769.38979
777.6664
785.58467
792.91715
799.49949
805.23098
810.04951
813.92215
816.83509
818.78179
819.7588
747.28617
756.57517
766.08058
775.30689
783.94477
791.79111
798.72698
804.69278
809.66857
813.65066
816.63079
818.61723
819.61126
735.55658
747.95194
759.99788
771.12903
781.12813
789.91029
797.47579
803.85493
809.09286
813.23783
816.32674
818.3836
819.41
718.11795
736.34823
752.46269
766.29386
778.04071
787.94707
796.22288
803.05444
808.57867
812.89737
816.08982
818.20763
819.2654
697.57516
725.3954
746.325
762.72482
775.90823
786.64566
795.42505
802.56692
808.27874
812.71287
815.96881
818.11194
819.18173
697.7582
725.57798
746.48834
762.85975
776.01041
786.72012
795.47894
802.60202
808.30005
812.72261
815.97147
818.11072
819.1763
718.68576
736.8814
752.93866
766.70012
778.36436
788.18846
796.4031
803.18185
808.6616
812.9483
816.11765
818.21112
819.25457
736.37885
748.7333
760.70322
771.75358
781.64987
790.32488
797.78949
804.08165
809.24878
813.33643
816.3787
818.39649
819.40322
748.20925
757.46329
766.8959
776.03909
784.56593
792.29204
799.11002
804.97052
809.85526
813.75836
816.68086
818.62674
819.6003
754.05446
761.95754
770.20787
778.41128
786.23755
793.4501
799.90704
805.52415
810.24514
814.03876
816.88997
818.79385
819.74767
)
;
        refGradient     uniform 0;
        valueFraction   uniform 0.99248593;
        value           nonuniform List<scalar> 
130
(
754.4439
762.3099
770.55788
778.7628
786.62058
793.9133
800.4586
806.16094
810.95219
814.79909
817.69574
819.63056
820.60463
748.62863
757.83415
767.26595
776.41333
784.99638
792.79647
799.68921
805.6145
810.55945
814.53029
817.49134
819.46574
820.45303
736.93576
749.2487
761.22059
772.25951
782.20061
790.92513
798.4447
804.78016
809.97718
814.094
817.16934
819.22671
820.24749
719.61554
737.73509
753.73701
767.47306
779.14933
788.99991
797.20811
803.98823
809.47439
813.75873
816.93061
819.04844
820.10638
699.20649
726.85966
747.64124
763.93167
777.03318
787.6945
796.41158
803.50743
809.17505
813.58114
816.8152
818.9406
820.01048
699.39729
727.05653
747.8112
764.06416
777.12191
787.75497
796.45624
803.53116
809.18763
813.57779
816.80461
818.93157
819.99463
720.26184
738.31397
754.24156
767.89621
779.46948
789.21623
797.37591
804.10441
809.53976
813.79262
816.94618
819.02897
820.06926
737.85508
750.1049
761.96602
772.93155
782.75216
791.35759
798.76344
805.0043
810.12807
814.18467
817.20805
819.21333
820.21277
749.63941
758.79131
768.12694
777.19792
785.64421
793.30905
800.07115
805.88361
810.73269
814.60924
817.5117
819.44292
820.41008
755.38804
763.211
771.37943
779.52841
787.30705
794.45627
800.85843
806.43693
811.12639
814.89416
817.72439
819.61499
820.56283
)
;
        Tnbr            T;
        thicknessLayers List<scalar> 0();
        kappaLayers     List<scalar> 0();
        kappaMethod     fluidThermo;
        kappa           none;
        alphaAni        none;
        alpha           none;
        field           T;
    }
    bottomWater_to_leftSolid
    {
        type            compressible::turbulentTemperatureCoupledBaffleMixed;
        refValue        nonuniform List<scalar> 
130
(
913.67077
913.6339
913.55189
913.41881
913.22875
912.97514
912.70136
912.41272
912.10717
911.8003
911.51157
911.25385
911.10189
913.71914
913.68021
913.59491
913.45723
913.26295
913.01081
912.73725
912.43653
912.11081
911.79726
911.52042
911.28735
911.10509
913.80401
913.7623
913.67002
913.52156
913.31191
913.04818
912.76851
912.46564
912.1466
911.83566
911.56151
911.34371
911.18925
913.92089
913.87648
913.77693
913.61423
913.37917
913.11766
912.83692
912.53172
912.20226
911.87562
911.5747
911.33863
911.19672
914.05157
914.00346
913.89716
913.72883
913.49655
913.23926
912.95548
912.63082
912.268
911.86916
911.44867
911.13591
910.96387
914.17394
914.12164
914.00777
913.83301
913.60343
913.34803
913.05583
912.70675
912.31803
911.89251
911.49694
911.18034
910.97404
914.27677
914.21984
914.09794
913.90551
913.67912
913.42263
913.13616
912.80534
912.43171
912.08366
911.76021
911.50309
911.3375
914.34871
914.29086
914.161
913.94989
913.72076
913.47367
913.21764
912.95401
912.69101
912.43169
912.19486
911.99986
911.86688
914.39406
914.33708
914.20892
914.00265
913.79227
913.58451
913.38073
913.18123
912.98221
912.78745
912.59946
912.44316
912.35233
914.41497
914.35812
914.22808
914.05006
913.8715
913.6959
913.52456
913.36038
913.19944
913.04663
912.90396
912.78185
912.70297
)
;
        refGradient     uniform 0;
        valueFraction   uniform 0.99248593;
        value           nonuniform List<scalar> 
130
(
914.0829
914.04534
913.96188
913.82822
913.63742
913.34483
913.06844
912.78588
912.47372
912.15733
911.85769
911.54209
911.35951
914.1374
914.09702
914.01099
913.87221
913.67521
913.39451
913.12326
912.81347
912.45054
912.11581
911.83636
911.60246
911.31563
914.22587
914.18362
914.08966
913.94011
913.72089
913.4186
913.13722
912.82451
912.49013
912.15823
911.87386
911.65877
911.4451
914.34823
914.30521
914.20615
914.04327
913.76157
913.48567
913.20222
912.89574
912.54745
912.21175
911.90231
911.66
911.50345
914.48373
914.43631
914.32838
914.15877
913.89659
913.63405
913.35394
913.0183
912.63615
912.18814
911.61671
911.26566
911.08465
914.60515
914.55331
914.43556
914.2583
914.00687
913.75467
913.4605
913.07145
912.6479
912.12628
911.67846
911.31684
911.02016
914.7065
914.64849
914.52752
914.31032
914.08454
913.82221
913.52865
913.16432
912.69827
912.33819
911.96992
911.68937
911.48493
914.76972
914.71459
914.58201
914.31786
914.08124
913.81176
913.5424
913.26676
913.00516
912.72682
912.47787
912.26986
912.08724
914.80566
914.75159
914.6232
914.35356
914.13266
913.92147
913.71856
913.52249
913.31778
913.11658
912.90332
912.7213
912.62687
914.82001
914.76828
914.61629
914.41051
914.23631
914.06507
913.89541
913.73608
913.57345
913.42312
913.27699
913.14046
913.04041
)
;
        Tnbr            T;
        thicknessLayers List<scalar> 0();
        kappaLayers     List<scalar> 0();
        kappaMethod     fluidThermo;
        kappa           none;
        alphaAni        none;
        alpha           none;
        field           T;
    }
    bottomWater_to_heater
    {
        type            compressible::turbulentTemperatureCoupledBaffleMixed;
        refValue        nonuniform List<scalar> 
92
(
734.15573
736.23735
740.29712
746.07229
724.72475
727.17483
731.98692
738.8755
704.98932
708.14136
714.51039
723.90315
345.68999
342.95325
342.97011
345.66709
422.68175
419.31762
419.5085
423.04672
488.54232
485.71649
486.40015
490.09598
544.55176
542.83956
544.73173
549.18938
672.95698
590.81577
676.89412
591.0581
685.45107
595.68345
699.27967
603.25348
345.68999
345.66709
422.68175
423.04672
488.54232
490.09598
544.55176
549.18938
590.81577
603.25348
345.67908
345.67908
342.96192
343.00157
345.71929
345.71929
422.65394
422.65394
419.34333
419.57085
423.13029
423.13029
488.51885
488.51885
485.75588
486.47309
490.188
490.188
544.53728
544.53728
542.88608
544.80639
549.29434
549.29434
590.8204
590.8204
591.11809
595.76846
603.3621
603.3621
673.37594
677.37373
685.97245
699.83166
705.74692
708.92818
715.31827
724.70995
725.641
728.08073
732.88239
739.77126
735.12559
737.15962
741.19535
746.9866
)
;
        refGradient     uniform 0;
        valueFraction   nonuniform List<scalar> 
92
(
0.99248593
0.99248593
0.99248593
0.99248593
0.99248593
0.99248593
0.99248593
0.99248593
0.99248593
0.99248593
0.99248593
0.99248593
0.99248593
0.99248593
0.99248593
0.99248593
0.99248593
0.99248593
0.99248593
0.99248593
0.99248593
0.99248593
0.99248593
0.99248593
0.99248593
0.99248593
0.99248593
0.99248593
0.99248593
0.99248593
0.99248593
0.99248593
0.99248593
0.99248593
0.99248593
0.99248593
0.99248593
0.99248593
0.99248593
0.99248593
0.99248593
0.99248593
0.99248593
0.99248593
0.99248593
0.99248593
0.99248593
0.99248593
0.99248593
0.99248593
0.99248593
0.99248593
0.99248593
0.99248593
0.99248593
0.99248593
0.99248593
0.99248593
0.99248593
0.99248593
0.99248593
0.99248593
0.99248593
0.99248593
0.99248593
0.99248593
0.99248593
0.99248593
0.99248593
0.99248593
0.99248593
0.99248593
0.99248593
0.99248593
0.99248593
0.99248593
0.99248593
0.99248593
0.99248593
0.99248593
0.99248593
0.99248593
0.99248593
0.99248593
0.99248593
0.99248593
0.99248593
0.99248593
0.99248593
0.99248593
0.99248593
0.99248593
)
;
        value           nonuniform List<scalar> 
92
(
735.73331
737.76133
741.73556
747.4513
726.31261
728.72058
733.46997
740.30075
706.6781
709.78485
716.08625
725.39903
350.09686
347.33861
347.30647
349.93941
426.51784
423.0932
423.24558
426.76056
491.87812
488.96956
489.62885
493.31453
547.45873
545.66706
547.53508
551.95644
674.87193
593.34794
678.71866
593.52763
687.19675
598.10365
700.91772
605.61308
350.1282
349.95292
426.55366
426.72937
491.89888
493.24268
547.47284
551.89112
593.34216
605.59355
350.12144
350.02862
347.33492
347.37505
350.02729
350.06196
426.49005
426.42692
423.15484
423.38833
426.83466
426.91076
491.83961
491.8014
489.07519
489.7946
493.35356
493.47482
547.41706
547.40261
545.76203
547.66383
552.03513
552.12955
593.27218
593.32897
593.60483
598.22092
605.71049
605.79625
675.26418
679.21234
687.7471
701.54093
707.48622
710.63593
716.96521
726.27093
727.28679
729.68694
734.40405
741.25311
736.76597
738.71879
742.67106
748.42275
)
;
        Tnbr            T;
        thicknessLayers List<scalar> 0();
        kappaLayers     List<scalar> 0();
        kappaMethod     fluidThermo;
        kappa           none;
        alphaAni        none;
        alpha           none;
        field           T;
    }
}


// ************************************************************************* //
