/*--------------------------------*- C++ -*----------------------------------*\
| =========                 |                                                 |
| \\      /  F ield         | OpenFOAM: The Open Source CFD Toolbox           |
|  \\    /   O peration     | Version:  v2012                                 |
|   \\  /    A nd           | Website:  www.openfoam.com                      |
|    \\/     M anipulation  |                                                 |
\*---------------------------------------------------------------------------*/
FoamFile
{
    version     2.0;
    format      ascii;
    class       volVectorField;
    location    "540/bottomWater";
    object      U;
}
// * * * * * * * * * * * * * * * * * * * * * * * * * * * * * * * * * * * * * //

dimensions      [0 1 -1 0 0 0 0];


internalField   nonuniform List<vector> 
1460
(
(-0.00075908227 -0.016902542 -0.00021940447)
(-0.0032838868 -0.016021697 -2.9745885e-05)
(-0.00041763209 -0.011520535 -3.2709216e-05)
(0.0031756723 -0.014265227 -0.002478486)
(0.0015568723 -0.015719851 -0.0024774935)
(0.0025891654 -0.015649479 -0.0017515164)
(0.0014867818 -0.016357158 -0.00045602342)
(0.00054278302 -0.016901594 0.00020268881)
(-0.0012986434 -0.014003097 -0.00026899562)
(-0.0015449041 -0.010686903 0.00046212543)
(0.001101591 -0.011030176 0.0011493246)
(0.0032664445 -0.012388048 0.00036085245)
(0.0035990586 -0.014400256 -0.00049970292)
(0.0029350876 -0.015035395 -0.0011419774)
(0.0023406442 -0.016523245 -0.00054170934)
(0.00073486492 -0.019311433 0.0005734269)
(-0.00018862029 -0.017191523 0.0006806929)
(-0.0030684376 -0.013210152 0.0001542992)
(-0.0025336957 -0.011274346 0.0011477714)
(-0.0014903378 -0.012200426 0.002118661)
(-5.7511296e-05 -0.012430322 0.0015465618)
(0.002695072 -0.012527097 0.00091802813)
(0.0042579096 -0.014991235 -0.00010952273)
(0.0033896221 -0.01780877 -1.9344046e-05)
(0.00095342698 -0.017688019 -9.304278e-05)
(-0.00082870048 -0.012626506 9.627371e-05)
(0.0011899719 -0.012685496 0.00019066715)
(0.0029448429 -0.016008722 -0.00058173385)
(0.0025597658 -0.015893385 -2.3999286e-05)
(0.00038975055 -0.01715363 0.00046498158)
(-0.0054336169 0.018525805 0.00047981912)
(-0.0066221261 0.015163637 0.00062605551)
(-0.0032874474 -0.00075835764 0.00015541097)
(0.0037062507 0.015504537 -0.0048189466)
(0.0042438908 0.016952841 -0.0043492352)
(0.0047185716 0.017195235 -0.0036196959)
(0.0042034813 0.018156759 -0.0027911346)
(-0.00023202003 0.018512457 -0.0002216025)
(-0.0043558741 0.015654172 0.00069238088)
(-0.0012388517 0.0067531886 0.00036008881)
(0.00036738214 0.0017894553 0.001393444)
(0.0033052553 0.0070429075 0.000330956)
(0.0056133505 0.015166955 -0.0019303084)
(0.0050134646 0.016756558 -0.0029037089)
(0.001624564 0.01838954 -0.0020124409)
(-0.0012977211 0.020645004 0.0040759013)
(-0.0023330696 0.018815374 0.0025215372)
(-0.0051932182 0.014917481 0.0016838752)
(0.0001738167 0.0018890972 -4.0474999e-05)
(-0.0011861835 0.0011844527 0.001450114)
(0.0016798078 0.00013606284 0.001049256)
(0.0036214092 -0.00074004091 4.9402326e-05)
(0.0076469669 0.011731354 -0.00076425588)
(0.0066395154 0.018504835 -0.00086890141)
(-0.0020247671 0.019023991 0.0014725392)
(-0.00050132279 0.012065755 0.00058634858)
(0.0021985433 0.003466701 -0.00049625868)
(0.0069301828 0.014969658 -0.0025114456)
(0.0063549227 0.017655322 -0.0028110385)
(0.0029468681 0.018344485 -0.0021198235)
(-0.0034785028 0.005286358 0.00014800735)
(0.0065737994 -0.013976378 0.0020094171)
(-0.0032633822 -0.015690682 0.0012444738)
(-0.0063840815 -0.012709821 0.0011281135)
(-0.0020215072 -0.0071492143 -0.00050478786)
(0.0017659657 -0.0040018526 -0.00089109809)
(0.0032571979 0.0016950657 -0.00044738914)
(0.0012943762 0.0030751961 0.00046274663)
(0.0042345587 -0.0064128239 -0.0017310812)
(0.0049967552 -0.013104817 -0.0028371148)
(0.001505104 -0.013785607 -0.00088341684)
(-0.00038738674 -0.014338626 0.00081384067)
(0.00052375162 -0.010312014 1.7835922e-05)
(0.0014918405 0.00099066015 -0.00028735248)
(0.00013267945 0.0030989394 0.0004291647)
(0.0020034887 -0.012122014 0.0014382153)
(0.002977562 -0.0060318337 0.00082759863)
(0.0070964799 -0.013990447 -0.0013559673)
(0.0050139362 -0.014742644 -0.002895695)
(0.0011170555 -0.01357297 -0.0017723026)
(0.0011623063 -0.013521582 -0.001297762)
(0.00049967376 -0.014441981 -0.0010432486)
(-0.00089822017 -0.01382641 0.0020327981)
(0.0033642286 0.00099522692 -0.00017280392)
(0.0022968218 -0.0026081368 0.0018067772)
(0.0066988684 -0.012721035 -0.0011158838)
(0.0019658634 -0.015835708 -0.0015182714)
(-0.0029569917 -0.014665586 0.0013908168)
(0.00066184276 0.002866949 -0.0012096615)
(-0.00079489335 0.0048514366 -2.1253004e-05)
(0.0015341271 0.008073101 0.00013608533)
(0.0053067666 0.010531905 0.0013651308)
(-0.0033532217 0.01027404 0.001769172)
(-0.0048829464 0.0088227871 0.0017724787)
(-0.0030137437 0.0016992395 0.0013628894)
(-0.0028738757 0.0026575593 0.00097706152)
(0.0017517452 0.0087071217 0.0029525276)
(0.0028063694 0.0090465388 0.0021164074)
(0.0058816586 0.009207452 -0.00019203074)
(0.0043413099 0.010130957 -0.0014529275)
(0.0033978993 0.0033743036 0.0004417409)
(0.0019053418 -0.00088566781 -5.2239808e-05)
(0.00061389864 0.0087142522 -0.00026646038)
(-0.0014354869 0.0080258425 0.0019140947)
(0.0015064303 0.0084938185 0.0029190841)
(-0.00043219703 0.012911327 -0.0034637326)
(3.0776789e-05 0.0087298391 -0.0015184541)
(0.0023573313 0.012344206 -0.0034388245)
(0.0011613914 0.0096229681 -0.0018885741)
(0.0018767879 0.0030328988 -0.00064914176)
(0.0019641176 -0.0019867119 -0.0019903969)
(0.0025980834 -0.0034725459 -0.0014269411)
(-0.00012370171 0.00093589269 -0.0013315064)
(0.00077527725 0.0073554113 0.0027997619)
(0.0036106444 0.0063167978 0.00076366254)
(0.0058157274 0.009806724 -0.00046495196)
(0.0022373467 0.011427918 -0.0012019954)
(-0.0042276823 0.011083855 0.00037485654)
(-0.0030218309 0.0080353439 0.00067315241)
(-0.0015497524 0.010013992 0.00052149946)
(0.0019131243 0.00018274747 -0.00031392272)
(0.0045584172 -0.0051527888 0.00028556587)
(0.0049898048 -0.0051122786 0.00049469925)
(0.0062240873 -0.0094043775 0.00013662791)
(0.0040772852 -0.0107176 0.00049676898)
(-0.0040968591 -0.010892184 -0.0019413914)
(-0.0037648898 -0.0081122536 -0.0024258804)
(-0.0025075211 -0.0030142039 -0.0014589393)
(0.0018586954 -0.0026380877 -0.0016244819)
(0.0041514283 -0.0052466844 -0.00135587)
(0.0057831693 -0.009005671 -0.0018915853)
(0.00014978728 -0.0098854169 -0.00095159051)
(-0.0033364313 -0.0054092692 0.00099046799)
(-0.0018220244 -0.00048564466 0.0013140996)
(-0.0010670659 -0.00024801074 0.0021028168)
(0.00063607976 -0.0027526637 -0.00056690871)
(0.0037391507 -0.0077606106 -0.0019341076)
(0.0043147579 -0.010648562 -0.0023174018)
(0.006110369 -0.01143157 -0.0028630454)
(0.0059200222 -0.010513302 -0.0038709215)
(0.0046826939 -0.010108099 -0.0042625233)
(0.00048186739 -0.0097160089 -0.0037303783)
(-0.0030175579 -0.0098247796 -0.0040543005)
(-0.0029729939 -0.0083212528 -0.0033698558)
(-0.0032928553 -0.0096139734 -0.00099421394)
(-0.004860649 -0.0088382731 0.00092741799)
(-0.0035394256 -0.0034570702 0.0014487052)
(-0.0039941939 -0.0037115889 0.0017156889)
(-0.0031290501 -0.00060911139 0.0014895644)
(-0.0019076228 0.0022660484 0.0015554458)
(-0.00073358572 -0.017608421 0.00025175005)
(-0.0034852283 -0.015986565 -0.00019777017)
(-0.0017098541 -0.013472374 -0.00083371974)
(0.001514877 -0.012749501 -0.0027605964)
(0.0024076603 -0.011966276 -0.0026509299)
(0.0038731519 -0.013660951 -0.0026958874)
(0.0027795146 -0.013670728 -0.0026410417)
(0.0011493091 -0.014957543 -0.001674074)
(-0.00099679191 -0.017087935 -0.0017708752)
(-0.0023450019 -0.016294078 -0.0013084664)
(-0.0026640878 -0.016338217 -0.00063317241)
(-0.001438142 -0.011641402 -0.00067983443)
(0.0018181252 -0.011677901 -0.0016303938)
(0.0030682338 -0.013629553 -0.0026024737)
(0.0036130316 -0.016047489 -0.0022342851)
(0.0019947627 -0.016448208 -0.0013302147)
(0.00068546729 -0.017161687 -0.0010473116)
(3.0016295e-05 -0.016083745 -0.0005166767)
(-0.0015932374 -0.014299834 0.0030033053)
(-0.0024033258 -0.013760677 0.0036822516)
(-0.0026154835 -0.011511748 0.0036085674)
(-0.00045811666 -0.011654257 0.0034067654)
(0.0018060893 -0.011316302 0.0017879076)
(0.0029243375 -0.016824415 0.0018818071)
(-0.00013652458 -0.018332261 0.00057499747)
(-0.0020247497 -0.016955912 -0.0010931578)
(-0.0013998787 -0.011493887 0.00070261211)
(0.0018066684 -0.01203479 -0.00156937)
(0.0031557957 -0.014432035 -0.0017447313)
(0.00097274835 -0.016523395 -0.0011661755)
(-0.0058148304 0.019272555 -0.0013285618)
(-0.0075042318 0.016551478 -0.0015708381)
(-0.0019746495 0.0038994882 -0.0016559354)
(-0.00031918352 0.0045487211 -0.0024181122)
(0.0026724795 0.0046107476 -0.0016984296)
(0.0047563808 0.011990841 -0.0032048229)
(0.0051567569 0.01553408 -0.0042425272)
(0.0050139497 0.017181042 -0.0033292883)
(-0.00030402568 0.018767567 -0.0010474255)
(-0.0059719694 0.017906106 0.0013844445)
(-0.0056796529 0.014050514 0.0023387609)
(-0.001861632 0.0024925474 0.0015707302)
(0.0011976934 0.0033702632 -0.00063570533)
(0.0027755283 0.0097140297 -0.0019991099)
(0.0059960766 0.017268391 -0.0037215481)
(0.0048370137 0.018630482 -0.0016396041)
(0.001457851 0.019088244 -0.0031600309)
(-0.0016296496 0.018156307 0.00086142585)
(-0.0031655527 0.016026462 0.0057662635)
(-0.003744687 0.014327443 0.0058705043)
(-0.0016809941 0.0048813991 0.0024707338)
(0.0009749597 0.00020726648 0.0016861829)
(0.0015868806 0.0001338421 0.0011762998)
(0.0063419333 0.016448056 -0.00011846332)
(-0.00011203352 0.019824487 -0.0018527308)
(-0.0061307921 0.016532847 -0.0025222518)
(-0.00081676218 0.0027485151 0.00037054355)
(0.00058978958 0.00054174413 -0.0011808802)
(0.0055495588 0.014519847 -0.0038954584)
(0.0037986031 0.018209384 -0.0033615328)
(-0.0032217656 0.0071070961 -0.0011053574)
(0.0052749841 -0.011941464 -5.7447411e-05)
(0.0037367892 -0.015544551 -0.00044287508)
(-0.0024102175 -0.014942401 -0.00021377812)
(-0.0016696151 -0.014150736 0.0026547481)
(-0.00041297497 -0.013968654 0.0048119384)
(-0.00029788068 -0.012210668 0.0052287866)
(-0.00041085995 0.00062329548 -0.00040682423)
(0.00074237356 0.0059223309 -0.0011583423)
(-0.0013687242 0.002461377 -0.00073077525)
(0.0034992701 -0.015608782 -0.00048712542)
(0.0012137149 -0.014331016 0.0029588105)
(0.00040287027 -0.013438022 0.002267266)
(-0.003081354 -0.015399406 0.0030523443)
(-0.003128644 -0.01254503 0.0016264191)
(0.0020983947 0.0040323738 -0.00055858514)
(0.0015913294 0.0056816869 -0.0023870934)
(0.00085658986 0.0034332425 -0.00095347273)
(0.0017338007 -0.0027349907 -0.0014494284)
(0.004011097 -0.013670195 -0.0035795327)
(0.0014762519 -0.014549503 -0.0021887472)
(0.0010758974 -0.013963381 -0.00083644381)
(-0.0011503401 -0.014785412 0.0013653873)
(-0.0025378437 -0.014511687 0.0019969115)
(-0.00052807668 0.0066421053 0.00036374113)
(0.0014111922 -0.012005125 0.0016068977)
(0.0032375058 -0.013782725 0.0005982409)
(-0.0023112709 -0.015281234 0.0010685673)
(-0.0055871307 -0.013937584 0.0018952335)
(0.00056498243 0.00033157121 -0.00052362283)
(0.0016203882 0.0092603594 -0.00083569931)
(0.005492123 0.010312286 3.983249e-05)
(0.0019476038 0.01085293 0.00095862877)
(-0.00074658745 0.010329857 -0.0013930015)
(0.0013448351 -0.0038019244 0.0008870522)
(-3.3793128e-05 0.0024518985 0.0028617163)
(-0.0018461875 0.010654121 0.0046725375)
(-0.0034991095 0.0081241897 0.001887453)
(0.00032751864 0.01014647 -0.0015983474)
(0.0030935919 0.0075983283 -0.0017878899)
(0.0035849263 0.0099581724 0.00074101272)
(0.00133148 0.0014520127 0.0022570302)
(0.0013591656 0.0021957619 0.0023220653)
(-0.0020584957 0.011785138 0.0024957706)
(-0.0047598383 0.011234256 0.0037141896)
(-0.0015129401 0.0087647588 -0.0011752175)
(0.0014113048 0.0093599199 0.00092394321)
(0.002223592 0.0082948425 0.00081192063)
(0.0051156427 0.0074935728 -0.00014687957)
(0.0042841105 0.010217535 -0.00042479056)
(0.0021699171 0.0040049549 0.00068046352)
(0.001070919 -0.0011486878 0.0011063266)
(0.0031206349 0.0056306266 0.0046188394)
(-0.0032512063 0.012146753 0.0055171115)
(-0.0015688743 0.0091045928 0.0024948212)
(0.0027640786 0.0019396859 0.0020389209)
(-0.0016760566 0.00011576453 0.0025824456)
(0.00076076213 0.009527002 -0.0014693338)
(-0.0047900098 0.010361498 0.0029990652)
(-0.0025357966 0.0077019239 0.002417307)
(0.0023258995 0.0023247656 -0.00020464419)
(0.0047834026 -0.0047057911 0.0005684645)
(0.0057708052 -0.0046332837 0.0012352468)
(0.0069391322 -0.0083227473 0.0016951157)
(0.0050271228 -0.010127217 0.001519251)
(-0.0061082715 -0.0077496234 0.0014217781)
(-0.0041177301 -0.0023069339 0.0011085545)
(-0.0037144649 0.00076691417 -0.00038511188)
(0.00044466333 0.0037329401 -0.001269676)
(0.0036669851 0.00032247233 -0.00044477821)
(0.0048913651 -0.0046539337 -0.00014495876)
(0.005027913 -0.0089160953 0.00060531116)
(-0.0036856472 -0.0084026372 0.0040795834)
(-0.0029750675 -0.0028579287 0.0038727988)
(-0.0015513066 -0.0056547802 0.0037738539)
(-0.0015901816 -0.0031670729 0.0026325283)
(0.0005521803 0.0016853087 -0.00083381208)
(0.002854949 -0.0011085669 -0.0013701079)
(0.0039821032 -0.0041641218 -0.0019950165)
(0.0043094299 -0.0056135129 -0.0031467598)
(0.0047751865 -0.0093615844 -0.0037139784)
(-0.0024615765 -0.0099699571 -0.0034337256)
(-0.0047001556 -0.0056507043 -0.0020953411)
(-0.0031617733 0.0010234173 0.0013449473)
(0.0026828991 -0.00065989158 -0.00088727522)
(0.0016374703 -0.0098526067 0.0011475244)
(-0.0045458541 -0.0093405203 0.0045940136)
(-0.0048658674 -0.0084355895 0.0045056999)
(-0.003437199 -0.0047180739 0.0043879451)
(-0.001337989 -0.0038383943 0.003420505)
(-0.0010785963 -0.016598117 -0.00018817655)
(-0.0036586531 -0.015502997 -0.00074570257)
(-0.0022797976 -0.012935883 -0.0010022261)
(-0.00092058896 -0.012541203 -0.0020844276)
(-8.6454014e-05 -0.012696205 -0.0015759982)
(0.0026331209 -0.012015882 -0.0010381964)
(0.003456234 -0.011369744 -0.0014590308)
(0.00353023 -0.013753887 -0.0013187932)
(-0.00025724012 -0.017132706 -0.0012140482)
(-0.0014959977 -0.017848012 -0.0021700083)
(-0.0020485788 -0.018616814 0.00029933998)
(-0.0015836058 -0.012099575 0.00068038954)
(0.00069601833 -0.011730343 -0.00037638661)
(0.0022264402 -0.011771009 -0.0024334125)
(0.0040731207 -0.015287324 -0.0026685582)
(0.0023837253 -0.015723389 -0.0017326433)
(0.00035109835 -0.017407997 -0.0031287739)
(0.00087518401 -0.017577541 -0.0027955874)
(0.00046402535 -0.01783221 -0.0013144573)
(-0.00044298766 -0.015623221 0.001203363)
(-0.0015601647 -0.014281122 0.0030381643)
(-0.0014482621 -0.015645898 0.0034044383)
(-0.0020196534 -0.017860851 0.0027479331)
(-0.0032415525 -0.018112933 0.0016648719)
(-0.0037067131 -0.014606685 0.0010788069)
(-0.0011203385 -0.013249527 0.00042226279)
(-0.00015281714 -0.013135101 0.0012443922)
(0.0013179182 -0.01240157 0.0013260306)
(0.0025976423 -0.011734502 0.00014633987)
(0.0019523205 -0.017107874 0.00058882641)
(-0.0061073488 0.018541294 -0.001691399)
(-0.0075191873 0.015873881 -0.0020661106)
(-0.0035030009 0.0044304516 -0.0018788436)
(-0.0019093397 0.0060177728 -0.0022248074)
(0.0011659156 -0.00042509544 -0.0012529322)
(0.0030248739 0.00056906985 -0.00025768551)
(0.0032613956 0.0021086584 0.00025726497)
(0.0070838403 0.014270588 -0.0015721463)
(0.0017556275 0.018863911 -0.0026852878)
(-0.0054986148 0.018781928 -0.0040301196)
(-0.0051516286 0.01857879 -0.00039781664)
(-0.0022502271 0.0030389174 0.0014760584)
(-0.00063413476 0.0021507345 0.00063569615)
(0.0024045455 0.002618713 -0.0023486148)
(0.0054953695 0.014092984 -0.0042576658)
(0.0035405322 0.017673428 -0.0040644995)
(-0.00082534632 0.017662763 -0.0065110851)
(0.0027352766 0.017198228 -0.0057050313)
(0.0029750741 0.019288112 -0.003025254)
(-0.002306348 0.017531906 0.0050220093)
(-0.0024285936 0.015964508 0.0059724686)
(-0.001586716 0.016351099 0.0065771777)
(-0.0018652767 0.018552508 0.0049334598)
(-0.0035274213 0.019124214 0.0025069757)
(-0.0022793381 0.0079883871 0.00033105551)
(-0.00078201179 0.002566298 0.00097179097)
(0.00069899626 0.007119128 0.00058150896)
(0.002776303 0.0010537266 -0.00015749615)
(0.0032001455 0.0038986029 -0.0016152709)
(0.0040495567 0.017462644 -0.00083330592)
(-0.0039041311 0.0056549241 -0.0012481916)
(0.006191633 -0.014750567 -0.0022084868)
(0.00032927137 -0.015479228 -0.0025577301)
(-0.00016296217 -0.012799519 -0.002845297)
(0.0017690936 -0.014316911 0.00024019155)
(0.0012768487 -0.013412578 0.0029963602)
(-0.0018733683 -0.014806843 0.00375909)
(-0.004755844 -0.011306488 0.0015759997)
(-0.00025394261 0.005732759 -0.001176036)
(-0.0034584875 0.0010594935 -0.0022117657)
(0.0035190637 -0.014008461 -0.0034262267)
(0.00037017536 -0.014085298 -0.0011836837)
(-0.0011145199 -0.012966265 0.00085337406)
(0.00062498108 -0.013912974 -0.0011813071)
(-0.0032081453 -0.015369348 -0.0026614336)
(0.00052737908 0.00061669499 -0.0027678573)
(-0.0014529471 -0.01723568 0.0046581797)
(-0.0028501332 -0.017266522 0.0014375954)
(0.0017614693 0.0031521179 -0.0034502913)
(-0.00035889431 0.0041376632 0.0016870727)
(0.00066044218 -0.009005161 -0.00088008472)
(0.002089718 -0.015288314 -0.0037864194)
(0.0015845628 -0.015281664 -0.0048766456)
(0.0036746287 -0.016935899 -0.00058407971)
(0.0047754765 -0.016755404 0.00079953629)
(-0.00020075492 -0.013989728 0.0042944513)
(-0.00041893931 -0.013503998 0.00065046863)
(0.0019534969 -0.014148694 -0.0022971647)
(-0.00071115522 -0.01339247 -0.0025297688)
(-1.8522146e-06 -0.010120629 -0.0032362404)
(0.0012518372 0.008218938 -0.00085589663)
(0.0053953471 0.010472993 -0.0019018484)
(-0.0012680258 0.0094920376 -0.0022846671)
(0.0019312392 -0.00086848239 -0.0017985592)
(0.001519153 -0.0051373887 4.1233461e-05)
(0.00031003726 -0.00097097964 0.0027823024)
(-0.00041664643 0.01033116 0.0017242589)
(-0.0045419615 0.010633988 0.0020485517)
(-0.0020629562 0.0092316691 -0.00090722874)
(0.0016375609 0.0074571428 -0.00085248081)
(0.0018799083 0.011401793 -0.0043055503)
(-0.0021006661 0.0057678545 -0.0012070088)
(0.00038281084 -0.0023534078 0.0023091946)
(0.0015020315 0.00090349546 -0.00059322026)
(-0.0012031954 0.01287374 -0.0027031707)
(0.00055602029 0.0079967933 -0.00089153705)
(0.0020830485 0.013517245 0.0028107579)
(-0.0056372431 0.012512793 0.0004333338)
(-0.0019902098 0.0089856104 -0.0012618766)
(0.0012606904 0.0089738383 -0.00072848362)
(0.0053409772 0.0071699937 -0.0019049222)
(0.0050431554 0.0083344544 -0.0032729269)
(0.0031954584 0.011926446 -0.0035217037)
(0.0011800539 0.01292122 -0.0038043556)
(0.0001325963 0.012411569 0.0031904372)
(-0.0015748151 0.0072155966 0.0017400627)
(0.0015258185 -0.0030063606 -0.00018172639)
(0.0012779423 -0.005273746 -0.00096126856)
(0.00018162643 0.00047748375 -0.0010706625)
(0.001368306 0.010890474 -0.0024256515)
(0.0020632606 0.00034847367 0.0012312072)
(0.0049735517 -0.0055050764 0.0011794978)
(0.0073833647 -0.0079934554 0.0022666488)
(0.0073774353 -0.0096582225 0.0024183109)
(0.0028921274 -0.0099702264 0.0020810099)
(-0.0061268149 -0.0076233293 0.0031142447)
(-0.0045653123 -0.0039631181 0.0022857579)
(-0.0031394446 -0.0016225261 0.0020401357)
(0.00039309904 0.0017341877 0.0011973295)
(0.0025677948 -0.00097524403 0.0013877838)
(0.0038861413 -0.0020655571 -5.4395683e-05)
(0.0060217653 -0.0076657712 0.0014277707)
(0.0017101528 -0.010366896 0.003875093)
(-0.0042540731 -0.0085299313 0.0053901801)
(-0.0040098681 -0.0092640432 0.0048433118)
(-0.004215816 -0.0049661827 0.0033119181)
(-0.0019585937 -0.0032038806 0.00266098)
(-0.0012226577 -0.0045977231 0.00037690422)
(0.0014590198 -0.0016131797 -0.0015057925)
(0.0021687618 -0.0025241384 -0.001772055)
(0.0024912896 -0.010314465 -0.0026213948)
(-0.0027067868 -0.010237456 -0.0041403325)
(-0.0010221774 -0.0025196226 -0.0031278508)
(0.0014989695 -0.0047435299 -0.0015798422)
(0.004536218 -0.0046599312 0.0006346761)
(0.006775283 -0.0091768175 -0.00033124582)
(0.0051539176 -0.010772826 -0.00058039136)
(0.00016968585 -0.010985024 0.00027741709)
(-0.004273788 -0.0083354207 0.00068322212)
(-0.0023233334 -0.004052705 -0.0012839719)
(-0.0017954646 -0.015891533 0.00084358512)
(-0.0037764008 -0.014719199 0.00043973312)
(-0.0033636256 -0.011927937 0.0004321433)
(-0.001334412 -0.012066496 0.00083266144)
(-0.00044525861 -0.012524395 0.0027011913)
(0.0019058499 -0.012846646 0.0025336574)
(0.0023161326 -0.012124432 0.0023046753)
(0.0033008956 -0.01704771 0.0018478234)
(-0.0013325171 -0.017253174 -0.00023480223)
(-0.0016169562 -0.012685016 -0.0027912028)
(0.00036544502 -0.01756874 -0.0016592982)
(-0.002220689 -0.018358909 0.0021951659)
(-0.002305758 -0.013746376 0.0016611844)
(2.976619e-05 -0.012551619 -0.00070836028)
(0.0042650759 -0.013481157 -0.0019299654)
(-0.00044459112 -0.015147418 -0.0015240205)
(-0.00084112011 -0.012317967 -0.001215351)
(0.0026282459 -0.012325202 -0.0010073783)
(0.0014620609 -0.016932815 -0.00027463512)
(0.00052628288 -0.017623622 0.0014960651)
(-0.00022842319 -0.015908602 0.00016401716)
(-0.00083087992 -0.016727354 0.0018758672)
(-0.0017874374 -0.016405544 0.0011544877)
(-0.0033928536 -0.015601777 0.0014102816)
(-0.0041564668 -0.015194399 0.0023400048)
(-0.0020389994 -0.012847634 0.0023897704)
(0.0019350237 -0.012775221 0.0021190957)
(0.002343051 -0.015466903 0.0032877079)
(0.0019755403 -0.015982015 0.0031164932)
(0.00048968119 -0.016445511 0.0024883819)
(-0.00556168 0.017975137 -0.00050703832)
(-0.0067991433 0.014790804 -0.00088969599)
(-0.0039110777 0.0029629778 -0.00086556518)
(-0.0018888955 4.0090047e-05 -0.00026389404)
(-0.0018045441 -0.0013817222 0.0016711694)
(0.0023036831 0.004756675 0.0039670927)
(0.0028489653 0.0010240123 0.0012765389)
(0.0074860838 0.01625663 0.0013718561)
(0.00061169581 0.018643191 -0.0017063855)
(-0.0025458733 0.0055383676 -0.003759908)
(0.0042429455 0.017775 -0.0040807399)
(-0.0044215748 0.018013179 0.0038012648)
(-0.0039548842 0.0060389302 0.0024949628)
(-0.00074279035 -0.0030488553 0.00020528363)
(0.003261531 0.0079410805 -0.0014904694)
(-0.00084014671 0.016855636 -0.0024416999)
(0.00082364982 0.00027590132 0.0010211209)
(0.0027383623 0.0054630965 -0.0017912765)
(0.0046205639 0.017462496 -0.0032676663)
(0.0020803548 0.018896778 -0.0027049833)
(-0.00028586746 0.017992791 0.00040605762)
(-0.0014338617 0.018879978 0.0046039409)
(-0.003354964 0.018816299 0.004189509)
(-0.0064624793 0.018083366 0.0035083871)
(-0.0075357703 0.014653416 0.0032902861)
(-0.0021195474 0.0014555976 0.0011531625)
(0.00020709808 0.0075500933 0.0028206158)
(0.0047800154 0.016120104 0.00429351)
(0.0048519661 0.017834309 0.0040695867)
(0.003611002 0.018174955 0.0036910994)
(-0.0030404094 0.0036619913 -0.0011961965)
(0.0054008539 -0.014726046 -0.0033743756)
(0.00032909652 -0.014300271 -0.002458647)
(-0.00037315783 -0.013945355 -0.0026579158)
(-0.0016736844 -0.014966995 -0.00035755718)
(0.0011665563 -0.012777769 0.0043650706)
(-0.00052745589 -0.015421306 -0.00064585174)
(-0.0044383489 -0.014764796 -0.00074635469)
(0.0016838696 0.0022331191 -0.0012502966)
(-0.0020939075 -0.014263708 -0.00073142764)
(-0.0030874233 -0.0089046559 -0.0013032591)
(-0.002182645 0.001521522 0.0014140422)
(0.0019121958 -0.01426399 -0.0012759234)
(-0.00049103027 -0.014878114 0.00077208865)
(-0.0021226652 -0.013568423 0.00067705913)
(0.0027240027 -0.012217536 0.00082801365)
(0.0025611726 -0.0145521 0.0034967878)
(-0.0022341068 -0.014174004 -0.0031916976)
(-0.0011101173 -0.0090644681 -0.0024414878)
(0.001218381 0.0046354324 -0.0010029813)
(0.00098679603 0.0014748067 0.0015763076)
(-0.00046737438 0.0034931695 0.003837991)
(-0.0015226769 0.0035668319 0.0031370381)
(-0.0021458707 0.00067080747 0.00067421943)
(0.0039073719 -0.014846749 -0.0042734762)
(-5.7605009e-05 -0.016285819 -0.0021571407)
(-0.0053827545 -0.014420909 0.0015087872)
(-0.0026713991 -0.011958431 0.00099596462)
(-0.00047023108 -0.0058200938 0.0022365019)
(0.00083049405 0.0044937537 0.0022862785)
(0.0019163638 0.0075839136 -0.00097321509)
(0.0047119108 0.01033219 -0.0020669908)
(-0.00068895135 0.0038659218 -0.0018102747)
(0.0011015933 -0.0044670271 -0.0032236755)
(-0.0011384559 -0.0053813938 0.00063764261)
(0.00023986909 4.2765091e-05 0.0027517263)
(0.0026423693 0.0091043335 0.00095964874)
(-0.0023678068 0.011234928 -0.0045890264)
(-0.00023030042 0.0076129895 -0.00032566055)
(0.0010054783 0.0078642068 -0.002897833)
(-0.0044121818 0.0086350253 -0.0036593794)
(-0.00075715169 0.0040422705 9.522983e-05)
(0.0017243305 -0.0021884813 -0.00039737649)
(-0.00012491434 -0.0047819004 0.0012066358)
(-5.5940418e-05 -0.0031567168 0.0017673042)
(-3.9203194e-05 0.0048236135 0.003221648)
(0.0014744469 0.0088076029 -0.00033916542)
(-0.0014533681 0.010938804 -0.0040979414)
(-0.0043412052 0.01034074 -0.00053258661)
(-0.0021144551 0.009420539 0.00064596679)
(8.9807185e-05 0.008426169 0.00080594381)
(-8.2728127e-05 0.0081930406 0.0016937685)
(0.00022706063 0.0083620121 -7.4998402e-05)
(0.0019831924 0.0071278509 -0.0021321014)
(0.004431359 0.010302911 -0.0038495679)
(0.0022116387 0.011857993 -0.0023698513)
(-0.0016705991 0.0055613705 0.00066645807)
(-0.001170426 0.0020250469 0.00067254447)
(-0.0028119115 0.0086180654 0.0017473317)
(-0.00041079891 0.0096737933 0.00047379469)
(0.0019258255 -0.0017578761 -0.001394522)
(0.0049879351 -0.0068373663 -0.0021538559)
(0.0063723984 -0.0088006351 -0.0026909641)
(0.0050410115 -0.010097895 -0.0034692623)
(-0.0027284665 -0.0098207806 -0.00038058105)
(-0.0054234261 -0.0093119119 0.001239538)
(-0.0051591353 -0.0078416177 0.0022802314)
(-0.0021968584 -0.0041086197 0.00084421217)
(0.0018100079 -0.00080144158 0.0022315352)
(0.0033082035 -0.0053076775 0.0022902912)
(0.0046769528 -0.0083321564 0.0027387977)
(0.0053988611 -0.0085681478 0.0017733515)
(0.0034070943 -0.010183049 0.0012941491)
(-0.001963766 -0.0096778996 0.0038763428)
(-0.0045554524 -0.010523519 0.0051857564)
(-0.0063634736 -0.0097373099 0.0039557105)
(-0.0047901615 -0.0089940139 0.003345183)
(-0.0028169869 -0.0038051313 0.0012731689)
(-0.0030865977 -0.0022320552 0.0016166433)
(-0.0014603122 0.0014569565 0.0012419791)
(-2.9417601e-05 -0.0014107423 -0.00081331658)
(-0.00048667118 0.00048806992 -0.0010878713)
(0.0010754338 0.00025834628 0.00071073897)
(0.0022341376 -0.0048596524 0.00030634622)
(0.0030705044 -0.008914052 -0.00086536126)
(0.004223158 -0.0072410413 -0.0024248348)
(0.0046718665 -0.0094161392 -0.0041329118)
(-0.00012206944 -0.010489399 -0.0041278864)
(-0.0045536138 -0.0061315024 -0.0012186277)
(-0.0013468091 0.0026022317 -0.0001204766)
(-0.0005426897 -0.015740079 0.0010172962)
(-0.0023199831 -0.015638419 0.00037393922)
(-0.00051779585 -0.01196916 0.0012792332)
(0.00058431856 -0.015060613 0.0040635929)
(-0.0027486897 -0.015674062 0.0047435452)
(0.0011554085 -0.011620047 0.0028976431)
(0.0025268793 -0.014944219 0.0044106558)
(0.00024456689 -0.017704932 0.0034661709)
(-0.0031241219 -0.017937977 0.0016802651)
(-0.0015034809 -0.011749784 -0.00014150914)
(0.0019152405 -0.011552417 -0.00084559807)
(0.0027167178 -0.017138628 0.001573878)
(0.00079190269 -0.016169313 0.0025437568)
(-0.00051476043 -0.016331204 -0.00083497208)
(-0.0013082208 -0.015913811 -0.0019414114)
(-0.0022801928 -0.012773388 -0.0020431078)
(0.00034076783 -0.010134087 -0.0014611581)
(0.0016474791 -0.013169126 -0.0017508409)
(-0.0015706933 -0.015646383 -0.00066773101)
(-0.0015340489 -0.016802641 -0.002288466)
(-0.0024021715 -0.016502812 -0.0015148221)
(-0.0023617052 -0.017393149 -0.00030112663)
(-0.00072212692 -0.016817742 -0.0012378652)
(0.001453971 -0.017793617 -0.0023080682)
(0.000921769 -0.017550862 -0.0023724798)
(0.00065367146 -0.016328969 -0.0014190326)
(-0.0044945097 0.017991893 0.0009505137)
(-0.0057838119 0.016637814 0.001125503)
(-0.0024575975 0.0069974456 0.00060910029)
(9.852894e-06 0.016047077 0.0057059092)
(-0.0032301477 0.01338498 0.0051086373)
(0.00076400778 -0.0016360008 0.0011243557)
(0.0053754947 0.013538053 0.003767137)
(0.00018426018 0.01936998 0.0022557923)
(-0.0064121567 0.016431533 -0.0013295738)
(-7.9705377e-05 -0.0018895722 -0.0016902639)
(0.00081421026 -5.6625603e-05 -0.0011673436)
(0.0054053147 0.017206186 -0.0013269873)
(0.0029046442 0.017689318 0.0018614649)
(8.7398225e-05 0.018243806 -0.0024538852)
(-0.0020531282 0.017811381 -0.0055521348)
(-0.0026381365 0.013701443 -0.0053156339)
(0.0015029288 0.0023933581 -0.0010151464)
(0.0048139874 0.014313298 -0.0039208981)
(0.0033070324 0.01752945 -0.0028495347)
(-0.0016153859 0.018550583 -0.0015102432)
(-0.0057526917 0.018692885 7.8002684e-05)
(-0.0057738742 0.018294707 0.0005741141)
(-0.003046044 0.012733526 -0.00071417603)
(0.0022856091 0.018569306 -0.0052324285)
(0.0035205022 0.018934754 -0.0049986736)
(0.0031277641 0.01848664 -0.0045771969)
(-0.002674455 0.004961938 -0.0007817439)
(0.0046551252 -0.011715193 -0.0032395404)
(-0.0015392066 -0.015138872 -0.0019513977)
(-0.0022121693 -0.011611457 -0.0016163927)
(0.0029078658 -0.015116365 -0.0037274216)
(5.1833413e-05 -0.016039042 -0.0018206347)
(-0.0037661361 -0.013743327 -0.0035389312)
(-0.0011192382 0.005314706 0.0011155854)
(0.00214588 -0.01643325 -1.5530473e-05)
(0.0020643825 -0.0147185 -0.0015100217)
(-0.0020106395 -0.013613219 0.0013761644)
(-0.0021592941 -0.012338131 0.0026259681)
(0.0016986946 0.0027791379 0.0014644477)
(0.0017039808 -0.0040393778 -0.0046420592)
(0.0022601057 -0.0040255431 -0.0047285395)
(0.0058918096 -0.014024219 2.0343353e-05)
(0.00056685322 -0.014329266 0.0040531308)
(-0.0042333272 -0.0098615645 0.0052848756)
(-0.0011022696 9.9092687e-05 0.0010609788)
(-0.00096192527 0.0046797832 -0.0015604994)
(-0.0015819484 0.00280987 -6.5705308e-05)
(-0.00074609577 -0.012572733 0.00071353652)
(-0.0026657482 -0.01852312 0.0018640236)
(-0.003473633 -0.017202881 0.0019149934)
(-0.00143429 -0.010657157 -0.0014286486)
(0.0012582292 0.0054131843 -0.0024710281)
(0.0013350887 0.0084994799 -0.0012026718)
(0.0056177319 0.010847214 -0.0031685228)
(-0.0022060281 0.00951497 -0.0020418149)
(0.00039069056 0.00028950694 -0.0019163613)
(-0.0020517565 0.0025331446 -0.0020449456)
(-0.0018500962 0.01057337 -0.0013649939)
(-0.0056251259 0.01067485 -0.0026093382)
(-0.00021147518 0.0069620954 -0.0013394937)
(0.0029248051 0.009232842 0.0002904983)
(0.0011742546 -0.0011245426 -0.0011223242)
(-0.00031940174 -0.00088083759 -0.0017035733)