/*--------------------------------*- C++ -*----------------------------------*\
| =========                 |                                                 |
| \\      /  F ield         | OpenFOAM: The Open Source CFD Toolbox           |
|  \\    /   O peration     | Version:  v2012                                 |
|   \\  /    A nd           | Website:  www.openfoam.com                      |
|    \\/     M anipulation  |                                                 |
\*---------------------------------------------------------------------------*/
FoamFile
{
    version     2.0;
    format      ascii;
    class       volScalarField;
    location    "90/rightSolid";
    object      T;
}
// * * * * * * * * * * * * * * * * * * * * * * * * * * * * * * * * * * * * * //

dimensions      [0 0 0 1 0 0 0];


internalField   nonuniform List<scalar> 
130
(
555.59629
558.14902
560.69359
563.11031
565.28484
567.16403
568.75181
570.06682
571.13665
571.97436
572.57907
572.95242
573.09465
553.02301
556.21246
559.3241
562.17877
564.66653
566.77127
568.51441
569.93667
571.07517
571.95139
572.59086
573.0096
573.20852
547.72141
552.36987
556.65609
560.38504
563.49561
566.04421
568.0799
569.69991
570.96428
571.89584
572.55149
572.99315
573.21797
539.54448
547.00378
553.21269
558.1894
562.10974
565.18793
567.58427
569.43635
570.83912
571.84398
572.53002
572.96212
573.17652
529.65896
541.80532
550.32861
556.52091
561.12193
564.60635
567.24497
569.23581
570.71217
571.76799
572.48632
572.9248
573.13398
529.66223
541.80632
550.32771
556.52009
561.12123
564.60632
567.24516
569.2361
570.7125
571.76818
572.48645
572.92492
573.1341
539.53596
546.99924
553.20859
558.18648
562.10803
565.18761
567.58463
569.43665
570.83923
571.84396
572.52994
572.962
573.17645
547.71814
552.36691
556.6531
560.38335
563.49441
566.04363
568.08056
569.70014
570.96403
571.89557
572.55117
572.99287
573.21776
553.02492
556.21378
559.32468
562.17875
564.66633
566.77109
568.51471
569.93667
571.07469
571.95065
572.59004
573.00899
573.20821
555.5997
558.15099
560.69583
563.11215
565.28588
567.16449
568.75206
570.06664
571.13576
571.97312
572.57771
572.95151
573.09413
)
;

boundaryField
{
    maxX
    {
        type            zeroGradient;
    }
    minZ
    {
        type            zeroGradient;
    }
    maxZ
    {
        type            zeroGradient;
    }
    rightSolid_to_bottomWater
    {
        type            compressible::turbulentTemperatureCoupledBaffleMixed;
        refValue        nonuniform List<scalar> 
130
(
1010.2509
1012.1555
1009.9879
1012.6048
1014.753
1014.1649
1013.6821
1013.1845
1014.7629
1018.122
1020.2136
1020.9124
1011.874
1009.1784
1012.6223
1016.4892
1020.3099
1019.8216
1018.301
1016.5521
1016.1295
1017.7932
1019.7542
1022.7853
1025.8698
1026.4049
1005.9234
1009.8864
1013.2583
1017.9816
1017.9482
1021.3841
1018.8897
1019.2632
1022.9716
1021.9161
1019.0212
1022.7637
1025.96
995.78641
1004.3175
1008.0422
1011.2903
1012.3917
1016.2739
1019.2228
1022.5434
1027.2404
1025.9177
1023.2825
1021.2782
1021.6818
976.35548
1000.9573
1004.7261
1007.9678
1009.7336
1015.9052
1018.8803
1021.1656
1022.5432
1022.0763
1022.0167
1019.7446
1018.5845
977.58512
1001.27
1004.4782
1007.8868
1009.5899
1015.9347
1018.9005
1021.2113
1022.6193
1022.1068
1022.0334
1019.7659
1018.6107
994.98505
1004.1495
1007.5583
1010.9341
1012.1784
1016.3251
1019.3166
1022.5834
1027.2377
1025.9079
1023.2779
1021.2712
1021.6923
1005.5779
1009.6777
1012.8816
1017.925
1017.8448
1021.2843
1019.1559
1019.3122
1022.9113
1021.9105
1019.02
1022.7712
1025.9757
1009.375
1012.8047
1016.5199
1020.2147
1019.7652
1018.2254
1016.6488
1016.1829
1017.7882
1019.7375
1022.766
1025.8552
1026.4319
1010.483
1011.8726
1010.1491
1012.7744
1014.8077
1014.1525
1013.7034
1013.2126
1014.699
1018.049
1020.099
1020.8807
1011.8805
)
;
        refGradient     uniform 0;
        valueFraction   nonuniform List<scalar> 
130
(
0.0075140686
0.0075140686
0.0075140686
0.0075140686
0.0075140686
0.0075140686
0.0075140686
0.0075140686
0.0075140686
0.0075140686
0.0075140686
0.0075140686
0.0075140686
0.0075140686
0.0075140686
0.0075140686
0.0075140686
0.0075140686
0.0075140686
0.0075140686
0.0075140686
0.0075140686
0.0075140686
0.0075140686
0.0075140686
0.0075140686
0.0075140686
0.0075140686
0.0075140686
0.0075140686
0.0075140686
0.0075140686
0.0075140686
0.0075140686
0.0075140686
0.0075140686
0.0075140686
0.0075140686
0.0075140686
0.0075140686
0.0075140686
0.0075140686
0.0075140686
0.0075140686
0.0075140686
0.0075140686
0.0075140686
0.0075140686
0.0075140686
0.0075140686
0.0075140686
0.0075140686
0.0075140686
0.0075140686
0.0075140686
0.0075140686
0.0075140686
0.0075140686
0.0075140686
0.0075140686
0.0075140686
0.0075140686
0.0075140686
0.0075140686
0.0075140686
0.0075140686
0.0075140686
0.0075140686
0.0075140686
0.0075140686
0.0075140686
0.0075140686
0.0075140686
0.0075140686
0.0075140686
0.0075140686
0.0075140686
0.0075140686
0.0075140686
0.0075140686
0.0075140686
0.0075140686
0.0075140686
0.0075140686
0.0075140686
0.0075140686
0.0075140686
0.0075140686
0.0075140686
0.0075140686
0.0075140686
0.0075140686
0.0075140686
0.0075140686
0.0075140686
0.0075140686
0.0075140686
0.0075140686
0.0075140686
0.0075140686
0.0075140686
0.0075140686
0.0075140686
0.0075140686
0.0075140686
0.0075140686
0.0075140686
0.0075140686
0.0075140686
0.0075140686
0.0075140686
0.0075140686
0.0075140686
0.0075140686
0.0075140686
0.0075140686
0.0075140686
0.0075140686
0.0075140686
0.0075140686
0.0075140686
0.0075140686
0.0075140686
0.0075140686
0.0075140686
0.0075140686
0.0075140686
0.0075140686
0.0075140686
0.0075140686
)
;
        value           nonuniform List<scalar> 
130
(
558.98254
561.52975
564.03826
566.45584
568.62949
570.48951
572.06122
573.36215
574.43542
575.29173
575.90735
576.28294
576.35602
556.42102
559.61159
562.72812
565.5893
568.05398
570.13084
571.84722
573.25515
574.39718
575.28119
575.93836
576.37696
576.57831
551.13584
555.77812
560.05646
563.79197
566.87808
569.43259
571.4336
573.04376
574.32606
575.24233
575.87104
576.33735
576.5844
542.94563
550.41151
556.60043
561.56302
565.46117
568.5445
570.94427
572.80684
574.23392
575.22093
575.88175
576.29538
576.51112
532.99001
545.2278
553.71365
559.88244
564.46101
567.96467
570.60506
572.59752
574.07265
575.11667
575.82886
576.24681
576.44561
533.0025
545.23113
553.71091
559.88102
564.45924
567.96486
570.6054
572.59815
574.07355
575.11709
575.82911
576.24709
576.44593
542.93117
550.40576
556.59276
561.55747
565.45788
568.54457
570.94534
572.80745
574.234
575.22084
575.88164
576.29522
576.51113
551.13
555.77362
560.05067
563.78989
566.87613
569.43127
571.43625
573.04434
574.32535
575.24202
575.87072
576.33712
576.58431
556.42439
559.61427
562.72893
565.58858
568.05337
570.1301
571.84825
573.25556
574.39667
575.28033
575.9374
576.37625
576.5782
558.98766
561.5296
564.0417
566.45893
568.63093
570.48988
572.06163
573.36219
574.43406
575.28995
575.90514
576.2818
576.35556
)
;
        Tnbr            T;
        thicknessLayers List<scalar> 0();
        kappaLayers     List<scalar> 0();
        kappaMethod     solidThermo;
        kappa           none;
        alphaAni        none;
        alpha           none;
        field           T;
    }
    rightSolid_to_topAir
    {
        type            compressible::turbulentTemperatureCoupledBaffleMixed;
        refValue        nonuniform List<scalar> 
130
(
409.13935
408.40988
407.25816
405.92735
404.61561
403.4727
402.60772
402.10301
402.04268
402.56385
403.94246
406.59866
410.74631
386.99502
385.11698
383.55971
382.37167
381.52329
381.00673
380.83324
381.03042
381.68571
383.05521
385.75742
390.41237
395.73568
392.73064
389.28102
385.4304
381.85067
378.98972
376.97619
375.74018
375.17092
375.26314
376.22776
378.84118
385.06986
394.07281
410.72596
412.28973
412.88122
412.34654
410.87361
408.883
406.94095
405.37515
404.44225
404.63251
407.32694
412.796
419.67208
410.00278
413.29359
416.69838
420.08414
423.0259
424.74252
425.39606
425.7307
426.4855
428.52311
431.694
435.28674
440.19627
410.00217
413.29304
416.6978
420.08324
423.0157
424.7169
425.3511
425.66443
426.39752
428.41595
431.59466
435.19298
440.10401
410.72414
412.28766
412.87876
412.34295
410.86751
408.87286
406.92536
405.35294
404.41272
404.59549
407.28096
412.75048
419.62218
392.73247
389.28362
385.43398
381.85545
378.99576
376.98345
375.74859
375.18037
375.27363
376.23958
378.85427
385.08185
394.07669
386.99581
385.11807
383.56119
382.37366
381.52593
381.0101
380.83743
381.03553
381.69195
383.06303
385.76722
390.42179
395.74404
409.1399
408.41057
407.25904
405.92845
404.61699
403.4744
402.60981
402.10557
402.04582
402.56779
403.94745
406.60453
410.75289
)
;
        refGradient     uniform 0;
        valueFraction   nonuniform List<scalar> 
130
(
0.00032132529
0.00032132529
0.00032132529
0.00032132529
0.00032132529
0.00032132529
0.00032132529
0.00032132529
0.00032132529
0.00032132529
0.00032132529
0.00032132529
0.00032132529
0.00032132529
0.00032132529
0.00032132529
0.00032132529
0.00032132529
0.00032132529
0.00032132529
0.00032132529
0.00032132529
0.00032132529
0.00032132529
0.00032132529
0.00032132529
0.00032132529
0.00032132529
0.00032132529
0.00032132529
0.00032132529
0.00032132529
0.00032132529
0.00032132529
0.00032132529
0.00032132529
0.00032132529
0.00032132529
0.00032132529
0.00032132529
0.00032132529
0.00032132529
0.00032132529
0.00032132529
0.00032132529
0.00032132529
0.00032132529
0.00032132529
0.00032132529
0.00032132529
0.00032132529
0.00032132529
0.00032132529
0.00032132529
0.00032132529
0.00032132529
0.00032132529
0.00032132529
0.00032132529
0.00032132529
0.00032132529
0.00032132529
0.00032132529
0.00032132529
0.00032132529
0.00032132529
0.00032132529
0.00032132529
0.00032132529
0.00032132529
0.00032132529
0.00032132529
0.00032132529
0.00032132529
0.00032132529
0.00032132529
0.00032132529
0.00032132529
0.00032132529
0.00032132529
0.00032132529
0.00032132529
0.00032132529
0.00032132529
0.00032132529
0.00032132529
0.00032132529
0.00032132529
0.00032132529
0.00032132529
0.00032132529
0.00032132529
0.00032132529
0.00032132529
0.00032132529
0.00032132529
0.00032132529
0.00032132529
0.00032132529
0.00032132529
0.00032132529
0.00032132529
0.00032132529
0.00032132529
0.00032132529
0.00032132529
0.00032132529
0.00032132529
0.00032132529
0.00032132529
0.00032132529
0.00032132529
0.00032132529
0.00032132529
0.00032132529
0.00032132529
0.00032132529
0.00032132529
0.00032132529
0.00032132529
0.00032132529
0.00032132529
0.00032132529
0.00032132529
0.00032132529
0.00032132529
0.00032132529
0.00032132529
0.00032132529
0.00032132529
)
;
        value           nonuniform List<scalar> 
130
(
555.51896
558.06998
560.6127
563.02756
565.20029
567.07788
568.66435
569.97832
571.04739
571.88466
572.48935
572.86323
573.00658
552.93987
556.1269
559.23624
562.08887
564.57483
566.67808
568.42009
569.84148
570.9794
571.85542
572.49528
572.91521
573.11568
547.64287
552.28769
556.57028
560.29597
563.40378
565.95014
567.98414
569.60295
570.86651
571.79772
572.45373
572.8971
573.12464
539.4758
546.93173
553.1375
558.1113
562.02889
565.10454
567.49877
569.3492
570.75077
571.75501
572.44143
572.87498
573.09144
529.59487
541.7362
550.25613
556.44617
561.0455
564.5284
567.16562
569.15533
570.63096
571.68674
572.40556
572.84489
573.05549
529.59815
541.7372
550.25524
556.44535
561.0448
564.52836
567.1658
569.1556
570.63127
571.6869
572.40566
572.84498
573.05559
539.46731
546.92721
553.13343
558.1084
562.02719
565.10423
567.49913
569.3495
570.75087
571.75498
572.44134
572.87485
573.09135
547.6396
552.28474
556.5673
560.2943
563.40259
565.94957
567.9848
569.60317
570.86626
571.79745
572.45342
572.89682
573.12444
552.94178
556.12822
559.23683
562.08886
564.57464
566.67791
568.42039
569.84148
570.97893
571.85468
572.49446
572.91461
573.11536
555.52236
558.07197
560.61495
563.0294
565.20133
567.07835
568.6646
569.97814
571.04651
571.88342
572.48799
572.86233
573.00607
)
;
        Tnbr            T;
        thicknessLayers List<scalar> 0();
        kappaLayers     List<scalar> 0();
        kappaMethod     solidThermo;
        kappa           none;
        alphaAni        none;
        alpha           none;
        field           T;
    }
    rightSolid_to_heater
    {
        type            compressible::turbulentTemperatureCoupledBaffleMixed;
        refValue        nonuniform List<scalar> 10(553.2311 550.02308 543.17323 531.49538 511.66292 511.66194 531.48135 543.17214 550.02615 553.23492);
        refGradient     uniform 0;
        valueFraction   nonuniform List<scalar> 10(0.50000003 0.50000003 0.50000003 0.50000003 0.50000003 0.50000003 0.50000003 0.50000003 0.50000003 0.50000003);
        value           nonuniform List<scalar> 10(554.39855 551.50815 545.43294 535.50628 520.64812 520.64926 535.49502 545.43077 551.51063 554.40216);
        Tnbr            T;
        thicknessLayers List<scalar> 0();
        kappaLayers     List<scalar> 0();
        kappaMethod     solidThermo;
        kappa           none;
        alphaAni        none;
        alpha           none;
        field           T;
    }
}


// ************************************************************************* //
