/*--------------------------------*- C++ -*----------------------------------*\
| =========                 |                                                 |
| \\      /  F ield         | OpenFOAM: The Open Source CFD Toolbox           |
|  \\    /   O peration     | Version:  v2012                                 |
|   \\  /    A nd           | Website:  www.openfoam.com                      |
|    \\/     M anipulation  |                                                 |
\*---------------------------------------------------------------------------*/
FoamFile
{
    version     2.0;
    format      ascii;
    class       volScalarField;
    location    "260/leftSolid";
    object      T;
}
// * * * * * * * * * * * * * * * * * * * * * * * * * * * * * * * * * * * * * //

dimensions      [0 0 0 1 0 0 0];


internalField   nonuniform List<scalar> 
130
(
810.81151
810.79959
810.75966
810.68326
810.56488
810.38951
810.1385
809.7991
809.39116
809.03308
808.73669
808.5043
808.37162
810.85977
810.84201
810.79344
810.70321
810.57236
810.3891
810.13565
809.80298
809.41538
809.04581
808.72007
808.45244
808.30674
810.92335
810.89609
810.83016
810.71862
810.5586
810.34987
810.0865
809.74629
809.3669
808.97451
808.62084
808.31603
808.13767
810.97972
810.93936
810.85126
810.70913
810.51608
810.27125
809.97374
809.60787
809.19862
808.76246
808.3404
807.96822
807.73768
810.96836
810.92549
810.82244
810.65427
810.42843
810.14373
809.79922
809.38919
808.90952
808.42859
808.01263
807.68999
807.48862
810.86804
810.82553
810.7147
810.52919
810.27429
809.94769
809.54938
809.12295
808.69831
808.30002
807.9536
807.68513
807.51817
810.73923
810.6816
810.5578
810.35877
810.09418
809.76388
809.40094
809.04849
808.70613
808.3814
808.10166
807.88672
807.74845
810.57769
810.51595
810.38818
810.18954
809.94913
809.66126
809.36734
809.08264
808.80528
808.53184
808.29649
808.115
808.0048
810.41104
810.35148
810.22141
810.03249
809.83041
809.61153
809.37933
809.14452
808.91234
808.68351
808.48433
808.32961
808.23774
810.29608
810.24036
810.11704
809.95119
809.77642
809.59276
809.39807
809.19363
808.98594
808.78196
808.60416
808.46784
808.38898
)
;

boundaryField
{
    minX
    {
        type            zeroGradient;
    }
    minZ
    {
        type            zeroGradient;
    }
    maxZ
    {
        type            zeroGradient;
    }
    leftSolid_to_bottomWater
    {
        type            compressible::turbulentTemperatureCoupledBaffleMixed;
        refValue        nonuniform List<scalar> 
130
(
984.50308
985.50751
986.05421
986.66136
987.96484
988.9723
989.14435
985.95244
972.59641
970.64519
970.41905
967.39622
964.91263
986.34331
986.84239
987.38466
986.80672
987.8082
989.34574
989.54064
986.75107
979.27256
976.0264
973.54933
966.46646
965.26753
988.04139
988.33093
988.26272
987.87535
986.88814
987.01088
989.13557
984.93453
982.80737
977.50315
977.1554
969.94444
965.66966
991.21778
990.6022
989.99123
988.57094
987.63911
986.74818
987.42593
984.05819
982.45698
977.09894
969.90192
955.29667
942.88228
991.62173
992.24866
991.52502
989.52988
988.51884
987.5622
986.80646
983.58866
968.03372
956.70847
951.7194
948.54344
940.78128
988.41405
990.57567
990.52255
988.97377
987.45033
984.6499
975.12277
966.30043
961.32021
958.74199
955.74615
952.69583
946.79458
989.2851
988.77382
988.38664
985.90619
983.29446
976.83439
970.44613
969.58774
968.49405
965.84025
963.70758
962.30837
956.47598
988.24616
987.36635
986.66395
982.38694
981.45364
975.65548
973.86649
974.03687
974.26155
969.91066
967.64409
965.26347
961.91309
985.21017
985.11128
982.43547
976.92336
977.47815
977.74714
976.73155
976.30701
976.39342
973.66698
971.97002
969.79495
967.23381
981.91231
982.11604
978.90592
976.21902
977.07033
978.1435
978.56312
978.1525
977.90449
975.94978
974.5068
972.99822
971.35962
)
;
        refGradient     uniform 0;
        valueFraction   nonuniform List<scalar> 
130
(
0.0075140686
0.0075140686
0.0075140686
0.0075140686
0.0075140686
0.0075140686
0.0075140686
0.0075140686
0.0075140686
0.0075140686
0.0075140686
0.0075140686
0.0075140686
0.0075140686
0.0075140686
0.0075140686
0.0075140686
0.0075140686
0.0075140686
0.0075140686
0.0075140686
0.0075140686
0.0075140686
0.0075140686
0.0075140686
0.0075140686
0.0075140686
0.0075140686
0.0075140686
0.0075140686
0.0075140686
0.0075140686
0.0075140686
0.0075140686
0.0075140686
0.0075140686
0.0075140686
0.0075140686
0.0075140686
0.0075140686
0.0075140686
0.0075140686
0.0075140686
0.0075140686
0.0075140686
0.0075140686
0.0075140686
0.0075140686
0.0075140686
0.0075140686
0.0075140686
0.0075140686
0.0075140686
0.0075140686
0.0075140686
0.0075140686
0.0075140686
0.0075140686
0.0075140686
0.0075140686
0.0075140686
0.0075140686
0.0075140686
0.0075140686
0.0075140686
0.0075140686
0.0075140686
0.0075140686
0.0075140686
0.0075140686
0.0075140686
0.0075140686
0.0075140686
0.0075140686
0.0075140686
0.0075140686
0.0075140686
0.0075140686
0.0075140686
0.0075140686
0.0075140686
0.0075140686
0.0075140686
0.0075140686
0.0075140686
0.0075140686
0.0075140686
0.0075140686
0.0075140686
0.0075140686
0.0075140686
0.0075140686
0.0075140686
0.0075140686
0.0075140686
0.0075140686
0.0075140686
0.0075140686
0.0075140686
0.0075140686
0.0075140686
0.0075140686
0.0075140686
0.0075140686
0.0075140686
0.0075140686
0.0075140686
0.0075140686
0.0075140686
0.0075140686
0.0075140686
0.0075140686
0.0075140686
0.0075140686
0.0075140686
0.0075140686
0.0075140686
0.0075140686
0.0075140686
0.0075140686
0.0075140686
0.0075140686
0.0075140686
0.0075140686
0.0075140686
0.0075140686
0.0075140686
0.0075140686
0.0075140686
0.0075140686
)
;
        value           nonuniform List<scalar> 
130
(
812.10732
812.10303
812.0675
811.99622
811.88851
811.72205
811.47424
811.11341
810.60819
810.23817
809.94234
809.68901
809.53865
812.16906
812.15518
812.11106
812.01716
811.89483
811.7245
811.47443
811.12332
810.68245
810.29129
809.94941
809.6306
809.47698
812.24493
812.22005
812.15412
812.04052
811.87431
811.66807
811.42267
811.05348
810.66097
810.2317
809.87809
809.52141
809.31229
812.32478
812.2801
812.18808
812.03635
811.83776
811.5881
811.29795
810.90958
810.49141
810.01831
809.54532
809.06619
808.74413
812.31659
812.27875
812.17104
811.98915
811.75742
811.46769
811.12013
810.68908
810.0963
809.5338
809.0834
808.73929
808.48112
812.19295
812.16701
812.05662
811.86086
811.59643
811.25126
810.78439
810.29494
809.8361
809.42141
809.05507
808.76571
808.55566
812.0717
812.01065
811.88487
811.6687
811.3865
811.01017
810.60194
810.2457
809.89772
809.55549
809.26186
809.03804
808.857
811.90357
811.83568
811.70361
811.47434
811.22872
810.89944
810.59427
810.313
810.03942
809.73537
809.48479
809.28681
809.15227
811.71536
811.65552
811.50634
811.27741
811.08098
810.86577
810.6277
810.39146
810.16168
809.91411
809.7037
809.53381
809.42341
811.5765
811.52274
811.37624
811.19142
811.02433
810.8501
810.66005
810.45407
810.24607
810.02895
809.84166
809.69504
809.60447
)
;
        Tnbr            T;
        thicknessLayers List<scalar> 0();
        kappaLayers     List<scalar> 0();
        kappaMethod     solidThermo;
        kappa           none;
        alphaAni        none;
        alpha           none;
        field           T;
    }
    leftSolid_to_heater
    {
        type            compressible::turbulentTemperatureCoupledBaffleMixed;
        refValue        nonuniform List<scalar> 10(701.05912 692.67598 674.97329 645.92958 603.39782 603.38457 645.86091 674.77994 692.49065 700.89653);
        refGradient     uniform 0;
        valueFraction   nonuniform List<scalar> 10(2.08329e-05 2.08329e-05 2.08329e-05 2.08329e-05 2.08329e-05 2.08329e-05 2.08329e-05 2.08329e-05 2.08329e-05 2.08329e-05);
        value           nonuniform List<scalar> 10(808.36009 808.29509 808.12574 807.7252 807.47523 807.50481 807.73601 807.99295 808.22622 808.37759);
        Tnbr            T;
        thicknessLayers List<scalar> 1(0.001);
        kappaLayers     List<scalar> 1(0.0005);
        kappaMethod     solidThermo;
        kappa           none;
        alphaAni        none;
        alpha           none;
        field           T;
    }
    leftSolid_to_topAir
    {
        type            compressible::turbulentTemperatureCoupledBaffleMixed;
        refValue        nonuniform List<scalar> 
130
(
320.82998
340.14673
357.63438
373.76104
388.92536
403.38289
417.26316
430.54852
442.87771
454.23827
464.55688
473.68847
481.31684
320.82727
339.93696
357.01906
372.54453
386.88501
400.24491
412.69966
424.21749
434.67216
443.83141
451.38968
456.98341
460.19743
320.82786
339.976
357.11109
372.70248
387.12802
400.60153
413.22487
425.045
436.0426
446.12121
455.10647
462.73886
468.53719
320.8302
339.9929
357.16063
372.80728
387.32479
400.95368
413.83862
426.07447
437.72532
448.83405
459.40791
469.3974
478.47857
320.82926
339.99546
357.17131
372.83012
387.36473
401.01782
413.93702
426.22182
437.94133
449.13824
459.81554
469.90187
478.95712
320.8252
339.98766
357.15968
372.81408
387.34304
400.9884
413.89651
426.16595
437.86571
449.03573
459.66879
469.66275
478.49723
320.82051
339.9738
357.13164
372.76674
387.27003
400.88089
413.74387
425.95562
437.57932
448.64449
459.14737
469.01225
477.85366
320.81395
339.94838
357.06896
372.64374
387.05071
400.50409
413.10822
424.90591
435.88021
445.94121
454.90078
462.48009
468.16277
320.80919
339.90095
356.96381
372.4674
386.78351
400.11666
412.5447
424.04504
434.4907
443.64436
451.1973
456.77586
459.94322
320.8092
340.10535
357.57092
373.6731
388.81147
403.24364
417.10366
430.38592
442.72549
454.10183
464.43842
473.58584
481.21939
)
;
        refGradient     uniform 0;
        valueFraction   nonuniform List<scalar> 
130
(
0.00032132529
0.00032132529
0.00032132529
0.00032132529
0.00032132529
0.00032132529
0.00032132529
0.00032132529
0.00032132529
0.00032132529
0.00032132529
0.00032132529
0.00032132529
0.00032132529
0.00032132529
0.00032132529
0.00032132529
0.00032132529
0.00032132529
0.00032132529
0.00032132529
0.00032132529
0.00032132529
0.00032132529
0.00032132529
0.00032132529
0.00032132529
0.00032132529
0.00032132529
0.00032132529
0.00032132529
0.00032132529
0.00032132529
0.00032132529
0.00032132529
0.00032132529
0.00032132529
0.00032132529
0.00032132529
0.00032132529
0.00032132529
0.00032132529
0.00032132529
0.00032132529
0.00032132529
0.00032132529
0.00032132529
0.00032132529
0.00032132529
0.00032132529
0.00032132529
0.00032132529
0.00032132529
0.00032132529
0.00032132529
0.00032132529
0.00032132529
0.00032132529
0.00032132529
0.00032132529
0.00032132529
0.00032132529
0.00032132529
0.00032132529
0.00032132529
0.00032132529
0.00032132529
0.00032132529
0.00032132529
0.00032132529
0.00032132529
0.00032132529
0.00032132529
0.00032132529
0.00032132529
0.00032132529
0.00032132529
0.00032132529
0.00032132529
0.00032132529
0.00032132529
0.00032132529
0.00032132529
0.00032132529
0.00032132529
0.00032132529
0.00032132529
0.00032132529
0.00032132529
0.00032132529
0.00032132529
0.00032132529
0.00032132529
0.00032132529
0.00032132529
0.00032132529
0.00032132529
0.00032132529
0.00032132529
0.00032132529
0.00032132529
0.00032132529
0.00032132529
0.00032132529
0.00032132529
0.00032132529
0.00032132529
0.00032132529
0.00032132529
0.00032132529
0.00032132529
0.00032132529
0.00032132529
0.00032132529
0.00032132529
0.00032132529
0.00032132529
0.00032132529
0.00032132529
0.00032132529
0.00032132529
0.00032132529
0.00032132529
0.00032132529
0.00032132529
0.00032132529
0.00032132529
0.00032132529
0.00032132529
0.00032132529
)
;
        value           nonuniform List<scalar> 
130
(
810.64468
810.63896
810.60465
810.53345
810.41997
810.24932
810.00287
809.66785
809.26402
808.90973
808.61678
808.38743
808.25724
810.69293
810.68132
810.63826
810.55305
810.42685
810.24795
809.9986
809.66976
809.28565
808.91916
808.59599
808.33027
808.18564
810.75651
810.73541
810.67502
810.56854
810.41323
810.2089
809.94969
809.61342
809.2377
808.84871
808.49805
808.19582
808.0194
810.8129
810.77871
810.69616
810.55911
810.3708
810.13045
809.8372
809.47544
809.07011
808.6377
808.21915
807.8503
807.62278
810.80159
810.76489
810.6674
810.50431
810.28323
810.00302
809.66282
809.25695
808.78137
808.3041
807.89163
807.5723
807.37391
810.70133
810.66499
810.55973
810.3793
810.12915
809.80706
809.41306
808.99078
808.57007
808.17548
807.83257
807.56741
807.40334
810.5726
810.52114
810.40289
810.20895
809.94913
809.62334
809.26463
808.91624
808.57774
808.25668
807.98043
807.76876
807.63338
810.41111
810.35554
810.23333
810.03978
809.80407
809.52061
809.23082
808.95001
808.67627
808.40618
808.17382
807.99485
807.88653
810.24452
810.19113
810.0666
809.88271
809.68526
809.47074
809.24262
809.01158
808.78284
808.55705
808.36039
808.20752
808.11672
810.12962
810.08012
809.96247
809.80182
809.63194
809.45296
809.26281
809.06272
808.85905
808.65881
808.4844
808.35108
808.2747
)
;
        Tnbr            T;
        thicknessLayers List<scalar> 0();
        kappaLayers     List<scalar> 0();
        kappaMethod     solidThermo;
        kappa           none;
        alphaAni        none;
        alpha           none;
        field           T;
    }
}


// ************************************************************************* //
