/*--------------------------------*- C++ -*----------------------------------*\
| =========                 |                                                 |
| \\      /  F ield         | OpenFOAM: The Open Source CFD Toolbox           |
|  \\    /   O peration     | Version:  v2012                                 |
|   \\  /    A nd           | Website:  www.openfoam.com                      |
|    \\/     M anipulation  |                                                 |
\*---------------------------------------------------------------------------*/
FoamFile
{
    version     2.0;
    format      ascii;
    class       volScalarField;
    location    "480/topAir";
    object      rho;
}
// * * * * * * * * * * * * * * * * * * * * * * * * * * * * * * * * * * * * * //

dimensions      [1 -3 0 0 0 0 0];


internalField   nonuniform List<scalar> 
1200
(
1.0710643
1.0010955
0.94522392
0.8989021
0.85920375
0.82440283
0.79353034
0.7662414
0.74254551
0.72201074
0.70441722
0.68974218
0.67835681
0.67809834
0.68114793
0.68748794
0.69628337
0.70622126
0.71603156
0.7248097
0.7320628
0.7376028
0.74140948
0.74352933
0.74402464
0.74292774
0.740179
0.73551478
0.72820234
0.71712815
1.1565849
1.1527633
1.1475738
1.1412775
1.1340673
1.126097
1.1175069
1.1078083
1.0946849
1.0776045
1.0543791
1.0242051
0.98782757
0.95103623
0.91729749
0.88897182
0.86666135
0.8501775
0.83908026
0.83268124
0.82983677
0.829157
0.8293412
0.82933788
0.82833933
0.82564194
0.82045189
0.81161471
0.79704511
0.77517399
1.1585748
1.1584467
1.158209
1.1578386
1.1573159
1.1566243
1.1557508
1.1546703
1.1532999
1.151547
1.1491579
1.1420876
1.1236179
1.0917584
1.0512938
1.007903
0.9671107
0.93171852
0.90295539
0.88102469
0.86531786
0.85465458
0.84764273
0.8429594
0.83948143
0.83627726
0.83250951
0.8272154
0.81875332
0.80483694
1.158618
1.1586138
1.1586035
1.1585835
1.1585488
1.1584935
1.1584106
1.1582913
1.1581229
1.1578858
1.1575351
1.1567994
1.1545391
1.1427947
1.1104129
1.066719
1.0237463
0.98447743
0.95033367
0.92213875
0.8999903
0.88327654
0.87096537
0.86193897
0.85519081
0.84987623
0.84526092
0.84058939
0.83473863
0.82597219
1.0710849
1.0018195
0.94710108
0.90226128
0.86437302
0.83175497
0.80346392
0.7789838
0.75813745
0.74098964
0.72785795
0.71925118
0.71603184
0.72823507
0.74529396
0.76463582
0.78261532
0.79667681
0.80624233
0.81216453
0.81562539
0.81745041
0.81799368
0.81728985
0.81526091
0.81178169
0.80663251
0.79925782
0.78796193
0.77016096
1.1565877
1.1528374
1.1478433
1.1419028
1.1352446
1.12806
1.1205384
1.1128873
1.1053494
1.0982234
1.0919159
1.0869396
1.0839113
1.0836271
1.0850505
1.0856581
1.0830273
1.0768187
1.0682967
1.0588483
1.0490215
1.0387742
1.027875
1.016077
1.0032198
0.98926406
0.97431059
0.95860016
0.94173268
0.91938176
1.1585749
1.1584503
1.1582249
1.1578829
1.1574135
1.15681
1.1560715
1.1552038
1.154221
1.1531523
1.1520479
1.1509123
1.14976
1.1484012
1.14415
1.1337591
1.1149613
1.0903459
1.0647938
1.0424738
1.0230435
1.0047086
0.98730354
0.97064327
0.95458158
0.93830329
0.92143325
0.90444532
0.88726615
0.86916786
1.158618
1.1586139
1.1586044
1.1585863
1.158556
1.1585095
1.1584423
1.1583499
1.1582273
1.1580695
1.1578686
1.1575903
1.1569936
1.1539948
1.1408092
1.1139807
1.0792825
1.0377197
0.99709082
0.96219871
0.93522097
0.91537284
0.89983838
0.88710548
0.87659623
0.86843317
0.86178079
0.85594498
0.85014985
0.84229418
1.0710912
1.0017041
0.94684416
0.90185073
0.86378167
0.83093782
0.80230146
0.77721773
0.75532798
0.73654326
0.72106528
0.70948047
0.70311357
0.71342312
0.72842488
0.74522927
0.76171734
0.77727548
0.79172315
0.80486485
0.81648159
0.82614516
0.83322477
0.83718815
0.83787872
0.8355729
0.8307239
0.82346414
0.81184402
0.79238322
1.1565875
1.1528248
1.1478079
1.1418381
1.1351419
1.1279024
1.1202872
1.1124689
1.1046549
1.0971288
1.0903135
1.0848797
1.0817807
1.081777
1.082545
1.0816563
1.0788886
1.074757
1.0692215
1.0621846
1.0534109
1.0424194
1.0288057
1.0126061
0.9942867
0.9744271
0.95338329
0.93160172
0.90817389
0.88077021
1.1585749
1.1584497
1.1582231
1.1578794
1.1574082
1.1568031
1.1560628
1.1551917
1.1542035
1.1531284
1.1520303
1.1510269
1.1501998
1.1479359
1.1383442
1.122546
1.1073005
1.0945498
1.0814368
1.0672129
1.0508203
1.0309057
1.0073417
0.98140114
0.9548894
0.93003825
0.90837325
0.88967725
0.86915107
0.84380852
1.158618
1.1586139
1.1586043
1.1585861
1.1585558
1.1585094
1.1584428
1.1583515
1.1582312
1.1580779
1.1578866
1.1576221
1.1566956
1.1478176
1.1111432
1.0656888
1.0392655
1.0366023
1.0114566
0.9808581
0.9543537
0.93354997
0.9168765
0.90301749
0.89129401
0.88142772
0.87299966
0.86514209
0.8482431
0.81777407
1.0710803
1.0016426
0.94668583
0.90154656
0.86325598
0.8300641
0.80088305
0.77498801
0.75190999
0.73138991
0.71347425
0.69869386
0.68832776
0.69310657
0.69697497
0.69754803
0.69554289
0.69282305
0.69076503
0.69023531
0.69172561
0.69509468
0.69980499
0.70529728
0.71105444
0.71602579
0.71785463
0.71386345
0.70583467
0.69216104
1.156587
1.152819
1.1477859
1.1417839
1.1350309
1.1276947
1.1199174
1.1118348
1.1036059
1.0954706
1.0878633
1.0815943
1.0777396
1.0755613
1.0716523
1.0662583
1.0601542
1.0538161
1.0472201
1.0399563
1.0312776
1.0204704
1.0073172
0.99222258
0.97572875
0.95797667
0.93903964
0.91877746
0.87770056
0.81343461
1.1585749
1.1584494
1.1582219
1.1578759
1.1574001
1.1567865
1.1560312
1.1551348
1.1541062
1.1529727
1.1518054
1.1507535
1.1496009
1.1421083
1.1250025
1.1120746
1.1034389
1.0960154
1.0863973
1.0724842
1.0533752
1.0290367
1.0008771
0.97106216
0.94089499
0.91161802
0.88634057
0.8655448
0.84470676
0.8109995
1.158618
1.1586139
1.1586042
1.1585859
1.1585553
1.1585082
1.1584401
1.1583463
1.1582214
1.1580598
1.1578506
1.1574688
1.1547063
1.1221495
1.0415047
0.99903
0.99519769
0.9952019
0.99055853
0.97375999
0.95484674
0.93747082
0.92187642
0.9075849
0.89365495
0.8768237
0.85851057
0.83998037
0.81830935
0.79383264
1.0710651
1.0016035
0.94661528
0.90143957
0.86310689
0.82986528
0.80062736
0.774675
0.75154641
0.73106261
0.71344762
0.6995413
0.69045444
0.69607983
0.69788459
0.69542751
0.6922501
0.687564
0.68208962
0.67635325
0.67080384
0.66582729
0.66171952
0.65866506
0.65670261
0.65561306
0.65471931
0.65279932
0.64817672
0.63884917
1.1565866
1.1528158
1.1477756
1.1417604
1.1349872
1.1276218
1.1198047
1.1116734
1.1033983
1.0952634
1.0878364
1.0821668
1.0790149
1.0745612
1.0685252
1.0615293
1.0476989
1.0286567
1.0054065
0.97892128
0.95023548
0.92014462
0.88933712
0.85867299
0.82914661
0.80155156
0.77567293
0.75052104
0.72473345
0.69537991
1.1585749
1.1584493
1.1582213
1.1578742
1.1573961
1.1567788
1.1560176
1.1551125
1.1540735
1.1529336
1.1517873
1.1507983
1.1485933
1.1314062
1.1183488
1.110279
1.1049054
1.0973939
1.0868173
1.0728748
1.0532492
1.0270014
0.99600698
0.96324851
0.92875159
0.89405926
0.85933857
0.8237523
0.78581073
0.74303132
1.158618
1.1586139
1.1586042
1.1585858
1.1585549
1.1585074
1.1584386
1.1583433
1.1582157
1.1580487
1.157819
1.1571626
1.1492101
1.0470236
0.9850332
0.97282711
0.96682771
0.96068414
0.95272578
0.94251919
0.93197984
0.92152682
0.91162368
0.90322366
0.89649849
0.88510207
0.86656158
0.84028578
0.80551084
0.76453161
1.0710457
1.0015719
0.94657683
0.90139772
0.86306354
0.82982088
0.80057525
0.77459555
0.7513956
0.73072004
0.71261706
0.69764309
0.68722821
0.69460811
0.70017553
0.70130802
0.69848595
0.69321914
0.68731673
0.68130787
0.67563675
0.67068662
0.66676448
0.66407135
0.66266115
0.66231732
0.66233625
0.66136108
0.6574891
0.64896089
1.1565861
1.1528145
1.1477731
1.1417568
1.1349823
1.1276149
1.119793
1.1116466
1.1033261
1.0950614
1.0872856
1.0808367
1.0769125
1.0750813
1.0707225
1.0648624
1.0582687
1.0493806
1.0383658
1.0276837
1.0186972
1.0107657
1.0008567
0.98518692
0.9617363
0.93072927
0.89344529
0.85137904
0.80439505
0.75077533
1.1585749
1.1584493
1.1582212
1.157874
1.1573959
1.1567787
1.1560174
1.1551118
1.1540692
1.1529146
1.1517177
1.1506343
1.1495291
1.1422865
1.1227448
1.1094965
1.101715
1.0963463
1.0896373
1.0783071
1.05953
1.0322838
0.9992278
0.96629954
0.93949596
0.92052464
0.90559755
0.88203122
0.84595691
0.79706659
1.158618
1.1586139
1.1586042
1.1585858
1.158555
1.1585075
1.1584388
1.1583438
1.158217
1.1580522
1.157838
1.1574607
1.1549824
1.1252828
1.0010995
0.97827749
0.96954519
0.963229
0.95734812
0.95126616
0.94182168
0.92954215
0.91706178
0.90502356
0.89381431
0.88304573
0.87243718
0.85795463
0.82985662
0.79610172
1.0710236
1.0015489
0.94656851
0.90141369
0.86311433
0.8299183
0.800733
0.774824
0.75168765
0.73102037
0.71274793
0.69716551
0.68541329
0.68959675
0.69518335
0.69875834
0.69961738
0.69904284
0.69869712
0.69964476
0.70237169
0.70686486
0.71272879
0.71936808
0.72620314
0.7323509
0.73599019
0.73352775
0.72077291
0.705893
1.1565856
1.1528149
1.1477786
1.1417727
1.1350158
1.127675
1.1198903
1.1117922
1.1035238
1.0952807
1.0873993
1.080512
1.0756921
1.0739956
1.0721421
1.0681962
1.0630675
1.0576114
1.0520784
1.0462399
1.0395871
1.0314203
1.0210062
1.0078194
0.99171179
0.97273111
0.95185688
0.93139076
0.90677736
0.84720646
1.1585749
1.1584493
1.1582216
1.1578755
1.1573995
1.1567858
1.1560304
1.1551336
1.1541024
1.1529576
1.1517516
1.1506044
1.1496441
1.1472126
1.1339553
1.1163838
1.1038258
1.094683
1.0851596
1.0728953
1.0561326
1.0337971
1.0066734
0.97741819
0.94838254
0.91986659
0.89534095
0.87902919
0.86305636
0.83931136
1.158618
1.1586139
1.1586042
1.1585859
1.1585553
1.1585082
1.1584403
1.1583468
1.1582228
1.158063
1.1578609
1.1575785
1.1566206
1.1471744
1.0889178
1.0196038
0.99940634
0.99982063
1.0032309
0.9902285
0.9688945
0.94642795
0.92977964
0.91496513
0.90088703
0.88575544
0.86932641
0.85416146
0.83241113
0.80833088
1.0710021
1.0015552
0.94665461
0.90163261
0.8635461
0.83069356
0.80204618
0.7769499
0.75503459
0.73617335
0.72048539
0.70837719
0.70090658
0.70968907
0.72405696
0.74204356
0.76094165
0.77899283
0.79525878
0.80928156
0.82093979
0.83019336
0.83688949
0.8408034
0.84183567
0.84016609
0.83613969
0.82985285
0.8199994
0.80164002
1.1565852
1.1528183
1.147796
1.1418199
1.1351171
1.1278709
1.1202474
1.1124152
1.104573
1.0969723
1.0899766
1.0841357
1.0802799
1.0796642
1.0813328
1.0823883
1.0813148
1.0782488
1.073315
1.0666762
1.0584956
1.0486474
1.0367723
1.0226189
1.0062833
0.988043
0.96799677
0.94628441
0.92363436
0.89834618
1.1585749
1.1584495
1.1582227
1.1578787
1.1574072
1.156802
1.1560617
1.1551907
1.1542015
1.1531208
1.1520003
1.1509356
1.1500669
1.1491091
1.144235
1.13152
1.1156066
1.1011261
1.0868433
1.0720411
1.0563518
1.0385005
1.0175377
0.99394712
0.96930064
0.94543245
0.92312988
0.90219914
0.88185872
0.85954973
1.158618
1.1586139
1.1586043
1.1585861
1.1585558
1.1585095
1.1584431
1.1583522
1.1582329
1.1580814
1.1578942
1.1576596
1.1572208
1.154511
1.135414
1.094468
1.0618754
1.0482953
1.0249527
0.99407992
0.96513475
0.94195936
0.92368154
0.90888163
0.89638234
0.88553445
0.87612495
0.86765105
0.85525259
0.83028526
1.0709692
1.0016244
0.94684864
0.90196353
0.86403845
0.83139342
0.80309109
0.77860978
0.75777172
0.74064031
0.72749736
0.71874844
0.71505632
0.72622749
0.74192744
0.7602384
0.77795713
0.79241512
0.80265215
0.80916811
0.81303383
0.81509846
0.81583195
0.81537803
0.81372639
0.81079781
0.80634265
0.79963173
0.78896781
0.77279279
1.1565847
1.152829
1.1478276
1.1418785
1.1352109
1.1280172
1.1204886
1.1128316
1.105283
1.0981363
1.0917676
1.0866295
1.0832421
1.0823857
1.0834402
1.0843851
1.0827106
1.0776255
1.0700819
1.0614214
1.0524112
1.0431179
1.033396
1.0229874
1.0116156
0.99905822
0.98521889
0.97019552
0.95388518
0.93024495
1.1585749
1.15845
1.1582243
1.157882
1.1574121
1.1568086
1.1560705
1.155204
1.1542233
1.1531562
1.1520488
1.1508756
1.1496529
1.1483009
1.1448882
1.1363775
1.1194123
1.0958817
1.0706173
1.0476768
1.0284704
1.0102651
0.99290469
0.97605377
0.9599927
0.94443469
0.92821919
0.91113696
0.89326685
0.87469927
1.158618
1.1586139
1.1586044
1.1585863
1.158556
1.1585096
1.1584427
1.1583508
1.1582295
1.1580736
1.1578753
1.1575956
1.1569941
1.1542759
1.1434927
1.118486
1.0820438
1.0406438
1.0012219
0.9669103
0.93914994
0.91893233
0.90332425
0.8907758
0.88017799
0.87120473
0.86392201
0.85758925
0.85143199
0.84493567
1.0709335
1.0008732
0.94493336
0.89855565
0.85881161
0.82397868
0.79310548
0.76586887
0.74223818
0.72177602
0.70425286
0.68962826
0.67823153
0.6778435
0.68063984
0.68668908
0.69527621
0.70513686
0.71497694
0.72384036
0.73120301
0.73686978
0.74083834
0.7431827
0.74398618
0.74329537
0.74104556
0.73692888
0.73019166
0.71985044
1.1565816
1.1527537
1.1475556
1.1412489
1.1340271
1.1260459
1.1174443
1.1075621
1.09426
1.0768915
1.0530517
1.0222157
0.98504109
0.9477086
0.91401572
0.88640187
0.86524485
0.8499464
0.83974422
0.83387597
0.83133795
0.8309043
0.83139293
0.83179278
0.83126606
0.82905804
0.82429903
0.81569018
0.80101737
0.77865408
1.1585747
1.1584464
1.1582083
1.1578375
1.1573142
1.1566223
1.1557489
1.154665
1.1532881
1.1515217
1.1490681
1.1408903
1.1200911
1.0863344
1.0448068
1.0013529
0.96146393
0.92764326
0.9005234
0.87993262
0.86517339
0.85514618
0.84858627
0.84427208
0.84113416
0.83825708
0.83478451
0.82970621
0.82134542
0.80740746
1.158618
1.1586137
1.1586035
1.1585835
1.1585488
1.1584935
1.1584109
1.1582923
1.1581249
1.1578894
1.1575375
1.1567455
1.1540873
1.1394159
1.1046563
1.060665
1.0183999
0.98069206
0.94831345
0.92154422
0.9003044
0.88408722
0.87203216
0.86314904
0.85649541
0.85124918
0.84668513
0.84204381
0.83620911
0.82747839
)
;

boundaryField
{
    maxY
    {
        type            calculated;
        value           nonuniform List<scalar> 
300
(
1.1586175
1.1586175
1.1586175
1.1586175
1.1586175
1.1586175
1.1586175
1.1586175
1.1586175
1.1586175
1.1586132
1.1586134
1.1586134
1.1586133
1.1586133
1.1586133
1.1586133
1.1586134
1.1586134
1.1586132
1.158603
1.1586038
1.1586038
1.1586037
1.1586037
1.1586037
1.1586037
1.1586037
1.1586038
1.158603
1.158583
1.1585858
1.1585856
1.1585854
1.1585853
1.1585853
1.1585854
1.1585856
1.1585857
1.1585829
1.1585483
1.1585555
1.1585553
1.1585547
1.1585544
1.1585544
1.1585547
1.1585553
1.1585555
1.1585482
1.158493
1.158509
1.1585089
1.1585076
1.1585069
1.158507
1.1585077
1.158509
1.1585091
1.158493
1.1584101
1.1584418
1.1584423
1.1584396
1.1584381
1.1584383
1.1584398
1.1584425
1.1584422
1.1584104
1.1582908
1.1583493
1.158351
1.1583457
1.1583427
1.1583432
1.1583463
1.1583517
1.1583503
1.1582918
1.1581224
1.1582268
1.1582307
1.1582208
1.1582152
1.1582164
1.1582223
1.1582324
1.158229
1.1581244
1.1578853
1.158069
1.1580774
1.1580593
1.1580482
1.1580517
1.1580625
1.1580809
1.1580731
1.1578889
1.1575346
1.1578681
1.1578861
1.15785
1.1578185
1.1578375
1.1578603
1.1578936
1.1578747
1.1575369
1.1567989
1.1575898
1.1576216
1.1574683
1.1571621
1.1574602
1.1575779
1.1576591
1.1575951
1.156745
1.1545386
1.1569931
1.156695
1.1547058
1.1492096
1.1549819
1.1566201
1.1572203
1.1569936
1.1540868
1.1427942
1.1539943
1.1478171
1.122149
1.0470232
1.1252823
1.1471739
1.1545105
1.1542754
1.1394154
1.1104124
1.1408087
1.1111427
1.0415042
0.98503282
1.0010991
1.0889174
1.1354135
1.1434922
1.1046558
1.0667185
1.1139803
1.0656884
0.99902961
0.97282674
0.97827712
1.0196034
1.0944675
1.1184855
1.0606646
1.0237459
1.0792821
1.039265
0.9951973
0.96682735
0.96954482
0.99940595
1.0618749
1.0820433
1.0183995
0.98447705
1.0377193
1.0366019
0.99520151
0.96068378
0.96322863
0.99982023
1.0482949
1.0406433
0.98069168
0.95033332
0.99709043
1.0114561
0.99055814
0.95272543
0.95734776
1.0032305
1.0249523
1.0012216
0.9483131
0.92213842
0.96219835
0.98085773
0.97375961
0.94251884
0.95126581
0.99022811
0.99407953
0.96690993
0.92154389
0.89998998
0.93522063
0.95435334
0.95484638
0.9319795
0.94182133
0.96889413
0.96513438
0.93914959
0.90030408
0.88327623
0.91537252
0.93354963
0.93747048
0.92152648
0.92954181
0.9464276
0.94195901
0.918932
0.88408691
0.87096507
0.89983806
0.91687617
0.92187608
0.91162335
0.91706145
0.9297793
0.92368121
0.90332393
0.87203186
0.86193868
0.88710518
0.90301717
0.90758458
0.90322334
0.90502324
0.9149648
0.90888131
0.89077549
0.86314875
0.85519053
0.87659593
0.89129369
0.89365464
0.89649818
0.89381399
0.90088671
0.89638203
0.88017768
0.85649512
0.84987595
0.86843287
0.88142742
0.87682339
0.88510176
0.88304543
0.88575513
0.88553414
0.87120443
0.8512489
0.84526064
0.8617805
0.87299937
0.85851028
0.86656129
0.87243688
0.86932611
0.87612465
0.86392171
0.84668485
0.84058911
0.85594469
0.8651418
0.83998009
0.8402855
0.85795434
0.85416117
0.86765076
0.85758896
0.84204353
0.83473836
0.85014956
0.84824282
0.81830909
0.80551058
0.82985635
0.83241086
0.8552523
0.85143171
0.83620884
0.82597192
0.8422939
0.81777381
0.79383239
0.76453138
0.79610147
0.80833062
0.83028499
0.84493539
0.82747813
)
;
    }
    minX
    {
        type            calculated;
        value           nonuniform List<scalar> 
40
(
1.1586222
1.1586212
1.1586201
1.1586191
1.1586222
1.1586212
1.1586201
1.1586191
1.1586222
1.1586212
1.1586201
1.1586191
1.1586222
1.1586212
1.1586201
1.1586191
1.1586222
1.1586212
1.1586201
1.1586191
1.1586222
1.1586212
1.1586201
1.1586191
1.1586222
1.1586212
1.1586201
1.1586191
1.1586222
1.1586212
1.1586201
1.1586191
1.1586222
1.1586212
1.1586201
1.1586191
1.1586222
1.1586212
1.1586201
1.1586191
)
;
    }
    maxX
    {
        type            calculated;
        value           nonuniform List<scalar> 
40
(
0.71714335
0.77520538
0.80490317
0.82603952
0.7701432
0.91937443
0.86922744
0.84241435
0.79241422
0.88074353
0.84388366
0.81815045
0.69258447
0.81336118
0.81108815
0.79486842
0.639114
0.6957858
0.74341184
0.76546644
0.64901299
0.74972887
0.79654863
0.79633298
0.70595608
0.84698056
0.83919092
0.8088762
0.80178354
0.89805498
0.85924757
0.83019722
0.7727913
0.93006122
0.87445652
0.84483456
0.7198169
0.77855464
0.80732754
0.82741021
)
;
    }
    minZ
    {
        type            calculated;
        value           nonuniform List<scalar> 
120
(
1.0710643
1.1565849
1.1585748
1.158618
1.0010955
1.1527633
1.1584467
1.1586138
0.94522392
1.1475738
1.158209
1.1586035
0.8989021
1.1412775
1.1578386
1.1585835
0.85920375
1.1340673
1.1573159
1.1585488
0.82440283
1.126097
1.1566243
1.1584935
0.79353034
1.1175069
1.1557508
1.1584106
0.7662414
1.1078083
1.1546703
1.1582913
0.74254551
1.0946849
1.1532999
1.1581229
0.72201074
1.0776045
1.151547
1.1578858
0.70441722
1.0543791
1.1491579
1.1575351
0.68974218
1.0242051
1.1420876
1.1567994
0.67835681
0.98782757
1.1236179
1.1545391
0.67809834
0.95103623
1.0917584
1.1427947
0.68114793
0.91729749
1.0512938
1.1104129
0.68748794
0.88897182
1.007903
1.066719
0.69628337
0.86666135
0.9671107
1.0237463
0.70622126
0.8501775
0.93171852
0.98447743
0.71603156
0.83908026
0.90295539
0.95033367
0.7248097
0.83268124
0.88102469
0.92213875
0.7320628
0.82983677
0.86531786
0.8999903
0.7376028
0.829157
0.85465458
0.88327654
0.74140948
0.8293412
0.84764273
0.87096537
0.74352933
0.82933788
0.8429594
0.86193897
0.74402464
0.82833933
0.83948143
0.85519081
0.74292774
0.82564194
0.83627726
0.84987623
0.740179
0.82045189
0.83250951
0.84526092
0.73551478
0.81161471
0.8272154
0.84058939
0.72820234
0.79704511
0.81875332
0.83473863
0.71712815
0.77517399
0.80483694
0.82597219
)
;
    }
    maxZ
    {
        type            calculated;
        value           nonuniform List<scalar> 
120
(
1.0709335
1.1565816
1.1585747
1.158618
1.0008732
1.1527537
1.1584464
1.1586137
0.94493336
1.1475556
1.1582083
1.1586035
0.89855565
1.1412489
1.1578375
1.1585835
0.85881161
1.1340271
1.1573142
1.1585488
0.82397868
1.1260459
1.1566223
1.1584935
0.79310548
1.1174443
1.1557489
1.1584109
0.76586887
1.1075621
1.154665
1.1582923
0.74223818
1.09426
1.1532881
1.1581249
0.72177602
1.0768915
1.1515217
1.1578894
0.70425286
1.0530517
1.1490681
1.1575375
0.68962826
1.0222157
1.1408903
1.1567455
0.67823153
0.98504109
1.1200911
1.1540873
0.6778435
0.9477086
1.0863344
1.1394159
0.68063984
0.91401572
1.0448068
1.1046563
0.68668908
0.88640187
1.0013529
1.060665
0.69527621
0.86524485
0.96146393
1.0183999
0.70513686
0.8499464
0.92764326
0.98069206
0.71497694
0.83974422
0.9005234
0.94831345
0.72384036
0.83387597
0.87993262
0.92154422
0.73120301
0.83133795
0.86517339
0.9003044
0.73686978
0.8309043
0.85514618
0.88408722
0.74083834
0.83139293
0.84858627
0.87203216
0.7431827
0.83179278
0.84427208
0.86314904
0.74398618
0.83126606
0.84113416
0.85649541
0.74329537
0.82905804
0.83825708
0.85124918
0.74104556
0.82429903
0.83478451
0.84668513
0.73692888
0.81569018
0.82970621
0.84204381
0.73019166
0.80101737
0.82134542
0.83620911
0.71985044
0.77865408
0.80740746
0.82747839
)
;
    }
    topAir_to_rightSolid
    {
        type            calculated;
        value           nonuniform List<scalar> 
130
(
0.46129762
0.45646115
0.45152396
0.44673539
0.44226849
0.43822672
0.434661
0.43160459
0.42906751
0.42705056
0.42554535
0.42454443
0.42404315
0.46494311
0.45921171
0.45351391
0.4481326
0.44322697
0.43886959
0.43508985
0.43189071
0.42926032
0.42718079
0.42563732
0.42461587
0.42410615
0.47240073
0.46455253
0.45719489
0.45060897
0.44486293
0.43993827
0.43578442
0.43233866
0.42954979
0.42736968
0.42576344
0.42470504
0.42417787
0.48394476
0.47195023
0.46184157
0.4535087
0.44667039
0.4410625
0.43648249
0.43276888
0.42981036
0.42752304
0.42584928
0.42474948
0.42420145
0.49829417
0.47915823
0.46570861
0.45568823
0.44794182
0.44181967
0.43693456
0.43303532
0.42995791
0.42759423
0.42587632
0.42475397
0.42419781
0.49825587
0.47913195
0.46569159
0.45567671
0.44793285
0.44181094
0.43692471
0.43302088
0.42993655
0.42757352
0.42585642
0.42473548
0.42418053
0.48386792
0.4718831
0.4617885
0.45346866
0.44663575
0.44103077
0.43644873
0.43272883
0.42975832
0.42746531
0.42579061
0.42469147
0.42414634
0.47232764
0.46448526
0.45713153
0.45055058
0.4448092
0.43988666
0.43573002
0.43227448
0.42947471
0.42728809
0.42567874
0.42461943
0.42409269
0.46490191
0.45915882
0.45345841
0.44807646
0.44316566
0.4388049
0.43502024
0.43180996
0.42916932
0.42708392
0.42553603
0.42451191
0.42400081
0.46128941
0.4564278
0.45147656
0.44667652
0.44219771
0.43814608
0.43457741
0.43151418
0.42896941
0.42694418
0.42543274
0.42442823
0.42392597
)
;
    }
    topAir_to_heater
    {
        type            calculated;
        value           nonuniform List<scalar> 
40
(
0.4733715
0.47200387
0.469381
0.46571713
0.47953266
0.47789559
0.47473337
0.47028348
0.49300466
0.49078207
0.48638456
0.48005106
0.51656548
0.51350999
0.50706902
0.49701696
0.55529838
0.55209266
0.54387248
0.52801863
0.55528955
0.55207858
0.54385044
0.52798571
0.51651873
0.51346564
0.50701542
0.49694684
0.49297595
0.49075014
0.48633557
0.47998425
0.47950796
0.47788344
0.47472177
0.47026056
0.47336997
0.47202087
0.46940829
0.46573702
)
;
    }
    topAir_to_leftSolid
    {
        type            calculated;
        value           nonuniform List<scalar> 
130
(
0.38498634
0.38500826
0.38505465
0.3851241
0.38520228
0.38528248
0.3853663
0.38545198
0.38553785
0.38562528
0.3857074
0.38576962
0.38581267
0.38498713
0.38500612
0.3850484
0.38511372
0.38518761
0.38526711
0.38535695
0.38545368
0.38555227
0.38565422
0.38573754
0.38580134
0.38584614
0.38497476
0.38499211
0.38503224
0.3850954
0.38516737
0.38525022
0.38534828
0.38545488
0.38556948
0.3856761
0.3857676
0.38584121
0.38589849
0.3849376
0.38495574
0.38499781
0.3850651
0.38514807
0.3852396
0.38534236
0.38545981
0.38559001
0.38570762
0.38580975
0.38589282
0.3859548
0.38488109
0.3849022
0.38495056
0.38502582
0.38512115
0.38522693
0.38534075
0.38546732
0.38560327
0.38573552
0.3858584
0.38595919
0.38602685
0.3848191
0.38484494
0.38490138
0.3849862
0.38509188
0.38521468
0.38534673
0.38548413
0.38562651
0.38577381
0.38592028
0.38603207
0.38610199
0.38475681
0.38478333
0.3848406
0.38492689
0.38504105
0.38517211
0.38531153
0.38546104
0.38561986
0.38578388
0.38594091
0.38605768
0.38612323
0.38469046
0.38471517
0.3847687
0.38485154
0.3849611
0.3850892
0.38523006
0.38538275
0.38554382
0.38570938
0.38587458
0.38599237
0.38605355
0.38461816
0.38464223
0.38469428
0.38477376
0.38487825
0.38500313
0.38514427
0.38530272
0.38547092
0.38562958
0.38577575
0.38587935
0.38593411
0.38456918
0.38459187
0.38464136
0.3847179
0.38482102
0.38494899
0.38509053
0.38525166
0.38542604
0.38557975
0.38571013
0.38580875
0.38586025
)
;
    }
}


// ************************************************************************* //
