/*--------------------------------*- C++ -*----------------------------------*\
| =========                 |                                                 |
| \\      /  F ield         | OpenFOAM: The Open Source CFD Toolbox           |
|  \\    /   O peration     | Version:  v2012                                 |
|   \\  /    A nd           | Website:  www.openfoam.com                      |
|    \\/     M anipulation  |                                                 |
\*---------------------------------------------------------------------------*/
FoamFile
{
    version     2.0;
    format      ascii;
    class       volScalarField;
    location    "480/topAir";
    object      T;
}
// * * * * * * * * * * * * * * * * * * * * * * * * * * * * * * * * * * * * * //

dimensions      [0 0 0 1 0 0 0];


internalField   nonuniform List<scalar> 
1200
(
324.52453
347.20627
367.72941
386.67907
404.54505
421.6223
438.0256
453.62545
468.1014
481.41471
493.4385
503.93695
512.39489
512.59018
510.29523
505.58928
499.20268
492.17793
485.43463
479.55555
474.80423
471.23805
468.81853
467.4819
467.17068
467.86043
469.59788
472.5758
477.32129
484.69229
300.52818
301.52447
302.88801
304.55901
306.49535
308.66466
311.03733
313.76036
317.52183
322.55465
329.65975
339.37181
351.86943
365.48168
378.9243
390.99811
401.06356
408.83967
414.24676
417.43018
418.86102
419.20441
419.1113
419.11298
419.61821
420.9891
423.65221
428.2651
436.09358
448.39773
300.01174
300.04492
300.10649
300.20249
300.33808
300.51766
300.7448
301.02621
301.38391
301.84268
302.47021
304.34271
309.34539
318.37266
330.62692
344.86058
359.40665
373.05904
384.94262
394.52472
401.68594
406.69766
410.06194
412.34016
414.04849
415.6349
417.51598
420.18804
424.53082
431.87136
300.00028
300.00138
300.00402
300.00921
300.0182
300.03252
300.05399
300.08488
300.12853
300.18998
300.28093
300.4719
301.06015
304.15411
313.02384
325.84565
339.52332
353.06624
365.75129
376.93435
386.21059
393.51865
399.08107
403.26033
406.44239
408.98402
411.21717
413.50249
416.40076
420.82022
324.51829
346.95534
367.00057
385.23944
402.12572
417.89545
432.6101
446.20517
458.47438
469.08428
477.54728
483.26174
485.43452
477.29996
466.37512
454.57792
444.13461
436.29555
431.11919
427.97552
426.15953
425.20809
424.92568
425.29161
426.35003
428.17731
430.9106
434.88657
441.12091
451.31667
300.52746
301.5051
302.81691
304.39223
306.17749
308.12754
310.19584
312.32844
314.45833
316.49875
318.32702
319.7844
320.67783
320.76194
320.34115
320.16185
320.93956
322.78999
325.36493
328.26825
331.34334
334.61195
338.16007
342.08655
346.47071
351.35842
356.75097
362.59773
369.09225
378.06516
300.0117
300.04399
300.10237
300.191
300.31276
300.46941
300.66136
300.88721
301.1434
301.42249
301.71145
302.00913
302.31182
302.6695
303.79411
306.57837
311.74716
318.78506
326.43503
333.42421
339.75679
345.95702
352.05585
358.09859
364.12392
370.44098
377.22319
384.30846
391.74941
399.90662
300.00028
300.00134
300.00381
300.00849
300.01633
300.02837
300.04577
300.06972
300.10147
300.14237
300.19444
300.26661
300.42147
301.20215
304.68348
312.0213
322.05257
334.95145
348.59986
361.24111
371.66161
379.7204
386.27575
391.82009
396.51751
400.24469
403.33432
406.08425
408.85237
412.66553
324.51639
346.99534
367.10015
385.41481
402.40102
418.30641
433.23691
447.21909
460.17969
471.91606
482.04593
489.91705
494.35339
487.20957
477.17558
466.4156
456.31961
447.18579
439.02537
431.85703
425.71265
420.733
417.15818
415.18328
414.84108
415.98586
418.41399
422.10277
428.14442
438.65956
300.52751
301.5084
302.82623
304.40949
306.20521
308.1706
310.2654
312.44591
314.65603
316.81453
318.79487
320.39159
321.30942
321.3105
321.08255
321.34637
322.17072
323.40919
325.08353
327.23718
329.96268
333.44187
337.85416
343.25911
349.58354
356.70833
364.58187
373.10606
382.73094
394.63894
300.0117
300.04413
300.10284
300.1919
300.31413
300.47121
300.66364
300.89036
301.14797
301.42873
301.71606
301.97907
302.19621
302.79218
305.34352
309.64078
313.90397
317.56071
321.41129
325.69509
330.77588
337.16568
345.05275
354.17322
364.00656
373.73302
382.64668
390.68776
399.91438
411.92521
300.00028
300.00134
300.00383
300.00853
300.01638
300.02839
300.04565
300.0693
300.10046
300.14019
300.18977
300.25837
300.49888
302.82313
312.81811
326.16061
334.45326
335.31251
343.64869
354.36902
364.2106
372.32687
379.09767
384.91586
389.97879
394.34404
398.1511
401.76728
409.77143
425.0389
324.5197
347.01665
367.16155
385.54485
402.64606
418.74672
434.0042
448.50578
462.27155
475.24116
487.17468
497.48052
504.97247
501.4908
498.70738
498.29767
499.73417
501.69599
503.19069
503.57686
502.49191
500.05637
496.69053
492.8227
488.83248
485.43851
484.20178
486.90892
492.44745
502.17574
300.52762
301.50991
302.83203
304.42395
306.23514
308.22734
310.36785
312.6241
314.95513
317.29408
319.51287
321.36481
322.5142
323.16739
324.34616
325.98696
327.86391
329.83584
331.91332
334.23164
337.04435
340.61377
345.06141
350.31079
356.23248
362.83375
370.15078
378.31387
396.01918
427.30693
300.01171
300.0442
300.10315
300.19282
300.31624
300.47553
300.67185
300.90516
301.17335
301.46943
301.77496
302.05081
302.35365
304.33717
308.96465
312.55637
315.00249
317.13606
319.94372
324.09429
329.97359
337.77804
347.28141
357.94414
369.42062
381.28471
392.15853
401.58061
411.48719
428.58968
300.00028
300.00135
300.00384
300.00859
300.01652
300.02872
300.04634
300.07066
300.10301
300.14488
300.19912
300.29812
301.01657
309.74993
333.7342
347.92321
349.26299
349.26151
350.89873
356.95216
364.02255
370.76967
377.04159
382.97878
388.94852
396.41467
404.87071
413.80228
424.76088
437.8578
324.52429
347.03019
367.18891
385.5906
402.71561
418.84704
434.14281
448.687
462.49518
475.45393
487.19286
496.87785
503.41711
499.34872
498.05737
499.81709
502.11122
505.53336
509.59071
513.9127
518.16417
522.03704
525.2777
527.71358
529.29055
530.17016
530.89388
532.45533
536.25265
544.08226
300.52774
301.51074
302.83477
304.4302
306.24692
308.24728
310.39907
312.66949
315.0144
317.3541
319.5208
321.19479
322.13302
323.46815
325.29538
327.43922
331.76163
337.90311
345.71719
355.07073
365.78964
377.7518
390.83748
404.7947
419.20966
433.6418
448.10931
463.12661
479.60568
499.85092
300.01171
300.04424
300.10331
300.19327
300.31726
300.47753
300.67539
300.91098
301.1819
301.47966
301.77971
302.03906
302.6189
307.21594
310.80288
313.06185
314.58441
316.7377
319.8201
323.97631
330.01308
338.44745
348.9795
360.84771
374.25079
388.77291
404.48088
421.95455
442.32794
467.79463
300.00028
300.00135
300.00385
300.00862
300.0166
300.0289
300.04673
300.07143
300.10448
300.14775
300.20729
300.3776
302.4562
331.97505
352.86702
357.29445
359.51154
361.81062
364.83292
368.78373
372.95415
377.18463
381.28207
384.82801
387.71484
392.707
401.10916
413.65189
431.50981
454.63896
324.53017
347.04113
367.20383
385.60851
402.73584
418.86945
434.17106
448.73303
462.58801
475.67683
487.76069
498.22981
505.78042
500.40672
496.42775
495.62609
497.62855
501.40933
505.71523
510.17543
514.4577
518.25474
521.30328
523.41742
524.53127
524.80357
524.78855
525.56235
528.65741
535.60469
300.52786
301.5111
302.83542
304.43116
306.24825
308.24915
310.40233
312.67703
315.035
317.41266
319.68263
321.59005
322.7619
323.31168
324.62781
326.41429
328.44805
331.22996
334.74359
338.22303
341.20668
343.88414
347.28878
352.81252
361.41536
373.45582
389.04034
408.26264
432.1089
462.96975
300.01171
300.04425
300.10333
300.19331
300.31731
300.47757
300.67543
300.91116
301.18302
301.48464
301.79794
302.0821
302.37255
304.28971
309.58594
313.28264
315.4954
317.04035
318.99238
322.34417
328.05678
336.71556
347.85463
359.70835
369.97074
377.59555
383.81951
394.0745
410.87911
436.08154
300.00028
300.00135
300.00385
300.00862
300.0166
300.02889
300.04669
300.0713
300.10416
300.14686
300.20237
300.30023
300.9446
308.88744
347.20399
355.30382
358.50389
360.85472
363.07141
365.39273
369.05685
373.93221
379.02109
384.06267
388.87917
393.62148
398.4078
405.13306
418.85042
436.6098
324.53688
347.04909
367.20706
385.60167
402.71215
418.82028
434.08553
448.60072
462.40828
475.48141
487.67112
498.57111
507.11969
504.04322
499.99265
497.43457
496.82378
497.23211
497.47814
496.80431
494.87548
491.72981
487.68413
483.18312
478.63537
474.61742
472.27055
473.85594
482.24132
492.40675
300.528
301.51097
302.83398
304.42691
306.23922
308.23275
310.37535
312.63606
314.97858
317.34911
319.64922
321.68669
323.1281
323.63849
324.19801
325.39558
326.96543
328.6522
330.3806
332.22427
334.35033
336.99773
340.43503
344.88944
350.49122
357.33026
365.16651
373.19057
383.32038
410.27335
300.01172
300.04423
300.10322
300.19293
300.31639
300.47571
300.67206
300.9055
301.17436
301.4734
301.78907
302.08996
302.3423
302.98309
306.52534
311.34993
314.89209
317.52207
320.30866
323.9701
329.11208
336.22265
345.28182
355.61647
366.50401
377.86567
388.21636
395.42032
402.73847
414.13236
300.00028
300.00135
300.00385
300.00859
300.01652
300.02871
300.04629
300.07051
300.10265
300.14405
300.19645
300.26969
300.51835
302.99293
319.20289
340.90273
347.79219
347.64808
346.46632
351.01568
358.74467
367.26065
373.8367
379.88962
385.82614
392.41731
399.83345
406.93218
417.56504
430.00435
324.54339
347.04692
367.17366
385.50805
402.51079
418.42941
433.37481
447.37325
460.35851
472.15318
482.43391
490.68008
495.90999
489.77304
480.05417
468.418
456.78477
446.19994
437.07351
429.50014
423.40077
418.68142
415.33146
413.39809
412.89117
413.71166
415.70387
418.85317
423.88626
433.59421
300.52809
301.51008
302.82937
304.41433
306.21188
308.1792
310.27642
312.46097
314.67938
316.85971
318.89338
320.61146
321.75581
321.93928
321.44251
321.12903
321.44785
322.36187
323.8437
325.85924
328.37764
331.46155
335.25807
339.89815
345.41592
351.79265
359.07791
367.31689
376.3245
386.9179
300.01172
300.04418
300.10295
300.19209
300.31439
300.47151
300.66392
300.89062
301.14849
301.43073
301.72391
302.00304
302.23114
302.48304
303.77154
307.18505
311.56682
315.66413
319.81244
324.22825
329.0438
334.69988
341.59521
349.70271
358.59463
367.64763
376.5299
385.26528
394.15157
404.38148
300.00028
300.00134
300.00383
300.00854
300.01638
300.02837
300.04558
300.06911
300.10001
300.13927
300.18782
300.24864
300.36249
301.06748
306.13126
317.58418
327.33193
331.57233
339.12366
349.65572
360.14218
369.0029
376.30474
382.43236
387.76506
392.51523
396.73082
400.60549
406.41301
418.63417
324.55335
347.02293
367.09842
385.36661
402.28143
418.07718
432.81094
446.41952
458.69566
469.30552
477.78398
483.59977
486.09678
478.6194
468.49132
457.20731
446.79397
438.64199
433.04754
429.56035
427.51792
426.43502
426.05162
426.28879
427.15404
428.69689
431.06549
434.68321
440.5585
449.77966
300.52822
301.50729
302.82105
304.39872
306.18658
308.13923
310.20961
312.34406
314.47724
316.52386
318.37026
319.87566
320.87594
321.12981
320.81725
320.53771
321.03344
322.54832
324.82213
327.47246
330.27611
333.21858
336.35341
339.77571
343.59519
347.91391
352.80104
358.26411
364.39
373.65019
300.01172
300.04405
300.10251
300.19125
300.31311
300.4698
300.66163
300.88714
301.14279
301.42147
301.71119
302.01876
302.33999
302.69596
303.59821
305.87196
310.50757
317.17476
324.65942
331.76833
337.96401
344.05422
350.06984
356.11356
362.07149
368.03602
374.46542
381.48599
389.11774
397.37769
300.00028
300.00134
300.00381
300.0085
300.01633
300.02835
300.04568
300.06947
300.10091
300.1413
300.19272
300.26524
300.42134
301.1288
303.96846
310.76447
321.23073
334.01029
347.16151
359.48084
370.10675
378.24955
384.78514
390.20565
394.90394
398.97139
402.33466
405.30565
408.23668
411.37542
324.56417
347.28339
367.84249
386.82816
404.72976
421.83933
438.26025
453.8461
468.29522
481.57126
493.55366
504.02019
512.48953
512.78289
510.67616
506.17746
499.92581
492.93484
486.15067
480.19775
475.36253
471.70683
469.17997
467.69993
467.19483
467.62903
469.04874
471.66896
476.02088
482.8593
300.52904
301.52698
302.89281
304.56665
306.5062
308.67867
311.05473
313.83012
317.64511
322.7682
330.07529
340.03226
352.8648
366.76497
380.28483
392.13173
401.72015
408.95083
413.91923
416.83211
418.10466
418.32287
418.07701
417.87603
418.14081
419.25443
421.67495
426.12534
433.93098
446.39367
300.01176
300.04499
300.10666
300.20279
300.33852
300.51818
300.74528
301.0276
301.38698
301.84932
302.49385
304.66211
310.31942
319.96229
332.67971
347.1164
361.51748
374.69793
385.98221
395.01435
401.75301
406.46386
409.60599
411.69905
413.23493
414.65324
416.37813
418.92661
423.19103
430.49641
300.00028
300.00138
300.00403
300.00922
300.01821
300.0325
300.0539
300.08464
300.12801
300.18904
300.28032
300.48591
301.17802
305.05605
314.65509
327.70547
341.30576
354.42905
366.53046
377.17753
386.07584
393.1578
398.59286
402.69499
405.8233
408.32438
410.52545
412.78826
415.66851
420.05422
)
;

boundaryField
{
    maxY
    {
        type            zeroGradient;
    }
    minX
    {
        type            fixedValue;
        value           uniform 300;
    }
    maxX
    {
        type            inletOutlet;
        inletValue      uniform 300;
        value           nonuniform List<scalar> 
40
(
484.68204
448.37958
431.83582
420.7859
451.32708
378.06812
399.87919
412.60665
438.6424
394.65086
411.88852
424.84336
501.86876
427.3455
428.54284
437.28724
543.85686
499.55938
467.55522
454.08373
535.56174
463.61598
436.36511
436.48301
492.36279
410.38276
414.1918
429.71446
433.51659
387.04332
404.52367
418.67856
449.78053
373.72396
397.48799
411.42464
482.88183
446.4507
430.53904
420.08882
)
;
    }
    minZ
    {
        type            zeroGradient;
    }
    maxZ
    {
        type            zeroGradient;
    }
    topAir_to_rightSolid
    {
        type            compressible::turbulentTemperatureCoupledBaffleMixed;
        refValue        nonuniform List<scalar> 
130
(
753.58152
761.57
769.90097
778.15674
786.0188
793.27043
799.77963
805.44443
810.20769
814.03442
816.91333
818.83814
819.80394
747.68971
757.025
766.53875
775.7458
784.33356
792.12236
799.00479
804.92391
809.8565
813.79868
816.74892
818.71199
819.69285
735.88049
748.31758
760.36483
771.48201
781.45016
790.20035
797.73435
804.09349
809.31458
813.44295
816.51106
818.54424
819.5583
718.3058
736.56502
752.69017
766.52359
778.26196
788.16029
796.43337
803.27025
808.80156
813.13001
816.32566
818.43798
819.49243
697.6148
725.48032
746.43545
762.85148
776.04535
786.80003
795.59788
802.76279
808.50946
812.9795
816.25912
818.41522
819.48599
697.66976
725.52136
746.46393
762.87197
776.0621
786.81686
795.61719
802.79109
808.55135
813.02083
816.29943
818.45323
819.52203
718.4213
736.67163
752.7788
766.59365
778.32491
788.2198
796.49798
803.34776
808.90289
813.24357
816.44226
818.55299
819.60197
735.99469
748.42659
760.47098
771.58274
781.54523
790.29366
797.83454
804.21354
809.45684
813.5992
816.67462
818.71069
819.7246
747.75521
757.11159
766.63206
775.84256
784.44169
792.23878
799.13234
805.0742
810.02807
813.98322
816.94342
818.9127
819.89703
753.59469
761.62542
769.9816
778.25914
786.14447
793.41633
799.93342
805.6132
810.39307
814.23746
817.12988
819.06277
820.03117
)
;
        refGradient     uniform 0;
        valueFraction   uniform 0.99967867;
        value           nonuniform List<scalar> 
130
(
753.49752
761.48126
769.80767
778.05926
785.91764
793.16617
799.67285
805.33573
810.09768
813.92374
816.80268
818.7284
819.69626
747.58965
756.92027
766.42995
775.63346
784.21816
792.00436
798.8847
804.80226
809.73386
813.67566
816.62622
818.59067
819.57448
735.78772
748.21819
760.25926
771.3709
781.33425
790.08048
797.61143
803.96842
809.1882
813.31603
816.38434
818.4188
819.4359
718.23618
736.49001
752.6101
766.4387
778.1725
788.06656
796.33574
803.16913
808.69756
813.02422
816.21971
818.33314
819.39037
697.55308
725.41095
746.36074
762.77286
775.96372
786.71598
795.51178
802.67489
808.41998
812.88881
816.16787
818.32448
819.39742
697.60671
725.45074
746.38802
762.79216
775.97928
786.73156
795.52974
802.70169
808.46018
812.92821
816.20601
818.36011
819.43078
718.35024
736.59479
752.69659
766.50638
778.23286
788.12327
796.39734
803.24346
808.7955
813.13402
816.33219
818.44491
819.49682
735.90159
748.32656
760.36464
771.47088
781.42864
790.17319
797.71102
804.0878
809.32967
813.47134
816.54678
818.58381
819.6005
747.6559
757.00746
766.52376
775.73064
784.32666
792.12112
799.01254
804.95277
809.90555
813.86019
816.8206
818.79113
819.7781
753.51094
761.53691
769.8885
778.16181
786.04344
793.31215
799.82667
805.50446
810.28294
814.12655
817.01888
818.95255
819.92283
)
;
        Tnbr            T;
        thicknessLayers List<scalar> 0();
        kappaLayers     List<scalar> 0();
        kappaMethod     fluidThermo;
        kappa           none;
        alphaAni        none;
        alpha           none;
        field           T;
    }
    topAir_to_heater
    {
        type            compressible::turbulentTemperatureCoupledBaffleMixed;
        refValue        nonuniform List<scalar> 
40
(
734.35002
736.479
740.59681
746.42652
724.92418
727.4115
732.26161
739.19511
705.1073
708.30444
714.71321
724.14792
672.93525
676.94121
685.54211
699.40981
625.98644
629.62257
639.14062
658.335
625.99606
629.63915
639.16788
658.3775
672.99535
676.99926
685.61485
699.50943
705.14754
708.34959
714.78457
724.24857
724.96111
727.42932
732.27866
739.23027
734.35234
736.45235
740.55356
746.39441
)
;
        refGradient     uniform 0;
        valueFraction   uniform 0.99967867;
        value           nonuniform List<scalar> 
40
(
734.27876
736.40632
740.52129
746.34708
724.84462
727.32762
732.17238
739.10029
705.03728
708.23017
714.63342
724.06185
672.88016
676.88393
685.48193
699.34564
625.94575
629.58029
639.09585
658.2848
625.95571
629.59635
639.12177
658.32586
672.94106
676.94239
685.5544
699.44432
705.07834
708.27624
714.70542
724.16265
724.88196
727.34613
732.19028
739.13631
734.28114
736.3798
740.47825
746.31522
)
;
        Tnbr            T;
        thicknessLayers List<scalar> 0();
        kappaLayers     List<scalar> 0();
        kappaMethod     fluidThermo;
        kappa           none;
        alphaAni        none;
        alpha           none;
        field           T;
    }
    topAir_to_leftSolid
    {
        type            compressible::turbulentTemperatureCoupledBaffleMixed;
        refValue        nonuniform List<scalar> 
130
(
903.04077
902.98202
902.86659
902.69762
902.50861
902.3152
902.1136
901.908
901.70242
901.49363
901.29778
901.14899
901.04567
903.03893
902.98713
902.88148
902.72241
902.54376
902.35241
902.13724
901.90643
901.6718
901.42996
901.23247
901.08155
900.97621
903.06794
903.01997
902.91935
902.76532
902.59111
902.39183
902.15733
901.90329
901.631
901.37791
901.16079
900.98629
900.85109
903.15513
903.1053
903.00009
902.83632
902.63627
902.41659
902.17097
901.89134
901.58232
901.30316
901.06066
900.86334
900.71621
903.28776
903.23093
903.11093
902.92841
902.69934
902.44622
902.17469
901.87371
901.55122
901.2379
900.94704
900.70859
900.54858
903.43327
903.36534
903.22632
903.02135
902.76796
902.47493
902.16068
901.83437
901.49686
901.14836
900.80237
900.53807
900.37252
903.57955
903.50998
903.36899
903.16051
902.88718
902.5747
902.24314
901.88842
901.51247
901.12489
900.75423
900.47822
900.32256
903.73541
903.67008
903.53784
903.3374
903.07477
902.76919
902.4342
902.07206
901.69096
901.30003
900.91079
900.63316
900.4887
903.9053
903.84148
903.71267
903.52006
903.26927
902.97115
902.63542
902.25978
901.86203
901.4875
901.14311
900.89925
900.77058
904.02046
903.95977
903.83678
903.6508
903.40284
903.09693
902.75966
902.37698
901.96397
901.60006
901.29135
901.05754
900.93452
)
;
        refGradient     uniform 0;
        valueFraction   uniform 0.99967867;
        value           nonuniform List<scalar> 
130
(
902.85488
902.80343
902.69464
902.53181
902.34861
902.16074
901.96447
901.76395
901.56309
901.35865
901.16673
901.02135
900.92079
902.85304
902.80846
902.70929
902.55613
902.38296
902.19674
901.98637
901.76
901.52939
901.29103
901.09633
900.9473
900.84269
902.88203
902.84131
902.74718
902.59908
902.43039
902.23628
902.00666
901.75719
901.48915
901.23991
901.02611
900.8542
900.72047
902.9692
902.92662
902.82791
902.67011
902.47561
902.26117
902.02054
901.74566
901.44115
901.16626
900.92767
900.73372
900.58904
903.10178
903.05221
902.93872
902.76218
902.53869
902.29083
902.0243
901.72809
901.41014
901.10108
900.81409
900.57883
900.42097
903.24725
903.18657
903.05408
902.85509
902.60729
902.31954
902.01031
901.68877
901.35583
901.01164
900.66965
900.4088
900.24573
903.39349
903.33117
903.1967
902.9942
902.72646
902.41926
902.09271
901.74277
901.37137
900.98812
900.6215
900.34907
900.19621
903.5493
903.49122
903.36549
903.17101
902.91392
902.61356
902.28347
901.92595
901.54915
901.16214
900.77632
900.50143
900.3587
903.71914
903.66256
903.54024
903.35357
903.10829
902.81534
902.48445
902.11331
901.71963
901.34863
901.00708
900.76517
900.63734
903.83427
903.7809
903.66455
903.48473
903.24261
902.94229
902.6104
902.23285
901.82462
901.46509
901.16033
900.92996
900.8097
)
;
        Tnbr            T;
        thicknessLayers List<scalar> 0();
        kappaLayers     List<scalar> 0();
        kappaMethod     fluidThermo;
        kappa           none;
        alphaAni        none;
        alpha           none;
        field           T;
    }
}


// ************************************************************************* //
