/*--------------------------------*- C++ -*----------------------------------*\
| =========                 |                                                 |
| \\      /  F ield         | OpenFOAM: The Open Source CFD Toolbox           |
|  \\    /   O peration     | Version:  v2012                                 |
|   \\  /    A nd           | Website:  www.openfoam.com                      |
|    \\/     M anipulation  |                                                 |
\*---------------------------------------------------------------------------*/
FoamFile
{
    version     2.0;
    format      ascii;
    class       volVectorField;
    location    "480/topAir";
    object      U;
}
// * * * * * * * * * * * * * * * * * * * * * * * * * * * * * * * * * * * * * //

dimensions      [0 1 -1 0 0 0 0];


internalField   nonuniform List<vector> 
1200
(
(0.10446715 -0.002424619 0.00087567616)
(0.11795309 -0.002514002 0.0013149745)
(0.12953807 -0.0023085062 0.0013968345)
(0.1385691 -0.0017680075 0.0012615625)
(0.14644852 -0.0009545068 0.00092343965)
(0.15380746 -3.7464059e-05 0.00034200065)
(0.16089463 0.00088660315 -0.00051273663)
(0.16798121 0.0017436479 -0.0017826595)
(0.17525298 0.0026262046 -0.0037333398)
(0.18301103 0.0037100278 -0.0066722367)
(0.19144543 0.0053116935 -0.010996509)
(0.20028084 0.0077979008 -0.01711982)
(0.20811539 0.011559727 -0.025309271)
(0.21343866 0.016073108 -0.035418146)
(0.21618724 0.021182799 -0.046662633)
(0.21679709 0.026186102 -0.057833834)
(0.21539557 0.030491313 -0.06775704)
(0.21215168 0.033781711 -0.075712614)
(0.20758779 0.035916441 -0.081503386)
(0.20256829 0.036873098 -0.085287785)
(0.19802447 0.03679746 -0.087377836)
(0.1946342 0.035961425 -0.088102517)
(0.19268665 0.034645977 -0.087741378)
(0.19213469 0.033087419 -0.086507913)
(0.1926892 0.031486943 -0.084535208)
(0.19380931 0.030084875 -0.081819251)
(0.1944877 0.029286389 -0.078131188)
(0.19278675 0.02992055 -0.072918504)
(0.18524197 0.033969745 -0.065198099)
(0.1441588 0.047563678 -0.052917391)
(0.098690765 -0.0038434665 0.00084899507)
(0.098453896 -0.00466188 0.0012829087)
(0.098849402 -0.0047228555 0.0014672065)
(0.099688164 -0.0042692084 0.0015532403)
(0.10105551 -0.0034893188 0.0015682067)
(0.10298331 -0.0026282112 0.0014976203)
(0.10545056 -0.0018438599 0.0013174855)
(0.10858477 -0.0012277052 0.00097308824)
(0.11288142 -0.00045800273 0.00034236332)
(0.11883878 0.00082057091 -0.00073679388)
(0.1273713 0.0033902005 -0.0025669222)
(0.13889577 0.0082628274 -0.0055217451)
(0.15319306 0.016285903 -0.010086598)
(0.16855672 0.026583095 -0.016396653)
(0.18288445 0.038563911 -0.024015136)
(0.19435114 0.050941969 -0.032007343)
(0.20175111 0.062603237 -0.039463309)
(0.20476157 0.07257975 -0.045884535)
(0.20405094 0.080059798 -0.051113288)
(0.20102535 0.084584713 -0.05513888)
(0.19724525 0.086338046 -0.057975963)
(0.19382698 0.085982951 -0.059639611)
(0.1912926 0.084247815 -0.060204064)
(0.18975424 0.081715137 -0.059790638)
(0.18909748 0.078788881 -0.058483798)
(0.1890143 0.075874216 -0.056192274)
(0.18884329 0.073695476 -0.052524073)
(0.18730416 0.073787165 -0.04658343)
(0.1831178 0.07945448 -0.036362385)
(0.15633323 0.09572906 -0.016962282)
(0.098823811 -0.0028963729 0.00087574414)
(0.097984496 -0.0041939275 0.0013305252)
(0.096356224 -0.0046011406 0.0015357598)
(0.094301987 -0.0046914609 0.0016609896)
(0.092285192 -0.0046536706 0.0017582548)
(0.090486496 -0.0045734476 0.0018393337)
(0.088895435 -0.0045515378 0.0019208788)
(0.087440414 -0.0046565429 0.0020412226)
(0.086160263 -0.0047111955 0.0022680351)
(0.085346717 -0.0046200069 0.0026438385)
(0.085525876 -0.004157556 0.0031100463)
(0.088603068 -0.0020041802 0.0032995533)
(0.097742327 0.0046373044 0.0025772223)
(0.11314609 0.017261172 0.00064286337)
(0.13158768 0.034167594 -0.0022407875)
(0.14954725 0.052494282 -0.0052588299)
(0.16405047 0.069375969 -0.0078335277)
(0.17383532 0.083529708 -0.0097976642)
(0.17923933 0.094311048 -0.011425462)
(0.1816146 0.10145719 -0.013039374)
(0.18248601 0.10508217 -0.01475646)
(0.18281182 0.10566577 -0.016270953)
(0.18292381 0.10391056 -0.017212761)
(0.18282916 0.10049737 -0.017450798)
(0.18240919 0.095962433 -0.017037317)
(0.18153296 0.090787691 -0.015804846)
(0.18002488 0.085739754 -0.013463074)
(0.17757555 0.082442292 -0.0094090646)
(0.17473924 0.084568216 -0.002682641)
(0.16022902 0.098424963 0.0098966989)
(0.096863914 -0.0015494655 0.00084120132)
(0.094653499 -0.0022889803 0.0012576224)
(0.090944648 -0.0025153058 0.0014237786)
(0.08639519 -0.0025482131 0.0015078211)
(0.081820673 -0.0024889339 0.0015654281)
(0.077464616 -0.0023682893 0.001612195)
(0.073289883 -0.0022260633 0.0016706983)
(0.069199971 -0.0021031472 0.001783921)
(0.065069559 -0.0020323663 0.0020242629)
(0.060696017 -0.0021720438 0.0025013627)
(0.055690699 -0.0029959929 0.0034142011)
(0.049630044 -0.004670784 0.005160175)
(0.041945699 -0.0056011145 0.0083644454)
(0.03663257 -0.00018313429 0.013107477)
(0.042500639 0.014769056 0.018684132)
(0.057177829 0.032380724 0.024705315)
(0.073157654 0.047553542 0.030548909)
(0.087363064 0.059925261 0.035905693)
(0.099486998 0.069481245 0.040257486)
(0.11018652 0.076143302 0.043237483)
(0.119961 0.079870148 0.045019003)
(0.12882114 0.080824579 0.045820394)
(0.13645168 0.079481975 0.045871904)
(0.14245087 0.076403402 0.045439606)
(0.14656837 0.072099324 0.044748989)
(0.14886856 0.067063478 0.04405907)
(0.14975621 0.061983551 0.043628122)
(0.15028921 0.058123819 0.043391816)
(0.15460055 0.058299327 0.042788037)
(0.17791939 0.068368655 0.042154023)
(0.10572945 -0.0024254277 0.0010098726)
(0.12006995 -0.002524786 0.0014155958)
(0.13290418 -0.0024076908 0.0014234498)
(0.14327315 -0.0020506031 0.0012032969)
(0.15229978 -0.0015222069 0.00077470895)
(0.16055178 -0.0009992477 9.5619228e-05)
(0.16806078 -0.00062268242 -0.00089020404)
(0.17474541 -0.00046619865 -0.0023421733)
(0.18057563 -0.00059487624 -0.0045136961)
(0.18553679 -0.0010798458 -0.0076837189)
(0.18956944 -0.0020510727 -0.012188544)
(0.19258535 -0.0036545272 -0.018298332)
(0.19404678 -0.0060347847 -0.025998572)
(0.1937231 -0.009852258 -0.034618928)
(0.19320237 -0.014357265 -0.042958771)
(0.1937055 -0.018608113 -0.049972883)
(0.19498203 -0.021584708 -0.055403266)
(0.19601266 -0.022950109 -0.059539057)
(0.19603037 -0.023181198 -0.062645396)
(0.19499171 -0.023052687 -0.064800466)
(0.19343386 -0.023039646 -0.066050406)
(0.19202075 -0.023193316 -0.066460114)
(0.19120676 -0.023420834 -0.066088958)
(0.19118104 -0.023637359 -0.064998592)
(0.19198941 -0.023775447 -0.063238784)
(0.19363482 -0.023666746 -0.06077359)
(0.19601841 -0.022901624 -0.057338144)
(0.19885139 -0.020374043 -0.052353112)
(0.20156759 -0.012595884 -0.045009877)
(0.19447129 0.010747931 -0.035172197)
(0.099980972 -0.0038546993 0.0010642245)
(0.10068487 -0.0047086774 0.0016202622)
(0.10246261 -0.0049060764 0.0018306057)
(0.10485703 -0.0047068647 0.0018900575)
(0.10769091 -0.0043035214 0.0018405167)
(0.11090648 -0.0039424701 0.0016596293)
(0.11441436 -0.003813058 0.001304144)
(0.11813576 -0.0040324999 0.00069867954)
(0.12207396 -0.0047236844 -0.00027601102)
(0.12619148 -0.0060555908 -0.0017689066)
(0.13050299 -0.0082864851 -0.0039409213)
(0.1351093 -0.011696711 -0.0069511633)
(0.14017613 -0.016601414 -0.010847954)
(0.14567261 -0.023644358 -0.015088089)
(0.15154717 -0.031347177 -0.018626214)
(0.1574795 -0.037434873 -0.020731531)
(0.16283959 -0.039890253 -0.021633533)
(0.16662355 -0.038519123 -0.02245604)
(0.16825597 -0.034868121 -0.023888169)
(0.16805157 -0.03093633 -0.025890816)
(0.16694137 -0.027908693 -0.02802412)
(0.16574883 -0.025828575 -0.029845218)
(0.16478448 -0.024383289 -0.030964339)
(0.16413254 -0.023404885 -0.031092644)
(0.16400001 -0.02302509 -0.029981636)
(0.16484272 -0.023282292 -0.027339342)
(0.16759538 -0.024133744 -0.022629907)
(0.17449337 -0.024980664 -0.014963754)
(0.19160279 -0.02412658 -0.0029299421)
(0.25128873 -0.014916725 0.011164226)
(0.10012435 -0.0029245523 0.0010845304)
(0.1002406 -0.0042469351 0.0016671855)
(0.10005731 -0.0046970755 0.0019245359)
(0.099705435 -0.0048643137 0.0020597747)
(0.099396972 -0.0049422748 0.0021325483)
(0.099246167 -0.0050170447 0.002142861)
(0.099266063 -0.0051740863 0.0020862482)
(0.099436488 -0.0055098779 0.0019682656)
(0.099751151 -0.0061546381 0.0018094484)
(0.10022933 -0.0073547248 0.0015926754)
(0.10097148 -0.0094475293 0.0011866335)
(0.10217806 -0.012914365 0.00036477631)
(0.10409632 -0.018465909 -0.00084544721)
(0.10675556 -0.026750952 -0.0016767302)
(0.11007678 -0.035851216 -0.00063642495)
(0.11375243 -0.042368004 0.0040547606)
(0.11885993 -0.042877715 0.012585918)
(0.12422217 -0.038246897 0.021098208)
(0.12836317 -0.03163516 0.027414379)
(0.13073517 -0.026318879 0.030788906)
(0.13146238 -0.022742687 0.032656787)
(0.13193324 -0.02044926 0.034391678)
(0.13314444 -0.019576399 0.036033525)
(0.13505686 -0.019794353 0.037824582)
(0.13747873 -0.020847143 0.03987938)
(0.13910929 -0.022605835 0.041663821)
(0.14049272 -0.024890266 0.043232553)
(0.14288302 -0.028263333 0.044698248)
(0.15095686 -0.03306416 0.047791773)
(0.18368528 -0.03944465 0.047139174)
(0.098108229 -0.0015764554 0.0010592612)
(0.096795216 -0.0023453301 0.0016228292)
(0.094459858 -0.002604607 0.0018656355)
(0.091533203 -0.0026830875 0.0019830911)
(0.088585879 -0.0026853871 0.0020344189)
(0.085806876 -0.0026449321 0.0020231178)
(0.083193812 -0.0026039589 0.0019501888)
(0.080714666 -0.0026177853 0.0018251918)
(0.078327898 -0.0027647928 0.0016731832)
(0.075977324 -0.0031884139 0.0015348353)
(0.073574643 -0.0041458701 0.0014532643)
(0.070934519 -0.0061236714 0.001485283)
(0.067711495 -0.0098651708 0.0015245856)
(0.063526413 -0.015791664 0.0014195104)
(0.058319321 -0.021053981 0.0034990973)
(0.054036571 -0.020226257 0.014722915)
(0.055719095 -0.010958464 0.040090837)
(0.058213847 0.0029540473 0.064276607)
(0.061407217 0.016685207 0.082424016)
(0.066747838 0.027359929 0.094935952)
(0.074676008 0.03406213 0.10236612)
(0.08359467 0.036541078 0.10560707)
(0.091702641 0.036073501 0.1064042)
(0.098340536 0.033649243 0.10544703)
(0.10330748 0.029883996 0.1027781)
(0.10701215 0.0245935 0.09785672)
(0.10947554 0.018514882 0.091130381)
(0.11112897 0.011757968 0.082992052)
(0.11810478 0.0047760262 0.074398569)
(0.15097293 -0.0009160892 0.05297447)
(0.10560384 -0.0024456647 0.0003612813)
(0.11974474 -0.0025430939 0.00059769756)
(0.1324883 -0.0023997129 0.00070001441)
(0.14287646 -0.0019943494 0.00071044321)
(0.15196927 -0.001405853 0.00065355431)
(0.16025242 -0.00082089113 0.00053104611)
(0.16773834 -0.00035199154 0.00031390166)
(0.17440974 -2.83709e-05 -2.0741634e-05)
(0.18029146 0.0001242743 -0.00048954278)
(0.18536759 5.6422442e-05 -0.00111929)
(0.18958704 -0.00031587779 -0.0019187285)
(0.19287827 -0.0011391086 -0.002841262)
(0.19468932 -0.0026487363 -0.0036928196)
(0.19480403 -0.0056425546 -0.0040918774)
(0.19472955 -0.0091674886 -0.0036603622)
(0.19496515 -0.012514626 -0.0027247517)
(0.19459688 -0.015662963 -0.0022443175)
(0.19297732 -0.018940914 -0.0029382357)
(0.19028971 -0.022359363 -0.0048225531)
(0.18703385 -0.025857124 -0.0074532624)
(0.18371745 -0.029374129 -0.010314705)
(0.18080379 -0.032716887 -0.012953168)
(0.17854047 -0.035596148 -0.015026241)
(0.17688381 -0.037797306 -0.016369922)
(0.17565307 -0.039272099 -0.016957876)
(0.17482028 -0.040222143 -0.016698535)
(0.17477444 -0.040943095 -0.015559905)
(0.17675039 -0.041009179 -0.014573118)
(0.18233571 -0.036319189 -0.016882913)
(0.18812226 -0.017951485 -0.023826767)
(0.099858218 -0.0038672743 0.00035689346)
(0.10033032 -0.0047088706 0.00061263099)
(0.10198192 -0.0048641279 0.00073611957)
(0.10436561 -0.0045958076 0.00076350593)
(0.10722149 -0.0041060855 0.00070793168)
(0.11043036 -0.0036469728 0.00055240417)
(0.1138711 -0.0033651629 0.00026316007)
(0.11745108 -0.0033169446 -0.00020218463)
(0.12112185 -0.0035812977 -0.00089858151)
(0.12487365 -0.0042992222 -0.001910744)
(0.12875665 -0.0057069274 -0.0033007272)
(0.1329306 -0.0082243592 -0.005068572)
(0.13772695 -0.012470197 -0.0070189163)
(0.14315885 -0.0190496 -0.0086234038)
(0.14868728 -0.025142317 -0.0097113794)
(0.1530414 -0.028844051 -0.011486435)
(0.15491411 -0.030836245 -0.015224701)
(0.15425628 -0.032714298 -0.020731108)
(0.15208227 -0.034489445 -0.027108222)
(0.14908184 -0.036162413 -0.03334068)
(0.14558416 -0.037966192 -0.038585268)
(0.14189213 -0.039860367 -0.042364846)
(0.13816891 -0.041525767 -0.044509298)
(0.13436807 -0.042749969 -0.045092315)
(0.13029564 -0.043657368 -0.044106576)
(0.12612261 -0.045070894 -0.040832748)
(0.12307875 -0.047997405 -0.034943832)
(0.12588824 -0.052095669 -0.029519346)
(0.14211412 -0.04957067 -0.036467416)
(0.19128958 -0.028713201 -0.058650436)
(0.10000608 -0.0029196496 0.00036160637)
(0.099901853 -0.0042355184 0.00062392506)
(0.099600128 -0.0046652772 0.00076267573)
(0.099248523 -0.0048000559 0.00081086456)
(0.098987978 -0.0048331889 0.00077934704)
(0.098883589 -0.0048440091 0.00065018867)
(0.098920784 -0.0049020237 0.00038895461)
(0.099055522 -0.0050845378 -5.5047585e-05)
(0.099254205 -0.0055110201 -0.00075752483)
(0.09950821 -0.0063803814 -0.0018158382)
(0.099800087 -0.0080689769 -0.0033420565)
(0.1001811 -0.011286418 -0.005466378)
(0.1009553 -0.017193508 -0.0081177713)
(0.1020747 -0.025961565 -0.010691238)
(0.10263584 -0.032359315 -0.01262208)
(0.10138713 -0.033428708 -0.015195557)
(0.09725051 -0.031290136 -0.019536508)
(0.091932164 -0.03030566 -0.023215736)
(0.087143362 -0.030274804 -0.027556077)
(0.082407369 -0.031252493 -0.032661097)
(0.076759817 -0.033336996 -0.036834677)
(0.070505227 -0.03600224 -0.038936425)
(0.06439054 -0.038508726 -0.038860144)
(0.058964098 -0.040555693 -0.036942949)
(0.054096924 -0.042744546 -0.032553663)
(0.052105407 -0.046026517 -0.022504232)
(0.053304006 -0.051482038 -0.0091094263)
(0.061167774 -0.059662656 -0.0012895919)
(0.073480981 -0.062241 -0.024367551)
(0.10758938 -0.04878329 -0.071997669)
(0.097992516 -0.0015714981 0.00035231486)
(0.096462877 -0.0023351649 0.00060304439)
(0.094011261 -0.0025861263 0.00073161915)
(0.091084284 -0.0026541572 0.00077064166)
(0.088182915 -0.0026432466 0.00073094001)
(0.085445548 -0.0025846576 0.00059429708)
(0.082839237 -0.0025174156 0.00032393338)
(0.080303048 -0.0024916201 -0.00013952035)
(0.077771129 -0.0025772251 -0.00088744333)
(0.075124518 -0.0028973392 -0.0020558365)
(0.072092603 -0.0037372504 -0.0038919632)
(0.06814354 -0.0057608212 -0.0069036208)
(0.062359362 -0.010575824 -0.01215453)
(0.052712983 -0.019081388 -0.0209643)
(0.037029742 -0.022287037 -0.031422258)
(0.021365407 -0.016716641 -0.036305309)
(0.0093041894 -0.0091527845 -0.02775946)
(0.020104237 -0.0063624949 0.012154769)
(0.021784177 0.0022348211 0.045710735)
(0.026675515 0.010658598 0.065890095)
(0.033688651 0.016313625 0.076942856)
(0.041057364 0.018718657 0.082120942)
(0.047427523 0.018559422 0.08361187)
(0.051907032 0.01637014 0.08232434)
(0.053539849 0.011990499 0.078364524)
(0.052025166 0.0047593788 0.071711663)
(0.048029254 -0.0053336755 0.062287745)
(0.045260221 -0.019056922 0.047069469)
(0.032336857 -0.025263901 -0.007507013)
(0.047819518 -0.0026200553 -0.094364957)
(0.10557516 -0.0024470718 0.00019681189)
(0.11963873 -0.0025394927 0.0003598111)
(0.13229735 -0.0023816017 0.00046461415)
(0.14262054 -0.0019462935 0.00051225496)
(0.15167648 -0.001302842 0.00050854065)
(0.15996333 -0.00062494291 0.00045397412)
(0.16753361 -9.4360328e-06 0.00034688511)
(0.17439042 0.00052197927 0.00019320999)
(0.18058269 0.0009661508 -1.3325066e-05)
(0.18620941 0.0013227285 -0.000264988)
(0.1914141 0.0015488105 -0.000514106)
(0.19642375 0.0015375066 -0.0006010014)
(0.2010878 0.0011500443 -9.7948543e-05)
(0.20552211 0.00021499066 0.001658244)
(0.2108489 0.0005109323 0.0047819191)
(0.2164526 0.0017595913 0.0087102822)
(0.22098014 0.0029603307 0.012990796)
(0.22401243 0.0035615589 0.017585781)
(0.22593286 0.0033796333 0.022626617)
(0.22709348 0.0024042413 0.028172827)
(0.2277157 0.00081879049 0.034150424)
(0.22798495 -0.0011276992 0.040406605)
(0.22791603 -0.0032326694 0.046710811)
(0.22738778 -0.0053905562 0.052687681)
(0.226386 -0.0074390507 0.057772786)
(0.22509095 -0.0087743199 0.061313404)
(0.22343158 -0.0082394942 0.062666052)
(0.22010109 -0.0048782471 0.060640135)
(0.20925334 0.0045317564 0.050251289)
(0.14592975 0.033173134 0.02743493)
(0.099828072 -0.0038688589 0.00019485267)
(0.10020066 -0.0047037999 0.00036679663)
(0.10172296 -0.0048377577 0.00047816235)
(0.10398347 -0.0045253373 0.00052402085)
(0.10672215 -0.0039560454 0.00050601917)
(0.10980899 -0.0033640844 0.00041692181)
(0.11311882 -0.0028737053 0.00024007415)
(0.11654687 -0.0025266832 -4.8250942e-05)
(0.12006029 -0.002368334 -0.00048063494)
(0.12371152 -0.0025022932 -0.0010887018)
(0.12768027 -0.0031924658 -0.0018618615)
(0.13240489 -0.004962669 -0.0026426005)
(0.13865207 -0.0084056606 -0.0029034659)
(0.14670072 -0.012127122 -0.0017937569)
(0.1557145 -0.011224015 -2.0524238e-05)
(0.16325555 -0.0076270883 0.00093875441)
(0.16828602 -0.0045571142 0.00049484435)
(0.17116175 -0.0033833358 -0.001110102)
(0.17248372 -0.0040611908 -0.0035436627)
(0.17265565 -0.0058966312 -0.0064832206)
(0.17209322 -0.0081960192 -0.0094576661)
(0.17104161 -0.010417476 -0.01185438)
(0.16952806 -0.012244366 -0.013126354)
(0.16738839 -0.013779869 -0.013041821)
(0.16464954 -0.015339189 -0.011802456)
(0.16203777 -0.016331217 -0.010476285)
(0.16258962 -0.013447991 -0.011822624)
(0.16802974 -0.0027660005 -0.018474406)
(0.17741174 0.019124633 -0.030708805)
(0.17353207 0.057535578 -0.04877592)
(0.099977069 -0.0029170454 0.00019576811)
(0.099776141 -0.004229739 0.00036814438)
(0.099342368 -0.004650247 0.0004830975)
(0.098855375 -0.0047664924 0.00053296456)
(0.098455049 -0.0047678725 0.00051540338)
(0.098191094 -0.0047261672 0.00041794244)
(0.09803283 -0.0047003306 0.00021556689)
(0.097909677 -0.0047586012 -0.00012930964)
(0.097762826 -0.0050064933 -0.0006726548)
(0.097552999 -0.0056766641 -0.0015000639)
(0.09730393 -0.0072830407 -0.0027097684)
(0.097353864 -0.010917612 -0.0042761028)
(0.098460181 -0.018326248 -0.0056111856)
(0.10018764 -0.025878802 -0.0050884229)
(0.10375168 -0.023784913 -0.0028110702)
(0.10521416 -0.017904496 -0.0010673618)
(0.10136301 -0.012772811 -0.0021874072)
(0.094619649 -0.010144547 -0.0056955611)
(0.086359642 -0.011143504 -0.010803439)
(0.077952972 -0.014493018 -0.01635946)
(0.069910425 -0.018627396 -0.020894675)
(0.062157889 -0.022433274 -0.022963028)
(0.054941617 -0.025260093 -0.021986691)
(0.048575926 -0.027148651 -0.018622707)
(0.043432173 -0.029667926 -0.013664255)
(0.040169272 -0.033142171 -0.011535834)
(0.045484417 -0.030538448 -0.021788807)
(0.063399874 -0.016666872 -0.039048107)
(0.089038137 0.0098893935 -0.059319663)
(0.096819789 0.047510674 -0.083134572)
(0.097964052 -0.001573155 0.00019044385)
(0.096340223 -0.0023389072 0.00035534434)
(0.09375929 -0.0025895632 0.00046246597)
(0.090697607 -0.0026536616 0.00050392804)
(0.087654419 -0.002633942 0.00047634165)
(0.084748651 -0.0025592416 0.00036500974)
(0.081917283 -0.0024659723 0.00013915209)
(0.079051118 -0.0024062452 -0.00025291422)
(0.076000865 -0.0024564029 -0.00090582085)
(0.072488926 -0.0027855055 -0.002004926)
(0.067944059 -0.0038210404 -0.0038957552)
(0.061132577 -0.0067704128 -0.0072333809)
(0.050249852 -0.014759394 -0.013354652)
(0.029431236 -0.022697329 -0.022909632)
(-0.00013580992 -0.010465772 -0.029527237)
(-0.022533277 0.0028851206 -0.024195051)
(-0.037393945 0.0043954541 -0.016570499)
(-0.042121493 0.0025358064 -0.0045632045)
(-0.033138312 9.7273415e-05 0.01541426)
(-0.025204038 0.00043873141 0.030376138)
(-0.016199026 0.00079677257 0.039007234)
(-0.0084398596 0.00025905528 0.04319819)
(-0.0028099883 -0.0011281579 0.044858415)
(-0.00026445274 -0.0036467174 0.045224121)
(-0.0011658762 -0.0093056799 0.043182413)
(-0.010685165 -0.018642359 0.027086746)
(-0.02568306 -0.021373158 -0.0099912884)
(-0.028798625 -0.0015416617 -0.04800778)
(-0.0041064668 0.02830329 -0.07812984)
(0.03397153 0.058173243 -0.10249901)
(0.10555972 -0.0024508392 5.7075038e-05)
(0.11958389 -0.0025455851 0.00010774646)
(0.1321943 -0.0023887728 0.00014345114)
(0.14247271 -0.0019526792 0.00016346336)
(0.15148883 -0.0013060136 0.00016975532)
(0.15973424 -0.00062353103 0.00016320877)
(0.16725081 -4.8305302e-06 0.0001427128)
(0.17403425 0.00052506233 0.00010492046)
(0.18014497 0.00096393749 4.5600979e-05)
(0.18567836 0.0012774296 -3.6522992e-05)
(0.19081223 0.0013825299 -0.00015210334)
(0.19598126 0.0011265797 -0.00031258791)
(0.2014193 0.00055723819 -0.00052677097)
(0.20748451 0.0003624392 -0.00081000877)
(0.21439307 0.0013420743 -0.00099979951)
(0.2212618 0.0026488265 -0.0010977977)
(0.22694121 0.0041474614 -0.0012143872)
(0.2319631 0.0060999057 -0.0013146077)
(0.23686483 0.0086603982 -0.0013328511)
(0.24192237 0.011784193 -0.001216051)
(0.24721194 0.01536372 -0.0008404894)
(0.2525709 0.019316542 -4.5278817e-06)
(0.25748645 0.023518834 0.0015888954)
(0.26114457 0.027783028 0.0042453808)
(0.26256529 0.031945089 0.0080554495)
(0.26048332 0.036123115 0.012573846)
(0.25282813 0.040896006 0.016723867)
(0.23621452 0.04715161 0.01901914)
(0.20679759 0.05692216 0.016668398)
(0.10671697 0.079082942 0.0075073353)
(0.099810026 -0.0038729326 5.2704473e-05)
(0.10012974 -0.0047099835 0.00010202616)
(0.10158142 -0.0048433607 0.00013623876)
(0.10377047 -0.0045267808 0.00015322264)
(0.10643663 -0.0039493859 0.00015382121)
(0.10943859 -0.0033471618 0.00013671564)
(0.11263888 -0.0028485713 9.8006881e-05)
(0.11593408 -0.0025019007 2.9617481e-05)
(0.11928115 -0.0023672041 -7.5467976e-05)
(0.12274114 -0.0026163571 -0.00023537419)
(0.12661239 -0.0036406404 -0.00047268764)
(0.13169506 -0.0061394703 -0.00081104066)
(0.13906735 -0.01010948 -0.0012646101)
(0.14898174 -0.009791443 -0.0017149832)
(0.15861539 -0.0057258808 -0.0019014329)
(0.16628816 -0.0015487885 -0.0022529713)
(0.17341908 0.0019621115 -0.0028883745)
(0.18018901 0.0051765841 -0.0037665066)
(0.18710782 0.0086281433 -0.0048112533)
(0.19465741 0.012630191 -0.006055267)
(0.20322145 0.017603058 -0.0074148851)
(0.21281408 0.024070113 -0.0085070457)
(0.22287126 0.032295519 -0.0087704329)
(0.23243057 0.04182387 -0.0076856863)
(0.24039084 0.052216013 -0.005137735)
(0.24519184 0.063776816 -0.0019549006)
(0.24376654 0.077011071 0.00064316771)
(0.2314966 0.091933878 0.0016234083)
(0.20648667 0.10976406 -0.00077511712)
(0.11809088 0.13645127 -0.010018051)
(0.099958881 -0.0029174587 5.2221875e-05)
(0.099704641 -0.0042309813 0.00010071297)
(0.099196166 -0.0046506678 0.00013480389)
(0.098627308 -0.0047639178 0.000151776)
(0.098135642 -0.004760771 0.00015147819)
(0.097755992 -0.0047145046 0.00013140473)
(0.0974394 -0.0046873806 8.6927595e-05)
(0.097096693 -0.0047538936 7.9716432e-06)
(0.096620299 -0.0050583931 -0.00011784341)
(0.095912222 -0.0059217831 -0.00031612545)
(0.09504726 -0.0081019603 -0.00062613467)
(0.094919802 -0.013271168 -0.00111266)
(0.096125447 -0.023577602 -0.0019514043)
(0.10021775 -0.02235288 -0.0033957928)
(0.10558138 -0.015762549 -0.0031349148)
(0.10589782 -0.0095853641 -0.0032317992)
(0.10368146 -0.0036899788 -0.0037760427)
(0.10045112 0.0018417563 -0.0047011117)
(0.09810392 0.0058110454 -0.0063950407)
(0.097351371 0.0077968829 -0.0089821231)
(0.096891447 0.0083801939 -0.011609686)
(0.098214101 0.0091799549 -0.013201884)
(0.10483581 0.012486675 -0.013297106)
(0.11915897 0.020097627 -0.01207356)
(0.136418 0.031405358 -0.008643966)
(0.15442457 0.046195391 -0.0039444534)
(0.16687497 0.062920846 -0.00041017486)
(0.16744074 0.082186477 -0.00058491974)
(0.15660323 0.10690235 -0.0048667016)
(0.090753085 0.14240131 -0.013831069)
(0.097945975 -0.0015730633 5.0563475e-05)
(0.096269249 -0.0023387318 9.6526099e-05)
(0.093613207 -0.0025885306 0.00012775756)
(0.090466329 -0.0026509445 0.00014145992)
(0.087323513 -0.0026291776 0.00013717884)
(0.084284284 -0.0025529275 0.00011214469)
(0.081260224 -0.0024607828 6.1564065e-05)
(0.078092382 -0.0024084527 -2.5048894e-05)
(0.074512455 -0.0024986383 -0.00016415325)
(0.070001473 -0.00296967 -0.00038619932)
(0.063480997 -0.0044923316 -0.00074316773)
(0.052535636 -0.0091980514 -0.0013501802)
(0.035158122 -0.022140757 -0.0027699665)
(-0.011390494 -0.010798569 -0.010959164)
(-0.039767514 0.0046687631 -0.013150318)
(-0.058692078 0.0064329243 -0.0082163451)
(-0.072880544 0.0056003524 -0.0037597845)
(-0.080707226 0.0022934667 0.0020306262)
(-0.08239542 -0.002496032 0.0083189908)
(-0.078738036 -0.0072007911 0.01423393)
(-0.070567638 -0.011132861 0.018260859)
(-0.060763174 -0.014123254 0.021130832)
(-0.050166295 -0.015533835 0.023727713)
(-0.037635536 -0.013723199 0.025833145)
(-0.018866776 -0.0068294882 0.025723569)
(0.0023086072 0.0084373813 0.01958374)
(0.029158551 0.036094736 0.013483472)
(0.035475836 0.057167159 0.0073571818)
(0.043265062 0.085193925 -0.0031590017)
(0.046126013 0.12314717 -0.016114318)
(0.10556116 -0.0024509678 -4.7557074e-05)
(0.11958835 -0.0025453015 -7.6096176e-05)
(0.13220217 -0.0023880646 -7.8503764e-05)
(0.14248523 -0.0019515638 -5.5582797e-05)
(0.15150915 -0.0013043375 -9.8759327e-06)
(0.159769 -0.00062059957 5.8284695e-05)
(0.16731247 2.2303553e-06 0.00015177182)
(0.17413926 0.00054107617 0.00027625636)
(0.18030585 0.00099677848 0.00043876161)
(0.18590297 0.0013566722 0.00063821254)
(0.19106278 0.0015716662 0.00085133259)
(0.19601238 0.0015246911 0.00097144922)
(0.20053466 0.0010594787 0.00067676186)
(0.20483429 -0.00012699514 -0.00054117589)
(0.21035748 0.00016251954 -0.0025730049)
(0.216213 0.001307655 -0.0047730988)
(0.22111788 0.0024586611 -0.0068696463)
(0.22480519 0.0034983788 -0.0091480008)
(0.22773959 0.004540653 -0.012050069)
(0.23058539 0.0054130599 -0.01587836)
(0.23396164 0.0059403547 -0.020735919)
(0.23833808 0.0062297141 -0.026571003)
(0.24374732 0.0066468458 -0.033162119)
(0.24955557 0.0076802704 -0.040083508)
(0.25446873 0.009622785 -0.046703528)
(0.25669595 0.012370876 -0.052128783)
(0.25400281 0.016435507 -0.055000989)
(0.24325631 0.023314464 -0.053347799)
(0.22052935 0.036091988 -0.044801867)
(0.13224005 0.064653043 -0.027270312)
(0.099810102 -0.00387301 -5.0281931e-05)
(0.10013061 -0.0047093903 -8.3024998e-05)
(0.10158481 -0.0048418327 -8.5210118e-05)
(0.10377936 -0.004523892 -5.397543e-05)
(0.10645642 -0.003944027 1.0666554e-05)
(0.10947976 -0.0033364396 0.00011161956)
(0.11271555 -0.0028239737 0.00025535757)
(0.11605722 -0.0024479912 0.0004521054)
(0.11946026 -0.0022485531 0.00071223761)
(0.12296219 -0.002339246 0.0010384348)
(0.12674632 -0.0029942576 0.0013861715)
(0.13128347 -0.0047715145 0.0015727399)
(0.13750451 -0.0083765207 0.0010861285)
(0.14558673 -0.0125866 -0.0007443997)
(0.15498342 -0.010491962 -0.0029530109)
(0.16230903 -0.0063978129 -0.0040223865)
(0.16727315 -0.0031208269 -0.0040095014)
(0.17095793 -0.0013809841 -0.0036157032)
(0.17403074 -0.001079523 -0.0033057867)
(0.17609956 -0.0017982514 -0.003040239)
(0.17712895 -0.0030868203 -0.0026503228)
(0.17758051 -0.0044742867 -0.0022206263)
(0.17843706 -0.0051633752 -0.0022130126)
(0.18119942 -0.0040540469 -0.0031679199)
(0.18775341 0.00017816483 -0.005351756)
(0.19947317 0.0094246124 -0.0087069928)
(0.20888018 0.023066914 -0.01089564)
(0.2113933 0.041022514 -0.0087200683)
(0.20546005 0.066033455 0.00098686418)
(0.15947489 0.10490805 0.01916513)
(0.099958986 -0.0029173132 -4.9981737e-05)
(0.099705629 -0.0042303759 -8.2013784e-05)
(0.099200164 -0.0046491591 -8.3395453e-05)
(0.098638695 -0.004760672 -4.9236044e-05)
(0.098163019 -0.0047539322 2.3687111e-05)
(0.097817402 -0.0046996822 0.00014281758)
(0.097561335 -0.004653808 0.00032086232)
(0.0973158 -0.004680802 0.00058123533)
(0.097002406 -0.0048874719 0.00095911315)
(0.096553452 -0.0055042771 0.0015025975)
(0.095966706 -0.0070544101 0.0022496543)
(0.095562375 -0.0106817 0.0031189568)
(0.096476622 -0.018399579 0.0034997277)
(0.09712234 -0.028357432 0.0021986066)
(0.10205715 -0.023125999 -0.0012963492)
(0.1017534 -0.016313045 -0.0020359812)
(0.097962859 -0.01027461 -0.00013598217)
(0.092342396 -0.005552057 0.0028463685)
(0.084620889 -0.0035667766 0.0064441472)
(0.074885242 -0.0055136848 0.010990063)
(0.06333056 -0.010515492 0.015779701)
(0.051017926 -0.016498852 0.018980315)
(0.039990518 -0.021567321 0.019269425)
(0.033640271 -0.024723571 0.017615216)
(0.036685155 -0.024822174 0.017145651)
(0.050012013 -0.018113427 0.020083993)
(0.084040687 -0.0011464015 0.023635561)
(0.11001076 0.022947948 0.029796307)
(0.12635434 0.055430134 0.042017224)
(0.11894612 0.098022677 0.058066328)
(0.097946148 -0.0015729702 -4.8541636e-05)
(0.096270575 -0.0023384329 -7.8645331e-05)
(0.093618235 -0.0025878123 -7.7698534e-05)
(0.090480578 -0.0026494373 -4.0035202e-05)
(0.087358664 -0.0026260621 3.9207293e-05)
(0.084365779 -0.0025459816 0.00017063511)
(0.081427984 -0.0024444833 0.00037381741)
(0.078420056 -0.0023714183 0.0006864304)
(0.075166335 -0.0024043605 0.0011837893)
(0.071349899 -0.0027103828 0.0020085852)
(0.066343424 -0.0037194245 0.0034410143)
(0.058788385 -0.0066631698 0.0060539719)
(0.046231829 -0.014953101 0.011029428)
(0.022287592 -0.027437662 0.01817028)
(-0.029358433 -0.0016052983 0.019868404)
(-0.04816021 0.004533723 0.016894538)
(-0.067736571 0.0058778607 0.016674096)
(-0.078487018 0.0041927491 0.01540891)
(-0.080622628 5.7979989e-05 0.011558088)
(-0.073594452 -0.0049513249 0.0047191102)
(-0.062830913 -0.0088841516 -0.0022479365)
(-0.052417143 -0.012021467 -0.0065818574)
(-0.044002686 -0.015443789 -0.007997308)
(-0.037471538 -0.01934775 -0.0073571087)
(-0.032917507 -0.022956296 -0.0033199719)
(-0.031329995 -0.02256263 0.0089156099)
(-0.028094754 -0.0072325533 0.033849478)
(-0.011376967 0.018096892 0.051344024)
(0.012311758 0.052744186 0.071285292)
(0.050918426 0.085984018 0.085547324)
(0.10557958 -0.0024475272 -0.0001890812)
(0.11965208 -0.0025387064 -0.00033320549)
(0.13231982 -0.0023793299 -0.00040960049)
(0.14265268 -0.0019423978 -0.00042129897)
(0.15171975 -0.0012973515 -0.00037578013)
(0.16001945 -0.00061801856 -0.00027557262)
(0.16760302 -1.3258205e-06 -0.00012356048)
(0.17447601 0.00053318489 7.5673764e-05)
(0.18069972 0.00099412601 0.00032495303)
(0.18635753 0.0013829244 0.00061228953)
(0.19154996 0.0016789135 0.00089059512)