/*--------------------------------*- C++ -*----------------------------------*\
| =========                 |                                                 |
| \\      /  F ield         | OpenFOAM: The Open Source CFD Toolbox           |
|  \\    /   O peration     | Version:  v2012                                 |
|   \\  /    A nd           | Website:  www.openfoam.com                      |
|    \\/     M anipulation  |                                                 |
\*---------------------------------------------------------------------------*/
FoamFile
{
    version     2.0;
    format      ascii;
    class       volScalarField;
    location    "620/bottomWater";
    object      p;
}
// * * * * * * * * * * * * * * * * * * * * * * * * * * * * * * * * * * * * * //

dimensions      [1 -1 -2 0 0 0 0];


internalField   nonuniform List<scalar> 
1460
(
353.4272
353.44038
353.45423
353.4531
353.44588
353.45868
353.42977
353.44717
353.4391
353.44984
353.45543
353.43551
353.45557
353.45567
353.45824
353.45995
353.45731
353.45483
353.46845
353.4672
353.47711
353.46667
353.46564
353.46798
353.4674
353.47208
353.46045
353.48451
353.47365
353.47078
274.45786
274.47353
274.49231
274.422
274.44109
274.46374
274.44973
274.43443
274.41632
274.46929
274.49537
274.46389
274.48843
274.4747
274.44451
274.42059
274.4127
274.43364
274.44906
274.46243
274.4643
274.43216
274.4171
274.39899
274.40293
274.40025
274.408
274.48216
274.45888
274.41928
196.29463
196.23333
196.24657
196.27649
196.32659
196.24695
196.29608
196.307
196.27884
196.25067
196.25892
196.29053
196.28032
196.26807
196.26364
196.27699
196.28334
196.27961
196.25903
196.27537
196.23174
196.27224
196.26602
196.29875
196.32072
196.29852
196.27426
196.24987
196.26411
196.30878
117.67686
117.65279
117.65448
117.67214
117.66718
117.65482
117.64727
117.68906
117.67729
117.64829
117.65841
117.66272
117.68772
117.67723
117.65177
117.6603
117.69151
117.63827
117.67188
117.66645
117.65604
117.65351
117.65616
117.67662
117.67701
117.68177
117.63788
117.64782
117.65776
117.68402
39.234193
39.235532
39.253464
39.250167
39.257737
39.267452
39.251271
39.233468
39.233433
39.245234
39.25503
39.229203
39.229553
39.222037
39.228834
39.235084
39.244885
39.262707
39.244435
39.228563
39.248606
39.255033
39.244168
39.260059
39.264434
39.262664
39.262795
39.255838
39.230333
39.237056
353.43672
353.42411
353.45902
353.45862
353.45226
353.45016
353.44966
353.45004
353.44711
353.44665
353.45595
353.44703
353.46108
353.45271
353.46631
353.46742
353.45978
353.46818
353.46691
353.46767
353.47278
353.48046
353.47364
353.46702
353.46273
353.47213
353.46308
353.46383
353.46403
353.46861
274.44493
274.43538
274.47085
274.43515
274.41439
274.4255
274.42922
274.41499
274.41281
274.4432
274.47112
274.47776
274.49414
274.43955
274.50479
274.46176
274.40661
274.40149
274.39694
274.4043
274.4306
274.4654
274.4558
274.41566
274.3998
274.39378
274.40644
274.41548
274.41473
274.40018
196.29573
196.26336
196.23718
196.26455
196.29579
196.30865
196.30503
196.30797
196.26175
196.25415
196.23746
196.26351
196.2742
196.27054
196.26032
196.23834
196.26357
196.28327
196.30021
196.27245
196.25969
196.2624
196.25813
196.25903
196.28988
196.31017
196.30146
196.28904
196.29247
196.31292
117.68701
117.64581
117.66209
117.64899
117.6813
117.67147
117.66357
117.69042
117.69274
117.63948
117.65537
117.67538
117.67316
117.65397
117.64929
117.64813
117.66084
117.68903
117.66434
117.65213
117.64373
117.67386
117.67327
117.64195
117.66031
117.67363
117.64084
117.65386
117.65174
117.67321
39.237999
39.233749
39.259314
39.265464
39.257135
39.267995
39.264174
39.244953
39.237098
39.243723
39.244826
39.231667
39.225508
39.236413
39.263539
39.245061
39.235633
39.243196
39.25032
39.248906
39.246938
39.232055
39.236628
39.260466
39.254946
39.260041
39.249493
39.245294
39.24353
39.251954
353.43739
353.43667
353.43022
353.45131
353.43914
353.44263
353.43891
353.43918
353.44988
353.44984
353.44991
353.44716
353.46336
353.45526
353.46761
353.45721
353.45813
353.46506
353.46513
353.46442
353.46766
353.47546
353.47605
353.47589
353.46573
353.47075
353.46242
353.46369
353.45653
353.46304
274.43782
274.43568
274.44677
274.46045
274.41495
274.41756
274.43426
274.42149
274.45009
274.43018
274.42999
274.44466
274.46787
274.47628
274.47109
274.41853
274.39971
274.4011
274.40505
274.3983
274.42456
274.46766
274.47664
274.43822
274.40623
274.40416
274.40545
274.41845
274.41977
274.39815
196.3169
196.28182
196.27323
196.24392
196.30032
196.3103
196.29755
196.30279
196.2794
196.29049
196.2716
196.27806
196.25882
196.25
196.23958
196.24901
196.27347
196.30219
196.3106
196.282
196.25902
196.25326
196.2703
196.24337
196.28346
196.29859
196.3022
196.29048
196.29228
196.30678
117.6848
117.66375
117.65249
117.65741
117.66009
117.68199
117.62318
117.66902
117.66074
117.68493
117.67588
117.67185
117.67362
117.65474
117.65268
117.64742
117.66634
117.68781
117.68238
117.6684
117.63422
117.6615
117.67313
117.67191
117.65599
117.68135
117.65607
117.64256
117.62589
117.6766
39.239652
39.232442
39.25886
39.260055
39.250745
39.257968
39.258206
39.23564
39.244829
39.23679
39.23115
39.226479
39.21943
39.235829
39.254261
39.242795
39.249161
39.26046
39.271707
39.259041
39.260454
39.242442
39.23653
39.263154
39.241683
39.244391
39.224764
39.24905
39.257469
39.249749
353.44233
353.44026
353.43038
353.45714
353.45062
353.44941
353.45903
353.45652
353.46052
353.44525
353.44426
353.45204
353.44087
353.4444
353.44789
353.45076
353.45224
353.45267
353.4585
353.46855
353.46583
353.47741
353.47468
353.47213
353.46709
353.46823
353.45427
353.47739
353.48381
353.48017
274.43008
274.43055
274.4382
274.45552
274.43483
274.43344
274.45695
274.47189
274.46871
274.44973
274.43004
274.46968
274.42757
274.45335
274.43043
274.41352
274.41123
274.42683
274.42151
274.40257
274.40252
274.45866
274.44319
274.40195
274.39811
274.4167
274.40471
274.45072
274.44787
274.39511
196.31661
196.28352
196.28347
196.24185
196.29374
196.27831
196.26287
196.25678
196.25498
196.25519
196.2857
196.27528
196.29964
196.27121
196.28338
196.29157
196.31014
196.29881
196.30215
196.30752
196.27918
196.2473
196.24632
196.27884
196.28733
196.30629
196.28846
196.24474
196.22023
196.27224
117.68201
117.67851
117.66167
117.66179
117.64161
117.66375
117.66262
117.68228
117.68205
117.62607
117.68068
117.62946
117.66397
117.6396
117.64788
117.65669
117.66692
117.6339
117.62747
117.66902
117.65169
117.65335
117.6564
117.65986
117.68597
117.67821
117.66694
117.64732
117.63201
117.64508
39.254449
39.249561
39.239882
39.246216
39.255774
39.239023
39.229129
39.228805
39.221443
39.248757
39.246814
39.250872
39.227008
39.252487
39.246588
39.245755
39.252903
39.276669
39.275877
39.258828
39.257587
39.258677
39.251239
39.235159
39.227129
39.231542
39.21687
39.21674
39.237937
39.234808
353.44484
353.43735
353.43406
353.44778
353.44964
353.43851
353.44719
353.4526
353.45093
353.45862
353.44633
353.44371
353.45321
353.46998
353.47044
353.47328
353.47321
353.48356
353.47917
353.48112
353.47096
353.48918
353.4751
353.49678
353.50309
353.49973
274.42831
274.42339
274.43652
274.48044
274.47209
274.45099
274.44866
274.47794
274.49914
274.49117
274.44711
274.42922
274.42256
274.45964
274.43127
274.40272
274.41004
274.43046
274.39193
274.39223
274.40705
274.44516
274.44163
274.4846
274.45039
274.39131
196.31043
196.26855
196.26153
196.26013
196.26115
196.31163
196.28213
196.23733
196.26952
196.23062
196.23033
196.24499
196.27385
196.25357
196.26956
196.27861
196.31174
196.23862
196.30499
196.28724
196.28931
196.27609
196.27033
196.25469
196.24165
196.29618
117.67766
117.65675
117.65082
117.6644
117.66836
117.66731
117.65918
117.65464
117.66013
117.65761
117.65298
117.65176
117.69152
117.66302
117.66061
117.66593
117.65807
117.65575
117.67064
117.68185
117.67701
117.69473
117.64317
117.63577
117.61933
117.65905
39.258817
39.249278
39.241738
39.22811
39.230343
39.223663
39.235923
39.240759
39.230185
39.254346
39.251216
39.236283
39.23088
39.235831
39.240942
39.243401
39.265853
39.260448
39.236311
39.227774
39.231533
39.235344
39.209989
39.23549
39.248854
39.24985
353.45066
353.44107
353.46194
353.45994
353.45992
353.45772
353.45861
353.44746
353.4582
353.4491
353.44127
353.44458
353.44143
353.48407
353.48764
353.47751
353.48047
353.48172
353.47885
353.46773
353.47911
353.49625
353.48163
353.50647
353.50237
353.50202
274.42736
274.42503
274.48403
274.5093
274.47696
274.45114
274.42006
274.42135
274.46768
274.4474
274.41582
274.42736
274.44652
274.48593
274.45702
274.41131
274.41464
274.40441
274.38858
274.3877
274.43559
274.47174
274.45131
274.44902
274.37846
274.37764
196.28439
196.24762
196.2335
196.2433
196.25933
196.26586
196.27664
196.27498
196.22924
196.25645
196.27813
196.30314
196.31161
196.27801
196.27537
196.29668
196.2831
196.30017
196.29107
196.27171
196.25898
196.26863
196.26787
196.25527
196.26798
196.32139
117.68323
117.6354
117.65447
117.6572
117.67911
117.67302
117.67052
117.65145
117.65873
117.65595
117.66618
117.66977
117.64327
117.69031
117.66886
117.63863
117.62621
117.60931
117.67026
117.62855
117.66424
117.67098
117.62837
117.62431
117.60218
117.67657
39.258781
39.253789
39.243191
39.227329
39.22187
39.22538
39.234515
39.251896
39.258127
39.260776
39.260435
39.258035
39.26415
39.233822
39.219323
39.229271
39.268214
39.283943
39.258783
39.249754
39.233806
39.231616
39.223512
39.254338
39.264514
39.281132
353.46352
353.46011
353.4764
353.45219
353.44703
353.44524
353.45107
353.44724
353.44936
353.45159
353.45313
353.44976
353.45201
353.47154
353.48639
353.47463
353.48956
353.48605
353.47902
353.48302
353.47729
353.48176
353.4758
353.47331
353.48232
353.49184
353.48131
353.50418
353.49689
353.49987
274.4187
274.42883
274.49451
274.46806
274.42762
274.42466
274.41301
274.40885
274.41836
274.41806
274.40825
274.41046
274.43477
274.46797
274.49645
274.45105
274.46891
274.46281
274.39604
274.43573
274.40921
274.38541
274.38989
274.40845
274.45727
274.46729
274.45796
274.44726
274.38098
274.37944
196.28561
196.25422
196.24137
196.24726
196.28427
196.28749
196.31585
196.31832
196.29014
196.30754
196.31592
196.26079
196.25544
196.23603
196.23479
196.26599
196.27242
196.23593
196.28933
196.28365
196.28683
196.2878
196.29045
196.25828
196.2472
196.27308
196.27915
196.24327
196.26242
196.3186
117.6833
117.6212
117.652
117.64004
117.66495
117.65419
117.67221
117.66681
117.63977
117.66943
117.67286
117.68062
117.62689
117.65319
117.63895
117.66903
117.68532
117.64074
117.66857
117.63953
117.61904
117.67423
117.67785
117.63943
117.6421
117.6714
117.63904
117.62071
117.59863
117.68569
39.263346
39.260808
39.258062
39.237447
39.231026
39.248104
39.254379
39.266119
39.288181
39.26255
39.276322
39.261296
39.264657
39.260881
39.24859
39.226027
39.234209
39.239902
39.247156
39.257649
39.263256
39.266097
39.261613
39.261807
39.244998
39.237565
39.231205
39.260682
39.274865
39.29164
353.44694
353.44654
353.44864
353.43851
353.44879
353.446
353.45138
353.43785
353.44569
353.44567
353.44798
353.44888
353.45554
353.4628
353.46609
353.47051
353.47208
353.49415
353.48317
353.48283
353.47986
353.48415
353.48011
353.47686
353.48628
353.49035
353.48958
353.50648
353.50318
353.50429
274.41954
274.44006
274.44796
274.42724
274.42366
274.41423
274.418
274.44832
274.4339
274.42039
274.40667
274.42823
274.4036
274.40202
274.41764
274.40972
274.40978
274.44664
274.42208
274.37353
274.38234
274.38294
274.38304
274.39444
274.42209
274.44847
274.45515
274.44008
274.389
274.37587
196.28644
196.27219
196.25727
196.27501
196.30718
196.31276
196.31205
196.31591
196.30863
196.31827
196.31673
196.30431
196.31761
196.30932
196.291
196.32473
196.29819
196.25571
196.29664
196.27835
196.30878
196.32571
196.30981
196.27172
196.25474
196.27273
196.28105
196.25237
196.26676
196.31076
117.67656
117.64111
117.64707
117.65734
117.68352
117.69775
117.69858
117.64155
117.64254
117.671
117.66822
117.62841
117.67441
117.66286
117.64033
117.67642
117.65279
117.65989
117.63665
117.68509
117.67656
117.69037
117.67761
117.6273
117.62741
117.66438
117.63756
117.62012
117.58694
117.68188
39.250421
39.259481
39.239586
39.22663
39.233914
39.239313
39.239242
39.258821
39.278212
39.263366
39.26466
39.278775
39.257214
39.245739
39.257139
39.227386
39.242535
39.250526
39.265298
39.259574
39.270328
39.284158
39.274166
39.273186
39.260318
39.248005
39.235766
39.247011
39.271028
39.284406
353.46673
353.46974
353.46608
353.4465
353.44876
353.44729
353.44686
353.44723
353.4504
353.44573
353.44488
353.47079
353.46614
353.46969
353.46909
353.4715
353.4804
353.47548
353.47057
353.4746
353.48155
353.48147
353.48433
353.48567
353.48117
353.47971
353.47471
353.49901
353.49622
353.49831
274.42467
274.46804
274.46955
274.43852
274.43035
274.42621
274.42918
274.41194
274.41512
274.4227
274.41767
274.47348
274.45425
274.42337
274.41288
274.39622
274.39281
274.38875
274.39974
274.42186
274.43095
274.38737
274.38073
274.3838
274.37443
274.41247
274.40332
274.42396
274.38536
274.37412
196.27943
196.2319
196.26206
196.3085
196.29435
196.30508
196.29736
196.3148
196.30253
196.28774
196.27106
196.24434
196.25816
196.29085
196.28621
196.30263
196.32198
196.29817
196.28581
196.27794
196.25228
196.27826
196.30248
196.31762
196.28658
196.26698
196.3065
196.26093
196.26943
196.29793
117.65572
117.63209
117.66591
117.66739
117.65452
117.63965
117.63123
117.67364
117.66949
117.66237
117.65484
117.64781
117.65206
117.66781
117.66608
117.66521
117.68583
117.67768
117.66106
117.65675
117.63654
117.6337
117.68365
117.68145
117.64592
117.63249
117.65084
117.63657
117.58294
117.66666
39.236303
39.230308
39.218285
39.226551
39.236014
39.260673
39.275094
39.246697
39.241431
39.234729
39.239667
39.243378
39.238201
39.230757
39.241559
39.247578
39.262395
39.260154
39.251644
39.246367
39.260663
39.277816
39.269234
39.279054
39.250891
39.259201
39.237199
39.235805
39.253711
39.261475
353.45933
353.46224
353.45893
353.44825
353.44471
353.46204
353.46569
353.45491
353.45532
353.44842
353.46765
353.46127
353.47186
353.47361
353.4765
353.47501
353.48008
353.47841
353.47968
353.48798
353.48511
353.49263
353.48347
353.48631
353.48242
353.49299
353.4897
353.50378
353.50227
353.50094
274.42163
274.43919
274.47035
274.46545
274.43598
274.48783
274.48418
274.42836
274.42001
274.43552
274.48006
274.48336
274.48837
274.47259
274.46665
274.44632
274.40511
274.41192
274.44347
274.46892
274.47735
274.44771
274.4145
274.3899
274.41612
274.45593
274.46734
274.45486
274.40934
274.38749
196.29101
196.26319
196.26212
196.28666
196.31051
196.23142
196.24395
196.29587
196.27987
196.27185
196.25087
196.29718
196.26999
196.27402
196.25884
196.26445
196.28975
196.2942
196.24367
196.27126
196.26798
196.25338
196.27632
196.26299
196.27687
196.2274
196.27048
196.26511
196.2546
196.28906
117.68377
117.60976
117.64194
117.6515
117.66788
117.65081
117.65636
117.65876
117.6802
117.63712
117.66783
117.66384
117.69623
117.67206
117.65519
117.64634
117.68181
117.68211
117.65615
117.69192
117.67868
117.67026
117.64368
117.68192
117.62184
117.64128
117.67041
117.67876
117.61707
117.65565
39.268443
39.263671
39.241101
39.23304
39.234217
39.251288
39.264616
39.254715
39.259561
39.255745
39.245616
39.227109
39.236554
39.230386
39.240219
39.25847
39.252257
39.255539
39.253799
39.24121
39.241622
39.24868
39.26253
39.264758
39.256591
39.243175
39.220759
39.231197
39.228736
39.239607
)
;

boundaryField
{
    minX
    {
        type            calculated;
        value           nonuniform List<scalar> 
50
(
353.4272
274.45786
196.29463
117.67686
39.234193
353.43672
274.44493
196.29573
117.68701
39.237999
353.43739
274.43782
196.3169
117.6848
39.239652
353.44233
274.43008
196.31661
117.68201
39.254449
353.44484
274.42831
196.31043
117.67766
39.258817
353.45066
274.42736
196.28439
117.68323
39.258781
353.46352
274.4187
196.28561
117.6833
39.263346
353.44694
274.41954
196.28644
117.67656
39.250421
353.46673
274.42467
196.27943
117.65572
39.236303
353.45933
274.42163
196.29101
117.68377
39.268443
)
;
    }
    maxX
    {
        type            calculated;
        value           nonuniform List<scalar> 
50
(
353.47078
274.41928
196.30878
117.68402
39.237056
353.46861
274.40018
196.31292
117.67321
39.251954
353.46304
274.39815
196.30678
117.6766
39.249749
353.48017
274.39511
196.27224
117.64508
39.234808
353.49973
274.39131
196.29618
117.65905
39.24985
353.50202
274.37764
196.32139
117.67657
39.281132
353.49987
274.37944
196.3186
117.68569
39.29164
353.50429
274.37587
196.31076
117.68188
39.284406
353.49831
274.37412
196.29793
117.66666
39.261475
353.50094
274.38749
196.28906
117.65565
39.239607
)
;
    }
    minY
    {
        type            calculated;
        value           nonuniform List<scalar> 
292
(
392.4
392.4
392.4
392.4
392.4
392.4
392.4
392.4
392.4
392.4
392.4
392.4
392.4
392.4
392.4
392.4
392.4
392.4
392.4
392.4
392.4
392.4
392.4
392.4
392.4
392.4
392.4
392.4
392.4
392.4
392.4
392.4
392.4
392.4
392.4
392.4
392.4
392.4
392.4
392.4
392.4
392.4
392.4
392.4
392.4
392.4
392.4
392.4
392.4
392.4
392.4
392.4
392.4
392.4
392.4
392.4
392.4
392.4
392.4
392.4
392.4
392.4
392.4
392.4
392.4
392.4
392.4
392.4
392.4
392.4
392.4
392.4
392.4
392.4
392.4
392.4
392.4
392.4
392.4
392.4
392.4
392.4
392.4
392.4
392.4
392.4
392.4
392.4
392.4
392.4
392.4
392.4
392.4
392.4
392.4
392.4
392.4
392.4
392.4
392.4
392.4
392.4
392.4
392.4
392.4
392.4
392.4
392.4
392.4
392.4
392.4
392.4
392.4
392.4
392.4
392.4
392.4
392.4
392.4
392.4
392.4
392.4
392.4
392.4
392.4
392.4
392.4
392.4
392.4
392.4
392.4
392.4
392.4
392.4
392.4
392.4
392.4
392.4
392.4
392.4
392.4
392.4
392.4
392.4
392.4
392.4
392.4
392.4
392.4
392.4
392.4
392.4
392.4
392.4
392.4
392.4
392.4
392.4
392.4
392.4
392.4
392.4
392.4
392.4
392.4
392.4
392.4
392.4
392.4
392.4
392.4
392.4
392.4
392.4
392.4
392.4
392.4
392.4
392.4
392.4
392.4
392.4
392.4
392.4
392.4
392.4
392.4
392.4
392.4
392.4
392.4
392.4
392.4
392.4
392.4
392.4
392.4
392.4
392.4
392.4
392.4
392.4
392.4
392.4
392.4
392.4
392.4
392.4
392.4
392.4
392.4
392.4
392.4
392.4
392.4
392.4
392.4
392.4
392.4
392.4
392.4
392.4
392.4
392.4
392.4
392.4
392.4
392.4
392.4
392.4
392.4
392.4
392.4
392.4
392.4
392.4
392.4
392.4
392.4
392.4
392.4
392.4
392.4
392.4
392.4
392.4
392.4
392.4
392.4
392.4
392.4
392.4
392.4
392.4
392.4
392.4
392.4
392.4
392.4
392.4
392.4
392.4
392.4
392.4
392.4
392.4
392.4
392.4
392.4
392.4
392.4
392.4
392.4
392.4
392.4
392.4
392.4
392.4
392.4
392.4
392.4
392.4
392.4
392.4
392.4
392.4
392.4
392.4
392.4
392.4
392.4
392.4
)
;
    }
    minZ
    {
        type            calculated;
        value           nonuniform List<scalar> 
150
(
353.4272
274.45786
196.29463
117.67686
39.234193
353.44038
274.47353
196.23333
117.65279
39.235532
353.45423
274.49231
196.24657
117.65448
39.253464
353.4531
274.422
196.27649
117.67214
39.250167
353.44588
274.44109
196.32659
117.66718
39.257737
353.45868
274.46374
196.24695
117.65482
39.267452
353.42977
274.44973
196.29608
117.64727
39.251271
353.44717
274.43443
196.307
117.68906
39.233468
353.4391
274.41632
196.27884
117.67729
39.233433
353.44984
274.46929
196.25067
117.64829
39.245234
353.45543
274.49537
196.25892
117.65841
39.25503
353.43551
274.46389
196.29053
117.66272
39.229203
353.45557
274.48843
196.28032
117.68772
39.229553
353.45567
274.4747
196.26807
117.67723
39.222037
353.45824
274.44451
196.26364
117.65177
39.228834
353.45995
274.42059
196.27699
117.6603
39.235084
353.45731
274.4127
196.28334
117.69151
39.244885
353.45483
274.43364
196.27961
117.63827
39.262707
353.46845
274.44906
196.25903
117.67188
39.244435
353.4672
274.46243
196.27537
117.66645
39.228563
353.47711
274.4643
196.23174
117.65604
39.248606
353.46667
274.43216
196.27224
117.65351
39.255033
353.46564
274.4171
196.26602
117.65616
39.244168
353.46798
274.39899
196.29875
117.67662
39.260059
353.4674
274.40293
196.32072
117.67701
39.264434
353.47208
274.40025
196.29852
117.68177
39.262664
353.46045
274.408
196.27426
117.63788
39.262795
353.48451
274.48216
196.24987
117.64782
39.255838
353.47365
274.45888
196.26411
117.65776
39.230333
353.47078
274.41928
196.30878
117.68402
39.237056
)
;
    }
    maxZ
    {
        type            calculated;
        value           nonuniform List<scalar> 
150
(
353.45933
274.42163
196.29101
117.68377
39.268443
353.46224
274.43919
196.26319
117.60976
39.263671
353.45893
274.47035
196.26212
117.64194
39.241101
353.44825
274.46545
196.28666
117.6515
39.23304
353.44471
274.43598
196.31051
117.66788
39.234217
353.46204
274.48783
196.23142
117.65081
39.251288
353.46569
274.48418
196.24395
117.65636
39.264616
353.45491
274.42836
196.29587
117.65876
39.254715
353.45532
274.42001
196.27987
117.6802
39.259561
353.44842
274.43552
196.27185
117.63712
39.255745
353.46765
274.48006
196.25087
117.66783
39.245616
353.46127
274.48336
196.29718
117.66384
39.227109
353.47186
274.48837
196.26999
117.69623
39.236554
353.47361
274.47259
196.27402
117.67206
39.230386
353.4765
274.46665
196.25884
117.65519
39.240219
353.47501
274.44632
196.26445
117.64634
39.25847
353.48008
274.40511
196.28975
117.68181
39.252257
353.47841
274.41192
196.2942
117.68211
39.255539
353.47968
274.44347
196.24367
117.65615
39.253799
353.48798
274.46892
196.27126
117.69192
39.24121
353.48511
274.47735
196.26798
117.67868
39.241622
353.49263
274.44771
196.25338
117.67026
39.24868
353.48347
274.4145
196.27632
117.64368
39.26253
353.48631
274.3899
196.26299
117.68192
39.264758
353.48242
274.41612
196.27687
117.62184
39.256591
353.49299
274.45593
196.2274
117.64128
39.243175
353.4897
274.46734
196.27048
117.67041
39.220759
353.50378
274.45486
196.26511
117.67876
39.231197
353.50227
274.40934
196.2546
117.61707
39.228736
353.50094
274.38749
196.28906
117.65565
39.239607
)
;
    }
    bottomWater_to_rightSolid
    {
        type            calculated;
        value           nonuniform List<scalar> 
130
(
0.022707442
0.0044352431
-0.011437096
0.0086061903
0.015032528
0.0041675992
0.020058709
0.024433986
0.022664236
0.022794575
0.015838231
-0.0096667744
-0.0029443316
0.0031962414
0.010320267
0.008905996
0.0069375441
-0.007945187
-0.0033715804
0.020466236
0.01494626
0.020041364
0.0094932992
0.0052936115
0.0035299301
0.011953705
0.020459711
0.031707289
0.019041471
0.020453565
0.0024417172
-0.0034703405
0.023153711
0.001683243
0.0043910284
-0.015235819
0.0090502559
0.017468791
0.0097494096
0.036669335
0.035876608
0.018828185
0.017586849
0.018677137
0.011238782
-0.0048414799
-0.012871175
-0.008458414
-0.023130252
-0.023260269
-0.0020629328
-0.0051919874
-0.004168561
0.00094189497
0.0034009356
0.025852863
0.02044814
-0.0036892564
-0.012225859
-0.0084667786
-0.0046560174
-0.030010936
-0.0045102088
0.0088541973
0.0098497043
-0.0061775561
-0.020676536
-0.010728509
0.028214462
0.043942579
0.018782978
0.0097542354
-0.0061944432
-0.008384247
-0.016488139
0.014338095
0.024513978
0.041132284
-9.7948764e-05
0.0071561027
0.017648771
0.023256378
0.026096882
0.02161252
0.021806643
0.0049979337
-0.0024353481
-0.0087945554
0.020681767
0.034864693
0.051639989
0.010526378
0.025297769
0.01957391
0.030327521
0.04415839
0.034166274
0.033185896
0.020318035
0.0080049374
-0.0042335945
0.0070108137
0.031028338
0.044406387
0.020154073
0.011643878
0.0063671726
0.020663369
0.037816408
0.029233755
0.039054436
0.010891335
0.019201352
-0.002801247
-0.00419512
0.013710673
0.021474894
0.015538583
0.013798858
0.0012101453
0.0016223418
0.0086802257
0.022529856
0.024757505
0.016590733
0.0031754542
-0.019241444
-0.0088030305
-0.01126383
-0.00039344358
)
;
    }
    bottomWater_to_leftSolid
    {
        type            calculated;
        value           nonuniform List<scalar> 
130
(
-0.0058065678
-0.0044675013
0.01346379
0.010166935
0.017737046
0.02745209
0.011270678
-0.0065324759
-0.0065668051
0.0052342453
0.015029783
-0.010796751
-0.010446586
-0.0020006306
-0.0062508041
0.019313758
0.025464464
0.017134639
0.027994873
0.024173732
0.0049529066
-0.0029020027
0.0037227077
0.0048262323
-0.0083326612
-0.014492132
-0.00034806985
-0.0075581072
0.018860305
0.020055204
0.010744714
0.017968095
0.018205823
-0.0043595487
0.0048288964
-0.0032098806
-0.0088499345
-0.013521277
-0.020569701
0.014448945
0.0095611624
-0.00011829048
0.006215986
0.015774438
-0.00097680289
-0.010871023
-0.011194932
-0.018557077
0.0087574642
0.0068137746
0.010872132
-0.012991503
0.018816696
0.00927809
0.0017381999
-0.011890466
-0.0096574316
-0.01633697
-0.0040772498
0.00075884302
-0.0098149065
0.014346437
0.011215573
-0.0037171933
-0.0091200063
0.018781454
0.013789431
0.0031912475
-0.012670919
-0.018130491
-0.014620424
-0.0054845856
0.011895997
0.018127134
0.020776193
0.0204347
0.018034673
0.02414993
0.02334649
0.020807593
0.018061963
-0.002552501
-0.0089740451
0.0081035813
0.014379127
0.026119205
0.048181319
0.02254973
0.036322113
0.02129573
0.024656794
0.010421446
0.019480685
-0.00041405281
-0.013369509
-0.006086087
-0.00068657033
-0.00075803338
0.018821215
0.038211709
0.02336598
0.024660377
0.038774659
0.017213961
-0.0036968027
-0.0096916864
-0.021715324
-0.013449393
-0.0039862567
0.02067268
0.035094444
0.0066971257
0.0014310457
-0.0052711519
-0.00033261354
0.0033782363
-0.001798548
0.028442663
0.023671421
0.0011012451
-0.006959883
-0.0057829104
0.011287846
0.024616189
0.014714891
0.01956112
0.015745378
0.0056161328
-0.012890607
-0.0034455737
)
;
    }
    bottomWater_to_heater
    {
        type            calculated;
        value           nonuniform List<scalar> 
92
(
-0.017962633
-0.011165577
-0.004916042
0.0048849389
-0.0035870413
0.023539347
0.0050612345
-0.0043665701
-0.0041712714
0.014260547
0.0027954701
0.009161404
353.4444
353.44789
353.45076
353.45224
274.45335
274.43043
274.41352
274.41123
196.27121
196.28338
196.29157
196.31014
117.6396
117.64788
117.65669
117.66692
0.012487063
39.252487
0.0065876296
39.246588
0.0057547972
39.245755
0.012903313
39.252903
353.45321
353.46998
274.42256
274.45964
196.27385
196.25357
117.69152
117.66302
39.23088
39.235831
353.44143
353.47154
353.48639
353.47463
353.48407
353.48956
274.44652
274.46797
274.49645
274.45105
274.48593
274.46891
196.31161
196.23603
196.23479
196.26599
196.27801
196.27242
117.64327
117.65319
117.63895
117.66903
117.69031
117.68532
39.26415
39.260881
39.24859
39.226027
39.233822
39.234209
0.020881385
0.0085904884
-0.013973188
-0.0057907084
0.0057391161
0.017139378
-0.012614356
0.0025350901
-0.009242866
0.001558546
0.0075782084
0.02239458
-0.0096135894
0.00021893976
0.018469652
0.012256947
)
;
    }
}


// ************************************************************************* //
