/*--------------------------------*- C++ -*----------------------------------*\
| =========                 |                                                 |
| \\      /  F ield         | OpenFOAM: The Open Source CFD Toolbox           |
|  \\    /   O peration     | Version:  v2012                                 |
|   \\  /    A nd           | Website:  www.openfoam.com                      |
|    \\/     M anipulation  |                                                 |
\*---------------------------------------------------------------------------*/
FoamFile
{
    version     2.0;
    format      ascii;
    class       volScalarField;
    location    "620/bottomWater";
    object      p_rgh;
}
// * * * * * * * * * * * * * * * * * * * * * * * * * * * * * * * * * * * * * //

dimensions      [1 -1 -2 0 0 0 0];


internalField   nonuniform List<scalar> 
1460
(
0.26720126
0.28037904
0.29423
0.29310451
0.28588402
0.29868272
0.26976932
0.2871683
0.27909609
0.28984117
0.29543452
0.27550969
0.29556862
0.29567415
0.29823942
0.29994535
0.29731255
0.29482974
0.30845409
0.30720383
0.31711164
0.30667499
0.30563807
0.3079764
0.30740041
0.31208132
0.30044623
0.32450614
0.31365089
0.31078297
-0.22213798
-0.20646642
-0.18768813
-0.25799524
-0.23890513
-0.21625939
-0.23027227
-0.24556602
-0.26367734
-0.21070931
-0.18463277
-0.21610813
-0.19156593
-0.20529547
-0.23548744
-0.25940938
-0.26729842
-0.24636067
-0.23094248
-0.21756831
-0.2156964
-0.24783829
-0.26289545
-0.281005
-0.27706504
-0.2797482
-0.27200436
-0.19784125
-0.22111703
-0.26071721
0.094633336
0.033326981
0.046566346
0.076490489
0.12659172
0.046947704
0.096082869
0.10699986
0.078841733
0.05066636
0.058915354
0.090532614
0.080321725
0.068074985
0.063643766
0.076992377
0.083336114
0.079614953
0.059025228
0.075367116
0.031737247
0.07223692
0.066018663
0.098754595
0.12071621
0.098519172
0.074256319
0.049869513
0.064107846
0.10878208
-0.043135858
-0.067209243
-0.065524902
-0.047862099
-0.052822991
-0.065179185
-0.072728987
-0.030942484
-0.042707095
-0.071714317
-0.061591091
-0.057280525
-0.03227608
-0.042770706
-0.068225726
-0.059699981
-0.028491227
-0.081734071
-0.048115616
-0.053553351
-0.063959745
-0.066492156
-0.06383976
-0.043382057
-0.042985074
-0.03823219
-0.082124588
-0.072179029
-0.062241066
-0.035983408
-0.0058065678
-0.0044675013
0.01346379
0.010166935
0.017737046
0.02745209
0.011270678
-0.0065324759
-0.0065668051
0.0052342453
0.015029783
-0.010796751
-0.010446586
-0.017962633
-0.011165577
-0.004916042
0.0048849389
0.022707442
0.0044352431
-0.011437096
0.0086061903
0.015032528
0.0041675992
0.020058709
0.024433986
0.022664236
0.022794575
0.015838231
-0.0096667744
-0.0029443316
0.27671684
0.26410701
0.29902371
0.29861963
0.29226172
0.29016275
0.2896632
0.29003714
0.28710657
0.28664738
0.29595085
0.28703108
0.30107602
0.29270966
0.30631424
0.30742035
0.29978492
0.30818106
0.30691196
0.307666
0.31277514
0.32046338
0.31364314
0.30702365
0.30272543
0.31212573
0.3030772
0.30382827
0.30403184
0.30861478
-0.23507231
-0.24461732
-0.20914868
-0.24485175
-0.26561281
-0.25449761
-0.25077884
-0.26501102
-0.26719298
-0.23679655
-0.208883
-0.20224295
-0.18585525
-0.24045336
-0.17520558
-0.21823546
-0.27338924
-0.27851017
-0.28305779
-0.27570464
-0.24939831
-0.21459767
-0.22420286
-0.26434399
-0.28020152
-0.2862215
-0.27356438
-0.26451723
-0.26526708
-0.27981617
0.095725093
0.063359845
0.037184187
0.064546738
0.095794881
0.10865282
0.10502732
0.10796816
0.061746115
0.054150977
0.037459917
0.063510621
0.074202831
0.070544883
0.060315505
0.038338245
0.063570879
0.083274687
0.10020904
0.072447384
0.059691012
0.062403848
0.05813283
0.059026912
0.089879783
0.11016858
0.10145703
0.089037763
0.092465389
0.11291904
-0.032994922
-0.074189444
-0.057911164
-0.071005087
-0.038696691
-0.048528735
-0.056429929
-0.029583023
-0.027264361
-0.080519163
-0.064630337
-0.044621999
-0.046838558
-0.066030212
-0.0707136
-0.071867444
-0.059158161
-0.030967462
-0.055660106
-0.06787439
-0.076271187
-0.046139558
-0.046733289
-0.078045264
-0.059687029
-0.046370743
-0.079159585
-0.066140777
-0.068262774
-0.046794609
-0.0020006306
-0.0062508041
0.019313758
0.025464464
0.017134639
0.027994873
0.024173732
0.0049529066
-0.0029020027
0.0037227077
0.0048262323
-0.0083326612
-0.014492132
-0.0035870413
0.023539347
0.0050612345
-0.0043665701
0.0031962414
0.010320267
0.008905996
0.0069375441
-0.007945187
-0.0033715804
0.020466236
0.01494626
0.020041364
0.0094932992
0.0052936115
0.0035299301
0.011953705
0.27738883
0.27666755
0.27022082
0.29130675
0.2791365
0.2826263
0.27890861
0.27918113
0.28987816
0.28983634
0.28991097
0.28715606
0.30336054
0.2952622
0.30761189
0.29721023
0.2981338
0.30505749
0.30513437
0.30442105
0.30765905
0.31545597
0.31605342
0.31589426
0.30573347
0.31074846
0.30242178
0.30368694
0.29653192
0.30303821
-0.24217546
-0.24432019
-0.23322928
-0.21954824
-0.26504893
-0.26243878
-0.24573663
-0.25850669
-0.22991342
-0.24981679
-0.25001087
-0.23534125
-0.21212613
-0.20372091
-0.20890845
-0.26147186
-0.28029471
-0.27889971
-0.27495027
-0.28170295
-0.25543704
-0.21233867
-0.20336213
-0.24177965
-0.27377425
-0.27583887
-0.27455005
-0.26155177
-0.26023286
-0.28185064
0.11689628
0.081817465
0.0732319
0.043917974
0.10032429
0.11029582
0.097554913
0.10279243
0.079399444
0.090487939
0.071600992
0.078056941
0.058820746
0.050000115
0.039576533
0.049005539
0.073469387
0.10218767
0.11059699
0.081996136
0.059018256
0.053259811
0.070297025
0.043365476
0.083463187
0.098589808
0.10219885
0.090476096
0.092275478
0.10677536
-0.035197106
-0.056253387
-0.067510245
-0.06259319
-0.059911856
-0.038010795
-0.096818766
-0.05098377
-0.0592555
-0.035068433
-0.044122663
-0.048147857
-0.046380555
-0.065257767
-0.067324388
-0.072576271
-0.053655949
-0.032194336
-0.037617131
-0.051599374
-0.085779925
-0.058503599
-0.046866615
-0.048093987
-0.064008405
-0.038645493
-0.06392644
-0.077443128
-0.09410524
-0.043399336
-0.00034806985
-0.0075581072
0.018860305
0.020055204
0.010744714
0.017968095
0.018205823
-0.0043595487
0.0048288964
-0.0032098806
-0.0088499345
-0.013521277
-0.020569701
-0.0041712714
0.014260547
0.0027954701
0.009161404
0.020459711
0.031707289
0.019041471
0.020453565
0.0024417172
-0.0034703405
0.023153711
0.001683243
0.0043910284
-0.015235819
0.0090502559
0.017468791
0.0097494096
0.28233114
0.28026272
0.27038209
0.29713996
0.29062212
0.28940759
0.29902563
0.29652049
0.30051644
0.28524798
0.28425666
0.29203944
0.28086936
0.28439695
0.28789445
0.29076042
0.29224144
0.29267044
0.29849872
0.30854627
0.30583252
0.31741
0.31467671
0.31212755
0.3070898
0.30822788
0.29427203
0.31739419
0.32381418
0.32016674
-0.24991773
-0.24944945
-0.24179525
-0.22447677
-0.24517142
-0.24655727
-0.2230529
-0.20811307
-0.2112864
-0.23026766
-0.24995682
-0.2103234
-0.25243219
-0.22664631
-0.24956679
-0.26648101
-0.26876533
-0.25316869
-0.25848636
-0.27743447
-0.2774832
-0.22134314
-0.23681137
-0.27805394
-0.28188581
-0.2633025
-0.27529167
-0.22927664
-0.23212993
-0.28488579
0.11661426
0.08352282
0.083468816
0.041852767
0.093743619
0.0783051
0.062870722
0.056783942
0.0549845
0.055191728
0.085695348
0.07527866
0.099636677
0.071208705
0.083383123
0.091574896
0.1101439
0.098813555
0.10214749
0.10752473
0.079178774
0.047303381
0.046321045
0.078844787
0.087333437
0.10629288
0.088462081
0.044738085
0.020233199
0.072237608
-0.037986724
-0.041485695
-0.058329402
-0.058209003
-0.078389945
-0.056254822
-0.057378637
-0.037717834
-0.037945809
-0.093929445
-0.039320913
-0.090535286
-0.056025036
-0.080396663
-0.072120102
-0.063308649
-0.053080717
-0.086097092
-0.092531954
-0.050977302
-0.068308433
-0.066645737
-0.063598914
-0.060142232
-0.034025128
-0.04178841
-0.05306235
-0.07268135
-0.087990902
-0.074924851
0.014448945
0.0095611624
-0.00011829048
0.006215986
0.015774438
-0.00097680289
-0.010871023
-0.011194932
-0.018557077
0.0087574642
0.0068137746
0.010872132
-0.012991503
0.012487063
0.0065876296
0.0057547972
0.012903313
0.036669335
0.035876608
0.018828185
0.017586849
0.018677137
0.011238782
-0.0048414799
-0.012871175
-0.008458414
-0.023130252
-0.023260269
-0.0020629328
-0.0051919874
0.28484359
0.27734721
0.27406112
0.28778008
0.28963869
0.27850514
0.28719318
0.29259961
0.29092681
0.29862007
0.28632609
0.28371437
0.2932109
0.30997626
0.31044167
0.31328455
0.31321381
0.32356488
0.31917497
0.32111988
0.31095694
0.32917823
0.31509641
0.33678327
0.34308921
0.33973373
-0.25169401
-0.25660659
-0.24348042
-0.19955522
-0.20791411
-0.22901196
-0.23134215
-0.20205961
-0.18086082
-0.18883445
-0.2328857
-0.25077854
-0.25744427
-0.22036082
-0.24872936
-0.27727995
-0.2699618
-0.24953963
-0.28807154
-0.2877675
-0.27294796
-0.23484328
-0.23837011
-0.19540015
-0.22960978
-0.28869006
0.11042863
0.068548269
0.061527985
0.060131093
0.061146603
0.11163279
0.082128196
0.037325687
0.069524409
0.030624485
0.030333489
0.04499311
0.073847696
0.053566006
0.069557041
0.078611483
0.1117369
0.038621382
0.10499349
0.0872431
0.089308967
0.076086406
0.070328606
0.054694405
0.041654325
0.096180188
-0.042339341
-0.063249415
-0.069182889
-0.055602815
-0.051637101
-0.052687366
-0.060821075
-0.06536189
-0.059868745
-0.062385288
-0.067015969
-0.068239197
-0.028481465
-0.056980032
-0.059394746
-0.054070056
-0.061925615
-0.064252552
-0.04935553
-0.038150214
-0.042989873
-0.025269294
-0.076834094
-0.084233294
-0.10067152
-0.060948636
0.018816696
0.00927809
0.0017381999
-0.011890466
-0.0096574316
-0.01633697
-0.0040772498
0.00075884302
-0.0098149065
0.014346437
0.011215573
-0.0037171933
-0.0091200063
-0.004168561
0.00094189497
0.0034009356
0.025852863
0.02044814
-0.0036892564
-0.012225859
-0.0084667786
-0.0046560174
-0.030010936
-0.0045102088
0.0088541973
0.0098497043
0.2906563
0.28107437
0.30194351
0.29994087
0.29991981
0.29772212
0.29860532
0.28746296
0.29820357
0.28909579
0.28127473
0.28457896
0.28143186
0.3240698
0.32763649
0.31750854
0.32047231
0.32171789
0.31884903
0.30773231
0.31911249
0.33624512
0.32163319
0.34647315
0.34237157
0.34202371
-0.2526396
-0.25497058
-0.19596922
-0.17070006
-0.20304107
-0.2288588
-0.25994423
-0.25864886
-0.21231739
-0.23259603
-0.26417506
-0.25263651
-0.23348388
-0.19407026
-0.22298033
-0.26869254
-0.26535751
-0.27559443
-0.29142407
-0.29230233
-0.24440968
-0.20825595
-0.22869165
-0.2309832
-0.30154177
-0.30235732
0.084388484
0.047616029
0.03350198
0.043295928
0.059332302
0.065860606
0.076636004
0.07497841
0.029241847
0.056453467
0.078129064
0.10313971
0.11161012
0.078008387
0.075370341
0.096675562
0.083097147
0.10017337
0.091067021
0.07171284
0.058978991
0.068627042
0.067868198
0.055270681
0.067976709
0.1213945
-0.036768079
-0.08460222
-0.065528977
-0.062801614
-0.040893343
-0.046976979
-0.049481156
-0.068552239
-0.061274262
-0.064050708
-0.053821965
-0.050231857
-0.076728587
-0.029692947
-0.05114358
-0.081371926
-0.093793065
-0.11069256
-0.049744275
-0.091452331
-0.055761141
-0.049017419
-0.09163309
-0.095694934
-0.11782382
-0.043428796
0.018781454
0.013789431
0.0031912475
-0.012670919
-0.018130491
-0.014620424
-0.0054845856
0.011895997
0.018127134
0.020776193
0.0204347
0.018034673
0.02414993
-0.0061775561
-0.020676536
-0.010728509
0.028214462
0.043942579
0.018782978
0.0097542354
-0.0061944432
-0.008384247
-0.016488139
0.014338095
0.024513978
0.041132284
0.30352182
0.30010538
0.31640013
0.29219046
0.28703205
0.28524463
0.29106894
0.28723591
0.28936318
0.29159203
0.29313291
0.28975577
0.29200859
0.31154029
0.32639029
0.31463286
0.32955768
0.32604523
0.31901846
0.32301566
0.31729332
0.32175798
0.3158016
0.31330794
0.32231988
0.33183757
0.32130623
0.34417732
0.33688911
0.33987125
-0.26129879
-0.25117264
-0.18548838
-0.21193689
-0.25238134
-0.25533505
-0.26699367
-0.27114647
-0.26164469
-0.26193881
-0.27175223
-0.26954175
-0.24522647
-0.21203174
-0.18354984
-0.22895085
-0.21108572
-0.21718688
-0.28396182
-0.24426693
-0.27078882
-0.29459293
-0.29011181
-0.27155244
-0.22273084
-0.21270657
-0.22204035
-0.23274444
-0.29901959
-0.3005588
0.08560974
0.054215244
0.041366663
0.047257461
0.084273395
0.087488687
0.11585189
0.11831925
0.090141872
0.1075441
0.11591699
0.060786669
0.055443505
0.036032718
0.034787425
0.065985525
0.072417934
0.035925833
0.089329125
0.083650736
0.086831386
0.087801744
0.090448774
0.058282286
0.047196025
0.073076211
0.07914904
0.043273731
0.062415052
0.11859875
-0.036697432
-0.098801623
-0.068003391
-0.079955373
-0.055047909
-0.065805019
-0.047790339
-0.053189323
-0.08023333
-0.050570408
-0.047141297
-0.039383125
-0.09311444
-0.066805126
-0.081051556
-0.05096988
-0.034683849
-0.079264648
-0.051433116
-0.080466212
-0.10096156
-0.045774118
-0.042146295
-0.080566432
-0.077896569
-0.048595156
-0.080959222
-0.099286962
-0.12137076
-0.034306824
0.02334649
0.020807593
0.018061963
-0.002552501
-0.0089740451
0.0081035813
0.014379127
0.026119205
0.048181319
0.02254973
0.036322113
0.02129573
0.024656794
0.020881385
0.0085904884
-0.013973188
-0.0057907084
-9.7948764e-05
0.0071561027
0.017648771
0.023256378
0.026096882
0.02161252
0.021806643
0.0049979337
-0.0024353481
-0.0087945554
0.020681767
0.034864693
0.051639989
0.28694141
0.28654303
0.28864215
0.27851014
0.28878776
0.2860014
0.29138124
0.27784569
0.28569208
0.28567181
0.28797726
0.28888071
0.29554493
0.30279509
0.306091
0.31050807
0.31207686
0.33414663
0.32317002
0.32283008
0.31986047
0.32414513
0.32010959
0.31686183
0.32627729
0.33034695
0.32957565
0.3464753
0.3431827
0.34428569
-0.26045516
-0.23994476
-0.2320403
-0.25275833
-0.25633946
-0.26577417
-0.26199946
-0.23167659
-0.24610288
-0.25961304
-0.27333401
-0.25177306
-0.27640268
-0.2779804
-0.26235735
-0.27028259
-0.27021685
-0.23336024
-0.25792058
-0.3064687
-0.2976587
-0.29705965
-0.2969608
-0.28556278
-0.25791113
-0.23152624
-0.22484546
-0.23992486
-0.29100316
-0.30412802
0.08643985
0.072190823
0.057271987
0.075011349
0.10717916
0.11275941
0.11204928
0.11590962
0.10863098
0.11826826
0.11672985
0.10431205
0.11760516
0.10932141
0.091001541
0.12473331
0.098186496
0.055706307
0.096638004
0.078350216
0.10878035
0.12571482
0.10981216
0.07172484
0.054740998
0.072732548
0.081054729
0.052369462
0.066758194
0.11076175
-0.043442893
-0.07888922
-0.072925677
-0.062659839
-0.036475143
-0.02225217
-0.021423419
-0.078453544
-0.077459147
-0.049001595
-0.05177646
-0.091588262
-0.045593499
-0.057139859
-0.079673824
-0.04357628
-0.067205149
-0.060108199
-0.083350575
-0.034912166
-0.043442304
-0.029629551
-0.042393628
-0.092695216
-0.092589834
-0.055623518
-0.082438594
-0.099882679
-0.13305581
-0.038115989
0.010421446
0.019480685
-0.00041405281
-0.013369509
-0.006086087
-0.00068657033
-0.00075803338
0.018821215
0.038211709
0.02336598
0.024660377
0.038774659
0.017213961
0.0057391161
0.017139378
-0.012614356
0.0025350901
0.010526378
0.025297769
0.01957391
0.030327521
0.04415839
0.034166274
0.033185896
0.020318035
0.0080049374
-0.0042335945
0.0070108137
0.031028338
0.044406387
0.30673492
0.30974215
0.30607929
0.28649748
0.2887647
0.28728908
0.28685724
0.28723151
0.29039587
0.28573129
0.284884
0.31078939
0.30614134
0.30969338
0.30909495
0.31150262
0.32040131
0.31547993
0.31057305
0.31460009
0.32154861
0.32146759
0.32432709
0.32567006
0.32116837
0.31970588
0.31471029
0.33900716
0.33622183
0.33830994
-0.25533019
-0.21196215
-0.21044903
-0.24147932
-0.24965447
-0.25379098
-0.25081756
-0.26805828
-0.26488368
-0.25729629
-0.26233264
-0.20652183
-0.22574811
-0.2566284
-0.26712244
-0.28378277
-0.28719257
-0.29124805
-0.28025931
-0.25814007
-0.24905174
-0.29263203
-0.29927337
-0.29620029
-0.30556807
-0.26752602
-0.27668344
-0.25604465
-0.29464412
-0.30587962
0.079429692
0.031900587
0.062058182
0.10850409
0.094350182
0.10507801
0.097359106
0.11479762
0.1025267
0.087735867
0.071056132
0.044342714
0.058161187
0.090846019
0.086212437
0.10262965
0.1219817
0.098172287
0.085805389
0.077939538
0.052281562
0.078263181
0.10247804
0.11761773
0.086580694
0.066977143
0.10649593
0.0609333
0.069427205
0.09793227
-0.064279689
-0.087913111
-0.054091159
-0.052613499
-0.065477046
-0.080354973
-0.088772129
-0.046361377
-0.050512758
-0.057631523
-0.065162848
-0.07219377
-0.067944617
-0.05218657
-0.053919779
-0.054786743
-0.03417377
-0.042318064
-0.05894443
-0.063248465
-0.083460719
-0.086301491
-0.036349309
-0.038554256
-0.074082735
-0.087511379
-0.069158393
-0.08343454
-0.13705589
-0.053341229
-0.0036968027
-0.0096916864
-0.021715324
-0.013449393
-0.0039862567
0.02067268
0.035094444
0.0066971257
0.0014310457
-0.0052711519
-0.00033261354
0.0033782363
-0.001798548
-0.009242866
0.001558546
0.0075782084
0.02239458
0.020154073
0.011643878
0.0063671726
0.020663369
0.037816408
0.029233755
0.039054436
0.010891335
0.019201352
-0.002801247
-0.00419512
0.013710673
0.021474894
0.29933064
0.30223707
0.29893208
0.28824655
0.28471272
0.30203588
0.30568898
0.29490538
0.29532256
0.28841605
0.30765271
0.30127437
0.31185843
0.31361124
0.31649768
0.31501149
0.32008179
0.31841268
0.31968206
0.32797933
0.32511028
0.33263326
0.32347027
0.32631301
0.32241846
0.33299313
0.32969988
0.3437757
0.34226781
0.34094362
-0.25836511
-0.24081162
-0.2096533
-0.2145477
-0.24402455
-0.19216858
-0.1958209
-0.25164484
-0.25999346
-0.24448404
-0.19993644
-0.19664194
-0.1916346
-0.20740999
-0.21335234
-0.23367749
-0.2748891
-0.26807618
-0.23653497
-0.21108217
-0.20265071
-0.23229287
-0.26550283
-0.29009773
-0.2638804
-0.22406774
-0.21266426
-0.22514275
-0.27065569
-0.29250657
0.091011596
0.06319461
0.062117997
0.086656911
0.11050883
0.031416347
0.043952517
0.095866401
0.079867119
0.071845246
0.050869806
0.097181525
0.069987382
0.074017934
0.058840018
0.064451851
0.089748206
0.094195186
0.043665576
0.071259453
0.06798281
0.053381077
0.076316721
0.062985284
0.076866513
0.027404022
0.070481682
0.065114795
0.054600699
0.089061516
-0.036226008
-0.11023685
-0.07805786
-0.068498116
-0.052117747
-0.069186677
-0.063638006
-0.061236145
-0.039795522
-0.082883696
-0.052166966
-0.05615653
-0.023773268
-0.047935115
-0.064807886
-0.073662515
-0.038187916
-0.037891
-0.063849591
-0.028077476
-0.04132185
-0.049737102
-0.076317395
-0.038079001
-0.098155301
-0.078724428
-0.049588686
-0.04124257
-0.10293498
-0.064347093
0.028442663
0.023671421
0.0011012451
-0.006959883
-0.0057829104
0.011287846
0.024616189
0.014714891
0.01956112
0.015745378
0.0056161328
-0.012890607
-0.0034455737
-0.0096135894
0.00021893976
0.018469652
0.012256947
0.015538583
0.013798858
0.0012101453
0.0016223418
0.0086802257
0.022529856
0.024757505
0.016590733
0.0031754542
-0.019241444
-0.0088030305
-0.01126383
-0.00039344358
)
;

boundaryField
{
    minX
    {
        type            fixedFluxPressure;
        gradient        uniform 0;
        value           nonuniform List<scalar> 
50
(
0.26720126
-0.22213798
0.094633336
-0.043135858
-0.0058065678
0.27671684
-0.23507231
0.095725093
-0.032994922
-0.0020006306
0.27738883
-0.24217546
0.11689628
-0.035197106
-0.00034806985
0.28233114
-0.24991773
0.11661426
-0.037986724
0.014448945
0.28484359
-0.25169401
0.11042863
-0.042339341
0.018816696
0.2906563
-0.2526396
0.084388484
-0.036768079
0.018781454
0.30352182
-0.26129879
0.08560974
-0.036697432
0.02334649
0.28694141
-0.26045516
0.08643985
-0.043442893
0.010421446
0.30673492
-0.25533019
0.079429692
-0.064279689
-0.0036968027
0.29933064
-0.25836511
0.091011596
-0.036226008
0.028442663
)
;
    }
    maxX
    {
        type            fixedFluxPressure;
        gradient        uniform 0;
        value           nonuniform List<scalar> 
50
(
0.31078297
-0.26071721
0.10878208
-0.035983408
-0.0029443316
0.30861478
-0.27981617
0.11291904
-0.046794609
0.011953705
0.30303821
-0.28185064
0.10677536
-0.043399336
0.0097494096
0.32016674
-0.28488579
0.072237608
-0.074924851
-0.0051919874
0.33973373
-0.28869006
0.096180188
-0.060948636
0.0098497043
0.34202371
-0.30235732
0.1213945
-0.043428796
0.041132284
0.33987125
-0.3005588
0.11859875
-0.034306824
0.051639989
0.34428569
-0.30412802
0.11076175
-0.038115989
0.044406387
0.33830994
-0.30587962
0.09793227
-0.053341229
0.021474894
0.34094362
-0.29250657
0.089061516
-0.064347093
-0.00039344358
)
;
    }
    minY
    {
        type            fixedValue;
        value           uniform 0;
    }
    minZ
    {
        type            fixedFluxPressure;
        gradient        uniform 0;
        value           nonuniform List<scalar> 
150
(
0.26720126
-0.22213798
0.094633336
-0.043135858
-0.0058065678
0.28037904
-0.20646642
0.033326981
-0.067209243
-0.0044675013
0.29423
-0.18768813
0.046566346
-0.065524902
0.01346379
0.29310451
-0.25799524
0.076490489
-0.047862099
0.010166935
0.28588402
-0.23890513
0.12659172
-0.052822991
0.017737046
0.29868272
-0.21625939
0.046947704
-0.065179185
0.02745209
0.26976932
-0.23027227
0.096082869
-0.072728987
0.011270678
0.2871683
-0.24556602
0.10699986
-0.030942484
-0.0065324759
0.27909609
-0.26367734
0.078841733
-0.042707095
-0.0065668051
0.28984117
-0.21070931
0.05066636
-0.071714317
0.0052342453
0.29543452
-0.18463277
0.058915354
-0.061591091
0.015029783
0.27550969
-0.21610813
0.090532614
-0.057280525
-0.010796751
0.29556862
-0.19156593
0.080321725
-0.03227608
-0.010446586
0.29567415
-0.20529547
0.068074985
-0.042770706
-0.017962633
0.29823942
-0.23548744
0.063643766
-0.068225726
-0.011165577
0.29994535
-0.25940938
0.076992377
-0.059699981
-0.004916042
0.29731255
-0.26729842
0.083336114
-0.028491227
0.0048849389
0.29482974
-0.24636067
0.079614953
-0.081734071
0.022707442
0.30845409
-0.23094248
0.059025228
-0.048115616
0.0044352431
0.30720383
-0.21756831
0.075367116
-0.053553351
-0.011437096
0.31711164
-0.2156964
0.031737247
-0.063959745
0.0086061903
0.30667499
-0.24783829
0.07223692
-0.066492156
0.015032528
0.30563807
-0.26289545
0.066018663
-0.06383976
0.0041675992
0.3079764
-0.281005
0.098754595
-0.043382057
0.020058709
0.30740041
-0.27706504
0.12071621
-0.042985074
0.024433986
0.31208132
-0.2797482
0.098519172
-0.03823219
0.022664236
0.30044623
-0.27200436
0.074256319
-0.082124588
0.022794575
0.32450614
-0.19784125
0.049869513
-0.072179029
0.015838231
0.31365089
-0.22111703
0.064107846
-0.062241066
-0.0096667744
0.31078297
-0.26071721
0.10878208
-0.035983408
-0.0029443316
)
;
    }
    maxZ
    {
        type            fixedFluxPressure;
        gradient        uniform 0;
        value           nonuniform List<scalar> 
150
(
0.29933064
-0.25836511
0.091011596
-0.036226008
0.028442663
0.30223707
-0.24081162
0.06319461
-0.11023685
0.023671421
0.29893208
-0.2096533
0.062117997
-0.07805786
0.0011012451
0.28824655
-0.2145477
0.086656911
-0.068498116
-0.006959883
0.28471272
-0.24402455
0.11050883
-0.052117747
-0.0057829104
0.30203588
-0.19216858
0.031416347
-0.069186677
0.011287846
0.30568898
-0.1958209
0.043952517
-0.063638006
0.024616189
0.29490538
-0.25164484
0.095866401
-0.061236145
0.014714891
0.29532256
-0.25999346
0.079867119
-0.039795522
0.01956112
0.28841605
-0.24448404
0.071845246
-0.082883696
0.015745378
0.30765271
-0.19993644
0.050869806
-0.052166966
0.0056161328
0.30127437
-0.19664194
0.097181525
-0.05615653
-0.012890607
0.31185843
-0.1916346
0.069987382
-0.023773268
-0.0034455737
0.31361124
-0.20740999
0.074017934
-0.047935115
-0.0096135894
0.31649768
-0.21335234
0.058840018
-0.064807886
0.00021893976
0.31501149
-0.23367749
0.064451851
-0.073662515
0.018469652
0.32008179
-0.2748891
0.089748206
-0.038187916
0.012256947
0.31841268
-0.26807618
0.094195186
-0.037891
0.015538583
0.31968206
-0.23653497
0.043665576
-0.063849591
0.013798858
0.32797933
-0.21108217
0.071259453
-0.028077476
0.0012101453
0.32511028
-0.20265071
0.06798281
-0.04132185
0.0016223418
0.33263326
-0.23229287
0.053381077
-0.049737102
0.0086802257
0.32347027
-0.26550283
0.076316721
-0.076317395
0.022529856
0.32631301
-0.29009773
0.062985284
-0.038079001
0.024757505
0.32241846
-0.2638804
0.076866513
-0.098155301
0.016590733
0.33299313
-0.22406774
0.027404022
-0.078724428
0.0031754542
0.32969988
-0.21266426
0.070481682
-0.049588686
-0.019241444
0.3437757
-0.22514275
0.065114795
-0.04124257
-0.0088030305
0.34226781
-0.27065569
0.054600699
-0.10293498
-0.01126383
0.34094362
-0.29250657
0.089061516
-0.064347093
-0.00039344358
)
;
    }
    bottomWater_to_rightSolid
    {
        type            fixedFluxPressure;
        gradient        uniform 0;
        value           nonuniform List<scalar> 
130
(
0.022707442
0.0044352431
-0.011437096
0.0086061903
0.015032528
0.0041675992
0.020058709
0.024433986
0.022664236
0.022794575
0.015838231
-0.0096667744
-0.0029443316
0.0031962414
0.010320267
0.008905996
0.0069375441
-0.007945187
-0.0033715804
0.020466236
0.01494626
0.020041364
0.0094932992
0.0052936115
0.0035299301
0.011953705
0.020459711
0.031707289
0.019041471
0.020453565
0.0024417172
-0.0034703405
0.023153711
0.001683243
0.0043910284
-0.015235819
0.0090502559
0.017468791
0.0097494096
0.036669335
0.035876608
0.018828185
0.017586849
0.018677137
0.011238782
-0.0048414799
-0.012871175
-0.008458414
-0.023130252
-0.023260269
-0.0020629328
-0.0051919874
-0.004168561
0.00094189497
0.0034009356
0.025852863
0.02044814
-0.0036892564
-0.012225859
-0.0084667786
-0.0046560174
-0.030010936
-0.0045102088
0.0088541973
0.0098497043
-0.0061775561
-0.020676536
-0.010728509
0.028214462
0.043942579
0.018782978
0.0097542354
-0.0061944432
-0.008384247
-0.016488139
0.014338095
0.024513978
0.041132284
-9.7948764e-05
0.0071561027
0.017648771
0.023256378
0.026096882
0.02161252
0.021806643
0.0049979337
-0.0024353481
-0.0087945554
0.020681767
0.034864693
0.051639989
0.010526378
0.025297769
0.01957391
0.030327521
0.04415839
0.034166274
0.033185896
0.020318035
0.0080049374
-0.0042335945
0.0070108137
0.031028338
0.044406387
0.020154073
0.011643878
0.0063671726
0.020663369
0.037816408
0.029233755
0.039054436
0.010891335
0.019201352
-0.002801247
-0.00419512
0.013710673
0.021474894
0.015538583
0.013798858
0.0012101453
0.0016223418
0.0086802257
0.022529856
0.024757505
0.016590733
0.0031754542
-0.019241444
-0.0088030305
-0.01126383
-0.00039344358
)
;
    }
    bottomWater_to_leftSolid
    {
        type            fixedFluxPressure;
        gradient        uniform 0;
        value           nonuniform List<scalar> 
130
(
-0.0058065678
-0.0044675013
0.01346379
0.010166935
0.017737046
0.02745209
0.011270678
-0.0065324759
-0.0065668051
0.0052342453
0.015029783
-0.010796751
-0.010446586
-0.0020006306
-0.0062508041
0.019313758
0.025464464
0.017134639
0.027994873
0.024173732
0.0049529066
-0.0029020027
0.0037227077
0.0048262323
-0.0083326612
-0.014492132
-0.00034806985
-0.0075581072
0.018860305
0.020055204
0.010744714
0.017968095
0.018205823
-0.0043595487
0.0048288964
-0.0032098806
-0.0088499345
-0.013521277
-0.020569701
0.014448945
0.0095611624
-0.00011829048
0.006215986
0.015774438
-0.00097680289
-0.010871023
-0.011194932
-0.018557077
0.0087574642
0.0068137746
0.010872132
-0.012991503
0.018816696
0.00927809
0.0017381999
-0.011890466
-0.0096574316
-0.01633697
-0.0040772498
0.00075884302
-0.0098149065
0.014346437
0.011215573
-0.0037171933
-0.0091200063
0.018781454
0.013789431
0.0031912475
-0.012670919
-0.018130491
-0.014620424
-0.0054845856
0.011895997
0.018127134
0.020776193
0.0204347
0.018034673
0.02414993
0.02334649
0.020807593
0.018061963
-0.002552501
-0.0089740451
0.0081035813
0.014379127
0.026119205
0.048181319
0.02254973
0.036322113
0.02129573
0.024656794
0.010421446
0.019480685
-0.00041405281
-0.013369509
-0.006086087
-0.00068657033
-0.00075803338
0.018821215
0.038211709
0.02336598
0.024660377
0.038774659
0.017213961
-0.0036968027
-0.0096916864
-0.021715324
-0.013449393
-0.0039862567
0.02067268
0.035094444
0.0066971257
0.0014310457
-0.0052711519
-0.00033261354
0.0033782363
-0.001798548
0.028442663
0.023671421
0.0011012451
-0.006959883
-0.0057829104
0.011287846
0.024616189
0.014714891
0.01956112
0.015745378
0.0056161328
-0.012890607
-0.0034455737
)
;
    }
    bottomWater_to_heater
    {
        type            fixedFluxPressure;
        gradient        uniform 0;
        value           nonuniform List<scalar> 
92
(
-0.017962633
-0.011165577
-0.004916042
0.0048849389
-0.0035870413
0.023539347
0.0050612345
-0.0043665701
-0.0041712714
0.014260547
0.0027954701
0.009161404
0.28439695
0.28789445
0.29076042
0.29224144
-0.22664631
-0.24956679
-0.26648101
-0.26876533
0.071208705
0.083383123
0.091574896
0.1101439
-0.080396663
-0.072120102
-0.063308649
-0.053080717
0.012487063
0.012487063
0.0065876296
0.0065876296
0.0057547972
0.0057547972
0.012903313
0.012903313
0.2932109
0.30997626
-0.25744427
-0.22036082
0.073847696
0.053566006
-0.028481465
-0.056980032
-0.0091200063
-0.004168561
0.28143186
0.31154029
0.32639029
0.31463286
0.3240698
0.32955768
-0.23348388
-0.21203174
-0.18354984
-0.22895085
-0.19407026
-0.21108572
0.11161012
0.036032718
0.034787425
0.065985525
0.078008387
0.072417934
-0.076728587
-0.066805126
-0.081051556
-0.05096988
-0.029692947
-0.034683849
0.02414993
0.020881385
0.0085904884
-0.013973188
-0.0061775561
-0.0057907084
0.020881385
0.0085904884
-0.013973188
-0.0057907084
0.0057391161
0.017139378
-0.012614356
0.0025350901
-0.009242866
0.001558546
0.0075782084
0.02239458
-0.0096135894
0.00021893976
0.018469652
0.012256947
)
;
    }
}


// ************************************************************************* //
