/*--------------------------------*- C++ -*----------------------------------*\
| =========                 |                                                 |
| \\      /  F ield         | OpenFOAM: The Open Source CFD Toolbox           |
|  \\    /   O peration     | Version:  v2012                                 |
|   \\  /    A nd           | Website:  www.openfoam.com                      |
|    \\/     M anipulation  |                                                 |
\*---------------------------------------------------------------------------*/
FoamFile
{
    version     2.0;
    format      ascii;
    class       surfaceScalarField;
    location    "620/bottomWater";
    object      phi;
}
// * * * * * * * * * * * * * * * * * * * * * * * * * * * * * * * * * * * * * //

dimensions      [1 0 -1 0 0 0 0];
oriented        oriented;


internalField   nonuniform List<scalar> 
3858
(
-0.00016075969
0.00016135038
7.4936977e-06
-3.9079243e-05
-0.00021006936
9.3696434e-05
8.8689119e-05
-0.00016587018
4.0240684e-05
2.3804092e-05
3.9881236e-05
2.7266894e-05
-7.2052172e-05
3.3916244e-05
6.580377e-05
1.2807123e-05
-0.00017202841
8.8339704e-05
-0.00013535046
0.0001158872
3.9754185e-05
-0.00028476911
0.00013252486
2.0767293e-05
-0.00038171115
9.4955421e-05
7.7740328e-06
-0.00029645894
-0.00012057717
3.8819726e-05
-0.00016927596
-0.00015001313
2.495005e-05
-0.00021335332
8.2441523e-05
-3.1995566e-05
-3.660644e-05
-0.00014700659
-2.7822786e-05
0.00010604355
-0.00019448603
5.3703599e-05
0.00011378891
-5.5324509e-06
-1.040812e-06
3.6390116e-05
8.0414038e-05
-2.2129454e-06
-0.00015176809
0.00016759304
2.2062908e-05
-0.00022680116
0.00010265899
-2.5481374e-05
-6.9955474e-05
-0.00017432389
1.6622855e-05
6.9925515e-05
-0.00016434566
2.3750678e-05
0.00018572325
-0.00014800772
2.9411156e-05
0.00015989553
7.4695856e-05
-4.9348024e-05
0.00010787823
0.00013375357
-8.1978128e-05
2.2041612e-06
0.00017618397
-7.136887e-05
-0.00010101394
0.00016082255
-5.836592e-05
-0.00016824468
0.00014965829
-8.4063904e-05
-0.00021964954
3.9983346e-05
1.2282694e-05
2.4032154e-05
-0.00034010018
9.2210592e-05
0.00011652159
-0.00024098025
0.00014653132
4.8566733e-05
6.639347e-05
-1.5586652e-05
4.8188836e-05
0.0001287482
0.00023779925
-0.00056766741
0.00010421216
0.00043162732
-0.00036887685
9.1786012e-06
6.0601469e-05
0.00047189231
-6.098523e-05
-0.00026026884
0.0003375144
1.7272161e-05
-2.400869e-05
-0.00050605402
9.7765453e-05
-5.4727696e-05
3.5112631e-05
0.00011149358
-0.0003475999
0.00041920469
6.1923749e-06
-0.00056149849
0.00030809009
7.6392072e-07
-0.000394712
-0.0003771157
8.9752042e-05
-0.00020432943
-0.00040236361
6.1967905e-05
-0.00014239594
4.3176501e-05
-2.2668469e-05
6.235195e-05
-0.00034801438
-3.7401067e-06
0.00031240556
-0.00049019659
4.5656954e-05
0.00045205289
-7.3511433e-05
-7.1668337e-05
0.00027404462
0.00033583913
-7.7416816e-05
-0.00019434801
0.00060542373
3.0561953e-05
-0.00023960141
6.4760288e-08
0.00014784763
-3.2531362e-05
-0.00050320482
0.00012181088
8.1926968e-05
-0.00044960451
0.00017080051
0.00029771712
-0.00044613884
8.2340953e-05
0.00038878359
3.8169788e-05
-5.4540428e-05
0.00040133468
0.00022848626
-0.00010728379
0.00015149217
0.00052915294
-0.00010312647
-0.00018704326
0.00056147612
-6.2118157e-05
-0.00041734689
0.00045447369
-7.4511774e-05
-0.0002848267
-6.8260902e-05
-2.4275931e-05
5.0176379e-05
-0.00070714342
3.2040162e-05
0.00023708763
-0.00056740731
0.00013951583
9.895908e-05
0.00018669529
0.00041958088
-0.00036496492
-6.4271193e-06
0.00011769801
-0.00014497104
-0.0001208135
-0.00011649433
-8.0963217e-05
-5.3721284e-05
-8.7874677e-05
0.00037287051
7.040215e-05
-8.5638981e-05
0.00027989038
5.5388331e-05
-0.00036140729
-9.6435494e-05
-0.00013385021
-0.00030010833
-3.0423245e-05
4.2369267e-06
-7.3663395e-05
0.00018004703
1.2712722e-05
4.3838365e-05
0.00018453887
6.0494575e-06
-0.00010711868
-0.00013311264
-9.3046016e-05
-0.00035960512
-0.00010562255
-4.4254614e-05
-9.8206731e-05
-0.00021913853
9.1663409e-07
1.6965697e-05
-0.00044549061
-1.7696198e-05
-6.4972141e-05
-0.00041672461
8.4658628e-06
2.2324997e-05
-0.00020537184
4.4563267e-05
0.00011279732
0.00018908836
5.6278455e-05
0.00016481096
0.00050020546
5.3204624e-05
0.00020080068
-5.9873449e-05
2.3948491e-05
7.854634e-05
-0.00032808943
-5.2861061e-05
3.9759038e-05
-0.00044271636
3.1899131e-05
-0.00021060823
-0.00015185778
-4.3913823e-05
-0.00011634397
-0.00010688093
5.0786425e-05
2.2057936e-05
5.5997028e-05
3.4087289e-05
-1.6005333e-06
0.0004273574
0.00012545398
-1.9522934e-05
0.00053049681
4.8901698e-05
0.0001926417
0.0003546182
-0.00011230915
0.00036221142
-6.3908461e-05
-0.00017392215
-3.7346018e-05
-0.00011024725
-0.00019733871
-0.00031923625
-0.00027149776
-1.40193e-05
-0.00030034117
8.0064022e-05
8.7160089e-05
-0.00040987417
-4.225083e-05
-1.0759847e-05
-4.5512201e-06
-4.2499875e-05
-0.00022874204
0.00015599203
-1.8973056e-05
-3.0988556e-05
8.0774153e-05
9.4342885e-05
5.4727467e-05
0.00017562128
1.8553086e-05
-0.00015443715
0.0002054733
-9.2744162e-05
-0.00030004871
7.6496446e-05
3.8691869e-05
6.2147011e-05
-0.0001870554
4.9067214e-06
0.00033420753
-0.0001055896
1.8067954e-05
0.00013165566
0.00010263945
-3.3200223e-05
-9.9306583e-05
0.00021572659
-9.03869e-05
-0.00012036909
-0.0001106213
-8.7454726e-05
-8.8705597e-05
-0.00043100358
-4.6150525e-05
-0.00010439793
-0.00040769525
6.6629682e-06
-0.00021228886
-0.0001137692
1.62883e-05
-0.00010371443
2.6997684e-06
7.7814165e-05
0.00018262445
0.00012975775
8.4108833e-05
5.0976606e-05
0.00022878315
-0.00015700876
-1.4992521e-05
-0.00022794623
-3.4174078e-05
1.0072153e-05
-0.00045303835
-1.474271e-05
-0.00013337999
-5.3134315e-06
-3.0922354e-06
-0.00029250787
0.0001205766
-6.8329691e-05
-0.00023497346
6.1659305e-07
-2.1540176e-06
-8.2777224e-05
0.00017186006
0.00010330107
6.9473035e-05
0.00031703989
6.1206637e-05
0.00036539219
0.00015107495
-9.2375899e-05
0.00027114949
0.00016199194
-0.0001316577
0.00011327184
0.00012353332
-7.5902887e-05
1.1680345e-05
-0.00022390848
5.400225e-05
-0.00035141102
6.2750206e-05
-0.00039474435
-1.5129816e-05
-0.000390512
-8.7835649e-06
-0.00020482165
-2.9698315e-05
-0.0001138816
-1.0165893e-05
2.9670605e-05
3.2069081e-05
0.00026609159
-3.0947676e-05
0.0003611948
-1.860677e-05
0.0001753661
-1.2266877e-06
4.5107489e-05
2.4669005e-05
0.00012151706
2.6229877e-05
0.00030722766
3.0015982e-05
0.00020570092
-9.0945578e-06
-0.00014479329
-8.0509373e-05
-0.00038722122
-0.00016526731
-0.00035403582
-0.0001469546
-0.00025944901
-9.1887036e-05
-8.178275e-05
-4.7908501e-05
0.00019715973
-5.0159333e-05
7.9490037e-05
-0.00011027656
-0.00025362808
-0.00011992025
-0.00022201768
-3.6923856e-05
-0.00014684381
4.5402696e-05
-0.0002510608
0.00010483355
-0.00016759247
8.8391712e-05
3.5741701e-05
0.00011370571
0.00022369379
-3.6877133e-05
0.00037503031
1.0655438e-05
0.00047554869
2.3014958e-05
0.00033083717
-7.9196937e-05
-2.0573838e-05
-0.00011688886
0.00014875719
-1.8414236e-05
-0.00021953997
0.00016030876
4.4996252e-05
5.6942927e-05
-0.00033707834
0.00010225561
0.000164789
-6.1225646e-05
-1.8191946e-05
8.508593e-05
0.00010358793
4.4583772e-05
-1.8502573e-05
0.00011291943
8.2073469e-05
-0.00012047165
0.00012873853
1.6110391e-05
-0.00019773764
0.00015074594
-4.9500904e-05
-0.00028708777
0.00017151075
-7.0382374e-05
-0.00032855805
8.2432946e-05
1.9652565e-06
-0.00022732995
-0.00011210196
3.7893636e-05
-8.631222e-05
-0.00016811702
-1.0448571e-06
4.1239767e-05
-0.0001868826
3.216927e-05
-5.0669598e-05
9.9323065e-05
4.8722568e-05
5.1169616e-05
-0.00017202236
6.8628318e-05
0.0001916961
-0.00026540288
0.00012214695
4.9119342e-05
7.6930035e-05
8.8698156e-05
-9.2213565e-05
0.00013994576
-2.5027933e-05
-0.00018242322
0.00012989266
-2.3622011e-05
-0.00024960574
0.00010596593
-1.5649572e-05
-0.00020667394
-2.9480513e-05
1.418382e-05
3.9364102e-05
-0.00028954861
-9.2405467e-06
0.00024597741
-0.00024431886
-4.6129685e-05
0.00023779527
1.7944914e-05
-8.154381e-05
0.00011526537
0.00016600225
-0.00010129117
6.6084525e-06
0.00016115086
-0.00013821158
-0.00011059323
0.00017280858
-4.3126044e-05
-3.3945817e-05
1.0810691e-05
4.7087434e-06
-3.3905246e-06
0.00010400369
1.1923208e-05
0.00014919979
-8.7227922e-05
-0.00015053023
0.00029775267
0.00013028295
-4.5252355e-05
1.3344698e-05
0.00014589834
0.0002976794
-0.00073601793
6.5186425e-05
0.00037190387
-0.00012884347
-6.7591871e-05
9.5973873e-05
0.00047673568
-7.9945581e-05
-6.7521605e-05
0.00027607715
9.8103218e-05
-9.4750361e-05
0.00028861532
-2.1154448e-05
-0.00034252067
0.00058633872
-0.00018163009
-0.00056675546
0.00057258016
-0.0001760707
-0.00046654726
2.6063518e-05
4.5913271e-05
-0.00026037275
-0.00036072207
0.0001044135
-4.6801104e-05
-0.00043160811
2.7250973e-05
0.00013604755
-0.00039024652
1.6775146e-05
5.7966267e-05
0.00022900508
-5.9437685e-06
0.00016618877
-0.00038339277
3.1479583e-05
0.00037362409
-0.00065757443
0.00010731942
0.00035899943
1.2982976e-05
0.00010913368
2.602361e-05
0.00057222081
4.8548404e-05
-0.00027884045
0.00048203812
7.4529479e-05
-0.00038594101
0.00025349131
0.00013037568
-0.00026256422
-0.00015702929
8.6512931e-05
2.0781187e-05
-0.00064233833
1.4903858e-05
0.0002927155
-0.00059698614
-2.6550845e-05
0.00039423276
-0.00013008098
-5.6617857e-05
0.00026666433
0.00029728244
-6.5829928e-05
-8.8864378e-05
0.000600261
-0.00015809321
-0.00013202205
0.00026202189
-7.0331558e-05
0.00010947462
-0.00016756683
-3.107898e-05
0.00025469425
0.00011421056
-1.5910655e-05
0.00056101536
2.957398e-05
0.00036361096
-9.2334211e-05
2.0048804e-05
0.00039279969
-8.4890151e-05
-5.1767382e-05
-0.00015192501
-0.00011910672
-0.00012590779
-0.00025153242
-3.4300179e-05
7.5466271e-05
-7.4620528e-05
0.00037613902
-2.0926891e-05
-9.8622861e-05
0.00015853285
7.6964286e-06
-5.0275646e-05
0.0001624459
8.2059139e-05
-8.0141305e-05
0.00054701531
8.1901795e-05
1.8264711e-05
0.00045804558
2.2178024e-05
0.00011308353
-6.3120914e-05
-9.8680405e-05
-7.6265694e-05
-9.8181417e-05
-0.00011744605
-9.1540162e-05
-0.00036896145
-4.6455557e-05
4.6509828e-05
-0.00045858842
-8.7404285e-05
0.00023634471
2.1838837e-05
2.5797222e-05
-4.0845948e-06
-5.4455459e-05
-4.3944741e-05
-0.00039727136
-0.00011174305
-9.6366154e-05
-0.00021358166
-0.00010734209
-1.0160014e-05
-4.6102022e-05
0.00042488753
3.802139e-06
-2.9308682e-05
0.00040352788
8.8558305e-06
9.602787e-05
0.00010861798
5.1435889e-05
9.9478834e-05
-0.00017630053
-2.8093581e-05
-3.4378058e-05
-0.00049742239
3.9727341e-05
-0.00016223482
-0.00045329443
1.825231e-05
-0.0001741811
-7.2705392e-05
8.0024635e-05
-2.4957675e-05
0.00020256971
-5.6090036e-06
3.6141783e-05
0.00055337718
-0.0001265248
7.4644471e-05
0.00016594623
-0.00011634916
-7.1467417e-05
-0.00023453501
1.5741386e-05
-7.2806436e-05
-8.0415713e-05
0.00018194601
0.00046243927
0.0001058337
0.00022000683
-0.00034840347
-6.1883946e-06
0.00018894659
2.6652498e-06
-9.8995038e-05
-9.1451005e-05
0.00019880832
-5.6490483e-05
-0.00025467285
0.00018359251
3.9672049e-05
-4.9562986e-05
0.00012522785
6.4354395e-05
-0.00014660275
0.0001704292
-7.6007349e-06
-0.00031031108
0.00026578167
9.9064431e-05
-1.0644277e-05
0.00015557615
9.6679087e-05
0.00037122801
4.9813264e-05
4.4427982e-05
0.0002169437
8.2729224e-05
-2.4766049e-05
7.9688639e-05
0.00010881454
-0.0001601278
3.4720823e-05
-0.0003487309
-6.2717465e-05
0.00010300124
-0.00046577553
-0.00010724384
4.6296155e-05
5.4738331e-05
3.0468558e-05
-0.00028026624
0.00031751071
-2.911547e-05
-0.00038624857
9.1392756e-05
-1.9339308e-05
-0.00025150852
-0.00014975755
-8.2157387e-06
4.4970682e-05
-1.3836924e-05
-1.4763513e-05
0.00018884832
0.00021582267
9.6534725e-06
0.00017162341
0.00013479746
-2.3697309e-05
3.1389604e-05
-3.8103109e-05
-1.0558888e-06
-4.2109216e-05
-0.00048849996
-3.7533447e-06
-6.6888759e-05
-0.00041062809
-2.0040858e-05
-0.00018161295
0.00016802337
-2.2703533e-05
-7.9557291e-05
0.00020900895
-4.7288273e-05
0.00019665639
0.00033502376
-0.00015023615
0.00015441972
0.00016797213
-9.1446924e-05
-4.4903769e-05
-0.00013863118
2.7516801e-05
-0.00014589674
-0.00011189485
0.00018647439
0.00023630004
0.00014299271
-0.0003551516
-8.3816764e-06
-0.00037247099
1.1201077e-05
-0.00022839677
2.5035782e-05
-0.00011655857
6.1588426e-05
-3.3213837e-05
7.395221e-05
1.724947e-05
8.9018219e-05
0.00012712104
0.00013730334
0.00013671089
0.00014475961
0.00010156663
0.00010962653
0.00019340586
1.7119863e-05
0.00032699221
5.2441765e-06
3.8694855e-05
-6.9528108e-05
-0.00038084634
-0.0001267437
-0.00037604777
-0.00011532755
-0.00014161463
-6.3877037e-05
-6.1314929e-05
-8.0793973e-05
-0.00012306238
-0.0001359186
-8.1959181e-05
-0.00010509946
0.00011715083
-9.3563916e-05
0.00025180743
-0.00011977942
0.00030032412
-0.00012354368
-5.94112e-05
-8.3361978e-05
-0.0003471654
-1.8040372e-05
-0.00019784552
0.00010709518
1.3297809e-06
0.00012353935
0.00023452073
6.4955681e-05
0.00029488292
0.00011826541
7.9252999e-05
0.00010001372
-0.00013231684
2.0478078e-05
8.3409372e-05
-7.6758308e-05
0.00013418788
-7.0025216e-05
-0.00017412764
0.00016605822
-1.7598031e-05
-0.00018678568
9.0938903e-05
3.1559255e-05
3.3368669e-05
-0.00019642978
-3.9033457e-05
7.4961882e-05
7.2217397e-05
-6.3817334e-05
4.1495646e-05
0.00014159991
-2.136125e-05
-2.6674413e-05
0.00012233459
-3.2631725e-05
-0.00010112779
0.00010635035
-7.5944959e-05
-8.1894396e-05
2.894973e-05
-0.00011542911
-0.00015388819
0.0001387926
-6.1656359e-05
-0.00021601636
0.00012368337
-2.0411848e-05
-0.00018776993
-2.3129966e-05
-2.4027534e-06
7.7309721e-06
-0.00023465865
7.1617422e-05
0.00010428965
-0.00011861655
7.2699592e-05
0.00019319188
-0.00017213724
0.00015135159
0.0001196415
3.7383763e-05
0.00016002979
-6.9582734e-05
0.00016478949
0.00011458662
-0.00015839353
0.00015295978
-8.9289882e-05
-0.00022072227
0.00015210326
-0.00011338442
-0.00030128598
0.00014238061
-7.7225552e-05
-0.00027987795
-1.1793745e-05
3.9824403e-06
-6.0310889e-05
-0.00025527856
2.4193335e-05
0.0001629152
-0.00029340864
2.1606839e-05
0.00025084969
-0.00014251664
-2.9302546e-05
0.00014490164
0.00012125476
-0.00011666171
5.0422717e-05
0.00015661796
-0.00020154619
-6.4375529e-06
0.00017240412
-0.0001582582
3.665423e-05
0.00010967682
-0.00014802857
2.9772996e-05
0.00016734015
-0.00014686331
0.00018401723
-0.00024108588
-0.00013793468
0.00031848627
8.3919235e-05
-0.00019010307
0.00027305282
9.1072141e-05
-4.5294972e-05
-7.8170297e-05
8.9487525e-05
0.00025464832
-0.00055659351
-7.3714206e-06
0.00010359651
0.00033179822
-0.00018847459
-0.00013128
0.00055406215
-7.9482512e-05
-0.00011552488
0.00012492004
-3.9495e-05
-0.00011664508
5.6116914e-05
-0.00013027646
-1.1240245e-05
-7.6046347e-05
-0.00017647946
-0.00017169508
0.00046593418
-0.00012077348
-0.00029871687
0.00037436001
-1.924135e-05
-0.00017537157
-0.00016259683
4.3372541e-05
5.561826e-05
-0.00056463613
0.00011576279
0.00019820734
-0.00033220046
6.5051054e-05
0.00040697415
-0.00047914036
0.0001297159
0.00046560224
-7.2383769e-05
0.00015845886
0.00029803726
0.00032321561
0.00011827255
-9.9929891e-06
0.00064827684
-0.0001387384
-0.00031472171
0.00066827841
-0.00013691695
-0.00049858366
0.0004747894
-1.8171176e-05
-0.00036455488
-0.00011958011
6.0270501e-05
-7.4224429e-05
-0.00057244321
4.1738026e-05
0.00015468551
-0.00059993934
5.1069889e-05
0.0003196421
-0.00043676523
7.2674122e-05
0.00022568374
0.00019730005
-4.7916856e-05
-5.192564e-05
0.00050972624
-0.00023359211
-0.00012204179
0.00035506336
-0.00018287463
8.7266199e-05
-5.6345501e-05
-7.4364635e-05
0.00025395328
1.5222603e-05
-3.0480163e-05
0.00047081293
-3.2684345e-06
0.00027080648
1.8408827e-05
4.9319768e-05
0.0003635658
6.8647825e-05
5.9878301e-05
0.00022694895
-7.1456448e-05
3.9952208e-06
-0.00019185649
-9.9812957e-05
3.749116e-05
-0.0001527061
0.00027901018
-7.2892393e-06
-7.9171989e-05
0.00047596171
1.2262759e-05
-5.5963655e-05
1.5739673e-05
0.00016803118
8.0943273e-05
-0.00021545528
0.00021656706
9.429133e-05
-0.00012566276
5.844638e-05
-3.1595675e-05
0.00032548434
0.00016765644
3.6334047e-05
0.00023516116
-4.6176927e-05
0.0001733388
-0.00034856416
2.5070161e-06
0.00016656455
-0.00045905739
-0.00018620878
7.6214235e-05
-0.00015532889
-6.0724024e-05
-0.00022072705
-0.00010545373
-0.00012069008
-0.00019786342
-9.0285645e-05
-0.0001013279
-5.2189538e-05
0.00019328782
-2.590609e-05
-4.9064137e-05
0.00059104576
5.7907821e-05
-6.9414659e-05
0.00065688253
4.0602225e-05
0.00012933424
0.00038104969
-5.3573328e-05
0.0001882937
-8.3701459e-05
-0.00012293172
-4.0284787e-05
-0.00027826975
-2.5867675e-05
-0.0001625289
-0.00037694205
-8.25009e-05
-0.00028466248
-0.00012028561
-0.00011432143
-0.00012203889
0.00011005543
-8.0987979e-05
-5.7361154e-05
0.00039603908
-7.7515363e-05
0.00010825964
4.8352295e-05
2.4741122e-05
3.3119327e-06
-0.000145443
0.00020978662
-7.5007844e-05
-8.2704539e-05
0.00035819296
0.00039463035
0.00010700845
0.0002068183
-0.00023997331
4.5375454e-05
0.0002849385
-0.00010460176
-3.8656483e-06
-3.5632773e-05
0.00018112992
1.1494426e-05
-0.00029760958
0.0001624447
3.9391208e-05
-0.00013258782
0.00010359311
7.4749713e-05
-6.5783962e-06
0.00025605333
8.6298231e-05
-0.00016975636
0.00019531357
8.2668501e-05
-9.4918961e-05
-0.00025220523
5.8591644e-05
-7.8942175e-05
-3.8833193e-05
-5.8378371e-05
8.043075e-07
6.7083014e-05
0.00015388879
0.00015056271
-2.1730467e-05
-5.2994585e-05
6.9785881e-05
-0.00034676049
1.6255687e-05
0.00010129736
-0.00045624311
-0.00014156961
-3.0780618e-05
1.360223e-05
-6.3845814e-06
-0.00035243616
0.00023549809
-4.8411743e-05
-0.00043692672
1.7237641e-05
-4.2372023e-05
-0.00027067881
2.105745e-05
-2.2332738e-06
-2.7943246e-05
0.00023029842
0.00010324827
0.00013443006
0.00041396721
9.0195476e-05
0.00029231873
0.00024526427
-4.5800589e-05
8.8716582e-05
0.00021568881
-9.6844061e-05
-5.0469569e-05
-0.00013820303
-4.6339616e-06
-5.7676489e-05
-0.00036944171
-2.0334324e-05
-0.00014524973
1.4586909e-05
-7.0002835e-05
-0.00013971506
0.00016701796
-0.00010978548
8.3860769e-05
3.7476642e-05
-1.5249536e-05
0.00026724879
-0.00027991692
5.343429e-05
4.5572641e-05
2.1856606e-05
8.1893374e-05
-0.00030649314
0.00027939844
0.00017643723
5.0603356e-05
0.00018052658
-0.00021978232
-2.8572667e-05
-0.00026924162
-4.3941376e-05
-0.00017158777
0.00010851186
-0.00011633347
0.00016877883
-4.6512284e-05
0.00010772415
7.7861539e-05
0.00022069773
0.00014903319
0.00026144526
-1.9033116e-05
6.0620701e-05
1.6083453e-05
3.5676768e-05
0.00018033418
-8.0047856e-05
0.00025489219
-9.1044301e-05
7.8798754e-06
-0.00016927628
-0.00038418263
-0.00019092431
-0.00038442199
-0.00010148597
-0.00019700355
-1.5797378e-05
-0.00020454002
-5.6019857e-05
-0.00023793739
-8.1463773e-05
-0.00011590913
3.1706914e-06
0.00013972327
6.4770877e-05
0.00026651801
-1.3099177e-06
0.00041175547
-5.3092372e-05
0.00029237735
-0.00010218692
-2.4230853e-05
-7.0873913e-05
-5.1674162e-05
0.00014912539
0.00010466129
0.00013422185
3.0158495e-05
0.00017693513
-0.00027622893
0.00014473594
-0.00028676725
0.00013240867
-9.7685011e-05
0.0001107943
3.6327727e-05
-0.00011362755
0.00014874192
-0.00010030414
-0.00023570515
0.00017541252
-6.5529145e-05
-0.00026844528
0.00014096834
-6.9003635e-05
-8.4764338e-05
-0.00021441506
-6.5829301e-06
-0.00012126877
3.2952229e-05
-5.7321875e-05
-0.00020869787
0.0001111949
-4.1804201e-05
-0.00010465977
-0.00017622972
4.0822651e-05
5.7501583e-05
-0.00029882472
6.2558938e-05
0.00026950289
-0.00029045389
-3.5873384e-05
0.00023913837
3.6350407e-05
-6.3281009e-05
0.00013066257
0.00014027473
-4.7703469e-05
0.00017150849
-3.6443091e-05
-4.1844829e-06
0.0001341181
0.00011029694
3.8940233e-06
7.9114655e-05
0.00013206519
8.8423389e-05
0.0001456743
7.3017686e-05
0.00017846647
1.9157439e-05
0.00017105699
-2.5542981e-05
0.00012973509
-0.00017177077
-7.327314e-05
0.0001364612
-0.0002007479
-0.00014122502
0.00015060397
-0.00016066542
-0.00017376267
0.000123649
-8.7383075e-05
1.9025211e-05
-0.00018217713
1.0690239e-05
0.00016060077
-0.00013770813
1.5399469e-05
9.8305304e-05
0.00010528282
-7.3975078e-05
-2.4788108e-05
0.00017436734
-0.00016842175
-9.7370202e-05
0.00011474175
-0.00024435801
-0.00016159495
0.00012670372
-0.00021827574
1.2092962e-05
-0.00023236834
-9.2035193e-05
0.00013392879
-0.00022744427
-4.5416011e-05
6.4928982e-05
-0.00017538599
-0.00023014547
0.0004739763
-1.116967e-05
-0.00031399704
0.00035752347
-7.1872362e-06
-0.00013554179
7.438908e-05
-2.2388467e-05
0.00017051422
-0.00053586881
8.0263224e-06
-5.9292531e-06
0.00013786426
-0.00011694315
-0.00020174816
0.00032980118
-0.00010226988
-0.00011767178
-0.00046997601
0.0001701749
1.3216043e-05
-0.00066455489
0.00010456589
0.00027208257
-0.0006692662
-5.6533678e-05
0.0003197312
-2.4813919e-05
-0.00010725778
4.0805501e-05
0.00046760724
-6.7648166e-05
9.4561236e-05
-0.00017404633
0.00012722004
0.00016695742
1.618197e-05
0.00013748158
0.00030931114
5.4762519e-05
0.00039591575
0.00018878558
0.00030696396
0.00042587713
0.00010548178
0.00049081172
0.00015765226
6.8647281e-05
-0.00012982106
0.0001543399
0.00011663501
-0.00011377841
-0.00021083402
0.00060395996
-0.00010635325
-0.00022728878
0.00026189654
-6.1522309e-05
7.7277098e-05
-0.00047853531
3.3530297e-05
0.00026410044
-0.00041865586
0.00014519425
0.00021085307
0.00022072404
1.048026e-05
-8.3119661e-05
0.00052596341
-0.0001055402
-0.00018869329
0.00016381623
-0.00017709295
-7.5023415e-06
-7.7374357e-05
-0.00015998749
0.00021247965
-0.0005830388
5.6323855e-05
0.00036148603
-0.00059932666
0.00019239586
0.00026377094
0.00015937566
6.4428008e-05
0.00041365854
4.5209526e-05
0.00018028345
0.00020334872
9.8197619e-05
0.00025519756
-0.00019770872
0.00020117892
-0.00014985478
-0.00019724571
0.00010392041
-0.00015299937
4.2227516e-05
9.1492101e-05
4.5476261e-05
0.00019094982
-4.7361502e-05
3.2795079e-05
-0.00036887319
7.9609546e-05
-1.9099998e-05
-0.00050854503
0.00011245229
-8.994531e-05
-0.00051278051
-2.7193999e-05
-9.3337156e-05
-1.17441e-05
0.00015797847
-1.3665827e-05
0.00036873721
-2.6978227e-05
-9.0332345e-05
-8.5572972e-05
-9.2998275e-06
9.3132064e-05
-0.00029535262
-5.81386e-05
0.00014396464
-5.6794083e-05
0.00014908544
6.297472e-05
0.00014965285
0.00032398183
0.00017777776
0.00043678073
0.00011693692
1.4428271e-05
0.00017296769
8.5009747e-05
3.3757191e-05
0.00015540721
0.00017797976
0.0005323287
-7.4912112e-05
0.00031573358
0.0001557167
-0.00015450574
-6.0727595e-07
-8.171485e-05
-0.00010634732
-0.00031576861
-8.108438e-05
-0.00010491108
-0.00015267989
3.6819022e-05
-9.3505147e-05
-3.0419837e-05
0.0002793596
4.3355776e-05
0.00021638614
-0.00024140777
8.090267e-05
0.00044588773
-0.00043036834
0.00014823354
0.00018841898
-0.00027158891
0.0001558055
-0.00011116674
-0.00012308561
0.00018153767
0.00015942623
0.00010018643
0.00016574357
0.00022838189
6.4908536e-05
0.00025448056
-2.9849575e-05
0.00014059566
0.00022404068
-0.0002953314
0.00013955699
3.6089214e-07
-4.0589979e-05
0.00010641528
-0.00024998463
0.00031925563
4.8067132e-05
-7.0880924e-05
8.3272103e-05
1.4872253e-05
-5.4689582e-05
-0.00033209292
2.96969e-05
-6.7236969e-05
-0.00048647305
4.9067059e-05
-1.4986158e-05
-0.00048795954
-0.00013545015
-2.8526607e-05
9.9101026e-05
5.6584111e-05
0.00012378588
0.00018257635
-1.9146225e-05
5.5947951e-05
5.9123942e-05
-6.06033e-05
6.3417756e-05
-0.00033176788
-0.00011262416
-5.6823312e-05
5.7062404e-05
-0.00010732165
6.5061324e-05
0.00010329776
7.0990408e-05
0.00033047374
0.00020737148
7.4956867e-05
0.00032905673
4.413668e-05
-0.00011985375
0.00022681802
9.1945253e-05
0.00019113623
0.00021514267
-3.9604577e-05
0.00023419527
8.9722894e-05
-7.3909355e-05
-3.6848667e-05
0.00013001714
5.4677932e-05
-0.00025053657
0.0001125489
-2.7975192e-07
-0.00022063054
-0.00010385412
4.0764261e-05
6.0371391e-05
-0.00015513002
4.3702201e-05
0.00012493979
-0.00038234278
6.1117096e-05
0.00010267258
-0.0004556059
0.00010093908
-2.9956829e-05
-0.00019982132
0.00014275524
-0.00023690378
8.8017605e-05
0.00017228101
1.413569e-05
8.891336e-05
0.00020105861
-1.2493835e-06
0.00014516896
-1.7901297e-05
-0.00012282222
8.1171645e-05
-0.00019519615
0.00020056279
3.7010571e-05
0.00019477306
0.00021441917
0.00012656124
0.00010394469
3.9826817e-05
-0.00014802392
-0.00017388374
-0.00034929011
-0.00025101659
-0.00015646493
-0.00017377201
9.3086367e-05
-0.00015801925
0.00015072926
-0.00016779524
-0.00014191262
-0.00023005031
-0.00018633617
-0.00013707222
-0.00012210166
3.8060484e-06
9.138489e-05
0.00024464858
0.00010947529
0.00027349849
0.00017905762
0.00014425038
0.00024881506
-3.3126946e-05
0.00030679602
-3.0150782e-05
0.00034894098
-4.6998161e-07
0.00031203657
8.2175654e-05
0.00020389374
8.7234675e-05
-5.4537484e-05
5.3023582e-05
-0.00036215094
-3.2564876e-06
-0.00039354079
-3.6022773e-05
-0.00016151107
-3.3217791e-05
-0.00011104764
-0.00012543829
0.00015340974
-0.00012393671
-0.00026093388
0.00018120052
-0.00010509542
-0.00028431784
6.3200517e-05
-0.00010193336
-0.00013116809
-0.00019759675
4.1665234e-05
4.6244721e-06
-0.00022735226
3.747355e-05
-6.7161491e-05
1.3638938e-05
2.1783985e-05
-0.00013436828
3.4860367e-05
7.685933e-05
-9.5971684e-06
-0.00020320438
0.0001436537
0.00013718671
-0.00019453056
1.4775109e-05
0.00031664485
-0.00028345077
4.2288188e-05
0.00032657846
-7.4392283e-05
2.0969919e-05
0.00017264364
0.00014749531
6.9419512e-06
0.00016766307
1.1264295e-05
0.00015933468
-0.00022653834
-0.00010559796
0.00017632208
-8.9223781e-05
-0.00012958717
2.5612811e-05
0.00011576317
-0.00012754161
-8.3169823e-05
0.00011972408
-0.00010029174
5.2223684e-05
-0.00013691916
7.8695146e-06
1.5096766e-05
6.0915757e-05
-1.1889257e-05
-0.00014502086
0.00015055744
-6.8084376e-05
-0.00021730984
3.7660162e-05
-0.00013502426
-0.00012074838
-0.00018627269
-0.0001596621
-7.1456496e-05
-0.00010263357
-0.00016708881
0.00010326085
-0.00024889583
-2.4879511e-05
0.00018300885
-0.00016229172
2.8707107e-05
3.9000869e-05
-3.912148e-05
-0.00032515085
0.00051535961
-4.7968684e-05
-0.00042505793
0.00032255774
-4.8637381e-05
-0.00028792198
-6.1029999e-05
-3.5293899e-05
-5.4346344e-05
-0.00049041277
6.7266709e-05
0.00010203885
-0.00055529953
5.4618934e-05
1.0782151e-05
-1.2193268e-05
1.4819032e-05
-0.00015547756
0.00012856227
0.00024273271
-9.921519e-06
-0.0005004438
0.00025624927
0.00014053922
-0.00040926775
7.742771e-06
0.00032532089
-0.00063788873
6.2398515e-05
0.00035208507
-0.0002779338
0.00010912917
0.00030945502
0.00019399302
0.00012335237
0.00058417268
3.0426984e-05
0.00021086538
-0.00055647766
-1.0747112e-05
0.00034653062
-0.00032433314
-1.4334288e-05
6.2843745e-05
0.00040651593
-0.00011341915
-6.4972395e-05
0.00026743836
-8.1420481e-05
0.00021723498
-0.00046056258
7.4966315e-05
-4.0176269e-05
0.00034254905
0.00012097218
-0.00033909357
0.00052534707
-6.5392079e-05
-0.00023146438
-0.00011494576
-6.056346e-05
-1.5935738e-05
-0.00049934788
-7.9546394e-05
0.00013694269
-0.00032312056
-9.2378912e-05
0.00035550005
-0.00050660192
9.5472604e-05
0.00050760031
-0.00035902385
0.00023702775
0.00050439558
0.00020158128
4.0936477e-05
0.00048186974
3.7762926e-05
0.00015749062
0.0002048812
9.9320024e-05
0.00022622972
-0.00015925221
0.00023066203
-2.5997213e-05
-0.00029881106
0.00016454564
-0.00021962544
-0.00031396722
4.3788032e-05
0.00014327372
-0.00039767897
-2.4774959e-05
0.00037209512
-9.7731197e-05
7.7081625e-05
0.00016301755
-0.00014732876
-3.1585181e-05
7.4266099e-05
-0.00026886882
-7.8841472e-05
-0.00013465288
-0.00010775885
-0.00016323244
-0.00022865029
-0.00011855244
-9.2362179e-05
-7.1527314e-05
2.8856449e-05
-1.2862432e-06
0.00035977339
9.4733374e-05
-0.00013395166
-0.00030870287
5.9144567e-05
-6.2017112e-05
-0.00026728765
2.6427167e-05
0.00010511303
0.00025511483
-9.0641175e-05
0.00013124703
0.00012375402
-3.6955439e-05
-0.00015895599
-0.0001165851
-0.00016012183
-0.00019575063
0.00023204227
4.239031e-05
-3.268582e-05
0.00018769843
8.1078676e-05
0.00019122229
-0.00048707159
0.00019157349
0.00024891774
-0.00052734633
5.1205688e-05
0.00039148602
-0.00034689639
2.9441108e-05
5.2195185e-05
-0.00012669758
0.00011519204
-9.9843606e-05
-8.9107655e-05
6.3660303e-05
0.00041010995
9.4628474e-05
0.00022434649
0.00029289752
2.9534269e-05
0.0002700884
0.0001230321
0.00017670287
0.00018835011
-8.3805677e-05
0.00014584875
0.00011831025
-0.00029608077
0.00017372487
2.5830359e-05
-0.00023838047
6.4960279e-05
8.8536769e-05
-0.00039881446
-4.6698657e-05
0.00014842027
-9.1341596e-05
-3.657619e-05
-1.5822413e-05
2.5929773e-05
4.0051209e-05
-6.6519679e-05
-0.00026090979
-9.2711911e-05
-0.0001180112
0.00011511258
-0.00011479581
-0.00028479174
0.00015854228
-0.00012946042
-0.00028101613
5.4274558e-05
-8.9797027e-05
-0.00016430263
0.00013043572
-5.5521277e-05
-0.00020526854
-3.776367e-06
-8.9411662e-06
-0.00021303221
-8.8903058e-06
0.00024250646
1.0858097e-06
-3.702323e-05
5.3752356e-05
0.00023048064
8.1180877e-06
-0.00026027199
0.00017752247
7.4594655e-05
-0.0001024867
3.9450616e-05
3.4526575e-05
0.00013351118
-0.00023393295
0.00022639774
8.6617305e-05
-0.00047292946
7.6453955e-05
0.00011528006
-0.00048294238
-1.1949593e-05
0.00014211683
-0.00029347276
2.0678714e-05
-6.3690863e-05
6.0239278e-05
0.0001616261
-0.00025167177
0.00012878357
0.00014237074
0.00021209268
3.5258889e-05
0.00027756371
1.4084431e-05
0.00035768875
2.5005769e-05
0.00033656338
1.8491338e-05
0.00017391428
6.7131119e-05
3.1618355e-06
0.00012714505
-0.00021098013
-5.8111245e-05
-0.00011328368
-0.00014921122
-6.2487116e-05
-0.00019875052
-0.00024069555
-0.00033371795
-0.00010874008
-0.0001906149
8.0473067e-05
-0.00018869012
0.00015070237
-0.00018374999
-0.00024365057
-7.3435765e-05
0.00011281581
-0.00014546816
0.00013249866
-5.4554765e-05
5.4422764e-05
0.0001852474
-4.2448507e-05
0.0003772218
-4.4602745e-05
0.00045930776
-4.3105345e-05
0.00036960672
-6.2056274e-05
4.3786642e-05
-5.9874696e-05
-0.00031526157
-7.0870572e-05
-0.00051601673
-9.5974068e-05
-0.00040571302
-8.6087173e-05
-0.000221318
-8.8829215e-05
-0.00012027295
-0.00019944802
0.00015112584
-7.2514168e-05
-0.00031069339
9.254288e-05
-8.1030218e-05
-0.00012670231
-0.00024131957
-4.3768606e-05
5.7363491e-05
-0.00027212531
0.00013084075
0.00017798147
-0.00022685516
0.0001448438
0.00015669811
-9.2167557e-05
0.00013680086
1.5800504e-05
9.6898134e-05
0.00012213724
2.4306132e-07
5.3991704e-05
0.00010882607
0.00022235103
-0.00028207792
7.6214231e-05
0.00030333974