/*--------------------------------*- C++ -*----------------------------------*\
| =========                 |                                                 |
| \\      /  F ield         | OpenFOAM: The Open Source CFD Toolbox           |
|  \\    /   O peration     | Version:  v2012                                 |
|   \\  /    A nd           | Website:  www.openfoam.com                      |
|    \\/     M anipulation  |                                                 |
\*---------------------------------------------------------------------------*/
FoamFile
{
    version     2.0;
    format      ascii;
    class       volVectorField;
    location    "620/bottomWater";
    object      U;
}
// * * * * * * * * * * * * * * * * * * * * * * * * * * * * * * * * * * * * * //

dimensions      [0 1 -1 0 0 0 0];


internalField   nonuniform List<vector> 
1460
(
(-0.0027445421 -0.012566935 0.00027087123)
(-0.0010648802 -0.009924333 0.0014407834)
(0.00020956621 -0.013059394 0.00022107828)
(0.0018657752 -0.017020222 0.000846169)
(-0.001391703 -0.016762207 0.0010942768)
(-7.8569103e-05 -0.011197946 0.00055686847)
(0.00023529574 -0.013599078 0.00035046244)
(-0.0031377675 -0.01605088 0.0004911307)
(-0.0045007892 -0.01417695 0.00054636368)
(-0.0046433604 -0.013576854 0.00081258217)
(-0.0024101401 -0.013734693 0.00043103479)
(-0.0023346408 -0.015501863 -0.00048313225)
(-0.0024499598 -0.013032089 -0.00034866225)
(0.0013957298 -0.011257132 0.0011715576)
(0.001298673 -0.016216302 -0.00031723784)
(0.0016564236 -0.018505168 -0.0010668589)
(-0.00081172209 -0.016739443 -0.00015418772)
(-0.0032115433 -0.015157381 -0.00024393504)
(-0.0020641917 -0.010458259 0.00058301415)
(0.00011125003 -0.011443843 0.0014315974)
(0.0018670273 -0.013635232 0.0015167081)
(0.0024221021 -0.017577851 -0.00038923487)
(0.0017230476 -0.017335879 -0.0012998143)
(0.0010926291 -0.015827343 -0.00084542818)
(-0.0010566977 -0.015875964 -0.00048008722)
(-0.0012413097 -0.015514787 -0.00090436099)
(-0.0034160276 -0.013648864 -0.00032945449)
(-0.001477775 -0.012485245 -9.6389303e-05)
(0.0019229778 -0.011228653 0.0015435133)
(0.0010969099 -0.01765078 0.0016893197)
(-0.0039763707 0.014715464 0.0017868591)
(0.0036539647 0.00061572323 -0.0001073577)
(0.0029820493 0.0053965283 0.00057120969)
(0.0065126815 0.01655757 -0.00036802664)
(-0.0046509904 0.016147384 0.00071464491)
(-0.0013751542 0.0032215721 -0.0010687915)
(0.00063058874 0.014779612 0.0014376355)
(-0.0020125055 0.017488717 0.0015495797)
(-0.0074068858 0.014879841 0.00091169157)
(-0.0055893122 0.0076447764 0.0010364946)
(-0.0037880798 0.006676846 0.00098721962)
(-0.0020566301 0.016049396 -0.00090634121)
(-0.00093437924 0.0060511301 -0.00041416765)
(0.0023190825 0.0024508509 0.00042714812)
(0.0051271572 0.014439349 -0.0025607424)
(0.0059900447 0.018904719 -0.0031432828)
(0.00059067214 0.018858396 -0.00026720937)
(-0.0050719938 0.015995858 0.0025424951)
(-0.0010296823 0.0023245152 0.00012505521)
(0.00029704437 0.0037114088 0.0020587786)
(0.0019504365 0.0065484426 0.00099780181)
(0.0049266996 0.017881387 -0.0012098946)
(0.0051761106 0.018746163 -0.0026016015)
(0.0044376942 0.018060461 -0.0023452674)
(-0.0003556003 0.017774209 -0.0010511179)
(-0.0045669916 0.01718183 -0.0010782276)
(-0.006556124 0.013133555 -0.0013971525)
(0.00045753412 -0.0016926439 -0.0015067758)
(0.00048928431 0.00059837088 0.0004957894)
(0.0048976843 0.017353995 0.0027692)
(0.0031065008 -0.012049335 -0.00069322355)
(0.006272068 -0.013908066 -0.0019321344)
(-0.0029410646 -0.013419926 -0.00030141112)
(2.9534337e-05 0.0014642261 0.00030574879)
(-0.0016708231 -0.0026070574 0.0013023623)
(-0.0011942711 -0.014713658 -0.0033317605)
(-0.0066865064 -0.012641128 6.3521184e-05)
(-0.00064087087 -0.0012165037 0.0014236231)
(-0.0014632743 -0.0024752314 0.001235042)
(0.0023703203 -0.01578093 -0.00045749625)
(-0.0048932126 -0.015539021 0.00071615138)
(-0.00336406 -0.013595912 0.00071880588)
(0.00059925637 -0.013406175 -2.6074451e-05)
(-0.00023283295 -0.013507494 -0.0013737192)
(-0.001498847 -0.015134688 0.00011672123)
(0.0021706533 -0.0055291083 0.00098729951)
(0.0007333747 0.003693115 0.0007846619)
(0.0035429634 -0.014883348 -0.00052751386)
(0.00098863942 -0.013618218 -0.0027023624)
(0.0013922406 -0.013570914 -0.0010719065)
(-0.00076691045 -0.016501092 -0.0014190972)
(-0.0036999445 -0.01560416 0.0010615148)
(0.00030489641 -0.0091626971 -0.00015478479)
(0.00040904216 0.0021056742 -0.00017637671)
(-0.00041315271 0.0035778774 0.00021771462)
(-0.00021430869 0.00043375685 -0.0018489359)
(0.0050349556 -0.013642957 -0.0035347731)
(0.0034967893 -0.015247551 -0.0041669884)
(-0.0043531181 -0.013592722 -0.0015797022)
(-0.0029138308 -0.012510225 -0.00025624032)
(-0.0019247537 -0.0012209424 -0.00099483851)
(0.0037856299 0.0082396307 -6.761338e-05)
(-0.0040030776 0.0099625189 0.00021501723)
(-0.0012715845 0.0073563078 0.0016003016)
(0.00039287774 0.0086932459 0.00035728117)
(0.00084535936 0.010660947 -0.001487073)
(-0.0050975745 0.010976928 0.00012919339)
(-0.0015682455 0.0049464351 -3.8144374e-05)
(0.0029017239 0.0063331555 0.0001082194)
(0.0047838126 0.010420365 4.7685511e-06)
(-0.0011172568 0.01117499 -0.00089803581)
(-0.0016207349 0.0051682231 -0.0015229274)
(-0.00099165022 -0.0022630967 -0.00054699777)
(-0.0014304406 -0.0012300494 -0.0015463716)
(-0.0015173832 0.007218062 -0.00026324083)
(-0.0037831566 0.0094698541 0.001994269)
(0.0017061064 0.0086885565 0.0025032815)
(0.0020066092 0.012036457 -0.0034466801)
(-0.00034042255 0.0017075398 -0.0014334087)
(-0.00014494356 -0.0021726352 -0.0006589234)
(0.00033952123 0.01057705 -0.0008815389)
(-0.0035659334 0.011071998 -0.0017355986)
(-0.004020467 0.0098960437 -0.00026964185)
(-0.0014173342 0.0080306328 0.0015303796)
(-0.00086201906 0.0092258823 0.00084296054)
(0.0028886804 0.0077787936 -0.0013247851)
(0.0053434641 0.01063716 -0.0020005874)
(0.0019976475 0.010704634 -0.0024017416)
(0.00063422198 0.0035047677 -0.00086983044)
(-0.00023245381 0.0012791319 -0.00085260325)
(-0.0049213441 -0.009678115 -0.00063825845)
(-0.005271736 -0.0081904748 -0.00051990092)
(-0.0039425973 -0.0042807356 -0.00068474214)
(-0.001556291 -0.0042468204 -0.00067359953)
(-0.0011452594 -0.002261287 0.00041025802)
(0.0020307846 -0.0032908446 -0.0011222305)
(0.0042487377 -0.0078982062 -0.0016431183)
(0.0044129812 -0.0096542754 -0.0014153678)
(0.00013201831 -0.0088132097 0.00025710163)
(0.0011141344 -0.0065095384 0.00047365165)
(0.0022360579 -0.003526556 0.00031083707)
(0.0047900707 -0.0076851354 -4.7994299e-05)
(0.00074771504 -0.0094593535 -0.001193711)
(-0.0046278181 -0.0098072876 -0.003658278)
(-0.0047612768 -0.0098127505 -0.0035520193)
(-0.0040451102 -0.0091869903 -0.0018033397)
(-0.0026178681 -0.0040605721 -7.0216737e-06)
(0.00086505172 -0.0037539995 -0.0010375282)
(0.0036520554 -0.0074784596 -0.0019741529)
(-0.0019071411 -0.0099537191 -0.001150786)
(-0.003904157 -0.010538442 0.001268701)
(-0.0015132344 -0.0065168491 0.0017936278)
(-0.0025436431 -0.0096594711 0.0020615471)
(-0.0032696445 -0.0018360057 0.0013719566)
(-0.0010565799 0.0017616374 0.0013821606)
(0.001869833 -0.0022864987 -0.0004096737)
(0.0039274686 -0.0045926168 -0.00022977732)
(0.0057020651 -0.0060649226 -0.00026252262)
(0.0054994604 -0.0091263838 -0.0010640315)
(0.0032816711 -0.010520653 -0.0016512044)
(0.00025056613 -0.01439836 6.7923401e-05)
(-0.003579183 -0.011365434 0.0017633572)
(-0.0012543833 -0.011178333 0.0014749023)
(0.0024541306 -0.014230448 0.00024975544)
(0.0017005038 -0.016634443 0.0015702032)
(0.00039964369 -0.017292768 0.0026301737)
(-0.00087095257 -0.017806445 0.001367287)
(-0.0020292325 -0.016310085 0.00037827784)
(-0.0030600097 -0.015590332 -0.00020457279)
(-0.0043150507 -0.015160871 0.00055391758)
(-0.0034645434 -0.012805786 0.00056548021)
(-0.0026761688 -0.011566753 -0.00058656852)
(0.00082357987 -0.013031803 -0.00061970821)
(-4.1405625e-06 -0.017579209 0.00074110723)
(-0.0010586526 -0.01479212 0.00029602227)
(0.0022797735 -0.011352298 0.0010202871)
(0.0021834881 -0.013891328 0.0010396404)
(-0.0007804251 -0.017130139 -0.00057837416)
(-0.0016774382 -0.016196901 2.1610765e-05)
(-0.0029763373 -0.016005189 -0.00049702138)
(-0.0032751735 -0.015392046 -0.0004607344)
(-0.0016140267 -0.011633659 -0.0012684599)
(0.0024838877 -0.010949079 -0.0016226846)
(0.003565167 -0.013419613 -0.0019590149)
(0.0021467195 -0.014191794 -0.0018321913)
(0.0010266821 -0.016503683 -0.0021723808)
(-0.00092623811 -0.014510013 0.00082866665)
(-0.0016607428 -0.013635555 0.0032646176)
(0.0007450885 -0.016641251 0.0037644278)
(-0.0008030672 -0.017026774 0.00085175616)
(-0.0012124875 0.016226566 0.0028169436)
(-0.0029848928 0.013481953 0.0035959495)
(0.0022046692 -0.0028041937 -0.00028366071)
(0.0045554953 0.010759256 -0.0017794662)
(0.0042899741 0.017458006 -0.00020874259)
(-0.0015950174 0.018308864 0.0043504011)
(4.6255765e-05 0.01914649 0.0024032102)
(-0.0026680602 0.01808362 -0.0013976172)
(-0.0062003787 0.017852083 -0.0009116937)
(-0.007411332 0.015671214 0.0020689888)
(-0.0038867766 0.0072007489 0.0012408385)
(-0.0030171749 0.0037948375 0.00023749727)
(0.0021484181 0.0045282312 0.00033372899)
(0.00046653018 0.018369464 0.00094503895)
(0.001548855 0.0068729568 0.00037815357)
(0.0020087287 -0.00011084347 0.00070254905)
(0.006648921 0.014216864 0.0013607858)
(0.0029230851 0.018617942 0.0025513821)
(-0.0023539343 0.017465629 0.0038940469)
(-0.0047962456 0.016836124 0.0037107973)
(-0.0046329205 0.012822074 0.0017564578)
(-0.001389813 -0.00077718882 -0.00055504246)
(0.0018304309 0.00019814788 -0.0010692112)
(0.0049122917 0.012256593 -0.0013863102)
(0.0052474923 0.016233919 -0.0013987284)
(0.0012276281 0.018390505 -0.0018998092)
(-0.0032402502 0.016689078 0.0004595631)
(7.5663299e-05 0.012234541 0.0023899353)
(0.0026775821 0.017444252 0.004201167)
(0.0033071922 0.018680761 0.0038610496)
(0.0020482951 -0.0042439855 0.00039883978)
(0.0065094495 -0.012048641 -0.0022763043)
(0.0027091243 -0.01502317 -0.0019645418)
(-0.006090462 -0.012619159 0.0023792292)
(0.00010297201 0.00082395304 0.0004936524)
(-0.0019654787 -0.0069443888 -0.0010847739)
(-0.00072780649 -0.0073612232 0.00014210072)
(-0.00027177465 0.0039236896 -0.00091844012)
(-0.0021330324 0.0034556649 -0.0010916979)
(0.0027319818 -0.013877197 -0.0032743285)
(-0.00027254041 -0.014969148 -0.0026574956)
(-0.0013159075 -0.013351789 -0.0007292608)
(-0.0010331526 -0.012999349 -0.00063801261)
(0.0021303713 -0.0088213125 0.0017625955)
(0.0038304068 -0.015228274 0.0016691306)
(-0.0040071267 -0.015474978 0.00078615739)
(-0.0052769037 -0.012708317 0.00096863742)
(-2.1400358e-05 0.0028997596 0.0013469414)
(-0.00092043584 0.0011440396 0.0010140846)
(-1.8085815e-05 -0.006288782 0.0021675951)
(0.0024955908 -0.01530148 1.0415083e-05)
(0.00019657214 -0.014289648 0.00072532098)
(-0.0011442413 -0.014029738 0.0012835151)
(-0.0032062962 -0.01409224 0.0044639451)
(-0.00075051552 -0.0040788935 0.0013694988)
(0.00022658041 0.0042545254 -0.0020875425)
(0.0005322591 -0.0057441584 -0.0025474875)
(0.0011502036 -0.01483434 -0.0026806762)
(-0.0028986941 -0.012009639 0.0011902867)
(0.0013266626 0.0026331264 0.0033996431)
(0.00063123438 0.00029872845 -0.00044510487)
(0.0041608144 0.0083461705 -0.0017034726)
(0.0011799171 0.010245363 -0.00081903245)
(-0.0038673492 0.010837464 0.0016001681)
(-0.0017896544 0.0080068716 0.00048628992)
(0.00032684013 0.010003412 -0.0017754519)
(-0.0043264138 0.010523035 0.0015804975)
(-0.0027907373 0.0095797789 0.0002757527)
(0.0026145561 0.0079252605 0.00073655934)
(0.0056452007 0.010989143 -0.0014713693)
(0.00034425407 0.010914088 -0.0027183586)
(0.0018622277 0.00017841089 -0.0015194409)
(-0.0010265731 -0.0031227605 -0.0013553105)
(0.003320529 0.0088951155 0.0017092774)
(-0.0020430165 0.012709173 0.0008179641)
(-0.0052216438 0.010910351 0.00073232516)
(-0.0044944203 0.0082085478 0.00029542592)
(-0.0011747381 0.007379381 -0.0018376068)
(0.0020380839 0.0082799958 -9.0874821e-06)
(0.0028864555 0.0081769714 -2.0516237e-05)
(0.0010267096 0.0083252872 0.00072911863)
(-1.3218105e-05 -0.0030713257 -0.00054242041)
(-0.0010658048 -0.0019204048 0.00023342185)
(-0.00096156613 0.010801321 0.0018614907)
(-0.0031051807 0.0082515482 0.0012586251)
(0.0013846258 0.0092369663 -0.002347093)
(0.0028956456 0.0089112811 -0.0030987521)
(0.0014319585 0.0057613723 -0.00024237624)
(-0.0027574718 0.0083820021 0.0030209117)
(-0.00050552315 0.0083747389 0.0030246672)
(-0.0042209183 -0.0095192459 0.00011396307)
(-0.0051595228 -0.0080421933 0.00017074611)
(-0.0035287098 -0.0032023975 -0.00033968936)
(-0.0023058492 -0.0041294203 0.00038617771)
(-0.00090956444 -0.0033912577 0.00085346339)
(0.00024106436 -0.0037630296 5.4538387e-05)
(0.00021047007 -0.0011318283 0.0010640826)
(0.0026840912 -0.0040557213 0.00139424)
(0.00077749925 -0.0060273216 0.00062688765)
(0.0019726506 -0.0077263451 0.0005344664)
(0.0030641815 -0.0068585286 0.00075058547)
(0.004723922 -0.0094522572 -0.00024619021)
(-0.0038476937 -0.0094868991 -0.0018815715)
(-0.0057573445 -0.0066697491 -0.0022402191)
(-0.0029509553 -0.0016559803 -0.0014609228)
(-0.0010087441 -0.0074009311 -0.0014252035)
(-0.00063405738 -0.011804647 -0.0019777374)
(-0.0022359658 -0.0075383247 -0.0011006251)
(0.0003189631 -0.00059822904 -0.0023042209)
(0.0024659025 -0.0031623459 -0.0030762531)
(0.004058342 -0.0089342618 -0.0027748579)
(0.0030162246 -0.010191242 -0.00033657986)
(-0.0045465379 -0.0090784287 0.0016822856)
(-0.003532778 -0.0046094986 0.0018755261)
(-0.0018320934 -0.0007670577 0.0027664184)
(0.0018948945 0.0022932597 -0.0008832918)
(0.0036401098 -0.0026814477 0.00060570391)
(0.0037665108 -0.0089207228 0.0010102506)
(-0.0018850607 -0.010832982 -0.0017638702)
(-0.0011893956 -4.9884785e-05 0.0010040927)
(-0.00011811535 -0.015317289 -0.00083358501)
(-0.0017075667 -0.013980089 0.00012294056)
(-0.0030080922 -0.012343888 0.0019825819)
(-0.0011493204 -0.01002484 -0.001017228)
(0.0017866795 -0.015216169 -0.0001125823)
(0.00028702527 -0.016907043 0.00029451838)
(0.00064466097 -0.017819784 -0.00092322062)
(-0.0013715301 -0.014728905 -0.0024553894)
(-0.000939359 -0.017796806 -0.0025770506)
(-0.0012435729 -0.01708485 -0.00045497474)
(-0.0026006156 -0.015582796 0.00078717828)
(-0.0031165414 -0.0136285 0.0005270889)
(-0.0011497101 -0.011121166 0.0019535727)
(0.0012485717 -0.013850295 0.001233868)
(0.0016830514 -0.013382335 0.0024157344)
(0.0027672803 -0.014436793 0.0033184058)
(0.00033364385 -0.015098939 0.002270693)
(-0.0019306796 -0.017108445 -0.00042341273)
(-0.0021667673 -0.016896614 -0.00085888633)
(-0.0034866472 -0.015575234 -0.00015401388)
(-0.0041026433 -0.014542126 0.00096185789)
(-0.0026387167 -0.011784121 0.00084635354)
(0.0010415305 -0.012191776 -0.00012619338)
(0.0031983227 -0.011738129 -0.00090138096)
(0.0027109028 -0.014363849 -0.001835291)
(0.0012138291 -0.016558395 -0.0030864639)
(-0.00011764598 -0.014772277 -0.0023715624)
(9.9309283e-06 -0.015098473 -0.0030609869)
(0.00076837171 -0.015697373 -0.0034150266)
(9.4521523e-05 -0.014971327 -0.0043484161)
(-0.00099334067 0.016810008 0.0021912263)
(-0.0026630057 0.016173876 0.0022418641)
(-0.0018907046 0.013037463 0.0025603632)
(0.0010155551 0.0011452254 -0.00055531082)
(0.0045701059 0.01549471 -0.0027318673)
(-0.0017035819 0.018507656 -0.00056831717)
(-0.0012195754 0.019067138 -0.003149706)
(-0.0021046263 0.015636889 -0.0056545807)
(-0.00031578608 0.01708163 -0.0052349115)
(-0.00010315453 0.018644555 -0.0004811959)
(-0.004082541 0.016848141 0.0023217851)
(-0.003210945 0.011349206 0.00052343646)
(-0.00088148253 0.0007879201 0.00021263006)
(0.0022403803 0.0079788816 -0.0010333685)
(0.0030819265 0.0054113783 0.00054674998)
(0.0062784157 0.013906257 0.002786339)
(0.0056585699 0.017140331 0.0025314506)
(0.0020905284 0.018862086 -0.00065998026)
(-0.0022873443 0.018638114 -0.00081187154)
(-0.0060949121 0.017127177 0.0015014972)
(-0.0060018678 0.012507477 0.0017738229)
(-0.0025091387 0.00065755091 0.0010324869)
(0.00079701352 -0.00032152852 0.00021973084)
(0.0026430535 0.0048093889 -0.00045248881)
(0.0049707343 0.015492467 -0.00089287989)
(0.0010181505 0.018385249 -0.003839977)
(-0.0024094997 0.01694676 -0.0031017016)
(-0.0003940835 0.016013455 -0.0033823257)
(0.0027261709 0.017811319 -0.0046994612)
(0.0031261672 0.0173768 -0.0026416496)
(0.0028485028 -0.0039927404 0.00049256722)
(0.0033178347 -0.0050589411 0.00039553321)
(0.0063687838 -0.013833174 -0.0023268906)
(-0.0014302113 -0.013996404 0.00022746096)
(-0.0026092388 -0.0021695762 -0.0011293216)
(-0.0014808976 0.002431965 0.001303082)
(-0.00077245955 -0.013247502 0.0030697312)
(-0.00037331434 -0.012559532 0.0042402109)
(0.0020472131 -0.017825398 0.0021232311)
(0.00068841678 -0.00082253723 5.6330476e-05)
(-0.0016801111 -0.0022210444 -0.0013012403)
(0.0027982886 -0.013981948 -0.00076036761)
(0.001174495 -0.013842724 -0.0029853681)
(0.0031859648 -0.014960993 -0.0009956563)
(-0.0014689208 -0.016259263 -0.0036079387)
(-0.0039340787 -0.014567599 -0.0042112269)
(-0.00080877566 -0.0041538418 -0.0013179219)
(-0.00032712271 0.0052926985 -0.0011459799)
(-0.00076759714 0.0062118513 -0.00073120388)
(-0.0012228437 0.0011174773 -0.00030508036)
(0.0042783639 -0.014123602 -0.0012407984)
(0.00040970516 -0.013892046 0.00077530507)
(-0.0011675096 -0.013624929 -0.00044324289)
(-0.0035318229 -0.014382094 -0.0016727609)
(-0.0028286337 -0.0069509858 -0.0015367235)
(-0.00039884025 0.0010912197 -0.0029777884)
(-0.00097896988 -0.0027253391 -0.0019194919)
(0.003418721 -0.016292026 0.0033329816)
(-0.0033272566 -0.016167488 0.0060501685)
(0.0016643175 0.00085100495 0.00076324996)
(0.0013062165 0.0039729514 0.00017192375)
(0.0034873657 0.0060792365 -0.0017651923)
(0.0034786945 0.010607667 -0.0015166231)
(-0.0042467767 0.0098443861 6.4273414e-05)
(-0.0035472522 0.0083041295 0.0016961045)
(0.00078707363 0.009026434 0.0015546945)
(-0.0011336071 0.013024589 0.0015783446)
(-0.0023135739 0.0041696395 0.0030022628)
(-0.00049665367 0.012647597 0.00060238142)
(-0.0011265718 0.0084062732 0.00084990999)
(0.0011090425 0.0074612105 -0.0029301004)
(0.0027138161 0.0013089692 -0.00066387683)
(-0.00076845239 -0.0022009985 -0.0024424503)
(0.0030072107 0.0088701716 -0.00039439229)
(-0.0036570872 0.011923004 -0.0018154863)
(-0.0056013022 0.010687853 -0.0014716978)
(-0.0048794425 0.0081939481 -0.00051297748)
(-0.0014917922 0.0093874283 0.0013004224)
(0.00068591238 0.010174382 0.00052117371)
(0.0028593957 0.0078226017 -0.00070917769)
(0.0037175834 0.010410851 -0.00079284741)
(-0.0010968603 0.0036425635 0.0003443711)
(-0.00022908144 0.00013130969 -0.00097738984)
(-0.0012323331 0.0095268509 -0.0024744619)
(-0.0028327925 0.0088677635 -0.0031821926)
(-0.00011359853 0.008266344 -0.0030099031)
(0.0018615899 0.0032321316 -0.0001447255)
(0.0051065421 0.010274261 0.0011259104)
(-0.0042428524 0.012390402 0.0035218654)
(-0.0025255725 0.0083809901 0.0027160166)
(-0.0021877719 -0.010048787 -0.00048111154)
(-0.0037563244 -0.0084507197 0.00017848269)
(-0.0023805422 -0.0040132756 0.0013596193)
(-0.0021366735 -0.0039454963 0.0017950926)
(-0.001037908 -0.0043292253 0.0017533808)
(3.2747462e-05 -0.00010311047 0.0032012361)
(0.0020827689 -0.0057647062 0.0041594921)
(0.0012110602 -0.010525025 0.0037625486)
(-0.0015281028 -0.01331909 0.0037944973)
(0.0018418847 -0.005838116 7.6779533e-06)
(0.0027799571 -0.0077994316 -0.00061826881)
(0.0036690649 -0.010478515 -0.0025993161)
(-0.0035436587 -0.010259816 -0.0030574846)
(-0.0056929489 -0.0081826835 -0.0023591639)
(-0.0034178332 -0.003639917 -0.0011878209)
(-0.0019637924 -0.009828246 -0.0017858062)
(-0.0029264368 -0.0072040696 -0.0028186568)
(-0.0029615853 -0.0013638605 -0.0025451751)
(0.00031660277 0.0038712283 -0.00094720476)
(0.0028341268 0.00078250143 -0.0013568194)
(0.0042561479 -0.0025975205 -0.0015688403)
(0.0055413801 -0.0069120157 -0.0025719487)
(0.0014249117 -0.0099128059 -0.0024069964)
(-0.001810635 -0.0087949021 0.0024203617)
(0.00021945702 -0.002807 0.0018187328)
(0.0027359249 -0.0066933104 0.0031735248)
(-0.0021991013 -0.010322193 0.0035714759)
(-0.0041037054 -0.0091924087 0.0030738103)
(-0.0030032034 -0.0023761089 0.0026584809)
(0.00033014251 -0.0063031818 0.0020366537)
(-0.00046855292 -0.015014906 -0.0016916713)
(-0.002254645 -0.014175373 -0.00081311611)
(-0.0041211123 -0.01258826 -0.00066458317)
(-0.0019377705 -0.011199906 -0.00029492576)
(-0.00045929999 -0.017909112 -0.0020476875)
(-0.0026874663 -0.015376026 -0.00096628583)
(-0.0022044417 -0.010952939 -7.9225415e-05)
(-0.00062185803 -0.010757215 -9.7609977e-05)
(0.0022462509 -0.01086388 -0.0014814756)
(0.0040467962 -0.014388424 -0.0020493998)
(0.002085952 -0.015515715 -0.0016141333)
(0.0014718676 -0.015850892 -0.00058317841)
(0.0024419398 -0.014464087 0.00041622726)
(0.0011311597 -0.01721514 0.0012901953)
(0.00086126585 -0.01567871 0.0028967989)
(0.0013732596 -0.01465417 0.0026910819)
(0.00043639378 -0.014934254 0.001874515)
(-1.1695239e-05 -0.014828848 -0.0032087785)
(-0.0005982438 -0.016291544 -0.003631136)
(-0.0010659747 -0.017245919 -0.0026447318)
(-0.0027586999 -0.015483982 -0.0008363077)
(-0.0012487791 -0.012037015 9.3474748e-05)
(0.0016433595 -0.011660982 0.0008672261)
(0.0023942328 -0.015455646 -0.0003289624)
(-7.2592385e-05 -0.01601029 -0.0026099471)
(-0.00043604289 -0.015424761 -0.0047733135)
(-0.0023420251 -0.01207037 -0.0039226202)
(-0.0012509591 -0.011362853 -0.0023373468)
(0.0015102254 -0.011642952 -0.0017192039)
(0.0016392651 -0.015895087 -0.0043845529)
(-0.002080786 0.016785707 0.00085297655)
(-0.0038298843 0.016554434 0.0011032635)
(-0.0041166269 0.014269199 0.00092141073)
(0.001107348 0.0016198549 0.00017751704)
(0.0026873541 0.017262394 -0.004367524)
(-0.0028635942 0.016394409 -0.0022286836)
(-0.0017988941 0.0027932277 0.0018755572)
(-0.0010033876 -0.0018709388 0.0012672895)
(0.001306686 -0.0014763402 -0.0017063233)
(0.0052395443 0.01393484 -0.0039040921)
(0.0021103858 0.017126087 -0.0029431432)
(-0.00072009614 0.013217329 0.0014608792)
(0.0025011149 0.015458302 0.0037809283)
(0.0023500192 0.018705372 0.003120516)
(0.0047756391 0.017395148 0.0039664004)
(0.0049909949 0.01702718 0.0034700457)
(0.0025702895 0.017118701 0.0021648188)
(0.00036839359 0.016181195 -0.004317542)
(0.0034095315 0.017756609 -0.00413141)
(0.00012392234 0.018941831 -0.0021079569)
(-0.0058000646 0.016652911 0.00023997485)
(0.00092863419 0.003605269 0.00061063357)
(0.0007211326 0.0049231967 0.0014941659)
(0.005278651 0.016252646 0.0028019514)
(0.00024456474 0.018214054 -0.0010854508)
(-0.0020086936 0.016423466 -0.0051265667)
(-0.0033258109 0.013325104 -0.0041347889)
(0.0032787067 0.0010365503 0.00080569549)
(0.0020605653 0.0014985109 0.0037392929)
(0.0060890991 0.015966673 0.0025141366)
(0.00073273762 0.0014231299 0.0012276068)
(0.00056384024 -0.002483846 0.0018616832)
(0.0044943761 -0.010499574 0.0025014067)
(0.0010056786 -0.013899439 0.0011442523)
(-0.0040003602 -0.010967664 0.00090611703)
(-0.00031533813 -0.0032671177 -0.0010167567)
(0.0013613749 -0.013238747 0.0026879661)
(-0.00049578419 -0.013935903 0.0033312161)
(5.0900656e-05 -0.014441714 -0.00026015598)
(-0.0025374986 -0.013668107 0.0056791591)
(0.00059638107 0.00073553672 -0.00020355267)
(-0.0010939803 -0.016133838 0.00087740821)
(-0.0007254363 -0.013831564 -0.0033013098)
(0.0026027382 -0.015761415 -0.00098893389)
(0.0013830117 -0.0092392947 -0.0003770623)
(0.0021274877 -0.00047496758 0.00081691891)
(0.0019726121 0.0017334606 0.00054131193)
(0.0020532926 -0.012571216 0.0034709417)
(0.0010589509 -0.012206789 0.0023183715)
(0.001324301 0.0037799119 -0.0014153979)
(0.0027975435 -0.0057903535 -0.0032178805)
(0.0046374847 -0.014300043 -0.0016922366)
(-0.0046573594 -0.013997539 -0.00311944)
(-0.0026121469 -0.0068619148 -0.0021751043)
(-0.001540483 0.0017956578 -0.0013627962)
(0.00096339101 -0.0090993322 0.00038185157)
(0.0042247612 -0.014002566 0.0027714328)
(0.0063213602 -0.01450757 0.0038587109)
(-0.0020754353 -0.015494114 0.006269181)
(-0.00012984971 -0.0049978438 0.0027946472)
(0.0011150865 0.0083367429 0.0015348934)
(0.0032062235 0.0068347303 0.0016763606)
(0.002757578 0.0027989597 0.0020498319)
(0.0032669127 0.0064099452 0.0013960119)
(-0.0033194354 0.011337571 0.00084280309)
(-0.002319948 0.007269363 0.0013717054)
(0.00027876927 -4.2839574e-05 0.0020062629)
(-0.0014206029 -0.0036440948 -0.00048845756)
(-3.0204471e-05 -0.0032606015 -0.0024263637)
(-0.00059094227 0.012752097 0.0040807196)
(0.00026534974 0.0079887618 0.0010912485)
(0.0020749753 0.012338958 0.0010744507)
(-0.00023372718 0.0027472648 -0.0032327944)
(0.0014467623 0.013073439 8.3838479e-05)
(-0.0026543179 0.010067863 -0.00011079743)
(-0.00011178459 0.0078180709 2.006376e-05)
(0.0030185872 0.008582368 0.00041312772)
(0.0045353636 0.012312465 0.0020080335)
(-0.0028401071 0.012363293 0.0022850814)
(0.000386643 0.0091350599 -0.0011120837)
(0.0038121708 0.0088080087 -0.0025559118)
(0.0023432786 0.010776024 -0.0005427738)
(-0.0032337175 0.010500416 6.5482097e-05)
(-0.00338638 0.0071785616 -0.00049912985)
(-0.0015980928 0.0045483665 -0.00051193511)
(0.0029058096 -0.00014559529 0.002335242)
(0.0002051396 -0.0014844754 0.002331642)
(0.0022074193 0.0044973135 0.0021876644)
(-0.0030845081 0.010529697 0.0035248631)
(-0.0023752081 0.0081132301 0.0034947846)
(0.0015446215 -0.00030880976 -0.00046711991)
(0.003450153 -0.0073219039 -0.0016368478)
(-7.8487281e-05 -0.010339798 0.0024047865)
(-0.002807198 -0.007154831 0.0044358894)
(-0.0017244142 -0.00012209291 0.0025997469)
(0.0024786471 -0.0040733998 0.0048550178)
(0.0027530056 -0.0086517808 0.0050784283)
(4.1531033e-05 -0.0097223074 -0.0016248646)
(-0.0041087662 -0.010232703 -0.0026906633)
(-0.0039414606 -0.0088622038 -0.0028073012)
(-0.00031586103 -0.0015465208 -0.0025105047)
(0.0029074878 -0.0098384968 -0.0032483054)
(0.00034940658 -0.011358649 -0.0038655662)
(-0.0033838332 -0.010674436 -0.0011726443)
(-0.001669461 -0.0074107983 0.00054631287)
(-0.0017900754 -0.0049748413 -0.00021254929)
(-0.0014216088 -0.0011625019 -0.00026026155)
(0.0015800622 -0.00061966255 0.0027269137)
(0.00056018006 -0.004003623 0.0035485047)
(0.0019024913 -0.0014574081 0.0013206558)
(0.0027934694 -0.0052832894 -0.00060065917)
(0.0036499224 -0.0059350775 -0.0010529691)
(0.0040545482 -0.0062862374 1.5769097e-05)
(0.0043323311 -0.0095127792 0.0027670901)
(0.0033305935 -0.0084330613 0.0029853809)
(0.0021365875 -0.0099638887 0.0032438622)
(-0.0037082115 -0.010777451 0.0020548159)
(-0.0054546341 -0.0095006256 0.0013930901)
(-0.0037785907 -0.0071196285 0.0011035585)
(-0.00057516609 -0.00737097 -0.00086458123)
(-0.00048789615 -0.014751466 -0.0021760461)
(-0.0028248236 -0.013198517 -0.0017780966)
(-0.0039589378 -0.012517982 -0.0020972317)
(-0.0027268288 -0.0109881 -2.8068697e-05)
(-0.0006168519 -0.010566742 -0.00027675926)
(0.00067387659 -0.015847478 -0.00081918288)
(-0.0021670938 -0.018226502 0.0013808231)
(-0.0010790179 -0.011486342 0.0022806596)
(0.00077906191 -0.012383806 -4.0750783e-05)
(0.0029536357 -0.011864304 -8.1031029e-05)
(0.0045228507 -0.011939874 -4.7442372e-05)
(0.0035736163 -0.014007115 0.00037794462)
(0.001030079 -0.015684231 -0.00019709283)
(0.001455685 -0.010887422 -0.002879489)
(0.0024389073 -0.012292544 -0.0036730106)
(0.0021102967 -0.016334453 -0.0032906531)
(-0.0015584026 -0.018483327 -0.0023056205)
(-0.00029793423 -0.011678481 0.00036467633)
(0.0014405169 -0.017365932 -0.00022768754)
(-0.00097897863 -0.017161799 -0.0022078838)
(-0.0030123 -0.014351148 -0.0038008213)
(-0.0018831098 -0.012561 -0.0039820246)
(-0.0015711898 -0.012865446 -0.0038137203)
(7.8538037e-05 -0.014219807 -0.00093799155)
(0.0023925853 -0.014602969 0.00012928109)
(0.0019549241 -0.018501373 -0.0019187759)
(-0.0031722811 0.016616574 -0.0012369016)
(-0.0053266863 0.015712503 -0.0014143784)
(-0.0055956572 0.012703989 -0.0019093954)
(-0.00088050735 0.0021171284 0.00019362962)
(-0.0006988439 0.00055751609 0.00033937647)
(0.0029818022 0.014680614 -0.0013889137)
(-0.0027709298 0.017692536 0.0043077416)
(-0.00074363447 0.0024018965 0.0028481707)
(0.00056518217 0.0036437209 -0.00010964041)
(0.0030793343 -0.00012177808 0.00037955384)
(0.0044158045 0.0078631809 0.0007157337)
(0.0046664024 0.015802135 0.00276014)
(0.0032356055 0.017843981 0.0014052183)
(0.0011809043 0.00081654596 -0.0003800585)
(0.0037385654 0.007500777 -0.00036386035)
(0.0044314929 0.017333586 -0.0020340883)
(-0.0026836468 0.01954812 -0.0023323164)
(0.0013911962 0.0049277325 0.00051829784)
(0.0033498853 0.017349568 0.0034924013)
(-0.0041986659 0.018813454 -0.0023572887)
(-0.0045195662 0.013720491 -0.00296092)
(-0.00070190583 0.0039043969 -0.0013219646)
(0.00011881249 0.0075179724 -0.0013850788)
(0.0039278061 0.0032936547 0.001604683)
(0.004360477 0.0068602394 0.0038841232)
(0.0074303385 0.017774709 0.003620368)
(4.4380818e-05 0.0029820365 0.00058101377)
(0.00070688707 -0.002863086 0.0016785775)
(0.0035435033 -0.01316683 0.0047245353)
(0.0021713297 -0.013250219 0.0031019596)
(-0.0029866014 -0.013367604 0.0021888185)
(-0.0017102977 -0.013935139 -0.0003585267)
(0.0048418644 -0.011829257 0.00067195843)
(0.0036012901 -0.013885235 0.00063263999)
(0.0012156595 -0.012650223 -0.00051701097)
(0.00020534485 -0.015174473 -0.00011271379)
(-0.0033121539 -0.013453634 -0.0011408686)
(-0.0024591336 -0.0075753352 -0.0013921115)
(0.00093829924 0.0039065028 0.00070181618)
(-0.00076353782 -0.013588035 0.0023655109)
(-0.0023277179 -0.014038105 0.0030524093)
(0.00056836726 -0.001414371 -0.0018079182)
(0.0026286209 -0.0083959794 -0.0020837055)
(-0.00022020692 -0.01505594 -0.002707727)
(-0.0028417628 -0.0035173681 -0.0002063458)
(-0.0027279643 0.0012234088 -0.0012623218)
(0.0020748023 -0.01516953 0.0031602886)
(0.0024240278 -0.015034307 0.0023282739)
(0.0040093986 -0.014029289 0.0025544922)
(0.0055949607 -0.014787977 0.0024283385)
(-0.004568523 -0.014382663 0.0011151773)
(0.0026060011 0.0016372937 0.0013121418)
(0.0016435929 0.0086299271 0.00077767952)
(0.0035587222 0.0072179532 0.0032690796)
(0.003066533 0.0068352266 0.0028725696)
(0.0019765477 0.0023680307 0.0027109248)
(0.00091282972 0.0019681542 0.0012207371)
(-0.00023347855 -0.00056336161 -0.0007326458)
(0.0022988831 0.0076516713 -0.0010959079)
(0.0012690151 0.0081260619 0.0020553235)
(-0.0015820407 0.002700555 -0.0030857958)