/*--------------------------------*- C++ -*----------------------------------*\
| =========                 |                                                 |
| \\      /  F ield         | OpenFOAM: The Open Source CFD Toolbox           |
|  \\    /   O peration     | Version:  v2012                                 |
|   \\  /    A nd           | Website:  www.openfoam.com                      |
|    \\/     M anipulation  |                                                 |
\*---------------------------------------------------------------------------*/
FoamFile
{
    version     2.0;
    format      ascii;
    class       volScalarField;
    location    "140/bottomWater";
    object      p_rgh;
}
// * * * * * * * * * * * * * * * * * * * * * * * * * * * * * * * * * * * * * //

dimensions      [1 -1 -2 0 0 0 0];


internalField   nonuniform List<scalar> 
1460
(
0.24744965
0.24776759
0.25006421
0.24726888
0.25798941
0.24787084
0.24690516
0.25443295
0.24576106
0.26176935
0.25270653
0.2564222
0.2492223
0.25958277
0.26107707
0.26351586
0.26392368
0.25915674
0.2524288
0.24684444
0.25318211
0.25358995
0.24983088
0.2522457
0.25900527
0.262958
0.25687627
0.25903732
0.24828254
0.25334572
-0.20473005
-0.17589132
-0.15694655
-0.15317925
-0.15859008
-0.20747246
-0.20241886
-0.21440952
-0.21035911
-0.19587177
-0.21978916
-0.22996133
-0.22231606
-0.19425958
-0.16173999
-0.15791653
-0.16650297
-0.17692271
-0.20171649
-0.22377585
-0.22753852
-0.20958607
-0.21000859
-0.22183309
-0.17662407
-0.15689441
-0.16107411
-0.17462027
-0.21171343
-0.21988442
0.058629489
0.024376777
0.05230828
0.049553278
0.051852783
0.071107898
0.061256372
0.072052913
0.08037312
0.035883855
0.088842678
0.071409018
0.053333352
0.039520131
0.055534117
0.057565852
0.052271877
0.04681918
0.040978725
0.065664626
0.087699785
0.087989134
0.11256626
0.07416219
0.039397476
0.060877745
0.056927235
0.038905354
0.041170199
0.069052769
-0.043019517
-0.060930006
-0.045484354
-0.026313126
-0.014898698
-0.062677889
-0.068705021
-0.065385075
-0.056185606
-0.06024243
-0.042778309
-0.006144905
-0.047204895
-0.031829411
-0.035640499
-0.02882265
-0.027307573
-0.046335928
-0.063022318
-0.055712902
-0.036786487
-0.067345271
-0.04069651
-0.041212839
-0.04926202
-0.027448659
-0.037552294
-0.054753621
-0.066119488
-0.036871047
-0.0032370728
-0.0021582414
-0.017212096
-0.0081789493
-0.0099702018
-0.024133803
0.011135882
0.020424575
0.0036954117
-0.0017794027
-0.011366907
-0.0036498838
-0.00090763068
-0.0073299743
-0.011114778
-0.0074132303
-0.0086594914
-0.010235039
0.009251715
0.0080150466
0.01192335
0.014179262
-0.0079017733
0.0097081033
0.0019963495
-0.0084505616
-0.0142217
-0.0051151177
0.0078464819
0.0079033681
0.24556162
0.23906217
0.24995749
0.2430587
0.24809492
0.25511436
0.25347559
0.2539441
0.25526144
0.24918246
0.25975169
0.25846954
0.26224647
0.25544999
0.26761618
0.26554534
0.25876383
0.25652722
0.25603993
0.25775321
0.25897023
0.261235
0.24841638
0.26182208
0.2651808
0.26395872
0.25671378
0.2511687
0.25118639
0.2547299
-0.21404324
-0.21166176
-0.17324366
-0.18019516
-0.1708092
-0.16303767
-0.20183383
-0.23510392
-0.23098028
-0.21360071
-0.20698454
-0.23804348
-0.23471141
-0.23579395
-0.18376907
-0.18059196
-0.22305701
-0.22253763
-0.23920518
-0.23881574
-0.23929513
-0.23449714
-0.22296821
-0.20197593
-0.17037328
-0.17561533
-0.20001987
-0.21456567
-0.23171367
-0.22721552
0.062225476
0.034245491
0.030310467
0.055509213
0.05582811
0.020893652
0.030110133
0.06730263
0.070065405
0.069624203
0.034379323
0.079865491
0.062106663
0.02701218
0.021482477
0.025073336
0.053669911
0.048324699
0.061071302
0.08197216
0.098131213
0.081390083
0.067388501
0.047265518
0.044648652
0.047513702
0.041583939
0.048254399
0.056579771
0.089443126
-0.043610127
-0.078295022
-0.076662146
-0.052324316
-0.04807968
-0.072477551
-0.070666855
-0.06162602
-0.04004397
-0.080921836
-0.06400797
-0.037260411
-0.038987736
-0.071274309
-0.061780777
-0.06313093
-0.056609548
-0.0560856
-0.047010809
-0.03415837
-0.024688408
-0.035724489
-0.059142589
-0.043677835
-0.05452342
-0.049956205
-0.053908602
-0.066319592
-0.043809796
-0.032662819
0.0061238399
0.0079807227
0.0049469851
-0.0081882397
-0.01882218
-0.0021968225
0.0059553883
0.0079331102
0.014033024
0.021474147
0.0046683534
-0.0050925773
0.011082253
0.0051526839
0.0080323035
-0.0028942422
-0.0046761706
0.0030949287
0.0084720529
0.016506113
0.027733965
0.016790815
0.0049353004
-0.0083865158
-0.0022571685
-0.0092563944
-0.0075714196
0.010152909
0.0086046643
0.018948938
0.24119748
0.23612292
0.23667903
0.23853051
0.24695026
0.2493109
0.25083484
0.25376126
0.2552239
0.24241194
0.27040749
0.25513764
0.26516233
0.26077556
0.2595285
0.26181019
0.26060633
0.26520806
0.24602278
0.24544963
0.24598653
0.25060876
0.24809713
0.24763854
0.24918647
0.24856555
0.25313128
0.25414271
0.25220449
0.25176049
-0.21408285
-0.22778572
-0.20275625
-0.19071667
-0.18794681
-0.1830676
-0.22989594
-0.23467411
-0.22799882
-0.21889545
-0.19328848
-0.23115076
-0.24146099
-0.24024029
-0.23513488
-0.2192508
-0.23437583
-0.18071997
-0.21213071
-0.21910098
-0.22560182
-0.22596122
-0.23210235
-0.21788081
-0.2217086
-0.2167058
-0.22669982
-0.22474341
-0.21598578
-0.20909477
0.10640902
0.068738628
0.062379593
0.062739132
0.058198456
0.036471225
0.05232327
0.088278287
0.082880189
0.060042243
0.031826222
0.059378696
0.085739503
0.093105582
0.069719399
0.080681016
0.07167478
0.05077562
0.068048938
0.079820698
0.077151677
0.095218559
0.083858865
0.091435829
0.076334058
0.0872123
0.081989318
0.099511643
0.092774066
0.1014243
-0.031706201
-0.043623481
-0.075803169
-0.049575251
-0.05498137
-0.071357193
-0.078575208
-0.036522244
-0.020809758
-0.059177087
-0.036364624
-0.060081442
-0.019433639
-0.035400099
-0.073207732
-0.077689044
-0.049101403
-0.074768013
-0.070385597
-0.060351629
-0.050794984
-0.047515959
-0.042537779
-0.088752439
-0.080533565
-0.088366125
-0.04917368
-0.043062938
-0.085022106
-0.084656266
0.023568396
0.016548458
0.014668844
0.016228196
-0.0011265488
0.014682903
0.018097223
0.027547381
0.028969527
0.015819326
0.023874138
0.022666459
0.024542957
0.019172646
0.031159893
0.035422922
0.0079776379
0.019762038
0.0012512718
-0.0074619511
-0.0021052614
-0.0012261533
0.0037692141
0.018791967
0.045683522
0.022310283
0.0049179193
-0.0041922176
0.0060283518
0.036880282
0.2389847
0.23813871
0.23535225
0.23476307
0.24624289
0.24220291
0.2473717
0.25197025
0.25014475
0.24294051
0.26171144
0.26731493
0.25901262
0.2573137
0.26274549
0.25538224
0.26330571
0.26189561
0.26417247
0.26519943
0.25678583
0.26204237
0.25013149
0.25860237
0.26004868
0.2586247
0.25741858
0.25556388
0.2570094
0.24975886
-0.21857249
-0.22450699
-0.21676841
-0.20728701
-0.20539102
-0.21346461
-0.24009214
-0.23141879
-0.23170343
-0.22119923
-0.18075302
-0.18041233
-0.23885425
-0.23611666
-0.23722806
-0.23780659
-0.20557842
-0.18878252
-0.17650971
-0.17645046
-0.18721153
-0.20144008
-0.22130121
-0.23399608
-0.24256503
-0.23676376
-0.23339217
-0.20390372
-0.19792241
-0.20601586
0.1008254
0.085031615
0.065996959
0.063540627
0.060309907
0.064838466
0.07056616
0.1078726
0.074540298
0.066494041
0.050772951
0.028403975
0.055210386
0.078647248
0.081279856
0.052508961
0.039518186
0.043098367
0.051738657
0.044165144
0.045015364
0.0286029
0.060445739
0.075284239
0.091312971
0.081706279
0.066199938
0.041915033
0.044368586
0.074379457
-0.031489217
-0.038974074
-0.0583723
-0.071465612
-0.072817097
-0.086675851
-0.047811649
-0.035232616
-0.037077031
-0.055255971
-0.043471174
-0.063082838
-0.064860395
-0.028843792
-0.038337261
-0.056641779
-0.064356018
-0.057626122
-0.037033413
-0.021732908
-0.053642679
-0.057833217
-0.061345084
-0.034478629
-0.022801834
-0.032883911
-0.054269815
-0.070815009
-0.05663195
-0.055831726
0.013227728
0.0075037613
-0.0023757017
0.007513682
0.021447394
0.01750899
0.020441773
0.02777294
0.016468336
0.007958916
0.0010371015
0.015569173
0.02181774
0.019753085
0.021246724
0.0050814146
0.0065059963
-0.0094863237
-0.016005657
-0.0031645913
-0.0068748958
0.013650685
0.022682898
0.022062708
0.03228669
0.022300007
0.0085936747
0.015042473
-0.0052345184
0.0039933514
0.24279667
0.23860325
0.24900062
0.24836682
0.26061879
0.25375376
0.25060712
0.2553747
0.25611933
0.24575747
0.26777449
0.26218234
0.26429269
0.27575503
0.27491528
0.2711055
0.25999975
0.25778915
0.26549009
0.25202797
0.2570584
0.25104068
0.25919393
0.26058509
0.25359401
0.24965389
-0.21365513
-0.21496427
-0.18186179
-0.1593369
-0.15019265
-0.20202133
-0.23409303
-0.23239821
-0.22918199
-0.21638358
-0.18654804
-0.196585
-0.23164219
-0.23058428
-0.18504605
-0.16504437
-0.18437576
-0.20467976
-0.19196705
-0.20462577
-0.22947328
-0.2207122
-0.18396488
-0.14315789
-0.17893544
-0.20188424
0.085753722
0.086253318
0.049759302
0.039985163
0.023391622
0.021996161
0.049377502
0.08463214
0.06745127
0.065263787
0.047991305
0.045427671
0.074148136
0.079018275
0.047484035
0.063662799
0.037632895
0.084173863
0.033620499
0.078777288
0.05622748
0.054242663
0.023219083
0.035107711
0.055900677
0.096343619
-0.02801332
-0.036114694
-0.024662526
-0.048945381
-0.059712173
-0.066650399
-0.052271335
-0.038007391
-0.02912525
-0.056012213
-0.025722974
-0.061960975
-0.033698849
-0.02705986
-0.042410169
-0.032671576
-0.073270931
-0.07545166
-0.067146752
-0.091029829
-0.039526126
-0.078290247
-0.057336842
-0.063498103
-0.046371811
-0.029501967
0.011281379
0.0022626113
-0.012837017
-0.023871543
-0.011237613
-0.0029339671
0.0046014011
0.012205657
0.0082530853
0.00039483669
-0.0089329447
-0.0064373929
-0.00054564013
0.012047249
-0.0044043717
-0.01432586
-0.01656178
0.0056048578
0.025019449
0.032665203
0.019172621
0.013007702
0.0024885357
-0.0035968706
-0.023311493
-0.0060147585
0.24459578
0.2401415
0.24714277
0.25506445
0.26106962
0.26043871
0.25426006
0.260371
0.25322952
0.24926701
0.266587
0.26638221
0.2685511
0.2636268
0.26673844
0.25894835
0.25235657
0.25370138
0.25198428
0.2528816
0.25442995
0.25478347
0.25205837
0.26769596
0.27060197
0.27149538
-0.17594637
-0.20681706
-0.17722437
-0.15817214
-0.18121102
-0.23230566
-0.21406301
-0.19383032
-0.20920706
-0.20530694
-0.17183144
-0.18384283
-0.21259185
-0.22360665
-0.19172744
-0.20355266
-0.23176586
-0.2367844
-0.23074719
-0.21843398
-0.23604941
-0.23482739
-0.2271537
-0.1821807
-0.17084471
-0.16903586
0.063302677
0.088399427
0.042349957
0.030776506
0.020021603
0.053380149
0.088415727
0.031608886
0.080739856
0.071553198
0.057996847
0.054915636
0.074736335
0.085896392
0.058686135
0.056896645
0.063172881
0.082818369
0.10079111
0.090561127
0.096125101
0.070341366
0.054766179
0.048885418
0.049144352
0.050722657
-0.026132789
-0.031008584
-0.041302568
-0.039312352
-0.061704563
-0.037832816
-0.059736086
-0.073415156
-0.074336753
-0.073638059
-0.039892999
-0.048309986
-0.051932493
-0.043585158
-0.041928559
-0.060415294
-0.059221041
-0.044335159
-0.055792047
-0.075725527
-0.042665123
-0.05137107
-0.051389029
-0.037627399
-0.027079674
-0.011072958
-0.021080571
-0.0148026
-0.025709149
-0.020643228
-0.014787298
-0.013002834
0.000220497
0.01469905
0.030308683
0.00085932322
-0.0060117214
-0.011649983
-0.0041370429
0.0037313575
-0.013016156
-0.0031711607
0.0045601802
0.016708237
0.028719176
0.03056889
0.009521361
-0.0069469263
-0.017134189
-0.021013426
-0.015806705
-0.011130104
0.23941476
0.24031683
0.23982119
0.24165227
0.24389646
0.25069769
0.24964181
0.24858852
0.2540791
0.25807071
0.2648998
0.25560794
0.26617217
0.24972001
0.2609422
0.25721462
0.25079885
0.2707046
0.26413247
0.26752189
0.26028094
0.25751535
0.25817416
0.25233869
0.25084692
0.25496876
0.25015323
0.25170355
0.24926034
0.24289152
-0.20324747
-0.20365096
-0.20061926
-0.20143275
-0.22579952
-0.23205376
-0.22663914
-0.21440746
-0.19665948
-0.18020347
-0.17115136
-0.17098007
-0.18182029
-0.22046738
-0.23086763
-0.22900017
-0.21884281
-0.19003948
-0.1722141
-0.1766038
-0.21276633
-0.23979423
-0.24022242
-0.24210509
-0.23834601
-0.22460455
-0.22840164
-0.20899104
-0.21216907
-0.213355
0.078066201
0.079812009
0.073687533
0.064705585
0.063970529
0.087165562
0.070110792
0.052058722
0.032487546
0.049741717
0.042794409
0.061986351
0.025261664
0.03961424
0.065760677
0.070501907
0.044868579
0.028646339
0.060769339
0.045999388
0.040072392
0.074137907
0.091799153
0.091447768
0.088111158
0.083821381
0.069820668
0.063769226
0.066683509
0.079325506
-0.080625973
-0.085503193
-0.090781069
-0.08341787
-0.067585016
-0.043771201
-0.029535894
-0.051743109
-0.054552577
-0.040370691
-0.025213365
-0.055188021
-0.053080105
-0.072805299
-0.029322545
-0.029071804
-0.072006517
-0.051759726
-0.04333468
-0.035645286
-0.070924058
-0.04721221
-0.032094396
-0.031966914
-0.040231823
-0.064779184
-0.048905556
-0.072020994
-0.089609999
-0.060871982
0.012663935
0.020068977
0.029886237
0.010573104
0.0093001288
0.024915432
-0.0010493832
0.0018051257
-0.00017373601
-0.010177838
-0.0083102907
-0.013017102
0.0096487178
0.010792664
0.019036626
0.017481244
0.01452533
0.0047843948
-0.01182957
0.00066881617
0.01852463
0.016897909
0.017336622
0.014009715
0.011866526
0.01399826
0.00084758834
0.0092975096
0.020684495
-0.0037351844
0.24296754
0.2396654
0.2384986
0.23825684
0.25130419
0.24522937
0.24314193
0.24660486
0.24487503
0.24579387
0.23742226
0.25883269
0.25459788
0.25522661
0.25938868
0.25682627
0.25360583
0.2503912
0.25824692
0.25577754
0.25447877
0.2582203
0.25360413
0.25754947
0.25770107
0.2677304
0.25527876
0.25858058
0.25944823
0.25746455
-0.21643851
-0.22354378
-0.22007552
-0.20496479
-0.19227718
-0.21909848
-0.22751157
-0.22859255
-0.22738539
-0.22077467
-0.22375039
-0.18935823
-0.19651663
-0.234889
-0.24551222
-0.23959665
-0.23668932
-0.21340182
-0.1844247
-0.19519089
-0.22840203
-0.23618261
-0.22915327
-0.22682208
-0.21369573
-0.18784117
-0.20926503
-0.23405303
-0.24040362
-0.23243474
0.096084533
0.088485788
0.052794263
0.073387745
0.048831507
0.075476526
0.087306514
0.083354166
0.081650189
0.063634336
0.048013494
0.035178909
0.054009016
0.057107878
0.091708829
0.093017109
0.066479007
0.060029671
0.056475004
0.029481509
0.059122443
0.080198389
0.090646465
0.066016122
0.083967543
0.034206299
0.071605625
0.049307217
0.083845692
0.088732518
-0.02589626
-0.036450252
-0.044164618
-0.05270301
-0.059544838
-0.065385018
-0.037818726
-0.032416301
-0.035371327
-0.037143404
-0.053457711
-0.050857245
-0.056618319
-0.042876917
-0.031752293
-0.029253813
-0.037954808
-0.069128853
-0.04454233
-0.046988869
-0.055556003
-0.023261474
-0.046997853
-0.074367496
-0.069640096
-0.064406976
-0.061521218
-0.025743053
-0.022689914
-0.027717132
0.020141756
0.015112013
0.0070958037
-0.0017420515
0.015936936
0.012990006
-0.0058452513
-0.002962812
0.0027584532
0.0097449865
0.0031193001
0.0052836833
0.019659731
0.011362369
0.020543394
0.020661488
0.0088702632
0.020777475
-0.0084014552
0.0085591304
0.012448358
0.003203962
0.0034676954
0.007855969
0.03958812
0.0090287383
-0.0013815559
0.0064817423
0.017645822
0.017158676
0.24696787
0.24067152
0.24671168
0.24870413
0.25264291
0.2516873
0.25368956
0.25206597
0.24806382
0.2565623
0.25023204
0.24913079
0.25040093
0.25199982
0.26321747
0.251523
0.25480692
0.25450346
0.25077768
0.25534499
0.25698732
0.25728998
0.26040277
0.26532881
0.24882532
0.25446433
0.25168004
0.25604652
0.24948535
0.2522721
-0.21248604
-0.2159137
-0.18837549
-0.17294393
-0.17041406
-0.19365627
-0.19540764
-0.21253314
-0.23266794
-0.23266559
-0.23308084
-0.21608165
-0.22851756
-0.21970958
-0.19463952
-0.21435777
-0.22110484
-0.23179094
-0.23184791
-0.22941841
-0.24099824
-0.22416005
-0.20179545
-0.19441927
-0.20945228
-0.22481906
-0.19442601
-0.20536478
-0.22677165
-0.22281206
0.07781803
0.047790179
0.034936149
0.048557361
0.050723161
0.060598798
0.032712611
0.053001389
0.050660536
0.096093119
0.071567319
0.073170961
0.051955576
0.062238753
0.03421322
0.067587456
0.056569299
0.074785439
0.070303525
0.085932519
0.072089647
0.060734365
0.049293687
0.053470883
0.083606102
0.078052463
0.065584475
0.043538268
0.066260723
0.087434927
-0.042470737
-0.068577215
-0.071288002
-0.050825738
-0.040298032
-0.052706432
-0.049853769
-0.06546584
-0.05040209
-0.035779532
-0.034557495
-0.079832919
-0.040169863
-0.077646246
-0.072503795
-0.082387836
-0.077729208
-0.048701052
-0.041324926
-0.044456122
-0.033018019
-0.073780952
-0.048490653
-0.036799684
-0.075440963
-0.032846308
-0.044631863
-0.060503509
-0.055989513
-0.038758518
0.011370368
0.0060909383
0.0043574511
-0.012352243
-0.012294511
-0.0074570927
0.0064693374
0.013158827
0.0093884891
0.022896458
0.015223295
0.02222609
0.012010266
-0.001394343
0.017221666
0.016732321
-0.0036869744
-0.0035325628
0.0017834884
0.0060655094
0.01194139
0.012422952
-0.0065161573
-0.0091894102
0.006973639
-0.0069586907
-0.0086919307
0.0067754225
0.0098380277
0.011717001
0.24552024
0.24137525
0.24791412
0.24699341
0.25496863
0.2474006
0.24464153
0.25696059
0.24593713
0.24960968
0.24969723
0.24578587
0.25138787
0.25781739
0.25829197
0.25769659
0.2559557
0.25957279
0.25527552
0.25494981
0.25713553
0.26132442
0.26148236
0.25602278
0.24777617
0.25835641
0.24131127
0.26462723
0.2524774
0.25416683
-0.20560786
-0.18275267
-0.16095515
-0.15556926
-0.16684825
-0.20248375
-0.21377508
-0.16638858
-0.20549552
-0.22325866
-0.223537
-0.21669533
-0.1997151
-0.17464954
-0.16308844
-0.17761933
-0.18502109
-0.1808931
-0.19869969
-0.22329207
-0.23431169
-0.20750087
-0.16752799
-0.19058598
-0.21035472
-0.21429161
-0.19435219
-0.16194165
-0.20278674
-0.21847891
0.060663078
0.03554002
0.041084239
0.053836965
0.048235909
0.074690141
0.073094509
0.035014204
0.044349182
0.065675206
0.07610688
0.054125909
0.046234384
0.04727152
0.055094212
0.050427954
0.056697744
0.054805575
0.039494286
0.070649985
0.064092674
0.053787675
0.045540211
0.060241393
0.09301874
0.089714736
0.064990468
0.02552915
0.040495302
0.062181691
-0.039333492
-0.059484207
-0.046335202
-0.033398784
-0.016973656
-0.048517006
-0.028192104
-0.035142585
-0.041441461
-0.035780729
-0.034570727
-0.066062785
-0.048743059
-0.035417251
-0.038559992
-0.056930376
-0.036347026
-0.031603555
-0.061503617
-0.034306192
-0.038001755
-0.066524352
-0.054154764
-0.042623629
-0.032613421
-0.012799973
-0.031990144
-0.043553912
-0.047879725
-0.033499228
0.0018540562
0.0032684058
-0.0090106956
-0.012626183
-0.0054183807
-0.0078791843
0.0056495137
0.0039687403
0.0011749338
0.0071079055
0.011162377
0.0022284189
-0.008123746
-0.013812219
-0.0028452612
-0.0012636539
-0.011658657
-0.0098082749
0.0047961196
0.0042194692
0.0069063776
0.020389408
0.0053997808
-0.0081090956
-0.0030451919
-0.00092617627
-0.013411292
0.0062739351
0.0074725792
0.0057446732
)
;

boundaryField
{
    minX
    {
        type            fixedFluxPressure;
        gradient        uniform 0;
        value           nonuniform List<scalar> 
50
(
0.24744965
-0.20473005
0.058629489
-0.043019517
-0.0032370728
0.24556162
-0.21404324
0.062225476
-0.043610127
0.0061238399
0.24119748
-0.21408285
0.10640902
-0.031706201
0.023568396
0.2389847
-0.21857249
0.1008254
-0.031489217
0.013227728
0.24279667
-0.21365513
0.085753722
-0.02801332
0.011281379
0.24459578
-0.17594637
0.063302677
-0.026132789
-0.021080571
0.23941476
-0.20324747
0.078066201
-0.080625973
0.012663935
0.24296754
-0.21643851
0.096084533
-0.02589626
0.020141756
0.24696787
-0.21248604
0.07781803
-0.042470737
0.011370368
0.24552024
-0.20560786
0.060663078
-0.039333492
0.0018540562
)
;
    }
    maxX
    {
        type            fixedFluxPressure;
        gradient        uniform 0;
        value           nonuniform List<scalar> 
50
(
0.25334572
-0.21988442
0.069052769
-0.036871047
0.0079033681
0.2547299
-0.22721552
0.089443126
-0.032662819
0.018948938
0.25176049
-0.20909477
0.1014243
-0.084656266
0.036880282
0.24975886
-0.20601586
0.074379457
-0.055831726
0.0039933514
0.24965389
-0.20188424
0.096343619
-0.029501967
-0.0060147585
0.27149538
-0.16903586
0.050722657
-0.011072958
-0.011130104
0.24289152
-0.213355
0.079325506
-0.060871982
-0.0037351844
0.25746455
-0.23243474
0.088732518
-0.027717132
0.017158676
0.2522721
-0.22281206
0.087434927
-0.038758518
0.011717001
0.25416683
-0.21847891
0.062181691
-0.033499228
0.0057446732
)
;
    }
    minY
    {
        type            fixedValue;
        value           uniform 0;
    }
    minZ
    {
        type            fixedFluxPressure;
        gradient        uniform 0;
        value           nonuniform List<scalar> 
150
(
0.24744965
-0.20473005
0.058629489
-0.043019517
-0.0032370728
0.24776759
-0.17589132
0.024376777
-0.060930006
-0.0021582414
0.25006421
-0.15694655
0.05230828
-0.045484354
-0.017212096
0.24726888
-0.15317925
0.049553278
-0.026313126
-0.0081789493
0.25798941
-0.15859008
0.051852783
-0.014898698
-0.0099702018
0.24787084
-0.20747246
0.071107898
-0.062677889
-0.024133803
0.24690516
-0.20241886
0.061256372
-0.068705021
0.011135882
0.25443295
-0.21440952
0.072052913
-0.065385075
0.020424575
0.24576106
-0.21035911
0.08037312
-0.056185606
0.0036954117
0.26176935
-0.19587177
0.035883855
-0.06024243
-0.0017794027
0.25270653
-0.21978916
0.088842678
-0.042778309
-0.011366907
0.2564222
-0.22996133
0.071409018
-0.006144905
-0.0036498838
0.2492223
-0.22231606
0.053333352
-0.047204895
-0.00090763068
0.25958277
-0.19425958
0.039520131
-0.031829411
-0.0073299743
0.26107707
-0.16173999
0.055534117
-0.035640499
-0.011114778
0.26351586
-0.15791653
0.057565852
-0.02882265
-0.0074132303
0.26392368
-0.16650297
0.052271877
-0.027307573
-0.0086594914
0.25915674
-0.17692271
0.04681918
-0.046335928
-0.010235039
0.2524288
-0.20171649
0.040978725
-0.063022318
0.009251715
0.24684444
-0.22377585
0.065664626
-0.055712902
0.0080150466
0.25318211
-0.22753852
0.087699785
-0.036786487
0.01192335
0.25358995
-0.20958607
0.087989134
-0.067345271
0.014179262
0.24983088
-0.21000859
0.11256626
-0.04069651
-0.0079017733
0.2522457
-0.22183309
0.07416219
-0.041212839
0.0097081033
0.25900527
-0.17662407
0.039397476
-0.04926202
0.0019963495
0.262958
-0.15689441
0.060877745
-0.027448659
-0.0084505616
0.25687627
-0.16107411
0.056927235
-0.037552294
-0.0142217
0.25903732
-0.17462027
0.038905354
-0.054753621
-0.0051151177
0.24828254
-0.21171343
0.041170199
-0.066119488
0.0078464819
0.25334572
-0.21988442
0.069052769
-0.036871047
0.0079033681
)
;
    }
    maxZ
    {
        type            fixedFluxPressure;
        gradient        uniform 0;
        value           nonuniform List<scalar> 
150
(
0.24552024
-0.20560786
0.060663078
-0.039333492
0.0018540562
0.24137525
-0.18275267
0.03554002
-0.059484207
0.0032684058
0.24791412
-0.16095515
0.041084239
-0.046335202
-0.0090106956
0.24699341
-0.15556926
0.053836965
-0.033398784
-0.012626183
0.25496863
-0.16684825
0.048235909
-0.016973656
-0.0054183807
0.2474006
-0.20248375
0.074690141
-0.048517006
-0.0078791843
0.24464153
-0.21377508
0.073094509
-0.028192104
0.0056495137
0.25696059
-0.16638858
0.035014204
-0.035142585
0.0039687403
0.24593713
-0.20549552
0.044349182
-0.041441461
0.0011749338
0.24960968
-0.22325866
0.065675206
-0.035780729
0.0071079055
0.24969723
-0.223537
0.07610688
-0.034570727
0.011162377
0.24578587
-0.21669533
0.054125909
-0.066062785
0.0022284189
0.25138787
-0.1997151
0.046234384
-0.048743059
-0.008123746
0.25781739
-0.17464954
0.04727152
-0.035417251
-0.013812219
0.25829197
-0.16308844
0.055094212
-0.038559992
-0.0028452612
0.25769659
-0.17761933
0.050427954
-0.056930376
-0.0012636539
0.2559557
-0.18502109
0.056697744
-0.036347026
-0.011658657
0.25957279
-0.1808931
0.054805575
-0.031603555
-0.0098082749
0.25527552
-0.19869969
0.039494286
-0.061503617
0.0047961196
0.25494981
-0.22329207
0.070649985
-0.034306192
0.0042194692
0.25713553
-0.23431169
0.064092674
-0.038001755
0.0069063776
0.26132442
-0.20750087
0.053787675
-0.066524352
0.020389408
0.26148236
-0.16752799
0.045540211
-0.054154764
0.0053997808
0.25602278
-0.19058598
0.060241393
-0.042623629
-0.0081090956
0.24777617
-0.21035472
0.09301874
-0.032613421
-0.0030451919
0.25835641
-0.21429161
0.089714736
-0.012799973
-0.00092617627
0.24131127
-0.19435219
0.064990468
-0.031990144
-0.013411292
0.26462723
-0.16194165
0.02552915
-0.043553912
0.0062739351
0.2524774
-0.20278674
0.040495302
-0.047879725
0.0074725792
0.25416683
-0.21847891
0.062181691
-0.033499228
0.0057446732
)
;
    }
    bottomWater_to_rightSolid
    {
        type            fixedFluxPressure;
        gradient        uniform 0;
        value           nonuniform List<scalar> 
130
(
-0.010235039
0.009251715
0.0080150466
0.01192335
0.014179262
-0.0079017733
0.0097081033
0.0019963495
-0.0084505616
-0.0142217
-0.0051151177
0.0078464819
0.0079033681
0.0030949287
0.0084720529
0.016506113
0.027733965
0.016790815
0.0049353004
-0.0083865158
-0.0022571685
-0.0092563944
-0.0075714196
0.010152909
0.0086046643
0.018948938
0.019762038
0.0012512718
-0.0074619511
-0.0021052614
-0.0012261533
0.0037692141
0.018791967
0.045683522
0.022310283
0.0049179193
-0.0041922176
0.0060283518
0.036880282
-0.0094863237
-0.016005657
-0.0031645913
-0.0068748958
0.013650685
0.022682898
0.022062708
0.03228669
0.022300007
0.0085936747
0.015042473
-0.0052345184
0.0039933514
0.012047249
-0.0044043717
-0.01432586
-0.01656178
0.0056048578
0.025019449
0.032665203
0.019172621
0.013007702
0.0024885357
-0.0035968706
-0.023311493
-0.0060147585
0.0037313575
-0.013016156
-0.0031711607
0.0045601802
0.016708237
0.028719176
0.03056889
0.009521361
-0.0069469263
-0.017134189
-0.021013426
-0.015806705
-0.011130104
0.0047843948
-0.01182957
0.00066881617
0.01852463
0.016897909
0.017336622
0.014009715
0.011866526
0.01399826
0.00084758834
0.0092975096
0.020684495
-0.0037351844
0.020777475
-0.0084014552
0.0085591304
0.012448358
0.003203962
0.0034676954
0.007855969
0.03958812
0.0090287383
-0.0013815559
0.0064817423
0.017645822
0.017158676
-0.0035325628
0.0017834884
0.0060655094
0.01194139
0.012422952
-0.0065161573
-0.0091894102
0.006973639
-0.0069586907
-0.0086919307
0.0067754225
0.0098380277
0.011717001
-0.0098082749
0.0047961196
0.0042194692
0.0069063776
0.020389408
0.0053997808
-0.0081090956
-0.0030451919
-0.00092617627
-0.013411292
0.0062739351
0.0074725792
0.0057446732
)
;
    }
    bottomWater_to_leftSolid
    {
        type            fixedFluxPressure;
        gradient        uniform 0;
        value           nonuniform List<scalar> 
130
(
-0.0032370728
-0.0021582414
-0.017212096
-0.0081789493
-0.0099702018
-0.024133803
0.011135882
0.020424575
0.0036954117
-0.0017794027
-0.011366907
-0.0036498838
-0.00090763068
0.0061238399
0.0079807227
0.0049469851
-0.0081882397
-0.01882218
-0.0021968225
0.0059553883
0.0079331102
0.014033024
0.021474147
0.0046683534
-0.0050925773
0.011082253
0.023568396
0.016548458
0.014668844
0.016228196
-0.0011265488
0.014682903
0.018097223
0.027547381
0.028969527
0.015819326
0.023874138
0.022666459
0.024542957
0.013227728
0.0075037613
-0.0023757017
0.007513682
0.021447394
0.01750899
0.020441773
0.02777294
0.016468336
0.007958916
0.0010371015
0.015569173
0.02181774
0.011281379
0.0022626113
-0.012837017
-0.023871543
-0.011237613
-0.0029339671
0.0046014011
0.012205657
0.0082530853
0.00039483669
-0.0089329447
-0.0064373929
-0.00054564013
-0.021080571
-0.0148026
-0.025709149
-0.020643228
-0.014787298
-0.013002834
0.000220497
0.01469905
0.030308683
0.00085932322
-0.0060117214
-0.011649983
-0.0041370429
0.012663935
0.020068977
0.029886237
0.010573104
0.0093001288
0.024915432
-0.0010493832
0.0018051257
-0.00017373601
-0.010177838
-0.0083102907
-0.013017102
0.0096487178
0.020141756
0.015112013
0.0070958037
-0.0017420515
0.015936936
0.012990006
-0.0058452513
-0.002962812
0.0027584532
0.0097449865
0.0031193001
0.0052836833
0.019659731
0.011370368
0.0060909383
0.0043574511
-0.012352243
-0.012294511
-0.0074570927
0.0064693374
0.013158827
0.0093884891
0.022896458
0.015223295
0.02222609
0.012010266
0.0018540562
0.0032684058
-0.0090106956
-0.012626183
-0.0054183807
-0.0078791843
0.0056495137
0.0039687403
0.0011749338
0.0071079055
0.011162377
0.0022284189
-0.008123746
)
;
    }
    bottomWater_to_heater
    {
        type            fixedFluxPressure;
        gradient        uniform 0;
        value           nonuniform List<scalar> 
92
(
-0.0073299743
-0.011114778
-0.0074132303
-0.0086594914
0.0051526839
0.0080323035
-0.0028942422
-0.0046761706
0.019172646
0.031159893
0.035422922
0.0079776379
0.2573137
0.26274549
0.25538224
0.26330571
-0.23611666
-0.23722806
-0.23780659
-0.20557842
0.078647248
0.081279856
0.052508961
0.039518186
-0.028843792
-0.038337261
-0.056641779
-0.064356018
0.019753085
0.019753085
0.021246724
0.021246724
0.0050814146
0.0050814146
0.0065059963
0.0065059963
0.26429269
0.27575503
-0.23164219
-0.23058428
0.074148136
0.079018275
-0.033698849
-0.02705986
-0.00054564013
0.012047249
0.2685511
0.24972001
0.2609422
0.25721462
0.2636268
0.25079885
-0.21259185
-0.22046738
-0.23086763
-0.22900017
-0.22360665
-0.21884281
0.074736335
0.03961424
0.065760677
0.070501907
0.085896392
0.044868579
-0.051932493
-0.072805299
-0.029322545
-0.029071804
-0.043585158
-0.072006517
-0.0041370429
0.010792664
0.019036626
0.017481244
0.0037313575
0.01452533
0.010792664
0.019036626
0.017481244
0.01452533
0.011362369
0.020543394
0.020661488
0.0088702632
-0.001394343
0.017221666
0.016732321
-0.0036869744
-0.013812219
-0.0028452612
-0.0012636539
-0.011658657
)
;
    }
}


// ************************************************************************* //
