/*--------------------------------*- C++ -*----------------------------------*\
| =========                 |                                                 |
| \\      /  F ield         | OpenFOAM: The Open Source CFD Toolbox           |
|  \\    /   O peration     | Version:  v2012                                 |
|   \\  /    A nd           | Website:  www.openfoam.com                      |
|    \\/     M anipulation  |                                                 |
\*---------------------------------------------------------------------------*/
FoamFile
{
    version     2.0;
    format      ascii;
    class       surfaceScalarField;
    location    "140/bottomWater";
    object      phi;
}
// * * * * * * * * * * * * * * * * * * * * * * * * * * * * * * * * * * * * * //

dimensions      [1 0 -1 0 0 0 0];
oriented        oriented;


internalField   nonuniform List<scalar> 
3858
(
-0.00020750143
8.1732803e-05
0.00012744482
-0.00023448206
-0.00010440726
0.00013321056
-0.0001542388
-0.00016194624
8.28797e-05
8.780268e-07
-0.00023153151
7.8162493e-05
0.00021444043
-0.00028030454
6.5768858e-05
0.00020771189
4.4343443e-07
7.8416219e-06
0.00010664148
9.9515913e-05
3.352227e-06
-5.1007014e-05
0.00011594144
4.142371e-05
-0.00019943344
0.00013885591
1.1653526e-05
-6.0431524e-05
-0.00021139564
7.0408581e-05
-6.808362e-05
9.8505023e-05
-9.0678591e-05
-0.00017351816
0.00013673879
-3.201652e-05
-0.00027728549
0.0001037877
1.3020766e-06
-0.00020553332
-0.00015943381
8.6457792e-05
-5.8418009e-05
-0.00020308537
5.4146225e-05
0.00010205945
-0.00022607217
6.3057255e-05
0.0002331706
-0.00022994506
9.6405737e-05
0.00034397025
-0.00017700339
6.5182288e-05
0.00036506494
-5.269366e-05
3.2311349e-05
0.00024558466
0.00012904829
-7.4394958e-06
4.2070924e-05
0.0001554498
4.8283279e-05
-0.00012683241
0.00010596465
6.2899369e-05
-0.00020581309
8.2404935e-06
7.1762492e-05
-0.00026756503
5.6011008e-05
6.2491366e-06
-0.00017036695
-0.00010821193
9.7678645e-06
3.7089552e-05
-0.00027339128
6.36405e-05
0.00018159482
-0.00024165696
9.6466409e-05
0.00029663172
-0.0002208802
0.00010483779
0.00021013466
7.3276229e-06
8.0776087e-05
0.00013351935
7.6745184e-05
-0.00039288769
0.00032508999
0.0001495305
-0.00031676136
-0.00032531514
0.00014478155
-0.00016749902
-0.00035890589
4.7697306e-05
4.604053e-05
-0.00049474976
4.9678693e-05
0.00033433641
-0.00058094436
1.2343944e-05
0.00036194228
3.4020178e-05
-6.1182609e-05
0.00035928746
7.0465366e-05
3.1705369e-05
0.00012325168
0.00022413251
0.00012784472
-0.00012025648
0.00023559065
0.00014677342
0.00012420104
-0.00055389906
9.8045905e-05
0.00015018271
6.0631578e-05
1.1891787e-05
-0.00022367711
0.00046823854
4.2360062e-05
-0.00032264404
3.7738262e-05
0.00016501638
-0.00020207144
-0.00046146746
0.00018146106
-3.4877849e-05
-0.00043801638
6.773743e-05
0.00012892366
-0.00046132056
7.1446882e-05
0.00021179511
-0.00050234798
0.00018953147
0.00033163003
-0.0004318541
0.00013501579
0.00041702826
-0.00023887829
0.00010078639
0.00030640352
0.00021533002
2.4343007e-05
-9.0441438e-05
0.00050938014
4.2914611e-05
-0.00017763533
4.1631778e-05
0.00015152675
-0.00021407441
-7.2387642e-05
0.00011706721
-0.00042505098
0.00032028853
-5.3300951e-05
-0.00021966614
-0.00027191992
-4.1676856e-05
1.782187e-05
-0.00054309003
3.2210744e-05
0.00018278475
-0.00050579136
9.9171518e-05
0.00036833881
-0.00052152174
0.00011508749
0.00037460125
-9.4610583e-05
9.5675763e-05
0.00045099235
5.7128254e-05
4.2799183e-05
0.00021731127
6.497954e-05
-6.7802252e-05
-0.00010770706
-0.00010700664
-0.00012629614
-0.00025270463
-4.7707368e-05
-7.7230651e-05
-0.00045068483
-9.3130413e-05
-7.4197923e-05
-0.00052168995
-6.2287142e-05
8.4739673e-05
-0.00026341117
0.00013849376
6.3069775e-05
-7.7774961e-05
0.00016991023
0.00010954755
6.9965543e-05
0.0001076892
6.1117091e-05
0.00015236144
0.00013165969
-0.00028632891
-0.00015482504
-5.1628021e-05
-5.081671e-05
-0.00031707509
0.00014219448
0.00026883467
0.00010018637
4.8400814e-05
0.00029967911
-5.8897861e-05
6.5791701e-05
0.00012606121
-0.00024897124
-3.8878307e-05
6.4244142e-05
-0.00032875925
-4.7440048e-05
5.7156524e-05
-0.00042192025
-3.231268e-05
6.9836449e-05
-0.00045862553
-5.6402372e-05
-5.7112614e-05
-0.00030500571
1.0067048e-07
-0.0001490042
-9.3664325e-05
-5.3322383e-05
-2.2729921e-05
0.00013326351
-4.4207777e-05
-1.125241e-05
0.00047208793
2.5814699e-05
-2.8920447e-06
-5.3720867e-05
8.6992275e-05
7.0371223e-05
-0.00027600266
0.00013035174
0.00015119184
0.00020115173
3.8316177e-05
7.3789776e-05
-9.7267483e-05
-9.7250381e-05
1.6725822e-05
-0.00043074536
-5.5280728e-05
2.227361e-05
-0.00042466118
-8.6677976e-05
-0.00015512101
-0.00016071917
-0.00018340795
-0.00010947939
-7.3311854e-05
-6.6940344e-05
0.00036400546
-2.24925e-05
0.00016957468
1.771986e-05
3.0016724e-05
1.9824131e-05
1.8236843e-05
2.3806639e-05
-5.1552212e-05
-0.00021136481
3.0036512e-05
-1.6284346e-05
-0.00043159585
-5.4356855e-05
2.1861769e-05
-0.00050187135
-5.7964713e-05
0.00011311622
-0.00031456651
-4.0099109e-05
-2.0621416e-05
0.00010736539
-5.1402705e-05
-0.00010691732
0.0002310013
-7.4739846e-05
-2.665806e-05
6.9146955e-05
2.955226e-06
-0.0001272853
-6.156411e-05
7.3663235e-06
-5.4347592e-05
-0.00037475426
-1.5258519e-05
0.00023510859
-0.00025855003
6.9280235e-05
0.00021428648
-7.7129317e-06
-3.0362798e-05
0.00014593838
-0.00017547156
-5.151545e-06
8.8068728e-05
-0.00029189025
2.1000663e-05
3.2782741e-05
-0.00040518435
3.85501e-05
4.9662212e-05
-0.00043691247
-3.859253e-05
-3.0591791e-05
-0.00022992377
5.1720639e-06
-0.00021534821
0.00014349987
-5.2407781e-05
-0.00014010065
0.00010842504
-5.0409096e-05
0.00011144656
0.00019410534
2.6435371e-05
1.0210558e-05
8.5832448e-05
-3.8317317e-05
-4.2928723e-06
-0.00028649211
2.4992878e-05
5.5706655e-05
8.3876272e-05
5.7275928e-05
1.9785299e-05
-3.377081e-05
-2.7575325e-05
-3.788346e-06
-0.00043333607
2.6164357e-05
4.8469183e-05
-0.00043210494
-4.4813771e-05
-3.7973883e-05
-5.261823e-05
-2.1657872e-05
-0.0002192632
0.00014416489
-3.6187427e-05
0.0001155847
2.9157557e-05
0.00013825433
-0.00012053447
0.00029863339
-0.00014214222
0.00025924176
-0.00017197319
-5.9765241e-06
-0.00016637756
-0.0003443522
-0.00016349567
-0.00047121654
-0.00018770217
-0.00027659039
-8.7260754e-05
2.5603169e-05
-7.1192257e-05
0.000214194
-0.00011944387
0.00029100162
-0.00013837172
0.00011420889
-0.00019796152
3.7428062e-05
-0.00018176918
0.00017668375
-0.0001469686
0.00020228367
-0.00020107146
0.00015705503
-0.0002466616
2.4304935e-05
-0.00027243425
-0.00021223893
-0.00020036861
-0.00032551454
-0.00011664816
-0.00017522658
-6.7881002e-06
-5.7142179e-05
-9.6593638e-06
0.00013040865
6.5545059e-06
0.00022265075
-6.409667e-06
2.1150135e-05
-8.4991497e-05
7.9413676e-05
2.5612725e-05
0.00020781043
-0.00016216757
-5.4937434e-05
-0.00017058821
-0.00036343035
-0.00012361202
-0.00033915616
-7.6892423e-05
-0.00016448166
-3.0509604e-05
-4.8896954e-05
-0.000167463
0.00014247341
0.00015476414
-0.00025240015
7.03796e-05
0.00015195007
-0.00014499126
-0.000171671
0.00014849751
-0.00010746437
-7.2455457e-05
0.00011598705
1.1267618e-05
-0.00013319465
8.168962e-05
0.0001703743
-0.00022778615
7.622511e-05
0.00017483273
-7.4418296e-05
7.3449974e-05
5.2738134e-05
0.00010905681
5.4413174e-05
-9.6081087e-05
0.00014351401
1.6452667e-05
-0.00015191982
9.8199293e-05
2.9264741e-05
-3.7093898e-05
-0.00012501539
-8.2009856e-05
-5.9968355e-05
8.993964e-05
-0.00010043438
-0.00016541442
0.00012630524
-2.1848421e-05
-0.00022501969
8.0681197e-05
6.5125426e-05
-4.3750065e-05
-0.00022447555
9.3924635e-05
0.00015648092
-0.00022116208
8.1026044e-05
0.00021206756
2.912664e-05
1.0448866e-05
0.00020620415
0.00011351443
-4.299022e-05
0.00014645062
0.00016260953
-7.0959664e-05
7.3964024e-05
0.00015742057
-9.3377749e-05
-8.7757131e-06
0.00013520064
-5.7097752e-06
-0.00011030358
0.00013176673
3.0605623e-05
-0.00022474281
0.00011871064
6.9052902e-05
-0.00012615982
-0.00016994884
7.5667676e-05
4.0384515e-05
-0.0002371829
7.7463123e-05
0.00019616936
-0.00022170527
0.00012710023
0.0002680171
-8.744747e-05
0.00011161446
0.000253205
9.3587053e-05
2.7049652e-05
0.00015264325
0.00016502568
1.7218926e-05
0.00015422675
7.4955214e-05
-0.00038850057
0.00051004181
0.00017046266
-0.00038324012
1.5699049e-05
0.00019420165
-0.00016611899
-0.00047429174
0.00013319692
-7.1920843e-05
-0.00023150035
0.00011452544
9.7847046e-05
-0.00033928702
4.8668419e-05
0.00031113721
-0.0005420284
3.9769483e-05
0.00041413983
-0.00028355125
0.0001378357
0.00014879073
0.00037383986
0.00012841077
-0.00021306981
0.00055361316
9.8534806e-05
-0.00013031655
1.5969919e-05
9.7522025e-05
0.00017615938
-0.00043212903
1.2529504e-05
-5.2321646e-05
0.00045895113
-9.8170386e-05
-0.00035452125
0.00055763422
3.5887008e-05
-0.00029336874
2.2288982e-05
0.00017870078
-6.5554513e-05
-0.00056081871
0.00017626637
0.00017270411
-0.00053772209
0.00014974827
0.00032850231
-4.4172024e-05
0.00010703194
0.00040671595
0.00012491019
4.540639e-05
0.00031090594
0.00041034683
-5.1140897e-05
0.00015174019
0.00051955802
-0.00017862871
-0.00012748466
0.00061843179
-0.0001610917
-0.00029548788
0.00050864578
-5.7349076e-05
-0.00017770993
8.7807478e-06
0.00010921915
-3.3129057e-05
-0.00048362832
0.00011579765
7.1950686e-05
-0.00052442129
0.00014048179
0.00019040809
-0.00050256656
0.00019461463
0.00031269652
-0.00027976393
0.00016919955
0.0004186066
7.967308e-05
2.309138e-05
0.00026685553
0.00046037584
-4.792333e-05
0.00054992959
-7.1719047e-05
9.0913916e-05
0.00044350254
4.0604893e-05
0.00013661929
-5.0637588e-05
-8.6375383e-05
-0.000108711
-9.0265322e-05
-0.0001864035
-1.154012e-05
-0.00032088799
-0.00010091366
0.00011602937
-0.00044622623
-8.2917416e-05
-0.00013953407
-9.4283043e-05
-5.3688152e-05
-0.0001383832
-0.00010902267
-5.7692078e-06
2.9724545e-05
0.00026232275
5.1098569e-05
0.00016726814
0.00046985458
7.7874681e-05
0.00016599831
-2.3155789e-05
-1.1232477e-05
-5.5014996e-05
-0.00015427165
8.5350411e-05
3.6133816e-05
0.00030003417
0.00011616897
0.00019106607
0.00045811246
1.0381231e-05
0.00026876859
-2.2872916e-05
-7.1418909e-05
-4.3247664e-05
-0.00010437868
-0.00019186382
-0.0003057146
-0.00018402188
-0.00012354595
-0.00010143063
-0.00026214836
-4.2710003e-05
5.1589814e-05
-0.00010355666
7.5547081e-05
5.5486993e-05
0.00027074644
8.2380819e-05
2.2879637e-05
0.00045821671
4.974088e-05
-1.1564455e-05
0.00059685796
8.1832614e-05
0.00012451923
0.00037418899
8.5365379e-05
0.00032586458
-0.00013845762
7.6244751e-05
0.00022695191
-0.00033844104
-7.9584292e-06
6.8226641e-05
-0.00025645425
-0.00020649216
-5.4420169e-05
-0.00027252564
-0.00016267485
-0.0001390666
-0.0002326773
-4.9118171e-05
-3.7239206e-05
-3.3693875e-06
-0.00020219288
2.9626519e-05
0.00035230299
-2.5733213e-05
0.00051765367
3.9409937e-05
0.00026742489
0.00019986506
6.2293092e-06
0.00019003129
0.00014583288
-9.527023e-05
2.0150667e-05
0.00017170999
-6.2058182e-05
-4.3692344e-05
-0.00027278434
-3.8617494e-05
2.4253004e-05
-0.00048868225
-8.3454042e-05
-9.190925e-05
2.3114009e-05
-4.13339e-05
-0.00024218124
7.8677034e-05
-8.8830423e-05
-7.4860322e-05
8.5150294e-05
-6.4888297e-05
0.00012917301
0.00025392264
1.4853847e-05
-0.00015474231
0.00032604028
-5.7914418e-05
-0.00028250065
-6.4173873e-06
-3.5354429e-05
4.0963819e-05
-9.2931985e-05
0.00013878194
0.00030785698
0.00014975246
1.1104065e-05
0.00024889113
9.7913703e-05
-6.6972288e-05
5.647023e-05
0.00012011556
-1.1072657e-05
-0.00013477472
-2.0716458e-05
6.6489641e-05
-0.00019950346
-0.00021453369
-2.1478465e-05
-0.00022054671
-0.00010233349
2.4992134e-05
-0.00014840968
9.6497234e-05
4.9704393e-05
-5.0856072e-05
0.00026463575
4.5618252e-05
0.00011536672
0.00034274898
0.00011432155
0.00024477286
9.1286315e-05
0.0001151792
0.00017477064
-8.9627952e-05
4.6165428e-05
0.00015638389
-0.00032495283
6.2174449e-05
6.1062577e-05
-0.00013971704
-4.8991233e-05
-3.8625201e-05
-0.00018291273
3.6239218e-05
-0.00012685175
-0.00019308707
3.8225332e-06
-0.00020732377
0.00011124928
-5.5804515e-05
-0.00011622648
0.00016630235
5.8715926e-05
0.00030053247
0.00013005229
0.00014805944
-6.8728857e-05
0.00024480955
-9.3059448e-05
0.00034879056
-0.00010424422
7.1591447e-05
-0.00016196278
-0.00037509106
-0.0002054954
-0.00036590921
-0.00017377001
-0.00024574423
-0.0001287487
-0.0001211782
-0.00011060799
6.6293526e-05
-5.2992953e-05
0.00025579639
-1.8342969e-06
0.00014604583
-9.4628338e-05
-1.2551388e-05
-0.00011610393
7.4035371e-05
-8.3802881e-05
0.00013617664
-0.000165299
0.00021328014
-0.00020364953
0.00014815173
-0.00022802228
-8.7512466e-05
-0.0001792381
-0.00023338308
-7.311104e-05
-0.00022543214
8.1758185e-05
-8.3223195e-05
0.00011276744
0.00017453505
9.1545233e-05
0.0002724592
-1.3047507e-05
0.0002051366
-0.00010729686
6.2710587e-05
-0.00015691409
2.6038289e-05
-0.00026521232
-0.00011262428
-0.00021483838
-0.00029297516
-0.00013634821
-0.00024087475
-1.7743554e-05
-0.00018954343
8.4461421e-05
6.2092088e-05
-0.00010010616
0.00013225251
0.00012601822
-0.00020241442
0.00016958862
8.9564332e-05
-0.00020232668
0.00011666114
3.6491004e-05
-0.0001716993
0.00011252607
-2.2982471e-05
5.431117e-06
-6.9982994e-05
-2.3744066e-05
0.00011790169
-0.00010438458
6.9252079e-05
4.6197739e-05
8.7655896e-05
5.8219681e-05
-1.7040047e-05
0.00011732552
1.2985563e-07
-0.0001301292
0.00013418564
-5.1575573e-06
-0.00019358182
0.0001190169
-2.3256397e-05
4.0487553e-05
-0.00028875118
-3.1492566e-05
4.6043782e-05
4.6294737e-06
-0.00011111151
-3.1676358e-05
9.8271661e-05
-4.5594287e-05
-9.8448425e-05
0.00012694926
2.9941554e-06
-0.00011765794
9.7034315e-05
1.4571756e-05
-0.0001185534
6.7097159e-05
1.2670991e-05
-0.00012442357
8.7307418e-05
-7.2808418e-05
5.426528e-05
-0.00012565904
-9.9016523e-05
0.00012897763
1.0574546e-05
-0.00015422582
0.00010478841
8.5605202e-05
-0.00015248176
5.1839006e-05
0.00013496404
-8.5727527e-05
1.2838539e-05
0.00010977465
-3.9523255e-05
-4.5135332e-05
0.00015039895
-2.2011773e-05
-6.4111445e-05
9.3305209e-05
2.8014052e-06
-2.0788174e-05
3.7550782e-05
-2.4318025e-06
1.311162e-05
7.2736606e-05
2.1658323e-05
1.1468989e-05
0.00012671586
-1.3447416e-05
3.0138555e-05
0.00010838633
-0.00010026022
2.4256597e-05
9.6674753e-05
-7.3352127e-05
0.00011051315
-1.0960635e-05
-0.00029255756
0.00049681899
9.8453733e-05
-0.00044496081
0.00044356038
7.2633145e-05
-0.00031503732
5.8622738e-05
6.131183e-05
-8.369291e-05
3.8316794e-05
-4.2609697e-05
0.00015451808
-0.00023671044
-2.2815121e-05
0.00041799972
-0.00035193316
2.3836419e-05
0.00040860767
0.00015370082
8.1182823e-05
3.7801727e-05
0.00059718854
1.9353693e-05
-0.00031571077
0.00059175289
-5.5199466e-06
-0.00016536626
6.7299098e-05
-1.10468e-06
0.00026863005
-0.00068331522
-2.6902755e-05
0.00032982472
-1.9616601e-05
-0.00013511897
1.4484619e-05
0.00055330546
-0.00010380668
-0.00026267428
0.00052844719
5.4361754e-05
-0.00024615832
0.0001116061
0.00014517864
-0.000218058
8.2135045e-05
0.00010661006
-0.00029239262
0.00031268419
-4.401022e-05
-7.1700572e-06
-0.00035977353
-5.701687e-06
0.00017025685
-0.00011950414
-9.8489127e-05
0.00020265579
3.9323809e-05
-0.00016474625
0.00016328354
0.00012452707
-0.00011128248
3.053422e-05
0.00026215542
-7.6980524e-05
-0.00013685797
0.00044907155
-2.2061262e-05
-5.9121037e-05
4.2497336e-05
8.8868581e-05
4.0384424e-05
-8.8415894e-05
0.000166943
0.0001262029
2.2580976e-05
0.00015895178
-4.6708152e-05
0.00045043848
1.8387982e-05
-0.0002268086
0.00045867278
-0.00014709462
-0.00014765752
9.7880202e-05
-0.00012827985
2.8833806e-05
-0.00013769723
-2.2678957e-05
0.00049311088
6.6991955e-05
-7.8386861e-06
0.00036263184
-2.0287124e-05
3.3280131e-05
-6.3085098e-05
-0.00010581448
0.00010765642
-0.00015380955
1.6836393e-05
6.1228312e-05
-0.00030599647
3.2796719e-05
-0.00017398813
-9.2548961e-05
-7.7855901e-05
-5.0717555e-05
7.4961006e-05
-5.0299971e-05
4.4794067e-05
0.00058199092
-2.9215427e-05
0.0001749522
0.00054115846
-1.6890163e-06
0.00025260484
-3.3369551e-05
1.1783537e-05
-0.0002139775
-0.00014410327
1.272081e-05
-0.00020439078
-3.6511619e-05
0.00012347729
-5.5896494e-05
0.00045226083
-3.7068402e-05
-5.9614159e-05
0.00045512498
5.6209913e-06
-4.5944356e-05
-1.3927848e-05
-7.9999669e-05
-4.6452913e-05
-3.8791875e-05
-2.1104634e-06
-3.4832735e-05
0.00018863408
6.9719931e-05
-0.00019689008
-9.6354142e-05
-2.5814961e-05
-0.00025614354
-0.00010724982
0.00012937997
-0.00012598112
-0.00020639566
0.00016529792
-5.5451491e-05
-8.0157516e-05
0.00021598757
-9.7299044e-06
0.0001475671
0.00015423211
8.233583e-06
0.00036872757
0.00013862524
9.7189651e-05
-3.1148108e-05
-2.3269062e-05
-4.0606351e-05
-6.1839421e-05
-9.5272637e-05
-7.5618963e-05
-4.4483069e-05
-6.0598194e-05
-0.00012560782
0.00037798112
7.3328046e-05
-0.00013010385
0.00016628103
9.4694897e-05
-6.5600429e-05
-3.7910672e-05
4.5554243e-05
-5.5009924e-05
5.765324e-05
0.00015872001
0.00031578029
2.4839878e-05
0.00029104804
0.0001960227
-6.098912e-05
8.2211085e-05
0.00020996798
-0.00012627431
-4.4048655e-05
-4.5996434e-05
-2.017087e-05
-7.4582731e-05
-0.00030214888
-5.6767559e-05
-0.00023932589
0.0001035725
-7.2712196e-05
-0.00028926643
0.00014171703
-0.0001056459
-4.3607909e-05
0.00032133887
-4.9894765e-05
0.00020174471
0.00030073884
9.9208573e-06
0.00018027124
-6.2429281e-05
-7.3812142e-06
-4.7486266e-05
5.375301e-05
-5.4531827e-06
-0.00023768402
0.0002180143
7.4453797e-05
2.2735263e-05
0.00020147433
1.4713072e-06
0.00030449726
0.00017025654
-6.3865831e-05
0.00018425509
0.00021537538
-0.00012013369
-5.2931697e-05
0.00032359134
-5.8706781e-05
-1.809584e-05
0.00011630794
1.6011815e-05
-0.00014993533
0.00019998009
-0.00013950261
-0.00022921784
-1.718587e-05
3.8922954e-05
-0.00018726407
-0.00026255352
5.9822336e-05
-0.00011234208
-0.00019538299
0.00015462503
8.0705296e-05
-7.9359207e-05
0.00014905812
0.00037746528
2.1703851e-05
9.6429149e-05
0.00024499967
0.00017416846
-1.0676517e-05
-0.0001301934
0.00035314968
-8.8787266e-05
-0.00037654877
0.00026187908
-2.3767572e-05
-7.8653414e-05
3.5733916e-05
4.8174373e-05
0.00029443046
-0.00028325571
2.0648364e-05
0.00028695707
3.3667066e-05
-5.3884202e-06
0.00036829575
-6.2963098e-06
0.00020485974
4.2191697e-05
0.00025282698
5.499601e-05
0.0002917877
6.6763048e-05
8.1024562e-05
2.8039182e-06
-0.0003268503
-9.976942e-05
-0.00034335925
-5.3688556e-05
-0.00027373517
-5.6655743e-05
-1.7951945e-05
-4.5052343e-05
0.00017769249
5.2101449e-05
7.4957804e-07
0.00011267935
-0.00016051247
0.00012038673
-0.0001338797
7.5277629e-05
-3.7024718e-05
2.0816486e-05
3.6885099e-05
-6.8952259e-05
0.00012439418
-7.578322e-05
0.00021494093
5.0223179e-06
0.00015676252
-4.7517467e-06
0.00023149045
5.2141111e-05
0.00017370275
0.00012236002
-8.3108428e-05
0.0001070251
-0.00023318957
4.6243384e-05
-0.00025602101
-6.9575277e-05
-0.00021933326
-0.00012228077
-8.9424091e-05
-0.00011265481
6.7718235e-05
-6.9204979e-05
0.00017013695
-5.5378013e-05
0.000124913
-5.5390347e-05
-0.00018138947
5.3032026e-06
-0.00021057771
0.00014731673
0.00021981013
-1.6395063e-05
0.000141821
4.3650497e-06
-5.6551521e-05
0.00014893779
-1.5207634e-05
-7.7078371e-05
0.00015120848
-8.9370359e-05
-6.8886169e-05
9.4359159e-05
-0.00012058323
1.7576367e-05
-2.3088326e-05
-8.5347623e-05
-1.8159988e-05
0.00014187122
-3.3986548e-05
-9.3949235e-05
0.00018244404
-4.6786808e-05
-0.00012188257
0.000130475
-0.00010192552
-0.00021224694
0.00015666309
-7.0375818e-05
-0.00027402692
9.4558326e-05
-5.2977982e-05
-5.7928566e-05
-0.00022972804
-1.9770585e-05
0.00014765209
-0.00026293171
-5.7113261e-05
0.00014086047
6.7577717e-05
-0.00010768441
-4.8122839e-06
0.00014760598
-0.00013080719
0.00013806587
-0.00024957475
0.00013111127
-0.00025675404
-6.7913287e-05
-0.00016838511
-0.00012000598
-6.9231793e-05
-4.1846754e-05
-0.00020208292
-8.1199551e-05
0.00010643059
-0.00027737358
-2.6217289e-05
0.00014225755
-0.00014045366
1.8163801e-05
0.00020432564
-0.000149842
4.6224766e-05
0.00011994952
0.00011045389
-4.7066009e-05
1.4893253e-05
0.00014292362
-3.6455191e-05
-7.4954673e-05
0.00013324927
-4.7648289e-05
-0.00013768023
0.00013723776
-5.4140276e-05
-0.0001476084
8.4831633e-05
-8.9272598e-05
-7.9251787e-05
-5.6541293e-05
-0.0001124862
3.869473e-05
-0.00012544429
-6.6758691e-05
0.00013100531
-0.00010234239
-0.00013040133
0.00044976599
-7.9089931e-05
-0.00020723843
0.00036980585
-7.1397823e-05
-0.00010808605
0.00017876941
-6.5401484e-05
8.0096437e-05
6.9398289e-07
-0.00013712701
0.00026293294
-0.00018551157
-4.3228377e-05
0.00038239586
5.5676811e-06
4.0677043e-05
9.6768681e-05
0.00054166164
7.5923971e-06
-0.00024567226
0.00059366935
-0.00010139971
-0.00041162422
0.00043868716
-0.00012159206
-0.00022263867
-2.3126385e-05
-7.240551e-05
5.4573599e-05
-0.00054353666
9.6935941e-06
0.00031065347
-0.00060875985
-4.5370707e-05
0.00032159361
8.4632212e-05
-0.00013180131
-5.2442324e-05
0.00057600368
-0.00037956917
0.00061037136
-0.00045701358
0.00031516575
-0.00031704236
-0.00025189473
-0.00022257569
-0.00030020183
8.0027495e-05
-6.7038634e-05
-0.00047041735
1.4308238e-05
7.9287997e-05
-0.00060504236
1.6595901e-05
9.9527231e-05
-0.0003872409
0.00011526553
0.00019006971
-0.00047718587
0.00015982086
0.00030756223
5.907731e-05
-8.8177212e-05
0.00018026204
0.0004572852
-9.8192818e-05
-0.00012342151
0.00062751356
-2.3637749e-05
-0.00032296654
0.00055102354
-5.5288966e-05
-0.00039097428
0.00031620516
-0.0001449778
-0.00027494248
-0.00020068425
-0.00011898347
-5.2831358e-05
-0.00043039757
-4.5437688e-05
8.3198554e-05
-0.00014272183
6.9024807e-05
0.00041817399
2.9559144e-05
0.00015994786
0.00027074498
-1.2149303e-05
0.00020870562
-2.1921843e-05
4.6119013e-05
0.000197141
-0.0001030769
0.0001321719
-7.3963381e-06
-0.00010845333
0.00016027582
-3.7119023e-05
-0.00010409068
6.1525144e-05
-3.9917785e-05
0.00049376451
3.9592519e-07
-8.7659668e-05
0.00061595673
-3.7609293e-06
9.7342527e-05
0.00035072655
-9.8730607e-05
0.00031670728
-0.00025239492
2.1687317e-05
3.4768988e-05
-0.00028500765
3.6130109e-05
-0.00029445017
-9.1773078e-05
-6.429031e-05
-0.00013252446
6.1919508e-06
-0.00012055383
-7.1825206e-05
0.00052092543
-0.00010246173
0.00056100822
2.8014829e-05
0.00018257873
-5.0142181e-05
-0.00010401779
-0.00015093643
-0.00013205974
-9.316279e-05
-6.0317916e-05
-0.00045262604
2.0970148e-05
-4.9274857e-05
-0.00049428636
4.349886e-05
-0.00010977376
-0.00024851058
0.00013775615
-0.00032680951
-9.8092358e-05
-7.8256588e-06
-0.0001489108
-9.7198296e-06
2.9523649e-05
9.3042025e-06
0.00033577966
-5.9978531e-05
-4.5890349e-05
0.00059545519
-8.0197219e-06
-7.1840332e-05
0.00049286589
2.350944e-05
5.9295199e-05
0.00023419233
2.4205341e-05
-7.8372629e-05
-9.5364023e-05
0.0001270425
-0.00028874613
-0.00022372356
4.9253741e-05
-0.000160309
1.2414663e-05
0.00016594281
0.00026810679
8.9642741e-06
0.00031372439
3.4673469e-05
2.7300806e-05
0.00031686133
-0.00014395849
-7.3745969e-06
0.00012732896
0.00010352716
-3.7242567e-05
-0.00016968651
0.00021881854
-8.7023949e-05
-0.00033375778
0.00011883142
-0.00013156302
-0.00018263265
0.00021446346
2.2530016e-05
-3.5336156e-05
0.0003814267
3.7338779e-05
0.00016300869
0.00017050503
-8.2024526e-06
5.0043023e-05
-0.00024029937
9.3488911e-05
-0.00010202695
-0.00023750304
9.9112192e-05
-0.00023725764
0.00013305652
-1.5145082e-05
-0.00027295096
0.00016685567
-0.00012349906
-5.2321496e-05
0.00023643015
0.00010565517
0.00028289788
0.00017365733
5.5869791e-05
-3.3951956e-05
0.00011960332
-0.00010130213
-4.8890165e-05
-0.00015532201
-5.2584215e-05
-0.00045821109
-4.2099084e-06
-6.4592634e-05
-0.00046596976
4.3514149e-05
-6.5470446e-05
-0.00019389511
0.00010088737
-0.00016178099
0.00013850233
8.7739561e-06
-0.00028155418
0.00017260002
3.3882487e-05
-0.00012994924
0.00016864289
4.8552977e-06
4.0912008e-05
0.00036611567
-3.0309002e-05
0.00017490888
0.000295927
3.9174437e-05
0.00024804302
0.00017277732
3.6455242e-05
9.9589678e-05
0.00013531172
-6.1574034e-05
2.5905339e-05
-0.00015225412
-3.1735137e-06
-8.5201884e-05
-5.549808e-05
0.00017105075
0.00013924773
8.2019685e-05
0.00017870054
-0.00016603337
0.00017085761
-0.00022040358
0.0001607013
-0.00021133435
0.00010997988
-0.00025106217
0.00010487069
-0.00018385633
9.0601883e-05
6.8683456e-05
8.3834571e-05
0.00024664911
4.4640827e-05
-2.5218935e-06
0.00012155099
-0.00031573076
0.00019609257
-0.00027480597
0.00016740938
-0.00016553855
7.8404755e-05
1.9393485e-06
0.00020905401
0.00026994613
0.0003847977
0.00038538453
2.6641194e-06
2.9631362e-05
1.9902093e-05
-0.00033015112
8.3782587e-07
-0.00044360286
-3.4199994e-05
-0.00033378912
-4.0886691e-05
-0.0002354738
-4.7996071e-05
-0.00013225741
-4.7228334e-05
0.00010575427
5.8899014e-05
0.0002560089
9.0294349e-05
0.00026771972
0.00010567616
0.00027901677
0.00012931787
9.6655402e-05
0.00017742398
0.00023126365
-7.7783217e-05
0.00010111372
-1.628142e-05
-0.00017457925
9.6589939e-05
-1.1070307e-05
-4.7091865e-05
-0.00021116721
-4.3483592e-06
8.8727091e-05
-0.0002525271
-2.3804012e-06
0.00027135631
-0.0003172701
4.787106e-05
0.00031239139
-9.3810745e-05
1.9083186e-05
0.0001532059
0.00011394969
-5.3328621e-07
-3.552645e-05
0.00011832873
-3.1938218e-05
-0.00018272925
0.0001424698
-6.6198331e-05
-0.00024102985
6.3197869e-05
-5.5614925e-05
1.8013164e-05
-0.00029499095
1.2651561e-05
9.0660106e-05
-8.538447e-05
-4.672806e-05
7.1083561e-05
-9.0928397e-05
-8.0867867e-05
1.259518e-06
4.3187283e-06
2.8534397e-07
-0.00016659813
-1.4275617e-06
0.0002142847
-0.00031503489
7.046025e-05
0.00023457853
-0.00010095398
9.7417714e-05
0.00014263703
3.1428078e-05
0.00010580666
0.00020441234
-0.00019441155
8.2731296e-05
7.7888295e-05
7.2751675e-05
1.7750991e-05
-0.00016488476
0.00014701057
4.7299092e-05
-0.00030428247
6.1419235e-05
2.4725588e-05
-0.00023084443
-0.00019747971
3.3763553e-05
-3.0132038e-05
-0.00031089831
-3.8367527e-06
8.7512679e-05
-0.00018175392
-2.6690239e-06
4.0922393e-05
-5.479295e-05
-0.00021446594
0.00033135633
-9.4866599e-05
-0.00017902856
4.4593347e-05
-5.4838606e-05
6.4036076e-05
-0.00054289186
2.3258528e-05
0.00017503534
-0.00051661636
1.5962979e-05
0.00038411733
-0.00063594235
6.6361884e-05
0.00049837622
-0.00028434468
0.00011695209
0.00033972049
0.00028236363
-2.1658089e-06
-5.3881538e-05
0.00048159617
-7.1065122e-05
-0.00034652715
0.00051602178
-0.00020249844
-0.00019947934
-3.69812e-05
-0.00011927424
0.00013947015
-0.0006545615
3.0314654e-05
0.00033681755
-0.00023824285
-8.9859712e-05
0.00046939511
-0.0001932953
-0.00038364748
0.00052644579
-6.1511291e-05
-0.0001241895
-0.00038114528
-3.0602585e-05
0.00013568622
-0.00060428447
4.5969766e-05
0.00025340789
-0.00026626
0.00016284987
9.0943389e-05
0.00011980398
0.00023390946
0.00020155125
-0.00050340738
0.00011021075
0.00016242954
4.2594402e-05
-2.8913842e-05
-0.00032061763
0.00060875526
-2.3352739e-06
-0.00042151063
0.00010481211
2.2111621e-06
-0.00029125005
-0.0004875625
1.4844417e-05
-0.00011581991
-0.00059298905
-1.2322874e-05
0.00012111963
-0.00044070346
-2.3427679e-05
0.00010658131
-8.7261118e-05
0.00011186511
0.00021935864
2.9691726e-05
0.00034500092
-0.00024723604
4.654427e-05
0.00028413203
-0.00050252205
6.6618101e-05
0.00019736889
-0.00033162826
3.394693e-05
-0.00010307706
-0.00013730247
-3.791812e-05
-0.00020263574
-0.00010828573
-1.4975127e-05
-4.2582594e-05
0.00017534593
-5.263953e-05
-6.5825869e-05
0.00041093642
9.0142091e-05
4.0910166e-05
0.00037760736
-6.7052217e-05
0.00022273215
-0.0002335475
3.6431639e-05
-4.9406513e-05
-0.00041030555
6.4012826e-05
-5.4844327e-05
-0.00018978367
-0.00010731165
0.00036426713
-7.0270155e-05
-7.6021914e-06
0.00043372718
7.1580174e-06
8.5187172e-05
-0.00039554593
-5.7418565e-05
-3.1126265e-05
-0.00044500438
5.3221086e-07
7.4992009e-06
-0.00019213231
2.5002995e-05
4.2022008e-05
6.6267965e-05
1.1187544e-05
-0.00020276082
-9.0644514e-05
-0.00013845639
-8.7204337e-05
-1.3147814e-05
-0.00011979281
7.4017248e-05
0.00052764067
-8.8126729e-05
0.00020825418
4.0078072e-05
-4.5993463e-05
-2.6190736e-05
-0.00011136536
-0.00011754689
-0.00032659064
-9.1655968e-05
-7.3890666e-05
-0.00034735879
-0.00033800545
-3.2676117e-05
-0.00027749624
4.9133428e-05
0.00012025956
9.0377685e-05
1.7685668e-05
8.64163e-05
-0.00026820666
8.2114685e-05
4.7819601e-06
-0.00052417837
9.5916055e-05
-4.0240135e-05
-0.0003634728
3.9624074e-05
-0.00012753444
-5.1197009e-05
-8.58351e-05
-0.00025990513
3.6659987e-05
-0.00014413804
-0.00019922715
0.00012918013
8.0178354e-06
-8.8298647e-05
0.00024779179
8.9554922e-05
7.2700786e-05
0.00018740457
2.1000914e-05
2.5943154e-05
-0.00015400317
6.0702229e-05
-5.3139547e-05
-0.00035260102
0.00012049038
-9.8988355e-05
-0.00010935477
-4.9725149e-05
0.00015112597
-9.3462475e-06
4.0981959e-05
0.00019033396
4.708926e-05
1.383183e-05
-0.00033593363
-3.6672065e-05
4.6969167e-05
-0.00043240807
-2.2194949e-06
7.0604445e-05
-0.00012108284
6.2026212e-06
3.0862117e-05
0.000135722
-2.093776e-05
-8.4858571e-05
0.00013325801
-7.4299363e-05
-0.00021684195
0.00023162234
-0.00010793149
0.00013227657
0.00019937459
-5.1161449e-05
0.00013838387
9.8529298e-05
-2.5384097e-05
4.8093655e-05
3.5397135e-05
-2.0017038e-05
-1.3194934e-05
1.3167397e-05
-0.00010510881
-1.5462897e-05
-0.000369254
3.0343012e-05
-0.0003650897
1.6632485e-05
0.00019236069
3.7264726e-05
0.0001050159
-2.1613361e-06
-0.00020507968
-4.3225175e-05
-0.0003946075
-1.3243692e-05
-0.00036435727
2.8532645e-05
-0.00029887285
7.6046261e-05
-0.00020795911
0.00012886827
3.9549195e-06
0.00011971233
0.00021710606
1.8894259e-05
9.3282664e-05
9.1371225e-05
-0.00019993889
0.00013671312
-0.00022367912
8.1794862e-05
5.8516143e-06
0.0001896792
3.3188831e-06
-8.0301319e-05
-4.6051013e-05
-0.00040827127
-0.0001036003
-0.0004640734
-9.9480709e-05
-0.00034529641
-2.3941684e-05
-0.00021943391
-4.0600571e-05
3.9942416e-07
-3.5439344e-05
0.00022369793
3.4975091e-05
0.00033016231
8.2359264e-05
0.00036642401
0.00010481159
0.0004117355
9.7173789e-05
0.00020484575
1.5059736e-05
7.1019699e-05
0.00011544224
-0.00014528615
1.5860924e-05
-3.3404989e-05
0.00013019568
1.1039553e-05
4.0665957e-05
-0.0001855248
0.00010878858
0.00017907845
-0.00028326864
0.00014234583
0.0002343821
-0.00016271821
0.00015371139
7.5309231e-05
3.055246e-05
0.00014591994
-8.5637407e-05
5.3777522e-05
0.00010639431
-2.5254428e-05
-0.00018663358
9.2564686e-05
-0.00014535639
6.4005216e-05
-1.0081894e-05
-0.00023379748
3.9477467e-05