/*--------------------------------*- C++ -*----------------------------------*\
| =========                 |                                                 |
| \\      /  F ield         | OpenFOAM: The Open Source CFD Toolbox           |
|  \\    /   O peration     | Version:  v2012                                 |
|   \\  /    A nd           | Website:  www.openfoam.com                      |
|    \\/     M anipulation  |                                                 |
\*---------------------------------------------------------------------------*/
FoamFile
{
    version     2.0;
    format      ascii;
    class       volScalarField;
    location    "140/bottomWater";
    object      T;
}
// * * * * * * * * * * * * * * * * * * * * * * * * * * * * * * * * * * * * * //

dimensions      [0 0 0 1 0 0 0];


internalField   nonuniform List<scalar> 
1460
(
1007.5864
1005.922
1004.3305
1003.2438
999.45187
1002.0055
1004.4388
1005.7335
999.89627
997.26366
996.307
992.073
988.54368
986.84791
985.25467
982.86348
984.38575
986.66063
988.28514
990.04562
992.89616
1005.7772
1005.2187
1004.9375
1003.3641
1002.087
1004.9435
1008.1891
1009.75
1011.6917
1006.5299
1005.9316
1003.3468
1001.8112
998.46503
999.88146
1001.2167
1002.5779
1000.2958
996.38927
995.7755
992.02762
987.94735
987.67843
984.93382
982.0073
984.0851
987.76978
990.203
990.48065
994.20193
1003.1123
1000.862
1003.4887
1003.1052
1001.4728
1004.6948
1009.735
1010.661
1011.3192
1006.997
1007.9728
1003.6561
1001.626
998.01838
999.10438
1001.0391
1003.2371
1001.412
995.89532
992.56265
992.88077
991.96693
989.14325
984.94713
981.56598
984.14508
989.04337
993.15976
991.73923
995.4862
998.84999
996.92197
1003.2855
1003.9159
1001.1739
1004.909
1011.2359
1012.556
1011.7708
1007.7138
1008.6437
1003.2413
1001.4766
997.28428
998.41097
1000.9297
1003.3138
1001.6209
997.00372
991.63173
988.28073
989.01442
986.10837
982.64087
980.04443
983.35876
988.49711
995.00342
995.18202
997.13796
997.45226
994.86942
1003.6881
1003.0087
999.49037
1004.248
1009.5673
1012.9705
1012.3431
1001.9957
1002.2365
1002.0125
1001.0296
996.78916
997.52453
998.18014
999.51018
995.55371
993.75969
991.7
986.36841
983.89604
982.14317
980.64649
979.06684
982.60589
987.83915
990.65583
990.89099
994.55776
991.98289
992.29457
998.32462
997.7941
999.19701
1003.9529
1005.881
1007.8836
1007.6253
1008.9872
1007.7648
1006.6832
1005.3086
1003.2365
1005.5464
1006.6464
1007.5826
1000.9517
997.08389
994.9072
990.89178
989.86616
989.01774
988.2334
987.46066
987.54495
988.1686
989.7523
992.39742
999.80457
1007.9424
1006.4831
1004.9309
1005.3481
1006.8637
1007.4291
1008.6868
1010.2511
1012.6327
1007.561
1007.0408
1006.8804
1004.2577
1001.8186
1004.0495
1004.5072
1004.8948
1000.4681
996.59926
995.46522
993.03506
988.87512
988.57838
988.62245
988.09741
986.87965
987.73829
989.18296
991.19616
998.11492
1004.393
1003.6613
1002.7979
1005.0094
1007.6889
1008.4092
1009.0336
1009.9275
1011.3931
1007.7673
1008.539
1007.8268
1004.627
1001.4441
1003.8259
1004.3774
1004.9081
1001.0023
999.8927
995.24084
993.44677
989.66227
989.95062
988.75979
988.46215
988.40298
989.95111
989.84297
991.93939
999.082
1003.8341
1002.6305
1002.0548
1004.7231
1007.9728
1009.719
1011.3795
1010.3754
1011.6689
1008.0821
1008.6105
1008.3401
1003.7615
1000.5964
1006.5931
1005.8035
1004.732
1001.195
997.59617
992.80946
991.74136
990.09044
990.12459
990.03527
987.51375
987.03225
991.75183
992.50913
994.23874
1000.3543
1003.7133
1002.6288
1000.4537
1002.6771
1005.1931
1007.9284
1011.0707
1011.1618
1012.0606
1005.4917
1005.2039
1005.017
1003.1822
999.84225
1000.1731
1000.3896
999.7819
998.21402
996.19262
992.02101
986.63739
986.0796
983.23253
981.98602
980.53293
980.59641
986.41842
991.8946
994.37673
999.53748
998.52792
997.57769
998.21647
1002.2179
1004.7304
1005.0869
1007.0882
1008.7032
1009.9505
1011.0436
1009.9097
1008.9445
1008.0748
1006.5433
1008.055
1008.768
1008.0183
998.45561
995.65739
993.56486
987.66268
986.84428
990.49977
988.94324
986.66881
983.29179
984.33456
987.69403
990.92212
995.56794
1002.1761
1009.0176
1010.8136
1010.6574
1010.4121
1010.9326
1013.0076
1013.6322
1015.0294
1008.7849
1008.0101
1007.4162
1006.6933
1005.2462
1007.3196
1007.1365
1006.9871
997.79642
995.482
994.55567
990.38197
987.94305
989.28585
988.5696
987.58573
986.73521
989.02572
992.12714
991.93717
995.17408
999.70135
1006.2212
1007.8065
1007.9258
1009.1814
1010.0186
1011.6632
1011.6239
1011.5899
1008.9558
1008.3869
1008.2051
1006.4948
1004.9093
1008.3411
1007.9715
1006.7352
998.78577
997.74462
994.72419
989.97547
987.66185
989.20291
985.33205
987.89751
987.12221
989.30448
994.52034
995.59622
999.46453
1001.8046
1005.89
1008.1569
1009.3114
1011.8554
1010.6896
1011.8372
1011.6412
1012.0836
1009.2396
1008.7773
1007.7719
1005.5334
1003.9397
1008.1314
1007.2511
1006.1454
998.97199
997.19289
995.91209
989.69042
987.95972
988.0488
985.0907
984.75622
987.26412
983.47195
993.12291
993.01152
1000.0486
1003.2706
1005.6335
1005.7427
1008.1512
1010.7039
1010.4673
1007.5785
1008.8483
1010.2815
1007.194
1006.2755
1005.3688
1003.1237
1001.5612
1002.7397
1003.2343
1003.5183
996.66267
991.77598
986.88157
986.09502
984.32566
981.01597
979.61518
981.94829
981.71905
980.89963
981.82965
986.86271
996.79566
999.11007
1001.6398
1003.5702
1006.2307
1008.0485
1006.1398
1003.6546
1006.0573
1008.5376
1014.1883
1013.3934
1012.7861
1013.2821
1013.4204
1011.7702
1008.8189
1002.7515
994.8947
991.70076
989.16378
982.36051
976.57906
975.77483
973.81475
974.91847
975.72222
977.49633
982.9947
990.48648
995.88319
999.74667
1001.2279
1003.6655
1011.5738
1013.7914
1012.5583
1011.2874
1010.3818
1011.6708
1011.4298
1010.8179
1010.1984
1009.9519
1009.6464
1010.4203
1009.7186
1001.6744
993.43065
991.47159
989.98044
981.65469
979.46092
978.46936
977.77617
976.66377
976.0186
978.75162
981.99265
991.53345
999.33425
1003.728
1003.6106
1004.8405
1008.753
1011.5755
1011.1072
1010.3339
1009.2593
1008.8736
1011.2822
1010.6265
1009.2925
1007.9294
1008.4753
1009.8683
1009.5387
1001.4782
994.68251
994.16193
989.36306
980.49805
976.16258
977.75624
976.66839
975.00221
975.05885
975.49213
979.97544
992.21437
1001.0442
1004.6266
1005.5716
1005.4422
1009.071
1011.8619
1011.4493
1011.9709
1009.1846
1008.4305
1011.1381
1009.3158
1005.7455
1006.2212
1009.3429
1008.8963
1007.8567
1001.9263
995.63927
993.43325
982.52992
979.61042
974.57017
976.92859
975.89382
973.83889
972.92996
970.71661
973.59198
991.10227
1000.6788
1005.0273
1006.7624
1006.692
1009.3134
1011.9919
1011.9021
1011.9543
1008.82
1006.4841
1007.0558
1002.5634
1001.7384
1003.1298
1004.0623
1002.9067
1003.2084
1000.9882
995.1804
991.73591
978.8209
976.24441
972.50094
970.66683
971.48912
967.79272
966.0947
966.56132
969.24364
991.02073
999.91981
1002.3244
1003.8594
1004.8691
1007.2223
1009.093
1008.6675
1008.138
1005.8115
1005.3695
1014.4016
1011.5146
1008.2387
1008.5179
1009.8088
1011.0574
1012.519
1007.739
995.47051
991.28107
986.97276
980.96622
963.2641
957.2938
977.96966
992.19051
994.45639
996.10204
1002.6854
1005.3393
1011.5166
1012.94
1011.3865
1009.8539
1008.2061
1010.2888
1009.4688
1008.8892
1005.1433
1006.7475
1009.2334
1010.3356
1011.0391
1007.9679
995.26283
990.92787
984.98833
977.42461
972.52555
974.11869
977.35106
992.13227
997.09508
999.36951
1006.1673
1006.753
1010.7338
1012.0135
1011.2913
1008.8966
1006.3621
1006.7843
1010.0661
1005.7958
1004.1777
1006.011
1009.2585
1010.9934
1010.9697
1006.523
996.68155
995.17542
983.89179
970.84926
969.45761
971.25948
971.36077
991.89108
998.84756
999.70206
1006.9676
1009.7489
1011.0661
1012.6327
1012.2029
1008.7389
1005.7542
1004.9842
1008.1263
1002.4693
1001.6133
1004.7825
1009.5604
1009.5986
1008.4991
1004.4819
997.73207
994.12825
977.34719
967.93565
965.30058
967.9778
968.96459
994.92153
998.02234
999.42268
1006.2622
1011.1314
1011.371
1012.4853
1012.5455
1010.3575
1005.0871
1003.5492
1001.787
999.74357
1000.5169
1000.934
1001.1013
1001.7591
1002.3354
1001.0114
995.44595
992.32439
975.08093
965.77782
959.19861
956.1008
967.29957
995.88679
998.67333
1001.2064
1004.4008
1007.4295
1007.6136
1007.1856
1005.951
1005.262
1004.2507
1003.2
1007.5257
1011.6535
1008.4988
1008.7662
1010.0572
1010.6351
1007.7919
1005.5548
997.70606
993.33133
990.14956
978.38863
962.18443
948.84103
981.53796
987.39087
991.10364
994.56253
1001.9587
1007.2177
1012.23
1013.1486
1010.9928
1008.5387
1006.2779
1003.4845
1003.0385
1010.8058
1005.881
1007.1195
1008.8832
1009.5449
1007.099
1005.4493
1000.0162
994.8491
989.20018
976.43981
974.65381
975.56149
979.558
988.97624
991.6788
995.6254
1006.1686
1007.4003
1011.808
1011.3828
1009.671
1008.3534
1006.2062
1002.9288
1002.5446
1004.4413
1004.7061
1006.7773
1009.85
1009.8797
1009.195
1005.1943
1000.5911
996.76587
988.71779
969.89058
968.25789
970.54378
977.95285
994.47248
992.484
996.1785
1004.2468
1007.4303
1012.0513
1012.2959
1009.7786
1008.184
1006.2354
1002.6229
1001.1269
1002.2412
1003.2417
1006.799
1009.7103
1009.0522
1009.6894
1008.5262
1004.6415
994.29856
986.78005
965.91508
959.92218
965.02496
977.92764
995.03556
994.27865
997.2897
1002.0637
1009.8233
1012.3368
1010.2134
1006.5579
1004.5088
1003.7814
1001.358
1000.5388
1001.798
1002.7742
1002.1793
1001.7467
1000.7722
1002.3427
1003.2258
1002.6734
998.71957
989.42623
962.85986
956.24508
951.48531
978.64341
993.59276
994.80592
996.45424
999.76123
1003.5578
1003.2893
1002.5092
1001.9665
1001.5774
1001.3979
1000.7806
1014.9544
1014.1585
1013.246
1012.5839
1011.6371
1008.6307
1005.6359
1003.524
1001.3119
998.08941
990.56311
987.30504
983.91821
980.50581
974.27877
975.37121
979.25722
981.21747
984.76415
994.58211
994.78845
996.23764
1000.8346
1005.2447
1010.1144
1015.0093
1014.4422
1012.2854
1010.4592
1008.3336
1008.5772
1011.165
1009.4686
1009.7359
1010.1852
1008.7259
1005.9642
1005.499
1006.0806
1001.6192
990.25014
986.75341
982.53989
980.05707
977.40036
977.25052
979.35809
980.88699
981.82551
998.11035
998.54946
997.83007
1001.6405
1006.8096
1011.4706
1013.0569
1011.7771
1009.9325
1007.9288
1005.0585
1008.3096
1008.5604
1008.4304
1008.6857
1009.961
1008.7422
1006.6157
1006.709
1006.5057
1002.1116
990.0542
984.79107
980.90572
977.01673
976.28871
976.82029
978.33362
979.80372
980.32087
999.05769
1001.0877
999.02114
1002.4502
1007.0963
1011.9552
1013.3868
1012.3331
1011.3449
1009.1404
1005.987
1007.4567
1007.2054
1008.6905
1009.5132
1009.7173
1008.5525
1006.4806
1006.1844
1005.8518
999.86575
986.18838
979.81052
976.51622
975.24667
974.54799
975.70551
976.47747
971.72654
976.58517
998.50041
1002.9411
1002.4372
1003.1842
1006.9658
1010.9796
1011.9915
1012.0716
1012.0049
1011.1323
1005.0363
1003.3246
1004.2265
1005.7574
1004.9563
1006.1448
1005.9621
1001.0634
999.60047
999.34453
997.42868
983.14348
974.23356
970.67798
965.38343
968.12781
969.5441
969.2285
967.11483
974.69584
996.86131
999.42201
1000.0131
1000.4626
1001.9364
1005.5364
1006.2527
1004.3501
1003.9015
1005.777
1003.9963
1013.4041
1011.5189
1010.7082
1010.1837
1008.4009
1009.0437
1009.0711
1007.8161
1004.8903
996.21592
993.53897
994.50946
988.49024
985.18246
982.69574
984.86964
986.48501
988.82656
991.68656
1001.9594
1003.0667
1005.6139
1006.4736
1007.5967
1011.547
1009.4814
1010.9565
1012.1859
1013.7563
1013.2918
1010.5364
1009.4828
1008.7762
1008.1443
1007.8941
1006.9492
1006.871
1006.19
1005.3334
996.91069
992.76207
997.25464
992.84055
989.61798
987.73628
987.51729
988.08736
989.79689
991.32785
1003.0342
1002.5891
1003.3014
1005.2607
1005.6197
1008.1348
1009.2436
1009.1914
1010.2237
1010.8195
1009.3963
1010.6297
1009.5044
1008.6967
1006.7061
1007.7911
1007.0953
1005.6625
1006.0758
1005.6122
1000.7216
1000.2945
998.14336
989.2475
988.90294
987.78603
988.02547
988.30133
988.05413
990.41675
1002.8743
1003.2349
1003.3281
1005.9781
1006.6427
1007.0815
1009.0274
1009.9088
1010.5281
1011.1021
1009.8502
1010.8098
1009.9744
1009.6438
1006.4207
1006.3398
1003.7666
1000.5065
1002.6349
1005.3194
1003.3423
1000.2999
997.86547
990.63614
987.80387
986.90748
987.5246
988.36189
985.16865
987.95933
1001.4796
1001.7952
1001.3243
1002.4236
1003.9651
1005.7207
1007.2148
1008.0416
1009.086
1011.5505
1010.4063
1008.5156
1007.6438
1005.8105
1003.0457
1003.4585
1002.3976
998.29329
997.28519
999.59145
997.88069
990.73611
984.29461
984.93046
981.98213
982.51864
982.45869
981.44477
981.10338
985.60635
994.90085
997.96016
994.73436
998.31491
1001.0859
1003.925
1004.1885
1001.9838
1003.2198
1008.163
1007.0778
1011.0893
1008.8699
1007.2053
1005.5932
1003.3853
1004.547
1005.2826
1004.3466
1005.0102
1002.6708
994.3248
992.19407
989.49622
988.88958
988.56941
988.98762
988.52428
989.37976
992.55299
1001.0946
1002.5608
1004.2385
1002.5998
1001.8078
1006.185
1010.5092
1009.2946
1011.2013
1013.376
1016.4594
1009.345
1008.1734
1007.5749
1005.4505
1003.1916
1002.9514
1003.9114
1003.1924
1002.934
1001.0297
992.60111
991.05816
987.98422
987.41608
988.49802
987.13258
985.8988
986.8284
990.42511
1000.4888
1001.9761
1002.4427
1002.1678
1001.1119
1005.1622
1008.6315
1007.429
1010.0753
1011.4236
1013.4288
1009.7246
1009.1899
1009.8682
1005.924
1003.0061
1002.3726
1004.1902
1004.7129
1003.1303
1001.1944
992.7333
991.47577
988.80569
989.19861
988.87378
988.09069
987.39363
987.56177
992.19058
1001.1803
1001.7814
1003.7365
1001.898
1001.2103
1002.6342
1007.7955
1007.4702
1011.1743
1012.0888
1013.2902
1010.1443
1010.3115
1010.8169
1005.8505
1001.2997
1000.0978
1002.5486
1003.2339
1002.8367
1001.3154
994.29457
993.97226
990.81738
988.33035
988.5129
987.15201
986.71037
986.50378
994.83371
1000.2682
1001.4243
1002.6666
998.5825
999.23255
1001.2581
1005.1637
1006.8413
1011.976
1012.7678
1013.2182
1007.9765
1007.0338
1006.3908
1004.2373
1000.6102
997.90074
997.22034
999.13103
998.96023
999.43543
992.74423
991.57832
987.82758
982.33869
984.16691
983.29624
980.42311
981.40726
991.55877
996.02302
998.14034
996.66865
995.28734
997.68487
1000.1537
1001.2987
1004.2238
1006.9194
1008.8815
1010.1461
1010.369
1008.073
1005.9854
1003.4625
998.64953
1001.2646
1004.3657
1000.8195
1002.2918
1003.3454
992.34228
989.54328
987.20228
985.58961
986.34451
986.59475
985.29424
985.96621
987.76979
990.56325
994.31948
1001.8413
999.35805
999.36312
1004.6252
1009.2924
1008.1854
1011.0895
1012.8248
1014.7819
1009.08
1008.1308
1005.7925
1002.394
997.41737
998.4215
1000.8817
999.97893
999.5643
1000.9557
991.25911
987.69849
986.19602
984.38362
984.98114
984.86174
982.18078
984.75734
989.17631
990.77597
995.70814
998.66301
998.5598
996.96212
1002.4806
1006.7059
1005.4238
1010.5538
1012.0482
1013.1321
1009.7205
1010.941
1006.8136
1002.4286
997.1321
996.4736
999.29833
999.98261
998.80229
998.97605
991.66825
988.3847
987.68713
984.3217
984.55447
984.49956
980.53045
984.66257
993.68377
991.38124
995.04568
997.67913
998.44786
996.76705
999.89925
1005.2804
1005.416
1010.197
1013.4467
1013.4146
1010.6355
1011.4832
1007.0426
1003.2874
996.512
995.08133
999.00343
997.89059
996.57019
997.28229
992.2255
990.57796
987.70408
983.22785
983.06371
983.31747
979.79412
983.79373
993.62428
991.94147
994.88992
997.71819
997.35212
994.24518
997.23009
1002.0889
1005.4902
1013.7942
1013.8658
1013.7537
1005.4217
1005.7479
1004.5904
1003.1838
995.84984
993.28896
993.95377
991.94614
991.97264
992.7759
989.80519
988.14135
986.44089
982.44419
981.30458
980.03894
978.56549
982.90333
987.31669
987.04718
991.34505
994.60545
993.11423
992.6135
995.17861
1001.2381
1004.3718
1006.1099
1006.3864
1006.5768
)
;

boundaryField
{
    minX
    {
        type            zeroGradient;
    }
    maxX
    {
        type            zeroGradient;
    }
    minY
    {
        type            fixedValue;
        value           uniform 1073;
    }
    minZ
    {
        type            zeroGradient;
    }
    maxZ
    {
        type            zeroGradient;
    }
    bottomWater_to_rightSolid
    {
        type            compressible::turbulentTemperatureCoupledBaffleMixed;
        refValue        nonuniform List<scalar> 
130
(
630.25229
634.75319
639.35644
643.83254
647.98055
651.73212
655.04084
657.84791
660.17495
662.03708
663.42477
664.34873
664.80694
626.47284
631.86515
637.26352
642.38249
647.01397
651.10022
654.62937
657.60735
660.03813
661.94122
663.35275
664.29106
664.76159
618.76424
626.1809
633.27468
639.69142
645.25905
649.99342
653.94979
657.19772
659.79065
661.77513
663.21734
664.17564
664.65892
607.07755
618.42468
628.31343
636.55438
643.29861
648.78285
653.21259
656.75466
659.52786
661.62245
663.12386
664.09024
664.56747
593.20895
611.07118
624.23912
634.1893
641.89379
647.94449
652.71444
656.44798
659.32875
661.48896
663.03089
664.01977
664.5021
593.21493
611.11521
624.24764
634.17141
641.85703
647.89649
652.66186
656.39256
659.27249
661.43634
662.98282
663.97875
664.46529
607.09909
618.47903
628.36849
636.56008
643.26102
648.71641
653.13594
656.67808
659.44569
661.53879
663.05018
664.03617
664.51596
618.74733
626.20053
633.31263
639.68427
645.19978
649.91125
653.86218
657.11028
659.70221
661.69655
663.16404
664.14193
664.61988
626.37729
631.79499
637.20878
642.3135
646.93169
651.00796
654.53942
657.52338
659.96622
661.89177
663.32002
664.2665
664.73822
630.10468
634.61733
639.23167
643.72193
647.89401
651.6361
654.92708
657.76314
660.1328
662.01181
663.40592
664.32555
664.78376
)
;
        refGradient     uniform 0;
        valueFraction   uniform 0.99248593;
        value           nonuniform List<scalar> 
130
(
632.93925
637.4275
641.99793
646.46799
650.5654
654.29122
657.62041
660.4023
662.72236
664.60625
665.99802
666.9301
667.38293
629.1775
634.57049
639.94699
645.06632
649.65532
653.70371
657.21113
660.19678
662.6282
664.51966
665.93561
666.87903
667.3554
621.4854
628.85332
635.93157
642.37474
647.91791
652.63573
656.57688
659.8204
662.40753
664.36276
665.77542
666.74456
667.24287
609.7788
621.06082
631.03862
639.28474
645.99635
651.45094
655.85498
659.38811
662.15455
664.23021
665.71636
666.65798
667.1283
595.93574
613.74792
627.03172
636.92808
644.59372
650.62295
655.37982
659.08669
661.94258
664.07725
665.60247
666.57631
667.04712
595.90725
613.87665
627.02297
636.88129
644.5216
650.54049
655.29848
658.99914
661.85158
663.99511
665.52706
666.51412
666.99239
609.80433
621.1556
631.1374
639.2867
645.9418
651.3595
655.75687
659.29953
662.05168
664.11478
665.6115
666.60394
667.06681
621.47013
628.90117
636.02968
642.37644
647.82626
652.5292
656.47128
659.71631
662.29077
664.25357
665.71921
666.72692
667.19317
629.04506
634.49831
639.90498
644.98727
649.55966
653.59491
657.11785
660.09797
662.53111
664.46413
665.90188
666.85599
667.33366
632.75571
637.2676
641.84521
646.33405
650.49928
654.20202
657.4645
660.29858
662.69595
664.58437
665.98107
666.89587
667.35209
)
;
        Tnbr            T;
        thicknessLayers List<scalar> 0();
        kappaLayers     List<scalar> 0();
        kappaMethod     fluidThermo;
        kappa           none;
        alphaAni        none;
        alpha           none;
        field           T;
    }
    bottomWater_to_leftSolid
    {
        type            compressible::turbulentTemperatureCoupledBaffleMixed;
        refValue        nonuniform List<scalar> 
130
(
671.54357
671.50468
671.41881
671.28287
671.10208
670.91586
670.71372
670.48784
670.2256
669.96395
669.72034
669.51775
669.40736
671.5883
671.54849
671.46484
671.33138
671.15719
670.96923
670.75612
670.50843
670.22736
669.93798
669.66482
669.44788
669.33622
671.61144
671.57154
671.49357
671.37226
671.21447
671.03044
670.80596
670.52923
670.18968
669.84154
669.52427
669.29066
669.16103
671.58664
671.54502
671.48527
671.39473
671.25724
671.06756
670.8269
670.51763
670.1415
669.74164
669.3381
669.03944
668.8694
671.54446
671.52195
671.48158
671.40088
671.26909
671.08257
670.83598
670.51837
670.12903
669.69428
669.21736
668.83127
668.61085
671.55161
671.5409
671.50293
671.41868
671.28215
671.08668
670.84014
670.53908
670.17813
669.7517
669.27642
668.82247
668.58109
671.60044
671.58022
671.52831
671.42813
671.28344
671.07811
670.81102
670.51164
670.17658
669.7905
669.35652
668.99875
668.80508
671.66325
671.61968
671.52822
671.38978
671.21727
670.99899
670.73998
670.46801
670.18094
669.85492
669.50846
669.22683
669.08218
671.67257
671.61992
671.51355
671.3505
671.14024
670.90637
670.666
670.4227
670.16227
669.88724
669.60049
669.37809
669.247
671.6501
671.59747
671.48223
671.30557
671.06785
670.82357
670.58631
670.34061
670.09313
669.84638
669.60204
669.40873
669.29754
)
;
        refGradient     uniform 0;
        valueFraction   uniform 0.99248593;
        value           nonuniform List<scalar> 
130
(
674.02667
673.98988
673.90296
673.76066
673.54932
673.37001
673.17431
672.96011
672.67013
672.39698
672.13974
671.8986
671.77052
674.09731
674.05564
673.97121
673.82497
673.62697
673.44292
673.23304
672.98265
672.6919
672.38953
672.08707
671.83127
671.71632
674.13307
674.08655
674.00235
673.86509
673.69673
673.52294
673.30388
673.03138
672.64284
672.26056
671.909
671.6712
671.52924
674.10731
674.03222
673.96687
673.88747
673.75793
673.56102
673.32449
673.00091
672.58392
672.16112
671.6637
671.34793
671.151
674.0258
673.98821
673.95408
673.87709
673.74752
673.56734
673.32693
673.0017
672.57355
672.11858
671.51569
671.06264
670.79439
674.02363
674.02249
673.99218
673.90415
673.76542
673.56402
673.33106
673.03888
672.67655
672.22362
671.68204
671.03186
670.74272
674.09302
674.07972
674.03974
673.93435
673.7997
673.59444
673.2926
672.98445
672.64996
672.25243
671.71429
671.29238
671.07347
674.1944
674.14461
674.04004
673.88188
673.71381
673.48915
673.20124
672.92379
672.65625
672.31979
671.92221
671.59427
671.45551
674.19963
674.14029
674.02988
673.85187
673.61597
673.36348
673.1198
672.89268
672.63292
672.36351
672.02864
671.79912
671.64082
674.15814
674.10835
673.98528
673.79937
673.50835
673.24664
673.01616
672.75728
672.51179
672.27292
672.0081
671.80372
671.68058
)
;
        Tnbr            T;
        thicknessLayers List<scalar> 0();
        kappaLayers     List<scalar> 0();
        kappaMethod     fluidThermo;
        kappa           none;
        alphaAni        none;
        alpha           none;
        field           T;
    }
    bottomWater_to_heater
    {
        type            compressible::turbulentTemperatureCoupledBaffleMixed;
        refValue        nonuniform List<scalar> 
92
(
619.29606
620.49041
622.82362
626.15892
613.22339
614.65549
617.47047
621.50866
600.23924
602.14529
606.00249
611.69148
339.15789
336.2278
336.27385
339.24862
402.21784
398.44048
398.63973
402.70194
453.37654
449.9269
450.45478
454.67293
494.26684
491.6127
492.90306
497.51051
578.70027
525.55495
581.13133
524.38305
586.46263
527.38065
595.17623
533.66113
339.15789
339.24862
402.21784
402.70194
453.37654
454.67293
494.26684
497.51051
525.55495
533.66113
339.15899
339.15899
336.22551
336.26896
339.22532
339.22532
402.21901
402.21901
398.4359
398.6412
402.71365
402.71365
453.35139
453.35139
449.91477
450.45578
454.67954
454.67954
494.21828
494.21828
491.59253
492.90027
497.50614
497.50614
525.51061
525.51061
524.3608
527.37624
533.65224
533.65224
578.61777
581.07138
586.44113
595.18195
600.16782
602.09055
605.95465
611.65387
613.12596
614.57757
617.39721
621.42235
619.18443
620.38554
622.71377
626.02102
)
;
        refGradient     uniform 0;
        valueFraction   nonuniform List<scalar> 
92
(
0.99248593
0.99248593
0.99248593
0.99248593
0.99248593
0.99248593
0.99248593
0.99248593
0.99248593
0.99248593
0.99248593
0.99248593
0.99248593
0.99248593
0.99248593
0.99248593
0.99248593
0.99248593
0.99248593
0.99248593
0.99248593
0.99248593
0.99248593
0.99248593
0.99248593
0.99248593
0.99248593
0.99248593
0.99248593
0.99248593
0.99248593
0.99248593
0.99248593
0.99248593
0.99248593
0.99248593
0.99248593
0.99248593
0.99248593
0.99248593
0.99248593
0.99248593
0.99248593
0.99248593
0.99248593
0.99248593
0.99248593
0.99248593
0.99248593
0.99248593
0.99248593
0.99248593
0.99248593
0.99248593
0.99248593
0.99248593
0.99248593
0.99248593
0.99248593
0.99248593
0.99248593
0.99248593
0.99248593
0.99248593
0.99248593
0.99248593
0.99248593
0.99248593
0.99248593
0.99248593
0.99248593
0.99248593
0.99248593
0.99248593
0.99248593
0.99248593
0.99248593
0.99248593
0.99248593
0.99248593
0.99248593
0.99248593
0.99248593
0.99248593
0.99248593
0.99248593
0.99248593
0.99248593
0.99248593
0.99248593
0.99248593
0.99248593
)
;
        value           nonuniform List<scalar> 
92
(
622.02259
623.1967
625.5005
628.83734
616.00375
617.41569
620.1986
624.2069
603.10052
604.98168
608.82744
614.47196
343.94163
341.0188
341.07276
344.03117
406.54793
402.79371
402.98309
407.00994
457.31686
453.88494
454.39632
458.58318
497.89367
495.25169
496.51692
501.08293
581.64556
528.89958
584.06459
527.74272
589.32806
530.69003
597.96339
536.91052
343.84761
343.89284
406.5033
406.99568
457.2545
458.55465
497.80625
501.04568
528.81342
536.83537
343.84061
343.97805
341.01987
341.07121
343.80635
344.03458
406.52038
406.56091
402.78625
402.98896
407.01817
407.04668
457.22046
457.28619
453.86994
454.41095
458.55587
458.61438
497.71766
497.83277
495.22146
496.52815
501.01922
501.10522
528.74729
528.8159
527.69533
530.69876
536.79211
536.92521
581.52401
583.97978
589.31983
597.99259
603.03686
604.94916
608.78371
614.43251
615.90023
617.35477
620.14659
624.1199
621.91396
623.09755
625.39876
628.67009
)
;
        Tnbr            T;
        thicknessLayers List<scalar> 0();
        kappaLayers     List<scalar> 0();
        kappaMethod     fluidThermo;
        kappa           none;
        alphaAni        none;
        alpha           none;
        field           T;
    }
}


// ************************************************************************* //
