/*--------------------------------*- C++ -*----------------------------------*\
| =========                 |                                                 |
| \\      /  F ield         | OpenFOAM: The Open Source CFD Toolbox           |
|  \\    /   O peration     | Version:  v2012                                 |
|   \\  /    A nd           | Website:  www.openfoam.com                      |
|    \\/     M anipulation  |                                                 |
\*---------------------------------------------------------------------------*/
FoamFile
{
    version     2.0;
    format      ascii;
    class       volScalarField;
    location    "700/heater";
    object      T;
}
// * * * * * * * * * * * * * * * * * * * * * * * * * * * * * * * * * * * * * //

dimensions      [0 0 0 1 0 0 0];


internalField   nonuniform List<scalar> 
80
(
731.49964
733.54308
737.53898
743.25467
722.19816
724.61481
729.36404
736.19293
702.66673
705.79584
712.09208
721.42442
670.85156
674.78128
683.23651
696.98956
345.39108
342.65986
342.65925
345.28776
421.83388
418.49056
418.65293
422.09731
487.24638
484.46231
485.12477
488.77117
542.93823
541.27837
543.15049
547.58384
589.02325
589.29326
593.87743
601.39873
624.16893
627.79169
637.23416
656.29964
345.35903
342.64582
342.6507
345.28631
421.80862
418.49211
418.66651
422.11371
487.22343
484.46992
485.15138
488.78091
542.89854
541.28148
543.19163
547.62358
588.99331
589.30661
593.93656
601.46491
624.20928
627.85393
637.32192
656.39201
671.02735
675.03012
683.58402
697.34763
703.05228
706.23888
712.60801
721.96134
722.75367
725.21263
730.01476
736.86914
732.1491
734.2393
738.28323
744.02426
)
;

boundaryField
{
    minY
    {
        type            fixedValue;
        value           uniform 300;
    }
    minZ
    {
        type            zeroGradient;
    }
    maxZ
    {
        type            zeroGradient;
    }
    heater_to_topAir
    {
        type            compressible::turbulentTemperatureCoupledBaffleMixed;
        refValue        nonuniform List<scalar> 
40
(
519.41392
516.13254
510.39581
503.0231
482.25948
470.0717
457.26257
446.09606
492.72887
481.26262
469.21592
458.06771
507.41767
503.45326
501.9145
502.19465
505.28274
502.99638
503.85217
505.87034
505.56979
503.03678
503.71364
505.905
508.35821
504.68229
503.36583
503.91722
493.57547
482.60663
470.90658
459.85148
482.77505
470.81761
458.13995
446.97665
519.52661
516.39002
510.82024
503.60051
)
;
        refGradient     uniform 0;
        valueFraction   nonuniform List<scalar> 
40
(
0.00032132529
0.00032132529
0.00032132529
0.00032132529
0.00032132529
0.00032132529
0.00032132529
0.00032132529
0.00032132529
0.00032132529
0.00032132529
0.00032132529
0.00032132529
0.00032132529
0.00032132529
0.00032132529
0.00032132529
0.00032132529
0.00032132529
0.00032132529
0.00032132529
0.00032132529
0.00032132529
0.00032132529
0.00032132529
0.00032132529
0.00032132529
0.00032132529
0.00032132529
0.00032132529
0.00032132529
0.00032132529
0.00032132529
0.00032132529
0.00032132529
0.00032132529
0.00032132529
0.00032132529
0.00032132529
0.00032132529
)
;
        value           nonuniform List<scalar> 
40
(
731.43158
733.47328
737.46602
743.17754
722.12123
724.5332
729.27679
736.09991
702.59955
705.724
712.01437
721.34014
670.7994
674.7266
683.17865
696.92739
624.13111
627.75197
637.19169
656.2517
624.17155
627.81422
637.27941
656.34409
670.97548
674.9758
683.52657
697.28599
702.9853
706.16737
712.53076
721.87761
722.67677
725.13115
729.92773
736.77638
732.08087
734.16942
738.21031
743.94724
)
;
        Tnbr            T;
        thicknessLayers List<scalar> 0();
        kappaLayers     List<scalar> 0();
        kappaMethod     solidThermo;
        kappa           none;
        alphaAni        none;
        alpha           none;
        field           T;
    }
    heater_to_rightSolid
    {
        type            compressible::turbulentTemperatureCoupledBaffleMixed;
        refValue        nonuniform List<scalar> 10(750.38985 744.66377 733.11889 715.82601 695.37116 695.4442 716.09481 733.57387 745.26322 751.0782);
        refGradient     uniform 0;
        valueFraction   nonuniform List<scalar> 10(0.49999997 0.49999997 0.49999997 0.49999997 0.49999997 0.49999997 0.49999997 0.49999997 0.49999997 0.49999997);
        value           nonuniform List<scalar> 10(746.82229 740.42845 727.27183 706.40799 675.8356 675.91832 706.72147 727.76785 741.06638 747.55134);
        Tnbr            T;
        thicknessLayers List<scalar> 0();
        kappaLayers     List<scalar> 0();
        kappaMethod     solidThermo;
        kappa           none;
        alphaAni        none;
        alpha           none;
        field           T;
    }
    heater_to_leftSolid
    {
        type            compressible::turbulentTemperatureCoupledBaffleMixed;
        refValue        nonuniform List<scalar> 10(923.2829 923.20609 923.18699 923.25419 923.25007 923.32515 923.53274 923.81343 924.06134 924.21167);
        refGradient     uniform 0;
        valueFraction   nonuniform List<scalar> 10(2.0832898e-05 2.0832898e-05 2.0832898e-05 2.0832898e-05 2.0832898e-05 2.0832898e-05 2.0832898e-05 2.0832898e-05 2.0832898e-05 2.0832898e-05);
        value           nonuniform List<scalar> 10(731.50372 722.20252 702.6716 670.85717 624.17554 624.2159 671.03301 703.05721 722.75808 732.15319);
        Tnbr            T;
        thicknessLayers List<scalar> 1(0.001);
        kappaLayers     List<scalar> 1(0.0005);
        kappaMethod     solidThermo;
        kappa           none;
        alphaAni        none;
        alpha           none;
        field           T;
    }
    heater_to_bottomWater
    {
        type            compressible::turbulentTemperatureCoupledBaffleMixed;
        refValue        nonuniform List<scalar> 
92
(
938.81643
935.12639
930.23145
917.38069
933.18048
930.47856
926.31977
916.51871
929.91873
926.78973
919.96423
912.96431
923.23093
919.73644
917.83423
918.10933
918.59674
914.0742
912.45371
913.72208
914.79413
913.43646
909.11648
911.34526
921.47454
919.69778
908.09863
909.13161
928.23416
928.23416
923.37859
923.37859
907.52492
907.52492
904.37703
904.37703
932.84876
901.28483
931.41666
898.79981
928.76333
904.17388
926.55248
908.38956
922.65121
910.93318
928.06081
919.04879
914.77922
911.82967
904.48785
908.57214
927.7767
918.98563
916.85988
915.62477
901.3305
911.8194
924.57785
918.04568
916.68534
916.69203
900.59533
912.55784
921.6579
916.34144
918.39982
918.28475
906.44875
917.22228
919.69538
917.41312
919.98379
919.37999
909.41349
916.56477
917.41312
919.98379
919.37999
916.56477
925.71843
926.67924
925.6465
922.81747
932.26704
931.4201
929.39037
926.11493
939.04345
938.9707
934.97418
929.7268
)
;
        refGradient     uniform 0;
        valueFraction   nonuniform List<scalar> 
92
(
0.0075140686
0.0075140686
0.0075140686
0.0075140686
0.0075140686
0.0075140686
0.0075140686
0.0075140686
0.0075140686
0.0075140686
0.0075140686
0.0075140686
0.0075140686
0.0075140686
0.0075140686
0.0075140686
0.0075140686
0.0075140686
0.0075140686
0.0075140686
0.0075140686
0.0075140686
0.0075140686
0.0075140686
0.0075140686
0.0075140686
0.0075140686
0.0075140686
0.0075140686
0.0075140686
0.0075140686
0.0075140686
0.0075140686
0.0075140686
0.0075140686
0.0075140686
0.0075140679
0.0075140679
0.0075140679
0.0075140679
0.0075140679
0.0075140679
0.0075140679
0.0075140679
0.0075140679
0.0075140679
0.0075140679
0.0075140686
0.0075140686
0.0075140686
0.0075140679
0.0075140686
0.0075140679
0.0075140686
0.0075140686
0.0075140686
0.0075140679
0.0075140686
0.0075140679
0.0075140686
0.0075140686
0.0075140686
0.0075140679
0.0075140686
0.0075140679
0.0075140686
0.0075140686
0.0075140686
0.0075140679
0.0075140686
0.0075140679
0.0075140686
0.0075140686
0.0075140686
0.0075140679
0.0075140686
0.0075140686
0.0075140686
0.0075140686
0.0075140686
0.0075140686
0.0075140686
0.0075140686
0.0075140686
0.0075140686
0.0075140686
0.0075140686
0.0075140686
0.0075140686
0.0075140686
0.0075140686
0.0075140686
)
;
        value           nonuniform List<scalar> 
92
(
733.05752
735.05785
738.98691
744.56312
723.78366
726.16187
730.84416
737.54811
704.3746
707.45671
713.65438
722.86401
349.7331
346.99612
346.98121
349.59202
425.56684
422.2146
422.36356
425.79159
490.45935
487.68592
488.31091
491.94665
545.78294
544.12217
545.89307
550.30086
672.7859
591.57249
676.64962
591.80397
684.92223
596.23459
698.5483
603.67574
349.80537
349.4656
425.66317
425.67947
490.56432
491.89276
545.82109
550.29528
591.53054
603.725
349.73761
349.66989
346.94496
346.92762
349.48828
349.51897
425.61078
425.54472
422.2371
422.4009
425.71482
425.79363
490.51011
490.46103
487.71792
488.3943
491.87562
491.96551
545.74499
545.70504
544.11554
546.01047
550.32021
550.40117
591.47864
591.46149
591.79174
596.38239
603.77932
603.83305
672.87911
676.87113
685.35627
698.99535
704.72573
707.89563
714.20921
723.47108
724.32818
726.76234
731.51321
738.29154
733.70381
735.77778
739.76135
745.41987
)
;
        Tnbr            T;
        thicknessLayers List<scalar> 0();
        kappaLayers     List<scalar> 0();
        kappaMethod     solidThermo;
        kappa           none;
        alphaAni        none;
        alpha           none;
        field           T;
    }
}


// ************************************************************************* //
