/*--------------------------------*- C++ -*----------------------------------*\
| =========                 |                                                 |
| \\      /  F ield         | OpenFOAM: The Open Source CFD Toolbox           |
|  \\    /   O peration     | Version:  v2012                                 |
|   \\  /    A nd           | Website:  www.openfoam.com                      |
|    \\/     M anipulation  |                                                 |
\*---------------------------------------------------------------------------*/
FoamFile
{
    version     2.0;
    format      ascii;
    class       volScalarField;
    location    "550/rightSolid";
    object      T;
}
// * * * * * * * * * * * * * * * * * * * * * * * * * * * * * * * * * * * * * //

dimensions      [0 0 0 1 0 0 0];


internalField   nonuniform List<scalar> 
130
(
753.13674
761.07634
769.38301
777.6421
785.53684
792.84217
799.39938
805.10545
809.90549
813.77225
816.68715
818.63646
819.61187
747.25658
756.54373
766.04206
775.26197
783.88669
791.72109
798.64
804.58842
809.54977
813.52345
816.50442
818.49116
819.48388
735.52288
747.90772
759.95771
771.09473
781.08792
789.86112
797.41037
803.7725
809.00109
813.14699
816.23807
818.28761
819.31058
718.08842
736.31694
752.44288
766.28276
778.01762
787.90312
796.16338
802.97954
808.49523
812.82066
816.01856
818.13089
819.18235
697.55705
725.37539
746.31811
762.71941
775.8915
786.61411
795.37353
802.49405
808.19275
812.62422
815.88674
818.0341
819.10126
697.732
725.54723
746.46188
762.83361
775.97949
786.67971
795.42126
802.52516
808.20833
812.62305
815.87548
818.01705
819.0815
718.68059
736.86795
752.9041
766.65114
778.30807
788.12416
796.32499
803.09002
808.55778
812.83435
815.998
818.08859
819.13018
736.38846
748.74783
760.69073
771.71277
781.59393
790.25303
797.70181
803.97822
809.13043
813.20616
816.24163
818.25655
819.26234
748.23028
757.49398
766.91057
776.02895
784.5375
792.24152
799.03554
804.8698
809.73036
813.61901
816.53461
818.47902
819.45373
754.02238
761.93814
770.21112
778.425
786.25204
793.4424
799.86482
805.43506
810.11961
813.8946
816.73815
818.64084
819.59619
)
;

boundaryField
{
    maxX
    {
        type            zeroGradient;
    }
    minZ
    {
        type            zeroGradient;
    }
    maxZ
    {
        type            zeroGradient;
    }
    rightSolid_to_bottomWater
    {
        type            compressible::turbulentTemperatureCoupledBaffleMixed;
        refValue        nonuniform List<scalar> 
130
(
935.74009
933.33024
931.08616
928.51738
925.99757
924.54536
924.79674
925.17957
925.5806
926.61036
927.9209
929.11228
929.20402
927.37342
925.65278
924.42509
923.18429
922.85913
924.60525
925.12586
925.30849
925.82704
927.1802
928.2509
929.00236
928.89324
921.0972
918.5086
921.8735
922.26328
923.80794
925.60299
926.22125
925.84896
925.44362
926.46146
928.18319
928.55577
928.89325
916.91898
919.5195
922.69374
925.76376
926.15994
926.42836
926.59217
926.39712
926.25271
927.91618
928.76504
929.33214
929.52318
915.11804
920.01619
924.55693
925.79015
926.67972
927.20992
926.7795
926.82025
926.36438
926.85985
928.13659
928.42844
928.61766
914.44583
921.29294
923.59117
924.58531
925.46828
926.1412
926.06416
926.08333
925.774
925.369
927.19858
927.81247
928.15522
929.12034
929.55819
925.83832
924.93099
925.32137
925.52222
925.69039
925.767
925.46969
925.10168
926.22291
926.72641
927.13787
933.74256
936.61504
930.91868
927.6417
928.16163
927.24223
926.94441
926.56473
926.03585
926.0324
926.74001
927.2005
927.27455
941.08002
941.21235
936.14408
932.30527
929.7068
928.48261
927.75064
927.03778
926.47835
927.13174
927.64017
927.95078
928.48787
931.80968
930.06417
930.05858
931.39868
934.39215
932.61481
931.22338
928.44056
927.10411
927.7384
928.20948
928.7417
929.34553
)
;
        refGradient     uniform 0;
        valueFraction   nonuniform List<scalar> 
130
(
0.0075140686
0.0075140686
0.0075140686
0.0075140686
0.0075140686
0.0075140686
0.0075140686
0.0075140686
0.0075140686
0.0075140686
0.0075140686
0.0075140686
0.0075140686
0.0075140686
0.0075140686
0.0075140686
0.0075140686
0.0075140686
0.0075140686
0.0075140686
0.0075140686
0.0075140686
0.0075140686
0.0075140686
0.0075140686
0.0075140686
0.0075140686
0.0075140686
0.0075140686
0.0075140686
0.0075140686
0.0075140686
0.0075140686
0.0075140686
0.0075140686
0.0075140686
0.0075140686
0.0075140686
0.0075140686
0.0075140686
0.0075140686
0.0075140686
0.0075140686
0.0075140686
0.0075140686
0.0075140686
0.0075140686
0.0075140686
0.0075140686
0.0075140686
0.0075140686
0.0075140686
0.0075140686
0.0075140686
0.0075140686
0.0075140686
0.0075140686
0.0075140686
0.0075140686
0.0075140686
0.0075140686
0.0075140686
0.0075140686
0.0075140686
0.0075140686
0.0075140686
0.0075140686
0.0075140686
0.0075140686
0.0075140686
0.0075140686
0.0075140686
0.0075140686
0.0075140686
0.0075140686
0.0075140686
0.0075140686
0.0075140686
0.0075140686
0.0075140686
0.0075140686
0.0075140686
0.0075140686
0.0075140686
0.0075140686
0.0075140686
0.0075140686
0.0075140686
0.0075140686
0.0075140686
0.0075140686
0.0075140686
0.0075140686
0.0075140686
0.0075140686
0.0075140686
0.0075140686
0.0075140686
0.0075140686
0.0075140686
0.0075140686
0.0075140686
0.0075140686
0.0075140686
0.0075140686
0.0075140686
0.0075140686
0.0075140686
0.0075140686
0.0075140686
0.0075140686
0.0075140686
0.0075140686
0.0075140686
0.0075140686
0.0075140686
0.0075140686
0.0075140686
0.0075140686
0.0075140686
0.0075140686
0.0075140686
0.0075140686
0.0075140686
0.0075140686
0.0075140686
0.0075140686
0.0075140686
0.0075140686
0.0075140686
)
;
        value           nonuniform List<scalar> 
130
(
754.50867
762.37048
770.59788
778.77567
786.59225
793.8319
800.34181
806.00792
810.77493
814.62038
817.52323
819.46684
820.43561
748.60996
757.81438
767.23213
776.37348
784.931
792.71973
799.5906
805.49571
810.42369
814.3777
817.34433
819.32179
820.30623
736.91732
749.18965
761.17438
772.23067
782.16041
790.88121
798.37841
804.68995
809.87621
813.99863
817.07942
819.11637
820.13419
719.58251
737.69357
753.72217
767.48113
779.13082
788.94409
797.14353
803.90702
809.38018
813.6856
816.86587
818.9666
820.0116
699.19186
726.83794
747.65739
763.94475
777.02456
787.67062
796.36102
803.42836
809.08081
813.4827
816.73031
818.86374
819.92431
699.36041
727.01807
747.79284
764.04904
777.10279
787.72769
796.40302
803.45371
809.09186
813.47037
816.7121
818.84221
819.90124
720.26187
738.31582
754.20354
767.8405
779.4128
789.15665
797.29715
804.01195
809.43641
813.67809
816.82638
818.90505
819.94191
737.87138
750.15939
761.96976
772.88443
782.69529
791.28244
798.67304
804.89946
810.009
814.05409
817.07207
819.07531
820.07411
749.67934
758.87436
768.18207
777.20315
785.62829
793.26526
800.00276
805.78786
810.60773
814.47208
817.36961
819.30175
820.27318
755.35827
763.20135
771.41214
779.57439
787.36512
794.48811
800.85185
806.35936
810.99873
814.75016
817.5759
819.4683
820.42101
)
;
        Tnbr            T;
        thicknessLayers List<scalar> 0();
        kappaLayers     List<scalar> 0();
        kappaMethod     solidThermo;
        kappa           none;
        alphaAni        none;
        alpha           none;
        field           T;
    }
    rightSolid_to_topAir
    {
        type            compressible::turbulentTemperatureCoupledBaffleMixed;
        refValue        nonuniform List<scalar> 
130
(
494.38293
487.33436
481.22092
476.31289
472.65281
470.16736
468.74977
468.31198
468.82422
470.34801
473.0981
477.61501
484.80009
437.62061
432.2053
428.97604
427.19874
426.34829
426.14131
426.47531
427.36052
428.90204
431.29019
434.90122
440.72949
450.77745
449.26642
440.7434
433.32277
426.97523
421.73942
417.77349
415.2765
414.37285
415.03757
417.15158
420.67464
426.48942
436.31233
503.80434
505.03099
505.20108
503.94485
501.23707
497.2897
492.45316
487.2843
482.79495
480.68791
482.86287
489.31177
499.79343
507.4342
511.48369
515.77433
519.95837
523.69586
526.68007
528.69002
529.6742
529.87525
529.97
531.094
534.74746
542.70979
506.03101
509.87325
513.83332
517.51507
520.56846
522.73657
523.89002
524.06486
523.57033
523.12941
523.85463
527.14112
534.54394
499.92329
500.07152
498.85021
495.97529
491.73827
486.74977
481.55001
476.5187
472.33898
470.43042
472.7947
480.66379
490.96165
446.64581
437.9455
430.53747
424.4103
419.62186
416.29932
414.53483
414.29214
415.41428
417.72141
421.22337
426.80989
437.01589
437.45397
431.89491
428.49347
426.54854
425.58575
425.37241
425.83846
426.96976
428.79991
431.45505
435.31296
441.36561
450.86483
494.00424
486.78877
480.51518
475.45717
471.67039
469.1003
467.65603
467.2468
467.818
469.39695
472.17001
476.63872
483.57139
)
;
        refGradient     uniform 0;
        valueFraction   nonuniform List<scalar> 
130
(
0.00032132529
0.00032132529
0.00032132529
0.00032132529
0.00032132529
0.00032132529
0.00032132529
0.00032132529
0.00032132529
0.00032132529
0.00032132529
0.00032132529
0.00032132529
0.00032132529
0.00032132529
0.00032132529
0.00032132529
0.00032132529
0.00032132529
0.00032132529
0.00032132529
0.00032132529
0.00032132529
0.00032132529
0.00032132529
0.00032132529
0.00032132529
0.00032132529
0.00032132529
0.00032132529
0.00032132529
0.00032132529
0.00032132529
0.00032132529
0.00032132529
0.00032132529
0.00032132529
0.00032132529
0.00032132529
0.00032132529
0.00032132529
0.00032132529
0.00032132529
0.00032132529
0.00032132529
0.00032132529
0.00032132529
0.00032132529
0.00032132529
0.00032132529
0.00032132529
0.00032132529
0.00032132529
0.00032132529
0.00032132529
0.00032132529
0.00032132529
0.00032132529
0.00032132529
0.00032132529
0.00032132529
0.00032132529
0.00032132529
0.00032132529
0.00032132529
0.00032132529
0.00032132529
0.00032132529
0.00032132529
0.00032132529
0.00032132529
0.00032132529
0.00032132529
0.00032132529
0.00032132529
0.00032132529
0.00032132529
0.00032132529
0.00032132529
0.00032132529
0.00032132529
0.00032132529
0.00032132529
0.00032132529
0.00032132529
0.00032132529
0.00032132529
0.00032132529
0.00032132529
0.00032132529
0.00032132529
0.00032132529
0.00032132529
0.00032132529
0.00032132529
0.00032132529
0.00032132529
0.00032132529
0.00032132529
0.00032132529
0.00032132529
0.00032132529
0.00032132529
0.00032132529
0.00032132529
0.00032132529
0.00032132529
0.00032132529
0.00032132529
0.00032132529
0.00032132529
0.00032132529
0.00032132529
0.00032132529
0.00032132529
0.00032132529
0.00032132529
0.00032132529
0.00032132529
0.00032132529
0.00032132529
0.00032132529
0.00032132529
0.00032132529
0.00032132529
0.00032132529
0.00032132529
0.00032132529
0.00032132529
0.00032132529
)
;
        value           nonuniform List<scalar> 
130
(
753.05343
760.98819
769.29023
777.54516
785.43628
792.73859
799.29332
804.99745
809.79614
813.66216
816.57701
818.52714
819.50455
747.15706
756.43946
765.93372
775.15014
783.77187
791.60376
798.52059
804.4674
809.42766
813.40085
816.38204
818.37002
819.36564
735.43092
747.80905
759.85278
770.9842
780.97253
789.74167
797.28773
803.64753
808.87467
813.01993
816.11116
818.16192
819.18771
718.01963
736.24266
752.36345
766.19848
777.92873
787.80982
796.06589
802.87821
808.39069
812.71405
815.91164
818.02537
819.07986
697.496
725.30666
746.24401
762.64142
775.81049
786.53065
795.28794
802.4065
808.10343
812.5335
815.79535
817.94321
819.01259
697.67041
725.47792
746.38713
762.7548
775.89745
786.59496
795.33411
802.43581
808.117
812.53017
815.78178
817.92373
818.99022
718.61032
736.79185
752.82246
766.5642
778.21605
788.0274
796.22395
802.98522
808.44989
812.72448
815.88787
817.98032
819.02489
736.29535
748.64788
760.58457
771.60118
781.47766
790.13294
797.57878
803.85312
809.00406
813.07922
816.11484
818.13092
819.13967
748.13039
757.38927
766.80169
775.91658
784.42213
792.12365
798.91567
804.74845
809.60808
813.49634
816.41226
818.358
819.33545
753.93881
761.84963
770.11795
778.32758
786.15091
793.33814
799.75806
805.32642
810.00971
813.78404
816.62758
818.5311
819.48837
)
;
        Tnbr            T;
        thicknessLayers List<scalar> 0();
        kappaLayers     List<scalar> 0();
        kappaMethod     solidThermo;
        kappa           none;
        alphaAni        none;
        alpha           none;
        field           T;
    }
    rightSolid_to_heater
    {
        type            compressible::turbulentTemperatureCoupledBaffleMixed;
        refValue        nonuniform List<scalar> 10(746.04512 738.83347 723.85949 699.24748 658.34471 658.50596 699.83209 724.70758 739.78573 746.94401);
        refGradient     uniform 0;
        valueFraction   nonuniform List<scalar> 10(0.50000003 0.50000003 0.50000003 0.50000003 0.50000003 0.50000003 0.50000003 0.50000003 0.50000003 0.50000003);
        value           nonuniform List<scalar> 10(749.59085 743.04501 729.69119 708.66798 677.9509 678.11899 709.25635 730.54801 744.00799 750.48319);
        Tnbr            T;
        thicknessLayers List<scalar> 0();
        kappaLayers     List<scalar> 0();
        kappaMethod     solidThermo;
        kappa           none;
        alphaAni        none;
        alpha           none;
        field           T;
    }
}


// ************************************************************************* //
