/*--------------------------------*- C++ -*----------------------------------*\
| =========                 |                                                 |
| \\      /  F ield         | OpenFOAM: The Open Source CFD Toolbox           |
|  \\    /   O peration     | Version:  v2012                                 |
|   \\  /    A nd           | Website:  www.openfoam.com                      |
|    \\/     M anipulation  |                                                 |
\*---------------------------------------------------------------------------*/
FoamFile
{
    version     2.0;
    format      ascii;
    class       volScalarField;
    location    "710/heater";
    object      T;
}
// * * * * * * * * * * * * * * * * * * * * * * * * * * * * * * * * * * * * * //

dimensions      [0 0 0 1 0 0 0];


internalField   nonuniform List<scalar> 
80
(
731.37861
733.43096
737.45925
743.1914
722.06831
724.48002
729.23598
736.05831
702.4594
705.57674
711.88421
721.21561
670.56095
674.47937
682.97662
696.73844
345.2856
342.59398
342.60712
345.23505
421.60918
418.31791
418.49748
421.92577
486.96922
484.21234
484.89272
488.52217
542.63316
540.97724
542.8608
547.27467
588.6762
588.9561
593.56237
601.07468
623.85208
627.47644
636.9256
655.98641
345.23669
342.56306
342.58258
345.21794
421.53812
418.29275
418.48625
421.92908
486.88895
484.19749
484.8873
488.50011
542.53484
540.95686
542.86322
547.26729
588.63128
588.96331
593.57921
601.07631
623.88053
627.52141
636.97533
656.02721
670.72503
674.70096
683.20372
696.93065
702.82955
705.98596
712.306
721.60044
722.5896
725.01942
729.78365
736.59646
732.00479
734.05076
738.06913
743.78729
)
;

boundaryField
{
    minY
    {
        type            fixedValue;
        value           uniform 300;
    }
    minZ
    {
        type            zeroGradient;
    }
    maxZ
    {
        type            zeroGradient;
    }
    heater_to_topAir
    {
        type            compressible::turbulentTemperatureCoupledBaffleMixed;
        refValue        nonuniform List<scalar> 
40
(
519.59682
516.35047
510.67702
503.39074
482.50388
470.36387
457.64364
446.59534
493.20526
482.09839
470.44674
459.54662
508.02183
504.63998
503.74293
504.60933
505.48932
503.52666
504.66401
506.71223
505.55998
502.5508
502.789
504.96265
508.43941
504.23645
502.33005
502.3894
493.6954
482.40729
470.27988
458.90455
482.84527
470.88097
458.15558
446.91232
519.62673
516.43974
510.79757
503.48819
)
;
        refGradient     uniform 0;
        valueFraction   nonuniform List<scalar> 
40
(
0.00032132529
0.00032132529
0.00032132529
0.00032132529
0.00032132529
0.00032132529
0.00032132529
0.00032132529
0.00032132529
0.00032132529
0.00032132529
0.00032132529
0.00032132529
0.00032132529
0.00032132529
0.00032132529
0.00032132529
0.00032132529
0.00032132529
0.00032132529
0.00032132529
0.00032132529
0.00032132529
0.00032132529
0.00032132529
0.00032132529
0.00032132529
0.00032132529
0.00032132529
0.00032132529
0.00032132529
0.00032132529
0.00032132529
0.00032132529
0.00032132529
0.00032132529
0.00032132529
0.00032132529
0.00032132529
0.00032132529
)
;
        value           nonuniform List<scalar> 
40
(
731.31098
733.3616
737.38674
743.11458
721.99181
724.39883
729.14913
735.96562
702.39275
705.50547
711.80713
721.13194
670.50922
674.42529
682.91953
696.67718
623.81453
627.43709
636.88359
655.93894
623.84299
627.48173
636.93272
655.97921
670.67326
674.64659
683.14608
696.8687
702.7626
705.9144
712.22858
721.51648
722.51278
724.93803
729.69668
736.50373
731.93676
733.98116
737.99648
743.71047
)
;
        Tnbr            T;
        thicknessLayers List<scalar> 0();
        kappaLayers     List<scalar> 0();
        kappaMethod     solidThermo;
        kappa           none;
        alphaAni        none;
        alpha           none;
        field           T;
    }
    heater_to_rightSolid
    {
        type            compressible::turbulentTemperatureCoupledBaffleMixed;
        refValue        nonuniform List<scalar> 10(750.25142 744.48062 732.88532 715.55336 695.04429 695.06643 715.67997 733.1968 744.93195 750.79391);
        refGradient     uniform 0;
        valueFraction   nonuniform List<scalar> 10(0.49999997 0.49999997 0.49999997 0.49999997 0.49999997 0.49999997 0.49999997 0.49999997 0.49999997 0.49999997);
        value           nonuniform List<scalar> 10(746.72153 740.26963 727.05067 706.14614 675.5156 675.54709 706.30559 727.39885 740.76439 747.2908);
        Tnbr            T;
        thicknessLayers List<scalar> 0();
        kappaLayers     List<scalar> 0();
        kappaMethod     solidThermo;
        kappa           none;
        alphaAni        none;
        alpha           none;
        field           T;
    }
    heater_to_leftSolid
    {
        type            compressible::turbulentTemperatureCoupledBaffleMixed;
        refValue        nonuniform List<scalar> 10(923.9101 923.91582 923.8099 923.5989 923.39378 923.34504 923.4896 923.76328 924.11374 924.37585);
        refGradient     uniform 0;
        valueFraction   nonuniform List<scalar> 10(2.0832898e-05 2.0832898e-05 2.0832898e-05 2.0832898e-05 2.0832898e-05 2.0832898e-05 2.0832898e-05 2.0832898e-05 2.0832898e-05 2.0832898e-05);
        value           nonuniform List<scalar> 10(731.38304 722.07299 702.4646 670.56672 623.85881 623.88725 670.73068 702.83441 722.59402 732.00901);
        Tnbr            T;
        thicknessLayers List<scalar> 1(0.001);
        kappaLayers     List<scalar> 1(0.0005);
        kappaMethod     solidThermo;
        kappa           none;
        alphaAni        none;
        alpha           none;
        field           T;
    }
    heater_to_bottomWater
    {
        type            compressible::turbulentTemperatureCoupledBaffleMixed;
        refValue        nonuniform List<scalar> 
92
(
933.62366
929.02051
928.92364
926.55216
932.18474
927.87568
925.67178
918.85568
926.81297
921.21718
917.47372
912.80914
923.48589
921.46009
920.3058
918.41989
917.21403
916.01666
914.50081
913.58023
916.5348
911.5006
911.87086
911.04284
931.77399
916.04347
909.69623
906.27747
924.78099
924.78099
913.43296
913.43296
909.27268
909.27268
907.03736
907.03736
925.60464
901.72034
924.55899
895.28093
925.28099
901.65516
922.67886
905.97573
919.09997
908.33398
923.46865
911.02811
911.79469
909.87741
903.79883
906.66649
917.28221
916.44796
916.56767
912.89916
900.50041
908.57667
913.88394
920.68692
918.56902
913.67823
898.15813
907.74414
912.15491
922.67868
917.79343
913.1277
902.51601
910.37071
914.32996
918.0184
919.42249
912.87418
905.37877
907.38289
918.0184
919.42249
912.87418
907.38289
930.5528
930.1275
927.75605
917.86955
936.70624
934.2913
932.1637
930.44812
942.10644
934.34336
932.37563
931.22458
)
;
        refGradient     uniform 0;
        valueFraction   nonuniform List<scalar> 
92
(
0.0075140686
0.0075140686
0.0075140686
0.0075140686
0.0075140686
0.0075140686
0.0075140686
0.0075140686
0.0075140686
0.0075140686
0.0075140686
0.0075140686
0.0075140686
0.0075140686
0.0075140686
0.0075140686
0.0075140686
0.0075140686
0.0075140686
0.0075140686
0.0075140686
0.0075140686
0.0075140686
0.0075140686
0.0075140686
0.0075140686
0.0075140686
0.0075140686
0.0075140686
0.0075140686
0.0075140686
0.0075140686
0.0075140686
0.0075140686
0.0075140686
0.0075140686
0.0075140679
0.0075140679
0.0075140679
0.0075140679
0.0075140679
0.0075140679
0.0075140679
0.0075140679
0.0075140679
0.0075140679
0.0075140679
0.0075140686
0.0075140686
0.0075140686
0.0075140679
0.0075140686
0.0075140679
0.0075140686
0.0075140686
0.0075140686
0.0075140679
0.0075140686
0.0075140679
0.0075140686
0.0075140686
0.0075140686
0.0075140679
0.0075140686
0.0075140679
0.0075140686
0.0075140686
0.0075140686
0.0075140679
0.0075140686
0.0075140679
0.0075140686
0.0075140686
0.0075140686
0.0075140679
0.0075140686
0.0075140686
0.0075140686
0.0075140686
0.0075140686
0.0075140686
0.0075140686
0.0075140686
0.0075140686
0.0075140686
0.0075140686
0.0075140686
0.0075140686
0.0075140686
0.0075140686
0.0075140686
0.0075140686
)
;
        value           nonuniform List<scalar> 
92
(
732.89871
734.90102
738.89829
744.56942
723.64761
726.00881
730.71243
737.43218
704.1458
707.19761
713.42952
722.65567
349.6304
346.94372
346.94807
349.54209
425.33364
422.05794
422.22473
425.62036
490.19747
487.42338
488.10143
491.6974
545.55766
543.79595
545.61766
549.9727
672.47167
591.20223
676.27537
591.39473
684.67752
595.93514
698.31911
603.37423
349.64632
349.41661
425.38883
425.48285
490.26319
491.62686
545.48932
549.97043
591.15954
603.38398
349.58173
349.48825
346.84041
346.84538
349.41525
349.4368
425.2636
425.25733
422.03712
422.20158
425.52539
425.58607
490.09797
490.14908
487.4618
488.10967
491.57875
491.65078
545.31267
545.39175
543.78889
545.6459
549.93719
549.99621
591.07918
591.10689
591.44689
595.97893
603.36344
603.3785
672.58359
676.54022
684.92996
698.51256
704.54093
707.67046
713.92525
723.07567
724.1987
726.59218
731.30465
738.05343
733.58372
735.55609
739.52954
745.1961
)
;
        Tnbr            T;
        thicknessLayers List<scalar> 0();
        kappaLayers     List<scalar> 0();
        kappaMethod     solidThermo;
        kappa           none;
        alphaAni        none;
        alpha           none;
        field           T;
    }
}


// ************************************************************************* //
