/*--------------------------------*- C++ -*----------------------------------*\
| =========                 |                                                 |
| \\      /  F ield         | OpenFOAM: The Open Source CFD Toolbox           |
|  \\    /   O peration     | Version:  v2012                                 |
|   \\  /    A nd           | Website:  www.openfoam.com                      |
|    \\/     M anipulation  |                                                 |
\*---------------------------------------------------------------------------*/
FoamFile
{
    version     2.0;
    format      ascii;
    class       volScalarField;
    location    "800/rightSolid";
    object      T;
}
// * * * * * * * * * * * * * * * * * * * * * * * * * * * * * * * * * * * * * //

dimensions      [0 0 0 1 0 0 0];


internalField   nonuniform List<scalar> 
130
(
747.46053
755.07172
763.08792
771.08587
778.73816
785.81404
792.15719
797.66702
802.28648
805.99211
808.77148
810.62189
811.54441
741.61451
750.60236
759.80519
768.75055
777.11443
784.70286
791.40241
797.15074
801.93344
805.74636
808.59354
810.48464
811.43006
729.98873
742.04086
753.74491
764.57722
774.29339
782.81786
790.1512
796.31776
801.37498
805.36427
808.32203
810.28226
811.26205
712.60301
730.42897
746.17828
759.68846
771.14065
780.78878
788.84887
795.48132
800.83343
805.00911
808.08177
810.11154
811.12235
692.12825
719.48158
740.02962
756.09789
768.98243
779.46005
788.01205
794.95106
800.49112
804.78436
807.93079
810.00142
811.03028
692.17721
719.53967
740.10148
756.16965
769.05
779.5157
788.04801
794.96362
800.47566
804.75482
807.89844
809.96641
810.99286
712.70908
730.56672
746.3479
759.86662
771.30748
780.91574
788.92056
795.50115
800.79871
804.94153
808.00093
810.01878
811.02199
730.1546
742.229
753.96525
764.79829
774.49103
782.97108
790.2449
796.35052
801.33895
805.27834
808.20712
810.14718
811.11478
741.88718
750.92829
760.1398
769.05427
777.37623
784.90901
791.5419
797.22121
801.92845
805.66933
808.46511
810.32874
811.26121
747.74765
755.47933
763.53605
771.49261
779.07906
786.08669
792.35321
797.77642
802.31441
805.94232
808.65342
810.46467
811.37442
)
;

boundaryField
{
    maxX
    {
        type            zeroGradient;
    }
    minZ
    {
        type            zeroGradient;
    }
    maxZ
    {
        type            zeroGradient;
    }
    rightSolid_to_bottomWater
    {
        type            compressible::turbulentTemperatureCoupledBaffleMixed;
        refValue        nonuniform List<scalar> 
130
(
920.70404
907.15965
907.19955
907.61384
907.75253
908.24529
908.67015
908.72611
908.03532
907.73287
907.32264
906.8124
905.77039
910.86525
908.33939
908.55654
909.55776
909.46721
909.80943
910.19119
908.86696
908.5626
908.3597
907.84155
906.97317
906.92652
916.06173
910.01641
907.9611
909.36221
910.31444
910.8287
911.54332
909.37551
908.77438
908.0533
906.81177
906.42484
906.88944
906.91691
907.1012
905.71464
906.36752
906.5801
908.21038
910.31683
908.86147
908.10938
907.48514
905.74626
905.92304
906.05464
894.10576
909.45496
909.96544
910.05608
909.01736
908.47388
907.92523
907.33219
906.43192
905.88284
904.74414
904.82949
904.97529
896.15972
909.31181
912.87768
911.7879
910.92659
910.41567
909.25498
907.94889
903.90371
903.18387
903.46846
903.82029
903.81916
905.33298
907.1918
909.44746
910.72207
911.40513
910.12675
909.0757
907.34556
903.49394
902.9725
903.44148
903.46278
903.33769
911.37975
907.24894
908.298
909.06825
909.39379
909.13863
908.33231
906.75618
903.1166
902.43288
902.79141
902.63875
902.61699
916.81101
915.41807
910.95273
907.65621
907.92818
907.92024
907.65842
907.36372
906.0393
903.30288
902.15149
902.33987
902.32503
919.12536
918.40567
917.83594
910.82385
908.06477
908.54958
909.05997
907.79474
907.12949
905.95049
902.73795
901.92168
902.18794
)
;
        refGradient     uniform 0;
        valueFraction   nonuniform List<scalar> 
130
(
0.0075140686
0.0075140686
0.0075140686
0.0075140686
0.0075140686
0.0075140686
0.0075140686
0.0075140686
0.0075140686
0.0075140686
0.0075140686
0.0075140686
0.0075140686
0.0075140686
0.0075140686
0.0075140686
0.0075140686
0.0075140686
0.0075140686
0.0075140686
0.0075140686
0.0075140686
0.0075140686
0.0075140686
0.0075140686
0.0075140686
0.0075140686
0.0075140686
0.0075140686
0.0075140686
0.0075140686
0.0075140686
0.0075140686
0.0075140686
0.0075140686
0.0075140686
0.0075140686
0.0075140686
0.0075140686
0.0075140686
0.0075140686
0.0075140686
0.0075140686
0.0075140686
0.0075140686
0.0075140686
0.0075140686
0.0075140686
0.0075140686
0.0075140686
0.0075140686
0.0075140686
0.0075140686
0.0075140686
0.0075140686
0.0075140686
0.0075140686
0.0075140686
0.0075140686
0.0075140686
0.0075140686
0.0075140686
0.0075140686
0.0075140686
0.0075140686
0.0075140686
0.0075140686
0.0075140686
0.0075140686
0.0075140686
0.0075140686
0.0075140686
0.0075140686
0.0075140686
0.0075140686
0.0075140686
0.0075140686
0.0075140686
0.0075140686
0.0075140686
0.0075140686
0.0075140686
0.0075140686
0.0075140686
0.0075140686
0.0075140686
0.0075140686
0.0075140686
0.0075140686
0.0075140686
0.0075140686
0.0075140686
0.0075140686
0.0075140686
0.0075140686
0.0075140686
0.0075140686
0.0075140686
0.0075140686
0.0075140686
0.0075140686
0.0075140686
0.0075140686
0.0075140686
0.0075140686
0.0075140686
0.0075140686
0.0075140686
0.0075140686
0.0075140686
0.0075140686
0.0075140686
0.0075140686
0.0075140686
0.0075140686
0.0075140686
0.0075140686
0.0075140686
0.0075140686
0.0075140686
0.0075140686
0.0075140686
0.0075140686
0.0075140686
0.0075140686
0.0075140686
0.0075140686
0.0075140686
0.0075140686
0.0075140686
)
;
        value           nonuniform List<scalar> 
130
(
748.7631
756.21528
764.17145
772.11236
779.70817
786.7346
793.03333
798.50226
803.08186
806.75743
809.51287
811.34557
812.25335
742.88695
751.78827
760.9235
769.80913
778.1095
785.64351
792.29563
797.9909
802.73543
806.51823
809.34016
811.21056
812.14853
731.38739
743.30362
754.9042
765.66564
775.31598
783.78029
791.06395
797.16797
802.18274
806.1367
809.06296
811.00559
811.98153
714.06331
731.75675
747.3774
760.79106
772.15882
781.74674
789.76218
796.33395
801.64027
805.77995
808.81652
810.8324
811.83662
693.64606
720.90921
741.30681
757.2551
770.0351
780.42998
788.91369
795.7962
801.28796
805.54489
808.65918
810.71493
811.73717
693.71014
720.96588
741.40004
757.33937
770.11654
780.49985
788.95942
795.81335
801.25367
805.49535
808.61754
810.67264
811.69138
714.15677
731.89425
747.57385
761.00064
772.36074
781.88728
789.82413
796.34236
801.57126
805.6791
808.71908
810.72195
811.71669
731.51675
743.46943
755.12544
765.88293
775.50534
783.91982
791.13299
797.18096
802.10464
806.00934
808.91885
810.84321
811.80339
743.20219
752.16494
761.27373
770.09645
778.35795
785.8341
792.41522
798.04969
802.71167
806.40393
809.1701
811.02117
811.94653
749.03613
756.70435
764.69631
772.54044
780.04912
787.00774
793.23103
798.60399
803.10292
806.69476
809.3614
811.15294
812.05787
)
;
        Tnbr            T;
        thicknessLayers List<scalar> 0();
        kappaLayers     List<scalar> 0();
        kappaMethod     solidThermo;
        kappa           none;
        alphaAni        none;
        alpha           none;
        field           T;
    }
    rightSolid_to_topAir
    {
        type            compressible::turbulentTemperatureCoupledBaffleMixed;
        refValue        nonuniform List<scalar> 
130
(
496.34561
488.72714
482.11961
476.78758
472.76873
469.98521
468.32176
467.67489
467.99494
469.32539
471.86369
476.12745
483.01564
438.95207
433.18903
429.63833
427.57049
426.47541
426.08037
426.27462
427.03825
428.43759
430.63776
433.99312
439.46047
449.21337
450.24284
441.10462
433.22209
426.55808
421.13249
417.06905
414.51847
413.55783
414.12914
416.11859
419.51295
425.16373
434.72579
506.04841
506.43604
505.61887
503.26591
499.45663
494.50232
488.78876
482.88826
477.85162
475.33611
477.22371
484.26065
495.08568
510.03957
513.75829
517.67492
521.41326
524.6095
526.94906
528.22111
528.41065
527.83217
527.24644
527.86098
531.22443
539.10902
509.97136
513.44478
517.0243
520.29545
522.89467
524.56738
525.20492
524.87701
523.92355
523.10547
523.59949
526.83215
534.34972
503.6156
503.46795
501.75276
498.24828
493.36746
487.83876
482.22473
476.87827
472.4185
470.2838
472.50135
480.31132
490.99539
448.58399
439.82342
432.17395
425.6936
420.53605
416.91577
414.95798
414.6075
415.65651
417.88956
421.29825
426.7624
436.57563
437.28888
431.67138
428.197
426.15209
425.08293
424.79244
425.22969
426.37245
428.22435
430.87622
434.67699
440.6427
450.38873
495.31246
487.66025
481.02024
475.65242
471.60933
468.84074
467.25794
466.76466
467.29296
468.85399
471.62293
476.10855
483.11137
)
;
        refGradient     uniform 0;
        valueFraction   nonuniform List<scalar> 
130
(
0.00032132529
0.00032132529
0.00032132529
0.00032132529
0.00032132529
0.00032132529
0.00032132529
0.00032132529
0.00032132529
0.00032132529
0.00032132529
0.00032132529
0.00032132529
0.00032132529
0.00032132529
0.00032132529
0.00032132529
0.00032132529
0.00032132529
0.00032132529
0.00032132529
0.00032132529
0.00032132529
0.00032132529
0.00032132529
0.00032132529
0.00032132529
0.00032132529
0.00032132529
0.00032132529
0.00032132529
0.00032132529
0.00032132529
0.00032132529
0.00032132529
0.00032132529
0.00032132529
0.00032132529
0.00032132529
0.00032132529
0.00032132529
0.00032132529
0.00032132529
0.00032132529
0.00032132529
0.00032132529
0.00032132529
0.00032132529
0.00032132529
0.00032132529
0.00032132529
0.00032132529
0.00032132529
0.00032132529
0.00032132529
0.00032132529
0.00032132529
0.00032132529
0.00032132529
0.00032132529
0.00032132529
0.00032132529
0.00032132529
0.00032132529
0.00032132529
0.00032132529
0.00032132529
0.00032132529
0.00032132529
0.00032132529
0.00032132529
0.00032132529
0.00032132529
0.00032132529
0.00032132529
0.00032132529
0.00032132529
0.00032132529
0.00032132529
0.00032132529
0.00032132529
0.00032132529
0.00032132529
0.00032132529
0.00032132529
0.00032132529
0.00032132529
0.00032132529
0.00032132529
0.00032132529
0.00032132529
0.00032132529
0.00032132529
0.00032132529
0.00032132529
0.00032132529
0.00032132529
0.00032132529
0.00032132529
0.00032132529
0.00032132529
0.00032132529
0.00032132529
0.00032132529
0.00032132529
0.00032132529
0.00032132529
0.00032132529
0.00032132529
0.00032132529
0.00032132529
0.00032132529
0.00032132529
0.00032132529
0.00032132529
0.00032132529
0.00032132529
0.00032132529
0.00032132529
0.00032132529
0.00032132529
0.00032132529
0.00032132529
0.00032132529
0.00032132529
0.00032132529
0.00032132529
0.00032132529
0.00032132529
0.00032132529
)
;
        value           nonuniform List<scalar> 
130
(
747.38065
754.9869
762.99831
770.99192
778.64044
785.71316
792.0538
797.56172
802.17985
805.88477
808.6641
810.51531
811.43977
741.51794
750.50104
759.69969
768.64147
777.00233
784.58822
791.28572
797.03253
801.8142
805.62666
808.47404
810.36633
811.31458
729.89934
741.94474
753.64242
764.46911
774.18044
782.70089
790.03111
796.19546
801.25131
805.24002
808.19797
810.15943
811.14199
712.53685
730.35725
746.10133
759.60651
771.05383
780.6973
788.75305
795.38156
800.73041
804.90401
807.97635
810.00777
811.02174
692.06988
719.41564
739.95845
756.02284
768.90435
779.37943
787.92918
794.86612
800.40431
804.69605
807.84173
809.91282
810.94389
692.11885
719.47369
740.03011
756.09425
768.97138
779.43434
787.96421
794.87759
800.38765
804.66525
807.80807
809.87644
810.90499
712.6422
730.4941
746.26972
759.78304
771.21873
780.82221
788.82273
795.39958
800.69409
804.83496
807.89413
809.91387
810.9202
730.06454
742.13229
753.86238
764.68991
774.37794
782.85417
790.12509
796.22871
801.21595
805.15485
808.08382
810.02504
810.99549
741.78993
750.82637
760.03385
768.94481
777.26377
784.79408
791.42501
797.10291
801.8093
805.54988
808.34604
810.21101
811.14632
747.66728
755.39406
763.44612
771.39844
778.98112
785.98562
792.24964
797.67095
802.20769
805.83499
808.54615
810.35829
811.27002
)
;
        Tnbr            T;
        thicknessLayers List<scalar> 0();
        kappaLayers     List<scalar> 0();
        kappaMethod     solidThermo;
        kappa           none;
        alphaAni        none;
        alpha           none;
        field           T;
    }
    rightSolid_to_heater
    {
        type            compressible::turbulentTemperatureCoupledBaffleMixed;
        refValue        nonuniform List<scalar> 10(740.63163 733.46324 718.60679 694.18297 653.60649 653.63545 694.2616 718.79246 733.67319 740.83441);
        refGradient     uniform 0;
        valueFraction   nonuniform List<scalar> 10(0.50000003 0.50000003 0.50000003 0.50000003 0.50000003 0.50000003 0.50000003 0.50000003 0.50000003 0.50000003);
        value           nonuniform List<scalar> 10(744.04649 737.53922 724.29801 703.39309 672.86744 672.90642 703.48549 724.47374 737.7805 744.2914);
        Tnbr            T;
        thicknessLayers List<scalar> 0();
        kappaLayers     List<scalar> 0();
        kappaMethod     solidThermo;
        kappa           none;
        alphaAni        none;
        alpha           none;
        field           T;
    }
}


// ************************************************************************* //
