/*--------------------------------*- C++ -*----------------------------------*\
| =========                 |                                                 |
| \\      /  F ield         | OpenFOAM: The Open Source CFD Toolbox           |
|  \\    /   O peration     | Version:  v2012                                 |
|   \\  /    A nd           | Website:  www.openfoam.com                      |
|    \\/     M anipulation  |                                                 |
\*---------------------------------------------------------------------------*/
FoamFile
{
    version     2.0;
    format      ascii;
    class       volScalarField;
    location    "50";
    object      p;
}
// * * * * * * * * * * * * * * * * * * * * * * * * * * * * * * * * * * * * * //

dimensions      [0 2 -2 0 0 0 0];


internalField   nonuniform List<scalar> 
64000
(
-1.01112e-21
-4.27844e-21
-3.48602e-21
-5.58607e-21
-9.60344e-21
-3.43727e-21
-5.55062e-21
-5.33518e-21
-6.18043e-21
-7.01645e-21
-4.8925e-21
-7.97655e-21
-6.05061e-21
-8.36161e-21
-5.72022e-21
-5.74222e-21
-2.35056e-21
-2.33073e-21
-2.91358e-21
-3.0432e-21
-2.88355e-21
-3.9498e-21
-4.69009e-21
-5.13233e-21
-3.58781e-21
-2.40499e-21
3.72728e-22
-6.02709e-21
-2.96171e-21
-1.99214e-21
-1.56542e-21
-1.85166e-21
-2.76109e-21
-2.87914e-21
-2.14924e-21
-4.58201e-21
-9.84726e-22
-4.34835e-22
-7.88806e-22
-9.19414e-22
-7.38146e-21
-1.07829e-20
-1.13605e-20
-1.05242e-20
-1.19704e-20
-1.10744e-20
-9.27969e-21
-7.76024e-21
-5.77441e-21
-1.40818e-20
-1.28532e-20
-1.20539e-20
-7.70171e-21
-8.01348e-21
-8.83356e-21
-7.09668e-21
-6.253e-21
-1.28922e-21
-4.27705e-21
-3.8782e-21
-1.3232e-21
-5.2522e-21
-9.42307e-21
-1.23074e-20
-6.98132e-21
-4.65278e-21
-4.3245e-21
-6.79882e-21
-4.26306e-21
-2.31827e-21
-3.04978e-22
-2.99077e-21
-7.30315e-21
-6.44547e-21
-1.01011e-21
8.63238e-22
-3.58255e-22
-2.61538e-22
-2.03204e-21
-2.35918e-21
-6.2139e-21
-8.84304e-21
-1.40413e-20
-1.21767e-20
-9.9767e-21
-1.28811e-20
-1.28695e-20
-9.14408e-21
-9.43904e-21
-1.26699e-20
-1.17413e-20
-1.22181e-20
-9.68032e-21
-7.62004e-21
-6.45483e-21
-3.54702e-21
-1.14532e-20
-6.5022e-21
-3.55565e-21
-1.40159e-21
-4.41461e-21
-1.14205e-20
-1.1404e-20
-8.99015e-21
-5.8376e-21
-6.08701e-21
-5.0653e-21
-6.54397e-21
-3.53804e-21
-2.93946e-21
-1.08752e-21
-2.05689e-21
-5.1153e-21
-3.86686e-21
-2.04453e-21
-1.11683e-21
-8.5635e-22
7.49635e-22
-3.91668e-22
-3.3197e-23
-1.01403e-20
-1.0545e-20
-1.21234e-20
-1.56459e-20
-1.35189e-20
-1.71182e-20
-1.58182e-20
-6.61853e-21
-1.00801e-20
-1.31254e-20
-1.11952e-20
-1.24867e-20
-1.13005e-20
-9.10777e-21
-8.02301e-21
-7.55822e-21
-7.23243e-21
-9.29196e-21
-3.05897e-21
-1.41903e-21
-6.43438e-21
-9.57579e-21
-1.37922e-20
-1.04576e-20
-1.02547e-20
-2.29286e-21
-5.09507e-21
-4.93671e-21
-5.43118e-21
-5.17283e-21
-1.41004e-21
-2.64383e-21
-3.77602e-21
-2.99842e-21
-2.55873e-21
-1.94686e-21
-2.41399e-21
4.07607e-22
-1.58842e-21
-1.14074e-22
-1.77573e-20
-1.24288e-20
-1.15106e-20
-1.46154e-20
-1.41914e-20
-1.72866e-20
-1.45126e-20
-9.92075e-21
-8.70899e-21
-1.52316e-20
-1.52341e-20
-7.9263e-21
-9.91415e-21
-8.57356e-21
-1.20153e-20
-1.35263e-20
-7.88467e-21
-6.90945e-21
-5.53732e-21
-2.48051e-21
-6.04213e-21
-9.83417e-21
-1.19836e-20
-1.16959e-20
-6.69089e-21
-3.65107e-21
-4.87861e-21
-7.3703e-21
-7.50272e-21
-4.14536e-21
-2.03098e-21
-5.01322e-22
-1.82069e-21
-1.86063e-21
-4.72215e-21
-4.56779e-21
-1.45766e-21
-1.44932e-21
5.47358e-22
-5.24276e-22
-1.45355e-20
-1.29208e-20
-1.14896e-20
-1.49493e-20
-1.49585e-20
-1.47376e-20
-1.188e-20
-1.45953e-20
-1.36103e-20
-1.39021e-20
-1.30145e-20
-9.40566e-21
-1.19759e-20
-8.63747e-21
-9.9868e-21
-1.25104e-20
-6.87296e-21
-6.02133e-21
-4.69867e-21
-5.47169e-21
-5.41703e-21
-1.18002e-20
-1.15171e-20
-1.02243e-20
-8.02493e-21
-2.83212e-21
-4.8357e-21
-4.40435e-21
-7.345e-21
-5.28885e-21
-5.04686e-21
-3.77308e-21
-2.22707e-21
-1.3579e-21
-4.45361e-21
-1.28753e-21
-2.02906e-21
-1.44824e-21
-4.56356e-22
7.87906e-22
-1.5891e-20
-1.69822e-20
-1.1075e-20
-1.32705e-20
-1.46206e-20
-1.50874e-20
-1.1752e-20
-1.34451e-20
-1.49823e-20
-1.27273e-20
-1.31881e-20
-1.25458e-20
-1.25858e-20
-1.03657e-20
-8.27319e-21
-1.0855e-20
-7.76206e-21
-3.48315e-21
-4.67099e-21
-6.10604e-21
-7.51256e-21
-1.26176e-20
-1.23025e-20
-1.10127e-20
-4.40464e-21
-5.81708e-21
-6.06069e-21
-2.84793e-21
-5.29313e-21
-4.30091e-21
-6.90703e-21
-6.56895e-21
1.60678e-21
-1.95008e-21
-3.97978e-21
-2.59411e-21
-1.62814e-21
-1.95356e-21
-2.18303e-21
-1.0901e-21
-1.56047e-20
-1.57835e-20
-1.34235e-20
-1.18841e-20
-1.52658e-20
-1.31593e-20
-1.25775e-20
-1.91047e-20
-1.67001e-20
-1.34948e-20
-1.12364e-20
-1.10555e-20
-1.16913e-20
-1.16662e-20
-8.28722e-21
-1.07415e-20
-7.33849e-21
-4.43533e-21
-6.85602e-21
-4.03006e-21
-5.73537e-21
-1.19027e-20
-1.05174e-20
-7.93647e-21
-5.67231e-21
-7.54749e-21
-5.18706e-21
-5.82794e-21
-4.31938e-21
-5.24294e-21
-5.39761e-21
-5.03639e-21
-8.64373e-22
-3.51297e-21
-5.34835e-21
-2.48078e-21
-1.60784e-21
-4.07468e-21
-1.31485e-21
-1.76739e-21
-2.05592e-20
-1.72858e-20
-1.29273e-20
-1.44689e-20
-1.55111e-20
-1.65809e-20
-1.4453e-20
-1.391e-20
-1.46769e-20
-1.74628e-20
-8.71738e-21
-9.87564e-21
-1.507e-20
-1.04429e-20
-9.96646e-21
-1.06614e-20
-6.37966e-21
-1.86396e-21
-7.47473e-21
-9.53134e-21
-4.61898e-21
-9.22027e-21
-1.31566e-20
-8.13882e-21
-3.29742e-21
-5.98787e-21
-8.15589e-21
-7.1214e-21
-4.57312e-21
-7.17442e-21
-5.61178e-21
-3.33056e-21
-3.95627e-22
-3.39289e-21
-5.68682e-21
-2.58832e-21
-2.17678e-21
-2.57159e-21
-1.26506e-21
-1.26286e-21
-1.32977e-20
-1.39592e-20
-1.39553e-20
-1.33059e-20
-1.77825e-20
-1.79833e-20
-1.31492e-20
-1.38609e-20
-1.33222e-20
-1.64401e-20
-1.28586e-20
-9.31009e-21
-1.25829e-20
-9.84785e-21
-1.19578e-20
-1.00376e-20
-7.3884e-21
-5.5906e-21
-4.12748e-21
-6.42577e-21
-8.8222e-21
-1.19387e-20
-1.19656e-20
-1.02625e-20
-7.93158e-21
-6.00959e-21
-5.72555e-21
-5.64745e-21
-6.97241e-21
-6.70009e-21
-3.11873e-21
-3.35871e-21
-3.03839e-21
-3.33696e-21
-7.01989e-21
-5.09539e-21
-2.90882e-21
-1.05746e-22
-6.08884e-22
-1.95007e-22
-1.13042e-20
-1.48573e-20
-1.5969e-20
-1.79186e-20
-1.54778e-20
-1.66011e-20
-1.80675e-20
-1.21288e-20
-1.38371e-20
-1.51566e-20
-1.19037e-20
-9.37695e-21
-1.21991e-20
-1.07444e-20
-1.22935e-20
-1.27992e-20
-5.55916e-21
-3.80144e-21
-1.48778e-21
-8.24463e-21
-1.21779e-20
-1.57795e-20
-1.18392e-20
-9.9548e-21
-9.61357e-21
-7.16995e-21
-2.71579e-21
-4.33135e-21
-6.23819e-21
-9.70775e-21
-4.20416e-21
-4.52951e-21
-2.89809e-21
-2.74816e-21
-2.94157e-21
-5.9202e-21
-2.84054e-21
-8.86815e-22
-1.07614e-21
-1.03977e-21
-1.16957e-20
-1.58194e-20
-1.58785e-20
-1.57812e-20
-1.65319e-20
-1.89714e-20
-1.36508e-20
-1.63499e-20
-1.12421e-20
-1.46657e-20
-1.71161e-20
-9.46156e-21
-8.72186e-21
-1.22104e-20
-9.64789e-21
-1.19783e-20
-8.50859e-21
-4.32083e-21
-4.77631e-21
-4.15357e-21
-1.05069e-20
-1.58805e-20
-1.24062e-20
-1.16596e-20
-1.26903e-20
-5.50299e-21
-5.12431e-21
-5.3046e-21
-6.49752e-21
-5.132e-21
-3.18643e-21
-5.14653e-21
-3.44647e-21
-3.76266e-21
-3.56975e-21
-3.5925e-21
-1.05521e-21
-1.00422e-21
-2.50627e-21
-3.54245e-21
-1.6454e-20
-1.523e-20
-1.57447e-20
-1.61637e-20
-1.79772e-20
-1.82731e-20
-1.8351e-20
-1.85603e-20
-1.1863e-20
-1.34215e-20
-1.52418e-20
-1.16145e-20
-1.10988e-20
-1.32466e-20
-9.90446e-21
-1.27991e-20
-8.09093e-21
-3.35102e-21
-3.41036e-21
-7.56182e-21
-9.02712e-21
-1.57809e-20
-1.34325e-20
-1.31285e-20
-7.92945e-21
-5.66084e-21
-5.66859e-21
-5.64382e-21
-6.92684e-21
-4.69644e-21
-6.57515e-21
-4.57219e-21
-5.39074e-22
-6.33643e-21
-7.24407e-21
-2.91368e-21
-1.66352e-21
-2.72563e-21
-2.29102e-21
-2.26466e-21
-1.913e-20
-1.94853e-20
-1.60174e-20
-1.86071e-20
-1.56736e-20
-1.60635e-20
-1.75044e-20
-1.66434e-20
-1.44872e-20
-1.76463e-20
-1.39897e-20
-1.18884e-20
-1.46616e-20
-1.29563e-20
-1.10753e-20
-1.22713e-20
-8.24863e-21
-1.52747e-21
-1.56033e-21
-9.83191e-21
-1.05983e-20
-1.35416e-20
-1.36368e-20
-1.35104e-20
-8.64333e-21
-4.50139e-21
-1.18958e-21
-5.75873e-21
-7.05375e-21
-5.23125e-21
-4.77058e-21
-6.68255e-21
-2.84043e-21
-4.03554e-21
-7.07121e-21
-4.82058e-21
-1.41863e-21
-1.00466e-21
-1.095e-22
-2.12458e-21
-1.30991e-20
-2.04971e-20
-1.97186e-20
-1.71888e-20
-1.54403e-20
-1.72216e-20
-1.92463e-20
-2.0303e-20
-1.60545e-20
-1.42669e-20
-1.15676e-20
-1.60484e-20
-1.50957e-20
-1.11524e-20
-9.83897e-21
-1.31504e-20
-8.45933e-21
-5.65844e-21
-5.3419e-21
-6.68455e-21
-1.13982e-20
-1.06745e-20
-1.17409e-20
-1.36353e-20
-7.31742e-21
-4.19325e-21
-5.97335e-21
-8.227e-21
-5.41898e-21
-3.9907e-21
-2.30248e-21
-4.76285e-21
-3.13312e-21
-3.34524e-21
-6.68426e-21
-2.44021e-21
-4.78838e-22
-3.4516e-21
-2.87033e-21
-7.59049e-22
-1.43606e-20
-1.70274e-20
-1.82975e-20
-1.63041e-20
-1.74435e-20
-1.79387e-20
-1.72807e-20
-1.78727e-20
-1.59362e-20
-1.3326e-20
-1.5755e-20
-1.54843e-20
-1.51088e-20
-1.16051e-20
-1.22624e-20
-1.3401e-20
-1.00291e-20
-5.51544e-21
-2.21212e-21
-6.76195e-21
-1.14415e-20
-1.37096e-20
-1.29043e-20
-8.39156e-21
-5.42009e-21
-6.95071e-21
-8.01374e-21
-5.43966e-21
-4.51084e-21
-3.60063e-21
-2.60211e-21
-3.51992e-21
-4.37038e-21
-3.85438e-21
-7.93064e-21
-4.87984e-21
1.30206e-21
6.08656e-23
-2.51195e-21
-7.07407e-22
-1.4958e-20
-1.4494e-20
-1.73522e-20
-1.38784e-20
-1.52246e-20
-1.84491e-20
-1.99412e-20
-2.00756e-20
-1.67511e-20
-1.49066e-20
-1.20182e-20
-1.66769e-20
-9.35398e-21
-1.15939e-20
-1.3969e-20
-1.42611e-20
-1.16138e-20
-7.21526e-21
-6.8798e-21
-5.4649e-21
-1.21876e-20
-1.1222e-20
-1.24007e-20
-7.34544e-21
-7.38444e-21
-2.04804e-21
-7.04989e-21
-1.01461e-20
-1.86559e-21
-4.40666e-21
-3.90461e-21
-4.87352e-21
-5.17585e-21
-2.74078e-21
-3.03905e-21
-3.24993e-21
-1.74295e-21
-5.8633e-22
-1.76845e-21
-1.6086e-21
-1.0969e-20
-1.53033e-20
-1.93921e-20
-1.40248e-20
-1.37583e-20
-2.07781e-20
-1.75884e-20
-1.69057e-20
-1.6911e-20
-1.64854e-20
-1.45668e-20
-1.37445e-20
-1.13535e-20
-1.11722e-20
-1.74069e-20
-1.43669e-20
-1.07248e-20
-4.01169e-21
-6.07327e-21
-1.00242e-20
-1.57609e-20
-9.95069e-21
-6.93393e-21
-8.05326e-21
-7.14345e-21
-6.23373e-21
-7.90304e-21
-6.74144e-21
-4.95506e-21
-5.3513e-21
-5.35439e-21
-7.7764e-22
-2.41692e-21
-3.22441e-21
-8.15468e-22
-3.85752e-21
-1.79546e-21
-2.15371e-21
-4.57918e-22
-7.40667e-22
-9.33984e-21
-1.28284e-20
-1.62363e-20
-1.56467e-20
-1.77243e-20
-1.85868e-20
-1.6659e-20
-1.43821e-20
-1.62163e-20
-1.66819e-20
-1.41817e-20
-1.45794e-20
-1.23009e-20
-9.57301e-21
-1.58045e-20
-1.6312e-20
-1.10295e-20
-9.28972e-21
-1.17197e-20
-1.10675e-20
-1.23906e-20
-4.14065e-21
-7.02659e-21
-7.88464e-21
-5.38597e-21
-6.33647e-21
-9.19075e-21
-5.79944e-21
-4.53024e-21
-5.40006e-21
-7.29668e-21
-1.84395e-21
-1.31701e-21
-2.91703e-21
-1.58295e-21
-3.32641e-21
-6.72228e-22
-2.06757e-21
-3.27698e-21
-2.73267e-21
-6.3278e-21
-1.36559e-20
-1.76631e-20
-1.34634e-20
-1.77384e-20
-1.55146e-20
-1.30234e-20
-1.62738e-20
-2.05236e-20
-1.59245e-20
-1.41849e-20
-1.33773e-20
-1.30687e-20
-1.31694e-20
-1.50298e-20
-1.36363e-20
-9.63999e-21
-1.00303e-20
-1.40651e-20
-1.04357e-20
-1.07769e-20
-8.70105e-21
-7.29109e-21
-8.37792e-21
-3.76213e-21
-2.95436e-21
-1.23753e-20
-9.51825e-21
-9.19262e-21
-1.96406e-21
-2.61295e-21
-1.23364e-21
-3.15754e-21
-2.80093e-21
-2.14894e-21
-3.47374e-21
-3.67659e-21
-1.82635e-21
-3.38697e-21
-2.70829e-21
-9.9481e-21
-1.19881e-20
-1.57098e-20
-1.27691e-20
-1.56027e-20
-1.44078e-20
-1.55063e-20
-1.57947e-20
-1.77513e-20
-1.70504e-20
-1.77708e-20
-1.56228e-20
-1.15531e-20
-1.62554e-20
-1.61947e-20
-9.6694e-21
-9.04937e-21
-7.21401e-21
-1.19698e-20
-1.10406e-20
-1.00375e-20
-5.93543e-21
-7.4291e-21
-1.03669e-20
-8.53061e-21
-4.30086e-21
-8.97783e-21
-7.40782e-21
-6.67802e-21
-3.77658e-21
-5.02698e-21
-2.14089e-21
-3.69818e-21
-2.01938e-21
-2.8215e-21
-4.77694e-21
-9.86734e-22
-2.24042e-21
-2.2564e-21
-2.89125e-21
-1.48019e-20
-1.47327e-20
-1.41338e-20
-1.23069e-20
-1.79261e-20
-1.32839e-20
-1.48741e-20
-1.57896e-20
-1.55497e-20
-1.69513e-20
-1.73652e-20
-1.72121e-20
-1.73094e-20
-1.80392e-20
-1.22973e-20
-8.46465e-21
-7.08781e-21
-9.27085e-21
-1.46096e-20
-1.04463e-20
-9.00099e-21
-2.41345e-21
-8.14933e-21
-1.04715e-20
-8.51967e-21
-6.35828e-21
-7.61686e-21
-9.90177e-21
-5.77658e-21
-2.51248e-21
-4.46097e-21
-3.3547e-21
-1.7714e-21
-3.00677e-21
-5.25044e-21
-6.56627e-21
-1.7684e-21
-2.08813e-21
-1.02261e-22
3.50425e-22
-1.71715e-20
-1.91238e-20
-1.47699e-20
-1.4811e-20
-1.60449e-20
-1.74919e-20
-1.45096e-20
-1.27088e-20
-1.73048e-20
-1.4463e-20
-1.84536e-20
-1.73074e-20
-1.46509e-20
-1.30601e-20
-1.10921e-20
-8.81362e-21
-6.79311e-21
-5.70786e-21
-9.41218e-21
-1.22235e-20
-1.25615e-20
-6.84592e-21
-9.23049e-21
-1.03591e-20
-9.41719e-21
-1.02419e-20
-7.46686e-21
-7.06322e-21
-4.19446e-21
-2.8802e-21
-4.50203e-21
-5.54748e-21
-1.12044e-21
-7.12698e-22
-9.4124e-21
-5.61481e-21
-1.46341e-21
-8.78547e-23
-1.46548e-21
-1.04685e-21
-1.29114e-20
-1.53159e-20
-1.82934e-20
-1.4474e-20
-1.52871e-20
-1.64219e-20
-1.5269e-20
-1.76241e-20
-1.34964e-20
-1.56032e-20
-1.77898e-20
-1.7387e-20
-9.76257e-21
-1.50631e-20
-1.63438e-20
-9.43228e-21
-5.25935e-21
-5.31477e-21
-9.60581e-21
-1.00786e-20
-1.02251e-20
-1.07461e-20
-1.02681e-20
-9.19072e-21
-1.16127e-20
-5.56572e-21
-7.53647e-21
-1.02044e-20
-2.15305e-21
-5.21433e-21
-7.58335e-21
-6.85555e-21
7.24208e-22
-3.92375e-21
-9.44253e-21
-5.70827e-21
-3.0053e-21
5.48349e-22
-2.20847e-21
-3.70813e-21
-1.08762e-20
-1.54471e-20
-1.78154e-20
-1.70694e-20
-1.44205e-20
-1.55584e-20
-1.54194e-20
-1.55472e-20
-1.21577e-20
-1.68813e-20
-1.93047e-20
-1.5355e-20
-1.06094e-20
-1.09458e-20
-1.26791e-20
-8.23678e-21
-8.30038e-21
-1.1037e-20
-8.50451e-21
-8.79804e-21
-9.32123e-21
-1.12072e-20
-8.35053e-21
-8.65092e-21
-1.12655e-20
-7.73704e-21
-5.55438e-21
-6.33238e-21
-5.68795e-21
-5.61216e-21
-8.12939e-21
-6.15927e-21
7.28995e-22
-3.92821e-21
-9.66094e-21
-6.52076e-21
-2.62575e-21
-1.50475e-21
-1.214e-21
-2.05978e-21
-1.35136e-20
-1.67992e-20
-1.95836e-20
-1.48784e-20
-1.39454e-20
-1.47341e-20
-1.5554e-20
-1.82039e-20
-1.15411e-20
-1.44439e-20
-1.9517e-20
-1.70472e-20
-1.34377e-20
-1.27351e-20
-8.58648e-21
-9.78694e-21
-9.41748e-21
-7.09894e-21
-5.39467e-21
-9.24031e-21
-9.8431e-21
-1.39091e-20
-1.04031e-20
-1.13772e-20
-9.25957e-21
-8.17522e-21
-6.24616e-21
-9.11405e-21
-5.86032e-21
-3.36997e-21
-4.57545e-21
-5.25024e-21
-1.16259e-21
-2.66763e-21
-6.6307e-21
-9.93517e-21
-4.06572e-21
-3.41265e-21
-9.00849e-22
5.92047e-22
-1.25147e-20
-1.48175e-20
-1.69911e-20
-2.0084e-20
-1.65071e-20
-1.65759e-20
-1.42806e-20
-1.14739e-20
-1.27296e-20
-1.24363e-20
-1.78203e-20
-1.65168e-20
-1.19953e-20
-1.32856e-20
-1.153e-20
-1.25887e-20
-8.80174e-21
-7.33791e-21
-3.28493e-21
-5.53188e-21
-1.03231e-20
-1.33324e-20
-1.01022e-20
-9.20203e-21
-1.06246e-20
-8.98044e-21
-5.34938e-21
-3.69219e-21
-8.20454e-21
-4.31902e-21
-2.27352e-21
-8.12159e-21
-5.52096e-21
-3.60475e-21
-6.03197e-21
-4.55533e-21
-4.75537e-21
-3.3348e-21
-1.38486e-21
-2.25569e-21
-1.04664e-20
-1.46584e-20
-1.69276e-20
-1.74514e-20
-1.46504e-20
-1.53474e-20
-1.4327e-20
-1.27585e-20
-1.28299e-20
-1.41337e-20
-1.85514e-20
-1.08915e-20
-1.20288e-20
-1.25421e-20
-1.10103e-20
-8.11142e-21
-1.0045e-20
-7.72334e-21
-7.26371e-21
-7.86215e-21
-9.88441e-21
-7.82772e-21
-9.84065e-21
-1.06215e-20
-7.59475e-21
-7.17791e-21
-7.86973e-21
-5.20764e-21
-6.0599e-21
-3.43781e-21
-4.71128e-21
-5.86424e-21
-7.30251e-21
-8.16379e-21
-6.16875e-21
-4.21288e-21
-4.46437e-21
-4.76325e-21
-1.61922e-21
-2.36928e-21
-1.32117e-20
-1.90136e-20
-1.57481e-20
-1.20371e-20
-1.93268e-20
-1.74403e-20
-1.44227e-20
-1.17769e-20
-1.20647e-20
-1.39021e-20
-1.52747e-20
-1.17634e-20
-1.34554e-20
-1.0543e-20
-1.47291e-20
-6.6057e-21
-8.0492e-21
-4.76839e-21
-7.18737e-21
-6.55672e-21
-1.05846e-20
-9.31641e-21
-7.76587e-21
-8.66422e-21
-9.87099e-21
-5.06691e-21
-7.49969e-21
-7.17284e-21
-3.62663e-21
-5.77831e-21
-4.91048e-21
-5.74985e-21
-8.05818e-21
-5.42898e-21
-7.20028e-21
-3.85678e-21
-4.8792e-21
-6.27099e-21
-2.0284e-21
-1.98402e-22
-1.17224e-20
-1.60214e-20
-1.78687e-20
-1.41575e-20
-1.51645e-20
-1.9165e-20
-1.61364e-20
-1.22688e-20
-1.10249e-20
-1.43535e-20
-1.33389e-20
-1.34047e-20
-1.41659e-20
-1.13092e-20
-1.26359e-20
-8.87675e-21
-5.28571e-21
-9.48268e-21
-6.10142e-21
-5.78224e-21
-1.04206e-20
-1.01265e-20
-9.58157e-21
-9.64675e-21
-1.05336e-20
-7.9156e-21
-6.79793e-21
-1.58475e-21
-3.99633e-21
-5.08795e-21
-5.29788e-21
-7.2449e-21
-4.08323e-21
-5.97421e-21
-6.68083e-21
-5.46206e-21
-4.81592e-21
-3.02723e-21
-1.92578e-21
-8.66615e-22
-1.33324e-20
-1.38054e-20
-1.53566e-20
-1.57528e-20
-1.63212e-20
-1.52796e-20
-1.57702e-20
-1.36119e-20
-1.21755e-20
-1.31895e-20
-1.30057e-20
-1.20329e-20
-1.35874e-20
-1.41489e-20
-1.29049e-20
-9.74099e-21
-5.90444e-21
-6.73184e-21
-5.6666e-21
-8.05893e-21
-9.97173e-21
-9.82002e-21
-1.1063e-20
-1.1879e-20
-9.78897e-21
-7.21374e-21
-4.74408e-21
-5.33158e-21
-6.09974e-21
-3.88086e-21
-4.74198e-21
-5.19548e-21
-3.86267e-21
-4.05836e-21
-5.85163e-21
-6.93309e-21
-1.91185e-21
-2.7642e-21
-3.18033e-21
-1.40329e-21
-1.68291e-20
-1.45918e-20
-1.29235e-20
-1.53248e-20
-1.81888e-20
-1.78732e-20
-1.45848e-20
-1.32705e-20
-1.4713e-20
-1.31151e-20
-1.00532e-20
-1.296e-20
-1.54843e-20
-1.2542e-20
-1.07428e-20
-1.09007e-20
-6.29036e-21
-5.4791e-21
-4.47432e-21
-8.20291e-21
-9.17007e-21
-1.15655e-20
-1.47158e-20
-1.09508e-20
-9.72349e-21
-9.37959e-21
-5.32089e-21
-3.10383e-21
-2.95282e-21
-6.33276e-21
-5.42175e-21
-6.21127e-21
-2.74597e-21
-3.06983e-21
-7.57266e-21
-3.77904e-21
-2.73842e-21
-2.28645e-21
-3.15697e-21
-2.9838e-21
-1.08139e-20
-1.07095e-20
-1.26629e-20
-1.23845e-20
-1.90118e-20
-1.59388e-20
-1.37e-20
-1.37359e-20
-1.36026e-20
-1.39029e-20
-1.31666e-20
-1.14889e-20
-1.34666e-20
-1.14189e-20
-8.80924e-21
-1.16881e-20
-7.64744e-21
-5.95147e-21
-5.72049e-21
-3.45796e-21
-8.59171e-21
-1.30636e-20
-1.31435e-20
-1.16857e-20
-1.22033e-20
-1.04797e-20
-2.30276e-21
-2.31718e-21
-5.61659e-21
-4.87044e-21
-5.29054e-21
-8.44096e-21
-2.78147e-21
3.09127e-22
-4.39471e-21
-2.99272e-21
-3.26428e-21
-5.79511e-21
-2.66984e-21
-1.2928e-21
-1.22542e-20
-1.21718e-20
-1.33001e-20
-1.59243e-20
-1.52219e-20
-1.14989e-20
-1.32242e-20
-1.17673e-20
-1.45291e-20
-1.14561e-20
-1.29257e-20
-1.49303e-20
-1.14429e-20
-8.38765e-21
-9.11047e-21
-1.31028e-20
-1.10078e-20
-5.17862e-21
-6.29305e-21
-6.71698e-21
-6.971e-21
-8.76245e-21
-1.28145e-20
-1.23742e-20
-9.40821e-21
-8.90803e-21
-5.61422e-21
-4.12062e-21
-3.031e-21
-4.84483e-21
-5.61269e-21
-4.68637e-21
-2.16444e-21
-9.78794e-22
-1.29157e-21
-3.4574e-21
-1.73078e-21
5.31228e-22
-6.50254e-21
-4.46908e-21
-1.42346e-20
-1.10689e-20
-1.11916e-20
-1.15561e-20
-1.50129e-20
-1.73795e-20
-1.37046e-20
-1.33393e-20
-1.40148e-20
-1.15317e-20
-6.85369e-21
-1.23838e-20
-6.96453e-21
-7.17307e-21
-1.01395e-20
-1.2254e-20
-1.26271e-20
-6.29733e-21
-8.41999e-21
-1.00266e-20
-5.81751e-21
-8.95557e-21
-1.08146e-20
-9.89514e-21
-1.09581e-20
-7.92018e-21
-6.48517e-21
-9.47091e-21
-3.08083e-21
-4.15118e-21
-5.52729e-21
-4.5987e-21
-3.37788e-21
-2.41647e-21
-5.53644e-22
-1.41597e-21
-2.21383e-21
-1.05519e-21
2.21278e-23
-1.36142e-21
-8.41205e-21
-1.09075e-20
-1.32561e-20
-1.0922e-20
-1.21436e-20
-1.44398e-20
-1.14778e-20
-1.24348e-20
-1.29664e-20
-1.27631e-20
-1.03497e-20
-7.26487e-21
-9.53462e-21
-9.12507e-21
-9.79556e-21
-9.55525e-21
-8.7227e-21
-6.43499e-21
-7.52458e-21
-9.68011e-21
-7.15283e-21
-9.29729e-21
-1.11656e-20
-1.21845e-20
-9.76993e-21
-7.49808e-21
-4.23522e-21
-5.23321e-21
-5.23882e-21
-2.55018e-21
-5.23e-21
-4.44953e-21
-2.95196e-21
-3.78128e-21
-3.40904e-21
-7.70394e-22
7.95079e-22
1.68156e-22
6.66962e-22
-2.0295e-21
-6.98981e-21
-9.33284e-21
-1.18402e-20
-1.32685e-20
-9.74221e-21
-1.18683e-20
-1.25828e-20
-1.08737e-20
-9.05326e-21
-1.17602e-20
-1.07842e-20
-8.4306e-21
-1.06579e-20
-8.10928e-21
-9.23923e-21
-9.44897e-21
-7.40688e-21
-1.96495e-21
-3.9938e-21
-1.11822e-20
-6.01732e-21
-1.22715e-20
-1.27301e-20
-1.08094e-20
-8.31489e-21
-8.53868e-21
-7.05204e-21
-4.59612e-21
-4.02438e-21
-1.03845e-21
-5.23613e-21
-4.01261e-21
-5.25368e-21
-2.54922e-21
-1.67345e-21
-1.64763e-22
1.70088e-21
-1.53642e-21
-1.26701e-21
-1.78566e-21
-4.96861e-21
-9.65413e-21
-1.16767e-20
-8.15498e-21
-8.21954e-21
-1.18729e-20
-1.05076e-20
-1.08933e-20
-9.73302e-21
-1.07052e-20
-7.79878e-21
-1.04321e-20
-9.40538e-21
-9.61509e-21
-7.97369e-21
-4.65878e-21
-4.51987e-21
-5.22041e-21
-4.28894e-21
-1.07395e-20
-7.93854e-21
-1.04252e-20
-1.30724e-20
-1.33058e-20
-4.4758e-21
-5.31099e-21
-7.22647e-21
-7.14546e-21
-3.70306e-21
-3.06823e-21
-4.22034e-21
-4.17279e-21
-5.99394e-21
-2.28523e-21
-1.66583e-21
-1.6505e-21
2.08966e-21
2.57069e-21
-4.56742e-22
-2.25442e-21
-6.2789e-21
-7.83352e-21
-1.00135e-20
-7.92492e-21
-6.04888e-21
-1.40483e-20
-1.0604e-20
-8.9394e-21
-9.81947e-21
-8.80554e-21
-7.44122e-21
-1.03821e-20
-8.07765e-21
-8.16398e-21
-8.6736e-21
-8.99536e-21
-1.25279e-21
-1.86463e-21
-5.8076e-21
-6.47017e-21
-4.13063e-21
-9.78118e-21
-1.25841e-20
-1.0796e-20
-6.20897e-21
-5.35525e-21
-6.20955e-21
-5.12233e-21
-3.46137e-21
-5.62673e-21
-3.33903e-21
-3.97929e-21
-3.35133e-21
-1.1937e-21
-1.15249e-21
-1.8588e-21
-5.29044e-22
-3.18121e-22
-6.12998e-23
2.87275e-22
-6.37325e-21
-4.86837e-21
-6.41646e-21
-3.2932e-21
-4.74617e-21
-3.29708e-21
-9.1972e-21
-5.41508e-21
-6.78253e-21
-6.31394e-21
-3.07141e-21
-3.57269e-21
-6.50028e-21
-5.83732e-21
-2.81107e-21
-5.43455e-21
-1.37368e-21
9.23542e-22
-5.98654e-21
-1.72464e-21
-4.45653e-21
-1.07817e-20
-7.81929e-21
-4.9063e-21
-2.37503e-21
-3.74352e-21
-4.19965e-21
-3.81747e-21
-3.08165e-21
-1.54671e-21
-2.75655e-21
-1.83236e-21
-2.92473e-21
-1.73519e-21
8.48798e-22
-2.16714e-21
-8.37593e-22
-6.56486e-22
-1.95817e-21
9.2926e-24
-5.18728e-21
-1.00535e-20
-1.51113e-20
-1.11813e-20
-9.26159e-21
-1.14785e-20
-9.05786e-21
-5.69836e-21
-1.28278e-20
-1.14979e-20
-7.676e-21
-1.19477e-20
-1.20008e-20
-7.1677e-21
-8.2298e-21
-1.01524e-20
-6.96673e-21
-1.6263e-21
-3.5316e-21
-7.32707e-21
-5.69871e-21
-6.94914e-21
-7.84336e-21
-7.10442e-21
-3.71397e-21
-3.41979e-21
-2.56787e-21
-4.65842e-21
-5.06799e-21
-3.46587e-21
-2.65361e-21
-1.84598e-21
-4.43524e-21
-6.1268e-21
-5.99325e-21
-2.68035e-21
-1.22505e-21
-2.48067e-21
-6.89234e-22
-4.87474e-22
-1.12611e-20
-1.46463e-20
-1.93863e-20
-1.56102e-20
-1.39034e-20
-1.69111e-20
-1.54288e-20
-1.11423e-20
-1.10662e-20
-1.83028e-20
-1.67389e-20
-1.46581e-20
-1.47479e-20
-1.08368e-20
-1.14753e-20
-1.02301e-20
-8.2338e-21
-7.26226e-21
-9.42218e-21
-8.95854e-21
-7.96468e-21
-9.55117e-21
-1.14117e-20
-1.27426e-20
-6.02914e-21
-6.23827e-21
-8.11546e-21
-7.21051e-21
-7.64749e-21
-4.46889e-21
-3.60365e-21
-2.51973e-21
-5.70493e-21
-8.8523e-21
-5.35474e-21
-1.11935e-21
2.19588e-22
1.54253e-21
7.25172e-22
7.32538e-22
-1.32746e-20
-1.55965e-20
-1.51824e-20
-1.72816e-20
-1.73632e-20
-2.0267e-20
-1.66976e-20
-1.49467e-20
-1.53861e-20
-1.63707e-20
-1.52902e-20
-1.38056e-20
-1.33004e-20
-1.21926e-20
-1.18226e-20
-9.05855e-21
-1.05309e-20
-8.65083e-21
-9.12556e-21
-8.11783e-21
-9.15069e-21
-8.42423e-21
-9.42683e-21
-1.06894e-20
-9.91068e-21
-6.76985e-21
-8.28788e-21
-1.12306e-20
-4.26827e-21
-5.85637e-21
-8.08444e-21
-3.13789e-21
-3.32559e-21
-6.44501e-21
-3.31403e-21
-1.94275e-21
-2.34835e-22
-5.83349e-22
6.42318e-22
1.09471e-21
-1.87998e-20
-1.81118e-20
-1.89247e-20
-1.8479e-20
-1.82242e-20
-1.93243e-20
-1.89134e-20
-1.26407e-20
-1.59812e-20
-1.67559e-20
-1.65659e-20
-1.71748e-20
-1.20385e-20
-1.31487e-20
-1.40072e-20
-1.203e-20
-1.06867e-20
-1.10483e-20
-1.20822e-20
-6.3944e-21
-9.84628e-21
-1.296e-20
-1.19277e-20
-1.09912e-20
-8.28183e-21
-7.31877e-21
-7.42761e-21
-6.89581e-21
-6.13196e-21
-9.42764e-21
-5.56037e-21
-1.5538e-21
-5.9588e-21
-4.73625e-21
-3.61361e-21
-2.15312e-21
-1.74135e-22
-1.03023e-21
-5.82535e-22
-1.54991e-22
-1.93888e-20
-1.90548e-20
-1.68951e-20
-2.01386e-20
-2.17053e-20
-2.07074e-20
-1.88162e-20
-1.46943e-20
-1.56699e-20
-1.79226e-20
-1.71503e-20
-1.22507e-20
-1.28468e-20
-1.53368e-20
-1.82589e-20
-1.41262e-20
-1.15019e-20
-1.26711e-20
-1.04754e-20
-8.0192e-21
-1.16885e-20
-1.27668e-20
-1.31058e-20
-1.13102e-20
-8.03461e-21
-5.52917e-21
-7.45124e-21
-7.55783e-21
-7.3111e-21
-7.13227e-21
-5.94859e-21
-5.34342e-21
-2.22989e-21
-2.66453e-21
-4.21299e-21
-2.60808e-21
-1.73282e-22
-8.96515e-22
-1.34242e-22
-1.22222e-21
-1.80138e-20
-1.96821e-20
-1.88629e-20
-2.037e-20
-2.2309e-20
-2.40592e-20
-1.9131e-20
-1.85323e-20
-1.83242e-20
-1.71583e-20
-1.7348e-20
-1.43843e-20
-1.52229e-20
-1.28713e-20
-1.50315e-20
-1.40772e-20
-1.40893e-20
-1.11801e-20
-1.04596e-20
-8.37397e-21
-1.15682e-20
-1.43557e-20
-1.19281e-20
-1.08385e-20
-7.13416e-21
-6.2813e-21
-6.95033e-21
-7.33166e-21
-8.61821e-21
-8.3649e-21
-6.5924e-21
-3.2456e-21
-2.40275e-21
-3.13555e-21
-5.63196e-21
-2.79095e-21
-1.66563e-22
6.9537e-22
2.1293e-21
-2.00337e-21
-2.12654e-20
-2.36709e-20
-1.96484e-20
-2.11349e-20
-2.3092e-20
-2.16607e-20
-1.93108e-20
-1.85795e-20
-2.18216e-20
-2.06632e-20
-1.48651e-20
-1.45924e-20
-1.50463e-20
-1.65598e-20
-1.57625e-20
-1.49794e-20
-1.25176e-20
-1.13129e-20
-1.058e-20
-9.94162e-21
-1.15232e-20
-1.27828e-20
-1.13893e-20
-1.11257e-20
-8.27275e-21
-7.52257e-21
-7.43602e-21
-7.08252e-21
-6.51663e-21
-8.05978e-21
-7.67558e-21
-3.92252e-21
6.26146e-22
-1.9132e-21
-5.9497e-21
-4.60553e-21
-7.6595e-22
-1.47568e-21
-1.59171e-22
-2.24818e-21
-1.997e-20
-2.13997e-20
-1.96463e-20
-2.11292e-20
-2.41505e-20
-2.42746e-20
-1.79765e-20
-2.10003e-20
-2.27338e-20
-1.82329e-20
-1.7107e-20
-1.71502e-20
-1.59453e-20
-1.50373e-20
-1.57282e-20
-1.67531e-20
-1.4459e-20
-1.02271e-20
-5.92312e-21
-7.92566e-21
-1.07402e-20
-1.2906e-20
-1.19766e-20
-1.22267e-20
-1.0439e-20
-8.3057e-21
-7.15775e-21
-8.44814e-21
-5.17024e-21
-6.48608e-21
-8.16407e-21
-3.44294e-21
-3.14338e-21
-5.12691e-21
-4.28514e-21
-5.72506e-22
9.44074e-22
-4.79948e-22
-2.04909e-21
-9.02884e-22
-2.11465e-20
-2.4972e-20
-2.3027e-20
-2.3562e-20
-2.23249e-20
-2.16656e-20
-2.05998e-20
-2.11772e-20
-2.11769e-20
-2.00404e-20
-1.6476e-20
-1.94763e-20
-1.6066e-20
-1.44559e-20
-1.51627e-20
-1.47822e-20
-1.45793e-20
-9.53304e-21
-1.01032e-20
-1.11956e-20
-9.87939e-21
-1.26809e-20
-1.31891e-20
-1.29562e-20
-8.91801e-21
-9.56129e-21
-7.76345e-21
-7.15118e-21
-3.18709e-21
-9.31133e-21
-7.20114e-21
-4.46645e-21
-2.85938e-21
-3.25758e-21
-3.17669e-21
-1.0806e-21
-5.2681e-22
-1.02056e-21
-2.92866e-21
-2.11432e-21
-1.90845e-20
-2.08397e-20
-2.08601e-20
-2.47407e-20
-2.52999e-20
-2.24843e-20
-2.56573e-20
-2.16841e-20
-1.8458e-20
-1.8608e-20
-1.86737e-20
-1.657e-20
-1.69938e-20
-1.52459e-20
-1.66856e-20
-1.48067e-20
-1.25143e-20
-9.72141e-21
-9.42336e-21
-7.62883e-21
-1.19072e-20
-1.70592e-20
-1.65898e-20
-1.50815e-20
-9.84399e-21
-7.77903e-21
-4.90811e-21
-6.4038e-21
-7.02409e-21
-8.39005e-21
-3.91168e-21
-4.09484e-21
-5.60059e-21
-3.30667e-21
-2.87201e-21
-1.45709e-21
9.13111e-23
-1.46421e-23
-2.42242e-21
-1.08206e-21
-2.40386e-20
-2.482e-20
-2.29717e-20
-2.32885e-20
-2.27047e-20
-2.3647e-20
-2.33349e-20
-2.40237e-20
-2.41459e-20
-1.91786e-20
-1.54348e-20
-1.31561e-20
-1.66019e-20
-1.32126e-20
-1.58246e-20
-1.61891e-20
-1.33106e-20
-1.01956e-20
-9.37057e-21
-1.07961e-20
-1.57178e-20
-1.56301e-20
-1.63211e-20
-1.60954e-20
-9.98369e-21
-5.47301e-21
-6.97735e-21
-1.0438e-20
-6.44622e-21
-6.4516e-21
-3.72093e-21
-4.29751e-21
-4.52638e-21
-2.69991e-21
-2.80108e-21
-1.58601e-21
-1.37556e-21
-1.94424e-21
-2.48136e-21
-2.88053e-21
-2.3118e-20
-2.52368e-20
-2.10551e-20
-2.19446e-20
-2.45488e-20
-2.51722e-20
-2.49962e-20
-2.34835e-20
-2.03488e-20
-2.19194e-20
-1.68875e-20
-1.3627e-20
-1.8562e-20
-1.37859e-20
-1.44234e-20
-1.69795e-20
-1.72967e-20
-8.57253e-21
-8.05847e-21
-8.82622e-21
-1.75825e-20
-1.71193e-20
-1.52274e-20
-1.39688e-20
-1.10974e-20
-1.01089e-20
-8.51463e-21
-7.35805e-21
-4.50085e-21
-6.47327e-21
-4.36476e-21
-4.53002e-21
-4.27644e-21
-3.1718e-21
-2.84103e-21
-2.84564e-21
4.58776e-22
-1.77782e-21
-3.1157e-21
3.75426e-22
-2.57724e-20
-2.36273e-20
-2.22082e-20
-2.46819e-20
-2.4788e-20
-2.66731e-20
-2.31588e-20
-2.26338e-20
-2.10932e-20
-1.98385e-20
-1.65429e-20
-1.77996e-20
-1.97836e-20
-1.61216e-20
-1.60559e-20
-1.52674e-20
-1.24289e-20
-8.42028e-21
-1.12149e-20
-1.39545e-20
-1.07004e-20
-1.55541e-20
-1.59032e-20
-1.51415e-20
-1.17417e-20
-8.4625e-21
-9.28541e-21
-7.08417e-21
-6.22229e-21
-4.4138e-21
-5.01088e-21
-5.70674e-21
-3.41241e-21
-3.54731e-21
-7.33404e-21
-2.07478e-21
-7.69495e-22
-1.49299e-21
-3.60711e-21
-6.47049e-22
-2.56795e-20
-2.4943e-20
-2.35804e-20
-2.4782e-20
-2.44889e-20
-2.35033e-20
-2.40138e-20
-2.19711e-20
-2.0635e-20
-2.19725e-20
-1.84263e-20
-1.87565e-20
-2.04116e-20
-1.40912e-20
-1.55814e-20
-1.6473e-20
-1.79052e-20
-1.07452e-20
-7.21338e-21
-8.70482e-21
-1.41063e-20
-1.73078e-20
-1.45782e-20
-1.7598e-20
-1.01876e-20
-8.24163e-21
-6.53059e-21
-7.70848e-21
-7.57739e-21
-6.3113e-21
-6.56898e-21
-5.07939e-21
-2.73407e-21
-4.58676e-21
-5.70856e-21
-1.34372e-21
-3.46613e-22
7.24657e-22
-2.84458e-21
-2.24311e-21
-2.92802e-20
-2.64448e-20
-2.34761e-20
-2.27826e-20
-2.53511e-20
-2.28489e-20
-2.40091e-20
-2.17105e-20
-2.18725e-20
-1.98145e-20
-1.79216e-20
-1.99903e-20
-2.13488e-20
-1.69349e-20
-1.55461e-20
-1.58735e-20
-1.3535e-20
-1.11219e-20
-1.00848e-20
-1.18874e-20
-1.30619e-20
-1.61735e-20
-1.6184e-20
-1.44766e-20
-9.49672e-21
-8.71595e-21
-8.42664e-21
-7.6342e-21
-7.40509e-21
-5.25772e-21
-5.95612e-21
-4.98438e-21
-4.06819e-21
-3.1835e-21
-5.80616e-21
-2.01613e-21
2.11472e-21
-2.97557e-21
-1.96847e-21
-2.85949e-22
-2.54248e-20
-2.66342e-20
-2.49859e-20
-2.39478e-20
-2.40518e-20
-2.41382e-20
-2.34934e-20
-2.24204e-20
-2.14788e-20
-1.85137e-20
-1.96951e-20
-2.10686e-20
-2.16719e-20
-1.74026e-20
-1.47231e-20
-1.58708e-20
-1.48868e-20
-1.16893e-20
-8.81735e-21
-9.2646e-21
-1.49028e-20
-1.64105e-20
-1.63151e-20
-1.19516e-20
-1.05037e-20
-9.84845e-21
-8.8639e-21
-7.55401e-21
-6.78239e-21
-5.60269e-21
-5.30133e-21
-4.27903e-21
-3.21568e-21
-3.76036e-21
-5.18933e-21
-1.59852e-21
8.00583e-22
-1.99398e-21
-2.07673e-21
-1.70915e-21
-2.29283e-20
-2.34231e-20
-2.43909e-20
-2.2012e-20
-2.64888e-20
-2.47531e-20
-2.40748e-20
-2.39481e-20
-2.3664e-20
-1.84313e-20
-1.7744e-20
-1.99642e-20
-1.98187e-20
-1.92036e-20
-1.69273e-20
-1.54781e-20
-1.47298e-20
-1.13746e-20
-1.28422e-20
-1.17597e-20
-1.57665e-20
-1.2485e-20
-1.18846e-20
-1.0221e-20