/*--------------------------------*- C++ -*----------------------------------*\
| =========                 |                                                 |
| \\      /  F ield         | OpenFOAM: The Open Source CFD Toolbox           |
|  \\    /   O peration     | Version:  v2012                                 |
|   \\  /    A nd           | Website:  www.openfoam.com                      |
|    \\/     M anipulation  |                                                 |
\*---------------------------------------------------------------------------*/
FoamFile
{
    version     2.0;
    format      ascii;
    class       surfaceScalarField;
    location    "50";
    object      phi;
}
// * * * * * * * * * * * * * * * * * * * * * * * * * * * * * * * * * * * * * //

dimensions      [0 3 -1 0 0 0 0];
oriented        oriented;


internalField   nonuniform List<scalar> 
187200
(
1.875e-06
2.12938e-22
1.91426e-22
1.875e-06
3.02468e-22
3.35631e-22
1.875e-06
4.08824e-22
5.47015e-22
1.875e-06
4.64833e-22
4.38355e-22
1.875e-06
3.54408e-22
2.51162e-22
1.875e-06
4.68863e-22
4.23484e-22
1.875e-06
4.18685e-22
3.75763e-22
1.875e-06
3.46402e-22
3.05751e-22
1.875e-06
2.73418e-22
4.24207e-22
1.875e-06
4.71909e-22
3.9286e-22
1.875e-06
4.7977e-22
3.43513e-22
1.875e-06
3.64975e-22
3.91223e-22
1.875e-06
2.97718e-22
3.71434e-22
1.875e-06
2.38915e-22
2.20123e-22
1.875e-06
2.64536e-22
3.04473e-22
1.875e-06
1.86193e-22
3.13013e-22
1.875e-06
2.55074e-22
2.83435e-22
1.875e-06
1.97398e-22
1.67249e-22
1.875e-06
1.91058e-22
1.51868e-22
1.875e-06
1.52516e-22
2.63353e-22
1.875e-06
1.08754e-22
2.55354e-22
1.875e-06
2.0636e-22
2.78058e-22
1.875e-06
3.3248e-22
2.79242e-22
1.875e-06
3.95001e-22
2.27291e-22
1.875e-06
2.89177e-22
1.74494e-22
1.875e-06
2.11079e-22
1.89616e-22
1.875e-06
2.41146e-22
2.01958e-22
1.875e-06
1.62348e-22
9.3074e-23
1.875e-06
2.12203e-22
1.66237e-22
1.875e-06
7.87267e-23
1.66663e-22
1.875e-06
4.10582e-23
1.28223e-22
1.875e-06
9.77764e-23
1.13225e-22
1.875e-06
1.81297e-22
1.31272e-22
1.875e-06
1.58142e-22
1.74042e-22
1.875e-06
3.95886e-23
1.60219e-22
1.875e-06
-1.5216e-22
3.40665e-23
1.875e-06
-6.03398e-23
6.57884e-23
1.875e-06
-3.3215e-23
1.12511e-22
1.875e-06
-2.03388e-23
9.29186e-23
-3.06754e-23
4.63909e-23
1.875e-06
1.0249e-22
3.37029e-22
1.875e-06
1.82307e-22
6.0364e-22
1.875e-06
3.03538e-22
8.22822e-22
1.875e-06
2.61133e-22
7.01871e-22
1.875e-06
2.70944e-22
6.46938e-22
1.875e-06
3.87368e-22
7.84047e-22
1.875e-06
4.65308e-22
8.47693e-22
1.875e-06
3.99658e-22
7.67461e-22
1.875e-06
4.10153e-22
7.83877e-22
1.875e-06
2.7349e-22
8.17447e-22
1.875e-06
2.89485e-22
7.48081e-22
1.875e-06
2.93537e-22
6.78193e-22
1.875e-06
2.74135e-22
7.85423e-22
1.875e-06
2.15647e-22
6.13334e-22
1.875e-06
1.60878e-22
6.03287e-22
1.875e-06
1.31516e-22
6.09246e-22
1.875e-06
3.58328e-22
5.14179e-22
1.875e-06
3.60963e-22
5.70489e-22
1.875e-06
2.10974e-22
5.48536e-22
1.875e-06
1.11183e-22
5.87025e-22
1.875e-06
2.33644e-22
6.24009e-22
1.875e-06
3.61307e-22
5.57242e-22
1.875e-06
2.81366e-22
4.63103e-22
1.875e-06
1.52183e-22
3.99349e-22
1.875e-06
1.71251e-22
3.28488e-22
1.875e-06
2.10529e-22
3.90267e-22
1.875e-06
1.70517e-22
4.47834e-22
1.875e-06
1.33795e-22
3.58084e-22
1.875e-06
5.67011e-23
3.63323e-22
1.875e-06
1.63715e-22
3.83337e-22
1.875e-06
1.33728e-22
3.35957e-22
1.875e-06
5.35974e-23
1.84305e-22
1.875e-06
-8.12838e-24
1.33523e-22
1.875e-06
-4.72239e-23
2.31851e-22
1.875e-06
4.05799e-24
1.98549e-22
1.875e-06
9.54342e-23
2.17383e-22
1.875e-06
1.56405e-23
7.54393e-23
1.875e-06
-1.79855e-23
3.49675e-23
1.875e-06
-7.15343e-23
2.82927e-23
-1.07005e-22
1.26772e-25
1.875e-06
2.10093e-22
4.62479e-22
1.875e-06
1.76463e-22
7.27384e-22
1.875e-06
1.38884e-22
7.72873e-22
1.875e-06
2.88782e-22
9.04568e-22
1.875e-06
3.32105e-22
9.24202e-22
1.875e-06
4.36182e-22
9.84828e-22
1.875e-06
4.18785e-22
9.72974e-22
1.875e-06
2.76275e-22
9.981e-22
1.875e-06
3.11859e-22
1.01064e-21
1.875e-06
2.7753e-22
9.68642e-22
1.875e-06
2.35086e-22
8.90026e-22
1.875e-06
2.36671e-22
7.7972e-22
1.875e-06
2.43839e-22
7.9461e-22
1.875e-06
2.57627e-22
7.946e-22
1.875e-06
2.8235e-22
8.02809e-22
1.875e-06
3.37042e-22
7.69943e-22
1.875e-06
1.51775e-22
5.86713e-22
1.875e-06
2.77207e-22
6.19821e-22
1.875e-06
2.00699e-22
6.90137e-22
1.875e-06
1.80585e-22
6.91293e-22
1.875e-06
2.25077e-22
6.89651e-22
1.875e-06
1.71485e-22
4.8318e-22
1.875e-06
2.49094e-22
3.8988e-22
1.875e-06
2.30516e-22
4.71258e-22
1.875e-06
2.66389e-22
5.38434e-22
1.875e-06
7.3416e-23
4.75636e-22
1.875e-06
1.19598e-22
5.08944e-22
1.875e-06
6.04896e-23
5.09147e-22
1.875e-06
1.42107e-22
4.14095e-22
1.875e-06
1.75948e-22
4.52714e-22
1.875e-06
1.10331e-22
5.15502e-22
1.875e-06
8.21168e-23
3.07615e-22
1.875e-06
-2.74925e-23
1.73248e-22
1.875e-06
-3.99283e-23
2.74233e-22
1.875e-06
1.86832e-23
1.79327e-22
1.875e-06
5.26566e-23
1.58151e-22
1.875e-06
6.25674e-23
5.27866e-23
1.875e-06
2.11987e-23
1.19031e-22
1.875e-06
1.61154e-23
5.64728e-23
-2.93021e-23
9.41813e-24
1.875e-06
2.77748e-22
5.32562e-22
1.875e-06
1.73386e-22
8.57532e-22
1.875e-06
1.08114e-22
9.72871e-22
1.875e-06
1.46181e-22
9.55788e-22
1.875e-06
2.41149e-22
9.88899e-22
1.875e-06
2.36967e-22
9.50413e-22
1.875e-06
1.98918e-22
1.00366e-21
1.875e-06
3.36341e-22
1.07313e-21
1.875e-06
2.75208e-22
1.11444e-21
1.875e-06
3.3101e-22
1.03598e-21
1.875e-06
3.23059e-22
9.9185e-22
1.875e-06
1.06701e-22
9.29081e-22
1.875e-06
1.69259e-22
8.06771e-22
1.875e-06
1.90334e-22
8.4804e-22
1.875e-06
3.32326e-22
8.72454e-22
1.875e-06
3.97525e-22
8.3157e-22
1.875e-06
2.47502e-22
7.21605e-22
1.875e-06
1.17585e-22
6.66447e-22
1.875e-06
2.11899e-22
8.52667e-22
1.875e-06
2.05847e-22
7.55121e-22
1.875e-06
1.88125e-22
7.29471e-22
1.875e-06
1.83398e-22
6.69328e-22
1.875e-06
1.1919e-22
4.64055e-22
1.875e-06
2.01522e-22
4.92789e-22
1.875e-06
5.50874e-23
4.36559e-22
1.875e-06
1.4133e-22
5.74947e-22
1.875e-06
7.92844e-23
4.67554e-22
1.875e-06
1.48971e-22
4.23371e-22
1.875e-06
1.3818e-22
4.06529e-22
1.875e-06
9.5145e-23
4.79677e-22
1.875e-06
9.14101e-23
4.57058e-22
1.875e-06
2.52914e-23
3.02757e-22
1.875e-06
-3.22965e-23
3.25549e-22
1.875e-06
-6.38707e-23
2.82582e-22
1.875e-06
5.01437e-23
1.79707e-22
1.875e-06
7.4203e-23
9.99305e-23
1.875e-06
1.23812e-23
3.08666e-23
1.875e-06
8.09091e-23
8.82913e-23
1.875e-06
-3.00847e-23
1.57782e-23
-4.45906e-23
2.44087e-23
1.875e-06
-8.00481e-25
3.2821e-22
1.875e-06
1.19045e-22
8.69488e-22
1.875e-06
1.14003e-22
9.6917e-22
1.875e-06
1.07001e-22
1.1021e-21
1.875e-06
1.74068e-22
1.13788e-21
1.875e-06
1.05823e-22
1.05411e-21
1.875e-06
9.45446e-23
1.10373e-21
1.875e-06
3.2871e-22
1.10513e-21
1.875e-06
4.22275e-22
1.15658e-21
1.875e-06
2.6189e-22
1.0652e-21
1.875e-06
1.87294e-22
9.74997e-22
1.875e-06
2.37042e-22
9.33705e-22
1.875e-06
2.56511e-22
8.91521e-22
1.875e-06
2.0769e-22
9.55328e-22
1.875e-06
1.44398e-22
9.22176e-22
1.875e-06
1.93275e-22
7.87131e-22
1.875e-06
1.28444e-22
7.77744e-22
1.875e-06
6.60149e-23
8.15949e-22
1.875e-06
9.29534e-23
8.21957e-22
1.875e-06
2.32029e-22
7.97747e-22
1.875e-06
1.82899e-22
8.1691e-22
1.875e-06
2.45117e-22
7.32985e-22
1.875e-06
1.54396e-22
6.16372e-22
1.875e-06
7.01339e-23
5.29054e-22
1.875e-06
8.37085e-23
5.24895e-22
1.875e-06
1.27549e-22
4.93405e-22
1.875e-06
1.43676e-22
4.56117e-22
1.875e-06
2.62981e-23
3.8173e-22
1.875e-06
3.70272e-23
3.77095e-22
1.875e-06
5.24298e-23
3.96917e-22
1.875e-06
1.72673e-22
4.5516e-22
1.875e-06
1.53389e-22
4.27932e-22
1.875e-06
6.53618e-24
2.6783e-22
1.875e-06
-9.16262e-24
2.78571e-22
1.875e-06
2.28183e-24
1.50098e-22
1.875e-06
-7.54929e-23
2.47392e-23
1.875e-06
1.69834e-23
2.54428e-23
1.875e-06
-1.52576e-24
-8.80123e-25
1.875e-06
2.65342e-23
-3.9082e-24
4.04642e-23
9.3471e-23
1.875e-06
4.21819e-23
3.82676e-22
1.875e-06
1.98538e-22
8.65795e-22
1.875e-06
9.67737e-23
1.04544e-21
1.875e-06
6.04368e-23
1.17781e-21
1.875e-06
9.3005e-23
1.2283e-21
1.875e-06
1.46684e-22
1.29426e-21
1.875e-06
1.35824e-22
1.27373e-21
1.875e-06
2.1519e-22
1.13653e-21
1.875e-06
3.12825e-22
1.13062e-21
1.875e-06
2.29435e-22
1.04152e-21
1.875e-06
2.18057e-22
1.03029e-21
1.875e-06
2.58542e-22
9.96851e-22
1.875e-06
2.23025e-22
9.4071e-22
1.875e-06
2.39076e-22
9.12113e-22
1.875e-06
1.30158e-22
9.06638e-22
1.875e-06
1.09497e-22
8.20454e-22
1.875e-06
1.23633e-22
9.18892e-22
1.875e-06
2.77974e-23
8.68808e-22
1.875e-06
9.10067e-23
8.59721e-22
1.875e-06
1.35478e-22
7.42713e-22
1.875e-06
1.98556e-22
8.39042e-22
1.875e-06
1.59617e-22
7.11862e-22
1.875e-06
1.76216e-22
6.28295e-22
1.875e-06
1.56516e-22
5.9086e-22
1.875e-06
5.65818e-23
5.57876e-22
1.875e-06
1.3672e-22
5.07785e-22
1.875e-06
1.64196e-22
4.27541e-22
1.875e-06
5.0974e-23
4.34483e-22
1.875e-06
-1.73707e-23
3.94707e-22
1.875e-06
1.02379e-23
4.52474e-22
1.875e-06
1.30928e-22
3.8272e-22
1.875e-06
1.20399e-22
2.67284e-22
1.875e-06
-6.51948e-23
2.5137e-22
1.875e-06
4.74522e-23
3.21632e-22
1.875e-06
8.01514e-24
2.31627e-22
1.875e-06
3.99668e-23
1.02993e-22
1.875e-06
-2.72118e-23
6.52268e-24
1.875e-06
3.95484e-23
-2.01943e-23
1.875e-06
1.1324e-22
-5.83658e-23
9.9358e-23
7.74193e-23
1.875e-06
2.04926e-23
4.72553e-22
1.875e-06
6.27727e-23
8.69093e-22
1.875e-06
1.4772e-22
1.09079e-21
1.875e-06
5.91388e-23
1.25552e-21
1.875e-06
1.46674e-22
1.32324e-21
1.875e-06
1.08346e-22
1.2993e-21
1.875e-06
1.6111e-22
1.3174e-21
1.875e-06
3.50508e-22
1.20596e-21
1.875e-06
2.78118e-22
1.23699e-21
1.875e-06
2.1812e-22
1.23776e-21
1.875e-06
1.19179e-22
1.0519e-21
1.875e-06
1.19835e-22
9.17969e-22
1.875e-06
1.53346e-22
9.33274e-22
1.875e-06
2.0689e-22
9.55172e-22
1.875e-06
1.53641e-22
1.01977e-21
1.875e-06
1.27861e-22
9.22057e-22
1.875e-06
7.53211e-23
9.21695e-22
1.875e-06
1.30576e-22
9.31186e-22
1.875e-06
1.67902e-22
8.41315e-22
1.875e-06
6.55515e-23
7.6254e-22
1.875e-06
4.73716e-23
8.11582e-22
1.875e-06
1.26873e-22
6.44897e-22
1.875e-06
6.53937e-23
5.78355e-22
1.875e-06
-9.4489e-24
5.59218e-22
1.875e-06
1.73473e-22
6.6637e-22
1.875e-06
2.04337e-22
5.53859e-22
1.875e-06
9.73152e-23
4.25907e-22
1.875e-06
1.64688e-22
4.5728e-22
1.875e-06
5.81732e-23
3.74451e-22
1.875e-06
7.78942e-23
4.77244e-22
1.875e-06
1.26582e-23
3.53985e-22
1.875e-06
1.11662e-24
1.79362e-22
1.875e-06
1.07515e-22
1.99049e-22
1.875e-06
6.56553e-23
2.50335e-22
1.875e-06
7.74557e-23
2.65368e-22
1.875e-06
3.81479e-23
1.4348e-22
1.875e-06
2.61857e-23
2.4988e-23
1.875e-06
6.96185e-23
-1.78721e-23
1.875e-06
1.12469e-23
-5.35219e-23
4.66987e-23
3.86593e-23
1.875e-06
1.08541e-22
4.18029e-22
1.875e-06
3.6826e-23
7.8938e-22
1.875e-06
7.47415e-23
1.03183e-21
1.875e-06
1.98037e-22
1.3421e-21
1.875e-06
1.29167e-22
1.3847e-21
1.875e-06
2.35561e-22
1.43224e-21
1.875e-06
2.79091e-22
1.334e-21
1.875e-06
6.28575e-23
1.20539e-21
1.875e-06
9.93895e-23
1.24751e-21
1.875e-06
2.38566e-22
1.17509e-21
1.875e-06
8.8961e-23
1.13714e-21
1.875e-06
9.82716e-23
1.07431e-21
1.875e-06
2.1039e-22
9.82435e-22
1.875e-06
1.2245e-22
9.4595e-22
1.875e-06
1.6834e-22
1.02974e-21
1.875e-06
1.29128e-22
9.89003e-22
1.875e-06
1.12947e-22
9.81104e-22
1.875e-06
6.74098e-23
8.77705e-22
1.875e-06
1.39273e-22
6.8699e-22
1.875e-06
2.4489e-22
7.98482e-22
1.875e-06
1.4077e-22
8.31783e-22
1.875e-06
6.55627e-23
6.78584e-22
1.875e-06
1.47801e-22
6.59849e-22
1.875e-06
1.49891e-22
7.43918e-22
1.875e-06
9.89963e-23
6.96522e-22
1.875e-06
8.78882e-23
5.41173e-22
1.875e-06
1.57417e-22
4.81798e-22
1.875e-06
1.32273e-22
4.39742e-22
1.875e-06
9.92845e-23
3.70581e-22
1.875e-06
1.27553e-22
3.58677e-22
1.875e-06
3.28142e-23
3.80553e-22
1.875e-06
-3.29917e-23
2.10732e-22
1.875e-06
1.6983e-23
2.63656e-22
1.875e-06
4.47576e-23
2.73383e-22
1.875e-06
4.58457e-23
1.97564e-22
1.875e-06
6.67843e-23
-1.33009e-23
1.875e-06
7.79007e-23
-9.74228e-23
1.875e-06
-3.38135e-23
-9.47391e-23
1.875e-06
-3.26134e-23
-4.89465e-23
-3.50616e-23
-5.39634e-23
1.875e-06
-1.76495e-22
3.06563e-22
1.875e-06
-6.06945e-23
9.08233e-22
1.875e-06
8.93039e-23
1.12981e-21
1.875e-06
6.63234e-23
1.27965e-21
1.875e-06
2.05697e-22
1.33033e-21
1.875e-06
1.76158e-22
1.345e-21
1.875e-06
1.66155e-22
1.38661e-21
1.875e-06
1.59446e-22
1.38095e-21
1.875e-06
8.82344e-23
1.31528e-21
1.875e-06
8.95713e-23
1.16129e-21
1.875e-06
2.26873e-22
1.17825e-21
1.875e-06
1.07569e-22
1.17727e-21
1.875e-06
3.90116e-23
9.65967e-22
1.875e-06
1.0627e-22
9.57943e-22
1.875e-06
1.72284e-22
9.86611e-22
1.875e-06
1.15929e-22
9.61014e-22
1.875e-06
1.66324e-22
1.00742e-21
1.875e-06
1.91989e-22
9.51292e-22
1.875e-06
9.68014e-24
7.85924e-22
1.875e-06
2.05632e-23
7.68561e-22
1.875e-06
2.3696e-22
8.38703e-22
1.875e-06
2.89599e-22
7.3054e-22
1.875e-06
1.5674e-22
6.84475e-22
1.875e-06
2.18255e-22
7.50914e-22
1.875e-06
2.80308e-22
7.23559e-22
1.875e-06
1.19709e-22
6.38259e-22
1.875e-06
7.85345e-24
4.66981e-22
1.875e-06
2.16267e-23
3.46127e-22
1.875e-06
1.35443e-22
3.19099e-22
1.875e-06
4.86219e-23
3.83551e-22
1.875e-06
-4.68578e-23
3.20358e-22
1.875e-06
7.34596e-24
2.56492e-22
1.875e-06
1.06309e-22
3.0703e-22
1.875e-06
5.30574e-23
1.96982e-22
1.875e-06
7.94115e-23
2.77444e-23
1.875e-06
8.25504e-23
-8.19974e-23
1.875e-06
4.94476e-23
-1.3972e-22
1.875e-06
-7.05307e-23
-1.5965e-22
1.875e-06
-6.89261e-23
-7.66856e-23
-5.66042e-23
-5.84192e-23
1.875e-06
-5.95695e-23
4.84647e-22
1.875e-06
5.50943e-23
8.49827e-22
1.875e-06
1.25654e-22
1.07243e-21
1.875e-06
2.47243e-22
1.39328e-21
1.875e-06
8.87241e-23
1.39252e-21
1.875e-06
1.07783e-22
1.39726e-21
1.875e-06
2.28607e-22
1.55775e-21
1.875e-06
1.07468e-22
1.46122e-21
1.875e-06
1.14003e-22
1.29612e-21
1.875e-06
4.13317e-23
1.12482e-21
1.875e-06
1.02895e-22
1.12057e-21
1.875e-06
1.49339e-22
1.12244e-21
1.875e-06
6.91787e-23
1.06322e-21
1.875e-06
7.90849e-23
1.00763e-21
1.875e-06
1.28502e-22
9.88201e-22
1.875e-06
2.07386e-22
9.84295e-22
1.875e-06
9.64551e-23
9.33894e-22
1.875e-06
7.66204e-23
8.72902e-22
1.875e-06
6.23973e-24
8.56224e-22
1.875e-06
1.39333e-22
7.67689e-22
1.875e-06
2.20503e-22
7.95701e-22
1.875e-06
2.35367e-22
7.79299e-22
1.875e-06
2.05021e-22
8.20168e-22
1.875e-06
1.43395e-22
7.92169e-22
1.875e-06
1.85288e-22
6.60169e-22
1.875e-06
1.51757e-22
5.88577e-22
1.875e-06
-1.49042e-23
4.41675e-22
1.875e-06
2.18413e-24
3.71798e-22
1.875e-06
2.40114e-23
3.42685e-22
1.875e-06
1.0728e-22
3.9667e-22
1.875e-06
5.02047e-23
3.03327e-22
1.875e-06
6.63312e-23
2.65516e-22
1.875e-06
3.47282e-23
3.01432e-22
1.875e-06
-5.96455e-24
1.56932e-22
1.875e-06
-9.50485e-23
-6.77081e-23
1.875e-06
3.05127e-23
-1.92975e-22
1.875e-06
1.20429e-23
-3.26211e-22
1.875e-06
2.59058e-23
-1.86652e-22
1.875e-06
1.16231e-23
-1.19115e-22
2.82769e-23
-1.26801e-22
1.875e-06
4.15893e-23
6.64355e-22
1.875e-06
1.10568e-22
9.7138e-22
1.875e-06
9.54409e-23
1.13796e-21
1.875e-06
7.51605e-23
1.25228e-21
1.875e-06
1.2708e-22
1.39732e-21
1.875e-06
1.69216e-22
1.43607e-21
1.875e-06
3.87674e-23
1.41899e-21
1.875e-06
2.3188e-22
1.52953e-21
1.875e-06
5.4892e-23
1.47158e-21
1.875e-06
1.36216e-22
1.23483e-21
1.875e-06
2.38567e-22
1.04025e-21
1.875e-06
7.77868e-23
9.66307e-22
1.875e-06
3.67529e-23
1.051e-21
1.875e-06
1.26313e-22
9.41836e-22
1.875e-06
5.11643e-23
9.60793e-22
1.875e-06
1.10628e-22
9.69556e-22
1.875e-06
1.92924e-22
1.02792e-21
1.875e-06
1.0498e-22
9.44427e-22
1.875e-06
1.60838e-22
9.56539e-22
1.875e-06
-5.40017e-24
8.17681e-22
1.875e-06
9.09715e-23
8.44264e-22
1.875e-06
1.28445e-22
7.22744e-22
1.875e-06
1.35466e-22
7.74794e-22
1.875e-06
1.59881e-22
7.98435e-22
1.875e-06
1.74117e-22
6.1189e-22
1.875e-06
3.32058e-23
4.56733e-22
1.875e-06
1.02396e-22
5.46045e-22
1.875e-06
5.75165e-23
5.27884e-22
1.875e-06
3.17184e-23
3.64084e-22
1.875e-06
-1.04077e-22
2.90676e-22
1.875e-06
-2.51296e-23
3.02447e-22
1.875e-06
5.45181e-23
2.43292e-22
1.875e-06
6.37402e-23
2.90636e-22
1.875e-06
2.46398e-23
1.29742e-22
1.875e-06
3.87978e-23
1.21074e-24
1.875e-06
-3.74512e-23
-2.28987e-22
1.875e-06
-1.0703e-22
-3.30156e-22
1.875e-06
-2.18532e-23
-2.04028e-22
1.875e-06
5.73462e-23
-1.60927e-22
1.05989e-22
-1.7775e-22
1.875e-06
1.23066e-22
6.28544e-22
1.875e-06
1.08381e-22
1.01152e-21
1.875e-06
1.17585e-22
1.12203e-21
1.875e-06
1.23879e-22
1.30622e-21
1.875e-06
1.19161e-22
1.46924e-21
1.875e-06
8.08355e-23
1.47195e-21
1.875e-06
1.89361e-22
1.5081e-21
1.875e-06
1.2506e-22
1.40845e-21
1.875e-06
1.36557e-22
1.40453e-21
1.875e-06
4.7962e-23
1.25128e-21
1.875e-06
4.3956e-23
9.6967e-22
1.875e-06
1.7643e-22
1.06364e-21
1.875e-06
2.05841e-22
1.23234e-21
1.875e-06
1.81445e-22
9.49712e-22
1.875e-06
1.32779e-22
1.00442e-21
1.875e-06
1.1701e-22
9.97323e-22
1.875e-06
8.68583e-23
1.06626e-21
1.875e-06
6.05043e-23
9.32828e-22
1.875e-06
7.74318e-23
8.69089e-22
1.875e-06
2.24256e-22
8.79443e-22
1.875e-06
9.6536e-23
9.40979e-22
1.875e-06
9.4258e-23
7.5123e-22
1.875e-06
1.18899e-22
7.53099e-22
1.875e-06
1.19275e-22
6.86582e-22
1.875e-06
-5.31018e-23
5.57524e-22
1.875e-06
1.29205e-23
5.90463e-22
1.875e-06
1.08498e-23
5.00544e-22
1.875e-06
2.17108e-23
4.23794e-22
1.875e-06
2.24818e-23
3.12433e-22
1.875e-06
-3.1891e-23
3.72879e-22
1.875e-06
8.00863e-23
3.76346e-22
1.875e-06
7.79573e-24
2.7291e-22
1.875e-06
-4.89652e-23
2.6282e-22
1.875e-06
9.60039e-23
9.25419e-23
1.875e-06
1.48931e-22
-8.03069e-23
1.875e-06
-4.27925e-24
-2.22597e-22
1.875e-06
3.76685e-24
-2.96099e-22
1.875e-06
3.68211e-23
-2.19294e-22
1.875e-06
-4.78758e-23
-2.3613e-22
-5.29633e-23
-4.06395e-22
1.875e-06
1.88822e-22
6.68668e-22
1.875e-06
2.08719e-22
1.01167e-21
1.875e-06
1.25647e-22
1.15089e-21
1.875e-06
1.50969e-22
1.39456e-21
1.875e-06
2.90284e-23
1.47649e-21
1.875e-06
2.13644e-23
1.49737e-21
1.875e-06
6.89218e-23
1.41544e-21
1.875e-06
2.04789e-23
1.32737e-21
1.875e-06
1.76685e-22
1.33329e-21
1.875e-06
1.6934e-22
1.16814e-21
1.875e-06
4.34106e-23
1.00812e-21
1.875e-06
9.78922e-23
1.17106e-21
1.875e-06
2.53252e-22
1.24247e-21
1.875e-06
1.49076e-22
1.07024e-21
1.875e-06
1.39949e-22
1.09535e-21
1.875e-06
8.89818e-23
9.00673e-22
1.875e-06
8.38889e-23
9.29624e-22
1.875e-06
9.10874e-23
9.60457e-22
1.875e-06
7.48491e-23
1.00624e-21
1.875e-06
1.86566e-22
9.15491e-22
1.875e-06
1.5197e-22
7.65601e-22
1.875e-06
-9.16674e-24
6.75407e-22
1.875e-06
7.23183e-23
7.12822e-22
1.875e-06
6.59147e-23
6.81591e-22
1.875e-06
-5.68155e-23
6.58412e-22
1.875e-06
-3.8042e-23
5.45189e-22
1.875e-06
-8.60611e-23
5.32058e-22
1.875e-06
2.51775e-23
4.495e-22
1.875e-06
1.01417e-23
3.66356e-22
1.875e-06
3.54002e-23
3.28215e-22
1.875e-06
-6.027e-23
2.74077e-22
1.875e-06
-3.81937e-23
3.32967e-22
1.875e-06
4.82786e-23
2.74436e-22
1.875e-06
-1.61229e-23
3.63818e-23
1.875e-06
1.48018e-23
-9.7263e-23
1.875e-06
2.57194e-23
-2.50038e-22
1.875e-06
-8.69734e-23
-2.69737e-22
1.875e-06
-1.34964e-22
-3.32699e-22
1.875e-06
-1.42045e-22
-1.90338e-22
-1.61663e-22
-3.0603e-22
1.875e-06
-1.25459e-22
5.40526e-22
1.875e-06
4.0434e-23
9.31671e-22
1.875e-06
1.4745e-22
1.19215e-21
1.875e-06
2.76209e-23
1.33956e-21
1.875e-06
2.01451e-23
1.48459e-21
1.875e-06
1.4146e-23
1.45623e-21
1.875e-06
7.97457e-23
1.42667e-21
1.875e-06
1.78987e-22
1.38594e-21
1.875e-06
8.53572e-23
1.20874e-21
1.875e-06
-1.24029e-23
1.13315e-21
1.875e-06
8.03792e-24
1.12207e-21
1.875e-06
2.54099e-22
1.20747e-21
1.875e-06
1.1964e-22
1.14412e-21
1.875e-06
4.27486e-23
1.01841e-21
1.875e-06
7.12382e-23
1.03526e-21
1.875e-06
1.51135e-22
9.92517e-22
1.875e-06
9.09461e-23
1.11902e-21
1.875e-06
2.18789e-22
1.05814e-21
1.875e-06
2.14802e-22
9.00616e-22
1.875e-06
6.01461e-24
7.16175e-22
1.875e-06
1.09211e-22
7.67457e-22
1.875e-06
2.44146e-23
8.52972e-22
1.875e-06
-4.50452e-23
6.70009e-22
1.875e-06
-5.2572e-23
6.99976e-22
1.875e-06
-7.22966e-23
6.37489e-22
1.875e-06
-4.28303e-23
5.83013e-22
1.875e-06
1.45983e-22
5.66392e-22
1.875e-06
1.21828e-22
5.10446e-22
1.875e-06
-4.97234e-23
3.78062e-22
1.875e-06
-1.15215e-22
3.22726e-22
1.875e-06
-1.37349e-22
3.41622e-22
1.875e-06
-4.15348e-23
3.28349e-22
1.875e-06
-5.20093e-24
2.29091e-22
1.875e-06
-3.60248e-24
1.32508e-22
1.875e-06
-3.28305e-23
-1.50707e-22
1.875e-06
-8.94526e-23
-3.89277e-22
1.875e-06
-8.51802e-23
-3.30038e-22
1.875e-06
-3.46188e-24
-3.39172e-22
1.875e-06
1.56278e-23
-1.32149e-22
-1.21659e-22
-1.73819e-22
1.875e-06
-4.15849e-23
7.66476e-22
1.875e-06
-1.30579e-22
9.88622e-22
1.875e-06
-1.0394e-22
1.16824e-21
1.875e-06
-3.82417e-23
1.33627e-21
1.875e-06
4.46552e-23
1.50635e-21
1.875e-06
2.63102e-23
1.43535e-21
1.875e-06
-1.03139e-23
1.36953e-21
1.875e-06
-2.18417e-23
1.2278e-21
1.875e-06
3.02962e-23
1.22391e-21
1.875e-06
2.53794e-23
1.21829e-21
1.875e-06
1.5692e-22
1.18897e-21
1.875e-06
9.47297e-23
1.14763e-21
1.875e-06
8.66339e-23
1.18466e-21
1.875e-06
8.83364e-23
1.16401e-21
1.875e-06
1.3719e-22
1.05636e-21
1.875e-06
9.62723e-23
9.41272e-22
1.875e-06
2.19511e-22
1.02111e-21
1.875e-06
1.38922e-22
9.59116e-22
1.875e-06
4.64403e-23
8.82196e-22
1.875e-06
1.03065e-22
8.50435e-22
1.875e-06
5.66246e-23
7.34729e-22
1.875e-06
1.4487e-22
8.59022e-22
1.875e-06
2.53493e-23
8.00725e-22
1.875e-06
-1.91267e-22
6.76511e-22
1.875e-06
-8.21738e-23
5.97605e-22
1.875e-06
7.9024e-23
6.38378e-22
1.875e-06
7.84162e-23
5.2057e-22
1.875e-06
-7.30795e-23
3.88478e-22
1.875e-06
-3.61874e-23
4.30192e-22
1.875e-06
-3.3433e-23
3.53017e-22
1.875e-06
-2.59266e-23
3.64181e-22
1.875e-06
-5.44987e-23
3.02508e-22
1.875e-06
-2.06492e-23
2.75602e-22
1.875e-06
-2.0216e-24
1.27018e-22
1.875e-06
-2.49448e-23
-1.02725e-22
1.875e-06
1.95926e-23
-2.9411e-22
1.875e-06
-1.11734e-22
-3.2373e-22
1.875e-06
-1.58674e-22
-2.42196e-22
1.875e-06
-1.05498e-22
-2.69324e-22
-1.17025e-22
-2.98667e-22
1.875e-06
-6.42391e-23
6.494e-22
1.875e-06
-1.79194e-22
1.05827e-21
1.875e-06
-6.34061e-23
1.28506e-21
1.875e-06
-1.22625e-22
1.40898e-21
1.875e-06
-9.33573e-23
1.45087e-21
1.875e-06
1.11744e-23
1.46593e-21
1.875e-06
5.95385e-23
1.37474e-21
1.875e-06
5.71361e-23
1.31289e-21
1.875e-06
4.29316e-23
1.27061e-21
1.875e-06
8.09878e-23
1.21801e-21
1.875e-06
-1.21101e-23
1.18119e-21
1.875e-06
6.27885e-23
1.19001e-21
1.875e-06
-1.10283e-22
1.19042e-21
1.875e-06
4.28164e-23
1.15584e-21
1.875e-06
1.94048e-22
1.01924e-21
1.875e-06
2.08038e-22
9.84478e-22
1.875e-06
1.19378e-22
9.40633e-22
1.875e-06
1.12046e-22
9.31632e-22
1.875e-06
2.12926e-22
9.00309e-22
1.875e-06
1.04685e-22
7.90849e-22
1.875e-06
1.26302e-22
8.36098e-22
1.875e-06
-3.07437e-23
7.93101e-22
1.875e-06
-7.5596e-23
7.34383e-22
1.875e-06
-1.06029e-22
6.87205e-22
1.875e-06
2.3846e-24
6.63521e-22
1.875e-06
-1.19385e-22
6.12835e-22
1.875e-06
6.70842e-24
4.93438e-22
1.875e-06
1.38188e-22
4.36696e-22
1.875e-06
-3.31157e-23
4.24274e-22
1.875e-06
2.48569e-23
3.72902e-22
1.875e-06
4.95723e-23
3.7639e-22
1.875e-06
2.66654e-23
2.83385e-22
1.875e-06
-5.97374e-23
2.18959e-22
1.875e-06
-1.17592e-22
1.23508e-22
1.875e-06
-1.94796e-22
-9.16184e-23
1.875e-06
-1.91716e-22
-3.1991e-22
1.875e-06
4.22395e-23
-1.8901e-22
1.875e-06
2.5343e-24
-1.19631e-22
1.875e-06
-1.04781e-23
-1.9839e-22
1.16623e-23
-1.69e-22
1.875e-06
-1.61653e-22
6.09488e-22
1.875e-06
-8.86071e-23
1.04692e-21
1.875e-06
-2.27894e-23
1.28291e-21
1.875e-06
-6.58356e-23
1.47072e-21
1.875e-06
-6.49249e-23
1.568e-21
1.875e-06
2.78568e-23
1.48882e-21
1.875e-06
-7.62108e-23
1.33363e-21
1.875e-06
-1.23754e-22
1.30194e-21
1.875e-06
-7.62785e-24
1.34725e-21
1.875e-06
9.4247e-23
1.23082e-21
1.875e-06
1.28919e-22
1.19357e-21
1.875e-06
-8.24087e-24
1.14415e-21
1.875e-06
5.76409e-23
1.31967e-21
1.875e-06
5.04968e-23
1.23594e-21
1.875e-06
1.66542e-22
1.03736e-21
1.875e-06
7.04332e-23
8.73509e-22
1.875e-06
6.449e-23
8.67349e-22
1.875e-06
9.30941e-23
9.04281e-22
1.875e-06
1.09712e-22
9.06559e-22
1.875e-06
2.38506e-22
8.71887e-22
1.875e-06
1.77425e-22
8.43655e-22
1.875e-06
-2.62193e-23
7.4306e-22
1.875e-06
-2.24336e-22
6.01676e-22
1.875e-06
-6.15169e-23
6.08106e-22
1.875e-06
-3.21683e-23
6.06506e-22
1.875e-06
8.59906e-23
7.02075e-22
1.875e-06
7.18902e-23
5.2361e-22
1.875e-06
-6.21816e-23
4.42978e-22
1.875e-06
9.91827e-23
5.97936e-22
1.875e-06
6.58639e-23
3.79946e-22
1.875e-06
9.9956e-23
2.27328e-22
1.875e-06
-1.65597e-22
2.05528e-22
1.875e-06
-1.25772e-22
2.60337e-22
1.875e-06
-6.69402e-23
2.487e-22
1.875e-06
-1.63025e-22
5.55495e-23
1.875e-06
-2.19319e-23
-1.68359e-22
1.875e-06
2.08184e-23
-2.02492e-22
1.875e-06
4.98727e-23
-7.96453e-23
1.875e-06
1.91978e-23
-2.05545e-22
-7.60093e-26
-3.08768e-22
1.875e-06
-6.92068e-23
6.84171e-22
1.875e-06
-1.25392e-22
1.04804e-21
1.875e-06
-1.47852e-22
1.23035e-21
1.875e-06
-1.73314e-23
1.46626e-21
1.875e-06
6.49811e-23
1.50801e-21
1.875e-06
-8.00587e-23
1.43656e-21
1.875e-06
-1.28545e-22
1.41887e-21
1.875e-06
-1.11441e-22
1.35105e-21
1.875e-06
-2.52793e-23
1.38977e-21
1.875e-06
8.27242e-23
1.28011e-21
1.875e-06
3.18853e-23
1.21511e-21
1.875e-06
6.15409e-23
1.17923e-21
1.875e-06
6.82981e-23
1.27679e-21
1.875e-06
5.8157e-23
1.28234e-21
1.875e-06
2.68908e-23
1.0258e-21
1.875e-06
3.51189e-23
9.20272e-22
1.875e-06
5.16741e-23
8.76788e-22
1.875e-06
1.99512e-22
9.39878e-22
1.875e-06
2.74248e-22
8.89006e-22
1.875e-06
1.28352e-22
7.17972e-22
1.875e-06
-4.8289e-23
6.90754e-22
1.875e-06
-2.23141e-22
8.35649e-22
1.875e-06
-5.61014e-23
7.42963e-22
1.875e-06
-3.65457e-23
5.67104e-22
1.875e-06
-7.02464e-23
6.61646e-22
1.875e-06
-2.024e-23
6.83674e-22
1.875e-06
5.24605e-23
5.32526e-22
1.875e-06
8.36966e-23
4.53895e-22
1.875e-06
3.71264e-23
4.21788e-22
1.875e-06
4.99598e-23
3.35349e-22
1.875e-06
4.25522e-23
2.0722e-22
1.875e-06
5.07654e-24
2.68607e-22
1.875e-06
-7.82423e-23
2.70413e-22
1.875e-06
-4.13608e-23
2.33729e-22
1.875e-06
-5.17587e-24
1.50754e-22
1.875e-06
-5.035e-23
2.37272e-24
1.875e-06
-1.00781e-23
-4.44535e-23
1.875e-06
6.3125e-23
-1.22201e-22
1.875e-06
1.08664e-22
-2.59818e-22
9.3339e-23
-2.9414e-22
1.875e-06
-7.09132e-23
8.33644e-22
1.875e-06
-3.89508e-23
1.13251e-21
1.875e-06
-7.44643e-23
1.24852e-21
1.875e-06
-1.45986e-22
1.45942e-21
1.875e-06
-6.69476e-23
1.46791e-21
1.875e-06
-1.46683e-22
1.44376e-21
1.875e-06
-1.91159e-22
1.45308e-21
1.875e-06
-1.67339e-23
1.51487e-21
1.875e-06
1.07931e-22
1.43267e-21
1.875e-06
1.29523e-23
1.2506e-21
1.875e-06
6.05094e-23
1.25598e-21
1.875e-06
3.7652e-23
1.26783e-21
1.875e-06
1.11806e-22
1.2937e-21
1.875e-06
1.84468e-22
1.28138e-21
1.875e-06
2.34845e-23
1.0182e-21
1.875e-06
-8.81749e-23
9.51523e-22
1.875e-06
-5.63537e-23
9.06419e-22
1.875e-06
4.35566e-23
8.14181e-22
1.875e-06
1.12083e-22
6.86593e-22
1.875e-06
7.83441e-23
6.27042e-22
1.875e-06
-6.838e-23
6.81325e-22
1.875e-06
1.57863e-23
8.84871e-22
1.875e-06
-1.39303e-23
8.11371e-22
1.875e-06
3.24865e-23
7.32826e-22
1.875e-06
-2.77213e-23
6.68364e-22
1.875e-06
-9.1994e-23
6.1894e-22
1.875e-06
8.55235e-23
5.31187e-22
1.875e-06
1.47149e-22
5.31369e-22
1.875e-06
1.50204e-22
4.14792e-22
1.875e-06
-1.42039e-23
3.42904e-22
1.875e-06
-1.30202e-22
1.88537e-22
1.875e-06
-3.61034e-23
1.70992e-22
1.875e-06
2.8426e-23
2.59413e-22
1.875e-06
2.26499e-23
3.23076e-22
1.875e-06
2.12648e-23
1.64739e-22
1.875e-06
2.89266e-23
1.14941e-23
1.875e-06
9.36728e-23
4.0382e-23
1.875e-06
-1.86598e-23
-8.65526e-23
1.875e-06
-5.41285e-24
-2.68424e-22
1.11551e-22
-2.29731e-22
1.875e-06
1.2478e-22
9.24713e-22
1.875e-06
-1.18678e-23
1.22984e-21
1.875e-06
-8.24146e-23
1.21207e-21
1.875e-06
-2.7309e-23
1.32917e-21
1.875e-06
-1.39401e-22
1.40472e-21
1.875e-06
-9.38721e-23
1.48234e-21
1.875e-06
-9.27665e-24
1.55591e-21
1.875e-06
-8.34247e-23
1.51486e-21
1.875e-06
-9.61103e-23
1.3319e-21
1.875e-06
2.3445e-23
1.43802e-21
1.875e-06
-2.07012e-22
1.26942e-21
1.875e-06
4.86965e-22
1.30619e-21
1.875e-06
1.06666e-22
1.27408e-21
1.875e-06
1.92765e-22
1.25257e-21
1.875e-06
3.66076e-23
1.17975e-21
1.875e-06
-1.59755e-22
1.00111e-21
1.875e-06
-1.18854e-22
8.61987e-22
1.875e-06
-1.66006e-22
6.70881e-22
1.875e-06
-3.5553e-23
7.58078e-22
1.875e-06
1.50184e-23
7.02352e-22
1.875e-06
-6.02165e-23
6.65554e-22
1.875e-06
-1.15523e-22
7.84754e-22
1.875e-06
-2.95927e-23
9.57609e-22
1.875e-06
5.11058e-23
6.65384e-22
1.875e-06
1.7354e-22
6.27321e-22
1.875e-06
9.88718e-23
6.35626e-22
1.875e-06
-5.22104e-23
4.87535e-22
1.875e-06
-4.74666e-23
5.34372e-22
1.875e-06
-2.08049e-22
3.74455e-22
1.875e-06
2.05643e-22
3.51836e-22
1.875e-06
5.74955e-23
3.68047e-22
1.875e-06
4.51258e-23
2.41279e-22
1.875e-06
9.43988e-23
1.84908e-22
1.875e-06
-6.88669e-23
2.29981e-22
1.875e-06
1.04702e-22
2.28105e-22
1.875e-06
9.39118e-23
9.94713e-23
1.875e-06
-7.82725e-23
-5.12486e-23
1.875e-06
3.95474e-23
-2.0855e-22
1.875e-06
-6.1408e-23
-3.99619e-22
-1.23934e-23
-2.33949e-22
1.875e-06
2.18565e-22
7.70163e-22
1.875e-06
1.74314e-22
1.13947e-21
1.875e-06
1.01743e-23
1.20028e-21
1.875e-06
-7.29124e-23
1.30144e-21
1.875e-06
2.50646e-23
1.42051e-21
1.875e-06
-6.20617e-23
1.43607e-21
1.875e-06
-3.28664e-23
1.48625e-21
1.875e-06
-4.32505e-23
1.4867e-21
1.875e-06
-1.04555e-22
1.40041e-21
1.875e-06
-5.19247e-23
1.46937e-21
1.875e-06
1.48782e-23
1.3359e-21
1.875e-06
9.15939e-23
1.33633e-21
1.875e-06
2.17504e-22
1.40546e-21
1.875e-06
1.71618e-23
1.10312e-21
1.875e-06
-1.36794e-22
1.03458e-21
1.875e-06
-1.46494e-22
1.05337e-21
1.875e-06
-1.92071e-22
8.77725e-22
1.875e-06
-3.68588e-23
7.84123e-22
1.875e-06
1.73996e-23
8.75699e-22
1.875e-06
-8.24629e-23
7.64805e-22
1.875e-06
-7.28234e-23
7.11488e-22
1.875e-06
-1.03005e-22
8.47728e-22
1.875e-06
-1.01534e-24
9.1056e-22
1.875e-06
3.99461e-23
6.39583e-22
1.875e-06
7.2674e-23
5.50764e-22
1.875e-06
1.27176e-22
6.30044e-22
1.875e-06
-7.37085e-24
4.92608e-22
1.875e-06
5.08888e-23
4.4427e-22
1.875e-06
4.3279e-24
4.5138e-22
1.875e-06
-5.29627e-23
3.92813e-22
1.875e-06
3.23707e-24
3.57358e-22
1.875e-06
1.19497e-22
2.6971e-22
1.875e-06
1.58266e-23
1.68273e-22
1.875e-06
7.68966e-24
2.41218e-22
1.875e-06
1.00387e-22
1.90354e-22
1.875e-06
1.58392e-22
1.44369e-22
1.875e-06
1.0639e-22
-4.36803e-23
1.875e-06
5.87964e-23
-2.93024e-22
1.875e-06
-1.04166e-22
-3.34595e-22
-1.36926e-22
-2.02368e-22
1.875e-06
7.35412e-23
6.26347e-22
1.875e-06
2.01434e-22
1.10751e-21
1.875e-06
1.07822e-22
1.2495e-21
1.875e-06
1.12511e-22
1.28157e-21
1.875e-06
-2.61403e-23
1.3201e-21
1.875e-06
9.21912e-23
1.48273e-21
1.875e-06
-1.0864e-23
1.41559e-21
1.875e-06
-6.92752e-23
1.41798e-21
1.875e-06
-1.59179e-23
1.59202e-21
1.875e-06
-1.38215e-22
1.57708e-21
1.875e-06
-1.28085e-23
1.46723e-21
1.875e-06
-4.90405e-23
1.2509e-21
1.875e-06
-1.87146e-22
1.22338e-21
1.875e-06
-1.9947e-22
1.12264e-21
1.875e-06
-1.20196e-22
1.05309e-21
1.875e-06
-6.82139e-23
1.06701e-21
1.875e-06
-1.03539e-22
8.91563e-22
1.875e-06
-2.06651e-22
7.97038e-22
1.875e-06
-2.32686e-22
7.44938e-22
1.875e-06