/*--------------------------------*- C++ -*----------------------------------*\
| =========                 |                                                 |
| \\      /  F ield         | OpenFOAM: The Open Source CFD Toolbox           |
|  \\    /   O peration     | Version:  v2012                                 |
|   \\  /    A nd           | Website:  www.openfoam.com                      |
|    \\/     M anipulation  |                                                 |
\*---------------------------------------------------------------------------*/
FoamFile
{
    version     2.0;
    format      ascii;
    class       volVectorField;
    location    "50";
    object      U;
}
// * * * * * * * * * * * * * * * * * * * * * * * * * * * * * * * * * * * * * //

dimensions      [0 1 -1 0 0 0 0];


internalField   nonuniform List<vector> 
64000
(
(0.003 2.8645e-19 2.60032e-19)
(0.003 4.75838e-19 4.37688e-19)
(0.003 5.23107e-19 6.11162e-19)
(0.003 5.50925e-19 6.60245e-19)
(0.003 6.4097e-19 5.94473e-19)
(0.003 6.10893e-19 5.44201e-19)
(0.003 5.80374e-19 5.55268e-19)
(0.003 4.51115e-19 5.09541e-19)
(0.003 4.40743e-19 5.86584e-19)
(0.003 6.94811e-19 5.33358e-19)
(0.003 6.83497e-19 4.56708e-19)
(0.003 5.96606e-19 6.39375e-19)
(0.003 5.4268e-19 6.04764e-19)
(0.003 5.26815e-19 4.78153e-19)
(0.003 4.60388e-19 5.40947e-19)
(0.003 3.83723e-19 5.2278e-19)
(0.003 3.34923e-19 3.80263e-19)
(0.003 2.22463e-19 2.45688e-19)
(0.003 2.16681e-19 2.27645e-19)
(0.003 2.42466e-19 3.34883e-19)
(0.003 1.62103e-19 3.18499e-19)
(0.003 3.05035e-19 3.68196e-19)
(0.003 4.85163e-19 4.05892e-19)
(0.003 5.50471e-19 3.36346e-19)
(0.003 4.48936e-19 2.55254e-19)
(0.003 3.11114e-19 2.37107e-19)
(0.003 2.22944e-19 2.2984e-19)
(0.003 3.20387e-19 2.89238e-19)
(0.003 3.09451e-19 2.62017e-19)
(0.003 1.54907e-19 2.37311e-19)
(0.003 5.87726e-20 1.927e-19)
(0.003 1.20906e-19 1.68505e-19)
(0.003 2.53562e-19 2.27034e-19)
(0.003 2.04388e-19 2.74319e-19)
(0.003 1.17445e-19 2.29779e-19)
(0.003 1.24709e-20 1.70063e-19)
(0.003 -6.90606e-20 1.0541e-19)
(0.003 -5.77426e-20 1.27945e-19)
(0.003 -5.51476e-20 1.839e-19)
(0.003 -4.73691e-20 1.26732e-19)
(0.003 2.54529e-19 4.87218e-19)
(0.003 4.0591e-19 9.52833e-19)
(0.003 6.22596e-19 1.18813e-18)
(0.003 6.01717e-19 1.16468e-18)
(0.003 5.24338e-19 1.11891e-18)
(0.003 7.56862e-19 1.24656e-18)
(0.003 8.02086e-19 1.2631e-18)
(0.003 6.994e-19 1.04105e-18)
(0.003 6.16517e-19 9.54728e-19)
(0.003 6.34262e-19 1.25509e-18)
(0.003 6.44382e-19 1.25855e-18)
(0.003 5.68977e-19 1.12882e-18)
(0.003 4.56921e-19 1.06291e-18)
(0.003 3.76594e-19 9.70739e-19)
(0.003 3.2226e-19 9.41669e-19)
(0.003 2.6825e-19 8.62463e-19)
(0.003 5.18293e-19 8.08247e-19)
(0.003 5.11861e-19 7.17151e-19)
(0.003 3.49569e-19 6.91698e-19)
(0.003 1.93773e-19 6.43744e-19)
(0.003 2.80865e-19 5.97181e-19)
(0.003 4.52245e-19 7.113e-19)
(0.003 4.95921e-19 7.75933e-19)
(0.003 4.81943e-19 7.98607e-19)
(0.003 3.91146e-19 6.56284e-19)
(0.003 3.50969e-19 5.56407e-19)
(0.003 3.89259e-19 5.56832e-19)
(0.003 2.81336e-19 6.0775e-19)
(0.003 2.23943e-19 5.88659e-19)
(0.003 2.03946e-19 4.30813e-19)
(0.003 1.50234e-19 3.09664e-19)
(0.003 1.45683e-19 2.84341e-19)
(0.003 1.63393e-19 4.11878e-19)
(0.003 9.84671e-20 4.70857e-19)
(0.003 9.48539e-21 3.11734e-19)
(0.003 -1.22934e-19 1.77455e-19)
(0.003 -5.25994e-20 5.56527e-20)
(0.003 -2.21767e-20 3.8724e-20)
(0.003 -7.33695e-20 8.53068e-20)
(0.003 -1.06836e-19 7.51008e-20)
(0.003 1.80234e-19 5.93475e-19)
(0.003 2.11064e-19 1.03093e-18)
(0.003 3.21412e-19 1.25896e-18)
(0.003 4.83489e-19 1.34717e-18)
(0.003 4.69853e-19 1.33447e-18)
(0.003 6.63989e-19 1.47231e-18)
(0.003 7.34324e-19 1.55044e-18)
(0.003 5.64918e-19 1.45003e-18)
(0.003 5.83307e-19 1.38135e-18)
(0.003 4.33283e-19 1.36791e-18)
(0.003 4.06802e-19 1.34027e-18)
(0.003 3.94394e-19 1.25761e-18)
(0.003 4.02163e-19 1.13341e-18)
(0.003 3.53796e-19 1.07535e-18)
(0.003 3.21047e-19 1.04094e-18)
(0.003 3.07859e-19 9.36887e-19)
(0.003 3.83171e-19 9.82976e-19)
(0.003 5.3892e-19 9.12214e-19)
(0.003 3.61072e-19 7.85067e-19)
(0.003 2.59099e-19 6.88356e-19)
(0.003 3.78688e-19 7.77264e-19)
(0.003 4.18019e-19 8.84108e-19)
(0.003 4.29877e-19 8.60864e-19)
(0.003 3.06091e-19 8.11294e-19)
(0.003 3.2806e-19 7.19099e-19)
(0.003 2.42903e-19 6.81462e-19)
(0.003 2.1012e-19 6.79163e-19)
(0.003 1.2229e-19 7.48318e-19)
(0.003 1.8103e-19 6.30931e-19)
(0.003 2.59424e-19 5.70556e-19)
(0.003 2.40936e-19 5.18166e-19)
(0.003 1.17983e-19 3.786e-19)
(0.003 -4.55269e-20 3.85705e-19)
(0.003 -5.4744e-20 3.90151e-19)
(0.003 1.82742e-20 3.0253e-19)
(0.003 8.25989e-20 1.99584e-19)
(0.003 5.0281e-20 3.05603e-20)
(0.003 -1.38142e-20 2.62655e-20)
(0.003 -6.83887e-20 7.02779e-20)
(0.003 -1.0792e-19 3.28494e-20)
(0.003 3.96616e-19 7.53661e-19)
(0.003 3.12915e-19 1.2193e-18)
(0.003 2.00669e-19 1.39793e-18)
(0.003 3.72281e-19 1.51534e-18)
(0.003 5.06186e-19 1.51505e-18)
(0.003 5.34332e-19 1.61138e-18)
(0.003 4.78844e-19 1.63876e-18)
(0.003 4.58561e-19 1.43883e-18)
(0.003 4.10791e-19 1.4272e-18)
(0.003 4.60502e-19 1.46787e-18)
(0.003 4.44603e-19 1.45554e-18)
(0.003 2.95716e-19 1.40884e-18)
(0.003 3.15454e-19 1.25165e-18)
(0.003 3.28887e-19 1.17522e-18)
(0.003 5.18142e-19 1.16391e-18)
(0.003 6.24536e-19 1.05623e-18)
(0.003 3.14324e-19 9.91573e-19)
(0.003 2.90837e-19 1.05338e-18)
(0.003 3.31806e-19 9.2647e-19)
(0.003 3.01658e-19 7.78887e-19)
(0.003 3.25534e-19 8.81595e-19)
(0.003 3.42186e-19 9.69281e-19)
(0.003 3.24172e-19 9.73978e-19)
(0.003 2.93568e-19 9.27157e-19)
(0.003 2.81306e-19 8.30402e-19)
(0.003 1.53689e-19 6.73881e-19)
(0.003 1.20712e-19 6.09779e-19)
(0.003 1.38888e-19 6.11729e-19)
(0.003 2.22169e-19 6.5032e-19)
(0.003 1.97381e-19 6.58007e-19)
(0.003 1.62873e-19 5.19055e-19)
(0.003 5.81747e-20 3.80404e-19)
(0.003 -6.35171e-20 4.20879e-19)
(0.003 -6.95217e-20 3.8464e-19)
(0.003 7.65414e-20 2.78276e-19)
(0.003 1.11823e-19 2.2494e-19)
(0.003 7.40063e-20 1.19484e-19)
(0.003 6.29386e-20 6.94524e-20)
(0.003 -1.62916e-21 6.10192e-20)
(0.003 -1.21919e-20 5.11696e-20)
(0.003 1.96331e-19 7.79988e-19)
(0.003 2.60175e-19 1.3025e-18)
(0.003 1.51236e-19 1.44015e-18)
(0.003 2.00639e-19 1.62137e-18)
(0.003 3.13917e-19 1.68244e-18)
(0.003 2.19199e-19 1.70547e-18)
(0.003 1.604e-19 1.67034e-18)
(0.003 4.95414e-19 1.50991e-18)
(0.003 5.90643e-19 1.434e-18)
(0.003 5.11979e-19 1.59027e-18)
(0.003 3.98126e-19 1.54182e-18)
(0.003 2.5078e-19 1.2875e-18)
(0.003 3.32036e-19 1.27418e-18)
(0.003 3.00065e-19 1.29789e-18)
(0.003 3.6303e-19 1.34199e-18)
(0.003 4.94839e-19 1.25586e-18)
(0.003 3.05942e-19 1.06178e-18)
(0.003 1.45231e-19 1.01301e-18)
(0.003 2.52843e-19 9.79301e-19)
(0.003 3.86743e-19 8.4257e-19)
(0.003 3.4571e-19 8.93457e-19)
(0.003 3.10857e-19 1.07485e-18)
(0.003 2.08734e-19 1.10438e-18)
(0.003 2.19627e-19 9.60014e-19)
(0.003 1.38943e-19 8.31472e-19)
(0.003 1.58837e-19 6.82629e-19)
(0.003 1.55377e-19 6.01032e-19)
(0.003 1.42617e-19 6.55231e-19)
(0.003 1.71207e-19 6.79573e-19)
(0.003 1.076e-19 5.61955e-19)
(0.003 1.58489e-19 4.83315e-19)
(0.003 1.56567e-19 4.62615e-19)
(0.003 -3.13455e-20 3.34762e-19)
(0.003 -8.39963e-20 2.89112e-19)
(0.003 3.36325e-20 2.95954e-19)
(0.003 -7.36457e-21 2.59108e-19)
(0.003 3.90421e-20 1.70299e-19)
(0.003 6.80353e-20 9.49171e-21)
(0.003 -5.26174e-20 1.13298e-20)
(0.003 -2.98588e-20 1.41253e-19)
(0.003 1.00517e-20 8.00222e-19)
(0.003 2.01834e-19 1.33282e-18)
(0.003 1.57868e-19 1.48103e-18)
(0.003 1.13262e-19 1.71328e-18)
(0.003 1.84851e-19 1.81255e-18)
(0.003 1.87314e-19 1.82056e-18)
(0.003 1.79734e-19 1.72175e-18)
(0.003 4.15965e-19 1.68459e-18)
(0.003 5.62741e-19 1.62759e-18)
(0.003 3.92932e-19 1.51991e-18)
(0.003 3.57407e-19 1.46722e-18)
(0.003 4.38717e-19 1.43051e-18)
(0.003 4.06327e-19 1.3991e-18)
(0.003 3.90633e-19 1.23585e-18)
(0.003 2.09201e-19 1.32391e-18)
(0.003 1.90133e-19 1.32499e-18)
(0.003 1.74342e-19 1.14757e-18)
(0.003 1.36604e-20 1.01595e-18)
(0.003 1.19159e-19 9.5452e-19)
(0.003 3.12097e-19 8.79974e-19)
(0.003 3.4199e-19 9.62041e-19)
(0.003 3.60655e-19 1.11904e-18)
(0.003 2.80593e-19 1.09424e-18)
(0.003 2.13309e-19 9.84325e-19)
(0.003 1.47382e-19 8.02287e-19)
(0.003 2.39925e-19 6.64205e-19)
(0.003 2.40929e-19 6.72502e-19)
(0.003 5.23991e-20 6.34011e-19)
(0.003 -5.30859e-20 6.50267e-19)
(0.003 2.31392e-20 6.74413e-19)
(0.003 2.54978e-19 5.70498e-19)
(0.003 2.3859e-19 4.18156e-19)
(0.003 -2.4157e-20 2.98579e-19)
(0.003 -4.87123e-21 3.41113e-19)
(0.003 -2.96223e-20 3.68903e-19)
(0.003 -2.86662e-20 1.82431e-19)
(0.003 -2.95171e-20 1.12681e-19)
(0.003 7.35125e-20 1.5197e-20)
(0.003 1.70379e-19 -2.47663e-20)
(0.003 1.25087e-19 9.36312e-20)
(0.003 5.33942e-20 9.44696e-19)
(0.003 1.91908e-19 1.50089e-18)
(0.003 2.0486e-19 1.51802e-18)
(0.003 1.02712e-19 1.66425e-18)
(0.003 1.82805e-19 1.84644e-18)
(0.003 1.93045e-19 1.90425e-18)
(0.003 2.4188e-19 1.77742e-18)
(0.003 4.89392e-19 1.68794e-18)
(0.003 5.20185e-19 1.74884e-18)
(0.003 3.6464e-19 1.69531e-18)
(0.003 2.42273e-19 1.56833e-18)
(0.003 2.80659e-19 1.4155e-18)
(0.003 3.0136e-19 1.41254e-18)
(0.003 3.46744e-19 1.399e-18)
(0.003 2.23635e-19 1.37333e-18)
(0.003 1.86283e-19 1.34474e-18)
(0.003 2.02812e-19 1.15248e-18)
(0.003 1.75064e-19 9.63319e-19)
(0.003 1.87717e-19 9.26992e-19)
(0.003 1.29788e-19 9.30958e-19)
(0.003 1.82711e-19 1.03666e-18)
(0.003 2.00953e-19 1.12992e-18)
(0.003 2.19164e-19 1.08753e-18)
(0.003 1.54488e-19 1.01767e-18)
(0.003 1.22419e-19 8.52052e-19)
(0.003 2.87959e-19 7.97701e-19)
(0.003 2.17698e-19 7.27112e-19)
(0.003 1.57752e-19 5.84192e-19)
(0.003 5.53672e-20 5.82276e-19)
(0.003 6.54409e-20 6.07754e-19)
(0.003 1.04099e-19 6.01442e-19)
(0.003 8.67558e-20 4.24872e-19)
(0.003 5.38025e-20 1.97803e-19)
(0.003 1.10199e-19 2.47577e-19)
(0.003 7.65105e-20 3.3421e-19)
(0.003 5.96519e-20 2.73016e-19)
(0.003 1.85959e-20 1.30771e-19)
(0.003 9.14434e-20 3.67691e-20)
(0.003 1.40106e-19 3.3752e-20)
(0.003 1.14688e-19 7.13342e-20)
(0.003 1.66275e-19 8.31164e-19)
(0.003 1.57846e-19 1.373e-18)
(0.003 1.84438e-19 1.54435e-18)
(0.003 2.14842e-19 1.7379e-18)
(0.003 2.202e-19 1.93767e-18)
(0.003 2.57701e-19 1.94215e-18)
(0.003 3.58416e-19 1.81339e-18)
(0.003 3.25989e-19 1.84997e-18)
(0.003 2.92677e-19 1.85118e-18)
(0.003 3.47842e-19 1.75563e-18)
(0.003 1.72472e-19 1.65149e-18)
(0.003 1.59481e-19 1.50331e-18)
(0.003 2.68766e-19 1.38571e-18)
(0.003 2.53779e-19 1.3718e-18)
(0.003 2.54359e-19 1.37613e-18)
(0.003 2.10739e-19 1.43077e-18)
(0.003 1.29197e-19 1.22643e-18)
(0.003 1.70071e-19 9.85742e-19)
(0.003 2.97141e-19 8.9011e-19)
(0.003 2.61042e-19 8.3846e-19)
(0.003 1.26445e-19 9.54294e-19)
(0.003 9.92118e-20 1.16103e-18)
(0.003 1.23398e-19 1.15113e-18)
(0.003 1.08931e-19 1.06895e-18)
(0.003 1.79889e-19 9.45836e-19)
(0.003 2.30475e-19 8.90086e-19)
(0.003 2.59392e-19 7.42216e-19)
(0.003 2.50975e-19 6.18897e-19)
(0.003 1.42506e-19 5.04258e-19)
(0.003 1.61636e-19 5.51484e-19)
(0.003 1.61076e-20 5.98128e-19)
(0.003 -1.39187e-20 4.2406e-19)
(0.003 1.07371e-19 3.26687e-19)
(0.003 1.07103e-19 3.74952e-19)
(0.003 1.38252e-19 3.31954e-19)
(0.003 1.11432e-19 1.49857e-19)
(0.003 3.69847e-20 -3.44224e-20)
(0.003 2.03634e-21 9.23752e-21)
(0.003 -4.51645e-21 5.86127e-20)
(0.003 7.86312e-21 4.03139e-20)
(0.003 -6.92388e-20 8.34961e-19)
(0.003 -5.65741e-20 1.58232e-18)
(0.003 1.10769e-19 1.69063e-18)
(0.003 1.69841e-19 1.80459e-18)
(0.003 2.61291e-19 1.91073e-18)
(0.003 4.05882e-19 1.98666e-18)
(0.003 3.80103e-19 1.93471e-18)
(0.003 1.30798e-19 1.85411e-18)
(0.003 8.19891e-20 1.8557e-18)
(0.003 2.61239e-19 1.85163e-18)
(0.003 2.30081e-19 1.62837e-18)
(0.003 1.36596e-19 1.51301e-18)
(0.003 2.00724e-19 1.49278e-18)
(0.003 1.77984e-19 1.40256e-18)
(0.003 2.65907e-19 1.38241e-18)
(0.003 2.0002e-19 1.39055e-18)
(0.003 2.3172e-19 1.25424e-18)
(0.003 2.12122e-19 9.82865e-19)
(0.003 1.02203e-19 1.00316e-18)
(0.003 2.21178e-19 1.01725e-18)
(0.003 2.68748e-19 9.76511e-19)
(0.003 2.73163e-19 1.1357e-18)
(0.003 2.7565e-19 1.20695e-18)
(0.003 2.62475e-19 1.14672e-18)
(0.003 2.81518e-19 9.03258e-19)
(0.003 1.58665e-19 8.33605e-19)
(0.003 1.28667e-19 7.59663e-19)
(0.003 1.57684e-19 6.32786e-19)
(0.003 1.94376e-19 4.99132e-19)
(0.003 1.64277e-19 5.98689e-19)
(0.003 -1.05607e-20 5.8288e-19)
(0.003 -3.65676e-20 4.53096e-19)
(0.003 9.37459e-20 3.40653e-19)
(0.003 1.14558e-19 3.14209e-19)
(0.003 1.13011e-19 2.094e-19)
(0.003 1.21984e-19 4.95293e-20)
(0.003 1.16404e-19 -6.7358e-20)
(0.003 -7.10638e-20 -1.55415e-19)
(0.003 -1.38709e-19 -1.41677e-19)
(0.003 -1.03667e-19 -8.07126e-20)
(0.003 -1.97184e-19 8.97851e-19)
(0.003 -2.68348e-20 1.41354e-18)
(0.003 1.65043e-19 1.63044e-18)
(0.003 2.92691e-19 1.89883e-18)
(0.003 2.2996e-19 2.06249e-18)
(0.003 2.0813e-19 2.06268e-18)
(0.003 3.22859e-19 2.0451e-18)
(0.003 2.43213e-19 1.97871e-18)
(0.003 1.73313e-19 1.82133e-18)
(0.003 1.1051e-19 1.7769e-18)
(0.003 2.6834e-19 1.65077e-18)
(0.003 1.63019e-19 1.48267e-18)
(0.003 3.81375e-20 1.4707e-18)
(0.003 1.27587e-19 1.40056e-18)
(0.003 2.43287e-19 1.42528e-18)
(0.003 2.37837e-19 1.427e-18)
(0.003 2.05411e-19 1.25638e-18)
(0.003 2.07452e-19 1.02886e-18)
(0.003 1.46589e-20 9.17187e-19)
(0.003 1.21653e-19 8.78214e-19)
(0.003 3.68793e-19 1.03847e-18)
(0.003 4.53153e-19 1.26141e-18)
(0.003 2.89797e-19 1.3255e-18)
(0.003 3.0057e-19 1.23881e-18)
(0.003 4.31394e-19 1.05217e-18)
(0.003 2.24848e-19 8.15953e-19)
(0.003 -4.36669e-20 6.00395e-19)
(0.003 -1.54526e-20 6.02058e-19)
(0.003 1.33196e-19 6.43459e-19)
(0.003 1.44801e-19 5.83002e-19)
(0.003 2.10248e-20 4.06642e-19)
(0.003 4.30635e-20 4.65902e-19)
(0.003 1.06543e-19 4.65689e-19)
(0.003 4.29341e-20 3.20107e-19)
(0.003 -3.10214e-20 1.8364e-19)
(0.003 1.18258e-19 -7.41889e-20)
(0.003 1.555e-19 -3.37348e-19)
(0.003 6.30004e-21 -2.87205e-19)
(0.003 -4.96526e-20 -1.74421e-19)
(0.003 -2.31815e-20 -1.64771e-19)
(0.003 5.44814e-20 1.04846e-18)
(0.003 1.87727e-19 1.58777e-18)
(0.003 2.37032e-19 1.7562e-18)
(0.003 2.67496e-19 1.93848e-18)
(0.003 1.9284e-19 1.98532e-18)
(0.003 1.91183e-19 2.05647e-18)
(0.003 1.97313e-19 2.13094e-18)
(0.003 2.50264e-19 2.05993e-18)
(0.003 1.66599e-19 1.96247e-18)
(0.003 1.60403e-19 1.78621e-18)
(0.003 2.33664e-19 1.56001e-18)
(0.003 1.46974e-19 1.39515e-18)
(0.003 6.30722e-20 1.40846e-18)
(0.003 1.44173e-19 1.2895e-18)
(0.003 1.57877e-19 1.40218e-18)
(0.003 3.1179e-19 1.4901e-18)
(0.003 2.55843e-19 1.28066e-18)
(0.003 1.39557e-19 9.97702e-19)
(0.003 9.46288e-20 9.28894e-19)
(0.003 9.98194e-20 1.02271e-18)
(0.003 2.84133e-19 1.18705e-18)
(0.003 3.49639e-19 1.34826e-18)
(0.003 2.74592e-19 1.33795e-18)
(0.003 2.57743e-19 1.22774e-18)
(0.003 2.65141e-19 9.88913e-19)
(0.003 1.43385e-19 7.29911e-19)
(0.003 1.02087e-19 6.71992e-19)
(0.003 8.24214e-20 7.00856e-19)
(0.003 2.95989e-20 6.02065e-19)
(0.003 2.05031e-20 6.36441e-19)
(0.003 3.04564e-20 5.06349e-19)
(0.003 7.62439e-20 4.80202e-19)
(0.003 1.16064e-19 4.04176e-19)
(0.003 9.12888e-21 2.69723e-19)
(0.003 -5.36744e-20 2.07848e-19)
(0.003 -3.32532e-20 -1.00834e-19)
(0.003 -1.25081e-19 -4.36258e-19)
(0.003 -1.79546e-20 -2.89401e-19)
(0.003 7.27008e-20 -2.16298e-19)
(0.003 9.38822e-20 -2.37763e-19)
(0.003 2.28526e-19 1.0594e-18)
(0.003 2.34914e-19 1.6466e-18)
(0.003 1.51515e-19 1.7837e-18)
(0.003 1.54161e-19 1.87247e-18)
(0.003 2.49157e-19 2.06754e-18)
(0.003 2.2582e-19 2.1823e-18)
(0.003 1.94787e-19 2.09351e-18)
(0.003 3.09294e-19 2.06631e-18)
(0.003 1.40856e-19 1.8642e-18)
(0.003 9.29568e-20 1.82485e-18)
(0.003 2.31877e-19 1.64099e-18)
(0.003 2.49647e-19 1.42905e-18)
(0.003 2.04063e-19 1.45808e-18)
(0.003 2.45453e-19 1.32736e-18)
(0.003 1.39146e-19 1.35047e-18)
(0.003 1.48748e-19 1.45708e-18)
(0.003 2.10745e-19 1.36689e-18)
(0.003 1.92889e-19 1.09479e-18)
(0.003 2.65956e-19 9.66345e-19)
(0.003 1.90106e-19 9.36732e-19)
(0.003 1.03391e-19 1.21879e-18)
(0.003 1.25911e-19 1.38793e-18)
(0.003 1.43317e-19 1.2558e-18)
(0.003 2.13316e-19 1.17744e-18)
(0.003 8.73293e-20 1.0956e-18)
(0.003 6.17195e-20 8.46661e-19)
(0.003 1.28052e-19 7.30546e-19)
(0.003 7.1014e-20 6.9994e-19)
(0.003 3.29692e-20 5.53224e-19)
(0.003 -1.44696e-19 5.84642e-19)
(0.003 3.14704e-20 5.54906e-19)
(0.003 1.11355e-19 4.76453e-19)
(0.003 -1.54499e-20 3.81634e-19)
(0.003 8.62248e-20 2.21585e-19)
(0.003 1.93715e-19 6.54525e-20)
(0.003 -5.14634e-20 -1.73635e-19)
(0.003 -1.82262e-19 -4.07203e-19)
(0.003 -6.5372e-20 -3.0386e-19)
(0.003 7.10529e-21 -3.02177e-19)
(0.003 5.83439e-20 -4.15866e-19)
(0.003 2.4514e-19 1.07979e-18)
(0.003 2.60712e-19 1.65347e-18)
(0.003 2.18084e-19 1.79531e-18)
(0.003 2.44063e-19 2.0066e-18)
(0.003 1.26714e-19 2.18199e-18)
(0.003 6.96379e-20 2.16653e-18)
(0.003 2.20117e-19 2.07184e-18)
(0.003 1.7161e-19 2.03057e-18)
(0.003 2.19789e-19 1.83788e-18)
(0.003 1.78641e-19 1.71909e-18)
(0.003 1.00763e-19 1.62936e-18)
(0.003 2.61325e-19 1.56013e-18)
(0.003 3.58141e-19 1.54393e-18)
(0.003 2.98384e-19 1.4816e-18)
(0.003 2.30779e-19 1.42922e-18)
(0.003 1.69842e-19 1.39942e-18)
(0.003 1.62523e-19 1.233e-18)
(0.003 9.22195e-20 1.02906e-18)
(0.003 1.049e-19 1.04703e-18)
(0.003 2.73468e-19 1.09064e-18)
(0.003 1.80291e-19 1.11924e-18)
(0.003 4.19724e-20 1.29711e-18)
(0.003 1.22333e-19 1.26866e-18)
(0.003 1.40916e-19 1.20404e-18)
(0.003 -5.58352e-20 1.0244e-18)
(0.003 -3.99118e-20 8.18428e-19)
(0.003 -8.02038e-20 7.7422e-19)
(0.003 -4.58992e-21 7.00897e-19)
(0.003 2.3929e-20 6.2157e-19)
(0.003 -5.75048e-20 5.48738e-19)
(0.003 2.26675e-20 5.4251e-19)
(0.003 7.38254e-20 4.91252e-19)
(0.003 6.59582e-21 3.34923e-19)
(0.003 8.06299e-20 2.85448e-19)
(0.003 1.43879e-19 1.02568e-19)
(0.003 1.36557e-20 -2.96592e-19)
(0.003 -2.87021e-20 -4.38075e-19)
(0.003 -1.23051e-19 -2.95715e-19)
(0.003 -2.11189e-19 -1.84871e-19)
(0.003 -1.66301e-19 -3.40837e-19)
(0.003 -1.59661e-20 1.08846e-18)
(0.003 1.73836e-19 1.70435e-18)
(0.003 2.51398e-19 1.85405e-18)
(0.003 1.3764e-19 2.02029e-18)
(0.003 1.33573e-20 2.11158e-18)
(0.003 9.16892e-21 2.11239e-18)
(0.003 8.01534e-20 2.08745e-18)
(0.003 1.68578e-19 1.96272e-18)
(0.003 2.46414e-19 1.79237e-18)
(0.003 1.11386e-19 1.80036e-18)
(0.003 2.79145e-20 1.67416e-18)
(0.003 2.88619e-19 1.60114e-18)
(0.003 3.31073e-19 1.62604e-18)
(0.003 1.8707e-19 1.49211e-18)
(0.003 1.59555e-19 1.38449e-18)
(0.003 1.45043e-19 1.39469e-18)
(0.003 1.92443e-19 1.38374e-18)
(0.003 2.96206e-19 1.12658e-18)
(0.003 2.31029e-19 9.40378e-19)
(0.003 1.37391e-19 1.05324e-18)
(0.003 1.98957e-19 1.15002e-18)
(0.003 4.37158e-20 1.28636e-18)
(0.003 5.16941e-20 1.24267e-18)
(0.003 3.5638e-21 1.2189e-18)
(0.003 -6.0254e-20 1.07878e-18)
(0.003 -9.32606e-21 8.74645e-19)
(0.003 1.79282e-20 6.6042e-19)
(0.003 4.98312e-20 6.89479e-19)
(0.003 -5.603e-20 6.48768e-19)
(0.003 -6.68526e-20 5.47261e-19)
(0.003 -1.83668e-19 5.93025e-19)
(0.003 -1.05844e-19 5.46222e-19)
(0.003 5.35799e-20 3.77872e-19)
(0.003 -2.67673e-20 2.68622e-19)
(0.003 -3.29253e-20 5.21862e-20)
(0.003 -3.54881e-20 -3.60303e-19)
(0.003 -1.36471e-19 -5.55428e-19)
(0.003 -8.73766e-20 -4.12261e-19)
(0.003 -7.48298e-20 -2.90674e-19)
(0.003 -2.21615e-19 -3.37498e-19)
(0.003 -1.79216e-19 1.16264e-18)
(0.003 -1.36546e-19 1.75585e-18)
(0.003 6.85757e-20 1.92771e-18)
(0.003 2.94016e-20 1.95097e-18)
(0.003 4.17106e-20 2.09997e-18)
(0.003 6.03687e-20 2.13528e-18)
(0.003 4.55636e-20 2.09071e-18)
(0.003 8.46604e-20 1.96602e-18)
(0.003 8.75056e-20 1.86786e-18)
(0.003 1.40105e-21 1.80189e-18)
(0.003 1.34066e-19 1.6925e-18)
(0.003 3.02465e-19 1.71625e-18)
(0.003 2.1452e-19 1.70632e-18)
(0.003 1.05492e-19 1.51147e-18)
(0.003 1.53122e-19 1.34758e-18)
(0.003 1.63424e-19 1.4163e-18)
(0.003 1.99337e-19 1.3125e-18)
(0.003 2.92783e-19 1.12959e-18)
(0.003 2.37356e-19 1.06043e-18)
(0.003 1.53941e-19 1.07113e-18)
(0.003 2.11669e-19 1.16127e-18)
(0.003 1.2182e-19 1.24465e-18)
(0.003 -2.19996e-20 1.26801e-18)
(0.003 -2.18149e-19 1.21603e-18)
(0.003 -1.53796e-19 9.9133e-19)
(0.003 3.70759e-20 8.75179e-19)
(0.003 1.91737e-19 7.14915e-19)
(0.003 5.33495e-20 7.35691e-19)
(0.003 -8.45915e-20 6.48065e-19)
(0.003 -8.28558e-20 4.83524e-19)
(0.003 -9.73656e-20 5.26974e-19)
(0.003 -1.48592e-19 5.40113e-19)
(0.003 -4.46324e-20 4.40236e-19)
(0.003 -6.86363e-21 2.43521e-19)
(0.003 -5.08547e-20 6.03161e-20)
(0.003 -4.73417e-20 -2.87423e-19)
(0.003 -1.13687e-19 -5.17569e-19)
(0.003 -7.99469e-20 -3.8479e-19)
(0.003 -1.09543e-19 -3.69708e-19)
(0.003 -2.274e-19 -4.50579e-19)
(0.003 -9.79347e-20 1.12431e-18)
(0.003 -2.71286e-19 1.7831e-18)
(0.003 -1.93295e-19 1.958e-18)
(0.003 -1.68778e-19 2.0295e-18)
(0.003 -1.03472e-20 2.13271e-18)
(0.003 6.27501e-20 2.16946e-18)
(0.003 2.28717e-20 2.05368e-18)
(0.003 1.09918e-20 1.9871e-18)
(0.003 6.96306e-20 1.90069e-18)
(0.003 1.06178e-19 1.73196e-18)
(0.003 1.27977e-19 1.75454e-18)
(0.003 1.0341e-19 1.78591e-18)
(0.003 -1.93579e-20 1.75492e-18)
(0.003 7.04204e-20 1.53863e-18)
(0.003 2.56674e-19 1.43903e-18)
(0.003 2.49248e-19 1.45804e-18)
(0.003 2.31352e-19 1.30488e-18)
(0.003 2.05349e-19 1.11387e-18)
(0.003 2.32274e-19 9.96946e-19)
(0.003 1.79479e-19 1.03554e-18)
(0.003 1.60937e-19 1.18752e-18)
(0.003 1.25901e-19 1.30948e-18)
(0.003 -9.78411e-21 1.27962e-18)
(0.003 -2.26807e-19 1.06455e-18)
(0.003 -1.30736e-19 9.07364e-19)
(0.003 -8.83025e-20 9.19932e-19)
(0.003 4.50774e-20 7.72174e-19)
(0.003 8.45286e-20 6.5967e-19)
(0.003 -1.51668e-20 6.3343e-19)
(0.003 1.12628e-20 5.32151e-19)
(0.003 1.33842e-20 4.86143e-19)
(0.003 -3.21567e-20 4.64641e-19)
(0.003 -6.25536e-20 4.38704e-19)
(0.003 -8.42457e-20 3.3125e-19)
(0.003 -1.49594e-19 1.07466e-19)
(0.003 -8.62794e-20 -2.753e-19)
(0.003 -1.61103e-20 -3.35543e-19)
(0.003 -1.03919e-19 -2.4582e-19)
(0.003 -9.97629e-20 -3.25881e-19)
(0.003 -9.58707e-20 -3.78901e-19)
(0.003 -2.0008e-19 1.01426e-18)
(0.003 -1.76025e-19 1.67276e-18)
(0.003 -7.27746e-20 1.95651e-18)
(0.003 -1.73383e-19 2.02127e-18)
(0.003 -1.54167e-19 2.14604e-18)
(0.003 1.42125e-20 2.1763e-18)
(0.003 1.24214e-20 2.15257e-18)
(0.003 8.24774e-21 2.12533e-18)
(0.003 6.96704e-20 2.01358e-18)
(0.003 1.64246e-19 1.82547e-18)
(0.003 1.06627e-19 1.72354e-18)
(0.003 9.03746e-21 1.75839e-18)
(0.003 -9.35357e-20 1.70063e-18)
(0.003 3.47345e-20 1.61043e-18)
(0.003 2.83587e-19 1.49675e-18)
(0.003 2.43724e-19 1.43652e-18)
(0.003 1.48661e-19 1.2636e-18)
(0.003 1.10458e-19 1.15877e-18)
(0.003 2.3305e-19 1.1398e-18)
(0.003 2.87901e-19 1.08702e-18)
(0.003 2.67609e-19 1.24239e-18)
(0.003 -1.43193e-20 1.13851e-18)
(0.003 -2.6327e-19 1.11005e-18)
(0.003 -1.74677e-19 9.60898e-19)
(0.003 -7.31843e-21 8.82109e-19)
(0.003 -3.03306e-20 8.68847e-19)
(0.003 5.13262e-20 7.80683e-19)
(0.003 1.12099e-19 8.29081e-19)
(0.003 8.23671e-20 6.85932e-19)
(0.003 1.01087e-19 5.26582e-19)
(0.003 8.42393e-20 4.528e-19)
(0.003 -1.01086e-19 4.15075e-19)
(0.003 -1.41592e-19 4.63706e-19)
(0.003 -1.88398e-19 4.5131e-19)
(0.003 -3.40224e-19 2.1528e-19)
(0.003 -2.09865e-19 -1.80766e-19)
(0.003 1.0928e-19 -3.00763e-19)
(0.003 1.25232e-19 -1.73038e-19)
(0.003 -6.2793e-21 -2.96974e-19)
(0.003 -4.96347e-20 -4.57081e-19)
(0.003 -2.04286e-19 9.24195e-19)
(0.003 -2.06604e-19 1.68289e-18)
(0.003 -1.70382e-19 2.04687e-18)
(0.003 -5.29189e-20 2.05389e-18)
(0.003 3.06399e-20 2.03768e-18)
(0.003 -3.90885e-20 2.16974e-18)
(0.003 -1.73263e-19 2.15002e-18)
(0.003 -2.23484e-19 2.07689e-18)
(0.003 -2.1536e-20 2.07941e-18)
(0.003 1.67003e-19 1.94438e-18)
(0.003 1.4475e-19 1.76329e-18)
(0.003 5.04409e-20 1.72245e-18)
(0.003 1.01073e-19 1.69995e-18)
(0.003 9.81202e-20 1.60544e-18)
(0.003 1.61261e-19 1.5983e-18)
(0.003 1.22473e-19 1.50357e-18)
(0.003 8.60756e-20 1.28452e-18)
(0.003 2.00767e-19 1.0536e-18)
(0.003 3.12206e-19 1.05949e-18)
(0.003 3.08138e-19 1.10371e-18)
(0.003 9.22418e-20 1.25519e-18)
(0.003 -2.2462e-19 1.25678e-18)
(0.003 -2.41669e-19 1.0267e-18)
(0.003 -7.40311e-20 8.95853e-19)
(0.003 -8.60538e-20 9.09917e-19)
(0.003 3.64546e-20 9.46112e-19)
(0.003 1.12379e-19 8.74439e-19)
(0.003 2.04697e-20 7.41476e-19)
(0.003 9.77769e-20 6.31442e-19)
(0.003 1.06667e-19 5.36563e-19)
(0.003 1.14476e-19 4.44796e-19)
(0.003 -1.19912e-19 3.53125e-19)
(0.003 -1.87285e-19 3.87622e-19)
(0.003 -8.33108e-20 4.38545e-19)
(0.003 -1.35163e-19 2.66064e-19)
(0.003 -1.1541e-19 1.36734e-19)
(0.003 -5.65433e-20 -1.18932e-21)
(0.003 2.09661e-20 -1.42863e-19)
(0.003 1.44536e-19 -3.98559e-19)
(0.003 1.99203e-19 -3.97401e-19)
(0.003 -1.19482e-19 1.01383e-18)
(0.003 -1.9121e-19 1.65034e-18)
(0.003 -2.20238e-19 1.89008e-18)
(0.003 -9.94942e-20 2.06919e-18)
(0.003 -1.69643e-21 2.16272e-18)
(0.003 -1.77218e-19 2.13905e-18)
(0.003 -2.61815e-19 2.13265e-18)
(0.003 -1.36831e-19 2.15756e-18)
(0.003 6.35247e-20 2.08947e-18)
(0.003 6.76024e-20 1.9293e-18)
(0.003 5.74818e-20 1.79657e-18)
(0.003 1.00244e-19 1.77283e-18)
(0.003 1.51143e-19 1.7241e-18)
(0.003 2.12653e-19 1.62669e-18)
(0.003 6.84653e-20 1.59854e-18)
(0.003 -3.02121e-20 1.52375e-18)
(0.003 3.58475e-20 1.33433e-18)
(0.003 2.23773e-19 1.12906e-18)
(0.003 3.44155e-19 1.13097e-18)
(0.003 1.7351e-19 1.10447e-18)
(0.003 -1.36425e-19 1.15763e-18)
(0.003 -1.87361e-19 1.09308e-18)
(0.003 -3.7325e-20 1.11359e-18)
(0.003 -5.8619e-21 1.02615e-18)
(0.003 -1.09365e-19 8.52469e-19)
(0.003 -7.72655e-20 8.45356e-19)
(0.003 1.16322e-19 8.79808e-19)
(0.003 1.70176e-19 7.40904e-19)
(0.003 1.4445e-19 5.6215e-19)
(0.003 2.62511e-20 5.36926e-19)
(0.003 -4.02017e-20 5.05489e-19)
(0.003 -3.33249e-20 3.14584e-19)
(0.003 -3.60714e-20 3.24895e-19)
(0.003 -2.51916e-20 4.83657e-19)
(0.003 1.55945e-20 3.19303e-19)
(0.003 3.86717e-21 1.66132e-19)
(0.003 3.71935e-20 5.65155e-20)
(0.003 4.33697e-20 -4.03552e-20)
(0.003 1.33484e-19 -2.14572e-19)
(0.003 2.33168e-19 -2.514e-19)
(0.003 3.6639e-20 1.00461e-18)
(0.003 -4.03536e-21 1.70619e-18)
(0.003 -8.48287e-20 1.87655e-18)
(0.003 -1.79057e-19 1.89204e-18)
(0.003 -2.37811e-19 2.09364e-18)
(0.003 -2.63942e-19 2.12175e-18)
(0.003 -1.30714e-19 2.10921e-18)
(0.003 -2.09061e-20 2.15916e-18)
(0.003 -1.10081e-20 2.15915e-18)
(0.003 4.95118e-20 2.04029e-18)
(0.003 1.70096e-19 1.8668e-18)
(0.003 1.59535e-19 1.81646e-18)
(0.003 2.07065e-19 1.70047e-18)
(0.003 2.77524e-19 1.69823e-18)
(0.003 3.75597e-20 1.67257e-18)
(0.003 -1.58944e-19 1.52257e-18)
(0.003 -1.887e-19 1.2669e-18)
(0.003 -1.68165e-19 1.09712e-18)
(0.003 6.15164e-20 1.20973e-18)
(0.003 6.13614e-20 1.10043e-18)
(0.003 -1.00385e-19 1.07924e-18)
(0.003 -7.57047e-20 1.15004e-18)
(0.003 -2.0307e-20 1.22935e-18)
(0.003 8.82431e-20 1.06063e-18)
(0.003 1.3575e-19 7.76085e-19)
(0.003 -9.07718e-21 7.59707e-19)
(0.003 2.53747e-20 9.05909e-19)
(0.003 9.06634e-20 8.82595e-19)
(0.003 8.31317e-20 6.47937e-19)
(0.003 -8.71058e-21 4.56299e-19)
(0.003 -6.23533e-20 4.95298e-19)
(0.003 2.38634e-21 3.29927e-19)
(0.003 4.85974e-20 3.10325e-19)
(0.003 3.82134e-20 4.35968e-19)
(0.003 1.10255e-19 3.50446e-19)
(0.003 1.28541e-19 2.61145e-19)
(0.003 5.88212e-20 1.06835e-19)
(0.003 -2.49117e-20 -1.96799e-19)
(0.003 -4.05792e-20 -3.89692e-19)
(0.003 3.66493e-20 -3.34063e-19)
(0.003 2.35523e-19 9.65366e-19)
(0.003 1.74964e-19 1.59076e-18)
(0.003 -2.0406e-20 1.75996e-18)
(0.003 -1.26937e-19 1.85273e-18)
(0.003 -9.85416e-20 2.06456e-18)
(0.003 -1.05743e-19 2.07681e-18)
(0.003 -5.20991e-20 2.05715e-18)
(0.003 -1.07401e-19 2.08122e-18)
(0.003 -1.63891e-19 2.11336e-18)
(0.003 -2.70653e-20 2.1511e-18)
(0.003 1.52766e-19 2.04796e-18)
(0.003 1.79481e-19 1.93862e-18)
(0.003 2.37586e-19 1.82457e-18)
(0.003 2.55509e-19 1.73297e-18)
(0.003 -3.10056e-20 1.62418e-18)
(0.003 -2.5801e-19 1.42759e-18)
(0.003 -2.45003e-19 1.21986e-18)
(0.003 -1.30248e-19 1.0628e-18)
(0.003 -1.08101e-19 1.22587e-18)
(0.003 -1.00388e-19 1.19971e-18)
(0.003 -1.19975e-19 1.11484e-18)
(0.003 -1.8015e-19 1.10715e-18)
(0.003 -5.18374e-20 1.14229e-18)
(0.003 7.12387e-20 1.06068e-18)
(0.003 2.23774e-19 9.17201e-19)
(0.003 1.99182e-19 7.78248e-19)
(0.003 -5.10826e-20 7.94662e-19)
(0.003 -2.60026e-20 7.90861e-19)
(0.003 -3.29288e-21 6.80215e-19)
(0.003 -1.95383e-20 5.26064e-19)
(0.003 1.62078e-20 5.2098e-19)
(0.003 1.0467e-19 3.76721e-19)
(0.003 3.38479e-20 3.201e-19)
(0.003 3.26981e-20 3.7565e-19)
(0.003 1.73402e-19 3.81768e-19)
(0.003 2.07699e-19 3.26549e-19)
(0.003 2.41399e-20 1.05281e-20)
(0.003 -3.09097e-20 -3.21732e-19)
(0.003 -1.28894e-19 -3.65829e-19)
(0.003 -1.92797e-19 -2.05465e-19)
(0.003 2.84539e-19 9.63492e-19)
(0.003 3.12013e-19 1.61843e-18)
(0.003 7.25284e-20 1.78956e-18)
(0.003 5.98655e-20 1.80181e-18)
(0.003 6.35654e-20 2.02161e-18)
(0.003 5.77158e-20 2.05508e-18)
(0.003 -4.1986e-20 1.97195e-18)
(0.003 -1.37398e-19 2.01144e-18)
(0.003 -1.45888e-19 2.12028e-18)
(0.003 -1.63706e-19 2.19025e-18)
(0.003 -2.62096e-20 2.14989e-18)
(0.003 7.58067e-20 1.94879e-18)
(0.003 6.75927e-20 1.93107e-18)
(0.003 -1.29046e-19 1.80024e-18)
(0.003 -2.19891e-19 1.55328e-18)
(0.003 -1.80334e-19 1.40295e-18)
(0.003 -2.0282e-19 1.16685e-18)
(0.003 -1.85631e-19 1.08554e-18)
(0.003 -1.99049e-19 1.2734e-18)
(0.003 -8.90524e-20 1.21452e-18)
(0.003 -1.56982e-21 1.12161e-18)
(0.003 6.44779e-21 1.10477e-18)
(0.003 6.19191e-20 1.0956e-18)
(0.003 5.28775e-20 9.97375e-19)
(0.003 9.00483e-20 8.78986e-19)
(0.003 2.20584e-19 8.16529e-19)
(0.003 3.3014e-20 8.02913e-19)
(0.003 1.46295e-20 8.30921e-19)
(0.003 -2.09987e-20 7.13763e-19)
(0.003 -5.48975e-20 5.29897e-19)
(0.003 3.41181e-20 5.14947e-19)
(0.003 1.77485e-19 4.05686e-19)
(0.003 5.44647e-21 2.679e-19)
(0.003 -9.99667e-21 3.21692e-19)
(0.003 2.27634e-19 4.58102e-19)
(0.003 1.84837e-19 2.61814e-19)
(0.003 1.69779e-19 -2.08113e-19)
(0.003 6.34733e-20 -3.59426e-19)
(0.003 -8.51828e-21 -2.68177e-19)
(0.003 -5.93484e-21 -1.30383e-19)
(0.003 -3.78146e-20 1.05078e-18)
(0.003 3.56019e-20 1.7022e-18)
(0.003 1.6853e-19 1.80086e-18)
(0.003 1.48124e-19 1.82069e-18)
(0.003 -4.14086e-20 1.91661e-18)
(0.003 7.72596e-20 2.09391e-18)
(0.003 7.52068e-20 2.01117e-18)
(0.003 2.2415e-20 1.86244e-18)
(0.003 -1.29336e-19 1.99745e-18)
(0.003 -1.9458e-19 2.14456e-18)
(0.003 -1.44927e-19 2.14999e-18)
(0.003 -1.5392e-19 2.02033e-18)
(0.003 -3.35193e-19 1.9024e-18)
(0.003 -2.81995e-19 1.64748e-18)
(0.003 -7.38741e-20 1.44007e-18)
(0.003 -9.85747e-20 1.33539e-18)
(0.003 -1.64942e-19 1.19031e-18)
(0.003 -2.25425e-19 1.10391e-18)
(0.003 -2.64686e-19 1.20605e-18)
(0.003 -1.85286e-19 1.30736e-18)
(0.003 -3.17799e-20 1.1884e-18)
(0.003 1.80325e-19 1.09457e-18)
(0.003 9.6496e-20 1.07665e-18)
(0.003 5.15656e-21 1.03836e-18)
(0.003 1.28778e-19 9.47354e-19)
(0.003 7.04653e-20 9.00446e-19)
(0.003 2.66148e-20 8.12271e-19)