/*--------------------------------*- C++ -*----------------------------------*\
| =========                 |                                                 |
| \\      /  F ield         | OpenFOAM: The Open Source CFD Toolbox           |
|  \\    /   O peration     | Version:  v2012                                 |
|   \\  /    A nd           | Website:  www.openfoam.com                      |
|    \\/     M anipulation  |                                                 |
\*---------------------------------------------------------------------------*/
FoamFile
{
    version     2.0;
    format      ascii;
    class       surfaceScalarField;
    location    "260/topAir";
    object      phi;
}
// * * * * * * * * * * * * * * * * * * * * * * * * * * * * * * * * * * * * * //

dimensions      [1 0 -1 0 0 0 0];
oriented        oriented;


internalField   nonuniform List<scalar> 
3140
(
9.467556e-06
-2.7139537e-07
7.2970605e-08
9.6351266e-06
-2.5231299e-07
8.4852192e-08
9.79996e-06
-2.405983e-07
7.5864106e-08
9.9361873e-06
-1.9569423e-07
5.9579997e-08
1.0036888e-05
-1.3877351e-07
3.8164864e-08
1.0109274e-05
-8.4055092e-08
1.1733256e-08
1.017667e-05
-3.6352861e-08
-3.0978433e-08
1.0267472e-05
9.2551242e-10
-9.1587314e-08
1.0386342e-05
5.8864509e-08
-1.7753262e-07
1.0553598e-05
1.3367451e-07
-3.006847e-07
1.077075e-05
2.5785449e-07
-4.7472136e-07
1.10132e-05
4.7155128e-07
-7.1366339e-07
1.1228249e-05
8.1083611e-07
-1.0254663e-06
1.1405183e-05
1.2375735e-06
-1.4139783e-06
1.1521151e-05
1.7322134e-06
-1.8474984e-06
1.1586834e-05
2.2197811e-06
-2.2845935e-06
1.1618017e-05
2.6491595e-06
-2.6792879e-06
1.1617028e-05
2.9996437e-06
-2.9974707e-06
1.1581446e-05
3.2665628e-06
-3.2297415e-06
1.1522912e-05
3.4453219e-06
-3.3855601e-06
1.146713e-05
3.5367558e-06
-3.4797965e-06
1.1439409e-05
3.5530039e-06
-3.5241728e-06
1.1454149e-05
3.5119031e-06
-3.5255927e-06
1.1509694e-05
3.4318474e-06
-3.4863622e-06
1.1585494e-05
3.330075e-06
-3.4047979e-06
1.1635338e-05
3.225443e-06
-3.2740656e-06
1.1567059e-05
3.1484759e-06
-3.0787295e-06
1.1199487e-05
3.1602163e-06
-2.7908879e-06
1.0168914e-05
3.3963761e-06
-2.3638531e-06
4.1987902e-06
-1.7392273e-06
9.1266993e-06
-2.0863359e-07
7.9509331e-08
9.0858459e-06
-3.1554681e-07
1.0408626e-07
9.0716214e-06
-3.370903e-07
1.1071722e-07
9.0978347e-06
-3.3505489e-07
1.1315186e-07
9.1632982e-06
-3.155325e-07
1.1130303e-07
9.2623822e-06
-2.8666405e-07
1.0353555e-07
9.3966244e-06
-2.5886384e-07
8.8279488e-08
9.5773327e-06
-2.4285913e-07
6.2820917e-08
9.829906e-06
-2.1782033e-07
2.3709032e-08
1.0175591e-05
-1.6984e-07
-4.2716897e-08
1.0644396e-05
-5.9510412e-08
-1.5219641e-07
1.1234667e-05
1.9596491e-07
-3.1553194e-07
1.1877335e-05
7.190538e-07
-5.5174397e-07
1.2458229e-05
1.5166346e-06
-8.6059423e-07
1.2912381e-05
2.4887169e-06
-1.2109636e-06
1.3220432e-05
3.451603e-06
-1.5398644e-06
1.3377929e-05
4.28042e-06
-1.7885561e-06
1.3397302e-05
4.9205722e-06
-1.9400343e-06
1.3303851e-05
5.3870742e-06
-2.0267525e-06
1.3151342e-05
5.6931211e-06
-2.0949675e-06
1.2997382e-05
5.8513615e-06
-2.1602837e-06
1.2877592e-05
5.8849976e-06
-2.2117492e-06
1.2804843e-05
5.8206646e-06
-2.2354242e-06
1.277182e-05
5.6829572e-06
-2.2173029e-06
1.2753482e-05
5.4901858e-06
-2.1407373e-06
1.2702542e-05
5.2603337e-06
-1.9825287e-06
1.2526939e-05
5.0348999e-06
-1.7088292e-06
1.2059393e-05
4.9061061e-06
-1.2756874e-06
1.1042363e-05
5.0607009e-06
-6.4411838e-07
5.7271039e-06
2.355732e-07
9.1806652e-06
-2.0177604e-07
8.1436968e-08
9.0247962e-06
-2.6757911e-07
1.0790083e-07
8.8512125e-06
-2.8076382e-07
1.1725672e-07
8.6728978e-06
-2.8080504e-07
1.2406473e-07
8.5013378e-06
-2.7367299e-07
1.2970056e-07
8.3421258e-06
-2.6131235e-07
1.3386087e-07
8.1944781e-06
-2.4850243e-07
1.3728735e-07
8.0507048e-06
-2.40644e-07
1.4155679e-07
7.9228455e-06
-2.4018524e-07
1.5022137e-07
7.8404104e-06
-2.5168626e-07
1.6427567e-07
7.8861897e-06
-2.8351368e-07
1.782113e-07
8.2004211e-06
-2.9259206e-07
1.7408597e-07
8.8551831e-06
-6.8892286e-08
1.3268796e-07
9.8330372e-06
4.9314522e-07
4.5204838e-08
1.0802299e-05
1.5679979e-06
-4.8724124e-08
1.159489e-05
2.7352159e-06
-7.5989989e-08
1.2186034e-05
3.6514358e-06
3.8117726e-08
1.2536051e-05
4.2643328e-06
3.0656238e-07
1.2668417e-05
4.655413e-06
5.9966658e-07
1.2666371e-05
4.8879731e-06
8.0755015e-07
1.2620437e-05
4.9918105e-06
9.0581153e-07
1.2576205e-05
4.9789623e-06
9.5057431e-07
1.2545097e-05
4.868979e-06
9.8309008e-07
1.2510242e-05
4.6852896e-06
1.0328149e-06
1.2441444e-05
4.4518581e-06
1.1074249e-06
1.2312439e-05
4.1945555e-06
1.1951235e-06
1.2074625e-05
3.9462048e-06
1.3269492e-06
1.1664303e-05
3.7860196e-06
1.5310097e-06
1.0955624e-05
3.8957814e-06
1.8743335e-06
4.6513426e-06
2.4688023e-06
8.9876096e-06
7.9565829e-08
8.6152438e-06
1.0478619e-07
8.221456e-06
1.1302353e-07
7.8224613e-06
1.1818925e-07
7.4268452e-06
1.2194272e-07
7.0411658e-06
1.2436657e-07
6.6659898e-06
1.2667331e-07
6.2942506e-06
1.3109493e-07
5.9127098e-06
1.4135557e-07
5.4973033e-06
1.6372027e-07
5.0043795e-06
2.0941125e-07
4.4128745e-06
2.9891612e-07
3.8815718e-06
4.6244051e-07
3.648068e-06
7.268831e-07
4.0656955e-06
1.1508844e-06
5.0327365e-06
1.7689587e-06
6.1660565e-06
2.5190517e-06
7.1751564e-06
3.256115e-06
7.9726114e-06
3.8587105e-06
8.5961642e-06
4.264995e-06
9.1037883e-06
4.4845779e-06
9.5361198e-06
4.5468548e-06
9.8948541e-06
4.5103363e-06
1.0162026e-05
4.4180984e-06
1.0317073e-05
4.2966969e-06
1.034725e-05
4.1641861e-06
1.0272718e-05
4.0204928e-06
1.0160043e-05
3.8984386e-06
1.0255191e-05
3.8004284e-06
3.6296115e-06
9.5799915e-06
-2.7076606e-07
3.2876005e-08
9.8657374e-06
-2.5251768e-07
5.1788334e-08
1.0138268e-05
-2.5222056e-07
5.5728506e-08
1.0369818e-05
-2.2372698e-07
5.1960122e-08
1.0552943e-05
-1.8771749e-07
4.2990409e-08
1.0696183e-05
-1.5928396e-07
2.805902e-08
1.0807411e-05
-1.4449741e-07
2.6654397e-09
1.0888234e-05
-1.4792867e-07
-2.397608e-08
1.0947204e-05
-1.7349658e-07
-6.234063e-08
1.0991177e-05
-2.278238e-07
-1.1598149e-07
1.1024713e-05
-3.1646733e-07
-1.9072788e-07
1.1052232e-05
-4.4668581e-07
-2.931928e-07
1.1078646e-05
-6.2082311e-07
-4.2949261e-07
1.1157625e-05
-8.811148e-07
-6.0998789e-07
1.1307162e-05
-1.1648954e-06
-8.2994395e-07
1.1539313e-05
-1.4377877e-06
-1.0763676e-06
1.1827906e-05
-1.6391613e-06
-1.3258012e-06
1.2101415e-05
-1.7085024e-06
-1.5594182e-06
1.2297803e-05
-1.6554069e-06
-1.7677352e-06
1.2402627e-05
-1.5410994e-06
-1.946481e-06
1.2447948e-05
-1.4284114e-06
-2.0941145e-06
1.2477213e-05
-1.344126e-06
-2.2069035e-06
1.2523318e-05
-1.2897929e-06
-2.2796195e-06
1.2600195e-05
-1.2541028e-06
-2.3068264e-06
1.270727e-05
-1.2249561e-06
-2.2843944e-06
1.2835025e-05
-1.1895694e-06
-2.2091806e-06
1.2955858e-05
-1.119289e-06
-2.0762706e-06
1.2997091e-05
-9.4346329e-07
-1.8834576e-06
1.2829498e-05
-5.3342953e-07
-1.656728e-06
7.0467931e-07
-1.3770466e-06
9.2514528e-06
-2.0992004e-07
3.6181011e-08
9.3591126e-06
-3.1921171e-07
6.3123058e-08
9.4882112e-06
-3.4567462e-07
7.507912e-08
9.6519194e-06
-3.5313252e-07
7.8860561e-08
9.8471884e-06
-3.4917343e-07
7.7506995e-08
1.0063092e-05
-3.4199157e-07
7.0363641e-08
1.029263e-05
-3.4144335e-07
5.5723843e-08
1.0532577e-05
-3.5622984e-07
3.1225294e-08
1.0784033e-05
-3.9479623e-07
-6.3735374e-09
1.1046941e-05
-4.685597e-07
-6.4780043e-08
1.1321738e-05
-5.9327802e-07
-1.5002493e-07
1.1619165e-05
-7.8618036e-07
-2.7324182e-07
1.195505e-05
-1.0615917e-06
-4.4655416e-07
1.2327565e-05
-1.4356303e-06
-6.7817169e-07
1.2779246e-05
-1.8613897e-06
-9.6554432e-07
1.3287448e-05
-2.2158206e-06
-1.2692454e-06
1.3779316e-05
-2.3896779e-06
-1.5291347e-06
1.4143445e-05
-2.2816473e-06
-1.7304739e-06
1.4324153e-05
-1.9654515e-06
-1.8972117e-06
1.4341972e-05
-1.6010425e-06
-2.0529556e-06
1.4273392e-05
-1.3204187e-06
-2.2000575e-06
1.4171731e-05
-1.1232221e-06
-2.331515e-06
1.4065847e-05
-9.9155752e-07
-2.4284176e-06
1.3968769e-05
-9.1237716e-07
-2.4627475e-06
1.3897415e-05
-8.8650923e-07
-2.4088256e-06
1.3907819e-05
-9.3016043e-07
-2.2536908e-06
1.4104822e-05
-1.0213279e-06
-2.0056936e-06
1.4720289e-05
-1.1544585e-06
-1.6828327e-06
1.6337406e-05
-1.3845689e-06
-1.4134788e-06
-1.430958e-06
-1.4573217e-06
9.3076372e-06
-2.0403609e-07
3.687551e-08
9.3025307e-06
-2.711305e-07
6.492576e-08
9.2812588e-06
-2.8601178e-07
7.8865553e-08
9.2566961e-06
-2.8992887e-07
8.5423779e-08
9.2384062e-06
-2.8907469e-07
8.7892039e-08
9.2294005e-06
-2.853366e-07
8.6212423e-08
9.2292194e-06
-2.8363082e-07
7.9657354e-08
9.2368694e-06
-2.8977315e-07
6.7452526e-08
9.2528319e-06
-3.0967883e-07
4.9144853e-08
9.2775779e-06
-3.5315633e-07
2.4130623e-08
9.3154483e-06
-4.3759044e-07
-1.5342559e-08
9.3869309e-06
-5.9035547e-07
-9.3223078e-08
9.5133975e-06
-8.452404e-07
-2.1014397e-07
9.72489e-06
-1.2213099e-06
-3.8063285e-07
1.0057971e-05
-1.6435894e-06
-5.995735e-07
1.0494783e-05
-1.9310979e-06
-7.9755933e-07
1.0942358e-05
-1.9461782e-06
-8.5361954e-07
1.1315728e-05
-1.6327139e-06
-7.1684936e-07
1.1532102e-05
-1.1126133e-06
-4.7124538e-07
1.1585352e-05
-5.482454e-07
-3.0042104e-07
1.1528225e-05
-8.2259981e-08
-2.7718443e-07
1.1485767e-05
1.5875122e-07
-2.8989455e-07
1.1487416e-05
2.5015918e-07
-2.6050859e-07
1.1507167e-05
2.3837811e-07
-1.3754898e-07
1.1516176e-05
1.5015332e-07
6.1784249e-08
1.1490211e-05
-1.4612065e-08
3.0482714e-07
1.1436284e-05
-2.2064268e-07
5.7907569e-07
1.1487137e-05
-5.109278e-07
8.3558238e-07
1.1890802e-05
-7.3336217e-07
8.1872194e-07
-8.9875325e-07
3.4471025e-07
9.1086326e-06
3.5848535e-08
8.8795871e-06
6.2700709e-08
8.6308661e-06
7.5732341e-08
8.3776078e-06
8.151828e-08
8.1272017e-06
8.3273663e-08
7.8851635e-06
8.1067759e-08
7.6537381e-06
7.4467592e-08
7.4318288e-06
6.3230763e-08
7.2158814e-06
4.762397e-08
6.997647e-06
2.8798058e-08
6.7596128e-06
9.854904e-09
6.4816091e-06
-1.3435148e-08
6.1420439e-06
-4.3228802e-08
5.7174674e-06
-6.9799178e-08
5.2660719e-06
-4.1114449e-08
5.0252328e-06
7.8934138e-08
5.1843706e-06
4.1398331e-07
5.570022e-06
1.2380927e-06
5.8664809e-06
2.4499612e-06
6.1595276e-06
3.4239126e-06
6.5444735e-06
4.0174627e-06
6.9553356e-06
4.2941276e-06
7.3349164e-06
4.380673e-06
7.6358786e-06
4.3549529e-06
7.8416481e-06
4.2402241e-06
7.9720953e-06
4.0188471e-06
8.1023232e-06
3.6695878e-06
8.2282957e-06
3.2616283e-06
8.6254161e-06
2.6701977e-06
1.595479e-06
9.5575512e-06
-2.7241999e-07
1.6871671e-08
9.8341682e-06
-2.5287186e-07
2.8169673e-08
1.0106123e-05
-2.4905523e-07
3.2951761e-08
1.0340968e-05
-2.1598052e-07
3.3238832e-08
1.0528609e-05
-1.7521402e-07
3.070859e-08
1.0672883e-05
-1.4211018e-07
2.603751e-08
1.077713e-05
-1.2089268e-07
1.9458974e-08
1.0852177e-05
-1.1045078e-07
1.1586672e-08
1.0901884e-05
-1.1207169e-07
1.9494629e-10
1.092668e-05
-1.2962954e-07
-1.0965344e-08
1.0928321e-05
-1.6753058e-07
-2.4648006e-08
1.0905701e-05
-2.3079986e-07
-3.9577844e-08
1.0856538e-05
-3.2641993e-07
-5.3701195e-08
1.0839268e-05
-5.2499671e-07
-6.7453836e-08
1.0881952e-05
-7.9538509e-07
-7.6852804e-08
1.1025129e-05
-1.1515087e-06
-6.761076e-08
1.1252941e-05
-1.5218828e-06
-3.1379491e-08
1.1485752e-05
-1.8188353e-06
2.6687401e-08
1.1673956e-05
-2.0273738e-06
7.1226355e-08
1.1805057e-05
-2.1712367e-06
9.3240844e-08
1.189118e-05
-2.283272e-06
1.0251156e-07
1.1960266e-05
-2.3873816e-06
1.1091645e-07
1.2030228e-05
-2.485975e-06
1.3620406e-07
1.2100829e-05
-2.5643262e-06
1.8724151e-07
1.2163876e-05
-2.6088658e-06
2.6244068e-07
1.2223018e-05
-2.6207887e-06
3.5409132e-07
1.2311068e-05
-2.6069575e-06
4.4468354e-07
1.247469e-05
-2.5179963e-06
4.73026e-07
1.2621152e-05
-2.0500419e-06
2.4846422e-07
-6.7149659e-07
-4.1350266e-07
9.2242391e-06
-2.0969202e-07
1.8184265e-08
9.3198467e-06
-3.1818595e-07
3.2830106e-08
9.44764e-06
-3.4252317e-07
4.0757062e-08
9.6139465e-06
-3.4644902e-07
4.3030397e-08
9.8127608e-06
-3.3746716e-07
4.0958088e-08
1.0030101e-05
-3.2357195e-07
3.4502154e-08
1.0255574e-05
-3.1337862e-07
2.275887e-08
1.0484753e-05
-3.1232546e-07
3.9485085e-09
1.0714168e-05
-3.2547788e-07
-2.2351035e-08
1.0940803e-05
-3.6047414e-07
-6.0535714e-08
1.1164613e-05
-4.2747301e-07
-1.1385469e-07
1.1388352e-05
-5.4139164e-07
-1.8635029e-07
1.1626377e-05
-7.3004728e-07
-2.809e-07
1.1867262e-05
-1.0476816e-06
-3.9629755e-07
1.2165537e-05
-1.5439681e-06
-5.1512382e-07
1.2510321e-05
-2.162103e-06
-6.0340505e-07
1.2785631e-05
-2.6533391e-06
-6.732357e-07
1.2887962e-05
-2.8653289e-06
-7.8679858e-07
1.282541e-05
-2.8868254e-06
-9.7584424e-07
1.263062e-05
-2.8081464e-06
-1.2219374e-06
1.23534e-05
-2.7268555e-06
-1.4798817e-06
1.2044704e-05
-2.7015952e-06
-1.7091318e-06
1.1728726e-05
-2.7222459e-06
-1.8766188e-06
1.1403244e-05
-2.7488277e-06
-1.9532851e-06
1.1057892e-05
-2.7577061e-06
-1.9154954e-06
1.0705395e-05
-2.7807391e-06
-1.7428579e-06
1.0498658e-05
-2.9123855e-06
-1.4961934e-06
1.0866211e-05
-3.1742587e-06
-1.3974534e-06
1.2394766e-05
-3.3087186e-06
-1.6855237e-06
-2.5640203e-06
-2.5118149e-06
9.2813761e-06
-2.0367546e-07
1.8442517e-08
9.265066e-06
-2.7038916e-07
3.3438611e-08
9.2434001e-06
-2.8414222e-07
4.2150177e-08
9.2233708e-06
-2.8643814e-07
4.5442143e-08
9.212784e-06
-2.8342108e-07
4.4432899e-08
9.2131298e-06
-2.7664725e-07
3.8942575e-08
9.2218416e-06
-2.7035385e-07
2.7921978e-08
9.2360017e-06
-2.6876247e-07
9.731331e-09
9.252719e-06
-2.7553294e-07
-1.7514828e-08
9.2703572e-06
-2.9647589e-07
-5.7502588e-08
9.2864002e-06
-3.4282203e-07
-1.1603325e-07
9.2872284e-06
-4.3440423e-07
-2.0103592e-07
9.2669598e-06
-6.010834e-07
-3.188368e-07
9.2197912e-06
-9.0762352e-07
-4.7351674e-07
9.1906289e-06
-1.4628529e-06
-6.5153314e-07
9.1921444e-06
-2.1806495e-06
-7.8084692e-07
9.0718856e-06
-2.5659497e-06
-8.2154338e-07
8.7656715e-06
-2.4364968e-06
-8.4021043e-07
8.4163587e-06
-2.0776975e-06
-9.3162228e-07
7.9742197e-06
-1.5596554e-06
-1.1070723e-06
7.4556868e-06
-1.1591462e-06
-1.3263059e-06
6.9259081e-06
-9.5086255e-07
-1.5105284e-06
6.4353433e-06
-9.1917578e-07
-1.5726534e-06
6.0300179e-06
-1.0191e-06
-1.4618672e-06
5.7216128e-06
-1.2269376e-06
-1.1612892e-06
5.4651606e-06
-1.5304154e-06
-6.9144273e-07
5.4142957e-06
-1.9337189e-06
-3.530785e-07
5.8964593e-06
-2.3646014e-06
-4.6167307e-07
7.1566771e-06
-2.6746258e-06
-1.0813291e-06
-2.034177e-06
-2.5606695e-06
9.0831131e-06
1.8011326e-08
8.8429473e-06
3.2476945e-08
8.5938165e-06
4.0720478e-08
8.3452775e-06
4.3618685e-08
8.1028398e-06
4.228991e-08
7.8706579e-06
3.6602016e-08
7.649223e-06
2.5548277e-08
7.4363011e-06
7.3900006e-09
7.2275646e-06
-1.9172646e-08
7.0179706e-06
-5.8083907e-08
6.7998129e-06
-1.148094e-07
6.550999e-06
-1.990254e-07
6.2325036e-06
-3.2581694e-07
5.7799553e-06
-5.2488079e-07
5.1389796e-06
-8.6310382e-07
4.3864208e-06
-1.3504396e-06
3.8272568e-06
-1.5954878e-06
3.6764088e-06
-1.0490844e-06
3.7292496e-06
3.1860696e-07
3.7886617e-06
1.8041081e-06
4.0074534e-06
2.6388184e-06
4.3168215e-06
3.0331393e-06
4.6244397e-06
3.1532843e-06
4.8254635e-06
3.1343303e-06
4.8332421e-06
3.0050265e-06
4.6498761e-06
2.6714686e-06
4.5440275e-06
1.8415351e-06
4.5396385e-06
9.0129404e-07
4.9654995e-06
-4.3704736e-07
-2.4644508e-06
9.5520529e-06
-2.7253089e-07
6.4772345e-09
9.8213608e-06
-2.522839e-07
1.1274869e-08
1.0087605e-05
-2.4676319e-07
1.3598299e-08
1.0318059e-05
-2.1093999e-07
1.3871376e-08
1.0501955e-05
-1.6567843e-07
1.2638945e-08
1.0643275e-05
-1.2533115e-07
1.0195802e-08
1.0749051e-05
-9.2769737e-08
6.6062224e-09
1.0825636e-05
-6.6889325e-08
2.0539401e-09
1.087636e-05
-4.6571681e-08
-3.7893413e-09
1.0907141e-05
-3.0737075e-08
-1.0845365e-08
1.0921903e-05
-2.0155306e-08
-1.9098674e-08
1.0927424e-05
-1.7047395e-08
-2.7916604e-08
1.0937081e-05
-2.8111838e-08
-3.5163192e-08
1.1023031e-05
-1.1253829e-07
-4.0873647e-08
1.1237599e-05
-2.5960703e-07
-3.1923236e-08
1.1552623e-05
-4.0029133e-07
1.718174e-08
1.1857458e-05
-4.2473922e-07
8.7324819e-08
1.2072455e-05
-3.6255867e-07
1.7226911e-07
1.2212005e-05
-3.298293e-07
2.5889857e-07
1.2322697e-05
-3.6882696e-07
3.4823899e-07
1.243737e-05
-4.6084272e-07
4.450506e-07
1.2570895e-05
-5.8513772e-07
5.5858303e-07
1.2722536e-05
-7.2117144e-07
7.0177211e-07
1.2870945e-05
-8.4821823e-07
8.8341922e-07
1.2994182e-05
-9.5800907e-07
1.0941388e-06
1.3072748e-05
-1.0140317e-06
1.2871118e-06
1.2988517e-05
-8.644908e-07
1.3914522e-06
1.2455208e-05
-3.2560697e-07
1.3299169e-06
1.0800833e-05
9.0371087e-07
9.9855428e-07
3.288362e-06
3.5866827e-07
9.2171277e-06
-2.0944879e-07
6.9448275e-09
9.3020191e-06
-3.1749214e-07
1.3147449e-08
9.420022e-06
-3.4075203e-07
1.6746304e-08
9.577156e-06
-3.4262932e-07
1.7593481e-08
9.7664521e-06
-3.2997679e-07
1.5972367e-08
9.9736258e-06
-3.0985782e-07
1.1871976e-08
1.0188256e-05
-2.8958456e-07
4.965587e-09
1.0404111e-05
-2.7298038e-07
-5.7884252e-09
1.0618666e-05
-2.6221974e-07
-2.1226795e-08
1.0830713e-05
-2.6073533e-07
-4.2550314e-08
1.1043462e-05
-2.7519382e-07
-7.1529802e-08
1.1269038e-05
-3.1977299e-07
-1.0916086e-07
1.1538946e-05
-4.2540999e-07
-1.5344957e-07
1.1888466e-05
-6.6417468e-07
-1.940757e-07
1.2412505e-05
-1.0924266e-06
-2.0618397e-07
1.2993382e-05
-1.4315584e-06
-1.5309213e-07
1.3388672e-05
-1.3850896e-06
-1.0858877e-07
1.3537961e-05
-1.1643902e-06
-1.3482112e-07
1.3533914e-05
-1.0839952e-06
-2.1828315e-07
1.342717e-05
-1.1392221e-06
-3.4556024e-07
1.3248477e-05
-1.2537605e-06
-5.0915602e-07
1.3024331e-05
-1.4010488e-06
-6.7007986e-07
1.274804e-05
-1.555481e-06
-7.671894e-07
1.2384991e-05
-1.6840224e-06
-7.5589475e-07
1.195377e-05
-1.7968991e-06
-6.4728613e-07
1.1615878e-05
-1.9164296e-06
-5.0518344e-07
1.1554759e-05
-1.8048667e-06
-4.9843935e-07
1.1576766e-05
-9.8534911e-07
-7.655382e-07
1.1223143e-05
8.1056284e-07
-1.2433948e-06
3.3200427e-06
-1.8725515e-06
9.2746013e-06
-2.036303e-07
6.9824174e-09
9.247637e-06
-2.7033115e-07
1.3241474e-08
9.2157248e-06
-2.8371433e-07
1.7024386e-08
9.1855873e-06
-2.8513066e-07
1.8080805e-08
9.1640639e-06
-2.8054897e-07
1.6528647e-08
9.152102e-06
-2.7113187e-07
1.2179208e-08
9.146396e-06
-2.6051829e-07
4.5628244e-09
9.1433864e-06
-2.5215752e-07
-8.0801279e-09
9.1392274e-06
-2.4854603e-07
-2.7027073e-08
9.1289483e-06
-2.5348727e-07
-5.4468505e-08
9.1072841e-06
-2.7542178e-07
-9.4137866e-08
9.0697395e-06
-3.3249042e-07
-1.5077054e-07
9.0209184e-06
-4.6692567e-07
-2.2849556e-07
8.9895293e-06
-7.8336515e-07
-3.2292505e-07
9.1195699e-06
-1.4797466e-06
-3.9427499e-07
9.1961132e-06
-1.9798674e-06
-3.0980888e-07
8.8770388e-06
-1.6733655e-06
-2.1467399e-07
8.0762161e-06
-9.2121019e-07
-2.8174743e-07
7.2848674e-06
-7.786447e-07
-4.445289e-07
6.5791169e-06
-8.4679596e-07
-6.9247071e-07
5.8713898e-06
-8.7638836e-07
-9.9417849e-07
5.1386211e-06
-9.4412901e-07
-1.2325758e-06
4.4141989e-06
-1.1202683e-06
-1.2812374e-06
3.6719966e-06
-1.3372675e-06
-1.0645787e-06
2.8642348e-06
-1.6440368e-06
-5.0588522e-07
2.3496636e-06
-2.0636567e-06
-3.2114811e-08
2.5721952e-06
-2.2815509e-06
-1.0365434e-07
3.5886734e-06
-1.5019527e-06
-9.6991984e-07
4.6772757e-06
6.4591766e-07
-2.0121508e-06
3.273407e-06
-2.914912e-06
9.0765487e-06
6.7836657e-09
8.825938e-06
1.275606e-08
8.5667051e-06
1.6238606e-08
8.3082154e-06
1.697731e-08
8.0548886e-06
1.5067282e-08
7.8100423e-06
1.0316125e-08
7.5726971e-06
2.3748249e-09
7.3395915e-06
-1.1662164e-08
7.1043154e-06
-3.2442681e-08
6.8562508e-06
-6.3506684e-08
6.5768527e-06
-1.1083304e-07
6.2305321e-06
-1.8519512e-07
5.7453945e-06
-3.0760575e-07
4.9614294e-06
-5.2429491e-07
3.5605933e-06
-9.4224479e-07
1.7070727e-06
-1.4805355e-06
-1.9525691e-07
-1.3705684e-06
-1.1117108e-06
-1.0528634e-06
-1.0147573e-06
-5.5474372e-07
-4.6426261e-07
4.0615782e-07
1.751987e-07
1.1219226e-06
7.6218961e-07
1.5011039e-06
1.1128413e-06
1.6814093e-06
1.131437e-06
1.7773862e-06
6.824355e-07
1.8084911e-06
-3.1851363e-07
1.6018662e-06
-1.4044297e-06
6.3687714e-07
-1.3727522e-06
-6.5181909e-07
1.3002509e-06
-2.486705e-06
-3.4386918e-06
9.5491009e-06
-2.7285573e-07
-6.405464e-10
9.8145797e-06
-2.5272965e-07
-1.3448961e-09
1.0077546e-05
-2.4714816e-07
-2.0935985e-09
1.0305479e-05
-2.1101678e-07
-2.9000696e-09
1.0487278e-05
-1.6521664e-07
-3.7990514e-09
1.0626597e-05
-1.2413544e-07
-4.8423139e-09
1.0730138e-05
-9.0686979e-08
-6.0971151e-09
1.0803707e-05
-6.371615e-08
-7.6408714e-09
1.0851671e-05
-4.1984534e-08
-9.6010253e-09
1.0878323e-05
-2.5264746e-08
-1.2059547e-08
1.0889309e-05
-1.4820691e-08
-1.5088714e-08
1.0894145e-05
-1.3927105e-08
-1.8655752e-08
1.0913972e-05
-3.2696968e-08
-2.2156713e-08
1.1048984e-05
-1.5205906e-07
-2.3660331e-08
1.1360009e-05
-3.2677589e-07
-1.593243e-08
1.1731191e-05
-3.5035233e-07
-3.4680093e-09
1.2011972e-05
-2.0696027e-07
1.3353982e-08
1.2190425e-05
-3.1059279e-08
2.4487784e-08
1.2321089e-05
9.7182835e-08
3.0493626e-08
1.2453683e-05
1.797314e-07
3.5197608e-08
1.2635472e-05
2.2140939e-07
4.098375e-08
1.2890673e-05
2.5335843e-07
4.8978284e-08
1.3203428e-05
3.2865245e-07
5.9123091e-08
1.3509448e-05
5.0699121e-07
6.8982682e-08
1.3705462e-05
8.2268292e-07
7.3851183e-08
1.3657867e-05
1.2627002e-06
7.0256826e-08
1.3146064e-05
1.8416932e-06
5.9662353e-08
1.1853912e-05
2.5722601e-06
4.7681545e-08
9.2651249e-06
3.545979e-06
3.8732531e-08
5.2661142e-06
3.5618479e-08
9.2130887e-06
-2.0949518e-07
-5.341215e-10
9.2923066e-06
-3.175868e-07
-1.212736e-09
9.4046306e-06
-3.4073259e-07
-1.9900536e-09
9.5563613e-06
-3.4226454e-07
-2.8819938e-09
9.7400452e-06
-3.2899193e-07
-3.9247883e-09
9.9408467e-06
-3.0786981e-07
-5.1793308e-09
1.014801e-05
-2.8611758e-07
-6.7460959e-09
1.0354682e-05
-2.6735483e-07
-8.7975769e-09
1.0556862e-05
-2.5390073e-07
-1.146295e-08
1.0753508e-05
-2.4959325e-07
-1.4841985e-08
1.0949318e-05
-2.6286377e-07
-1.9274025e-08
1.1163271e-05
-3.1261455e-07
-2.4408824e-08
1.1447347e-05
-4.4204544e-07
-2.8149556e-08
1.1869946e-05
-7.4561926e-07
-2.3050171e-08
1.2564729e-05
-1.222041e-06
-5.5799913e-09
1.3172607e-05
-1.1476167e-06
3.6223471e-08
1.3568989e-05
-7.7040969e-07
5.8237987e-08
1.3824116e-05
-4.8114888e-07
5.982782e-08
1.3998044e-05
-3.5302496e-07
5.7215416e-08
1.4100892e-05
-3.2265577e-07
5.2304718e-08
1.4191482e-05
-4.2415184e-07
4.2894478e-08
1.4320974e-05
-5.8514452e-07
3.4433994e-08
1.4525431e-05
-6.8298715e-07
3.3416563e-08
1.4824461e-05
-5.948292e-07
3.7618323e-08
1.513713e-05
-1.9004856e-07
4.0395774e-08
1.5198986e-05
6.4210896e-07
3.9176321e-08
1.4602973e-05
1.8943308e-06
3.0217725e-08
1.306303e-05
3.3064241e-06
2.6636044e-08
1.0304755e-05
5.0191279e-06
3.0850377e-08
7.1364166e-06
4.2716867e-08
9.2706036e-06
-2.0362531e-07
-5.314275e-10
9.2378236e-06
-2.7036062e-07
-1.205091e-09
9.1997635e-06
-2.8366086e-07
-1.9875612e-09
9.1633273e-06
-2.8484559e-07
-2.9021044e-09
9.1347553e-06
-2.7989109e-07
-4.0000719e-09
9.1143628e-06
-2.6992795e-07
-5.3695151e-09
9.0985042e-06
-2.5853302e-07
-7.1621173e-09
9.0816288e-06
-2.4890858e-07
-9.6493376e-09
9.0575219e-06
-2.4377151e-07
-1.3047414e-08
9.0187501e-06
-2.4742456e-07
-1.7863209e-08
8.9569537e-06
-2.7012898e-07
-2.5075224e-08
8.8654406e-06
-3.3628128e-07
-3.5592141e-08
8.7529597e-06
-5.0894e-07
-4.9125352e-08
8.7019884e-06
-9.6081772e-07
-5.6748699e-08
9.108632e-06
-1.9994772e-06
-2.3384665e-08
9.1234526e-06
-1.5194182e-06
4.7262693e-08
8.707368e-06
-6.4574641e-07
7.7600008e-08
8.1888725e-06
-2.8146085e-07
3.8573814e-08
7.4860964e-06
-8.3207409e-08
-9.5769942e-09
6.6739778e-06
-1.3294606e-07
-6.7622799e-08
5.6962327e-06
-3.3271234e-07
-1.0503609e-07
4.6167747e-06
-6.2560396e-07
-1.0981587e-07
3.6774264e-06
-9.5938817e-07
-6.2437649e-08
3.2324428e-06
-1.2320299e-06
2.0810879e-08
3.8974456e-06
-1.4431542e-06
8.5216321e-08
5.6525934e-06
-1.2019222e-06
5.7259593e-08
7.2344774e-06
1.999145e-07
6.3173603e-09
7.5659876e-06
1.9926362e-06
7.8727111e-09
6.3532527e-06
4.1591239e-06
5.5734372e-08
6.5128668e-06
1.2014102e-07
9.0726274e-06
-5.1767353e-10
8.8161936e-06
-1.1711914e-09
8.5507072e-06
-1.9363137e-09
8.2856791e-06
-2.840589e-09
8.0248015e-06
-3.9465641e-09
7.7705585e-06
-5.3692892e-09
7.5217211e-06
-7.3210617e-09
7.2713577e-06
-1.0207673e-08
7.0094655e-06
-1.4322121e-08
6.7193318e-06
-2.0797668e-08
6.3702074e-06
-3.1837498e-08
5.9002908e-06
-5.1559803e-08
5.1719111e-06
-8.816475e-08
3.8428961e-06
-1.5606085e-07
1.13283e-06
-2.3124689e-07
-1.5988342e-06
-2.730893e-07
-3.5004622e-06
-1.1446525e-07
-4.7118684e-06
-1.2142246e-07
-5.2206261e-06
-1.271957e-07
-4.8761788e-06
-6.9241813e-08
-4.128807e-06
4.2930746e-08
-3.3835535e-06
1.308306e-07
-2.8677533e-06
2.0629478e-07
-2.5760821e-06
2.5306476e-07
-2.447381e-06
2.3525468e-07
-2.1934088e-06
1.4370987e-07
-1.4763145e-06
1.1506731e-07
-3.1193999e-07
1.5177941e-07
1.1596403e-06
1.8680315e-07
3.1526505e-07
9.5490089e-06
-2.7285654e-07
-7.6657878e-09
9.814359e-06
-2.527898e-07
-1.3776502e-08
1.0077137e-05
-2.4726243e-07
-1.7484894e-08
1.0304797e-05
-2.1118554e-07
-1.9231812e-08
1.048621e-05
-1.6546339e-07
-1.9605786e-08
1.0624971e-05
-1.2450789e-07
-1.8954537e-08
1.0727689e-05
-9.1294269e-08
-1.7374459e-08
1.0799864e-05
-6.4807123e-08
-1.4856559e-08
1.0845701e-05
-4.3842119e-08
-1.1443274e-08
1.0869366e-05
-2.8225246e-08
-7.3605152e-09
1.0877424e-05
-1.9709228e-08
-3.3412936e-09
1.0881524e-05
-2.3137558e-08
3.6327204e-10
1.0909008e-05
-5.2362829e-08
2.4307954e-09
1.107568e-05
-1.9273962e-07
1.8148891e-09
1.1431267e-05
-3.6185312e-07
-9.8063936e-09
1.1796806e-05
-3.2005133e-07
-4.810709e-08
1.2059434e-05
-1.3357268e-07
-1.1396432e-07
1.2234944e-05
4.1890999e-08
-1.9157174e-07
1.2370762e-05
1.7348705e-07
-2.7773806e-07
1.2512992e-05
2.6540695e-07
-3.7148418e-07
1.2704502e-05
3.2514379e-07
-4.7469176e-07
1.2964041e-05
3.8472375e-07
-5.9416503e-07
1.3268009e-05
4.968822e-07
-7.4037087e-07
1.3546327e-05
7.1243378e-07
-9.2010672e-07
1.3701638e-05
1.0385309e-06
-1.1179309e-06
1.361347e-05
1.4581906e-06
-1.2971909e-06
1.3073604e-05
1.9934414e-06
-1.3907289e-06
1.1762868e-05
2.6754992e-06
-1.3134754e-06
9.1616555e-06
3.60935e-06
-9.6616594e-07
5.3086725e-06
-3.2533228e-07
9.2130523e-06
-2.0950119e-07
-7.9714384e-09
9.2921378e-06
-3.1761727e-07
-1.5470284e-08
9.4042327e-06
-3.4080802e-07
-2.0536256e-08
9.5556028e-06
-3.423969e-07
-2.303354e-08
9.7387211e-06
-3.2920913e-07
-2.3286317e-08
9.9386036e-06
-3.0823021e-07
-2.1324366e-08
1.0144128e-05
-2.8676241e-07
-1.6783033e-08
1.0348288e-05
-2.686512e-07
-9.0914507e-09
1.0547105e-05
-2.564303e-07
2.326898e-09
1.0738362e-05
-2.5465722e-07
2.0340231e-08
1.0927662e-05
-2.7349892e-07
4.5187227e-08
1.1137674e-05
-3.3622225e-07
7.8552426e-08
1.1433655e-05
-4.9516906e-07
1.1839748e-07
1.1913936e-05
-8.4934003e-07
1.5278937e-07
1.2673783e-05
-1.2878276e-06
1.6073923e-07
1.3239515e-05
-9.7507967e-07
1.2611727e-07
1.3637568e-05
-5.8627644e-07
1.1361308e-07
1.3923766e-05
-3.3386298e-07
1.5177833e-07
1.4140256e-05
-2.0610182e-07
2.2335051e-07
1.4285646e-05
-1.580685e-07
3.3355539e-07
1.4431475e-05
-2.583203e-07
4.84181e-07
1.4625273e-05
-4.0685772e-07
6.3741856e-07
1.4892938e-05
-4.6684252e-07
7.3765435e-07
1.5203781e-05
-2.9470091e-07
7.4617321e-07
1.5448913e-05
1.8143323e-07
6.6809396e-07
1.5392639e-05
1.031841e-06
5.4046606e-07
1.4740266e-05
2.1657642e-06
5.3069478e-07
1.3170103e-05
3.4823849e-06
8.10407e-07
1.0407263e-05
5.1289546e-06
1.2931331e-06
7.2328819e-06
1.9186706e-06
9.2705561e-06
-2.0363195e-07
-7.9970902e-09
9.2376526e-06
-2.7037926e-07
-1.5539965e-08
9.1993584e-06
-2.8370319e-07
-2.0798535e-08
9.1625253e-06
-2.8492276e-07
-2.3543306e-08
9.1332798e-06
-2.800198e-07
-2.3943773e-08
9.1116825e-06
-2.7014642e-07
-2.1855511e-08
9.0934329e-06
-2.5895184e-07
-1.6722133e-08
9.0728244e-06
-2.4987146e-07
-7.8191335e-09
9.0425934e-06
-2.4570164e-07
6.4562874e-09
8.9923306e-06
-2.5177858e-07
2.9521333e-08
8.9105407e-06
-2.8053533e-07
6.3746181e-08
8.7869349e-06
-3.6272808e-07
1.1449876e-07
8.6379533e-06
-5.8092303e-07
1.8555181e-07
8.625766e-06
-1.1607758e-06
2.6692055e-07
9.2822045e-06
-2.2625595e-06
2.9778793e-07
9.0573116e-06
-9.2443234e-07
2.2299483e-07
8.7588657e-06
-4.0388135e-07
1.9338822e-07
8.265294e-06
-6.781896e-08
2.6492842e-07
7.5872993e-06
5.0894696e-08
4.0999551e-07
6.761637e-06
-4.730831e-08
6.4588237e-07
5.71646e-06
-2.5113381e-07
9.3107512e-07
4.564275e-06
-5.4069942e-07
1.1730008e-06
3.5937821e-06
-8.408916e-07
1.277126e-06
3.2624593e-06
-1.1040073e-06
1.1546858e-06
4.1062385e-06
-1.2690903e-06
6.8503633e-07
5.9858158e-06
-9.6672297e-07
1.7139367e-07
7.6249783e-06
3.050872e-07
2.3311695e-07
7.9559402e-06
2.0910141e-06
1.081323e-06
6.8299395e-06
4.2314015e-06
2.0973244e-06
6.7333318e-06
2.9888123e-06
9.0725693e-06
-7.76752e-09
8.8160011e-06
-1.4982663e-08
8.5502628e-06
-1.9901642e-08
8.2847936e-06
-2.2294606e-08
8.0231374e-06
-2.2310582e-08
7.7674144e-06
-1.9793056e-08
7.5153183e-06
-1.417716e-08
7.2601262e-06
-4.8872623e-09
6.9889195e-06
1.1182879e-08
6.6793137e-06
3.7029669e-08
6.2892756e-06
7.7665959e-08
5.7308639e-06
1.4412664e-07
4.8039742e-06
2.5784075e-07
3.0219406e-06
4.66022e-07
-3.3345821e-07
8.7485718e-07
-2.8849825e-06
1.35691e-06
-4.5429189e-06
1.1386135e-06
-5.5591802e-06
8.2481549e-07
-5.909813e-06
2.7134611e-07
-5.5536048e-06
-4.7620928e-07
-4.8026275e-06
-9.6227529e-07
-4.0198548e-06
-1.1957316e-06
-3.3818931e-06
-1.2760021e-06
-2.9090878e-06
-1.3277116e-06
-2.5573782e-06
-1.3899165e-06
-2.0198915e-06
-1.3649528e-06
-1.1381224e-06
-4.6784528e-07
1.8451065e-07
9.0767995e-07
1.8809642e-06
2.7286068e-06
3.6586136e-06
9.5517818e-06
-2.7248518e-07
-1.7835606e-08
9.820715e-06
-2.5234336e-07
-3.0239546e-08
1.008645e-05
-2.4692879e-07
-3.6168107e-08
1.0316234e-05
-2.1122979e-07
-3.7646026e-08
1.0499283e-05
-1.6613744e-07
-3.637693e-08
1.0639554e-05
-1.2602881e-07
-3.3059564e-08
1.0744061e-05
-9.3793333e-08
-2.7945007e-08
1.0819193e-05
-6.8310939e-08
-2.1527523e-08
1.0869633e-05
-4.8544627e-08
-1.3191677e-08
1.0897836e-05
-3.4648888e-08
-7.8092623e-10
1.0910729e-05
-2.6961201e-08
1.0815246e-08
1.0915503e-05
-2.8630204e-08
2.4210916e-08
1.0929161e-05
-4.878125e-08
3.73432e-08
1.1032797e-05
-1.5224175e-07
4.9899833e-08
1.1281161e-05
-3.1492901e-07
5.5987641e-08
1.1611632e-05
-4.1885736e-07
3.9604631e-08
1.1890282e-05
-3.7767585e-07
-1.4988034e-08
1.206898e-05
-2.887944e-07
-8.0787768e-08
1.2191602e-05
-2.6105068e-07
-1.3786751e-07
1.2297038e-05
-3.1151806e-07
-1.6311654e-07
1.241598e-05
-4.1828451e-07
-1.720723e-07
1.2561474e-05
-5.5354903e-07
-1.8175617e-07
1.2720898e-05
-6.8693908e-07
-2.0746869e-07
1.2860024e-05
-7.9554048e-07
-2.5738347e-07
1.295615e-05
-8.8018456e-07
-3.2666973e-07
1.3007575e-05