/*--------------------------------*- C++ -*----------------------------------*\
| =========                 |                                                 |
| \\      /  F ield         | OpenFOAM: The Open Source CFD Toolbox           |
|  \\    /   O peration     | Version:  v2012                                 |
|   \\  /    A nd           | Website:  www.openfoam.com                      |
|    \\/     M anipulation  |                                                 |
\*---------------------------------------------------------------------------*/
FoamFile
{
    version     2.0;
    format      ascii;
    class       volScalarField;
    location    "260/topAir";
    object      T;
}
// * * * * * * * * * * * * * * * * * * * * * * * * * * * * * * * * * * * * * //

dimensions      [0 0 0 1 0 0 0];


internalField   nonuniform List<scalar> 
1200
(
320.82998
340.14673
357.63438
373.76104
388.92536
403.38289
417.26316
430.54852
442.87771
454.23827
464.55688
473.68847
481.31684
483.39775
483.66891
481.99727
478.6219
474.17466
469.41643
464.9491
461.1129
458.04234
455.75849
454.24764
453.50695
453.56883
454.53817
456.67101
460.53017
466.8768
300.4494
301.29881
302.46404
303.89452
305.55407
307.41575
309.45442
311.67275
314.73178
318.83744
324.57708
332.54508
343.04722
355.02786
367.28378
378.41074
387.56331
394.58723
399.66385
403.01983
404.94564
405.84871
406.17978
406.37189
406.82362
407.92862
410.16041
414.24335
421.49398
433.3468
300.01
300.03827
300.09078
300.17268
300.28841
300.4418
300.63598
300.87427
301.17491
301.55964
302.08154
303.47486
307.37795
314.88209
325.63967
338.28126
351.41919
363.55742
374.04467
382.6072
389.21041
394.03477
397.41812
399.77243
401.51745
403.05415
404.79314
407.25728
411.36883
418.56681
300.00024
300.00117
300.00342
300.00783
300.01546
300.0276
300.04576
300.07177
300.10829
300.15933
300.23361
300.37977
300.81915
303.23034
310.58156
321.95673
334.42575
346.38261
357.30606
366.9548
375.15585
381.8439
387.11085
391.17662
394.32467
396.85367
399.06415
401.31273
404.18256
408.65167
320.82727
339.93696
357.01906
372.54453
386.88501
400.24491
412.69966
424.21749
434.67216
443.83141
451.38968
456.98341
460.19743
456.6082
450.93867
443.87749
436.492
429.97892
424.99575
421.5321
419.21848
417.68985
416.72562
416.2718
416.38287
417.16739
418.8251
421.81538
427.18013
435.81001
300.44884
301.28236
302.40328
303.7518
305.28209
306.95608
308.73624
310.57912
312.43688
314.24398
315.92406
317.3794
318.50515
319.13135
319.28449
319.22552
319.38616
320.19224
321.6847
323.64794
325.8736
328.30535
330.96106
333.907
337.23059
341.0118
345.29129
350.05034
355.4078
364.23159
300.00996
300.03748
300.08726
300.16288
300.26683
300.40072
300.56509
300.75919
300.98092
301.22596
301.48743
301.77127
302.09804
302.45682
303.04137
304.44367
307.26343
312.02572
318.05633
324.34724
330.14662
335.82389
341.43159
347.00557
352.55466
358.06549
364.02256
370.58313
377.75244
385.76987
300.00024
300.00114
300.00324
300.00722
300.01387
300.02409
300.03883
300.05913
300.08606
300.12084
300.16532
300.22631
300.34233
300.79738
302.68821
307.77576
316.69523
327.90326
339.50144
350.51438
360.27463
368.05866
374.265
379.41554
383.88474
387.87261
391.15853
394.06316
396.96311
400.18545
320.82786
339.976
357.11109
372.70248
387.12802
400.60153
413.22487
425.045
436.0426
446.12121
455.10647
462.73886
468.53719
466.80258
462.20171
454.51301
444.69063
434.50932
425.33387
417.70505
411.66397
407.04321
403.70103
401.60547
400.77736
401.20464
402.84226
405.80483
411.10765
422.53776
300.44894
301.28536
302.41156
303.76683
305.30562
306.9916
308.79192
310.67359
312.59916
314.51948
316.36874
318.05611
319.44541
320.25109
320.2762
319.62209
318.97941
318.97651
319.76928
321.30625
323.4481
326.1244
329.39976
333.40592
338.23521
343.90068
350.38216
357.5767
365.93786
377.02195
300.00997
300.03761
300.08767
300.16365
300.26796
300.40208
300.56663
300.76116
300.98398
301.2314
301.4964
301.76653
302.02131
302.2265
302.38651
303.04532
305.31145
308.96766
313.21729
317.81881
322.53066
327.51523
333.27394
340.15072
348.08357
356.61694
365.12853
373.17177
380.91245
390.78315
300.00024
300.00114
300.00326
300.00725
300.01391
300.02408
300.03867
300.05863
300.0849
300.11837
300.15986
300.21018
300.27142
300.36226
300.69041
303.16985
310.29
319.15225
327.47574
338.1979
348.97755
358.15116
365.5392
371.58095
376.7277
381.288
385.30795
388.84741
393.058
401.09669
320.8302
339.9929
357.16063
372.80728
387.32479
400.95368
413.83862
426.07447
437.72532
448.83405
459.40791
469.3974
478.47857
480.02046
479.58336
477.681
476.13596
475.96554
476.53233
476.96931
476.75037
475.64036
473.6314
470.94355
467.90647
465.16707
464.32765
467.8963
475.07514
484.79505
300.44903
301.28659
302.41633
303.77869
305.33004
307.03769
308.87506
310.81897
312.84707
314.93365
317.04221
319.10892
321.00269
322.36252
322.91491
323.11377
323.75478
324.87174
326.24579
327.82953
329.72587
332.09507
335.15418
339.11256
344.1
350.26015
357.54045
365.34431
381.50569
412.46348
300.00997
300.03767
300.08793
300.1644
300.26966
300.40554
300.57317
300.77304
301.00486
301.26717
301.55612
301.86238
302.16361
302.41428
302.6926
304.59409
308.57893
312.25912
315.32472
318.50495
322.53558
327.86022
334.96017
343.75857
353.76201
365.15291
377.0665
385.266
392.52879
410.37938
300.00024
300.00115
300.00327
300.0073
300.01402
300.02434
300.0392
300.05964
300.08675
300.12166
300.16557
300.21978
300.2876
300.41065
301.25214
309.85839
326.09422
339.17757
338.81896
339.90012
347.70646
355.99105
362.49263
368.30396
373.89227
380.93263
390.7685
398.70728
406.48871
416.00621
320.82926
339.99546
357.17131
372.83012
387.36473
401.01782
413.93702
426.22182
437.94133
449.13824
459.81554
469.90187
478.95712
478.55592
476.13167
474.07925
474.59762
478.25269
482.77397
487.50373
492.20197
496.63266
500.56096
503.77792
506.15988
507.80215
509.19551
511.34204
515.55809
523.68848
300.44902
301.287
302.41811
303.78315
305.33891
307.05332
308.90083
310.85971
312.90953
315.02643
317.17284
319.27467
321.16468
322.38573
322.76436
323.57111
324.95259
326.67609
329.54772
333.28517
337.35177
341.69112
346.94381
354.16469
364.20312
377.11439
392.87371
411.73957
434.74195
464.65566
300.00997
300.03769
300.08804
300.16474
300.27045
300.4071
300.57601
300.77789
301.01282
301.27978
301.57509
301.88804
302.18983
302.42898
302.96487
307.22197
310.81
313.16219
314.85185
317.01431
320.57201
326.44558
335.15264
345.97055
357.03274
366.10721
374.25507
387.07813
406.96078
437.23851
300.00024
300.00115
300.00328
300.00732
300.01409
300.02448
300.03949
300.0602
300.08778
300.1235
300.16879
300.22548
300.30045
300.49912
302.62157
327.87548
346.47376
350.43561
352.50431
354.39039
357.57404
362.37751
367.66545
373.27202
379.09775
385.02802
390.09384
393.82261
408.58926
430.35322
320.8252
339.98766
357.15968
372.81408
387.34304
400.9884
413.89651
426.16595
437.86571
449.03573
459.66879
469.66275
478.49723
477.63896
474.89047
473.28827
474.60066
478.50878
482.93228
487.57387
492.17311
496.4783
500.25813
503.32996
505.61293
507.19323
508.51832
510.59672
514.76091
522.84793
300.44893
301.28675
302.41763
303.78239
305.33777
307.05166
308.89837
310.85588
312.90321
315.01482
317.14912
319.22086
321.03717
322.11811
322.48987
323.55726
325.10961
327.29683
330.90658
335.39837
340.2519
345.42654
351.54772
359.56082
369.94261
382.49318
397.32047
414.82032
436.25116
464.60657
300.00997
300.03768
300.08803
300.16471
300.2704
300.40704
300.57592
300.77776
301.01261
301.27928
301.57359
301.8831
302.17445
302.41411
303.58385
308.09106
311.10223
312.83195
314.43606
316.56858
320.27533
326.5075
335.69979
347.11464
358.44858
367.82932
376.44581
388.76919
407.4546
435.91709
300.00024
300.00115
300.00328
300.00732
300.01408
300.02448
300.03949
300.06022
300.08783
300.12362
300.1691
300.2264
300.30753
300.64837
306.03243
343.06258
351.12962
353.92867
355.82127
357.91724
361.01346
365.2996
369.97345
374.73393
379.47524
384.12591
388.7585
392.5783
406.43185
426.82792
320.82051
339.9738
357.13164
372.76674
387.27003
400.88089
413.74387
425.95562
437.57932
448.64449
459.14737
469.01225
477.85366
478.92736
477.89696
475.92524
474.99822
475.4684
476.40724
476.94445
476.57336
475.15309
472.87944
470.14674
467.30965
464.74265
463.79102
467.18054
474.18569
483.73646
300.44882
301.28599
302.41519
303.77685
305.32732
307.03379
308.86955
310.81121
312.83588
314.91618
317.01127
319.04821
320.87658
322.10908
322.52171
322.89153
323.82383
325.11682
326.59455
328.26281
330.26219
332.80739
336.13649
340.40392
345.59871
351.7079
358.90455
366.75448
382.68261
412.83415
300.00997
300.03765
300.08789
300.16433
300.26956
300.40539
300.57297
300.77277
301.00449
301.26653
301.55457
301.85791
302.1508
302.38698
302.78628
305.63646
309.80277
312.98763
315.81704
319.04347
323.32916
329.15145
336.83515
346.04235
355.86066
365.86544
376.82576
385.02658
392.31416
409.34413
300.00024
300.00115
300.00327
300.0073
300.01402
300.02433
300.0392
300.05967
300.08682
300.12182
300.16591
300.2205
300.2904
300.45082
301.98661
315.65351
334.90205
341.20373
340.21385
342.48437
349.38825
357.05705
363.40285
368.75437
373.73111
379.08018
388.87964
397.41942
405.29593
413.37096
320.81395
339.94838
357.06896
372.64374
387.05071
400.50409
413.10822
424.90591
435.88021
445.94121
454.90078
462.48009
468.16277
466.188
461.20647
453.19668
443.39729
433.55524
424.69043
417.23578
411.24693
406.63954
403.36939
401.45635
400.90112
401.61037
403.48009
406.62207
412.06374
423.58858
300.44864
301.2845
302.40992
303.76423
305.30186
306.98651
308.78539
310.66532
312.58854
314.50507
316.34642
318.01701
319.37039
320.10537
320.02749
319.37473
318.93232
319.13841
320.08276
321.72295
323.96394
326.7853
330.27392
334.5295
339.55738
345.28433
351.70137
358.72968
366.82715
377.56219
300.00996
300.03759
300.08762
300.16356
300.26782
300.4019
300.56642
300.76097
300.98379
301.23117
301.4959
301.76454
302.01502
302.21124
302.39002
303.40332
306.2631
310.04627
314.25515
318.80442
323.57059
328.80016
334.9364
342.12801
350.07268
358.22156
366.25193
373.82778
381.10023
390.35337
300.00024
300.00114
300.00326
300.00725
300.01391
300.02408
300.03868
300.05868
300.085
300.11859
300.16028
300.21092
300.27298
300.37288
300.85467
304.76524
313.80634
321.54188
329.41116
339.81439
350.16785
358.95142
366.05057
371.88624
376.85683
381.1692
384.97236
388.34423
392.52913
400.18949
320.80919
339.90095
356.96381
372.4674
386.78351
400.11666
412.5447
424.04504
434.4907
443.64436
451.1973
456.77586
459.94322
456.23371
450.35504
443.03819
435.48209
428.9435
424.01945
420.62281
418.34252
416.81493
415.8544
415.44615
415.66021
416.59556
418.42103
421.56861
427.07802
435.79282
300.44845
301.28123
302.40113
303.74837
305.27712
306.94937
308.72769
310.56876
312.425
314.22963
315.90617
317.35412
318.46366
319.0556
319.15342
319.05003
319.24052
320.14289
321.74471
323.80336
326.11433
328.63537
331.399
334.47212
337.92221
341.79502
346.11469
350.85289
356.1175
364.6915
300.00995
300.03745
300.08719
300.16276
300.26665
300.40048
300.56485
300.75899
300.98084
301.22608
301.48758
301.77019
302.09308
302.43971
303.01937
304.46474
307.46312
312.45979
318.63211
324.95849
330.72698
336.30922
341.78976
347.21454
352.60941
358.097
364.0184
370.46621
377.48698
385.32678
300.00024
300.00114
300.00324
300.00722
300.01387
300.02409
300.03885
300.05919
300.0862
300.12113
300.16582
300.22699
300.34241
300.78609
302.62311
307.67455
316.67215
327.98629
339.70806
350.7984
360.54964
368.3223
374.50742
379.65298
384.09397
387.89412
391.03579
393.81953
396.60023
399.69263
320.8092
340.10535
357.57092
373.6731
388.81147
403.24364
417.10366
430.38592
442.72549
454.10183
464.43842
473.58584
481.21939
483.27193
483.47614
481.69836
478.2076
473.66934
468.85021
464.33979
460.46508
457.35656
455.04357
453.52708
452.8135
452.93258
453.9742
456.17674
460.08816
466.44741
300.44895
301.29751
302.46153
303.89049
305.54826
307.40805
309.44462
311.64614
314.67431
318.74382
324.43125
332.36675
342.84335
354.80708
367.0498
378.18308
387.39632
394.52092
399.68243
403.07056
404.97741
405.8369
406.13099
406.31015
406.7663
407.86723
410.06002
414.05555
421.16033
432.90166
300.00999
300.03824
300.0907
300.17253
300.28818
300.4415
300.63564
300.87356
301.17331
301.55661
302.07495
303.41665
307.23381
314.67855
325.37421
337.98263
351.12728
363.3267
373.9043
382.54255
389.18268
394.00565
397.36583
399.69302
401.41526
402.93036
404.63634
407.04158
411.05242
418.12655
300.00024
300.00117
300.00342
300.00783
300.01545
300.02759
300.04578
300.07183
300.10841
300.15955
300.23393
300.37882
300.8144
303.16968
310.48122
321.83228
334.27357
346.24747
357.23557
366.95132
375.18645
381.86952
387.105
391.12882
394.23449
396.7215
398.8871
401.07936
403.86625
408.21765
)
;

boundaryField
{
    maxY
    {
        type            zeroGradient;
    }
    minX
    {
        type            fixedValue;
        value           uniform 300;
    }
    maxX
    {
        type            inletOutlet;
        inletValue      uniform 300;
        value           nonuniform List<scalar> 
40
(
466.85461
433.32179
418.561
408.65291
435.76604
364.22901
385.76841
400.17913
422.55312
377.0546
390.87539
401.31783
484.84771
412.46811
410.41393
415.79532
523.74881
464.74687
437.29151
430.14283
522.80979
464.3738
435.67189
426.37436
483.68499
412.55293
409.22735
413.05807
423.57319
377.55585
390.43069
400.50156
435.72808
364.65258
385.29399
399.66796
466.40274
432.84665
418.09853
408.20243
)
;
    }
    minZ
    {
        type            zeroGradient;
    }
    maxZ
    {
        type            zeroGradient;
    }
    topAir_to_rightSolid
    {
        type            compressible::turbulentTemperatureCoupledBaffleMixed;
        refValue        nonuniform List<scalar> 
130
(
718.27835
725.49894
732.99292
740.3733
747.353
753.73357
759.39088
764.26895
768.34591
771.6237
774.08873
775.73655
776.56321
713.063
721.47548
730.01304
738.23071
745.84422
752.69
758.67044
763.76441
767.97936
771.33957
773.85958
775.5402
776.38496
702.55731
713.72002
724.49814
734.39731
743.21466
750.89631
757.44851
762.92222
767.37849
770.87747
773.47347
775.2008
776.06448
686.76271
703.17037
717.58921
729.89206
740.26852
748.95033
756.14639
762.02551
766.73969
770.39912
773.08827
774.86154
775.74413
667.9251
692.99811
711.77577
726.42007
738.10639
747.54664
755.19708
761.35699
766.25018
770.02184
772.77574
774.5824
775.47574
667.71069
692.75577
711.53289
726.18872
737.87161
747.30853
754.96278
761.14056
766.05171
769.83391
772.59631
774.4159
775.31431
686.20615
702.51163
716.89946
729.20381
739.56719
748.23815
755.44036
761.35542
766.11976
769.80931
772.52533
774.33408
775.22611
701.90368
712.89619
723.53456
733.33062
742.0834
749.74436
756.30774
761.8219
766.33861
769.88532
772.52072
774.28678
775.16136
712.35594
720.5505
728.88893
736.94493
744.44208
751.22096
757.20396
762.34142
766.61329
770.01355
772.5601
774.26552
775.12043
717.54908
724.52972
731.80057
738.99683
745.84049
752.13873
757.77277
762.67199
766.79521
770.10735
772.60129
774.27445
775.11666
)
;
        refGradient     uniform 0;
        valueFraction   uniform 0.99967867;
        value           nonuniform List<scalar> 
130
(
718.19991
725.41665
732.90678
740.28356
747.26003
753.63782
759.29283
764.16909
768.24476
771.52181
773.98673
775.63526
776.4637
712.97202
721.3802
729.91391
738.1282
745.73877
752.58204
758.56041
763.65278
767.86663
771.22628
773.74644
775.42824
776.27551
702.47117
713.62735
724.39956
734.29361
743.10664
750.78475
757.33417
762.80585
767.26082
770.7592
773.35532
775.0838
775.95089
686.69499
703.09756
717.51191
729.81073
740.18351
748.86188
756.05476
761.93101
766.64279
770.30078
772.99021
774.76522
775.65065
667.86416
692.93057
711.70371
726.34482
738.02881
747.46729
755.1163
761.27499
766.16714
769.93804
772.69174
774.49918
775.39485
667.64988
692.68834
711.46092
726.11352
737.79404
747.22914
754.88192
761.05844
765.96852
769.74993
772.5121
774.33245
775.23318
686.13844
702.43897
716.82235
729.12262
739.48221
748.14964
755.34866
761.2609
766.02288
769.71093
772.42715
774.23759
775.13243
701.81745
712.80357
723.43613
733.22712
741.9756
749.63305
756.19371
761.70592
766.2214
769.76757
772.40314
774.17037
775.04839
712.26487
720.4552
728.78987
736.84254
744.33679
751.11318
757.09414
762.23001
766.5008
769.90055
772.44729
774.15393
775.01138
717.47071
724.44756
731.71462
738.90732
745.74778
752.04326
757.675
762.57242
766.69435
770.00576
772.4996
774.17348
775.01746
)
;
        Tnbr            T;
        thicknessLayers List<scalar> 0();
        kappaLayers     List<scalar> 0();
        kappaMethod     fluidThermo;
        kappa           none;
        alphaAni        none;
        alpha           none;
        field           T;
    }
    topAir_to_heater
    {
        type            compressible::turbulentTemperatureCoupledBaffleMixed;
        refValue        nonuniform List<scalar> 
40
(
701.05688
702.91998
706.56931
711.80616
692.67358
694.83867
699.16348
705.40014
674.97052
677.77745
683.51479
692.00317
645.92621
649.51511
657.25647
669.75123
603.39356
606.58503
615.14879
632.51703
603.38031
606.54322
615.06258
632.37367
645.85754
649.37152
656.98915
669.34194
674.77716
677.55446
683.17782
691.51543
692.48824
694.60065
698.80899
704.88691
700.89429
702.6583
706.19741
711.28583
)
;
        refGradient     uniform 0;
        valueFraction   uniform 0.99967867;
        value           nonuniform List<scalar> 
40
(
700.98694
702.84953
706.49715
711.73123
692.59771
694.76029
699.08144
705.31372
674.90363
677.70818
683.4412
691.9237
645.8729
649.46051
657.19877
669.68902
603.35345
606.54311
615.10346
632.46629
603.33991
606.50092
615.01702
632.32297
645.8039
649.31642
656.93097
669.27949
674.71014
677.48494
683.10392
691.43571
692.41232
694.52216
698.7268
704.80034
700.82436
702.58787
706.12527
711.21094
)
;
        Tnbr            T;
        thicknessLayers List<scalar> 0();
        kappaLayers     List<scalar> 0();
        kappaMethod     fluidThermo;
        kappa           none;
        alphaAni        none;
        alpha           none;
        field           T;
    }
    topAir_to_leftSolid
    {
        type            compressible::turbulentTemperatureCoupledBaffleMixed;
        refValue        nonuniform List<scalar> 
130
(
810.80212
810.79019
810.75025
810.67384
810.55545
810.3801
810.12911
809.78971
809.38179
809.02373
808.72738
808.49502
808.36232
810.85039
810.83263
810.78407
810.69384
810.56299
810.37974
810.1263
809.79365
809.40606
809.03651
808.7108
808.4432
808.2975
810.91398
810.88672
810.82081
810.70928
810.54929
810.34056
810.07721
809.73703
809.35766
808.9653
808.61164
808.30686
808.12851
810.97039
810.93003
810.84194
810.69982
810.50678
810.26197
809.96449
809.59867
809.18947
808.75335
808.33126
807.95909
807.72857
810.95908
810.91621
810.81316
810.645
810.41917
810.13448
809.79001
809.38007
808.90057
808.41954
808.00351
807.68084
807.47948
810.85879
810.81628
810.70546
810.51995
810.26505
809.93847
809.54019
809.11383
808.68922
808.29091
807.94448
807.67602
807.50906
810.73002
810.67239
810.54859
810.34956
810.08499
809.75472
809.39177
809.03933
808.69699
808.37227
808.09256
807.87764
807.73938
810.56848
810.50675
810.37899
810.18037
809.93995
809.65208
809.35814
809.07345
808.7961
808.52269
808.28737
808.10591
807.99572
810.40184
810.34229
810.21224
810.02331
809.82119
809.60231
809.37013
809.13532
808.90315
808.67434
808.47519
808.32048
808.22863
810.2869
810.23119
810.10788
809.942
809.7672
809.58353
809.38886
809.18444
808.97674
808.77277
808.59499
808.45868
808.37982
)
;
        refGradient     uniform 0;
        valueFraction   uniform 0.99967867;
        value           nonuniform List<scalar> 
130
(
810.64468
810.63896
810.60465
810.53345
810.41997
810.24932
810.00287
809.66785
809.26402
808.90973
808.61678
808.38743
808.25723
810.69293
810.68132
810.63826
810.55305
810.42685
810.24795
809.9986
809.66976
809.28565
808.91916
808.59598
808.33026
808.18564
810.75651
810.73541
810.67502
810.56854
810.41323
810.2089
809.94969
809.61342
809.2377
808.8487
808.49805
808.19582
808.01939
810.8129
810.77871
810.69616
810.55911
810.3708
810.13045
809.8372
809.47544
809.0701
808.6377
808.21914
807.8503
807.62278
810.80159
810.76489
810.6674
810.50431
810.28323
810.00302
809.66282
809.25695
808.78137
808.3041
807.89163
807.5723
807.37391
810.70133
810.66499
810.55973
810.3793
810.12915
809.80706
809.41306
808.99078
808.57007
808.17548
807.83257
807.56741
807.40334
810.5726
810.52114
810.40289
810.20895
809.94913
809.62334
809.26463
808.91623
808.57774
808.25668
807.98043
807.76876
807.63338
810.41111
810.35554
810.23333
810.03978
809.80407
809.52061
809.23082
808.95001
808.67627
808.40618
808.17382
807.99485
807.88653
810.24452
810.19113
810.0666
809.88271
809.68526
809.47073
809.24262
809.01158
808.78284
808.55704
808.36038
808.20752
808.11671
810.12962
810.08012
809.96247
809.80182
809.63194
809.45296
809.26281
809.06272
808.85905
808.65881
808.4844
808.35108
808.2747
)
;
        Tnbr            T;
        thicknessLayers List<scalar> 0();
        kappaLayers     List<scalar> 0();
        kappaMethod     fluidThermo;
        kappa           none;
        alphaAni        none;
        alpha           none;
        field           T;
    }
}


// ************************************************************************* //
