/*--------------------------------*- C++ -*----------------------------------*\
| =========                 |                                                 |
| \\      /  F ield         | OpenFOAM: The Open Source CFD Toolbox           |
|  \\    /   O peration     | Version:  v2012                                 |
|   \\  /    A nd           | Website:  www.openfoam.com                      |
|    \\/     M anipulation  |                                                 |
\*---------------------------------------------------------------------------*/
FoamFile
{
    version     2.0;
    format      ascii;
    class       volVectorField;
    location    "260/topAir";
    object      U;
}
// * * * * * * * * * * * * * * * * * * * * * * * * * * * * * * * * * * * * * //

dimensions      [0 1 -1 0 0 0 0];


internalField   nonuniform List<vector> 
1200
(
(0.1035154 -0.0021817507 0.00087776988)
(0.11519526 -0.0023358321 0.0013094537)
(0.12524976 -0.0022113835 0.0013950111)
(0.13305927 -0.0017746651 0.0012806005)
(0.13985032 -0.001078752 0.00098412197)
(0.14618188 -0.00027258538 0.00047015499)
(0.15222792 0.0005603671 -0.00029315779)
(0.15824832 0.0013518743 -0.0013895776)
(0.16438707 0.0021526388 -0.0030364198)
(0.17090122 0.0031127019 -0.0055007574)
(0.17797661 0.0044818183 -0.0091163405)
(0.18543535 0.0066095527 -0.014256421)
(0.19220656 0.0099112481 -0.02121198)
(0.19703033 0.014128772 -0.030004656)
(0.19964075 0.019141941 -0.04020879)
(0.200401 0.024205624 -0.050979166)
(0.19978359 0.028629682 -0.06123672)
(0.19822019 0.032091343 -0.070013613)
(0.19598306 0.034537678 -0.076799838)
(0.19333292 0.035970313 -0.081568133)
(0.1907031 0.036439024 -0.084573369)
(0.18862084 0.036103723 -0.086139716)
(0.18748182 0.035186332 -0.086541016)
(0.18740981 0.033914388 -0.085959922)
(0.18822221 0.032506526 -0.084482988)
(0.189402 0.031214931 -0.082076946)
(0.18993431 0.030457322 -0.078515374)
(0.18788093 0.031083399 -0.073268597)
(0.1800102 0.035052233 -0.065399472)
(0.1376273 0.048375491 -0.052818363)
(0.098729147 -0.0034737113 0.00085947159)
(0.098470307 -0.0043172097 0.0012935028)
(0.098675908 -0.0044502257 0.001476561)
(0.099225459 -0.0040900753 0.0015673253)
(0.10023917 -0.0034081628 0.0015966017)
(0.10175195 -0.0026211019 0.0015540479)
(0.10373493 -0.0018635615 0.0014224931)
(0.10621904 -0.0012658462 0.0011648317)
(0.10966353 -0.00057648027 0.00068547461)
(0.11444326 0.00052412821 -0.00017279083)
(0.12127885 0.0026779956 -0.0016529685)
(0.13067021 0.0068667634 -0.0041091973)
(0.14250359 0.014054389 -0.0080098922)
(0.15549638 0.023801895 -0.013664654)
(0.16784765 0.035502419 -0.02094824)
(0.17815112 0.047491075 -0.029087786)
(0.18570611 0.05834855 -0.037009988)
(0.19034281 0.067538731 -0.043846773)
(0.19223928 0.074881946 -0.049291896)
(0.19196353 0.080109124 -0.053412028)
(0.19047286 0.083082518 -0.056378187)
(0.18874411 0.08405258 -0.058292697)
(0.18741944 0.083502026 -0.059198125)
(0.18674559 0.081947419 -0.059116337)
(0.18664958 0.079822878 -0.058034702)
(0.1867883 0.077550851 -0.055822853)
(0.18643086 0.07588065 -0.052044137)
(0.18419275 0.076354275 -0.045674396)
(0.17881181 0.082172806 -0.034534041)
(0.14875823 0.098336423 -0.014153897)
(0.098867312 -0.0027464125 0.00088536689)
(0.098144922 -0.0039964961 0.0013398514)
(0.096645837 -0.0043954182 0.0015421919)
(0.094687625 -0.0044822709 0.0016655268)
(0.092726779 -0.0044370052 0.0017626716)
(0.090947232 -0.0043356269 0.0018453515)
(0.089350661 -0.0042606802 0.0019279109)
(0.087863792 -0.0043209262 0.0020390669)
(0.086483799 -0.0043576229 0.0022394396)
(0.085413183 -0.0042799797 0.002577115)
(0.085048548 -0.0038743595 0.0030216281)
(0.086750866 -0.0020792735 0.0032869776)
(0.093359609 0.0037377549 0.0028038018)
(0.10535391 0.015577059 0.0011919439)
(0.12086863 0.03227442 -0.0017068229)
(0.13672681 0.05036788 -0.005141339)
(0.15097053 0.067229917 -0.0080935602)
(0.16229629 0.080840434 -0.010101978)
(0.17014384 0.091098258 -0.011391532)
(0.17476034 0.098223126 -0.012436835)
(0.1771786 0.10242613 -0.013627842)
(0.17851862 0.10399445 -0.015017634)
(0.17942708 0.10337585 -0.016192613)
(0.18004752 0.10108141 -0.016745631)
(0.18019465 0.09758464 -0.016487023)
(0.1795985 0.093354148 -0.01523544)
(0.17790735 0.089111724 -0.012600781)
(0.1745254 0.086465564 -0.00789106)
(0.16975544 0.088979013 0.00024409948)
(0.14719762 0.1028703 0.014605298)
(0.096898016 -0.0015196774 0.00085182679)
(0.09477621 -0.0022307752 0.0012683721)
(0.091179488 -0.0024459979 0.0014320604)
(0.086742305 -0.0024791305 0.0015146014)
(0.082267903 -0.0024251035 0.0015718847)
(0.078000158 -0.0023091319 0.0016186341)
(0.073909143 -0.0021647922 0.0016745958)
(0.069909204 -0.00203341 0.0017769676)
(0.065885751 -0.0019330734 0.0019894187)
(0.061650116 -0.0019678361 0.0024183301)
(0.056854848 -0.002476869 0.0032456731)
(0.05109025 -0.0036306578 0.0047964957)
(0.043764825 -0.0040997427 0.0076008943)
(0.038036825 0.0010450838 0.011760118)
(0.041108875 0.015348393 0.016615959)
(0.052837269 0.033111624 0.021458608)
(0.068243192 0.04850782 0.026487139)
(0.08395153 0.0601033 0.031810134)
(0.098079779 0.068503138 0.037018142)
(0.10994275 0.074352338 0.04123007)
(0.11980593 0.077945861 0.04401947)
(0.12820377 0.079358324 0.045532112)
(0.13539445 0.078779272 0.046040507)
(0.14124565 0.076536624 0.045897934)
(0.14545567 0.073043409 0.045452682)
(0.1477888 0.068789674 0.045086271)
(0.14830812 0.064393517 0.045207176)
(0.1476141 0.06113248 0.046213968)
(0.1492319 0.061874748 0.047976327)
(0.1614855 0.07251837 0.049196383)
(0.10476766 -0.0021783936 0.0010244091)
(0.11729794 -0.0023357093 0.001447844)
(0.12861121 -0.0022870984 0.0014810414)
(0.13778147 -0.0020146504 0.0013008364)
(0.1457605 -0.0015781243 0.00093455662)
(0.15303749 -0.0011329477 0.00035088452)
(0.15967007 -0.00079487026 -0.00049310981)
(0.16558956 -0.0006399009 -0.0017091919)
(0.17075112 -0.00071685293 -0.0035077707)
(0.17514267 -0.0010913331 -0.0061274222)
(0.17872766 -0.0018518995 -0.0098732906)
(0.18141718 -0.0030958552 -0.015054554)
(0.18280097 -0.0048728014 -0.021844296)
(0.18265178 -0.0076022078 -0.030050729)
(0.18202646 -0.010817953 -0.039041991)
(0.18206829 -0.014076258 -0.047810843)
(0.18319281 -0.016790556 -0.055334562)
(0.18502316 -0.018416199 -0.061101454)
(0.18668935 -0.018994207 -0.065245254)
(0.18754157 -0.019056752 -0.068111621)
(0.18757942 -0.019151865 -0.069935013)
(0.18730757 -0.019467987 -0.070855303)
(0.1873083 -0.019935557 -0.070943429)
(0.18795719 -0.020417404 -0.070215106)
(0.18936951 -0.020790384 -0.06863903)
(0.19149406 -0.020890649 -0.066112331)
(0.19415506 -0.020251925 -0.062396567)
(0.19695782 -0.017612173 -0.05708355)
(0.19918121 -0.0094391961 -0.049700299)
(0.18820492 0.014007431 -0.039529124)
(0.10001779 -0.0034796296 0.0010774988)
(0.10070267 -0.0043514194 0.0016417091)
(0.10230868 -0.0046061724 0.0018618955)
(0.10444409 -0.0044783835 0.0019393721)
(0.10696734 -0.0041438809 0.0019224574)
(0.10983252 -0.0038235111 0.0017974909)
(0.11296064 -0.0036759733 0.0015343739)
(0.11627514 -0.0038175251 0.0010748939)
(0.11974972 -0.0043435664 0.00032328213)
(0.12336147 -0.0053815629 -0.00087316295)
(0.12708214 -0.0070980519 -0.0026856757)
(0.13093212 -0.009671512 -0.005340195)
(0.13500103 -0.013198054 -0.009094893)
(0.13929427 -0.018060448 -0.013942774)
(0.14399452 -0.02355367 -0.019405647)
(0.14940096 -0.028631767 -0.024418868)
(0.15528739 -0.031938544 -0.027890696)
(0.16087456 -0.032331154 -0.02977275)
(0.1650802 -0.030063994 -0.030913014)
(0.16736478 -0.026514354 -0.032027794)
(0.16809206 -0.023223189 -0.033296422)
(0.16810386 -0.020898732 -0.034587915)
(0.1680653 -0.019451419 -0.035620584)
(0.16828215 -0.018589776 -0.035970767)
(0.16891206 -0.018228856 -0.035124944)
(0.17033047 -0.018427343 -0.032540759)
(0.17346688 -0.018977084 -0.027715555)
(0.18050064 -0.019140916 -0.019876231)
(0.19705217 -0.016925864 -0.0075501863)
(0.2527928 -0.0061266906 0.0075243415)
(0.10016474 -0.0027725622 0.0010973711)
(0.10039753 -0.0040460259 0.0016858168)
(0.10034956 -0.0044842893 0.001947924)
(0.10009999 -0.0046429493 0.0020914466)
(0.099853531 -0.0047066417 0.0021806549)
(0.099726561 -0.0047541638 0.0022213782)
(0.099733003 -0.0048593252 0.0022154564)
(0.099849198 -0.0051044857 0.0021707285)
(0.10006155 -0.0055865257 0.0021132808)
(0.10037399 -0.0064597102 0.0020405758)
(0.10081053 -0.0079567001 0.0018650454)
(0.10150815 -0.010368609 0.0013843845)
(0.10273946 -0.014045672 0.00048483698)
(0.10471157 -0.019438118 -0.00062352118)
(0.10765304 -0.026146181 -0.0013684795)
(0.11198571 -0.032662971 -0.0001351986)
(0.1176869 -0.037130618 0.0045760429)
(0.12447894 -0.037103204 0.011847876)
(0.1308699 -0.033297488 0.019339622)
(0.13549041 -0.028193547 0.025323015)
(0.13811586 -0.023979472 0.029134395)
(0.13931577 -0.020448615 0.032185272)
(0.14083903 -0.017991721 0.034854085)
(0.14323057 -0.016714157 0.037560288)
(0.14606082 -0.016569469 0.040491651)
(0.14841053 -0.017817055 0.043055723)
(0.15027947 -0.019723699 0.045727695)
(0.15262797 -0.021853638 0.048752044)
(0.15856841 -0.024353786 0.053447045)
(0.18192315 -0.027357165 0.061879349)
(0.098138988 -0.0015458097 0.0010721481)
(0.096914387 -0.0022854737 0.0016416276)
(0.094697796 -0.0025320238 0.0018896179)
(0.091888087 -0.0026077579 0.0020161584)
(0.08904147 -0.002610937 0.0020852135)
(0.086345209 -0.0025695314 0.0021065563)
(0.08379741 -0.0025188195 0.0020895154)
(0.081367615 -0.00250353 0.0020541546)
(0.079025993 -0.0025795075 0.0020386695)
(0.076718866 -0.0028394845 0.0021096717)
(0.074324893 -0.0034532373 0.0023918291)
(0.071653974 -0.004709892 0.0031142362)
(0.068413216 -0.0069779558 0.0045746239)
(0.064226285 -0.010152256 0.0073638356)
(0.059361269 -0.012571546 0.013578993)
(0.055933586 -0.011350352 0.025593605)
(0.057045524 -0.0052143238 0.042932088)
(0.062845636 0.0042331106 0.062143388)
(0.069892553 0.014392923 0.079154305)
(0.076156978 0.023359786 0.09209343)
(0.082362247 0.030219271 0.10080726)
(0.089464864 0.0340308 0.1052039)
(0.096408008 0.034968059 0.1067726)
(0.10244941 0.033538472 0.10662612)
(0.10719389 0.030507076 0.10527625)
(0.11050697 0.026501888 0.10274625)
(0.11318752 0.021406258 0.098412802)
(0.11550959 0.016290233 0.093358371)
(0.11914602 0.011891247 0.088815583)
(0.13743646 0.0090577161 0.084238474)
(0.10464733 -0.0021966672 0.00036590918)
(0.11698455 -0.0023511309 0.00061021379)
(0.12821228 -0.002276898 0.00072297235)
(0.13741053 -0.0019567946 0.00074688063)
(0.14547522 -0.0014599617 0.00071024541)
(0.15283401 -0.00095346145 0.00062088721)
(0.15949061 -0.00054249769 0.00046627438)
(0.16542224 -0.00024907798 0.00022014165)
(0.17066168 -8.9801682e-05 -0.00012636599)
(0.17519032 -9.7742277e-05 -0.00059423508)
(0.17892955 -0.00031375182 -0.0012162617)
(0.18174178 -0.00079020735 -0.0020288871)
(0.18304222 -0.0016019232 -0.0030626374)
(0.1823026 -0.0034063972 -0.0044131556)
(0.18045254 -0.0061238292 -0.0061123074)
(0.17873121 -0.0098592191 -0.0079275903)
(0.17784161 -0.014203169 -0.0096608825)
(0.17757856 -0.018477883 -0.011479828)
(0.17728781 -0.022340286 -0.013687798)
(0.17660542 -0.025735904 -0.016371784)
(0.17562635 -0.028773015 -0.019260757)
(0.17469559 -0.031564904 -0.021976881)
(0.17418114 -0.034083913 -0.02419765)
(0.17425823 -0.036174902 -0.025662825)
(0.17487086 -0.037684487 -0.026192102)
(0.17593012 -0.03861243 -0.025668232)
(0.17752691 -0.039082788 -0.024118149)
(0.18025583 -0.038592931 -0.022435975)
(0.18554732 -0.033542723 -0.023411661)
(0.18860774 -0.013274302 -0.028146294)
(0.099899347 -0.0034896118 0.00036338836)
(0.10036077 -0.0043475961 0.00062741882)
(0.10185015 -0.0045607608 0.00076096315)
(0.10399263 -0.0043646214 0.00080250314)
(0.10656941 -0.0039440093 0.00077075098)
(0.10947763 -0.0035271137 0.00065600183)
(0.11260434 -0.0032490033 0.0004333569)
(0.11585348 -0.0031481737 6.7021285e-05)
(0.11916418 -0.003268608 -0.00049093508)
(0.12248859 -0.0036953395 -0.0013115268)
(0.12578457 -0.0045342879 -0.0025022401)
(0.12902969 -0.0059250908 -0.0041950341)
(0.1322523 -0.0081076625 -0.0065420532)
(0.13536863 -0.011976787 -0.0096540835)
(0.13845208 -0.01769644 -0.01346594)
(0.14175162 -0.024951482 -0.017562288)
(0.14504428 -0.03168614 -0.021597796)
(0.14743418 -0.0361676 -0.025653535)
(0.14822654 -0.038568579 -0.029845022)
(0.14747977 -0.039500157 -0.034221326)
(0.14563866 -0.039857665 -0.038527198)
(0.1432699 -0.040346907 -0.042389931)
(0.14087357 -0.041155798 -0.045370187)
(0.1386853 -0.04206631 -0.046984071)
(0.13660505 -0.042851132 -0.046813951)
(0.13459955 -0.043726251 -0.044472446)
(0.13317181 -0.045329171 -0.039934709)
(0.13590912 -0.047135383 -0.03494184)
(0.15076918 -0.043936073 -0.037275775)
(0.19972437 -0.023682315 -0.054404759)
(0.10005031 -0.0027668589 0.00036898925)
(0.10007071 -0.0040332069 0.0006400443)
(0.099915245 -0.0044507866 0.00078895804)
(0.099685673 -0.0045769719 0.00085190497)
(0.099521385 -0.004596172 0.00084636128)
(0.099495958 -0.0045802884 0.00076389969)
(0.099603882 -0.0045864259 0.00058343079)
(0.099805028 -0.004666709 0.0002732028)
(0.10006061 -0.0048877223 -0.00021397176)
(0.10034532 -0.0053519268 -0.0009528202)
(0.10064026 -0.006214573 -0.002054552)
(0.10087122 -0.0077228262 -0.0036708488)
(0.10094241 -0.010297751 -0.0060530064)
(0.10079069 -0.014727089 -0.0095106048)
(0.10050973 -0.021930644 -0.014190562)
(0.10021614 -0.031130068 -0.019380449)
(0.09977447 -0.038146491 -0.023693131)
(0.098711283 -0.040576528 -0.025667615)
(0.097027853 -0.040084018 -0.025693205)
(0.094107283 -0.038208836 -0.027075112)
(0.089926936 -0.036866685 -0.030245876)
(0.084975595 -0.036886202 -0.033679183)
(0.080030191 -0.038174457 -0.035808253)
(0.07587425 -0.040155458 -0.035391048)
(0.072743671 -0.042491747 -0.03124432)
(0.071340559 -0.045225416 -0.022791501)
(0.071240931 -0.049282979 -0.011381201)
(0.07569691 -0.054511027 -0.00053246919)
(0.088119659 -0.057720749 -0.0052451186)
(0.12729477 -0.047717244 -0.038718203)
(0.09802701 -0.0015405989 0.00035983646)
(0.096593823 -0.0022745774 0.00061970617)
(0.094272408 -0.0025121874 0.00075921425)
(0.09148372 -0.0025768399 0.00081420926)
(0.088721261 -0.0025659689 0.00080297996)
(0.086130591 -0.0025047589 0.00071893213)
(0.083692834 -0.0024236215 0.00054365258)
(0.081366342 -0.0023577519 0.00024938206)
(0.079110034 -0.002344957 -0.00020223419)
(0.0768764 -0.0024401225 -0.00086622731)
(0.074602203 -0.0027428884 -0.0018232456)
(0.072148021 -0.0034382694 -0.0031906776)
(0.069219954 -0.0048612076 -0.0052057326)
(0.065316437 -0.0077556119 -0.00836655)
(0.060031282 -0.013629412 -0.013478503)
(0.052577391 -0.02178163 -0.020297464)
(0.044024668 -0.025314404 -0.022407495)
(0.039506337 -0.020863483 -0.0080638084)
(0.044397694 -0.012550934 0.023912751)
(0.046249852 -0.0010267106 0.052046847)
(0.048928787 0.0088002276 0.070146349)
(0.053582537 0.014946312 0.079948469)
(0.05889964 0.01742876 0.084263275)
(0.063454776 0.016826635 0.08517437)
(0.06595632 0.013533274 0.083461986)
(0.065639051 0.0077119665 0.079035329)
(0.06394121 -0.00047241553 0.072196553)
(0.064479636 -0.0097555078 0.063391348)
(0.064438134 -0.017913316 0.042913245)
(0.094278364 -0.008530026 -0.006907896)
(0.10461982 -0.0021967487 0.00019868398)
(0.11688238 -0.002345553 0.00035840103)
(0.12802919 -0.0022573162 0.00045778106)
(0.13716767 -0.0019093527 0.00050057788)
(0.14520011 -0.0013622883 0.00049554491)
(0.15256029 -0.0007715901 0.00044657183)
(0.15929225 -0.00022606701 0.00035452154)
(0.16539718 0.00025585831 0.00023390849)
(0.17091048 0.00068187023 8.5732168e-05)
(0.17588948 0.0010753657 -9.3812598e-05)
(0.18039195 0.001454065 -0.00028871747)
(0.18445268 0.0018286938 -0.00045177145)
(0.1876556 0.0021739259 -0.00047692018)
(0.18966718 0.0017990093 -0.00027449231)
(0.19175905 0.0010267054 0.00044422879)
(0.19534289 0.00035315655 0.0024265648)
(0.20023691 0.00048423299 0.0059041773)
(0.20497371 0.0010852474 0.010213062)
(0.20842388 0.0012749345 0.014590858)
(0.21067055 0.00078431835 0.018685207)
(0.21232997 -0.00029626716 0.022453097)
(0.21385104 -0.0018688248 0.026039374)
(0.21536 -0.0037940969 0.029636987)
(0.21673402 -0.0058873202 0.033399159)
(0.21770371 -0.0080034848 0.037243835)
(0.2181197 -0.009652104 0.040724025)
(0.21778668 -0.0093097083 0.043031518)
(0.21546418 -0.0049927864 0.04296398)
(0.20444243 0.0064492375 0.035799003)
(0.13156034 0.037230012 0.015097246)
(0.099871046 -0.0034893501 0.00020001265)
(0.10023898 -0.0043397577 0.00037076683)
(0.10160892 -0.0045321691 0.00047824956)
(0.10364175 -0.0042944239 0.00052064993)
(0.10611878 -0.0037998068 0.00050323802)
(0.10892601 -0.0032599725 0.00042361002)
(0.1119471 -0.0027860088 0.00027147909)
(0.11508041 -0.0024029852 3.1878112e-05)
(0.11826683 -0.0021125019 -0.00032157798)
(0.12147951 -0.0019172099 -0.00082658131)
(0.1247192 -0.001857614 -0.0015249342)
(0.12804648 -0.0020373851 -0.002452188)
(0.13164795 -0.0027160631 -0.0035956667)
(0.13576873 -0.0050116216 -0.0048065173)
(0.14086795 -0.0089809871 -0.0056151454)
(0.14717712 -0.012562541 -0.0052785712)
(0.15350957 -0.013036977 -0.0045257687)
(0.15793721 -0.011568958 -0.0048040338)
(0.1595844 -0.011000573 -0.0068397878)
(0.15940552 -0.011932961 -0.010345269)
(0.15841703 -0.013747414 -0.014672875)
(0.1570737 -0.016010728 -0.018957142)
(0.15545471 -0.018412531 -0.022196006)
(0.15345313 -0.020572825 -0.023550574)
(0.15089495 -0.022397084 -0.022693861)
(0.14800852 -0.023661276 -0.02005207)
(0.1466315 -0.021417685 -0.019279227)
(0.15104663 -0.0099100527 -0.025099886)
(0.16337859 0.015442619 -0.036235951)
(0.15595169 0.059247952 -0.052090557)
(0.10002312 -0.0027635022 0.00020181394)
(0.099953331 -0.0040260955 0.00037380193)
(0.099677984 -0.0044340842 0.0004856247)
(0.099331496 -0.0045417333 0.00053345383)
(0.099053803 -0.0045295613 0.00051980052)
(0.098905918 -0.0044616678 0.00043943949)
(0.098872316 -0.0043828104 0.00027847583)
(0.098904645 -0.0043285861 1.6278934e-05)
(0.098956906 -0.004333714 -0.00037831015)
(0.098984342 -0.0044585532 -0.00095341046)
(0.098936585 -0.0048215091 -0.0017845527)
(0.098770656 -0.0056675706 -0.0029763957)
(0.098521192 -0.0075228022 -0.0046076837)
(0.098464173 -0.011524425 -0.006625101)
(0.098999239 -0.019129251 -0.0084932364)
(0.099605476 -0.025757325 -0.0087865397)
(0.099283518 -0.025882427 -0.0080272194)
(0.096587198 -0.021486538 -0.008102037)
(0.088394643 -0.018450687 -0.01111974)
(0.079532443 -0.0184237 -0.015378166)
(0.071980312 -0.020601097 -0.020016786)
(0.065023538 -0.023913193 -0.023762984)
(0.057441348 -0.027885977 -0.024757032)
(0.049910912 -0.03164647 -0.021756655)
(0.042096268 -0.035686272 -0.013365851)
(0.034493783 -0.04042333 -0.0015388998)
(0.028196491 -0.041398718 -0.0044467195)
(0.03536738 -0.027599082 -0.025449877)
(0.06348329 0.0069974291 -0.051422514)
(0.073428362 0.061146458 -0.078919843)
(0.098000365 -0.001542056 0.00019679257)
(0.096479473 -0.0022778418 0.00036197228)
(0.094041126 -0.0025148485 0.00046695921)
(0.091137292 -0.0025753103 0.00050790096)
(0.088262413 -0.0025553014 0.00048708963)
(0.085548181 -0.0024771232 0.00039926153)
(0.082960618 -0.0023669138 0.00023007719)
(0.080442661 -0.0022547618 -4.2343203e-05)
(0.077938786 -0.0021701979 -0.00045354925)
(0.075365731 -0.0021544246 -0.0010603332)
(0.072578499 -0.0022863749 -0.0019592461)
(0.069314252 -0.0027462508 -0.0033246995)
(0.065075788 -0.0039892653 -0.0054671254)
(0.058825122 -0.0072891409 -0.0090178877)
(0.049232462 -0.015602342 -0.015472991)
(0.030384897 -0.021477977 -0.025642038)
(0.0077188426 -0.015084345 -0.031009094)
(-0.013910144 -0.0017075649 -0.02621981)
(-0.017065494 -0.0029266882 -0.011339555)
(-0.0065948817 -0.0041690733 0.016999769)
(-0.0021192274 -0.0010467165 0.035376845)
(0.0068744336 0.0013717907 0.044590469)
(0.012765836 0.0010315253 0.048031323)
(0.015712895 -0.0012381663 0.048956292)
(0.014131908 -0.0061154161 0.048053974)
(0.0060704865 -0.014527885 0.041323656)
(-0.014899307 -0.020984025 0.012981257)
(-0.028875772 -0.0087651997 -0.024359425)
(-0.015797823 0.028410027 -0.064459786)
(0.075455862 0.073237546 -0.091116745)
(0.10460362 -0.002199695 4.74739e-05)
(0.11682594 -0.0023505057 8.0870922e-05)
(0.12792558 -0.0022630307 9.3487757e-05)
(0.13702293 -0.0019138982 8.5987674e-05)
(0.14502331 -0.0013628129 6.1065295e-05)
(0.15235754 -0.00076542029 1.994494e-05)
(0.15906543 -0.00021141045 -3.8526333e-05)
(0.16514305 0.0002806354 -0.00011775304)
(0.17062947 0.00071976401 -0.00022497122)
(0.1755787 0.0011203953 -0.00036486475)
(0.18004625 0.0014938441 -0.00054791161)
(0.18408437 0.0018371268 -0.00077587686)
(0.18720846 0.0020970431 -0.0010283591)
(0.1890897 0.0013944825 -0.0012967063)
(0.19157036 0.00035833106 -0.0013552945)
(0.19644719 0.00043105157 -0.00077712519)
(0.20265426 0.0016211439 0.0002015282)
(0.20845547 0.0030819972 0.0011376368)
(0.21310727 0.0044656849 0.0019999684)
(0.21729359 0.0058557139 0.0030329082)
(0.22194379 0.0071944631 0.0045104908)
(0.22769687 0.0085042762 0.0067092435)
(0.23459786 0.010098411 0.0099094551)
(0.24186537 0.012383552 0.014249953)
(0.24790898 0.015388816 0.019512888)
(0.2505761 0.019158149 0.024918824)
(0.24702189 0.024488398 0.029029809)
(0.2332988 0.032679743 0.02982876)
(0.20582664 0.0463338 0.024424965)
(0.098026715 0.076426943 0.011017343)
(0.099853828 -0.0034921783 4.8317368e-05)
(0.10017187 -0.0043440953 8.4970789e-05)
(0.10147613 -0.0045354001 9.939153e-05)
(0.1034449 -0.0042927551 9.0023138e-05)
(0.10586164 -0.003788218 5.8246229e-05)
(0.10860531 -0.0032332441 3.1335853e-06)
(0.11155282 -0.0027388472 -7.9956189e-05)
(0.11459782 -0.0023283444 -0.00019883217)
(0.11767068 -0.0020014092 -0.00036458974)
(0.12073656 -0.0017718947 -0.00059374331)
(0.12380301 -0.0016961875 -0.00090675533)
(0.12697339 -0.0019207447 -0.0013141925)
(0.13056708 -0.0028080033 -0.0017797931)
(0.1350747 -0.0057766676 -0.0021360871)
(0.1411502 -0.010184968 -0.0019571139)
(0.1491218 -0.010177875 -0.00071080721)
(0.15650634 -0.0066506324 0.00032277463)
(0.16162384 -0.0032322845 0.00032035892)
(0.16540321 -0.001212891 -0.00043060179)
(0.16876351 -0.00059104549 -0.0015934927)
(0.17186798 -0.00071732486 -0.0031408689)
(0.17515285 -0.00085899977 -0.0047956245)
(0.17947811 -4.3093102e-05 -0.0058429053)
(0.18593256 0.0031320877 -0.0054754275)
(0.19627497 0.010517957 -0.0035081283)
(0.20664866 0.022468459 -0.00076974025)
(0.21231785 0.038092969 0.0013737847)
(0.20815469 0.057833432 0.00093162033)
(0.19259323 0.084190504 -0.004527163)
(0.11674716 0.12397499 -0.017225334)
(0.10000588 -0.002763346 4.8321765e-05)
(0.09988642 -0.0040263039 8.4698737e-05)
(0.099543233 -0.0044329787 9.9329821e-05)
(0.099126013 -0.0045367115 8.9789009e-05)
(0.098776073 -0.0045177146 5.6023128e-05)
(0.098546584 -0.0044394078 -4.746249e-06)
(0.098414395 -0.0043450306 -9.9545795e-05)
(0.098320436 -0.0042667128 -0.00023934858)
(0.098196407 -0.0042409607 -0.00044254254)
(0.097970422 -0.0043339385 -0.00073963649)
(0.097564996 -0.004687963 -0.0011784151)
(0.096921429 -0.0056252387 -0.0018225277)
(0.096150211 -0.0078938799 -0.0027302982)
(0.095978189 -0.013184799 -0.0038571984)
(0.096352853 -0.023289872 -0.0046832702)
(0.098254078 -0.023234018 -0.0027079869)
(0.10033878 -0.017340431 -0.00025643592)
(0.096796769 -0.011606885 -0.00071046613)
(0.090388783 -0.0071027271 -0.0032448124)
(0.081782957 -0.0056245877 -0.0073728832)
(0.071851658 -0.0078427473 -0.012329673)
(0.060634704 -0.012370095 -0.016553222)
(0.049212865 -0.016822472 -0.018119238)
(0.041398343 -0.019213023 -0.015416781)
(0.039399591 -0.01797693 -0.007723738)
(0.056813345 -0.007999715 -0.0012120253)
(0.089894031 0.014216303 -0.0015415219)
(0.10705554 0.044263873 -0.0070794353)
(0.11316673 0.082397085 -0.017881016)
(0.065444876 0.13370829 -0.03290505)
(0.097983264 -0.0015418245 4.7009316e-05)
(0.096413226 -0.0022773778 8.1536001e-05)
(0.093907145 -0.0025133369 9.4105561e-05)
(0.090930882 -0.0025717413 8.2051131e-05)
(0.087979767 -0.0025487446 4.4760279e-05)
(0.085176455 -0.0024664545 -2.1443538e-05)
(0.082478187 -0.0023505252 -0.00012528229)
(0.079810668 -0.0022292656 -0.0002804547)
(0.077080349 -0.0021333421 -0.00051221882)
(0.074151362 -0.0021081819 -0.00086864746)
(0.070788753 -0.002249499 -0.0014386737)
(0.066544244 -0.0028008047 -0.0023915803)
(0.060489613 -0.0044503487 -0.0040723153)
(0.050506224 -0.0093502163 -0.0072512444)
(0.034426076 -0.02215426 -0.013408089)
(-0.0069539093 -0.012994463 -0.021368374)
(-0.036529703 0.0029602965 -0.014517489)
(-0.055065936 0.0053116887 -0.0099640987)
(-0.065789736 0.0041327499 -0.0057363917)
(-0.065198558 0.00022658556 0.0011943575)
(-0.05717419 -0.0038882775 0.0098688032)
(-0.048054542 -0.0071832427 0.015603322)
(-0.040606623 -0.010510917 0.019284657)
(-0.035731253 -0.014642926 0.02163225)
(-0.033243304 -0.019349767 0.022008105)
(-0.03305273 -0.01934643 0.018058163)
(-0.034711434 -0.0018581236 0.0080125693)
(-0.015588566 0.037423883 -0.0039684204)
(0.0075479295 0.080412074 -0.028326788)
(0.050831929 0.12954505 -0.04410388)
(0.10460239 -0.0021996976 -6.9382647e-05)
(0.11682177 -0.0023509558 -0.0001297117)
(0.12791754 -0.0022640223 -0.00017343574)
(0.13700983 -0.0019155716 -0.00020158937)
(0.14500322 -0.0013654493 -0.00021811156)
(0.15232735 -0.00076957544 -0.00022621695)
(0.15902038 -0.0002183384 -0.00022737596)
(0.16507476 0.00026802996 -0.00022119784)
(0.17052503 0.0006977195 -0.00020414203)
(0.17542084 0.0010850953 -0.0001702999)
(0.17981803 0.0014369754 -0.00012131025)
(0.18377885 0.0017387646 -5.7037845e-05)
(0.18685563 0.0019187008 1.7866232e-05)
(0.1888611 0.0010894805 0.00016305065)
(0.19185384 0.00011174249 0.0003534257)
(0.19732798 0.00057396657 0.00034862186)
(0.20371848 0.0018837422 9.3083891e-05)
(0.20938685 0.0033190979 -0.0003287362)
(0.21396108 0.0048172129 -0.00093600558)
(0.21824502 0.0064883208 -0.0018243475)
(0.22305458 0.0081531352 -0.0031283238)
(0.22890879 0.0098043109 -0.0050474667)
(0.23573162 0.011766948 -0.0078310252)
(0.24262926 0.01435887 -0.011690345)
(0.24801011 0.017467697 -0.016602358)
(0.24986776 0.021151005 -0.021989331)
(0.24559576 0.026162276 -0.026410067)
(0.23140155 0.03395376 -0.027599565)
(0.20367871 0.04721137 -0.02246924)
(0.095835698 0.077048878 -0.0091941897)
(0.099853658 -0.0034922128 -6.5844902e-05)
(0.10017084 -0.0043447078 -0.0001246842)
(0.10147315 -0.004536778 -0.00016466282)
(0.10343865 -0.004295136 -0.00018473387)
(0.10585025 -0.0037920448 -0.00018737617)
(0.10858576 -0.0032394246 -0.0001733348)
(0.11151936 -0.0027494986 -0.00014044653)
(0.11454136 -0.0023486012 -8.4331266e-05)
(0.11758041 -0.0020385778 2.1560822e-06)
(0.12059617 -0.0018385663 0.00012778235)
(0.12359238 -0.0018216757 0.00030775147)
(0.12669103 -0.0021748443 0.00055840819)
(0.13028526 -0.0033368431 0.00088580325)
(0.13507103 -0.0067586384 0.0012579428)
(0.1416486 -0.010778145 0.0015789145)
(0.15032274 -0.0086540124 0.0014492353)
(0.15757213 -0.0045792149 0.0013440408)
(0.16286792 -0.0014169923 0.0016260025)
(0.16739365 0.00031289767 0.0022513598)
(0.17177432 0.0009100204 0.0031555834)
(0.17594003 0.0010586506 0.0043680779)
(0.18039991 0.0014816463 0.0057423529)
(0.18601948 0.0031715889 0.0067520706)
(0.19393894 0.0075620527 0.0065783087)
(0.2043791 0.015820166 0.0048501425)
(0.21299051 0.027484679 0.00211707)
(0.21697217 0.042151457 -0.00027702165)
(0.21140464 0.060866396 0.00010776986)
(0.19475506 0.086265637 0.00581124)
(0.11849268 0.12554005 0.018961327)
(0.1000057 -0.0027634414 -6.5699258e-05)
(0.099885425 -0.0040266446 -0.00012396675)
(0.099540393 -0.0044337286 -0.00016402252)
(0.099119872 -0.0045380458 -0.00018406857)
(0.098764367 -0.0045199176 -0.00018543613)
(0.098525223 -0.0044431093 -0.00016750517)
(0.098374859 -0.0043518793 -0.00012653965)
(0.098249155 -0.0042813293 -5.6561341e-05)
(0.09807386 -0.004270414 5.2354789e-05)
(0.097758933 -0.0043970502 0.00021557018)
(0.097196675 -0.0048322269 0.00046105663)
(0.096303604 -0.0059735788 0.00082788637)
(0.095252555 -0.0087579585 0.0013653619)
(0.095266111 -0.015228517 0.0021445422)
(0.095187332 -0.025683546 0.0034081793)
(0.10035117 -0.020951081 0.0031452647)
(0.10093095 -0.014379269 0.0022647575)
(0.097624281 -0.0086556782 0.0022398752)
(0.090979511 -0.004159098 0.0031995037)
(0.082778391 -0.0028236146 0.0056804967)
(0.072591055 -0.0051497281 0.0094389382)
(0.060456261 -0.0096127511 0.013516959)
(0.048330099 -0.013669204 0.016564673)
(0.040174684 -0.014866333 0.016580274)
(0.040545464 -0.011950771 0.011483848)
(0.062721984 -0.0010849786 0.00434739)
(0.095182847 0.020303715 0.0025367028)
(0.11264225 0.04845224 0.0079492082)
(0.11912631 0.085050703 0.020108281)
(0.073293553 0.13642195 0.037114219)
(0.09798306 -0.0015418854 -6.3912114e-05)
(0.096412108 -0.0022775369 -0.00011968561)
(0.093904001 -0.0025136709 -0.00015710645)
(0.090924116 -0.0025723345 -0.00017427027)
(0.087966721 -0.0025497116 -0.00017221473)
(0.085151874 -0.0024680199 -0.00014998931)
(0.082429974 -0.002353411 -0.00010326953)
(0.079720366 -0.0022360173 -2.5659225e-05)
(0.076917199 -0.002147491 9.4406387e-05)
(0.073844253 -0.0021405274 0.00027789599)
(0.070181112 -0.0023308191 0.00056494696)
(0.065298586 -0.0030250432 0.001027383)
(0.057872327 -0.0051334673 0.0018183638)
(0.045479224 -0.011518601 0.0033846664)
(0.022842343 -0.025502037 0.0078091241)
(-0.03121148 -0.00027465169 0.014402293)
(-0.048986519 0.0062267049 0.0098996383)
(-0.067367305 0.0071590498 0.0059846155)
(-0.075491133 0.0049217057 0.0017026043)
(-0.074484894 0.00025473231 -0.0031717506)
(-0.066721177 -0.0045207001 -0.0075139308)
(-0.057294525 -0.0083401915 -0.0093807701)
(-0.048810894 -0.011821703 -0.0099109149)
(-0.042028197 -0.01585265 -0.010483266)
(-0.036577903 -0.020341305 -0.011633647)
(-0.031875938 -0.020076175 -0.011582996)
(-0.030521827 -0.0035525325 -0.0036335337)
(-0.0091552694 0.035185446 0.0092511082)
(0.016945075 0.078043284 0.036273751)
(0.069166752 0.12872094 0.055124637)
(0.1046165 -0.002196312 -0.00021772439)
(0.11687117 -0.0023458174 -0.0004007057)
(0.12800765 -0.0022585598 -0.0005266943)
(0.13713306 -0.0019119587 -0.0005996061)
(0.14514868 -0.0013668489 -0.00062889584)
(0.15248718 -0.00077898894 -0.00061937415)
(0.15919197 -0.00023745488 -0.00057241768)
(0.16526455 0.00023943288 -0.00049691993)
(0.17074909 0.00065853249 -0.00039910027)