/*--------------------------------*- C++ -*----------------------------------*\
| =========                 |                                                 |
| \\      /  F ield         | OpenFOAM: The Open Source CFD Toolbox           |
|  \\    /   O peration     | Version:  v2012                                 |
|   \\  /    A nd           | Website:  www.openfoam.com                      |
|    \\/     M anipulation  |                                                 |
\*---------------------------------------------------------------------------*/
FoamFile
{
    version     2.0;
    format      ascii;
    class       volScalarField;
    location    "230/heater";
    object      T;
}
// * * * * * * * * * * * * * * * * * * * * * * * * * * * * * * * * * * * * * //

dimensions      [0 0 0 1 0 0 0];


internalField   nonuniform List<scalar> 
80
(
687.82372
689.59178
693.04044
697.95247
679.8151
681.8869
685.98731
691.87609
662.86203
665.55825
671.03427
679.10618
635.10951
638.51316
645.89749
657.82612
343.35703
340.46208
340.5142
343.43842
414.98636
411.38946
411.62382
415.51937
475.01843
471.87874
472.54137
476.60201
524.89498
522.74696
524.44972
529.11837
564.97934
564.61641
568.65046
575.84356
594.32811
597.32963
605.51688
622.17662
343.3449
340.4824
340.53169
343.43774
414.95924
411.40106
411.63018
415.48759
474.94602
471.87322
472.53324
476.55139
524.85421
522.74473
524.43677
529.05127
564.97111
564.62501
568.63304
575.76024
594.37223
597.36301
605.51815
622.12582
635.32219
638.67887
645.95974
657.74916
663.15907
665.81615
671.17241
679.08611
680.12118
682.15531
686.17079
691.95331
688.12942
689.85491
693.26005
698.1201
)
;

boundaryField
{
    minY
    {
        type            fixedValue;
        value           uniform 300;
    }
    minZ
    {
        type            zeroGradient;
    }
    maxZ
    {
        type            zeroGradient;
    }
    heater_to_topAir
    {
        type            compressible::turbulentTemperatureCoupledBaffleMixed;
        refValue        nonuniform List<scalar> 
40
(
474.91024
475.63438
474.57392
471.9107
449.78181
445.05624
439.09125
432.75307
459.63309
456.28025
450.07883
441.41522
472.30689
473.26729
472.34155
470.5895
471.57791
470.8761
469.05259
468.80792
471.32446
470.40036
468.53416
468.34935
471.91833
472.66046
471.51557
469.68955
459.43741
455.98445
449.63152
440.84196
449.71105
444.96031
438.92882
432.48866
474.88244
475.59596
474.50963
471.8028
)
;
        refGradient     uniform 0;
        valueFraction   nonuniform List<scalar> 
40
(
0.00032132529
0.00032132529
0.00032132529
0.00032132529
0.00032132529
0.00032132529
0.00032132529
0.00032132529
0.00032132529
0.00032132529
0.00032132529
0.00032132529
0.00032132529
0.00032132529
0.00032132529
0.00032132529
0.00032132529
0.00032132529
0.00032132529
0.00032132529
0.00032132529
0.00032132529
0.00032132529
0.00032132529
0.00032132529
0.00032132529
0.00032132529
0.00032132529
0.00032132529
0.00032132529
0.00032132529
0.00032132529
0.00032132529
0.00032132529
0.00032132529
0.00032132529
0.00032132529
0.00032132529
0.00032132529
0.00032132529
)
;
        value           nonuniform List<scalar> 
40
(
687.74737
689.51505
692.96215
697.87157
679.7334
681.80297
685.90001
691.78467
662.78934
665.48356
670.95567
679.02195
635.05055
638.4533
645.83476
657.75867
594.28301
597.28325
605.46707
622.12096
594.32713
597.31654
605.46823
622.07007
635.26322
638.61897
645.8969
657.6816
663.08652
665.74157
671.09389
679.00199
680.0396
682.07151
686.08372
691.86215
688.05321
689.77836
693.18198
698.03948
)
;
        Tnbr            T;
        thicknessLayers List<scalar> 0();
        kappaLayers     List<scalar> 0();
        kappaMethod     solidThermo;
        kappa           none;
        alphaAni        none;
        alpha           none;
        field           T;
    }
    heater_to_rightSolid
    {
        type            compressible::turbulentTemperatureCoupledBaffleMixed;
        refValue        nonuniform List<scalar> 10(703.98681 699.08599 689.11993 674.05066 656.06882 655.94971 673.81957 688.94445 699.0511 704.08223);
        refGradient     uniform 0;
        valueFraction   nonuniform List<scalar> 10(0.49999997 0.49999997 0.49999997 0.49999997 0.49999997 0.49999997 0.49999997 0.49999997 0.49999997 0.49999997);
        value           nonuniform List<scalar> 10(700.96551 695.47696 684.10913 665.93475 639.11953 639.0346 665.7808 684.01149 695.49831 701.09721);
        Tnbr            T;
        thicknessLayers List<scalar> 0();
        kappaLayers     List<scalar> 0();
        kappaMethod     solidThermo;
        kappa           none;
        alphaAni        none;
        alpha           none;
        field           T;
    }
    heater_to_leftSolid
    {
        type            compressible::turbulentTemperatureCoupledBaffleMixed;
        refValue        nonuniform List<scalar> 10(782.39524 782.3497 782.24308 782.10224 781.87392 781.82924 782.06965 782.36161 782.50107 782.56875);
        refGradient     uniform 0;
        valueFraction   nonuniform List<scalar> 10(2.0832898e-05 2.0832898e-05 2.0832898e-05 2.0832898e-05 2.0832898e-05 2.0832898e-05 2.0832898e-05 2.0832898e-05 2.0832898e-05 2.0832898e-05);
        value           nonuniform List<scalar> 10(687.81775 679.80945 662.85713 635.10593 594.32636 594.37057 635.31878 663.15446 680.11577 688.1237);
        Tnbr            T;
        thicknessLayers List<scalar> 1(0.001);
        kappaLayers     List<scalar> 1(0.0005);
        kappaMethod     solidThermo;
        kappa           none;
        alphaAni        none;
        alpha           none;
        field           T;
    }
    heater_to_bottomWater
    {
        type            compressible::turbulentTemperatureCoupledBaffleMixed;
        refValue        nonuniform List<scalar> 
92
(
964.83997
963.00166
961.09878
959.39608
966.39343
960.14148
958.57378
960.6698
962.51755
955.16446
958.00266
961.11348
948.57109
946.23732
949.94396
951.32429
948.40006
950.20439
951.22111
951.88136
955.8769
951.57407
949.83213
951.53558
957.28141
951.82948
952.99207
954.24936
951.04262
951.04262
948.49913
948.49913
951.77103
951.77103
954.83743
954.83743
967.86253
955.69062
965.40295
958.03925
961.95207
954.6252
959.41705
951.60774
953.62355
948.26791
958.41722
961.77552
958.73912
958.84219
952.13913
959.01501
955.82677
963.00429
958.33773
956.83409
952.16421
953.7559
946.26044
961.84636
958.03184
953.48267
949.12433
950.96759
953.66957
960.9393
957.685
957.74982
944.25818
954.64864
947.69731
957.14298
953.45029
952.4884
938.45325
950.79218
957.14298
953.45029
952.4884
950.79218
966.23423
963.21307
959.80049
955.79111
967.78449
962.57802
957.15835
957.09673
966.1073
959.79581
959.79833
960.96012
)
;
        refGradient     uniform 0;
        valueFraction   nonuniform List<scalar> 
92
(
0.0075140686
0.0075140686
0.0075140686
0.0075140686
0.0075140686
0.0075140686
0.0075140686
0.0075140686
0.0075140686
0.0075140686
0.0075140686
0.0075140686
0.0075140686
0.0075140686
0.0075140686
0.0075140686
0.0075140686
0.0075140686
0.0075140686
0.0075140686
0.0075140686
0.0075140686
0.0075140686
0.0075140686
0.0075140686
0.0075140686
0.0075140686
0.0075140686
0.0075140686
0.0075140686
0.0075140686
0.0075140686
0.0075140686
0.0075140686
0.0075140686
0.0075140686
0.0075140679
0.0075140679
0.0075140679
0.0075140679
0.0075140679
0.0075140679
0.0075140679
0.0075140679
0.0075140679
0.0075140679
0.0075140679
0.0075140686
0.0075140686
0.0075140686
0.0075140679
0.0075140686
0.0075140679
0.0075140686
0.0075140686
0.0075140686
0.0075140679
0.0075140686
0.0075140679
0.0075140686
0.0075140686
0.0075140686
0.0075140679
0.0075140686
0.0075140679
0.0075140686
0.0075140686
0.0075140686
0.0075140679
0.0075140686
0.0075140679
0.0075140686
0.0075140686
0.0075140686
0.0075140679
0.0075140686
0.0075140686
0.0075140686
0.0075140686
0.0075140686
0.0075140686
0.0075140686
0.0075140686
0.0075140686
0.0075140686
0.0075140686
0.0075140686
0.0075140686
0.0075140686
0.0075140686
0.0075140686
0.0075140686
)
;
        value           nonuniform List<scalar> 
92
(
689.89736
691.63828
695.04661
699.90877
681.96074
683.96995
688.02763
693.88772
665.10633
667.72698
673.18302
681.21741
347.90425
345.01345
345.09301
348.00563
418.99312
415.43669
415.6769
419.54816
478.62925
475.48068
476.12522
480.16816
528.14043
525.96747
527.66614
532.30917
637.47686
567.87558
640.83571
567.49619
648.18894
571.52443
660.05065
578.68646
348.04921
348.03844
419.12088
419.59444
478.6749
480.19138
528.15648
532.28932
567.89497
578.63709
347.96622
347.99145
345.12759
345.17726
348.01111
348.06277
419.02204
419.07597
415.50937
415.72542
419.51875
419.53071
478.4852
478.60231
475.52378
476.14459
480.09977
480.11363
528.07272
528.12734
526.00927
527.68904
532.16744
532.24552
567.84235
567.91332
567.54199
571.51256
578.48064
578.57336
637.73396
641.03757
648.25628
659.94402
665.42936
668.0437
673.3339
681.15778
682.27522
684.2549
688.19944
693.93789
690.21053
691.87561
695.25511
700.08726
)
;
        Tnbr            T;
        thicknessLayers List<scalar> 0();
        kappaLayers     List<scalar> 0();
        kappaMethod     solidThermo;
        kappa           none;
        alphaAni        none;
        alpha           none;
        field           T;
    }
}


// ************************************************************************* //
