/*--------------------------------*- C++ -*----------------------------------*\
| =========                 |                                                 |
| \\      /  F ield         | OpenFOAM: The Open Source CFD Toolbox           |
|  \\    /   O peration     | Version:  v2012                                 |
|   \\  /    A nd           | Website:  www.openfoam.com                      |
|    \\/     M anipulation  |                                                 |
\*---------------------------------------------------------------------------*/
FoamFile
{
    version     2.0;
    format      ascii;
    class       volScalarField;
    location    "740/heater";
    object      T;
}
// * * * * * * * * * * * * * * * * * * * * * * * * * * * * * * * * * * * * * //

dimensions      [0 0 0 1 0 0 0];


internalField   nonuniform List<scalar> 
80
(
730.56962
732.67389
736.76013
742.56241
721.04188
723.50626
728.34123
735.27177
701.2909
704.47458
710.87417
720.30089
669.33957
673.33976
681.92078
695.73769
345.09219
342.41397
342.42658
345.02918
421.07992
417.84113
418.02531
421.42916
486.30805
483.55068
484.20436
487.79326
541.84826
540.14986
542.00099
546.38255
587.73123
587.9905
592.58498
600.07144
622.8137
626.44274
635.89127
654.93287
344.99235
342.37671
342.39464
345.00288
421.05041
417.82559
418.00235
421.40763
486.25289
483.53351
484.18273
487.73929
541.77639
540.14815
541.99458
546.32034
587.76542
588.04183
592.59674
600.00968
622.91922
626.53096
635.93728
654.92592
669.79948
673.72328
682.14822
695.78659
701.85058
704.9712
711.23719
720.46569
721.52287
723.93341
728.66949
735.4572
730.8759
732.93115
736.92649
742.62737
)
;

boundaryField
{
    minY
    {
        type            fixedValue;
        value           uniform 300;
    }
    minZ
    {
        type            zeroGradient;
    }
    maxZ
    {
        type            zeroGradient;
    }
    heater_to_topAir
    {
        type            compressible::turbulentTemperatureCoupledBaffleMixed;
        refValue        nonuniform List<scalar> 
40
(
520.10662
516.83161
511.13847
503.82892
483.11424
470.97401
458.21835
447.08562
493.93204
482.87909
471.20562
460.20763
508.83873
505.39972
504.39995
505.21031
506.11118
503.89359
504.84233
506.90033
505.85396
503.09604
503.52776
505.52075
507.97686
503.68179
501.7465
501.68503
493.24382
481.63496
469.33923
457.93783
482.72155
470.51124
457.62868
446.3367
519.83125
516.50049
510.7044
503.25574
)
;
        refGradient     uniform 0;
        valueFraction   nonuniform List<scalar> 
40
(
0.00032132529
0.00032132529
0.00032132529
0.00032132529
0.00032132529
0.00032132529
0.00032132529
0.00032132529
0.00032132529
0.00032132529
0.00032132529
0.00032132529
0.00032132529
0.00032132529
0.00032132529
0.00032132529
0.00032132529
0.00032132529
0.00032132529
0.00032132529
0.00032132529
0.00032132529
0.00032132529
0.00032132529
0.00032132529
0.00032132529
0.00032132529
0.00032132529
0.00032132529
0.00032132529
0.00032132529
0.00032132529
0.00032132529
0.00032132529
0.00032132529
0.00032132529
0.00032132529
0.00032132529
0.00032132529
0.00032132529
)
;
        value           nonuniform List<scalar> 
40
(
730.50236
732.60489
736.68797
742.48601
720.96583
723.42549
728.2548
735.17952
701.22481
704.40384
710.79759
720.21773
669.28836
673.28624
681.86416
695.67691
622.77647
626.40368
635.84951
654.88569
622.8819
626.49161
635.89506
654.87828
669.74786
673.66901
682.09059
695.7246
701.78405
704.89991
711.15992
720.38178
721.44679
723.85257
728.58295
735.36487
730.80879
732.86225
736.8544
742.55107
)
;
        Tnbr            T;
        thicknessLayers List<scalar> 0();
        kappaLayers     List<scalar> 0();
        kappaMethod     solidThermo;
        kappa           none;
        alphaAni        none;
        alpha           none;
        field           T;
    }
    heater_to_rightSolid
    {
        type            compressible::turbulentTemperatureCoupledBaffleMixed;
        refValue        nonuniform List<scalar> 10(749.6814 743.76232 732.00387 714.54407 693.93706 693.88975 714.49783 732.03204 743.80809 749.66595);
        refGradient     uniform 0;
        valueFraction   nonuniform List<scalar> 10(0.49999997 0.49999997 0.49999997 0.49999997 0.49999997 0.49999997 0.49999997 0.49999997 0.49999997 0.49999997);
        value           nonuniform List<scalar> 10(746.12206 739.51722 726.15259 705.1411 674.43516 674.40802 705.1424 726.24909 739.63293 746.14697);
        Tnbr            T;
        thicknessLayers List<scalar> 0();
        kappaLayers     List<scalar> 0();
        kappaMethod     solidThermo;
        kappa           none;
        alphaAni        none;
        alpha           none;
        field           T;
    }
    heater_to_leftSolid
    {
        type            compressible::turbulentTemperatureCoupledBaffleMixed;
        refValue        nonuniform List<scalar> 10(926.08711 925.90195 925.76279 925.35078 924.87301 924.56914 924.5624 924.66813 924.81635 924.94309);
        refGradient     uniform 0;
        valueFraction   nonuniform List<scalar> 10(2.0832898e-05 2.0832898e-05 2.0832898e-05 2.0832898e-05 2.0832898e-05 2.0832898e-05 2.0832898e-05 2.0832898e-05 2.0832898e-05 2.0832898e-05);
        value           nonuniform List<scalar> 10(730.57406 721.04655 701.29611 669.34527 622.82026 622.9258 669.80517 701.85572 721.52776 730.88065);
        Tnbr            T;
        thicknessLayers List<scalar> 1(0.001);
        kappaLayers     List<scalar> 1(0.0005);
        kappaMethod     solidThermo;
        kappa           none;
        alphaAni        none;
        alpha           none;
        field           T;
    }
    heater_to_bottomWater
    {
        type            compressible::turbulentTemperatureCoupledBaffleMixed;
        refValue        nonuniform List<scalar> 
92
(
936.76625
936.40377
934.96435
931.85193
922.98242
920.85177
918.35058
919.18431
914.75414
913.37798
913.04862
914.77589
924.96146
919.52504
918.32654
914.63384
922.05983
914.97893
914.56587
909.36934
921.28332
916.76998
913.2029
909.13261
919.37596
914.41051
907.30464
907.71118
906.42522
906.42522
905.51544
905.51544
907.88679
907.88679
909.97077
909.97077
925.6503
896.47853
911.68378
894.22213
923.30911
897.63666
934.16203
902.05482
926.17831
903.92031
907.19339
912.80758
912.67995
906.84297
899.2976
900.10331
915.64727
916.75378
918.7932
911.95628
896.70839
906.06041
919.52966
919.108
920.46167
914.48628
893.57174
905.64862
917.45775
924.41556
922.26767
915.02243
895.06782
907.1975
919.18153
924.82921
922.55589
913.84539
897.45133
900.74271
924.82921
922.55589
913.84539
900.74271
929.68865
928.31115
926.48248
912.70167
928.5
926.47656
925.12483
921.55712
928.62502
928.53441
924.68584
919.7348
)
;
        refGradient     uniform 0;
        valueFraction   nonuniform List<scalar> 
92
(
0.0075140686
0.0075140686
0.0075140686
0.0075140686
0.0075140686
0.0075140686
0.0075140686
0.0075140686
0.0075140686
0.0075140686
0.0075140686
0.0075140686
0.0075140686
0.0075140686
0.0075140686
0.0075140686
0.0075140686
0.0075140686
0.0075140686
0.0075140686
0.0075140686
0.0075140686
0.0075140686
0.0075140686
0.0075140686
0.0075140686
0.0075140686
0.0075140686
0.0075140686
0.0075140686
0.0075140686
0.0075140686
0.0075140686
0.0075140686
0.0075140686
0.0075140686
0.0075140679
0.0075140679
0.0075140679
0.0075140679
0.0075140679
0.0075140679
0.0075140679
0.0075140679
0.0075140679
0.0075140679
0.0075140679
0.0075140686
0.0075140686
0.0075140686
0.0075140679
0.0075140686
0.0075140679
0.0075140686
0.0075140686
0.0075140686
0.0075140679
0.0075140686
0.0075140679
0.0075140686
0.0075140686
0.0075140686
0.0075140679
0.0075140686
0.0075140679
0.0075140686
0.0075140686
0.0075140686
0.0075140679
0.0075140686
0.0075140679
0.0075140686
0.0075140686
0.0075140686
0.0075140679
0.0075140686
0.0075140686
0.0075140686
0.0075140686
0.0075140686
0.0075140686
0.0075140686
0.0075140686
0.0075140686
0.0075140686
0.0075140686
0.0075140686
0.0075140686
0.0075140686
0.0075140686
0.0075140686
0.0075140686
)
;
        value           nonuniform List<scalar> 
92
(
732.11936
734.20508
738.24978
743.98506
722.55967
724.9895
729.76933
736.65405
702.89541
706.04475
712.39375
721.7626
349.44927
346.75042
346.75396
349.30927
424.84435
421.57673
421.75643
425.09568
489.57669
486.80609
487.42806
490.95945
544.68514
542.96227
544.74614
549.0979
671.12141
590.12598
675.08478
590.37663
683.61912
594.95446
697.34789
602.4004
349.45445
349.17285
424.76638
424.98186
489.59192
490.87307
544.79624
549.0554
590.27441
602.35494
349.21677
349.25896
346.66202
346.63595
349.16791
349.17396
424.76689
424.7752
421.58995
421.714
424.97913
425.04941
489.50864
489.50547
486.81673
487.41617
490.78888
490.87963
544.59938
544.65166
543.01959
544.79773
548.9411
549.03224
590.25588
590.29832
590.55562
595.01088
602.24499
602.26972
671.71617
675.59339
683.88954
697.32702
703.56307
706.64986
712.85501
721.91061
723.07876
725.45592
730.14622
736.85613
732.3625
734.40157
738.33793
743.95877
)
;
        Tnbr            T;
        thicknessLayers List<scalar> 0();
        kappaLayers     List<scalar> 0();
        kappaMethod     solidThermo;
        kappa           none;
        alphaAni        none;
        alpha           none;
        field           T;
    }
}


// ************************************************************************* //
