/*--------------------------------*- C++ -*----------------------------------*\
| =========                 |                                                 |
| \\      /  F ield         | OpenFOAM: The Open Source CFD Toolbox           |
|  \\    /   O peration     | Version:  v2012                                 |
|   \\  /    A nd           | Website:  www.openfoam.com                      |
|    \\/     M anipulation  |                                                 |
\*---------------------------------------------------------------------------*/
FoamFile
{
    version     2.0;
    format      ascii;
    class       volScalarField;
    location    "220/bottomWater";
    object      p;
}
// * * * * * * * * * * * * * * * * * * * * * * * * * * * * * * * * * * * * * //

dimensions      [1 -1 -2 0 0 0 0];


internalField   nonuniform List<scalar> 
1460
(
353.44043
353.46274
353.44941
353.46437
353.4388
353.47902
353.46265
353.46853
353.46696
353.45796
353.48143
353.46401
353.47705
353.46894
353.47502
353.47596
353.47529
353.45651
353.48874
353.46657
353.4809
353.48746
353.50042
353.50013
353.49724
353.49715
353.50176
353.5045
353.50146
353.49657
274.46574
274.46975
274.44033
274.44078
274.44338
274.46216
274.44034
274.41893
274.42594
274.42992
274.46906
274.44246
274.4193
274.41916
274.44472
274.46091
274.43453
274.43871
274.46221
274.43704
274.47884
274.4844
274.47579
274.45549
274.41569
274.42862
274.44834
274.47604
274.45156
274.43481
196.31698
196.27235
196.3081
196.29874
196.30314
196.23992
196.26884
196.28357
196.29017
196.26563
196.24952
196.27934
196.30796
196.29155
196.29286
196.27208
196.32363
196.31492
196.2846
196.30681
196.25924
196.29015
196.28435
196.27912
196.3093
196.29721
196.28388
196.29515
196.28685
196.30409
117.70224
117.70058
117.67609
117.70737
117.67663
117.68217
117.65389
117.6932
117.68856
117.66548
117.67426
117.6837
117.69317
117.7126
117.64473
117.68278
117.67385
117.65473
117.65762
117.65547
117.64792
117.67584
117.69847
117.66
117.65219
117.63114
117.66402
117.67737
117.66046
117.63879
39.244064
39.233493
39.238809
39.241227
39.238673
39.251942
39.253584
39.2553
39.255349
39.257629
39.253473
39.240258
39.247786
39.258104
39.248229
39.236447
39.235007
39.242238
39.240072
39.244899
39.252791
39.231249
39.239085
39.232731
39.246056
39.263648
39.228911
39.237244
39.224119
39.248612
353.44853
353.45663
353.45393
353.46671
353.4576
353.46505
353.46371
353.46755
353.46895
353.46723
353.46785
353.47393
353.48722
353.46196
353.48615
353.469
353.47643
353.47237
353.47898
353.47293
353.47223
353.48516
353.48166
353.48762
353.49692
353.49853
353.49302
353.51444
353.49138
353.49874
274.45656
274.46344
274.48816
274.48321
274.44546
274.42278
274.42271
274.40949
274.41417
274.41701
274.42651
274.46434
274.46967
274.43447
274.46259
274.42554
274.41284
274.41728
274.42471
274.41335
274.40396
274.43638
274.40538
274.41078
274.40199
274.39329
274.41158
274.44738
274.40865
274.40053
196.29802
196.27825
196.26439
196.25162
196.25934
196.27769
196.28486
196.29869
196.29995
196.28173
196.2597
196.25118
196.25734
196.29436
196.28131
196.30903
196.31064
196.32523
196.30902
196.31507
196.3
196.26294
196.32213
196.28113
196.33213
196.28604
196.27648
196.24041
196.26842
196.29167
117.67435
117.66551
117.6462
117.66084
117.64812
117.66734
117.67166
117.6823
117.68612
117.68054
117.64466
117.66271
117.66032
117.65557
117.6745
117.65066
117.64992
117.63224
117.60397
117.64351
117.64052
117.64106
117.64102
117.61049
117.63044
117.66279
117.62541
117.64591
117.61675
117.66355
39.23752
39.223866
39.24585
39.252993
39.253894
39.249681
39.253587
39.2564
39.265071
39.259527
39.25782
39.257501
39.251781
39.242728
39.230292
39.239699
39.236835
39.266683
39.275976
39.24429
39.23785
39.236485
39.233535
39.256755
39.265088
39.250094
39.260351
39.256288
39.248476
39.251439
353.45237
353.44324
353.47035
353.46428
353.46094
353.47058
353.44955
353.47582
353.46135
353.47145
353.4749
353.47222
353.47683
353.48015
353.48327
353.48742
353.47514
353.47577
353.48188
353.48039
353.47939
353.47728
353.48248
353.4876
353.49359
353.49486
353.49281
353.49295
353.49434
353.49651
274.44318
274.44422
274.48467
274.46113
274.41879
274.41829
274.44293
274.42709
274.42695
274.41161
274.41595
274.41155
274.42883
274.44814
274.48429
274.47276
274.41344
274.40956
274.40002
274.40347
274.40206
274.41303
274.39727
274.39025
274.38717
274.38196
274.40899
274.40323
274.39175
274.39562
196.29617
196.27497
196.25441
196.27286
196.29017
196.30286
196.28325
196.27011
196.2777
196.28951
196.30499
196.28447
196.28066
196.26149
196.28513
196.23983
196.2729
196.30513
196.32174
196.33521
196.31534
196.29705
196.30777
196.30889
196.34902
196.33952
196.31903
196.31547
196.32356
196.35802
117.67053
117.64307
117.66181
117.64699
117.67573
117.69796
117.64401
117.67582
117.63803
117.68699
117.68549
117.66973
117.65267
117.67634
117.67336
117.64707
117.64758
117.65813
117.67292
117.67539
117.68682
117.6359
117.68152
117.68156
117.68671
117.67804
117.64183
117.65025
117.66247
117.6736
39.244495
39.250505
39.27404
39.269284
39.262438
39.272165
39.269018
39.263886
39.271507
39.266646
39.268211
39.256412
39.255936
39.241662
39.239475
39.249772
39.25918
39.263422
39.268047
39.27418
39.271609
39.278366
39.257884
39.269379
39.27749
39.281291
39.283416
39.292518
39.264069
39.271681
353.45334
353.45137
353.4528
353.45854
353.46254
353.4587
353.469
353.4715
353.47347
353.47848
353.47193
353.47471
353.48423
353.46823
353.49177
353.47653
353.47861
353.47895
353.4777
353.47482
353.46898
353.48595
353.47194
353.47707
353.4884
353.49212
353.495
353.50676
353.47994
353.49249
274.43009
274.42467
274.43648
274.43239
274.42144
274.43155
274.46317
274.48031
274.4652
274.43125
274.40676
274.41461
274.41031
274.42004
274.45086
274.42852
274.40545
274.40796
274.40812
274.40738
274.41463
274.44734
274.42238
274.4106
274.39432
274.38841
274.42351
274.4412
274.40007
274.40595
196.32414
196.30371
196.29213
196.30014
196.29022
196.26513
196.2449
196.26212
196.254
196.23968
196.25693
196.29961
196.28858
196.29396
196.2618
196.28754
196.30377
196.33821
196.32145
196.29812
196.283
196.25091
196.29814
196.26752
196.3134
196.29256
196.2758
196.25705
196.28164
196.31668
117.67557
117.67098
117.65011
117.6755
117.68963
117.63948
117.66673
117.67366
117.66737
117.64523
117.66415
117.68322
117.70858
117.66054
117.67208
117.64061
117.67265
117.67711
117.67732
117.67278
117.64675
117.65213
117.64528
117.63359
117.67184
117.67865
117.61662
117.64785
117.62734
117.66305
39.259909
39.256088
39.26972
39.248937
39.252381
39.250348
39.24107
39.230498
39.242002
39.248532
39.250967
39.261342
39.252712
39.237585
39.238457
39.254632
39.259303
39.26685
39.260885
39.261268
39.264334
39.253543
39.273036
39.260322
39.273759
39.269715
39.271898
39.25932
39.234473
39.239357
353.45917
353.45291
353.46987
353.46308
353.4684
353.46384
353.47119
353.47862
353.4745
353.48153
353.47942
353.47331
353.48088
353.47645
353.4689
353.46685
353.48304
353.48693
353.49131
353.49622
353.49457
353.49855
353.50311
353.49621
353.49986
353.49153
274.43371
274.44117
274.47209
274.45692
274.42203
274.43655
274.46532
274.49676
274.48233
274.48625
274.4559
274.40638
274.41474
274.41344
274.41557
274.41972
274.46369
274.47907
274.46278
274.43522
274.41508
274.38345
274.45472
274.46067
274.43614
274.42005
196.30879
196.29271
196.26275
196.3188
196.28965
196.29077
196.26432
196.27274
196.27182
196.26761
196.2586
196.27294
196.31129
196.30524
196.27611
196.26316
196.24348
196.27788
196.26814
196.26091
196.28367
196.27803
196.26312
196.28192
196.27631
196.32694
117.68238
117.63538
117.66816
117.65127
117.71337
117.66155
117.69212
117.70293
117.67743
117.67159
117.65664
117.66213
117.69325
117.67818
117.65583
117.65078
117.65537
117.67709
117.66842
117.65983
117.62002
117.67163
117.62549
117.65463
117.68047
117.7004
39.260826
39.263356
39.252502
39.235307
39.241573
39.234918
39.228581
39.23541
39.233887
39.239459
39.251876
39.226058
39.243472
39.247531
39.248814
39.253067
39.252228
39.234887
39.242523
39.234968
39.264469
39.252175
39.258481
39.23252
39.225287
39.247509
353.458
353.44765
353.47207
353.47968
353.47061
353.47349
353.4805
353.47961
353.46973
353.46043
353.48406
353.48098
353.48043
353.49637
353.4828
353.49878
353.50147
353.50801
353.51115
353.51179
353.52222
353.51893
353.52216
353.51918
353.51188
353.4936
274.43847
274.43123
274.4683
274.49655
274.41911
274.4477
274.47524
274.48192
274.44523
274.43564
274.4826
274.45363
274.41874
274.40851
274.40341
274.45558
274.48475
274.48166
274.47243
274.45436
274.44831
274.37335
274.44146
274.45882
274.45431
274.42751
196.30398
196.2919
196.25974
196.26987
196.27789
196.27581
196.26676
196.27074
196.31592
196.29293
196.25758
196.25119
196.28279
196.31091
196.28786
196.27124
196.28968
196.28313
196.28614
196.27896
196.26542
196.27952
196.28407
196.26349
196.29096
196.34514
117.69155
117.66823
117.67695
117.65109
117.6962
117.63197
117.6979
117.70049
117.68481
117.66807
117.66209
117.65306
117.66189
117.69618
117.66757
117.67658
117.68414
117.70013
117.67644
117.66974
117.638
117.67275
117.62814
117.65102
117.6495
117.69624
39.252271
39.245621
39.241662
39.25886
39.244537
39.242884
39.231249
39.235431
39.231793
39.235704
39.254269
39.249193
39.244804
39.237351
39.232052
39.231573
39.234369
39.237635
39.234435
39.238697
39.261962
39.257774
39.264404
39.251794
39.221809
39.253637
353.45759
353.45709
353.45804
353.46127
353.46347
353.47048
353.46696
353.47726
353.46179
353.49118
353.47905
353.47783
353.48085
353.48291
353.47986
353.48047
353.47844
353.47599
353.47592
353.49722
353.50065
353.5117
353.51237
353.51208
353.51152
353.51591
353.51385
353.51214
353.52218
353.51229
274.42774
274.41957
274.43447
274.44669
274.41182
274.45423
274.47353
274.47687
274.44532
274.49155
274.45607
274.40764
274.4019
274.40515
274.40609
274.44388
274.42341
274.41313
274.40338
274.44426
274.46824
274.45768
274.43653
274.40938
274.37465
274.37627
274.37534
274.3797
274.4399
274.44108
196.3259
196.3052
196.29925
196.31082
196.29477
196.26213
196.2818
196.28308
196.29325
196.25829
196.2651
196.27886
196.31751
196.34725
196.33327
196.31326
196.32454
196.30771
196.28578
196.2551
196.28525
196.2866
196.2869
196.27955
196.29946
196.33768
196.28243
196.27382
196.24007
196.28002
117.6723
117.67328
117.6293
117.62018
117.67662
117.61454
117.67882
117.66882
117.65018
117.65515
117.64699
117.63671
117.66876
117.66912
117.65684
117.59196
117.65464
117.65452
117.6376
117.64901
117.66504
117.66191
117.63283
117.61343
117.62812
117.66068
117.65222
117.61528
117.61312
117.65451
39.25829
39.24932
39.263609
39.286086
39.251479
39.255172
39.238081
39.229315
39.254727
39.266984
39.264704
39.262154
39.265519
39.272833
39.260846
39.264223
39.251878
39.239508
39.259298
39.251027
39.23845
39.230229
39.227339
39.254649
39.251579
39.274626
39.263689
39.259027
39.244723
39.230146
353.45832
353.45956
353.46702
353.47027
353.46895
353.47107
353.47831
353.47414
353.45898
353.46351
353.46444
353.46931
353.47455
353.4749
353.46989
353.464
353.48979
353.50296
353.50385
353.50661
353.51501
353.51984
353.52033
353.5175
353.51877
353.51954
353.51699
353.50797
353.50698
353.50173
274.43071
274.43383
274.42376
274.42104
274.41153
274.43675
274.47991
274.46804
274.43769
274.42961
274.43117
274.40615
274.40774
274.40928
274.41637
274.41816
274.42801
274.43175
274.37771
274.39996
274.43128
274.42428
274.37254
274.36683
274.36155
274.36697
274.3694
274.35772
274.39149
274.39397
196.31983
196.30366
196.30632
196.31597
196.28514
196.26704
196.25319
196.27528
196.30299
196.29889
196.29212
196.30772
196.33288
196.33625
196.29753
196.31236
196.28321
196.30823
196.31259
196.30517
196.28772
196.28765
196.2982
196.32457
196.34957
196.38592
196.39402
196.31408
196.32418
196.32274
117.66859
117.64757
117.68577
117.68641
117.68932
117.63375
117.67156
117.66277
117.65576
117.6544
117.63961
117.66468
117.67602
117.67282
117.65174
117.64562
117.64644
117.6132
117.6738
117.62933
117.65844
117.63985
117.6567
117.66954
117.6811
117.69428
117.68972
117.66579
117.62259
117.64746
39.264798
39.278206
39.265809
39.276925
39.264782
39.264472
39.256112
39.236733
39.251669
39.270883
39.263925
39.257271
39.266642
39.264219
39.258411
39.246332
39.24685
39.261157
39.259637
39.259752
39.2412
39.252178
39.250577
39.269837
39.288614
39.305222
39.30699
39.290733
39.289596
39.301071
353.45469
353.46857
353.46377
353.46366
353.47108
353.46518
353.48292
353.47028
353.47219
353.47406
353.46999
353.48597
353.48184
353.47936
353.47089
353.48522
353.5051
353.51094
353.51378
353.50958
353.50758
353.52106
353.50817
353.51512
353.5076
353.50966
353.51397
353.50879
353.5051
353.5055
274.43949
274.45844
274.44007
274.42447
274.42065
274.43622
274.45614
274.4291
274.41159
274.41787
274.43307
274.44974
274.4321
274.41665
274.42171
274.44206
274.46044
274.40387
274.37525
274.38418
274.4057
274.43449
274.39778
274.41452
274.37354
274.36589
274.35749
274.38792
274.38634
274.38155
196.29292
196.24799
196.26957
196.27901
196.2817
196.28537
196.24026
196.27089
196.29266
196.28398
196.31837
196.2706
196.32386
196.29073
196.32133
196.28967
196.27172
196.29214
196.32091
196.30594
196.29516
196.29998
196.32831
196.32186
196.32299
196.33709
196.33117
196.32113
196.32274
196.32961
117.66883
117.65238
117.64691
117.66244
117.69382
117.64328
117.66877
117.63816
117.6903
117.6905
117.65166
117.65524
117.62092
117.65969
117.64831
117.63879
117.62511
117.60589
117.68098
117.67191
117.57513
117.64223
117.61098
117.57897
117.59686
117.62904
117.65465
117.59132
117.6001
117.65057
39.239743
39.246697
39.249009
39.248156
39.249346
39.259009
39.263876
39.263395
39.261514
39.260647
39.243973
39.246451
39.268265
39.248524
39.241552
39.235602
39.259251
39.280975
39.289519
39.280236
39.257051
39.247777
39.245305
39.268488
39.279186
39.267201
39.275928
39.282335
39.252307
39.237372
353.45854
353.47351
353.46981
353.46695
353.4746
353.46492
353.46841
353.4721
353.46679
353.47125
353.47315
353.46846
353.46979
353.46435
353.48386
353.4916
353.51246
353.51525
353.51166
353.50164
353.51305
353.52129
353.52739
353.52249
353.52447
353.50917
353.51828
353.52828
353.51325
353.50428
274.46273
274.49352
274.49045
274.47039
274.47453
274.4358
274.41965
274.42225
274.42435
274.46116
274.45392
274.42702
274.43566
274.43111
274.4635
274.47567
274.46307
274.39197
274.39508
274.40855
274.4391
274.46837
274.4603
274.45102
274.43743
274.41499
274.40491
274.45207
274.43522
274.41017
196.30063
196.27978
196.27072
196.27952
196.2426
196.27991
196.26577
196.31128
196.30423
196.2735
196.27914
196.32075
196.31638
196.31096
196.27953
196.28539
196.25642
196.31808
196.31418
196.29554
196.27071
196.30105
196.28494
196.29707
196.30564
196.32519
196.33247
196.29215
196.30521
196.35171
117.68621
117.6868
117.69396
117.67306
117.67934
117.65871
117.67926
117.67894
117.67046
117.64958
117.66328
117.67624
117.66381
117.67687
117.67081
117.64552
117.62711
117.64858
117.67644
117.62519
117.62533
117.66196
117.6859
117.65907
117.65573
117.62069
117.60144
117.61506
117.62756
117.6738
39.243704
39.232754
39.234448
39.229353
39.241367
39.239958
39.24546
39.262808
39.255412
39.264471
39.247178
39.242676
39.247297
39.239703
39.232499
39.230184
39.251868
39.259108
39.278454
39.275751
39.251975
39.237591
39.240986
39.244901
39.247914
39.255205
39.287838
39.263768
39.226628
39.250944
)
;

boundaryField
{
    minX
    {
        type            calculated;
        value           nonuniform List<scalar> 
50
(
353.44043
274.46574
196.31698
117.70224
39.244064
353.44853
274.45656
196.29802
117.67435
39.23752
353.45237
274.44318
196.29617
117.67053
39.244495
353.45334
274.43009
196.32414
117.67557
39.259909
353.45917
274.43371
196.30879
117.68238
39.260826
353.458
274.43847
196.30398
117.69155
39.252271
353.45759
274.42774
196.3259
117.6723
39.25829
353.45832
274.43071
196.31983
117.66859
39.264798
353.45469
274.43949
196.29292
117.66883
39.239743
353.45854
274.46273
196.30063
117.68621
39.243704
)
;
    }
    maxX
    {
        type            calculated;
        value           nonuniform List<scalar> 
50
(
353.49657
274.43481
196.30409
117.63879
39.248612
353.49874
274.40053
196.29167
117.66355
39.251439
353.49651
274.39562
196.35802
117.6736
39.271681
353.49249
274.40595
196.31668
117.66305
39.239357
353.49153
274.42005
196.32694
117.7004
39.247509
353.4936
274.42751
196.34514
117.69624
39.253637
353.51229
274.44108
196.28002
117.65451
39.230146
353.50173
274.39397
196.32274
117.64746
39.301071
353.5055
274.38155
196.32961
117.65057
39.237372
353.50428
274.41017
196.35171
117.6738
39.250944
)
;
    }
    minY
    {
        type            calculated;
        value           nonuniform List<scalar> 
292
(
392.4
392.4
392.4
392.4
392.4
392.4
392.4
392.4
392.4
392.4
392.4
392.4
392.4
392.4
392.4
392.4
392.4
392.4
392.4
392.4
392.4
392.4
392.4
392.4
392.4
392.4
392.4
392.4
392.4
392.4
392.4
392.4
392.4
392.4
392.4
392.4
392.4
392.4
392.4
392.4
392.4
392.4
392.4
392.4
392.4
392.4
392.4
392.4
392.4
392.4
392.4
392.4
392.4
392.4
392.4
392.4
392.4
392.4
392.4
392.4
392.4
392.4
392.4
392.4
392.4
392.4
392.4
392.4
392.4
392.4
392.4
392.4
392.4
392.4
392.4
392.4
392.4
392.4
392.4
392.4
392.4
392.4
392.4
392.4
392.4
392.4
392.4
392.4
392.4
392.4
392.4
392.4
392.4
392.4
392.4
392.4
392.4
392.4
392.4
392.4
392.4
392.4
392.4
392.4
392.4
392.4
392.4
392.4
392.4
392.4
392.4
392.4
392.4
392.4
392.4
392.4
392.4
392.4
392.4
392.4
392.4
392.4
392.4
392.4
392.4
392.4
392.4
392.4
392.4
392.4
392.4
392.4
392.4
392.4
392.4
392.4
392.4
392.4
392.4
392.4
392.4
392.4
392.4
392.4
392.4
392.4
392.4
392.4
392.4
392.4
392.4
392.4
392.4
392.4
392.4
392.4
392.4
392.4
392.4
392.4
392.4
392.4
392.4
392.4
392.4
392.4
392.4
392.4
392.4
392.4
392.4
392.4
392.4
392.4
392.4
392.4
392.4
392.4
392.4
392.4
392.4
392.4
392.4
392.4
392.4
392.4
392.4
392.4
392.4
392.4
392.4
392.4
392.4
392.4
392.4
392.4
392.4
392.4
392.4
392.4
392.4
392.4
392.4
392.4
392.4
392.4
392.4
392.4
392.4
392.4
392.4
392.4
392.4
392.4
392.4
392.4
392.4
392.4
392.4
392.4
392.4
392.4
392.4
392.4
392.4
392.4
392.4
392.4
392.4
392.4
392.4
392.4
392.4
392.4
392.4
392.4
392.4
392.4
392.4
392.4
392.4
392.4
392.4
392.4
392.4
392.4
392.4
392.4
392.4
392.4
392.4
392.4
392.4
392.4
392.4
392.4
392.4
392.4
392.4
392.4
392.4
392.4
392.4
392.4
392.4
392.4
392.4
392.4
392.4
392.4
392.4
392.4
392.4
392.4
392.4
392.4
392.4
392.4
392.4
392.4
392.4
392.4
392.4
392.4
392.4
392.4
392.4
392.4
392.4
392.4
392.4
392.4
)
;
    }
    minZ
    {
        type            calculated;
        value           nonuniform List<scalar> 
150
(
353.44043
274.46574
196.31698
117.70224
39.244064
353.46274
274.46975
196.27235
117.70058
39.233493
353.44941
274.44033
196.3081
117.67609
39.238809
353.46437
274.44078
196.29874
117.70737
39.241227
353.4388
274.44338
196.30314
117.67663
39.238673
353.47902
274.46216
196.23992
117.68217
39.251942
353.46265
274.44034
196.26884
117.65389
39.253584
353.46853
274.41893
196.28357
117.6932
39.2553
353.46696
274.42594
196.29017
117.68856
39.255349
353.45796
274.42992
196.26563
117.66548
39.257629
353.48143
274.46906
196.24952
117.67426
39.253473
353.46401
274.44246
196.27934
117.6837
39.240258
353.47705
274.4193
196.30796
117.69317
39.247786
353.46894
274.41916
196.29155
117.7126
39.258104
353.47502
274.44472
196.29286
117.64473
39.248229
353.47596
274.46091
196.27208
117.68278
39.236447
353.47529
274.43453
196.32363
117.67385
39.235007
353.45651
274.43871
196.31492
117.65473
39.242238
353.48874
274.46221
196.2846
117.65762
39.240072
353.46657
274.43704
196.30681
117.65547
39.244899
353.4809
274.47884
196.25924
117.64792
39.252791
353.48746
274.4844
196.29015
117.67584
39.231249
353.50042
274.47579
196.28435
117.69847
39.239085
353.50013
274.45549
196.27912
117.66
39.232731
353.49724
274.41569
196.3093
117.65219
39.246056
353.49715
274.42862
196.29721
117.63114
39.263648
353.50176
274.44834
196.28388
117.66402
39.228911
353.5045
274.47604
196.29515
117.67737
39.237244
353.50146
274.45156
196.28685
117.66046
39.224119
353.49657
274.43481
196.30409
117.63879
39.248612
)
;
    }
    maxZ
    {
        type            calculated;
        value           nonuniform List<scalar> 
150
(
353.45854
274.46273
196.30063
117.68621
39.243704
353.47351
274.49352
196.27978
117.6868
39.232754
353.46981
274.49045
196.27072
117.69396
39.234448
353.46695
274.47039
196.27952
117.67306
39.229353
353.4746
274.47453
196.2426
117.67934
39.241367
353.46492
274.4358
196.27991
117.65871
39.239958
353.46841
274.41965
196.26577
117.67926
39.24546
353.4721
274.42225
196.31128
117.67894
39.262808
353.46679
274.42435
196.30423
117.67046
39.255412
353.47125
274.46116
196.2735
117.64958
39.264471
353.47315
274.45392
196.27914
117.66328
39.247178
353.46846
274.42702
196.32075
117.67624
39.242676
353.46979
274.43566
196.31638
117.66381
39.247297
353.46435
274.43111
196.31096
117.67687
39.239703
353.48386
274.4635
196.27953
117.67081
39.232499
353.4916
274.47567
196.28539
117.64552
39.230184
353.51246
274.46307
196.25642
117.62711
39.251868
353.51525
274.39197
196.31808
117.64858
39.259108
353.51166
274.39508
196.31418
117.67644
39.278454
353.50164
274.40855
196.29554
117.62519
39.275751
353.51305
274.4391
196.27071
117.62533
39.251975
353.52129
274.46837
196.30105
117.66196
39.237591
353.52739
274.4603
196.28494
117.6859
39.240986
353.52249
274.45102
196.29707
117.65907
39.244901
353.52447
274.43743
196.30564
117.65573
39.247914
353.50917
274.41499
196.32519
117.62069
39.255205
353.51828
274.40491
196.33247
117.60144
39.287838
353.52828
274.45207
196.29215
117.61506
39.263768
353.51325
274.43522
196.30521
117.62756
39.226628
353.50428
274.41017
196.35171
117.6738
39.250944
)
;
    }
    bottomWater_to_rightSolid
    {
        type            calculated;
        value           nonuniform List<scalar> 
130
(
0.0022375068
7.1971684e-05
0.0048993324
0.01279056
-0.0087505563
-0.00091529455
-0.0072686981
0.0060556852
0.023647727
-0.011089039
-0.0027559768
-0.015880616
0.0086116446
0.026682977
0.035975689
0.0042900773
-0.0021502471
-0.0035152124
-0.0064650711
0.016755195
0.025087722
0.010093587
0.02035084
0.016287878
0.0084756738
0.011438637
0.023421834
0.028046511
0.034180119
0.031609402
0.038366127
0.017883926
0.029378568
0.037490356
0.041291298
0.043416117
0.052518291
0.02406892
0.031681295
0.026849928
0.02088475
0.021268168
0.024333879
0.013543309
0.033035886
0.020321827
0.03375894
0.029714654
0.031898478
0.019320266
-0.0055273691
-0.00064282118
0.0075310324
0.0088135904
0.013066811
0.01222848
-0.0051129831
0.0025231707
-0.0050319917
0.024469112
0.012175137
0.01848073
-0.0074796926
-0.014713107
0.0075086186
-0.0026493048
-0.007947999
-0.0084272106
-0.0056313309
-0.0023654894
-0.0055649586
-0.0013030437
0.021961901
0.01777407
0.024404245
0.011794162
-0.018190611
0.013637261
-0.00049228748
0.019298211
0.011026807
-0.0015499592
-0.0097714625
-0.01266055
0.014648585
0.01157941
0.034626181
0.023688868
0.019027339
0.0047227352
-0.0098536421
0.021157279
0.019636507
0.019751992
0.0012003416
0.012178172
0.010576648
0.029837173
0.048614247
0.065221778
0.066990394
0.050733083
0.049595615
0.061071362
0.040974953
0.04951872
0.04023558
0.01705083
0.0077770449
0.0053050457
0.028487771
0.039185994
0.027201389
0.03592772
0.042335254
0.012306784
-0.0026284895
0.0191078
0.038454128
0.03575109
0.011974942
-0.0024094127
0.00098606847
0.0049005701
0.0079140847
0.015205016
0.047838459
0.023768375
-0.013372084
0.010943934
)
;
    }
    bottomWater_to_leftSolid
    {
        type            calculated;
        value           nonuniform List<scalar> 
130
(
0.0040638798
-0.0065067627
-0.0011912087
0.0012268758
-0.0013267019
0.011941862
0.013583583
0.015300281
0.015348929
0.017629052
0.013472955
0.00025760351
0.0077858144
-0.0024801806
-0.016134209
0.0058495274
0.012993476
0.013893847
0.0096806499
0.013586951
0.016399528
0.025070975
0.019527454
0.017820412
0.017501272
0.011781103
0.0044954672
0.010505075
0.034039847
0.029284322
0.022438053
0.03216493
0.029018475
0.023885867
0.031506672
0.026646454
0.028211215
0.016412351
0.015936466
0.019908609
0.016087984
0.029720467
0.0089368637
0.012381373
0.010348211
0.0010697317
-0.0095024504
0.002002218
0.0085319103
0.010966922
0.021341891
0.012712222
0.020826484
0.023355706
0.01250217
-0.0046932612
0.0015725105
-0.0050819233
-0.011418918
-0.004590453
-0.0061131734
-0.00054108437
0.011876323
-0.013941849
0.0034718173
0.012270965
0.0056211172
0.0016615724
0.018860067
0.004536866
0.0028841574
-0.0087512031
-0.0045691269
-0.008206982
-0.0042964705
0.01426877
0.0091926576
0.0048039997
0.018290044
0.0093198623
0.023609246
0.046086018
0.011479213
0.015171778
-0.0019185095
-0.010684846
0.014726934
0.026983507
0.024703745
0.022154303
0.02551898
0.024797959
0.038205604
0.025808538
0.036925304
0.024781741
0.024472441
0.016112199
-0.0032671652
0.011669114
0.030882836
0.02392514
0.017270892
0.026641663
-0.00025666232
0.0066970493
0.009009339
0.0081562942
0.0093464973
0.019009411
0.023876484
0.023394592
0.021514012
0.020646972
0.0039726426
0.0064508065
0.028265003
0.0037044335
-0.007245793
-0.0055521487
-0.010646571
0.0013665552
-4.1678086e-05
0.005460338
0.022807967
0.015412065
0.024471362
0.0071778822
0.0026761658
0.0072968741
)
;
    }
    bottomWater_to_heater
    {
        type            calculated;
        value           nonuniform List<scalar> 
92
(
0.01810354
0.008229036
-0.0035525802
-0.0049930851
0.0027276052
-0.0097076594
-0.00030129659
-0.0031651685
0.0016620361
-0.00052492197
0.0097724749
0.019180099
353.46823
353.49177
353.47653
353.47861
274.42004
274.45086
274.42852
274.40545
196.29396
196.2618
196.28754
196.30377
117.66054
117.67208
117.64061
117.67265
-0.0024146072
39.237585
-0.0015434894
39.238457
0.014632051
39.254632
0.019302707
39.259303
353.48088
353.47645
274.41474
274.41344
196.31129
196.30524
117.69325
117.67818
39.243472
39.247531
353.48043
353.48291
353.47986
353.48047
353.49637
353.47844
274.41874
274.40515
274.40609
274.44388
274.40851
274.42341
196.28279
196.34725
196.33327
196.31326
196.31091
196.32454
117.66189
117.66912
117.65684
117.59196
117.69618
117.65464
39.244804
39.272833
39.260846
39.264223
39.237351
39.251878
0.032833486
0.020845519
0.024222572
0.011877878
0.024218558
0.018410648
0.006331584
0.0068495508
0.0085235741
0.0015515827
-0.0043981454
0.019251286
-0.00029671643
-0.0075010173
-0.0098160736
0.011867631
)
;
    }
}


// ************************************************************************* //
