/*--------------------------------*- C++ -*----------------------------------*\
| =========                 |                                                 |
| \\      /  F ield         | OpenFOAM: The Open Source CFD Toolbox           |
|  \\    /   O peration     | Version:  v2012                                 |
|   \\  /    A nd           | Website:  www.openfoam.com                      |
|    \\/     M anipulation  |                                                 |
\*---------------------------------------------------------------------------*/
FoamFile
{
    version     2.0;
    format      ascii;
    class       volScalarField;
    location    "220/bottomWater";
    object      p_rgh;
}
// * * * * * * * * * * * * * * * * * * * * * * * * * * * * * * * * * * * * * //

dimensions      [1 -1 -2 0 0 0 0];


internalField   nonuniform List<scalar> 
1460
(
0.28042528
0.30274202
0.28940888
0.304373
0.27880188
0.31901941
0.30265018
0.30852977
0.30696351
0.29796041
0.32142922
0.30401118
0.31705354
0.30893576
0.31501914
0.3159597
0.31529313
0.29651159
0.32873689
0.30657245
0.3208952
0.32746418
0.3404241
0.34013456
0.33723987
0.33715242
0.34176397
0.34449586
0.34146049
0.33656932
-0.2142552
-0.21024616
-0.23967323
-0.23921919
-0.23662227
-0.21783556
-0.23965812
-0.26107353
-0.25406418
-0.25007891
-0.2109415
-0.2375416
-0.26069649
-0.26084346
-0.23528012
-0.21908547
-0.24547091
-0.24129461
-0.21778797
-0.24296491
-0.20116453
-0.19559545
-0.20420644
-0.22450805
-0.264311
-0.25137557
-0.23166009
-0.20396454
-0.22844357
-0.24519493
0.11697559
0.072352456
0.10810482
0.098737107
0.10313522
0.039924966
0.068836432
0.083565059
0.090174304
0.065631623
0.049523013
0.079339374
0.10795516
0.09154654
0.092864009
0.072083106
0.12363026
0.11492446
0.084595723
0.10680848
0.059241563
0.090154634
0.084345458
0.07911814
0.10930422
0.097205317
0.083879159
0.095151374
0.086849482
0.10409328
-0.017763677
-0.019418136
-0.043913728
-0.01262975
-0.043373293
-0.037826307
-0.066113363
-0.026795917
-0.031438546
-0.054519238
-0.045739052
-0.03629838
-0.026828462
-0.0073976907
-0.075274037
-0.037215
-0.046148956
-0.065265539
-0.062379863
-0.06453088
-0.072078504
-0.044155312
-0.021532456
-0.060004237
-0.067809271
-0.088860973
-0.055979681
-0.042625466
-0.059539185
-0.081212772
0.0040638798
-0.0065067627
-0.0011912087
0.0012268758
-0.0013267019
0.011941862
0.013583583
0.015300281
0.015348929
0.017629052
0.013472955
0.00025760351
0.0077858144
0.01810354
0.008229036
-0.0035525802
-0.0049930851
0.0022375068
7.1971684e-05
0.0048993324
0.01279056
-0.0087505563
-0.00091529455
-0.0072686981
0.0060556852
0.023647727
-0.011089039
-0.0027559768
-0.015880616
0.0086116446
0.28853377
0.29662953
0.29392817
0.30670933
0.29760386
0.30504764
0.30371108
0.30754725
0.30894932
0.30722699
0.30785064
0.31392616
0.32722286
0.30195982
0.32614624
0.3090013
0.31642695
0.31236763
0.3189754
0.31293389
0.31222879
0.32515754
0.32166018
0.32761621
0.33691874
0.33852517
0.33302361
0.35443703
0.33137877
0.33874351
-0.22344146
-0.2165592
-0.1918412
-0.19678514
-0.23454382
-0.25721504
-0.25728683
-0.27051089
-0.2658325
-0.26298697
-0.25348791
-0.21565914
-0.21033482
-0.24553169
-0.21740991
-0.25446492
-0.26716485
-0.26271733
-0.25529093
-0.26665293
-0.27603828
-0.24361546
-0.2746237
-0.26921794
-0.27800666
-0.28671082
-0.26842157
-0.23261981
-0.27135175
-0.27947171
0.098015011
0.078246972
0.064387513
0.051624604
0.059337399
0.077686045
0.084860828
0.098687934
0.099952857
0.081731588
0.059698823
0.051180396
0.057336917
0.094360842
0.081306432
0.109029
0.11063695
0.1252266
0.10901624
0.11506502
0.10000392
0.062936584
0.12212514
0.081131912
0.13212853
0.086038451
0.0764826
0.040411696
0.068420008
0.091669002
-0.045645993
-0.05448798
-0.073800991
-0.059164998
-0.071878207
-0.052659284
-0.048342473
-0.037704638
-0.033879202
-0.039458321
-0.075342
-0.057289471
-0.059681038
-0.064433408
-0.045499056
-0.069337865
-0.070076518
-0.087762124
-0.11602713
-0.076488709
-0.079476769
-0.078936213
-0.078980381
-0.10951271
-0.089556924
-0.057214641
-0.094594421
-0.074090816
-0.10325162
-0.056453417
-0.0024801806
-0.016134209
0.0058495274
0.012993476
0.013893847
0.0096806499
0.013586951
0.016399528
0.025070975
0.019527454
0.017820412
0.017501272
0.011781103
0.0027276052
-0.0097076594
-0.00030129659
-0.0031651685
0.026682977
0.035975689
0.0042900773
-0.0021502471
-0.0035152124
-0.0064650711
0.016755195
0.025087722
0.010093587
0.02035084
0.016287878
0.0084756738
0.011438637
0.2923699
0.28323628
0.31035492
0.30428323
0.30093733
0.31058133
0.28955096
0.31581618
0.3013469
0.31145238
0.31489605
0.31221521
0.31683471
0.32015493
0.32327373
0.32742037
0.31513864
0.31577408
0.32188137
0.32038584
0.31938963
0.31727903
0.32248323
0.32760396
0.33358978
0.3348553
0.33280811
0.33295127
0.33434296
0.33650842
-0.23681977
-0.23577526
-0.19533174
-0.21887499
-0.26120799
-0.2617071
-0.23707243
-0.25290904
-0.25305322
-0.26839176
-0.26404789
-0.26844855
-0.25117336
-0.23185812
-0.19570635
-0.20724467
-0.26656303
-0.27043964
-0.2799845
-0.27653384
-0.27794426
-0.2669699
-0.28273452
-0.28974782
-0.29282655
-0.29803863
-0.27100623
-0.2767743
-0.28825011
-0.28438029
0.096167236
0.074973987
0.054411091
0.072863993
0.090165318
0.10286328
0.083245344
0.070113536
0.07769752
0.089510509
0.10499286
0.084465885
0.080663939
0.061490398
0.085128613
0.039827872
0.072899997
0.10512777
0.12174042
0.13520973
0.11533577
0.097048147
0.10777459
0.10889201
0.14902407
0.13951856
0.11902947
0.11547341
0.12355585
0.15801948
-0.049471382
-0.076934301
-0.058190488
-0.07300724
-0.044265566
-0.022042031
-0.075988988
-0.044175911
-0.081971687
-0.033007032
-0.034514721
-0.050270741
-0.067327366
-0.043656079
-0.046642375
-0.072932636
-0.072416297
-0.061874262
-0.04707994
-0.044614687
-0.033178515
-0.084099768
-0.038483134
-0.038438123
-0.033289986
-0.041961537
-0.078165407
-0.069745834
-0.057531555
-0.046403779
0.0044954672
0.010505075
0.034039847
0.029284322
0.022438053
0.03216493
0.029018475
0.023885867
0.031506672
0.026646454
0.028211215
0.016412351
0.015936466
0.0016620361
-0.00052492197
0.0097724749
0.019180099
0.023421834
0.028046511
0.034180119
0.031609402
0.038366127
0.017883926
0.029378568
0.037490356
0.041291298
0.043416117
0.052518291
0.02406892
0.031681295
0.29334172
0.29137311
0.29280172
0.29854143
0.30253912
0.29869932
0.30899669
0.31149654
0.31347063
0.318483
0.31192552
0.31471447
0.32423343
0.30822915
0.33177359
0.31653432
0.31861221
0.31895067
0.31770155
0.31482439
0.30897935
0.32594872
0.3119383
0.3170696
0.32839991
0.33212411
0.33499696
0.34676201
0.31993568
0.33249139
-0.24991224
-0.25533037
-0.24352433
-0.24760718
-0.25856328
-0.24844728
-0.21683264
-0.19969457
-0.21480274
-0.24874782
-0.27323773
-0.26539349
-0.26968706
-0.25996048
-0.22914399
-0.25148171
-0.27455376
-0.27203992
-0.27187676
-0.27261842
-0.26536643
-0.23265524
-0.25762466
-0.26940384
-0.28568423
-0.29159222
-0.2564868
-0.23879734
-0.2799322
-0.27404913
0.12413541
0.10370851
0.092134798
0.10013504
0.090217915
0.065130621
0.04490499
0.062115133
0.053997313
0.039681687
0.05692604
0.099609225
0.088582801
0.09395938
0.061795809
0.087536941
0.10376554
0.1382111
0.12145267
0.09812243
0.08299643
0.050907373
0.098139939
0.067524865
0.11339912
0.092559102
0.075798476
0.057045595
0.081642018
0.11667594
-0.044430313
-0.04902366
-0.069885191
-0.044499253
-0.030365287
-0.080523166
-0.053266358
-0.0463442
-0.052627494
-0.074771147
-0.055851935
-0.036782189
-0.011417274
-0.059460254
-0.047918845
-0.079386669
-0.047348388
-0.04289366
-0.042684596
-0.047218118
-0.073254852
-0.067872935
-0.074722819
-0.086411436
-0.048158706
-0.041348156
-0.10338366
-0.072151659
-0.092662515
-0.056948769
0.019908609
0.016087984
0.029720467
0.0089368637
0.012381373
0.010348211
0.0010697317
-0.0095024504
0.002002218
0.0085319103
0.010966922
0.021341891
0.012712222
-0.0024146072
-0.0015434894
0.014632051
0.019302707
0.026849928
0.02088475
0.021268168
0.024333879
0.013543309
0.033035886
0.020321827
0.03375894
0.029714654
0.031898478
0.019320266
-0.0055273691
-0.00064282118
0.29917163
0.29291099
0.30986516
0.30307663
0.3083987
0.30383815
0.31119402
0.31862024
0.31450191
0.32152939
0.31942227
0.31331462
0.32088083
0.31644569
0.30889963
0.30685276
0.32303919
0.32693467
0.33131117
0.33622247
0.33457208
0.33855153
0.34310711
0.33621369
0.33986174
0.33153404
-0.24629335
-0.23883297
-0.20790674
-0.22307772
-0.25797053
-0.24344559
-0.21467517
-0.18323889
-0.19767223
-0.19374534
-0.2240956
-0.27362396
-0.26526462
-0.26656472
-0.26443459
-0.26028109
-0.216311
-0.20092753
-0.21722155
-0.24478389
-0.26492157
-0.29654955
-0.22527902
-0.21933079
-0.24386009
-0.25995074
0.10879291
0.092710767
0.062748275
0.11879743
0.089653153
0.090770897
0.064324892
0.072741537
0.07182323
0.067613391
0.058602248
0.072942038
0.11129373
0.10523623
0.076109775
0.063160108
0.043477263
0.077876656
0.068141502
0.06091114
0.083671789
0.078030042
0.063121583
0.081916794
0.076314929
0.12693913
-0.037619141
-0.084621241
-0.051838246
-0.068731046
-0.0066259802
-0.058450549
-0.02788305
-0.017072598
-0.042567423
-0.048414585
-0.063358574
-0.057869631
-0.026752578
-0.04181668
-0.064171783
-0.069224393
-0.064628518
-0.042913231
-0.051584539
-0.060165584
-0.099981065
-0.048370053
-0.094506617
-0.065373472
-0.039528485
-0.01959814
0.020826484
0.023355706
0.01250217
-0.0046932612
0.0015725105
-0.0050819233
-0.011418918
-0.004590453
-0.0061131734
-0.00054108437
0.011876323
-0.013941849
0.0034718173
0.0075310324
0.0088135904
0.013066811
0.01222848
-0.0051129831
0.0025231707
-0.0050319917
0.024469112
0.012175137
0.01848073
-0.0074796926
-0.014713107
0.0075086186
0.2979989
0.28764574
0.31206756
0.31968169
0.3106066
0.31349024
0.32049798
0.31960786
0.30973473
0.30042784
0.3240553
0.32098049
0.32042934
0.33636862
0.32280007
0.33878059
0.34146637
0.34801353
0.35115002
0.35179264
0.36222399
0.35893017
0.36215755
0.35918
0.35188451
0.33360485
-0.24153293
-0.24876743
-0.21170226
-0.18344965
-0.26089161
-0.23230438
-0.2047619
-0.1980833
-0.23477393
-0.24435564
-0.19740404
-0.22637136
-0.26125912
-0.27148815
-0.27658988
-0.22441859
-0.19524528
-0.19834226
-0.20757459
-0.22563789
-0.23168562
-0.30665474
-0.23854436
-0.22118491
-0.22569095
-0.25248587
0.10398208
0.091895137
0.059741236
0.069872055
0.077892557
0.075806034
0.066764675
0.070740805
0.11592227
0.092929074
0.057578475
0.051193475
0.082789609
0.11091059
0.087857894
0.071241621
0.089683087
0.083126268
0.086142335
0.078961634
0.065417639
0.079516931
0.084071268
0.063493031
0.090960369
0.1451384
-0.028453447
-0.051767415
-0.04305195
-0.068913459
-0.023798468
-0.088027579
-0.02210006
-0.019509228
-0.035190747
-0.051933861
-0.057908804
-0.066936024
-0.058107979
-0.023816677
-0.052428603
-0.043419698
-0.035855034
-0.019867786
-0.043562492
-0.050262925
-0.082002611
-0.047251722
-0.091859294
-0.068980153
-0.070497814
-0.023757812
0.012270965
0.0056211172
0.0016615724
0.018860067
0.004536866
0.0028841574
-0.0087512031
-0.0045691269
-0.008206982
-0.0042964705
0.01426877
0.0091926576
0.0048039997
-0.0026493048
-0.007947999
-0.0084272106
-0.0056313309
-0.0023654894
-0.0055649586
-0.0013030437
0.021961901
0.01777407
0.024404245
0.011794162
-0.018190611
0.013637261
0.29759301
0.29708947
0.2980405
0.3012729
0.30347148
0.31048111
0.30696204
0.31726118
0.30178675
0.33117783
0.31905076
0.31782775
0.32085046
0.32290808
0.31985521
0.3204742
0.31844076
0.31598731
0.31592257
0.33722466
0.34064828
0.35170014
0.35237467
0.3520766
0.35151588
0.35590557
0.353853
0.35213989
0.36217939
0.35228971
-0.2522634
-0.26042914
-0.24553274
-0.23330524
-0.26818072
-0.22576501
-0.20647308
-0.20312641
-0.23468431
-0.18845292
-0.22392645
-0.27236045
-0.27809708
-0.27484836
-0.2739118
-0.2361234
-0.25659363
-0.26687066
-0.27661804
-0.23573603
-0.21175858
-0.22232253
-0.24346758
-0.27061518
-0.30535445
-0.30373441
-0.30466039
-0.30030268
-0.24010328
-0.23891568
0.12590069
0.10519997
0.099245151
0.11082203
0.094767219
0.062132771
0.081795267
0.083078486
0.093252215
0.058286515
0.065100635
0.078856142
0.11750784
0.14725471
0.13326992
0.11325721
0.12453859
0.10770931
0.085779091
0.055101402
0.085250688
0.086595449
0.08689665
0.079551622
0.099456218
0.13768094
0.082427494
0.073820921
0.040069958
0.080020388
-0.047696046
-0.046723271
-0.090697935
-0.099823784
-0.04337696
-0.10545635
-0.041184666
-0.051177658
-0.069815828
-0.064851784
-0.073007816
-0.08329479
-0.05123901
-0.050879884
-0.063159951
-0.12804134
-0.065360476
-0.06548027
-0.082396591
-0.070988766
-0.054960142
-0.058085643
-0.087170115
-0.10657094
-0.091883595
-0.059320366
-0.06778
-0.10472071
-0.10688289
-0.065486605
0.018290044
0.0093198623
0.023609246
0.046086018
0.011479213
0.015171778
-0.0019185095
-0.010684846
0.014726934
0.026983507
0.024703745
0.022154303
0.02551898
0.032833486
0.020845519
0.024222572
0.011877878
-0.00049228748
0.019298211
0.011026807
-0.0015499592
-0.0097714625
-0.01266055
0.014648585
0.01157941
0.034626181
0.023688868
0.019027339
0.0047227352
-0.0098536421
0.2983206
0.29955916
0.30702101
0.31027237
0.30895089
0.31107199
0.31830581
0.31413725
0.29897609
0.30350973
0.30443924
0.30930606
0.31455458
0.31489911
0.3098864
0.30399947
0.32978596
0.34296413
0.34384681
0.34660826
0.35500535
0.35984219
0.36032651
0.35749944
0.35877367
0.3595358
0.35698652
0.34797397
0.34697554
0.34172947
-0.24929449
-0.24617144
-0.25624393
-0.25896322
-0.26847156
-0.24324776
-0.20008662
-0.21196203
-0.24230592
-0.2503857
-0.2488312
-0.27384829
-0.27226296
-0.27071565
-0.26362831
-0.26183868
-0.2519895
-0.24825313
-0.30229104
-0.28004295
-0.24872123
-0.25571551
-0.30745688
-0.31316618
-0.31844826
-0.31302516
-0.31059707
-0.32227622
-0.28851062
-0.28603114
0.11983201
0.10365646
0.10631751
0.11596953
0.085140334
0.067036668
0.05319352
0.0752777
0.10298581
0.098885027
0.092122895
0.10771682
0.13288467
0.13624862
0.097532261
0.11235737
0.083210743
0.10823459
0.11258869
0.10516903
0.087724449
0.087646057
0.098202661
0.12456743
0.14957059
0.18592256
0.19402095
0.1140848
0.12417533
0.12273604
-0.051409735
-0.072427824
-0.034228309
-0.033592171
-0.030675146
-0.086254034
-0.048442532
-0.057234572
-0.064235153
-0.065596376
-0.08038828
-0.055316403
-0.043975611
-0.047182367
-0.068256552
-0.074382774
-0.073563644
-0.10679732
-0.046201508
-0.090670833
-0.061559338
-0.080152657
-0.063304462
-0.050460585
-0.038896141
-0.025721677
-0.030276601
-0.054206593
-0.097412608
-0.072543221
0.024797959
0.038205604
0.025808538
0.036925304
0.024781741
0.024472441
0.016112199
-0.0032671652
0.011669114
0.030882836
0.02392514
0.017270892
0.026641663
0.024218558
0.018410648
0.006331584
0.0068495508
0.021157279
0.019636507
0.019751992
0.0012003416
0.012178172
0.010576648
0.029837173
0.048614247
0.065221778
0.066990394
0.050733083
0.049595615
0.061071362
0.29469322
0.3085669
0.30377106
0.30366193
0.31108107
0.30518225
0.32292194
0.31028059
0.31219253
0.31406311
0.30998992
0.32597044
0.3218385
0.31936008
0.31089212
0.32522397
0.3451049
0.35094421
0.35378104
0.34958267
0.34758466
0.36106134
0.34817106
0.35512388
0.34759643
0.34965568
0.35396579
0.34879138
0.34510156
0.3454983
-0.24050551
-0.22156455
-0.23992916
-0.25552666
-0.2593495
-0.24377652
-0.22386389
-0.25090365
-0.268405
-0.26213478
-0.24693256
-0.2302569
-0.24789513
-0.26334948
-0.25828703
-0.23793946
-0.21955922
-0.27613234
-0.30475298
-0.29581822
-0.27429639
-0.24550765
-0.28222171
-0.26548152
-0.30645858
-0.31410552
-0.32250754
-0.29208182
-0.2936635
-0.29845262
0.09291507
0.047990036
0.069573942
0.079010084
0.081703944
0.08537163
0.040263899
0.070892711
0.092655236
0.083976987
0.11836884
0.070598458
0.12385826
0.09072832
0.12133276
0.089668547
0.071716915
0.09213805
0.12090528
0.10594011
0.095159943
0.099984474
0.12830993
0.12186066
0.12298982
0.13709046
0.13116665
0.12113305
0.12273925
0.12961472
-0.051166707
-0.067616338
-0.073088374
-0.057560871
-0.026183628
-0.076722858
-0.051226497
-0.081844105
-0.029704899
-0.029497002
-0.068344783
-0.064755889
-0.099083702
-0.060307197
-0.071691566
-0.081205817
-0.094885444
-0.11411062
-0.039019865
-0.048094402
-0.14487177
-0.077774229
-0.10901582
-0.14103197
-0.12314201
-0.09095875
-0.065352442
-0.12867656
-0.1198954
-0.069433967
-0.00025666232
0.0066970493
0.009009339
0.0081562942
0.0093464973
0.019009411
0.023876484
0.023394592
0.021514012
0.020646972
0.0039726426
0.0064508065
0.028265003
0.0085235741
0.0015515827
-0.0043981454
0.019251286
0.040974953
0.04951872
0.04023558
0.01705083
0.0077770449
0.0053050457
0.028487771
0.039185994
0.027201389
0.03592772
0.042335254
0.012306784
-0.0026284895
0.29854044
0.31351028
0.30980882
0.30694501
0.31459632
0.3049169
0.30840927
0.31210144
0.3067898
0.31124815
0.3131452
0.30846389
0.30979015
0.3043492
0.32386333
0.33159706
0.35246464
0.35525234
0.35166083
0.34163997
0.35305412
0.36128583
0.36738516
0.36248589
0.36446725
0.34916727
0.3582845
0.36828165
0.35324696
0.34427948
-0.2172666
-0.18648128
-0.18955322
-0.20960626
-0.20546828
-0.2442039
-0.26034585
-0.25774992
-0.25564923
-0.2188394
-0.22608445
-0.25298061
-0.24433531
-0.24888892
-0.2164983
-0.20433166
-0.21693067
-0.28802967
-0.28492361
-0.27145151
-0.24089729
-0.21162896
-0.21969997
-0.22898213
-0.24256665
-0.26501278
-0.27508726
-0.22792727
-0.24477679
-0.26982764
0.10062613
0.079777253
0.070718432
0.079515278
0.04260361
0.079909788
0.065770073
0.11127819
0.10422568
0.073496839
0.079136976
0.1207451
0.116383
0.11096279
0.079529176
0.085392474
0.056415762
0.11808428
0.11418375
0.095535072
0.070707933
0.10104727
0.084935053
0.097073523
0.10564278
0.12518663
0.13246584
0.092151256
0.10521038
0.15171372
-0.033789744
-0.033195025
-0.02604235
-0.046943194
-0.040660236
-0.061285734
-0.040741234
-0.041061101
-0.049535227
-0.070419754
-0.056717887
-0.043761582
-0.056185107
-0.043130169
-0.049194421
-0.07448103
-0.09289045
-0.071422039
-0.043560113
-0.094808893
-0.094665626
-0.058043287
-0.034099199
-0.060926584
-0.064273905
-0.099312648
-0.11856396
-0.10493956
-0.09243616
-0.046204988
0.0037044335
-0.007245793
-0.0055521487
-0.010646571
0.0013665552
-4.1678086e-05
0.005460338
0.022807967
0.015412065
0.024471362
0.0071778822
0.0026761658
0.0072968741
-0.00029671643
-0.0075010173
-0.0098160736
0.011867631
0.0191078
0.038454128
0.03575109
0.011974942
-0.0024094127
0.00098606847
0.0049005701
0.0079140847
0.015205016
0.047838459
0.023768375
-0.013372084
0.010943934
)
;

boundaryField
{
    minX
    {
        type            fixedFluxPressure;
        gradient        uniform 0;
        value           nonuniform List<scalar> 
50
(
0.28042528
-0.2142552
0.11697559
-0.017763677
0.0040638798
0.28853377
-0.22344146
0.098015011
-0.045645993
-0.0024801806
0.2923699
-0.23681977
0.096167236
-0.049471382
0.0044954672
0.29334172
-0.24991224
0.12413541
-0.044430313
0.019908609
0.29917163
-0.24629335
0.10879291
-0.037619141
0.020826484
0.2979989
-0.24153293
0.10398208
-0.028453447
0.012270965
0.29759301
-0.2522634
0.12590069
-0.047696046
0.018290044
0.2983206
-0.24929449
0.11983201
-0.051409735
0.024797959
0.29469322
-0.24050551
0.09291507
-0.051166707
-0.00025666232
0.29854044
-0.2172666
0.10062613
-0.033789744
0.0037044335
)
;
    }
    maxX
    {
        type            fixedFluxPressure;
        gradient        uniform 0;
        value           nonuniform List<scalar> 
50
(
0.33656932
-0.24519493
0.10409328
-0.081212772
0.0086116446
0.33874351
-0.27947171
0.091669002
-0.056453417
0.011438637
0.33650842
-0.28438029
0.15801948
-0.046403779
0.031681295
0.33249139
-0.27404913
0.11667594
-0.056948769
-0.00064282118
0.33153404
-0.25995074
0.12693913
-0.01959814
0.0075086186
0.33360485
-0.25248587
0.1451384
-0.023757812
0.013637261
0.35228971
-0.23891568
0.080020388
-0.065486605
-0.0098536421
0.34172947
-0.28603114
0.12273604
-0.072543221
0.061071362
0.3454983
-0.29845262
0.12961472
-0.069433967
-0.0026284895
0.34427948
-0.26982764
0.15171372
-0.046204988
0.010943934
)
;
    }
    minY
    {
        type            fixedValue;
        value           uniform 0;
    }
    minZ
    {
        type            fixedFluxPressure;
        gradient        uniform 0;
        value           nonuniform List<scalar> 
150
(
0.28042528
-0.2142552
0.11697559
-0.017763677
0.0040638798
0.30274202
-0.21024616
0.072352456
-0.019418136
-0.0065067627
0.28940888
-0.23967323
0.10810482
-0.043913728
-0.0011912087
0.304373
-0.23921919
0.098737107
-0.01262975
0.0012268758
0.27880188
-0.23662227
0.10313522
-0.043373293
-0.0013267019
0.31901941
-0.21783556
0.039924966
-0.037826307
0.011941862
0.30265018
-0.23965812
0.068836432
-0.066113363
0.013583583
0.30852977
-0.26107353
0.083565059
-0.026795917
0.015300281
0.30696351
-0.25406418
0.090174304
-0.031438546
0.015348929
0.29796041
-0.25007891
0.065631623
-0.054519238
0.017629052
0.32142922
-0.2109415
0.049523013
-0.045739052
0.013472955
0.30401118
-0.2375416
0.079339374
-0.03629838
0.00025760351
0.31705354
-0.26069649
0.10795516
-0.026828462
0.0077858144
0.30893576
-0.26084346
0.09154654
-0.0073976907
0.01810354
0.31501914
-0.23528012
0.092864009
-0.075274037
0.008229036
0.3159597
-0.21908547
0.072083106
-0.037215
-0.0035525802
0.31529313
-0.24547091
0.12363026
-0.046148956
-0.0049930851
0.29651159
-0.24129461
0.11492446
-0.065265539
0.0022375068
0.32873689
-0.21778797
0.084595723
-0.062379863
7.1971684e-05
0.30657245
-0.24296491
0.10680848
-0.06453088
0.0048993324
0.3208952
-0.20116453
0.059241563
-0.072078504
0.01279056
0.32746418
-0.19559545
0.090154634
-0.044155312
-0.0087505563
0.3404241
-0.20420644
0.084345458
-0.021532456
-0.00091529455
0.34013456
-0.22450805
0.07911814
-0.060004237
-0.0072686981
0.33723987
-0.264311
0.10930422
-0.067809271
0.0060556852
0.33715242
-0.25137557
0.097205317
-0.088860973
0.023647727
0.34176397
-0.23166009
0.083879159
-0.055979681
-0.011089039
0.34449586
-0.20396454
0.095151374
-0.042625466
-0.0027559768
0.34146049
-0.22844357
0.086849482
-0.059539185
-0.015880616
0.33656932
-0.24519493
0.10409328
-0.081212772
0.0086116446
)
;
    }
    maxZ
    {
        type            fixedFluxPressure;
        gradient        uniform 0;
        value           nonuniform List<scalar> 
150
(
0.29854044
-0.2172666
0.10062613
-0.033789744
0.0037044335
0.31351028
-0.18648128
0.079777253
-0.033195025
-0.007245793
0.30980882
-0.18955322
0.070718432
-0.02604235
-0.0055521487
0.30694501
-0.20960626
0.079515278
-0.046943194
-0.010646571
0.31459632
-0.20546828
0.04260361
-0.040660236
0.0013665552
0.3049169
-0.2442039
0.079909788
-0.061285734
-4.1678086e-05
0.30840927
-0.26034585
0.065770073
-0.040741234
0.005460338
0.31210144
-0.25774992
0.11127819
-0.041061101
0.022807967
0.3067898
-0.25564923
0.10422568
-0.049535227
0.015412065
0.31124815
-0.2188394
0.073496839
-0.070419754
0.024471362
0.3131452
-0.22608445
0.079136976
-0.056717887
0.0071778822
0.30846389
-0.25298061
0.1207451
-0.043761582
0.0026761658
0.30979015
-0.24433531
0.116383
-0.056185107
0.0072968741
0.3043492
-0.24888892
0.11096279
-0.043130169
-0.00029671643
0.32386333
-0.2164983
0.079529176
-0.049194421
-0.0075010173
0.33159706
-0.20433166
0.085392474
-0.07448103
-0.0098160736
0.35246464
-0.21693067
0.056415762
-0.09289045
0.011867631
0.35525234
-0.28802967
0.11808428
-0.071422039
0.0191078
0.35166083
-0.28492361
0.11418375
-0.043560113
0.038454128
0.34163997
-0.27145151
0.095535072
-0.094808893
0.03575109
0.35305412
-0.24089729
0.070707933
-0.094665626
0.011974942
0.36128583
-0.21162896
0.10104727
-0.058043287
-0.0024094127
0.36738516
-0.21969997
0.084935053
-0.034099199
0.00098606847
0.36248589
-0.22898213
0.097073523
-0.060926584
0.0049005701
0.36446725
-0.24256665
0.10564278
-0.064273905
0.0079140847
0.34916727
-0.26501278
0.12518663
-0.099312648
0.015205016
0.3582845
-0.27508726
0.13246584
-0.11856396
0.047838459
0.36828165
-0.22792727
0.092151256
-0.10493956
0.023768375
0.35324696
-0.24477679
0.10521038
-0.09243616
-0.013372084
0.34427948
-0.26982764
0.15171372
-0.046204988
0.010943934
)
;
    }
    bottomWater_to_rightSolid
    {
        type            fixedFluxPressure;
        gradient        uniform 0;
        value           nonuniform List<scalar> 
130
(
0.0022375068
7.1971684e-05
0.0048993324
0.01279056
-0.0087505563
-0.00091529455
-0.0072686981
0.0060556852
0.023647727
-0.011089039
-0.0027559768
-0.015880616
0.0086116446
0.026682977
0.035975689
0.0042900773
-0.0021502471
-0.0035152124
-0.0064650711
0.016755195
0.025087722
0.010093587
0.02035084
0.016287878
0.0084756738
0.011438637
0.023421834
0.028046511
0.034180119
0.031609402
0.038366127
0.017883926
0.029378568
0.037490356
0.041291298
0.043416117
0.052518291
0.02406892
0.031681295
0.026849928
0.02088475
0.021268168
0.024333879
0.013543309
0.033035886
0.020321827
0.03375894
0.029714654
0.031898478
0.019320266
-0.0055273691
-0.00064282118
0.0075310324
0.0088135904
0.013066811
0.01222848
-0.0051129831
0.0025231707
-0.0050319917
0.024469112
0.012175137
0.01848073
-0.0074796926
-0.014713107
0.0075086186
-0.0026493048
-0.007947999
-0.0084272106
-0.0056313309
-0.0023654894
-0.0055649586
-0.0013030437
0.021961901
0.01777407
0.024404245
0.011794162
-0.018190611
0.013637261
-0.00049228748
0.019298211
0.011026807
-0.0015499592
-0.0097714625
-0.01266055
0.014648585
0.01157941
0.034626181
0.023688868
0.019027339
0.0047227352
-0.0098536421
0.021157279
0.019636507
0.019751992
0.0012003416
0.012178172
0.010576648
0.029837173
0.048614247
0.065221778
0.066990394
0.050733083
0.049595615
0.061071362
0.040974953
0.04951872
0.04023558
0.01705083
0.0077770449
0.0053050457
0.028487771
0.039185994
0.027201389
0.03592772
0.042335254
0.012306784
-0.0026284895
0.0191078
0.038454128
0.03575109
0.011974942
-0.0024094127
0.00098606847
0.0049005701
0.0079140847
0.015205016
0.047838459
0.023768375
-0.013372084
0.010943934
)
;
    }
    bottomWater_to_leftSolid
    {
        type            fixedFluxPressure;
        gradient        uniform 0;
        value           nonuniform List<scalar> 
130
(
0.0040638798
-0.0065067627
-0.0011912087
0.0012268758
-0.0013267019
0.011941862
0.013583583
0.015300281
0.015348929
0.017629052
0.013472955
0.00025760351
0.0077858144
-0.0024801806
-0.016134209
0.0058495274
0.012993476
0.013893847
0.0096806499
0.013586951
0.016399528
0.025070975
0.019527454
0.017820412
0.017501272
0.011781103
0.0044954672
0.010505075
0.034039847
0.029284322
0.022438053
0.03216493
0.029018475
0.023885867
0.031506672
0.026646454
0.028211215
0.016412351
0.015936466
0.019908609
0.016087984
0.029720467
0.0089368637
0.012381373
0.010348211
0.0010697317
-0.0095024504
0.002002218
0.0085319103
0.010966922
0.021341891
0.012712222
0.020826484
0.023355706
0.01250217
-0.0046932612
0.0015725105
-0.0050819233
-0.011418918
-0.004590453
-0.0061131734
-0.00054108437
0.011876323
-0.013941849
0.0034718173
0.012270965
0.0056211172
0.0016615724
0.018860067
0.004536866
0.0028841574
-0.0087512031
-0.0045691269
-0.008206982
-0.0042964705
0.01426877
0.0091926576
0.0048039997
0.018290044
0.0093198623
0.023609246
0.046086018
0.011479213
0.015171778
-0.0019185095
-0.010684846
0.014726934
0.026983507
0.024703745
0.022154303
0.02551898
0.024797959
0.038205604
0.025808538
0.036925304
0.024781741
0.024472441
0.016112199
-0.0032671652
0.011669114
0.030882836
0.02392514
0.017270892
0.026641663
-0.00025666232
0.0066970493
0.009009339
0.0081562942
0.0093464973
0.019009411
0.023876484
0.023394592
0.021514012
0.020646972
0.0039726426
0.0064508065
0.028265003
0.0037044335
-0.007245793
-0.0055521487
-0.010646571
0.0013665552
-4.1678086e-05
0.005460338
0.022807967
0.015412065
0.024471362
0.0071778822
0.0026761658
0.0072968741
)
;
    }
    bottomWater_to_heater
    {
        type            fixedFluxPressure;
        gradient        uniform 0;
        value           nonuniform List<scalar> 
92
(
0.01810354
0.008229036
-0.0035525802
-0.0049930851
0.0027276052
-0.0097076594
-0.00030129659
-0.0031651685
0.0016620361
-0.00052492197
0.0097724749
0.019180099
0.30822915
0.33177359
0.31653432
0.31861221
-0.25996048
-0.22914399
-0.25148171
-0.27455376
0.09395938
0.061795809
0.087536941
0.10376554
-0.059460254
-0.047918845
-0.079386669
-0.047348388
-0.0024146072
-0.0024146072
-0.0015434894
-0.0015434894
0.014632051
0.014632051
0.019302707
0.019302707
0.32088083
0.31644569
-0.26526462
-0.26656472
0.11129373
0.10523623
-0.026752578
-0.04181668
0.0034718173
0.0075310324
0.32042934
0.32290808
0.31985521
0.3204742
0.33636862
0.31844076
-0.26125912
-0.27484836
-0.2739118
-0.2361234
-0.27148815
-0.25659363
0.082789609
0.14725471
0.13326992
0.11325721
0.11091059
0.12453859
-0.058107979
-0.050879884
-0.063159951
-0.12804134
-0.023816677
-0.065360476
0.0048039997
0.032833486
0.020845519
0.024222572
-0.0026493048
0.011877878
0.032833486
0.020845519
0.024222572
0.011877878
0.024218558
0.018410648
0.006331584
0.0068495508
0.0085235741
0.0015515827
-0.0043981454
0.019251286
-0.00029671643
-0.0075010173
-0.0098160736
0.011867631
)
;
    }
}


// ************************************************************************* //
