/*--------------------------------*- C++ -*----------------------------------*\
| =========                 |                                                 |
| \\      /  F ield         | OpenFOAM: The Open Source CFD Toolbox           |
|  \\    /   O peration     | Version:  v2012                                 |
|   \\  /    A nd           | Website:  www.openfoam.com                      |
|    \\/     M anipulation  |                                                 |
\*---------------------------------------------------------------------------*/
FoamFile
{
    version     2.0;
    format      ascii;
    class       surfaceScalarField;
    location    "220/bottomWater";
    object      phi;
}
// * * * * * * * * * * * * * * * * * * * * * * * * * * * * * * * * * * * * * //

dimensions      [1 0 -1 0 0 0 0];
oriented        oriented;


internalField   nonuniform List<scalar> 
3858
(
-0.00013554837
0.0001253359
1.8871646e-05
4.1659203e-05
-0.00025965509
8.6647428e-05
6.2155898e-05
4.5021698e-06
-1.8322561e-05
-3.5034692e-05
9.7807099e-05
3.0084801e-06
-0.00012340249
0.00016117206
-6.3755263e-05
9.9138602e-05
-0.0002724833
5.079792e-05
0.00010748368
-1.6911353e-05
1.2575733e-05
-3.3499542e-05
0.00014688658
-3.0709345e-06
-0.00017169746
0.00015597039
-1.4553014e-05
-0.00021312918
5.4578319e-05
-8.0136269e-06
1.9520614e-05
-0.00028932008
5.705409e-05
6.7391028e-05
-4.0094483e-05
-4.1251469e-06
1.212086e-06
7.9918475e-05
-1.2771128e-05
-9.0924826e-05
0.00014101061
-4.6134011e-05
-5.1112152e-05
6.0029592e-05
-9.8345466e-05
0.00011931785
-0.00016691763
-2.1816136e-06
2.8810336e-05
7.464844e-05
1.7251977e-05
-9.6176593e-05
0.00013066691
-3.8520344e-07
-5.2635887e-05
-0.00016809439
0.00012331961
-0.0002561743
8.7905603e-05
0.00011903573
-0.00027057222
-0.00014285379
0.00015793562
-0.0001483251
-0.00026645561
0.00014354244
6.0502151e-05
-0.00035331942
0.00014105708
0.0001475325
-0.00022165347
0.00013113202
-3.723028e-05
6.3749515e-05
0.00011796213
-0.00020807411
5.65231e-05
0.0001113255
-0.00010838686
-0.00022056026
0.00011712154
7.736158e-05
-0.00025023725
6.004363e-05
0.00016227471
-0.00021099309
0.00012232482
6.5433031e-05
9.3911678e-05
-1.2683085e-05
6.9162223e-06
0.00013110277
0.0002553187
-0.0006293727
0.00010171582
0.00017415916
0.00013117037
-4.5508663e-05
-6.1636863e-05
0.0004030796
-6.9476482e-05
1.4814679e-06
2.5554373e-05
7.249936e-05
0.00028459874
-0.00068156617
0.00012596559
0.00033644038
-0.00012674883
5.7995841e-05
4.691735e-07
0.00048278605
7.1743787e-08
-0.00029664396
0.00045959131
-6.5077819e-06
-0.00021158914
-8.5901512e-05
5.5425015e-05
8.9685095e-05
-0.00067637223
8.5777914e-05
0.00025914736
-0.00021876159
9.2048452e-06
5.0207019e-05
0.00033197966
-4.3120843e-05
-0.00028467303
0.00064643134
-0.00017054067
-0.0001497511
3.8220437e-05
-0.00011311278
0.00017055401
-0.00047684312
-1.0379614e-05
2.9258081e-05
0.00013043752
8.5506848e-05
-1.6708204e-06
1.4884027e-05
0.00014671178
7.09178e-05
-0.00042738002
0.00018669701
-0.00013823379
6.1601008e-05
0.00023545618
-0.00013951229
-0.00039148373
0.00024990843
-2.3359173e-05
-0.00053984854
0.00015723982
0.00012578254
-0.00069058008
0.00018811894
0.0002340519
-0.00050969497
0.00017977214
-7.8604377e-05
0.00022741002
0.00014899578
-0.00028307131
6.9530291e-06
0.000254037
-0.00011033077
-0.00054733769
0.0001540369
8.6636831e-05
-0.00051742687
7.0222017e-05
0.00021253519
-0.00050989581
0.00017300436
2.1924929e-05
0.00025604329
0.00019951747
-0.00032573682
0.00013313557
-7.6702541e-05
-0.00041724386
6.4091169e-05
-2.7299979e-05
-0.00012479339
0.00020656121
0.00020035129
0.00010556602
6.9862314e-05
0.00033358092
-0.00018953779
8.1862533e-05
-0.00013167935
-0.00012424239
-9.2063507e-05
-0.00014394432
-8.6411732e-05
-2.8072123e-05
-6.2488819e-06
0.00035897648
-1.3885865e-05
0.00012504589
0.00034481917
-1.6522624e-05
0.00020850514
-9.8071391e-05
-7.1289365e-05
-0.00017892089
-0.00014968328
-0.0001392629
-0.00013344152
-0.00028043041
1.6189455e-05
-5.4904276e-06
8.3489886e-05
0.00012053869
4.9722413e-05
0.00056140387
2.9814638e-05
0.00015177096
-6.7090581e-05
3.2624725e-06
-4.0348062e-05
-0.000315182
3.0457907e-05
0.00014794594
-0.0002073391
0.00014948262
0.00029456339
-0.0002096579
7.7924476e-05
0.00020816875
-0.0002800842
-6.0901175e-05
0.0003191521
-8.0554698e-05
3.1172352e-05
4.7123121e-05
-9.7592561e-05
-2.1862186e-05
-7.5550472e-05
-0.0003898924
-2.7282549e-05
-5.3450758e-05
-0.00052502802
-0.00018765178
-4.9275043e-05
-0.00037708057
-0.00013679012
0.0001828352
6.5215327e-05
-6.9915555e-05
0.00017620803
-8.121756e-05
9.4797764e-05
2.0956219e-05
-0.00037052157
-2.1564315e-05
-1.5242684e-05
-0.00044272666
-3.8501308e-05
-7.3564271e-05
-0.00040229523
-4.9278986e-05
-0.00011630634
6.4666999e-05
-6.1510277e-05
-0.00028304096
1.8814421e-05
-0.00014060908
-0.00036822362
3.0078556e-05
-0.00018340433
-0.00019943922
0.00011744108
-6.1279104e-05
-0.00015443655
0.00013787735
-2.9806745e-05
-0.00019365132
-2.7358826e-05
-0.00013045852
1.7338601e-05
-4.0929213e-05
-0.00026312503
4.3792946e-05
2.4618405e-06
-2.6562391e-05
8.4322136e-05
3.8091715e-05
0.00019104901
8.7217083e-05
3.9990694e-05
8.7886549e-05
7.8739651e-05
-7.3648572e-05
-5.1989923e-05
-3.0637975e-06
-6.7430033e-06
-9.8554252e-05
-0.00022601653
-7.849532e-06
-4.439302e-05
-0.00014601961
0.00017534828
0.00027337272
0.00012769645
0.00011594168
0.00023210083
4.6459908e-05
-7.2278597e-05
0.00021287377
-0.0003087723
1.2817361e-05
0.00022275672
-0.00028722866
7.0006626e-05
0.00010672349
-0.0001305718
3.6947134e-05
0.00010054417
-0.00024335568
-3.0549192e-05
0.00010619454
-6.8252789e-05
-1.7952288e-05
-5.4276086e-05
0.00011599204
-5.3113975e-05
-6.2903495e-05
-0.00037954877
-1.7162262e-06
1.4072611e-05
-0.00051629754
-8.5706589e-05
0.00014993148
-0.00038965636
-0.00012328308
0.00021235445
1.9135858e-05
-1.6343511e-05
-4.3647321e-05
0.00020431815
-2.9533936e-05
-4.8641916e-05
-0.00034060432
-2.4922647e-05
4.4940196e-05
-0.00048028486
-5.6023914e-05
0.00012191135
-0.00041866986
-6.0596524e-05
9.0638841e-05
-8.503383e-05
-0.00013429853
-0.00014874242
-0.00030974311
-0.00019277904
-0.00031407993
-0.00019510241
-0.00029602354
-0.00017249294
-0.00034008568
-0.00014958919
-0.00025364111
-6.9105964e-05
-0.00017030111
-3.9547053e-05
-7.0387335e-05
-1.5591627e-05
5.5993257e-05
-3.9163502e-05
0.00021308989
-7.8356975e-05
0.00031192841
-0.00010190231
0.00022249596
-0.00013658408
0.00015656773
-8.0091378e-05
0.00027308472
1.117946e-05
0.00032328511
-3.7404738e-06
0.00010700008
-9.2487267e-05
-6.3609041e-05
-0.00011661955
-3.2521358e-05
-0.00016165948
-4.5443027e-05
-0.00023043401
5.3456916e-05
-0.00016715273
0.00026719071
-9.7741755e-05
7.9108381e-05
-0.00019146644
-0.00021088549
-0.00022630367
-0.00033718324
-0.00026335861
-0.00010104152
-0.00021700586
0.00019633273
-9.3056102e-05
0.00011756064
-0.00026183223
-5.004783e-05
-0.00031267639
-0.00021787063
-0.00025084707
-0.00012723179
-0.00014863816
0.00012394309
5.0583634e-05
-0.00010753838
-7.4770962e-05
0.00012578762
-1.8032004e-05
-0.00011525176
1.3257859e-05
0.00013684096
-0.00020796349
5.9399798e-05
0.00011145625
-2.2619443e-05
-1.0624681e-05
7.5017132e-05
8.7364766e-05
3.4455099e-06
2.3708222e-05
0.00015340926
-8.5658332e-05
-3.9441759e-05
0.00016584447
-0.0001027052
-0.00013610274
0.00016353749
-7.8586867e-05
-0.00024520378
0.00016745879
-6.3034493e-05
-0.00028045514
8.5709725e-05
9.8472622e-06
-0.00012057153
-0.00016696552
4.8800217e-06
1.1673106e-05
-0.00016903177
2.3006458e-05
-5.7628288e-05
0.00012281398
-9.54304e-05
8.6386021e-05
-0.00018256014
-6.047054e-05
0.00015012037
-1.7999728e-06
-6.1380842e-05
8.2152253e-05
0.00011299004
-2.6505909e-05
-2.7036605e-07
0.00011282959
-2.8812786e-05
-5.9922438e-05
7.848483e-05
0.00010520665
-0.00019854243
0.00014965544
0.00011017319
-0.00026046442
9.3252871e-05
0.00012907316
-0.0001420604
-0.00010551249
0.00013041467
-0.00012397697
2.5886913e-05
9.7377599e-05
-0.0001438714
0.0001019721
4.8129654e-05
-0.0001588226
0.00012133838
8.7309454e-06
-0.00019692145
0.00014641116
-1.1167659e-07
-0.00013875061
5.1492012e-05
5.3862889e-06
0.0001343391
-0.0002642501
4.4820152e-05
0.00012841752
7.422375e-05
5.2291664e-05
0.00015288138
6.6156985e-05
-9.2659704e-05
0.00014606309
0.00020164247
-2.4722463e-05
-0.00025990633
0.00021891395
5.9844803e-05
-0.00033356934
8.8241648e-05
0.00024425669
-0.00052558172
6.3729859e-05
0.00034167067
-0.00017137787
0.00012384381
0.00028403337
0.00020448433
6.6483325e-05
0.0002504429
0.0003288068
-8.3811232e-05
8.0439999e-05
0.00045272948
-0.00011681037
-0.00018355049
0.00057582536
-0.00015480517
-0.0003782373
0.00048322267
-6.5652045e-05
-0.00034608509
2.1651288e-05
0.00011768415
-0.00014136668
-0.0004753151
0.00011283602
-2.7068932e-05
-0.00044298044
0.00011653007
1.1328507e-05
3.5956494e-05
-0.00012208063
0.00023393879
-0.00046872352
-4.9559679e-05
0.00034603358
-0.00010401581
-2.0258573e-05
0.0001932817
0.00030890323
4.2345544e-05
0.00012655587
0.00020155486
0.00012471234
0.00015788613
-1.331116e-05
0.00024716274
-8.9406016e-05
0.0004006874
0.00023171636
-0.00024532748
0.00029652241
0.00020256036
1.9783544e-05
-0.00034471753
0.00013133383
6.0926228e-05
-5.5578102e-05
0.00022844127
5.9965269e-05
5.9118066e-05
0.00022358713
-9.2933339e-05
0.00027827205
0.00014496071
-0.00037353456
0.00053555642
0.00014549296
-0.00022633727
-1.823338e-05
7.6565003e-05
0.00020880472
-0.00065774209
2.8572015e-05
0.00029892256
4.883302e-05
0.00010827725
0.00058695814
0.0001208891
0.0002377825
-0.00011625914
0.0001576753
0.00021184432
-0.00025100203
8.112505e-05
3.2103967e-05
-8.0186855e-05
0.00013291908
-0.00017685769
-0.00011542199
-0.00013133576
-0.00015035481
-0.00012010548
4.0872583e-06
-8.6425787e-06
5.464038e-05
-8.3931786e-05
5.6011249e-05
0.00016335869
7.2722165e-05
7.4837627e-05
0.00034225336
7.7763891e-05
1.6059006e-05
0.00051125053
0.00010683084
0.00011484592
0.00037495269
-6.1806295e-05
0.000143922
-6.4349115e-05
-8.2338562e-05
-0.00010351868
-0.00012249336
-8.919161e-05
-0.00024967827
-0.00011205574
-6.4226407e-05
-8.1258914e-05
-0.00017048133
6.7833112e-05
-8.4655841e-05
-0.00045705366
-5.0104635e-06
-4.5847637e-06
-0.00026598369
0.00011235471
0.00013796744
0.00015390117
0.00016193248
0.00020554414
7.7500421e-05
0.00013440222
0.00016048684
-7.1363657e-05
4.2208619e-05
0.00016289497
0.00029600432
0.0001334473
4.9547989e-05
0.00026563874
0.00012236846
-0.00014304411
-0.00019956012
2.0152145e-05
-6.087464e-05
-0.00033035653
4.9571775e-06
-3.7698475e-05
-7.1680168e-05
-2.9168051e-05
3.216207e-05
0.00013648296
2.0129863e-06
0.00022423485
0.00036896827
6.9313135e-05
0.00023667863
-1.8921256e-05
-3.3320215e-05
-0.00023598192
-0.00011224528
-0.00011133757
-0.00015295472
-1.0014458e-06
-8.2471724e-05
0.00048358205
1.5088373e-05
6.8916808e-05
-0.00019782869
3.1467164e-05
5.6660369e-07
-0.00021003252
5.7459259e-05
-0.00012116374
7.7300338e-05
8.1684227e-05
-0.00019470992
9.7256885e-05
-1.2553405e-06
-0.00031152345
7.0579511e-05
-0.00010123029
-0.00022320046
-3.6567078e-05
-3.8044737e-05
-0.00012978985
6.4809024e-05
7.6008996e-06
9.2384884e-07
0.00019499204
5.4639339e-05
0.00013333009
0.0003007174
0.00011811759
0.00028583837
0.00016583716
-1.7041305e-05
0.00017754467
8.782596e-05
-5.0624369e-05
4.9533631e-05
0.00010669413
-0.00010902597
5.0869439e-05
9.2136102e-05
-3.0179366e-05
8.5578647e-05
-0.00013575716
4.6508307e-05
0.00011247357
-0.0004777677
-7.8459471e-05
0.00015807356
-0.00020146874
-9.7297567e-05
0.00033593871
9.2817341e-05
-4.6774699e-05
0.00020468041
0.00030971982
-6.4013959e-05
-0.00012731806
0.00031187235
-8.1786733e-05
4.8609763e-06
0.00010914077
3.6732231e-05
0.00019240431
1.6048621e-07
2.4820947e-05
0.00011373143
-0.00015781017
3.5206696e-05
6.332451e-05
-0.00033357366
-3.2082543e-05
-0.00016075591
0.00011678024
-8.7663074e-05
-0.00020788605
0.00028181993
-0.00011455033
0.00010352265
5.1444292e-05
-2.3418658e-05
-3.3943362e-05
7.7599182e-05
1.6022928e-05
-0.00024179904
5.6903968e-05
-1.7317488e-05
-0.0002762186
4.7852489e-05
-7.5030899e-05
0.00015346615
-3.1136523e-05
-0.00015984374
-0.00018672738
-0.00034376501
-0.00021889029
-0.00028119609
-0.00018037099
-0.00019334917
-0.00016308298
-0.00015911183
-0.00011324701
-0.00020940409
-5.5380775e-05
-0.00018540866
1.2665447e-06
-7.824713e-05
7.2238887e-05
0.00010749724
7.5809533e-05
0.00019560211
-6.2467134e-07
0.00022469673
-4.3170956e-05
0.00027938704
-8.4580258e-05
0.00036510008
-7.3668306e-05
0.00026087008
-2.0347696e-05
-0.00011445824
-0.00010617985
-0.00024758417
-0.00016083007
-0.00013922326
-0.00013216311
4.5066216e-05
-3.6229141e-05
0.00018346719
-5.6962631e-05
0.00020123216
-7.5776933e-05
0.00018895122
-8.5300329e-05
-1.0978359e-05
-0.00014934704
-0.00031770706
-0.00025314863
-0.00029886791
-0.00016541752
-8.8910703e-05
-0.00014514314
1.237282e-05
-0.00014289533
8.0438071e-06
-0.00017990403
-3.498692e-05
-0.00021274169
-0.00010350943
-0.00013447207
-7.7275072e-05
-0.00015247503
0.00014511881
6.4212804e-05
-0.00018731718
0.00010024194
6.8683709e-05
7.7374305e-05
-0.00030363829
5.4909302e-05
0.00018166236
-7.6029983e-05
3.4947382e-05
9.1662871e-05
8.226392e-05
1.5632786e-06
2.1966443e-05
0.00011325342
-3.7729173e-05
-1.1057773e-06
0.00010059197
-0.00015637219
7.7466603e-05
-6.5533185e-05
-0.00011437815
2.6547223e-05
9.6509584e-05
-0.00011978697
-6.446939e-05
0.00013108946
-0.00010081714
-0.00014033011
0.00014135826
-5.4053849e-05
-0.00022344613
0.00013161861
-4.1372841e-05
-0.00020893771
2.7420463e-05
-1.7657745e-05
-0.00010815708
-0.00020536303
9.8285155e-06
5.0614931e-05
-0.00021635067
-3.0055535e-06
0.00021992495
-0.00027825941
4.6768973e-05
0.000175981
2.5110582e-05
-6.0931504e-06
4.1799834e-05
0.00014394534
-3.7148685e-05
-5.0395872e-05
0.00014493952
5.2603364e-05
-0.00012477691
0.00014530717
3.9755067e-05
-0.00015066102
0.00015663737
-8.9621205e-07
-0.00015069884
0.0001501543
-1.8453114e-05
-0.00013862541
0.00016022724
-7.4731884e-05
-0.00014591851
0.00017814035
-0.00012357288
-0.00013435218
0.0001528256
-0.00015777858
-0.00012946772
0.00015390887
-0.00016130025
-9.62813e-05
0.00012121967
-0.00015105268
2.0979184e-05
1.5811091e-05
-9.0502011e-05
1.9502171e-05
0.00015807358
-0.00010677183
0.00013100146
-4.8313764e-05
-0.00023517265
0.0003897062
0.00019222773
-0.00010674647
-6.9315255e-07
0.00019142286
0.00026476624
-0.00066746134
8.0551992e-05
0.00045459592
-0.00018713352
-1.4996291e-05
0.00018330814
0.00049000725
-1.2611739e-05
-0.00014063928
0.00061427417
-0.00011059001
1.8740182e-05
1.6383481e-05
-0.0001589822
0.00024147019
-0.00029799893
-0.00010707463
0.00034212462
-8.2111886e-06
-0.00015073882
6.0237029e-05
0.00052613156
-0.00017880655
-0.00024113817
0.0005938105
-3.3392895e-05
-0.00033827384
0.00032344888
1.8141429e-05
-0.00023829267
-6.7955609e-05
0.00011192498
-6.966057e-05
-0.0005551842
5.9108438e-05
8.843351e-05
-0.00046273175
3.872733e-05
0.00031149047
-0.00064616994
0.00012459499
0.00037098461
-9.0665625e-05
9.8627618e-05
0.00031502639
0.00029066619
3.3949715e-05
0.00013533359
0.0005277539
4.404116e-05
-9.9533343e-05
0.00058904423
2.2846242e-05
-0.00020327629
0.00049585301
-3.2912336e-05
2.0124003e-05
2.5128589e-05
3.2959245e-05
0.00010094741
0.00034452476
-3.6679661e-05
4.1313869e-05
0.00054453894
-8.3177919e-05
-0.00014274836
0.00058885471
-0.00010700617
-0.0003583977
0.00058689477
-7.1843609e-05
-0.00016847669
0.00010621064
-9.8346973e-05
9.0832014e-05
-0.00013627042
-7.8655172e-05
0.00014160717
0.00038485983
-0.00016928415
0.00053896279
-0.00014546506
0.00022640602
0.00021110729
0.00010986818
0.00034609866
-7.3511054e-05
3.4250307e-05
-2.1830669e-05
-0.00012154361
-4.5069313e-05
-2.2996006e-05
-5.1558847e-05
-0.00026574509
8.0375041e-05
0.00043492922
-4.4205753e-05
0.0001296846
0.00050989577
-2.8862936e-05
0.00021553786
-5.91484e-05
6.2400786e-05
7.6115106e-06
-0.00015826578
0.00014595709
1.0230412e-05
-9.2206992e-05
0.00018820774
9.5322312e-07
0.00043287569
4.0726766e-05
-6.1120535e-05
0.00052740827
4.6137436e-05
5.6248211e-05
0.00020854569
-9.1657156e-05
0.00013584114
-9.1912759e-05
-0.00011986218
0.0001313146
-0.00039355669
-8.9267859e-05
5.5679784e-07
-0.00031909559
-1.7888825e-05
-0.00033521306
-0.00012174955
-7.629582e-05
-0.00021831431
-8.5756163e-05
4.0124267e-05
3.4085753e-05
0.00015686788
1.5800466e-05
7.8381581e-05
0.00043858605
8.708064e-05
6.9433067e-05
0.00055651937
0.00017492067
4.4776825e-05
0.00040609069
0.00023678702
9.7759036e-06
-0.00011073391
0.00019101557
-7.7127073e-05
0.00020316035
0.00023322456
-0.0001632389
0.00044339199
0.00015809072
-0.00011863654
0.00054691125
-6.4591535e-07
-1.8404074e-05
0.00054008383
1.5891612e-05
-6.4759659e-05
-6.5361165e-06
0.00012578213
-0.00018194133
-0.00010426736
-2.6158965e-05
-0.00014249947
0.00030795953
-4.5013292e-05
0.00051352195
-0.00010197025
0.00027563605
-7.8099053e-05
4.5037462e-05
0.00015369192
7.4185906e-05
3.1706433e-05
-8.2242132e-05
0.00021201123
-1.5936566e-05
-0.00016862336
0.00023468167
-0.00020111463
3.0516503e-05
0.00026525235
-0.00013069328
0.00022081541
0.00028566768
-4.1155475e-06
0.00015954074
0.00010090389
-9.1176723e-05
-1.3962355e-05
-3.1546388e-05
0.00010142305
-0.0001909777
0.0001302798
7.2646147e-05
-8.1566337e-05
0.0002330618
7.3361235e-05
7.7497905e-05
0.00028371139
3.4008281e-05
0.00014078314
0.000164271
-0.0001280365
8.3428869e-05
0.00013533173
-0.00020006958
9.5322792e-05
-0.00032476814
-3.4174169e-05
3.5269498e-05
-0.0002874722
-5.0029555e-05
-0.0001506398
9.2301967e-05
-0.00012543978
-0.00024867864
0.00012552574
-0.00016001776
-0.00012986798
0.00010586232
-0.00013181905
-8.8271973e-06
0.00022859027
7.1682699e-06
0.00010606412
0.00033534036
0.00014301992
8.5975528e-05
0.00025137106
0.00019962916
-0.00027924501
0.00023256987
5.7123447e-05
-0.00025367664
1.7497089e-05
0.00012801235
-0.00014795744
0.00014768765
0.00010232206
-2.0668456e-05
0.00029672541
8.3465209e-06
0.00021891439
0.00027332569
3.7566339e-06
-1.396048e-05
0.00016282174
7.953994e-05
-0.00032430837
0.00025033537
-6.1572322e-05
-0.00022847148
0.00019760213
-6.0510372e-05
0.00030843633
-5.4522385e-05
-0.00015066539
-0.00011416104
-0.00019310694
-0.00010226282
-0.00012900617
-3.2460538e-05
-7.4098478e-05
1.6691007e-05
2.4763833e-05
5.3143022e-05
0.00015665532
9.8395422e-05
0.0001050937
0.00015373205
-8.6524874e-05
0.00023231108
-0.00010143233
0.0002209968
3.926627e-06
0.00012707818
0.00017574645
6.872062e-05
0.00025495902
4.7818749e-07
0.00031106986
5.5525886e-06
-2.1706146e-05
-1.2339817e-05
-0.00034535097
-7.0007221e-05
-0.000331143
-8.2736081e-05
-0.00026004742
-7.7732954e-05
-0.00016509515
-2.5319086e-05
-7.2018291e-05
7.8550783e-05
6.368025e-05
0.00012386488
0.00010636695
0.00012338402
5.4281063e-05
0.00013530872
-0.00016776816
-1.3602325e-05
-0.00023869466
5.3196637e-05
-9.398052e-05
6.868129e-06
2.2049963e-05
1.4399874e-05
-3.3458338e-05
3.8426005e-05
-6.4583774e-05
6.8719107e-05
-0.00012214427
0.00012069056
0.00010901699
-8.6597938e-05
0.0001521433
4.6655715e-06
-0.00016100631
0.00015507189
-5.4721321e-06
-0.00014249508
7.1064738e-05
-2.846721e-05
-0.00014109616
0.00014245471
-0.00010381658
-0.0001956637
0.00015688082
-9.6466214e-05
-0.00023005762
0.00010877351
-0.00010697039
-7.8169922e-05
-0.00018898247
-0.00011619461
9.9920674e-05
-0.00021109344
-7.8945831e-05
0.00021500661
-0.00019343453
-3.9351915e-05
0.00023585713
-6.3079904e-05
-5.7534534e-05
0.00015956822
0.00011641249
-9.178234e-05
5.9011473e-05
0.00013970426
-7.8834592e-05
-5.5259491e-05
0.00012581246
-2.9629396e-05
-0.00013912258
9.6593586e-05
8.8216587e-05
-0.00023218855
0.00010591673
3.0228615e-05
-4.1806372e-05
0.00014237877
-0.00012313863
0.0001481999
-0.00010322455
-0.00017293571
0.00016594004
-6.2395479e-05
-0.00021106114
0.00017557007
-9.5862737e-05
-0.00019684258
0.00011928325
-0.00013139283
3.2812506e-05
-0.00014889282
-9.9836134e-05
6.9169069e-05
5.1931833e-05
-0.0001608271
-2.79218e-05
0.0001663037
-0.0001915104
-0.00011350827
0.00014290376
-0.00021609672
-0.00020912955
0.00014047552
-0.00020778553
-0.00017027145
-1.8239772e-05
-0.00017398064
6.2560873e-05
-0.00020712695
-0.00012099985
4.0508417e-05
0.0001483214
-0.00023234771
0.00013742917
-0.00014728718
-0.00015996516
0.0004353756
6.8960578e-05
-0.0001672502
0.00029497786
5.8801936e-05
4.6825367e-06
-6.7173296e-05
4.6857291e-05
-9.5240656e-05
0.0003596528
-0.00013227118
-0.00037355268
0.00054802743
-0.00012544633
-0.00028554912
5.6212987e-05
-0.00014603305
-1.5287089e-05
-0.00051263375
-0.00010559296
0.00018689099
-0.0004869964
-3.3349744e-05
0.00036831732
-0.0005051172
-2.0482481e-05
0.0004778315
-0.00023684577
-0.00011455486
0.00038841105
0.00033781337
-0.00016537331
6.9901539e-05
0.00061863682
-0.00014228163
-0.00028711698
0.00060906541
-1.4309441e-05
-0.00018109575
4.9680796e-05
0.00023556324
-0.0006101202
0.00038927209
1.1147602e-06
0.00016251364
0.00046776484
-0.0001186168
0.00053201239
-6.8732331e-05
-0.00027459084
0.00046966437
-0.00010370912
-0.00034275442
0.00039252234
-0.00012594246
-0.0002326306
8.6946248e-05
-0.00011069916
0.00014614655
-0.00047952878
-1.5181946e-05
0.00030177207
-6.2799434e-05
-7.7573916e-05
0.00036120971
0.00015370985
-0.00013002171
-3.1821735e-05
0.00063227772
-0.0002033487
-0.00046305296
0.00061003854
-0.0001101754
-0.00035990924
-0.00012198203
-9.7748434e-05
2.5141686e-06
-0.00055433817
-9.3867362e-05
0.00016514174
6.0786685e-05
-0.00024437701
0.00040929126
-0.00025218542
7.2160254e-05
0.00038250562
9.0577919e-05
0.00011924055
0.0001863013
9.5846569e-05
7.2239151e-05
-0.00011591616
5.0674947e-05
-1.0012368e-05
0.00020459056
-2.8431336e-05
0.00015769489
0.00043445735
-9.8342921e-05
0.00032246933
-3.7032026e-05
-0.00010039236
0.00014036707
-0.00018348192
-8.4648785e-05
0.00011439041
-0.00036088613
4.5823488e-05
1.1370199e-05
-0.00024992477
3.6035521e-05
-5.7577397e-05
-0.00014137228
1.4200881e-05
6.3221394e-05
0.00022434878
3.8803237e-05
-2.4712407e-06
0.00058556506
7.1072584e-06
8.5135249e-05
0.00043025378
-2.8657034e-05
0.00025522712
-0.00020967893
-0.00018028114
-0.00019250077
-0.00022004207
-3.5420123e-05
-8.5678222e-05
0.00037352526
-2.7902835e-05
0.0005049404
-1.4902925e-05
3.119219e-05
0.00041209359
8.5556397e-05
0.00011925574
0.00031628375
0.00016309571
0.00016203264
2.7007048e-05
0.00025394932
-8.0353719e-05
-0.00016651672
0.00012038987
-0.00010497492
-6.5237061e-05
0.00026028338
3.4574612e-05
4.8284508e-05
0.00012396653
-8.6710888e-06
0.00060416831
7.0709195e-05
8.4116737e-05
0.00055245899
-1.9316665e-05
-3.7106855e-06
-7.110176e-05
0.00016272928
-0.00047683511
-0.00011665445
9.2817408e-06
-0.00035213981
-6.2407731e-05
-4.6514175e-05
0.0001245387
-0.00016935749
0.00017371239
0.00021756315
3.6267536e-05
0.00022044127
0.0001187627
5.2516163e-05
-8.2477643e-05
0.00021650545
-4.5439258e-05
-5.1821343e-05
3.283526e-05
-6.0015632e-05
0.00031490689
5.9750121e-05
-0.00012271428
0.00019858418
0.00011089682
-3.5721679e-05
7.9628585e-05
-6.5426952e-05
-9.0276093e-05
9.4373742e-05
-0.00035059338
7.6385145e-05
-5.5860153e-05
-0.00011462916
8.7584434e-05
-0.0002785426
0.00010166389
5.3007521e-05
-0.00017864849
8.3761556e-05
7.4701405e-05
-7.2330593e-06
0.00026986845
1.6244681e-05
0.00020783774
2.1157093e-05
-6.0436848e-06
0.00024801896
-0.0002840343
9.0407506e-05
-8.4918874e-05
-0.00020009204
0.00012963965
-0.00014481804
0.00015823351
-9.3477853e-06
0.0002962251
-5.8574006e-05
0.00012827595
0.00019643627
8.5201859e-05
0.00027885132
0.00016320709
0.00014552121
0.00025719653
0.00013329346
0.00011499754
0.00011964774
-4.8597497e-05
7.6753006e-05
-0.0001301559
0.0001837603
0.00012881862
-0.00019612877
0.00012501765
9.1561778e-05
4.4262532e-06
0.00027972403
0.00013223578
0.00025609795
0.00029415804
1.0385892e-05
1.9901044e-05
0.00021651371
2.8121376e-05
-0.00027818511
0.00012003529
-1.7590195e-07
-0.00032066453
-7.6078682e-05
-4.3600083e-06
-0.00018059064
-7.005757e-05
9.5590217e-05
7.8118955e-06
0.00010537255
6.7175381e-06
0.00022719654
6.222092e-05
0.00019879629
7.7926523e-05
0.00022493269
8.6756748e-05
0.00031817125
0.00011605367
0.00023046777
0.00017600858
-9.7973749e-05
0.00021015923
-0.00023458146
0.00024297536
-0.00017575528
0.0001699159
-9.6958293e-05
7.3685191e-05
0.00014732105
2.6067311e-05
0.00014781675
2.621399e-05
-0.00014855737
-0.00030348346
-0.00025657989
-0.00017607934
-1.0080057e-05
0.00010490674
5.9206598e-05
0.0002057004
0.00012029826
0.00022598032
0.00013002315
0.00024695259
-7.1469283e-05
0.00028820366
-0.00015784181
0.0002565305
-0.00019073482
0.00021110729
-3.4381773e-05
0.00013023912
0.00016443199
0.00010974415
0.00029725458
0.00012211712
0.00032325472
0.00016275425
0.00018693429
0.0001809323
0.00011536064
-0.00013027287
0.00014024643
-5.3970186e-07
-0.0002096517
9.8018454e-05
-1.7932862e-05
1.7857896e-05
-0.0002144374
-3.8828444e-05
3.9170589e-05
-4.0870787e-05
-8.0310892e-05
-0.00014406926
0.00012371319
-3.3979357e-05
-0.00024138883
6.5351109e-05
-7.0959686e-05
-0.0001238171
-0.00016377667
-6.7402225e-05
5.9973013e-05
-0.00025577565
-6.0460589e-06
0.00014751351
-0.00018937437
6.4228937e-05
0.0002568299
-0.0001901666
2.3746378e-05
0.00030043793
-0.0001330952
-1.3488839e-06
0.00015408831
8.5571602e-05
-1.5964044e-05
0.00013449788
-9.7254084e-06
-0.00015797789
0.00017090927
-0.00011475831
-0.0002973464
0.00018642165
-0.00010631598
-0.00033118261
5.7354943e-05
-0.00011576404
-0.00019218732
-0.00019326687
-7.6811072e-05
-2.7498594e-05
-0.00021228557
-5.299501e-05
0.00010612254
-0.00023075424
-6.5348216e-05
0.00017392018
-0.0001783334
-8.3527432e-05
3.5453557e-05
5.5301055e-05
-0.00013523797
-0.00016046115
0.00012237164
-0.00013733228
-0.00013023839
-0.00014859735
-5.9627524e-05
-2.3901392e-05
-0.00018214405
-4.7927767e-05
9.7630164e-05
-0.00020303269
-0.00015416783
0.00010560791
-0.00015701297
-0.00031391745
0.00050530686
1.7817597e-05
-0.00022275931
3.4095523e-05
3.1566726e-05
0.00017180981
-0.00055901017
-3.139063e-06
0.00017976237
-8.7595838e-05
-9.3498691e-05
-0.00027260607
0.00051390996
-6.3274655e-05
-0.00035088272
0.00011532337
-0.00011772867
-9.5240341e-05
-0.00042601571
-9.8996302e-05
0.00011625075
-0.00051637059
1.5754103e-05
0.00023195275
-0.00042489851
9.9339657e-05
0.00036056639
-0.00043115062
-2.1844782e-06
0.00047427836
-0.00037451862
-3.766185e-05
0.00036583086
0.00011321927
-6.1481787e-05
0.00050164368
-1.562437e-05
-0.00029393192
0.0004293581
-3.3249233e-05
-0.00035030522
0.00014953605
-1.0450229e-05
-0.00029416075
-8.8463469e-05
-3.6268505e-05
-0.0001170436
-0.0005008838
1.9800618e-05
6.7397312e-05
-0.00046398091
5.2072477e-05
0.00021337008
-0.00053449436
8.0193441e-05
0.00036644868
-0.00049183721
3.0403497e-05
0.00023071386
2.847436e-05
-4.0787187e-05
-0.00028890595
0.00050600482
2.581123e-05
-0.00022485141
-0.00039712824
8.6727921e-05
-8.9917473e-05
-0.00044096165
3.0016299e-05
8.2868074e-05
-0.00054184718
-7.8348066e-05
0.000132382
-0.00019609143
0.00012885014
0.00044375955
2.3275089e-05
0.00024719502
-1.5575062e-05
2.7172282e-05
-9.177125e-05
-0.00016887165
-4.9730756e-07
-3.7935273e-05
-0.00024287125
7.3008095e-05
0.00013598641
0.000274336
-3.2690638e-05
0.00021456028
-7.7375172e-05
1.3732315e-05
0.00015341902
-0.0003560988
-9.3424429e-05
0.00014134666
-0.0004595045
1.0297553e-06
0.00017724846
-0.00039808872
-2.6676062e-05
-7.9062104e-06
-0.0001946355
-3.7159564e-05
-0.00029392537
-0.0001241015
7.4405287e-05
-0.00018884949
-8.9898431e-05
0.00010514909
0.00027342676
1.0710407e-05
0.00011390843
0.00029748314
3.0636115e-06
0.00027387388
7.8318943e-06
6.729511e-05
0.00029825616
-8.0655167e-05
0.00013090512
5.1976649e-05
-0.00010434775
0.00010369278
-2.8827194e-05
-0.00034790367
8.5116471e-05
-3.7290734e-05
-0.00038000185
0.00011425441
-0.00012298643
-0.00031703305
3.485807e-05
-7.2547529e-05
-4.8633546e-05
9.7378194e-05
6.1488597e-05
0.00037577295
-2.3120913e-05
-7.1611949e-05
-8.5355922e-05
-1.5942493e-05
-0.0002474059
-0.00028252382
2.6637856e-05
-0.00033691684
-0.00048911949
-9.730912e-06
-0.00030949537
-6.4396966e-05
0.00028916036
0.0001779382
1.2928535e-05
0.00023464083
0.00013842615
-4.6965522e-05
0.00012196586
-8.303455e-05
-1.8601382e-05
2.8238512e-05
-0.0002976926
8.8533068e-05
0.00026375073
-0.00012291807
3.9027562e-05
0.00019951178
-0.00014618333
9.7325437e-05
0.00014265617
-0.00033140783
-5.8111457e-05
0.00015251026
-0.0004359293
4.2955864e-05
0.00012779964
-0.00036369132
7.7897648e-05
7.2392577e-06
-4.6735353e-05
2.5667762e-05
-0.00025730586
0.00012298191
9.2163124e-05
-0.00029275688
-0.00016844666
0.00013024396
-0.00013412693
0.00010875313
0.00025250397
-2.9105814e-05
1.551098e-05
0.00028959553
-2.1200108e-05
7.714231e-05
0.00018480011
7.8077263e-05
9.1584196e-05
5.8247975e-05
7.2783203e-05
6.4418721e-05
1.642318e-05
-0.00033670933
0.00010738346
8.2106127e-06
-0.00034270779
9.9737117e-05
-4.3592409e-05
-0.00024642883
7.2760581e-05
-0.00014257757
0.00013792353
4.466386e-05
0.00014292516
0.00010291957
-2.2634562e-06
9.9624824e-05
7.6620784e-05
-9.0554998e-05
-2.8154747e-05
-0.00025201021
9.7090058e-05
-6.0713154e-05
-0.0004714343
1.05132e-05
-0.00037619011
-6.4075982e-05
0.000180678
5.0720878e-06
0.00032928064
-3.4589444e-06
0.00036494862
-5.6481609e-05
0.00027164849
-0.00012646594
0.00031027244
-7.4785275e-05
0.00034637183
-6.6229048e-05
0.00022245977
-3.1487187e-05
-5.6820147e-05
5.3509845e-05
-0.00025908052
8.154442e-05
-0.00015770706
2.1807084e-05
5.6475671e-05
-1.7515616e-05
1.8800997e-05
-0.00010470466
-8.9111936e-05
-2.2564013e-05
9.8364952e-05
2.609374e-05
0.00013584254
0.00013350851
0.00019664281
0.00019358783
0.00025965647
-5.5027884e-05
0.00020011004
-0.00025272606
0.00011152089
-0.00031987491
3.1827303e-05
-8.8469901e-05
3.6757642e-05
0.00016192891
-3.7735091e-05
0.00041273439
-5.2067583e-05
0.00039991552
-7.6437089e-05
0.00017232444
-6.2910913e-05
-8.8505039e-05
-0.00014262167
0.00014615566
9.4785013e-07
-0.00024466827
0.00010538544
-1.3961329e-05
-7.2446085e-06
-0.00033510346
6.1240336e-05
8.5933947e-05
-0.00024298441
7.016081e-05
-0.0001365695
0.00013013161
6.0904195e-05
-0.00024044659
1.8931905e-05
1.5927573e-05
-5.9325203e-05
-0.00024832231
3.9496545e-07
0.00018001402
-0.00029121153
4.6581223e-05
0.00011716329
3.3443158e-05
9.6360966e-05
-8.5926115e-06
0.0001361076