/*--------------------------------*- C++ -*----------------------------------*\
| =========                 |                                                 |
| \\      /  F ield         | OpenFOAM: The Open Source CFD Toolbox           |
|  \\    /   O peration     | Version:  v2012                                 |
|   \\  /    A nd           | Website:  www.openfoam.com                      |
|    \\/     M anipulation  |                                                 |
\*---------------------------------------------------------------------------*/
FoamFile
{
    version     2.0;
    format      ascii;
    class       volScalarField;
    location    "220/bottomWater";
    object      T;
}
// * * * * * * * * * * * * * * * * * * * * * * * * * * * * * * * * * * * * * //

dimensions      [0 0 0 1 0 0 0];


internalField   nonuniform List<scalar> 
1460
(
996.19697
989.73783
999.6117
996.91084
993.88095
989.01647
992.83602
992.34218
981.65695
978.19937
975.01778
977.27588
976.50243
974.40796
969.93145
968.77492
972.49433
972.46347
969.82969
978.91901
977.38063
976.51338
977.11594
980.08519
982.19543
984.59327
983.77492
983.30503
983.76195
984.90509
994.90045
986.70167
987.85099
990.87729
988.2918
987.77137
988.05136
989.24403
977.5276
975.34179
974.22792
972.40317
972.17386
967.8555
966.0471
966.29804
969.16485
967.46149
967.10582
972.89008
973.85288
974.93254
977.36844
980.80386
981.97199
983.94653
983.36591
983.25265
983.66866
984.53974
986.73967
986.419
987.57255
990.49174
987.09895
987.84594
988.11836
988.94205
977.76359
977.05826
974.34898
971.86848
971.48497
968.07333
967.68059
966.10623
965.30007
964.70968
966.43388
970.05511
972.07213
974.33369
977.404
981.42126
982.72459
983.03097
982.99381
982.94675
983.46941
985.43705
985.92472
985.7123
985.173
985.06226
984.58749
988.11065
987.33817
987.72638
977.83839
977.97486
976.12123
972.09523
970.34384
968.24305
967.27204
965.14925
963.03088
963.49568
966.63711
969.46147
973.12778
973.04296
976.483
980.69439
981.82095
982.46665
982.25664
982.30166
982.45783
984.49789
985.50075
985.70418
985.14141
984.05877
982.59703
981.3736
980.84567
980.23066
976.87729
976.02504
974.32804
972.61674
970.79718
968.06547
966.10586
963.2471
960.83775
962.32282
966.16065
967.26443
970.8038
971.60321
976.4251
980.06152
980.66066
980.90676
981.14809
981.44316
981.56554
981.88841
997.06299
993.17289
993.32944
992.7109
995.24102
996.19014
996.97879
996.59965
985.88696
976.61964
971.55287
969.20336
967.30198
966.47726
962.85667
967.34324
970.42004
973.7951
974.72262
981.23969
980.86268
980.0278
981.70647
983.4956
984.65665
985.57188
985.51503
985.05224
985.48008
985.97634
993.82727
988.98581
989.11773
990.59924
989.88031
990.22924
991.95854
993.04263
984.1213
973.51333
969.83159
969.0188
967.38999
963.12276
961.96469
962.85338
965.89362
968.24809
968.84729
974.03817
977.29323
977.90757
978.60716
981.88236
983.54639
985.06878
985.37527
985.99192
985.36449
985.43723
990.26294
989.25585
988.60302
990.88172
990.33406
990.69173
991.96047
992.97542
985.2942
975.2849
971.91284
970.03862
967.84139
966.62422
962.12128
962.28252
965.91548
966.85269
967.98362
972.26821
976.44896
978.57724
979.06259
982.42239
983.58423
984.79238
985.31486
986.02633
985.97993
985.69284
988.66737
988.6639
987.6255
988.90491
991.73086
991.33865
992.01475
992.27665
985.07345
978.05905
975.79553
973.00806
969.95119
968.41425
961.81257
960.75853
963.38315
964.4436
969.11743
972.59667
977.48543
977.30358
978.53418
982.31332
984.31411
984.94781
986.70555
986.73869
986.24609
985.98808
988.15815
988.70654
988.68331
988.65879
987.83961
986.27179
987.15044
987.95696
984.23265
978.82076
974.82349
971.61705
969.40909
967.64454
961.50934
959.54942
961.64198
963.21467
967.55295
969.35245
971.29897
973.93367
978.51722
981.06745
982.43967
982.0066
982.74106
982.79951
982.88386
983.64598
998.61385
996.00387
993.75442
995.37767
997.62256
997.9044
994.10587
993.46077
993.72002
988.82654
972.99713
967.45439
962.85144
960.12838
958.45848
961.704
964.16589
968.66152
976.98193
983.74922
983.74294
982.67988
981.67472
980.26527
978.99041
981.60143
983.37596
984.07216
984.72887
986.81891
994.12396
991.7142
992.18851
993.12365
992.98426
992.3131
991.20401
990.04866
989.63665
987.99766
969.94247
964.33802
962.12605
959.7873
957.4609
961.8548
963.09993
965.52002
969.11522
976.28983
980.82886
981.21034
980.24991
980.9492
981.46054
984.00225
984.62256
985.34111
984.05303
985.06977
993.10103
992.33015
992.21562
994.83019
992.84532
992.08612
991.78089
990.68828
986.9329
987.71816
969.23529
968.62442
963.37299
960.29822
957.45452
962.51847
965.70268
966.11838
968.97912
974.98494
979.8713
981.93724
980.90636
981.51577
982.23135
984.39088
985.52766
985.39341
984.56211
984.98665
992.45823
992.1213
991.88433
993.9021
992.68874
991.97385
991.65866
989.79825
985.04169
984.58556
968.79343
972.06185
964.51582
959.98794
956.3064
959.24368
963.75093
967.07641
969.34173
975.09732
979.32799
981.50703
982.05764
982.18988
982.72301
984.68415
985.54738
985.04871
984.82257
985.03565
990.27103
990.63624
991.03809
991.97582
991.15213
990.41864
989.16129
985.5204
982.68969
982.45768
967.67187
967.72034
964.79296
959.70372
955.56056
959.18591
962.50037
965.79309
968.74093
973.69452
977.02763
978.97617
978.1054
980.70487
981.776
983.15271
982.90258
983.62764
983.62382
984.07148
1002.569
1000.9718
999.99784
998.66315
995.63582
992.7182
990.92105
990.0796
988.69829
988.99091
989.77067
989.27924
971.06069
951.95049
949.01426
955.15623
962.21815
970.71211
977.87093
978.41104
977.95737
978.58889
978.33882
976.98954
974.07638
978.39662
980.89909
981.19392
981.79501
983.73322
997.42535
996.51904
997.19532
995.52696
991.71009
989.98117
990.23917
988.73828
986.14161
983.65161
982.62036
982.43085
960.76911
951.19575
951.33354
953.15844
956.02328
966.66174
975.63036
976.9508
978.11492
980.26887
979.74501
978.56286
977.33964
981.09908
982.42828
982.34716
980.49744
982.44096
996.62407
996.43429
996.77826
995.36803
991.83314
991.33044
990.86235
988.76412
985.36202
981.38449
982.60534
982.40368
960.86645
953.51394
952.11426
953.85352
957.46383
967.30133
974.65671
976.41969
979.07402
980.16647
981.11518
980.74054
977.69344
981.28365
983.77869
982.47331
981.86291
981.90219
996.29877
996.24353
996.26407
994.57137
991.91792
992.02895
990.82901
987.11175
982.74031
981.13175
981.51459
981.74432
961.29166
951.59484
950.69315
954.2372
958.55677
965.84143
974.42364
975.73453
977.52234
977.90026
980.07213
979.73162
977.88162
981.49238
982.83792
982.24268
981.22021
980.74813
994.16737
993.18942
993.77182
992.20557
990.63815
989.9771
988.8279
985.04197
978.08186
976.00998
972.05102
973.91187
963.42104
945.12268
946.96571
951.92611
957.06389
963.57681
969.66299
972.15103
974.36517
975.42342
977.11346
977.03476
976.80985
980.09248
980.52805
980.37363
980.08928
980.03004
1006.0401
1002.7841
999.65519
999.0814
995.20757
990.05454
988.3756
988.3961
986.50981
984.29614
983.06597
985.41748
970.58299
958.15469
970.25293
970.91797
972.14256
973.4172
975.40345
974.47272
970.89638
974.84436
979.3121
979.24655
979.49912
982.1856
1001.0141
999.19569
997.66511
995.31285
991.33454
987.02626
987.33639
987.4119
983.35642
980.42638
973.11435
975.36128
969.86198
961.54792
970.65268
970.96094
972.8312
974.40189
977.5899
977.46086
976.41954
978.07205
980.35892
978.6713
978.61892
982.09635
1000.5275
999.18601
997.51515
992.81028
991.56827
989.96722
988.32747
987.1087
981.65248
978.9493
965.67073
964.29546
963.91398
957.45713
966.66157
968.84874
972.56366
974.4873
978.0283
977.5501
977.90298
978.12175
981.10267
978.33881
978.19282
979.17826
1000.3894
999.73878
997.33804
992.6127
991.23631
990.52439
988.42106
986.11376
979.30434
978.881
966.28862
957.67973
953.39094
950.60332
957.29654
963.20732
967.93221
972.63923
976.08512
976.36045
978.31104
978.45811
979.33974
977.83282
977.1927
977.31329
996.34942
995.16518
992.63537
990.94877
989.11211
988.02538
987.38033
984.53815
974.64039
972.40759
969.39533
963.94725
951.58046
945.4547
964.70361
967.67708
970.18218
972.47658
974.9802
975.19019
975.76634
976.59133
976.98054
976.90842
976.98497
976.78147
1004.996
1001.6692
998.70446
994.52048
992.28669
985.4734
982.99216
978.25439
983.29194
983.80065
973.35778
973.5183
968.2072
955.14808
961.8829
960.60997
963.05218
965.50638
967.12226
967.07585
965.8606
970.42218
977.2274
978.35689
979.5491
981.94115
1001.2921
999.22722
997.62212
992.90459
987.49228
982.742
982.16761
976.72088
979.99061
979.15994
971.65077
965.79351
963.48752
954.69885
959.02271
958.49772
962.96201
967.86165
970.49256
970.14003
970.84341
973.94348
978.62923
979.21163
979.13933
982.63914
1000.6655
999.01452
997.45073
992.26965
988.22128
987.44894
983.36485
976.23415
972.66027
973.31593
971.21557
961.53394
960.17004
951.95379
954.05292
957.20765
962.39951
967.90364
970.75237
969.84035
972.15044
973.88494
976.1009
978.93491
978.3953
978.44694
1000.5621
996.61694
996.79968
996.01608
989.67464
989.38459
984.89348
976.85932
970.68765
969.51604
967.46231
957.54337
954.5852
945.77013
950.11052
955.56336
962.1152
968.13528
969.6392
970.1256
972.24822
974.13646
976.36247
978.11498
976.63777
977.54106
992.68313
989.83609
990.38427
990.65815
988.14979
986.47451
984.86217
975.73618
967.54529
965.2229
963.15801
959.65183
953.56573
940.34311
952.81632
958.79544
964.24658
967.87342
968.44582
968.64675
970.05753
972.04425
974.26392
974.95261
975.74795
976.55811
1001.8578
999.71176
998.04913
992.55413
986.95996
982.61142
980.3252
978.14643
983.74298
977.49685
977.09113
978.96022
979.9297
962.46814
962.83541
962.6759
962.75234
963.76275
962.25882
959.80502
959.85055
961.18875
962.27062
962.62677
962.35899
969.6611
979.90886
981.52343
982.85495
982.64717
997.17969
996.65897
995.55454
989.60543
982.27443
980.53339
978.60511
975.24284
979.42196
976.24282
974.9611
973.61721
973.47186
966.75948
962.31464
961.01652
960.00867
961.95882
959.91349
958.1948
959.00852
962.29501
964.28815
965.95367
966.78506
971.45971
981.13104
982.57456
983.86121
983.05752
996.39845
996.59696
993.93009
989.80419
982.95623
984.23417
979.84776
975.01098
975.14205
975.7779
974.94578
973.91515
972.73818
965.91499
961.88389
957.27231
955.04292
958.88714
958.00189
957.45878
957.6444
961.32479
963.24884
966.37853
966.98195
971.08175
979.50757
981.76115
983.6553
982.64645
996.20402
996.24221
995.80026
992.33582
984.91277
986.19763
981.89281
974.23347
975.11975
975.57769
972.20219
971.06425
970.43422
965.27113
961.704
959.61573
951.86325
951.26292
951.18502
952.9298
956.58967
961.62227
964.4573
967.62131
968.19549
971.67034
977.90989
979.18078
980.36061
980.01532
992.86669
989.95875
993.07124
990.31101
986.36004
985.24642
983.77335
973.33051
971.24993
971.07037
968.38078
967.72415
966.70772
961.49389
957.57579
954.57017
951.01418
953.18192
953.96824
955.11604
956.55908
962.31668
967.10898
967.92459
969.15204
971.77175
975.80807
977.37154
978.17963
978.88312
996.87557
994.73049
994.97149
993.17567
989.59086
986.12304
984.10381
981.83909
985.03606
983.75839
982.88727
983.81563
981.27652
972.03743
968.70983
966.15811
963.27621
962.13778
963.68247
961.58544
960.69483
962.41284
962.55884
963.02598
963.21045
966.66114
973.62885
978.94759
982.60835
985.03247
992.33271
991.65199
991.85373
989.2384
985.4977
983.38251
983.27254
980.41186
979.70328
978.79844
978.69362
979.11129
978.67166
971.78798
967.65917
966.39942
962.22263
961.7118
961.82328
961.27424
962.47762
963.99831
965.00484
966.64044
968.30791
971.76349
981.51182
983.65231
985.18897
985.70467
991.94101
993.33682
992.03968
989.31801
985.71307
985.06205
984.01334
980.44855
978.95573
978.818
978.03933
979.26765
978.80974
973.27484
970.41398
966.50271
961.96886
960.46123
962.01171
963.40907
963.26513
966.12897
965.4057
966.6433
968.50211
972.65521
981.43466
983.8379
985.99228
986.46234
991.74004
991.8664
991.39844
989.59569
986.37852
987.05438
986.20603
980.13449
978.67938
979.16738
979.13396
979.21807
978.54986
974.43366
972.60112
965.10455
960.91371
957.57799
961.91796
963.39223
962.97648
964.92501
966.42062
967.51262
969.42869
973.52942
980.96164
983.24753
983.90571
985.36079
988.14194
989.78819
988.9962
988.49937
985.9324
985.1691
983.5999
979.2612
975.19428
975.30159
974.72894
975.09195
975.54253
969.96329
965.15852
959.19974
958.92465
958.99965
961.46868
962.85116
964.08328
966.78197
967.55678
968.77128
970.58618
973.70082
979.33664
980.34278
980.6358
981.69019
993.48569
990.17568
991.06129
992.31733
993.6984
992.6907
987.87111
987.60923
986.85936
982.59372
980.53814
976.25679
978.38964
970.92471
968.37137
966.29535
964.19749
961.97608
966.42691
968.35946
968.15372
968.26009
971.14384
971.95005
973.58373
974.95003
976.26835
980.76039
982.67753
984.76949
989.38844
989.54553
987.98441
988.21737
990.0757
989.51445
986.95395
985.23479
983.95408
978.92922
977.00064
974.74397
974.66664
970.61856
967.21465
966.13069
964.67704
964.06759
964.59017
968.87963
969.37913
969.39792
972.36033
973.81502
975.30103
977.31253
981.81015
984.20584
984.19661
985.40436
989.05951
990.05967
989.46377
988.47682
990.03634
989.5197
987.40787
984.65277
983.29911
978.60861
975.58923
974.5334
972.31173
970.60912
966.90614
965.80462
964.33582
964.14072
964.75579
969.52484
969.56919
969.07682
970.65594
971.89621
973.2194
977.26152
981.86971
985.59289
986.31629
985.5099
987.32457
987.97864
988.69853
988.8088
990.00673
989.53653
987.74995
983.86649
982.51542
978.68035
975.10206
974.32744
972.53796
970.01605
965.47046
964.16991
964.16286
965.08112
965.04708
969.77815
968.42549
967.61174
969.21461
971.02741
975.691
977.76055
982.31321
984.44491
985.31806
984.53066
986.23309
986.9555
986.0223
984.7807
983.33701
984.99649
983.91039
981.88694
980.03297
976.78612
973.38439
971.95818
971.98654
967.97501
963.46354
962.78261
963.90754
964.38325
964.35832
967.69449
967.29286
966.66111
970.17291
971.50783
974.09289
976.25981
981.16532
982.80851
982.7231
981.82802
990.91378
986.97717
987.22972
988.61207
989.82216
992.25022
992.80941
989.65304
984.95723
981.66664
979.35324
978.84354
973.21249
970.34679
967.56834
966.83549
964.80292
963.46659
969.01137
969.73571
969.61328
969.37283
971.82288
972.76634
974.4725
975.48315
976.9209
982.3285
982.67953
983.79552
986.87517
985.52605
985.2345
985.49161
988.19032
988.88989
989.66034
987.77824
981.70487
979.5753
976.39192
978.11155
971.60506
968.02732
966.48903
966.62098
966.68007
966.48259
969.4074
971.18094
970.98795
969.94562
972.92888
974.48423
976.54074
979.65056
983.29213
984.20525
983.01007
984.83707
986.94185
985.4648
985.16937
985.09432
989.01812
989.13401
989.74525
987.85099
982.04132
980.69482
976.29848
975.51643
972.37173
967.94696
966.27944
966.32811
966.52738
966.79489
969.29918
971.23984
971.08789
969.20444
972.23766
974.04136
976.36213
980.46197
983.88483
984.179
982.6301
982.19054
985.69394
984.22017
984.07485
984.18896
989.15508
987.9427
989.37218
987.87152
984.03607
983.22709
977.7318
974.74982
972.1845
966.7321
964.77954
965.86743
967.56723
967.38063
969.81868
970.83886
970.23901
968.35293
971.45308
973.75182
976.08937
978.12539
980.9324
983.60821
982.11879
981.67017
983.02048
984.21726
983.33167
982.40718
981.80195
981.9145
983.00199
985.83085
981.85639
980.96749
978.38796
975.08142
971.38261
966.19427
963.99913
965.2959
966.24687
966.86503
969.02717
969.35857
968.50237
967.59019
970.45806
973.03612
975.29301
977.31369
980.68741
981.14008
981.34476
981.01438
)
;

boundaryField
{
    minX
    {
        type            zeroGradient;
    }
    maxX
    {
        type            zeroGradient;
    }
    minY
    {
        type            fixedValue;
        value           uniform 1073;
    }
    minZ
    {
        type            zeroGradient;
    }
    maxZ
    {
        type            zeroGradient;
    }
    bottomWater_to_rightSolid
    {
        type            compressible::turbulentTemperatureCoupledBaffleMixed;
        refValue        nonuniform List<scalar> 
130
(
698.39242
704.98819
711.82726
718.57187
724.94895
730.80055
736.00096
740.47042
744.18693
747.14894
749.36177
750.8332
751.56944
693.53437
701.26755
709.09842
716.62794
723.59931
729.87183
735.36292
740.03684
743.89111
746.94682
749.21974
750.72835
751.48391
683.70636
694.04891
704.01462
713.13691
721.23144
728.26101
734.26993
739.29496
743.39106
746.60235
748.97794
750.54665
751.3299
668.86686
684.15699
697.55192
708.9351
718.49439
726.47318
733.08116
738.4951
742.85399
746.23505
748.71377
750.34236
751.15181
651.16967
674.64513
692.13468
705.70017
716.49318
725.20106
732.25338
737.94806
742.48197
745.98064
748.5345
750.20801
751.03746
651.10664
674.51871
691.98447
705.54865
716.35075
725.06723
732.13589
737.85426
742.4164
745.94456
748.52051
750.20924
751.04775
668.7694
683.9414
697.25391
708.59755
718.17135
726.18779
732.83755
738.303
742.7178
746.16505
748.69398
750.35484
751.1803
683.72416
693.95152
703.81114
712.86122
720.93253
727.97379
734.00727
739.08292
743.25141
746.5472
748.97751
750.57839
751.37716
693.72212
701.34283
709.07698
716.51595
723.42597
729.67687
735.17332
739.88921
743.8135
746.94915
749.27895
750.81601
751.57808
698.68495
705.18684
711.92402
718.56309
724.86896
730.6857
735.88112
740.3854
744.16235
747.1942
749.45486
750.9527
751.69718
)
;
        refGradient     uniform 0;
        valueFraction   uniform 0.99248593;
        value           nonuniform List<scalar> 
130
(
700.37567
706.9507
713.74667
720.46724
726.80239
732.64614
737.83487
742.27525
745.96569
748.90726
751.10568
752.56697
753.30009
695.5608
703.26849
711.05404
718.54164
725.48039
731.74015
737.20917
741.8583
745.68037
748.71864
750.9749
752.47282
753.22842
685.826
696.11299
706.04104
715.11985
723.16819
730.13837
736.12168
741.11701
745.19267
748.37795
750.74115
752.29805
753.07878
671.08133
686.30227
699.61529
710.92958
720.425
728.35652
734.91426
740.28583
744.63663
747.99556
750.45449
752.0687
752.87163
653.38088
676.8246
694.20514
707.68752
718.41667
727.07791
734.07882
739.73505
744.24111
747.71642
750.25053
751.91204
752.73374
653.28006
676.60979
693.98922
707.49246
718.24067
726.89598
733.91305
739.59905
744.1419
747.66021
750.22199
751.904
752.74229
670.90658
685.9704
699.19146
710.46071
720.00582
727.99813
734.60404
740.03765
744.43902
747.89065
750.41233
752.06678
752.89133
685.79266
695.96171
705.75761
714.74896
722.77992
729.7741
735.77136
740.82252
744.98313
748.29645
750.71605
752.3071
753.10779
695.75596
703.31921
711.02031
718.40035
725.25371
731.48407
736.94923
741.6491
745.5602
748.70913
751.03377
752.55864
753.30825
700.70011
707.16942
713.85845
720.44119
726.69281
732.48747
737.66319
742.15058
745.91433
748.94876
751.19582
752.68395
753.42033
)
;
        Tnbr            T;
        thicknessLayers List<scalar> 0();
        kappaLayers     List<scalar> 0();
        kappaMethod     fluidThermo;
        kappa           none;
        alphaAni        none;
        alpha           none;
        field           T;
    }
    bottomWater_to_leftSolid
    {
        type            compressible::turbulentTemperatureCoupledBaffleMixed;
        refValue        nonuniform List<scalar> 
130
(
774.95627
774.92026
774.83835
774.70808
774.53229
774.31892
774.07491
773.80133
773.50257
773.21466
772.95901
772.7654
772.65742
775.03951
775.0072
774.93159
774.80858
774.63599
774.41979
774.17245
773.88864
773.56552
773.23319
772.9336
772.71003
772.58724
775.1432
775.10998
775.03558
774.91359
774.73619
774.50948
774.23428
773.91018
773.55877
773.20695
772.8508
772.60505
772.46379
775.22846
775.18478
775.09831
774.95666
774.76288
774.52112
774.22632
773.87503
773.48766
773.12242
772.79087
772.53941
772.36606
775.23786
775.18514
775.08044
774.92635
774.72035
774.46568
774.15959
773.79701
773.3963
773.03678
772.72033
772.45545
772.27245
775.16147
775.10689
775.01214
774.86178
774.64802
774.38127
774.05899
773.67432
773.28763
772.95266
772.67033
772.44658
772.30453
775.06531
775.01676
774.93295
774.77916
774.566
774.30896
774.00172
773.64098
773.3108
773.02827
772.79086
772.61917
772.52239
774.91438
774.88413
774.80428
774.67273
774.48844
774.26589
774.00167
773.70358
773.41356
773.16551
772.96262
772.81937
772.74276
774.77285
774.74575
774.67409
774.55995
774.40973
774.23419
774.01994
773.77653
773.52414
773.28283
773.07476
772.92489
772.84575
774.67333
774.65212
774.59081
774.49351
774.36534
774.21004
774.03247
773.83407
773.60147
773.37788
773.17386
773.01193
772.91578
)
;
        refGradient     uniform 0;
        valueFraction   uniform 0.99248593;
        value           nonuniform List<scalar> 
130
(
776.53833
776.50412
776.41861
776.28118
776.09572
775.87477
775.62861
775.35245
775.03076
774.7386
774.47212
774.26711
774.14629
776.6409
776.61297
776.53777
776.41548
776.23804
776.01167
775.77279
775.49716
775.14854
774.77799
774.4506
774.20462
774.0662
776.75968
776.72947
776.65866
776.54464
776.36238
776.13185
775.84927
775.50027
775.13022
774.77928
774.31471
774.07112
773.90892
776.87359
776.82289
776.74145
776.5891
776.385
776.14009
775.83887
775.46179
775.02499
774.6469
774.28809
774.05225
773.80148
776.89927
776.83804
776.71511
776.54953
776.3313
776.07039
775.76177
775.3806
774.9085
774.53492
774.19829
773.89439
773.61996
776.79592
776.7204
776.63048
776.48328
776.25231
775.97497
775.643
775.19267
774.74734
774.39742
774.1017
773.85328
773.66659
776.7019
776.6319
776.57206
776.39865
776.15746
775.89396
775.57795
775.14142
774.79812
774.51639
774.26058
774.08525
773.98157
776.5166
776.49893
776.41374
776.27945
776.07727
775.85064
775.5766
775.24815
774.92977
774.68437
774.47873
774.33927
774.26659
776.36178
776.34032
776.26216
776.13953
775.9796
775.81787
775.5971
775.34028
775.07586
774.81198
774.57991
774.42046
774.34212
776.23886
776.2268
776.1593
776.05581
775.92409
775.77074
775.60267
775.42701
775.16631
774.93773
774.71586
774.53029
774.40708
)
;
        Tnbr            T;
        thicknessLayers List<scalar> 0();
        kappaLayers     List<scalar> 0();
        kappaMethod     fluidThermo;
        kappa           none;
        alphaAni        none;
        alpha           none;
        field           T;
    }
    bottomWater_to_heater
    {
        type            compressible::turbulentTemperatureCoupledBaffleMixed;
        refValue        nonuniform List<scalar> 
92
(
682.58256
684.30725
687.67339
692.47485
674.66363
676.69361
680.70931
686.47287
657.92459
660.59124
665.97502
673.89055
343.04468
340.13702
340.19991
343.1531
413.97946
410.35885
410.60655
414.54358
473.25518
470.10882
470.78557
474.88134
522.37343
520.23477
521.92622
526.59172
630.59492
561.81002
633.96503
561.40856
641.23121
565.37212
652.94671
572.48761
343.04468
343.1531
413.97946
414.54358
473.25518
474.88134
522.37343
526.59172
561.81002
572.48761
343.08227
343.08227
340.17801
340.22154
343.14539
343.14539
414.04182
414.04182
410.42165
410.6407
414.52751
414.52751
473.33886
473.33886
470.17791
470.81465
474.85562
474.85562
522.48072
522.48072
520.3086
521.95451
526.55922
526.55922
561.92085
561.92085
561.48233
565.39795
572.45656
572.45656
630.97754
634.26273
641.39892
652.97471
658.36279
660.96866
666.2343
674.03031
675.05118
677.07051
681.0528
686.75224
682.94245
684.67332
688.0499
692.83307
)
;
        refGradient     uniform 0;
        valueFraction   nonuniform List<scalar> 
92
(
0.99248593
0.99248593
0.99248593
0.99248593
0.99248593
0.99248593
0.99248593
0.99248593
0.99248593
0.99248593
0.99248593
0.99248593
0.99248593
0.99248593
0.99248593
0.99248593
0.99248593
0.99248593
0.99248593
0.99248593
0.99248593
0.99248593
0.99248593
0.99248593
0.99248593
0.99248593
0.99248593
0.99248593
0.99248593
0.99248593
0.99248593
0.99248593
0.99248593
0.99248593
0.99248593
0.99248593
0.99248593
0.99248593
0.99248593
0.99248593
0.99248593
0.99248593
0.99248593
0.99248593
0.99248593
0.99248593
0.99248593
0.99248593
0.99248593
0.99248593
0.99248593
0.99248593
0.99248593
0.99248593
0.99248593
0.99248593
0.99248593
0.99248593
0.99248593
0.99248593
0.99248593
0.99248593
0.99248593
0.99248593
0.99248593
0.99248593
0.99248593
0.99248593
0.99248593
0.99248593
0.99248593
0.99248593
0.99248593
0.99248593
0.99248593
0.99248593
0.99248593
0.99248593
0.99248593
0.99248593
0.99248593
0.99248593
0.99248593
0.99248593
0.99248593
0.99248593
0.99248593
0.99248593
0.99248593
0.99248593
0.99248593
0.99248593
)
;
        value           nonuniform List<scalar> 
92
(
684.72774
686.42472
689.74408
694.49138
676.86515
678.83372
682.80456
688.54054
660.19208
662.80767
668.17826
676.0592
347.62014
344.71222
344.82087
347.80497
418.01617
414.42379
414.68334
418.61235
476.86399
473.7307
474.41537
478.50754
525.59871
523.4694
525.17465
529.83753
632.95801
564.68997
636.31691
564.30563
643.56574
568.27666
655.23185
575.37733
347.75997
347.77428
418.15639
418.65381
476.9418
478.50743
525.61192
529.77769
564.73896
575.29004
347.77967
347.73644
344.85674
344.89873
347.74406
347.80119
418.1705
418.19503
414.56866
414.77631
418.58645
418.62632
476.99704
477.04018
473.87266
474.46999
478.44064
478.46379
525.72768
525.80794
523.62531
525.24308
529.70928
529.75496
564.86376
564.92331
564.45862
568.32215
575.22096
575.30103
633.4611
636.69214
643.75205
655.21416
660.70418
663.2543
668.43563
676.1711
677.25222
679.22249
683.16981
688.83487
685.07081
686.77224
690.13321
694.88757
)
;
        Tnbr            T;
        thicknessLayers List<scalar> 0();
        kappaLayers     List<scalar> 0();
        kappaMethod     fluidThermo;
        kappa           none;
        alphaAni        none;
        alpha           none;
        field           T;
    }
}


// ************************************************************************* //
