/*--------------------------------*- C++ -*----------------------------------*\
| =========                 |                                                 |
| \\      /  F ield         | OpenFOAM: The Open Source CFD Toolbox           |
|  \\    /   O peration     | Version:  v2012                                 |
|   \\  /    A nd           | Website:  www.openfoam.com                      |
|    \\/     M anipulation  |                                                 |
\*---------------------------------------------------------------------------*/
FoamFile
{
    version     2.0;
    format      ascii;
    class       volScalarField;
    location    "770/topAir";
    object      rho;
}
// * * * * * * * * * * * * * * * * * * * * * * * * * * * * * * * * * * * * * //

dimensions      [1 -3 0 0 0 0 0];


internalField   nonuniform List<scalar> 
1200
(
1.0675537
0.99523316
0.93773457
0.8902057
0.84956357
0.814015
0.7825868
0.75495241
0.73101919
0.71033832
0.69267854
0.67801902
0.66676461
0.66782437
0.67220964
0.67984623
0.68983145
0.70080961
0.711499
0.72100876
0.72886687
0.73491215
0.73915799
0.74168594
0.74258683
0.74190891
0.73959857
0.73539225
0.72856888
0.71798037
1.1564974
1.1525137
1.1471084
1.1405556
1.1330579
1.1247791
1.1158634
1.1054272
1.0914361
1.073182
1.048362
1.01671
0.97902939
0.94173864
0.90812173
0.88030427
0.85873311
0.84310875
0.83291024
0.8273867
0.82532662
0.825324
0.82609499
0.82661373
0.82608667
0.82381858
0.81904638
0.81067228
0.79668525
0.77541467
1.1585729
1.1584393
1.1581915
1.1578055
1.1572611
1.1565413
1.1556328
1.1545003
1.153059
1.1512113
1.1486707
1.1403905
1.1196657
1.0858551
1.0439775
0.99987695
0.9589596
0.92384764
0.89561751
0.87435059
0.85933366
0.84932208
0.84289989
0.83874473
0.83574317
0.83297027
0.82960493
0.82472586
0.81678304
0.80359421
1.158618
1.1586135
1.1586029
1.158582
1.1585458
1.1584882
1.158402
1.1582778
1.1581022
1.1578548
1.1574861
1.1566757
1.1541316
1.1404148
1.1055496
1.0606177
1.0169837
0.97743609
0.94332547
0.91537363
0.89358857
0.87728299
0.86538009
0.85674433
0.85036014
0.84538502
0.84109373
0.83675463
0.8313101
0.82314343
1.0675821
0.99599289
0.9396838
0.89367663
0.85488456
0.82155408
0.79272005
0.76784311
0.74674
0.72949646
0.71643978
0.70808447
0.70533565
0.71942666
0.73820037
0.75887954
0.77778291
0.79244509
0.80241834
0.80866727
0.81240365
0.81448487
0.81530503
0.81494131
0.81335282
0.8104211
0.80592329
0.79929452
0.78887728
0.77140391
1.1565005
1.1525915
1.1473904
1.1412088
1.1342859
1.1268233
1.1190236
1.111104
1.1033202
1.096
1.0895747
1.0845919
1.0817004
1.0816568
1.0832063
1.0837152
1.0808175
1.0743396
1.0656569
1.0561872
1.0464167
1.0363192
1.0256503
1.0141017
1.0014196
0.98747126
0.97232285
0.95624982
0.93903421
0.91800989
1.158573
1.158443
1.1582081
1.1578519
1.157363
1.1567352
1.1559679
1.1550679
1.1540514
1.1529507
1.1518232
1.1506679
1.1495197
1.147973
1.1431941
1.1319989
1.1121978
1.0868463
1.0609952
1.0388849
1.0191571
1.0004765
0.98261348
0.96550671
0.94954501
0.93349563
0.91685195
0.90004111
0.88308115
0.86523867
1.158618
1.1586137
1.1586038
1.1585849
1.1585534
1.158505
1.1584352
1.1583392
1.1582124
1.1580495
1.1578426
1.1575508
1.1568692
1.1531575
1.1385196
1.1107056
1.0743305
1.0317401
0.99067313
0.95572739
0.92931424
0.90979587
0.8945893
0.88222084
0.87173068
0.86361076
0.85709012
0.8514551
0.84590958
0.83737794
1.067607
0.99590556
0.93946145
0.89330655
0.854341
0.82078809
0.79157521
0.76603854
0.74381152
0.72480059
0.70922275
0.69770654
0.69164362
0.7034635
0.71965577
0.73745483
0.75499641
0.77158708
0.78691053
0.80079277
0.81311251
0.82352995
0.83145387
0.83631196
0.83784527
0.83623281
0.83188208
0.82497831
0.81397678
0.79584856
1.1565008
1.1525796
1.1473556
1.1411438
1.134181
1.1266589
1.1187533
1.1106473
1.1025642
1.0948027
1.0878259
1.0823615
1.0793988
1.0794805
1.080129
1.0791864
1.0764969
1.0724185
1.0669203
1.0599952
1.0514686
1.0408523
1.0276466
1.0117259
0.99340689
0.9731654
0.95141577
0.92891763
0.90569847
0.87963319
1.158573
1.1584425
1.1582063
1.1578482
1.1573574
1.1567274
1.1559572
1.1550521
1.1540275
1.1529179
1.1517936
1.1507837
1.1499214
1.1469854
1.1366397
1.1209663
1.1060161
1.0930955
1.0798914
1.065905
1.0499633
1.0304583
1.0070064
0.98073054
0.95351658
0.92767492
0.90489958
0.88527948
0.86434305
0.83965487
1.158618
1.1586137
1.1586037
1.1585847
1.1585531
1.1585048
1.1584354
1.1583404
1.1582155
1.1580567
1.1578581
1.1575682
1.1563472
1.1446468
1.1063673
1.0631137
1.0413376
1.0345873
1.0072999
0.97573596
0.94905103
0.92818786
0.91155095
0.89782136
0.88606462
0.87616745
0.86782534
0.85986582
0.84220639
0.80941215
1.0676263
0.99589402
0.93936691
0.89307593
0.85389187
0.81998547
0.79022484
0.76386036
0.74040317
0.71960794
0.70155979
0.68688224
0.67691759
0.68282287
0.68738052
0.68861033
0.68742148
0.68560464
0.68446154
0.68494842
0.68760245
0.69236731
0.69879464
0.70632601
0.71422594
0.72112846
0.7245807
0.72166061
0.71233062
0.69784809
1.1565011
1.1525758
1.1473367
1.1410933
1.1340731
1.1264511
1.1183762
1.1099942
1.1014788
1.0930966
1.0853417
1.0791219
1.0755239
1.0731833
1.0690584
1.0635514
1.0574613
1.0512384
1.0448525
1.0378991
1.0296603
1.0194362
1.0069568
0.99245566
0.97617154
0.95804129
0.93819237
0.91679167
0.88145687
0.82079639
1.158573
1.1584423
1.1582052
1.1578448
1.1573491
1.1567102
1.155924
1.154992
1.1539251
1.1527556
1.1515664
1.1505206
1.1492155
1.140018
1.1228432
1.1101322
1.1015692
1.0940147
1.0845139
1.0710935
1.0525213
1.0283725
0.99998079
0.96962569
0.93852057
0.90826944
0.88251551
0.86105487
0.83999091
0.81069733
1.158618
1.1586137
1.1586036
1.1585845
1.1585526
1.1585034
1.1584325
1.1583347
1.1582046
1.1580365
1.1578168
1.1573734
1.1537628
1.1135499
1.0364729
0.9976676
0.99514774
0.9956932
0.98941299
0.97090821
0.95086836
0.9327063
0.91626854
0.90225315
0.88753629
0.87104879
0.85337883
0.83401831
0.81299056
0.78621429
1.0676495
0.99591967
0.93938002
0.89306801
0.85385623
0.81991393
0.79011129
0.76370508
0.74023201
0.71952175
0.7018432
0.68812471
0.6795084
0.68638424
0.68924786
0.68785891
0.68514382
0.6809564
0.67599363
0.67078683
0.66581467
0.66151568
0.6582487
0.65623998
0.65550583
0.65572044
0.65605547
0.65513741
0.65122796
0.6424676
1.1565016
1.1525753
1.1473311
1.1410768
1.1340387
1.1263898
1.1182785
1.1098515
1.1012965
1.0929316
1.0853899
1.0798123
1.0768954
1.0724252
1.0663113
1.0593289
1.0470046
1.0296399
1.0087457
0.98495144
0.95849696
0.92939399
0.89817696
0.86621694
0.83515722
0.80615758
0.77943176
0.7542441
0.72900847
0.70057981
1.158573
1.1584422
1.1582047
1.1578432
1.1573454
1.1567027
1.1559105
1.1549696
1.153892
1.1527168
1.1515515
1.1505664
1.1481127
1.1298655
1.1161867
1.107898
1.1026605
1.0962608
1.0876374
1.0749499
1.0548431
1.0272423
0.99522145
0.96281698
0.92989754
0.89631836
0.86240042
0.82761835
0.79084172
0.75001971
1.158618
1.1586137
1.1586036
1.1585844
1.1585522
1.1585027
1.1584309
1.1583314
1.1581984
1.1580245
1.1577829
1.1570479
1.1481601
1.0410047
0.98186137
0.97045092
0.9645426
0.95854607
0.95088382
0.94140212
0.93040743
0.91877065
0.90776656
0.89845044
0.89113601
0.88231239
0.86583243
0.84096139
0.80759363
0.76894844
1.0676653
0.99594692
0.93941643
0.89311272
0.85390964
0.81997678
0.79018248
0.76377778
0.7402859
0.71951431
0.7016863
0.6876753
0.67885076
0.68640931
0.6904453
0.69009404
0.68737873
0.68325282
0.67845101
0.67355427
0.66907975
0.66546886
0.66304592
0.66198819
0.66226257
0.66348299
0.66471236
0.66444198
0.66078155
0.65192718
1.156502
1.1525764
1.1473331
1.1410798
1.1340426
1.1263945
1.1182827
1.1098517
1.101282
1.0928751
1.0852278
1.0794478
1.0764877
1.0726101
1.0668452
1.0601357
1.0505127
1.0367105
1.0207532
1.0047891
0.98914379
0.97176876
0.94994094
0.92317077
0.89346132
0.86249476
0.83148724
0.80039467
0.76768341
0.73016787
1.158573
1.1584422
1.1582048
1.1578433
1.1573456
1.1567029
1.1559105
1.1549692
1.1538898
1.1527086
1.1515258
1.1505248
1.148559
1.1305831
1.114644
1.1047047
1.0994253
1.0937186
1.0869703
1.0747523
1.0541138
1.0241952
0.98909195
0.95733575
0.93215627
0.91113929
0.88741277
0.85853312
0.82326664
0.78046216
1.158618
1.1586137
1.1586036
1.1585844
1.1585522
1.1585027
1.1584309
1.1583315
1.1581986
1.1580253
1.157791
1.157191
1.1504474
1.0586586
0.98090265
0.96649983
0.95969042
0.9540931
0.94663538
0.94040256
0.93108165
0.91995463
0.90872117
0.89834974
0.88898602
0.88027191
0.87377044
0.85112566
0.82316027
0.78961998
1.0676766
0.99597971
0.93947987
0.89321282
0.85405329
0.82017403
0.79044054
0.76410058
0.74066161
0.71986058
0.70174741
0.68688782
0.67668158
0.68311708
0.68902286
0.69179952
0.69196252
0.69131595
0.6915131
0.69364006
0.69810289
0.70457032
0.71230604
0.7206823
0.72919387
0.73671723
0.74091778
0.73851647
0.72656176
0.71075076
1.1565023
1.1525793
1.147343
1.1411027
1.1340855
1.1264663
1.1183935
1.1100109
1.1014874
1.0930767
1.0852417
1.078845
1.0750699
1.0733832
1.0699331
1.0647467
1.0588391
1.0528761
1.0470019
1.0408007
1.0334716
1.0240815
1.0120644
0.99756127
0.9809297
0.96207087
0.94204927
0.92115999
0.89455678
0.83780921
1.1585731
1.1584424
1.1582054
1.1578451
1.1573496
1.1567107
1.1559244
1.1549919
1.1539231
1.152748
1.1515428
1.1504674
1.149349
1.1421858
1.1234964
1.1082259
1.0979752
1.0902019
1.0809647
1.0676371
1.0487571
1.0238043
0.99448924
0.96465917
0.93617464
0.90832961
0.88623105
0.86856617
0.85005189
0.82536818
1.158618
1.1586137
1.1586036
1.1585845
1.1585526
1.1585035
1.1584325
1.1583347
1.1582046
1.1580366
1.15782
1.1574376
1.1548345
1.1245251
1.0432138
0.99372141
0.98905305
0.9903916
0.99208318
0.97734744
0.95802156
0.93889144
0.92214173
0.90813368
0.89461955
0.87698865
0.86078986
0.84250653
0.82251472
0.7976955
1.06769
0.99604646
0.93964697
0.89353146
0.85460417
0.82108893
0.79192101
0.76641927
0.74421562
0.72521929
0.70963603
0.69806272
0.69187753
0.70384685
0.72087244
0.73992535
0.75856854
0.77592689
0.79171667
0.80573844
0.81781407
0.82764578
0.83480848
0.83897777
0.84013128
0.83854993
0.83462517
0.82849285
0.81876844
0.80214395
1.1565028
1.1525854
1.1473661
1.1411595
1.1342021
1.1266851
1.1187844
1.1106813
1.1025958
1.0948238
1.0878114
1.0822574
1.0791588
1.0794106
1.0807089
1.0802351
1.0776181
1.073486
1.0679357
1.060951
1.0524023
1.0419027
1.0290579
1.0138262
0.99649101
0.97724264
0.9560773
0.93353343
0.9106092
0.88575397
1.1585731
1.1584427
1.1582067
1.1578488
1.1573582
1.1567284
1.1559582
1.1550528
1.1540272
1.1529142
1.1517809
1.1507506
1.1499169
1.1477598
1.1383095
1.1216627
1.1051514
1.0917512
1.0785908
1.0644854
1.0484418
1.0291421
1.0064226
0.98170494
0.95678518
0.93294133
0.91071789
0.89070478
0.86976427
0.84579789
1.158618
1.1586137
1.1586037
1.1585847
1.1585532
1.1585048
1.1584354
1.1583404
1.1582155
1.1580567
1.157859
1.1575883
1.1566867
1.148347
1.113105
1.064718
1.0366132
1.033046
1.0109992
0.98181478
0.95512781
0.93371561
0.91655489
0.90242069
0.8904299
0.88030702
0.87171418
0.86373104
0.84712377
0.81493818
1.0676911
0.99617851
0.9399282
0.89397252
0.85523107
0.8219493
0.79314743
0.76829706
0.74721977
0.7300008
0.71696975
0.7086263
0.70582701
0.71980796
0.73858837
0.75951299
0.77888542
0.79414943
0.80470452
0.81135466
0.81528784
0.81736025
0.81800078
0.81735921
0.81551312
0.81247379
0.80809635
0.80183872
0.79212829
0.77539941
1.1565032
1.1525993
1.1474043
1.1412294
1.1343132
1.1268568
1.1190612
1.1111459
1.10337
1.096056
1.0896283
1.0846136
1.0816352
1.0815043
1.0831163
1.0838663
1.0812776
1.0750671
1.0665521
1.0571627
1.0475396
1.0376643
1.02732
1.0162402
1.0041679
0.99088084
0.97629642
0.96058859
0.943568
0.92370725
1.1585731
1.1584433
1.1582086
1.1578526
1.157364
1.1567362
1.1559688
1.1550685
1.1540514
1.1529497
1.151818
1.1506441
1.1494644
1.1479835
1.1435058
1.1327011
1.1131849
1.0880061
1.0621875
1.0397286
1.0208291
1.0030496
0.98603821
0.96956979
0.9539617
0.93822822
0.92184084
0.90512411
0.88803644
0.87004912
1.158618
1.1586137
1.1586038
1.1585849
1.1585534
1.158505
1.1584351
1.1583391
1.1582122
1.1580491
1.1578416
1.1575482
1.1568882
1.1535028
1.1396272
1.1112577
1.0750722
1.0334259
0.99359811
0.95935751
0.93238059
0.91261342
0.89728842
0.88486166
0.87450671
0.86649056
0.86003813
0.854499
0.84912277
0.84062239
1.0676759
0.99544037
0.93800666
0.89053376
0.84994416
0.8144422
0.78304246
0.75540457
0.73146359
0.71077415
0.69311026
0.6784524
0.66720238
0.66824425
0.67265927
0.68040929
0.69060185
0.70186532
0.71288132
0.72270643
0.73082885
0.73706213
0.74141352
0.74398256
0.74490439
0.74428438
0.74211566
0.73816435
0.73175007
0.72172213
1.1565005
1.1525224
1.1471241
1.1405791
1.1330892
1.1248175
1.1159116
1.1056505
1.0918711
1.0738612
1.0490751
1.0170149
0.97865346
0.94077303
0.90695132
0.87933192
0.85820162
0.84310191
0.83340201
0.82830598
0.82663433
0.82698477
0.82806425
0.82885446
0.82860032
0.82665346
0.8222705
0.81436995
0.80099867
0.78015241
1.1585729
1.1584395
1.158192
1.1578064
1.1572623
1.1565427
1.1556344
1.1545063
1.1530732
1.1512346
1.1486837
1.1401942
1.1185062
1.0836856
1.0412225
0.99701672
0.95657902
0.92225276
0.89486392
0.87434078
0.85993115
0.8504009
0.84435716
0.84050638
0.83777153
0.83526886
0.83221411
0.82773502
0.82038896
0.8080058
1.158618
1.1586135
1.1586029
1.158582
1.1585459
1.1584883
1.158402
1.1582778
1.1581024
1.157855
1.1574844
1.1566536
1.153986
1.1389607
1.1029874
1.0580163
1.0150658
0.97647194
0.94330547
0.91611936
0.89486983
0.8789178
0.86725233
0.85878589
0.85253954
0.84770119
0.84357555
0.83947434
0.83443519
0.82695648
)
;

boundaryField
{
    maxY
    {
        type            calculated;
        value           nonuniform List<scalar> 
300
(
1.1586174
1.1586174
1.1586174
1.1586174
1.1586174
1.1586174
1.1586174
1.1586174
1.1586174
1.1586174
1.158613
1.1586132
1.1586132
1.1586131
1.1586131
1.1586131
1.1586131
1.1586132
1.1586132
1.158613
1.1586024
1.1586032
1.1586031
1.1586031
1.1586031
1.1586031
1.1586031
1.1586032
1.1586032
1.1586024
1.1585815
1.1585844
1.1585842
1.158584
1.1585839
1.1585839
1.158584
1.1585842
1.1585844
1.1585815
1.1585453
1.1585528
1.1585526
1.158552
1.1585517
1.1585517
1.158552
1.1585526
1.1585529
1.1585453
1.1584877
1.1585044
1.1585043
1.1585029
1.1585022
1.1585022
1.1585029
1.1585043
1.1585044
1.1584877
1.1584015
1.1584346
1.1584349
1.158432
1.1584304
1.1584304
1.158432
1.1584349
1.1584346
1.1584015
1.1582773
1.1583387
1.1583399
1.1583341
1.1583309
1.158331
1.1583341
1.1583399
1.1583386
1.1582773
1.1581016
1.1582119
1.158215
1.1582041
1.1581979
1.1581981
1.1582041
1.158215
1.1582116
1.1581019
1.1578542
1.1580489
1.1580561
1.158036
1.1580239
1.1580248
1.1580361
1.1580561
1.1580485
1.1578545
1.1574855
1.1578421
1.1578575
1.1578163
1.1577823
1.1577905
1.1578195
1.1578585
1.1578411
1.1574839
1.1566752
1.1575503
1.1575677
1.1573729
1.1570474
1.1571905
1.157437
1.1575878
1.1575477
1.1566531
1.1541311
1.1568687
1.1563467
1.1537623
1.1481596
1.1504469
1.1548339
1.1566862
1.1568877
1.1539854
1.1404143
1.1531569
1.1446462
1.1135494
1.0410043
1.0586582
1.1245246
1.1483464
1.1535023
1.1389602
1.1055491
1.1385191
1.1063668
1.0364724
0.98186099
0.98090227
1.0432134
1.1131045
1.1396267
1.1029869
1.0606173
1.1107052
1.0631132
0.9976672
0.97045055
0.96649947
0.99372102
1.0647175
1.1112572
1.0580159
1.0169833
1.0743301
1.0413372
0.99514735
0.96454224
0.95969006
0.98905266
1.0366128
1.0750718
1.0150654
0.97743572
1.0317397
1.0345869
0.99569281
0.95854571
0.95409274
0.99039122
1.0330456
1.0334255
0.97647156
0.94332512
0.99067274
1.0072995
0.98941261
0.95088347
0.94663503
0.9920828
1.0109988
0.99359772
0.94330512
0.9153733
0.95572703
0.97573558
0.97090784
0.94140177
0.94040222
0.97734706
0.9818144
0.95935715
0.91611903
0.89358825
0.92931391
0.94905067
0.950868
0.93040709
0.93108131
0.9580212
0.95512745
0.93238025
0.89486952
0.87728268
0.90979555
0.92818752
0.93270596
0.91877032
0.9199543
0.93889109
0.93371526
0.91261309
0.87891749
0.86537979
0.89458898
0.91155062
0.91626821
0.90776624
0.90872085
0.9221414
0.91655456
0.89728811
0.86725203
0.85674404
0.88222053
0.89782105
0.90225283
0.89845012
0.89834942
0.90813335
0.90242037
0.88486135
0.8587856
0.85035985
0.87173038
0.88606431
0.88753598
0.8911357
0.88898571
0.89461924
0.89042959
0.87450641
0.85253925
0.84538474
0.86361047
0.87616715
0.87104849
0.88231208
0.88027161
0.87698835
0.88030671
0.86649026
0.84770091
0.84109345
0.85708983
0.86782505
0.85337855
0.86583214
0.87377014
0.86078957
0.87171388
0.86003784
0.84357527
0.83675436
0.85145481
0.85986553
0.83401803
0.84096111
0.85112538
0.84250625
0.86373075
0.85449871
0.83947406
0.83130983
0.8459093
0.84220611
0.8129903
0.80759338
0.82316
0.82251445
0.84712349
0.84912248
0.83443491
0.82314316
0.83737767
0.8094119
0.78621405
0.76894821
0.78961974
0.79769525
0.81493792
0.84062212
0.82695621
)
;
    }
    minX
    {
        type            calculated;
        value           nonuniform List<scalar> 
40
(
1.1586222
1.1586212
1.1586201
1.1586191
1.1586222
1.1586212
1.1586201
1.1586191
1.1586222
1.1586212
1.1586201
1.1586191
1.1586222
1.1586212
1.1586201
1.1586191
1.1586222
1.1586212
1.1586201
1.1586191
1.1586222
1.1586212
1.1586201
1.1586191
1.1586222
1.1586212
1.1586201
1.1586191
1.1586222
1.1586212
1.1586201
1.1586191
1.1586222
1.1586212
1.1586201
1.1586191
1.1586222
1.1586212
1.1586201
1.1586191
)
;
    }
    maxX
    {
        type            calculated;
        value           nonuniform List<scalar> 
40
(
0.71783781
0.77518977
0.80341435
0.82303711
0.7711647
0.91793318
0.8652712
0.83756251
0.7955391
0.87986334
0.84012012
0.81030302
0.69787503
0.82063065
0.81074565
0.7866355
0.64251653
0.70069474
0.75011901
0.76920515
0.65177524
0.72958564
0.77989264
0.78933103
0.71056598
0.83756118
0.82518919
0.79760481
0.8020617
0.88585525
0.84592426
0.81512538
0.77534019
0.92370293
0.87004368
0.84065922
0.72165109
0.7800318
0.80790251
0.82688646
)
;
    }
    minZ
    {
        type            calculated;
        value           nonuniform List<scalar> 
120
(
1.0675537
1.1564974
1.1585729
1.158618
0.99523316
1.1525137
1.1584393
1.1586135
0.93773457
1.1471084
1.1581915
1.1586029
0.8902057
1.1405556
1.1578055
1.158582
0.84956357
1.1330579
1.1572611
1.1585458
0.814015
1.1247791
1.1565413
1.1584882
0.7825868
1.1158634
1.1556328
1.158402
0.75495241
1.1054272
1.1545003
1.1582778
0.73101919
1.0914361
1.153059
1.1581022
0.71033832
1.073182
1.1512113
1.1578548
0.69267854
1.048362
1.1486707
1.1574861
0.67801902
1.01671
1.1403905
1.1566757
0.66676461
0.97902939
1.1196657
1.1541316
0.66782437
0.94173864
1.0858551
1.1404148
0.67220964
0.90812173
1.0439775
1.1055496
0.67984623
0.88030427
0.99987695
1.0606177
0.68983145
0.85873311
0.9589596
1.0169837
0.70080961
0.84310875
0.92384764
0.97743609
0.711499
0.83291024
0.89561751
0.94332547
0.72100876
0.8273867
0.87435059
0.91537363
0.72886687
0.82532662
0.85933366
0.89358857
0.73491215
0.825324
0.84932208
0.87728299
0.73915799
0.82609499
0.84289989
0.86538009
0.74168594
0.82661373
0.83874473
0.85674433
0.74258683
0.82608667
0.83574317
0.85036014
0.74190891
0.82381858
0.83297027
0.84538502
0.73959857
0.81904638
0.82960493
0.84109373
0.73539225
0.81067228
0.82472586
0.83675463
0.72856888
0.79668525
0.81678304
0.8313101
0.71798037
0.77541467
0.80359421
0.82314343
)
;
    }
    maxZ
    {
        type            calculated;
        value           nonuniform List<scalar> 
120
(
1.0676759
1.1565005
1.1585729
1.158618
0.99544037
1.1525224
1.1584395
1.1586135
0.93800666
1.1471241
1.158192
1.1586029
0.89053376
1.1405791
1.1578064
1.158582
0.84994416
1.1330892
1.1572623
1.1585459
0.8144422
1.1248175
1.1565427
1.1584883
0.78304246
1.1159116
1.1556344
1.158402
0.75540457
1.1056505
1.1545063
1.1582778
0.73146359
1.0918711
1.1530732
1.1581024
0.71077415
1.0738612
1.1512346
1.157855
0.69311026
1.0490751
1.1486837
1.1574844
0.6784524
1.0170149
1.1401942
1.1566536
0.66720238
0.97865346
1.1185062
1.153986
0.66824425
0.94077303
1.0836856
1.1389607
0.67265927
0.90695132
1.0412225
1.1029874
0.68040929
0.87933192
0.99701672
1.0580163
0.69060185
0.85820162
0.95657902
1.0150658
0.70186532
0.84310191
0.92225276
0.97647194
0.71288132
0.83340201
0.89486392
0.94330547
0.72270643
0.82830598
0.87434078
0.91611936
0.73082885
0.82663433
0.85993115
0.89486983
0.73706213
0.82698477
0.8504009
0.8789178
0.74141352
0.82806425
0.84435716
0.86725233
0.74398256
0.82885446
0.84050638
0.85878589
0.74490439
0.82860032
0.83777153
0.85253954
0.74428438
0.82665346
0.83526886
0.84770119
0.74211566
0.8222705
0.83221411
0.84357555
0.73816435
0.81436995
0.82773502
0.83947434
0.73175007
0.80099867
0.82038896
0.83443519
0.72172213
0.78015241
0.8080058
0.82695648
)
;
    }
    topAir_to_rightSolid
    {
        type            calculated;
        value           nonuniform List<scalar> 
130
(
0.46446551
0.45965245
0.45473824
0.44996971
0.44549297
0.44142971
0.43784929
0.43478393
0.43224504
0.43023091
0.4287326
0.42774075
0.4272472
0.46814792
0.46243551
0.45675527
0.45137969
0.44645878
0.44208213
0.43828686
0.43507746
0.43244322
0.43036629
0.42882884
0.42781368
0.42730708
0.47567828
0.46784855
0.46049879
0.45389822
0.44812649
0.44317605
0.43900023
0.43554114
0.4327457
0.4305657
0.42896415
0.42791161
0.42738654
0.48732021
0.47534091
0.46522728
0.45686951
0.44999021
0.44434354
0.4397325
0.43599834
0.4330299
0.43074138
0.42907196
0.42797897
0.42743519
0.50178377
0.48264603
0.46916287
0.45908524
0.45127772
0.44511294
0.44019778
0.43628141
0.4332
0.43084131
0.42912871
0.42801083
0.42745639
0.50169132
0.48256006
0.46908069
0.45901352
0.45122841
0.44507884
0.44017055
0.43626175
0.43318772
0.43083469
0.42912452
0.42800709
0.42745302
0.48716773
0.47521186
0.46510303
0.45674888
0.44989224
0.44427001
0.43967116
0.43595316
0.43300045
0.4307224
0.42905623
0.42796327
0.42742059
0.47550967
0.46772107
0.4603813
0.45378495
0.44802564
0.44308917
0.43892682
0.4354839
0.43270627
0.43053435
0.42893451
0.42788208
0.42735808
0.46798069
0.46229421
0.45661991
0.45124496
0.44634219
0.44198373
0.43820447
0.43501123
0.43239309
0.4303219
0.42878476
0.4277693
0.42726217
0.46429689
0.45950367
0.45459083
0.44981279
0.44535159
0.44132021
0.43776606
0.43471934
0.43219268
0.43018172
0.42868241
0.42768755
0.4271902
)
;
    }
    topAir_to_heater
    {
        type            calculated;
        value           nonuniform List<scalar> 
40
(
0.47632121
0.47501434
0.47246888
0.46885515
0.48254392
0.48097581
0.47788813
0.47346676
0.49616459
0.49397479
0.4896188
0.48331136
0.51984007
0.51680916
0.5103971
0.50037063
0.55858845
0.55540193
0.54724042
0.53146513
0.55844854
0.55527397
0.54712905
0.53137006
0.51947852
0.51646537
0.51009994
0.50015556
0.49587451
0.49368607
0.48934615
0.48308971
0.48238812
0.48079243
0.47768292
0.47327688
0.47620161
0.47488018
0.47231118
0.46867676
)
;
    }
    topAir_to_leftSolid
    {
        type            calculated;
        value           nonuniform List<scalar> 
130
(
0.37393266
0.3739307
0.37393608
0.37395398
0.373988
0.37404181
0.37411711
0.3742209
0.37435307
0.37448096
0.37459319
0.37468069
0.37473056
0.37395438
0.37395348
0.37396107
0.3739824
0.37402029
0.37407949
0.37415669
0.37425991
0.37438574
0.37451694
0.37464145
0.37474664
0.37481235
0.3739961
0.37399714
0.37400939
0.37403654
0.37408155
0.37415087
0.3742361
0.37434073
0.37446705
0.37460538
0.37474085
0.37486172
0.37495399
0.3740515
0.37405475
0.37407372
0.37411177
0.37416713
0.37424234
0.37433591
0.37444845
0.37458133
0.37472884
0.3748801
0.37502294
0.37513591
0.37411292
0.3741199
0.3741437
0.37418908
0.37425857
0.37434602
0.37445254
0.37457831
0.37472394
0.37489085
0.37506046
0.37519976
0.37529771
0.37416133
0.37417325
0.3742042
0.37425926
0.37434401
0.3744516
0.37457674
0.37471352
0.37486068
0.3750165
0.37516759
0.37529498
0.37537462
0.37420445
0.37421832
0.37425293
0.37431295
0.37440315
0.37452425
0.37465203
0.37478536
0.37492731
0.37507426
0.37521586
0.37533187
0.37540059
0.37424808
0.37426259
0.37429861
0.37436101
0.37445585
0.37457923
0.37470691
0.37484144
0.37498334
0.37511866
0.3752425
0.37534652
0.37541302
0.37428467
0.37429837
0.37433313
0.37439404
0.37448704
0.37460732
0.37473824
0.37486929
0.37499859
0.37511933
0.37522743
0.37531822
0.37537793
0.37430285
0.37431553
0.37434893
0.3744091
0.37450326
0.37461975
0.3747432
0.37487455
0.37500068
0.37511542
0.37521501
0.37529395
0.37534351
)
;
    }
}


// ************************************************************************* //
