/*--------------------------------*- C++ -*----------------------------------*\
| =========                 |                                                 |
| \\      /  F ield         | OpenFOAM: The Open Source CFD Toolbox           |
|  \\    /   O peration     | Version:  v2012                                 |
|   \\  /    A nd           | Website:  www.openfoam.com                      |
|    \\/     M anipulation  |                                                 |
\*---------------------------------------------------------------------------*/
FoamFile
{
    version     2.0;
    format      ascii;
    class       volScalarField;
    location    "770/topAir";
    object      T;
}
// * * * * * * * * * * * * * * * * * * * * * * * * * * * * * * * * * * * * * //

dimensions      [0 0 0 1 0 0 0];


internalField   nonuniform List<scalar> 
1200
(
325.59174
349.25148
370.66634
390.45654
409.13551
427.00272
444.15087
460.40863
475.48218
489.32541
501.8007
512.65018
521.30325
520.47599
517.08056
511.27229
503.87167
495.97853
488.52706
482.08362
476.88614
472.96334
470.24657
468.64378
468.07523
468.50293
469.96641
472.65454
477.08115
484.11698
300.55092
301.58979
303.0109
304.75179
306.76839
309.02633
311.49542
314.43621
318.46697
323.88389
331.55183
341.87362
355.03156
369.09001
382.75299
394.84791
404.76638
412.26744
417.31541
420.10136
421.14996
421.1513
420.75824
420.49419
420.76247
421.92089
424.37922
428.76298
436.29056
448.25856
300.01224
300.04684
300.11103
300.21107
300.35231
300.53924
300.77552
301.07054
301.44688
301.93071
302.59851
304.79561
310.43734
320.10352
332.94398
347.6288
362.46159
376.23738
388.0965
397.53621
404.48319
409.25113
412.36928
414.41217
415.90053
417.28503
418.97777
421.45644
425.5549
432.53923
300.0003
300.00144
300.00419
300.0096
300.01897
300.03388
300.05622
300.0884
300.1339
300.19804
300.29366
300.50403
301.16646
304.78886
314.40086
327.72009
341.78103
355.6097
368.46855
379.72011
388.97743
396.20715
401.6568
405.7054
408.75129
411.1568
413.25454
415.39753
418.11811
422.26639
325.58308
348.98507
369.89745
388.94005
406.58896
423.08428
438.47335
452.6792
465.47205
476.47468
485.15814
490.88293
492.79599
483.14385
470.85667
458.026
446.89405
438.6254
433.17373
429.82639
427.84955
426.75627
426.32697
426.51724
427.35023
428.89617
431.28981
434.8666
440.60907
450.58947
300.55012
301.56941
302.93643
304.57736
306.43629
308.46571
310.61575
312.82971
315.03671
317.14082
319.01103
320.4766
321.33329
321.34623
320.88653
320.73584
321.59575
323.53484
326.17091
329.09532
332.16813
335.40466
338.89354
342.75285
347.09352
351.99633
357.48029
363.48895
370.1529
378.63014
300.0122
300.04586
300.10672
300.19906
300.32586
300.48887
300.68832
300.9226
301.18767
301.47521
301.77029
302.07328
302.375
302.78241
304.04813
307.05507
312.52176
319.81154
327.60374
334.57605
341.05243
347.42046
353.73623
360.00371
366.05531
372.34882
379.10809
386.18902
393.60595
401.72267
300.00029
300.00139
300.00397
300.00885
300.01702
300.02955
300.04763
300.07248
300.10534
300.14756
300.20119
300.27687
300.45377
301.42087
305.29622
312.94135
323.53705
336.89271
350.85814
363.68711
374.0239
382.04806
388.54227
393.98952
398.73068
402.47967
405.54169
408.22562
410.90182
415.0883
325.57547
349.01567
369.98499
389.10118
406.84765
423.47912
439.1075
453.74559
467.30467
479.56169
490.09509
498.1845
502.55156
494.10747
482.99004
471.33268
460.38174
450.4826
441.71038
434.05305
427.47656
422.06909
418.04668
415.61826
414.85765
415.65759
417.83146
421.32804
427.0226
436.74951
300.55005
301.57254
302.94563
304.5947
306.46462
308.51071
310.6908
312.95836
315.25269
317.48767
319.52386
321.13703
322.01846
321.99407
321.80074
322.08182
322.8865
324.11443
325.78469
327.91309
330.57219
333.94392
338.23522
343.55776
349.89316
357.1708
365.33582
374.18415
383.777
395.14906
300.0122
300.04601
300.10719
300.2
300.32732
300.49088
300.6911
300.92673
301.19391
301.48377
301.77806
302.04289
302.2694
303.04312
305.80141
310.07714
314.2685
317.98319
321.87127
326.09475
331.04585
337.31205
345.16761
354.4154
364.53064
374.68515
384.11556
392.62857
402.13896
413.96295
300.00029
300.0014
300.00399
300.0089
300.01708
300.02959
300.04757
300.07216
300.10453
300.1457
300.19718
300.27234
300.58941
303.662
314.16848
326.95067
333.78774
335.96558
345.06677
356.2293
366.24557
374.4778
381.31248
387.14356
392.28038
396.71158
400.52505
404.2326
412.70858
429.42993
325.56959
349.01972
370.02223
389.20166
407.06164
423.89363
439.85786
455.03946
469.45585
483.02218
495.44828
506.03519
513.48433
509.04354
505.66834
504.76523
505.63819
506.97811
507.82479
507.46381
505.50507
502.02619
497.40867
492.10493
486.66183
482.00358
479.70708
481.64813
487.95668
498.08331
300.54997
301.57354
302.95061
304.60818
306.49377
308.56763
310.79555
313.14249
315.56335
317.98319
320.25523
322.10108
323.17862
323.88348
325.13314
326.81665
328.69884
330.6446
332.66542
334.89413
337.57376
340.95934
345.18491
350.22852
356.07089
362.80928
370.48506
379.1333
394.33155
423.47438
300.0122
300.04606
300.10748
300.2009
300.32947
300.49535
300.69973
300.94239
301.22063
301.52623
301.83761
302.11195
302.45505
304.8952
309.55884
313.10326
315.53716
317.71602
320.49937
324.51511
330.2413
337.99622
347.59269
358.47443
370.35525
382.69042
393.85825
403.67464
413.79735
428.74943
300.00029
300.0014
300.00401
300.00895
300.01723
300.02994
300.04832
300.07366
300.10736
300.15093
300.20787
300.3229
301.26273
312.14204
335.3544
348.39833
349.28052
349.08918
351.305
358.00062
365.5456
372.66367
379.34922
385.24195
391.62993
399.04284
407.30538
416.76039
427.53978
442.10061
325.56252
349.01073
370.01707
389.20511
407.07863
423.93062
439.92108
455.13198
469.5644
483.08004
495.24821
505.12149
511.52654
506.40232
504.29835
505.31664
507.3191
510.43877
514.18611
518.17733
522.04696
525.43957
528.04738
529.6637
530.2569
530.08334
529.81264
530.55508
533.74012
541.01794
300.54982
301.57367
302.9521
304.61258
306.50309
308.58444
310.82272
313.18275
315.61559
318.0312
320.24101
321.89516
322.76705
324.11244
325.97077
328.11935
331.98165
337.58047
344.57278
352.89689
362.63682
373.9924
386.99087
401.26931
416.19262
431.16417
445.94829
460.84055
476.79319
496.14089
300.0122
300.04608
300.1076
300.2013
300.33043
300.49731
300.70326
300.94822
301.22928
301.53638
301.84151
302.09995
302.74557
307.63488
311.40491
313.73469
315.22486
317.06507
319.57895
323.35089
329.51442
338.36808
349.25495
361.00944
373.78959
387.79304
403.04482
419.98348
439.51405
463.4359
300.00029
300.0014
300.00401
300.00898
300.01731
300.03014
300.04874
300.0745
300.10896
300.15404
300.21668
300.40738
302.73282
333.89449
354.00693
358.1693
360.36327
362.61766
365.53965
369.22133
373.58445
378.31613
382.90214
386.8725
390.04795
393.94866
401.44695
413.31958
430.39694
452.02751
325.55769
349.00118
370.00273
389.18562
407.05317
423.89813
439.88145
455.08866
469.53022
483.08504
495.35895
505.4516
512.02208
506.38382
503.42375
503.67999
505.66963
508.72318
512.32371
516.04829
519.4994
522.31823
524.22691
525.06451
524.84696
523.88154
522.91262
523.12541
526.02329
533.16767
300.54972
301.57337
302.95156
304.61178
306.50202
308.58315
310.82154
313.1827
315.61974
318.04764
320.28883
322.00385
322.88927
324.05656
325.80764
327.86964
330.87302
335.27808
340.51942
345.92961
351.40118
357.68416
365.90305
376.51352
389.03337
403.00102
418.02958
434.26859
452.77293
476.03612
300.0122
300.04607
300.10759
300.20127
300.33039
300.49726
300.70324
300.94832
301.22984
301.53852
301.84825
302.11086
302.62793
307.43962
311.8359
314.64158
316.15247
317.80205
319.77509
323.41036
329.74239
339.37478
351.41932
363.0764
372.88385
381.48505
391.68472
404.86035
422.20347
445.35925
300.00029
300.0014
300.00401
300.00898
300.01731
300.03014
300.04873
300.07448
300.10891
300.15383
300.21458
300.37023
302.13091
328.32655
354.35293
359.63351
362.18527
364.31008
367.18017
369.61378
373.31393
377.82924
382.49991
386.91587
390.99127
394.86183
397.79989
408.38363
422.25776
440.19381
325.55425
348.98969
369.97774
389.14201
406.9847
423.79618
439.73784
454.8964
469.29204
482.85266
495.31581
506.03108
513.66343
508.8243
504.46304
502.43827
502.31991
502.78971
502.64636
501.10505
497.90158
493.33121
487.97356
482.30199
476.67228
471.80449
469.12964
470.65502
478.39908
489.04131
300.54964
301.57262
302.94894
304.60568
306.49042
308.56348
310.79074
313.13777
315.56089
317.98898
320.28473
322.18375
323.31509
323.82315
324.86734
326.44977
328.27112
330.13031
331.98248
333.96048
336.32883
339.41273
343.44286
348.43602
354.34371
361.28967
368.96823
377.33537
388.55693
414.87517
300.01219
300.04603
300.10743
300.20081
300.32935
300.49523
300.69963
300.94242
301.22114
301.5282
301.8438
302.12593
302.41992
304.31655
309.37886
313.64185
316.56999
318.8272
321.55168
325.56571
331.42661
339.50437
349.51209
360.32002
371.2833
382.66507
392.20699
400.18368
408.89975
421.12843
300.00029
300.0014
300.004
300.00895
300.01722
300.02994
300.04832
300.07366
300.10736
300.15089
300.20704
300.30624
300.98316
309.09558
333.18743
349.78187
351.43285
350.95787
350.35946
355.64194
362.8162
370.20867
376.93312
382.74736
388.52915
396.34011
403.79865
412.56153
422.58915
435.73745
325.55016
348.9663
369.91195
389.00324
406.72236
423.32396
438.91576
453.52018
467.05093
479.28481
489.80967
497.9303
502.38166
493.83836
482.17486
469.75896
458.21378
447.96302
439.02897
431.38881
425.01903
419.97017
416.3668
414.29766
413.72881
414.50902
416.45821
419.54073
424.52355
433.32182
300.5495
301.57101
302.94284
304.5905
306.45893
308.50354
310.68216
312.94876
315.24368
317.48154
319.52812
321.1679
322.09009
322.01494
321.62808
321.76914
322.55054
323.79211
325.47492
327.61766
330.27891
333.60725
337.77137
342.84602
348.81024
355.68062
363.55456
372.33402
381.70737
392.41847
300.01219
300.04596
300.1071
300.19985
300.32712
300.49064
300.69085
300.92655
301.19399
301.48473
301.78139
302.05158
302.27057
302.83864
305.35283
309.88463
314.5144
318.37476
322.25939
326.5296
331.52628
337.74345
345.36785
354.06362
363.28531
372.57006
381.66156
390.23706
399.63243
410.95633
300.00029
300.0014
300.00399
300.00889
300.01707
300.02958
300.04756
300.07217
300.10453
300.1457
300.19694
300.26714
300.50118
302.68354
312.2668
326.45803
335.30897
336.46684
343.80415
354.02373
363.91542
372.26083
379.2307
385.17042
390.35725
394.84608
398.73824
402.42364
410.31288
426.51799
325.54982
348.92004
369.80127
388.81132
406.42423
422.88085
438.23708
452.41173
465.17318
476.1455
484.79952
490.50759
492.45293
482.88793
470.60931
457.644
446.26148
437.68406
431.94307
428.40272
426.33597
425.25499
424.922
425.25552
426.21817
427.81257
430.13002
433.48678
438.80074
448.26766
300.5494
301.56739
302.93276
304.57186
306.4289
308.45655
310.60532
312.81792
315.02246
317.12462
318.99534
320.47021
321.35266
321.39153
320.91319
320.69112
321.45889
323.31589
325.89715
328.79168
331.81208
334.96986
338.34275
342.03161
346.14355
350.78512
356.02533
361.84715
368.37433
376.29477
300.01218
300.04581
300.1066
300.19887
300.32561
300.48859
300.68808
300.92245
301.18765
301.47545
301.77166
302.07955
302.38955
302.77964
303.96526
306.86473
312.24464
319.47062
327.236
334.30454
340.4938
346.52923
352.50763
358.49507
364.36053
370.47062
377.05641
384.02026
391.4096
399.50156
300.00029
300.00139
300.00397
300.00885
300.01701
300.02955
300.04764
300.07251
300.1054
300.14767
300.20145
300.27753
300.44883
301.33062
304.9995
312.78589
323.31383
336.34316
349.82527
362.31095
372.79384
380.86855
387.37349
392.81367
397.46495
401.14201
404.15158
406.77142
409.34691
413.48622
325.55445
349.17877
370.55882
390.3127
408.95231
426.77874
443.89242
460.13304
475.1933
489.02537
501.48815
512.32271
520.96122
520.14896
516.73493
510.84919
503.30958
495.23251
487.57978
480.95118
475.6059
471.58373
468.81598
467.19711
466.61894
467.00764
468.37239
470.87953
475.00711
481.60707
300.55012
301.58752
303.00675
304.74552
306.75992
309.01577
311.48198
314.37273
318.34009
323.67902
331.32648
341.77115
355.16794
369.46884
383.24693
395.28453
405.01706
412.27079
417.06917
419.63512
420.48372
420.30554
419.75761
419.35742
419.48604
420.47397
422.71522
426.81616
433.94111
445.53635
300.01223
300.04677
300.11089
300.21085
300.352
300.53888
300.77509
301.06898
301.44318
301.92459
302.59507
304.84811
310.75915
320.74436
333.82492
348.62608
363.36363
376.88802
388.42332
397.54067
404.20215
408.73195
411.65757
413.54358
414.89357
416.13669
417.66417
419.92427
423.68442
430.17763
300.0003
300.00143
300.00419
300.0096
300.01896
300.03388
300.05622
300.08838
300.13385
300.19797
300.2941
300.50978
301.20447
305.17797
315.1312
328.52588
342.42681
355.96083
368.47636
379.41102
388.4205
395.4702
400.7897
404.74093
407.70637
410.0334
412.03873
414.05173
416.55219
420.31934
)
;

boundaryField
{
    maxY
    {
        type            zeroGradient;
    }
    minX
    {
        type            fixedValue;
        value           uniform 300;
    }
    maxX
    {
        type            inletOutlet;
        inletValue      uniform 300;
        value           nonuniform List<scalar> 
40
(
484.21314
448.38862
432.63607
422.32091
450.72924
378.66173
401.70754
414.9968
436.9194
395.04566
413.73368
428.9578
498.06411
423.5599
428.72388
441.8639
540.97679
496.05955
463.37457
451.87666
533.29201
476.41603
445.68449
440.35495
489.16852
414.99801
421.21978
435.78701
433.36624
392.37357
410.89493
426.42003
448.30189
376.29648
399.50404
413.46809
481.65451
445.60525
430.23263
420.3549
)
;
    }
    minZ
    {
        type            zeroGradient;
    }
    maxZ
    {
        type            zeroGradient;
    }
    topAir_to_rightSolid
    {
        type            compressible::turbulentTemperatureCoupledBaffleMixed;
        refValue        nonuniform List<scalar> 
130
(
748.43943
756.28046
764.45709
772.5617
780.32793
787.51295
793.95441
799.55327
804.25035
808.01569
810.83913
812.71823
813.65497
742.56952
751.74587
761.09743
770.16379
778.65446
786.3647
793.17519
799.02687
803.89449
807.77391
810.6693
812.59137
813.5517
730.80803
743.04378
754.90781
765.88978
775.75771
784.42601
791.8896
798.18012
803.33676
807.40408
810.4179
812.40977
813.40485
713.32758
731.30832
747.20998
760.88273
772.51845
782.33905
790.54604
797.31985
802.78807
807.05479
810.19483
812.26228
813.2926
692.7606
720.23504
740.93716
757.20427
770.3064
780.97656
789.69815
796.78836
802.45728
806.85142
810.07192
812.18711
813.23847
692.88886
720.36399
741.06769
757.32343
770.3916
781.03765
789.74848
796.826
802.482
806.86603
810.08218
812.19665
813.24736
713.55224
731.50863
747.41168
761.08616
772.68948
782.47156
790.65947
797.40568
802.84593
807.09375
810.22803
812.29514
813.32323
731.06801
743.24719
755.10134
766.08177
775.93302
784.58038
792.02249
798.28541
803.41036
807.46335
810.47451
812.46669
813.46017
742.83524
751.97609
761.32357
770.39427
778.85837
786.54025
793.32475
799.14892
803.98806
807.85764
810.75311
812.67631
813.638
748.71152
756.52568
764.7054
772.83168
780.57615
787.70883
794.10585
799.67255
804.34828
808.10861
810.93466
812.82002
813.76439
)
;
        refGradient     uniform 0;
        valueFraction   uniform 0.99967867;
        value           nonuniform List<scalar> 
130
(
748.3583
756.19442
764.36636
772.46669
780.22916
787.411
793.84988
799.44676
804.14247
807.90707
810.73048
812.61041
813.54912
742.47186
751.64351
760.99099
770.0538
778.54139
786.24901
793.05738
798.90744
803.77401
807.65295
810.54857
812.47189
813.43511
730.71795
742.94695
754.80471
765.78104
775.64406
784.30828
791.7687
798.05695
803.2122
807.27892
810.2929
812.28597
813.28388
713.26128
731.23651
747.13294
760.80066
772.43152
782.24747
790.45012
797.22001
802.68498
806.9496
810.08926
812.15808
813.19131
692.70202
720.16883
740.86558
757.12871
770.22771
780.89529
789.61459
796.7027
802.36975
806.76239
809.98209
812.09762
813.15099
692.82968
720.29714
740.99538
757.24701
770.31189
780.95513
789.66344
796.73862
802.39249
806.77481
809.99
812.10472
813.1574
713.48453
731.4351
747.33255
761.0016
772.59973
782.37695
790.5604
797.30263
802.73958
806.98517
810.11895
812.18788
813.21907
730.97705
743.14945
754.99734
765.97219
775.81865
784.46207
791.90112
798.16184
803.28539
807.33771
810.34889
812.34203
813.33804
742.73719
751.87326
761.21659
770.28371
778.74475
786.42406
793.20648
799.02909
803.86719
807.73627
810.63188
812.55618
813.52061
748.63007
756.43927
764.61422
772.73618
780.47687
787.60637
794.00081
799.56553
804.23989
807.99945
810.8254
812.71148
813.65768
)
;
        Tnbr            T;
        thicknessLayers List<scalar> 0();
        kappaLayers     List<scalar> 0();
        kappaMethod     fluidThermo;
        kappa           none;
        alphaAni        none;
        alpha           none;
        field           T;
    }
    topAir_to_heater
    {
        type            compressible::turbulentTemperatureCoupledBaffleMixed;
        refValue        nonuniform List<scalar> 
40
(
729.79887
731.80824
735.75366
741.42815
720.39755
722.75068
727.42555
734.2234
700.61347
703.72357
709.98951
719.2607
668.69284
672.61653
681.06884
694.71913
622.2962
625.8681
635.20433
654.06305
622.45214
626.01265
635.3342
654.18064
669.15842
673.06475
681.46645
695.01899
701.02349
704.13547
710.38568
719.59146
720.63035
723.02648
727.73822
734.51823
729.98231
732.01515
735.99951
741.71061
)
;
        refGradient     uniform 0;
        valueFraction   uniform 0.99967867;
        value           nonuniform List<scalar> 
40
(
729.73161
731.73924
735.68152
741.35182
720.32131
722.66974
727.33898
734.13107
700.54711
703.65264
709.91281
719.17751
668.64154
672.56288
681.01219
694.65837
622.25896
625.82903
635.1626
654.0159
622.41485
625.97326
635.29189
654.13291
669.1069
673.01058
681.40892
694.95707
700.95693
704.06416
710.30837
719.50749
720.55396
722.94538
727.65144
734.42561
729.91488
731.94598
735.92717
741.63401
)
;
        Tnbr            T;
        thicknessLayers List<scalar> 0();
        kappaLayers     List<scalar> 0();
        kappaMethod     fluidThermo;
        kappa           none;
        alphaAni        none;
        alpha           none;
        field           T;
    }
    topAir_to_leftSolid
    {
        type            compressible::turbulentTemperatureCoupledBaffleMixed;
        refValue        nonuniform List<scalar> 
130
(
929.73798
929.73519
929.7149
929.66397
929.57336
929.43385
929.24121
928.97818
928.64526
928.3236
928.04137
927.82109
927.69477
929.68397
929.67865
929.653
929.59381
929.49393
929.34148
929.14473
928.88383
928.56744
928.23854
927.92719
927.66482
927.50152
929.58025
929.57009
929.53284
929.45919
929.34159
929.16401
928.94733
928.68292
928.36521
928.01837
927.67944
927.37762
927.14798
929.44257
929.42689
929.37295
929.27223
929.12895
928.93674
928.69936
928.4153
928.08122
927.71146
927.33305
926.97637
926.69476
929.28995
929.26503
929.19912
929.0802
928.90189
928.67943
928.41003
928.09336
927.72794
927.31045
926.88711
926.53974
926.2958
929.16972
929.13251
929.04887
928.90598
928.68986
928.41754
928.10215
927.75841
927.38949
926.99971
926.62235
926.30451
926.10579
929.06262
929.0206
928.9279
928.77273
928.54316
928.23745
927.91567
927.58061
927.22472
926.857
926.50314
926.21325
926.04119
928.95431
928.91071
928.81454
928.65353
928.41255
928.10134
927.78002
927.44227
927.08688
926.74843
926.43913
926.1797
926.01417
928.86349
928.82191
928.72889
928.57165
928.33531
928.03189
927.70266
927.3737
927.04978
926.74779
926.47794
926.25195
926.10393
928.81836
928.77926
928.68947
928.5338
928.29429
927.99982
927.68854
927.3582
927.04137
926.75329
926.50322
926.30479
926.17966
)
;
        refGradient     uniform 0;
        valueFraction   uniform 0.99967867;
        value           nonuniform List<scalar> 
130
(
929.54386
929.54867
929.53526
929.49071
929.40613
929.27241
929.08534
928.82762
928.49965
928.18254
927.9044
927.68768
927.56419
929.48985
929.49205
929.47314
929.42009
929.32591
929.17881
928.98706
928.73082
928.41863
928.09338
927.78491
927.52447
927.36184
929.38617
929.38354
929.35305
929.28556
929.1737
929.00152
928.78993
928.53031
928.21706
927.87427
927.53883
927.23971
927.01154
929.24853
929.24039
929.19322
929.09869
928.96119
928.77446
928.54228
928.26319
927.93385
927.56857
927.19427
926.84111
926.56198
929.09596
929.07858
929.01944
928.90672
928.73422
928.51724
928.25306
927.94138
927.58072
927.16771
926.74841
926.40432
926.16252
928.97576
928.9461
928.86924
928.73255
928.52224
928.25543
927.94527
927.60653
927.24237
926.85707
926.48377
926.16928
925.97274
928.8687
928.83422
928.74829
928.59933
928.37557
928.07536
927.75881
927.42873
927.07758
926.71433
926.36459
926.07823
925.90869
928.76042
928.72436
928.63495
928.48013
928.24492
927.93914
927.62293
927.28999
926.93906
926.60465
926.29883
926.04209
925.87805
928.66963
928.63557
928.5493
928.39822
928.16761
927.86957
927.54538
927.22108
926.90136
926.603
926.33602
926.11193
925.96459
928.62451
928.59302
928.51012
928.36086
928.12741
927.83876
927.53308
927.20806
926.89618
926.61264
926.36665
926.17177
926.04945
)
;
        Tnbr            T;
        thicknessLayers List<scalar> 0();
        kappaLayers     List<scalar> 0();
        kappaMethod     fluidThermo;
        kappa           none;
        alphaAni        none;
        alpha           none;
        field           T;
    }
}


// ************************************************************************* //
