/*--------------------------------*- C++ -*----------------------------------*\
| =========                 |                                                 |
| \\      /  F ield         | OpenFOAM: The Open Source CFD Toolbox           |
|  \\    /   O peration     | Version:  v2012                                 |
|   \\  /    A nd           | Website:  www.openfoam.com                      |
|    \\/     M anipulation  |                                                 |
\*---------------------------------------------------------------------------*/
FoamFile
{
    version     2.0;
    format      ascii;
    class       volVectorField;
    location    "770/topAir";
    object      U;
}
// * * * * * * * * * * * * * * * * * * * * * * * * * * * * * * * * * * * * * //

dimensions      [0 1 -1 0 0 0 0];


internalField   nonuniform List<vector> 
1200
(
(0.10473936 -0.0024871942 0.00087299034)
(0.11874306 -0.002551464 0.0013084995)
(0.13077353 -0.0023164303 0.0013817807)
(0.14017221 -0.0017412392 0.0012322821)
(0.14838818 -0.00088996633 0.00087308427)
(0.15608067 6.1414808e-05 0.0002637603)
(0.16352486 0.001003599 -0.00062819116)
(0.17097191 0.0018780148 -0.00197436)
(0.17861791 0.0027907859 -0.0040464778)
(0.18677272 0.0039343856 -0.0071683142)
(0.19558841 0.0056379277 -0.011748616)
(0.20472429 0.0082716599 -0.018195639)
(0.21261377 0.012221851 -0.02674911)
(0.21764212 0.016840457 -0.037189121)
(0.21990319 0.022003645 -0.048647817)
(0.22000466 0.026998114 -0.059876789)
(0.21813164 0.031237567 -0.069720382)
(0.21448239 0.034431103 -0.077501212)
(0.20960186 0.036461965 -0.083067264)
(0.20436126 0.037321968 -0.086617867)
(0.19967792 0.037175908 -0.088493323)
(0.1962016 0.03629864 -0.089041626)
(0.19420525 0.034957392 -0.088552258)
(0.19365425 0.033363974 -0.087241263)
(0.19430308 0.031696947 -0.085237609)
(0.19567268 0.030187009 -0.082529463)
(0.19682571 0.029226412 -0.078881914)
(0.19590868 0.029615725 -0.073740682)
(0.18948874 0.033285601 -0.066131581)
(0.15155779 0.046177546 -0.054042362)
(0.098685516 -0.0039369553 0.00084465077)
(0.098467039 -0.0047418974 0.0012729002)
(0.098934061 -0.0047767854 0.0014501165)
(0.099882616 -0.004291921 0.001526995)
(0.10138781 -0.0034804062 0.0015298839)
(0.10348082 -0.0025971958 0.0014432212)
(0.10614129 -0.0018184165 0.0012407692)
(0.10955554 -0.0011745717 0.00086122124)
(0.11421921 -0.00034091697 0.00017809019)
(0.12063891 0.0010741625 -0.00098999877)
(0.1297989 0.0039072946 -0.0029530336)
(0.14193593 0.0091437163 -0.0060891575)
(0.15677403 0.017593411 -0.010901515)
(0.17243333 0.028150175 -0.017449556)
(0.18678244 0.040306715 -0.02524361)
(0.19803956 0.052760298 -0.033328079)
(0.2050869 0.064389475 -0.040797752)
(0.20770121 0.074238256 -0.04716507)
(0.20663118 0.081524994 -0.05229285)
(0.20333622 0.085823213 -0.056193359)
(0.19938881 0.087383298 -0.058888282)
(0.19587613 0.086893539 -0.060400768)
(0.19329479 0.085069984 -0.060818146)
(0.19175701 0.082441777 -0.060278338)
(0.1911855 0.079343063 -0.058882601)
(0.19132632 0.076153375 -0.056552373)
(0.19156889 0.073574055 -0.052911636)
(0.1907067 0.073103979 -0.047100048)
(0.18746241 0.078015999 -0.037145992)
(0.16309467 0.093444545 -0.018169737)
(0.09881497 -0.0029342358 0.0008718906)
(0.097954823 -0.0042422741 0.001321368)
(0.096312164 -0.0046485277 0.0015201931)
(0.094262788 -0.0047361195 0.0016384925)
(0.092272137 -0.0046970872 0.001728689)
(0.090518856 -0.0046216094 0.0018033872)
(0.088984221 -0.0046183252 0.0018818829)
(0.087602525 -0.0047081443 0.0020096415)
(0.086438118 -0.0047216845 0.0022547467)
(0.085825327 -0.0045630597 0.0026438815)
(0.086301589 -0.0039841467 0.0031195333)
(0.09008541 -0.0014563827 0.0032514819)
(0.10039811 0.005957823 0.0023811759)
(0.1164962 0.019263553 0.00037034907)
(0.13538926 0.036594914 -0.0025700516)
(0.15344561 0.055031713 -0.0056268417)
(0.16780904 0.071841306 -0.0082199576)
(0.17735084 0.085821672 -0.010179559)
(0.18249836 0.096377889 -0.011796459)
(0.18466755 0.10327652 -0.013405552)
(0.18539659 0.1066535 -0.015145596)
(0.185604 0.10701785 -0.016653354)
(0.18558286 0.10507072 -0.017551913)
(0.18531766 0.1014639 -0.017758607)
(0.18476307 0.096692159 -0.017325524)
(0.18389948 0.091179195 -0.016147627)
(0.18259882 0.085632971 -0.013949501)
(0.18059467 0.081617515 -0.010158941)
(0.17839603 0.082730238 -0.0038072741)
(0.16600403 0.095189424 0.008363024)
(0.096857483 -0.0015581168 0.00083728459)
(0.094631565 -0.0023020383 0.0012486128)
(0.090909636 -0.0025279233 0.0014086656)
(0.086359872 -0.0025583207 0.0014861882)
(0.081801327 -0.0024961579 0.0015375696)
(0.077476126 -0.0023735942 0.001579627)
(0.073342931 -0.0022315354 0.0016374863)
(0.069300171 -0.0021058493 0.001758346)
(0.065217485 -0.0020382505 0.0020184566)
(0.060883032 -0.0022137666 0.0025273693)
(0.055873862 -0.0031656797 0.0035187181)
(0.049769265 -0.0049299325 0.0054336707)
(0.041988685 -0.0056357875 0.0089353266)
(0.037774389 0.00091890967 0.013843728)
(0.044951832 0.016695899 0.019518102)
(0.06019256 0.034385274 0.025552831)
(0.076391363 0.049493425 0.031362322)
(0.090719234 0.061762243 0.036691959)
(0.10292637 0.071187242 0.041017885)
(0.11365174 0.077701614 0.043974862)
(0.12338567 0.081231275 0.045738724)
(0.13213706 0.081957344 0.046484491)
(0.13958514 0.080357873 0.04643401)
(0.14537058 0.077005499 0.045833018)
(0.14929498 0.07244715 0.044922988)
(0.15145922 0.067127376 0.043957329)
(0.15231338 0.061670228 0.043164498)
(0.15296882 0.057285158 0.042407226)
(0.15745361 0.056706956 0.041092146)
(0.18203043 0.06564233 0.040074814)
(0.10600279 -0.0024882493 0.00099266706)
(0.1208607 -0.0025637594 0.0013759967)
(0.13413801 -0.0024206513 0.0013563863)
(0.14486765 -0.0020342579 0.0011022184)
(0.15422053 -0.0014745563 0.0006313067)
(0.16278837 -0.00092610641 -0.00010048968)
(0.17058174 -0.00054225981 -0.001159122)
(0.1775137 -0.00039133755 -0.0027138927)
(0.18356332 -0.00053810504 -0.0050231112)
(0.18870743 -0.0010669949 -0.008379402)
(0.1928811 -0.0021099862 -0.013120606)
(0.19599215 -0.00381524 -0.019493841)
(0.19742421 -0.0063333747 -0.027431061)
(0.19689601 -0.010361067 -0.036155552)
(0.19616166 -0.014999924 -0.044450563)
(0.19651856 -0.019262206 -0.05133124)
(0.19767285 -0.022144527 -0.05663995)
(0.19857813 -0.023359661 -0.060681644)
(0.19846736 -0.023439846 -0.063707377)
(0.19731639 -0.023191808 -0.065802659)
(0.19567774 -0.023061004 -0.067044201)
(0.19419953 -0.023083995 -0.067509358)
(0.19331746 -0.023183732 -0.067254766)
(0.19321719 -0.023314414 -0.066319561)
(0.1939739 -0.023450604 -0.064708461)
(0.19565116 -0.023445664 -0.062342514)
(0.19823312 -0.022905325 -0.058930365)
(0.20153334 -0.020769027 -0.053881548)
(0.20510349 -0.013626074 -0.046381035)
(0.20071354 0.0087677173 -0.036512143)
(0.099975367 -0.0039484752 0.0010494355)
(0.10069722 -0.0047902924 0.0015873187)
(0.10254353 -0.0049655385 0.0017753513)
(0.10504048 -0.0047406804 0.0018072871)
(0.10800039 -0.0043115725 0.0017238511)
(0.11136255 -0.0039342693 0.0015007533)
(0.11503329 -0.0038133352 0.0010912016)
(0.11893564 -0.0040600684 0.00041970736)
(0.12305159 -0.004799 -0.00063784635)
(0.12735862 -0.0062244532 -0.0022321943)
(0.13188686 -0.0085882746 -0.0045139127)
(0.13673456 -0.012178939 -0.0076476964)
(0.14206462 -0.017324666 -0.011643664)
(0.1478147 -0.024632838 -0.015858729)
(0.15388283 -0.032395514 -0.01927798)
(0.15994073 -0.038315465 -0.021276043)
(0.16536633 -0.040460016 -0.022191246)
(0.16917421 -0.038760795 -0.023094305)
(0.17081573 -0.034845693 -0.024629305)
(0.17066133 -0.030760976 -0.026751415)
(0.1696855 -0.027616907 -0.029042685)
(0.16867415 -0.025401842 -0.031069184)
(0.1678523 -0.023806663 -0.032414851)
(0.16722045 -0.022754001 -0.032723756)
(0.16696994 -0.02246912 -0.031658374)
(0.16764718 -0.023061983 -0.028907006)
(0.1702835 -0.024483828 -0.023994555)
(0.17719747 -0.026160863 -0.016103743)
(0.19446555 -0.026467741 -0.0039018641)
(0.25477713 -0.019274108 0.010714747)
(0.10011582 -0.0029625553 0.0010701375)
(0.10021228 -0.0042955492 0.0016355726)
(0.10001597 -0.0047454965 0.0018721825)
(0.09967011 -0.0049109626 0.0019827016)
(0.099389418 -0.0049880319 0.0020264587)
(0.099289614 -0.0050654032 0.0020034078)
(0.099384358 -0.0052331935 0.0019104356)
(0.099652769 -0.0055913972 0.0017618531)
(0.10007712 -0.0062846951 0.0015792561)
(0.10070989 -0.0075723974 0.0013396024)
(0.10167412 -0.0098055713 0.00089155495)
(0.10315224 -0.013496245 1.5813879e-05)
(0.10536681 -0.019395795 -0.0011785917)
(0.10833174 -0.027944406 -0.0017865572)
(0.11192685 -0.037013432 -0.0003801016)
(0.11590414 -0.043194512 0.0047384882)
(0.12129619 -0.04322791 0.013318061)
(0.12689001 -0.038239232 0.021739892)
(0.13119334 -0.031429842 0.02792844)
(0.13366976 -0.026130177 0.031055533)
(0.13435722 -0.02217 0.033086785)
(0.13511353 -0.019441501 0.035054063)
(0.13672903 -0.018069886 0.03707521)
(0.13891381 -0.017851074 0.039255608)
(0.14102102 -0.019070411 0.041018787)
(0.14214263 -0.021392637 0.042366149)
(0.14298889 -0.02459603 0.043392254)
(0.14497675 -0.029219985 0.044290721)
(0.15310885 -0.035623816 0.046920156)
(0.18586716 -0.043882934 0.045057576)
(0.098102239 -0.0015851512 0.0010453137)
(0.096774794 -0.0023584434 0.0015922797)
(0.094427566 -0.0026174579 0.0018149472)
(0.091502252 -0.0026938798 0.0019082131)
(0.088574373 -0.0026938358 0.0019311815)
(0.085834777 -0.0026519498 0.001887634)
(0.083281802 -0.0026122807 0.001780435)
(0.080880554 -0.0026329281 0.0016250809)
(0.078579028 -0.0027995122 0.0014532422)
(0.076343726 -0.0032615187 0.0013068533)
(0.074094981 -0.0043061756 0.0012312916)
(0.071601264 -0.0064551748 0.0012961608)
(0.068478544 -0.010486451 0.0013789243)
(0.064367439 -0.016572881 0.0013781256)
(0.059354173 -0.021431423 0.0042578503)
(0.055687448 -0.019868932 0.017145663)
(0.057655052 -0.0099612241 0.042967612)
(0.060531796 0.0042248472 0.06690746)
(0.064136686 0.01804031 0.084935396)
(0.069800888 0.028747635 0.097365588)
(0.078020707 0.035203508 0.10442474)
(0.086757992 0.037497992 0.10750231)
(0.094533588 0.036664362 0.10810591)
(0.10084485 0.03374603 0.1068377)
(0.10537738 0.029704022 0.10391439)
(0.10863797 0.024163074 0.098416385)
(0.11058806 0.01768281 0.090722364)
(0.11170536 0.010240964 0.081313988)
(0.11906025 0.0021499147 0.071609585)
(0.14962656 -0.0052429471 0.044811727)
(0.10587469 -0.0025090839 0.00033572102)
(0.1205281 -0.0025831501 0.00054161969)
(0.1337087 -0.002413895 0.00060862528)
(0.14445069 -0.0019798647 0.00057906216)
(0.15385894 -0.0013622841 0.00047721206)
(0.16243093 -0.00075329197 0.00030257374)
(0.1702011 -0.00026150173 1.7138845e-05)
(0.17715192 7.4042563e-05 -0.00039603051)
(0.1832886 0.00022688667 -0.00095095444)
(0.18860049 0.00014926655 -0.0016671746)
(0.19304133 -0.00024806433 -0.0025501618)
(0.19653712 -0.0011214806 -0.0035372502)
(0.19845407 -0.0027147911 -0.0043885496)
(0.19847472 -0.0058101657 -0.004644345)
(0.19819504 -0.0093278642 -0.0039871566)
(0.19813295 -0.012685251 -0.0029183986)
(0.1973956 -0.015917816 -0.002457234)
(0.1954912 -0.019236801 -0.0032740508)
(0.19261852 -0.022620719 -0.0052994955)
(0.18919782 -0.026061238 -0.0080378257)
(0.18569717 -0.029545516 -0.010966575)
(0.18257831 -0.032896513 -0.013647691)
(0.18009691 -0.035830899 -0.015763838)
(0.17823546 -0.038122142 -0.017150847)
(0.17688462 -0.039724701 -0.017710056)
(0.17608761 -0.040869494 -0.0172819)
(0.17636249 -0.041882116 -0.015806967)
(0.1791345 -0.042359482 -0.014355307)
(0.18606441 -0.03843607 -0.01633752)
(0.19605113 -0.021529889 -0.023133585)
(0.099851523 -0.0039618025 0.00033503986)
(0.10033749 -0.0047919501 0.00056397324)
(0.10205029 -0.0049253611 0.00065496817)
(0.10452557 -0.0046321263 0.00064318413)
(0.10749175 -0.0041184753 0.00054099621)
(0.11082592 -0.0036427336 0.00032992356)
(0.11441207 -0.0033482015 -2.8050904e-05)
(0.11815494 -0.0033037253 -0.00057514256)
(0.12200444 -0.0035930962 -0.0013623056)
(0.12595865 -0.0043481067 -0.0024693715)
(0.13007615 -0.0058341594 -0.0039561689)
(0.13453419 -0.008497631 -0.0058002575)
(0.13966862 -0.012960001 -0.0077454557)
(0.1454052 -0.019591698 -0.0091989491)
(0.1510686 -0.025454862 -0.010176936)
(0.15535178 -0.029079717 -0.01203208)
(0.15710417 -0.031281761 -0.015982445)
(0.15653829 -0.033206036 -0.021690466)
(0.15457178 -0.034838877 -0.028195447)
(0.15173738 -0.03635987 -0.034484752)
(0.14833157 -0.038124344 -0.039743822)
(0.14464915 -0.040118333 -0.043473627)
(0.14079434 -0.042024648 -0.045470586)
(0.13663314 -0.043595999 -0.045754639)
(0.13209985 -0.044956314 -0.044198702)
(0.12741128 -0.046946019 -0.040255499)
(0.12413462 -0.050618588 -0.033710309)
(0.12728093 -0.05568239 -0.027856469)
(0.14409722 -0.054745918 -0.034886235)
(0.19507694 -0.036822095 -0.057046922)
(0.099996489 -0.0029579732 0.00033973225)
(0.099868392 -0.0042849384 0.00057540766)
(0.099545792 -0.004714972 0.0006816004)
(0.099188231 -0.0048483707 0.00068981027)
(0.098938506 -0.0048806653 0.00060950106)
(0.098862357 -0.0048926129 0.00042047794)
(0.098950968 -0.0049556461 8.3331897e-05)
(0.099159966 -0.0051537926 -0.00045515724)
(0.099473177 -0.0056125016 -0.0012657213)
(0.099868787 -0.0065376482 -0.0024300375)
(0.10032817 -0.0083471274 -0.0040829573)
(0.10095229 -0.011804619 -0.0063367004)
(0.10206176 -0.018097761 -0.0090482653)
(0.10349671 -0.026750007 -0.011478008)
(0.10433307 -0.032556261 -0.013274863)
(0.10312559 -0.033402442 -0.015914757)
(0.098930126 -0.031815435 -0.020321164)
(0.094228838 -0.030988718 -0.023985527)
(0.090169334 -0.030786126 -0.028415837)
(0.085852119 -0.031611643 -0.033644584)
(0.080445551 -0.033678214 -0.0377608)
(0.074341935 -0.03646724 -0.039494506)
(0.06821932 -0.039221121 -0.038698826)
(0.062315872 -0.041638424 -0.035678624)
(0.057305721 -0.044028889 -0.029674802)
(0.054301286 -0.047602481 -0.019229132)
(0.05455431 -0.053782982 -0.0064609633)
(0.062307135 -0.063177598 -0.00058620192)
(0.074768066 -0.067834273 -0.026112471)
(0.10822664 -0.057638001 -0.074105056)
(0.097985411 -0.0015803154 0.00033100548)
(0.096437143 -0.0023485809 0.00055590349)
(0.093965545 -0.0025995301 0.00065278338)
(0.091027445 -0.0026657905 0.000652589)
(0.088127886 -0.0026527965 0.00056441187)
(0.085407057 -0.0025927508 0.00036680056)
(0.082836316 -0.0025254838 1.7730066e-05)
(0.080354976 -0.0025047433 -0.0005443735)
(0.07790843 -0.0026040508 -0.0014089933)
(0.075355561 -0.0029639501 -0.0027038395)
(0.072394307 -0.0038964562 -0.0047162934)
(0.068478466 -0.0061508262 -0.0079785127)
(0.062677313 -0.011498728 -0.013605435)
(0.052713711 -0.019762898 -0.022905514)
(0.037874366 -0.021910916 -0.03290165)
(0.023143958 -0.016137728 -0.036747504)
(0.013661499 -0.010380182 -0.025408911)
(0.023096913 -0.0066134941 0.014476623)
(0.025482023 0.0027861359 0.048003459)
(0.030409304 0.011726678 0.068594061)
(0.03739679 0.017540914 0.079793986)
(0.04449577 0.019943373 0.085120864)
(0.050350482 0.019523173 0.086675294)
(0.054010418 0.016774953 0.085298364)
(0.054499654 0.011830792 0.081111657)
(0.05161623 0.0040129034 0.073861555)
(0.046317426 -0.0070200148 0.062952457)
(0.042829934 -0.022225155 0.043703459)
(0.026816773 -0.029966122 -0.017353412)
(0.030537264 -0.0091794318 -0.10588319)
(0.10584304 -0.0025105262 0.0001649403)
(0.12041289 -0.0025802572 0.00028971505)
(0.13350157 -0.0023970528 0.00035012566)
(0.14417052 -0.0019332989 0.00034705991)
(0.15353293 -0.0012595339 0.00028549487)
(0.16210331 -0.0005540936 0.00016533754)
(0.16993467 8.3961574e-05 -9.9356222e-06)
(0.17703991 0.00063508909 -0.00024578041)
(0.18348672 0.0011012294 -0.00054618647)
(0.1893726 0.0014708244 -0.0008995976)
(0.19484223 0.0016927463 -0.0012478962)
(0.20015324 0.0016440441 -0.0014099198)
(0.20513978 0.0011921835 -0.00091985603)
(0.209837 0.00030719137 0.00094357697)
(0.21516179 0.00070119994 0.0042368027)
(0.22045773 0.0019623353 0.008237286)
(0.22458903 0.0030894583 0.012479007)
(0.22728514 0.0035820997 0.016912811)
(0.22896035 0.0032930745 0.021667446)
(0.22991094 0.0022027711 0.026858327)
(0.23029038 0.00044210546 0.032539202)
(0.23018002 -0.0017780674 0.038649292)
(0.22951837 -0.004283183 0.044917739)
(0.22822744 -0.0069560653 0.050829191)
(0.22649031 -0.0095423854 0.055725254)
(0.22473101 -0.011319635 0.05896349)
(0.22306778 -0.011004341 0.059930024)
(0.22031049 -0.0073239306 0.057667603)
(0.211319 0.0021756265 0.048421328)
(0.15292173 0.029954338 0.026743588)
(0.099820888 -0.0039635154 0.00016890394)
(0.10020496 -0.0047879835 0.00030851554)
(0.10178351 -0.0049010088 0.0003807432)
(0.10412795 -0.0045641748 0.00037987254)
(0.10696626 -0.0039698426 0.00030711199)
(0.11016072 -0.0033576855 0.00015514084)
(0.11358473 -0.0028545411 -9.100687e-05)
(0.11715051 -0.0025022915 -0.00046007569)
(0.12082829 -0.0023469986 -0.00098557539)
(0.12467217 -0.0025139014 -0.0016919548)
(0.12889049 -0.0033017947 -0.0025520419)
(0.13398093 -0.0052908674 -0.0033801881)
(0.14073239 -0.0090375084 -0.003620202)
(0.14927895 -0.012455321 -0.0023957437)
(0.15833416 -0.011307458 -0.00053013478)
(0.16555149 -0.0077943231 0.00045727762)
(0.17018965 -0.0050081783 -3.5219358e-05)
(0.17273079 -0.004151131 -0.0018373825)
(0.17379523 -0.0051133059 -0.0046590755)
(0.17376037 -0.0072651798 -0.0080464838)
(0.17296668 -0.0099780397 -0.011312897)
(0.17154275 -0.012733914 -0.013671304)
(0.16934135 -0.015276679 -0.014632654)
(0.16608636 -0.017789896 -0.014162699)
(0.16207458 -0.020464538 -0.012692665)
(0.15854161 -0.022515127 -0.011520418)
(0.15862798 -0.020776645 -0.01339966)
(0.16404212 -0.011073608 -0.020621452)
(0.17646265 0.010536847 -0.03349157)
(0.18124483 0.048019092 -0.05081838)
(0.099967019 -0.0029555787 0.00016982017)
(0.099740011 -0.0042798984 0.00031001942)
(0.099280302 -0.0047013382 0.00038567116)
(0.098778669 -0.0048168401 0.00038789481)
(0.098375476 -0.0048179938 0.00031334309)
(0.09811626 -0.0047788025 0.00014892909)
(0.097970817 -0.0047594665 -0.00012952957)
(0.097885235 -0.0048311467 -0.00056442605)
(0.097801609 -0.0051157384 -0.0012148981)
(0.097676103 -0.0058714717 -0.0021724957)
(0.097560415 -0.0076736976 -0.0035101065)
(0.097886465 -0.011724984 -0.0051826726)
(0.099407527 -0.019795621 -0.0066146067)
(0.10174407 -0.026354624 -0.0061383976)
(0.10548913 -0.023812395 -0.0037813837)
(0.10635645 -0.01804389 -0.0020611539)
(0.10211094 -0.01323521 -0.0032924942)
(0.095231953 -0.011069224 -0.0072766049)
(0.08746184 -0.012350378 -0.012930991)
(0.079774801 -0.015882233 -0.0187538)
(0.072110965 -0.020262918 -0.022918651)
(0.064373868 -0.024398603 -0.023822551)
(0.056797972 -0.027634537 -0.021185603)
(0.049311812 -0.030299864 -0.016082356)
(0.042965971 -0.033239295 -0.01071792)
(0.039228778 -0.036674825 -0.010305282)
(0.04460553 -0.035200391 -0.022777686)
(0.062703386 -0.023586383 -0.041530783)
(0.087473152 -0.0029213153 -0.062060233)
(0.098076492 0.030279487 -0.0858763)
(0.097956449 -0.0015820808 0.00016512479)
(0.096311693 -0.0023526332 0.00029876236)
(0.093705545 -0.0026035644 0.00036749374)
(0.090623415 -0.0026662106 0.00036205648)
(0.087565908 -0.0026448044 0.00027790828)
(0.08464834 -0.0025698459 9.967629e-05)
(0.081809858 -0.0024786304 -0.00020454105)
(0.078950548 -0.002424992 -0.00069272672)
(0.075910718 -0.0024971985 -0.0014659023)
(0.072383749 -0.0028852592 -0.0027192715)
(0.067765908 -0.0040772644 -0.004784439)
(0.060777175 -0.007459207 -0.0083398403)
(0.04971454 -0.016462523 -0.014946543)
(0.027979975 -0.022365889 -0.02591134)
(0.0013323196 -0.0097453316 -0.031647021)
(-0.020542872 0.002820701 -0.025814211)
(-0.034226067 0.004002102 -0.017469302)
(-0.037428135 0.0019787004 -0.0040219021)
(-0.02799693 0.00030206398 0.017775126)
(-0.019910788 0.0014409975 0.03407969)
(-0.011047624 0.0022311038 0.04351133)
(-0.003862756 0.0017348468 0.048206436)
(0.00073003546 -4.6917594e-05 0.049838398)
(0.0016736966 -0.0034069384 0.049473708)
(-0.001560603 -0.0099037193 0.046065512)
(-0.014221457 -0.020371469 0.027653487)
(-0.030725441 -0.023406962 -0.013499484)
(-0.034320401 -0.0045294151 -0.054988799)
(-0.022498826 0.01761577 -0.080097872)
(0.0033689218 0.047005894 -0.10744338)
(0.10582383 -0.002514364 2.2908749e-05)
(0.12034558 -0.0025878015 3.2774536e-05)
(0.13337521 -0.0024073607 2.0946247e-05)
(0.1439865 -0.0019447605 -1.3604348e-05)
(0.15329453 -0.0012699275 -6.9871946e-05)
(0.16181336 -0.00056194399 -0.00014867482)
(0.16958851 7.8226656e-05 -0.00025196789)
(0.17661734 0.00062533571 -0.00038530454)
(0.18296272 0.0010720583 -0.0005591007)
(0.18873509 0.0013859796 -0.00077986043)
(0.19413626 0.0014761038 -0.0010399163)
(0.19962358 0.0011733003 -0.0012937882)
(0.20539313 0.00053215249 -0.0013927196)
(0.21162392 0.00032301789 -0.0011246665)
(0.2182836 0.0012910112 -0.00057222391)
(0.2245598 0.002548975 2.9375049e-05)
(0.22969035 0.0038991503 0.00055435309)
(0.23421163 0.005629281 0.0011323166)
(0.23879024 0.0078064839 0.0019267116)
(0.24387406 0.010411592 0.0031260013)
(0.24958507 0.013445673 0.0050229872)
(0.25550733 0.016972396 0.0079609369)
(0.26072232 0.02087235 0.012178597)
(0.26418351 0.024869964 0.017599969)
(0.26502061 0.028736565 0.023714366)
(0.26234294 0.032593347 0.029568274)
(0.25450622 0.037095107 0.03381519)
(0.2384403 0.04320863 0.034884818)
(0.21043982 0.052875622 0.030406989)
(0.11674788 0.074366517 0.018411424)
(0.099801885 -0.0039679011 2.5257185e-05)
(0.10012911 -0.0047964628 4.0155408e-05)
(0.10162931 -0.0049114373 3.2515095e-05)
(0.10389111 -0.0045733886 -7.9122271e-07)
(0.10664368 -0.0039742067 -5.9883967e-05)
(0.10974653 -0.0033546104 -0.00014755557)
(0.1130614 -0.0028453349 -0.00026867699)
(0.11648141 -0.0024976086 -0.00043426753)
(0.11997819 -0.0023808522 -0.00066027177)
(0.12364291 -0.0026784091 -0.00096025488)
(0.12781018 -0.0038153349 -0.0013288553)
(0.13331222 -0.0065385241 -0.0017036193)
(0.14118015 -0.01075971 -0.0018975038)
(0.15148778 -0.010346805 -0.0014420309)
(0.16098352 -0.0062643528 -0.00089101395)
(0.16817235 -0.0022308223 -0.00088131651)
(0.17449745 0.00076264472 -0.0013501173)
(0.18082006 0.0031095597 -0.0020268541)
(0.1872607 0.0053266367 -0.0028396744)
(0.19455798 0.0080001264 -0.0037829205)
(0.20327855 0.011995656 -0.0045658012)
(0.21332866 0.018162446 -0.004580123)
(0.22389545 0.026721307 -0.0032888035)
(0.23394211 0.036977655 -0.00066217538)
(0.24239133 0.047994759 0.0029671617)
(0.24782021 0.059667487 0.0067608007)
(0.24735734 0.072599401 0.0093529144)
(0.23663276 0.086936594 0.0093901832)
(0.21368229 0.10428238 0.0049029747)
(0.13286088 0.13054193 -0.0076594174)
(0.099947803 -0.0029565127 2.4866068e-05)
(0.09966354 -0.0042827428 3.9194379e-05)
(0.099121303 -0.0047049167 3.1233339e-05)
(0.098526034 -0.0048193171 -3.2444537e-06)
(0.098017617 -0.0048177402 -6.6180664e-05)
(0.097635106 -0.0047738719 -0.00016274623)
(0.097329032 -0.0047539198 -0.00030175435)
(0.097007573 -0.0048389176 -0.00050063393)
(0.096578588 -0.0051825888 -0.0007907547)
(0.09597622 -0.006133807 -0.001216098)
(0.095329533 -0.0085056701 -0.0018310977)
(0.095629374 -0.014056448 -0.0026961063)
(0.097139327 -0.024881169 -0.0039318744)
(0.10185201 -0.023187454 -0.0040463999)
(0.10655383 -0.016509185 -0.0027454332)
(0.10591423 -0.010346727 -0.0028161762)
(0.10290878 -0.0048267198 -0.0040479885)
(0.097972371 -0.00027125721 -0.0061659931)
(0.093786538 0.0021814962 -0.0093179411)
(0.08982337 0.0022287578 -0.013298717)
(0.085361081 0.0011218276 -0.016733092)
(0.08460162 0.0011342251 -0.018200873)
(0.091196846 0.0045700214 -0.016840766)
(0.10702132 0.012700327 -0.013192072)
(0.12814302 0.025261545 -0.0082725099)
(0.14864507 0.040944094 -0.0038259671)
(0.16382889 0.057796813 -0.0019497365)
(0.16803809 0.076393563 -0.0039189916)
(0.16177097 0.099887748 -0.010275732)
(0.10907743 0.1337357 -0.021156825)
(0.097937244 -0.0015822467 2.3851274e-05)
(0.096235301 -0.0023531347 3.6610046e-05)
(0.093545655 -0.0026038863 2.6660325e-05)
(0.090366085 -0.0026657864 -1.0612573e-05)
(0.087196262 -0.0026433395 -7.794431e-05)
(0.084138286 -0.0025665654 -0.00018171363)
(0.081100388 -0.0024769534 -0.00033508884)
(0.077920362 -0.0024344819 -0.00056225035)
(0.074339251 -0.0025490901 -0.00091495)
(0.0698587 -0.0030824391 -0.0014871862)
(0.063429028 -0.0047634177 -0.0024702054)
(0.052663747 -0.0098830235 -0.0043606803)
(0.035355529 -0.023697931 -0.0088595563)
(-0.01073638 -0.01044552 -0.019195869)
(-0.038418091 0.0046404788 -0.016399989)
(-0.05764587 0.0067030031 -0.011479918)
(-0.071415726 0.0061403632 -0.0067499757)
(-0.078245639 0.0029035589 -0.00075499251)
(-0.078481312 -0.0018604218 0.006485651)
(-0.072409641 -0.0064930128 0.013836745)
(-0.063763217 -0.010550329 0.018910967)
(-0.055407525 -0.014163611 0.022423551)
(-0.047199763 -0.016600336 0.024923115)
(-0.037763895 -0.016286741 0.026352003)
(-0.022900759 -0.010582099 0.02526962)
(-0.0023677726 0.0054283001 0.01762063)
(0.026685293 0.033771809 0.0091459302)
(0.032810175 0.052252833 -0.00043385109)
(0.042505972 0.077483246 -0.01476302)
(0.052193699 0.11259777 -0.028558298)
(0.10582211 -0.0025140596 -7.9579242e-05)
(0.1203397 -0.0025877469 -0.00014655735)
(0.13336396 -0.0024075909 -0.00019362652)
(0.14396904 -0.0019452659 -0.00022151173)
(0.15326974 -0.0012708069 -0.00023334715)
(0.16177746 -0.00056338832 -0.00023117856)
(0.16953864 7.5846162e-05 -0.00021631149)
(0.17655296 0.00062316661 -0.00018535714)
(0.18288352 0.0010749993 -0.00013546118)
(0.18864113 0.001403019 -7.3507401e-05)
(0.19401096 0.0015220568 -2.5523983e-05)
(0.1993934 0.0012703557 -8.2088474e-05)
(0.20486219 0.00061699607 -0.00050268905)
(0.21057255 0.00016627776 -0.0016449767)
(0.2168194 0.0010334181 -0.0032814746)
(0.22270614 0.0023239453 -0.0049178251)
(0.22735553 0.0035525588 -0.0064944625)
(0.230942 0.0049220346 -0.008372725)
(0.23420817 0.0064526877 -0.01096415)
(0.23782735 0.0078446812 -0.014540972)
(0.2423032 0.0090379383 -0.019242372)
(0.24761806 0.010392952 -0.02506184)
(0.25300072 0.012266637 -0.031809459)
(0.25723807 0.01450517 -0.039104555)
(0.25921371 0.016925949 -0.046309166)
(0.2579505 0.019655869 -0.052376095)
(0.25202805 0.023322829 -0.055748525)
(0.23872705 0.029402284 -0.054469419)
(0.21451916 0.040397672 -0.046164669)
(0.12902642 0.06486623 -0.028450808)
(0.099801373 -0.0039675779 -7.5564206e-05)
(0.10012667 -0.0047964551 -0.00014039802)
(0.10162345 -0.0049118005 -0.00018145952)
(0.1038807 -0.0045740215 -0.00019644135)
(0.10662761 -0.0039749861 -0.00018604317)
(0.10972072 -0.003355456 -0.00014897998)
(0.11302354 -0.0028456307 -8.2847911e-05)
(0.11643244 -0.0024929238 1.951078e-05)
(0.11991356 -0.0023598702 0.00016398427)
(0.12354475 -0.0026185234 0.00034840051)
(0.12762733 -0.0036722897 0.00053317211)
(0.13291021 -0.0062627034 0.00057591558)
(0.14043732 -0.010672229 0.00011643152)
(0.1501366 -0.011491566 -0.0013649418)
(0.15951807 -0.0077055007 -0.0027057985)
(0.16649994 -0.0034534058 -0.0030298366)
(0.17192609 -0.00056313577 -0.0026755987)
(0.17693155 0.0010259737 -0.0022560592)
(0.18177178 0.0015372373 -0.0020385567)
(0.1861563 0.0014988153 -0.0019774488)
(0.1905805 0.0016148664 -0.0020119951)
(0.19607773 0.0029565978 -0.002432585)
(0.203996 0.0069718204 -0.0038558634)
(0.21475691 0.014498876 -0.0067049421)
(0.22458589 0.024375965 -0.010453936)
(0.23227393 0.035534569 -0.014207333)
(0.2355841 0.048081637 -0.016123936)
(0.23098518 0.063006292 -0.013800585)
(0.21639739 0.082752408 -0.0045895765)
(0.1567852 0.11373262 0.013463618)
(0.099947299 -0.0029565406 -7.4944111e-05)
(0.099661255 -0.0042829012 -0.00013852967)
(0.099115927 -0.004705234 -0.00017865326)
(0.098516565 -0.004819653 -0.00019134039)
(0.098003037 -0.004817826 -0.00017467782)
(0.097611908 -0.0047737512 -0.00012391151)
(0.097297858 -0.0047513983 -3.1500904e-05)
(0.096974984 -0.0048270935 0.00011759889)
(0.096547665 -0.005147783 0.00034752378)
(0.095941518 -0.0060418738 0.00068956298)
(0.095234394 -0.0082727709 0.0011672255)
(0.095178929 -0.013515922 0.0017362508)
(0.096539585 -0.024111988 0.0021367726)
(0.098809839 -0.025351488 0.00071360359)
(0.10342682 -0.018644617 -0.0016575243)
(0.10217858 -0.01197772 -0.0013211981)
(0.098692933 -0.006251337 0.00061374609)
(0.09174551 -0.0019026029 0.003304949)
(0.083992987 -0.00055090795 0.0064344605)
(0.073835684 -0.0027122353 0.010424865)
(0.061455257 -0.0073718084 0.014736928)
(0.048754767 -0.01205396 0.017602756)
(0.039303436 -0.014280997 0.01765655)
(0.040586316 -0.012572927 0.01565356)
(0.061915208 -0.0046682151 0.013631171)
(0.09481676 0.010064437 0.0135782)
(0.12305131 0.027491906 0.015064991)
(0.13969578 0.04779863 0.020672342)
(0.14750176 0.073939391 0.031636886)
(0.12642843 0.11036332 0.046625186)
(0.097936756 -0.0015823125 -7.2797789e-05)
(0.09623302 -0.0023532646 -0.00013343853)
(0.093540273 -0.0026040938 -0.00017023318)
(0.090356647 -0.0026660097 -0.0001786723)
(0.087181332 -0.0026434578 -0.00015567205)
(0.084115704 -0.0025668695 -9.461642e-05)
(0.081076328 -0.0024760981 1.7543209e-05)
(0.077910705 -0.0024280019 0.00020457211)
(0.07436778 -0.0025273438 0.00051980273)
(0.069979198 -0.0030158184 0.0010660783)
(0.063755621 -0.0045544889 0.0020585191)
(0.0534392 -0.0091902225 0.0040253019)
(0.037266253 -0.021878567 0.0085342926)
(-0.0061430621 -0.016718902 0.017139622)
(-0.042634281 0.0031762359 0.015154966)
(-0.062617518 0.0064256458 0.014104)
(-0.078265153 0.0066403202 0.013620646)
(-0.085720164 0.003870175 0.011526507)
(-0.087350243 -0.00078878151 0.0078564397)
(-0.078998765 -0.0058931056 0.0024531675)
(-0.068883125 -0.010222485 -0.0017472903)
(-0.059096332 -0.014117912 -0.0039919688)
(-0.050753638 -0.018483409 -0.0046714855)
(-0.043582917 -0.023051331 -0.0042310117)
(-0.036541006 -0.024154703 -0.0021547036)
(-0.0317764 -0.016831522 0.0061500728)
(-0.0090038506 0.0078512754 0.024119654)
(0.0085761564 0.033656318 0.041377687)
(0.027935014 0.059626577 0.057977944)
(0.062508772 0.091841939 0.071027177)
(0.10583724 -0.0025100707 -0.00021598055)
(0.12039305 -0.0025810076 -0.00039266537)
(0.13346329 -0.0023992222 -0.00050679318)
(0.14410966 -0.0019370656 -0.00056084577)
(0.15344426 -0.0012653178 -0.0005620905)
(0.16198258 -0.00056249624 -0.00051285593)
(0.16977828 7.259004e-05 -0.00041393871)
(0.17683654 0.00061827426 -0.00027524482)
(0.18321221 0.0010748335 -9.632413e-05)
(0.18899656 0.0014371364 0.00010952826)
(0.19432473 0.0016608186 0.00027559204)
(0.19940597 0.0016283973 0.0002207146)