/*--------------------------------*- C++ -*----------------------------------*\
| =========                 |                                                 |
| \\      /  F ield         | OpenFOAM: The Open Source CFD Toolbox           |
|  \\    /   O peration     | Version:  v2012                                 |
|   \\  /    A nd           | Website:  www.openfoam.com                      |
|    \\/     M anipulation  |                                                 |
\*---------------------------------------------------------------------------*/
FoamFile
{
    version     2.0;
    format      ascii;
    class       volScalarField;
    location    "600/rightSolid";
    object      T;
}
// * * * * * * * * * * * * * * * * * * * * * * * * * * * * * * * * * * * * * //

dimensions      [0 0 0 1 0 0 0];


internalField   nonuniform List<scalar> 
130
(
752.94526
761.02891
769.4677
777.83189
785.76727
793.04584
799.53047
805.14229
809.83485
813.58918
816.39781
818.26439
819.19986
747.08036
756.50056
766.11083
775.41151
784.05592
791.85117
798.70241
804.5676
809.43409
813.30648
816.19467
818.11887
819.08331
735.35208
747.83636
759.95253
771.12783
781.12087
789.85932
797.35781
803.66133
808.82251
812.89441
815.9179
817.92154
818.92072
717.85145
736.11858
752.27443
766.1337
777.87748
787.75131
795.98941
802.77626
808.25737
812.5362
815.68906
817.76749
818.80156
697.15389
725.02002
745.9977
762.4323
775.62992
786.36368
795.12561
802.24128
807.93254
812.34147
815.57249
817.69464
818.74901
697.24912
725.13173
746.10444
762.52618
775.70961
786.43331
795.18467
802.28764
807.96398
812.36642
815.59366
817.71454
818.76815
718.06851
736.35862
752.50185
766.33442
778.05125
787.90672
796.12404
802.89075
808.34905
812.60859
815.75098
817.82529
818.85826
735.66722
748.14171
760.22739
771.37016
781.33317
790.04607
797.52299
803.8055
808.94728
813.00321
816.0184
818.01922
819.01846
747.4457
756.83189
766.38988
775.63543
784.24235
792.01411
798.84887
804.69276
809.54132
813.4055
816.29949
818.2282
819.19286
753.30161
761.34741
769.72788
778.0222
785.9115
793.1653
799.63525
805.23293
809.91266
813.66145
816.47888
818.36195
819.30595
)
;

boundaryField
{
    maxX
    {
        type            zeroGradient;
    }
    minZ
    {
        type            zeroGradient;
    }
    maxZ
    {
        type            zeroGradient;
    }
    rightSolid_to_bottomWater
    {
        type            compressible::turbulentTemperatureCoupledBaffleMixed;
        refValue        nonuniform List<scalar> 
130
(
928.20921
929.47663
930.14201
933.47479
934.1632
933.5266
932.59519
932.22004
931.42137
930.90106
929.97092
928.18584
928.01648
925.37361
926.76892
928.10895
931.46514
932.33645
931.78499
931.19628
930.67581
930.03397
929.46163
927.93535
928.36353
929.16775
923.55426
925.26143
928.00022
928.84419
929.69506
929.52322
929.24743
928.91698
928.05024
927.86027
928.36706
928.97903
929.08078
922.32142
920.9539
922.42596
924.53636
926.38029
926.15652
926.47268
926.47411
927.2291
927.84515
928.35966
928.7323
928.96568
912.06319
916.21191
918.7479
920.85723
922.92948
923.70302
924.16997
924.98527
927.2505
927.98512
928.40279
928.54907
928.95743
917.8781
922.90163
923.78629
924.34913
924.79375
925.5344
925.86171
926.00727
926.45899
928.06634
928.65497
929.09469
929.49602
926.54909
927.1893
926.77503
926.82198
926.99785
927.89982
927.65099
927.8461
927.74705
927.65297
928.5379
929.22419
929.68621
928.23649
928.36973
929.23358
930.14092
930.68193
930.24971
930.27794
930.17627
929.61684
929.3219
929.88861
930.64318
931.14189
930.16836
929.46515
928.61789
929.69095
930.75681
930.97111
932.05787
930.83899
929.78657
929.21172
929.76646
930.34153
930.3904
930.45834
930.36631
929.72025
929.08261
929.58039
929.93857
930.3065
930.56187
929.84282
928.96965
928.76323
929.01467
929.28202
)
;
        refGradient     uniform 0;
        valueFraction   nonuniform List<scalar> 
130
(
0.0075140686
0.0075140686
0.0075140686
0.0075140686
0.0075140686
0.0075140686
0.0075140686
0.0075140686
0.0075140686
0.0075140686
0.0075140686
0.0075140686
0.0075140686
0.0075140686
0.0075140686
0.0075140686
0.0075140686
0.0075140686
0.0075140686
0.0075140686
0.0075140686
0.0075140686
0.0075140686
0.0075140686
0.0075140686
0.0075140686
0.0075140686
0.0075140686
0.0075140686
0.0075140686
0.0075140686
0.0075140686
0.0075140686
0.0075140686
0.0075140686
0.0075140686
0.0075140686
0.0075140686
0.0075140686
0.0075140686
0.0075140686
0.0075140686
0.0075140686
0.0075140686
0.0075140686
0.0075140686
0.0075140686
0.0075140686
0.0075140686
0.0075140686
0.0075140686
0.0075140686
0.0075140686
0.0075140686
0.0075140686
0.0075140686
0.0075140686
0.0075140686
0.0075140686
0.0075140686
0.0075140686
0.0075140686
0.0075140686
0.0075140686
0.0075140686
0.0075140686
0.0075140686
0.0075140686
0.0075140686
0.0075140686
0.0075140686
0.0075140686
0.0075140686
0.0075140686
0.0075140686
0.0075140686
0.0075140686
0.0075140686
0.0075140686
0.0075140686
0.0075140686
0.0075140686
0.0075140686
0.0075140686
0.0075140686
0.0075140686
0.0075140686
0.0075140686
0.0075140686
0.0075140686
0.0075140686
0.0075140686
0.0075140686
0.0075140686
0.0075140686
0.0075140686
0.0075140686
0.0075140686
0.0075140686
0.0075140686
0.0075140686
0.0075140686
0.0075140686
0.0075140686
0.0075140686
0.0075140686
0.0075140686
0.0075140686
0.0075140686
0.0075140686
0.0075140686
0.0075140686
0.0075140686
0.0075140686
0.0075140686
0.0075140686
0.0075140686
0.0075140686
0.0075140686
0.0075140686
0.0075140686
0.0075140686
0.0075140686
0.0075140686
0.0075140686
0.0075140686
0.0075140686
0.0075140686
0.0075140686
0.0075140686
)
;
        value           nonuniform List<scalar> 
130
(
754.26235
762.29478
770.67513
779.0015
786.88238
794.10144
800.53032
806.09715
810.74845
814.47068
817.25121
819.09036
820.01752
748.42016
757.78007
767.32819
776.58418
785.17015
792.90266
799.69797
805.51517
810.34028
814.17928
817.0343
818.94727
819.91049
736.76631
749.16962
761.21531
772.31296
782.23728
790.90877
798.34884
804.60251
809.7184
813.75828
816.76286
818.75604
819.74848
719.38791
737.50752
753.55302
767.32399
778.99336
788.79132
796.96989
803.70575
809.15134
813.40265
816.53568
818.60129
819.62934
698.76876
726.45669
747.29579
763.62275
776.73677
787.3957
796.09532
803.16363
808.82913
813.21043
816.42029
818.52759
819.57711
698.90693
726.6178
747.43957
763.74218
776.82992
787.47862
796.16668
803.21735
808.85441
813.2358
816.44319
818.55143
819.60013
719.63512
737.79261
753.81144
767.54043
779.17055
788.95874
797.11243
803.82975
809.24626
813.47306
816.59845
818.6623
819.69097
737.11433
749.49609
761.49745
772.5633
782.45551
791.09967
798.5206
804.75511
809.85402
813.87723
816.874
818.86544
819.86092
748.81886
758.12925
767.60904
776.79315
785.34338
793.05833
799.84986
805.64064
810.44484
814.27566
817.15206
819.0706
820.02838
754.63297
762.61763
770.93026
779.15743
786.99116
794.19311
800.61716
806.17466
810.8138
814.52785
817.32256
819.19338
820.1323
)
;
        Tnbr            T;
        thicknessLayers List<scalar> 0();
        kappaLayers     List<scalar> 0();
        kappaMethod     solidThermo;
        kappa           none;
        alphaAni        none;
        alpha           none;
        field           T;
    }
    rightSolid_to_topAir
    {
        type            compressible::turbulentTemperatureCoupledBaffleMixed;
        refValue        nonuniform List<scalar> 
130
(
494.91912
487.6446
481.32968
476.24936
472.45062
469.86281
468.37593
467.88908
468.3511
469.80244
472.44503
476.80712
483.78212
437.78108
432.15178
428.74492
426.83076
425.89537
425.66144
426.01691
426.93851
428.48212
430.80042
434.26415
439.87048
449.74732
448.90875
440.1552
432.57481
426.15515
420.93331
417.03518
414.60642
413.72224
414.33455
416.33399
419.71693
425.28475
434.79747
503.1337
503.72432
503.08377
500.89549
497.27345
492.57135
487.18788
481.64736
476.88965
474.50779
476.47437
483.52446
494.19291
507.83733
511.79263
515.92999
519.87208
523.25905
525.78582
527.25352
527.65075
527.27609
526.85785
527.57004
530.90761
538.52647
508.26159
512.01597
515.87686
519.41277
522.23123
524.04498
524.71976
524.32466
523.24826
522.27469
522.59981
525.70926
533.204
502.49622
502.71029
501.33308
498.07284
493.28131
487.64844
481.73077
475.9832
471.33743
469.05768
470.98999
478.59945
489.57231
448.25688
439.6806
432.1901
425.82936
420.73975
417.13883
415.17324
414.8145
415.87546
418.11052
421.45054
426.7514
435.72211
437.24874
431.7977
428.47939
426.57855
425.62821
425.41781
425.88679
427.01591
428.82279
431.38806
434.99602
440.57322
450.39909
494.60866
487.32573
481.00128
475.90177
472.08146
469.48944
468.03673
467.63034
468.20932
469.78719
472.5258
476.90817
483.81176
)
;
        refGradient     uniform 0;
        valueFraction   nonuniform List<scalar> 
130
(
0.00032132529
0.00032132529
0.00032132529
0.00032132529
0.00032132529
0.00032132529
0.00032132529
0.00032132529
0.00032132529
0.00032132529
0.00032132529
0.00032132529
0.00032132529
0.00032132529
0.00032132529
0.00032132529
0.00032132529
0.00032132529
0.00032132529
0.00032132529
0.00032132529
0.00032132529
0.00032132529
0.00032132529
0.00032132529
0.00032132529
0.00032132529
0.00032132529
0.00032132529
0.00032132529
0.00032132529
0.00032132529
0.00032132529
0.00032132529
0.00032132529
0.00032132529
0.00032132529
0.00032132529
0.00032132529
0.00032132529
0.00032132529
0.00032132529
0.00032132529
0.00032132529
0.00032132529
0.00032132529
0.00032132529
0.00032132529
0.00032132529
0.00032132529
0.00032132529
0.00032132529
0.00032132529
0.00032132529
0.00032132529
0.00032132529
0.00032132529
0.00032132529
0.00032132529
0.00032132529
0.00032132529
0.00032132529
0.00032132529
0.00032132529
0.00032132529
0.00032132529
0.00032132529
0.00032132529
0.00032132529
0.00032132529
0.00032132529
0.00032132529
0.00032132529
0.00032132529
0.00032132529
0.00032132529
0.00032132529
0.00032132529
0.00032132529
0.00032132529
0.00032132529
0.00032132529
0.00032132529
0.00032132529
0.00032132529
0.00032132529
0.00032132529
0.00032132529
0.00032132529
0.00032132529
0.00032132529
0.00032132529
0.00032132529
0.00032132529
0.00032132529
0.00032132529
0.00032132529
0.00032132529
0.00032132529
0.00032132529
0.00032132529
0.00032132529
0.00032132529
0.00032132529
0.00032132529
0.00032132529
0.00032132529
0.00032132529
0.00032132529
0.00032132529
0.00032132529
0.00032132529
0.00032132529
0.00032132529
0.00032132529
0.00032132529
0.00032132529
0.00032132529
0.00032132529
0.00032132529
0.00032132529
0.00032132529
0.00032132529
0.00032132529
0.00032132529
0.00032132529
0.00032132529
0.00032132529
0.00032132529
0.00032132529
)
;
        value           nonuniform List<scalar> 
130
(
752.86249
760.94121
769.37523
777.73508
785.66665
792.94201
799.42406
805.03391
809.72512
813.47872
816.28729
818.15468
819.09209
746.98107
756.39644
766.00252
775.29958
783.94087
791.73352
798.58265
804.44624
809.31167
813.18357
816.07195
817.99734
818.96464
735.26011
747.73757
759.84739
771.01702
781.00515
789.73953
797.23482
803.53603
808.69575
812.76699
815.7906
817.79539
818.7973
717.78252
736.04398
752.19442
766.04851
777.78733
787.65648
795.8902
802.67309
808.1509
812.42759
815.58006
817.66009
818.69726
697.09309
724.95154
745.92381
762.3544
775.54885
786.28
795.0396
802.15309
807.84239
812.24974
815.47994
817.60247
818.65895
697.18839
725.06326
746.03048
762.44811
775.62824
786.34909
795.09785
802.1984
807.87254
812.27321
815.49949
817.62068
818.67635
717.99931
736.28362
752.42123
766.24832
777.95986
787.81034
796.02311
802.78579
808.24081
812.49822
815.64018
817.71624
818.7524
735.575
748.04273
760.12212
771.25926
781.21742
789.92635
797.40021
803.68056
808.821
812.87631
815.89158
817.89345
818.89526
747.34619
756.72763
766.28147
775.52341
784.12723
791.8964
798.72907
804.57141
809.41897
813.28273
816.17694
818.10683
819.07434
753.21868
761.25956
769.63529
777.92528
785.81078
793.06138
799.52874
805.12445
809.80284
813.55092
816.36833
818.25221
819.19813
)
;
        Tnbr            T;
        thicknessLayers List<scalar> 0();
        kappaLayers     List<scalar> 0();
        kappaMethod     solidThermo;
        kappa           none;
        alphaAni        none;
        alpha           none;
        field           T;
    }
    rightSolid_to_heater
    {
        type            compressible::turbulentTemperatureCoupledBaffleMixed;
        refValue        nonuniform List<scalar> 10(745.73256 738.52873 723.58722 698.95813 657.88438 657.9383 699.11931 723.87886 738.89759 746.09605);
        refGradient     uniform 0;
        valueFraction   nonuniform List<scalar> 10(0.50000003 0.50000003 0.50000003 0.50000003 0.50000003 0.50000003 0.50000003 0.50000003 0.50000003 0.50000003);
        value           nonuniform List<scalar> 10(749.33898 742.80459 729.46968 708.40482 677.51915 677.5937 708.59394 729.7731 743.17173 749.69893);
        Tnbr            T;
        thicknessLayers List<scalar> 0();
        kappaLayers     List<scalar> 0();
        kappaMethod     solidThermo;
        kappa           none;
        alphaAni        none;
        alpha           none;
        field           T;
    }
}


// ************************************************************************* //
