/*--------------------------------*- C++ -*----------------------------------*\
| =========                 |                                                 |
| \\      /  F ield         | OpenFOAM: The Open Source CFD Toolbox           |
|  \\    /   O peration     | Version:  v2012                                 |
|   \\  /    A nd           | Website:  www.openfoam.com                      |
|    \\/     M anipulation  |                                                 |
\*---------------------------------------------------------------------------*/
FoamFile
{
    version     2.0;
    format      ascii;
    class       surfaceScalarField;
    location    "700/topAir";
    object      phi;
}
// * * * * * * * * * * * * * * * * * * * * * * * * * * * * * * * * * * * * * //

dimensions      [1 0 -1 0 0 0 0];
oriented        oriented;


internalField   nonuniform List<scalar> 
3140
(
9.5049987e-06
-3.0849861e-07
7.2475596e-08
9.6916066e-06
-2.6905189e-07
8.2457785e-08
9.8686095e-06
-2.4843898e-07
7.1469118e-08
1.0010362e-05
-1.9534411e-07
5.3643433e-08
1.0111076e-05
-1.3099558e-07
3.0348895e-08
1.0180814e-05
-7.2055545e-08
2.3979265e-09
1.0254882e-05
-2.4953982e-08
-4.9016457e-08
1.0354761e-05
1.7997605e-08
-1.1777339e-07
1.0490881e-05
8.197004e-08
-2.1797475e-07
1.0686617e-05
1.665217e-07
-3.6212353e-07
1.093702e-05
3.1575282e-07
-5.659928e-07
1.1211853e-05
5.6830253e-07
-8.429377e-07
1.1454512e-05
9.5377678e-07
-1.1962073e-06
1.1677177e-05
1.4032664e-06
-1.6257431e-06
1.1848342e-05
1.9048719e-06
-2.0758347e-06
1.1949426e-05
2.3930342e-06
-2.4938473e-06
1.1966677e-05
2.8236163e-06
-2.8404662e-06
1.1902004e-05
3.1683192e-06
-3.1030656e-06
1.1781618e-05
3.4083896e-06
-3.2872244e-06
1.164823e-05
3.5384249e-06
-3.4040648e-06
1.1540813e-05
3.57253e-06
-3.4639626e-06
1.1481173e-05
3.5363007e-06
-3.4753327e-06
1.1472675e-05
3.4545265e-06
-3.4444955e-06
1.1504706e-05
3.3461623e-06
-3.376397e-06
1.1555688e-05
3.2248412e-06
-3.2736911e-06
1.1584351e-05
3.1062916e-06
-3.1324406e-06
1.1506141e-05
3.0190204e-06
-2.9379003e-06
1.1149933e-05
3.0218505e-06
-2.6623173e-06
1.0165032e-05
3.248669e-06
-2.2598527e-06
4.0263965e-06
-1.6703596e-06
9.1112995e-06
-2.3065381e-07
7.9820748e-08
9.0829665e-06
-3.447142e-07
1.0399175e-07
9.0874353e-06
-3.6307333e-07
1.10164e-07
9.1381372e-06
-3.5759571e-07
1.1155062e-07
9.2335884e-06
-3.3407003e-07
1.0762637e-07
9.368145e-06
-3.0279167e-07
9.6185123e-08
9.5454157e-06
-2.771364e-07
7.4922671e-08
9.782751e-06
-2.6029846e-07
4.105434e-08
1.0105247e-05
-2.3071389e-07
-9.6244447e-09
1.0546688e-05
-1.7121514e-07
-1.0352043e-07
1.1132565e-05
-2.9177606e-08
-2.4106046e-07
1.1848238e-05
2.9169673e-07
-4.3969848e-07
1.2588886e-05
9.2413187e-07
-7.1218578e-07
1.3233771e-05
1.7870064e-06
-1.0300915e-06
1.3711337e-05
2.7572667e-06
-1.331276e-06
1.3961589e-05
3.6960157e-06
-1.5540337e-06
1.3977317e-05
4.4920849e-06
-1.684296e-06
1.3806474e-05
5.1066001e-06
-1.766834e-06
1.3533574e-05
5.5299765e-06
-1.8474956e-06
1.3248895e-05
5.7696554e-06
-1.9449018e-06
1.3010159e-05
5.8521783e-06
-2.0388706e-06
1.2837e-05
5.8156248e-06
-2.1037288e-06
1.2725502e-05
5.6936894e-06
-2.1247807e-06
1.2659491e-05
5.5105599e-06
-2.095001e-06
1.2616907e-05
5.2779404e-06
-2.0066065e-06
1.2558331e-05
5.011504e-06
-1.8422686e-06
1.240292e-05
4.7514764e-06
-1.5723628e-06
1.1999038e-05
4.590825e-06
-1.1602407e-06
1.1103466e-05
4.7176738e-06
-5.6823801e-07
5.3500207e-06
2.8451312e-07
9.1672776e-06
-2.108701e-07
8.1895235e-08
8.9951305e-06
-2.8077538e-07
1.082036e-07
8.8086594e-06
-2.9419615e-07
1.1758926e-07
8.6202518e-06
-2.9358552e-07
1.243929e-07
8.4423856e-06
-2.8591204e-07
1.2970381e-07
8.2802691e-06
-2.7371046e-07
1.3303122e-07
8.1306208e-06
-2.6260955e-07
1.3511788e-07
7.9907689e-06
-2.5862878e-07
1.3818073e-07
7.8793205e-06
-2.6458605e-07
1.4532135e-07
7.841072e-06
-2.8865206e-07
1.5568271e-07
7.9991375e-06
-3.4694903e-07
1.596667e-07
8.5258252e-06
-3.6854616e-07
1.3299564e-07
9.4622204e-06
-6.8473838e-08
5.4451328e-08
1.0676097e-05
6.0612907e-07
-3.5541071e-08
1.1741584e-05
1.752251e-06
-6.3293048e-08
1.2519734e-05
2.8721262e-06
4.2987389e-08
1.2920971e-05
3.7196748e-06
3.6906191e-07
1.3017603e-05
4.3255503e-06
6.8313832e-07
1.29357e-05
4.7258597e-06
8.854982e-07
1.2801696e-05
4.9479825e-06
9.5570755e-07
1.2687288e-05
5.0130268e-06
9.5393166e-07
1.2603847e-05
4.9445774e-06
9.5504749e-07
1.25384e-05
4.7779691e-06
9.8183892e-07
1.2462946e-05
4.5453082e-06
1.04147e-06
1.2362955e-05
4.2736056e-06
1.1052057e-06
1.2224099e-05
3.9835571e-06
1.1678427e-06
1.2017837e-05
3.7083884e-06
1.2506208e-06
1.1704036e-05
3.5218325e-06
1.384468e-06
1.1184239e-05
3.5997372e-06
1.6403136e-06
4.3042762e-06
2.0598362e-06
8.9780817e-06
7.9996375e-08
8.5922341e-06
1.0506738e-07
8.1847197e-06
1.1331343e-07
7.7727027e-06
1.1842665e-07
7.3649393e-06
1.2184662e-07
6.9676989e-06
1.2352526e-07
6.5804551e-06
1.2462955e-07
6.1944136e-06
1.2740839e-07
5.7942169e-06
1.3560651e-07
5.3508125e-06
1.5474845e-07
4.808114e-06
1.9574388e-07
4.159771e-06
2.7976908e-07
3.6612245e-06
4.2996736e-07
3.6294085e-06
6.368494e-07
4.3987569e-06
9.8127929e-07
5.6102014e-06
1.6592095e-06
6.6343589e-06
2.6945033e-06
7.4309569e-06
3.5286058e-06
8.0801179e-06
4.0770021e-06
8.6510112e-06
4.3778505e-06
9.1630369e-06
4.5020002e-06
9.6110065e-06
4.4976907e-06
9.9682472e-06
4.4218195e-06
1.0213659e-05
4.3009794e-06
1.0340803e-05
4.1475518e-06
1.0368083e-05
3.9574217e-06
1.0331378e-05
3.7463739e-06
1.0337736e-05
3.5170517e-06
1.0669152e-05
3.2705642e-06
2.8874659e-06
9.6169241e-06
-3.0823707e-07
3.2763858e-08
9.9188737e-06
-2.7027017e-07
5.078893e-08
1.0199286e-05
-2.6240793e-07
5.3490708e-08
1.0431643e-05
-2.2697955e-07
4.8308026e-08
1.0609441e-05
-1.8481489e-07
3.7422494e-08
1.0745236e-05
-1.5288551e-07
1.955726e-08
1.0843068e-05
-1.3910485e-07
-7.6675108e-09
1.0911621e-05
-1.4709611e-07
-3.9155267e-08
1.0961095e-05
-1.8261084e-07
-8.4763242e-08
1.1000101e-05
-2.5274948e-07
-1.4829935e-07
1.1038572e-05
-3.6879168e-07
-2.3559268e-07
1.1089091e-05
-5.4205386e-07
-3.5136698e-07
1.1172371e-05
-7.8436823e-07
-4.952399e-07
1.1373193e-05
-1.1627332e-06
-6.6430305e-07
1.1683492e-05
-1.561e-06
-8.2588877e-07
1.2048866e-05
-1.8912866e-06
-9.6877069e-07
1.2371052e-05
-2.0546294e-06
-1.1087024e-06
1.2577708e-05
-2.0447076e-06
-1.2653806e-06
1.2657857e-05
-1.9286671e-06
-1.4387445e-06
1.2653359e-05
-1.7880993e-06
-1.6112733e-06
1.2617108e-05
-1.6670715e-06
-1.7603078e-06
1.2586549e-05
-1.5700556e-06
-1.8742708e-06
1.2576172e-05
-1.4887394e-06
-1.9447416e-06
1.258688e-05
-1.4169424e-06
-1.9692019e-06
1.2621083e-05
-1.3558606e-06
-1.9505966e-06
1.2679453e-05
-1.2992246e-06
-1.8896234e-06
1.2744862e-05
-1.2245109e-06
-1.7763751e-06
1.2756571e-05
-1.0695931e-06
-1.6015957e-06
1.2579942e-05
-6.916805e-07
-1.387871e-06
3.7046678e-07
-1.1465413e-06
9.2361537e-06
-2.3221001e-07
3.6605008e-08
9.3549259e-06
-3.4881056e-07
6.375612e-08
9.499833e-06
-3.7245593e-07
7.5302957e-08
9.6841084e-06
-3.7772713e-07
7.8022966e-08
9.903606e-06
-3.7128833e-07
7.4604796e-08
1.0146107e-05
-3.6308993e-07
6.3893745e-08
1.0403322e-05
-3.6496171e-07
4.3571055e-08
1.0673349e-05
-3.8720783e-07
1.1150848e-08
1.0962019e-05
-4.4107839e-07
-3.9814455e-08
1.1265619e-05
-5.4587581e-07
-1.1397869e-07
1.1598771e-05
-7.2465937e-07
-2.1833855e-07
1.1980873e-05
-1.0062616e-06
-3.5763063e-07
1.2441598e-05
-1.4302956e-06
-5.2713114e-07
1.2964477e-05
-2.0171245e-06
-6.9887499e-07
1.3525637e-05
-2.6174532e-06
-8.3629563e-07
1.4017763e-05
-2.9771628e-06
-9.6040555e-07
1.4329289e-05
-2.9188044e-06
-1.1314787e-06
1.4424706e-05
-2.545961e-06
-1.3605463e-06
1.434241e-05
-2.0764038e-06
-1.6167927e-06
1.4170977e-05
-1.6970824e-06
-1.8636385e-06
1.3984417e-05
-1.4461095e-06
-2.0721965e-06
1.3801648e-05
-1.2680238e-06
-2.2215979e-06
1.3622916e-05
-1.1403782e-06
-2.2926075e-06
1.3447428e-05
-1.0563163e-06
-2.2778587e-06
1.3306066e-05
-1.0412325e-06
-2.177136e-06
1.326055e-05
-1.1022337e-06
-1.9905949e-06
1.3409776e-05
-1.2338763e-06
-1.7087424e-06
1.3983267e-05
-1.4419084e-06
-1.3575771e-06
1.5645117e-05
-1.7690606e-06
-1.1483515e-06
-1.9777618e-06
-1.2733848e-06
9.2946002e-06
-2.1326184e-07
3.7303342e-08
9.272837e-06
-2.8452564e-07
6.5677232e-08
9.2383616e-06
-2.9983793e-07
7.9441978e-08
9.2032665e-06
-3.0350122e-07
8.5257559e-08
9.1782307e-06
-3.0263701e-07
8.6083933e-08
9.166498e-06
-2.9966372e-07
8.1333666e-08
9.1676473e-06
-3.0063623e-07
6.9639496e-08
9.1815924e-06
-3.1279438e-07
4.9819327e-08
9.2090258e-06
-3.4489868e-07
2.1706573e-08
9.2551874e-06
-4.1330478e-07
-2.3050262e-08
9.3367821e-06
-5.4722348e-07
-9.936454e-08
9.4677737e-06
-7.9372916e-07
-2.105422e-07
9.6702835e-06
-1.2188137e-06
-3.5956954e-07
9.9737411e-06
-1.8507125e-06
-5.0544415e-07
1.0321532e-05
-2.4655719e-06
-5.6264043e-07
1.061046e-05
-2.7058677e-06
-5.1609486e-07
1.0855891e-05
-2.3789727e-06
-4.144987e-07
1.0976619e-05
-1.6811215e-06
-3.003639e-07
1.0995674e-05
-9.2175568e-07
-2.8596317e-07
1.0933405e-05
-2.7423581e-07
-4.0269342e-07
1.0880409e-05
6.4688452e-08
-5.0135889e-07
1.0864642e-05
1.9925462e-07
-4.9346284e-07
1.0881646e-05
1.9634019e-07
-3.6831786e-07
1.0882945e-05
1.1243078e-07
-1.2455748e-07
1.0843091e-05
-2.6590894e-08
1.3511072e-07
1.0754985e-05
-2.1913999e-07
3.7834635e-07
1.0694773e-05
-5.4449453e-07
6.2762116e-07
1.0785512e-05
-8.8654511e-07
7.4464058e-07
1.1459717e-05
-1.2319629e-06
4.3498114e-07
-1.4913036e-06
-3.9075452e-07
9.0994278e-06
3.6254792e-08
8.856567e-06
6.3397745e-08
8.5938177e-06
7.6219986e-08
8.3275294e-06
8.1208991e-08
8.0655396e-06
8.1194535e-08
7.8137716e-06
7.5624867e-08
7.5745217e-06
6.3238556e-08
7.3462204e-06
4.2910905e-08
7.1223206e-06
1.4603596e-08
6.8978592e-06
-3.4098363e-08
6.6563753e-06
-1.0999862e-07
6.3684887e-06
-2.2607703e-07
6.0048937e-06
-4.2524258e-07
5.5489584e-06
-7.5767509e-07
5.1189418e-06
-1.0528699e-06
4.9218817e-06
-8.4772926e-07
4.9998227e-06
2.3953599e-07
5.0918833e-06
1.7577708e-06
5.2855277e-06
2.9645225e-06
5.7160895e-06
3.6761521e-06
6.2406972e-06
4.0449088e-06
6.7526161e-06
4.1877265e-06
7.1760574e-06
4.1974517e-06
7.4828878e-06
4.1093583e-06
7.6833883e-06
3.9230558e-06
7.8253252e-06
3.5987294e-06
7.8989986e-06
3.1304764e-06
8.0364097e-06
2.4953323e-06
8.8481805e-06
1.2291417e-06
-5.9947728e-07
9.5943474e-06
-3.101659e-07
1.755734e-08
9.8871364e-06
-2.7088027e-07
2.8888211e-08
1.0166703e-05
-2.5942965e-07
3.3374636e-08
1.0401319e-05
-2.1951473e-07
3.324096e-08
1.0581389e-05
-1.7276183e-07
3.0158882e-08
1.0712484e-05
-1.3623207e-07
2.4746763e-08
1.0801717e-05
-1.1404591e-07
1.7200869e-08
1.0860968e-05
-1.0566787e-07
7.3201906e-09
1.0895366e-05
-1.138137e-07
-5.2962233e-09
1.0910822e-05
-1.4490224e-07
-1.8835472e-08
1.0917685e-05
-2.0911865e-07
-3.3394671e-08
1.0933861e-05
-3.2378713e-07
-4.3975395e-08
1.0994026e-05
-5.1582894e-07
-4.0091003e-08
1.1197889e-05
-8.6231303e-07
-6.7329386e-09
1.1477103e-05
-1.2020125e-06
9.6300497e-08
1.1731323e-05
-1.4497082e-06
2.2680602e-07
1.1895836e-05
-1.6162319e-06
3.4389581e-07
1.1972307e-05
-1.7681352e-06
4.2773179e-07
1.1984586e-05
-1.9269067e-06
4.7755995e-07
1.1959777e-05
-2.0873994e-06
5.0255047e-07
1.1928362e-05
-2.2440581e-06
5.1653828e-07
1.1902805e-05
-2.3819663e-06
5.3438225e-07
1.1871779e-05
-2.4797283e-06
5.6708455e-07
1.1817876e-05
-2.529233e-06
6.1523976e-07
1.1739597e-05
-2.544037e-06
6.7350267e-07
1.1665115e-05
-2.5523271e-06
7.395561e-07
1.1666926e-05
-2.5751722e-06
7.99847e-07
1.1838934e-05
-2.5598549e-06
7.8941444e-07
1.2079561e-05
-2.169835e-06
5.4490072e-07
-9.3688757e-07
-1.0958482e-07
9.2082025e-06
-2.3206568e-07
1.9267275e-08
9.3143075e-06
-3.479456e-07
3.4712475e-08
9.4566552e-06
-3.6947468e-07
4.2997828e-08
9.6411052e-06
-3.7110309e-07
4.5160393e-08
9.8600941e-06
-3.5948619e-07
4.2340785e-08
1.009789e-05
-3.4434171e-07
3.4208914e-08
1.0343817e-05
-3.3585198e-07
1.9452006e-08
1.0594827e-05
-3.4156384e-07
-3.9646136e-09
1.0849084e-05
-3.7079651e-07
-3.709607e-08
1.1111624e-05
-4.3772279e-07
-8.3725915e-08
1.1395932e-05
-5.6800241e-07
-1.438394e-07
1.1733976e-05
-8.0868337e-07
-2.1096327e-07
1.2181648e-05
-1.2286055e-06
-2.6239753e-07
1.269777e-05
-1.8249083e-06
-2.5282649e-07
1.3131906e-05
-2.2734575e-06
-1.9900284e-07
1.3322718e-05
-2.3945273e-06
-2.0594118e-07
1.3258634e-05
-2.3612928e-06
-3.2163809e-07
1.3039264e-05
-2.3720608e-06
-5.3649822e-07
1.2721233e-05
-2.4038347e-06
-8.2107141e-07
1.2349929e-05
-2.4496493e-06
-1.1292853e-06
1.1958885e-05
-2.5217848e-06
-1.4024588e-06
1.1550805e-05
-2.5993487e-06
-1.5947741e-06
1.1105593e-05
-2.642551e-06
-1.6825993e-06
1.0612197e-05
-2.6454334e-06
-1.665565e-06
1.0080349e-05
-2.6464316e-06
-1.5395076e-06
9.5810385e-06
-2.7386642e-06
-1.3010933e-06
9.3754749e-06
-3.0151427e-06
-1.0588292e-06
9.8898133e-06
-3.4271679e-06
-9.9971315e-07
1.1549662e-05
-3.5715616e-06
-1.4006602e-06
-2.9919681e-06
-2.2428116e-06
9.2676529e-06
-2.1294754e-07
1.9488837e-08
9.2339834e-06
-2.8388232e-07
3.5278694e-08
9.1976761e-06
-2.981177e-07
4.4387597e-08
9.1644741e-06
-3.0020644e-07
4.7558335e-08
9.142707e-06
-2.972421e-07
4.5602447e-08
9.1332584e-06
-2.9137313e-07
3.7809342e-08
9.1326823e-06
-2.8798048e-07
2.2340052e-08
9.1377863e-06
-2.9326678e-07
-3.585839e-09
9.1472706e-06
-3.1488503e-07
-4.3693576e-08
9.1584451e-06
-3.677132e-07
-1.0424044e-07
9.1656504e-06
-4.8329056e-07
-1.9129384e-07
9.1766799e-06
-7.2434446e-07
-3.0593941e-07
9.2386266e-06
-1.219343e-06
-4.3080284e-07
9.3747156e-06
-1.9872301e-06
-4.7867733e-07
9.2570469e-06
-2.3238984e-06
-3.9262882e-07
8.7767624e-06
-2.0332584e-06
-3.9493734e-07
8.106457e-06
-1.5413866e-06
-5.6271995e-07
7.6159126e-06
-1.3880217e-06
-7.9303777e-07
7.1557623e-06
-1.1200607e-06
-1.1086801e-06
6.6511706e-06
-9.0645887e-07
-1.4401464e-06
6.1159816e-06
-8.2127752e-07
-1.6649607e-06
5.5934527e-06
-8.5691078e-07
-1.7107348e-06
5.1201177e-06
-9.6699014e-07
-1.5669204e-06
4.7503913e-06
-1.1359348e-06
-1.2599686e-06
4.4499902e-06
-1.3762928e-06
-8.3012742e-07
4.2484865e-06
-1.7304944e-06
-4.2482938e-07
4.482966e-06
-2.2243028e-06
-3.9500085e-07
5.288592e-06
-2.8710202e-06
-6.1488893e-07
6.6684884e-06
-3.1039552e-06
-1.4089346e-06
-2.3866551e-06
-2.9594611e-06
9.0732408e-06
1.9014596e-08
8.8185343e-06
3.4217012e-08
8.553847e-06
4.2784788e-08
8.2893866e-06
4.5458142e-08
8.0303539e-06
4.2980359e-08
7.780078e-06
3.4522878e-08
7.5374706e-06
1.7860773e-08
7.2974807e-06
-1.0370406e-08
7.053332e-06
-5.6136978e-08
6.7828188e-06
-1.3130204e-07
6.4438284e-06
-2.543012e-07
5.9553673e-06
-4.6195164e-07
5.1451377e-06
-8.3415102e-07
3.8315618e-06
-1.4286317e-06
2.3364493e-06
-1.8736314e-06
1.2342417e-06
-1.7724935e-06
1.3262073e-06
-1.3907419e-06
1.7124704e-06
-1.629974e-08
2.1816587e-06
1.3788213e-06
2.7195117e-06
2.2363103e-06
3.2767091e-06
2.6706363e-06
3.7677235e-06
2.8435161e-06
4.1323097e-06
2.8692534e-06
4.3097622e-06
2.7991376e-06
4.210265e-06
2.6491157e-06
3.8829464e-06
2.1981191e-06
3.5740189e-06
1.2174622e-06
3.3224175e-06
-1.2483024e-07
3.1940913e-06
-1.7475572e-06
-4.0375104e-06
9.5887931e-06
-3.1043756e-07
8.1759987e-09
9.8742106e-06
-2.7052746e-07
1.4001686e-08
1.0147904e-05
-2.5738717e-07
1.7080698e-08
1.0377725e-05
-2.145769e-07
1.8018257e-08
1.0553496e-05
-1.6300497e-07
1.7421107e-08
1.0681416e-05
-1.1872203e-07
1.5582426e-08
1.0770824e-05
-8.4728638e-08
1.2555801e-08
1.082988e-05
-6.014545e-08
8.4354832e-09
1.0866355e-05
-4.5400211e-08
3.6378952e-09
1.0892265e-05
-4.3389152e-08
-1.4077427e-09
1.0928829e-05
-6.35138e-08
-6.6106078e-09
1.1016589e-05
-1.2748827e-07
-4.6482327e-09
1.1223375e-05
-2.6239999e-07
1.47543e-08
1.1591338e-05
-4.4920246e-07
7.3722876e-08
1.1958207e-05
-4.2869612e-07
1.5777808e-07
1.2208071e-05
-2.6832559e-07
2.4548338e-07
1.2340317e-05
-1.2536798e-07
3.3749158e-07
1.2407722e-05
-8.2877625e-08
4.4355014e-07
1.2454053e-05
-1.3789196e-07
5.6904171e-07
1.2512936e-05
-2.7326807e-07
7.1620402e-07
1.2599785e-05
-4.5904191e-07
8.8719561e-07
1.2697554e-05
-6.5153838e-07
1.0858283e-06
1.2767371e-05
-8.1808768e-07
1.3125456e-06
1.2788572e-05
-9.6135832e-07
1.5526887e-06
1.2776825e-05
-1.0933526e-06
1.7767123e-06
1.2740628e-05
-1.1613271e-06
1.9366848e-06
1.2592572e-05
-1.0172344e-06
1.9672691e-06
1.2116196e-05
-5.4114584e-07
1.8129926e-06
1.0785383e-05
4.759908e-07
1.4042561e-06
2.6836662e-06
6.664408e-07
9.2007669e-06
-2.3189882e-07
8.9265368e-09
9.2955324e-06
-3.4741212e-07
1.6827521e-08
9.4271233e-06
-3.6791443e-07
2.1930956e-08
9.6009955e-06
-3.6743868e-07
2.4147948e-08
9.8085629e-06
-3.5194943e-07
2.3716659e-08
1.0033757e-05
-3.3021169e-07
2.0503834e-08
1.0265656e-05
-3.1116848e-07
1.3990231e-08
1.0498802e-05
-3.0102184e-07
3.7613534e-09
1.073621e-05
-3.0765071e-07
-1.2271949e-08
1.0988801e-05
-3.4641267e-07
-3.3344331e-08
1.1289074e-05
-4.5105599e-07
-5.6699192e-08
1.1709337e-05
-6.875418e-07
-7.147159e-08
1.2370076e-05
-1.1309244e-06
-5.5138363e-08
1.3156505e-05
-1.5036872e-06
1.5015859e-08
1.3731732e-05
-1.3063821e-06
1.037578e-07
1.4073728e-05
-9.2957292e-07
1.1389111e-07
1.4220232e-05
-6.8314283e-07
9.0349608e-08
1.4210622e-05
-6.5289987e-07
4.3930841e-08
1.4067074e-05
-7.8471266e-07
-3.0162372e-08
1.3824852e-05
-1.0285012e-06
-1.3145904e-07
1.3507292e-05
-1.2947373e-06
-2.4889711e-07
1.3105178e-05
-1.5142024e-06
-3.2965413e-07
1.2579994e-05
-1.6446269e-06
-3.3076699e-07
1.1936202e-05
-1.7302384e-06
-2.5380014e-07
1.1295864e-05
-1.8698164e-06
-1.2593088e-07
1.0914218e-05
-2.0585782e-06
-2.9069188e-08
1.0893321e-05
-1.9716899e-06
-9.4901847e-08
1.1080705e-05
-1.2886455e-06
-4.5439707e-07
1.1247775e-05
-5.6220166e-08
-1.0360217e-06
1.9072741e-06
-1.7621886e-06
9.2605491e-06
-2.1293984e-07
8.9372283e-09
9.215439e-06
-2.8390749e-07
1.6879468e-08
9.1675306e-06
-2.9781847e-07
2.2195305e-08
9.1220605e-06
-2.9906673e-07
2.4651789e-08
9.0860551e-06
-2.9458664e-07
2.4240464e-08
9.0593461e-06
-2.8620342e-07
2.0505622e-08
9.0369461e-06
-2.789361e-07
1.2503315e-08
9.0118057e-06
-2.791211e-07
-3.5076424e-10
8.9801135e-06
-2.9516549e-07
-2.4492043e-08
8.9350171e-06
-3.4624733e-07
-5.9318159e-08
8.8783403e-06
-4.7704062e-07
-1.0865207e-07
8.84989e-06
-7.9914688e-07
-1.6592748e-07
9.032722e-06
-1.5547642e-06
-1.8972692e-07
9.4150408e-06
-2.2431984e-06
-1.1962357e-07
9.2514862e-06
-1.5005257e-06
-3.3133241e-08
8.7141461e-06
-7.5674471e-07
-2.9978397e-08
8.0278399e-06
-4.077321e-07
-1.5236531e-07
7.2126101e-06
-2.7050058e-07
-3.608652e-07
6.3721175e-06
-4.2663606e-07
-6.2644473e-07
5.5029052e-06
-6.6866515e-07
-9.3021144e-07
4.6424206e-06
-9.1688112e-07
-1.1808596e-06
3.8506157e-06
-1.1545104e-06
-1.2762331e-06
3.1540038e-06
-1.3684528e-06
-1.1432225e-06
2.557246e-06
-1.6197007e-06
-7.6994225e-07
2.2097718e-06
-1.9600598e-06
-3.8927053e-07
2.4967679e-06
-2.45974e-06
-3.0852724e-07
3.5170733e-06
-2.5279664e-06
-8.5753877e-07
4.8993227e-06
-1.6615053e-06
-1.6237742e-06
5.9695233e-06
-1.1935797e-07
-2.4194136e-06
1.2882349e-06
-3.1112378e-06
9.0663432e-06
8.6795963e-09
8.8003899e-06
1.6258053e-08
8.5241739e-06
2.117752e-08
8.2473732e-06
2.3187288e-08
7.9735496e-06
2.2212505e-08
7.704165e-06
1.7699236e-08
7.4345009e-06
8.5840599e-09
7.1533126e-06
-8.307764e-09
6.8405052e-06
-3.8499365e-08
6.4525956e-06
-8.9643564e-08
5.9013967e-06
-1.8014427e-07
4.9906352e-06
-3.5030231e-07
3.3094621e-06
-7.0702856e-07
9.1108101e-07
-1.2646533e-06
-1.2004003e-06
-1.2492034e-06
-2.6297602e-06
-1.0989949e-06
-3.4856847e-06
-9.4298836e-07
-3.182875e-06
-5.8939093e-07
-2.339954e-06
1.1226268e-07
-1.3976421e-06
6.2956717e-07
-5.8257888e-07
9.4275544e-07
1.5878714e-08
1.09323e-06
3.579236e-07
1.1617803e-06
3.8789898e-07
1.1518136e-06
1.3604561e-08
1.0641515e-06
-8.2220343e-07
5.744827e-07
-1.5245516e-06
-6.0383571e-07
-1.2509554e-06
-2.047086e-06
6.8699175e-08
-3.1871293e-06
-3.618628e-06
9.5859518e-06
-3.1084255e-07
2.0401756e-09
9.867693e-06
-2.7114662e-07
3.405575e-09
1.0138231e-05
-2.58013e-07
4.5582491e-09
1.0365564e-05
-2.150206e-07
5.7131308e-09
1.0539084e-05
-1.6307536e-07
6.9872978e-09
1.0664539e-05
-1.183385e-07
8.4799222e-09
1.0750759e-05
-8.4051119e-08
1.0398023e-08
1.0806106e-05
-5.9636299e-08
1.272658e-08
1.0839967e-05
-4.5895914e-08
1.5640353e-08
1.086752e-05
-4.8375268e-08
1.9326962e-08
1.0919202e-05
-8.2280404e-08
2.3747815e-08
1.1061619e-05
-1.7638624e-07
2.8771659e-08
1.1381584e-05
-3.3893285e-07
3.2869012e-08
1.1822003e-05
-4.0114319e-07
3.4109429e-08
1.2187284e-05
-2.434608e-07
3.6513462e-08
1.2436635e-05
-4.4256783e-08
4.1667099e-08
1.2604669e-05
1.1925697e-07
5.1333749e-08
1.2722925e-05
2.5798751e-07
6.8308795e-08
1.283222e-05
3.6568818e-07
9.4892769e-08
1.2968899e-05
4.4683578e-07
1.3325965e-07
1.315399e-05
5.2026319e-07
1.8199191e-07
1.3367467e-05
6.3791263e-07
2.3397021e-07
1.3551679e-05
8.4849845e-07
2.7853495e-07
1.3654091e-05
1.1381984e-06
3.09791e-07
1.3622622e-05
1.4786807e-06
3.2613343e-07
1.3377627e-05
1.8489873e-06
3.282707e-07
1.2770119e-05
2.2549384e-06
3.1476215e-07
1.1536185e-05
2.7650541e-06
2.7735248e-07
9.2481755e-06
3.4840167e-06
2.0659553e-07
4.840451e-06
1.0375208e-07
9.1967159e-06
-2.319954e-07
2.3284223e-09
9.2857145e-06
-3.4763087e-07
4.3086938e-09
9.4114487e-06
-3.6809829e-07
6.2780529e-09
9.5795439e-06
-3.6741823e-07
8.4469798e-09
9.7807716e-06
-3.5153374e-07
1.0944197e-08
9.9982607e-06
-3.292664e-07
1.3939378e-08
1.0220504e-05
-3.0987091e-07
1.756172e-08
1.0443051e-05
-3.0033277e-07
2.1899539e-08
1.0667788e-05
-3.1008028e-07
2.7150625e-08
1.0912948e-05
-3.6076547e-07
3.382017e-08
1.1231941e-05
-5.000951e-07
4.1953469e-08
1.1749195e-05
-8.1603166e-07
5.054157e-08
1.2623505e-05
-1.3236508e-06
5.4755494e-08
1.3371678e-05
-1.1846633e-06
5.0378461e-08
1.3914496e-05
-7.3460375e-07
5.2406506e-08
1.4316643e-05
-3.8871653e-07
5.6719147e-08
1.4628597e-05
-1.6457511e-07
6.4638956e-08
1.4845862e-05
1.1133917e-08
7.8058753e-08
1.5017232e-05
7.1409464e-08
1.0046225e-07
1.5191972e-05
1.7958822e-08
1.3478922e-07
1.5419027e-05
-1.0858672e-07
1.7144624e-07
1.5709313e-05
-1.5255832e-07
1.9537067e-07
1.597682e-05
7.5503595e-08
2.0370273e-07
1.6107353e-05
5.8758039e-07
1.9864172e-07
1.6067303e-05
1.2373831e-06
1.900283e-07
1.5745755e-05
1.9957723e-06
1.8178358e-07
1.498788e-05
2.7844364e-06
1.7084223e-07
1.3497571e-05
3.717322e-06
1.2194175e-07
1.1060617e-05
4.8963939e-06
2.5396353e-08
6.4987145e-06
-8.851776e-08
9.2565133e-06
-2.1295774e-07
2.3427477e-09
9.2054027e-06
-2.839938e-07
4.3482303e-09
9.1509532e-06
-2.9786946e-07
6.4111946e-09
9.0983757e-06
-2.9897012e-07
8.7764362e-09
9.0537489e-06
-2.9428672e-07
1.1615601e-08
9.0155383e-06
-2.8574549e-07
1.5190724e-08
8.9771637e-06
-2.7865102e-07
1.9653434e-08
8.9309943e-06
-2.7982153e-07
2.5302612e-08
8.864988e-06
-3.0108823e-07
3.2516348e-08
8.7704385e-06
-3.6824986e-07
4.2705154e-08
8.653232e-06
-5.4865752e-07
5.7091869e-08
8.6232443e-06
-1.0277589e-06
7.5744199e-08
9.2018292e-06
-2.1787097e-06
8.7138217e-08
9.3573045e-06
-1.5293216e-06
7.1037467e-08
9.1192918e-06
-6.0270292e-07
7.2842279e-08
8.8219905e-06
-2.1213648e-07
8.9181407e-08
8.3187742e-06
7.5691365e-08
1.0932134e-07
7.6400049e-06
1.9077437e-07
1.377953e-07
6.823467e-06
7.7137025e-08
1.8522357e-07
5.8156509e-06
-1.3825304e-07
2.3448771e-07
4.6888815e-06
-4.1706232e-07
2.5329234e-07
3.7767106e-06
-7.4724175e-07
2.2869134e-07
3.6287801e-06
-1.0685459e-06
1.4846522e-07
4.5649324e-06
-1.166417e-06
5.0082515e-08
6.399794e-06
-9.0416061e-07
-7.6792667e-08
8.2806309e-06
1.3067777e-08
-1.9608693e-07
9.373073e-06
1.0867768e-06
-2.3629468e-07
9.4309203e-06
2.3310453e-06
-2.7570067e-07
8.5565564e-06
3.6899465e-06
-3.1567809e-07
5.3880539e-06
-3.1663274e-07
9.0623727e-06
2.2971818e-09
8.7903865e-06
4.2456422e-09
8.5074377e-06
6.2520099e-09
8.2230772e-06
8.5728243e-09
7.9395966e-06
1.1401582e-08
7.6564208e-06
1.5124823e-08
7.3664862e-06
1.9862872e-08
7.0522959e-06
2.605634e-08
6.6779412e-06
3.4762774e-08
6.1717505e-06
4.8293633e-08
5.3723283e-06
7.0622186e-08
3.8849673e-06
1.094045e-07
8.2434147e-07
1.7695389e-07
-2.1661669e-06
2.1763094e-07
-4.1280624e-06
1.1188382e-07
-5.4754203e-06
3.5269311e-08
-6.3329055e-06
-1.1501497e-08
-6.6845757e-06
-4.7913691e-08
-6.3862464e-06
-1.1015614e-07
-5.7029831e-06
-1.9114894e-07
-4.9036366e-06
-2.7241095e-07
-4.1913781e-06
-3.6503779e-07
-3.6206482e-06
-4.7641531e-07
-3.0608469e-06
-5.7396766e-07
-2.2980995e-06
-6.0303039e-07
-1.1200413e-06
-5.9095942e-07
1.2169869e-07
-7.6113016e-07
1.119257e-06
-7.2286222e-07
2.0713603e-06
-4.7222734e-07
3.7222177e-07
9.586131e-06
-3.108526e-07
-4.2653282e-09
9.86814e-06
-2.7118873e-07
-7.4211261e-09
1.0139044e-05
-2.5809876e-07
-8.2534967e-09
1.0366873e-05
-2.1513651e-07
-6.9856117e-09
1.0541093e-05
-1.6318989e-07
-4.0477682e-09
1.0667815e-05
-1.1831643e-07
7.317706e-11
1.075546e-05
-8.3852863e-08
6.6035122e-09
1.081285e-05
-5.9067131e-08
1.4406052e-08
1.0849139e-05
-4.4749665e-08
2.4120527e-08
1.0878905e-05
-4.5915115e-08
3.554371e-08
1.0932011e-05
-7.6387493e-08
4.7212293e-08
1.1070765e-05
-1.6389068e-07
5.4331775e-08
1.1379095e-05
-3.1909471e-07
4.42814e-08
1.1820486e-05
-4.0570205e-07
-1.448861e-09
1.2195417e-05
-2.6692637e-07
-7.2234194e-08
1.2461407e-05
-7.1724664e-08
-1.5404709e-07
1.2655758e-05
9.3603505e-08
-2.3798235e-07
1.2814992e-05
2.4033368e-07
-3.3253763e-07
1.29797e-05
3.7446509e-07
-4.4548427e-07
1.3177648e-05
5.1901592e-07
-5.8483897e-07
1.3409369e-05
7.0903969e-07
-7.5983926e-07
1.3635424e-05
9.779441e-07
-9.7104082e-07
1.3804049e-05
1.3227747e-06
-1.2138124e-06
1.3869417e-05
1.7143485e-06
-1.4707824e-06
1.3788218e-05
2.1156849e-06
-1.7090495e-06
1.3480392e-05
2.5172532e-06
-1.8815908e-06
1.2777513e-05
2.9479802e-06
-1.9304091e-06
1.1399352e-05
3.4468494e-06
-1.7909334e-06
8.8780297e-06
4.0842584e-06
-1.3561932e-06
5.2518957e-06
-6.4695856e-07
9.1969388e-06
-2.3198476e-07
-4.513355e-09
9.2863176e-06
-3.4761744e-07
-8.646083e-09
9.4126e-06
-3.6807803e-07
-1.0029891e-08
9.5815124e-06
-3.6738564e-07
-8.2209922e-09
9.7841382e-06
-3.5145507e-07
-3.421391e-09
1.0003728e-05
-3.2897954e-07
5.0078669e-09
1.0228733e-05
-3.0914168e-07
1.7841826e-08
1.0454791e-05
-2.9870471e-07
3.5477177e-08
1.0684759e-05
-3.0685916e-07
5.9302238e-08
1.0936506e-05
-3.5356374e-07
8.9761847e-08
1.126119e-05
-4.8332896e-07
1.2433143e-07
1.177381e-05
-7.7895578e-07
1.5327445e-07
1.2620052e-05
-1.2624448e-06
1.5224111e-07
1.3396902e-05
-1.2205692e-06
8.8234118e-08
1.3952666e-05
-7.8961838e-07
1.8865064e-08
1.4375929e-05
-4.3195196e-07
-6.9737435e-09
1.4718812e-05
-2.0638836e-07
1.922987e-08
1.497813e-05
-2.3005713e-08
7.7247735e-08
1.5207974e-05
8.0609682e-08
1.5742068e-07
1.5465007e-05
1.2523234e-07
2.6186664e-07
1.5767294e-05
2.066163e-07
3.5943055e-07
1.6033955e-05
4.858691e-07
4.0712199e-07
1.6209964e-05
9.5288469e-07
3.8401097e-07
1.624915e-05
1.5635569e-06
2.9845673e-07
1.6117303e-05
2.2407475e-06
1.883303e-07
1.571209e-05
2.9783653e-06
1.2203892e-07
1.4788007e-05
3.8351262e-06
2.0978143e-07
1.3056721e-05
4.7906314e-06
5.1910889e-07
1.0136952e-05
5.9865127e-06
1.0633291e-06
7.7399738e-06
1.8318328e-06
9.2567504e-06
-2.129469e-07
-4.4890248e-09
9.2060629e-06
-2.8397507e-07
-8.6114663e-09
9.1522694e-06
-2.978349e-07
-1.0043253e-08
9.1007248e-06
-2.989117e-07
-8.1577152e-09
9.0580133e-06
-2.9418335e-07
-2.9493683e-09
9.0226759e-06
-2.8542408e-07
6.9678082e-09
8.9885149e-06
-2.7796213e-07
2.2630084e-08
8.9481202e-06
-2.7853152e-07
4.5519534e-08
8.8930751e-06
-2.9794451e-07
7.8643005e-08
8.8170277e-06
-3.6049591e-07
1.2568452e-07
8.7292018e-06
-5.28162e-07
1.8976258e-07
8.7285177e-06
-9.6844283e-07
2.6594076e-07
9.2403545e-06
-2.0118654e-06
3.2437759e-07
9.5304043e-06
-1.7141758e-06
2.7297433e-07
9.3188689e-06
-6.7578824e-07
1.7040514e-07
9.0798691e-06
-2.8969129e-07
1.8686779e-07
8.7046087e-06
-3.000526e-09
2.8233116e-07
8.2327101e-06
1.1452408e-07
4.7281703e-07
7.7544151e-06
1.8940814e-08
7.2422399e-07
7.2492278e-06
-1.4658903e-07
1.0091237e-06
6.9178524e-06
-4.278737e-07
1.2157009e-06
7.0405888e-06
-6.3958767e-07
1.2276149e-06
7.7446618e-06
-6.5825945e-07
1.0516586e-06
8.8902737e-06
-3.4952756e-07
8.1334371e-07
1.0180399e-05
2.5057253e-07
6.2009238e-07
1.1195476e-05
1.188819e-06
5.7842872e-07
1.1404543e-05
2.4495521e-06
9.4724454e-07
1.0699354e-05
3.6395228e-06
1.5996693e-06
8.7062443e-06
5.4001926e-06
2.3012009e-06
8.6206913e-06
2.9301596e-06
9.062614e-06
-4.3156191e-09
8.7910568e-06
-8.1770974e-09
8.5087913e-06
-9.3222545e-09
8.2255578e-06
-7.1101798e-09
7.9444277e-06
-1.6564911e-09
7.6646211e-06
9.5024925e-09
7.3796996e-06
2.6817336e-08
7.0740089e-06
5.3210693e-08
6.7168474e-06
9.3974592e-08
6.2460018e-06
1.5863771e-07
5.522878e-06
2.6557297e-07
4.2080502e-06
4.5568186e-07
1.536231e-06
8.3514231e-07
-1.398669e-06
1.420037e-06
-3.4030369e-06
1.4386543e-06
-4.8015601e-06
1.1442447e-06
-5.6858381e-06
8.6948778e-07
-6.0010186e-06
3.8065631e-07
-5.7064154e-06
-3.8747553e-07
-4.9991051e-06
-1.0485152e-06
-4.2370188e-06
-1.4663374e-06
-3.5484225e-06
-1.6970658e-06
-2.874974e-06
-1.8115197e-06
-1.941503e-06
-1.8599998e-06
-5.0546803e-07
-1.7937444e-06
1.1818869e-06
-1.0947677e-06
2.6160017e-06
2.4433781e-07
3.6388549e-06
1.8756927e-06
5.5923664e-06
2.9260038e-06
3.7097925e-06
9.5893832e-06
-3.1039107e-07
-1.4284343e-08
9.8757152e-06
-2.7047074e-07
-2.3292032e-08
1.0150618e-05
-2.5732931e-07
-2.5841016e-08
1.0381968e-05
-2.1450554e-07
-2.3848219e-08
1.0559613e-05
-1.6289693e-07
-1.8815974e-08
1.068955e-05
-1.1861866e-07
-1.1268857e-08
1.078126e-05
-8.4500303e-08
-6.2688846e-10
1.084386e-05
-5.943756e-08
1.1230887e-08
1.0885134e-05
-4.3493379e-08
2.6341515e-08
1.0916283e-05
-3.9560059e-08
4.3996508e-08
1.0957415e-05
-5.6380182e-08
6.2605007e-08
1.1048642e-05
-1.1410344e-07
7.7581992e-08
1.1254505e-05
-2.3847541e-07
7.7622052e-08
1.1620532e-05
-4.1459368e-07
4.7832462e-08
1.1984909e-05
-4.1233366e-07
-2.4086371e-08
1.2249639e-05
-2.6348757e-07
-1.5580087e-07
1.2405501e-05
-1.2297329e-07
-2.7191562e-07
1.2502869e-05
-7.2661836e-08
-3.585669e-07
1.2576787e-05
-1.0363677e-07
-4.1730252e-07
1.2649177e-05
-1.9723301e-07
-4.6171087e-07
1.2727315e-05
-3.3160145e-07
-5.0814432e-07
1.2801822e-05
-4.7939009e-07
-5.6770885e-07
1.2855621e-05
-6.257825e-07
-6.4268425e-07
1.2883119e-05
-7.7069261e-07
-7.2690127e-07
1.2891835e-05
-9.0119706e-07
-8.1284822e-07
1.2867719e-05
-9.5117473e-07
-8.9710889e-07
1.269875e-05
-7.7592575e-07
-9.6732325e-07
1.2190755e-05