/*--------------------------------*- C++ -*----------------------------------*\
| =========                 |                                                 |
| \\      /  F ield         | OpenFOAM: The Open Source CFD Toolbox           |
|  \\    /   O peration     | Version:  v2012                                 |
|   \\  /    A nd           | Website:  www.openfoam.com                      |
|    \\/     M anipulation  |                                                 |
\*---------------------------------------------------------------------------*/
FoamFile
{
    version     2.0;
    format      ascii;
    class       volScalarField;
    location    "700/topAir";
    object      T;
}
// * * * * * * * * * * * * * * * * * * * * * * * * * * * * * * * * * * * * * //

dimensions      [0 0 0 1 0 0 0];


internalField   nonuniform List<scalar> 
1200
(
325.45798
348.99224
370.29068
389.96813
408.53444
426.2902
443.33688
459.51424
474.51461
488.29134
500.70481
511.49587
520.09878
519.41392
516.13254
510.39581
503.0231
495.12035
487.63195
481.14453
475.91789
472.00143
469.34109
467.84701
467.42541
468.01436
469.63206
472.45685
476.99288
484.01936
300.54805
301.58147
302.99532
304.72755
306.73452
308.98231
311.44025
314.32174
318.27136
323.55804
331.07265
341.34499
354.54613
368.72087
382.48237
394.61569
404.51799
411.95616
416.90766
419.58432
420.52116
420.42933
419.98129
419.7053
419.99154
421.18116
423.68426
428.14692
435.81404
447.88005
300.01217
300.04659
300.11046
300.21005
300.35069
300.53693
300.77241
301.06538
301.4381
301.91624
302.5764
304.70312
310.38615
320.18767
333.15454
347.94953
362.77596
376.4471
388.13748
397.3832
404.14073
408.74512
411.73784
413.69508
415.1297
416.47961
418.15023
420.62424
424.75179
431.79696
300.00029
300.00142
300.00417
300.00955
300.01889
300.03376
300.05605
300.08815
300.13356
300.19759
300.29346
300.50617
301.19751
305.05921
314.9838
328.38826
342.32239
355.93475
368.5427
379.54479
388.58547
395.64311
400.96385
404.92033
407.90095
410.25808
412.31551
414.42044
417.1033
421.22006
325.4509
348.73092
369.53204
388.46909
406.01439
422.40874
437.70781
451.83325
464.55684
475.50694
484.15043
489.84343
491.74315
482.25948
470.0717
457.26257
446.09606
437.74148
432.17666
428.74247
426.73487
425.69866
425.43106
425.88035
427.02936
428.89465
431.58277
435.45587
441.53569
451.28785
300.54729
301.56136
302.92156
304.55458
306.40492
308.42552
310.56732
312.77361
314.97244
317.06955
318.93358
320.39585
321.25335
321.26549
320.79473
320.62455
321.46577
323.38641
326.00952
328.93354
331.9971
335.21879
338.67835
342.46763
346.67295
351.36819
356.57811
362.24511
368.46791
377.23318
300.01213
300.04563
300.10619
300.19812
300.32441
300.48685
300.68574
300.91952
301.18416
301.47129
301.76627
302.06871
302.36655
302.76692
304.03418
307.04098
312.5044
319.75569
327.47434
334.43107
340.64917
346.74923
352.81359
358.88746
364.85892
371.03484
377.61529
384.50987
391.77886
399.50894
300.00029
300.00138
300.00394
300.00881
300.01694
300.02945
300.0475
300.07233
300.10521
300.14749
300.20131
300.27734
300.45156
301.38213
305.30942
313.26674
323.80786
336.89617
350.45998
362.93782
373.26485
381.24764
387.7092
393.1244
397.71735
401.36083
404.36038
407.00087
409.61275
412.65457
325.4462
348.76667
369.62683
388.63962
406.28501
422.81714
438.34297
452.88357
466.35106
478.51994
488.96706
496.97602
501.25798
492.72887
481.26262
469.21592
458.06771
448.12047
439.35958
431.78941
425.44164
420.43286
416.944
415.08485
414.8045
415.92121
418.23896
421.76703
427.43134
437.53851
300.54728
301.56461
302.9309
304.57201
306.43311
308.46984
310.64016
312.89798
315.18325
317.409
319.43778
321.04749
321.92224
321.82374
321.52128
321.77975
322.64551
323.93842
325.66365
327.85665
330.60114
334.06623
338.41807
343.69875
349.82428
356.73886
364.44401
372.71645
381.43609
391.76113
300.01213
300.04577
300.10666
300.19904
300.32581
300.48872
300.68822
300.9231
301.1896
301.47913
301.77368
302.03977
302.25738
302.92285
305.74826
310.41044
314.95303
318.71938
322.61421
326.95301
332.12487
338.62658
346.58324
355.5518
364.81443
373.81265
382.34333
390.15427
398.34448
407.96449
300.00029
300.00139
300.00396
300.00885
300.01699
300.02946
300.04739
300.07194
300.10426
300.14541
300.19674
300.26846
300.53371
303.16682
314.07954
328.18631
336.55065
336.96772
344.75467
355.0517
364.7584
372.89761
379.71349
385.53528
390.60245
394.96709
398.72637
402.34578
409.38889
421.152
325.44372
348.77718
369.67358
388.7528
406.51429
423.2475
439.1121
454.19442
468.51077
481.98036
494.31955
504.84046
512.19195
507.41767
503.45326
501.9145
502.19465
502.94641
502.99667
501.56689
498.41528
493.90198
488.69981
483.3493
478.22796
474.05745
472.27152
474.73816
482.29134
492.77279
300.54727
301.5658
302.93621
304.58588
306.46262
308.52685
310.74442
313.08073
315.49139
317.90265
320.17142
322.02342
323.09131
323.64347
324.80509
326.45517
328.31772
330.21279
332.11049
334.15973
336.65321
339.9243
344.19034
349.43488
355.57637
362.70271
370.46795
378.86561
391.94896
419.40267
300.01214
300.04583
300.10696
300.19994
300.32794
300.49313
300.69668
300.93844
301.21592
301.52122
301.83361
302.10999
302.42044
304.67205
309.87852
313.92166
316.67222
318.90704
321.7279
325.93405
332.05491
340.43074
350.80892
362.02183
373.10045
383.9491
392.59388
400.0537
408.37702
421.35662
300.00029
300.00139
300.00398
300.0089
300.01714
300.02981
300.04812
300.07338
300.107
300.15047
300.20682
300.31136
301.10461
310.91135
337.1522
350.5365
351.75735
351.3698
351.16597
356.73433
363.74873
370.72404
377.51677
383.17338
388.78499
395.9639
402.85801
411.22979
421.81386
433.67335
325.44052
348.77574
369.67923
388.77004
406.54932
423.30925
439.20996
454.33426
468.68865
482.14018
494.2695
504.13975
510.48487
505.28274
502.99638
503.85217
505.87034
508.97306
512.63545
516.42875
519.94854
522.83667
524.83391
525.8152
525.83279
525.21687
524.70639
525.419
528.7402
536.25456
300.54722
301.56615
302.93804
304.5907
306.47234
308.54398
310.77199
313.12146
315.54438
317.9528
320.16214
321.82338
322.66736
323.97056
325.80508
327.92122
331.48511
336.59259
342.62153
349.17695
355.92046
363.3856
372.54529
383.39586
395.76534
409.25455
423.61352
439.14108
457.02682
479.85993
300.01214
300.04585
300.10709
300.20034
300.32887
300.49498
300.70002
300.94397
301.22402
301.53052
301.83626
302.0938
302.68872
307.90978
311.96453
314.4343
315.98676
317.73897
319.9488
323.37598
329.49047
339.01969
351.30778
363.89365
374.21089
383.20611
393.82601
407.11782
424.49655
447.8057
300.00029
300.00139
300.00399
300.00893
300.01722
300.02999
300.04851
300.07415
300.10846
300.1533
300.21464
300.38677
302.5151
334.14636
355.62429
360.0325
362.17099
364.4436
367.50718
370.33163
374.05226
378.46862
383.04641
387.31788
391.22361
394.86478
398.07372
408.97202
422.95623
441.45858
325.438
348.77037
369.67097
388.75962
406.53754
423.29745
439.19949
454.32731
468.68864
482.16074
494.34666
504.34512
510.89142
505.56979
503.03678
503.71364
505.905
509.19149
513.0762
517.17037
521.10455
524.5232
527.1164
528.67032
529.15063
528.83205
528.43585
529.15532
532.51672
540.34252
300.54716
301.56597
302.93765
304.59
306.47122
308.54236
310.76983
313.11897
315.54254
317.95498
320.17819
321.87559
322.77285
323.96942
325.74006
327.83154
331.19569
336.32777
342.79594
350.55761
359.84178
370.98331
384.04816
398.64022
414.03274
429.53308
444.83767
460.20073
476.62542
496.62894
300.01213
300.04585
300.10707
300.2003
300.32879
300.49482
300.69973
300.94348
301.22332
301.5298
301.8366
302.09778
302.63667
307.2065
311.34854
313.96789
315.40238
317.02162
319.20339
322.77836
328.76339
337.38578
347.86909
359.15793
371.54305
385.55228
401.16175
418.7346
439.19964
464.54877
300.00029
300.00139
300.00399
300.00893
300.01721
300.02998
300.04847
300.07407
300.10829
300.15295
300.21391
300.3784
302.21481
327.25262
353.03435
358.02699
360.38772
362.31209
364.94041
368.00107
372.24792
376.97497
381.59916
385.65291
389.00456
392.85
400.0865
412.44136
430.23836
450.27622
325.4379
348.76542
369.65606
388.73023
406.48815
423.22013
439.08697
454.17584
468.50951
482.01443
494.42549
505.08709
512.70736
508.35821
504.68229
503.36583
503.91722
505.04895
505.71111
505.203
503.18364
499.7227
495.12962
489.78034
484.20392
479.38351
477.01194
479.10969
485.49413
496.35148
300.54715
301.5654
302.93533
304.58429
306.46004
308.52301
310.73917
313.07409
315.4842
317.89819
320.1776
322.05763
323.1868
323.80463
324.91762
326.51789
328.34144
330.23206
332.1836
334.32645
336.90424
340.16007
344.20518
349.00397
354.55871
361.00848
368.39499
376.79871
392.33446
422.24315
300.01213
300.04582
300.10692
300.19985
300.32773
300.49272
300.69597
300.93728
301.21412
301.51872
301.83091
302.10943
302.42246
304.43035
309.06788
312.9078
315.5544
317.74192
320.42722
324.27807
329.76504
337.16828
346.26491
356.55759
367.96797
380.14977
391.58897
401.44001
411.96226
427.94711
300.00029
300.00139
300.00398
300.0089
300.01713
300.02977
300.04803
300.07319
300.10662
300.14979
300.2058
300.311
301.07247
309.6798
331.59275
348.00312
349.31935
349.07076
350.12612
356.65985
364.41592
371.78497
378.67783
384.68366
391.24473
398.61126
406.748
415.83076
426.42446
436.81299
325.43973
348.75347
369.60677
388.61264
406.25128
422.77778
438.30536
452.84928
466.32512
478.51784
489.02212
497.14907
501.66167
493.57547
482.60663
470.90658
459.85148
449.85562
441.03992
433.42379
426.95922
421.67261
417.70915
415.24524
414.37693
415.056
417.16069
420.64363
426.32122
435.77799
300.54715
301.56416
302.9299
304.57008
306.42979
308.46454
310.63242
312.8875
315.17046
317.39783
319.43562
321.06924
321.99625
321.99044
321.71801
321.89749
322.6235
323.78361
325.39879
327.48309
330.08654
333.36034
337.49545
342.61968
348.77597
355.96534
364.18349
373.24634
383.04784
394.52469
300.01213
300.04576
300.10661
300.19892
300.32553
300.48815
300.68719
300.92143
301.18712
301.47569
301.76983
302.03724
302.26121
302.90019
305.36769
309.5504
313.7936
317.51456
321.41624
325.65426
330.51999
336.54334
344.02458
352.88759
362.81539
373.08094
382.87726
391.74433
401.47588
413.54801
300.00029
300.00139
300.00396
300.00884
300.01697
300.0294
300.04726
300.07167
300.10376
300.14455
300.1954
300.26736
300.53439
302.98067
312.31925
325.40265
332.94876
334.70545
343.37431
354.56358
364.93423
373.48711
380.55327
386.53849
391.81513
396.42933
400.43369
404.2171
412.72627
423.4849
325.44613
348.72154
369.51847
388.45205
405.99459
422.38791
437.68332
451.80825
464.53984
475.50672
484.19037
489.9706
492.02481
482.77505
470.81761
458.13995
446.97665
438.57854
433.00915
429.63029
427.70922
426.73456
426.4407
426.73189
427.60458
429.13782
431.49747
435.02525
440.64233
450.39257
300.5472
301.56104
302.92081
304.55304
306.40209
308.42074
310.55956
312.76233
314.95927
317.0564
318.92673
320.40561
321.29547
321.35106
320.89499
320.68188
321.43323
323.26854
325.83895
328.73313
331.77602
334.97151
338.39662
342.17212
346.42507
351.2606
356.71847
362.75812
369.56263
378.24025
300.01213
300.04562
300.10614
300.19799
300.3241
300.48618
300.68447
300.91732
301.18075
301.46671
301.76094
302.06566
302.37331
302.75809
303.91172
306.73259
311.99149
319.14922
326.95967
334.13034
340.67132
347.14974
353.59574
359.92908
365.96347
372.09767
378.78489
385.89993
393.45338
401.63169
300.00029
300.00138
300.00394
300.00879
300.01691
300.02936
300.04732
300.07196
300.10452
300.14631
300.19932
300.27377
300.44104
301.30512
304.8364
312.20093
322.50564
335.61035
349.43234
362.31372
372.96203
381.18564
387.81162
393.31599
398.12075
402.0863
405.28736
408.07478
410.85559
414.91701
325.45506
348.98634
370.28198
389.95626
408.51746
426.26727
443.30371
459.46363
474.45198
488.22337
500.64216
511.45662
520.11199
519.52661
516.39002
510.82024
503.60051
495.82221
488.4403
482.0537
476.92243
473.08166
470.4544
468.92997
468.4113
468.85442
470.30493
472.95646
477.31459
484.26161
300.548
301.58125
302.99472
304.7262
306.7318
308.97729
311.43237
314.33898
318.32077
323.68083
331.30532
341.60094
354.74119
368.79661
382.43823
394.48127
404.33629
411.80303
416.88344
419.77156
420.95988
421.1073
420.84081
420.66713
420.9874
422.17038
424.64583
429.04418
436.5543
448.31183
300.01217
300.04658
300.11043
300.20992
300.35036
300.53621
300.77105
301.06381
301.43695
301.91709
302.58289
304.79863
310.4627
320.10015
332.86115
347.42432
362.10839
375.74571
387.52178
396.96188
403.98442
408.87366
412.12514
414.28515
415.85812
417.29075
419.00175
421.47433
425.53483
432.42761
300.00029
300.00142
300.00416
300.00954
300.01885
300.03367
300.05584
300.08774
300.13281
300.19628
300.29082
300.4986
301.14398
304.70753
314.08964
327.20809
341.10965
354.79679
367.5613
378.79968
388.12886
395.48626
401.08425
405.27535
408.4415
410.93874
413.09866
415.27567
417.99721
422.09855
)
;

boundaryField
{
    maxY
    {
        type            zeroGradient;
    }
    minX
    {
        type            fixedValue;
        value           uniform 300;
    }
    maxX
    {
        type            inletOutlet;
        inletValue      uniform 300;
        value           nonuniform List<scalar> 
40
(
483.93961
447.79669
431.73676
421.17447
451.21057
377.17493
399.44501
412.60732
437.5009
391.66335
407.84482
420.93466
492.55919
419.15171
421.32068
433.5552
536.14401
479.2672
447.35428
441.60191
540.27705
496.07725
463.57607
451.28177
496.32486
421.15
428.08131
439.05912
435.30411
394.97354
414.35158
425.26159
450.1895
378.14792
401.77705
415.27776
484.14383
448.08699
432.29172
422.0135
)
;
    }
    minZ
    {
        type            zeroGradient;
    }
    maxZ
    {
        type            zeroGradient;
    }
    topAir_to_rightSolid
    {
        type            compressible::turbulentTemperatureCoupledBaffleMixed;
        refValue        nonuniform List<scalar> 
130
(
750.38985
758.43319
766.85824
775.22612
783.20246
790.54361
797.10581
802.80427
807.59571
811.46048
814.38957
816.34715
817.32562
744.66377
754.03577
763.62262
772.92214
781.60458
789.45452
796.37593
802.32328
807.28528
811.26805
814.27086
816.26905
817.26642
733.11889
745.54961
757.62968
768.80018
778.81748
787.59414
795.14949
801.53006
806.78678
810.96935
814.09384
816.16101
817.18396
715.82601
734.03926
750.14076
763.96221
775.69594
785.58639
793.86644
800.72441
806.30488
810.70121
813.95219
816.09606
817.16109
695.37116
723.09284
743.9621
760.32288
773.47729
784.20488
792.99964
800.19023
806.00206
810.5376
813.87099
816.06376
817.1535
695.4442
723.13148
743.97241
760.31125
773.4452
784.1584
792.94686
800.14029
805.96912
810.51228
813.85023
816.04572
817.13849
716.09481
734.20588
750.22236
763.976
775.64882
785.49694
793.75466
800.61155
806.21746
810.6363
813.90168
816.05818
817.13482
733.57387
745.88312
757.83885
768.88831
778.79913
787.50594
795.02134
801.38895
806.6645
810.87902
814.02104
816.11171
817.15804
745.26322
754.48286
763.91389
773.06817
781.62234
789.38742
796.25791
802.18759
807.16802
811.19431
814.21592
816.23288
817.24302
751.0782
758.95601
767.20018
775.40942
783.25192
790.50061
797.00696
802.68447
807.49111
811.40638
814.35536
816.32639
817.31393
)
;
        refGradient     uniform 0;
        valueFraction   uniform 0.99967867;
        value           nonuniform List<scalar> 
130
(
750.30783
758.34617
766.76643
775.12994
783.10246
790.44039
797
802.69649
807.48658
811.35062
814.27968
816.23808
817.21849
744.56515
753.93235
763.51501
772.8109
781.49021
789.33754
796.25687
802.20268
807.16368
811.14604
814.14913
816.14863
817.1488
733.0273
745.45122
757.52497
768.68985
778.70232
787.47504
795.02737
801.40579
806.66118
810.84315
813.96776
816.03609
817.06196
715.75761
733.96502
750.06089
763.87689
775.60541
785.49101
793.76667
800.62079
806.19812
810.59245
813.84316
815.98877
817.05678
695.31126
723.02521
743.88898
760.24564
773.39676
784.12155
792.9138
800.10209
805.91186
810.44579
813.77833
815.97144
817.0632
695.38436
723.064
743.89954
760.23439
773.36522
784.07582
792.86195
800.05322
805.88007
810.42164
813.75875
815.95461
817.04953
716.027
734.13247
750.14364
763.89221
775.56017
785.40364
793.65698
800.50986
806.1124
810.52901
813.79394
815.95195
817.03174
733.48271
745.78517
757.73461
768.77844
778.68438
787.38711
794.8993
801.26458
806.53863
810.75246
813.89457
815.98636
817.03534
745.16467
754.37956
763.80648
772.9572
781.5083
789.27079
796.13916
802.0672
807.04652
811.07225
814.094
816.11209
817.12507
750.99618
758.86909
767.10855
775.31351
783.15226
790.39777
796.90154
802.57705
807.38229
811.29677
814.24563
816.21742
817.20687
)
;
        Tnbr            T;
        thicknessLayers List<scalar> 0();
        kappaLayers     List<scalar> 0();
        kappaMethod     fluidThermo;
        kappa           none;
        alphaAni        none;
        alpha           none;
        field           T;
    }
    topAir_to_heater
    {
        type            compressible::turbulentTemperatureCoupledBaffleMixed;
        refValue        nonuniform List<scalar> 
40
(
731.49973
733.54314
737.53901
743.25473
722.19833
724.61499
729.36423
736.19313
702.66701
705.79614
712.09241
721.42477
670.85191
674.78165
683.23692
696.98998
624.16931
627.79207
637.23455
656.30003
624.20967
627.85433
637.32234
656.39245
671.02775
675.03054
683.58448
697.34814
703.05261
706.23923
712.60842
721.96183
722.75388
725.21289
730.01509
736.86953
732.14919
734.23942
738.2834
744.02449
)
;
        refGradient     uniform 0;
        valueFraction   uniform 0.99967867;
        value           nonuniform List<scalar> 
40
(
731.43158
733.47328
737.46602
743.17753
722.12123
724.5332
729.2768
736.09992
702.59956
705.724
712.01437
721.34014
670.7994
674.7266
683.17865
696.92738
624.13111
627.75197
637.19168
656.25169
624.17155
627.81423
637.27941
656.3441
670.97548
674.9758
683.52658
697.28599
702.98529
706.16737
712.53076
721.87761
722.67677
725.13114
729.92772
736.77638
732.08087
734.16942
738.21031
743.94724
)
;
        Tnbr            T;
        thicknessLayers List<scalar> 0();
        kappaLayers     List<scalar> 0();
        kappaMethod     fluidThermo;
        kappa           none;
        alphaAni        none;
        alpha           none;
        field           T;
    }
    topAir_to_leftSolid
    {
        type            compressible::turbulentTemperatureCoupledBaffleMixed;
        refValue        nonuniform List<scalar> 
130
(
926.35152
926.30636
926.21069
926.05981
925.85136
925.58568
925.26528
924.89203
924.47958
924.08088
923.73571
923.44854
923.28781
926.33666
926.29138
926.19398
926.0401
925.82716
925.55487
925.22928
924.85654
924.45482
924.0577
923.68911
923.38477
923.21123
926.30148
926.25322
926.15264
925.99506
925.77238
925.48116
925.14515
924.79063
924.40359
924.03274
923.65772
923.36393
923.19239
926.24593
926.19514
926.09266
925.93154
925.70716
925.41632
925.0885
924.75295
924.40257
924.04715
923.71324
923.45092
923.25999
926.18637
926.13344
926.02104
925.84339
925.62019
925.35864
925.0653
924.75038
924.41881
924.07714
923.75354
923.46447
923.25656
926.12408
926.06752
925.96104
925.81383
925.62566
925.39557
925.12058
924.80712
924.47626
924.13933
923.81171
923.51671
923.33144
926.09875
926.05118
925.96049
925.8297
925.65949
925.45499
925.21839
924.93799
924.6235
924.29997
923.99514
923.69983
923.53787
926.13656
926.09078
926.00018
925.86417
925.68919
925.48677
925.26975
925.0251
924.7778
924.50914
924.23426
923.981
923.81785
926.20837
926.16332
926.07292
925.93097
925.72298
925.50671
925.29799
925.08382
924.87315
924.65678
924.43088
924.21617
924.06552
926.26768
926.2264
926.13261
925.97083
925.72926
925.50658
925.29837
925.10017
924.91263
924.72669
924.53774
924.35683
924.21596
)
;
        refGradient     uniform 0;
        valueFraction   uniform 0.99967867;
        value           nonuniform List<scalar> 
130
(
926.15844
926.12085
926.03206
925.88755
925.68514
925.42525
925.11043
924.74249
924.33499
923.94085
923.59977
923.31617
923.15825
926.14358
926.10579
926.01511
925.86736
925.66013
925.3932
925.07263
924.70454
924.30705
923.91357
923.54788
923.24546
923.07258
926.10841
926.06766
925.97381
925.82239
925.60546
925.31964
924.98872
924.63899
924.25641
923.88959
923.51805
923.22692
923.05681
926.05288
926.0096
925.91386
925.75893
925.54033
925.25496
924.93234
924.60174
924.25608
923.9051
923.57526
923.31641
923.12791
925.99333
925.94792
925.84227
925.67082
925.4534
925.19732
924.90919
924.59923
924.27237
923.93513
923.61553
923.32974
923.12393
925.93107
925.88202
925.78229
925.64126
925.45886
925.23423
924.96444
924.65594
924.3298
923.99731
923.67371
923.38201
923.19891
925.90574
925.86568
925.78173
925.65712
925.49267
925.29361
925.06218
924.78672
924.47693
924.15785
923.85711
923.56532
923.40585
925.94354
925.90526
925.8214
925.69154
925.52228
925.32523
925.11327
924.87338
924.63049
924.36583
924.09442
923.84385
923.6822
926.01533
925.97777
925.89408
925.75826
925.55598
925.34504
925.14131
924.93175
924.72523
924.51246
924.28942
924.07663
923.92669
926.07463
926.04092
925.954
925.7986
925.56307
925.34617
925.14349
924.95055
924.76789
924.58644
924.40153
924.22416
924.08611
)
;
        Tnbr            T;
        thicknessLayers List<scalar> 0();
        kappaLayers     List<scalar> 0();
        kappaMethod     fluidThermo;
        kappa           none;
        alphaAni        none;
        alpha           none;
        field           T;
    }
}


// ************************************************************************* //
