/*--------------------------------*- C++ -*----------------------------------*\
| =========                 |                                                 |
| \\      /  F ield         | OpenFOAM: The Open Source CFD Toolbox           |
|  \\    /   O peration     | Version:  v2012                                 |
|   \\  /    A nd           | Website:  www.openfoam.com                      |
|    \\/     M anipulation  |                                                 |
\*---------------------------------------------------------------------------*/
FoamFile
{
    version     2.0;
    format      ascii;
    class       volVectorField;
    location    "700/topAir";
    object      U;
}
// * * * * * * * * * * * * * * * * * * * * * * * * * * * * * * * * * * * * * //

dimensions      [0 1 -1 0 0 0 0];


internalField   nonuniform List<vector> 
1200
(
(0.10470419 -0.0024833422 0.00088376453)
(0.118627 -0.0025545159 0.0013276031)
(0.1305694 -0.0023238543 0.0014095843)
(0.13988385 -0.0017526625 0.0012700844)
(0.14801308 -0.00090580354 0.00092255222)
(0.15560638 4.1048617e-05 0.00032477059)
(0.1629276 0.00098332704 -0.00055742665)
(0.17024024 0.0018556605 -0.0018796757)
(0.17774763 0.0027582997 -0.0039170388)
(0.18577465 0.0038747567 -0.0069960152)
(0.19450071 0.0055457327 -0.011537182)
(0.20358663 0.008164214 -0.017969022)
(0.2114428 0.012144979 -0.026548129)
(0.21642174 0.016845743 -0.03706007)
(0.21858981 0.022089762 -0.048618537)
(0.21857263 0.02713767 -0.059949808)
(0.21659482 0.031395323 -0.069873442)
(0.21288356 0.034567096 -0.07771636)
(0.20801662 0.036542687 -0.083338917)
(0.20289366 0.037339518 -0.086937506)
(0.19843184 0.037140821 -0.088840395)
(0.19524327 0.036244168 -0.089381925)
(0.19352087 0.034938127 -0.088845241)
(0.19312435 0.033444671 -0.087453515)
(0.19371091 0.031932367 -0.085354556)
(0.19474288 0.030615246 -0.082553055)
(0.19525213 0.029889397 -0.078818804)
(0.19334605 0.03058099 -0.073596254)
(0.18561028 0.034643317 -0.065923099)
(0.14468488 0.048030323 -0.053794015)
(0.09868609 -0.0039259281 0.00085518143)
(0.098453989 -0.0047376219 0.0012919763)
(0.098884069 -0.0047784045 0.0014770541)
(0.099781123 -0.0042992579 0.0015619987)
(0.10122245 -0.0034937854 0.0015733462)
(0.10323801 -0.0026152711 0.0014952732)
(0.10580826 -0.0018334381 0.0013011575)
(0.10909991 -0.0012061735 0.00093106141)
(0.11361021 -0.00041361312 0.00025676984)
(0.11985938 0.00091887858 -0.00089758262)
(0.12884568 0.0036474208 -0.0028548577)
(0.14092687 0.0088590935 -0.0060103145)
(0.15576099 0.017418898 -0.01087933)
(0.17140166 0.028189121 -0.017526752)
(0.1856867 0.040515211 -0.025422556)
(0.19686079 0.053026596 -0.033571974)
(0.20383809 0.064636377 -0.041068251)
(0.2064185 0.074408363 -0.047459333)
(0.20538228 0.08157134 -0.052616599)
(0.2022052 0.085747765 -0.056533316)
(0.19844924 0.087210887 -0.059228611)
(0.19517423 0.086691318 -0.060724069)
(0.1928163 0.084942716 -0.06110107)
(0.19140611 0.082518713 -0.060494613)
(0.19079058 0.079727733 -0.059009233)
(0.19067803 0.076902668 -0.05656947)
(0.19043584 0.07475165 -0.052772963)
(0.18879488 0.074827865 -0.046713463)
(0.18443363 0.080429952 -0.036409096)
(0.15723373 0.096442722 -0.017163057)
(0.09881066 -0.0029303257 0.00088235344)
(0.097936115 -0.0042402752 0.0013403292)
(0.096266245 -0.0046497796 0.0015469948)
(0.094176019 -0.0047410076 0.001673249)
(0.09213167 -0.0047056679 0.001771384)
(0.090313075 -0.0046322449 0.0018531277)
(0.088705459 -0.0046274374 0.0019358085)
(0.087242141 -0.0047356898 0.0020608214)
(0.08598 -0.0047926753 0.0022948247)
(0.085243111 -0.0047104199 0.0026723131)
(0.085591061 -0.0042360055 0.0031216648)
(0.089169789 -0.0018033619 0.0032127691)
(0.099516763 0.0057624451 0.0022385793)
(0.11570505 0.019417431 6.1997237e-05)
(0.13455149 0.037009794 -0.0029942852)
(0.15258807 0.055608356 -0.0060475077)
(0.16697213 0.072376259 -0.0085979041)
(0.17656431 0.086204727 -0.010573261)
(0.18182399 0.096559292 -0.012241016)
(0.18418879 0.10326954 -0.013850385)
(0.18518513 0.10652846 -0.015469924)
(0.18570772 0.10685937 -0.016810192)
(0.18598925 0.10497443 -0.017540196)
(0.18592088 0.10153535 -0.017593768)
(0.18536095 0.097035782 -0.017048912)
(0.18427369 0.091903283 -0.015808518)
(0.18255997 0.086860404 -0.013493657)
(0.17992195 0.083508428 -0.009453085)
(0.17679265 0.085464702 -0.0026088791)
(0.16040114 0.098878851 0.010039123)
(0.096855774 -0.0015612061 0.00084769679)
(0.094618217 -0.0023060119 0.0012672544)
(0.090868612 -0.002532516 0.0014349206)
(0.086276474 -0.0025636179 0.0015200986)
(0.081661941 -0.002502016 0.0015789095)
(0.077267667 -0.0023797979 0.0016272845)
(0.073053229 -0.0022384955 0.0016887986)
(0.068917044 -0.0021185592 0.0018087233)
(0.064724284 -0.002063863 0.0020634812)
(0.060250862 -0.0022625543 0.0025697655)
(0.055060974 -0.0032517213 0.0035511895)
(0.048706796 -0.0051017099 0.0054575978)
(0.040496141 -0.0057407313 0.0089964835)
(0.036359377 0.0014220859 0.013915324)
(0.044063275 0.017724867 0.019558089)
(0.059833237 0.035379621 0.025657107)
(0.076493123 0.050186678 0.031492462)
(0.091162419 0.062131392 0.036764124)
(0.10364754 0.07127846 0.040999531)
(0.11465899 0.077587574 0.043876196)
(0.12467421 0.081040886 0.04559449)
(0.13366406 0.081788967 0.046387615)
(0.14129097 0.080279409 0.04647339)
(0.14715237 0.077058173 0.046076332)
(0.15103371 0.072671484 0.045397415)
(0.15305741 0.067605868 0.044663994)
(0.15368487 0.062507406 0.044154709)
(0.15397652 0.0585931 0.04387146)
(0.15785519 0.05860643 0.043450317)
(0.17739195 0.068219044 0.043002781)
(0.10596619 -0.0024846142 0.0010230886)
(0.12074347 -0.0025661714 0.0014327508)
(0.13393633 -0.0024266899 0.0014395511)
(0.14458651 -0.0020436647 0.001213699)
(0.15385505 -0.0014881483 0.0007740516)
(0.1623238 -0.0009426275 7.6732053e-05)
(0.17001984 -0.00055298289 -0.00093886909)
(0.17685524 -0.00039590909 -0.0024457377)
(0.18279436 -0.00053663125 -0.0047042289)
(0.1878167 -0.0010540889 -0.0080089485)
(0.19185786 -0.00208595 -0.012716728)
(0.1948271 -0.0037845347 -0.019103969)
(0.19612688 -0.006297951 -0.02712865)
(0.19549641 -0.0103196 -0.036015681)
(0.19467153 -0.014970139 -0.044469864)
(0.19493685 -0.019247976 -0.051459907)
(0.19598531 -0.022153163 -0.056781705)
(0.19676624 -0.023429244 -0.060788211)
(0.19658354 -0.023586653 -0.063795209)
(0.19549257 -0.023371409 -0.065912305)
(0.194067 -0.023227228 -0.067193457)
(0.192925 -0.023185635 -0.067685692)
(0.19241779 -0.023152761 -0.067430616)
(0.19261225 -0.023072473 -0.066483246)
(0.19347102 -0.022937582 -0.064881874)
(0.19499562 -0.022630644 -0.062560991)
(0.19714399 -0.021720868 -0.05922862)
(0.19965889 -0.019035383 -0.05431171)
(0.20184198 -0.011057986 -0.047075477)
(0.19316852 0.01231224 -0.037280225)
(0.09997484 -0.003937536 0.0010786426)
(0.10068172 -0.0047851719 0.0016421108)
(0.10249216 -0.0049654522 0.0018551276)
(0.10494017 -0.0047455033 0.0019132724)
(0.10783902 -0.0043222119 0.0018580119)
(0.1111263 -0.0039485838 0.0016655503)
(0.1147103 -0.0038204423 0.0012896148)
(0.11851369 -0.0040590955 0.00065055656)
(0.12253056 -0.0047909605 -0.00037825239)
(0.12672756 -0.0061989656 -0.0019540141)
(0.1311259 -0.0085528349 -0.0042440797)
(0.13583183 -0.012142453 -0.0074241526)
(0.14101906 -0.017293101 -0.011537799)
(0.14665418 -0.024630855 -0.015941541)
(0.15266322 -0.032460015 -0.019491782)
(0.15866963 -0.038435023 -0.021446688)
(0.16400624 -0.040628285 -0.022154143)
(0.16767763 -0.039038358 -0.0228552)
(0.16923461 -0.035265849 -0.02428683)
(0.16911022 -0.03120981 -0.026402153)
(0.1682666 -0.027963909 -0.028723766)
(0.16748156 -0.025533616 -0.030756611)
(0.16696762 -0.023616305 -0.03206743)
(0.16668568 -0.022128429 -0.032342077)
(0.16672907 -0.021365221 -0.031290456)
(0.16761403 -0.021541986 -0.028587191)
(0.17043077 -0.022509057 -0.023720238)
(0.17748258 -0.023469563 -0.015794712)
(0.19455497 -0.022515503 -0.0033294021)
(0.25272353 -0.013271422 0.011933496)
(0.10011021 -0.0029583113 0.0010995072)
(0.10019062 -0.0042930098 0.0016905046)
(0.099967478 -0.0047457179 0.0019521681)
(0.099582088 -0.0049142439 0.0020890798)
(0.099248111 -0.0049947903 0.0021609968)
(0.099080067 -0.005074946 0.0021674968)
(0.099091108 -0.0052430631 0.0021039356)
(0.099261797 -0.0056002082 0.0019775277)
(0.099586238 -0.0062885282 0.0018052385)
(0.10009374 -0.007569125 0.0015584521)
(0.10089607 -0.0098028452 0.0010835867)
(0.102203 -0.013501728 0.00012898387)
(0.10424084 -0.019427517 -0.0012304436)
(0.10708136 -0.028034202 -0.0020935984)
(0.11067675 -0.037219383 -0.00083264191)
(0.11463303 -0.043568245 0.0043748572)
(0.12005814 -0.043673186 0.013325327)
(0.12562309 -0.0387661 0.021895164)
(0.12996158 -0.032098005 0.027931272)
(0.13269394 -0.026819407 0.030924167)
(0.13409037 -0.023328528 0.032446502)
(0.13541341 -0.020975355 0.034120493)
(0.13754068 -0.019777553 0.036139837)
(0.14041715 -0.01935185 0.038841969)
(0.14295975 -0.019953522 0.041455024)
(0.1444248 -0.021573922 0.043547625)
(0.14568168 -0.024039783 0.045088899)
(0.14812561 -0.027665771 0.046630101)
(0.15590432 -0.032387496 0.050297339)
(0.18634229 -0.037967363 0.05429884)
(0.098099152 -0.0015881354 0.0010742092)
(0.096758517 -0.0023624113 0.0016460454)
(0.094384243 -0.0026220401 0.00189324)
(0.09141778 -0.002699198 0.0020124213)
(0.088434125 -0.0026998927 0.002063007)
(0.085622921 -0.0026585316 0.0020483403)
(0.082981574 -0.0026189829 0.0019695388)
(0.080477075 -0.0026395229 0.0018372668)
(0.078064607 -0.0028051368 0.0016782202)
(0.075687217 -0.003270825 0.0015330436)
(0.073249768 -0.0043208668 0.0014505714)
(0.070546711 -0.006477087 0.0015008715)
(0.06718798 -0.010490613 0.001578517)
(0.06292263 -0.016556761 0.0016010588)
(0.057865336 -0.021512163 0.0043354704)
(0.054294153 -0.019893142 0.016668607)
(0.057374398 -0.0099042016 0.042843117)
(0.061209157 0.0040422448 0.066924864)
(0.065565128 0.017467409 0.084583609)
(0.071757549 0.027824373 0.096654595)
(0.080141489 0.034340338 0.10388879)
(0.089283215 0.036663082 0.10706224)
(0.097436914 0.03598931 0.10788763)
(0.10399865 0.033303901 0.10702854)
(0.1087638 0.029398416 0.10456896)
(0.11219852 0.02421441 0.099825512)
(0.11447909 0.018265835 0.092999781)
(0.11632803 0.011668483 0.084903822)
(0.12315612 0.0050217806 0.077466738)
(0.15475318 -5.790887e-05 0.064845019)
(0.10584025 -0.0025051834 0.00038078941)
(0.1204181 -0.0025847092 0.00062715818)
(0.13352094 -0.0024183501 0.00073401678)
(0.14419132 -0.0019865562 0.00074586427)
(0.15352693 -0.001371135 0.00068854683)
(0.16202636 -0.00076402379 0.0005642257)
(0.16970142 -0.00027980987 0.00034321605)
(0.17653217 5.2002632e-05 2.4702659e-06)
(0.18254083 0.00020399778 -0.00047196911)
(0.18770355 0.0001221241 -0.0011032041)
(0.19195764 -0.00028251125 -0.0019019005)
(0.19521793 -0.0011679567 -0.0028148568)
(0.19685885 -0.0027884155 -0.003633412)
(0.19660905 -0.0060055026 -0.0039425893)
(0.19606702 -0.0097510487 -0.003362872)
(0.19578512 -0.013239715 -0.0022944746)
(0.19488455 -0.016455036 -0.0017881084)
(0.19273833 -0.019759756 -0.0026082349)
(0.18961153 -0.023177728 -0.0047978178)
(0.18611858 -0.026603469 -0.0078937911)
(0.18283403 -0.029917595 -0.011281153)
(0.18017574 -0.032907801 -0.01437345)
(0.17825174 -0.035312523 -0.016737267)
(0.1768665 -0.036993825 -0.01820795)
(0.17579032 -0.038027753 -0.018768132)
(0.17503112 -0.038703192 -0.018297622)
(0.1751058 -0.039306939 -0.016684193)
(0.17732478 -0.039222322 -0.014877734)
(0.18298088 -0.034590246 -0.016027394)
(0.18970646 -0.01645045 -0.021398651)
(0.099852741 -0.0039503556 0.00037878283)
(0.10032875 -0.0047854494 0.0006476476)
(0.10201316 -0.004922871 0.00077828602)
(0.10444934 -0.0046331612 0.0008081322)
(0.10736741 -0.0041233214 0.00075054604)
(0.11064307 -0.0036509441 0.00058797792)
(0.11415273 -0.0033648682 0.0002856048)
(0.117802 -0.0033232788 -0.00020010656)
(0.12154067 -0.0036117931 -0.00092497938)
(0.12535867 -0.0043795634 -0.0019749096)
(0.12930475 -0.0058811144 -0.0034136215)
(0.13353901 -0.0085679789 -0.0052353829)
(0.1383945 -0.013103456 -0.007220053)
(0.14384591 -0.020102829 -0.0087895942)
(0.14927226 -0.026508943 -0.0097863569)
(0.15336811 -0.030310139 -0.011573511)
(0.15483276 -0.03224047 -0.015461635)
(0.1537268 -0.034002079 -0.021213428)
(0.15118166 -0.035702812 -0.02789758)
(0.1480255 -0.037281415 -0.03446251)
(0.1446509 -0.038881836 -0.039993756)
(0.14128254 -0.040455618 -0.04388606)
(0.13791222 -0.041713145 -0.045857936)
(0.1342978 -0.042523927 -0.045953696)
(0.13028096 -0.04324708 -0.044152542)
(0.12605323 -0.044856677 -0.040023802)
(0.12335015 -0.048294835 -0.033322544)
(0.12716084 -0.052550735 -0.027159845)
(0.14418922 -0.050715938 -0.032394474)
(0.19669395 -0.033086429 -0.052355754)
(0.099992657 -0.0029533399 0.00038369797)
(0.099853637 -0.0042814769 0.00065928063)
(0.099512175 -0.0047136098 0.00080551264)
(0.099125959 -0.0048493188 0.00085627168)
(0.098837245 -0.0048843663 0.0008220529)
(0.098710492 -0.0048990557 0.00068348559)
(0.098730194 -0.0049648321 0.00040373857)
(0.09885009 -0.0051632581 -7.0553787e-05)
(0.099037311 -0.0056226614 -0.00082006527)
(0.099278063 -0.0065561529 -0.0019435339)
(0.099546497 -0.0083708933 -0.0035668706)
(0.099887764 -0.011827735 -0.0058313171)
(0.10060812 -0.018159357 -0.0086655135)
(0.10164217 -0.027431645 -0.011390487)
(0.10197658 -0.034024253 -0.013426924)
(0.10040784 -0.034947575 -0.016264068)
(0.095901206 -0.032477175 -0.020923047)
(0.090534391 -0.031114204 -0.024862978)
(0.085772529 -0.030958471 -0.029476183)
(0.081336928 -0.031962855 -0.034834546)
(0.076415931 -0.034119451 -0.039052871)
(0.071236513 -0.036832658 -0.040797768)
(0.06644323 -0.039336736 -0.039693651)
(0.062466484 -0.041512159 -0.035816705)
(0.059713863 -0.043804507 -0.028687402)
(0.058360561 -0.047279238 -0.017951723)
(0.059713874 -0.05314738 -0.0054892993)
(0.068722762 -0.061214134 0.00064960657)
(0.083130038 -0.065048236 -0.019171534)
(0.1217692 -0.057189408 -0.061537146)
(0.097984137 -0.0015831934 0.00037402839)
(0.096427982 -0.0023522867 0.00063772346)
(0.093937621 -0.0026035954 0.00077354019)
(0.090969675 -0.0026702788 0.00081484696)
(0.088029117 -0.0026576951 0.00077184981)
(0.085254048 -0.0025979844 0.00062440178)
(0.08261006 -0.0025315413 0.00033243195)
(0.080032431 -0.0025111458 -0.0001670834)
(0.077451965 -0.0026118621 -0.00097221442)
(0.074737622 -0.0029690611 -0.0022247553)
(0.071591341 -0.0038907735 -0.0041963288)
(0.067444231 -0.0060967843 -0.0074288192)
(0.061334184 -0.011329303 -0.013062367)
(0.051142304 -0.020384095 -0.022473621)
(0.034674375 -0.023536158 -0.033285379)
(0.018579725 -0.017435913 -0.038461747)
(0.0074289856 -0.009433362 -0.029942224)
(0.021078436 -0.0063140025 0.010381796)
(0.025175433 0.0020070342 0.044456647)
(0.031466429 0.010088639 0.064759144)
(0.039448321 0.01561685 0.076059834)
(0.04751165 0.0179433 0.081473146)
(0.054350605 0.017558721 0.08320158)
(0.059068488 0.014901716 0.082267894)
(0.060588572 0.010113102 0.078933892)
(0.058348799 0.0027494693 0.072796516)
(0.05430506 -0.0073257906 0.063603374)
(0.052993667 -0.020390658 0.046695461)
(0.04432631 -0.025826266 -0.0065606993)
(0.060957474 -0.011619607 -0.083103872)
(0.10581057 -0.0025065703 0.00022265703)
(0.12030978 -0.0025814488 0.00039902248)
(0.1333275 -0.0024007877 0.00051045406)
(0.14393366 -0.0019389378 0.00056148606)
(0.15323405 -0.0012676519 0.00056010345)
(0.16174025 -0.00056550178 0.00050864559)
(0.16950479 6.8552735e-05 0.00040778883)
(0.17653213 0.00061311064 0.00026685411)
(0.18287754 0.0010659109 8.425161e-05)
(0.18863457 0.0014194735 -0.0001271042)
(0.19394761 0.0016256207 -0.00029884717)
(0.19905073 0.0015579217 -0.00024586638)
(0.20374662 0.0010618494 0.0005002962)
(0.20808285 2.4595503e-06 0.0026538909)
(0.21317955 0.00032479327 0.0062246052)
(0.21833451 0.0015564996 0.010520078)
(0.22213703 0.0025902962 0.014963922)
(0.22421919 0.0028421044 0.019421022)
(0.22505673 0.0021600207 0.023897464)
(0.22518886 0.0005909224 0.028338208)
(0.2249967 -0.0016459938 0.032671994)
(0.22462003 -0.0042094913 0.036919283)
(0.22384553 -0.0067941691 0.041129489)
(0.22231839 -0.0093182164 0.045148224)
(0.22003632 -0.011720446 0.048576423)
(0.21749874 -0.013338352 0.05086186)
(0.21510749 -0.012697921 0.051237423)
(0.21182658 -0.0081774461 0.048766339)
(0.20274768 0.0023392026 0.040534792)
(0.14328521 0.03048966 0.020028083)
(0.099823139 -0.0039518466 0.00022515381)
(0.10020075 -0.0047807011 0.00041590363)
(0.10175692 -0.0048971094 0.00053885371)
(0.10407046 -0.0045632575 0.00059177026)
(0.1068709 -0.0039729936 0.0005776599)
(0.11002244 -0.0033657724 0.00049022417)
(0.11339721 -0.0028682641 0.00031398397)
(0.11689255 -0.0025232334 2.7281651e-05)
(0.12047523 -0.0023831001 -0.00040001329)
(0.12419827 -0.0025673646 -0.00098989383)
(0.12825381 -0.0033710698 -0.0017150768)
(0.13311108 -0.005384026 -0.0023904992)
(0.13957504 -0.0092725307 -0.0024609014)
(0.14783997 -0.013417363 -0.001028768)
(0.15678394 -0.012525207 0.001095765)
(0.16378667 -0.0089109041 0.0022999103)
(0.16791673 -0.0059517886 0.0019103409)
(0.16960405 -0.005149439 0.00012345225)
(0.16947616 -0.0066034965 -0.0029003847)
(0.1679943 -0.0095768855 -0.0069146737)
(0.16566792 -0.013263291 -0.011271068)
(0.16276618 -0.016932821 -0.014928028)
(0.15916403 -0.019954411 -0.017019131)
(0.15447525 -0.022400468 -0.017176297)
(0.14873308 -0.025015 -0.015533748)
(0.143479 -0.027540049 -0.01361235)
(0.1427266 -0.026678633 -0.015669234)
(0.14825216 -0.017111571 -0.023393024)
(0.16298389 0.0060993908 -0.036341588)
(0.17179962 0.045903079 -0.052286421)
(0.0999642 -0.0029506947 0.00022632876)
(0.099729682 -0.0042757977 0.00041763104)
(0.099257143 -0.0046989133 0.00054455628)
(0.098735429 -0.004816386 0.00060178197)
(0.098304636 -0.0048200805 0.00058774885)
(0.098012346 -0.004782895 0.00049005179)
(0.097826148 -0.0047659826 0.00028346941)
(0.097671818 -0.0048415421 -6.9623922e-05)
(0.097486913 -0.0051299252 -0.00062146077)
(0.097225827 -0.0058873401 -0.001455507)
(0.096906156 -0.0076815691 -0.0026584867)
(0.096884868 -0.011707658 -0.0041942981)
(0.098000191 -0.019864586 -0.0055255474)
(0.099619959 -0.027998027 -0.0050400875)
(0.10256582 -0.025678889 -0.002574865)
(0.10258083 -0.019666253 -0.00094387019)
(0.097062045 -0.01429204 -0.0026222991)
(0.088783904 -0.011391036 -0.007268502)
(0.079051914 -0.012703823 -0.013828814)
(0.069392924 -0.017013077 -0.02032782)
(0.0602571 -0.022447381 -0.02485805)
(0.051546655 -0.027513529 -0.026123645)
(0.04340846 -0.031215994 -0.023223455)
(0.036943936 -0.034366591 -0.015947726)
(0.032104808 -0.038542336 -0.0062665422)
(0.030124087 -0.043615892 -0.0028541314)
(0.038336054 -0.042452736 -0.018262616)
(0.057647935 -0.030695275 -0.039742657)
(0.082794068 -0.010106012 -0.060858635)
(0.10149056 0.025007947 -0.084104413)
(0.097956204 -0.0015848638 0.00022048224)
(0.096307003 -0.0023560862 0.00040386187)
(0.09368819 -0.0026071895 0.00052251917)
(0.090585107 -0.0026700912 0.0005708465)
(0.087499455 -0.002648939 0.00054606672)
(0.084547531 -0.0025735715 0.00043323755)
(0.081663316 -0.0024822081 0.00020060245)
(0.078730477 -0.0024300177 -0.00020475563)
(0.075586378 -0.002500917 -0.00087609541)
(0.071925671 -0.0028818684 -0.002001416)
(0.067132525 -0.0040443491 -0.0039299176)
(0.059914036 -0.0073157288 -0.0073602188)
(0.048492062 -0.016144866 -0.013886724)
(0.026628805 -0.024556017 -0.024350438)
(-0.0053669894 -0.010732674 -0.030678164)
(-0.027952592 0.002303361 -0.026871604)
(-0.042523631 0.0042569484 -0.021187041)
(-0.046477771 0.0026525496 -0.010657022)
(-0.03261703 -0.00051618406 0.010283875)
(-0.023084175 -0.00052651084 0.027097031)
(-0.012224487 -0.00022170683 0.036945171)
(-0.0031173813 -0.00089744666 0.041991005)
(0.0034605489 -0.0031580369 0.044084096)
(0.0060638786 -0.0074748147 0.043995246)
(0.0052311499 -0.014046034 0.042428209)
(-0.0046199522 -0.025607243 0.029146283)
(-0.020904105 -0.028302026 -0.010722327)
(-0.026170769 -0.010115803 -0.056347556)
(-0.013941962 0.015480214 -0.084911745)
(0.01571476 0.041536426 -0.10637293)
(0.10579398 -0.0025101545 8.6949018e-05)
(0.1202525 -0.0025878929 0.00015371875)
(0.13322257 -0.0024090518 0.00019828742)
(0.14378629 -0.0019474236 0.00022396379)
(0.15305162 -0.0012739479 0.00023521723)
(0.16152545 -0.00056781796 0.00023480393)
(0.16925228 6.941888e-05 0.0002244844)
(0.17623063 0.00061299381 0.00020170601)
(0.18252314 0.0010584578 0.00016554278)
(0.18824284 0.0013737212 0.00012263557)
(0.19358449 0.0014653952 9.4369055e-05)
(0.19899083 0.0011677383 0.00014638201)
(0.20465002 0.00050391542 0.00046884102)
(0.21077113 0.00027557344 0.0013116809)
(0.21736054 0.0012726817 0.0025481266)
(0.22348916 0.0025844855 0.0038444762)
(0.22827123 0.0039203749 0.0051744363)
(0.23210177 0.0055457785 0.0068629267)
(0.2356657 0.0074092814 0.0092719264)
(0.23952857 0.0092818465 0.012674782)
(0.24406 0.010989779 0.017239798)
(0.24916406 0.012768797 0.022986227)
(0.25403146 0.014879336 0.02971954)
(0.25745302 0.017245693 0.037035916)
(0.25835319 0.019746558 0.044271615)
(0.2557214 0.022585498 0.050368307)
(0.24803755 0.026446894 0.053810062)
(0.23240233 0.032810348 0.052708452)
(0.2051535 0.043998927 0.044424364)
(0.11189998 0.069218663 0.026708294)
(0.099805965 -0.0039556394 8.7977156e-05)
(0.10013308 -0.0047872553 0.0001600647)
(0.10162196 -0.0049040475 0.00020933621)
(0.10386841 -0.0045673236 0.00023662825)
(0.10660261 -0.0039703002 0.00024427716)
(0.10967933 -0.0033537636 0.00023224156)
(0.11296106 -0.0028488972 0.00019687799)
(0.11634537 -0.0025067438 0.00013188919)
(0.11979909 -0.0023916443 3.4228911e-05)
(0.12340312 -0.0026893764 -9.6558258e-05)
(0.12747975 -0.0038280974 -0.00023426863)
(0.13284695 -0.006570373 -0.00027876586)
(0.14058512 -0.011013925 1.4008167e-05)
(0.15067291 -0.010872054 0.0010391399)
(0.16009331 -0.0067248589 0.0019793138)
(0.16715011 -0.002564637 0.0021793032)
(0.17302693 0.00031491367 0.0018941344)
(0.1787841 0.0021253663 0.0016374524)
(0.1841909 0.0031171568 0.0015749642)
(0.1899184 0.0037196734 0.0017418849)
(0.19585245 0.0046739329 0.0020936989)
(0.20283338 0.0070934401 0.0028913421)
(0.21232349 0.012527297 0.0046417128)
(0.221524 0.020880583 0.0073680645)
(0.22949096 0.031029384 0.010964949)
(0.23494039 0.042076677 0.014583152)
(0.235573 0.054395907 0.01651771)
(0.22763775 0.069397497 0.014630328)
(0.20938471 0.089432031 0.0063366179)
(0.14205894 0.12097501 -0.011163931)
(0.09994692 -0.0029510164 8.7759556e-05)
(0.099661736 -0.004277126 0.00015912345)
(0.099118394 -0.0046997503 0.0002086898)
(0.098519834 -0.0048146385 0.00023633311)
(0.098004748 -0.0048141772 0.00024265587)
(0.097607266 -0.0047725484 0.00022538034)
(0.097277435 -0.0047546596 0.0001766254)
(0.096929852 -0.0048415702 8.3793811e-05)
(0.096461797 -0.005186699 -6.6871035e-05)
(0.095784782 -0.0061400688 -0.00030080949)
(0.094993045 -0.0085167222 -0.0006377814)
(0.09497868 -0.014101213 -0.0010642108)
(0.096331047 -0.02525749 -0.0015464198)
(0.099696963 -0.024228284 -0.00079384333)
(0.10414873 -0.017279666 0.00088687574)
(0.10305503 -0.01077164 0.00070964687)
(0.099036743 -0.0050717621 -0.00074787416)
(0.091854383 -0.00072769585 -0.0028647866)
(0.084352808 0.00085874146 -0.0053846293)
(0.074469207 -0.0010244949 -0.0086750594)
(0.062512942 -0.0052042471 -0.012173273)
(0.050608744 -0.0091501904 -0.014627763)
(0.041387749 -0.010078948 -0.015239728)
(0.049277854 -0.0059369856 -0.013866869)
(0.070999484 0.0029134159 -0.012588698)
(0.10355356 0.018114389 -0.0122369)
(0.12738936 0.035463205 -0.013056439)
(0.14067777 0.056028575 -0.017370132)
(0.14458242 0.083066098 -0.026489571)
(0.11309566 0.12133844 -0.039125704)
(0.097939004 -0.0015847542 8.5486726e-05)
(0.096239505 -0.0023559454 0.00015372271)
(0.093549497 -0.0026063373 0.00019976363)
(0.090366432 -0.0026678049 0.00022320291)
(0.087188828 -0.0026449244 0.00022385627)
(0.084115136 -0.0025682859 0.00019859534)
(0.081054068 -0.0024783237 0.00013589394)
(0.077847477 -0.0024346017 1.6812897e-05)
(0.074225475 -0.0025481724 -0.00019285847)
(0.069664716 -0.0030761759 -0.00056628602)
(0.063074096 -0.004735096 -0.0012574603)
(0.051959067 -0.0097798966 -0.0026750287)
(0.034459793 -0.023607612 -0.006251126)
(-0.014441922 -0.012297406 -0.014807812)
(-0.044956012 0.0046341587 -0.01403303)
(-0.064891017 0.0073614995 -0.012720863)
(-0.078985948 0.0071471971 -0.011029729)
(-0.086351775 0.0041675478 -0.0079499948)
(-0.087913941 -0.00053583776 -0.0038934302)
(-0.080516441 -0.0055970169 0.0008652989)
(-0.070800776 -0.010074665 0.0036184289)
(-0.061529346 -0.014306964 0.0043229912)
(-0.053567417 -0.019011615 0.003460026)
(-0.046180019 -0.02310889 0.0013685391)
(-0.038049385 -0.022890894 -0.0020844291)
(-0.031175991 -0.013576182 -0.0098869069)
(-0.0067618111 0.011590009 -0.021965952)
(0.010687121 0.038840439 -0.034446796)
(0.027428008 0.06611582 -0.044510489)
(0.042603858 0.10137002 -0.037107747)
(0.10579414 -0.0025102399 -1.5231157e-05)
(0.12025406 -0.0025882842 -2.4990948e-05)
(0.13322761 -0.0024099841 -1.5346322e-05)
(0.14379701 -0.0019490371 1.7205619e-05)
(0.153071 -0.0012760806 7.284801e-05)
(0.16156011 -0.00056917987 0.00015306629)
(0.16930987 6.9473674e-05 0.00026109414)
(0.17631998 0.0006163074 0.00040362075)
(0.18265577 0.001066181 0.00059186046)
(0.18842838 0.0013911591 0.00083117172)
(0.1938311 0.001507597 0.0011055224)
(0.19927962 0.0012515317 0.0013443035)
(0.20488621 0.0006088976 0.0013262944)
(0.21085052 0.00018111645 0.00072468702)
(0.2174097 0.0010517356 -0.00030097207)
(0.22369824 0.0023210515 -0.0013511252)
(0.22893296 0.0036331734 -0.0022678615)
(0.23345875 0.0052887213 -0.0032385874)
(0.23802488 0.0073315413 -0.0044979604)
(0.2431564 0.0097255865 -0.0062516286)
(0.2489834 0.012517742 -0.0087454133)
(0.25501417 0.015852405 -0.012276334)
(0.26020262 0.019645699 -0.017047003)
(0.26339885 0.023644876 -0.022920718)
(0.2636725 0.027613373 -0.029314226)
(0.26009848 0.031689756 -0.035173506)
(0.25097924 0.036568174 -0.039048842)
(0.23312057 0.043362588 -0.039298657)
(0.20263813 0.054041313 -0.033422392)
(0.1016181 0.077083678 -0.019778834)
(0.099806974 -0.0039556222 -1.2514603e-05)
(0.10013715 -0.0047874579 -1.9775378e-05)
(0.10163095 -0.0049046362 -3.6447473e-06)
(0.10388469 -0.0045682749 4.1931822e-05)
(0.10663062 -0.003971142 0.00011839252)
(0.10972612 -0.003352231 0.00022857857)
(0.1130348 -0.002842802 0.00037987624)
(0.11645472 -0.0024911996 0.00058444766)
(0.11995721 -0.0023605853 0.00085659011)
(0.12362784 -0.0026210663 0.0012064006)
(0.12777898 -0.0036705305 0.0016150529)
(0.13317286 -0.0062352444 0.0019769081)
(0.14083044 -0.010488727 0.0019890148)
(0.15077827 -0.011117768 0.0010601178)
(0.16037598 -0.0072859105 7.0996512e-05)
(0.1676577 -0.0030907366 -9.4969301e-05)
(0.17374553 -0.00013499161 0.00037776818)
(0.17996254 0.0018972018 0.0010464334)
(0.18626462 0.0035590359 0.0018406293)
(0.19338245 0.0056815221 0.0027263816)
(0.20202353 0.0093650296 0.0034662146)
(0.21213062 0.015550656 0.0034633179)
(0.22285039 0.024418976 0.0021880031)
(0.23303855 0.035196277 -0.00046396358)
(0.24151494 0.046860021 -0.0040744662)
(0.24671052 0.059368014 -0.0076728229)
(0.24563865 0.0734854 -0.009744259)
(0.23362671 0.089763079 -0.0089173592)
(0.20819234 0.11011508 -0.0031628934)
(0.11522851 0.14180505 0.011121462)
(0.099947959 -0.0029508464 -1.1765824e-05)
(0.099666098 -0.0042768228 -1.7989973e-05)
(0.099128485 -0.0046992104 -3.0600302e-07)
(0.098538815 -0.004813636 4.9111936e-05)
(0.098038909 -0.0048122299 0.00013425665)
(0.097666398 -0.0047674978 0.0002609864)
(0.097374201 -0.0047438981 0.00044265018)
(0.097079464 -0.0048200932 0.00070155959)
(0.096696482 -0.0051410263 0.0010692925)
(0.096165984 -0.0060330716 0.0015963946)
(0.095596163 -0.0082521948 0.0023391021)
(0.095802137 -0.01343729 0.0033236441)
(0.097394514 -0.023730631 0.0044502122)
(0.1006788 -0.024636748 0.0039237709)
(0.10590339 -0.018014729 0.0019212954)
(0.10520302 -0.011560754 0.0021395937)
(0.10242546 -0.005979901 0.0039509653)
(0.096953825 -0.0015540355 0.0068116065)
(0.092263305 0.00062883002 0.010572081)
(0.08745632 0.00024190465 0.015021584)
(0.082580745 -0.001165929 0.018727251)
(0.082292954 -0.001201161 0.020173048)
(0.089833462 0.0023298089 0.018703553)
(0.10644127 0.010638168 0.01541376)
(0.12846215 0.023763854 0.011430134)
(0.14929998 0.040425713 0.007911543)
(0.16503077 0.059161952 0.0070455037)
(0.16984669 0.081810261 0.010028627)
(0.16373487 0.11329936 0.017543065)
(0.084040053 0.17097072 0.030079095)
(0.097939999 -0.0015846407 -1.087226e-05)
(0.096243841 -0.0023557236 -1.5710231e-05)
(0.093559795 -0.0026059625 3.7762661e-06)
(0.090386256 -0.0026672417 5.6084932e-05)
(0.087226334 -0.0026440828 0.00014644092)
(0.084182472 -0.0025660243 0.00028237273)
(0.081166145 -0.0024734253 0.00048287736)
(0.078029996 -0.0024252731 0.0007813628)
(0.07453798 -0.0025256567 0.0012388088)
(0.070240718 -0.0030174444 0.0019758365)
(0.064199651 -0.0045656972 0.0032384165)
(0.054274882 -0.0092156943 0.0056127091)
(0.038477057 -0.021775507 0.010801312)
(-0.001716303 -0.016185067 0.020531955)
(-0.03610977 0.0033068976 0.017869417)
(-0.055345583 0.0062181107 0.013677381)
(-0.07060521 0.0062864658 0.010193928)
(-0.077533506 0.0032994682 0.0050631789)
(-0.078074814 -0.0015287227 -0.0020580463)
(-0.070596814 -0.006473419 -0.010296925)
(-0.061357535 -0.010702359 -0.016528143)
(-0.052455509 -0.014393217 -0.020986205)
(-0.043960328 -0.0168771 -0.024067727)
(-0.03452835 -0.016555616 -0.025472722)
(-0.020385622 -0.01087301 -0.023484954)
(0.0022512884 0.0065695972 -0.012659053)
(0.031857547 0.034985383 -0.0017410855)
(0.046571619 0.057857007 0.012774095)
(0.082957707 0.092817402 0.032844072)
(0.14249631 0.15279295 0.050565046)
(0.10581202 -0.0025062061 -0.00015822824)
(0.12031755 -0.0025810279 -0.00028289792)
(0.1333481 -0.0024005316 -0.00034514035)
(0.14397322 -0.0019390775 -0.00034392677)
(0.15329921 -0.0012682153 -0.00028364802)
(0.16183736 -0.00056693774 -0.00016431915)
(0.16964051 6.7400616e-05 1.039313e-05)
(0.17672186 0.00061611504 0.00024575053)
(0.18314868 0.0010817762 0.00054404476)
(0.18901505 0.0014558125 0.00089252873)
(0.19445599 0.0016927004 0.0012321337)
(0.19970197 0.0016753721 0.0013863546)
(0.20454521 0.0012526275 0.00091152304)
(0.20901801 0.00024545685 -0.00088451614)