/*--------------------------------*- C++ -*----------------------------------*\
| =========                 |                                                 |
| \\      /  F ield         | OpenFOAM: The Open Source CFD Toolbox           |
|  \\    /   O peration     | Version:  v2012                                 |
|   \\  /    A nd           | Website:  www.openfoam.com                      |
|    \\/     M anipulation  |                                                 |
\*---------------------------------------------------------------------------*/
FoamFile
{
    version     2.0;
    format      ascii;
    class       volScalarField;
    location    "780/topAir";
    object      T;
}
// * * * * * * * * * * * * * * * * * * * * * * * * * * * * * * * * * * * * * //

dimensions      [0 0 0 1 0 0 0];


internalField   nonuniform List<scalar> 
1200
(
325.61069
349.287
370.7164
390.51996
409.21197
427.09229
444.25309
460.52287
475.60891
489.46516
501.95557
512.82892
521.52834
520.74989
517.41358
511.62756
504.17915
496.16937
488.5603
481.95439
476.61424
472.58274
469.79203
468.13655
467.51545
467.87336
469.24691
471.83443
476.15634
483.06362
300.55133
301.59087
303.0129
304.75498
306.77313
309.03295
311.50386
314.43673
318.44765
323.84854
331.55797
342.00698
355.37904
369.64116
383.38654
395.39833
405.11019
412.36311
417.19897
419.84338
420.80464
420.75624
420.33779
420.05932
420.31347
421.45313
423.89501
428.2754
435.80872
447.67019
300.01225
300.04687
300.11111
300.21123
300.35257
300.53962
300.776
301.07086
301.44665
301.93038
302.6046
304.91783
310.87081
320.83757
333.89094
348.67546
363.40403
376.92892
388.48672
397.65824
404.40657
409.04706
412.09403
414.10077
415.56818
416.93314
418.60437
421.06104
425.13401
432.05898
300.0003
300.00144
300.0042
300.00961
300.01898
300.0339
300.05622
300.08834
300.13373
300.19769
300.29346
300.50915
301.19952
305.18178
315.06853
328.43669
342.37473
355.94805
368.50825
379.50762
388.60468
395.7577
401.18674
405.24607
408.31514
410.7443
412.85768
415.00419
417.71224
421.82304
325.60286
349.02257
369.95097
389.00893
406.67361
423.18643
438.59619
452.82585
465.64859
476.68877
485.42657
491.25283
493.37058
483.98611
471.91033
459.07954
447.73045
439.12034
433.32226
429.71581
427.58123
426.42733
426.00602
426.2235
427.05258
428.53495
430.82188
434.28959
439.91233
449.5168
300.55054
301.5706
302.93867
304.58099
306.44173
308.47347
310.62652
312.84425
315.05621
317.16796
319.05293
320.54953
321.46502
321.54743
321.09459
320.84969
321.55802
323.34528
325.86459
328.70726
331.68807
334.80982
338.14562
341.80822
345.92322
350.60149
355.89258
361.75937
368.32645
377.11097
300.01221
300.0459
300.10681
300.19923
300.32615
300.48931
300.68893
300.92338
301.18862
301.47656
301.77301
302.08202
302.39319
302.77841
303.89559
306.65205
311.91028
319.06932
326.84909
333.99052
340.39208
346.73131
353.10118
359.45607
365.52342
371.62308
378.17798
385.16028
392.57189
400.57369
300.00029
300.0014
300.00397
300.00886
300.01703
300.02957
300.04764
300.07245
300.10523
300.1473
300.20074
300.27624
300.44482
301.29251
304.73455
312.25333
322.88648
336.04043
349.69458
362.37442
372.96006
381.11233
387.67106
393.1036
397.82368
401.75854
404.95394
407.72785
410.44406
413.79111
325.59646
349.05516
370.04066
389.17162
406.93277
423.58038
439.22638
453.8867
467.47701
479.78587
490.41943
498.71516
503.45332
495.25903
483.87537
471.53848
459.84928
449.3346
440.1389
432.28601
425.72306
420.45326
416.57973
414.2212
413.41413
414.06823
416.05838
419.3873
424.86896
434.45003
300.5505
301.57376
302.94788
304.59825
306.46979
308.51794
310.7007
312.97217
315.27337
317.52222
319.58838
321.26404
322.24747
322.24181
321.8422
321.89039
322.54386
323.67202
325.27576
327.35667
329.94515
333.17628
337.23334
342.23577
348.21135
355.17783
363.15583
371.97223
381.48065
392.73516
300.01221
300.04604
300.10728
300.20016
300.3276
300.49129
300.69169
300.92759
301.1953
301.48651
301.78452
302.05804
302.28105
302.79341
304.99841
309.21119
313.64245
317.49384
321.45522
325.73907
330.60833
336.59168
343.98613
352.65653
362.20551
372.01259
381.52414
390.30123
399.65715
410.95328
300.00029
300.0014
300.00399
300.0089
300.01709
300.0296
300.04758
300.07215
300.10445
300.14548
300.19648
300.26579
300.48371
302.38749
310.68148
324.30928
332.62337
334.64005
342.81036
353.7111
364.06713
372.70546
379.853
385.885
391.16368
395.79815
399.79145
403.44817
410.72696
423.96016
325.59138
349.06074
370.08015
389.27498
407.15001
423.9979
439.9804
455.18688
469.64452
483.28887
495.87824
506.80395
514.77003
510.21641
505.91951
503.87415
503.80554
504.41146
504.51597
503.3565
500.6074
496.43003
491.26503
485.55624
479.81071
474.9636
472.52118
474.42109
481.87523
492.65774
300.55043
301.57481
302.95294
304.61183
306.49909
308.57505
310.80593
313.15762
315.58767
318.02778
320.34642
322.28992
323.49397
324.03046
324.99264
326.51214
328.28892
330.11749
331.97487
333.96761
336.33782
339.39337
343.34492
348.20399
353.94258
360.66625
368.21988
376.72182
390.12037
418.91048
300.01221
300.0461
300.10757
300.20107
300.32975
300.49579
300.70038
300.94338
301.22241
301.53013
301.84751
302.13411
302.42348
304.07378
308.71345
312.95125
315.88803
318.144
320.82252
324.64246
330.12211
337.68334
347.0732
357.60516
368.86468
380.55976
390.85288
399.69871
409.80947
424.72263
300.00029
300.0014
300.00401
300.00896
300.01724
300.02996
300.04834
300.07367
300.10731
300.15072
300.20657
300.30308
300.91634
307.8854
328.8876
348.2093
350.04647
349.58066
349.16393
355.25508
363.01159
370.86883
377.6571
383.66808
389.89486
397.41349
404.32
411.68034
423.27677
434.78888
325.58315
349.04931
370.07084
389.272
407.1581
424.02341
440.02997
455.26298
469.73295
483.32557
495.66606
505.88664
512.63584
506.8595
503.66302
503.75329
505.83693
508.99121
512.71483
516.6055
520.28043
523.37453
525.57835
526.69997
526.74351
526.03212
525.32259
525.81459
529.03417
536.70082
300.55027
301.57485
302.95423
304.61586
306.50773
308.59079
310.83139
313.1952
315.63592
318.07066
320.32782
322.0788
323.01095
324.08455
325.77748
327.81085
330.64513
334.92844
340.16557
345.89082
352.30116
360.40859
371.14669
384.12212
398.80432
414.44047
430.52838
447.14464
465.23033
487.28403
300.01221
300.04611
300.10769
300.20145
300.33067
300.49768
300.70379
300.94903
301.23076
301.53991
301.85116
302.11717
302.59195
306.88988
311.35873
314.26568
315.82595
317.3875
319.34195
322.8486
328.79304
337.70717
348.41161
359.674
370.25913
381.48832
394.84639
410.86554
430.51252
455.63817
300.00029
300.0014
300.00402
300.00899
300.01732
300.03016
300.04876
300.0745
300.10891
300.15376
300.21409
300.36207
301.91931
323.74256
352.56888
358.15428
360.63303
362.657
365.18123
367.63101
371.67686
376.584
381.51096
386.02825
389.99411
393.02217
397.98736
408.759
424.75228
445.47361
325.5779
349.03889
370.05515
389.25009
407.12852
423.98374
439.97555
455.18486
469.6125
483.11155
495.22779
504.97594
511.21013
506.19042
504.29927
505.48345
507.40191
510.4232
514.03677
517.82746
521.39757
524.3794
526.48638
527.56053
527.62384
526.98449
526.37032
526.9621
530.20719
537.76178
300.55015
301.57452
302.95362
304.61486
306.50624
308.5885
310.82768
313.18822
315.62014
318.03102
320.22606
321.84481
322.67574
324.09734
326.00784
328.18426
332.19518
337.84514
344.74555
352.70281
361.70579
372.00961
383.87814
397.16242
411.30134
425.66339
439.98037
454.56109
470.50869
490.45088
300.01221
300.04611
300.10767
300.20142
300.33062
300.49761
300.70371
300.94885
301.23002
301.53689
301.84052
302.09622
302.80707
308.04531
311.74475
313.93936
315.5017
317.45852
320.03884
323.76463
329.87219
339.33983
351.40091
363.87366
375.63755
388.1419
401.64176
416.92052
435.11252
458.16921
300.00029
300.0014
300.00402
300.00899
300.01732
300.03017
300.04879
300.07459
300.10913
300.15436
300.21759
300.41974
303.0462
339.36242
355.62632
359.29679
361.34005
363.84337
367.03231
370.62988
374.69462
379.25132
383.78961
387.79861
391.1799
394.04598
400.28868
411.51198
427.02003
446.67316
325.57349
349.02554
370.02764
389.20368
407.0563
423.87633
439.82451
454.98478
469.36882
482.88503
495.22579
505.65758
512.84296
508.11832
504.62065
503.6709
504.42497
505.51122
505.89913
504.80905
501.93006
497.57284
492.36877
486.84815
481.44105
476.90487
474.7327
476.94977
484.09789
494.6609
300.55005
301.5737
302.95085
304.60852
306.49422
308.56812
310.79576
313.1418
315.56049
317.97439
320.23209
322.04638
323.06809
323.75252
325.05715
326.78537
328.6912
330.63956
332.6268
334.78596
337.40125
340.80039
345.14088
350.35591
356.34229
363.21346
371.00075
379.78646
394.32113
423.13933
300.0122
300.04607
300.1075
300.20094
300.32956
300.49554
300.70003
300.94284
301.22126
301.52687
301.83748
302.10902
302.45861
305.16622
310.11151
313.71402
316.12299
318.26984
321.11037
325.35342
331.50421
339.93553
350.32945
361.61718
372.89141
384.00374
393.75286
402.67145
412.31144
426.57897
300.00029
300.0014
300.00401
300.00896
300.01724
300.02997
300.04837
300.07377
300.10757
300.15132
300.20857
300.32533
301.32278
313.41709
340.00143
350.21915
351.0274
350.80128
352.0987
358.18342
365.28644
372.13863
378.76543
384.44708
389.88708
396.75917
404.06908
412.9705
423.77797
437.09646
325.56814
348.99955
369.95771
389.05898
406.7857
423.39272
438.98769
453.59088
467.11288
479.31951
489.77158
497.71722
501.83263
493.02782
481.65073
469.97956
459.23131
449.56317
440.92557
433.3225
426.80006
421.52765
417.75538
415.65206
415.2033
416.22813
418.51908
422.06386
427.7964
437.93701
300.54989
301.572
302.94455
304.59296
306.4621
308.50728
310.68609
312.95194
315.24367
317.47223
319.49476
321.07965
321.9083
321.81942
321.65318
322.04322
322.96839
324.2772
325.99371
328.16295
330.88906
334.3705
338.79004
344.19006
350.46897
357.53432
365.37735
373.8077
382.85171
393.76061
300.0122
300.04599
300.10716
300.19996
300.32729
300.49089
300.6912
300.92696
301.19429
301.48425
301.77796
302.04048
302.26364
303.1005
306.21307
310.8323
315.1189
318.73872
322.545
326.80344
331.95815
338.56186
346.72651
355.99419
365.61373
374.90813
383.58184
391.49832
400.01064
410.587
300.00029
300.0014
300.00399
300.0089
300.01708
300.02961
300.04762
300.07228
300.10476
300.14613
300.19791
300.27367
300.60373
303.97729
316.08228
329.62564
337.02981
337.35808
345.72066
356.35838
366.05613
374.10701
380.84987
386.62008
391.64502
395.95375
399.65415
403.15589
410.18257
423.48219
325.5665
348.95106
369.84396
388.86284
406.48139
422.94129
438.30017
452.48014
465.25268
476.2445
484.91703
490.60585
492.42659
482.62052
470.14148
457.17506
445.98635
437.69588
432.21668
428.83236
426.82809
425.75403
425.42757
425.81419
426.91028
428.74456
431.42985
435.32498
441.46427
451.44049
300.54976
301.56834
302.93439
304.57417
306.43183
308.46
310.60937
312.82294
315.02883
317.13173
318.99807
320.4534
321.28719
321.26176
320.78066
320.65252
321.55988
323.54557
326.21671
329.16968
332.26978
335.54264
339.0755
342.96443
347.29119
352.11617
357.45231
363.2379
369.58434
378.47638
300.01219
300.04584
300.10666
300.19898
300.32578
300.48884
300.68846
300.92306
301.1886
301.47664
301.77217
302.07297
302.37059
302.77935
304.12364
307.26842
312.81107
320.10144
327.80911
334.65254
340.9297
347.13338
353.36137
359.61229
365.72061
372.02512
378.70949
385.6714
392.96559
400.81112
300.00029
300.00139
300.00397
300.00885
300.01702
300.02958
300.0477
300.07263
300.10565
300.14811
300.20206
300.27783
300.45485
301.4508
305.61706
313.57101
323.93589
337.10626
350.91974
363.58867
373.87728
381.85984
388.34039
393.77909
398.41167
402.07479
405.08947
407.74806
410.39687
413.67325
325.5704
349.2076
370.59719
390.35699
408.99874
426.82467
443.939
460.18499
475.25515
489.10318
501.58772
512.44494
521.09575
520.27238
516.84835
510.98825
503.5248
495.55952
488.02461
481.49196
476.2133
472.23604
469.51095
467.95731
467.49056
468.05638
469.67956
472.54606
477.1804
484.40116
300.55046
301.58836
303.0081
304.74729
306.76198
309.01804
311.48472
314.37373
318.33944
323.6495
331.16403
341.38183
354.47207
368.53185
382.26501
394.47961
404.53439
412.13679
417.21538
419.96484
420.93905
420.87159
420.45079
420.21074
420.54021
421.77543
424.32231
428.83193
436.57002
448.74137
300.01223
300.0468
300.11094
300.21093
300.35212
300.53906
300.7754
301.06936
301.4434
301.92309
302.5813
304.63733
310.06493
319.61499
332.40604
347.11084
362.01881
375.89296
387.82994
397.30061
404.23305
408.96353
412.04813
414.07802
415.5762
416.98664
418.71856
421.26382
425.50098
432.73411
300.0003
300.00144
300.00419
300.0096
300.01897
300.0339
300.05628
300.08851
300.13408
300.1983
300.29384
300.50039
301.15268
304.64504
314.20142
327.51993
341.5585
355.39776
368.27709
379.5234
388.7448
395.9229
401.32312
405.33641
408.3636
410.76429
412.86825
415.03294
417.81572
422.11628
)
;

boundaryField
{
    maxY
    {
        type            zeroGradient;
    }
    minX
    {
        type            fixedValue;
        value           uniform 300;
    }
    maxX
    {
        type            inletOutlet;
        inletValue      uniform 300;
        value           nonuniform List<scalar> 
40
(
483.10009
447.7105
432.07643
421.82783
449.54257
377.15163
400.58951
413.78223
434.47601
392.81826
411.03362
423.99001
492.81625
419.24043
424.86379
434.60283
536.8551
487.78345
456.16288
445.64654
537.68701
490.19274
457.86866
446.37141
494.63726
423.0808
426.3352
436.73231
438.01771
393.64513
410.3578
423.12697
451.52223
378.47226
400.77738
413.61405
484.44218
448.79171
432.75993
422.11831
)
;
    }
    minZ
    {
        type            zeroGradient;
    }
    maxZ
    {
        type            zeroGradient;
    }
    topAir_to_rightSolid
    {
        type            compressible::turbulentTemperatureCoupledBaffleMixed;
        refValue        nonuniform List<scalar> 
130
(
748.13183
755.87994
763.97158
772.01789
779.74653
786.90441
793.32476
798.90746
803.59266
807.35156
810.16993
812.04569
812.98115
742.27739
751.37403
760.64387
769.63505
778.08189
785.76231
792.54891
798.38245
803.23689
807.10675
809.99545
811.91284
812.86834
730.51351
742.67259
754.46241
765.37454
775.19241
783.82793
791.26382
797.53286
802.67443
806.73068
809.73713
811.72415
812.71452
713.03792
730.96772
746.8181
760.41747
771.98291
781.75937
789.93307
796.67956
802.12735
806.37938
809.50938
811.56986
812.59499
692.50367
719.92467
740.57079
756.76578
769.79263
780.40875
789.09298
796.15481
801.8003
806.17456
809.38048
811.48612
812.53225
692.61819
720.03811
740.6881
756.8865
769.90187
780.49979
789.16642
796.20844
801.83367
806.18791
809.38172
811.48235
812.52651
713.27395
731.17626
747.03065
760.64677
772.1979
781.9367
790.0793
796.78558
802.19199
806.40565
809.5134
811.56363
812.58368
730.8313
742.93387
754.73211
765.65603
775.45207
784.04748
791.44003
797.6588
802.74751
806.76265
809.7472
811.72116
812.70544
742.62067
751.68786
760.97583
769.99056
778.39545
786.02091
792.75154
798.52687
803.31894
807.14726
810.01416
811.92012
812.8729
748.50888
756.27355
764.39639
772.46136
780.14159
787.20271
793.53933
799.05453
803.6767
807.39553
810.19254
812.05945
812.99457
)
;
        refGradient     uniform 0;
        valueFraction   uniform 0.99967867;
        value           nonuniform List<scalar> 
130
(
748.05087
755.79405
763.88096
771.92298
779.64784
786.80252
793.22028
798.80098
803.48479
807.24292
810.06122
811.93777
812.87516
742.17998
751.27183
760.53753
769.52515
777.9689
785.64672
792.4312
798.26313
803.11649
806.98584
809.87473
811.79331
812.7516
730.42317
742.57539
754.3589
765.26541
775.07843
783.70992
791.14267
797.40943
802.54956
806.60515
809.6117
811.59985
812.59298
712.97089
730.89496
746.73988
760.334
771.89438
781.66604
789.83529
796.57776
802.02225
806.27214
809.40176
811.46396
812.49224
692.4447
719.85809
740.49883
756.68979
769.71346
780.32687
789.00868
796.06825
801.71171
806.08433
809.28939
811.39539
812.44367
692.55964
719.97191
740.61648
756.81082
769.82296
780.41815
789.08234
796.12211
801.74533
806.09797
809.29094
811.39195
812.43819
713.20718
731.10385
746.95279
760.56361
772.10962
781.84361
789.98182
796.68421
802.08744
806.29905
809.40653
811.4584
812.48152
730.74091
742.83682
754.62882
765.54714
775.33833
783.92977
791.31928
797.5359
802.62332
806.6379
809.62264
811.59781
812.58505
742.52269
751.58521
760.86911
769.88029
778.28214
785.90504
792.63363
798.40747
803.19859
807.02654
809.89378
811.80111
812.75679
748.4276
756.18735
764.30549
772.36616
780.04265
787.10062
793.43471
798.94799
803.56886
807.28701
810.08405
811.95186
812.889
)
;
        Tnbr            T;
        thicknessLayers List<scalar> 0();
        kappaLayers     List<scalar> 0();
        kappaMethod     fluidThermo;
        kappa           none;
        alphaAni        none;
        alpha           none;
        field           T;
    }
    topAir_to_heater
    {
        type            compressible::turbulentTemperatureCoupledBaffleMixed;
        refValue        nonuniform List<scalar> 
40
(
729.60134
731.62715
735.58333
741.2146
720.28394
722.65108
727.31828
734.02745
700.56797
703.61666
709.83564
719.03384
668.60569
672.4872
680.89883
694.48659
622.17443
625.72579
635.03887
653.86431
622.29206
625.84651
635.15291
653.97178
668.98309
672.88022
681.2523
694.7813
700.86387
703.97501
710.21636
719.4055
720.53374
722.93655
727.63859
734.3716
729.92687
731.96675
735.93573
741.57762
)
;
        refGradient     uniform 0;
        valueFraction   uniform 0.99967867;
        value           nonuniform List<scalar> 
40
(
729.53424
731.55832
735.51137
741.13844
720.20801
722.57051
727.2321
733.93545
700.502
703.54606
709.75908
718.95057
668.55479
672.43368
680.84195
694.42533
622.13738
625.68657
634.99669
653.81675
622.25475
625.80745
635.11125
653.92469
668.9314
672.82614
681.19523
694.72012
700.79708
703.90357
710.13916
719.32189
720.4573
722.85533
727.55168
734.27894
729.8595
731.89763
735.86345
741.50112
)
;
        Tnbr            T;
        thicknessLayers List<scalar> 0();
        kappaLayers     List<scalar> 0();
        kappaMethod     fluidThermo;
        kappa           none;
        alphaAni        none;
        alpha           none;
        field           T;
    }
    topAir_to_leftSolid
    {
        type            compressible::turbulentTemperatureCoupledBaffleMixed;
        refValue        nonuniform List<scalar> 
130
(
930.18089
930.17819
930.15337
930.09565
929.99415
929.83538
929.60509
929.28369
928.96014
928.65564
928.3871
928.18064
928.06116
930.14884
930.14124
930.10813
930.04313
929.93908
929.78123
929.55574
929.26004
928.95184
928.64316
928.35034
928.09966
927.94537
930.07417
930.05978
930.01117
929.92621
929.80756
929.64346
929.42531
929.157
928.85641
928.53208
928.20906
927.92234
927.70176
929.95486
929.93191
929.86287
929.74596
929.5947
929.40363
929.17505
928.90527
928.59928
928.26173
927.9074
927.57676
927.34516
929.77354
929.73948
929.65272
929.51271
929.33389
929.11868
928.8626
928.56997
928.23976
927.87327
927.48483
927.13223
926.89479
929.64245
929.59421
929.48867
929.31418
929.09819
928.84666
928.562
928.24414
927.89443
927.51469
927.12652
926.76873
926.55579
929.51032
929.45934
929.34971
929.17395
928.93067
928.62938
928.32097
927.99543
927.64861
927.27846
926.92543
926.59888
926.40824
929.37091
929.3176
929.20301
929.01912
928.75717
928.4328
928.11023
927.77987
927.44012
927.09367
926.76437
926.46475
926.30247
929.24706
929.19292
929.07627
928.88673
928.61286
928.29569
927.98241
927.67193
927.36352
927.06182
926.77409
926.49952
926.35922
929.18132
929.12532
929.00639
928.81376
928.53709
928.22431
927.91506
927.61372
927.32232
927.04592
926.79033
926.55962
926.44557
)
;
        refGradient     uniform 0;
        valueFraction   uniform 0.99967867;
        value           nonuniform List<scalar> 
130
(
929.98663
929.99154
929.97361
929.92227
929.82681
929.67384
929.44914
929.13307
928.81447
928.51452
928.25007
928.04718
927.93053
929.95458
929.95451
929.92814
929.86928
929.77095
929.61844
929.39798
929.10695
928.80297
928.49793
928.20802
927.95929
927.80573
929.87993
929.87309
929.83124
929.75245
929.63954
929.48085
929.2678
929.00428
928.70816
928.38788
928.06839
927.78442
927.56544
929.76066
929.74527
929.683
929.5723
929.42683
929.24123
929.01786
928.75305
928.45181
928.11875
927.76858
927.44155
927.21259
929.5794
929.55289
929.47291
929.33912
929.16611
928.95638
928.70553
928.41788
928.09243
927.73043
927.34607
926.99687
926.76167
929.44835
929.40766
929.30891
929.14064
928.93047
928.68444
928.40501
928.09213
927.74718
927.3719
926.98774
926.63319
926.42233
929.31626
929.27283
929.16999
929.00044
928.76298
928.46719
928.164
927.84344
927.50135
927.13567
926.78671
926.46362
926.27535
929.17689
929.13113
929.02331
928.84561
928.58945
928.27052
927.95306
927.6275
927.2922
926.94979
926.62395
926.32698
926.16608
929.05308
929.00647
928.89658
928.7132
928.44508
928.1333
927.82506
927.51924
927.21503
926.91696
926.63211
926.35946
926.21979
928.98736
928.93898
928.82695
928.64075
928.37015
928.0632
927.75955
927.46352
927.17706
926.90519
926.6537
926.42656
926.31532
)
;
        Tnbr            T;
        thicknessLayers List<scalar> 0();
        kappaLayers     List<scalar> 0();
        kappaMethod     fluidThermo;
        kappa           none;
        alphaAni        none;
        alpha           none;
        field           T;
    }
}


// ************************************************************************* //
