/*--------------------------------*- C++ -*----------------------------------*\
| =========                 |                                                 |
| \\      /  F ield         | OpenFOAM: The Open Source CFD Toolbox           |
|  \\    /   O peration     | Version:  v2012                                 |
|   \\  /    A nd           | Website:  www.openfoam.com                      |
|    \\/     M anipulation  |                                                 |
\*---------------------------------------------------------------------------*/
FoamFile
{
    version     2.0;
    format      ascii;
    class       volVectorField;
    location    "780/topAir";
    object      U;
}
// * * * * * * * * * * * * * * * * * * * * * * * * * * * * * * * * * * * * * //

dimensions      [0 1 -1 0 0 0 0];


internalField   nonuniform List<vector> 
1200
(
(0.10474466 -0.0024890921 0.0008755507)
(0.11875379 -0.0025547499 0.0013133424)
(0.13078314 -0.0023202687 0.0013890124)
(0.14017819 -0.0017447006 0.0012422133)
(0.1483893 -0.00089265116 0.00088628117)
(0.1560732 5.9256477e-05 0.00028063773)
(0.16350229 0.0010015501 -0.00060742745)
(0.17093047 0.0018733081 -0.0019470754)
(0.17856251 0.0027772097 -0.0040117387)
(0.18671706 0.0039093907 -0.0071310768)
(0.19553839 0.0056175099 -0.011724256)
(0.20464401 0.0082978162 -0.018209223)
(0.2124035 0.012354571 -0.026829856)
(0.21717811 0.017105155 -0.037369402)
(0.219135 0.022372418 -0.048968604)
(0.21901913 0.027405321 -0.060364407)
(0.21711975 0.03161711 -0.070366067)
(0.21364787 0.034752503 -0.078275046)
(0.20908628 0.03673957 -0.083933509)
(0.20421216 0.037599047 -0.087540016)
(0.19986337 0.037489674 -0.089442227)
(0.19664452 0.036682445 -0.089996702)
(0.19479509 0.035441159 -0.08950044)
(0.19425169 0.033961163 -0.088175489)
(0.19475839 0.032398803 -0.086151624)
(0.19584618 0.030971242 -0.083407636)
(0.19658595 0.030073642 -0.079683857)
(0.19510552 0.030513495 -0.074393843)
(0.18796773 0.034213311 -0.066540818)
(0.148683 0.047089855 -0.054106569)
(0.098685919 -0.0039385068 0.00084680808)
(0.098466548 -0.0047444731 0.0012770042)
(0.098929658 -0.004779429 0.0014557617)
(0.099872222 -0.0042935802 0.0015335971)
(0.10137027 -0.0034806538 0.001536796)
(0.1034552 -0.0025962216 0.0014497024)
(0.10610707 -0.0018166535 0.0012458698)
(0.10950826 -0.0011790579 0.00086377066)
(0.11415535 -0.00036417488 0.00017621509)
(0.1205625 0.0010339291 -0.0010018285)
(0.12974269 0.0039035684 -0.0029910592)
(0.14189636 0.0092918756 -0.0061868315)
(0.15667143 0.018015201 -0.011113706)
(0.17212918 0.028861792 -0.017833255)
(0.1862151 0.041180143 -0.025837501)
(0.19730096 0.053570149 -0.034107593)
(0.20438399 0.064977599 -0.041683795)
(0.20724973 0.074596279 -0.048079474)
(0.2065632 0.08176034 -0.053172887)
(0.20366499 0.086087239 -0.056994036)
(0.20005064 0.087773249 -0.059601963)
(0.19678956 0.08748071 -0.061034006)
(0.19436027 0.085912628 -0.061370013)
(0.19284829 0.083557917 -0.060739601)
(0.19216479 0.080702776 -0.059240821)
(0.19205799 0.077712397 -0.056794059)
(0.19189954 0.075310508 -0.052992713)
(0.19042308 0.075007552 -0.046931431)
(0.18629033 0.080028584 -0.036625706)
(0.15993919 0.095272942 -0.017243971)
(0.098813317 -0.0029349443 0.0008740106)
(0.097948366 -0.0042434389 0.0013254287)
(0.096298567 -0.0046498417 0.0015258519)
(0.094241125 -0.0047372364 0.001645184)
(0.092242969 -0.0046974943 0.0017356877)
(0.090483997 -0.0046206005 0.0018098272)
(0.08894672 -0.0046154394 0.0018867265)
(0.087565131 -0.0047082331 0.0020114618)
(0.086400847 -0.0047329089 0.0022520378)
(0.08578824 -0.0045846213 0.0026349733)
(0.086254035 -0.0039761587 0.0030996432)
(0.090117515 -0.0012114451 0.0031935908)
(0.10077037 0.0068354703 0.0022225028)
(0.11679042 0.020779071 8.2473511e-05)
(0.13551239 0.038409946 -0.0030720843)
(0.15350285 0.05687239 -0.0063098722)
(0.16802519 0.073393634 -0.008995241)
(0.17791932 0.086957493 -0.010992923)
(0.18347016 0.097148427 -0.012564683)
(0.18595275 0.10384011 -0.014040127)
(0.18687402 0.10719123 -0.015567494)
(0.18720409 0.10766143 -0.016899331)
(0.18721767 0.10590588 -0.01768919)
(0.18683971 0.10253688 -0.01784621)
(0.18603464 0.098023523 -0.017329449)
(0.18483976 0.092782867 -0.016026102)
(0.18311152 0.087510413 -0.013612163)
(0.18048462 0.083768273 -0.0095098421)
(0.17736813 0.085104824 -0.0027131467)
(0.16199659 0.097659163 0.009832531)
(0.096857305 -0.0015593337 0.00083943241)
(0.094629298 -0.0023042354 0.0012526762)
(0.090902058 -0.002530592 0.0014143738)
(0.086345057 -0.0025606802 0.001493032)
(0.0817793 -0.0024974049 0.0015448697)
(0.077448594 -0.0023731845 0.0015867074)
(0.073312305 -0.0022295321 0.0016439933)
(0.069267158 -0.0021039652 0.0017649148)
(0.065175877 -0.0020404058 0.0020285461)
(0.060812284 -0.0022272386 0.0025515702)
(0.055732494 -0.0032016312 0.0035828576)
(0.049533921 -0.0048806602 0.0055928455)
(0.041502217 -0.0051184155 0.0092681632)
(0.038124137 0.0024968288 0.014213228)
(0.045797814 0.018665336 0.019808379)
(0.061341022 0.036148322 0.025697305)
(0.078050083 0.050820668 0.031374451)
(0.092962228 0.062569073 0.036619576)
(0.10559564 0.071551982 0.041020292)
(0.11646634 0.07779985 0.044113658)
(0.12609602 0.081289707 0.045994207)
(0.13460275 0.082108101 0.046881754)
(0.14175852 0.080647694 0.0469759)
(0.14724032 0.077455381 0.046486765)
(0.15088552 0.073106084 0.045678245)
(0.15277383 0.068057235 0.044836591)
(0.15328708 0.062892921 0.044256146)
(0.15341789 0.058803088 0.043952979)
(0.15706581 0.05850125 0.043394086)
(0.17748163 0.067662308 0.042697613)
(0.10600767 -0.0024904096 0.00099909341)
(0.12087119 -0.002567022 0.001387474)
(0.13414913 -0.0024240022 0.0013723828)
(0.14487826 -0.0020366764 0.0011226376)
(0.15423025 -0.0014755881 0.00065641247)
(0.16279501 -0.00092528492 -7.0023886e-05)
(0.17058397 -0.00053798342 -0.0011207282)
(0.17751001 -0.00038341627 -0.0026655294)
(0.18354931 -0.0005262184 -0.0049637363)
(0.18867571 -0.0010503213 -0.0083152682)
(0.19281835 -0.0020854786 -0.013073901)
(0.1958739 -0.0037690509 -0.01950951)
(0.19720402 -0.0062284407 -0.027584718)
(0.196497 -0.010156944 -0.036562633)
(0.19553161 -0.014718795 -0.045208946)
(0.19571742 -0.018984653 -0.052397352)
(0.19684452 -0.021943074 -0.057863885)
(0.1978836 -0.023255591 -0.061943557)
(0.19805382 -0.02337102 -0.064977196)
(0.19726888 -0.0230525 -0.067118957)
(0.1959971 -0.02280062 -0.068453298)
(0.19483587 -0.022680165 -0.069044005)
(0.19417765 -0.022617694 -0.068936316)
(0.19416368 -0.022587521 -0.068154084)
(0.19485037 -0.022590497 -0.066679503)
(0.19632197 -0.022502659 -0.064404779)
(0.19859311 -0.021895531 -0.061011263)
(0.20144312 -0.019659579 -0.055879159)
(0.20430053 -0.012402112 -0.048156459)
(0.19826877 0.0099883694 -0.037722986)
(0.099975179 -0.0039502022 0.0010552234)
(0.1006949 -0.0047925491 0.0015972085)
(0.10253675 -0.0049670828 0.0017879068)
(0.1050284 -0.0047402881 0.0018211607)
(0.10798276 -0.0043085974 0.0017377078)
(0.11133889 -0.0039276651 0.0015135357)
(0.11500319 -0.0038005772 0.0011024106)
(0.11889847 -0.0040397502 0.00042836713)
(0.12300401 -0.0047684708 -0.00063434242)
(0.12729188 -0.0061778192 -0.002242133)
(0.13178293 -0.0085094697 -0.0045586784)
(0.13656066 -0.012023674 -0.007781057)
(0.14177253 -0.017004826 -0.011967771)
(0.14738043 -0.024095574 -0.016521871)
(0.15338266 -0.031791204 -0.020344078)
(0.1595459 -0.037881667 -0.022559697)
(0.16522524 -0.040348199 -0.023442366)
(0.16940085 -0.038984829 -0.024155811)
(0.17151206 -0.035217593 -0.025467578)
(0.17183694 -0.030984228 -0.027432479)
(0.17127221 -0.027528273 -0.029662472)
(0.17061839 -0.024956927 -0.031713381)
(0.17011156 -0.023011045 -0.033149318)
(0.16968561 -0.021673399 -0.033555719)
(0.16945721 -0.021149399 -0.032544328)
(0.17000669 -0.02158894 -0.029774071)
(0.17242831 -0.022827249 -0.024765967)
(0.17898503 -0.024215788 -0.016647135)
(0.1955181 -0.024143472 -0.003960338)
(0.25382342 -0.01657613 0.011516223)
(0.1001135 -0.0029631271 0.0010760239)
(0.10020385 -0.0042963954 0.0016456575)
(0.099999795 -0.0047460575 0.0018849342)
(0.099646567 -0.0049106643 0.0019965821)
(0.099360052 -0.0049861546 0.0020397938)
(0.099256613 -0.0050607171 0.0020147277)
(0.099350519 -0.0052236621 0.0019189987)
(0.099621123 -0.0055744109 0.0017674352)
(0.10004972 -0.006256344 0.0015830663)
(0.10068611 -0.0075235771 0.0013428812)
(0.10164874 -0.0097124293 0.00089242053)
(0.10311547 -0.013296197 6.2016345e-06)
(0.10529401 -0.01896449 -0.0012182515)
(0.10825017 -0.027202174 -0.001996406)
(0.11201755 -0.036298897 -0.00087966851)
(0.11633097 -0.043016515 0.0041198179)
(0.12208131 -0.043743473 0.01272899)
(0.1281007 -0.039330108 0.021312768)
(0.13298835 -0.032669297 0.027794941)
(0.13614903 -0.026940187 0.031381998)
(0.13777192 -0.022833352 0.033345804)
(0.13906158 -0.019661414 0.03546354)
(0.14114588 -0.01751487 0.038020222)
(0.14372261 -0.016398794 0.04093418)
(0.14549231 -0.017027246 0.042951593)
(0.14634281 -0.01920192 0.044228741)
(0.14677745 -0.022365674 0.045200213)
(0.14803729 -0.026656538 0.046271063)
(0.15455904 -0.03235432 0.049205405)
(0.1839908 -0.03984765 0.050469977)
(0.098101354 -0.0015863025 0.0010511894)
(0.096770561 -0.0023605504 0.0016022959)
(0.094417594 -0.0026199049 0.0018276926)
(0.091485866 -0.0026958069 0.0019222189)
(0.088552697 -0.0026943544 0.0019448316)
(0.085810474 -0.0026502059 0.0018998171)
(0.083258854 -0.002607386 0.0017917657)
(0.080864026 -0.0026238796 0.0016396142)
(0.07857404 -0.0027843118 0.0014816213)
(0.076353733 -0.0032344184 0.0013747707)
(0.07412216 -0.0042511682 0.0013962528)
(0.071657842 -0.0063157217 0.001680454)
(0.068567164 -0.01006981 0.0022244085)
(0.064649288 -0.015577546 0.0031312801)
(0.060196425 -0.020302133 0.006814561)
(0.057201009 -0.019074706 0.019237481)
(0.059925372 -0.0098029263 0.0440229)
(0.064005964 0.0034769358 0.067384917)
(0.068523504 0.016676542 0.085207501)
(0.074210886 0.027241299 0.097632296)
(0.081762195 0.034140073 0.10522479)
(0.090150771 0.036771247 0.1085754)
(0.097602935 0.0362733 0.10944852)
(0.10366069 0.033597468 0.10843973)
(0.1080164 0.029726187 0.10586412)
(0.11101396 0.024710814 0.10113194)
(0.11298464 0.018708446 0.094183713)
(0.1142625 0.012029789 0.085667948)
(0.12019963 0.0050440743 0.076916825)
(0.15068566 -0.00094533454 0.059559113)
(0.1058802 -0.0025109618 0.0003450443)
(0.12054061 -0.0025858585 0.00055826184)
(0.13372335 -0.0024165791 0.00063114402)
(0.14446616 -0.0019816375 0.00060644435)
(0.1538754 -0.0013626753 0.00050873779)
(0.16244953 -0.00075207042 0.00033830801)
(0.17021853 -0.00025966361 5.97239e-05)
(0.17716442 7.83389e-05 -0.00034349402)
(0.18329304 0.00023508387 -0.00088542407)
(0.18858562 0.00016520288 -0.0015864515)
(0.19297918 -0.00021334367 -0.002458233)
(0.19636211 -0.0010415264 -0.0034577298)
(0.19801941 -0.0025510686 -0.0043967946)
(0.19754508 -0.0056360029 -0.0049081274)
(0.19667145 -0.0093906744 -0.0046100409)
(0.19625658 -0.013056199 -0.0037852299)
(0.19545309 -0.016505245 -0.0033942473)
(0.19362454 -0.019954629 -0.0042298275)
(0.19092361 -0.02337961 -0.006371721)
(0.1877954 -0.026722285 -0.0093614863)
(0.18468978 -0.029966966 -0.012591126)
(0.18198501 -0.033002813 -0.015514759)
(0.17984512 -0.035620198 -0.017752967)
(0.17819049 -0.037642249 -0.019142449)
(0.17690996 -0.039068226 -0.019593209)
(0.1760638 -0.040140808 -0.01896669)
(0.1762251 -0.041120748 -0.017202222)
(0.17880956 -0.041576381 -0.015263336)
(0.18545508 -0.037900159 -0.016564147)
(0.1959717 -0.021500866 -0.022503397)
(0.099851958 -0.0039631582 0.00034399419)
(0.10033763 -0.0047935413 0.00057925802)
(0.10204846 -0.0049262152 0.0006741149)
(0.10452101 -0.004631235 0.00066372745)
(0.10748455 -0.0041152446 0.00056025089)
(0.11081654 -0.0036363596 0.0003455187)
(0.11440007 -0.0033379432 -1.7294227e-05)
(0.11813804 -0.003284557 -0.00056916963)
(0.12197662 -0.0035565155 -0.0013606622)
(0.12590282 -0.0042749051 -0.0024744742)
(0.12994913 -0.0056806969 -0.0039813322)
(0.13424245 -0.0081774591 -0.0058905117)
(0.13905458 -0.012377482 -0.0080178885)
(0.14436132 -0.019083965 -0.0098554209)
(0.14970521 -0.025826594 -0.011178358)
(0.15404991 -0.030275411 -0.013016123)
(0.15602317 -0.032846249 -0.016729662)
(0.15561067 -0.034879144 -0.022216288)
(0.15379047 -0.036487102 -0.028599494)
(0.15121987 -0.037805645 -0.034905318)
(0.14821528 -0.039187095 -0.040279272)
(0.14498184 -0.040758497 -0.044116403)
(0.14155426 -0.042321427 -0.046088449)
(0.13768847 -0.043648504 -0.046147204)
(0.13332976 -0.044879306 -0.044129715)
(0.12855721 -0.046761003 -0.039772593)
(0.12502568 -0.050105307 -0.032892794)
(0.12761211 -0.054603512 -0.026322667)
(0.14350701 -0.05382533 -0.031799762)
(0.19395852 -0.037039943 -0.053383449)
(0.099994799 -0.0029583767 0.0003488198)
(0.099862411 -0.0042855091 0.00059088179)
(0.099534626 -0.0047152712 0.00070081607)
(0.099172533 -0.0048478943 0.00070982419)
(0.098920307 -0.0048786131 0.00062673084)
(0.098845035 -0.0048873958 0.00043123773)
(0.098938416 -0.0049441716 8.5221585e-05)
(0.099157109 -0.0051293782 -0.00046204815)
(0.099485907 -0.0055606939 -0.0012782468)
(0.099899151 -0.0064260425 -0.0024412099)
(0.10036046 -0.0081005211 -0.0040868389)
(0.10090996 -0.011261412 -0.0063508822)
(0.10176663 -0.017011873 -0.0091963982)
(0.10296095 -0.025736488 -0.012082175)
(0.10365243 -0.033289864 -0.014491224)
(0.10285334 -0.035408202 -0.017178934)
(0.099150297 -0.034139769 -0.021399403)
(0.09469544 -0.033178328 -0.024787636)
(0.090880306 -0.032615006 -0.028604281)
(0.087149026 -0.03294494 -0.033442581)
(0.082702792 -0.034481322 -0.037644061)
(0.077586391 -0.03688047 -0.039530664)
(0.072458874 -0.039499891 -0.038366283)
(0.067292449 -0.041973298 -0.034253018)
(0.06335193 -0.044084834 -0.026530504)
(0.059965223 -0.047062686 -0.015963467)
(0.059143185 -0.05219029 -0.0036993053)
(0.065612745 -0.06029 0.0031620807)
(0.07724911 -0.064943281 -0.018157352)
(0.11058188 -0.055797322 -0.065664849)
(0.097985151 -0.0015814369 0.00033999661)
(0.096435389 -0.0023506904 0.00057121674)
(0.093960731 -0.0026020371 0.00067182953)
(0.091019299 -0.0026678253 0.00067242105)
(0.088118388 -0.0026533953 0.00058137224)
(0.085401022 -0.0025907681 0.00037732969)
(0.082841543 -0.0025191205 2.0154317e-05)
(0.080384117 -0.0024899527 -0.00054671135)
(0.077984232 -0.0025720959 -0.0014032935)
(0.075520008 -0.0028923995 -0.0026591594)
(0.072728006 -0.0037214338 -0.0045630287)
(0.069152124 -0.0056833154 -0.0075661)
(0.063968062 -0.010244513 -0.012611356)
(0.055416486 -0.018504714 -0.020985359)
(0.041659374 -0.023873409 -0.031367102)
(0.026361241 -0.019068795 -0.037235652)
(0.016799463 -0.01278383 -0.029261233)
(0.026494466 -0.0092611628 0.007183355)
(0.030510553 -0.00018941835 0.04278346)
(0.035346501 0.0090583464 0.065524196)
(0.042105338 0.015692301 0.078654832)
(0.049152792 0.018845068 0.085264038)
(0.05496776 0.0189661 0.087812572)
(0.058579551 0.016485265 0.087348935)
(0.059054906 0.011843817 0.08406974)
(0.056213099 0.0048456421 0.077724495)
(0.051203709 -0.0048567747 0.067542495)
(0.048467321 -0.018247323 0.051614491)
(0.037944473 -0.025517499 -0.0021552265)
(0.053414856 -0.0084621382 -0.086409389)
(0.10584906 -0.0025121802 0.00017621011)
(0.12042712 -0.0025824071 0.00030950832)
(0.13351954 -0.0023987417 0.0003763729)
(0.14419129 -0.0019335581 0.0003783217)
(0.15355712 -0.0012579072 0.0003209292)
(0.16213234 -0.0005502881 0.00020484261)
(0.1699704 8.9972824e-05 3.303979e-05)
(0.17708189 0.00064379782 -0.00019534632)
(0.18353283 0.0011169304 -0.00048246422)
(0.18941606 0.0015029723 -0.00081345717)
(0.19485749 0.0017618117 -0.00112779)
(0.20005995 0.0017876744 -0.0012510429)
(0.2047277 0.0014222788 -0.00075450154)
(0.20881555 0.00032256339 0.0010337009)
(0.21363117 0.00034476987 0.0043671647)
(0.21876311 0.0014624751 0.0085425463)
(0.22282184 0.0025451 0.012899737)
(0.22526075 0.0029069915 0.017210488)
(0.22649354 0.0024014677 0.02147926)
(0.22705467 0.0010770488 0.025760884)
(0.22726143 -0.00091838459 0.030178199)
(0.227159 -0.0033488184 0.034887192)
(0.22650845 -0.0060196775 0.039892954)
(0.22505713 -0.0088457004 0.044863699)
(0.2229564 -0.011622043 0.049209372)
(0.22076606 -0.013609023 0.05223613)
(0.21881499 -0.013437458 0.053127725)
(0.21614688 -0.0095202859 0.050904812)
(0.20846795 0.00054532905 0.042853985)
(0.15177117 0.028537993 0.022295756)
(0.099821644 -0.0039645609 0.00018036148)
(0.10020644 -0.0047888216 0.00032834318)
(0.10178457 -0.004900598 0.00040559717)
(0.10412814 -0.0045615224 0.00040617117)
(0.1069659 -0.0039645016 0.00033093998)
(0.11016082 -0.0033489011 0.00017267157)
(0.11358655 -0.0028402966 -8.2831662e-05)
(0.11715383 -0.0024767757 -0.00046179181)
(0.12082725 -0.0022951838 -0.00099424599)
(0.12464482 -0.0024027617 -0.0017013418)
(0.12877635 -0.0030599046 -0.0025565847)
(0.13364036 -0.0047920453 -0.0033908523)
(0.13995525 -0.0082802721 -0.0037160053)
(0.14793284 -0.012702314 -0.0026883402)
(0.15666063 -0.013061367 -0.00069076199)
(0.16400182 -0.0098939216 0.00068287869)
(0.16849384 -0.0069342762 0.000468746)
(0.17053042 -0.0059488343 -0.0013278807)
(0.1709177 -0.0071238209 -0.0044343759)
(0.17020167 -0.0097298099 -0.0084860807)
(0.16880375 -0.013034953 -0.012638377)
(0.1668636 -0.016394943 -0.015791496)
(0.1642136 -0.01938584 -0.017209773)
(0.16042278 -0.022166335 -0.01678652)
(0.15566161 -0.02519177 -0.015007873)
(0.15163989 -0.027748844 -0.013474048)
(0.15148454 -0.027049924 -0.015468991)
(0.15743231 -0.018256901 -0.02315778)
(0.17203272 0.0038194057 -0.036622202)
(0.17967206 0.042863912 -0.053326074)
(0.099965648 -0.0029558405 0.00018135154)
(0.099735318 -0.0042801477 0.00032991945)
(0.09927185 -0.0047011739 0.00041047252)
(0.098767295 -0.0048158752 0.00041346799)
(0.098363241 -0.004815576 0.00033465498)
(0.098107139 -0.0047732154 0.00016045078)
(0.097971592 -0.0047467801 -0.00013291686)
(0.097904495 -0.0048021435 -0.00058495311)
(0.097849374 -0.0050492391 -0.0012496615)
(0.097759973 -0.0057155884 -0.0022110403)
(0.097658768 -0.0073016529 -0.0035343594)
(0.097842656 -0.010854696 -0.0051901002)
(0.099082664 -0.018077526 -0.0067536389)
(0.10110283 -0.026470749 -0.0069015081)
(0.10352157 -0.026890004 -0.0049976701)
(0.10494898 -0.02117629 -0.0028449967)
(0.10026526 -0.015840731 -0.0036520689)
(0.092813629 -0.01272432 -0.0076620809)
(0.084227312 -0.013559448 -0.013892911)
(0.076342981 -0.017203882 -0.02032036)
(0.068987657 -0.022028455 -0.025042152)
(0.061408947 -0.026720691 -0.026115569)
(0.053997245 -0.030643861 -0.022363358)
(0.046955999 -0.034023337 -0.015103768)
(0.040742154 -0.037526491 -0.0075374084)
(0.037977161 -0.040478784 -0.0063278595)
(0.044367542 -0.0395151 -0.019013537)
(0.063221158 -0.028541679 -0.040031615)
(0.087255606 -0.0065830623 -0.062795226)
(0.10015507 0.029874808 -0.087170868)
(0.097956512 -0.0015831564 0.00017647112)
(0.096311245 -0.0023546418 0.00031833294)
(0.093703471 -0.0026059147 0.00039187043)
(0.090619603 -0.0026680342 0.00038704005)
(0.087562488 -0.0026451303 0.00029819534)
(0.084650825 -0.0025673572 0.00010925109)
(0.081830188 -0.0024712769 -0.00021080532)
(0.079009948 -0.0024076443 -0.00071635002)
(0.076049441 -0.0024559694 -0.0014994264)
(0.072687491 -0.0027812524 -0.0027373381)
(0.068424986 -0.0037938655 -0.0047271963)
(0.062230512 -0.0066199483 -0.0080833013)
(0.052557066 -0.014144437 -0.014239071)
(0.034578166 -0.02338947 -0.024319724)
(0.0071742444 -0.016660205 -0.032141601)
(-0.019047163 0.00074377127 -0.029413947)
(-0.033189343 0.0034055136 -0.023049084)
(-0.03866007 0.0023062404 -0.011654725)
(-0.025641161 -0.00085587035 0.010766177)
(-0.01703049 8.4473047e-05 0.029836124)
(-0.0069183469 0.0014698769 0.041614167)
(0.0014713869 0.0015278641 0.048247971)
(0.0062936051 -0.00044477978 0.050897687)
(0.007339233 -0.004221236 0.050990779)
(0.0044195546 -0.010297334 0.048590409)
(-0.0076058732 -0.020559598 0.034188755)
(-0.020625307 -0.02484473 -0.0021127241)
(-0.023389002 -0.0081329675 -0.048006228)
(0.00083029375 0.021619362 -0.083388337)
(0.041698623 0.048432284 -0.1074919)
(0.10582975 -0.0025161141 3.4743899e-05)
(0.12035989 -0.0025902435 5.2937469e-05)
(0.13339402 -0.0024096628 4.6700815e-05)
(0.14400954 -0.0019460996 1.5504328e-05)
(0.15332344 -0.0012699386 -3.9579654e-05)
(0.16184914 -0.00056051999 -0.00011955344)
(0.16963398 8.2318566e-05 -0.00022759726)
(0.17667787 0.00063378787 -0.00037023281)
(0.18304447 0.0010895754 -0.00055639655)
(0.18884125 0.0014241685 -0.00078638454)
(0.19424776 0.0015598579 -0.0010358016)
(0.1996331 0.0013381918 -0.0012011937)
(0.20499561 0.00069760728 -0.00098055376)
(0.21052508 0.00010153144 6.4354605e-05)
(0.21671273 0.00088325622 0.0016503404)
(0.22264484 0.002150358 0.0032239235)
(0.22747605 0.0033548786 0.0046396894)
(0.23134892 0.0046906857 0.0062198226)
(0.23508391 0.0062870192 0.0083468309)
(0.23939788 0.0079332729 0.011287808)
(0.24473049 0.0096878265 0.015247994)
(0.25082161 0.011910366 0.02037574)
(0.2565947 0.014701902 0.026661349)
(0.26069095 0.017859493 0.033787655)
(0.26201426 0.021183104 0.041045241)
(0.25962562 0.024774317 0.047294411)
(0.252091 0.02918962 0.051037125)
(0.23663809 0.035627772 0.050427503)
(0.20988464 0.046249788 0.042919622)
(0.11865591 0.069575285 0.026271313)
(0.099802961 -0.0039690224 3.7600131e-05)
(0.10013198 -0.004797612 6.1029178e-05)
(0.10163356 -0.0049117845 5.7681855e-05)
(0.10389704 -0.0045722012 2.3835074e-05)
(0.10665239 -0.0039711748 -4.1715134e-05)
(0.10975984 -0.0033490259 -0.00014287052)
(0.11308246 -0.00283438 -0.00028551454)
(0.11651473 -0.0024755249 -0.00048073567)
(0.12002633 -0.0023322469 -0.00074085097)
(0.12369451 -0.0025660058 -0.0010679376)
(0.12780577 -0.0035560925 -0.0014208442)
(0.13305556 -0.0060122451 -0.0016367994)
(0.14046277 -0.010279837 -0.0012720374)
(0.15001664 -0.011692855 0.00031641893)
(0.15950587 -0.0081245896 0.0018381496)
(0.16657133 -0.0038443679 0.0022213975)
(0.1719799 -0.00088147854 0.0017961105)
(0.17702066 0.00073023258 0.0011864442)
(0.18213931 0.0012930193 0.00062530638)
(0.18725034 0.0015116124 6.1461283e-05)
(0.1931821 0.0023277741 -0.0004178251)
(0.20124101 0.0052358238 -0.00020325823)
(0.21248655 0.011739862 0.0015015447)
(0.22339698 0.021288754 0.00451721)
(0.23294297 0.032590947 0.0084928929)
(0.23959181 0.044869445 0.012384834)
(0.24070113 0.058502727 0.014694147)
(0.23230948 0.074018977 0.013425539)
(0.21238096 0.093539807 0.0060742005)
(0.13851271 0.12295701 -0.010547611)
(0.099946767 -0.0029567494 3.7228669e-05)
(0.099660309 -0.0042830394 5.997556e-05)
(0.0991163 -0.0047049839 5.5966266e-05)
(0.098520995 -0.0048189158 1.9729185e-05)
(0.098015658 -0.0048163602 -5.2837055e-05)
(0.09764086 -0.004770056 -0.00016958674)
(0.097350456 -0.0047438129 -0.000343011)
(0.097059443 -0.0048137134 -0.00059512075)
(0.096684669 -0.0051195743 -0.00096110144)
(0.096165127 -0.0059738778 -0.0014873468)
(0.095582205 -0.0080977056 -0.0022142276)
(0.095627178 -0.013058736 -0.0030989295)
(0.097093333 -0.023053199 -0.0037225934)
(0.099360421 -0.025846484 -0.0021495464)
(0.10453756 -0.019375205 0.00056072309)
(0.10353594 -0.012774682 0.0001623837)
(0.10011414 -0.0072019344 -0.0021291913)
(0.093737669 -0.0029351517 -0.0053513449)
(0.086606711 -0.0015759737 -0.0093270708)
(0.077760727 -0.0035969022 -0.014187099)
(0.067698096 -0.0077079612 -0.018698439)
(0.057820879 -0.011142399 -0.020431297)
(0.054385854 -0.011164249 -0.018447108)
(0.066639226 -0.0055428292 -0.014414789)
(0.090760784 0.00561957 -0.011919827)
(0.12022496 0.022534678 -0.011453329)
(0.14147815 0.040918237 -0.011710636)
(0.15183834 0.061579994 -0.015276154)
(0.15207597 0.088334931 -0.023923684)
(0.11025773 0.12583388 -0.03764383)
(0.097937627 -0.0015832978 3.5985639e-05)
(0.096236296 -0.0023551418 5.6946075e-05)
(0.093547035 -0.0026063303 5.0684598e-05)
(0.090368643 -0.0026679301 1.10306e-05)
(0.087203006 -0.0026443916 -6.759343e-05)
(0.084156024 -0.0025655844 -0.00019562743)
(0.081142619 -0.0024717358 -0.00039251774)
(0.078016507 -0.0024201293 -0.00069362865)
(0.074552579 -0.0025112887 -0.0011699329)
(0.070325116 -0.0029767464 -0.0019560261)
(0.064447282 -0.0044421058 -0.0033229136)
(0.054910733 -0.0088074704 -0.0058813551)
(0.039740428 -0.020680552 -0.011181258)
(0.0023848518 -0.019346254 -0.02008683)
(-0.036573664 0.0024948489 -0.017658682)
(-0.056172889 0.0060887862 -0.015101472)
(-0.07202353 0.0065839851 -0.013739505)
(-0.079585828 0.0041326448 -0.010429601)
(-0.080267029 -0.00045567292 -0.0046609356)
(-0.0713928 -0.0055709677 0.0035302078)
(-0.061387368 -0.0099365218 0.010293185)
(-0.05245854 -0.014103931 0.014823584)
(-0.045675774 -0.018733802 0.017046895)
(-0.039367677 -0.021885792 0.017331494)
(-0.03173163 -0.020615303 0.015347863)
(-0.024553197 -0.010455673 0.006486798)
(0.012595575 0.024729888 -0.013636531)
(0.022188373 0.044332162 -0.027645929)
(0.039854357 0.07210293 -0.044282987)
(0.063164374 0.10839712 -0.058996764)
(0.10582807 -0.0025156778 -6.7755067e-05)
(0.12035425 -0.0025899362 -0.00012623154)
(0.13338315 -0.0024095487 -0.0001674277)
(0.14399165 -0.0019463296 -0.00019160429)
(0.15329525 -0.001270863 -0.00020186743)
(0.16180377 -0.00056288536 -0.00020034536)
(0.16956156 7.5856606e-05 -0.00018757633)
(0.17656627 0.00062025811 -0.00016027781)
(0.18288232 0.0010642945 -0.00011496978)
(0.18862111 0.0013705274 -5.4160366e-05)
(0.19398665 0.0014410031 1.6338318e-05)
(0.19946479 0.001102441 6.4925086e-05)
(0.20531991 0.00045134247 -1.1698589e-05)
(0.21170148 0.00037707546 -0.00035726149)
(0.21839175 0.0013926885 -0.00096678291)
(0.2245816 0.0026250466 -0.0016488333)
(0.22949304 0.0039667046 -0.0023524521)
(0.23374172 0.0057053862 -0.0032751074)
(0.2379578 0.0078512202 -0.0046423551)
(0.24260576 0.010293241 -0.0066939531)
(0.24790066 0.012946913 -0.0097246808)
(0.25351669 0.01588565 -0.014003735)
(0.25846464 0.019205896 -0.019618181)
(0.26151418 0.022690811 -0.026338448)
(0.26169374 0.026088833 -0.033552586)
(0.25823043 0.029425224 -0.040155616)
(0.24973666 0.033487595 -0.044539777)
(0.23331324 0.039471185 -0.044804468)
(0.2054597 0.049457566 -0.03839954)
(0.11208137 0.072042617 -0.023290059)
(0.099802654 -0.0039685577 -6.3091081e-05)
(0.10013025 -0.0047974057 -0.00011911233)
(0.10162873 -0.0049121044 -0.00015553612)
(0.10388674 -0.0045735369 -0.00017072569)
(0.10663273 -0.0039745895 -0.00016638819)
(0.10972174 -0.0033570261 -0.00014198919)
(0.11301586 -0.0028526452 -9.5184192e-05)
(0.11641213 -0.0025129544 -1.8268323e-05)
(0.11987876 -0.0024098948 9.6345513e-05)
(0.12350542 -0.0027396276 0.00025756655)
(0.12764054 -0.0039505314 0.00046211318)
(0.13317461 -0.0068179762 0.00066618373)
(0.14113664 -0.011131522 0.00074807096)
(0.15156499 -0.010083212 0.000391837)
(0.1609089 -0.0057944823 3.0190816e-05)
(0.16798049 -0.0018334045 0.00012013121)
(0.17432069 0.0010844578 0.00058129712)
(0.18051908 0.0033161754 0.0011172683)
(0.18670937 0.00519758 0.0015779977)
(0.19357824 0.0071301239 0.0019759401)
(0.20177661 0.0099931832 0.0020983325)
(0.2114846 0.015045564 0.0015044391)
(0.22185216 0.022928467 -0.00014599057)
(0.23149629 0.033012366 -0.0030416374)
(0.23922485 0.043951707 -0.0069958662)
(0.2438616 0.055133666 -0.011130088)
(0.24298533 0.067520727 -0.013722146)
(0.23239758 0.08155467 -0.012774242)
(0.21032681 0.099233919 -0.0060140833)
(0.13402723 0.12666109 0.009693677)
(0.099946435 -0.0029567711 -6.2395915e-05)
(0.099658538 -0.004283315 -0.00011723123)
(0.099111179 -0.0047058521 -0.000152993)
(0.098509301 -0.0048209777 -0.00016704163)
(0.097991245 -0.0048209774 -0.00015961136)
(0.097590553 -0.0047807917 -0.00012837839)
(0.097257381 -0.0047664765 -6.8112684e-05)
(0.096900059 -0.0048602487 3.2825178e-05)
(0.096413888 -0.0052253428 0.00019239214)
(0.09571754 -0.0062297549 0.00043790119)
(0.094939272 -0.0087336431 0.00080210401)
(0.095179378 -0.014604184 0.0013208427)
(0.096505491 -0.026048084 0.0021335057)
(0.10160065 -0.022898049 0.0023210275)
(0.10559577 -0.015964246 0.0015152709)
(0.10479567 -0.0097716878 0.0016629148)
(0.10110846 -0.0041274035 0.0027274538)
(0.095376357 0.00047328517 0.0044871298)
(0.08959867 0.0027139533 0.0070816417)
(0.082957294 0.001981185 0.010497814)
(0.074256298 -0.00080920799 0.013748347)
(0.066823107 -0.0026440295 0.015042566)
(0.06950323 -0.00021113786 0.013185134)
(0.083567749 0.0072170779 0.0095924023)
(0.10840632 0.019893803 0.0066603669)
(0.13172179 0.035442896 0.0045701141)
(0.14965126 0.052186764 0.0048775574)
(0.1568255 0.070789607 0.0095689416)
(0.15414816 0.094978997 0.019510078)
(0.11081456 0.12979757 0.034481153)
(0.097937258 -0.001583362 -6.0470226e-05)
(0.096234293 -0.0023553349 -0.00011255181)
(0.093541173 -0.0026068056 -0.00014521663)
(0.090354878 -0.0026689426 -0.00015559238)
(0.087172677 -0.0026465467 -0.00014338091)
(0.08409185 -0.0025708007 -0.00010557108)
(0.081020408 -0.0024830334 -3.418657e-05)
(0.077789817 -0.0024441307 8.5426891e-05)
(0.074113845 -0.0025701197 0.0002850439)
(0.069443467 -0.0031367202 0.00062379518)
(0.062624416 -0.004919538 0.0012218068)
(0.051033013 -0.01038723 0.0024045003)
(0.032190601 -0.025275875 0.005462489)
(-0.019935215 -0.0071235087 0.014662177)
(-0.043469061 0.0054675007 0.013542462)
(-0.063284625 0.0073861546 0.010465471)
(-0.076491798 0.0065858721 0.0068482971)
(-0.083963968 0.0032026053 0.0019377353)
(-0.085097929 -0.0017293277 -0.0037509874)
(-0.079420467 -0.0067927644 -0.0092478473)
(-0.070702373 -0.011530563 -0.012360423)
(-0.062641075 -0.016011814 -0.01369569)
(-0.05538886 -0.019806775 -0.013736509)
(-0.04730417 -0.021204938 -0.013027943)
(-0.036533311 -0.017242354 -0.012154944)
(-0.018825334 -0.0031197621 -0.0079426955)
(0.013206243 0.027907765 0.0070298262)
(0.02279211 0.047663633 0.022260322)
(0.038199796 0.073962664 0.041030853)
(0.06110972 0.10859983 0.057439411)
(0.10584332 -0.0025115338 -0.00020539816)
(0.12040827 -0.002582961 -0.00037452146)
(0.13348434 -0.0024007965 -0.00048326088)
(0.14413611 -0.0019374004 -0.0005332747)
(0.15347692 -0.001264118 -0.00053124415)
(0.1620222 -0.00055986412 -0.00047879248)
(0.16982601 7.6248845e-05 -0.00037567022)
(0.17689346 0.00062149467 -0.00022884353)
(0.18327973 0.0010738316 -3.4389477e-05)
(0.18908582 0.001424577 0.00019589616)
(0.19446776 0.0016187474 0.00040008833)
(0.1996901 0.0015246848 0.00039163037)