/*--------------------------------*- C++ -*----------------------------------*\
| =========                 |                                                 |
| \\      /  F ield         | OpenFOAM: The Open Source CFD Toolbox           |
|  \\    /   O peration     | Version:  v2012                                 |
|   \\  /    A nd           | Website:  www.openfoam.com                      |
|    \\/     M anipulation  |                                                 |
\*---------------------------------------------------------------------------*/
FoamFile
{
    version     2.0;
    format      ascii;
    class       volScalarField;
    location    "10";
    object      p;
}
// * * * * * * * * * * * * * * * * * * * * * * * * * * * * * * * * * * * * * //

dimensions      [0 2 -2 0 0 0 0];


internalField   nonuniform List<scalar> 
64000
(
2.12441e-21
-3.68685e-22
-1.79376e-21
-2.90264e-21
-5.257e-21
-3.55309e-21
6.17071e-23
7.37865e-22
-1.45892e-21
-1.95837e-21
-2.20709e-21
-2.13291e-21
-1.93114e-21
-4.2665e-21
-2.13439e-21
-3.45506e-21
-1.00361e-21
-2.83963e-23
1.33172e-21
2.38276e-21
-2.52754e-22
-3.86162e-21
-7.58521e-22
9.95037e-22
-4.38851e-21
-1.65119e-21
-3.06552e-23
-8.85147e-22
-6.60391e-22
-2.47363e-21
-2.3582e-21
6.9835e-23
7.32247e-23
-1.61812e-21
-5.58307e-22
-1.08288e-21
-2.07303e-22
1.57607e-21
9.80544e-22
1.45108e-21
-1.32054e-21
-3.29552e-21
-7.25504e-21
-4.32485e-21
-6.82957e-21
-7.33187e-21
-2.75653e-21
-1.66186e-22
-1.7085e-21
-4.87196e-21
-4.05227e-21
-5.23868e-21
-1.83004e-21
-1.31238e-21
-2.78223e-21
-4.97027e-21
-2.57356e-21
1.3776e-21
3.07718e-22
6.54095e-22
2.35622e-21
6.62255e-23
-2.13751e-21
-6.43097e-21
-6.4298e-21
2.45205e-22
7.33376e-22
-1.99198e-21
-7.87859e-22
1.19892e-21
2.04569e-21
-1.34179e-22
-1.15485e-21
-1.20653e-21
-1.74649e-21
-3.66159e-22
9.13474e-22
1.24893e-21
3.36994e-22
9.42838e-22
-3.21009e-21
-2.04438e-21
-9.13165e-21
-6.15193e-21
-5.34822e-21
-7.89432e-21
-3.26729e-21
-2.53441e-21
-1.23116e-21
-2.38082e-21
-4.51421e-21
-6.42522e-21
-1.81841e-21
-1.67757e-21
-1.21079e-21
-5.64425e-22
-5.32733e-21
-2.3662e-21
-1.42433e-21
-1.41829e-22
9.23562e-22
1.429e-21
-1.17933e-21
-4.86111e-21
-7.9547e-22
-7.15614e-22
-1.63525e-21
-2.48476e-21
3.60243e-22
1.26735e-21
6.32375e-22
-5.26731e-22
6.09524e-22
-2.33394e-22
-1.51417e-21
1.5432e-21
2.61083e-22
-2.48675e-22
-4.92772e-22
2.6333e-22
-5.35508e-21
-6.69143e-21
-6.49176e-21
-9.21333e-21
-7.51354e-21
-8.10808e-21
-4.45466e-21
-2.25609e-21
-4.15545e-21
-3.9447e-21
-2.88642e-21
-5.83666e-21
-4.57932e-21
-7.08093e-22
-1.47671e-21
-3.33302e-21
-3.16959e-21
-2.70676e-21
-1.36687e-21
3.15691e-22
1.12405e-21
2.60146e-21
-1.85512e-21
-5.27481e-21
-1.28646e-21
-1.42262e-21
-6.23339e-22
4.26824e-22
-3.47799e-22
3.90513e-23
1.62926e-21
1.09486e-22
-2.37409e-21
1.16652e-21
7.68224e-22
-3.16986e-22
1.66974e-22
-3.44069e-22
-9.44747e-22
-2.2266e-23
-1.2985e-20
-8.62348e-21
-8.49505e-21
-8.56166e-21
-7.51532e-21
-7.35028e-21
-4.78178e-21
-1.9193e-21
-4.24698e-21
-4.73331e-21
-4.19097e-21
-4.91788e-21
-1.79316e-21
1.80912e-22
-4.66357e-21
-6.98094e-21
-3.32574e-21
6.42086e-22
6.58564e-22
-7.98187e-22
2.12173e-21
-8.73125e-22
-5.61829e-21
-4.88084e-21
-8.17919e-22
-1.61807e-22
4.3749e-22
-1.06211e-21
-1.54194e-21
1.0658e-21
3.33944e-21
2.35462e-22
-9.42678e-22
7.64041e-22
-1.99737e-21
-5.91824e-22
-1.27431e-22
8.01268e-22
-8.33929e-22
8.14514e-22
-8.86523e-21
-7.97339e-21
-7.1417e-21
-8.71266e-21
-7.55609e-21
-6.46864e-21
-4.59707e-21
-5.5202e-21
-5.40228e-21
-4.56487e-21
-3.53579e-21
-4.21132e-21
-2.91377e-21
-1.46296e-21
-3.35546e-21
-5.6874e-21
-2.95344e-21
1.31562e-21
1.42665e-21
4.7225e-22
7.3868e-22
-1.3078e-21
-6.88412e-21
-4.61925e-21
-1.88244e-21
2.36761e-22
-1.2964e-21
-8.56345e-22
1.88787e-23
-8.23746e-23
8.10011e-22
1.93498e-22
1.90879e-22
7.9911e-22
-1.47121e-21
-4.44677e-22
-6.24578e-22
-2.14468e-21
-7.47246e-22
8.95208e-22
-9.37952e-21
-8.99592e-21
-7.16011e-21
-8.42655e-21
-7.93559e-21
-7.08867e-21
-4.83513e-21
-5.84247e-21
-6.99449e-21
-3.564e-21
-3.43102e-21
-4.02501e-21
-2.16427e-21
-2.61054e-21
-3.38931e-21
-3.0468e-21
-9.08979e-22
2.19049e-21
3.52433e-21
1.42632e-21
-5.47746e-22
-3.05314e-21
-8.03339e-21
-5.00785e-21
-3.69636e-21
-1.14705e-21
-5.13217e-22
2.12101e-22
7.57817e-22
-1.9963e-22
-1.79855e-21
5.9802e-23
9.00495e-22
1.20767e-22
-3.33293e-22
-2.74197e-22
2.13524e-22
-2.86216e-21
-3.60174e-21
-4.19805e-22
-7.6682e-21
-8.75434e-21
-9.35126e-21
-6.94837e-21
-7.95725e-21
-5.66337e-21
-5.5291e-21
-7.87539e-21
-5.9788e-21
-4.09817e-21
-5.58354e-21
-4.67989e-21
-3.03465e-21
-2.98589e-21
-2.95671e-21
-3.29334e-21
-1.08768e-21
2.31477e-21
2.85758e-21
4.02443e-21
-8.65542e-22
-5.3905e-21
-7.65146e-21
-4.0811e-21
-3.53095e-21
-1.94089e-21
-3.51602e-22
1.4692e-21
1.72272e-21
-6.37475e-22
-3.69349e-21
-1.15036e-21
4.08343e-22
-6.60654e-22
3.55797e-22
3.22283e-22
-3.95565e-22
-4.13168e-21
-2.02542e-21
1.2433e-22
-1.58674e-20
-1.0802e-20
-8.33627e-21
-9.10602e-21
-5.51377e-21
-5.54271e-21
-6.33649e-21
-5.84843e-21
-4.66243e-21
-7.67411e-21
-6.3687e-21
-6.55835e-21
-3.14886e-22
-3.26557e-21
-2.34893e-21
-4.18206e-21
-3.21296e-21
3.66202e-21
1.72951e-21
2.1498e-21
2.20068e-22
-7.12535e-21
-7.31833e-21
-4.72639e-21
-1.48876e-21
-3.37095e-21
4.50078e-22
2.08306e-21
6.57631e-22
-6.94854e-22
1.06835e-22
-1.29249e-21
-4.14917e-21
-9.12933e-23
6.48018e-22
1.72375e-21
-7.7749e-23
-4.09317e-21
-4.50613e-22
8.85129e-22
-7.53063e-21
-8.82044e-21
-8.81719e-21
-8.63258e-21
-7.48177e-21
-6.55718e-21
-4.69357e-21
-6.78032e-21
-5.32203e-21
-4.40124e-21
-5.34847e-21
-4.54513e-21
-2.756e-21
-1.9694e-21
-4.72126e-21
-3.70329e-21
-3.25615e-21
3.30385e-22
1.97444e-21
3.47862e-21
1.9512e-21
-6.30541e-21
-7.81532e-21
-3.64464e-21
-2.83793e-21
-1.95504e-21
-2.53925e-23
2.21246e-21
-3.09187e-21
-1.1873e-21
-3.23808e-22
-6.82596e-22
-1.0803e-21
-1.65091e-21
-3.86576e-22
1.81496e-22
-7.45148e-22
-1.29928e-21
7.09782e-22
1.2697e-21
-6.15004e-21
-9.4852e-21
-7.53173e-21
-1.12478e-20
-8.41717e-21
-7.98012e-21
-7.88927e-21
-6.17311e-21
-5.05018e-21
-7.57145e-21
-5.23352e-21
-2.61264e-21
-1.96412e-21
-1.73222e-21
-3.67484e-21
-4.28169e-21
-1.57068e-21
3.93731e-22
4.29565e-21
1.76641e-21
-3.49552e-21
-8.9474e-21
-4.832e-21
-4.13872e-21
-4.22914e-21
-2.76191e-21
-1.93295e-22
7.83834e-22
-2.23548e-21
-1.39047e-21
2.33854e-22
-1.75197e-21
1.56925e-21
1.14026e-21
-1.61715e-21
-2.36945e-21
5.70349e-22
2.89333e-21
1.42476e-21
4.52954e-22
-7.29249e-21
-1.12289e-20
-1.01796e-20
-9.20919e-21
-7.62092e-21
-8.82861e-21
-8.74681e-21
-6.55107e-21
-4.81182e-21
-6.10641e-21
-6.59153e-21
-3.83046e-21
-3.93124e-21
-3.59536e-21
-2.16199e-21
-2.68583e-21
-2.82798e-21
5.11715e-22
1.70111e-21
2.86379e-21
-4.84922e-21
-6.15914e-21
-5.23958e-21
-6.30513e-21
-2.6664e-21
-1.39048e-21
5.63199e-22
-1.13868e-21
-3.12156e-21
4.71863e-22
-1.30495e-22
-1.74829e-21
9.76234e-22
2.39377e-21
-2.94142e-21
-1.02547e-21
2.5872e-21
2.46536e-21
1.28052e-21
-7.61047e-22
-1.10708e-20
-1.22913e-20
-1.11866e-20
-8.27492e-21
-8.74338e-21
-8.8705e-21
-9.45839e-21
-6.55853e-21
-5.99545e-21
-6.63381e-21
-7.10565e-21
-2.77229e-21
-2.84223e-21
-4.88598e-21
-2.47381e-21
-2.03913e-21
-3.71678e-22
-3.44358e-22
-2.03547e-22
-8.16837e-22
-2.18176e-21
-3.77791e-21
-3.78833e-21
-4.65389e-21
-3.33131e-21
7.90553e-22
3.25252e-22
-2.38004e-21
-2.00315e-21
-1.40485e-21
-2.35971e-21
1.74062e-22
8.45306e-22
6.1343e-22
-1.18909e-21
-3.93909e-22
1.0246e-21
-3.2532e-22
-6.79251e-22
-6.23552e-22
-1.20492e-20
-1.37232e-20
-1.22752e-20
-9.46023e-21
-8.47233e-21
-8.90526e-21
-8.01391e-21
-4.19047e-21
-9.16922e-21
-1.23599e-20
-6.2952e-21
-8.16958e-22
-3.77019e-21
-7.75926e-21
-1.82222e-21
-1.61309e-21
9.48685e-22
3.46372e-22
6.78715e-22
-1.94837e-22
-4.08432e-21
-5.68215e-21
-5.57535e-21
-7.30117e-21
2.75428e-22
2.19783e-21
7.39315e-22
-2.19616e-21
-3.84908e-21
-1.29901e-21
5.57989e-22
1.1585e-21
4.81078e-22
-5.46346e-22
-3.86896e-21
3.14965e-22
2.74642e-22
2.03988e-22
-2.58342e-21
-1.58248e-22
-8.72304e-21
-1.65637e-20
-1.5264e-20
-7.43543e-21
-5.83884e-21
-8.1412e-21
-9.85065e-21
-9.34328e-21
-8.25038e-21
-9.17249e-21
-6.24604e-21
-4.22861e-21
-2.83008e-21
-3.00062e-21
-1.2818e-21
-2.07483e-21
-1.35562e-21
-1.05231e-21
-2.77157e-21
-3.53079e-22
-6.31523e-21
-2.23545e-21
-3.91766e-21
-6.48548e-21
1.91186e-21
4.15039e-22
-4.11974e-22
-6.85146e-22
-2.89929e-21
-2.21278e-21
-1.24853e-21
2.12476e-21
9.71984e-22
-1.17645e-22
-7.59092e-22
-3.23431e-21
1.00111e-21
-3.81707e-22
-2.88203e-21
1.67529e-21
-1.08195e-20
-1.35419e-20
-1.35708e-20
-9.29543e-21
-1.0036e-20
-7.52265e-21
-8.66052e-21
-9.94067e-21
-7.50096e-21
-5.37571e-21
-8.00437e-21
-5.92284e-21
-2.24269e-21
-1.95764e-21
-2.48357e-21
-3.42958e-21
-1.85863e-21
-8.2616e-22
8.44838e-22
-7.60177e-22
-5.96162e-21
-6.24455e-21
-4.15897e-21
-1.67562e-21
5.93576e-22
-9.41955e-22
-1.35749e-21
-3.74701e-23
-5.06124e-22
-1.66755e-21
-3.53959e-21
1.22075e-21
8.76315e-22
6.17663e-22
7.68128e-22
-1.98124e-21
-1.64161e-21
-3.00641e-21
-3.31785e-21
6.06024e-22
-1.00647e-20
-1.1279e-20
-1.41061e-20
-9.28378e-21
-6.66103e-21
-8.71745e-21
-1.12945e-20
-1.06113e-20
-5.71454e-21
-6.30154e-21
-8.29894e-21
-5.07071e-21
1.45302e-22
-2.38858e-21
-1.78318e-21
-1.88813e-21
-2.6574e-21
-5.70277e-22
-2.03627e-21
-2.84614e-21
-6.496e-21
-4.71394e-21
-3.34992e-21
-6.00787e-22
9.08404e-23
9.32169e-22
-6.52109e-22
8.41647e-22
6.6263e-22
-3.37376e-21
-5.20523e-21
-6.43456e-23
2.26396e-21
7.9493e-22
-8.26092e-22
-9.52585e-23
-1.52903e-21
-3.78805e-21
-3.28962e-21
-1.74024e-21
-7.96931e-21
-1.12374e-20
-1.64513e-20
-9.29916e-21
-6.32721e-21
-7.55521e-21
-1.09886e-20
-1.00046e-20
-6.54467e-21
-5.85076e-21
-7.50362e-21
-4.71112e-21
6.03603e-22
-3.06178e-21
-3.39472e-21
-2.12374e-21
-2.00554e-21
-1.0553e-21
5.76748e-22
-4.06951e-21
-7.43093e-21
-7.80665e-21
-1.17675e-21
-2.5209e-22
2.26907e-21
-1.51458e-21
5.12328e-22
2.18858e-21
-1.77159e-21
-1.15732e-21
-1.65611e-21
-1.09688e-21
-5.46933e-22
-9.37186e-22
-1.71935e-21
-1.68458e-21
-1.07063e-21
-1.86132e-21
-1.65615e-21
-1.1416e-21
-6.93211e-21
-8.60183e-21
-1.15984e-20
-1.03788e-20
-1.05075e-20
-9.18368e-21
-8.31612e-21
-6.28319e-21
-5.86866e-21
-6.77996e-21
-6.41727e-21
-5.54426e-21
-4.00505e-22
-2.12192e-21
-4.35616e-21
-2.17798e-21
-2.76664e-21
-4.74398e-21
-5.15768e-21
-6.38741e-21
-3.2154e-21
-6.6587e-22
-1.43575e-21
-2.24794e-22
2.00937e-21
5.53153e-22
1.40231e-21
3.18992e-21
7.8659e-22
-1.64679e-21
-4.47123e-21
-1.89073e-21
-8.76824e-22
-1.51498e-21
-1.76281e-21
-7.02767e-22
-9.0945e-23
-1.43019e-21
-3.09162e-21
-2.76017e-21
-5.3234e-21
-7.598e-21
-1.30617e-20
-1.0779e-20
-9.16683e-21
-7.0264e-21
-7.51199e-21
-7.87593e-21
-6.32816e-21
-5.65874e-21
-5.98908e-21
-5.53918e-21
-4.70827e-21
-2.53285e-21
-2.95075e-21
-1.86927e-21
-8.22447e-22
-2.60214e-21
-7.49983e-21
-5.23638e-21
-2.47842e-21
-2.92785e-21
-2.04638e-21
1.33991e-21
2.82237e-21
2.3808e-21
-2.84207e-21
1.08188e-21
9.35145e-22
-2.07344e-21
-1.1199e-21
-8.40675e-22
6.61413e-22
-1.20587e-21
-3.33613e-21
-9.5981e-22
-1.23861e-21
-1.17379e-21
-1.95566e-21
-3.06698e-21
-7.25383e-21
-9.19401e-21
-1.15485e-20
-8.24408e-21
-9.76171e-21
-7.24754e-21
-7.78037e-21
-4.33028e-21
-3.04248e-21
-8.36579e-21
-1.20277e-20
-7.05018e-21
-2.59394e-21
-1.66417e-21
-2.57458e-21
-1.46583e-21
-2.49786e-21
-9.50182e-22
-5.62859e-21
-3.14867e-21
-1.62221e-21
-3.58141e-21
-6.22755e-22
-5.7716e-22
-1.02701e-21
2.61776e-21
1.10227e-21
2.2467e-22
-1.55114e-21
-1.84812e-21
-8.62872e-22
-2.26014e-22
-2.30606e-22
1.59635e-21
-1.35047e-21
-2.99376e-21
-1.97032e-21
-7.21233e-22
-9.12121e-22
-2.67973e-21
-1.16989e-20
-1.12769e-20
-8.29801e-21
-7.22621e-21
-9.78503e-21
-7.12078e-21
-7.73009e-21
-6.74334e-21
-4.30739e-21
-7.37294e-21
-1.0925e-20
-6.56803e-21
-2.08607e-21
-6.92673e-21
-2.17305e-21
9.2953e-22
8.75702e-22
-3.30848e-21
-4.2059e-21
-2.19419e-21
-4.38556e-21
-3.28042e-21
-4.32959e-22
-3.36543e-22
3.03782e-22
1.7747e-21
1.60842e-21
-2.49039e-21
-1.4778e-21
-1.43497e-21
-1.85156e-21
2.6664e-21
5.64978e-23
-5.64825e-22
-1.05267e-21
-6.05696e-21
-5.51825e-22
1.28297e-21
1.06457e-21
-1.47226e-22
-1.31096e-20
-9.94514e-21
-8.63173e-21
-6.75185e-21
-6.9088e-21
-1.04615e-20
-6.37278e-21
-3.92629e-21
-7.74436e-21
-1.13854e-20
-9.35828e-21
-6.2959e-21
-3.39481e-21
-2.25634e-21
-2.52237e-22
-4.24323e-22
8.04147e-22
2.16096e-22
-4.91697e-22
-5.01448e-21
-4.14023e-21
-8.49468e-22
-2.61688e-21
-5.89292e-21
-2.35724e-21
7.49472e-23
1.45072e-21
2.88084e-23
-8.15779e-22
-3.14245e-22
-3.76124e-21
-5.29006e-22
4.3328e-22
3.3219e-22
1.43418e-21
-2.4876e-21
2.07341e-22
2.99337e-21
-8.91621e-22
-1.91872e-21
-8.78463e-21
-8.98572e-21
-9.74496e-21
-7.30258e-21
-5.75542e-21
-8.37781e-21
-8.35876e-21
-1.13208e-20
-5.91024e-21
-6.64914e-21
-7.81695e-21
-6.53732e-21
-1.37041e-22
-3.28861e-21
-3.5846e-21
-9.8298e-23
5.55328e-22
-5.73338e-22
-1.61976e-21
-1.15847e-21
-3.38297e-21
-1.56556e-21
-1.96961e-21
-3.34475e-21
-3.63363e-21
-1.26954e-21
1.26916e-21
1.81304e-21
8.6769e-22
-3.35524e-21
-2.52611e-21
-7.70705e-22
-1.1746e-21
-8.61092e-22
-2.58618e-22
-4.97373e-22
2.55713e-21
2.08649e-21
-5.26107e-22
-1.79772e-21
-3.05768e-21
-7.32782e-21
-9.17456e-21
-9.1651e-21
-6.90578e-21
-6.78642e-21
-7.38084e-21
-9.14071e-21
-4.45018e-21
-6.91661e-21
-1.01871e-20
-7.82917e-21
-3.49318e-21
-3.267e-21
-3.73742e-21
2.35633e-22
8.48668e-22
-7.01895e-22
6.20058e-22
2.07405e-21
-7.55294e-22
-2.49099e-21
-1.85374e-22
-5.0824e-21
-4.50978e-21
-1.49312e-21
-1.00975e-21
8.72922e-22
-1.94193e-21
-1.52249e-21
-1.10583e-21
-2.44503e-22
-2.59614e-21
-8.34218e-22
-1.22637e-21
-9.39571e-23
2.52915e-21
2.51572e-23
-5.33816e-22
3.89727e-22
-6.67855e-21
-7.75763e-21
-9.38427e-21
-8.50504e-21
-6.52699e-21
-4.68086e-21
-6.25674e-21
-8.59895e-21
-4.11255e-21
-3.98368e-21
-1.05097e-20
-8.8994e-21
-4.94831e-21
-5.2682e-21
-4.72834e-22
4.49265e-22
-1.14304e-23
-6.63774e-22
1.50263e-21
1.9259e-21
1.65224e-21
-1.81599e-21
-4.36132e-21
-5.89075e-21
-2.95009e-21
-2.69646e-21
5.27906e-22
-9.75837e-22
-4.70891e-21
8.45074e-22
6.04402e-22
-2.9889e-21
-4.36524e-21
-7.8899e-22
2.19836e-21
6.21066e-22
9.12408e-22
-2.4996e-21
6.34636e-22
1.57243e-21
-2.57533e-21
-5.20567e-21
-8.55419e-21
-1.11515e-20
-6.32209e-21
-7.73901e-21
-5.77763e-21
-4.43204e-21
-3.74415e-21
-6.51777e-21
-8.18641e-21
-6.24362e-21
-3.15787e-21
-4.78464e-21
-5.55887e-21
-8.13403e-22
-1.02764e-21
-6.11839e-22
5.52734e-21
5.34018e-21
-2.0166e-21
-6.21041e-21
-3.37622e-21
-2.91553e-21
-3.37523e-21
-2.90849e-21
1.07379e-21
-4.84072e-22
-3.96854e-21
-1.76605e-21
1.40837e-21
-6.62511e-22
-1.41799e-21
-1.65882e-21
2.03913e-22
8.18727e-22
-8.69553e-22
-2.95532e-21
-9.16163e-22
9.76585e-22
-3.51045e-21
-7.60005e-21
-8.45873e-21
-9.50326e-21
-4.60062e-21
-6.48752e-21
-4.05866e-21
-5.79934e-21
-4.82713e-21
-6.19079e-21
-6.84501e-21
-4.91928e-21
-1.33041e-21
-2.98214e-21
-5.51447e-21
-2.28101e-21
-9.5876e-22
-1.69719e-22
4.15873e-21
3.65142e-21
-3.309e-21
-3.94424e-21
-2.81179e-21
-5.07733e-21
-2.27409e-21
-5.81364e-22
-6.4381e-22
-2.33689e-21
-3.14528e-21
-2.14655e-21
1.19465e-21
-1.62274e-22
-1.78422e-21
-4.01113e-22
2.47853e-22
-1.37846e-21
-1.59381e-21
-1.94503e-21
-9.87626e-22
7.0122e-23
-4.48382e-21
-9.13252e-21
-8.83458e-21
-6.83019e-21
-7.24519e-21
-7.27173e-21
-5.76525e-21
-3.33977e-21
-3.09789e-21
-5.52946e-21
-7.44284e-21
-1.93741e-21
-1.17358e-21
-1.7564e-21
-4.51163e-21
-2.76616e-21
4.48828e-22
2.12071e-21
4.76893e-22
8.1632e-22
-4.96429e-21
-5.5467e-21
-2.28088e-21
-2.19045e-21
-1.54772e-21
-1.20747e-21
-1.49101e-21
-3.82099e-21
-3.76819e-21
-1.64526e-21
3.0226e-21
8.01013e-22
-1.51623e-21
1.04605e-21
-7.56487e-22
-3.65576e-21
-9.97626e-22
-3.77574e-22
-7.22393e-22
-8.3639e-22
-5.17865e-21
-7.68362e-21
-7.23552e-21
-8.84361e-21
-9.23205e-21
-6.32916e-21
-4.86958e-21
-3.05525e-21
-2.32093e-21
-4.01111e-21
-8.45189e-21
-2.01335e-21
2.39327e-22
-1.16005e-21
-4.21829e-21
-6.39001e-21
-2.68496e-21
1.08295e-21
5.1009e-21
3.37851e-21
-3.90059e-21
-4.75504e-21
-2.91535e-21
-2.75907e-21
-2.9835e-21
-2.78597e-21
-1.36433e-21
2.06615e-21
-1.90569e-21
-8.83976e-22
4.08599e-22
-1.54491e-21
-1.81009e-21
5.03107e-22
-1.5499e-21
-4.37504e-21
-3.66463e-22
-1.73073e-21
2.39984e-22
4.99588e-22
-7.85938e-21
-7.47072e-21
-5.34345e-21
-7.84193e-21
-9.26203e-21
-7.28264e-21
-3.53022e-21
-2.93049e-21
-3.17622e-21
-2.34409e-21
-3.89392e-21
-2.13468e-21
-2.64231e-21
2.311e-22
3.1286e-22
-7.33302e-21
-5.01908e-21
1.19059e-21
2.82625e-21
2.1267e-21
1.34221e-21
-3.40415e-21
-4.33414e-21
-1.80583e-21
-2.65699e-21
-1.75726e-21
-2.80735e-21
1.61721e-22
-6.99761e-22
-3.47668e-22
-2.22244e-21
-9.55095e-22
9.09878e-23
2.44192e-22
-2.4016e-21
-4.33016e-21
-3.2194e-21
-1.08983e-21
-5.40471e-22
-4.47259e-22
-1.24035e-20
-1.00049e-20
-6.25875e-21
-6.83093e-21
-6.06942e-21
-5.65854e-21
-3.82617e-21
-4.38946e-21
-3.39514e-21
7.13533e-22
6.65744e-22
-5.40281e-21
-3.20074e-21
-1.99786e-22
-1.21767e-21
-4.2074e-21
-1.521e-21
2.58044e-21
9.18791e-23
-4.52337e-22
2.33376e-21
-1.24952e-21
-7.70629e-21
-4.5652e-21
-1.22903e-21
-9.9242e-22
-1.38209e-21
1.93533e-22
1.81019e-21
1.51515e-21
-5.36357e-21
-1.2789e-21
1.61361e-21
-1.02833e-21
-4.32872e-21
-4.41848e-21
-3.26461e-21
-1.4997e-21
1.80109e-21
1.40389e-21
-8.81685e-21
-6.29143e-21
-5.36871e-21
-6.913e-21
-7.67474e-21
-4.21795e-21
-1.6194e-21
-5.9997e-21
-3.34096e-21
-1.22431e-21
6.26618e-22
-4.76832e-22
-4.74653e-21
-9.63016e-22
1.49666e-21
-3.59096e-21
-1.20499e-21
-8.34768e-22
1.20423e-21
-9.81223e-22
1.79651e-21
-1.66149e-21
-4.95466e-21
-1.80347e-21
-5.26872e-21
-3.86544e-21
6.343e-22
1.59868e-22
2.85257e-22
-6.27794e-22
-1.27036e-21
-1.86567e-22
1.82827e-21
-8.79338e-22
-2.74572e-21
-2.19482e-21
-2.11585e-21
-5.50088e-21
-1.72933e-21
-5.93022e-22
-8.0279e-21
-5.03265e-21
-4.51027e-21
-7.58381e-21
-7.27112e-21
-3.22972e-21
-1.61614e-21
-2.05507e-21
-3.82865e-21
-2.49574e-21
-1.94142e-22
-2.19423e-21
-6.60249e-21
-4.16788e-22
8.24686e-22
-6.75974e-22
-1.59337e-21
-8.10447e-22
-3.9927e-22
1.40704e-21
2.43568e-21
-4.00369e-21
-2.0804e-21
-3.74483e-21
-3.98039e-21
-1.44251e-21
-1.0859e-21
-1.34494e-21
-3.09732e-22
-2.94884e-22
-8.48728e-22
1.45378e-21
2.27652e-21
7.70041e-22
-1.20058e-21
-4.36053e-21
-2.29925e-21
5.81928e-22
-1.82512e-21
-3.29843e-21
-9.23121e-21
-4.55521e-21
-2.47692e-21
-4.65494e-21
-5.11502e-21
-6.70619e-21
-4.51358e-21
-2.31297e-21
-4.55897e-21
-2.9468e-21
-3.79988e-22
-2.78313e-21
-9.21961e-22
3.46684e-21
1.13772e-22
-3.56738e-21
-4.83406e-21
-4.95606e-22
2.26514e-21
2.33029e-21
2.11511e-21
-3.9927e-21
-4.34658e-21
-2.92997e-21
-2.29385e-21
-5.7696e-22
-1.53433e-21
-4.30874e-21
-4.76345e-22
-8.03443e-22
3.16758e-22
3.50083e-22
1.74218e-21
1.27984e-22
-2.16788e-21
-4.265e-21
-4.35066e-22
1.33466e-21
2.40947e-22
-1.53613e-21
-5.29354e-21
-3.65189e-21
-3.1737e-21
-4.86756e-21
-3.77759e-21
-7.4236e-21
-3.8698e-21
-1.35806e-21
-2.22398e-21
-2.5591e-21
-3.02367e-21
-7.52774e-22
-4.33872e-22
1.01488e-21
1.97446e-21
-3.6539e-21
-3.65081e-21
7.84884e-22
2.96554e-21
1.56556e-21
1.8931e-21
-5.96269e-21
-4.12553e-21
-2.2055e-21
3.27174e-22
3.45411e-22
-2.10702e-22
-1.44255e-21
-2.72799e-21
-1.53257e-21
4.99227e-22
1.95248e-24
4.0137e-22
8.69807e-22
-6.2933e-22
-2.19672e-21
-4.28974e-23
1.34774e-21
-3.9576e-22
-2.32408e-21
-4.85907e-21
-3.63555e-21
-4.04416e-22
-6.19742e-21
-2.40056e-21
-7.50907e-21
-3.66512e-21
-2.22799e-21
-1.51632e-21
-1.73128e-21
-4.11699e-21
-1.76599e-21
6.4665e-22
1.25694e-21
-1.95791e-21
-8.50688e-22
-2.01047e-21
1.81913e-21
3.55132e-21
1.24381e-21
1.64099e-21
-4.83743e-21
-2.1742e-21
-1.7805e-21
-2.26988e-21
-2.53802e-21
-5.74019e-22
6.24284e-22
3.33246e-22
-1.72989e-21
-2.03255e-22
-5.51092e-22
1.19802e-21
2.00819e-22
-6.61132e-22
-1.13295e-21
2.70984e-21
2.568e-21
-2.93528e-21
-2.43886e-21
-5.17924e-21
-4.38889e-21
-2.3197e-21
-1.92003e-21
-4.12142e-21
-7.57836e-21
-3.4191e-21
-2.03005e-21
-1.45259e-21
-2.28037e-21
-1.5955e-21
-2.36317e-21
1.44255e-21
2.78219e-22
-1.6578e-21
6.67425e-22
1.76446e-21
3.16331e-22
2.58637e-21
4.1158e-21
-1.8439e-22
-2.50963e-21
-3.31219e-21
-5.22899e-21
-4.94195e-22
6.00318e-22
-1.76097e-21
-9.32415e-23
6.71601e-22
-1.94798e-21
-2.11521e-21
-6.99816e-22
-7.84529e-23
1.4072e-21
-7.86793e-22
-1.29022e-21
8.16207e-22
3.05677e-21
-1.67374e-21
-1.94694e-21
-2.4335e-21
-1.4563e-21
-2.73609e-21
-4.90722e-21
-4.39029e-21
-4.4761e-21
-2.82528e-21
-1.28768e-21
1.62155e-22
-2.23612e-21
-8.86023e-22
1.13415e-21
1.99652e-21
-3.83473e-22
-2.18163e-21
-8.05381e-22
-8.30203e-22
1.02467e-21
9.27981e-22
8.85081e-22
7.89645e-22
-4.4486e-22
-1.60038e-21
-4.08387e-21
-3.04879e-21
1.15064e-21
1.61883e-21
2.24208e-21
-3.904e-21
-4.56713e-21
-6.3818e-22
-1.8584e-21
-9.96784e-23
9.44145e-22
4.04118e-22
-1.56792e-21
-9.83419e-22
1.13058e-21
-9.32959e-23
2.36406e-22
-5.83491e-21
-1.90228e-21
-1.79423e-21
8.69319e-22
1.23097e-21
-2.01047e-21
-4.63104e-21
-2.62908e-21
-4.02967e-22
-2.28171e-21
-2.73552e-21
2.32138e-21
1.82757e-21
-8.41128e-22
-1.81811e-21
-2.73143e-21
-1.16116e-21
-2.37363e-22
1.76692e-21
9.50544e-22
5.19619e-22
-9.46117e-22
-1.53232e-21
-8.78475e-22
-1.18408e-21
4.07145e-22
8.27584e-22
1.16048e-21
-1.294e-21
-6.67241e-22
-1.04651e-21
-1.45214e-21
-1.13568e-21
-2.34257e-21
1.77846e-22
-1.28997e-21
-3.1419e-21
-1.34059e-21
6.54681e-22
1.23923e-21
-5.1277e-22
-1.95332e-21
-9.12273e-21
-4.58905e-21
-1.88517e-21
-6.41923e-21
-3.03197e-21
7.82317e-22
-4.40573e-21
-5.71362e-21
-3.1625e-21
-4.40661e-21
-3.44706e-21
-2.40274e-21
-3.42993e-21
-3.72458e-21
-2.03134e-21
-9.49547e-22
2.37438e-21
1.28158e-21
-7.41279e-22
-1.54166e-21
-1.27811e-21
-9.12044e-22
-2.22559e-21
-1.07111e-21
-1.16472e-21
-2.18348e-21
-3.39787e-21
-3.76027e-21
-4.46677e-21
4.90233e-23
-3.61841e-21
-1.41304e-21
-8.76543e-22
-2.86456e-22
2.86109e-21
6.79487e-22
-1.05627e-21
9.52763e-22
-4.19633e-21
-6.07707e-21
-1.0801e-20
-9.01551e-21
-3.44398e-21
-5.66112e-21
-5.66666e-21
-1.65789e-21
-4.65277e-21
-6.00098e-21
-6.51216e-21
-3.67217e-21
-6.29017e-21
-4.12508e-21
-4.40339e-21
-2.05963e-21
5.29233e-22
-3.31065e-21
-2.54962e-22
6.71411e-22
1.01994e-22
-9.34235e-22
-6.89071e-22
-3.47205e-21
-2.48401e-21
-8.48227e-22
1.4941e-21
-2.34754e-22
-3.53629e-21
-9.21585e-22
-1.49182e-21
-1.67574e-21
-4.63301e-21
-1.21329e-21
-2.01107e-21
6.53345e-22
1.58748e-21
1.08052e-21
-1.23726e-21
2.64237e-22
-7.2058e-21
-6.47953e-21
-9.06541e-21
-7.85348e-21
-7.06971e-21
-5.5937e-21
-4.60387e-21
-6.87335e-21
-4.52957e-21
-3.05693e-21
-5.00562e-21
-6.5052e-21
-3.20815e-21
-2.00561e-21
-2.88535e-21
-3.40233e-21
-2.63911e-21
-1.98035e-21
-4.26553e-22
-4.39262e-23
-1.24371e-21
-1.85782e-21
-1.41857e-22
-1.6655e-21
-1.46388e-21
6.11081e-22
1.26113e-21
-4.47288e-21
-2.22203e-21
-1.71809e-21
-2.07143e-21
-3.75186e-21
-1.38794e-21
-3.04886e-22
-4.14829e-21
1.2759e-21
1.36163e-21
1.89683e-21
-2.07446e-22
1.2541e-22
-1.08465e-20
-1.02096e-20
-8.80277e-21
-8.83553e-21
-8.58395e-21
-8.4818e-21
-5.6382e-21
-3.69526e-21
-7.39973e-21
-4.21732e-21
-2.93092e-21
-6.58584e-21
-3.68772e-21
-8.8521e-22
-3.16901e-21
-3.05045e-21
-2.57863e-21
-3.09531e-21
-6.35626e-22
-8.96598e-22
-1.75758e-21
-1.21132e-21
-2.44885e-21
-2.55087e-21
-4.85048e-22
9.2569e-22
-1.71426e-22
8.46385e-22
-2.65922e-21
-4.25034e-21
3.99402e-22
-3.05315e-21
-2.18404e-21
4.60849e-22
-6.29018e-22
-3.75657e-22
-4.56652e-22
6.36509e-22
-4.25659e-23
2.19041e-22
-1.34039e-20
-1.17529e-20
-1.03718e-20
-8.71434e-21
-1.14643e-20
-8.77748e-21
-4.46848e-21
-4.01133e-21
-4.17608e-21
-5.8043e-21
-6.13934e-21
-5.61901e-21
-1.09562e-21
-2.14653e-21
-4.5922e-21
-5.24e-21
-4.79207e-21
-2.56494e-21
1.18089e-22
-3.7697e-22
-5.99956e-22
-1.43878e-21
-2.63268e-21
-2.24536e-21
2.38297e-22
2.54616e-21
-2.79919e-22
-1.83371e-21
-3.35348e-21
-2.8439e-21
1.16674e-21
-1.18956e-21
-8.16117e-24
6.17473e-22
-1.02388e-21
-1.28601e-21
-6.9404e-22
-1.14332e-21
-7.0195e-22
-2.48382e-22
-1.27923e-20
-1.28182e-20
-9.48869e-21
-9.9903e-21
-1.14585e-20
-8.73482e-21
-5.75175e-21
-7.21851e-21
-6.28808e-21
-6.4241e-21
-4.85474e-21
-5.99132e-21
-2.50661e-21
-1.90733e-21
-4.89505e-21
-4.6658e-21
-3.96575e-21
-1.00069e-21
-8.95206e-22
4.87176e-23
-9.83961e-22
-3.16859e-21
-3.28873e-21
-2.02736e-21
-5.42803e-22
1.17569e-21
1.87962e-21
-1.78173e-21
-3.90706e-21
-2.39219e-21
-2.00548e-21
4.9491e-23
2.48208e-21
2.02152e-21
-1.58342e-21
-2.32559e-21
-1.13562e-21
-2.31743e-21
-1.0746e-22
1.05736e-21
-1.5034e-20
-1.55006e-20
-1.17084e-20
-1.09198e-20
-1.13544e-20
-6.36429e-21
-6.64552e-21
-6.19265e-21
-7.97727e-21
-8.95506e-21
-6.36614e-21
-4.12233e-21
6.05584e-22
-5.848e-22
-5.9648e-21
-5.93949e-21
-1.46993e-21
3.69743e-22
5.44512e-22
-6.27373e-22
-1.98257e-21
-2.00783e-21
-4.04348e-21
-4.41276e-21
-1.85244e-21
-2.30601e-22
-3.41097e-22
-1.63969e-21
2.19155e-22
-3.14528e-22
-6.61222e-22
-1.30358e-21
1.35101e-21
4.75005e-22
-1.55818e-21
-7.83677e-22
-3.96825e-22
-3.47301e-21
-2.6006e-21
1.48632e-21
-1.27058e-20
-1.43588e-20
-1.30607e-20
-1.2562e-20
-1.14689e-20
-6.30753e-21
-7.84312e-21
-8.47085e-21
-9.60989e-21
-5.76866e-21
-6.33023e-21
-6.8264e-21
-3.1261e-22
4.48812e-22
-4.54441e-21
-4.38826e-21
-3.44796e-22
-1.42381e-22
-9.21713e-23
-4.78386e-22
-2.07602e-21
-4.93213e-21
-5.57007e-21
-2.04613e-21
-3.03445e-21
1.57733e-22
-2.80976e-22
-6.99342e-22
-7.3299e-22
-9.29552e-22
-3.11853e-21
-2.0878e-21
-3.25457e-22
-1.39455e-21
3.76964e-22
2.45454e-22
8.92588e-22
-1.23604e-21
-1.79557e-21
-2.06814e-22
-1.42382e-20
-1.47335e-20
-1.50992e-20
-1.2564e-20
-1.04933e-20
-5.74381e-21
-9.75427e-21
-8.37648e-21
-8.1934e-21
-9.58923e-21
-6.11673e-21
-6.29574e-21
-1.9569e-21
-1.50895e-21
-1.66891e-21
-3.92594e-21
-3.38521e-21
-4.45939e-22
-1.3318e-22
-9.93175e-22
-8.41386e-23
-4.65094e-21
-5.11457e-21
-6.8259e-21
-2.75201e-21
-5.84037e-22
-1.00869e-21
-1.74787e-21
2.91653e-21
-3.33466e-22
-2.41149e-21
-2.59438e-21
-4.05536e-21
2.07026e-22
8.00734e-22
2.27611e-21
2.37278e-21
-3.04665e-21
-1.49286e-21
-1.41994e-21
-1.63719e-20
-1.35028e-20
-1.21311e-20
-1.48088e-20
-1.16898e-20
-8.80732e-21
-1.05881e-20
-1.02453e-20
-5.91727e-21
-7.5195e-21
-6.61413e-21
-5.58842e-21
-2.92013e-21
-6.39009e-22
-5.52264e-21
-4.10828e-21
-3.07461e-21
-8.85417e-22
4.50302e-22
1.95259e-21
-2.38375e-21
-6.13561e-21
-5.39793e-21
-7.15697e-21
-3.2174e-21
-2.10215e-21
-2.61654e-22
-1.10205e-21
-5.64328e-22
-7.43628e-22
-6.12933e-22
-7.82136e-22
-2.87119e-21
-2.82992e-21
7.7473e-22
1.91429e-21
2.56463e-21
-5.85905e-22
1.67155e-21
7.40911e-22
-1.54918e-20
-1.73201e-20
-1.62035e-20
-1.39197e-20
-1.10513e-20
-8.88317e-21
-1.1336e-20
-1.0114e-20
-9.01806e-21
-6.94897e-21
-7.09244e-21
-5.52551e-21
-2.85843e-21
-1.63625e-21
-5.46197e-21
-5.42594e-21
-1.38771e-21
-4.7438e-22
1.28353e-21
1.38153e-21
-6.1557e-21
-5.67657e-21
-5.07209e-21
-7.28214e-21
-5.59788e-21
-1.5197e-21
-1.21134e-22
-2.97722e-21
-3.43682e-22
-3.47256e-22
-7.31399e-22
-1.25502e-21
-1.01774e-21
-6.97329e-22
5.54348e-22
1.00067e-21
1.10591e-21
1.04311e-21
4.20576e-22
-1.94705e-22
-1.85177e-20
-2.06779e-20
-1.43924e-20
-1.3912e-20
-1.17254e-20
-1.00017e-20
-1.13089e-20
-7.88988e-21
-8.2803e-21
-8.20682e-21
-7.96857e-21
-6.3679e-21
-4.43505e-21
-3.94229e-21
-5.07627e-21
-4.63029e-21
-3.87909e-21
-1.62583e-21
1.75453e-21
9.20907e-22
-3.29266e-21
-5.46872e-21
-6.11256e-21
-4.53588e-21
-5.47604e-21
-2.95071e-21
-3.01193e-21
-6.83072e-22
-6.979e-22
-4.92499e-22
1.13777e-21
-1.56985e-21
-2.80962e-21
-8.81429e-22
-2.6986e-22
1.25474e-21
3.40113e-21
1.16866e-21
-9.25811e-22
-4.99011e-23
-1.89764e-20
-1.85336e-20
-1.40499e-20
-1.40145e-20
-1.37583e-20
-1.22229e-20
-7.59186e-21
-7.67606e-21
-9.34641e-21
-9.38989e-21
-8.06284e-21
-6.93601e-21
-4.16631e-21
-3.75035e-21
-5.94145e-21
-4.00585e-21
-3.87557e-21
-2.12987e-21
-2.07602e-21
-5.90479e-22
-3.54903e-21
-2.15238e-21
-4.44962e-21
-3.89324e-21
-4.13058e-21
-2.95221e-21
-3.70071e-21
-1.84088e-21
-1.1772e-21
1.11018e-21
3.69287e-22
-6.75687e-22
-3.10212e-21
-2.78078e-21
-2.52127e-21
1.08463e-21
2.81376e-21
4.55902e-22
-1.04006e-21
1.22624e-21
-2.14136e-20
-2.039e-20
-1.58827e-20
-1.48179e-20
-1.29585e-20
-1.17228e-20
-9.53642e-21
-7.56739e-21
-1.04532e-20
-1.08681e-20
-9.77377e-21
-6.12999e-21
-6.13657e-21
-5.90026e-21
-4.84609e-21
-4.06596e-21
-2.75413e-21
-1.82963e-21
-1.06387e-21
-1.67367e-21
-4.82071e-21
-4.96871e-21
-3.92981e-21
-6.08704e-21
-3.38108e-21
-1.41349e-21
-5.40272e-22
-5.4802e-22
-1.6662e-21
-2.76805e-22
9.84984e-22
3.06744e-23
-1.90831e-21
-1.66592e-21
-2.75334e-21
2.5627e-22
2.42047e-21
-7.6595e-22
-1.77276e-21
7.84936e-22
-2.39565e-20
-2.0745e-20
-1.65848e-20
-1.26016e-20
-1.30285e-20
-1.13295e-20
-1.2418e-20
-9.65158e-21
-1.03185e-20
-1.10852e-20
-9.19541e-21
-6.13295e-21
-6.88057e-21
-5.19922e-21
-5.09802e-21
-2.8202e-21
-1.36896e-21
-9.661e-22
-3.46044e-21
-4.16536e-21
-5.37739e-21
-5.9541e-21
-5.02055e-21
-5.26436e-21
-8.29755e-22
-9.49521e-22
-1.36286e-22
1.08657e-21
-9.36006e-22
-2.14359e-21
-3.62389e-21
2.60475e-22
1.61879e-21
4.78283e-22
-3.20438e-21
-4.32003e-21
2.98703e-22
1.24477e-21
-1.37028e-22
1.31394e-21
-2.08552e-20
-1.89042e-20
-1.85422e-20
-1.52833e-20
-1.38016e-20
-1.38968e-20
-1.26365e-20
-1.12675e-20
-1.00594e-20
-9.76679e-21
-1.02516e-20
-8.84799e-21
-9.74758e-21
-2.89571e-21
-1.69099e-21
-3.05893e-21
-1.98102e-21
-2.08486e-21
-1.81517e-21
-4.20776e-21
-6.12187e-21
-5.85408e-21
-6.52779e-21
-5.07367e-21
8.17101e-22
-1.25911e-21
-1.30793e-22
3.29218e-21
8.44806e-23
-8.04479e-22
-4.69954e-21
9.27154e-22
3.23521e-21
-7.53237e-23
-2.54317e-21
-5.65398e-21
-2.33955e-21
-2.2355e-22
-1.71796e-21
-5.35654e-22
-1.87744e-20
-1.81619e-20
-1.67941e-20
-1.3936e-20
-1.47031e-20
-1.40374e-20
-1.29273e-20
-1.14399e-20
-1.06125e-20
-9.8366e-21
-9.94542e-21
-8.67364e-21
-8.51872e-21
-5.25429e-21
-2.04556e-21
-6.01571e-22
-3.21227e-21
-2.69766e-21
-5.17102e-21
-3.05717e-21
-6.75717e-21
-4.33869e-21
-2.34042e-21
-5.10536e-21
3.44128e-22
-1.35423e-21
1.64451e-21
3.75056e-21
-1.78457e-21
-1.04857e-21
-3.20724e-21
-9.63725e-22
2.53416e-21
-6.67325e-22
-3.53186e-21
-2.59719e-21
-1.0323e-21
-1.54152e-21
-1.46833e-21
-3.54881e-22
-1.76026e-20
-1.79115e-20
-2.05749e-20
-1.56172e-20
-1.30685e-20
-1.34804e-20
-1.34922e-20
-9.95238e-21
-1.08824e-20
-1.32436e-20
-9.64915e-21
-7.72335e-21
-7.31232e-21
-6.32789e-21
-2.95754e-21
-2.57285e-21
-3.72569e-21
-1.69457e-21