/*--------------------------------*- C++ -*----------------------------------*\
| =========                 |                                                 |
| \\      /  F ield         | OpenFOAM: The Open Source CFD Toolbox           |
|  \\    /   O peration     | Version:  v2012                                 |
|   \\  /    A nd           | Website:  www.openfoam.com                      |
|    \\/     M anipulation  |                                                 |
\*---------------------------------------------------------------------------*/
FoamFile
{
    version     2.0;
    format      ascii;
    class       surfaceScalarField;
    location    "10";
    object      phi;
}
// * * * * * * * * * * * * * * * * * * * * * * * * * * * * * * * * * * * * * //

dimensions      [0 3 -1 0 0 0 0];
oriented        oriented;


internalField   nonuniform List<scalar> 
187200
(
1.875e-06
1.51204e-22
1.05732e-22
1.875e-06
1.9312e-22
1.32471e-22
1.875e-06
2.78308e-22
3.1687e-22
1.875e-06
1.58377e-22
1.65781e-22
1.875e-06
8.44679e-23
2.88085e-24
1.875e-06
1.97836e-22
1.20412e-22
1.875e-06
1.65509e-22
1.31536e-22
1.875e-06
1.00746e-22
1.00494e-22
1.875e-06
7.92964e-23
2.12105e-22
1.875e-06
1.51791e-22
1.44086e-22
1.875e-06
1.51876e-22
7.44546e-23
1.875e-06
1.47333e-22
1.13214e-22
1.875e-06
6.31162e-23
1.0044e-22
1.875e-06
-1.63306e-23
2.48172e-23
1.875e-06
4.3097e-23
1.28489e-22
1.875e-06
8.70574e-23
8.42509e-23
1.875e-06
1.15848e-22
9.96114e-23
1.875e-06
5.8946e-24
4.40198e-23
1.875e-06
8.67838e-23
-1.96219e-22
1.875e-06
6.40576e-23
-1.77486e-22
1.875e-06
-1.4744e-22
-1.71558e-22
1.875e-06
-1.68004e-22
-5.90248e-23
1.875e-06
1.59646e-23
3.19927e-23
1.875e-06
2.6134e-22
5.76075e-23
1.875e-06
1.58158e-22
-3.54094e-23
1.875e-06
-5.36548e-23
-6.54291e-24
1.875e-06
-1.843e-23
1.06934e-22
1.875e-06
4.32138e-23
1.03206e-22
1.875e-06
1.57152e-23
1.16729e-22
1.875e-06
-1.30189e-22
8.59711e-23
1.875e-06
-2.32404e-22
8.2204e-23
1.875e-06
3.15012e-25
1.0926e-22
1.875e-06
8.14205e-23
1.47138e-22
1.875e-06
-1.03458e-22
2.32841e-23
1.875e-06
-5.87937e-23
-5.80265e-23
1.875e-06
-1.05465e-22
-1.6389e-22
1.875e-06
-7.33104e-23
-2.38445e-22
1.875e-06
-4.0198e-23
-6.24047e-23
1.875e-06
3.61099e-23
7.31833e-23
3.96119e-23
4.24374e-23
1.875e-06
1.47936e-22
1.59614e-22
1.875e-06
9.8364e-23
2.73897e-22
1.875e-06
2.01594e-22
3.84076e-22
1.875e-06
1.49686e-22
3.92735e-22
1.875e-06
1.39644e-22
1.60054e-22
1.875e-06
1.14243e-22
8.61498e-23
1.875e-06
1.27944e-22
2.50075e-22
1.875e-06
1.91949e-22
1.84737e-22
1.875e-06
8.15152e-23
2.87418e-22
1.875e-06
1.26251e-23
2.317e-22
1.875e-06
6.89604e-23
2.03077e-22
1.875e-06
1.35564e-22
8.70489e-23
1.875e-06
7.64479e-23
2.50631e-22
1.875e-06
4.87233e-23
2.11018e-22
1.875e-06
-3.25307e-23
1.91389e-22
1.875e-06
-8.56897e-23
6.24271e-23
1.875e-06
1.05537e-22
-1.63048e-23
1.875e-06
2.26818e-22
1.69594e-22
1.875e-06
1.27962e-22
-3.65887e-23
1.875e-06
6.30226e-23
-1.60576e-22
1.875e-06
1.63388e-23
-2.98301e-23
1.875e-06
-8.43029e-23
7.25764e-23
1.875e-06
-7.21044e-23
-7.82415e-23
1.875e-06
-5.61996e-23
-4.09717e-23
1.875e-06
-1.57824e-22
-8.51391e-23
1.875e-06
3.24592e-23
7.81871e-23
1.875e-06
7.87144e-23
1.42311e-23
1.875e-06
1.99146e-24
4.68089e-23
1.875e-06
-5.70879e-23
1.94935e-22
1.875e-06
-2.3672e-23
1.21762e-22
1.875e-06
-1.41543e-23
2.18852e-22
1.875e-06
-1.74378e-23
1.73783e-22
1.875e-06
-9.68179e-23
1.3858e-22
1.875e-06
-1.33474e-22
2.48516e-23
1.875e-06
-1.4112e-23
-2.57168e-23
1.875e-06
-1.27621e-22
-1.71207e-22
1.875e-06
-9.67825e-23
-1.82781e-22
1.875e-06
4.65933e-23
-6.46489e-23
1.875e-06
7.53641e-23
3.33194e-23
7.52629e-23
5.29868e-23
1.875e-06
1.50277e-22
1.85703e-22
1.875e-06
2.48192e-22
3.39175e-22
1.875e-06
7.34452e-23
3.33724e-22
1.875e-06
1.96008e-22
3.694e-22
1.875e-06
1.75584e-22
3.03196e-22
1.875e-06
9.45693e-23
1.43216e-22
1.875e-06
1.24463e-22
2.24595e-22
1.875e-06
9.46368e-23
3.23223e-22
1.875e-06
1.6724e-22
3.47836e-22
1.875e-06
1.32921e-22
2.58164e-22
1.875e-06
3.57298e-23
1.95889e-22
1.875e-06
2.57239e-23
1.79973e-22
1.875e-06
1.14483e-22
1.81477e-22
1.875e-06
1.84073e-23
1.53941e-22
1.875e-06
5.72928e-23
2.18596e-22
1.875e-06
1.05518e-22
1.92785e-22
1.875e-06
1.39049e-23
2.41318e-23
1.875e-06
3.63837e-23
1.61137e-23
1.875e-06
3.85271e-23
-6.03114e-23
1.875e-06
-4.09334e-24
-1.11215e-22
1.875e-06
-5.9386e-23
6.55121e-23
1.875e-06
-7.19945e-23
1.68713e-22
1.875e-06
3.03533e-23
2.43941e-24
1.875e-06
3.43464e-23
-2.67989e-23
1.875e-06
-6.49552e-24
4.46622e-23
1.875e-06
1.36009e-23
4.76475e-23
1.875e-06
-2.05545e-23
-4.44289e-23
1.875e-06
-8.49226e-23
9.11466e-23
1.875e-06
5.51492e-24
1.87796e-22
1.875e-06
1.58574e-23
2.03185e-22
1.875e-06
-8.07739e-23
2.32378e-22
1.875e-06
-5.1845e-23
2.44671e-22
1.875e-06
4.38564e-23
9.67706e-23
1.875e-06
-1.0823e-22
3.10825e-23
1.875e-06
-1.81969e-22
-2.36662e-23
1.875e-06
-2.72438e-24
-1.29041e-22
1.875e-06
-4.91381e-23
-1.40222e-22
1.875e-06
2.03337e-23
-1.67872e-22
1.875e-06
5.98732e-23
-8.07685e-23
7.29732e-23
-2.93597e-23
1.875e-06
2.58649e-22
2.17128e-22
1.875e-06
1.26763e-22
3.69728e-22
1.875e-06
1.46174e-22
3.84147e-22
1.875e-06
1.00753e-22
3.29713e-22
1.875e-06
7.10965e-23
2.85386e-22
1.875e-06
5.75925e-23
2.30152e-22
1.875e-06
8.93339e-23
2.41831e-22
1.875e-06
5.50327e-23
3.25866e-22
1.875e-06
4.89993e-23
3.69168e-22
1.875e-06
1.11308e-22
2.93032e-22
1.875e-06
1.00436e-22
2.33129e-22
1.875e-06
-1.10854e-23
2.5011e-22
1.875e-06
-1.16684e-23
1.76399e-22
1.875e-06
2.12612e-23
1.88758e-22
1.875e-06
1.41073e-22
2.19416e-22
1.875e-06
1.72888e-22
8.49991e-23
1.875e-06
5.18089e-23
4.89499e-23
1.875e-06
-1.44902e-22
2.92878e-23
1.875e-06
-1.50198e-22
-7.90782e-23
1.875e-06
-3.03175e-23
-4.95948e-23
1.875e-06
-7.74901e-23
1.35327e-22
1.875e-06
1.13652e-22
1.63278e-22
1.875e-06
1.65903e-22
6.13522e-23
1.875e-06
6.7467e-23
4.74034e-24
1.875e-06
-3.36898e-23
3.1061e-23
1.875e-06
-4.69386e-23
-9.66264e-24
1.875e-06
-4.42516e-23
2.14055e-23
1.875e-06
3.44448e-23
3.7911e-23
1.875e-06
2.62663e-23
1.46957e-22
1.875e-06
-5.12603e-23
2.17669e-22
1.875e-06
-8.66193e-23
1.7286e-22
1.875e-06
-1.88615e-23
2.48431e-22
1.875e-06
-7.1144e-23
1.34896e-23
1.875e-06
-4.37143e-23
4.8111e-23
1.875e-06
3.42107e-23
-4.35556e-23
1.875e-06
-2.04737e-23
-1.2783e-22
1.875e-06
4.05328e-23
-5.78713e-23
1.875e-06
-5.31257e-25
-1.30792e-22
1.875e-06
3.59896e-23
-1.13792e-22
3.01271e-23
-7.03259e-23
1.875e-06
-3.69893e-23
1.53202e-22
1.875e-06
8.65028e-23
4.23141e-22
1.875e-06
3.37285e-23
3.93731e-22
1.875e-06
6.91802e-23
3.32367e-22
1.875e-06
5.79992e-23
4.1647e-22
1.875e-06
-1.71373e-23
2.7213e-22
1.875e-06
1.5026e-23
2.6226e-22
1.875e-06
1.97522e-22
3.80216e-22
1.875e-06
1.58207e-22
3.20561e-22
1.875e-06
1.08594e-22
3.29451e-22
1.875e-06
5.20398e-23
3.19925e-22
1.875e-06
3.2268e-23
2.59016e-22
1.875e-06
7.7804e-25
1.78965e-22
1.875e-06
9.82322e-23
2.72737e-22
1.875e-06
2.67297e-23
1.90244e-22
1.875e-06
-2.57358e-24
8.02072e-23
1.875e-06
-1.37134e-25
1.13257e-22
1.875e-06
-6.95456e-23
1.54185e-22
1.875e-06
-1.94105e-22
-1.66591e-23
1.875e-06
-1.84661e-22
-9.99656e-23
1.875e-06
4.68248e-23
1.05075e-22
1.875e-06
1.08353e-22
6.19883e-23
1.875e-06
6.88106e-23
-3.1958e-23
1.875e-06
6.05595e-24
-6.96235e-23
1.875e-06
6.97711e-23
5.08058e-23
1.875e-06
1.29488e-23
-5.12808e-23
1.875e-06
3.76657e-23
2.37189e-23
1.875e-06
-1.1495e-23
1.17007e-22
1.875e-06
-6.34202e-23
1.32798e-22
1.875e-06
3.13017e-23
2.15818e-22
1.875e-06
1.01124e-22
1.76133e-22
1.875e-06
-1.11079e-23
1.70279e-22
1.875e-06
-4.54356e-23
-4.02698e-23
1.875e-06
-4.53833e-23
-3.68042e-23
1.875e-06
-1.22876e-22
-1.62576e-22
1.875e-06
-1.89006e-23
-8.00285e-23
1.875e-06
2.98798e-23
-1.76212e-23
1.875e-06
1.55912e-22
8.49133e-24
1.875e-06
7.8548e-23
-5.64526e-23
5.68215e-23
-1.55769e-23
1.875e-06
-3.99937e-24
2.63741e-22
1.875e-06
6.35505e-23
4.63989e-22
1.875e-06
6.08075e-23
4.18903e-22
1.875e-06
5.50815e-23
4.35387e-22
1.875e-06
8.89406e-23
4.57611e-22
1.875e-06
7.55357e-23
3.81476e-22
1.875e-06
6.6485e-23
4.07178e-22
1.875e-06
1.09045e-22
4.28173e-22
1.875e-06
1.15227e-22
3.63265e-22
1.875e-06
-6.05506e-24
2.65535e-22
1.875e-06
3.86564e-23
2.86567e-22
1.875e-06
3.47892e-23
3.16482e-22
1.875e-06
4.3415e-23
2.57553e-22
1.875e-06
4.77714e-23
1.85524e-22
1.875e-06
2.35163e-23
2.44098e-22
1.875e-06
-7.17831e-23
1.73838e-22
1.875e-06
-1.02476e-22
9.80837e-23
1.875e-06
-7.20809e-23
9.66562e-23
1.875e-06
-1.36628e-22
1.02965e-22
1.875e-06
-1.67837e-22
1.08483e-23
1.875e-06
2.39298e-23
4.02143e-23
1.875e-06
1.33686e-22
9.30951e-23
1.875e-06
1.28743e-22
-5.99472e-23
1.875e-06
2.36325e-23
-7.6019e-23
1.875e-06
8.8936e-23
-7.61144e-24
1.875e-06
7.29192e-23
2.95706e-23
1.875e-06
-2.71797e-23
-5.12901e-23
1.875e-06
-8.11552e-23
1.00667e-22
1.875e-06
-1.2586e-22
1.72716e-22
1.875e-06
-5.6533e-23
1.26757e-22
1.875e-06
1.22259e-22
2.07931e-22
1.875e-06
5.83582e-23
8.29232e-23
1.875e-06
-3.59327e-25
-1.40448e-22
1.875e-06
7.0353e-23
-6.5936e-23
1.875e-06
-2.84651e-23
-5.39387e-23
1.875e-06
-1.55883e-23
-5.30937e-23
1.875e-06
-4.43851e-24
-9.01477e-23
1.875e-06
2.03332e-23
-2.30147e-23
1.875e-06
1.26245e-22
-1.23396e-22
1.03606e-22
-1.18687e-22
1.875e-06
-1.00898e-23
3.59311e-22
1.875e-06
9.9093e-23
5.27438e-22
1.875e-06
1.61727e-22
5.71364e-22
1.875e-06
7.58273e-23
4.93373e-22
1.875e-06
1.08385e-22
5.12836e-22
1.875e-06
1.61538e-23
3.85835e-22
1.875e-06
1.17631e-22
4.05595e-22
1.875e-06
1.16372e-22
3.90993e-22
1.875e-06
2.31871e-23
3.92482e-22
1.875e-06
3.13799e-23
4.03704e-22
1.875e-06
9.97223e-23
3.26234e-22
1.875e-06
7.28413e-23
2.80282e-22
1.875e-06
9.59855e-23
1.93866e-22
1.875e-06
3.72624e-23
1.18053e-22
1.875e-06
1.32338e-23
2.6739e-22
1.875e-06
-1.68948e-23
2.55141e-22
1.875e-06
-2.35652e-23
1.21673e-22
1.875e-06
-8.66226e-24
1.08712e-22
1.875e-06
-5.06543e-23
1.05305e-22
1.875e-06
-1.19909e-22
1.2218e-22
1.875e-06
9.68482e-24
9.24183e-23
1.875e-06
9.29532e-23
3.62761e-23
1.875e-06
3.70263e-23
-1.12037e-22
1.875e-06
8.32868e-24
4.67293e-24
1.875e-06
2.15885e-23
3.40331e-23
1.875e-06
4.95454e-23
4.32603e-24
1.875e-06
-3.5806e-23
1.43796e-24
1.875e-06
-1.34149e-22
1.17323e-22
1.875e-06
-1.24106e-22
9.45815e-23
1.875e-06
-2.8743e-23
7.43295e-23
1.875e-06
5.22587e-23
8.48126e-23
1.875e-06
7.83794e-23
3.57021e-23
1.875e-06
1.02004e-22
-8.36389e-23
1.875e-06
1.37303e-22
-2.58447e-23
1.875e-06
4.75283e-23
-1.40769e-23
1.875e-06
-4.23585e-24
-1.07063e-22
1.875e-06
-4.55957e-23
-1.48973e-22
1.875e-06
3.54708e-23
-2.03374e-23
1.875e-06
-5.59084e-23
-1.3353e-22
-4.30361e-23
-1.90564e-22
1.875e-06
2.3629e-22
2.9909e-22
1.875e-06
1.38847e-22
4.76195e-22
1.875e-06
1.00698e-22
5.46779e-22
1.875e-06
1.76076e-22
6.54104e-22
1.875e-06
-2.18348e-23
5.92685e-22
1.875e-06
1.0855e-22
4.66153e-22
1.875e-06
9.67528e-23
4.58166e-22
1.875e-06
-5.71984e-24
4.69745e-22
1.875e-06
-1.93146e-23
5.40069e-22
1.875e-06
1.06555e-22
3.42588e-22
1.875e-06
7.34292e-23
2.34001e-22
1.875e-06
7.14115e-23
2.98326e-22
1.875e-06
-6.01287e-23
1.12943e-22
1.875e-06
6.41203e-23
1.05447e-22
1.875e-06
6.11592e-24
2.41084e-22
1.875e-06
4.20403e-23
1.99334e-22
1.875e-06
4.85298e-23
7.15252e-23
1.875e-06
-3.11634e-23
1.41008e-22
1.875e-06
5.82343e-23
1.84019e-22
1.875e-06
4.31895e-23
2.27421e-22
1.875e-06
-1.82386e-23
1.15303e-22
1.875e-06
7.58905e-23
6.42003e-23
1.875e-06
1.27395e-23
1.70368e-24
1.875e-06
3.94675e-23
3.22686e-23
1.875e-06
-1.77449e-23
8.14577e-23
1.875e-06
2.19034e-23
-1.17125e-23
1.875e-06
-4.00758e-23
4.7871e-23
1.875e-06
-9.24493e-23
1.19153e-22
1.875e-06
-1.63038e-23
1.17586e-22
1.875e-06
-2.1348e-26
3.77797e-23
1.875e-06
-1.37486e-22
3.926e-23
1.875e-06
-4.58074e-24
6.74927e-23
1.875e-06
2.42718e-22
-7.51732e-25
1.875e-06
9.24407e-23
3.75813e-23
1.875e-06
9.52373e-23
-1.40592e-22
1.875e-06
-2.24961e-23
-1.70036e-22
1.875e-06
2.00322e-23
-1.93701e-22
1.875e-06
-3.41028e-24
-1.48743e-22
1.875e-06
-1.01555e-22
-1.15911e-22
-9.24868e-23
-1.18752e-22
1.875e-06
-1.87843e-22
1.31801e-22
1.875e-06
-1.09798e-24
4.66311e-22
1.875e-06
7.49431e-23
6.2951e-22
1.875e-06
8.05551e-23
6.10502e-22
1.875e-06
1.37943e-22
6.73811e-22
1.875e-06
1.34148e-22
4.53879e-22
1.875e-06
7.12861e-23
5.57109e-22
1.875e-06
8.10297e-23
5.78425e-22
1.875e-06
4.59121e-23
5.11175e-22
1.875e-06
-1.3854e-23
4.1566e-22
1.875e-06
-9.9918e-24
2.41015e-22
1.875e-06
-7.29228e-23
2.06617e-22
1.875e-06
3.03679e-23
2.50968e-22
1.875e-06
-4.19084e-23
1.2602e-22
1.875e-06
5.45646e-23
1.50765e-22
1.875e-06
4.50632e-23
1.79541e-22
1.875e-06
7.11633e-23
1.17916e-22
1.875e-06
9.71835e-23
1.90604e-22
1.875e-06
5.05075e-23
2.0943e-22
1.875e-06
-1.43868e-23
1.92003e-22
1.875e-06
-1.20737e-23
1.31986e-22
1.875e-06
3.73325e-23
3.57804e-23
1.875e-06
5.55281e-23
4.24072e-23
1.875e-06
2.89553e-23
1.95564e-22
1.875e-06
2.06719e-23
1.15911e-22
1.875e-06
-5.10363e-23
-5.64707e-24
1.875e-06
-2.89006e-23
6.3141e-24
1.875e-06
-1.76886e-23
1.80404e-22
1.875e-06
1.10877e-22
-1.95265e-23
1.875e-06
5.34496e-23
4.1753e-24
1.875e-06
-5.97647e-23
1.1916e-22
1.875e-06
-4.15424e-23
3.24728e-23
1.875e-06
-9.25232e-23
-6.40738e-24
1.875e-06
2.61322e-23
-3.66933e-23
1.875e-06
1.40795e-22
-1.34914e-22
1.875e-06
1.57872e-22
-1.97496e-22
1.875e-06
4.59467e-23
-2.39904e-22
1.875e-06
-1.42582e-22
-1.40439e-22
1.875e-06
-1.87576e-22
-6.37705e-23
-1.82361e-22
-2.13297e-23
1.875e-06
-2.87902e-23
4.45222e-22
1.875e-06
7.06539e-23
5.41217e-22
1.875e-06
6.77098e-23
6.1275e-22
1.875e-06
2.01913e-22
7.41598e-22
1.875e-06
1.83266e-22
7.28728e-22
1.875e-06
1.40526e-22
5.6459e-22
1.875e-06
1.91538e-22
6.31821e-22
1.875e-06
8.22115e-23
5.65237e-22
1.875e-06
4.60099e-23
4.34329e-22
1.875e-06
1.40661e-22
4.22437e-22
1.875e-06
-7.89483e-24
2.77202e-22
1.875e-06
-7.67873e-23
2.70767e-22
1.875e-06
-2.59912e-23
2.54236e-22
1.875e-06
3.41719e-24
1.74989e-22
1.875e-06
-1.22049e-24
2.36185e-22
1.875e-06
2.81663e-23
2.0432e-22
1.875e-06
-3.42755e-23
1.1633e-22
1.875e-06
3.21342e-23
1.57065e-22
1.875e-06
-7.1002e-23
1.33679e-22
1.875e-06
1.23425e-22
1.25116e-22
1.875e-06
2.13997e-22
2.60794e-22
1.875e-06
1.25327e-22
9.47403e-23
1.875e-06
-4.23572e-23
5.70183e-23
1.875e-06
-6.53007e-24
2.27714e-22
1.875e-06
5.78924e-23
1.65192e-22
1.875e-06
2.56759e-23
9.72379e-23
1.875e-06
-2.51803e-23
3.78874e-23
1.875e-06
5.49112e-23
8.46837e-23
1.875e-06
1.44963e-23
-2.11131e-23
1.875e-06
-7.5497e-24
-3.39224e-23
1.875e-06
-9.52432e-23
8.21511e-24
1.875e-06
-4.59737e-24
-4.4123e-24
1.875e-06
-1.93815e-22
1.7361e-23
1.875e-06
-1.31829e-22
1.14293e-23
1.875e-06
8.27224e-23
-1.50603e-22
1.875e-06
1.74534e-22
-2.68586e-22
1.875e-06
-5.01571e-23
-3.58329e-22
1.875e-06
-2.45786e-22
-1.44971e-22
1.875e-06
-8.43124e-23
-6.13138e-23
6.62969e-23
5.81669e-24
1.875e-06
7.8138e-23
4.8396e-22
1.875e-06
1.409e-22
6.96073e-22
1.875e-06
1.97424e-22
8.52399e-22
1.875e-06
3.4399e-23
6.53492e-22
1.875e-06
8.98435e-23
6.2554e-22
1.875e-06
1.05572e-22
5.91912e-22
1.875e-06
8.43185e-23
5.86896e-22
1.875e-06
4.58594e-23
5.47771e-22
1.875e-06
3.84741e-23
5.17982e-22
1.875e-06
-3.42915e-23
2.99364e-22
1.875e-06
6.91144e-23
3.32222e-22
1.875e-06
7.97021e-23
3.98798e-22
1.875e-06
8.90437e-23
2.61969e-22
1.875e-06
1.05422e-22
2.46638e-22
1.875e-06
-5.11836e-24
2.7688e-22
1.875e-06
-5.79763e-23
2.66562e-22
1.875e-06
4.1497e-24
1.87482e-22
1.875e-06
1.93838e-24
1.62508e-22
1.875e-06
8.41423e-23
1.41364e-22
1.875e-06
9.6153e-23
7.39688e-23
1.875e-06
1.28183e-22
1.81378e-22
1.875e-06
-3.63301e-23
4.95298e-23
1.875e-06
-2.21824e-23
1.20604e-22
1.875e-06
-7.91621e-24
2.34787e-22
1.875e-06
-6.84801e-23
2.13725e-22
1.875e-06
-3.85932e-23
-1.07991e-23
1.875e-06
-7.43737e-23
2.97722e-24
1.875e-06
4.57944e-23
1.48117e-22
1.875e-06
6.96442e-23
-7.28266e-23
1.875e-06
-5.68694e-23
-7.20494e-23
1.875e-06
3.81467e-23
8.28567e-23
1.875e-06
-9.71631e-23
-5.92683e-23
1.875e-06
-8.40982e-23
6.46968e-23
1.875e-06
-1.28442e-22
-6.12377e-23
1.875e-06
2.73318e-23
-1.97619e-22
1.875e-06
-1.51106e-23
-3.27426e-22
1.875e-06
1.28681e-23
-2.07854e-22
1.875e-06
-3.23612e-23
-8.71105e-23
1.875e-06
-1.31323e-23
-2.29442e-24
-1.11551e-23
-2.42181e-23
1.875e-06
1.24143e-22
5.84024e-22
1.875e-06
1.33707e-22
7.6285e-22
1.875e-06
1.12664e-22
7.70939e-22
1.875e-06
6.63761e-23
7.44527e-22
1.875e-06
7.36878e-23
6.93252e-22
1.875e-06
9.02169e-23
6.43408e-22
1.875e-06
4.81962e-23
5.80716e-22
1.875e-06
4.46438e-23
4.70532e-22
1.875e-06
1.03592e-22
4.8115e-22
1.875e-06
9.17383e-23
4.15409e-22
1.875e-06
8.17238e-23
3.7311e-22
1.875e-06
-2.99714e-23
3.49642e-22
1.875e-06
-2.66329e-24
2.89162e-22
1.875e-06
9.0851e-23
2.6154e-22
1.875e-06
2.70305e-23
3.03935e-22
1.875e-06
-4.33435e-23
3.06421e-22
1.875e-06
-9.34209e-23
2.69867e-22
1.875e-06
1.37603e-23
2.06164e-22
1.875e-06
1.05298e-22
6.72618e-23
1.875e-06
1.53913e-22
9.02103e-23
1.875e-06
-2.40878e-23
9.53902e-23
1.875e-06
-6.70678e-23
1.18732e-22
1.875e-06
-1.38136e-23
1.66864e-22
1.875e-06
-7.60967e-24
1.52371e-22
1.875e-06
-6.56146e-23
1.8463e-22
1.875e-06
-1.83603e-22
4.08745e-23
1.875e-06
6.72945e-24
1.62521e-22
1.875e-06
5.96406e-23
1.4577e-24
1.875e-06
-2.37729e-23
-9.77533e-23
1.875e-06
6.7551e-23
-1.05991e-22
1.875e-06
9.50224e-23
-5.25622e-23
1.875e-06
-1.77762e-22
-2.7895e-23
1.875e-06
-6.85145e-23
9.21558e-23
1.875e-06
5.40542e-23
4.26497e-23
1.875e-06
-7.89162e-23
-2.03686e-22
1.875e-06
1.5652e-23
-2.93548e-22
1.875e-06
6.7977e-23
-2.47326e-22
1.875e-06
1.43177e-22
-5.16109e-23
1.875e-06
1.117e-22
5.39651e-23
-4.71049e-24
-6.01872e-23
1.875e-06
1.46339e-22
5.17807e-22
1.875e-06
1.56307e-22
7.02995e-22
1.875e-06
1.20632e-22
6.96019e-22
1.875e-06
8.70441e-23
7.59543e-22
1.875e-06
2.46856e-23
7.59309e-22
1.875e-06
6.21426e-23
7.19607e-22
1.875e-06
4.85353e-24
5.34696e-22
1.875e-06
-4.24638e-23
5.15491e-22
1.875e-06
1.15377e-22
4.73054e-22
1.875e-06
1.96743e-22
4.04863e-22
1.875e-06
3.00143e-23
3.22674e-22
1.875e-06
-4.32856e-24
4.84207e-22
1.875e-06
4.75917e-23
3.00542e-22
1.875e-06
7.96099e-23
2.35563e-22
1.875e-06
-7.86635e-24
3.71644e-22
1.875e-06
-4.14474e-23
3.35018e-22
1.875e-06
-7.51977e-23
3.47795e-22
1.875e-06
-6.26345e-23
1.96008e-22
1.875e-06
-5.54027e-24
1.17683e-22
1.875e-06
8.45938e-23
1.27877e-22
1.875e-06
1.0628e-22
1.73358e-22
1.875e-06
7.6066e-23
1.23182e-22
1.875e-06
5.72217e-23
1.39201e-22
1.875e-06
4.20341e-23
9.53749e-23
1.875e-06
-1.39073e-22
1.70386e-22
1.875e-06
-1.37644e-22
2.06012e-22
1.875e-06
-7.97337e-23
1.09036e-22
1.875e-06
8.35273e-25
-1.10653e-23
1.875e-06
1.19884e-22
-4.72242e-23
1.875e-06
5.93689e-23
-1.93301e-22
1.875e-06
-1.02505e-22
-2.33058e-22
1.875e-06
-3.4231e-23
1.10402e-23
1.875e-06
-1.0847e-22
8.38129e-23
1.875e-06
-2.94514e-23
6.69439e-23
1.875e-06
4.95552e-23
-3.48917e-23
1.875e-06
2.56788e-23
-2.30978e-22
1.875e-06
1.12913e-22
-1.92163e-22
1.875e-06
5.55912e-23
-8.02649e-23
1.875e-06
1.24513e-22
-4.01708e-23
-1.57792e-23
-1.28585e-23
1.875e-06
-1.0314e-22
4.82258e-22
1.875e-06
1.11949e-22
6.93322e-22
1.875e-06
1.66633e-22
7.19587e-22
1.875e-06
-1.41528e-23
7.69958e-22
1.875e-06
-5.79102e-23
7.64047e-22
1.875e-06
-7.17084e-23
6.57394e-22
1.875e-06
9.36479e-23
6.0451e-22
1.875e-06
2.31567e-22
6.30994e-22
1.875e-06
2.98853e-23
4.55987e-22
1.875e-06
-3.44459e-23
3.45445e-22
1.875e-06
6.83189e-23
4.42651e-22
1.875e-06
1.07245e-22
4.82916e-22
1.875e-06
-6.79329e-23
3.65542e-22
1.875e-06
-1.43984e-22
2.50333e-22
1.875e-06
-6.12031e-23
3.67431e-22
1.875e-06
-4.80749e-23
3.12228e-22
1.875e-06
5.30669e-23
3.65767e-22
1.875e-06
4.9545e-23
2.25244e-22
1.875e-06
4.99236e-23
1.21967e-22
1.875e-06
5.14102e-23
1.35664e-22
1.875e-06
1.65313e-22
1.56877e-22
1.875e-06
-4.18864e-23
1.67073e-22
1.875e-06
-2.39231e-23
1.20069e-22
1.875e-06
-5.16707e-23
1.0282e-22
1.875e-06
-1.10104e-22
2.15741e-22
1.875e-06
1.62752e-23
2.0436e-22
1.875e-06
2.85624e-23
7.50528e-23
1.875e-06
-5.76375e-23
-5.3565e-23
1.875e-06
-6.31497e-23
-1.53569e-22
1.875e-06
1.17362e-22
-1.76306e-22
1.875e-06
1.70297e-22
-1.56875e-22
1.875e-06
-5.07967e-23
-3.70131e-23
1.875e-06
-1.07702e-22
-1.78004e-23
1.875e-06
-1.4636e-22
-3.07248e-23
1.875e-06
-1.51991e-22
-8.80488e-23
1.875e-06
6.77287e-23
-1.5148e-22
1.875e-06
7.06992e-23
-1.66141e-22
1.875e-06
1.8193e-22
7.89096e-24
1.875e-06
7.50089e-23
-1.4492e-22
-3.59294e-23
-1.25638e-22
1.875e-06
1.25362e-23
6.54342e-22
1.875e-06
-1.87973e-22
7.08302e-22
1.875e-06
-2.37559e-23
6.89936e-22
1.875e-06
8.0742e-23
8.0898e-22
1.875e-06
1.11815e-22
8.41081e-22
1.875e-06
3.43269e-25
7.17659e-22
1.875e-06
6.40254e-24
6.53497e-22
1.875e-06
6.34984e-23
5.50415e-22
1.875e-06
-2.78308e-24
4.61493e-22
1.875e-06
-1.20361e-22
4.5765e-22
1.875e-06
5.65136e-25
4.3121e-22
1.875e-06
1.08464e-22
4.47264e-22
1.875e-06
-1.63341e-24
4.7917e-22
1.875e-06
-6.99573e-23
3.60551e-22
1.875e-06
-1.20557e-23
3.55763e-22
1.875e-06
-1.43063e-23
2.59461e-22
1.875e-06
-3.65476e-23
1.66989e-22
1.875e-06
-5.62212e-24
9.61418e-23
1.875e-06
-5.11934e-23
1.74254e-22
1.875e-06
3.20024e-23
2.03937e-22
1.875e-06
8.47123e-23
8.64993e-23
1.875e-06
1.6587e-22
2.98744e-22
1.875e-06
-8.02487e-24
2.30863e-22
1.875e-06
-1.61219e-22
1.84248e-22
1.875e-06
-3.71574e-23
1.71466e-22
1.875e-06
3.2175e-23
1.39278e-22
1.875e-06
4.01771e-23
1.54674e-23
1.875e-06
-4.38294e-23
-6.78756e-23
1.875e-06
-6.55505e-23
-1.15996e-22
1.875e-06
-5.38403e-24
-1.6363e-22
1.875e-06
1.56127e-22
-8.52177e-23
1.875e-06
8.82522e-23
-6.74384e-23
1.875e-06
-1.06208e-23
-1.74489e-22
1.875e-06
-1.35505e-22
-1.05684e-22
1.875e-06
-9.24155e-23
4.74644e-23
1.875e-06
-3.21813e-23
-1.46509e-23
1.875e-06
1.50914e-22
-4.63503e-23
1.875e-06
1.49106e-22
-1.25865e-22
1.875e-06
1.28744e-22
-3.01958e-22
1.09157e-22
-1.80135e-22
1.875e-06
-6.5078e-23
5.64487e-22
1.875e-06
-1.10466e-22
7.86768e-22
1.875e-06
-8.46822e-23
8.22725e-22
1.875e-06
-1.7674e-23
7.92946e-22
1.875e-06
-3.53166e-23
7.92285e-22
1.875e-06
4.05039e-23
8.33113e-22
1.875e-06
5.03954e-23
6.78878e-22
1.875e-06
7.60024e-24
5.54779e-22
1.875e-06
-8.69089e-24
5.08789e-22
1.875e-06
5.82271e-24
5.24465e-22
1.875e-06
-3.67155e-23
4.93002e-22
1.875e-06
1.95948e-23
4.53487e-22
1.875e-06
-7.42583e-23
6.06563e-22
1.875e-06
-4.50079e-23
3.44827e-22
1.875e-06
-9.35059e-23
2.49875e-22
1.875e-06
-7.86099e-23
2.20416e-22
1.875e-06
1.06449e-23
1.50985e-22
1.875e-06
-1.37731e-23
9.43342e-23
1.875e-06
1.10014e-22
1.7638e-22
1.875e-06
1.42701e-22
2.39561e-22
1.875e-06
4.91169e-23
1.02609e-22
1.875e-06
3.11565e-23
1.9242e-22
1.875e-06
-2.20784e-23
3.16419e-22
1.875e-06
-1.05558e-22
2.88024e-22
1.875e-06
-1.60303e-23
1.30797e-22
1.875e-06
-7.91166e-23
8.22491e-23
1.875e-06
-4.99156e-23
3.13398e-24
1.875e-06
-3.77039e-23
-1.24879e-22
1.875e-06
-6.62051e-23
-7.92518e-23
1.875e-06
4.22969e-24
-1.0995e-22
1.875e-06
9.12165e-23
-1.03255e-22
1.875e-06
7.08079e-23
-1.88118e-22
1.875e-06
-3.81232e-23
-3.41499e-22
1.875e-06
5.41604e-23
-1.15753e-22
1.875e-06
7.53795e-23
1.32758e-22
1.875e-06
-6.93473e-23
1.29255e-22
1.875e-06
-3.74596e-23
-6.79817e-24
1.875e-06
4.36101e-23
-1.70892e-22
1.875e-06
6.06566e-23
-2.59473e-22
1.481e-22
-1.36966e-22
1.875e-06
-9.42692e-23
5.30662e-22
1.875e-06
-6.60863e-23
7.79058e-22
1.875e-06
-2.71861e-24
8.15168e-22
1.875e-06
-2.95732e-23
8.3142e-22
1.875e-06
-2.22971e-23
8.63849e-22
1.875e-06
4.92222e-24
8.51943e-22
1.875e-06
2.39834e-23
6.58329e-22
1.875e-06
-5.11512e-23
5.26028e-22
1.875e-06
-3.52074e-23
5.34227e-22
1.875e-06
-1.42066e-23
5.50574e-22
1.875e-06
1.36576e-23
5.30528e-22
1.875e-06
-6.75681e-23
4.5001e-22
1.875e-06
-3.44072e-23
6.24725e-22
1.875e-06
6.36177e-25
4.40294e-22
1.875e-06
2.7014e-23
2.87901e-22
1.875e-06
-1.66322e-23
1.61781e-22
1.875e-06
-3.88943e-23
1.1497e-22
1.875e-06
2.07048e-23
1.7653e-22
1.875e-06
1.22315e-23
1.94573e-22
1.875e-06
1.59036e-22
7.72733e-23
1.875e-06
5.70922e-23
1.50121e-22
1.875e-06
5.88038e-23
1.82733e-22
1.875e-06
-7.40947e-23
1.74426e-22
1.875e-06
-4.42243e-23
3.18112e-22
1.875e-06
-8.61367e-23
1.63527e-22
1.875e-06
3.01889e-23
1.18767e-22
1.875e-06
-6.06322e-23
-6.37718e-23
1.875e-06
-1.62504e-22
-9.87591e-23
1.875e-06
-2.38295e-24
8.63126e-23
1.875e-06
-7.08951e-23
-8.20892e-23
1.875e-06
-9.77659e-23
-2.0116e-22
1.875e-06
8.03375e-23
-1.7301e-22
1.875e-06
1.64472e-22
-2.36618e-22
1.875e-06
9.28526e-23
-1.26274e-22
1.875e-06
9.83735e-23
9.33925e-23
1.875e-06
1.09843e-22
2.97132e-23
1.875e-06
3.13669e-25
-2.52397e-24
1.875e-06
-8.24314e-23
-1.14334e-22
1.875e-06
-1.70996e-22
-2.55794e-22
-3.75374e-23
-2.1469e-22
1.875e-06
-7.54095e-23
5.58106e-22
1.875e-06
-1.60522e-22
7.91443e-22
1.875e-06
-1.7256e-22
8.86828e-22
1.875e-06
2.68025e-23
9.14455e-22
1.875e-06
1.16463e-22
8.65944e-22
1.875e-06
2.96346e-23
7.65462e-22
1.875e-06
-1.29635e-22
6.57845e-22
1.875e-06
-1.49742e-22
5.62605e-22
1.875e-06
-5.83524e-23
6.08189e-22
1.875e-06
-6.32737e-24
6.81598e-22
1.875e-06
-2.51417e-23
4.83337e-22
1.875e-06
4.26187e-23
5.12619e-22
1.875e-06
6.16565e-23
6.08777e-22
1.875e-06
3.93887e-24
4.87395e-22
1.875e-06
3.80741e-23
2.92668e-22
1.875e-06
1.05e-23
2.04467e-22
1.875e-06
-1.09471e-23
1.91376e-22
1.875e-06
1.21339e-22
9.54599e-23
1.875e-06
2.45824e-22
1.17412e-22
1.875e-06
9.55678e-23
-1.80055e-23
1.875e-06
-1.08001e-22
5.57553e-23
1.875e-06
-2.37365e-22
2.04055e-22
1.875e-06
-2.9202e-23
2.76744e-22
1.875e-06
-2.23212e-23
2.07366e-22
1.875e-06
-1.53183e-23
1.63349e-22
1.875e-06
-9.80734e-23
6.74928e-23
1.875e-06
-3.12788e-23
5.88227e-23
1.875e-06
-4.51616e-23
2.85838e-23
1.875e-06
-1.06457e-22
-1.2214e-23
1.875e-06
-1.42401e-23
-2.08444e-23
1.875e-06
3.13905e-23
-7.82203e-23
1.875e-06
1.39015e-23
-1.46374e-22
1.875e-06
1.81851e-23
-2.40732e-22
1.875e-06
8.42161e-23
-1.46078e-22
1.875e-06
6.58626e-23
-6.88195e-23
1.875e-06
-3.676e-25
-3.88506e-23
1.875e-06
3.49542e-24
-1.65477e-23
1.875e-06
-3.00312e-23
-4.87719e-23
1.875e-06
-8.63411e-24
-1.62742e-22
6.20221e-23
-1.94201e-22
1.875e-06
-5.30842e-23
5.90531e-22
1.875e-06
-6.77868e-23
8.96045e-22
1.875e-06
-2.90238e-23
9.5178e-22
1.875e-06
-2.4731e-23
9.52023e-22
1.875e-06
-5.2027e-23
8.2159e-22
1.875e-06
-9.80266e-23
7.29639e-22
1.875e-06
-7.59207e-23
6.94392e-22
1.875e-06
-2.63339e-23
6.6286e-22
1.875e-06
-3.01495e-23
6.30044e-22
1.875e-06
-2.64919e-23
6.34334e-22
1.875e-06
-7.71408e-24
5.40849e-22
1.875e-06
1.22322e-22
5.23749e-22
1.875e-06
1.83192e-22
6.63183e-22
1.875e-06
1.68948e-23
5.12088e-22
1.875e-06
-3.76485e-25
2.39998e-22
1.875e-06
-2.61271e-23
2.39774e-22
1.875e-06
-1.11259e-22
2.19792e-22
1.875e-06
-7.29785e-23
-7.28457e-23
1.875e-06
6.45224e-23
-1.38174e-22
1.875e-06
-5.24008e-23
-9.81254e-23
1.875e-06
-6.09402e-23
1.01062e-22
1.875e-06
2.76279e-23
3.90481e-22
1.875e-06
-7.2811e-24
3.20921e-22
1.875e-06
-6.54152e-23
2.23937e-22
1.875e-06
-4.30034e-24
8.82695e-23
1.875e-06
-3.98218e-23
5.45851e-23
1.875e-06
1.27613e-22
1.0448e-22
1.875e-06
8.3601e-23
1.16823e-22
1.875e-06
4.36243e-23
1.31438e-22
1.875e-06
4.40232e-23
-1.49599e-23
1.875e-06
-1.56988e-22
-6.27233e-23
1.875e-06
-1.10346e-22
-1.09125e-22
1.875e-06
-1.06397e-22
-2.78023e-22
1.875e-06
-2.2786e-23
-1.5593e-22
1.875e-06
6.18155e-23
-8.33548e-23
1.875e-06
8.04199e-23
-3.26105e-23
1.875e-06
6.31396e-23
-4.98553e-24
1.875e-06
1.7097e-23
-1.06376e-22
1.875e-06
-9.38285e-23
-2.67678e-22
-3.78059e-23
-3.38606e-22
1.875e-06
9.19925e-23
6.496e-22
1.875e-06
9.37653e-23
8.90165e-22
1.875e-06
-8.40593e-23
8.30524e-22
1.875e-06
-1.56596e-22
8.9293e-22
1.875e-06
-4.10287e-23
8.21356e-22
1.875e-06
-4.95264e-23
8.2891e-22
1.875e-06
-2.73352e-23
7.11286e-22
1.875e-06
-1.35844e-22
5.84101e-22
1.875e-06
-1.53539e-22
5.83879e-22
1.875e-06
7.07139e-23
6.82606e-22
1.875e-06
-7.35697e-23
5.56395e-22
1.875e-06
4.45082e-22
4.95115e-22
1.875e-06
4.6619e-23
5.24299e-22
1.875e-06
5.73833e-24
5.14873e-22
1.875e-06
-1.72959e-23
4.16869e-22
1.875e-06
-5.04984e-23
2.62874e-22
1.875e-06
-1.69132e-23
1.13271e-22
1.875e-06
-9.40344e-23
-1.47673e-22
1.875e-06
-9.55109e-23
-1.04355e-22
1.875e-06
-1.22498e-22
-6.43286e-23
1.875e-06
-7.5739e-23
1.03256e-22
1.875e-06
-1.05884e-23
2.99208e-22
1.875e-06
-2.32245e-23
3.77502e-22
1.875e-06
5.09044e-23
1.10764e-22
1.875e-06
1.71174e-22
1.17884e-22
1.875e-06
6.99567e-23
9.54057e-23
1.875e-06
-1.06763e-22
9.22866e-24
1.875e-06
8.56808e-23
5.04618e-23
1.875e-06
-6.38119e-23
1.29287e-22
1.875e-06
1.49364e-22
-3.28868e-23
1.875e-06
1.3917e-23
3.01972e-23
1.875e-06
-8.23766e-23
-7.77187e-23
1.875e-06
6.99941e-23
-1.74585e-22
1.875e-06
-1.61459e-22
-1.70066e-22
1.875e-06
-2.60753e-23
-1.52378e-22
1.875e-06
2.7192e-23
-4.78695e-23
1.875e-06
5.47796e-23
-9.70176e-23
1.875e-06
-2.78919e-23
-2.53597e-22
1.875e-06
-1.07216e-22
-3.49687e-22
-1.11751e-22
-3.50673e-22
1.875e-06
1.33984e-22
5.37091e-22
1.875e-06
6.88418e-23
7.42712e-22
1.875e-06
-1.40575e-22
8.51549e-22
1.875e-06
-1.09943e-22
9.20377e-22
1.875e-06
-7.91545e-23
8.0427e-22
1.875e-06
-2.16213e-23
8.06617e-22
1.875e-06
-1.42078e-24
6.74417e-22
1.875e-06
5.36299e-23
5.38653e-22
1.875e-06
1.28744e-23
5.8368e-22
1.875e-06
-5.05153e-24
6.98069e-22
1.875e-06
8.76634e-23
5.94436e-22
1.875e-06
-2.50675e-23
6.12618e-22
1.875e-06
1.14303e-23
5.32634e-22
1.875e-06
1.7867e-22
4.80114e-22
1.875e-06
-2.77139e-23
3.48025e-22
1.875e-06
-1.00717e-22
2.17189e-22
1.875e-06
-1.68059e-22
-6.96188e-25
1.875e-06
-1.74653e-23
-8.14949e-23
1.875e-06
-1.17672e-22
-7.67122e-24
1.875e-06
-1.12644e-22
1.70723e-23
1.875e-06
3.30882e-23
1.55521e-22
1.875e-06
-5.20612e-24
1.66548e-22
1.875e-06
-2.03822e-23
2.5729e-22
1.875e-06
3.41294e-23
1.87748e-22
1.875e-06
6.52843e-23
2.78025e-23
1.875e-06
9.95137e-23
1.57874e-22
1.875e-06
3.95994e-23
6.99581e-23
1.875e-06
6.44915e-23
8.1579e-24
1.875e-06
1.29994e-23
3.56585e-23
1.875e-06
1.80349e-23
-1.54876e-24
1.875e-06
5.31407e-23
6.4874e-24
1.875e-06
-2.54425e-23
-6.71785e-23
1.875e-06
2.9705e-23
-2.41181e-22
1.875e-06
6.06406e-23
-2.86711e-23
1.875e-06
-3.74694e-23
-2.49575e-22
1.875e-06
1.25325e-22
-3.79059e-23
1.875e-06
-7.50123e-23
-9.90614e-23
1.875e-06
-1.55441e-22
-2.74322e-22
1.875e-06
-1.42004e-22
-4.50958e-22
-1.72498e-22
-3.49556e-22
1.875e-06
2.50961e-23
4.88355e-22
1.875e-06
-4.00033e-23
7.04053e-22
1.875e-06
-2.6298e-23
7.55654e-22
1.875e-06
-6.03846e-23
9.09623e-22
1.875e-06
-1.42304e-22
8.40413e-22
1.875e-06
9.14028e-24
7.97942e-22
1.875e-06
-6.45452e-23
6.85097e-22
1.875e-06
-4.50956e-23
6.10936e-22
1.875e-06
1.40558e-22
6.02292e-22
1.875e-06