/*--------------------------------*- C++ -*----------------------------------*\
| =========                 |                                                 |
| \\      /  F ield         | OpenFOAM: The Open Source CFD Toolbox           |
|  \\    /   O peration     | Version:  v2012                                 |
|   \\  /    A nd           | Website:  www.openfoam.com                      |
|    \\/     M anipulation  |                                                 |
\*---------------------------------------------------------------------------*/
FoamFile
{
    version     2.0;
    format      ascii;
    class       volVectorField;
    location    "10";
    object      U;
}
// * * * * * * * * * * * * * * * * * * * * * * * * * * * * * * * * * * * * * //

dimensions      [0 1 -1 0 0 0 0];


internalField   nonuniform List<vector> 
64000
(
(0.003 1.23658e-19 4.14978e-20)
(0.003 1.86565e-19 1.26094e-19)
(0.003 2.10372e-19 2.79246e-19)
(0.003 2.03857e-19 2.90356e-19)
(0.003 3.36759e-19 2.51675e-19)
(0.003 3.81907e-19 2.36077e-19)
(0.003 2.08632e-19 1.30515e-19)
(0.003 3.9572e-20 6.44676e-20)
(0.003 1.2921e-19 1.91038e-19)
(0.003 2.6911e-19 1.55241e-19)
(0.003 2.17729e-19 1.36638e-19)
(0.003 1.8575e-19 2.19752e-19)
(0.003 1.35677e-19 1.70113e-19)
(0.003 1.39312e-19 1.54099e-19)
(0.003 1.43893e-19 2.09877e-19)
(0.003 1.62409e-19 1.69506e-19)
(0.003 9.68233e-20 1.00902e-19)
(0.003 -1.70701e-20 6.8394e-20)
(0.003 -6.91684e-21 -2.31409e-19)
(0.003 -4.19785e-20 -3.81513e-19)
(0.003 -1.85815e-19 -2.80995e-19)
(0.003 -7.34881e-20 -1.08895e-20)
(0.003 6.15805e-20 5.98337e-20)
(0.003 2.78932e-19 4.14501e-20)
(0.003 2.99074e-19 7.85068e-20)
(0.003 7.29786e-20 7.25641e-20)
(0.003 -3.817e-20 1.01266e-19)
(0.003 5.77014e-20 1.09155e-19)
(0.003 8.01547e-20 1.19057e-19)
(0.003 -9.44954e-20 1.87783e-19)
(0.003 -2.00243e-19 2.40593e-19)
(0.003 -4.51102e-20 1.29387e-19)
(0.003 3.27753e-20 1.1953e-19)
(0.003 -7.91556e-20 4.00207e-20)
(0.003 3.90993e-21 -1.3917e-19)
(0.003 1.69504e-21 -2.35451e-19)
(0.003 -1.93204e-19 -3.61664e-19)
(0.003 -1.53536e-19 -1.79532e-19)
(0.003 -2.85141e-20 1.32134e-19)
(0.003 -6.50191e-20 9.0833e-20)
(0.003 2.05114e-19 1.64657e-19)
(0.003 2.91457e-19 4.09554e-19)
(0.003 4.11741e-19 5.98655e-19)
(0.003 2.9478e-19 5.24219e-19)
(0.003 1.82493e-19 4.12005e-19)
(0.003 2.74255e-19 4.12419e-19)
(0.003 2.79158e-19 3.0653e-19)
(0.003 2.72399e-19 2.1732e-19)
(0.003 1.8158e-19 3.38922e-19)
(0.003 1.31756e-19 4.02385e-19)
(0.003 2.15516e-19 3.58453e-19)
(0.003 2.46633e-19 3.31654e-19)
(0.003 9.77661e-20 3.19176e-19)
(0.003 8.90493e-21 2.81645e-19)
(0.003 1.71387e-21 2.97422e-19)
(0.003 1.92181e-20 2.2565e-19)
(0.003 1.47686e-19 8.5654e-20)
(0.003 2.09064e-19 1.34047e-19)
(0.003 2.93488e-19 9.22838e-21)
(0.003 1.60724e-19 -2.48983e-19)
(0.003 -3.66305e-20 -1.87297e-19)
(0.003 -1.80835e-19 4.68814e-20)
(0.003 -5.52385e-20 5.61463e-20)
(0.003 1.31976e-19 1.48288e-19)
(0.003 -1.07455e-20 1.67698e-19)
(0.003 -4.77245e-20 4.09479e-20)
(0.003 2.41281e-20 -1.65828e-20)
(0.003 4.70382e-20 1.07223e-19)
(0.003 -2.06238e-20 1.84252e-19)
(0.003 -1.25836e-19 8.99446e-20)
(0.003 -2.12972e-19 1.13904e-19)
(0.003 -7.23987e-20 1.66663e-19)
(0.003 -7.06568e-20 1.87393e-19)
(0.003 -1.56141e-19 8.20501e-20)
(0.003 -9.1438e-20 -5.12967e-20)
(0.003 -2.19438e-19 -2.43575e-19)
(0.003 -1.35416e-19 -3.15191e-19)
(0.003 4.45123e-20 -1.78753e-19)
(0.003 1.0465e-19 3.78625e-20)
(0.003 8.95332e-20 4.66793e-20)
(0.003 2.61027e-19 2.84117e-19)
(0.003 3.21259e-19 4.02384e-19)
(0.003 2.59152e-19 6.20048e-19)
(0.003 2.73e-19 6.13161e-19)
(0.003 1.39839e-19 4.88146e-19)
(0.003 8.94215e-20 4.52915e-19)
(0.003 1.93784e-19 3.78527e-19)
(0.003 2.9835e-19 4.2745e-19)
(0.003 2.35702e-19 4.14347e-19)
(0.003 1.07702e-19 3.26674e-19)
(0.003 6.99942e-20 4.06791e-19)
(0.003 1.2184e-19 4.65344e-19)
(0.003 1.95336e-19 2.82097e-19)
(0.003 1.12779e-19 2.80704e-19)
(0.003 3.96484e-20 2.94178e-19)
(0.003 1.33166e-20 2.27124e-19)
(0.003 1.22315e-19 2.12073e-19)
(0.003 2.41605e-19 1.50243e-19)
(0.003 1.58699e-19 -1.10755e-20)
(0.003 5.79067e-20 -1.84109e-19)
(0.003 -8.86284e-20 4.40535e-20)
(0.003 -1.98932e-19 1.28419e-19)
(0.003 -6.37622e-20 1.11534e-19)
(0.003 4.43923e-20 1.54316e-19)
(0.003 -1.00472e-19 7.27616e-20)
(0.003 -1.10366e-21 1.75445e-20)
(0.003 4.62758e-20 1.86366e-20)
(0.003 -6.68247e-20 1.87357e-19)
(0.003 -5.69607e-20 1.81328e-19)
(0.003 -1.58814e-20 1.24448e-19)
(0.003 -5.82242e-20 1.83284e-19)
(0.003 -1.12629e-20 2.4135e-19)
(0.003 -2.35122e-20 1.3947e-19)
(0.003 -2.16939e-19 2.12838e-20)
(0.003 -2.96049e-19 -2.7447e-20)
(0.003 -1.91253e-19 -1.64735e-19)
(0.003 -7.0429e-20 -2.63766e-19)
(0.003 9.0472e-20 -2.96168e-19)
(0.003 1.91162e-19 -1.19921e-19)
(0.003 1.62562e-19 -5.0449e-20)
(0.003 3.68947e-19 3.78292e-19)
(0.003 3.77556e-19 6.09259e-19)
(0.003 2.12548e-19 6.24601e-19)
(0.003 2.29514e-19 6.44481e-19)
(0.003 1.49312e-19 6.12665e-19)
(0.003 8.49914e-20 5.89399e-19)
(0.003 1.34136e-19 4.82423e-19)
(0.003 1.29073e-19 4.09538e-19)
(0.003 1.82672e-19 5.03963e-19)
(0.003 2.42681e-19 4.52251e-19)
(0.003 1.32383e-19 4.03491e-19)
(0.003 3.84583e-20 4.53205e-19)
(0.003 8.72898e-20 3.846e-19)
(0.003 2.77789e-20 2.92214e-19)
(0.003 1.70961e-19 3.2225e-19)
(0.003 2.81519e-19 2.72435e-19)
(0.003 1.38564e-19 2.14163e-19)
(0.003 -2.28173e-20 1.57506e-19)
(0.003 -1.05197e-19 -8.12879e-20)
(0.003 -1.32374e-19 -1.91292e-19)
(0.003 -1.52e-19 1.43989e-19)
(0.003 1.05723e-20 2.15793e-19)
(0.003 1.44922e-19 1.95478e-19)
(0.003 7.03891e-20 2.22115e-19)
(0.003 6.20498e-21 1.15237e-19)
(0.003 -1.46973e-20 3.14323e-20)
(0.003 -2.90566e-20 -2.62167e-21)
(0.003 -2.80308e-20 1.7151e-20)
(0.003 3.51172e-21 1.71978e-19)
(0.003 -2.37876e-20 1.74878e-19)
(0.003 -1.04328e-19 1.086e-19)
(0.003 -9.59922e-20 1.75468e-19)
(0.003 -4.99868e-20 1.15848e-19)
(0.003 -9.14276e-20 -1.161e-20)
(0.003 -9.86522e-20 -1.17183e-19)
(0.003 -3.40803e-20 -1.8066e-19)
(0.003 -3.65437e-21 -1.16965e-19)
(0.003 4.53715e-20 -1.39627e-19)
(0.003 1.04393e-19 -1.1801e-19)
(0.003 1.0515e-19 -6.44741e-20)
(0.003 1.20718e-19 4.78976e-19)
(0.003 1.26993e-19 7.51381e-19)
(0.003 7.63006e-20 7.27572e-19)
(0.003 6.23968e-20 6.92243e-19)
(0.003 1.00405e-19 6.89153e-19)
(0.003 2.96322e-20 6.14733e-19)
(0.003 5.841e-20 5.2607e-19)
(0.003 1.39118e-19 4.43274e-19)
(0.003 1.50811e-19 4.94997e-19)
(0.003 1.61376e-19 5.6598e-19)
(0.003 1.11802e-19 5.51142e-19)
(0.003 4.69766e-20 4.45641e-19)
(0.003 8.56284e-21 3.06889e-19)
(0.003 6.28578e-20 2.94644e-19)
(0.003 1.30454e-19 3.89048e-19)
(0.003 2.32404e-19 4.4323e-19)
(0.003 9.97943e-20 2.68449e-19)
(0.003 -1.57876e-19 1.1217e-19)
(0.003 -2.89201e-19 -9.62369e-20)
(0.003 -2.24885e-19 -1.29465e-19)
(0.003 -8.64902e-20 -8.54433e-21)
(0.003 1.42934e-19 1.69411e-19)
(0.003 2.68756e-19 2.59098e-19)
(0.003 3.47827e-20 2.12149e-19)
(0.003 9.21354e-21 1.434e-19)
(0.003 -6.4808e-21 -4.55437e-20)
(0.003 -6.95237e-21 -4.29444e-20)
(0.003 4.96725e-20 1.61761e-19)
(0.003 -1.78869e-20 1.56564e-19)
(0.003 -7.57552e-20 8.84668e-20)
(0.003 -9.59802e-21 4.2389e-20)
(0.003 -9.68272e-21 1.27169e-19)
(0.003 -9.67068e-20 5.01863e-20)
(0.003 -7.30655e-20 -1.4274e-19)
(0.003 -2.0615e-20 -2.1671e-19)
(0.003 -3.88621e-21 -1.37435e-19)
(0.003 5.38531e-20 -3.65686e-20)
(0.003 1.3352e-19 3.11474e-21)
(0.003 7.59996e-20 2.74573e-20)
(0.003 5.87546e-20 -4.01625e-20)
(0.003 -6.5686e-20 5.57227e-19)
(0.003 4.13341e-20 7.69695e-19)
(0.003 6.87528e-20 7.38299e-19)
(0.003 9.80607e-20 7.58034e-19)
(0.003 1.06719e-19 7.5691e-19)
(0.003 9.68982e-20 6.51383e-19)
(0.003 8.63841e-20 5.46133e-19)
(0.003 1.77397e-19 6.27442e-19)
(0.003 1.67726e-19 6.00832e-19)
(0.003 2.42484e-20 4.75665e-19)
(0.003 1.40353e-20 4.71598e-19)
(0.003 5.67439e-20 5.11317e-19)
(0.003 8.61707e-20 3.89887e-19)
(0.003 1.59489e-19 3.15222e-19)
(0.003 5.74636e-20 4.46251e-19)
(0.003 -1.23043e-19 4.71342e-19)
(0.003 -1.3992e-19 2.75282e-19)
(0.003 -1.34236e-19 9.77352e-20)
(0.003 -2.76831e-19 1.9663e-20)
(0.003 -2.26898e-19 -4.27578e-20)
(0.003 2.95858e-20 -1.99327e-21)
(0.003 1.21512e-19 1.60955e-19)
(0.003 1.16451e-19 2.32071e-19)
(0.003 8.73792e-20 1.9659e-19)
(0.003 1.69728e-19 7.77823e-20)
(0.003 1.01405e-19 2.10388e-20)
(0.003 3.57509e-20 2.54132e-20)
(0.003 -7.51024e-20 1.09486e-19)
(0.003 -1.50455e-19 1.26381e-19)
(0.003 -2.99129e-20 1.32538e-19)
(0.003 1.41182e-19 1.66611e-19)
(0.003 6.37911e-20 6.03446e-20)
(0.003 -5.96645e-20 -8.03832e-20)
(0.003 -3.37801e-20 -1.82117e-19)
(0.003 -6.21588e-20 -1.63973e-19)
(0.003 -5.87803e-20 -1.63166e-19)
(0.003 -1.50392e-20 -9.04664e-20)
(0.003 1.28949e-19 4.94155e-20)
(0.003 1.67863e-19 1.15144e-21)
(0.003 1.31051e-19 -1.08818e-19)
(0.003 1.7178e-20 6.70485e-19)
(0.003 1.25503e-19 8.91398e-19)
(0.003 1.71547e-19 8.45862e-19)
(0.003 1.69895e-19 8.33084e-19)
(0.003 1.68316e-19 7.89154e-19)
(0.003 6.26375e-20 6.70306e-19)
(0.003 7.94745e-20 5.71252e-19)
(0.003 1.34868e-19 6.12012e-19)
(0.003 7.74324e-20 6.33317e-19)
(0.003 7.56127e-20 5.91002e-19)
(0.003 1.2256e-19 5.75539e-19)
(0.003 6.67652e-20 4.83998e-19)
(0.003 9.99709e-20 3.10061e-19)
(0.003 1.03837e-19 2.7463e-19)
(0.003 2.87874e-20 4.47319e-19)
(0.003 -1.05984e-19 4.413e-19)
(0.003 -1.39452e-19 2.37091e-19)
(0.003 -1.25401e-19 1.23139e-19)
(0.003 -1.96013e-19 9.4396e-21)
(0.003 -1.64242e-19 -2.8949e-21)
(0.003 6.5577e-20 6.82169e-20)
(0.003 1.96668e-19 1.59902e-19)
(0.003 7.61814e-20 2.12817e-19)
(0.003 2.5373e-20 2.39368e-19)
(0.003 6.41168e-20 2.32345e-19)
(0.003 6.00919e-20 6.45714e-20)
(0.003 -8.76522e-20 -3.897e-20)
(0.003 -1.91193e-19 9.81361e-20)
(0.003 -1.73716e-19 1.09233e-19)
(0.003 -2.00086e-20 8.35961e-20)
(0.003 1.65859e-19 1.18773e-19)
(0.003 1.24819e-19 1.17715e-20)
(0.003 1.46895e-19 -1.56701e-19)
(0.003 1.46388e-19 -1.06137e-19)
(0.003 3.40643e-20 -1.28069e-19)
(0.003 4.29003e-20 -2.27113e-19)
(0.003 -1.72661e-21 -2.30941e-19)
(0.003 1.42973e-20 1.05005e-20)
(0.003 5.11111e-20 -1.81104e-20)
(0.003 6.28356e-20 -2.35097e-19)
(0.003 2.21923e-19 5.54531e-19)
(0.003 2.04783e-19 8.30687e-19)
(0.003 1.97576e-19 9.22843e-19)
(0.003 1.99301e-19 9.43318e-19)
(0.003 1.24885e-19 8.79923e-19)
(0.003 9.23912e-20 6.97537e-19)
(0.003 1.4035e-19 6.45583e-19)
(0.003 7.38929e-20 6.82094e-19)
(0.003 -2.93837e-20 6.79464e-19)
(0.003 1.17391e-19 5.72564e-19)
(0.003 2.16778e-19 6.17569e-19)
(0.003 1.44367e-19 5.15288e-19)
(0.003 1.16043e-20 3.33533e-19)
(0.003 1.0438e-20 2.55602e-19)
(0.003 -6.21287e-21 3.80094e-19)
(0.003 3.22321e-20 3.7974e-19)
(0.003 4.30354e-20 1.48167e-19)
(0.003 -2.92478e-20 9.94491e-20)
(0.003 -1.83863e-20 9.72798e-20)
(0.003 -9.18772e-20 5.77055e-20)
(0.003 1.02409e-20 8.67872e-20)
(0.003 1.91541e-19 2.00819e-19)
(0.003 7.91902e-20 2.86988e-19)
(0.003 -2.82242e-20 2.61094e-19)
(0.003 -8.41334e-20 2.64456e-19)
(0.003 6.5031e-21 1.0312e-19)
(0.003 -8.59407e-20 -1.38125e-20)
(0.003 -1.81887e-19 2.36197e-20)
(0.003 -1.58001e-19 4.53062e-20)
(0.003 -1.95767e-20 7.56851e-20)
(0.003 -1.27686e-20 1.69129e-19)
(0.003 6.38291e-20 8.23501e-20)
(0.003 3.24532e-19 -3.60059e-20)
(0.003 3.25514e-19 -4.16231e-20)
(0.003 1.73003e-19 -1.88115e-19)
(0.003 2.39958e-22 -2.90544e-19)
(0.003 -2.02089e-20 -2.97456e-19)
(0.003 -1.09757e-20 -5.45402e-20)
(0.003 -1.71174e-19 -3.14561e-20)
(0.003 -1.58383e-19 -1.98792e-19)
(0.003 6.10926e-20 5.35032e-19)
(0.003 1.3664e-19 9.70517e-19)
(0.003 1.43856e-19 1.00756e-18)
(0.003 1.87381e-19 1.00846e-18)
(0.003 1.85869e-19 8.87726e-19)
(0.003 2.15935e-19 7.26053e-19)
(0.003 1.38155e-19 7.49388e-19)
(0.003 3.90519e-20 6.93174e-19)
(0.003 8.94721e-21 6.13261e-19)
(0.003 4.25996e-20 6.78878e-19)
(0.003 3.48262e-20 6.42266e-19)
(0.003 2.75613e-20 5.4985e-19)
(0.003 -1.81254e-20 3.90635e-19)
(0.003 -1.29933e-20 3.5664e-19)
(0.003 1.18818e-21 3.06865e-19)
(0.003 8.80706e-20 3.03557e-19)
(0.003 1.42851e-19 1.94359e-19)
(0.003 6.24888e-20 1.19204e-19)
(0.003 5.59297e-20 1.35598e-19)
(0.003 -1.79155e-20 5.90443e-20)
(0.003 -3.04593e-20 7.65267e-20)
(0.003 8.89543e-20 2.52378e-19)
(0.003 5.44948e-20 3.34164e-19)
(0.003 4.52217e-20 3.41202e-19)
(0.003 -1.72694e-21 2.45314e-19)
(0.003 -5.03437e-20 9.20227e-20)
(0.003 -7.41583e-20 1.71741e-20)
(0.003 -1.36353e-19 2.36161e-20)
(0.003 6.12257e-20 -7.91407e-20)
(0.003 3.23755e-20 -3.65026e-20)
(0.003 -2.01158e-19 6.47826e-20)
(0.003 -7.2153e-20 9.19456e-20)
(0.003 8.45924e-20 1.0403e-19)
(0.003 1.68491e-19 -8.07708e-20)
(0.003 2.06781e-19 -2.1617e-19)
(0.003 1.1685e-19 -3.82988e-19)
(0.003 5.12461e-20 -2.38576e-19)
(0.003 -1.26349e-19 -2.59172e-20)
(0.003 -2.45997e-19 -3.6329e-20)
(0.003 -2.10581e-19 -1.5828e-20)
(0.003 -1.8904e-19 6.71964e-19)
(0.003 3.88524e-20 9.20573e-19)
(0.003 2.11855e-19 1.0391e-18)
(0.003 2.42038e-19 1.06705e-18)
(0.003 2.09364e-19 9.92652e-19)
(0.003 2.11391e-19 8.27999e-19)
(0.003 2.55819e-19 7.93686e-19)
(0.003 1.32307e-19 7.69195e-19)
(0.003 8.47862e-20 6.25181e-19)
(0.003 3.18819e-20 5.94382e-19)
(0.003 -6.52031e-20 6.05023e-19)
(0.003 -9.99636e-20 5.27028e-19)
(0.003 8.22431e-22 4.22997e-19)
(0.003 -2.08823e-20 3.55615e-19)
(0.003 6.54252e-20 4.13089e-19)
(0.003 3.95841e-21 3.78056e-19)
(0.003 -6.41208e-20 2.42655e-19)
(0.003 7.19342e-20 5.16991e-20)
(0.003 3.5827e-20 -2.96334e-20)
(0.003 7.9964e-20 1.50388e-21)
(0.003 1.27278e-19 1.48492e-19)
(0.003 1.16419e-19 2.53405e-19)
(0.003 6.95365e-21 3.31957e-19)
(0.003 1.22001e-20 3.95869e-19)
(0.003 9.83706e-20 3.05209e-19)
(0.003 2.40129e-20 1.228e-19)
(0.003 -3.07826e-20 -1.28569e-20)
(0.003 -9.33289e-21 -5.56368e-20)
(0.003 6.71329e-20 6.93728e-21)
(0.003 -2.91838e-20 2.01689e-20)
(0.003 -1.00312e-19 -2.48527e-20)
(0.003 -6.29988e-20 -4.06197e-20)
(0.003 -2.23693e-19 4.87336e-21)
(0.003 -1.06555e-19 -7.87265e-21)
(0.003 1.64689e-19 -1.90864e-19)
(0.003 2.19427e-19 -3.26886e-19)
(0.003 2.34214e-20 -3.57906e-19)
(0.003 -2.40973e-19 -8.26245e-20)
(0.003 -1.8547e-19 2.83377e-21)
(0.003 -1.20677e-19 -3.7784e-21)
(0.003 8.63222e-20 6.91513e-19)
(0.003 2.06451e-19 1.05793e-18)
(0.003 2.3037e-19 1.16869e-18)
(0.003 2.08105e-19 1.16581e-18)
(0.003 1.21822e-19 9.5586e-19)
(0.003 1.96264e-19 8.41973e-19)
(0.003 2.76406e-19 8.71089e-19)
(0.003 1.28046e-19 7.98936e-19)
(0.003 5.98989e-20 6.89724e-19)
(0.003 4.33155e-20 6.02254e-19)
(0.003 3.62394e-20 5.60621e-19)
(0.003 -2.17971e-20 5.45184e-19)
(0.003 7.80207e-20 4.30814e-19)
(0.003 1.14114e-19 2.99813e-19)
(0.003 -1.00956e-21 4.13281e-19)
(0.003 -5.09013e-20 4.30775e-19)
(0.003 -5.2704e-20 2.87723e-19)
(0.003 4.65219e-21 1.59967e-19)
(0.003 6.86767e-21 -1.10374e-20)
(0.003 1.2766e-19 -1.12909e-19)
(0.003 2.72946e-19 1.17783e-19)
(0.003 1.26584e-19 3.34423e-19)
(0.003 -3.48065e-20 3.09863e-19)
(0.003 -2.77321e-21 3.67392e-19)
(0.003 8.38341e-21 3.46448e-19)
(0.003 -1.58189e-20 5.189e-20)
(0.003 -4.67189e-20 -1.50722e-20)
(0.003 1.10192e-19 1.08015e-19)
(0.003 3.3133e-20 6.2851e-21)
(0.003 -1.24795e-19 2.17265e-20)
(0.003 -9.11175e-20 1.16736e-20)
(0.003 -5.37051e-20 -1.30158e-19)
(0.003 -1.57896e-19 -1.49568e-19)
(0.003 -1.96379e-19 -1.46647e-19)
(0.003 5.26753e-20 -2.02795e-19)
(0.003 1.17837e-19 -2.70075e-19)
(0.003 -5.9293e-20 -3.03389e-19)
(0.003 -2.31712e-19 -1.88099e-19)
(0.003 -1.39412e-19 8.16104e-21)
(0.003 4.06626e-20 5.06485e-20)
(0.003 1.9317e-19 7.87411e-19)
(0.003 2.69747e-19 1.22112e-18)
(0.003 2.59505e-19 1.22916e-18)
(0.003 1.07625e-19 1.09782e-18)
(0.003 1.34419e-19 1.01195e-18)
(0.003 1.7668e-19 9.61633e-19)
(0.003 9.05418e-20 8.78976e-19)
(0.003 6.30984e-20 7.26744e-19)
(0.003 5.88334e-20 5.96329e-19)
(0.003 2.28045e-20 6.18898e-19)
(0.003 5.6794e-20 6.80381e-19)
(0.003 1.97575e-20 5.69092e-19)
(0.003 5.9395e-20 4.72327e-19)
(0.003 1.51349e-19 3.64798e-19)
(0.003 2.87906e-20 3.72845e-19)
(0.003 -1.06578e-19 4.03501e-19)
(0.003 -8.73826e-20 3.23958e-19)
(0.003 4.14463e-20 1.7927e-19)
(0.003 1.97611e-19 4.27464e-20)
(0.003 2.41253e-19 -4.56086e-20)
(0.003 6.03684e-20 1.45537e-19)
(0.003 -1.38761e-19 2.67307e-19)
(0.003 -5.55261e-20 3.26228e-19)
(0.003 -5.6555e-21 3.6812e-19)
(0.003 -1.22194e-19 3.02673e-19)
(0.003 -2.16892e-19 7.74624e-20)
(0.003 -7.26803e-20 9.44596e-20)
(0.003 1.12796e-19 1.38262e-19)
(0.003 7.06791e-20 -7.24512e-20)
(0.003 -1.43175e-21 -1.68448e-19)
(0.003 2.97225e-20 -7.70793e-20)
(0.003 -1.54155e-19 -1.13322e-19)
(0.003 -1.20385e-19 -4.03782e-20)
(0.003 -7.09369e-20 -6.70919e-21)
(0.003 -6.33163e-20 -4.56197e-20)
(0.003 -1.69567e-21 -2.55225e-19)
(0.003 4.80754e-20 -4.39905e-19)
(0.003 7.4428e-20 -2.38299e-19)
(0.003 1.40543e-19 1.3272e-20)
(0.003 6.80124e-20 -7.38906e-21)
(0.003 2.02486e-19 8.43271e-19)
(0.003 2.46142e-19 1.23713e-18)
(0.003 1.92314e-19 1.18983e-18)
(0.003 1.06496e-19 1.13639e-18)
(0.003 1.22101e-19 1.0974e-18)
(0.003 7.4515e-20 1.02645e-18)
(0.003 -1.70515e-20 8.61484e-19)
(0.003 1.60722e-20 7.15748e-19)
(0.003 1.8281e-19 6.72585e-19)
(0.003 2.48294e-19 6.47261e-19)
(0.003 7.76527e-20 6.40648e-19)
(0.003 -5.25183e-20 5.49654e-19)
(0.003 1.57618e-20 4.66636e-19)
(0.003 1.4417e-19 4.4482e-19)
(0.003 1.34262e-20 3.99692e-19)
(0.003 -6.42281e-20 3.70238e-19)
(0.003 -1.20348e-19 2.59717e-19)
(0.003 -8.81886e-20 1.69379e-19)
(0.003 3.91833e-20 1.71024e-19)
(0.003 1.43785e-19 1.49909e-19)
(0.003 9.23982e-20 1.42169e-19)
(0.003 -5.12229e-21 2.15002e-19)
(0.003 -2.80347e-21 2.66296e-19)
(0.003 -1.2542e-20 3.16255e-19)
(0.003 -1.382e-19 3.08821e-19)
(0.003 -1.72049e-19 1.49502e-19)
(0.003 -4.11426e-20 1.23294e-19)
(0.003 5.7396e-20 1.31923e-19)
(0.003 1.31957e-19 -6.20409e-20)
(0.003 1.65754e-19 -2.62577e-19)
(0.003 4.44018e-20 -2.17658e-19)
(0.003 -2.54288e-19 -1.45631e-19)
(0.003 -2.28152e-19 -3.94235e-20)
(0.003 -6.5285e-20 7.43095e-20)
(0.003 -1.54542e-20 3.46889e-20)
(0.003 2.21325e-20 -1.95342e-19)
(0.003 1.41838e-19 -3.12892e-19)
(0.003 2.39276e-19 -1.49774e-19)
(0.003 2.05473e-19 3.03493e-20)
(0.003 1.48609e-20 6.23624e-21)
(0.003 9.79207e-21 9.05952e-19)
(0.003 1.54973e-19 1.29203e-18)
(0.003 1.96934e-19 1.28947e-18)
(0.003 5.66205e-20 1.15905e-18)
(0.003 -7.37888e-20 1.10981e-18)
(0.003 -6.29357e-20 1.03489e-18)
(0.003 6.614e-20 8.73587e-19)
(0.003 1.58783e-19 6.63891e-19)
(0.003 1.41024e-19 6.93046e-19)
(0.003 1.17607e-19 8.11451e-19)
(0.003 1.07932e-19 7.06218e-19)
(0.003 1.03489e-19 5.1082e-19)
(0.003 3.75681e-21 5.26945e-19)
(0.003 -6.71277e-20 5.20969e-19)
(0.003 -7.26164e-20 3.83117e-19)
(0.003 -6.95649e-20 2.97529e-19)
(0.003 -6.65269e-20 2.05276e-19)
(0.003 -2.15592e-20 1.8092e-19)
(0.003 5.2916e-20 1.0981e-19)
(0.003 8.20312e-20 1.08502e-19)
(0.003 1.58998e-19 2.43467e-19)
(0.003 1.02055e-19 3.12711e-19)
(0.003 7.16014e-20 3.45033e-19)
(0.003 6.86097e-22 4.30453e-19)
(0.003 -1.63455e-19 2.8918e-19)
(0.003 -9.46585e-20 1.18429e-19)
(0.003 -1.72057e-20 8.74262e-20)
(0.003 -2.11649e-20 9.59711e-20)
(0.003 1.02911e-19 -9.05338e-20)
(0.003 2.30701e-19 -2.7602e-19)
(0.003 1.07213e-19 -1.98981e-19)
(0.003 -1.06889e-19 -2.07433e-19)
(0.003 -2.21833e-19 -1.72282e-19)
(0.003 -2.04869e-19 -4.61804e-20)
(0.003 -1.02293e-19 5.81546e-20)
(0.003 1.07995e-19 -1.05232e-19)
(0.003 1.7822e-19 -2.5055e-19)
(0.003 1.87574e-19 -1.04589e-19)
(0.003 7.86218e-20 -4.95892e-20)
(0.003 -1.21326e-19 -2.56567e-19)
(0.003 -1.15957e-19 9.26106e-19)
(0.003 -5.998e-20 1.346e-18)
(0.003 4.82631e-20 1.34727e-18)
(0.003 2.96332e-20 1.10255e-18)
(0.003 5.74694e-20 1.03651e-18)
(0.003 -4.36552e-21 1.04711e-18)
(0.003 6.17731e-20 9.74453e-19)
(0.003 1.87762e-19 8.16741e-19)
(0.003 3.56638e-20 7.08701e-19)
(0.003 -1.18116e-19 7.71226e-19)
(0.003 4.04977e-20 6.92554e-19)
(0.003 1.48114e-19 6.06448e-19)
(0.003 -2.71698e-20 5.87531e-19)
(0.003 -1.82645e-19 4.7118e-19)
(0.003 -1.21279e-19 3.22547e-19)
(0.003 -9.53294e-20 2.9651e-19)
(0.003 -1.67994e-21 1.71566e-19)
(0.003 6.50569e-20 9.50019e-20)
(0.003 1.56282e-20 1.85953e-19)
(0.003 1.05487e-19 1.88954e-19)
(0.003 1.88915e-19 3.40478e-19)
(0.003 1.02951e-19 3.47757e-19)
(0.003 -8.20367e-21 4.06397e-19)
(0.003 -1.73083e-19 4.17481e-19)
(0.003 -1.08088e-19 2.22909e-19)
(0.003 3.54647e-20 1.64881e-19)
(0.003 6.29895e-20 2.31158e-20)
(0.003 -3.35185e-20 1.23571e-20)
(0.003 -4.74625e-20 -1.06473e-19)
(0.003 1.64138e-19 -2.21744e-19)
(0.003 2.84254e-19 -9.83981e-20)
(0.003 4.51001e-20 -2.49603e-19)
(0.003 -1.1745e-19 -3.50126e-19)
(0.003 -2.38135e-19 -1.64643e-19)
(0.003 -2.03014e-19 1.65858e-19)
(0.003 -1.8358e-21 1.34444e-19)
(0.003 1.70502e-19 -1.51783e-19)
(0.003 2.48914e-19 -2.68763e-19)
(0.003 1.90481e-19 -2.60546e-19)
(0.003 1.07279e-19 -3.26309e-19)
(0.003 -9.60408e-20 8.61974e-19)
(0.003 -2.3221e-19 1.28665e-18)
(0.003 -7.0364e-20 1.37642e-18)
(0.003 4.10133e-21 1.18628e-18)
(0.003 4.05189e-20 1.15773e-18)
(0.003 3.7176e-20 1.10905e-18)
(0.003 6.76265e-20 9.80572e-19)
(0.003 1.11779e-19 8.98002e-19)
(0.003 -2.39255e-20 7.47663e-19)
(0.003 -6.07021e-20 6.65748e-19)
(0.003 1.06521e-20 7.21358e-19)
(0.003 1.2265e-21 7.22386e-19)
(0.003 -8.75199e-20 6.87338e-19)
(0.003 -1.18603e-19 4.57025e-19)
(0.003 -9.47592e-20 2.9627e-19)
(0.003 -7.02666e-20 2.85307e-19)
(0.003 -1.77373e-20 1.62171e-19)
(0.003 -5.32608e-20 9.19681e-20)
(0.003 1.15421e-20 1.48029e-19)
(0.003 1.78845e-19 2.08707e-19)
(0.003 1.56406e-19 3.09529e-19)
(0.003 1.39875e-19 4.31353e-19)
(0.003 -4.31331e-20 4.76473e-19)
(0.003 -1.87868e-19 3.70183e-19)
(0.003 -6.14093e-20 1.52145e-19)
(0.003 -3.02276e-20 1.30379e-19)
(0.003 2.53584e-21 5.63394e-20)
(0.003 -6.11046e-20 -2.26042e-20)
(0.003 -1.0616e-19 -1.81782e-20)
(0.003 4.67557e-20 -6.97259e-20)
(0.003 1.88627e-19 -1.24715e-19)
(0.003 1.16846e-19 -4.30833e-19)
(0.003 -4.34689e-20 -5.32174e-19)
(0.003 -9.85065e-20 -2.76289e-19)
(0.003 -8.42006e-20 1.99331e-19)
(0.003 -8.7053e-20 2.71953e-19)
(0.003 7.02723e-20 4.21135e-20)
(0.003 1.80208e-19 -2.00705e-19)
(0.003 1.58692e-19 -2.91122e-19)
(0.003 2.22196e-19 -3.4092e-19)
(0.003 -1.27835e-19 8.07481e-19)
(0.003 -1.67524e-19 1.22324e-18)
(0.003 -2.13469e-20 1.34555e-18)
(0.003 -9.13529e-21 1.22188e-18)
(0.003 -5.59451e-20 1.131e-18)
(0.003 -2.12034e-20 1.12128e-18)
(0.003 7.32588e-20 1.0676e-18)
(0.003 5.41807e-21 9.39671e-19)
(0.003 -3.08178e-20 7.51638e-19)
(0.003 1.84468e-20 7.23323e-19)
(0.003 -5.09683e-21 7.9498e-19)
(0.003 -8.04444e-20 7.17567e-19)
(0.003 -1.96552e-19 6.34168e-19)
(0.003 -5.69278e-20 5.17669e-19)
(0.003 -1.7767e-20 2.59879e-19)
(0.003 -8.43221e-20 1.8651e-19)
(0.003 1.06811e-21 1.43499e-19)
(0.003 3.5992e-20 1.60657e-19)
(0.003 9.57515e-20 2.57822e-19)
(0.003 1.94049e-19 2.55358e-19)
(0.003 1.5078e-19 3.53316e-19)
(0.003 9.70303e-20 3.37842e-19)
(0.003 -9.02744e-20 3.31806e-19)
(0.003 -1.5632e-19 2.84812e-19)
(0.003 -7.0072e-20 1.51518e-19)
(0.003 -2.19913e-20 1.57487e-19)
(0.003 -1.04115e-19 3.46457e-20)
(0.003 -1.80409e-19 -2.57093e-20)
(0.003 -1.21793e-19 5.23976e-20)
(0.003 -8.41202e-20 3.00188e-20)
(0.003 2.38362e-21 -7.36647e-20)
(0.003 1.74416e-19 -3.61968e-19)
(0.003 1.28139e-19 -4.81151e-19)
(0.003 1.10396e-19 -3.06221e-19)
(0.003 1.85488e-19 6.41394e-20)
(0.003 3.99618e-20 1.50122e-19)
(0.003 -4.65289e-20 7.81414e-20)
(0.003 -8.98565e-20 -5.87968e-20)
(0.003 -1.08916e-19 -2.88758e-19)
(0.003 7.27049e-20 -3.35519e-19)
(0.003 -1.41434e-19 7.24576e-19)
(0.003 -1.94682e-19 1.27271e-18)
(0.003 -1.50401e-19 1.51551e-18)
(0.003 3.61366e-21 1.29258e-18)
(0.003 1.03063e-19 1.10209e-18)
(0.003 6.5715e-20 1.09199e-18)
(0.003 -7.81381e-20 1.03994e-18)
(0.003 -1.98508e-19 9.02541e-19)
(0.003 -9.02165e-20 7.87871e-19)
(0.003 -4.23215e-21 7.72851e-19)
(0.003 -2.06724e-20 7.90611e-19)
(0.003 2.54802e-21 7.11816e-19)
(0.003 -9.45109e-21 5.79185e-19)
(0.003 -3.15775e-20 5.28371e-19)
(0.003 1.79266e-20 3.25982e-19)
(0.003 -4.38088e-21 2.52243e-19)
(0.003 -6.53167e-21 2.33989e-19)
(0.003 1.53003e-19 8.1251e-20)
(0.003 2.25901e-19 8.12057e-20)
(0.003 1.8792e-19 1.95949e-19)
(0.003 -3.70368e-20 3.40914e-19)
(0.003 -1.25917e-19 5.19003e-19)
(0.003 -3.83701e-20 3.79978e-19)
(0.003 1.39024e-21 1.95352e-19)
(0.003 -1.16953e-19 1.04598e-19)
(0.003 -9.45112e-20 1.70256e-19)
(0.003 -7.49831e-20 9.35009e-20)
(0.003 -1.8521e-19 -3.36808e-20)
(0.003 -8.72982e-20 7.80953e-20)
(0.003 -8.72313e-20 5.72966e-20)
(0.003 -6.99003e-20 -3.55209e-20)
(0.003 8.26889e-20 -2.45749e-19)
(0.003 1.51591e-19 -3.48909e-19)
(0.003 1.71177e-19 -2.49189e-19)
(0.003 1.61019e-19 -1.10822e-19)
(0.003 1.10486e-19 4.76212e-20)
(0.003 -1.45134e-20 1.89998e-20)
(0.003 -1.69519e-19 -1.46028e-19)
(0.003 -1.67655e-19 -3.25616e-19)
(0.003 -6.30034e-20 -3.14246e-19)
(0.003 -9.37935e-20 7.06474e-19)
(0.003 -2.09415e-19 1.19138e-18)
(0.003 -2.3629e-19 1.38402e-18)
(0.003 -2.24734e-20 1.33975e-18)
(0.003 7.48615e-20 1.20658e-18)
(0.003 5.96657e-21 1.10474e-18)
(0.003 -1.29078e-19 1.04959e-18)
(0.003 -1.46173e-19 8.80822e-19)
(0.003 -8.18157e-20 8.03931e-19)
(0.003 -7.23743e-20 8.20123e-19)
(0.003 -6.04609e-20 7.61069e-19)
(0.003 7.66985e-20 6.76218e-19)
(0.003 1.58299e-19 6.10659e-19)
(0.003 7.79917e-20 5.11938e-19)
(0.003 2.05756e-20 3.26655e-19)
(0.003 9.1006e-21 2.78761e-19)
(0.003 -3.09299e-20 2.90721e-19)
(0.003 3.2058e-20 1.26538e-19)
(0.003 2.29691e-19 9.31163e-20)
(0.003 9.819e-20 1.64747e-19)
(0.003 -1.03247e-19 2.34711e-19)
(0.003 -1.60145e-19 3.90917e-19)
(0.003 -5.4366e-20 4.60791e-19)
(0.003 -6.04558e-20 2.60332e-19)
(0.003 -1.7778e-21 5.26774e-20)
(0.003 -5.60558e-20 8.31964e-20)
(0.003 7.09819e-20 8.88345e-20)
(0.003 -1.55058e-21 4.73622e-20)
(0.003 -1.29145e-19 5.02741e-20)
(0.003 -2.44585e-20 4.19327e-20)
(0.003 -9.90249e-20 1.20465e-19)
(0.003 -1.02487e-19 -5.86986e-20)
(0.003 -4.10117e-20 -3.42561e-19)
(0.003 6.09368e-20 -2.35995e-19)
(0.003 1.41293e-19 -9.47932e-20)
(0.003 7.3134e-20 -9.76363e-20)
(0.003 9.69383e-20 -6.40245e-20)
(0.003 -2.3233e-20 -2.10634e-19)
(0.003 -9.90923e-20 -4.55437e-19)
(0.003 1.04902e-21 -3.89622e-19)
(0.003 4.10267e-20 7.36611e-19)
(0.003 5.00139e-20 1.16563e-18)
(0.003 -5.25782e-20 1.30908e-18)
(0.003 -1.36071e-19 1.29241e-18)
(0.003 -7.28932e-20 1.21847e-18)
(0.003 -1.07348e-19 1.11406e-18)
(0.003 -1.54893e-19 9.79936e-19)
(0.003 -1.46672e-19 8.62289e-19)
(0.003 -9.60417e-20 8.35125e-19)
(0.003 4.33499e-20 8.12753e-19)
(0.003 1.42249e-19 7.62684e-19)
(0.003 2.06142e-19 7.1326e-19)
(0.003 2.32932e-19 6.13945e-19)
(0.003 1.00165e-19 5.28989e-19)
(0.003 1.50086e-20 4.0216e-19)
(0.003 -4.39398e-20 2.81974e-19)
(0.003 -1.56145e-19 1.36408e-19)
(0.003 -1.61137e-19 2.13896e-21)
(0.003 -2.22188e-20 1.22714e-19)
(0.003 -1.47202e-19 1.55842e-19)
(0.003 -1.26759e-19 2.11451e-19)
(0.003 -7.90834e-21 4.15945e-19)
(0.003 -3.30286e-20 4.51081e-19)
(0.003 1.39189e-20 1.9785e-19)
(0.003 1.51561e-19 4.59225e-20)
(0.003 1.6845e-20 6.80594e-20)
(0.003 3.23859e-20 1.63535e-19)
(0.003 1.47726e-19 9.49371e-20)
(0.003 1.1036e-19 5.5092e-20)
(0.003 5.92107e-21 4.24386e-20)
(0.003 -1.12209e-19 1.17999e-19)
(0.003 -2.0184e-19 -1.83158e-20)
(0.003 -1.61326e-19 -3.34452e-19)
(0.003 -6.87341e-20 -2.7943e-19)
(0.003 3.57885e-20 -1.59606e-19)
(0.003 1.6117e-19 -8.50347e-20)
(0.003 1.94073e-19 -1.69783e-19)
(0.003 7.12653e-21 -3.90947e-19)
(0.003 -9.16286e-20 -5.2373e-19)
(0.003 -9.34545e-20 -4.30019e-19)
(0.003 1.95023e-19 7.27826e-19)
(0.003 1.38625e-19 1.14407e-18)
(0.003 -1.32214e-19 1.29292e-18)
(0.003 -1.8746e-19 1.24008e-18)
(0.003 -8.60279e-20 1.2061e-18)
(0.003 -4.69082e-20 1.11787e-18)
(0.003 -3.37275e-20 9.47911e-19)
(0.003 -1.25997e-19 7.07589e-19)
(0.003 -1.20949e-19 7.27506e-19)
(0.003 1.20591e-19 9.55876e-19)
(0.003 2.96996e-19 1.00278e-18)
(0.003 1.45881e-19 8.39153e-19)
(0.003 6.93001e-20 6.58318e-19)
(0.003 1.2444e-19 4.69942e-19)
(0.003 2.45208e-21 3.71216e-19)
(0.003 -1.25723e-19 2.38463e-19)
(0.003 -1.63725e-19 8.077e-20)
(0.003 -1.41687e-19 -3.76491e-21)
(0.003 -2.17993e-19 1.21263e-19)
(0.003 -1.75662e-19 1.43878e-19)
(0.003 -3.09016e-20 1.94023e-19)
(0.003 -6.31174e-20 3.34648e-19)
(0.003 -7.54881e-20 3.66727e-19)
(0.003 9.82908e-20 2.60466e-19)
(0.003 1.90905e-19 1.0274e-19)
(0.003 1.16587e-19 6.65443e-20)
(0.003 -1.02571e-19 9.55432e-20)
(0.003 9.66e-20 3.77317e-20)
(0.003 1.22005e-19 6.1325e-20)
(0.003 3.3357e-20 7.61898e-21)
(0.003 4.04599e-20 6.72555e-20)
(0.003 -8.9788e-20 -5.07532e-20)
(0.003 5.20439e-21 -3.42535e-19)
(0.003 1.44515e-22 -2.51263e-19)
(0.003 -6.01965e-20 -2.53894e-19)
(0.003 1.39118e-19 -6.63091e-20)
(0.003 2.1344e-20 -5.95565e-20)
(0.003 -1.37776e-19 -3.14722e-19)
(0.003 -1.62099e-19 -5.97733e-19)
(0.003 -1.81979e-19 -5.29841e-19)
(0.003 1.65713e-19 7.6368e-19)
(0.003 4.62823e-20 1.13982e-18)
(0.003 -1.30439e-19 1.15075e-18)
(0.003 -1.559e-19 1.14215e-18)
(0.003 -1.75758e-19 1.18954e-18)
(0.003 -8.49654e-21 1.06229e-18)
(0.003 -4.41034e-20 9.57843e-19)
(0.003 2.949e-20 8.46261e-19)
(0.003 1.70226e-19 7.79332e-19)
(0.003 1.48726e-19 9.19782e-19)
(0.003 7.49138e-20 9.50413e-19)
(0.003 2.18548e-20 7.69178e-19)
(0.003 3.045e-20 6.02531e-19)
(0.003 -5.23665e-20 5.59368e-19)
(0.003 -1.22862e-19 3.69289e-19)
(0.003 -8.6214e-20 2.17883e-19)
(0.003 -1.54112e-19 -2.31212e-20)
(0.003 -2.11716e-19 -2.70135e-20)
(0.003 -3.34792e-19 6.90713e-20)
(0.003 -1.50177e-19 9.02922e-20)
(0.003 -6.77416e-20 3.10727e-19)
(0.003 -1.18698e-19 3.42222e-19)
(0.003 4.84557e-20 2.92434e-19)
(0.003 2.5144e-19 2.43044e-19)
(0.003 1.85815e-19 8.97494e-20)
(0.003 1.47264e-19 9.64149e-20)
(0.003 1.92114e-20 2.77682e-20)
(0.003 4.66305e-20 -9.11153e-21)
(0.003 5.32667e-20 3.11309e-20)
(0.003 2.20578e-20 -8.88012e-21)
(0.003 1.84722e-19 3.27793e-21)
(0.003 2.15201e-19 -5.21765e-20)
(0.003 1.60905e-19 -2.11773e-19)
(0.003 4.04034e-20 -2.37642e-19)
(0.003 -1.13969e-19 -1.96425e-19)
(0.003 -7.70526e-20 -1.11242e-19)
(0.003 -2.3377e-19 -1.54478e-19)
(0.003 -3.17213e-19 -3.02833e-19)
(0.003 -2.13889e-19 -3.37961e-19)
(0.003 -7.97176e-20 -1.80941e-19)
(0.003 -1.09929e-19 7.33062e-19)
(0.003 -1.47737e-19 1.13047e-18)
(0.003 -4.9503e-20 1.17226e-18)
(0.003 -9.97102e-20 1.05723e-18)
(0.003 -2.00496e-19 1.0846e-18)
(0.003 -3.74772e-20 1.13516e-18)
(0.003 2.52448e-20 8.84832e-19)
(0.003 1.85803e-19 6.56664e-19)
(0.003 1.21466e-19 7.32362e-19)
(0.003 -3.98177e-20 9.60395e-19)
(0.003 -9.71269e-20 9.5101e-19)
(0.003 -3.11885e-20 8.72341e-19)
(0.003 -5.40677e-20 7.1251e-19)
(0.003 -1.20654e-19 4.27222e-19)
(0.003 -3.6639e-20 2.36519e-19)
(0.003 -4.09989e-21 1.69313e-19)
(0.003 -2.76914e-20 -3.33845e-20)
(0.003 -1.44811e-19 -6.96972e-20)