/*--------------------------------*- C++ -*----------------------------------*\
| =========                 |                                                 |
| \\      /  F ield         | OpenFOAM: The Open Source CFD Toolbox           |
|  \\    /   O peration     | Version:  v2012                                 |
|   \\  /    A nd           | Website:  www.openfoam.com                      |
|    \\/     M anipulation  |                                                 |
\*---------------------------------------------------------------------------*/
FoamFile
{
    version     2.0;
    format      ascii;
    class       surfaceScalarField;
    location    "170/topAir";
    object      phi;
}
// * * * * * * * * * * * * * * * * * * * * * * * * * * * * * * * * * * * * * //

dimensions      [1 0 -1 0 0 0 0];
oriented        oriented;


internalField   nonuniform List<scalar> 
3140
(
9.431292e-06
-2.3736597e-07
7.5127213e-08
9.56935e-06
-2.2595981e-07
8.8068597e-08
9.7126502e-06
-2.2422113e-07
8.1158192e-08
9.8336929e-06
-1.8789035e-07
6.7129802e-08
9.9245386e-06
-1.3838886e-07
4.7865883e-08
9.9913652e-06
-8.9337862e-08
2.2870307e-08
1.0045486e-05
-4.5084785e-08
-8.6484384e-09
1.012024e-05
-9.2641066e-09
-6.5068875e-08
1.0217512e-05
4.1975237e-08
-1.3883943e-07
1.0353703e-05
1.079965e-07
-2.438074e-07
1.0536627e-05
2.092292e-07
-3.9180021e-07
1.0751527e-05
3.8132532e-07
-5.9589787e-07
1.0958079e-05
6.5978887e-07
-8.6604485e-07
1.1134006e-05
1.0329836e-06
-1.2086685e-06
1.1240478e-05
1.4983737e-06
-1.604672e-06
1.1271763e-05
1.9914836e-06
-2.0226771e-06
1.125116e-05
2.444978e-06
-2.4243707e-06
1.1211968e-05
2.8154995e-06
-2.7763768e-06
1.1176452e-05
3.0930786e-06
-3.0576764e-06
1.1153712e-05
3.2851658e-06
-3.262551e-06
1.1151393e-05
3.4001189e-06
-3.3979166e-06
1.1179107e-05
3.4475791e-06
-3.4754021e-06
1.1243097e-05
3.4404086e-06
-3.5045225e-06
1.1339543e-05
3.3931571e-06
-3.4897793e-06
1.1447802e-05
3.3217147e-06
-3.4302602e-06
1.1520918e-05
3.2456711e-06
-3.3192551e-06
1.1465529e-05
3.1964462e-06
-3.1418009e-06
1.1093148e-05
3.2400096e-06
-2.8687297e-06
1.0016028e-05
3.523033e-06
-2.4473846e-06
4.4190935e-06
-1.7965637e-06
9.1371581e-06
-1.8686612e-07
8.1311299e-08
9.0922118e-06
-2.8665687e-07
1.0565053e-07
9.064556e-06
-3.0966016e-07
1.1310886e-07
9.0698216e-06
-3.1051414e-07
1.1737894e-07
9.1084388e-06
-2.952709e-07
1.1829335e-07
9.1750428e-06
-2.7041178e-07
1.1450662e-07
9.2694919e-06
-2.4461455e-07
1.0512577e-07
9.3987938e-06
-2.2660289e-07
8.8092218e-08
9.5856291e-06
-2.0456153e-07
5.9860515e-08
9.8455765e-06
-1.6723385e-07
1.5546063e-08
1.0207632e-05
-8.8157242e-08
-6.4312936e-08
1.0687171e-05
9.1643185e-08
-1.8944739e-07
1.1250556e-05
4.7094321e-07
-3.7411242e-07
1.1799618e-05
1.1137107e-06
-6.2943783e-07
1.2247149e-05
1.9970712e-06
-9.4603192e-07
1.2534744e-05
2.9911549e-06
-1.2872679e-06
1.2678995e-05
3.9057484e-06
-1.6052035e-06
1.272943e-05
4.6311628e-06
-1.8664021e-06
1.2721439e-05
5.1591442e-06
-2.0584419e-06
1.2678699e-05
5.5176061e-06
-2.1901062e-06
1.2629216e-05
5.7277265e-06
-2.2785773e-06
1.2595326e-05
5.8127569e-06
-2.3318407e-06
1.2587721e-05
5.797683e-06
-2.3503846e-06
1.2602568e-05
5.7058231e-06
-2.3284671e-06
1.2617337e-05
5.5588003e-06
-2.2531427e-06
1.2584546e-05
5.3799346e-06
-2.1032062e-06
1.2410711e-05
5.2111631e-06
-1.8432091e-06
1.1913247e-05
5.1469713e-06
-1.4126281e-06
1.0798856e-05
5.3769013e-06
-7.4357712e-07
6.1317432e-06
1.9750361e-07
9.1932672e-06
-1.942338e-07
8.3059166e-08
9.0518685e-06
-2.5428621e-07
1.0902748e-07
8.8898573e-06
-2.664717e-07
1.1882245e-07
8.7201593e-06
-2.6741146e-07
1.265955e-07
8.5529252e-06
-2.6151338e-07
1.3347718e-07
8.3933855e-06
-2.501095e-07
1.3923888e-07
8.2414e-06
-2.373413e-07
1.447141e-07
8.0906689e-06
-2.2729947e-07
1.5143062e-07
7.9457584e-06
-2.2219704e-07
1.6255109e-07
7.8227869e-06
-2.244148e-07
1.8016101e-07
7.772954e-06
-2.4118795e-07
2.0287635e-07
7.9050278e-06
-2.6133372e-07
2.2098209e-07
8.3323909e-06
-1.7215378e-07
2.1590336e-07
9.0742961e-06
1.9648334e-07
1.7552883e-07
9.9491531e-06
1.0217549e-06
1.0058457e-07
1.0685881e-05
2.2296904e-06
2.469173e-08
1.1246241e-05
3.3113164e-06
3.3838258e-08
1.1667211e-05
4.0878285e-06
1.2198129e-07
1.1955563e-05
4.5834156e-06
2.8690897e-07
1.2116657e-05
4.8637481e-06
4.9227054e-07
1.2201812e-05
4.9917873e-06
6.5030832e-07
1.2251335e-05
5.0009905e-06
7.6179966e-07
1.2284262e-05
4.9138647e-06
8.5047783e-07
1.2298672e-05
4.7561724e-06
9.3484682e-07
1.2270427e-05
4.5521971e-06
1.0344611e-06
1.2163832e-05
4.3274943e-06
1.1586321e-06
1.1923688e-05
4.1166742e-06
1.3341688e-06
1.1458309e-05
3.9917582e-06
1.6199687e-06
1.0595261e-05
4.1436265e-06
2.0953361e-06
4.9995802e-06
2.9033245e-06
8.9935908e-06
8.1125838e-08
8.6333612e-06
1.059428e-07
8.2523035e-06
1.1458561e-07
7.8642133e-06
1.2067807e-07
7.4770464e-06
1.2565317e-07
7.0973533e-06
1.2958294e-07
6.7263483e-06
1.3366348e-07
6.3591048e-06
1.3994347e-07
5.9853678e-06
1.5153986e-07
5.5875336e-06
1.7341896e-07
5.1324544e-06
2.1389139e-07
4.5829047e-06
2.8821629e-07
3.9895967e-06
4.2115416e-07
3.5407706e-06
6.4530667e-07
3.5533278e-06
1.0091269e-06
4.2165778e-06
1.566201e-06
5.246772e-06
2.2806967e-06
6.3300391e-06
3.0040315e-06
7.3009997e-06
3.6119092e-06
8.1014132e-06
4.0628159e-06
8.7391283e-06
4.3536232e-06
9.2469693e-06
4.4927983e-06
9.6539207e-06
4.5066726e-06
9.9591256e-06
4.4508396e-06
1.0146576e-05
4.3647364e-06
1.0193982e-05
4.2801999e-06
1.0087543e-05
4.2233526e-06
9.8735537e-06
4.2061026e-06
9.780558e-06
4.2370218e-06
4.1974725e-06
9.5466604e-06
-2.3644433e-07
3.3964456e-08
9.8057347e-06
-2.2615775e-07
5.5302623e-08
1.0059908e-05
-2.3409358e-07
6.1288302e-08
1.0281108e-05
-2.1340815e-07
5.9588578e-08
1.0459957e-05
-1.8395844e-07
5.3254435e-08
1.0601513e-05
-1.6046076e-07
4.2069791e-08
1.0715911e-05
-1.4725253e-07
2.4495506e-08
1.0803568e-05
-1.4881896e-07
-3.6409185e-09
1.0867238e-05
-1.6921312e-07
-3.307428e-08
1.0913961e-05
-2.1393056e-07
-7.6432492e-08
1.0947196e-05
-2.877557e-07
-1.3717178e-07
1.0968512e-05
-3.9608524e-07
-2.2109515e-07
1.0978231e-05
-5.4109994e-07
-3.3471732e-07
1.1012807e-05
-7.5418314e-07
-4.8923107e-07
1.1081587e-05
-9.8554425e-07
-6.8820676e-07
1.1196508e-05
-1.2061192e-06
-9.3191937e-07
1.135718e-05
-1.3711726e-06
-1.2144446e-06
1.154894e-05
-1.4523437e-06
-1.5164562e-06
1.1742426e-05
-1.4477779e-06
-1.8040697e-06
1.1908005e-05
-1.382275e-06
-2.0464968e-06
1.2040189e-05
-1.29761e-06
-2.2330705e-06
1.2156287e-05
-1.2240203e-06
-2.3680316e-06
1.2278787e-05
-1.1715617e-06
-2.4560394e-06
1.2422742e-05
-1.136917e-06
-2.4974977e-06
1.2591226e-05
-1.1094019e-06
-2.4902246e-06
1.2774187e-05
-1.0702155e-06
-2.4332322e-06
1.2939779e-05
-9.8206374e-07
-2.3271902e-06
1.2999946e-05
-7.6230395e-07
-2.1693736e-06
1.2802383e-05
-2.8932473e-07
-1.9641501e-06
1.4216922e-06
-1.7032797e-06
9.2649555e-06
-1.8813199e-07
3.7012607e-08
9.3689016e-06
-2.90182e-07
6.5734752e-08
9.4861057e-06
-3.1771387e-07
7.9536693e-08
9.6315882e-06
-3.2722801e-07
8.5734043e-08
9.8042621e-06
-3.2608067e-07
8.7765879e-08
9.9940936e-06
-3.2113955e-07
8.5383822e-08
1.0195291e-05
-3.2078353e-07
7.7493355e-08
1.0404634e-05
-3.3233727e-07
6.2303882e-08
1.0621467e-05
-3.6323871e-07
3.7090207e-08
1.0847373e-05
-4.2260941e-07
-1.6497351e-09
1.1080983e-05
-5.2223947e-07
-6.3416368e-08
1.1325677e-05
-6.7521516e-07
-1.5500201e-07
1.1592807e-05
-8.9317661e-07
-2.8917965e-07
1.187285e-05
-1.1837766e-06
-4.799375e-07
1.2194848e-05
-1.5121699e-06
-7.4151322e-07
1.2562415e-05
-1.7865608e-06
-1.0745837e-06
1.2954396e-05
-1.9166083e-06
-1.4520072e-06
1.3332676e-05
-1.8857642e-06
-1.8115263e-06
1.3640121e-05
-1.7275871e-06
-2.0863041e-06
1.3836117e-05
-1.5010385e-06
-2.2674808e-06
1.3934588e-05
-1.2880123e-06
-2.3866902e-06
1.3972237e-05
-1.1190154e-06
-2.4744626e-06
1.3977504e-05
-9.8744475e-07
-2.5396523e-06
1.397654e-05
-8.9593362e-07
-2.5682577e-06
1.3998281e-05
-8.4468885e-07
-2.5392162e-06
1.4097634e-05
-8.3386995e-07
-2.4383336e-06
1.4403598e-05
-8.6055685e-07
-2.2698338e-06
1.5172267e-05
-8.9485465e-07
-2.0475554e-06
1.6886181e-05
-9.5244111e-07
-1.7928705e-06
-6.9798073e-07
-1.6480876e-06
9.3228084e-06
-1.9660392e-07
3.7681314e-08
9.3319686e-06
-2.5775485e-07
6.743955e-08
9.3214812e-06
-2.7148445e-07
8.3080063e-08
9.304947e-06
-2.7598564e-07
9.188743e-08
9.2906944e-06
-2.7586183e-07
9.7511367e-08
9.2809986e-06
-2.7247306e-07
1.0026917e-07
9.2751027e-06
-2.7013409e-07
9.9961852e-08
9.2713436e-06
-2.7353642e-07
9.6390848e-08
9.2688524e-06
-2.8747912e-07
8.9284796e-08
9.2676185e-06
-3.1909436e-07
7.788237e-08
9.2697446e-06
-3.8115064e-07
5.9663645e-08
9.2813711e-06
-4.9532175e-07
2.9465458e-08
9.3204263e-06
-6.8621214e-07
-3.0115255e-08
9.4294541e-06
-9.7141491e-07
-1.4587512e-07
9.6509738e-06
-1.3137373e-06
-3.1944123e-07
9.9975393e-06
-1.5520538e-06
-5.5652062e-07
1.0442352e-05
-1.517606e-06
-8.1013964e-07
1.0907518e-05
-1.2597157e-06
-9.6927808e-07
1.1292907e-05
-9.0155417e-07
-9.2457621e-07
1.1533137e-05
-5.0447542e-07
-7.4450846e-07
1.1611218e-05
-1.505479e-07
-5.6520611e-07
1.1628238e-05
5.8016105e-08
-4.3271524e-07
1.1638263e-05
1.7855571e-07
-3.265333e-07
1.1662979e-05
2.1257869e-07
-1.9969635e-07
1.1728559e-05
1.8419638e-07
-6.1471489e-08
1.1791239e-05
1.0198454e-07
1.5894521e-07
1.1895225e-05
-1.3764019e-08
3.8262334e-07
1.2091068e-05
-1.4198568e-07
6.7038204e-07
1.2521681e-05
-2.48525e-07
9.5949239e-07
-3.3575731e-07
1.1590733e-06
9.1168402e-06
3.6632097e-08
8.8998787e-06
6.5148959e-08
8.6631443e-06
7.9834972e-08
8.4200063e-06
8.7829858e-08
8.1770526e-06
9.2744581e-08
7.9391119e-06
9.5050051e-08
7.7077919e-06
9.4848994e-08
7.4816821e-06
9.2516375e-08
7.2570558e-06
8.8686682e-08
7.0269142e-06
8.446584e-08
6.7777345e-06
8.1920244e-08
6.485594e-06
8.5034446e-08
6.120202e-06
1.0033273e-07
5.6574903e-06
1.3659601e-07
5.1301531e-06
2.2269533e-07
4.7163779e-06
4.2784066e-07
4.6673504e-06
8.1195476e-07
5.0261183e-06
1.385278e-06
5.5372651e-06
2.1988583e-06
6.040439e-06
3.0548183e-06
6.5130138e-06
3.7302111e-06
6.9439664e-06
4.1199264e-06
7.3476228e-06
4.28179e-06
7.6946781e-06
4.3166549e-06
7.9594224e-06
4.284534e-06
8.1243253e-06
4.2176638e-06
8.203858e-06
4.1302278e-06
8.2645449e-06
4.0036708e-06
8.425318e-06
3.8281231e-06
3.5030352e-06
9.5226754e-06
-2.3764148e-07
1.7984759e-08
9.7730156e-06
-2.2591989e-07
3.1043901e-08
1.0027567e-05
-2.3057046e-07
3.7534095e-08
1.0252876e-05
-2.0504132e-07
3.9590629e-08
1.0437709e-05
-1.7034088e-07
3.9066325e-08
1.0584661e-05
-1.4129725e-07
3.674688e-08
1.0698453e-05
-1.2188881e-07
3.2947452e-08
1.0780018e-05
-1.1281643e-07
2.7982287e-08
1.0837792e-05
-1.1304095e-07
2.2580328e-08
1.08713e-05
-1.252089e-07
1.5672907e-08
1.0880544e-05
-1.5225982e-07
6.2663474e-09
1.0862116e-05
-1.9788858e-07
-4.3447075e-09
1.0805896e-05
-2.6499847e-07
-1.3065933e-08
1.0748984e-05
-4.0512111e-07
-2.6780213e-08
1.0698733e-05
-5.8680354e-07
-5.0751646e-08
1.0687373e-05
-8.3255638e-07
-8.7616836e-08
1.0759818e-05
-1.1471982e-06
-1.3930679e-07
1.0936402e-05
-1.4922311e-06
-2.0035408e-07
1.1173134e-05
-1.7848142e-06
-2.5534646e-07
1.1406728e-05
-1.9818501e-06
-2.9735277e-07
1.1604051e-05
-2.1016971e-06
-3.2757267e-07
1.1769849e-05
-2.185009e-06
-3.4752006e-07
1.1926473e-05
-2.2555226e-06
-3.5576005e-07
1.2091188e-05
-2.3128214e-06
-3.4804838e-07
1.2268745e-05
-2.3446321e-06
-3.2195245e-07
1.2460075e-05
-2.339551e-06
-2.8403174e-07
1.2669649e-05
-2.2812006e-06
-2.5479779e-07
1.2855573e-05
-2.0839747e-06
-2.7066297e-07
1.273688e-05
-1.4434114e-06
-4.0124164e-07
9.7980114e-08
-8.6645586e-07
9.2367405e-06
-1.8767758e-07
1.9277391e-08
9.3298021e-06
-2.8888996e-07
3.5649936e-08
9.447542e-06
-3.143173e-07
4.5556442e-08
9.5983338e-06
-3.2038258e-07
5.0302603e-08
9.7786468e-06
-3.1435806e-07
5.1496189e-08
9.9762469e-06
-3.0286206e-07
4.9381893e-08
1.0181932e-05
-2.934538e-07
4.3413337e-08
1.0389734e-05
-2.9098156e-07
3.2714969e-08
1.0596824e-05
-2.9898668e-07
1.6000308e-08
1.0801038e-05
-3.2203296e-07
-8.9781758e-09
1.0997871e-05
-3.6783246e-07
-4.4608788e-08
1.1186782e-05
-4.456467e-07
-9.6079219e-08
1.1370823e-05
-5.6837133e-07
-1.6976584e-07
1.1524049e-05
-7.6268369e-07
-2.7551089e-07
1.1671501e-05
-1.0513627e-06
-4.2431323e-07
1.1838271e-05
-1.4451507e-06
-6.2867001e-07
1.2055026e-05
-1.9268907e-06
-8.890025e-07
1.2305789e-05
-2.387741e-06
-1.1666881e-06
1.2490077e-05
-2.6520916e-06
-1.4031299e-06
1.253447e-05
-2.7011953e-06
-1.5922332e-06
1.2434348e-05
-2.6386062e-06
-1.7492637e-06
1.2238308e-05
-2.5767558e-06
-1.8861875e-06
1.2004002e-05
-2.5606813e-06
-1.9995814e-06
1.1774828e-05
-2.5749749e-06
-2.0761309e-06
1.1581554e-05
-2.5830648e-06
-2.1063807e-06
1.1469674e-05
-2.5722161e-06
-2.0921465e-06
1.1549595e-05
-2.5751975e-06
-2.0534464e-06
1.2141347e-05
-2.6605377e-06
-2.0595826e-06
1.3988598e-05
-2.7305641e-06
-2.3491888e-06
-2.3873406e-06
-2.8792659e-06
9.2955942e-06
-1.9615738e-07
1.9525598e-08
9.294732e-06
-2.5683736e-07
3.6248561e-08
9.2859414e-06
-2.6939482e-07
4.6947912e-08
9.2768931e-06
-2.7227603e-07
5.2829247e-08
9.2746465e-06
-2.7001049e-07
5.5410926e-08
9.2807789e-06
-2.6365391e-07
5.4929837e-08
9.2934023e-06
-2.5699561e-07
5.0882027e-08
9.3098453e-06
-2.5350721e-07
4.2476086e-08
9.3274498e-06
-2.5587575e-07
2.857255e-08
9.3432262e-06
-2.673205e-07
7.3977207e-09
9.3530878e-06
-2.9346502e-07
-2.4560499e-08
9.3533013e-06
-3.4387145e-07
-7.2517116e-08
9.3363241e-06
-4.35466e-07
-1.460367e-07
9.2804276e-06
-5.9626281e-07
-2.5639232e-07
9.1890159e-06
-8.6034893e-07
-4.1903866e-07
9.097874e-06
-1.2574077e-06
-6.5312844e-07
9.0672154e-06
-1.755142e-06
-9.5125758e-07
9.1005801e-06
-2.1647022e-06
-1.2255993e-06
9.0740771e-06
-2.2060283e-06
-1.3439339e-06
8.8663073e-06
-1.9054287e-06
-1.3322524e-06
8.4546089e-06
-1.4951996e-06
-1.2966606e-06
7.9451922e-06
-1.1727152e-06
-1.3271073e-06
7.449e-06
-1.0098378e-06
-1.3809563e-06
7.0600736e-06
-9.8820176e-07
-1.3972498e-06
6.8428689e-06
-1.0741843e-06
-1.3526093e-06
6.8821096e-06
-1.2291069e-06
-1.2225013e-06
7.1303803e-06
-1.4663319e-06
-9.729581e-07
7.7123846e-06
-1.8077831e-06
-7.6192179e-07
9.4545631e-06
-2.2622783e-06
-1.2475937e-06
-2.578594e-06
-2.1100725e-06
9.0903639e-06
1.9061258e-08
8.8634521e-06
3.5222845e-08
8.6284738e-06
4.5417846e-08
8.3931497e-06
5.0877433e-08
8.1627405e-06
5.3142737e-08
7.9415812e-06
5.2554999e-08
7.7306642e-06
4.8770016e-08
7.5284438e-06
4.122918e-08
7.3321139e-06
2.9140579e-08
7.1378341e-06
1.1424883e-08
6.9397571e-06
-1.3467861e-08
6.7294753e-06
-4.8555183e-08
6.4912656e-06
-9.69236e-08
6.1950887e-06
-1.6349178e-07
5.8100099e-06
-2.5259048e-07
5.3441203e-06
-3.6376259e-07
4.8814952e-06
-4.8083527e-07
4.6099391e-06
-5.0810573e-07
4.6549311e-06
-5.2428141e-08
4.6930384e-06
1.1111319e-06
4.6932318e-06
2.2348567e-06
4.8229558e-06
2.8177406e-06
5.0713661e-06
3.0238603e-06
5.3706389e-06
3.0294727e-06
5.6512018e-06
2.9300067e-06
5.8690873e-06
2.7708003e-06
5.9862257e-06
2.5467967e-06
6.0465197e-06
2.1356239e-06
6.7785989e-06
8.3385768e-07
-1.3644916e-06
9.517369e-06
-2.3773051e-07
7.400167e-09
9.7605724e-06
-2.2536286e-07
1.3364171e-08
1.0009905e-05
-2.285293e-07
1.6955981e-08
1.0231564e-05
-2.0041131e-07
1.8612135e-08
1.0413656e-05
-1.6169739e-07
1.8975993e-08
1.0558637e-05
-1.2635505e-07
1.8455725e-08
1.0671863e-05
-9.7164584e-08
1.7242676e-08
1.0758007e-05
-7.3232108e-08
1.544551e-08
1.0821017e-05
-5.3237475e-08
1.3194859e-08
1.0862686e-05
-3.6356333e-08
1.0754799e-08
1.0882888e-05
-2.2072441e-08
8.5347029e-09
1.0881015e-05
-9.8168593e-09
7.7389082e-09
1.0849606e-05
9.0288963e-09
9.7255552e-09
1.0823925e-05
-1.0411465e-08
9.686774e-09
1.0807291e-05
-4.0366951e-08
6.5806417e-09
1.0823657e-05
-1.0638849e-07
2.6719383e-09
1.0917031e-05
-2.4013425e-07
7.6135579e-09
1.1110549e-05
-4.2606991e-07
3.2428464e-08
1.1340473e-05
-5.7788793e-07
9.3162722e-08
1.1557805e-05
-6.7881296e-07
1.6500363e-07
1.1753832e-05
-7.5429284e-07
2.318068e-07
1.1943295e-05
-8.3062149e-07
2.9490393e-07
1.2140817e-05
-9.1617809e-07
3.6422842e-07
1.2338733e-05
-9.9774782e-07
4.5308645e-07
1.2504013e-05
-1.0542111e-06
5.6817539e-07
1.2597506e-05
-1.0732899e-06
6.9685991e-07
1.2566178e-05
-1.017562e-06
7.9510099e-07
1.2242379e-05
-7.2075148e-07
7.745451e-07
1.1040372e-05
3.0428576e-07
4.9755014e-07
3.0345502e-06
-1.0737543e-07
9.230044e-06
-1.8741565e-07
7.8877606e-09
9.3131764e-06
-2.8818577e-07
1.5347121e-08
9.4222916e-06
-3.1258834e-07
2.0513191e-08
9.5655975e-06
-3.1672728e-07
2.333197e-08
9.7386025e-06
-3.0741525e-07
2.4235758e-08
9.9287352e-06
-2.9047101e-07
2.3399615e-08
1.0126706e-05
-2.7232392e-07
2.0644695e-08
1.0326799e-05
-2.5614239e-07
1.5581888e-08
1.0525272e-05
-2.43301e-07
7.6498132e-09
1.0719082e-05
-2.3509376e-07
-3.9852145e-09
1.090662e-05
-2.3368005e-07
-2.0465979e-08
1.1086725e-05
-2.4248146e-07
-4.3440923e-08
1.1262874e-05
-2.6235279e-07
-7.4421576e-08
1.1415483e-05
-3.2289722e-07
-1.1552235e-07
1.1570725e-05
-4.4753141e-07
-1.7233307e-07
1.1757262e-05
-6.7642912e-07
-2.4520805e-07
1.2019459e-05
-1.0712968e-06
-3.2019571e-07
1.231781e-05
-1.5206639e-06
-3.7043439e-07
1.2490735e-05
-1.7358203e-06
-4.1778738e-07
1.2515677e-05
-1.7865004e-06
-5.0894175e-07
1.2416978e-05
-1.7526409e-06
-6.5150299e-07
1.22436e-05
-1.7226914e-06
-8.1980797e-07
1.2032678e-05
-1.7339598e-06
-9.6957552e-07
1.1789652e-05
-1.765681e-06
-1.0632836e-06
1.149181e-05
-1.7870365e-06
-1.0729686e-06
1.1147039e-05
-1.8040686e-06
-1.0126637e-06
1.0904212e-05
-1.8568284e-06
-9.6601879e-07
1.1105876e-05
-1.8948144e-06
-1.0799344e-06
1.1390392e-05
-7.1281281e-07
-1.6111405e-06
2.1470773e-06
-2.3002474e-06
9.289247e-06
-1.961058e-07
7.9274148e-09
9.2786254e-06
-2.5677064e-07
1.545445e-08
9.261098e-06
-2.6896357e-07
2.0850231e-08
9.2441904e-06
-2.7100263e-07
2.4012314e-08
9.2341805e-06
-2.6728465e-07
2.5290887e-08
9.2324051e-06
-2.5853089e-07
2.4766402e-08
9.2367941e-06
-2.4799815e-07
2.2169172e-08
9.2444717e-06
-2.3834676e-07
1.7005924e-08
9.2522119e-06
-2.3106856e-07
8.6037016e-09
9.256125e-06
-2.2752638e-07
-4.0775706e-09
9.2517249e-06
-2.3005951e-07
-2.3774764e-08
9.2324639e-06
-2.4282295e-07
-5.290723e-08
9.1950628e-06
-2.7387337e-07
-9.7106292e-08
9.1186828e-06
-3.4211638e-07
-1.6078507e-07
8.9862421e-06
-4.8432133e-07
-2.4980658e-07
8.7983116e-06
-7.7412996e-07
-3.6751105e-07
8.6206663e-06
-1.3586878e-06
-4.8619177e-07
8.397784e-06
-1.986369e-06
-5.3619549e-07
7.8283604e-06
-1.980243e-06
-5.2897863e-07
7.1470649e-06
-1.8628321e-06
-5.7389527e-07
6.4015755e-06
-1.5824305e-06
-7.2112756e-07
5.6419218e-06
-1.3666578e-06
-9.2376954e-07
4.9211442e-06
-1.3142052e-06
-1.0807231e-06
4.2947253e-06
-1.3828772e-06
-1.1547575e-06
3.785595e-06
-1.5238724e-06
-1.1076369e-06
3.3664622e-06
-1.7369606e-06
-8.7063977e-07
3.1471124e-06
-2.0940883e-06
-5.1612599e-07
3.6630574e-06
-2.6749237e-06
-4.9794865e-07
5.376913e-06
-2.0198099e-06
-1.650269e-06
8.403215e-07
-3.073436e-06
9.084198e-06
7.7078868e-09
8.8477313e-06
1.4918296e-08
8.6041993e-06
1.9985765e-08
8.3612549e-06
2.2818637e-08
8.1233485e-06
2.3764025e-08
7.8944489e-06
2.2923188e-08
7.675165e-06
2.0055438e-08
7.4633324e-06
1.471467e-08
7.2550024e-06
6.4017617e-09
7.0451512e-06
-6.2504031e-09
6.8274556e-06
-2.5831565e-08
6.5903494e-06
-5.4271569e-08
6.3160882e-06
-9.6535038e-08
5.9704384e-06
-1.5995742e-07
5.4910136e-06
-2.5748448e-07
4.7730079e-06
-4.1986265e-07
3.6640862e-06
-7.3022306e-07
2.345684e-06
-1.1721376e-06
1.4390267e-06
-1.1219121e-06
1.0034719e-06
-3.1489417e-07
1.0056204e-06
6.5119113e-07
1.2688698e-06
1.188877e-06
1.6469223e-06
1.3325482e-06
2.0139093e-06
1.2803733e-06
2.2716374e-06
1.148954e-06
2.2778144e-06
1.0279475e-06
1.810532e-06
9.1987191e-07
6.4573391e-07
6.241294e-07
7.4191635e-07
-1.2853932e-06
-3.5442011e-06
9.5146487e-06
-2.3804325e-07
-1.5152343e-10
9.7542168e-06
-2.2579713e-07
-2.4686202e-10
1.000063e-05
-2.2893413e-07
-2.9814204e-10
1.0220364e-05
-2.0054063e-07
-3.1274019e-10
1.0401226e-05
-1.6128978e-07
-2.9216553e-10
1.0545437e-05
-1.2517859e-07
-2.4211946e-10
1.0658198e-05
-9.5002682e-08
-1.5910796e-10
1.0743936e-05
-6.9887927e-08
-2.91186e-11
1.0805868e-05
-4.852452e-08
1.7944435e-10
1.0846435e-05
-2.9921514e-08
5.1521846e-10
1.0868176e-05
-1.3840732e-08
1.0546734e-09
1.0871758e-05
2.6531066e-09
1.9354387e-09
1.0837188e-05
4.1377574e-08
3.3595848e-09
1.0814023e-05
2.7827658e-08
5.4546328e-09
1.0819852e-05
-6.7139229e-09
7.7940667e-09
1.0885613e-05
-7.2240231e-08
9.2495738e-09
1.1084133e-05
-1.9935511e-07
8.2411083e-09
1.1361247e-05
-2.4673337e-07
1.8795954e-09
1.159551e-05
-1.3781951e-07
-3.1311227e-09
1.1788193e-05
-2.1903433e-08
-5.2708193e-09
1.1967382e-05
5.9503518e-08
-6.1108055e-09
1.2178555e-05
8.9917799e-08
-5.0900376e-09
1.2449905e-05
9.7236368e-08
-2.8525924e-09
1.2761626e-05
1.4477773e-07
-1.3899021e-09
1.3035445e-05
2.9459849e-07
2.4550745e-09
1.3136103e-05
5.914833e-07
8.2756235e-09
1.2856026e-05
1.0617975e-06
1.7966174e-08
1.1797879e-05
1.8102434e-06
2.8090697e-08
9.2585402e-06
3.0209073e-06
2.2105956e-08
5.3155444e-06
6.3843139e-09
9.2263905e-06
-1.8743445e-07
-1.4236299e-10
9.3043903e-06
-2.8822097e-07
-2.2222063e-10
9.4086893e-06
-3.124694e-07
-2.3753052e-10
9.5478895e-06
-3.1619177e-07
-1.9763644e-10
9.7171466e-06
-3.0617427e-07
-1.0969028e-10
9.903476e-06
-2.8808831e-07
1.5081309e-11
1.0097229e-05
-2.6824295e-07
1.7578693e-10
1.0292239e-05
-2.4963497e-07
3.7078246e-10
1.0484216e-05
-2.3340377e-07
6.1467038e-10
1.0669928e-05
-2.2049162e-07
9.4465009e-10
1.0847019e-05
-2.1274692e-07
1.4311411e-09
1.1016327e-05
-2.1217685e-07
2.2088825e-09
1.1184936e-05
-2.0488389e-07
3.4037538e-09
1.132613e-05
-2.3385524e-07
5.0406871e-09
1.1483141e-05
-3.4263111e-07
6.5252361e-09
1.1737789e-05
-5.7798948e-07
5.6522732e-09
1.2204962e-05
-9.8534683e-07
-1.7981892e-09
1.2692938e-05
-1.0852933e-06
-1.9916567e-08
1.2987354e-05
-8.2107211e-07
-2.8755164e-08
1.314566e-05
-6.6294984e-07
-2.5851004e-08
1.3207708e-05
-6.3594076e-07
-1.6742057e-08
1.3207489e-05
-7.1966728e-07
-6.8279456e-09
1.3198663e-05
-8.5385997e-07
-3.8460565e-09
1.3229482e-05
-9.2583482e-07
-1.4889711e-08
1.3343508e-05
-8.4049169e-07
-4.1049224e-08
1.3467627e-05
-4.6522625e-07
-6.7705067e-08
1.3367359e-05
2.8697634e-07
-7.9663514e-08
1.2354546e-05
1.8326846e-06
-8.2952704e-08
9.9591659e-06
3.9136956e-06
-1.0976916e-07
6.6634584e-06
-1.6325844e-07
9.2856788e-06
-1.9608211e-07
-1.4503352e-10
9.2698907e-06
-2.5675255e-07
-2.2643593e-10
9.2473235e-06
-2.6881221e-07
-2.4001002e-10
9.2258787e-06
-2.7054445e-07
-1.9003421e-10
9.2114182e-06
-2.6634222e-07
-8.0118244e-11
9.2048739e-06
-2.568592e-07
8.3020672e-11
9.2037599e-06
-2.4525562e-07
2.9809391e-10
9.204629e-06
-2.3406294e-07
5.6805781e-10
9.2034764e-06
-2.2455687e-07
9.1372291e-10
9.1951103e-06
-2.1757846e-07
1.381305e-09
9.1713458e-06
-2.1476806e-07
2.0181059e-09
9.1221499e-06
-2.1887091e-07
2.9924973e-09
9.0505434e-06
-2.3487573e-07
4.5032152e-09
8.9308703e-06
-2.818375e-07
6.8768272e-09
8.740032e-06
-4.1204689e-07
1.0438272e-08
8.5296977e-06
-7.4874071e-07
1.3532978e-08
8.6147976e-06
-1.5610106e-06
4.4712681e-09
8.5928078e-06
-1.5776355e-06
-2.060953e-08
7.9062638e-06
-6.4173612e-07
-2.1577049e-08
7.041653e-06
-3.7675933e-07
3.9126861e-09
6.0385326e-06
-3.9424615e-07
3.9016804e-08
4.8866233e-06
-5.5735319e-07
6.3790572e-08
3.7115753e-06
-8.1452566e-07
5.2164755e-08
2.723769e-06
-1.0795479e-06
-1.6899523e-08
2.1911911e-06
-1.2838817e-06
-1.3549765e-07
2.5810235e-06
-1.4590761e-06
-2.6936899e-07
4.0548165e-06
-1.3953798e-06
-3.0697351e-07
5.7034928e-06
-4.8725022e-08
-2.64008e-07
5.8220683e-06
2.4565648e-06
-3.1137392e-07
5.337442e-06
-4.1956963e-07
9.0807207e-06
-1.4449839e-10
8.8391128e-06
-2.2698517e-10
8.5905286e-06
-2.4270525e-10
8.3429962e-06
-1.9396274e-10
8.1005001e-06
-8.2544502e-11
7.8664799e-06
8.3663357e-11
7.6409706e-06
3.0875295e-10
7.4210193e-06
6.0277326e-10
7.2018603e-06
1.0038117e-09
6.9764435e-06
1.5878854e-09
6.7333797e-06
2.4645659e-09
6.4562433e-06
3.9945825e-09
6.1180145e-06
6.8193734e-09
5.6639378e-06
1.2283605e-08
4.9712129e-06
2.3199131e-08
3.7577854e-06
4.4887624e-08
1.3820455e-06
8.5520872e-08
-1.4783309e-06
1.211053e-07
-3.3766658e-06
1.3711503e-07
-4.2519617e-06
1.840565e-07
-4.1927034e-06
1.9728385e-07
-3.6787101e-06
1.1665301e-07
-3.1167462e-06
-4.5581033e-08
-2.7201185e-06
-1.982818e-07
-2.4874989e-06
-3.7072914e-07
-2.4106392e-06
-5.1142896e-07
-2.3470463e-06
-5.4072154e-07
-1.3717953e-06
-3.9202649e-07
5.2318301e-07
-7.2126256e-07
-8.982719e-07
9.514633e-06
-2.3805193e-07
-7.6789594e-09
9.7541849e-06
-2.2582345e-07
-1.3815351e-08
1.0000582e-05
-2.2898045e-07
-1.7490115e-08
1.02203e-05
-2.0060198e-07
-1.9159774e-08
1.0401146e-05
-1.6135367e-07
-1.9478904e-08
1.0545353e-05
-1.2524964e-07
-1.8865018e-08
1.0658145e-05
-9.5077365e-08
-1.7513547e-08
1.0743978e-05
-6.9950801e-08
-1.5532585e-08
1.0806143e-05
-4.8538149e-08
-1.3050672e-08
1.0847253e-05
-2.9840059e-08
-1.0343606e-08
1.0870232e-05
-1.3666627e-08
-7.8368547e-09
1.0876099e-05
3.2476411e-09
-6.7464092e-09
1.0844711e-05
4.3679638e-08
-8.4861987e-09
1.0823849e-05
3.4972442e-08
-8.2170441e-09
1.0827368e-05
9.4543088e-09
-4.740012e-09
1.0883897e-05
-4.5973957e-08
-7.9058372e-10
1.1059377e-05
-1.6073763e-07
-5.8191954e-09
1.1330939e-05
-2.3910573e-07
-2.9937837e-08
1.1573877e-05
-1.6039628e-07
-8.5317393e-08
1.1768597e-05
-4.6695748e-08
-1.533054e-07
1.1959228e-05
1.9898261e-08
-2.1675413e-07
1.218462e-05
4.9248762e-08
-2.7999505e-07
1.2470084e-05
6.6292122e-08
-3.5508473e-07
1.2798865e-05
1.2664734e-07
-4.5755544e-07
1.3101292e-05
2.9324317e-07
-5.9431075e-07
1.3229418e-05
6.2868203e-07
-7.501435e-07
1.2951951e-05
1.1640472e-06
-8.7090613e-07
1.1839768e-05
1.9903137e-06
-8.5299955e-07
9.1887223e-06
3.222126e-06
-5.5249835e-07
5.4285442e-06
5.3177901e-08
9.2263751e-06
-1.874404e-07
-8.1597773e-09
9.3043464e-06
-2.8823461e-07
-1.5775759e-08
9.4086093e-06
-3.1249238e-07
-2.0975415e-08
9.5477745e-06
-3.1622198e-07
-2.3723156e-08
9.7170166e-06
-3.0620881e-07
-2.4469175e-08
9.9033515e-06
-2.8812419e-07
-2.3409285e-08
1.0097159e-05
-2.6827686e-07
-2.0386704e-08
1.0292325e-05
-2.4965485e-07
-1.5037147e-08
1.0484668e-05
-2.3337624e-07
-6.8259098e-09
1.0671101e-05
-2.2034424e-07
5.0912857e-09
1.0849638e-05
-2.124297e-07
2.1744173e-08
1.1021502e-05
-2.1109074e-07
4.4782246e-08
1.1194186e-05
-2.0104644e-07
7.5540905e-08
1.1340049e-05
-2.2185599e-07
1.1604771e-07
1.1497877e-05
-3.1356287e-07
1.7182685e-07
1.1736411e-05
-5.2299946e-07
2.4440864e-07
1.2159128e-05
-9.0720525e-07
3.2235378e-07
1.2657506e-05
-1.1353157e-06
3.7813116e-07
1.2958917e-05
-9.1433383e-07
4.2382324e-07
1.3117892e-05
-7.4856629e-07
5.1699053e-07
1.3180529e-05
-7.245231e-07
6.6409399e-07
1.3188173e-05
-8.0183506e-07
8.3317757e-07
1.3192085e-05
-9.2372163e-07
9.7497381e-07
1.3248169e-05
-1.0018421e-06
1.0453681e-06
1.3411548e-05
-9.3505177e-07
1.0062564e-06
1.3605067e-05
-5.3488674e-07
8.7900582e-07
1.3536792e-05
3.4902191e-07
7.7506614e-07
1.2368526e-05
2.1130008e-06
9.3053361e-07
9.6532192e-06
4.2903315e-06
1.5042014e-06
6.9735889e-06
2.2204758e-06
9.2856622e-06
-1.9608505e-07
-8.2038894e-09
9.2698483e-06
-2.5675821e-07
-1.5889528e-08
9.2472513e-06
-2.6882061e-07
-2.1315089e-08
9.2257824e-06
-2.7055427e-07
-2.4388589e-08
9.2113163e-06
-2.6635125e-07
-2.5470964e-08
9.2048005e-06
-2.5686396e-07
-2.4659898e-08
9.2037846e-06
-2.4525231e-07
-2.170818e-08
9.2048951e-06
-2.3404202e-07
-1.615171e-08
9.2042896e-06
-2.2449027e-07
-7.3619101e-09
9.1967389e-06
-2.1739412e-07
5.9884125e-09
9.1746706e-06
-2.14299e-07
2.5963772e-08
9.1287797e-06
-2.176263e-07
5.542926e-08
9.0638749e-06
-2.3134275e-07
9.9715967e-08
8.9577808e-06
-2.7191408e-07
1.6304327e-07
8.78938e-06
-3.8524824e-07
2.5055048e-07
8.5896837e-06
-6.7600338e-07
3.6628122e-07
8.5684447e-06
-1.3780036e-06
4.9649215e-07
8.6401172e-06
-1.8032282e-06
5.7514278e-07
7.9490418e-06
-8.0773439e-07
5.6292347e-07
7.095682e-06
-5.1883918e-07
6.2814221e-07
6.1377225e-06
-5.1106354e-07
7.847068e-07
5.0874055e-06
-6.6623712e-07
9.8048715e-07
4.0374988e-06
-9.2623997e-07
1.1076816e-06
3.1262803e-06
-1.1985851e-06
1.0957178e-06
2.6200856e-06
-1.4345681e-06
8.7656338e-07
3.0695456e-06
-1.6371931e-06
3.9158162e-07
4.5786395e-06
-1.433013e-06
-2.6374646e-08
5.8120431e-06
3.5004173e-07
2.5944411e-07
5.1262618e-06
2.9547987e-06
1.6964931e-06
5.7839315e-06
3.0388923e-06
9.0807033e-06
-7.9824154e-09
8.8390698e-06
-1.535223e-08
8.5904578e-06
-2.0451863e-08
8.342906e-06
-2.3196989e-08
8.1004154e-06
-2.394365e-08
7.8664447e-06
-2.2810064e-08
7.6410791e-06
-1.9578242e-08
7.4214732e-06
-1.3833651e-08
7.2031254e-06
-5.1387097e-09
6.9789185e-06
8.4007533e-09
6.7386887e-06
2.8395862e-08
6.4677038e-06
5.7353877e-08
6.1432272e-06
9.9954353e-08
5.7205053e-06
1.6309274e-07
5.0998817e-06
2.5857484e-07
4.0545095e-06
4.1422733e-07
2.0550815e-06
7.0650871e-07
-8.0075102e-07
1.1706095e-06
-2.7360692e-06
1.2652347e-06
-3.6771434e-06
6.0774129e-07
-3.5701387e-06
-4.1906265e-07
-2.9674922e-06
-1.1507749e-06
-2.3873847e-06
-1.550292e-06
-2.0498863e-06
-1.7321913e-06
-2.0335674e-06
-1.8188481e-06
-2.3289307e-06
-1.8493247e-06
-2.5533296e-06
-1.7396812e-06
-2.1260621e-06
-4.4087253e-07
-1.4411834e-06
1.5892159e-06
3.4572225e-06
9.5173344e-06
-2.3776014e-07
-1.8199619e-08
9.7604956e-06
-2.2544251e-07
-3.1373742e-08
1.0009785e-05
-2.2865449e-07
-3.7899428e-08
1.0231396e-05
-2.0056448e-07
-3.9938103e-08
1.0413434e-05
-1.6185281e-07
-3.9358508e-08
1.0558373e-05
-1.2651114e-07
-3.6956445e-08
1.0671582e-05
-9.7304492e-08
-3.3056576e-08
1.0757734e-05
-7.3322748e-08
-2.7978181e-08
1.0820756e-05
-5.3208024e-08
-2.2460249e-08
1.0862461e-05
-3.6166244e-08
-1.5455686e-08
1.0882708e-05
-2.1667278e-08
-5.9645338e-09
1.0881248e-05
-9.1452465e-09
4.3159528e-09
1.0849492e-05
1.1237192e-08
1.2521489e-08
1.0823346e-05
-6.924098e-09
2.5362477e-08
1.0805457e-05
-3.4134277e-08
4.7826185e-08
1.0818433e-05
-9.5680506e-08
8.2534429e-08
1.0906574e-05
-2.2512834e-07
1.319037e-07
1.1103337e-05
-4.1822983e-07
1.9221038e-07
1.1346686e-05
-5.7574959e-07
2.4739251e-07
1.1574292e-05
-6.6936649e-07
2.8821007e-07
1.1774544e-05
-7.3414889e-07
3.1624062e-07
1.1961481e-05
-8.0175597e-07
3.3311776e-07
1.2149752e-05
-8.8275231e-07
3.3662684e-07
1.2336772e-05
-9.7143523e-07
3.2262067e-07
1.2501857e-05
-1.0548521e-06
2.8913221e-07
1.2623531e-05