/*--------------------------------*- C++ -*----------------------------------*\
| =========                 |                                                 |
| \\      /  F ield         | OpenFOAM: The Open Source CFD Toolbox           |
|  \\    /   O peration     | Version:  v2012                                 |
|   \\  /    A nd           | Website:  www.openfoam.com                      |
|    \\/     M anipulation  |                                                 |
\*---------------------------------------------------------------------------*/
FoamFile
{
    version     2.0;
    format      ascii;
    class       volScalarField;
    location    "170/topAir";
    object      rho;
}
// * * * * * * * * * * * * * * * * * * * * * * * * * * * * * * * * * * * * * //

dimensions      [1 -3 0 0 0 0 0];


internalField   nonuniform List<scalar> 
1200
(
1.0963486
1.0440655
1.000801
0.96400323
0.93187873
0.90328024
0.87748344
0.85412171
0.83332879
0.81498961
0.7989269
0.78508009
0.77360266
0.76860029
0.76587502
0.76557828
0.76754951
0.77128143
0.77603928
0.78106709
0.78578037
0.78982744
0.79303901
0.79533612
0.79665042
0.79686124
0.79572267
0.79271395
0.78681893
0.77720655
1.1571996
1.1545146
1.1508416
1.1463543
1.1411849
1.1354348
1.1291947
1.1225281
1.1140061
1.1028046
1.0878378
1.0676258
1.0418383
1.0125985
0.9825753
0.95515798
0.93269932
0.91596224
0.90442847
0.89700466
0.89257743
0.89014353
0.88882711
0.88786131
0.88653108
0.88409082
0.87958098
0.87139916
0.85666007
0.83285657
1.1585882
1.1584985
1.1583317
1.1580715
1.1577039
1.1572164
1.1565991
1.1558425
1.1549016
1.1537103
1.1521463
1.1490547
1.14026
1.1215594
1.0925229
1.0570045
1.020792
0.9883962
0.96185432
0.94132981
0.92611619
0.91521113
0.90755374
0.90214516
0.89808306
0.89454115
0.89066572
0.88528726
0.87626473
0.86046427
1.1586181
1.1586151
1.158608
1.1585941
1.1585699
1.1585316
1.1584742
1.1583921
1.1582774
1.1581182
1.157893
1.157513
1.1565554
1.1524217
1.1356287
1.102599
1.0645582
1.029567
0.99983691
0.97546648
0.95595029
0.94065113
0.92887311
0.91988015
0.91294408
0.90737523
0.90249537
0.89748942
0.8909464
0.88046322
1.0963547
1.0446116
1.0022603
0.96667187
0.93605032
0.90929813
0.88573999
0.8649971
0.84691082
0.83150603
0.81893339
0.80942283
0.80330262
0.80567941
0.81098335
0.81837568
0.82661893
0.8345664
0.84142879
0.84683869
0.85085872
0.85375528
0.85576761
0.85698884
0.85733599
0.85654469
0.85406628
0.84867618
0.83802447
0.82349064
1.1572013
1.1545669
1.1510328
1.1467998
1.1420255
1.1368395
1.1313618
1.1257205
1.1200459
1.1145231
1.1093501
1.1047408
1.100937
1.0982907
1.0967268
1.0957481
1.094569
1.0926405
1.0896953
1.0857198
1.0809135
1.0753724
1.0690852
1.061992
1.053994
1.0450356
1.0351432
1.0244097
1.0125604
0.9849746
1.1585883
1.158501
1.1583429
1.1581026
1.1577721
1.1573461
1.1568223
1.1562017
1.155489
1.1546939
1.1538322
1.1528972
1.1517804
1.1503414
1.1483558
1.1448582
1.1381261
1.1278614
1.1146504
1.0996891
1.084675
1.0694574
1.0537066
1.0379284
1.0223242
1.0071008
0.99193836
0.97563569
0.95751078
0.93636647
1.1586181
1.1586153
1.1586086
1.158596
1.158575
1.1585426
1.158496
1.1584316
1.158346
1.1582349
1.1580929
1.1579048
1.1575962
1.1566823
1.1526123
1.1395747
1.1139042
1.080342
1.0467984
1.0171924
0.99245534
0.97290267
0.9580946
0.94632757
0.93655015
0.92801212
0.92025773
0.91338518
0.9064261
0.89836333
1.0963457
1.0444935
1.0020212
0.96630024
0.9355194
0.90856449
0.88473821
0.86358874
0.84479949
0.82821217
0.81378809
0.80159479
0.79192569
0.79116617
0.79349443
0.79944554
0.80932518
0.82243655
0.83672988
0.85002635
0.86112225
0.86979821
0.87625692
0.88068741
0.88313425
0.88354183
0.88168914
0.87655873
0.86462306
0.83985498
1.1572008
1.1545567
1.1510061
1.1467531
1.1419553
1.136739
1.131214
1.1254854
1.1196597
1.1138586
1.108236
1.1029838
1.0983456
1.0948573
1.0928321
1.0924793
1.093666
1.0953895
1.0958338
1.0939814
1.0898569
1.0838099
1.0760131
1.0664179
1.0549871
1.0419265
1.0276241
1.0121235
0.99410434
0.96847928
1.1585883
1.1585006
1.1583416
1.1581002
1.1577689
1.1573428
1.1568199
1.1562011
1.1554905
1.1546968
1.1538354
1.152931
1.1520225
1.1511716
1.1504316
1.1496917
1.1481551
1.1434919
1.1334494
1.1195162
1.1041273
1.0883852
1.0719816
1.0542002
1.0349852
1.0152716
0.99651196
0.97892719
0.96093162
0.94209829
1.1586181
1.1586152
1.1586085
1.1585959
1.1585749
1.1585428
1.1584967
1.1584338
1.158351
1.1582455
1.1581144
1.1579549
1.1577613
1.1575022
1.1569652
1.1551052
1.148687
1.1318713
1.1022514
1.0674313
1.0341694
1.0062962
0.98485486
0.9685051
0.95563156
0.94498316
0.93575335
0.9275818
0.91977009
0.90989539
1.0963382
1.0444485
1.0019028
0.96607099
0.93512481
0.90791492
0.8836896
0.86191858
0.8422078
0.82424813
0.80779704
0.79266405
0.7788948
0.77337699
0.76869386
0.76532746
0.76426482
0.76601709
0.7695645
0.77372252
0.77793016
0.78212464
0.78633624
0.79034512
0.79366227
0.79576182
0.79578967
0.79119023
0.77796974
0.7636576
1.1572005
1.1545529
1.1509916
1.1467177
1.1418843
1.1366085
1.1309848
1.1250923
1.1189993
1.1127691
1.106469
1.1001686
1.0936419
1.0880437
1.0833614
1.0801436
1.0791411
1.0798671
1.0800094
1.078548
1.0750735
1.0695823
1.0621225
1.0525263
1.0406102
1.0264573
1.0100655
0.990473
0.96061038
0.89349874
1.1585883
1.1585004
1.1583408
1.158098
1.1577639
1.157333
1.1568017
1.1561686
1.155434
1.1545999
1.153671
1.1526565
1.1515666
1.1504542
1.1494024
1.1485493
1.1478253
1.1437497
1.1328299
1.119252
1.1034007
1.0854788
1.065281
1.0424854
1.0182576
0.99518404
0.97490105
0.95602073
0.93480158
0.90225298
1.1586181
1.1586152
1.1586085
1.1585958
1.1585745
1.1585421
1.1584953
1.1584313
1.1583465
1.1582377
1.1581012
1.1579334
1.15773
1.1574861
1.1571877
1.1567272
1.1547889
1.1374376
1.1003455
1.0765092
1.0480782
1.0196607
0.99759074
0.98075099
0.96728246
0.95589043
0.94562397
0.93505985
0.91561893
0.88267367
1.0963427
1.0444448
1.0018802
0.96602157
0.93504068
0.90778462
0.88349683
0.86164185
0.84181854
0.82371166
0.80707498
0.79172268
0.77793572
0.77429054
0.7707974
0.76829324
0.76736528
0.76560333
0.7609998
0.75421615
0.74735894
0.74101814
0.73535122
0.73050606
0.72657382
0.72349691
0.72089879
0.71777695
0.71213978
0.70174145
1.1572006
1.1545518
1.1509865
1.1467048
1.1418588
1.1365638
1.1309116
1.1249767
1.1188215
1.1125004
1.1060649
1.09945
1.091421
1.0845442
1.0796122
1.0762598
1.0752226
1.0738889
1.0707561
1.0666301
1.0602666
1.0528316
1.0446754
1.033932
1.0179505
0.99503315
0.9640029
0.92303509
0.86993148
0.80273734
1.1585883
1.1585003
1.1583405
1.158097
1.1577617
1.1573286
1.1567938
1.1561552
1.155412
1.1545645
1.1536146
1.152563
1.1513871
1.1501436
1.1489536
1.1480012
1.1468135
1.1359425
1.1240222
1.1141888
1.1030722
1.087656
1.0656049
1.0372246
1.0066453
0.97980711
0.9623582
0.94700159
0.91188935
0.85095855
1.1586181
1.1586152
1.1586085
1.1585957
1.1585744
1.1585417
1.1584946
1.1584299
1.158344
1.1582334
1.1580941
1.1579213
1.1577088
1.1574493
1.1571256
1.1565269
1.1519146
1.0924798
1.0266092
1.012862
1.0055463
0.99365076
0.97975845
0.96616869
0.95330806
0.94149394
0.93112409
0.92166539
0.90625581
0.86203482
1.0963445
1.0444479
1.0018839
0.96602455
0.93504097
0.90778228
0.88349052
0.86162857
0.84179286
0.82366779
0.80700963
0.79164105
0.77784149
0.77419152
0.77057064
0.76761628
0.76611146
0.76438207
0.76026846
0.75388437
0.74694051
0.7404823
0.73467039
0.72967605
0.72562491
0.72248093
0.71983218
0.71653186
0.71049992
0.69943936
1.1572006
1.1545519
1.1509867
1.1467051
1.1418591
1.1365642
1.1309118
1.1249767
1.1188209
1.1124983
1.1060597
1.0994116
1.0912688
1.084087
1.0787374
1.0752156
1.0739769
1.0732275
1.0705728
1.0667425
1.0615931
1.0548505
1.046505
1.0347487
1.0169271
0.99093645
0.95597334
0.91184448
0.85780859
0.7921727
1.1585883
1.1585004
1.1583405
1.1580971
1.1577617
1.1573286
1.1567939
1.1561553
1.1554121
1.1545646
1.1536146
1.1525618
1.1513808
1.150122
1.1488994
1.1478973
1.1468737
1.138704
1.1257314
1.1149034
1.1034784
1.0887459
1.06854
1.0430441
1.0147243
0.98802231
0.96825249
0.94580528
0.90344389
0.83677408
1.1586181
1.1586152
1.1586085
1.1585957
1.1585744
1.1585417
1.1584946
1.1584299
1.1583441
1.1582335
1.1580942
1.1579215
1.1577091
1.1574499
1.1571288
1.1565839
1.1531959
1.1130077
1.0356532
1.0205212
1.0132033
1.0030919
0.98948756
0.97495265
0.96038563
0.94607007
0.93232072
0.91739024
0.89533362
0.8440021
1.0963432
1.0444566
1.001912
0.96607777
0.93512494
0.90790681
0.88366942
0.86187995
0.84213944
0.82414335
0.80765105
0.79247543
0.77867725
0.77309426
0.76830695
0.76476688
0.76348279
0.76516084
0.76869883
0.77267816
0.77651839
0.78022586
0.78392071
0.78755401
0.79083656
0.79333208
0.79391738
0.78881884
0.77491362
0.76003187
1.1572006
1.1545532
1.1509922
1.1467185
1.141885
1.1366091
1.1309849
1.1250915
1.1189966
1.1127633
1.1064587
1.1001489
1.0935294
1.087902
1.083154
1.0798271
1.0786948
1.07954
1.0798364
1.0784025
1.0750396
1.0697953
1.0627237
1.0536242
1.0421626
1.0280767
1.0108522
0.9894218
0.95581469
0.88607196
1.1585883
1.1585004
1.1583409
1.1580981
1.157764
1.1573331
1.1568018
1.1561688
1.1554342
1.1546001
1.1536712
1.1526563
1.1515633
1.1504455
1.1493824
1.1485083
1.1478109
1.1445552
1.1337066
1.1198309
1.1045226
1.0876228
1.0690003
1.0481267
1.025335
1.0018517
0.97746838
0.95041605
0.92710437
0.88984651
1.1586181
1.1586152
1.1586085
1.1585958
1.1585745
1.1585421
1.1584954
1.1584313
1.1583466
1.1582378
1.1581014
1.1579338
1.1577307
1.1574872
1.15719
1.1567453
1.1551118
1.1418393
1.1028555
1.0758806
1.0510414
1.0236314
1.0010917
0.98328719
0.96872778
0.95602895
0.9434917
0.92018844
0.8957311
0.86736085
1.096348
1.044497
1.0020239
0.96629856
0.93550857
0.90854171
0.88469867
0.86352501
0.84470353
0.82807678
0.81360456
0.80135795
0.79163078
0.7908204
0.79307871
0.79893842
0.80873067
0.82184421
0.83623949
0.84964097
0.86076752
0.86939884
0.87583244
0.88041108
0.88331261
0.88451911
0.88376581
0.87988021
0.86897876
0.84382402
1.1572009
1.1545569
1.1510063
1.1467531
1.141955
1.1367379
1.1312119
1.1254814
1.1196529
1.1138475
1.1082178
1.1029548
1.0982979
1.0947825
1.0927169
1.092312
1.093459
1.0952421
1.0958229
1.0940814
1.090051
1.0841563
1.0766556
1.0675207
1.0565974
1.0438118
1.0292206
1.0126139
0.99291787
0.9660087
1.1585883
1.1585006
1.1583416
1.1581002
1.1577689
1.1573428
1.1568199
1.1562011
1.1554905
1.1546969
1.1538352
1.1529302
1.1520203
1.1511662
1.1504219
1.1496876
1.1482187
1.1438468
1.134079
1.1202435
1.1050021
1.0896625
1.0740561
1.0573279
1.0389442
1.0191296
0.99898338
0.9785989
0.95854299
0.93703818
1.1586181
1.1586152
1.1586085
1.1585959
1.1585749
1.1585428
1.1584968
1.1584339
1.1583511
1.1582457
1.1581147
1.1579555
1.1577624
1.1575054
1.1569812
1.1551897
1.1490421
1.1331012
1.1042121
1.06967
1.0364705
1.0083045
0.98644828
0.96968747
0.95644513
0.94544202
0.9358596
0.9273052
0.91935223
0.90595228
1.0963527
1.0446088
1.002255
0.96666094
0.9360292
0.90926299
0.88568616
0.86491952
0.84680617
0.83137282
0.81876499
0.80921178
0.80304141
0.80537424
0.81063793
0.81801905
0.82631281
0.83438987
0.84143835
0.84701516
0.85111495
0.85398407
0.85589088
0.8570126
0.85737567
0.85680452
0.85480266
0.85013849
0.84030145
0.8257532
1.1572013
1.1545667
1.1510325
1.1467991
1.142024
1.136837
1.1313578
1.1257144
1.120037
1.1145102
1.109331
1.1047117
1.1008926
1.0982261
1.0966432
1.0956665
1.0945275
1.0926777
1.0898267
1.085912
1.081135
1.0756267
1.0694046
1.0624363
1.0546119
1.0458015
1.035908
1.0249104
1.0125238
0.98639786
1.1585883
1.158501
1.1583429
1.1581026
1.1577721
1.1573461
1.1568222
1.1562018
1.1554892
1.1546942
1.1538325
1.1528962
1.1517762
1.1503323
1.1483494
1.1449109
1.1383144
1.12822
1.1151411
1.1001316
1.0850321
1.0698485
1.0540654
1.0382418
1.0225945
1.0073924
0.99221253
0.97583125
0.95761405
0.93667001
1.1586181
1.1586153
1.1586086
1.158596
1.158575
1.1585426
1.158496
1.1584317
1.1583461
1.1582353
1.1580935
1.1579059
1.1575993
1.1566973
1.1527096
1.1399444
1.1147141
1.081517
1.0481425
1.0185908
0.99377842
0.9739691
0.95902063
0.9471672
0.93728723
0.92857239
0.92064395
0.91368981
0.90677371
0.89887973
1.0963495
1.0440661
1.0007994
0.96399659
0.93186283
0.90325234
0.8774405
0.85406066
0.83324912
0.81489018
0.7988032
0.78492685
0.77341492
0.76838079
0.76562081
0.76529204
0.76724802
0.77099621
0.7758065
0.78090706
0.78568586
0.78976883
0.79297951
0.79525672
0.79657243
0.79684996
0.79587264
0.79312071
0.78754057
0.778169
1.1571996
1.1545146
1.1508415
1.146354
1.141184
1.135433
1.1291917
1.1225234
1.1139928
1.102775
1.0877793
1.0675453
1.0417418
1.0125
0.98248097
0.95507109
0.93263322
0.91594088
0.90446562
0.89707886
0.89265015
0.89018672
0.88883724
0.88787346
0.8866199
0.88435072
0.88009501
0.87223235
0.85789691
0.8342655
1.1585882
1.1584985
1.1583317
1.1580715
1.1577038
1.1572165
1.1565992
1.1558427
1.1549018
1.15371
1.1521439
1.149022
1.1401898
1.1215059
1.0925353
1.0571028
1.0209741
0.98865379
0.96217673
0.94169013
0.92647172
0.91552295
0.90779936
0.90232751
0.89823271
0.8947103
0.89091808
0.88570257
0.87697832
0.86157828
1.1586181
1.1586151
1.158608
1.1585941
1.1585699
1.1585316
1.1584743
1.1583922
1.1582776
1.1581186
1.1578938
1.157514
1.1565605
1.1524454
1.1358574
1.1031377
1.0652542
1.0303195
1.0006145
0.97624977
0.9567006
0.94132314
0.92943558
0.92032451
0.91328345
0.90763905
0.90272497
0.89774293
0.8913315
0.881158
)
;

boundaryField
{
    maxY
    {
        type            calculated;
        value           nonuniform List<scalar> 
300
(
1.1586176
1.1586176
1.1586176
1.1586176
1.1586176
1.1586176
1.1586176
1.1586176
1.1586176
1.1586176
1.1586146
1.1586147
1.1586147
1.1586147
1.1586147
1.1586147
1.1586147
1.1586147
1.1586147
1.1586146
1.1586075
1.1586081
1.158608
1.158608
1.158608
1.158608
1.158608
1.158608
1.1586081
1.1586075
1.1585935
1.1585955
1.1585954
1.1585952
1.1585952
1.1585952
1.1585952
1.1585954
1.1585955
1.1585935
1.1585694
1.1585744
1.1585743
1.158574
1.1585738
1.1585738
1.158574
1.1585743
1.1585744
1.1585694
1.1585311
1.1585421
1.1585422
1.1585415
1.1585412
1.1585412
1.1585415
1.1585422
1.1585421
1.1585311
1.1584737
1.1584954
1.1584962
1.1584948
1.1584941
1.1584941
1.1584948
1.1584962
1.1584955
1.1584737
1.1583916
1.1584311
1.1584333
1.1584307
1.1584293
1.1584294
1.1584308
1.1584333
1.1584311
1.1583917
1.1582768
1.1583454
1.1583505
1.158346
1.1583435
1.1583435
1.1583461
1.1583506
1.1583456
1.158277
1.1581177
1.1582344
1.1582449
1.1582371
1.1582329
1.158233
1.1582373
1.1582451
1.1582347
1.1581181
1.1578925
1.1580924
1.1581139
1.1581006
1.1580935
1.1580937
1.1581009
1.1581142
1.158093
1.1578933
1.1575125
1.1579042
1.1579544
1.1579328
1.1579208
1.157921
1.1579333
1.157955
1.1579054
1.1575134
1.1565549
1.1575957
1.1577608
1.1577295
1.1577083
1.1577086
1.1577301
1.1577619
1.1575988
1.1565599
1.1524212
1.1566818
1.1575016
1.1574856
1.1574488
1.1574494
1.1574866
1.1575049
1.1566967
1.1524449
1.1356282
1.1526117
1.1569647
1.1571872
1.1571251
1.1571282
1.1571895
1.1569806
1.1527091
1.1358569
1.1025985
1.1395742
1.1551047
1.1567267
1.1565264
1.1565834
1.1567448
1.1551892
1.1399438
1.1031372
1.0645578
1.1139037
1.1486865
1.1547884
1.151914
1.1531954
1.1551113
1.1490416
1.1147136
1.0652537
1.0295665
1.0803415
1.1318708
1.1374371
1.0924794
1.1130072
1.1418388
1.1331007
1.0815165
1.0303191
0.99983652
1.046798
1.1022509
1.100345
1.0266087
1.0356528
1.102855
1.1042116
1.048142
1.0006141
0.97546611
1.017192
1.0674308
1.0765087
1.0128616
1.0205208
1.0758801
1.0696695
1.0185904
0.97624939
0.95594993
0.99245495
1.0341689
1.0480777
1.0055459
1.0132029
1.051041
1.0364701
0.99377803
0.95670024
0.94065078
0.9729023
1.0062958
1.0196603
0.99365038
1.0030915
1.023631
1.0083041
0.97396873
0.94132279
0.92887278
0.95809424
0.98485447
0.99759035
0.97975808
0.98948717
1.0010913
0.9864479
0.95902027
0.92943524
0.91987982
0.94632722
0.96850473
0.98075062
0.96616832
0.97495228
0.98328681
0.9696871
0.94716685
0.92032418
0.91294375
0.9365498
0.9556312
0.96728209
0.9533077
0.96038527
0.96872741
0.95644477
0.93728688
0.91328313
0.90737491
0.92801179
0.94498281
0.95589007
0.9414936
0.94606971
0.95602859
0.94544167
0.92857205
0.90763873
0.90249506
0.9202574
0.93575301
0.94562362
0.93112375
0.93232037
0.94349135
0.93585925
0.92064362
0.90272466
0.89748911
0.91338486
0.92758147
0.93505951
0.92166506
0.91738991
0.9201881
0.92730487
0.91368948
0.89774262
0.89094609
0.90642578
0.91976976
0.9156186
0.90625549
0.8953333
0.89573078
0.9193519
0.90677339
0.89133119
0.88046292
0.89836301
0.90989507
0.88267337
0.86203453
0.84400182
0.86736056
0.90595196
0.89887941
0.8811577
)
;
    }
    minX
    {
        type            calculated;
        value           nonuniform List<scalar> 
40
(
1.158622
1.158621
1.1586199
1.1586189
1.158622
1.158621
1.1586199
1.1586189
1.158622
1.158621
1.1586199
1.1586189
1.158622
1.158621
1.1586199
1.1586189
1.158622
1.158621
1.1586199
1.1586189
1.158622
1.158621
1.1586199
1.1586189
1.158622
1.158621
1.1586199
1.1586189
1.158622
1.158621
1.1586199
1.1586189
1.158622
1.158621
1.1586199
1.1586189
1.158622
1.158621
1.1586199
1.1586189
)
;
    }
    maxX
    {
        type            calculated;
        value           nonuniform List<scalar> 
40
(
0.77715587
0.83275862
0.86042628
0.8804721
0.82340864
0.98485618
0.93630816
0.89837982
0.83990972
0.96859079
0.94230328
0.9101175
0.76376266
0.89354122
0.90271566
0.88328412
0.70186326
0.80237702
0.85099907
0.86325574
0.69929278
0.79116632
0.8364443
0.84486118
0.75960963
0.88551772
0.89053143
0.86859411
0.84356269
0.96610455
0.93757324
0.90648244
0.82557388
0.98626443
0.93659296
0.89883368
0.77805418
0.83409868
0.8614714
0.8811036
)
;
    }
    minZ
    {
        type            calculated;
        value           nonuniform List<scalar> 
120
(
1.0963486
1.1571996
1.1585882
1.1586181
1.0440655
1.1545146
1.1584985
1.1586151
1.000801
1.1508416
1.1583317
1.158608
0.96400323
1.1463543
1.1580715
1.1585941
0.93187873
1.1411849
1.1577039
1.1585699
0.90328024
1.1354348
1.1572164
1.1585316
0.87748344
1.1291947
1.1565991
1.1584742
0.85412171
1.1225281
1.1558425
1.1583921
0.83332879
1.1140061
1.1549016
1.1582774
0.81498961
1.1028046
1.1537103
1.1581182
0.7989269
1.0878378
1.1521463
1.157893
0.78508009
1.0676258
1.1490547
1.157513
0.77360266
1.0418383
1.14026
1.1565554
0.76860029
1.0125985
1.1215594
1.1524217
0.76587502
0.9825753
1.0925229
1.1356287
0.76557828
0.95515798
1.0570045
1.102599
0.76754951
0.93269932
1.020792
1.0645582
0.77128143
0.91596224
0.9883962
1.029567
0.77603928
0.90442847
0.96185432
0.99983691
0.78106709
0.89700466
0.94132981
0.97546648
0.78578037
0.89257743
0.92611619
0.95595029
0.78982744
0.89014353
0.91521113
0.94065113
0.79303901
0.88882711
0.90755374
0.92887311
0.79533612
0.88786131
0.90214516
0.91988015
0.79665042
0.88653108
0.89808306
0.91294408
0.79686124
0.88409082
0.89454115
0.90737523
0.79572267
0.87958098
0.89066572
0.90249537
0.79271395
0.87139916
0.88528726
0.89748942
0.78681893
0.85666007
0.87626473
0.8909464
0.77720655
0.83285657
0.86046427
0.88046322
)
;
    }
    maxZ
    {
        type            calculated;
        value           nonuniform List<scalar> 
120
(
1.0963495
1.1571996
1.1585882
1.1586181
1.0440661
1.1545146
1.1584985
1.1586151
1.0007994
1.1508415
1.1583317
1.158608
0.96399659
1.146354
1.1580715
1.1585941
0.93186283
1.141184
1.1577038
1.1585699
0.90325234
1.135433
1.1572165
1.1585316
0.8774405
1.1291917
1.1565992
1.1584743
0.85406066
1.1225234
1.1558427
1.1583922
0.83324912
1.1139928
1.1549018
1.1582776
0.81489018
1.102775
1.15371
1.1581186
0.7988032
1.0877793
1.1521439
1.1578938
0.78492685
1.0675453
1.149022
1.157514
0.77341492
1.0417418
1.1401898
1.1565605
0.76838079
1.0125
1.1215059
1.1524454
0.76562081
0.98248097
1.0925353
1.1358574
0.76529204
0.95507109
1.0571028
1.1031377
0.76724802
0.93263322
1.0209741
1.0652542
0.77099621
0.91594088
0.98865379
1.0303195
0.7758065
0.90446562
0.96217673
1.0006145
0.78090706
0.89707886
0.94169013
0.97624977
0.78568586
0.89265015
0.92647172
0.9567006
0.78976883
0.89018672
0.91552295
0.94132314
0.79297951
0.88883724
0.90779936
0.92943558
0.79525672
0.88787346
0.90232751
0.92032451
0.79657243
0.8866199
0.89823271
0.91328345
0.79684996
0.88435072
0.8947103
0.90763905
0.79587264
0.88009501
0.89091808
0.90272497
0.79312071
0.87223235
0.88570257
0.89774293
0.78754057
0.85789691
0.87697832
0.8913315
0.778169
0.8342655
0.86157828
0.881158
)
;
    }
    topAir_to_rightSolid
    {
        type            calculated;
        value           nonuniform List<scalar> 
130
(
0.52555208
0.52124657
0.51688298
0.51267825
0.50878437
0.50531049
0.50228756
0.49971877
0.49758092
0.49587972
0.49462266
0.49379265
0.49337817
0.52898788
0.52382198
0.5187216
0.51393734
0.50962288
0.50585556
0.50263731
0.49993623
0.49771945
0.4959763
0.49469228
0.49384691
0.49342471
0.53609964
0.5289193
0.52222184
0.51626989
0.51115244
0.50684316
0.50326504
0.50031725
0.49796071
0.49613715
0.49480754
0.49393572
0.49350174
0.54723779
0.5361245
0.5267471
0.51908049
0.51288852
0.50790232
0.50389651
0.50069767
0.4981966
0.49629181
0.49490798
0.49400762
0.49356685
0.56097182
0.54310259
0.53058131
0.52128588
0.51416264
0.50865205
0.5043406
0.50095789
0.49835042
0.49638972
0.49497863
0.49406189
0.49361243
0.5608892
0.54303136
0.53054682
0.52131951
0.51424489
0.50872424
0.50441062
0.50102492
0.49840802
0.49643582
0.49501265
0.49407952
0.49361373
0.54701848
0.53594254
0.52668672
0.51913392
0.5129924
0.50801309
0.50401442
0.50080922
0.49829112
0.49636238
0.49495964
0.49403527
0.49357317
0.53587305
0.52874953
0.52214006
0.51628389
0.51121888
0.50691105
0.50332411
0.50038916
0.49802714
0.49618395
0.49483691
0.49395019
0.49350439
0.52876657
0.52365484
0.51863001
0.51392882
0.50968014
0.50592643
0.50268774
0.49996721
0.49774059
0.49598835
0.49469462
0.49384173
0.49341654
0.52534451
0.52109031
0.51678645
0.51265046
0.50881812
0.50536169
0.5023136
0.49971952
0.49757732
0.49587958
0.49461987
0.49378886
0.49337609
)
;
    }
    topAir_to_heater
    {
        type            calculated;
        value           nonuniform List<scalar> 
40
(
0.53636981
0.53516805
0.53282281
0.52951955
0.54215912
0.54071247
0.5378775
0.53384046
0.55486438
0.55288052
0.54892004
0.54314554
0.57709028
0.57439031
0.56857839
0.55934574
0.61345012
0.61082191
0.60341384
0.58870073
0.61334097
0.61073727
0.6033365
0.58862303
0.57677533
0.57413071
0.56833021
0.55911417
0.55444829
0.55249541
0.54856499
0.54283526
0.5417313
0.54031497
0.53751471
0.53354523
0.5359442
0.53478132
0.53248526
0.52925161
)
;
    }
    topAir_to_leftSolid
    {
        type            calculated;
        value           nonuniform List<scalar> 
130
(
0.48524499
0.48527711
0.48534782
0.48546199
0.48562118
0.48578695
0.48596442
0.48615546
0.48635173
0.4865449
0.48674034
0.48689899
0.48699209
0.48521644
0.48524104
0.48531178
0.4854277
0.48558677
0.48575855
0.48594682
0.48615525
0.48636987
0.48658563
0.48680407
0.48697707
0.48707399
0.4851559
0.48519102
0.48526706
0.48538938
0.48555395
0.48573044
0.48593023
0.48616877
0.48642896
0.48668411
0.48693068
0.48711038
0.48721188
0.48512228
0.48516159
0.48524134
0.48537035
0.48554249
0.48572592
0.48593649
0.48618939
0.48650936
0.48681108
0.48707683
0.48727398
0.48738016
0.48513845
0.48517444
0.48525172
0.48537552
0.4855466
0.48572876
0.48593682
0.48618764
0.48649246
0.48681331
0.48710233
0.48732102
0.48745091
0.48514703
0.48518141
0.48525586
0.48537029
0.48552473
0.48570169
0.48589366
0.48611336
0.48636488
0.48662657
0.48686886
0.48706296
0.48719132
0.48514602
0.48518036
0.48524942
0.4853541
0.48549028
0.48565011
0.48581793
0.48600351
0.48620747
0.48641944
0.48661236
0.4867638
0.4868525
0.48516706
0.48519932
0.48526516
0.48536247
0.48548852
0.48563278
0.48578073
0.48594203
0.48611747
0.48630138
0.48646389
0.48658869
0.48666103
0.48520664
0.48523708
0.48529954
0.48539572
0.48552035
0.48565656
0.48579629
0.48594562
0.48610423
0.4862699
0.48641674
0.4865276
0.48658975
0.48524945
0.48527681
0.48533714
0.48543146
0.4855581
0.48569441
0.48583324
0.48597682
0.48612629
0.48627898
0.4864109
0.48650875
0.48656195
)
;
    }
}


// ************************************************************************* //
