/*--------------------------------*- C++ -*----------------------------------*\
| =========                 |                                                 |
| \\      /  F ield         | OpenFOAM: The Open Source CFD Toolbox           |
|  \\    /   O peration     | Version:  v2012                                 |
|   \\  /    A nd           | Website:  www.openfoam.com                      |
|    \\/     M anipulation  |                                                 |
\*---------------------------------------------------------------------------*/
FoamFile
{
    version     2.0;
    format      ascii;
    class       volScalarField;
    location    "170/topAir";
    object      T;
}
// * * * * * * * * * * * * * * * * * * * * * * * * * * * * * * * * * * * * * //

dimensions      [0 0 0 1 0 0 0];


internalField   nonuniform List<scalar> 
1200
(
317.04022
332.91646
347.30841
360.56578
372.9955
384.80479
396.11751
406.95202
417.10613
426.49199
435.06676
442.74022
449.30886
452.23314
453.84234
454.01824
452.85222
450.66104
447.89806
445.01489
442.34559
440.07901
438.29682
437.03092
436.3099
436.19447
436.8186
438.47652
441.76168
447.22534
300.36848
301.06703
302.02791
303.21017
304.58368
306.12615
307.81786
309.64596
312.0147
315.18391
319.52031
325.56939
333.62787
343.26169
353.75025
363.90447
372.66699
379.47661
384.3159
387.49658
389.41858
390.48335
391.06168
391.48707
392.07449
393.15669
395.1725
398.88289
405.74579
417.34223
300.0082
300.03145
300.07464
300.14206
300.23738
300.36384
300.52416
300.72087
300.96587
301.27665
301.68563
302.49733
304.83045
309.91312
318.14983
328.84058
340.50616
351.66663
361.37069
369.24992
375.31572
379.78773
382.99215
385.28828
387.03097
388.56341
390.25411
392.62505
396.66775
403.95165
300.0002
300.00096
300.00281
300.00642
300.01267
300.0226
300.03746
300.05872
300.08845
300.12969
300.18805
300.28661
300.53525
301.61326
306.07333
315.24214
326.50697
337.60377
347.64239
356.32767
363.60228
369.51607
374.2015
377.85978
380.73057
383.06723
385.13851
387.28671
390.1309
394.77597
317.03845
332.74241
346.80271
359.57038
371.33321
382.25809
392.42505
401.83552
410.41694
418.02047
424.43811
429.42517
432.69688
431.4204
428.59884
424.72733
420.49185
416.48755
413.09082
410.45185
408.51259
407.12661
406.16925
405.59044
405.42621
405.80075
406.97833
409.56311
414.76886
422.08913
300.36803
301.05341
301.97774
303.09238
304.35949
305.7479
307.22823
308.76783
310.33218
311.86996
313.32423
314.63151
315.7186
316.47929
316.9306
317.21364
317.55538
318.11584
318.97562
320.14361
321.56713
323.22405
325.12491
327.29645
329.78008
332.60704
335.78564
339.3039
343.27454
352.88846
300.00818
300.03079
300.07174
300.13401
300.21968
300.33019
300.46619
300.62744
300.81287
301.02001
301.24481
301.48912
301.78147
302.15898
302.68143
303.60612
305.40197
308.18145
311.83406
316.07656
320.45169
325.01148
329.86974
334.88429
339.9958
345.13521
350.41081
356.2661
363.00993
371.20714
300.0002
300.00094
300.00266
300.00592
300.01137
300.01974
300.03183
300.0485
300.07068
300.09944
300.13625
300.18502
300.26502
300.50227
301.56339
305.01349
312.04268
321.73669
332.04642
341.71082
350.22802
357.26664
362.78847
367.29953
371.13408
374.54864
377.70472
380.54667
383.46832
386.90993
317.04106
332.78005
346.88546
359.70867
371.54395
382.56675
392.86939
402.49084
411.44267
419.68298
427.12169
433.61876
438.91307
439.33442
438.04533
434.7845
429.47697
422.6302
415.41067
408.91263
403.64363
399.61741
396.6719
394.67635
393.58284
393.40127
394.22792
396.53528
402.00923
413.86484
300.36816
301.05605
301.98474
303.10474
304.37819
305.77494
307.26836
308.83234
310.43921
312.05602
313.63924
315.13271
316.4635
317.47176
318.06007
318.1628
317.81758
317.31751
317.18885
317.72591
318.92833
320.70776
323.03161
325.9381
329.46965
333.59955
338.24255
343.4227
349.6476
358.89892
300.00818
300.0309
300.07208
300.13462
300.22052
300.33105
300.4668
300.62762
300.8125
301.01925
301.24399
301.4803
301.71804
301.94105
302.13527
302.32972
302.73432
303.96888
306.66207
310.47871
314.80603
319.3593
324.24618
329.71532
335.83664
342.3576
348.80257
355.06822
361.71765
368.94868
300.0002
300.00094
300.00267
300.00595
300.01139
300.0197
300.03162
300.04792
300.06937
300.09671
300.13068
300.17202
300.22221
300.28942
300.42879
300.91255
302.59387
307.08938
315.34154
325.62814
336.1013
345.41088
352.93086
358.88884
363.72352
367.82209
371.45011
374.72241
377.90497
382.00621
317.04322
332.79436
346.92643
359.79403
371.70073
382.84046
393.33558
403.27075
412.70878
421.70135
430.28945
438.50423
446.25607
449.43997
452.1781
454.16706
454.79854
453.75818
451.66651
449.23923
446.80939
444.41318
442.03291
439.79077
437.95263
436.79712
436.78182
439.32097
446.7866
455.16008
300.36824
301.05706
301.98855
303.11408
304.39712
305.81004
307.33065
308.94024
310.62242
312.36154
314.1401
315.9391
317.82459
319.45986
320.84055
321.79635
322.09531
321.87874
321.83634
322.2724
323.31396
324.97382
327.25626
330.23995
334.02153
338.62706
344.12245
350.92952
361.8389
389.01699
300.00818
300.03095
300.07228
300.13519
300.2218
300.3336
300.47153
300.63605
300.8272
301.04453
301.28691
301.55209
301.8375
302.12934
302.40582
302.63044
302.82133
303.90037
306.82979
310.55202
315.01335
320.21441
326.2857
333.42044
341.35366
349.26801
356.53459
363.57574
371.82858
385.24222
300.0002
300.00094
300.00268
300.00598
300.01148
300.01989
300.03198
300.04858
300.07054
300.09874
300.13411
300.1776
300.23032
300.29358
300.37103
300.49061
300.99498
305.58656
315.88775
322.88221
331.64097
340.88366
348.42512
354.40768
359.34249
363.62503
367.57285
371.72562
379.61831
393.78734
317.04192
332.79554
346.93427
359.81244
371.73417
382.89541
393.4214
403.40027
412.89962
421.97599
430.67441
439.02562
446.80624
448.9097
450.94409
452.41388
452.96097
454.00341
456.74981
460.85794
465.08643
469.06611
472.68091
475.81601
478.39114
480.42564
482.15709
484.25413
488.08741
495.31985
300.36823
301.05735
301.98989
303.1175
304.40392
305.82205
307.35054
308.97198
310.67179
312.437
314.25486
316.1456
318.4713
320.49066
321.95474
322.95758
323.26911
323.67059
324.61759
325.87328
327.82911
330.1442
332.72176
336.179
341.45692
349.32125
360.56553
376.5688
399.55586
433.0012
300.00818
300.03096
300.07237
300.13545
300.22238
300.33474
300.47357
300.63953
300.83293
301.05376
301.30165
301.57654
301.88454
302.21094
302.52394
302.77491
303.08849
305.98904
309.23407
311.96325
315.10716
319.57344
326.18653
335.11157
345.29139
354.74937
361.18147
367.0384
381.1712
408.46404
300.0002
300.00094
300.00269
300.006
300.01152
300.01998
300.03218
300.04894
300.07118
300.09983
300.13595
300.18072
300.23582
300.30314
300.38714
300.54265
301.74604
318.16209
338.57643
343.17178
345.66848
349.80668
354.76671
359.75673
364.61004
369.18527
373.29686
377.12787
383.5404
403.21542
317.0414
332.79459
346.93301
359.81133
371.73406
382.8964
393.42421
403.40649
412.91221
421.99847
430.70929
439.07089
446.86037
448.96711
451.07678
452.81286
453.70229
454.72877
457.18918
461.06077
465.34697
469.40554
473.11896
476.35726
479.01674
481.10123
482.87152
485.09561
489.21393
496.95012
300.36821
301.05732
301.98983
303.11741
304.40383
305.82196
307.35047
308.97197
310.67197
312.43758
314.25636
316.15664
318.51572
320.62582
322.21584
323.27122
323.64409
323.87007
324.67316
325.83894
327.41947
329.51234
332.14007
335.91367
341.80055
350.7654
363.59405
381.19024
405.20254
438.77583
300.00818
300.03096
300.07236
300.13544
300.22238
300.33473
300.47356
300.63951
300.8329
301.05372
301.30165
301.57686
301.8862
302.2166
302.53821
302.80232
303.07258
305.24698
308.76456
311.76329
314.99116
319.25352
325.29054
333.24185
342.54226
351.7997
358.98276
367.50265
384.73442
415.38808
300.0002
300.00094
300.00269
300.006
300.01152
300.01998
300.03218
300.04894
300.07117
300.09982
300.13591
300.18066
300.23574
300.30299
300.38633
300.52784
301.41076
312.29404
335.61973
340.59621
343.0562
346.51427
351.27847
356.51545
361.92304
367.39953
372.81774
378.88533
388.21922
411.83043
317.04178
332.79178
346.92326
359.79151
371.70067
382.84388
393.34456
403.28883
412.74228
421.75496
430.36722
438.6086
446.38075
449.60434
452.40581
454.49997
455.26438
454.26596
452.17516
449.84642
447.62173
445.49472
443.39496
441.3494
439.51746
438.1349
437.81189
440.64168
448.54865
457.33142
300.36821
301.05697
301.9884
303.11388
304.39692
305.80988
307.33061
308.94047
310.62319
312.36317
314.14303
315.94475
317.85728
319.50146
320.90198
321.89066
322.22857
321.97629
321.8879
322.3159
323.32412
324.90911
327.07114
329.89584
333.52398
338.09367
343.85465
351.30236
363.65439
392.27762
300.00818
300.03094
300.07227
300.13518
300.22179
300.33358
300.47149
300.63601
300.82714
301.04448
301.28687
301.55215
301.83836
302.13164
302.41109
302.64123
302.82513
303.68651
306.59252
310.39148
314.69339
319.58318
325.15047
331.62589
338.99745
346.94353
355.59815
365.71978
374.91566
390.61337
300.0002
300.00094
300.00268
300.00598
300.01148
300.01988
300.03198
300.04857
300.07052
300.0987
300.13404
300.17749
300.23015
300.29331
300.37042
300.48591
300.91084
304.40855
315.16883
323.07086
330.70597
339.56136
347.20662
353.49355
358.80636
363.57235
368.40356
377.73318
388.04694
400.73947
317.04039
332.77894
346.88452
359.7093
371.54825
382.57635
392.88695
402.52054
411.4894
419.75159
427.21804
433.74691
439.07658
439.52651
438.27494
435.06047
429.79268
422.93481
415.65427
409.09811
403.80997
399.80098
396.86415
394.80022
393.50337
392.96662
393.30156
395.03839
399.99419
411.91817
300.36815
301.05602
301.9847
303.10472
304.37827
305.77521
307.26895
308.83344
310.4411
312.05913
313.64438
315.14101
316.47722
317.49347
318.09361
318.21154
317.87773
317.36021
317.19201
317.69688
318.87154
320.60527
322.83882
325.60138
328.96751
332.99701
337.71789
343.2564
350.0654
359.81681
300.00818
300.0309
300.07208
300.13462
300.22052
300.33105
300.4668
300.62761
300.81248
301.01924
301.24403
301.4805
301.71863
301.94247
302.13784
302.33079
302.71756
303.87458
306.49183
310.27716
314.55682
318.98497
323.61992
328.73997
334.5569
341.06158
347.93966
355.18734
362.61904
370.94105
300.0002
300.00094
300.00267
300.00595
300.01139
300.0197
300.03162
300.04791
300.06934
300.09666
300.13059
300.17186
300.22192
300.28859
300.42465
300.89055
302.50036
306.75605
314.7816
324.94663
335.35508
344.72292
352.36076
358.45124
363.41413
367.64357
371.40794
374.83419
378.07675
383.66888
317.03903
332.7433
346.80455
359.57445
371.34159
382.27286
392.4489
401.87156
410.46766
418.08746
424.52541
429.53717
432.83762
431.58387
428.78147
424.9125
420.64762
416.57566
413.08613
410.36633
408.38961
407.01754
406.11075
405.5792
405.40744
405.67768
406.62773
408.85864
413.64495
420.93261
300.36805
301.05345
301.97782
303.09257
304.35988
305.74858
307.22933
308.76951
310.33465
311.87356
313.32964
314.63982
315.73133
316.49793
316.95475
317.23728
317.56742
318.10502
318.93718
320.08692
321.50122
323.14765
325.0278
327.15959
329.58685
332.36345
335.53771
339.13814
343.28693
352.37928
300.00818
300.03079
300.07175
300.13401
300.21969
300.3302
300.46619
300.62743
300.81283
301.01993
301.24473
301.48938
301.78255
302.16135
302.68312
303.59215
305.35145
308.08349
311.69682
315.94941
320.34622
324.89268
329.75747
334.7832
339.90593
345.03528
350.31399
356.19471
362.97079
371.08684
300.0002
300.00094
300.00266
300.00592
300.01137
300.01974
300.03182
300.04848
300.07064
300.09936
300.13609
300.18472
300.26422
300.49838
301.53791
304.91458
311.81596
321.38715
331.62062
341.2417
349.76173
356.87546
362.43816
366.97393
370.84222
374.32266
377.54627
380.4198
383.32132
386.68766
317.03996
332.91627
347.30895
360.56827
373.00186
384.81668
396.1369
406.98111
417.14602
426.54404
435.13413
442.82665
449.41792
452.36232
453.99303
454.18806
453.03017
450.82776
448.03246
445.10609
442.3988
440.11167
438.32971
437.07455
436.35262
436.20064
436.73629
438.25165
441.35689
446.6722
300.36848
301.06703
302.02794
303.21027
304.58393
306.12663
307.81866
309.64725
312.01842
315.19239
319.53751
325.59395
333.65876
343.29508
353.78422
363.93758
372.69341
379.48546
384.30011
387.46453
389.38685
390.46441
391.05723
391.48171
392.03521
393.04114
394.9417
398.50186
405.16082
416.63741
300.0082
300.03145
300.07464
300.14206
300.23739
300.36384
300.52414
300.72083
300.96583
301.27672
301.68624
302.50594
304.84922
309.92789
318.1462
328.81
340.44542
351.57501
361.2496
369.10864
375.17169
379.65838
382.88852
385.21042
386.96649
388.48994
390.14357
392.44095
396.34499
403.42934
300.0002
300.00096
300.00281
300.00642
300.01267
300.02259
300.03745
300.0587
300.0884
300.12958
300.18785
300.28637
300.53393
301.60705
306.01171
315.08819
326.29366
337.35718
347.37222
356.04177
363.31712
369.25228
373.97505
377.67734
380.58909
382.95589
385.04055
387.17734
389.96235
394.46469
)
;

boundaryField
{
    maxY
    {
        type            zeroGradient;
    }
    minX
    {
        type            fixedValue;
        value           uniform 300;
    }
    maxX
    {
        type            inletOutlet;
        inletValue      uniform 300;
        value           nonuniform List<scalar> 
40
(
447.25452
417.39133
403.9695
394.77198
422.13118
352.93085
371.23024
386.90283
413.83787
358.85757
368.86839
381.91297
455.09751
388.99849
385.04476
393.51518
495.23394
433.19566
408.44461
402.64515
497.05433
439.33399
415.55187
411.41168
457.58567
392.52313
390.31295
400.17049
412.04579
359.78108
370.72933
383.44447
421.02405
352.42691
371.11735
386.70746
446.73814
416.72075
403.47941
394.48904
)
;
    }
    minZ
    {
        type            zeroGradient;
    }
    maxZ
    {
        type            zeroGradient;
    }
    topAir_to_rightSolid
    {
        type            compressible::turbulentTemperatureCoupledBaffleMixed;
        refValue        nonuniform List<scalar> 
130
(
661.44195
666.90756
672.5398
678.05767
683.24887
687.94756
692.0891
695.64771
698.63718
701.03425
702.81571
703.99624
704.58601
657.15596
663.63919
670.16663
676.40707
682.13507
687.2165
691.61757
695.35502
698.4525
700.90733
702.72609
703.92755
704.52761
648.43456
657.24153
665.67442
673.35202
680.09593
685.88026
690.75829
694.8292
698.11804
700.68417
702.56659
703.80509
704.42029
635.22392
648.39513
659.94152
669.69149
677.77899
684.43508
689.87795
694.28689
697.77345
700.45206
702.41019
703.68822
704.31409
619.66835
640.06067
655.1677
666.85174
676.09113
683.41618
689.25876
693.91316
697.544
700.29928
702.29548
703.59766
704.23614
619.75942
640.14451
655.21024
666.80863
675.98285
683.31902
689.16287
693.82009
697.46312
700.23397
702.24687
703.57212
704.23371
635.47849
648.61515
660.01699
669.62227
677.64135
684.28535
689.71599
694.13168
697.64058
700.35205
702.33633
703.64816
704.30427
648.70869
657.45253
665.77863
673.3337
680.00745
685.78832
690.67715
694.72935
698.02504
700.61837
702.52535
703.78511
704.41709
657.43103
663.85105
670.28503
676.41834
682.05846
687.12023
691.54818
695.31193
698.42287
700.8904
702.72298
703.93528
704.53964
661.70331
667.10754
672.66543
678.09442
683.20352
687.87784
692.0532
695.64665
698.64223
701.03447
702.81974
704.00177
704.58916
)
;
        refGradient     uniform 0;
        valueFraction   uniform 0.99967867;
        value           nonuniform List<scalar> 
130
(
661.37422
666.83719
672.4667
677.98193
683.17073
687.86734
692.00715
695.56438
698.55285
700.94935
702.73078
703.91198
704.50333
657.07863
663.55868
670.08318
676.32099
682.04671
687.1262
691.52567
695.26186
698.35846
700.81289
702.6319
703.83466
704.43687
648.362
657.16382
665.59191
673.26535
680.0058
685.78733
690.66314
694.7324
698.02012
700.5857
702.46825
703.70811
704.32692
635.16561
648.33191
659.87381
669.61986
677.704
684.35719
689.79759
694.20452
697.68958
700.36733
702.32565
703.60567
704.23401
619.61512
640.00177
655.10526
666.78691
676.0246
683.34846
689.19016
693.84389
697.47421
700.22916
702.22538
703.52837
704.16899
619.70639
640.08572
655.14785
666.74389
675.91648
683.25148
689.09449
693.75107
697.39361
700.16414
702.17711
703.50326
704.16713
635.42025
648.55202
659.94945
669.55094
677.56677
684.20796
689.63621
694.0499
697.55724
700.26776
702.25234
703.56628
704.225
648.63615
657.37483
665.69616
673.24709
679.91742
685.69548
690.58208
694.63256
697.92702
700.51962
702.42656
703.68751
704.32315
657.35364
663.77048
670.20152
676.33222
681.97009
687.02994
691.4563
695.21878
698.32881
700.79586
702.62858
703.84203
704.44854
661.63555
667.03715
672.59231
678.01868
683.12541
687.79766
691.97127
695.56334
698.55791
700.94955
702.73474
703.91739
704.50631
)
;
        Tnbr            T;
        thicknessLayers List<scalar> 0();
        kappaLayers     List<scalar> 0();
        kappaMethod     fluidThermo;
        kappa           none;
        alphaAni        none;
        alpha           none;
        field           T;
    }
    topAir_to_heater
    {
        type            compressible::turbulentTemperatureCoupledBaffleMixed;
        refValue        nonuniform List<scalar> 
40
(
648.09833
649.55348
652.41309
656.48427
641.18294
642.89967
646.29015
651.17995
626.49546
628.74437
633.28286
640.01885
602.35808
605.18931
611.3763
621.46998
566.64728
569.08539
576.07331
590.47428
566.74813
569.16423
576.14704
590.55201
602.68703
605.46295
611.64324
621.72729
626.96565
629.18266
633.69273
640.38464
641.68936
643.37268
646.72638
651.54029
648.61309
650.02326
652.82671
656.81663
)
;
        refGradient     uniform 0;
        valueFraction   uniform 0.99967867;
        value           nonuniform List<scalar> 
40
(
648.03539
649.49059
652.34934
656.41883
641.11554
642.83081
646.21895
651.10582
626.43531
628.68309
633.21907
639.95119
602.30894
605.14014
611.32578
621.41642
566.60945
569.04742
576.03357
590.43009
566.71028
569.12628
576.10741
590.50803
602.63784
605.41376
611.59274
621.67379
626.90542
629.12131
633.62891
640.31697
641.62185
643.30373
646.65511
651.4661
648.55003
649.96027
652.76288
656.75115
)
;
        Tnbr            T;
        thicknessLayers List<scalar> 0();
        kappaLayers     List<scalar> 0();
        kappaMethod     fluidThermo;
        kappa           none;
        alphaAni        none;
        alpha           none;
        field           T;
    }
    topAir_to_leftSolid
    {
        type            compressible::turbulentTemperatureCoupledBaffleMixed;
        refValue        nonuniform List<scalar> 
130
(
716.4402
716.38765
716.27861
716.10585
715.86705
715.61891
715.35387
715.06923
714.77732
714.49044
714.20073
713.96548
713.82684
716.48237
716.44097
716.33198
716.15676
715.91833
715.66158
715.38097
715.07117
714.7528
714.43336
714.11064
713.85529
713.71215
716.57179
716.51483
716.39797
716.21327
715.96666
715.70291
715.40526
715.05108
714.66563
714.28823
713.92406
713.65854
713.50812
716.62145
716.55829
716.43593
716.24133
715.98351
715.70948
715.39589
715.0205
714.54711
714.10124
713.70879
713.41732
713.25935
716.59756
716.53931
716.4206
716.23368
715.97744
715.70528
715.39538
715.02302
714.57187
714.09789
713.6713
713.34826
713.15563
716.58488
716.52901
716.41449
716.2414
716.00968
715.74517
715.45894
715.1323
714.75935
714.37196
714.01357
713.72627
713.53567
716.58637
716.53057
716.424
716.2653
716.06051
715.82121
715.57051
715.29401
714.99084
714.6763
714.39013
714.16517
714.03251
716.5553
716.50257
716.40078
716.25298
716.06316
715.84685
715.62547
715.38478
715.12364
714.85048
714.60922
714.42378
714.31585
716.49684
716.44682
716.35004
716.20395
716.01628
715.81189
715.60268
715.37969
715.14346
714.8973
714.67936
714.51486
714.4225
716.43362
716.38809
716.29437
716.15089
715.96006
715.75528
715.54706
715.33211
715.10884
714.88122
714.68451
714.53827
714.45798
)
;
        refGradient     uniform 0;
        valueFraction   uniform 0.99967867;
        value           nonuniform List<scalar> 
130
(
716.31186
716.26443
716.16005
715.9916
715.75687
715.51261
715.25129
714.97022
714.68167
714.39789
714.11104
713.87833
713.74184
716.35402
716.31768
716.21324
716.04218
715.80761
715.55444
715.2772
714.97052
714.65501
714.33812
714.01756
713.7639
713.62185
716.44341
716.39152
716.27924
716.09871
715.85598
715.59586
715.30162
714.95064
714.5682
714.19356
713.83191
713.56855
713.41988
716.49306
716.43498
716.3172
716.12679
715.87288
715.60252
715.2924
714.92032
714.45012
714.00728
713.61772
713.32898
713.17355
716.46917
716.416
716.30188
716.11915
715.86682
715.59834
715.29192
714.92289
714.47493
714.00402
713.58036
713.26011
713.07004
716.4565
716.4057
716.29577
716.12687
715.89906
715.63822
715.35546
715.03213
714.66235
714.27801
713.92253
713.63802
713.44998
716.45799
716.40727
716.30527
716.15076
715.94986
715.71422
715.46697
715.19375
714.89372
714.58218
714.29886
714.07662
713.94651
716.42693
716.37927
716.28205
716.13841
715.95245
715.73976
715.52176
715.28424
715.02607
714.75566
714.51687
714.33359
714.22741
716.36848
716.32352
716.2313
716.08935
715.90552
715.70472
715.49884
715.27895
715.04556
714.80193
714.58613
714.42329
714.33202
716.30528
716.26487
716.17581
716.03663
715.84986
715.64894
715.44442
715.23303
715.01309
714.78857
714.59468
714.45096
714.37282
)
;
        Tnbr            T;
        thicknessLayers List<scalar> 0();
        kappaLayers     List<scalar> 0();
        kappaMethod     fluidThermo;
        kappa           none;
        alphaAni        none;
        alpha           none;
        field           T;
    }
}


// ************************************************************************* //
