/*--------------------------------*- C++ -*----------------------------------*\
| =========                 |                                                 |
| \\      /  F ield         | OpenFOAM: The Open Source CFD Toolbox           |
|  \\    /   O peration     | Version:  v2012                                 |
|   \\  /    A nd           | Website:  www.openfoam.com                      |
|    \\/     M anipulation  |                                                 |
\*---------------------------------------------------------------------------*/
FoamFile
{
    version     2.0;
    format      ascii;
    class       volVectorField;
    location    "170/topAir";
    object      U;
}
// * * * * * * * * * * * * * * * * * * * * * * * * * * * * * * * * * * * * * //

dimensions      [0 1 -1 0 0 0 0];


internalField   nonuniform List<vector> 
1200
(
(0.10248653 -0.0018356727 0.00085689122)
(0.1122324 -0.0020309889 0.0012881964)
(0.12063776 -0.0020015163 0.0013914463)
(0.12709055 -0.0016895485 0.0013107359)
(0.13266246 -0.0011363019 0.0010714323)
(0.13784945 -0.00047006164 0.00064479525)
(0.14274105 0.00023358551 -6.7419237e-06)
(0.14755234 0.00094085939 -0.0009176371)
(0.15246522 0.0016504621 -0.0022443743)
(0.15765051 0.0024723853 -0.0042024829)
(0.16329312 0.0035907032 -0.007056207)
(0.16935993 0.0052843991 -0.011116861)
(0.17518596 0.0078969383 -0.016669765)
(0.17984067 0.011378702 -0.023850419)
(0.18282329 0.01579378 -0.032472214)
(0.1839945 0.020635234 -0.041988682)
(0.18355728 0.025170692 -0.051593844)
(0.18210542 0.028855224 -0.060443148)
(0.18032439 0.031509334 -0.067879847)
(0.17867389 0.033183883 -0.073584151)
(0.17738845 0.033980465 -0.077572974)
(0.17664698 0.03403616 -0.080058427)
(0.17661494 0.03352745 -0.081286033)
(0.17735318 0.032646777 -0.081437496)
(0.17870866 0.031598692 -0.080594685)
(0.1802091 0.030632818 -0.078718683)
(0.18088697 0.030160335 -0.075596407)
(0.17885574 0.031074322 -0.070720031)
(0.17090017 0.035444945 -0.063130371)
(0.12823543 0.049590994 -0.050453873)
(0.098750985 -0.0030166491 0.00084695516)
(0.098488068 -0.0038368838 0.0012861037)
(0.098558762 -0.0040430774 0.0014813082)
(0.098837705 -0.0037970553 0.0015889887)
(0.099484578 -0.0032418354 0.0016435776)
(0.10055544 -0.0025660812 0.0016391815)
(0.1020128 -0.0018903098 0.0015646119)
(0.10385195 -0.0012982164 0.0013986125)
(0.10638502 -0.00068146738 0.0010804043)
(0.10992355 0.00021390088 0.00047893759)
(0.11497193 0.0018316516 -0.00058813705)
(0.12213733 0.0049545742 -0.0023991061)
(0.13147407 0.010489005 -0.0053195929)
(0.14231349 0.01856326 -0.0097231087)
(0.15319821 0.02900927 -0.015746564)
(0.16251278 0.040636997 -0.023021642)
(0.16931163 0.051702742 -0.030741328)
(0.17363494 0.060980294 -0.038023701)
(0.17604096 0.068155192 -0.04423543)
(0.17708141 0.073356768 -0.04912507)
(0.17725599 0.076694243 -0.052730419)
(0.17708746 0.078352472 -0.055178128)
(0.17701014 0.078644894 -0.056557623)
(0.17725092 0.07794419 -0.056907959)
(0.1777801 0.076640154 -0.056202709)
(0.1782752 0.075183822 -0.054290378)
(0.17802069 0.074316033 -0.050736067)
(0.17562197 0.075621429 -0.044443657)
(0.1697553 0.082379433 -0.033050712)
(0.13817369 0.099625355 -0.011808053)
(0.098919353 -0.0025683432 0.00087043347)
(0.09833591 -0.0037438546 0.0013282264)
(0.096992157 -0.0041312061 0.0015404944)
(0.095151805 -0.0042235667 0.0016732328)
(0.093257722 -0.0041822587 0.0017787814)
(0.091491993 -0.0040758925 0.0018696232)
(0.089859269 -0.0039727456 0.00195908)
(0.088297386 -0.0039622837 0.0020704471)
(0.086777462 -0.003965725 0.002250724)
(0.085396873 -0.0039025176 0.0025487313)
(0.084425598 -0.0036307251 0.0029787576)
(0.084621388 -0.0025943888 0.0034171926)
(0.088013619 0.00096431218 0.0034402995)
(0.096371597 0.0093691197 0.0025148756)
(0.10862353 0.023464816 0.00040458477)
(0.12232433 0.041107097 -0.0026562194)
(0.13490435 0.058631726 -0.0057561808)
(0.1454549 0.073481261 -0.0081699908)
(0.15389993 0.084759511 -0.0098491884)
(0.16014025 0.092578378 -0.011158268)
(0.16434511 0.09736944 -0.012432496)
(0.16710463 0.099584129 -0.013844554)
(0.16899884 0.099688849 -0.015179832)
(0.17033002 0.098184611 -0.01607359)
(0.17107448 0.095552559 -0.016237339)
(0.17095265 0.092283003 -0.015300329)
(0.16949549 0.089091455 -0.012801045)
(0.16589064 0.087493525 -0.0078474106)
(0.1601557 0.091013337 0.0012525423)
(0.13297238 0.1061416 0.017993392)
(0.096917274 -0.0014466113 0.0008369572)
(0.094883264 -0.0021288489 0.0012572661)
(0.091432285 -0.002342795 0.0014307291)
(0.087136268 -0.0023841616 0.0015223991)
(0.082771373 -0.002342352 0.0015875453)
(0.078581087 -0.0022393283 0.0016405769)
(0.074542243 -0.0021026869 0.0016983026)
(0.070583895 -0.0019661272 0.0017899861)
(0.066618216 -0.0018425414 0.0019625434)
(0.062505116 -0.0017828672 0.0022922884)
(0.057986497 -0.0019773348 0.0029069211)
(0.052672122 -0.0027043788 0.0040373377)
(0.046112236 -0.0034922437 0.0060723988)
(0.03864603 -0.0016858026 0.009451884)
(0.036226154 0.0081523857 0.013940289)
(0.043388599 0.025337043 0.01874355)
(0.056284162 0.042505944 0.023631597)
(0.071096918 0.056148239 0.02863878)
(0.085851954 0.065967037 0.033531275)
(0.099214362 0.072480004 0.037792885)
(0.11054509 0.076335767 0.040989432)
(0.11984735 0.077959375 0.043001978)
(0.12742761 0.077665857 0.043949949)
(0.13347965 0.075837318 0.044161166)
(0.1379111 0.072891422 0.04405025)
(0.1404653 0.069294198 0.044071226)
(0.14090755 0.065654881 0.044696592)
(0.13939022 0.063110762 0.046401766)
(0.13936058 0.064575864 0.04941569)
(0.14593666 0.076559182 0.052522227)
(0.1037519 -0.0018295648 0.0010333911)
(0.11436289 -0.0020275164 0.0014885806)
(0.12402643 -0.0020613514 0.0015640765)
(0.13185773 -0.0018895936 0.001441273)
(0.1386657 -0.0015645377 0.0011562364)
(0.14485921 -0.0012201521 0.00068643788)
(0.15050616 -0.00094636094 -3.8127009e-06)
(0.15557079 -0.00080935185 -0.0009681881)
(0.16000544 -0.00085940631 -0.0023816565)
(0.16378432 -0.0011503399 -0.004440018)
(0.16688873 -0.0017531196 -0.0073820489)
(0.16925346 -0.0027432986 -0.011477559)
(0.17058096 -0.0041653248 -0.016939838)
(0.17069465 -0.0063274487 -0.023788988)
(0.17025184 -0.0088895883 -0.031718864)
(0.17000576 -0.011499641 -0.040097365)
(0.17036757 -0.013724024 -0.048172697)
(0.17142092 -0.015271609 -0.055277019)
(0.17297075 -0.016109859 -0.060965765)
(0.17461734 -0.016459207 -0.065139703)
(0.17603269 -0.01667207 -0.067953795)
(0.17722434 -0.016974517 -0.069637512)
(0.17847381 -0.017380439 -0.07036717)
(0.18009547 -0.017806571 -0.070207827)
(0.18227031 -0.018132651 -0.069128278)
(0.18501072 -0.018162924 -0.067038)
(0.18817225 -0.01742187 -0.063774466)
(0.19133761 -0.014505643 -0.059051908)
(0.19351445 -0.0056280148 -0.052532311)
(0.17724421 0.019570696 -0.042894825)
(0.1000554 -0.003020285 0.0010868349)
(0.10075482 -0.0038678318 0.0016704441)
(0.10223463 -0.0041805809 0.0019184504)
(0.10411837 -0.0041401225 0.0020345348)
(0.10631162 -0.003898926 0.0020725323)
(0.10879356 -0.0036502375 0.0020264599)
(0.11149603 -0.0035220729 0.0018784631)
(0.11434985 -0.0036174589 0.001592818)
(0.11731775 -0.0040278652 0.0011020219)
(0.12039859 -0.0048667356 0.00028027101)
(0.12355848 -0.0062618125 -0.0010205734)
(0.12678499 -0.00834276 -0.0029826729)
(0.13011798 -0.011194938 -0.0058487086)
(0.1335269 -0.015089037 -0.0097920223)
(0.13708713 -0.019434212 -0.014750669)
(0.14105012 -0.023369997 -0.02029183)
(0.14552917 -0.025894565 -0.025732795)
(0.15029256 -0.026534716 -0.03039475)
(0.15480993 -0.025401392 -0.033815689)
(0.15845679 -0.023076462 -0.036062421)
(0.16092517 -0.020498191 -0.037490754)
(0.16245338 -0.018427444 -0.038416542)
(0.16352209 -0.017051295 -0.038953269)
(0.16453182 -0.016280485 -0.038931997)
(0.16581855 -0.015992131 -0.03798556)
(0.16784302 -0.015977976 -0.035676743)
(0.17162225 -0.015955444 -0.031458942)
(0.17940541 -0.015013527 -0.024421926)
(0.19728477 -0.010875908 -0.012719421)
(0.25146841 0.0041363301 0.0015225865)
(0.10023071 -0.0025954623 0.0011049355)
(0.10061715 -0.0037935798 0.0017096679)
(0.10071976 -0.0042171973 0.0019941701)
(0.10057819 -0.0043768369 0.0021658317)
(0.10039268 -0.0044387928 0.0022918709)
(0.10027648 -0.004475415 0.002382924)
(0.10023915 -0.0045518543 0.0024466677)
(0.10025222 -0.0047390192 0.0024968051)
(0.10029211 -0.0051163779 0.0025610138)
(0.10035212 -0.0057955047 0.0026546733)
(0.10044246 -0.0069494096 0.0027444236)
(0.10060412 -0.0088056831 0.0027056836)
(0.10099413 -0.011606834 0.0023878535)
(0.10193229 -0.015585225 0.0017947779)
(0.10374779 -0.020602238 0.0011733481)
(0.1067922 -0.025698112 0.0011500797)
(0.11158314 -0.029227264 0.0024362304)
(0.1178283 -0.030674726 0.0052542638)
(0.12438734 -0.030085979 0.0096108296)
(0.13006597 -0.027946576 0.0147313)
(0.1340441 -0.025426108 0.019558111)
(0.13636806 -0.022786751 0.023979896)
(0.13811244 -0.020259381 0.02813184)
(0.14020778 -0.018308977 0.031997052)
(0.14298603 -0.01700063 0.035934015)
(0.14600398 -0.016545552 0.039794645)
(0.1493684 -0.016855974 0.043940488)
(0.15367928 -0.017269827 0.049308831)
(0.16138737 -0.017543378 0.057022733)
(0.18037105 -0.017055697 0.06978695)
(0.098172027 -0.0014734495 0.0010785357)
(0.097049338 -0.0021835518 0.0016641023)
(0.094972959 -0.0024278952 0.0019335199)
(0.092293843 -0.0025095074 0.0020874614)
(0.089546758 -0.0025205116 0.0021931959)
(0.086913627 -0.0024860048 0.0022647303)
(0.08438857 -0.0024361675 0.0023160812)
(0.081936325 -0.0024083014 0.0023714914)
(0.079523526 -0.0024450137 0.0024685601)
(0.077099761 -0.0026121839 0.0026667187)
(0.074567271 -0.0030317411 0.0030649377)
(0.071742268 -0.0039232157 0.0038417771)
(0.068331766 -0.0055842063 0.0052869899)
(0.063889627 -0.0081214322 0.0078586809)
(0.058323481 -0.010445708 0.012884329)
(0.053135237 -0.0095654662 0.022650839)
(0.051424993 -0.0032211816 0.037550202)
(0.055191535 0.0066831172 0.054552221)
(0.062768351 0.016607277 0.070309421)
(0.071285436 0.024799394 0.083516104)
(0.079311327 0.030889084 0.093436711)
(0.086685864 0.034678631 0.099453855)
(0.093536784 0.035811104 0.10203223)
(0.099627284 0.034965509 0.10268992)
(0.10477067 0.032787269 0.10233048)
(0.10866296 0.029743601 0.10156957)
(0.11114463 0.026263278 0.10081761)
(0.11267547 0.022335504 0.099959326)
(0.11454867 0.018879439 0.099368214)
(0.12115522 0.016543638 0.099559622)
(0.10362774 -0.0018431355 0.00039114966)
(0.11404147 -0.0020370614 0.00065793662)
(0.1236252 -0.002046277 0.00079508827)
(0.13149459 -0.0018286929 0.00085065619)
(0.13839966 -0.0014415464 0.00085398591)
(0.14470813 -0.001027859 0.00081564954)
(0.15044094 -0.00068029706 0.00073605917)
(0.1555454 -0.00043683713 0.00059599902)
(0.16002838 -0.00029849872 0.00037847075)
(0.16390761 -0.00028595031 7.9903012e-05)
(0.16713848 -0.0004252034 -0.00032030525)
(0.16960849 -0.00075246789 -0.00086498052)
(0.17087034 -0.0013054513 -0.0016143822)
(0.17050047 -0.0025504382 -0.0027490112)
(0.16900763 -0.004398474 -0.0044971811)
(0.16707862 -0.0070107714 -0.007081372)
(0.16536843 -0.01049814 -0.01066821)
(0.16456564 -0.014580442 -0.015076542)
(0.16493543 -0.018522317 -0.019630344)
(0.16601288 -0.021801909 -0.023734225)
(0.16715539 -0.024418357 -0.027141518)
(0.16812168 -0.026623298 -0.029821334)
(0.16911002 -0.028567116 -0.031785905)
(0.17045272 -0.030220509 -0.033019736)
(0.17234325 -0.031460503 -0.033530607)
(0.17483305 -0.03217518 -0.03343282)
(0.17796925 -0.03215188 -0.032973737)
(0.18180191 -0.030393724 -0.032485546)
(0.18649749 -0.02281971 -0.032664548)
(0.17897424 0.0022783441 -0.03446986)
(0.099931936 -0.0030249769 0.0003926302)
(0.10040766 -0.0038571139 0.00068152577)
(0.10178546 -0.0041295836 0.00084440498)
(0.10370114 -0.0040230261 0.00092651717)
(0.10598401 -0.0036947813 0.00095135072)
(0.10856384 -0.0033445241 0.00091525032)
(0.11134431 -0.0030941706 0.00080248247)
(0.11422913 -0.0029968403 0.00058735466)
(0.11715478 -0.0030685071 0.00023363975)
(0.12008342 -0.0033586446 -0.0003104902)
(0.12296734 -0.0039452835 -0.0011285331)
(0.12575534 -0.0049244983 -0.0023464312)
(0.12842198 -0.0064086954 -0.0041430482)
(0.13079895 -0.0089526445 -0.0067610518)
(0.13278201 -0.012531954 -0.010499216)
(0.13456146 -0.01731344 -0.015608568)
(0.13648386 -0.02321037 -0.021946274)
(0.13882602 -0.029284426 -0.028492825)
(0.14137981 -0.033843874 -0.033854054)
(0.14322124 -0.03619293 -0.03774795)
(0.14362475 -0.03697693 -0.040645428)
(0.14265904 -0.037283438 -0.043012314)
(0.14098829 -0.037732731 -0.044980283)
(0.13934494 -0.038349559 -0.046363348)
(0.13819552 -0.038839139 -0.046896229)
(0.13801797 -0.03900522 -0.046423258)
(0.13957343 -0.03885828 -0.04524756)
(0.1450699 -0.038105659 -0.044058676)
(0.16210724 -0.032453141 -0.045563316)
(0.21697082 -0.012562867 -0.053957911)
(0.10011122 -0.0025884757 0.00039859025)
(0.10028504 -0.0037783445 0.00069477463)
(0.10029619 -0.0041812646 0.00087314512)
(0.10020216 -0.0043088989 0.00097817498)
(0.10013739 -0.0043274231 0.0010333276)
(0.10017927 -0.0043036683 0.0010376193)
(0.1003283 -0.0042898561 0.00098139635)
(0.10054957 -0.0043298881 0.00085013662)
(0.10080692 -0.0044666396 0.00062039779)
(0.10106964 -0.0047636006 0.00024903297)
(0.1013016 -0.0053204171 -0.00034261787)
(0.10146266 -0.0062753007 -0.0012886136)
(0.10149649 -0.0078354794 -0.0027946578)
(0.10125349 -0.010369917 -0.0051526047)
(0.10060082 -0.014219133 -0.0088712266)
(0.099657897 -0.019719991 -0.014374877)
(0.098902099 -0.026751732 -0.021019)
(0.098846165 -0.033747228 -0.026385083)
(0.099781087 -0.037964137 -0.028045036)
(0.10026881 -0.03884724 -0.027618705)
(0.09865527 -0.037904654 -0.027575687)
(0.094777837 -0.036975999 -0.028721614)
(0.089955531 -0.036922612 -0.030386201)
(0.085786162 -0.037700391 -0.031404691)
(0.083197867 -0.038949152 -0.030698541)
(0.0836856 -0.040263524 -0.02687702)
(0.087236392 -0.042199509 -0.020409156)
(0.09469428 -0.045667528 -0.01264539)
(0.10916551 -0.050084453 -0.006762279)
(0.16126308 -0.051657476 -0.010914068)
(0.098055376 -0.0014674423 0.0003892383)
(0.09672366 -0.0021710591 0.00067395735)
(0.094558396 -0.0024060808 0.00084225538)
(0.091928851 -0.0024764546 0.00093873411)
(0.089306704 -0.0024734527 0.00098816586)
(0.086839418 -0.0024196727 0.00099219137)
(0.084515399 -0.002341342 0.00094518763)
(0.082299957 -0.0022679063 0.00083975322)
(0.080163508 -0.0022269296 0.00066517289)
(0.078073077 -0.0022513648 0.00040445045)
(0.075980048 -0.0023925948 3.3386178e-05)
(0.073810702 -0.0027385981 -0.00047661087)
(0.07144516 -0.0034537205 -0.0011638341)
(0.068657365 -0.0048333927 -0.0021017183)
(0.065120158 -0.0072773176 -0.0032945029)
(0.060608891 -0.011111593 -0.0041019907)
(0.055544317 -0.015715971 -0.0026114383)
(0.051322133 -0.018351945 0.0043528842)
(0.051648907 -0.014923407 0.022072585)
(0.054392346 -0.0065291456 0.043986507)
(0.056816428 0.0030941708 0.062105873)
(0.059203785 0.010779971 0.073570999)
(0.06277887 0.015139756 0.079342959)
(0.067391355 0.016463514 0.081416081)
(0.072195984 0.015373677 0.081319913)
(0.076409688 0.012425023 0.079971542)
(0.0794221 0.0078452274 0.077645739)
(0.081137545 0.0015321623 0.073684884)
(0.086685104 -0.0070333963 0.068876832)
(0.11682745 -0.014232458 0.047470121)
(0.10360196 -0.0018428283 0.00021430645)
(0.11394439 -0.0020315128 0.00039455313)
(0.12345202 -0.002028256 0.0005188077)
(0.13126914 -0.0017866985 0.00059248053)
(0.13815031 -0.0013575705 0.00062707727)
(0.14446394 -0.00087563431 0.0006297274)
(0.15024447 -0.00042054243 0.00060392606)
(0.15548618 -1.2165235e-05 0.00055468655)
(0.16022359 0.00035600625 0.00050246398)
(0.16449833 0.00069756003 0.00045423555)
(0.16832444 0.0010336513 0.00042295471)
(0.17167822 0.001402544 0.00044112158)
(0.17415411 0.0018724728 0.00056708115)
(0.1754134 0.0019690641 0.00071832505)
(0.17598804 0.0019710151 0.0008278772)
(0.17655971 0.0017892067 0.0010254575)
(0.17755549 0.001180402 0.0014887532)
(0.17939987 0.00016171759 0.0025453129)
(0.18209024 -0.0008456937 0.0043310805)
(0.18493234 -0.001804807 0.006465133)
(0.1873904 -0.0028699654 0.0085640985)
(0.18946613 -0.0041873026 0.010470222)
(0.19146179 -0.0057574123 0.012267006)
(0.19358638 -0.0074043087 0.014193396)
(0.19569413 -0.0088786091 0.016441167)
(0.19732234 -0.0099869754 0.018828076)
(0.19791117 -0.010269504 0.020527452)
(0.1967221 -0.007701913 0.020060425)
(0.19097574 0.0025104334 0.014918215)
(0.13337147 0.032789103 -0.0020865945)
(0.099905255 -0.0030243697 0.00021708811)
(0.10029363 -0.0038493225 0.000410718)
(0.10156265 -0.0041028971 0.0005478334)
(0.10338409 -0.0039594085 0.0006287107)
(0.10558809 -0.0035670632 0.00066179266)
(0.10809311 -0.0031128078 0.00064871262)
(0.11079816 -0.0026986443 0.00058398603)
(0.11361055 -0.0023493685 0.00045778759)
(0.11646908 -0.0020604551 0.00025680433)
(0.1193338 -0.001826922 -4.2009819e-05)
(0.12217549 -0.0016498725 -0.00047610208)
(0.12497089 -0.0015261225 -0.0010912818)
(0.1277586 -0.0014092391 -0.0019488669)
(0.13034191 -0.0019466975 -0.0031406261)
(0.1327101 -0.0030290984 -0.0047876251)
(0.13507285 -0.0050843802 -0.0069767161)
(0.13771294 -0.0087724484 -0.0095693883)
(0.1407135 -0.013406638 -0.012016637)
(0.14357629 -0.016680253 -0.014283639)
(0.14518221 -0.018625279 -0.016870513)
(0.14533615 -0.019799263 -0.019825022)
(0.14443295 -0.02076987 -0.022917832)
(0.14302938 -0.021811025 -0.025694163)
(0.14150024 -0.022800332 -0.027633395)
(0.13985258 -0.023433687 -0.028431422)
(0.13796865 -0.023551333 -0.028288855)
(0.13626408 -0.022917272 -0.028255432)
(0.13651662 -0.019319507 -0.03108048)
(0.15054877 0.0011268095 -0.043586418)
(0.1611967 0.047912412 -0.059118173)
(0.10008572 -0.002585111 0.0002189324)
(0.10017578 -0.0037711239 0.0004140303)
(0.1000797 -0.0041647399 0.00055617316)
(0.099888718 -0.0042746231 0.00064473177)
(0.099739358 -0.0042638375 0.00068679213)
(0.099698949 -0.004192702 0.00068303044)
(0.099762169 -0.0041024928 0.00062721341)
(0.099892292 -0.0040206069 0.00050828709)
(0.10005026 -0.0039668013 0.00030985101)
(0.10019747 -0.0039657085 6.2786535e-06)
(0.10029062 -0.0040574652 -0.00044353023)
(0.10027331 -0.0043085689 -0.0011091504)
(0.10009521 -0.0047933606 -0.0021071469)
(0.099645873 -0.005838204 -0.0035647679)
(0.098741997 -0.0078214401 -0.0056408793)
(0.097310402 -0.011541019 -0.0085353299)
(0.095454303 -0.018268704 -0.012162619)
(0.092852184 -0.025994131 -0.015368514)
(0.089060086 -0.029099217 -0.017654188)
(0.083705465 -0.029514962 -0.018537721)
(0.077203934 -0.028748573 -0.018482995)
(0.069724585 -0.028389207 -0.019410057)
(0.062024916 -0.029180397 -0.020662255)
(0.054865984 -0.030790881 -0.02107248)
(0.048961768 -0.032620047 -0.020094595)
(0.044643393 -0.03483244 -0.017056787)
(0.041489955 -0.038605981 -0.011516736)
(0.043428063 -0.043927131 -0.010989059)
(0.052756062 -0.027170917 -0.039844101)
(0.1029748 0.020010101 -0.074363447)
(0.098030293 -0.0014687468 0.00021350829)
(0.096617075 -0.0021740709 0.00040120869)
(0.094347528 -0.0024084935 0.00053589998)
(0.091623355 -0.0024748541 0.00061724135)
(0.088919066 -0.0024633837 0.00065256216)
(0.086371991 -0.0023942655 0.00064344726)
(0.083963008 -0.0022899276 0.00058489319)
(0.081652077 -0.00217419 0.00046732543)
(0.079401299 -0.0020660986 0.00027626476)
(0.077164975 -0.0019842182 -9.9548814e-06)
(0.074883495 -0.0019528052 -0.00042423811)
(0.072467063 -0.0020110999 -0.0010192728)
(0.069767484 -0.0022330949 -0.0018803979)
(0.066527787 -0.0028134485 -0.0031379652)
(0.062283813 -0.0041338698 -0.005008869)
(0.056230314 -0.0071031526 -0.0079769727)
(0.047737642 -0.013762729 -0.013211739)
(0.034000782 -0.021316084 -0.020806594)
(0.015751797 -0.020161308 -0.024267605)
(0.0128793 -0.017570095 -0.0063312974)
(0.012977718 -0.01057792 0.021344167)
(0.014064928 -0.0044947643 0.036804843)
(0.018376295 -0.0018105967 0.042649438)
(0.023474058 -0.0018857861 0.043800482)
(0.027948326 -0.0039989642 0.042486785)
(0.030315675 -0.0078753845 0.039789677)
(0.028214087 -0.014161712 0.03579373)
(0.023446272 -0.024722201 0.02655434)
(-0.011762803 -0.020379977 -0.025477979)
(0.04648658 0.025343186 -0.093981386)
(0.10358723 -0.0018455377 5.9866134e-05)
(0.11389252 -0.0020363039 0.00010924526)
(0.12335771 -0.0020341362 0.00014112359)
(0.13114147 -0.0017919226 0.0001569341)
(0.13800217 -0.0013595121 0.00016103506)
(0.14430624 -0.00087156333 0.0001569016)
(0.15008599 -0.00040822663 0.00014662903)
(0.15533442 9.7378704e-06 0.00013160762)
(0.16008137 0.00038784033 0.00011265718)
(0.1643685 0.00074121357 8.7871449e-05)
(0.16823283 0.0010899841 5.7909636e-05)
(0.17168115 0.0014644328 3.8464421e-05)
(0.17410062 0.0019947688 5.4799473e-05)
(0.17509738 0.0020875327 1.2807437e-05)
(0.17553488 0.0020611265 -0.00016722853)
(0.17641223 0.0017893716 -0.00042133866)
(0.17861461 0.0012302524 -0.00060415718)
(0.1828532 0.0013565038 -0.00039987605)
(0.18840636 0.0026511217 0.00039794549)
(0.19389107 0.0042980047 0.0015869585)
(0.19880257 0.0057309376 0.0028848052)
(0.20365582 0.0068729601 0.0042461634)
(0.20916694 0.0078617179 0.005811517)
(0.21550933 0.0090560111 0.0077957541)
(0.22188689 0.010911563 0.010372385)
(0.22648273 0.013688334 0.013506243)
(0.2265111 0.017639044 0.016542014)
(0.21757694 0.024745842 0.017779344)
(0.1943418 0.038924668 0.013882145)
(0.0890237 0.073563888 0.0011884596)
(0.099889693 -0.0030268633 6.0300105e-05)
(0.10023289 -0.0038531325 0.00011317323)
(0.10144389 -0.004105574 0.00014807651)
(0.10321296 -0.0039572249 0.00016453096)
(0.10537377 -0.0035549005 0.00016565809)
(0.10783939 -0.003084853 0.00015307237)
(0.11050303 -0.0026485274 0.00012576474)
(0.11326763 -0.0022698182 8.0769957e-05)
(0.11606742 -0.0019427779 1.3253108e-05)
(0.11885892 -0.0016576156 -8.388832e-05)
(0.12160917 -0.0014119048 -0.00021961383)
(0.12431196 -0.0011960525 -0.00040598218)
(0.12715963 -0.00078297421 -0.00065235571)
(0.12979725 -0.0010158297 -0.00097223729)
(0.13215142 -0.0018898321 -0.0014154383)
(0.13487159 -0.0039226412 -0.0020102679)
(0.13876857 -0.0074618036 -0.002659071)
(0.1442582 -0.0086827031 -0.0029597106)
(0.15002035 -0.0064445089 -0.0027863119)
(0.1537908 -0.0043336294 -0.0029906266)
(0.15595678 -0.0036234123 -0.0040370625)
(0.15720183 -0.003923083 -0.0058230071)
(0.15804408 -0.0044955512 -0.0079680615)
(0.15935353 -0.0043350931 -0.0099096006)
(0.16218562 -0.0021723942 -0.010905036)
(0.1679415 0.0036923229 -0.010447763)
(0.17532096 0.015177766 -0.00919826)
(0.17678271 0.033001094 -0.0087603672)
(0.16992531 0.061845347 -0.01312164)
(0.10849255 0.11096645 -0.026112064)
(0.10007032 -0.0025846658 6.0356105e-05)
(0.10011599 -0.0037705163 0.00011306307)
(0.09996137 -0.0041620868 0.00014868393)
(0.099714808 -0.0042669681 0.00016638249)
(0.099516237 -0.0042476406 0.00016868267)
(0.099427402 -0.0041634273 0.00015640386)
(0.099436703 -0.0040538201 0.00012764502)
(0.09950181 -0.0039434895 7.833452e-05)
(0.099576758 -0.0038481424 2.1615476e-06)
(0.09961234 -0.0037859215 -0.00011017741)
(0.099540371 -0.0037899866 -0.0002744543)
(0.09926486 -0.0039067313 -0.00052094464)
(0.098743746 -0.0040719545 -0.00089915415)
(0.097895784 -0.0047133564 -0.0014511225)
(0.09654286 -0.0064523583 -0.0022310757)
(0.094935383 -0.010445634 -0.0033189385)
(0.093665518 -0.018575502 -0.0047601011)
(0.092110023 -0.021498122 -0.005737007)
(0.092412264 -0.016825597 -0.0042326328)
(0.086258064 -0.012395085 -0.0038797253)
(0.075594749 -0.010708933 -0.0060687082)
(0.06327968 -0.012388015 -0.0096952462)
(0.050147296 -0.016098021 -0.013339877)
(0.037665485 -0.019420903 -0.016220424)
(0.028895097 -0.02075178 -0.017369926)
(0.026592198 -0.019243003 -0.015689628)
(0.034406349 -0.011066262 -0.011868801)
(0.067726433 0.014207052 -0.01231996)
(0.089315657 0.054449312 -0.022009632)
(0.069732989 0.1116422 -0.041575862)
(0.098015067 -0.0014683662 5.8771909e-05)
(0.096558184 -0.0021732182 0.00010923326)
(0.094230813 -0.0024062226 0.00014246916)
(0.091450794 -0.0024699453 0.00015766062)
(0.088696113 -0.0024545986 0.0001572125)
(0.086098098 -0.0023799066 0.00014192662)
(0.083629853 -0.0022675149 0.00010978356)
(0.081243576 -0.0021402058 5.6381104e-05)
(0.078892856 -0.0020153247 -2.5008124e-05)
(0.076517736 -0.0019072277 -0.00014310505)
(0.074024919 -0.0018336793 -0.0003137815)
(0.071269697 -0.0018205573 -0.0005674517)
(0.068029971 -0.0019110912 -0.00095040149)
(0.063906343 -0.0023246624 -0.0015327834)
(0.058059159 -0.0035723757 -0.0024406649)
(0.048648955 -0.0071369059 -0.0040057702)
(0.034540665 -0.016680152 -0.0073155656)
(-0.0017239094 -0.01594633 -0.0133894)
(-0.037467743 0.00019034358 -0.0091536678)
(-0.050790841 0.00038755858 -0.00095316473)
(-0.052798069 -0.0029189969 0.006673552)
(-0.048697953 -0.005912096 0.011950786)
(-0.042749919 -0.0086888567 0.012253231)
(-0.03729106 -0.011517178 0.0091220863)
(-0.033748356 -0.014966867 0.004686287)
(-0.032172119 -0.01900684 0.00060707555)
(-0.033252285 -0.020561514 -0.0027385099)
(-0.036835293 -0.0087855303 -0.007916475)
(-0.007993442 0.045121992 -0.031145938)
(0.039027712 0.097233972 -0.054789805)
(0.10358706 -0.0018456103 -6.491091e-05)
(0.11389196 -0.0020365244 -0.00011793437)
(0.12335679 -0.002034557 -0.00015205736)
(0.13114036 -0.0017925545 -0.00016882382)
(0.13800111 -0.0013602806 -0.00017256512)
(0.14430548 -0.00087248292 -0.00016677315)
(0.1500861 -0.00040926995 -0.00015344095)
(0.15533668 8.737864e-06 -0.00013348559)
(0.16008832 0.00038734193 -0.00010669823)
(0.16438477 0.00074191438 -6.9666896e-05)
(0.16826697 0.0010923181 -2.0800115e-05)
(0.17174629 0.0014700447 2.8243579e-05)
(0.17421273 0.0020109765 5.9223935e-05)
(0.17526026 0.0021387251 0.00016796928)
(0.17573835 0.0021927455 0.00042726033)
(0.17663523 0.002038641 0.00074618369)
(0.17871544 0.0015677848 0.00093091812)
(0.18269008 0.0015109649 0.00058550801)
(0.18811591 0.002621948 -0.00039781079)
(0.1936129 0.0041965156 -0.0016718197)
(0.19867151 0.0056157662 -0.0029793622)
(0.20376821 0.0067697182 -0.0042860952)
(0.20957944 0.0078356063 -0.0057708543)
(0.21624715 0.0091762531 -0.0077117919)
(0.22304733 0.011265276 -0.010310198)
(0.22815776 0.014419844 -0.013421525)
(0.22853653 0.018975979 -0.01621843)
(0.21937956 0.027007027 -0.01692544)
(0.19507934 0.041842607 -0.012607932)
(0.086992154 0.075975213 -0.00036532771)
(0.099889618 -0.0030269705 -6.4840379e-05)
(0.10023258 -0.0038534279 -0.00012029911)
(0.10144321 -0.0041061091 -0.00015569785)
(0.10321186 -0.0039579908 -0.00017084336)
(0.10537236 -0.0035557817 -0.00016913059)
(0.10783789 -0.0030858539 -0.00015241203)
(0.11050182 -0.0026496 -0.0001199488)
(0.1132675 -0.0022707339 -6.8914581e-05)
(0.11607004 -0.0019429095 5.7074791e-06)
(0.11886753 -0.0016559231 0.0001117471)
(0.1216296 -0.001407794 0.00026001467)
(0.12435752 -0.0011838003 0.00046540544)
(0.12725431 -0.00074064514 0.00074036497)
(0.12997698 -0.00087968489 0.0010990454)
(0.13241739 -0.0015526483 0.0015795661)
(0.13509544 -0.0032994779 0.0021692927)
(0.1387822 -0.0066073494 0.0026667104)
(0.14386369 -0.0087952985 0.0026002547)
(0.14956847 -0.007146594 0.0021675135)
(0.15341512 -0.0051379037 0.0023796016)
(0.15543722 -0.004394999 0.0036274714)
(0.15658828 -0.004641891 0.0056559636)
(0.15758935 -0.0051295899 0.0078827324)
(0.15931157 -0.0048933949 0.0094607339)
(0.16283435 -0.0025707307 0.0094955672)
(0.16989948 0.0040978487 0.0078473214)
(0.17892284 0.017348438 0.0058932437)
(0.18056254 0.037520027 0.0054832164)
(0.17100178 0.067747962 0.0097098461)
(0.099269629 0.1158964 0.021611919)
(0.10007024 -0.002584721 -6.4976472e-05)
(0.10011569 -0.003770632 -0.00012029781)
(0.099960752 -0.0041622593 -0.00015633359)
(0.099713874 -0.0042671675 -0.00017238582)
(0.099515112 -0.0042478125 -0.00017112204)
(0.09942636 -0.0041635342 -0.00015357043)
(0.099436275 -0.004053805 -0.00011806325)
(0.099503068 -0.0039432072 -6.0634326e-05)
(0.099581892 -0.0038472049 2.5273201e-05)
(0.099624643 -0.0037834461 0.00014983348)
(0.099565419 -0.0037846875 0.00033081469)
(0.099314454 -0.0038910358 0.00060133389)
(0.098842208 -0.0040206442 0.0010150024)
(0.098091385 -0.0045587198 0.0016221746)
(0.096898326 -0.0060621538 0.0024845466)
(0.095409704 -0.0095857081 0.0036603)
(0.094155494 -0.016865655 0.0050255273)
(0.092119938 -0.022380124 0.0055871707)
(0.092390015 -0.018472773 0.0039771023)
(0.086545103 -0.014322691 0.0041834334)
(0.076278924 -0.012709624 0.0072488688)
(0.064797109 -0.014232929 0.011444846)
(0.053062234 -0.017691303 0.014629237)
(0.042205639 -0.02128112 0.015215115)
(0.034283282 -0.023421621 0.011692591)
(0.031052707 -0.022387968 0.0042174599)
(0.041325429 -0.012384403 -0.0020265777)
(0.072634673 0.017281777 0.0013649824)
(0.087581057 0.060988959 0.012091766)
(0.048540936 0.11984164 0.029544774)
(0.098014989 -0.001468385 -6.3371495e-05)
(0.096557877 -0.0021732521 -0.00011647765)
(0.094230195 -0.0024062679 -0.00015019071)
(0.091449893 -0.002469991 -0.00016377287)
(0.088695103 -0.0024546297 -0.00015973062)
(0.086097334 -0.0023799031 -0.00013904173)
(0.08363004 -0.0022674551 -9.9875413e-05)
(0.08124621 -0.0021400388 -3.779754e-05)
(0.078901137 -0.0020148599 5.4510462e-05)
(0.076536729 -0.0019058893 0.00018740119)
(0.074064403 -0.0018301246 0.00038046592)
(0.071353541 -0.0018105862 0.00067091857)
(0.068212169 -0.0018823097 0.0011191257)
(0.064309785 -0.0022427969 0.001824692)
(0.058963806 -0.0033407107 0.0029732923)
(0.05069457 -0.0064220871 0.0050028651)
(0.037897893 -0.014649046 0.0091341927)
(0.009625632 -0.019778892 0.016007211)
(-0.030160993 -0.0020425778 0.013784295)
(-0.042694165 -0.0010836831 0.007182679)
(-0.045921016 -0.0037901816 -0.00020206795)
(-0.039877849 -0.006515518 -0.0088380266)
(-0.032902725 -0.0087048369 -0.01491959)
(-0.027577533 -0.011296589 -0.018614074)
(-0.025617981 -0.014876315 -0.021296799)
(-0.027947716 -0.019121156 -0.022767093)
(-0.034044546 -0.018494655 -0.020486374)
(-0.044728025 0.0035606093 -0.0081959764)
(-0.022183034 0.058365253 0.0075054454)
(-0.0038410036 0.11139791 0.02909252)
(0.10360151 -0.0018430765 -0.00021858007)
(0.11394297 -0.0020321894 -0.00040164248)
(0.12344971 -0.0020294243 -0.00052732147)
(0.13126638 -0.0017883236 -0.000601273)
(0.13814762 -0.0013594855 -0.00063514573)
(0.14446191 -0.00087776259 -0.00063619081)
(0.15024409 -0.0004226986 -0.00060799392)
(0.15548922 -1.3954028e-05 -0.00055562194)
(0.16023245 0.00035549186 -0.00049973676)
(0.16451527 0.0006992357 -0.00044788949)