/*--------------------------------*- C++ -*----------------------------------*\
| =========                 |                                                 |
| \\      /  F ield         | OpenFOAM: The Open Source CFD Toolbox           |
|  \\    /   O peration     | Version:  v2012                                 |
|   \\  /    A nd           | Website:  www.openfoam.com                      |
|    \\/     M anipulation  |                                                 |
\*---------------------------------------------------------------------------*/
FoamFile
{
    version     2.0;
    format      ascii;
    class       volScalarField;
    location    "630/topAir";
    object      rho;
}
// * * * * * * * * * * * * * * * * * * * * * * * * * * * * * * * * * * * * * //

dimensions      [1 -3 0 0 0 0 0];


internalField   nonuniform List<scalar> 
1200
(
1.068596
0.99698012
0.93997458
0.89281653
0.85246825
0.8171524
0.78588972
0.75833963
0.7344568
0.71379908
0.6961383
0.68144675
0.67010425
0.67062499
0.67446634
0.68163457
0.69130486
0.70214249
0.7128211
0.722366
0.73023899
0.73623879
0.74037459
0.7427585
0.74352895
0.7427726
0.7404492
0.73628811
0.72956555
0.71914336
1.1565234
1.1525885
1.1472481
1.1407726
1.1333616
1.1251755
1.1163599
1.1062632
1.0926985
1.0749934
1.0506943
1.0192675
0.9815757
0.94406537
0.91029615
0.88251489
0.86110461
0.84562652
0.8354408
0.82977599
0.82752429
0.82732788
0.8279192
0.82828985
0.82766257
0.82533806
0.82052278
0.81207386
0.79797359
0.77691145
1.1585734
1.1584415
1.1581967
1.1578154
1.1572775
1.1565663
1.1556688
1.1545559
1.1531437
1.1513337
1.1488325
1.1407257
1.1200657
1.0864209
1.0448894
1.001216
0.96089967
0.92639006
0.89858489
0.87747528
0.86239317
0.85218035
0.84549662
0.84107916
0.83785677
0.83492626
0.83146648
0.82654626
0.81862165
0.8055988
1.158618
1.1586136
1.1586031
1.1585824
1.1585467
1.1584899
1.1584048
1.1582825
1.15811
1.1578674
1.1575067
1.1567191
1.1542735
1.1408161
1.1070934
1.0631333
1.0203719
0.98161552
0.94806083
0.92030477
0.89836968
0.88170303
0.86935806
0.86027902
0.85349599
0.84819003
0.84364622
0.83913785
0.833623
0.82551626
1.0686036
0.99769653
0.9418584
0.89620035
0.85768098
0.82456474
0.79588518
0.77111184
0.75006486
0.73282349
0.71970401
0.71119095
0.70811869
0.72128069
0.7392874
0.75967583
0.77884726
0.79413353
0.80473668
0.81132372
0.81508375
0.81691735
0.81732588
0.81652814
0.81460953
0.81150615
0.80696475
0.80033849
0.78996416
0.77298701
1.156526
1.1526637
1.1475234
1.1414126
1.1345673
1.1271857
1.1194659
1.1116235
1.1039069
1.0966329
1.0902123
1.0851577
1.08208
1.0818012
1.0833609
1.0842927
1.0820967
1.0762646
1.0679689
1.0586432
1.0490435
1.0391779
1.0288481
1.0177678
1.0056413
0.99223873
0.97754256
0.96177396
0.9447326
0.92289622
1.1585736
1.1584451
1.158213
1.1578609
1.1573778
1.1567571
1.1559985
1.1551086
1.1541029
1.1530124
1.15189
1.1507274
1.1495544
1.1481589
1.1440859
1.1341035
1.1156955
1.0912243
1.0654997
1.0425112
1.0233547
1.0050981
0.98741891
0.97030591
0.95430358
0.93835243
0.92179589
0.90482587
0.88747346
0.86969375
1.158618
1.1586138
1.1586039
1.1585853
1.1585542
1.1585063
1.1584374
1.1583428
1.1582178
1.1580574
1.1578542
1.1575708
1.156959
1.1539443
1.1413775
1.1146187
1.0802114
1.0392326
0.9992916
0.96433845
0.93612378
0.91543845
0.89948367
0.88659742
0.87575831
0.86721151
0.86030504
0.85434328
0.84854521
0.84197729
1.0685919
0.99754995
0.94156218
0.89574582
0.85704358
0.82369834
0.79465817
0.76925158
0.74711457
0.72814565
0.71253583
0.70085555
0.69443059
0.70555894
0.72174225
0.74007708
0.75815741
0.77507654
0.79052877
0.80431309
0.81627463
0.82616646
0.83360012
0.83820658
0.83980465
0.83847312
0.83442402
0.82764833
0.81661608
0.79807838
1.1565253
1.1526494
1.1474847
1.1413422
1.1344556
1.1270141
1.1191908
1.1111638
1.1031495
1.0954316
1.0884413
1.0828524
1.0796316
1.0796934
1.080957
1.0806097
1.0781711
1.0742418
1.0689265
1.0621857
1.0539035
1.0437201
1.0312163
1.0162228
0.99887276
0.9793934
0.95811623
0.93586071
0.91325415
0.88831234
1.1585736
1.1584445
1.1582111
1.1578571
1.1573718
1.156749
1.1559874
1.1550921
1.1540776
1.1529756
1.1518502
1.1508199
1.1499809
1.147989
1.1393252
1.1233469
1.1070257
1.0937566
1.0808702
1.0669914
1.0513017
1.0325727
1.0104836
0.98594745
0.96034407
0.93529617
0.91229808
0.89211657
0.87186703
0.850018
1.158618
1.1586137
1.1586038
1.1585851
1.1585539
1.1585062
1.1584376
1.1583439
1.1582207
1.1580641
1.1578695
1.1576045
1.1567567
1.1492219
1.1169112
1.0688018
1.0394709
1.0357039
1.0155833
0.98631044
0.95856434
0.93614133
0.91820573
0.90349464
0.89099007
0.88043693
0.87154246
0.86316929
0.84633142
0.82276927
1.0685659
0.99746087
0.94136536
0.89539361
0.8564568
0.82274586
0.7931418
0.76690217
0.74352247
0.72274237
0.70460112
0.68963615
0.67921352
0.68504554
0.69058695
0.69309529
0.69291072
0.69180976
0.6914507
0.69293015
0.69670917
0.7025622
0.70986932
0.71801867
0.72628945
0.73330855
0.73670231
0.73340019
0.72194323
0.70642563
1.1565245
1.1526424
1.1474598
1.1412824
1.1343349
1.1267898
1.1187939
1.1104882
1.1020368
1.0936843
1.0858765
1.0794454
1.075553
1.0738361
1.0705781
1.065526
1.0597012
1.0537942
1.0479096
1.0417124
1.0344279
1.0251331
1.0133047
0.99908931
0.98277526
0.96431638
0.94428178
0.92257249
0.89090698
0.83098295
1.1585735
1.1584442
1.1582097
1.1578533
1.157363
1.1567309
1.1559531
1.1550305
1.1539729
1.152809
1.1516118
1.1505351
1.1494411
1.1429848
1.125211
1.1098213
1.0994785
1.091826
1.0829002
1.0702203
1.0522865
1.0286564
1.0009966
0.97204674
0.9431683
0.915398
0.89216332
0.87218493
0.85069917
0.82140545
1.158618
1.1586137
1.1586038
1.1585849
1.1585533
1.1585048
1.1584346
1.158338
1.1582097
1.158044
1.1578308
1.1574606
1.1550666
1.1279715
1.052237
0.99620812
0.99093442
0.99230863
0.99420628
0.9797014
0.95982718
0.94040887
0.92261237
0.90796329
0.89305592
0.87698442
0.86229964
0.8451282
0.82121561
0.79767053
1.0685511
0.99742097
0.94129086
0.89527852
0.85629719
0.82253449
0.79286734
0.76655349
0.74312653
0.7223889
0.70454379
0.69043773
0.68146082
0.68882664
0.69283976
0.69242391
0.68933198
0.68482085
0.6796266
0.67432341
0.66942257
0.66537041
0.66250674
0.66101236
0.66083556
0.6615544
0.66222742
0.66138056
0.65720167
0.64781906
1.1565241
1.1526392
1.1474491
1.1412581
1.1342896
1.1267146
1.1186779
1.1103219
1.1018233
1.0934747
1.0858518
1.0800262
1.0769836
1.0733734
1.0677826
1.0611724
1.0520861
1.0386646
1.0226534
1.005614
0.98709817
0.96464785
0.9367454
0.90526818
0.87220229
0.83955007
0.80837583
0.7785135
0.74847162
0.71500738
1.1585735
1.1584441
1.1582091
1.1578514
1.1573588
1.1567227
1.1559386
1.1550069
1.1539382
1.1527676
1.1515914
1.1505884
1.1487627
1.1321677
1.1157983
1.1053396
1.0997592
1.0943103
1.087568
1.075641
1.0561687
1.0285553
0.99750162
0.96708949
0.93995375
0.91276206
0.88231289
0.84840272
0.81029215
0.76658056
1.158618
1.1586137
1.1586037
1.1585848
1.1585529
1.158504
1.158433
1.1583347
1.1582034
1.1580323
1.157802
1.1572327
1.151153
1.0699808
0.98419601
0.96893015
0.96208312
0.95650487
0.94979442
0.94393893
0.9347715
0.92362004
0.91232281
0.90227848
0.89374128
0.88773893
0.87562171
0.85179582
0.81864243
0.77967092
1.0685394
0.99740083
0.94126353
0.89524389
0.85625567
0.82248772
0.79282102
0.76651889
0.74312747
0.72248476
0.70487107
0.69123337
0.68269541
0.68912434
0.69148817
0.68963561
0.68673245
0.68235763
0.67724129
0.67195648
0.66702929
0.66293459
0.66003856
0.65854322
0.65842536
0.65931026
0.66030828
0.65990862
0.65620694
0.64727891
1.1565238
1.1526383
1.1474475
1.1412555
1.1342859
1.1267099
1.1186739
1.1103234
1.1018449
1.0935566
1.0860938
1.0806034
1.0777616
1.0731931
1.0670177
1.0600032
1.0471986
1.0294625
1.0082743
0.98449642
0.95859757
0.93056738
0.90059878
0.86972675
0.83954524
0.81152043
0.78567703
0.76136913
0.73673814
0.70822149
1.1585735
1.1584441
1.158209
1.1578513
1.1573586
1.1567224
1.155938
1.1550065
1.1539393
1.1527756
1.1516227
1.1506496
1.1481183
1.1292942
1.1157589
1.107662
1.1023012
1.0956086
1.0866563
1.0743379
1.0549613
1.0269379
0.99299883
0.95896102
0.92718271
0.89575211
0.86450259
0.83243171
0.79806229
0.75905496
1.158618
1.1586137
1.1586037
1.1585848
1.1585529
1.1585039
1.1584328
1.1583344
1.1582027
1.1580304
1.1577908
1.157049
1.1477738
1.0340898
0.98045457
0.96992483
0.96438641
0.95819379
0.95019263
0.94039801
0.92975226
0.91825389
0.90717743
0.89755776
0.88990963
0.88316296
0.86845786
0.84592183
0.81611828
0.78119456
1.0685303
0.99739973
0.94128359
0.89529335
0.85634304
0.82262337
0.7930154
0.76678228
0.74343525
0.72273926
0.70479014
0.6902264
0.68041059
0.68614604
0.69048291
0.69142641
0.68998846
0.68805468
0.68700977
0.68792565
0.69135323
0.69708734
0.70443219
0.71265737
0.7210524
0.72836951
0.73239289
0.72983348
0.71931861
0.70388333
1.1565236
1.1526398
1.147455
1.1412748
1.1343244
1.1267766
1.1187794
1.1104772
1.1020426
1.0937417
1.0860686
1.0799328
1.0764314
1.0741664
1.0699749
1.0644029
1.0582777
1.0520599
1.0457826
1.039077
1.0311707
1.0212102
1.0088226
0.99426959
0.97792563
0.95961131
0.94005708
0.91861221
0.88667409
0.82637351
1.1585735
1.1584442
1.1582096
1.1578529
1.1573624
1.1567299
1.1559517
1.1550288
1.1539721
1.1528135
1.1516353
1.1506009
1.1493095
1.1398208
1.1220835
1.109253
1.1007791
1.0934292
1.0839568
1.0702848
1.0511302
1.0258831
0.9959705
0.96443464
0.93369358
0.90503021
0.88165598
0.86196087
0.84144729
0.81529765
1.158618
1.1586137
1.1586038
1.1585849
1.1585532
1.1585046
1.1584344
1.1583375
1.1582087
1.158042
1.1578244
1.1573878
1.1537814
1.1124215
1.029903
0.99527367
0.9928425
0.99347349
0.98894374
0.97155371
0.95209019
0.93416523
0.91791404
0.90369806
0.89013449
0.8747056
0.85910822
0.84133645
0.82118463
0.79581872
1.0685273
0.99743948
0.94141678
0.89557309
0.85685001
0.82348893
0.79443524
0.76902234
0.74689371
0.72796358
0.71245886
0.70102303
0.69506324
0.70661195
0.72252989
0.73990309
0.75683913
0.77283646
0.78773373
0.80134998
0.81347185
0.82364207
0.83117335
0.83548075
0.83640585
0.83427526
0.82961146
0.82267365
0.81201691
0.79465583
1.1565237
1.1526448
1.147476
1.1413286
1.1344366
1.1269893
1.1191605
1.1111306
1.1031211
1.0954317
1.0885237
1.0831262
1.0802365
1.0803951
1.0809813
1.0798307
1.0769126
1.0727107
1.0671783
1.0602356
1.0516425
1.0408646
1.0274197
1.0113016
0.99299898
0.97298535
0.9514614
0.92892345
0.90593511
0.88058962
1.1585735
1.1584444
1.1582108
1.1578565
1.1573707
1.1567473
1.1559847
1.1550883
1.1540732
1.1529732
1.1518583
1.1508578
1.1500097
1.1470513
1.1361539
1.1198723
1.1047814
1.0921726
1.0792449
1.0652706
1.0490256
1.0289336
1.0048336
0.97829213
0.95170813
0.92721492
0.90553724
0.88653446
0.86639711
0.84247509
1.158618
1.1586137
1.1586038
1.1585851
1.1585538
1.158506
1.1584373
1.1583432
1.1582193
1.1580617
1.1578646
1.1575786
1.1563757
1.1444885
1.1035995
1.0589963
1.0355124
1.033105
1.0077705
0.97707101
0.95062304
0.92977534
0.91305538
0.89920462
0.88737862
0.87744205
0.86904211
0.86142355
0.8460537
0.815427
1.0685172
0.99755083
0.9416709
0.89598319
0.8574436
0.82431604
0.79563324
0.77086265
0.74982336
0.73259269
0.71950234
0.71108499
0.70826331
0.72184527
0.7402116
0.76057431
0.77923856
0.79371964
0.80353896
0.8096301
0.8131899
0.81504488
0.81554548
0.81474511
0.81262943
0.80913051
0.80407217
0.79692201
0.78609958
0.76879299
1.1565238
1.1526576
1.1475121
1.1413953
1.1345435
1.1271553
1.1194289
1.1115792
1.1038586
1.096587
1.0901941
1.0852276
1.0823418
1.0823029
1.0838599
1.0843706
1.0814894
1.0750153
1.0663035
1.0567725
1.0469288
1.0367341
1.0259479
1.0142965
1.0015752
0.98766395
0.9725978
0.95661365
0.93946224
0.9174037
1.1585735
1.158445
1.1582126
1.1578601
1.1573764
1.1567548
1.1559949
1.1551029
1.1540944
1.1530014
1.1518801
1.1507374
1.1496013
1.1481091
1.143338
1.1321449
1.1125751
1.087443
1.0617233
1.0396423
1.020117
1.0015488
0.98364827
0.96639836
0.95030746
0.93417048
0.91747901
0.900571
0.88339854
0.8655412
1.158618
1.1586138
1.1586039
1.1585853
1.1585541
1.1585061
1.158437
1.1583418
1.158216
1.1580542
1.157849
1.1575623
1.1569073
1.1533304
1.1385865
1.1107388
1.0756351
1.0337002
0.99280888
0.95781241
0.93109479
0.91134053
0.89593002
0.88338102
0.87279009
0.86458019
0.85796142
0.85223125
0.84660698
0.83856908
1.0684961
0.99681132
0.9397567
0.89256326
0.85219085
0.81685939
0.78559
0.75804135
0.73416061
0.71350335
0.69584294
0.68116105
0.66985672
0.6704444
0.67436574
0.68155784
0.69113974
0.70177573
0.71218871
0.72147581
0.72914395
0.73500725
0.73905198
0.74134055
0.74196368
0.74098611
0.73837649
0.73389076
0.72683208
0.71611199
1.1565209
1.1525813
1.1472348
1.1407518
1.1333325
1.1251374
1.1163101
1.1061346
1.09243
1.0745914
1.0504045
1.0193758
0.98226247
0.94516544
0.9113936
0.88318167
0.86109072
0.84492923
0.83424955
0.82833231
0.82596765
0.82571539
0.82624833
0.82651737
0.82573687
0.82322762
0.8182126
0.80955506
0.79522565
0.77379747
1.1585734
1.1584413
1.1581962
1.1578144
1.1572758
1.1565634
1.155664
1.1545466
1.1531265
1.1513095
1.1488293
1.1411817
1.1216743
1.0888057
1.0474919
1.0035267
0.96237734
0.92682121
0.89807739
0.87632155
0.86088631
0.8505296
0.84381471
0.83939871
0.83616033
0.83317479
0.82961416
0.82453553
0.81635343
0.80289936
1.158618
1.1586136
1.1586031
1.1585824
1.1585466
1.1584896
1.1584042
1.1582813
1.1581075
1.1578631
1.1575006
1.156725
1.1543187
1.1417145
1.1080557
1.0635706
1.0200345
0.98031804
0.94589283
0.91759539
0.89549074
0.87890785
0.86676447
0.85791316
0.85133189
0.84617847
0.84172752
0.83724171
0.83164813
0.82331453
)
;

boundaryField
{
    maxY
    {
        type            calculated;
        value           nonuniform List<scalar> 
300
(
1.1586174
1.1586174
1.1586174
1.1586174
1.1586174
1.1586174
1.1586174
1.1586174
1.1586174
1.1586174
1.1586131
1.1586132
1.1586132
1.1586132
1.1586132
1.1586132
1.1586132
1.1586132
1.1586132
1.1586131
1.1586026
1.1586034
1.1586033
1.1586033
1.1586032
1.1586032
1.1586032
1.1586033
1.1586034
1.1586025
1.1585819
1.1585848
1.1585846
1.1585844
1.1585842
1.1585842
1.1585843
1.1585846
1.1585847
1.1585819
1.1585462
1.1585536
1.1585534
1.1585528
1.1585524
1.1585524
1.1585527
1.1585533
1.1585535
1.1585461
1.1584893
1.1585058
1.1585056
1.1585042
1.1585034
1.1585034
1.1585041
1.1585055
1.1585056
1.1584891
1.1584043
1.1584369
1.1584371
1.1584341
1.1584324
1.1584323
1.1584339
1.1584368
1.1584364
1.1584037
1.158282
1.1583423
1.1583434
1.1583375
1.1583342
1.1583339
1.158337
1.1583427
1.1583413
1.1582807
1.1581095
1.1582173
1.1582202
1.1582091
1.1582029
1.1582022
1.1582081
1.1582188
1.1582154
1.158107
1.1578669
1.1580569
1.1580636
1.1580435
1.1580318
1.1580299
1.1580415
1.1580612
1.1580537
1.1578626
1.1575062
1.1578536
1.157869
1.1578303
1.1578014
1.1577902
1.1578238
1.157864
1.1578484
1.1575001
1.1567186
1.1575703
1.157604
1.1574601
1.1572322
1.1570485
1.1573872
1.1575781
1.1575618
1.1567245
1.154273
1.1569585
1.1567561
1.1550661
1.1511525
1.1477732
1.1537809
1.1563751
1.1569067
1.1543182
1.1408156
1.1539438
1.1492214
1.127971
1.0699803
1.0340894
1.1124211
1.1444879
1.1533299
1.141714
1.107093
1.141377
1.1169107
1.0522366
0.98419563
0.9804542
1.0299026
1.1035991
1.138586
1.1080552
1.0631328
1.1146182
1.0688014
0.99620773
0.96892978
0.96992446
0.99527328
1.0589959
1.1107383
1.0635702
1.0203715
1.0802109
1.0394705
0.99093403
0.96208276
0.96438605
0.99284211
1.035512
1.0756347
1.0200341
0.98161514
1.0392322
1.0357035
0.99230825
0.95650451
0.95819343
0.9934731
1.0331046
1.0336998
0.98031767
0.94806048
0.99929121
1.0155829
0.99420589
0.94979406
0.95019228
0.98894336
1.0077701
0.99280849
0.94589248
0.92030443
0.96433808
0.98631006
0.97970102
0.94393858
0.94039766
0.97155334
0.97707063
0.95781205
0.91759506
0.89836937
0.93612344
0.95856398
0.95982682
0.93477116
0.92975192
0.95208983
0.95062269
0.93109445
0.89549042
0.88170273
0.91543812
0.93614098
0.94040852
0.92361971
0.91825356
0.93416489
0.929775
0.91134021
0.87890754
0.86935777
0.89948335
0.9182054
0.92261204
0.91232248
0.90717711
0.91791371
0.91305506
0.8959297
0.86676418
0.86027873
0.88659711
0.90349432
0.90796297
0.90227816
0.89755744
0.90369774
0.8992043
0.88338071
0.85791287
0.8534957
0.87575801
0.89098976
0.89305561
0.89374096
0.88990932
0.89013417
0.88737832
0.8727898
0.8513316
0.84818975
0.86721122
0.88043662
0.87698412
0.88773862
0.88316266
0.8747053
0.87744175
0.8645799
0.84617819
0.84364594
0.86030475
0.87154216
0.86229935
0.87562141
0.86845757
0.85910793
0.86904182
0.85796113
0.84172724
0.83913758
0.85434299
0.863169
0.84512792
0.85179553
0.84592155
0.84133617
0.86142326
0.85223097
0.83724143
0.83362273
0.84854493
0.84633114
0.82121534
0.81864216
0.81611802
0.82118436
0.84605342
0.8466067
0.83164786
0.82551599
0.84197702
0.822769
0.79767028
0.77967068
0.78119432
0.79581848
0.81542674
0.8385688
0.82331426
)
;
    }
    minX
    {
        type            calculated;
        value           nonuniform List<scalar> 
40
(
1.1586222
1.1586212
1.1586201
1.1586191
1.1586222
1.1586212
1.1586201
1.1586191
1.1586222
1.1586212
1.1586201
1.1586191
1.1586222
1.1586212
1.1586201
1.1586191
1.1586222
1.1586212
1.1586201
1.1586191
1.1586222
1.1586212
1.1586201
1.1586191
1.1586222
1.1586212
1.1586201
1.1586191
1.1586222
1.1586212
1.1586201
1.1586191
1.1586222
1.1586212
1.1586201
1.1586191
1.1586222
1.1586212
1.1586201
1.1586191
)
;
    }
    maxX
    {
        type            calculated;
        value           nonuniform List<scalar> 
40
(
0.71920897
0.77700286
0.805682
0.8255474
0.77310852
0.92280261
0.86957279
0.84194781
0.79817631
0.88814771
0.8498933
0.82310376
0.70644143
0.83060274
0.82115596
0.79798086
0.64777047
0.71452109
0.76603448
0.77912287
0.64740758
0.70871595
0.75972362
0.78179917
0.70401651
0.82649576
0.81573003
0.79626907
0.79465986
0.88066976
0.8427022
0.81572591
0.76878852
0.91744829
0.86561002
0.83864542
0.71614549
0.77385455
0.8029529
0.82335609
)
;
    }
    minZ
    {
        type            calculated;
        value           nonuniform List<scalar> 
120
(
1.068596
1.1565234
1.1585734
1.158618
0.99698012
1.1525885
1.1584415
1.1586136
0.93997458
1.1472481
1.1581967
1.1586031
0.89281653
1.1407726
1.1578154
1.1585824
0.85246825
1.1333616
1.1572775
1.1585467
0.8171524
1.1251755
1.1565663
1.1584899
0.78588972
1.1163599
1.1556688
1.1584048
0.75833963
1.1062632
1.1545559
1.1582825
0.7344568
1.0926985
1.1531437
1.15811
0.71379908
1.0749934
1.1513337
1.1578674
0.6961383
1.0506943
1.1488325
1.1575067
0.68144675
1.0192675
1.1407257
1.1567191
0.67010425
0.9815757
1.1200657
1.1542735
0.67062499
0.94406537
1.0864209
1.1408161
0.67446634
0.91029615
1.0448894
1.1070934
0.68163457
0.88251489
1.001216
1.0631333
0.69130486
0.86110461
0.96089967
1.0203719
0.70214249
0.84562652
0.92639006
0.98161552
0.7128211
0.8354408
0.89858489
0.94806083
0.722366
0.82977599
0.87747528
0.92030477
0.73023899
0.82752429
0.86239317
0.89836968
0.73623879
0.82732788
0.85218035
0.88170303
0.74037459
0.8279192
0.84549662
0.86935806
0.7427585
0.82828985
0.84107916
0.86027902
0.74352895
0.82766257
0.83785677
0.85349599
0.7427726
0.82533806
0.83492626
0.84819003
0.7404492
0.82052278
0.83146648
0.84364622
0.73628811
0.81207386
0.82654626
0.83913785
0.72956555
0.79797359
0.81862165
0.833623
0.71914336
0.77691145
0.8055988
0.82551626
)
;
    }
    maxZ
    {
        type            calculated;
        value           nonuniform List<scalar> 
120
(
1.0684961
1.1565209
1.1585734
1.158618
0.99681132
1.1525813
1.1584413
1.1586136
0.9397567
1.1472348
1.1581962
1.1586031
0.89256326
1.1407518
1.1578144
1.1585824
0.85219085
1.1333325
1.1572758
1.1585466
0.81685939
1.1251374
1.1565634
1.1584896
0.78559
1.1163101
1.155664
1.1584042
0.75804135
1.1061346
1.1545466
1.1582813
0.73416061
1.09243
1.1531265
1.1581075
0.71350335
1.0745914
1.1513095
1.1578631
0.69584294
1.0504045
1.1488293
1.1575006
0.68116105
1.0193758
1.1411817
1.156725
0.66985672
0.98226247
1.1216743
1.1543187
0.6704444
0.94516544
1.0888057
1.1417145
0.67436574
0.9113936
1.0474919
1.1080557
0.68155784
0.88318167
1.0035267
1.0635706
0.69113974
0.86109072
0.96237734
1.0200345
0.70177573
0.84492923
0.92682121
0.98031804
0.71218871
0.83424955
0.89807739
0.94589283
0.72147581
0.82833231
0.87632155
0.91759539
0.72914395
0.82596765
0.86088631
0.89549074
0.73500725
0.82571539
0.8505296
0.87890785
0.73905198
0.82624833
0.84381471
0.86676447
0.74134055
0.82651737
0.83939871
0.85791316
0.74196368
0.82573687
0.83616033
0.85133189
0.74098611
0.82322762
0.83317479
0.84617847
0.73837649
0.8182126
0.82961416
0.84172752
0.73389076
0.80955506
0.82453553
0.83724171
0.72683208
0.79522565
0.81635343
0.83164813
0.71611199
0.77379747
0.80289936
0.82331453
)
;
    }
    topAir_to_rightSolid
    {
        type            calculated;
        value           nonuniform List<scalar> 
130
(
0.46190162
0.45698467
0.45196504
0.44709022
0.44254056
0.43844145
0.4348525
0.4317978
0.42928125
0.42728881
0.42580892
0.42483071
0.42434396
0.46549418
0.45969739
0.45393693
0.44849478
0.4435298
0.4391264
0.43532677
0.4321295
0.42951548
0.42745618
0.42593372
0.42493047
0.4244321
0.47287745
0.46499417
0.45760289
0.45098673
0.4452179
0.44027223
0.43609653
0.43265166
0.42987059
0.42770193
0.42610947
0.42506485
0.42454738
0.48435903
0.47235355
0.46224394
0.45391177
0.44707213
0.44145793
0.43687098
0.43315708
0.43020021
0.42791822
0.42625429
0.42516806
0.4246309
0.49868982
0.47955938
0.4661193
0.45610361
0.44835884
0.44223686
0.43735723
0.4334679
0.43039953
0.42804561
0.42633795
0.42522483
0.42467451
0.49866631
0.47953754
0.46609474
0.4560823
0.4483445
0.44223138
0.43735727
0.43347272
0.43040943
0.42805862
0.42635254
0.42524033
0.42469116
0.48428177
0.47229208
0.46218754
0.4538629
0.44703773
0.44144545
0.43687928
0.43318328
0.43023973
0.42796551
0.4263055
0.42521904
0.42468057
0.47276256
0.46491382
0.45754883
0.4509524
0.44520579
0.44028881
0.43614746
0.43272116
0.42995227
0.42779153
0.42620156
0.42515592
0.42463606
0.46535627
0.4596091
0.45389623
0.44849076
0.44356482
0.43919972
0.43542695
0.43224431
0.42963701
0.42758384
0.42606115
0.42505391
0.42455151
0.46175847
0.45690021
0.45193681
0.44711405
0.44261393
0.43854965
0.4349832
0.43194098
0.42942819
0.42743903
0.42595796
0.42497469
0.42448312
)
;
    }
    topAir_to_heater
    {
        type            calculated;
        value           nonuniform List<scalar> 
40
(
0.47420442
0.47281531
0.47014105
0.46639929
0.48029733
0.47863653
0.47542338
0.47090494
0.49365228
0.49140173
0.4869613
0.48057432
0.51709099
0.51400476
0.5075456
0.49745719
0.55577013
0.55253398
0.54429144
0.52842026
0.55574965
0.55251578
0.54427051
0.52839829
0.51698454
0.51392049
0.50745276
0.49736767
0.49347662
0.49124363
0.48680713
0.48043042
0.48007679
0.47842271
0.47521029
0.47071744
0.47396098
0.47257383
0.46990777
0.46619836
)
;
    }
    topAir_to_leftSolid
    {
        type            calculated;
        value           nonuniform List<scalar> 
130
(
0.37716738
0.37718611
0.37722319
0.37727609
0.37734247
0.37742048
0.37751006
0.37760466
0.37770222
0.37780441
0.37790259
0.37798652
0.37803567
0.37712571
0.37714537
0.37718348
0.37723703
0.37730206
0.37737889
0.37747275
0.37757547
0.37767863
0.37778157
0.37788367
0.3779841
0.37806307
0.37705566
0.37707886
0.37712342
0.37718224
0.3772488
0.37732664
0.37742295
0.37753294
0.37764017
0.37774663
0.37785241
0.37795836
0.37804778
0.37697376
0.37699539
0.37704316
0.3771149
0.37718939
0.3772745
0.37737271
0.37748176
0.37759408
0.37771439
0.37783148
0.37794016
0.37802779
0.37691878
0.37693647
0.37697765
0.37704332
0.37712596
0.37721685
0.37731582
0.3774226
0.37754724
0.37768709
0.37782227
0.37794544
0.37802967
0.37688243
0.37689685
0.37693206
0.37698893
0.37706562
0.37715409
0.37725453
0.37737084
0.3775076
0.37766411
0.37781238
0.37794234
0.37802725
0.3768626
0.3768757
0.37690851
0.37696184
0.37703435
0.37711995
0.3772209
0.37733962
0.37747761
0.37763874
0.37779057
0.37791444
0.37799062
0.37685579
0.37686919
0.37690244
0.37695599
0.37702475
0.37710727
0.37720597
0.37732198
0.37745443
0.37759251
0.37772687
0.37784762
0.37792912
0.37685798
0.3768722
0.37690687
0.37696337
0.37703442
0.3771183
0.37721656
0.37732883
0.37745212
0.37757648
0.37769634
0.37780431
0.37787912
0.3768578
0.37687284
0.37690849
0.37696628
0.37704423
0.37713142
0.37722937
0.37733661
0.37745151
0.37756739
0.37767744
0.37777443
0.37784251
)
;
    }
}


// ************************************************************************* //
