/*--------------------------------*- C++ -*----------------------------------*\
| =========                 |                                                 |
| \\      /  F ield         | OpenFOAM: The Open Source CFD Toolbox           |
|  \\    /   O peration     | Version:  v2012                                 |
|   \\  /    A nd           | Website:  www.openfoam.com                      |
|    \\/     M anipulation  |                                                 |
\*---------------------------------------------------------------------------*/
FoamFile
{
    version     2.0;
    format      ascii;
    class       volScalarField;
    location    "630/topAir";
    object      T;
}
// * * * * * * * * * * * * * * * * * * * * * * * * * * * * * * * * * * * * * //

dimensions      [0 0 0 1 0 0 0];


internalField   nonuniform List<scalar> 
1200
(
325.27414
348.6395
369.78302
389.31474
407.74143
425.36327
442.28421
458.35215
473.25669
486.95298
499.30679
510.0715
518.7052
518.30241
515.35047
509.93091
502.79775
495.03702
487.62097
481.17784
475.99007
472.1111
469.47384
467.96705
467.48213
467.95815
469.42651
472.07945
476.42941
483.33407
300.54415
301.57022
302.974
304.6938
306.68619
308.91745
311.35689
314.19859
318.09905
323.33811
330.81585
341.01582
354.11057
368.18035
381.83871
393.85885
403.65165
411.03995
416.05136
418.8917
420.03151
420.13122
419.83115
419.64327
419.96132
421.1441
423.61561
428.02296
435.58616
447.39495
300.01209
300.04627
300.10967
300.20851
300.34804
300.53274
300.76614
301.05604
301.42474
301.8986
302.55589
304.70605
310.32647
319.93681
332.65341
347.16388
361.72977
375.20482
386.81489
396.12058
403.0482
407.87847
411.10279
413.26196
414.85135
416.30744
418.03972
420.52821
424.5991
431.46293
300.00029
300.00142
300.00414
300.00949
300.01874
300.03346
300.0555
300.08717
300.13187
300.19475
300.2883
300.49276
301.12943
304.68164
313.96241
326.94465
340.64614
354.09562
366.62812
377.68551
386.90729
394.22093
399.81891
404.03844
407.24948
409.79708
412.00422
414.21776
416.95803
421.05263
325.27182
348.38915
369.04341
387.84478
405.2633
421.53951
436.72959
450.7603
463.40872
474.31148
482.95769
488.73876
490.8592
481.90195
470.16433
457.5459
446.28333
437.69282
431.92581
428.41905
426.44272
425.48555
425.27287
425.68835
426.69094
428.3227
430.73318
434.29935
440.00285
449.66665
300.54349
301.55054
302.90132
304.52296
306.36028
308.36653
310.49303
312.68353
314.86925
316.9578
318.82446
320.30952
321.22056
321.30334
320.84074
320.56502
321.21557
322.95616
325.46481
328.33184
331.33639
334.48197
337.84022
341.51825
345.63642
350.30507
355.57148
361.40118
367.92022
376.62546
300.01205
300.04532
300.10545
300.19671
300.32203
300.48316
300.68035
300.91201
301.17421
301.45907
301.75281
302.05767
302.36589
302.73338
303.81111
306.48527
311.54199
318.52845
326.21876
333.41222
339.6535
345.82295
352.01472
358.2231
364.23
370.42158
377.07479
384.14683
391.6579
399.6648
300.00029
300.00138
300.00392
300.00875
300.01681
300.02919
300.04704
300.07155
300.10394
300.1455
300.19819
300.27167
300.43045
301.21533
304.53176
311.84271
321.77566
334.46383
347.83213
360.43956
371.30318
379.69319
386.42808
392.04463
396.8969
400.80852
404.02619
406.84556
409.62552
412.82084
325.2754
348.44034
369.15951
388.04159
405.5647
421.9829
437.40393
451.85036
465.23868
477.35861
487.81629
495.94611
500.53466
492.64002
481.59376
469.66265
458.46226
448.45448
439.68867
432.15329
425.82058
420.72215
416.97034
414.67883
413.88972
414.54699
416.5586
419.96882
425.64246
435.52924
300.54366
301.55426
302.91154
304.54176
306.39043
308.41349
310.56933
312.81289
315.08544
317.30539
319.3432
320.99143
321.94903
321.9306
321.55424
321.65759
322.3851
323.56431
325.17325
327.23683
329.80845
333.02633
337.06439
342.03748
347.97852
354.89953
362.78089
371.4081
380.60187
391.28829
300.01206
300.04548
300.10595
300.1977
300.32357
300.48527
300.68323
300.9163
301.18083
301.46868
301.76324
302.03339
302.25375
302.77819
305.08062
309.42001
313.98189
317.79101
321.57979
325.76269
330.6244
336.62134
343.97985
352.54009
361.93903
371.63202
381.00048
389.6195
398.6686
408.91605
300.00029
300.00138
300.00394
300.00879
300.01687
300.02924
300.04699
300.07127
300.10319
300.14376
300.1942
300.26294
300.48301
302.4531
311.20266
325.21064
334.38715
335.60337
342.2523
352.41007
362.61075
371.29622
378.54888
384.71258
390.11182
394.78781
398.8168
402.68553
410.69702
422.4584
325.28331
348.47146
369.2367
388.19423
405.84256
422.47143
438.24019
453.23461
467.48634
480.92737
493.30973
504.01444
511.74861
507.39191
503.32049
501.49894
501.63251
502.43082
502.69171
501.61843
498.8976
494.74128
489.6486
484.09118
478.57848
473.9976
471.81403
473.93836
481.45957
492.03549
300.54387
301.55611
302.91811
304.55771
306.42304
308.47487
310.67952
313.0032
315.40356
317.81231
320.09749
322.00457
323.16989
323.68659
324.67161
326.21102
328.00406
329.84266
331.69494
333.66818
336.0179
339.06455
343.02245
347.90311
353.67829
360.44837
368.09591
376.75765
390.14875
418.28324
300.01207
300.04555
300.1063
300.1987
300.32587
300.48997
300.69217
300.93235
301.20814
301.51226
301.82571
302.10814
302.3957
304.10381
308.90741
313.19096
316.13715
318.35294
320.97697
324.77988
330.315
337.90294
347.23995
357.58158
368.53021
379.71026
389.59908
398.52329
408.58862
423.1601
300.00029
300.00139
300.00396
300.00885
300.01703
300.0296
300.04776
300.07279
300.10605
300.14897
300.20424
300.30026
300.92267
308.15115
330.33027
348.90875
350.76562
350.27985
349.61128
354.78742
362.13367
369.6113
376.74083
382.81918
389.20941
396.34202
403.09164
411.28173
423.25766
435.7511
325.28783
348.4854
369.26592
388.24413
405.91821
422.57999
438.39189
453.44077
467.73542
481.1627
493.34987
503.4293
510.06098
504.60674
501.68391
501.9852
504.23679
507.55835
511.43751
515.45968
519.23335
522.39551
524.65354
525.83964
525.98031
525.40877
524.87479
525.54687
528.88862
536.54873
300.54398
301.55695
302.92094
304.5642
306.43527
308.49547
310.71172
313.05007
315.46469
317.87323
320.10477
321.83141
322.74061
323.82612
325.52163
327.54934
330.37821
334.6473
339.88672
345.64583
352.12941
360.32453
371.05737
383.95946
398.51566
414.01493
429.98102
446.47429
464.39473
486.12965
300.01207
300.04559
300.10647
300.19918
300.32695
300.49209
300.69593
300.93849
301.2172
301.52309
301.83106
302.09417
302.57427
307.0093
311.51331
314.46083
316.05648
317.6302
319.59934
323.14316
329.10087
337.93616
348.45659
359.41453
369.79055
380.80682
393.9487
409.69461
428.96385
453.42403
300.00029
300.00139
300.00397
300.00888
300.01712
300.02981
300.0482
300.07365
300.10766
300.15201
300.21173
300.3594
301.94573
324.85232
353.16718
358.73146
361.28451
363.39149
365.95891
368.22905
371.84033
376.32981
380.98988
385.23114
388.91095
391.54054
396.95884
408.06234
424.58808
445.81095
325.29138
348.49244
369.27665
388.25915
405.93789
422.60402
438.4175
453.46123
467.73482
481.09885
493.1208
502.84983
509.13858
504.38875
502.66451
504.0148
506.14551
509.39057
513.23884
517.27535
521.09634
524.31494
526.61545
527.81121
527.90568
527.19714
526.4003
526.7191
529.69035
536.99648
300.54406
301.55717
302.92136
304.56489
306.43628
308.49676
310.71285
313.04963
315.45851
317.84944
320.03346
321.65949
322.50762
323.88051
325.75497
327.91063
331.92013
337.63864
344.73388
353.05999
362.59876
373.52081
385.9502
399.64997
414.01732
428.31486
442.40349
456.52792
471.79079
490.78754
300.01207
300.0456
300.10648
300.19921
300.32701
300.49219
300.69608
300.9386
301.21691
301.52099
301.82284
302.07808
302.74409
307.79049
311.5243
313.8015
315.32762
317.25382
319.86747
323.5351
329.4775
338.46838
350.03668
362.46105
374.88406
388.03818
402.06476
417.555
435.53748
457.91948
300.00029
300.00139
300.00397
300.00889
300.01713
300.02982
300.04823
300.07372
300.10784
300.1525
300.21463
300.40708
302.8347
336.12721
354.51487
358.36357
360.42164
362.75097
365.80554
369.61556
373.8477
378.52903
383.1508
387.25727
390.58547
393.56924
400.23333
410.89589
425.90128
444.94145
325.29416
348.49282
369.26878
388.2377
405.89648
422.53433
438.31004
453.30547
467.54119
480.92945
493.17742
503.58343
510.84827
506.57812
503.39633
502.7094
503.75705
505.17285
505.94119
505.26759
502.76257
498.62693
493.42792
487.73299
482.05443
477.21176
474.5902
476.2545
483.2163
493.81264
300.5441
301.55678
302.91939
304.55973
306.42588
308.47849
310.68355
313.0063
315.40192
317.79563
320.04087
321.85924
322.90616
323.58706
324.85466
326.5552
328.44529
330.38642
332.36956
334.51448
337.07931
340.36704
344.54648
349.58957
355.43221
362.21568
369.75016
378.38192
392.01128
420.61639
300.01207
300.04557
300.10635
300.19879
300.32603
300.49022
300.69254
300.93279
301.20836
301.51108
301.81954
302.09088
302.43031
304.94796
309.7684
313.35142
315.76363
317.88615
320.66407
324.76031
330.67837
338.81641
348.99228
360.40391
372.2699
384.06012
394.24222
403.25033
413.08114
426.3302
300.00029
300.00139
300.00396
300.00886
300.01705
300.02963
300.04782
300.07292
300.1063
300.14949
300.20591
300.31916
301.25787
312.45864
337.49365
349.23633
350.0915
349.86915
351.47169
357.76276
365.07649
372.08166
378.66918
384.62599
390.4868
397.37459
404.58906
413.13531
423.27363
436.76506
325.29506
348.47893
369.21653
388.11643
405.65632
422.09021
437.52668
451.98505
465.37626
477.478
487.86899
495.82762
500.07907
491.90588
481.06877
469.77309
459.26082
449.75434
441.24878
433.75123
427.28773
422.01163
418.18777
416.03175
415.5716
416.63288
418.97505
422.50836
428.05326
437.40505
300.54408
301.55548
302.91384
304.54539
306.39558
308.42028
310.57775
312.82223
315.09355
317.30536
319.31902
320.9103
321.76872
321.7215
321.54703
321.88965
322.76185
324.02615
325.70592
327.83873
330.51755
333.93995
338.30991
343.7019
350.03688
357.23689
365.3183
374.1818
383.67675
394.71987
300.01207
300.04551
300.10604
300.19786
300.32385
300.48573
300.68394
300.91728
301.18196
301.46931
301.7611
302.02345
302.24617
303.0257
305.93217
310.38004
314.61971
318.2519
322.06407
326.28892
331.34177
337.81187
345.914
355.29878
365.22332
374.87103
383.84508
392.07276
401.18556
412.57719
300.00029
300.00138
300.00395
300.0088
300.01689
300.02928
300.04708
300.07145
300.10354
300.14439
300.19549
300.26965
300.58201
303.704
314.95639
328.22185
335.66544
336.44762
344.90563
355.74255
365.63992
373.83842
380.68419
386.54801
391.6995
396.1353
399.96425
403.50161
410.83183
426.26231
325.29813
348.44004
369.11689
387.93879
405.37549
421.66669
436.86788
450.90601
463.55797
474.46091
483.09305
488.81158
490.75897
481.52504
469.5773
457.00539
446.05923
437.92106
432.56962
429.31523
427.43587
426.46305
426.20127
426.61995
427.73065
429.58027
432.28271
436.16124
442.16597
452.11973
300.54405
301.55213
302.9043
304.52757
306.3667
308.37485
310.50328
312.69597
314.88304
316.97105
318.82977
320.2889
321.14285
321.15439
320.69303
320.542
321.39594
323.33149
325.97314
328.91305
332.00566
335.27041
338.79523
342.68705
347.0396
351.92765
357.37923
363.35071
369.98425
378.88033
300.01206
300.04536
300.10556
300.19692
300.32239
300.48376
300.6813
300.91349
301.17642
301.46193
301.7554
302.05505
302.35354
302.74651
304.00985
307.01549
312.41577
319.63605
327.37908
334.33229
340.7315
347.04848
353.3641
359.67154
365.76162
372.07983
378.84899
385.96179
393.46453
401.58225
300.00029
300.00138
300.00393
300.00876
300.01684
300.02925
300.04716
300.0718
300.10441
300.14633
300.19954
300.27388
300.44389
301.37567
305.27827
312.93201
323.14463
336.25388
350.10336
362.89541
373.30865
381.40051
387.96083
393.47207
398.24669
402.02837
405.12984
407.85383
410.56333
414.49868
325.30458
348.69853
369.86875
389.4252
407.87416
425.51585
442.45295
458.53251
473.44762
487.15481
499.51872
510.28545
518.89688
518.44202
515.42734
509.98831
502.91787
495.29572
488.05395
481.77154
476.70492
472.90215
470.31401
468.86212
468.46834
469.08638
470.74425
473.62156
478.22116
485.38007
300.5448
301.57209
302.97753
304.69936
306.69406
308.9279
311.37078
314.23513
318.17723
323.45908
330.90712
340.97957
353.86298
367.75183
381.37892
393.56149
403.65816
411.37917
416.64545
419.62178
420.82311
420.95167
420.68015
420.54321
420.94071
422.22376
424.81167
429.35468
437.09136
449.19539
300.01211
300.04632
300.1098
300.20876
300.34849
300.53349
300.76738
301.05848
301.42924
301.90496
302.55672
304.5843
309.88142
319.23604
331.82692
346.3645
361.17436
375.03028
387.03348
396.6421
403.75368
408.67011
411.92221
414.0893
415.69303
417.18259
418.9731
421.55372
425.77885
432.91356
300.00029
300.00142
300.00415
300.0095
300.01877
300.03353
300.05565
300.0875
300.13251
300.19588
300.28987
300.49123
301.11765
304.4419
313.68976
326.8102
340.7588
354.56427
367.46844
378.8007
388.15118
395.47467
401.01528
405.15266
408.28472
410.77127
412.94338
415.15586
417.94816
422.17863
)
;

boundaryField
{
    maxY
    {
        type            zeroGradient;
    }
    minX
    {
        type            fixedValue;
        value           uniform 300;
    }
    maxX
    {
        type            inletOutlet;
        inletValue      uniform 300;
        value           nonuniform List<scalar> 
40
(
483.28999
447.34232
431.41838
421.03674
449.59598
376.66361
399.72038
412.83528
435.4758
391.36079
408.97603
422.28671
492.02452
418.4747
423.28867
435.58164
536.58904
486.46053
453.74728
446.12455
536.88981
490.44516
457.51647
444.59735
493.71926
420.55416
426.10423
436.51805
437.40283
394.68392
412.46598
426.10611
452.12236
378.86186
401.5503
414.46094
485.35738
449.16227
432.88471
422.1573
)
;
    }
    minZ
    {
        type            zeroGradient;
    }
    maxZ
    {
        type            zeroGradient;
    }
    topAir_to_rightSolid
    {
        type            compressible::turbulentTemperatureCoupledBaffleMixed;
        refValue        nonuniform List<scalar> 
130
(
752.59499
760.69666
769.14894
777.53865
785.53518
792.88162
799.42719
805.08385
809.80417
813.58048
816.40773
818.28654
819.22313
746.80394
756.22477
765.82413
775.11915
783.79784
791.65891
798.56973
804.47893
809.37526
813.27436
816.18066
818.10613
819.06381
735.13806
747.60649
759.68666
770.83563
780.82701
789.60092
797.16349
803.51199
808.71099
812.81155
815.84858
817.85207
818.8459
717.69104
735.93609
752.03542
765.84387
777.5641
787.45634
795.72772
802.5534
808.07206
812.38282
815.55393
817.63552
818.66663
697.06056
724.87273
745.77713
762.15625
775.32326
786.05782
794.82941
801.96254
807.6812
812.1239
815.37727
817.51108
818.56824
697.09283
724.90517
745.81586
762.19127
775.34747
786.06694
794.82872
801.95303
807.66207
812.09876
815.34901
817.48105
818.53605
717.8047
736.03088
752.12607
765.92517
777.62276
787.47747
795.71148
802.5038
807.99684
812.29219
815.45526
817.53693
818.57031
735.31635
747.73524
759.77594
770.89387
780.84786
789.5708
797.06997
803.38238
808.55665
812.6405
815.67145
817.67607
818.67424
747.02523
756.36986
765.89253
775.12578
783.73564
791.52644
798.38569
804.26489
809.14588
813.03099
815.9359
817.86778
818.83257
752.82827
760.83717
769.19682
777.49699
785.40469
792.68569
799.18667
804.81664
809.52667
813.29408
816.12153
818.00868
818.95385
)
;
        refGradient     uniform 0;
        valueFraction   uniform 0.99967867;
        value           nonuniform List<scalar> 
130
(
752.51223
760.60892
769.05641
777.44176
785.43447
792.77771
799.32068
804.97538
809.69433
813.4699
816.29709
818.17668
819.11519
746.70462
756.12057
765.71572
775.00712
783.68271
791.54118
798.44992
804.35754
809.25282
813.15144
816.05795
817.98462
818.94509
735.04595
747.50756
759.58142
770.72478
780.71131
789.48118
797.04059
803.38679
808.58433
812.68422
815.72137
817.72604
818.72272
717.62188
735.86116
751.95497
765.75812
777.47325
787.36066
795.6276
802.44932
807.96473
812.2734
815.44418
817.5275
818.56167
696.99967
724.80415
745.70313
762.0782
775.242
785.97383
794.74298
801.87387
807.59051
812.03161
815.28414
817.41835
818.47763
697.03252
724.83715
745.74242
762.1138
775.2668
785.98355
794.7429
801.86494
807.57192
812.00693
815.25623
817.38855
818.44555
717.73636
735.95693
752.04672
765.84057
777.53307
787.38294
795.61247
802.40078
807.89051
812.18365
815.34623
817.42948
818.46593
735.22458
747.63675
759.67117
770.78345
780.73254
789.45145
796.94753
803.25776
808.43072
812.51401
815.54512
817.55088
818.55173
746.92591
756.26581
765.78438
775.01406
783.62084
791.40905
798.26623
804.1439
809.02392
812.90865
815.81387
817.74706
818.71474
752.74552
760.74952
769.10445
777.40034
785.30427
792.5821
799.08053
804.70855
809.41728
813.18401
816.01147
817.89949
818.84666
)
;
        Tnbr            T;
        thicknessLayers List<scalar> 0();
        kappaLayers     List<scalar> 0();
        kappaMethod     fluidThermo;
        kappa           none;
        alphaAni        none;
        alpha           none;
        field           T;
    }
    topAir_to_heater
    {
        type            compressible::turbulentTemperatureCoupledBaffleMixed;
        refValue        nonuniform List<scalar> 
40
(
733.05804
735.21315
739.39787
745.33339
723.76833
726.284
731.19767
738.21869
704.18032
707.40964
713.86549
723.35858
672.24929
676.28794
684.89719
698.79009
625.45327
629.11838
638.64783
657.83383
625.47639
629.13879
638.67175
657.86057
672.38802
676.39885
685.02215
698.91523
704.43129
707.63753
714.0916
723.57506
724.10101
726.60885
731.52578
738.51288
733.4346
735.5889
739.765
745.65467
)
;
        refGradient     uniform 0;
        valueFraction   uniform 0.99967867;
        value           nonuniform List<scalar> 
40
(
732.98904
735.14251
739.32413
745.25546
723.69062
726.2017
731.10974
738.12489
704.11235
707.33709
713.78703
723.27348
672.19632
676.23237
684.83827
698.72675
625.41444
629.07743
638.60392
657.78447
625.43748
629.09815
638.62848
657.81182
672.33474
676.34325
684.96356
698.85251
704.36299
707.56472
714.01308
723.49012
724.02306
726.52626
731.43757
738.4189
733.36552
735.51815
739.69116
745.57667
)
;
        Tnbr            T;
        thicknessLayers List<scalar> 0();
        kappaLayers     List<scalar> 0();
        kappaMethod     fluidThermo;
        kappa           none;
        alphaAni        none;
        alpha           none;
        field           T;
    }
    topAir_to_leftSolid
    {
        type            compressible::turbulentTemperatureCoupledBaffleMixed;
        refValue        nonuniform List<scalar> 
130
(
921.76342
921.71008
921.61262
921.47707
921.30899
921.11283
920.88876
920.65283
920.41017
920.15673
919.91365
919.70585
919.58345
921.86526
921.80974
921.70991
921.57297
921.40848
921.2156
920.9816
920.72647
920.47084
920.21647
919.96499
919.71863
919.5258
922.03655
921.97233
921.85668
921.70679
921.53849
921.34305
921.10292
920.82985
920.56401
920.30062
920.03955
919.77898
919.55987
922.2369
922.17647
922.05291
921.87135
921.68357
921.47024
921.22529
920.95428
920.67569
920.37804
920.08875
919.82068
919.6049
922.37143
922.32062
922.21314
922.04637
921.83859
921.61106
921.36415
921.0986
920.78984
920.4445
920.11116
919.80801
919.60088
922.4604
922.4176
922.3247
922.17942
921.98611
921.76443
921.51387
921.22494
920.88653
920.50054
920.13535
919.81573
919.60706
922.50895
922.46937
922.38234
922.2457
922.0626
921.8479
921.59606
921.30121
920.95978
920.56244
920.18845
919.88343
919.69564
922.52562
922.48532
922.3972
922.26005
922.08616
921.87904
921.63279
921.34472
921.01704
920.67626
920.34537
920.04863
919.84881
922.52026
922.47797
922.38639
922.24205
922.06261
921.8522
921.60713
921.32833
921.02326
920.71634
920.42131
920.15637
919.97352
922.5207
922.4763
922.38219
922.23446
922.03779
921.81889
921.57403
921.30688
921.02157
920.7344
920.46206
920.22221
920.05359
)
;
        refGradient     uniform 0;
        valueFraction   uniform 0.99967867;
        value           nonuniform List<scalar> 
130
(
921.57175
921.52594
921.43531
921.30607
921.14397
920.95354
920.73498
920.50429
920.26649
920.01753
919.7785
919.57422
919.45464
921.67356
921.62548
921.53233
921.40147
921.24263
921.05504
920.826
920.57546
920.32397
920.07319
919.82457
919.58014
919.38806
921.8448
921.78804
921.67908
921.53531
921.3727
921.18259
920.9475
920.67916
920.4177
920.15829
919.90067
919.64279
919.42523
922.04508
921.99212
921.87527
921.69987
921.51782
921.3099
921.0701
920.80399
920.53006
920.23683
919.95161
919.68707
919.47385
922.17957
922.13624
922.03546
921.87485
921.67281
921.45071
921.20896
920.94833
920.64426
920.30334
919.97404
919.67421
919.46929
922.26851
922.23318
922.14699
922.00785
921.82029
921.60404
921.35864
921.07463
920.74092
920.35935
919.99814
919.68174
919.47517
922.31705
922.28494
922.20461
922.07411
921.89674
921.68745
921.44077
921.15083
920.81409
920.42117
920.05124
919.74966
919.56427
922.33372
922.30087
922.21945
922.08841
921.92022
921.71845
921.47723
921.1939
920.87064
920.53385
920.20641
919.91232
919.71392
922.32836
922.29351
922.20861
922.07037
921.89658
921.69148
921.45137
921.17718
920.87626
920.57295
920.28079
920.01777
919.8356
922.3288
922.29193
922.20465
922.06325
921.87258
921.65941
921.42008
921.15818
920.87775
920.59509
920.3268
920.09048
919.92468
)
;
        Tnbr            T;
        thicknessLayers List<scalar> 0();
        kappaLayers     List<scalar> 0();
        kappaMethod     fluidThermo;
        kappa           none;
        alphaAni        none;
        alpha           none;
        field           T;
    }
}


// ************************************************************************* //
