/*--------------------------------*- C++ -*----------------------------------*\
| =========                 |                                                 |
| \\      /  F ield         | OpenFOAM: The Open Source CFD Toolbox           |
|  \\    /   O peration     | Version:  v2012                                 |
|   \\  /    A nd           | Website:  www.openfoam.com                      |
|    \\/     M anipulation  |                                                 |
\*---------------------------------------------------------------------------*/
FoamFile
{
    version     2.0;
    format      ascii;
    class       volVectorField;
    location    "630/topAir";
    object      U;
}
// * * * * * * * * * * * * * * * * * * * * * * * * * * * * * * * * * * * * * //

dimensions      [0 1 -1 0 0 0 0];


internalField   nonuniform List<vector> 
1200
(
(0.1046586 -0.0024715349 0.00087945934)
(0.11850108 -0.0025470441 0.00132131)
(0.130383 -0.0023231178 0.0014026175)
(0.13965305 -0.0017599547 0.0012636326)
(0.14774621 -0.00092173563 0.00091829481)
(0.15530829 1.7322371e-05 0.00032553186)
(0.16260025 0.00095380275 -0.00054695037)
(0.16988845 0.0018189836 -0.0018531935)
(0.17737505 0.0027084188 -0.0038661821)
(0.18537607 0.0038126992 -0.0069095675)
(0.19405411 0.0054761854 -0.011397881)
(0.20305853 0.0080839306 -0.017750153)
(0.21083411 0.012036721 -0.026219618)
(0.21579447 0.016699761 -0.036615321)
(0.21804459 0.021896017 -0.048108687)
(0.21824664 0.026886981 -0.059464925)
(0.21665522 0.031086078 -0.069497859)
(0.21346928 0.034231396 -0.077491986)
(0.20916209 0.036249964 -0.08326553)
(0.20450156 0.037164621 -0.086997421)
(0.20032809 0.037118145 -0.089023525)
(0.19726227 0.036374109 -0.089693522)
(0.19555502 0.035195879 -0.089304241)
(0.19514507 0.033780757 -0.088078102)
(0.19577136 0.032285403 -0.086140341)
(0.19694991 0.030929945 -0.08346148)
(0.19772245 0.030115611 -0.079781042)
(0.19616939 0.03066185 -0.074519572)
(0.18879698 0.034499504 -0.066693307)
(0.14872292 0.047534104 -0.054306715)
(0.098687602 -0.0039107411 0.00084975393)
(0.098460065 -0.004723737 0.0012823518)
(0.09889515 -0.0047691122 0.0014633038)
(0.09979693 -0.0042951758 0.0015439444)
(0.10124496 -0.003494155 0.001551159)
(0.10326998 -0.0026176078 0.0014698725)
(0.10585171 -0.0018334666 0.001274819)
(0.10914252 -0.0012098985 0.00090813668)
(0.11364806 -0.00042896374 0.00024362068)
(0.11987486 0.00089760474 -0.00089614132)
(0.12880185 0.0036374652 -0.0028259342)
(0.14071151 0.0088423404 -0.0059292833)
(0.1552923 0.017326487 -0.010716772)
(0.17070609 0.027949893 -0.017277455)
(0.18492306 0.04008065 -0.025139454)
(0.19627834 0.052363937 -0.033325416)
(0.20370689 0.063747779 -0.040895713)
(0.20693003 0.073414052 -0.047350231)
(0.20655865 0.080686756 -0.052538023)
(0.20389293 0.085172379 -0.056465051)
(0.2004304 0.087009181 -0.059191318)
(0.19728524 0.086841669 -0.060754911)
(0.19497005 0.085375172 -0.061230031)
(0.19358391 0.083117488 -0.060736764)
(0.19303701 0.080366716 -0.059363478)
(0.19306893 0.077493861 -0.057021144)
(0.19303824 0.075234046 -0.053316562)
(0.1916508 0.075131414 -0.047372938)
(0.18750809 0.080444375 -0.037229842)
(0.16073246 0.095925762 -0.017995835)
(0.09881526 -0.0029238758 0.00087680939)
(0.097954635 -0.0042303771 0.0013304775)
(0.096306198 -0.0046379627 0.0015326176)
(0.094243547 -0.0047264524 0.0016534768)
(0.092233566 -0.0046866532 0.0017454393)
(0.090457642 -0.0046065681 0.0018207013)
(0.088902795 -0.0045917497 0.0018971984)
(0.087500126 -0.0046929871 0.0020165586)
(0.086299117 -0.0047381792 0.0022462334)
(0.085613433 -0.0046266415 0.0026192083)
(0.085973619 -0.0040790661 0.0030825828)
(0.089529582 -0.0015181569 0.0032175447)
(0.099594577 0.0060542462 0.0023552361)
(0.11526115 0.019475564 0.00035121454)
(0.13387367 0.036696766 -0.0026633512)
(0.15201378 0.054938521 -0.0058252225)
(0.16684971 0.07144323 -0.0085452499)
(0.17711453 0.085115578 -0.010656569)
(0.1830229 0.095490931 -0.012338648)
(0.18579029 0.10241845 -0.013860415)
(0.18692409 0.10603533 -0.015339028)
(0.18744837 0.10676266 -0.016637001)
(0.18767671 0.10523334 -0.017440402)
(0.18755346 0.10206116 -0.017636922)
(0.18702112 0.097718348 -0.017223989)
(0.18608867 0.09262748 -0.016084294)
(0.18461629 0.087509201 -0.013897253)
(0.18223416 0.083950767 -0.010060798)
(0.17928032 0.085531177 -0.0035254236)
(0.16342862 0.098397166 0.008867408)
(0.096858864 -0.0015578754 0.00084226282)
(0.094633495 -0.0023015201 0.0012576895)
(0.090906364 -0.0025276378 0.0014210143)
(0.086345392 -0.0025582581 0.0015010157)
(0.081771624 -0.0024958629 0.0015538781)
(0.077430051 -0.0023722509 0.0015959564)
(0.073282692 -0.0022284293 0.001651497)
(0.069229416 -0.0021044211 0.0017665661)
(0.065136129 -0.002039514 0.0020176511)
(0.060784021 -0.0022087466 0.0025167483)
(0.05575185 -0.0031176311 0.0035019243)
(0.049638457 -0.0047674302 0.0054220541)
(0.041879286 -0.0052194472 0.0089410718)
(0.037998314 0.0014841461 0.013816877)
(0.044887359 0.016809837 0.01945176)
(0.060165584 0.034053816 0.025444844)
(0.076906629 0.048774853 0.031144431)
(0.091913822 0.060684068 0.036262264)
(0.10466128 0.069880903 0.040589334)
(0.11566153 0.076374375 0.043659658)
(0.12544362 0.080163887 0.045536852)
(0.1341346 0.081293526 0.046480563)
(0.14153346 0.080122964 0.04665467)
(0.14731038 0.077179578 0.046252294)
(0.15127403 0.073015679 0.04550081)
(0.15352003 0.068089546 0.044665764)
(0.15446244 0.063020455 0.044008422)
(0.15511092 0.059019525 0.043502134)
(0.1593098 0.05882771 0.042709164)
(0.17869334 0.06812665 0.041906459)
(0.1059222 -0.0024725741 0.0010125269)
(0.12062147 -0.0025579818 0.0014161506)
(0.13375539 -0.0024239508 0.0014186377)
(0.1443642 -0.0020470939 0.0011893806)
(0.15360276 -0.0014978702 0.00074732594)
(0.1620514 -0.000957774 4.9554321e-05)
(0.16973413 -0.00057252098 -0.0009630353)
(0.1765663 -0.0004159019 -0.0024571827)
(0.18251638 -0.00055485076 -0.0046890233)
(0.18756345 -0.0010684118 -0.0079535114)
(0.19164201 -0.0020864835 -0.012604063)
(0.19465286 -0.0037506037 -0.018915269)
(0.1959929 -0.0061948876 -0.026859131)
(0.19537917 -0.010106507 -0.035719033)
(0.19451905 -0.014706506 -0.044253266)
(0.19477813 -0.019080729 -0.051369553)
(0.19598102 -0.022214863 -0.056786373)
(0.19714697 -0.023711607 -0.060835822)
(0.19750899 -0.023943403 -0.063878644)
(0.1969522 -0.023633454 -0.06607609)
(0.19590984 -0.02333725 -0.067494152)
(0.19496736 -0.023165697 -0.06818318)
(0.19451417 -0.023059815 -0.068181319)
(0.19469909 -0.022990171 -0.067509324)
(0.19558484 -0.022956724 -0.066134366)
(0.19724235 -0.022822135 -0.063919762)
(0.19964706 -0.02214905 -0.060519197)
(0.20252546 -0.019800991 -0.055309784)
(0.20524996 -0.012337806 -0.047502392)
(0.19843199 0.010346141 -0.037085718)
(0.099976797 -0.0039221182 0.0010633019)
(0.10068872 -0.0047704621 0.0016127741)
(0.10250471 -0.0049539001 0.001811266)
(0.1049594 -0.0047373187 0.0018534565)
(0.10786904 -0.0043162956 0.0017808209)
(0.11117336 -0.0039426968 0.0015703858)
(0.11478128 -0.0038123198 0.0011776917)
(0.11861206 -0.0040434048 0.00052723482)
(0.12265337 -0.0047587358 -0.00050216626)
(0.12687773 -0.0061430639 -0.0020668056)
(0.13130223 -0.0084422209 -0.0043310946)
(0.13601364 -0.011922778 -0.0074735366)
(0.14116338 -0.016880208 -0.011550255)
(0.14671635 -0.02397379 -0.015981146)
(0.15266111 -0.031770819 -0.019684903)
(0.15873833 -0.038075954 -0.021833708)
(0.16432966 -0.040894828 -0.022633588)
(0.16848445 -0.039900249 -0.023239791)
(0.17067254 -0.036373223 -0.024478116)
(0.17111412 -0.032157986 -0.026446389)
(0.17064508 -0.02859148 -0.028728611)
(0.17007918 -0.025894471 -0.030830046)
(0.16969775 -0.023849975 -0.032316743)
(0.16946588 -0.022417286 -0.032806287)
(0.16950428 -0.02184156 -0.031902486)
(0.17035296 -0.022234089 -0.029209864)
(0.17305799 -0.023402196 -0.024180902)
(0.17985316 -0.02461229 -0.015890517)
(0.19661967 -0.024151371 -0.0028784135)
(0.25462733 -0.015834513 0.013146858)
(0.10011513 -0.0029518946 0.0010837889)
(0.10020948 -0.0042830213 0.001660257)
(0.10000706 -0.0047336257 0.0019060057)
(0.099649033 -0.00489927 0.0020241787)
(0.099350484 -0.0049752442 0.0020741626)
(0.099227832 -0.0050488081 0.0020561195)
(0.099295677 -0.0052078483 0.0019670026)
(0.099533203 -0.0055520854 0.0018179514)
(0.099925573 -0.006217921 0.0016321995)
(0.10051536 -0.0074603617 0.0013885969)
(0.10141434 -0.0096129289 0.00094347565)
(0.10280119 -0.013146643 6.9217618e-05)
(0.10489332 -0.018751053 -0.0011574682)
(0.10774998 -0.026986634 -0.0019663178)
(0.11138881 -0.03616598 -0.00096995202)
(0.11544288 -0.043052871 0.0036649651)
(0.12088253 -0.044158119 0.012127078)
(0.12668318 -0.040110925 0.020749571)
(0.1315801 -0.033619521 0.027271646)
(0.13493445 -0.027779518 0.03096108)
(0.13701734 -0.02401519 0.032546603)
(0.13843799 -0.021143297 0.034359031)
(0.14048872 -0.019298689 0.036601632)
(0.14307502 -0.018406719 0.039279741)
(0.1451861 -0.019014376 0.041432818)
(0.14621041 -0.020895772 0.043100448)
(0.14687728 -0.023706255 0.044562435)
(0.14852652 -0.027629994 0.046314185)
(0.1556343 -0.032765751 0.050169915)
(0.18497948 -0.03919313 0.052871259)
(0.098102568 -0.0015847837 0.00105879)
(0.096774103 -0.0023577544 0.0016165324)
(0.0944215 -0.0026167887 0.0018482182)
(0.091485775 -0.0026931026 0.0019489712)
(0.088543365 -0.0026924722 0.0019777243)
(0.085786589 -0.0026490545 0.0019383294)
(0.083215599 -0.0026061413 0.0018337154)
(0.080798074 -0.0026205246 0.0016812504)
(0.078482942 -0.0027737205 0.0015140052)
(0.076234167 -0.003212105 0.0013819945)
(0.073977545 -0.0042018252 0.0013501867)
(0.071503954 -0.0062173008 0.0015244685)
(0.06845715 -0.0099241381 0.0018646342)
(0.064612299 -0.01555016 0.0023224542)
(0.060151004 -0.020661822 0.0050525361)
(0.056741604 -0.020041127 0.015850212)
(0.059531456 -0.011413471 0.040403541)
(0.06352821 0.0015673122 0.064194857)
(0.06809224 0.014789461 0.082495009)
(0.073666549 0.025522306 0.095233712)
(0.080923865 0.032866296 0.10342674)
(0.089414174 0.035855782 0.10712414)
(0.097108315 0.035649902 0.10819041)
(0.10338472 0.033280547 0.1073829)
(0.10797492 0.029661883 0.10494861)
(0.11133994 0.024667766 0.10016478)
(0.11359105 0.018771297 0.093316756)
(0.11531715 0.0121615 0.085169532)
(0.1221255 0.0054575857 0.077564034)
(0.15384451 0.00070479513 0.065770464)
(0.1057977 -0.0024932915 0.00036472545)
(0.12029978 -0.0025763441 0.00059989721)
(0.13334454 -0.0024152992 0.00069768729)
(0.1439731 -0.0019896405 0.00070079016)
(0.15327741 -0.0013805195 0.0006341896)
(0.16175389 -0.00077869612 0.00049993946)
(0.16941959 -0.00029723871 0.00026823092)
(0.17626132 3.3907675e-05 -8.1206195e-05)
(0.18229431 0.00018612015 -0.00056686127)
(0.18749384 0.00011112259 -0.0012079155)
(0.19179906 -0.00027458356 -0.0020149279)
(0.19511106 -0.001115896 -0.0029451315)
(0.19677629 -0.0026507447 -0.0038101837)
(0.19648535 -0.005754923 -0.0042464832)
(0.19588359 -0.0095271183 -0.0038448554)
(0.19572202 -0.013146832 -0.0028524926)
(0.19517165 -0.016478519 -0.0022548891)
(0.19354021 -0.019806588 -0.0028976909)
(0.19096629 -0.023169778 -0.0049213743)
(0.18794038 -0.026497369 -0.0079023474)
(0.18494762 -0.029726829 -0.011212684)
(0.1823642 -0.032737212 -0.014267409)
(0.18034942 -0.03533884 -0.016658294)
(0.17885077 -0.037387348 -0.018216415)
(0.17780616 -0.038866763 -0.01885865)
(0.1773331 -0.039945938 -0.018435493)
(0.17798074 -0.040788229 -0.016874399)
(0.18096784 -0.040798055 -0.015128364)
(0.18754768 -0.036290465 -0.016428282)
(0.19570197 -0.018972317 -0.021840753)
(0.099854042 -0.0039352759 0.00035584047)
(0.10033351 -0.0047708845 0.00060235653)
(0.10202113 -0.0049115738 0.00070909029)
(0.10446059 -0.0046256439 0.00071191784)
(0.10738499 -0.0041187412 0.00062353837)
(0.11067259 -0.0036470657 0.00042662405)
(0.11420427 -0.0033573774 8.6705817e-05)
(0.11788755 -0.003305933 -0.00043934143)
(0.12166944 -0.0035783721 -0.0011990883)
(0.12553376 -0.0043021831 -0.0022767439)
(0.12951839 -0.0057189074 -0.0037406088)
(0.13375938 -0.0082407634 -0.005595469)
(0.13854711 -0.012492081 -0.0076492548)
(0.14388847 -0.019251719 -0.0093758317)
(0.14931837 -0.025983879 -0.010519367)
(0.1537462 -0.030310578 -0.012154264)
(0.15577887 -0.032641787 -0.015712927)
(0.15532364 -0.034495756 -0.021180192)
(0.15341049 -0.036140777 -0.027664249)
(0.15080511 -0.037609937 -0.034143194)
(0.14786753 -0.039091904 -0.039676773)
(0.14474614 -0.04068839 -0.043618128)
(0.1414469 -0.04225211 -0.045669204)
(0.13778092 -0.043650997 -0.045848537)
(0.13374338 -0.045002697 -0.044062313)
(0.1296591 -0.046911609 -0.03996767)
(0.12727533 -0.050013356 -0.033447421)
(0.13127312 -0.053592616 -0.027531805)
(0.1486341 -0.050905192 -0.033523853)
(0.19965431 -0.03274498 -0.05387516)
(0.099996816 -0.0029471474 0.00036035815)
(0.099869576 -0.0042719132 0.00061310811)
(0.099545253 -0.0047023735 0.00073382415)
(0.099180997 -0.0048359833 0.00075420167)
(0.098920428 -0.0048676431 0.00068350653)
(0.098830732 -0.0048772126 0.00050217328)
(0.098902282 -0.0049349758 0.00017340011)
(0.099091921 -0.0051176614 -0.00035426546)
(0.099378311 -0.0055489215 -0.0011490712)
(0.099737409 -0.0064174517 -0.0022935078)
(0.10013561 -0.008101316 -0.0039188879)
(0.10061168 -0.011289295 -0.0061602513)
(0.1014021 -0.017107491 -0.0089759315)
(0.10255413 -0.025940751 -0.011800773)
(0.10320091 -0.033403285 -0.014060554)
(0.10230641 -0.035337166 -0.016642049)
(0.098496061 -0.03364887 -0.021072965)
(0.093656331 -0.032329976 -0.024960846)
(0.089585025 -0.031850828 -0.028979232)
(0.085846601 -0.032465715 -0.033831338)
(0.08166286 -0.03423324 -0.038025609)
(0.076848398 -0.036765825 -0.039884664)
(0.071950312 -0.039444603 -0.038806977)
(0.067120301 -0.042004946 -0.035063995)
(0.063220993 -0.044423171 -0.02820748)
(0.060689384 -0.047625851 -0.018052661)
(0.061531285 -0.052829068 -0.0061761474)
(0.070252577 -0.060227387 -0.00035989532)
(0.085125887 -0.062466431 -0.022732547)
(0.12115779 -0.052906292 -0.065820856)
(0.097986776 -0.0015799054 0.00035128278)
(0.096440532 -0.002347807 0.00059294135)
(0.093968024 -0.0025987067 0.00070412836)
(0.091024983 -0.0026648205 0.00071585862)
(0.088117717 -0.002651296 0.00063698715)
(0.085387987 -0.0025900553 0.00044714696)
(0.08281147 -0.0025208504 0.00010624112)
(0.080328642 -0.0024926258 -0.00044533581)
(0.077888867 -0.0025771188 -0.0012897776)
(0.075369822 -0.0028978446 -0.0025407041)
(0.072499607 -0.0037300226 -0.0044533017)
(0.068801675 -0.0057073976 -0.0074975087)
(0.06342089 -0.010333518 -0.012649982)
(0.054543758 -0.018756099 -0.02123563)
(0.040024202 -0.023903706 -0.031917653)
(0.023944276 -0.01890793 -0.038308574)
(0.012689135 -0.011823191 -0.033445977)
(0.022068541 -0.0086698515 0.0015844941)
(0.028428844 -0.00075234003 0.038391613)
(0.033622999 0.0077667884 0.061543795)
(0.040562102 0.01420957 0.075120783)
(0.047855113 0.017389537 0.081994607)
(0.05392434 0.017642975 0.08466831)
(0.057816759 0.015428396 0.084263058)
(0.058679949 0.011025014 0.081069488)
(0.056426259 0.0040298384 0.074837252)
(0.052754657 -0.005852912 0.064875662)
(0.052599402 -0.018861749 0.047468522)
(0.046761842 -0.021286869 -0.0098130304)
(0.078296215 -0.0027979317 -0.083993666)
(0.10577038 -0.00249448 0.00020056546)
(0.12019803 -0.0025716457 0.00036048591)
(0.13316082 -0.0023947204 0.00045743465)
(0.14372752 -0.0019371701 0.00049362727)
(0.15299917 -0.0012700032 0.00047565535)
(0.1614866 -0.00057070376 0.00040523108)
(0.16924333 6.1644524e-05 0.00028336883)
(0.17626746 0.00060403764 0.00011744139)
(0.18262539 0.0010670991 -9.5545613e-05)
(0.18841864 0.0014418389 -0.00034203527)
(0.19377243 0.0016835246 -0.0005615506)
(0.19889085 0.0016809049 -0.00058152446)
(0.20351044 0.0012735241 2.3799087e-05)
(0.20764901 0.00016460049 0.0019232748)
(0.21260849 0.00023002018 0.005285592)
(0.21790794 0.0013639727 0.0094677081)
(0.22206967 0.0024428671 0.013816769)
(0.22456131 0.0027947875 0.018109343)
(0.22580933 0.0022555419 0.022352376)
(0.2263676 0.00085519957 0.026580429)
(0.22658633 -0.0012314261 0.030888507)
(0.2265398 -0.0037325417 0.035417822)
(0.22601383 -0.0064281938 0.040174714)
(0.2247716 -0.0092299912 0.044842155)
(0.22296103 -0.011932065 0.04884976)
(0.22110334 -0.013820568 0.051501933)
(0.21948772 -0.013515897 0.0520029)
(0.21706823 -0.0094018648 0.049456754)
(0.20941517 0.00081672359 0.041244174)
(0.15318383 0.028657734 0.020793545)
(0.099823997 -0.0039366327 0.00019588454)
(0.10020394 -0.0047646549 0.00035836944)
(0.1017618 -0.0048826518 0.00045055929)
(0.10407658 -0.004550755 0.00046777902)
(0.10688066 -0.0039613155 0.00041185698)
(0.11004001 -0.0033523789 0.00027648305)
(0.11342623 -0.0028505 4.7167381e-05)
(0.11694561 -0.0024981535 -0.00029798705)
(0.12056476 -0.0023276354 -0.00079118186)
(0.12432413 -0.0024515068 -0.0014529026)
(0.12839586 -0.0031393969 -0.0022576167)
(0.13320576 -0.0049295612 -0.003038854)
(0.1394894 -0.0085130111 -0.0033037762)
(0.14749274 -0.012976364 -0.0022071517)
(0.15631042 -0.013162562 -0.000168969)
(0.16370697 -0.0098919046 0.0012244351)
(0.16827313 -0.0068353685 0.0010432281)
(0.17037744 -0.0057769129 -0.00066499878)
(0.17076306 -0.0069755372 -0.0036432043)
(0.16996249 -0.0097226449 -0.0075978341)
(0.16845584 -0.013219324 -0.011749238)
(0.16644574 -0.016760371 -0.015021206)
(0.16384808 -0.019878988 -0.016690522)
(0.16029618 -0.022752698 -0.016654031)
(0.15604278 -0.025784555 -0.015409609)
(0.15272306 -0.028329982 -0.014554611)
(0.15343607 -0.027452417 -0.017266093)
(0.15993826 -0.018310382 -0.025406678)
(0.17459121 0.003983564 -0.03885709)
(0.18273636 0.042752418 -0.055313031)
(0.099967882 -0.0029444941 0.00019654075)
(0.099743567 -0.0042659666 0.00035901845)
(0.099285457 -0.0046870928 0.00045340105)
(0.098781871 -0.0048022001 0.00047113395)
(0.098373975 -0.0048021968 0.00040876202)
(0.09811027 -0.0047593927 0.00025352568)
(0.09796068 -0.0047341467 -1.8243126e-05)
(0.097868623 -0.0047936667 -0.00044343039)
(0.097776791 -0.0050472688 -0.0010762105)
(0.097635781 -0.0057267157 -0.0019980596)
(0.097463002 -0.0073430333 -0.0032788105)
(0.097554764 -0.010966172 -0.0048935587)
(0.098701387 -0.018342717 -0.0064278271)
(0.10058881 -0.02688469 -0.0065344771)
(0.10302235 -0.026913467 -0.0046042581)
(0.10431384 -0.021126397 -0.0025590264)
(0.099633325 -0.01568167 -0.003511026)
(0.092190173 -0.012387279 -0.0075934689)
(0.08333155 -0.013122509 -0.013939231)
(0.075020714 -0.016886855 -0.02037447)
(0.067403972 -0.021954057 -0.025047766)
(0.059922641 -0.026928849 -0.026207862)
(0.053167094 -0.030952369 -0.022953072)
(0.04718072 -0.034444721 -0.016479543)
(0.042473046 -0.037944211 -0.010002752)
(0.041350086 -0.041123793 -0.0099484507)
(0.049275171 -0.039995095 -0.023798418)
(0.068555972 -0.029030044 -0.045051798)
(0.092359468 -0.0080042736 -0.066859973)
(0.10630469 0.026659712 -0.090016078)
(0.097958425 -0.0015815658 0.00019136395)
(0.096317676 -0.002351564 0.00034684065)
(0.093714065 -0.0026021688 0.00043398411)
(0.090632012 -0.002664331 0.00044369283)
(0.087574274 -0.0026418483 0.00037105216)
(0.084658585 -0.0025640908 0.00020072455)
(0.081823996 -0.0024687474 -9.6479217e-05)
(0.078979192 -0.0024081913 -0.00057484359)
(0.07598174 -0.0024604895 -0.0013246111)
(0.072557504 -0.0027924208 -0.0025235462)
(0.068184468 -0.003821523 -0.0044744567)
(0.061785869 -0.0066966379 -0.0078040583)
(0.051774327 -0.014376924 -0.013976011)
(0.033192972 -0.023792764 -0.024066675)
(0.0044123049 -0.015997871 -0.031913862)
(-0.021227923 0.00066257241 -0.029262573)
(-0.035772112 0.0033031316 -0.023665216)
(-0.041821098 0.0022105532 -0.013878876)
(-0.03040974 -0.0011330086 0.0059293661)
(-0.020626644 -0.001039038 0.025061683)
(-0.010217005 -0.00019270566 0.037145341)
(-0.0015551988 -0.00050931126 0.043810328)
(0.0039611689 -0.0025018844 0.046698697)
(0.0054085647 -0.0063963467 0.046775682)
(0.0028373095 -0.012807978 0.043864512)
(-0.0081148473 -0.023286235 0.02811506)
(-0.020171443 -0.025589933 -0.01147355)
(-0.023692263 -0.0075263417 -0.05966731)
(-0.0027634751 0.020655125 -0.092002507)
(0.034185814 0.047965146 -0.11686944)
(0.10575491 -0.0024987158 6.034648e-05)
(0.12014313 -0.0025787133 0.00010567651)
(0.13305764 -0.0024033379 0.00012976277)
(0.1435794 -0.0019453515 0.00013309512)
(0.15281173 -0.0012752162 0.00011774377)
(0.16126108 -0.00057101408 8.3922759e-05)
(0.16897498 6.7538309e-05 2.9123571e-05)
(0.17595704 0.00061748545 -5.0979755e-05)
(0.18226685 0.0010714769 -0.00015636074)
(0.18800823 0.0014043131 -0.00028812274)
(0.19336452 0.0015372391 -0.00042392278)
(0.19871795 0.0013091898 -0.00046738714)
(0.20413544 0.00066685722 -0.0001422492)
(0.20980126 0.00010357796 0.00095620366)
(0.21612884 0.00090402185 0.0025910085)
(0.22221014 0.0021862042 0.0042209772)
(0.22717999 0.0034094038 0.0057306063)
(0.23116583 0.0047680372 0.0074541273)
(0.23497187 0.0063798647 0.0097846793)
(0.23930327 0.0080187358 0.012977245)
(0.24458791 0.0097346749 0.017184409)
(0.25056547 0.01188461 0.022471121)
(0.25620112 0.014573903 0.028749592)
(0.26021862 0.017610947 0.035678392)
(0.26158608 0.020847094 0.04256621)
(0.25937516 0.024423276 0.048323681)
(0.25212967 0.028904836 0.051533078)
(0.23705166 0.035478851 0.050460951)
(0.21068852 0.046247993 0.042659242)
(0.12044649 0.069558322 0.025950429)
(0.099805751 -0.0039414217 5.5287778e-05)
(0.10013194 -0.0047724729 9.5455075e-05)
(0.10161738 -0.0048909768 0.00010929969)
(0.10385822 -0.0045561958 9.4345018e-05)
(0.10658782 -0.0039602147 5.0467992e-05)
(0.10966479 -0.0033421683 -2.49663e-05)
(0.11295525 -0.002829652 -0.000137638)
(0.11635543 -0.0024702098 -0.00029295201)
(0.11983131 -0.0023275605 -0.00050209044)
(0.12345932 -0.0025645756 -0.00076573529)
(0.12752761 -0.0035654994 -0.0010443529)
(0.13275303 -0.0060509745 -0.001186088)
(0.14017068 -0.010376946 -0.00079239645)
(0.14975398 -0.011690361 0.00072622365)
(0.15926327 -0.0081050922 0.0021727502)
(0.16640508 -0.0038360998 0.0025230404)
(0.17192849 -0.00087795079 0.0020990438)
(0.17710181 0.00073078333 0.0015209343)
(0.18236591 0.0012766473 0.0010569163)
(0.18760127 0.0015003112 0.00065979587)
(0.19362472 0.0023715137 0.00036082714)
(0.20179882 0.0053624657 0.00068425864)
(0.21288848 0.011838029 0.0023030339)
(0.22369149 0.021252837 0.0050895472)
(0.23324082 0.032401942 0.0087250724)
(0.24000377 0.044569807 0.012202945)
(0.24134132 0.05806488 0.014016922)
(0.2333543 0.073509131 0.012329741)
(0.2140959 0.093026307 0.0048229564)
(0.14251822 0.12245904 -0.011634664)
(0.099949425 -0.0029453239 5.4458481e-05)
(0.099670603 -0.0042683111 9.3261893e-05)
(0.099135111 -0.0046896534 0.00010547054)
(0.098545494 -0.0048032771 8.6646754e-05)
(0.098042209 -0.0048007292 3.366313e-05)
(0.097664563 -0.0047552079 -6.007476e-05)
(0.097368366 -0.0047280458 -0.00020544651)
(0.09706778 -0.0047975625 -0.00041808764)
(0.096673746 -0.0051046308 -0.00073019154)
(0.09611962 -0.0059644137 -0.0011814855)
(0.095478935 -0.0081065624 -0.0018043884)
(0.095437743 -0.013124202 -0.002557401)
(0.096841584 -0.023278068 -0.0030910473)
(0.098977361 -0.025774465 -0.0016641194)
(0.10393147 -0.019257012 0.00088752287)
(0.10283458 -0.012599603 0.00049602276)
(0.09941384 -0.0069163753 -0.0016979879)
(0.09303114 -0.0025184951 -0.0047726105)
(0.085772265 -0.00095951828 -0.008434569)
(0.076659042 -0.002823282 -0.013028983)
(0.066391791 -0.0068978319 -0.017626634)
(0.056565416 -0.010421543 -0.020017034)
(0.054262299 -0.010525321 -0.019134583)
(0.066991222 -0.0052431735 -0.016279689)
(0.091174416 0.0054911162 -0.014597081)
(0.1209159 0.021720735 -0.014462598)
(0.14223803 0.039684765 -0.014988934)
(0.15303332 0.060033499 -0.018710275)
(0.15419643 0.086242082 -0.027140818)
(0.11718091 0.12247429 -0.040125861)
(0.097940023 -0.001581627 5.2816591e-05)
(0.096244996 -0.0023518314 8.9396338e-05)
(0.093563184 -0.0026020815 9.899522e-05)
(0.090391079 -0.0026633846 7.6469559e-05)
(0.087229119 -0.0026401614 1.7209448e-05)
(0.08418353 -0.002562504 -8.8007566e-05)
(0.081169771 -0.002468651 -0.00025445242)
(0.078037423 -0.0024172034 -0.00051117119)
(0.074554619 -0.0025087878 -0.0009226565)
(0.07028214 -0.0029758701 -0.0016089547)
(0.064299242 -0.0044494254 -0.002813229)
(0.054518366 -0.008855485 -0.0051016951)
(0.039052689 -0.020865764 -0.010005573)
(-0.00015238679 -0.018834041 -0.018726573)
(-0.039109914 0.0023808872 -0.016821915)
(-0.059010703 0.0057853604 -0.01511979)
(-0.075152471 0.0061449807 -0.014601078)
(-0.083304825 0.00356392 -0.012413911)
(-0.084872995 -0.0012119289 -0.0082108379)
(-0.076764815 -0.0067409984 -0.0017939015)
(-0.066709866 -0.011582351 0.0039108122)
(-0.057355151 -0.01604443 0.0076629558)
(-0.049684817 -0.020533433 0.0093533177)
(-0.042465326 -0.02332471 0.0090667922)
(-0.034016979 -0.021551098 0.006248294)
(-0.024337086 -0.010548547 -0.002844476)
(0.0094785481 0.021873032 -0.018727317)
(0.017302374 0.041641356 -0.032567538)
(0.032075868 0.069223481 -0.049699506)
(0.049599737 0.1044133 -0.064581038)
(0.10575602 -0.0024990033 -4.3773656e-05)
(0.12014647 -0.0025789651 -7.7580547e-05)
(0.13306304 -0.0024034957 -9.1938299e-05)
(0.14358622 -0.0019452677 -8.6214106e-05)
(0.15281875 -0.0012747608 -6.2511819e-05)
(0.16126603 -0.00057035589 -2.1507445e-05)
(0.16897482 6.7049904e-05 3.8580098e-05)
(0.17594585 0.0006141046 0.00012133832)
(0.1822377 0.0010610101 0.00022770077)
(0.18795969 0.0013740784 0.000363722)
(0.19331761 0.0014602543 0.00052512806)
(0.19878046 0.0011503404 0.00067327952)
(0.20460137 0.00051192578 0.00068379121)
(0.21099667 0.00038448626 0.00037289074)
(0.21783499 0.0013966917 -0.00022263865)
(0.22425391 0.0026497574 -0.00089643616)
(0.22942769 0.0040097059 -0.001585875)
(0.2339413 0.0057648415 -0.0024825808)
(0.23840951 0.0079674201 -0.0038146245)
(0.24324018 0.010533445 -0.0058445198)
(0.24857327 0.013387863 -0.0089136441)
(0.25404269 0.016571802 -0.013336844)
(0.25871176 0.020074664 -0.019216314)
(0.26144088 0.023668935 -0.026309308)
(0.26130646 0.027096479 -0.033996591)
(0.25756978 0.030359882 -0.04118946)
(0.24891004 0.034177472 -0.0462867)
(0.23251495 0.039814974 -0.047289754)
(0.20494355 0.049417201 -0.041536023)
(0.11281677 0.071432821 -0.026528105)
(0.099805844 -0.0039418478 -4.5257141e-05)
(0.10013226 -0.0047729716 -8.4385883e-05)
(0.1016178 -0.0048915512 -0.00010366262)
(0.10385795 -0.0045568899 -0.0001003804)
(0.10658496 -0.003961363 -7.5337716e-05)
(0.10965547 -0.0033450833 -2.6754817e-05)
(0.11293636 -0.0028386397 5.054907e-05)
(0.1163232 -0.0024915178 0.00016227788)
(0.11978204 -0.002377378 0.00032165245)
(0.12340514 -0.0026840444 0.00054002973)
(0.12753432 -0.003844706 0.00081380995)
(0.13302049 -0.0066179417 0.0010925206)
(0.1409022 -0.01086835 0.0012220676)
(0.15126038 -0.010171667 0.00081948652)
(0.16073352 -0.0059742987 0.00033936354)
(0.16793482 -0.0019348355 0.00032750463)
(0.17439951 0.001125471 0.00070262329)
(0.18074617 0.0035699794 0.0011604837)
(0.187136 0.0058378082 0.0015523463)
(0.19422843 0.0083120351 0.0018714198)
(0.20261826 0.011776201 0.0018650593)
(0.21238365 0.017304693 0.0010604292)
(0.2227184 0.0254358 -0.00087875171)
(0.23235046 0.035573488 -0.0040956487)
(0.24006262 0.046449803 -0.0084102957)
(0.24452484 0.057479752 -0.012949201)
(0.24364491 0.06970708 -0.0160069)
(0.23327115 0.083364867 -0.015477297)
(0.21140539 0.1005186 -0.0089922703)
(0.13505618 0.12729862 0.0067437561)
(0.099949492 -0.0029455143 -4.5056749e-05)
(0.099670659 -0.0042686543 -8.3687673e-05)
(0.099134583 -0.0046902633 -0.00010311301)
(0.098542855 -0.0048044998 -9.9697845e-05)
(0.098033934 -0.0048033813 -7.2669331e-05)
(0.097643032 -0.0047612509 -1.8141514e-05)
(0.09732554 -0.0047423237 7.1637504e-05)
(0.096989485 -0.004830572 0.00020780897)
(0.096531566 -0.0051817504 0.00041598577)
(0.095880294 -0.006151991 0.0007307386)
(0.095161325 -0.0085727447 0.0011944898)
(0.095409555 -0.014248216 0.0018565148)
(0.096808453 -0.025338781 0.0028621283)
(0.10158774 -0.02302514 0.0030647555)
(0.10605639 -0.01624662 0.0020402387)
(0.10542747 -0.010092521 0.0021313433)
(0.10221667 -0.0044862072 0.0031952635)
(0.097066518 0.00024466357 0.0049784517)
(0.092163029 0.0028829853 0.0075862592)
(0.0872736 0.0029332138 0.01093937)
(0.080887959 0.0012398792 0.013807351)
(0.076276521 0.00029451715 0.014457625)
(0.079939785 0.0030715126 0.012026807)
(0.093755499 0.010794627 0.0081338746)
(0.11642862 0.023530764 0.0048142429)
(0.13794722 0.038948934 0.0022702354)
(0.15481321 0.055174843 0.0021329336)
(0.16154615 0.073071984 0.0062053252)
(0.158857 0.096456434 0.015566838)
(0.11567537 0.1307644 0.030075057)
(0.097940085 -0.0015816853 -4.3594138e-05)
(0.096244993 -0.0023519678 -7.9980697e-05)
(0.09356235 -0.002602353 -9.6762403e-05)
(0.0903874 -0.0026639349 -9.0034147e-05)
(0.087217837 -0.0026412902 -5.831979e-05)
(0.084153938 -0.0025650401 3.3952227e-06)
(0.081105683 -0.0024748327 0.00010410322)
(0.077908436 -0.0024338979 0.00026251021)
(0.074288116 -0.0025522171 0.00051916835)
(0.069722636 -0.0030964183 0.00094764522)
(0.063113642 -0.0048129914 0.0016969955)
(0.05196043 -0.010062519 0.0031616005)
(0.034000984 -0.024328915 0.0067916184)
(-0.014832855 -0.0091026847 0.016512287)
(-0.040736599 0.0050057317 0.014834166)
(-0.060175835 0.0070264035 0.010614732)
(-0.073723101 0.0064547918 0.0061636186)
(-0.080995861 0.0032896341 0.00033146938)
(-0.081953279 -0.00141209 -0.0064792352)
(-0.07694026 -0.0061090215 -0.013173164)
(-0.068539952 -0.010398978 -0.017457596)
(-0.060583787 -0.014436053 -0.020011681)
(-0.052939386 -0.017652889 -0.021196016)
(-0.044134483 -0.018338835 -0.02124733)
(-0.031673133 -0.01366818 -0.020044545)
(-0.013928823 -2.8933646e-05 -0.013890008)
(0.020193547 0.031080843 0.0035506101)
(0.030216519 0.048305253 0.017620936)
(0.046469096 0.073233076 0.036356919)
(0.070383154 0.10762907 0.054124844)
(0.10577371 -0.0024953569 -0.00018484678)
(0.12020814 -0.0025724359 -0.00033298478)
(0.1331776 -0.0023952576 -0.00041923569)
(0.14375026 -0.0019371431 -0.00044470377)
(0.15302718 -0.0012692655 -0.00041534536)
(0.1615191 -0.00056915018 -0.00033200134)
(0.1692785 6.4477282e-05 -0.00019511892)
(0.17630594 0.00060715531 -9.0805382e-06)
(0.18266985 0.0010655447 0.00023174914)
(0.1884756 0.001426566 0.00051494663)
(0.19386734 0.001636505 0.00077996338)
(0.19910307 0.0015696204 0.00084308339)
(0.20404929 0.0010900785 0.00023533294)