/*--------------------------------*- C++ -*----------------------------------*\
| =========                 |                                                 |
| \\      /  F ield         | OpenFOAM: The Open Source CFD Toolbox           |
|  \\    /   O peration     | Version:  v2012                                 |
|   \\  /    A nd           | Website:  www.openfoam.com                      |
|    \\/     M anipulation  |                                                 |
\*---------------------------------------------------------------------------*/
FoamFile
{
    version     2.0;
    format      ascii;
    class       volScalarField;
    location    "410/bottomWater";
    object      p;
}
// * * * * * * * * * * * * * * * * * * * * * * * * * * * * * * * * * * * * * //

dimensions      [1 -1 -2 0 0 0 0];


internalField   nonuniform List<scalar> 
1460
(
353.42928
353.4484
353.45529
353.4473
353.45753
353.44652
353.44936
353.44263
353.44951
353.45497
353.45405
353.44899
353.46861
353.48271
353.48843
353.47194
353.4873
353.49996
353.51646
353.52473
353.52587
353.52398
353.52459
353.52602
353.51647
353.51219
353.51726
353.50912
353.50762
353.51128
274.46347
274.46917
274.44149
274.41303
274.42462
274.42067
274.43633
274.4308
274.41543
274.41716
274.42325
274.42496
274.4577
274.45757
274.39787
274.42838
274.43501
274.46622
274.4459
274.40224
274.365
274.35252
274.40687
274.44373
274.43787
274.39359
274.42243
274.38331
274.35153
274.36934
196.28693
196.22675
196.26545
196.25394
196.32375
196.30075
196.29242
196.29707
196.30695
196.3257
196.31298
196.29856
196.26685
196.28232
196.2866
196.28916
196.25512
196.27046
196.26955
196.23535
196.29339
196.29034
196.22698
196.2817
196.27404
196.31273
196.28638
196.29861
196.298
196.37055
117.68221
117.66236
117.63942
117.68559
117.69664
117.6726
117.6506
117.64906
117.67492
117.68401
117.68313
117.67777
117.66244
117.65851
117.67854
117.64499
117.66769
117.67906
117.68344
117.63019
117.66903
117.67952
117.62623
117.67763
117.65938
117.63195
117.63803
117.62232
117.66616
117.68294
39.228172
39.232482
39.241881
39.234909
39.253037
39.247349
39.283552
39.284545
39.253747
39.251265
39.235804
39.225027
39.237841
39.226066
39.234484
39.257698
39.244971
39.236152
39.234425
39.246744
39.246613
39.263255
39.246655
39.236677
39.234411
39.245966
39.272033
39.276089
39.277287
39.289013
353.43651
353.44744
353.46299
353.46677
353.46329
353.4515
353.46657
353.47203
353.44722
353.46265
353.45175
353.45791
353.46236
353.47261
353.48135
353.47621
353.46877
353.49371
353.51785
353.52667
353.5229
353.52095
353.50704
353.5303
353.51923
353.52301
353.51324
353.5339
353.50335
353.51356
274.46784
274.47484
274.48683
274.4436
274.4186
274.43719
274.46498
274.46068
274.41674
274.41637
274.42296
274.41693
274.42468
274.41972
274.40138
274.40489
274.40063
274.4287
274.43396
274.37086
274.35811
274.37523
274.36576
274.43021
274.43719
274.41776
274.36483
274.4379
274.36665
274.36531
196.26777
196.24695
196.22462
196.23651
196.25749
196.28407
196.25129
196.23425
196.25905
196.28187
196.30418
196.31466
196.31547
196.30557
196.3206
196.29041
196.26367
196.25829
196.26618
196.27012
196.30553
196.30144
196.24417
196.2325
196.26084
196.28813
196.29401
196.25943
196.26894
196.31102
117.66523
117.6697
117.6564
117.64387
117.68106
117.66412
117.66223
117.66004
117.66366
117.67771
117.67221
117.65124
117.63116
117.62788
117.66003
117.66473
117.64081
117.65984
117.66405
117.61094
117.67206
117.68782
117.6406
117.6484
117.6741
117.64714
117.65145
117.63894
117.62671
117.67268
39.247289
39.2254
39.246586
39.237187
39.244311
39.233182
39.232057
39.243362
39.23308
39.220329
39.230458
39.22632
39.254057
39.260878
39.247602
39.2502
39.256907
39.243264
39.250433
39.263
39.270805
39.26591
39.256203
39.250448
39.2479
39.232935
39.236348
39.257712
39.270539
39.26962
353.42787
353.42764
353.42045
353.44432
353.46326
353.46357
353.46596
353.45965
353.4719
353.45438
353.45127
353.47089
353.47938
353.49412
353.49699
353.49499
353.48747
353.48155
353.50726
353.52238
353.52532
353.52243
353.51906
353.51153
353.5121
353.51662
353.51299
353.51079
353.51589
353.51047
274.4601
274.45783
274.45435
274.47138
274.4699
274.41257
274.41127
274.42428
274.452
274.4485
274.43825
274.46102
274.46299
274.43385
274.37554
274.38672
274.38675
274.39089
274.44355
274.43206
274.34283
274.35903
274.36045
274.37171
274.38994
274.41581
274.428
274.44418
274.41949
274.37882
196.29594
196.29259
196.27227
196.24039
196.2425
196.28236
196.30115
196.29394
196.24805
196.27943
196.26661
196.25566
196.25427
196.23403
196.28375
196.31908
196.28941
196.26353
196.23852
196.24201
196.26688
196.3184
196.31037
196.28719
196.28381
196.29962
196.28063
196.28215
196.24953
196.3007
117.6684
117.66509
117.65133
117.65126
117.65229
117.64893
117.67641
117.64895
117.65009
117.64054
117.65229
117.6715
117.66411
117.63008
117.65884
117.67745
117.68082
117.64692
117.66464
117.65346
117.6558
117.68265
117.67035
117.61501
117.61917
117.65535
117.66747
117.64932
117.64114
117.65958
39.233552
39.226227
39.232778
39.245528
39.251839
39.243308
39.268323
39.262348
39.2613
39.259076
39.234938
39.229608
39.241181
39.251467
39.257702
39.274488
39.268286
39.263442
39.263236
39.255466
39.258379
39.275198
39.260018
39.272709
39.252606
39.238171
39.23312
39.227757
39.247874
39.248579
353.43909
353.44025
353.4416
353.42646
353.45141
353.46595
353.47691
353.46543
353.45899
353.47689
353.47838
353.47846
353.48266
353.49084
353.49082
353.48745
353.48905
353.49431
353.47925
353.50623
353.51478
353.50697
353.50938
353.51507
353.51039
353.51568
353.52168
353.5175
353.51766
353.51115
274.43259
274.43113
274.44463
274.43221
274.45504
274.46704
274.40713
274.42167
274.42019
274.46864
274.50533
274.49236
274.48131
274.4733
274.41195
274.39016
274.38564
274.39551
274.39362
274.42809
274.42389
274.36852
274.36585
274.35833
274.34811
274.3861
274.42508
274.44342
274.43232
274.38734
196.30618
196.28417
196.27863
196.25617
196.23339
196.23239
196.28814
196.27743
196.24706
196.23954
196.23667
196.27607
196.26755
196.25268
196.2575
196.28782
196.31501
196.30148
196.28771
196.26097
196.24373
196.25451
196.28678
196.30844
196.27826
196.26464
196.26371
196.26306
196.25181
196.29835
117.68872
117.69395
117.69016
117.66171
117.66977
117.64103
117.67521
117.67899
117.62854
117.65899
117.64597
117.67156
117.68951
117.65926
117.65624
117.66162
117.68068
117.67158
117.66448
117.67103
117.65306
117.63723
117.67944
117.68356
117.67438
117.6415
117.69062
117.66474
117.65053
117.66441
39.25381
39.244972
39.236787
39.226132
39.240852
39.24931
39.255229
39.266962
39.260247
39.256694
39.247461
39.226265
39.23858
39.238898
39.25849
39.258121
39.265755
39.250697
39.244983
39.234223
39.248735
39.263077
39.264467
39.275608
39.252281
39.238698
39.23081
39.223098
39.242368
39.247847
353.43101
353.42825
353.42383
353.4317
353.41899
353.45682
353.46924
353.46446
353.46002
353.45368
353.46678
353.46425
353.45197
353.48823
353.48651
353.48563
353.5217
353.51572
353.49703
353.50016
353.50519
353.49986
353.49318
353.49596
353.5106
353.50088
274.44236
274.44504
274.44903
274.46085
274.44597
274.46826
274.44565
274.40588
274.42098
274.41239
274.46817
274.4625
274.43778
274.42778
274.42277
274.39904
274.4715
274.44996
274.37149
274.37841
274.37051
274.36902
274.37787
274.39313
274.41849
274.38364
196.3202
196.29889
196.31278
196.30498
196.25983
196.2357
196.24733
196.28603
196.27606
196.24946
196.2356
196.22621
196.28437
196.33551
196.35118
196.32905
196.26486
196.2677
196.28159
196.31185
196.32206
196.30333
196.26571
196.26089
196.23285
196.29925
117.67017
117.64676
117.67281
117.66984
117.64289
117.64739
117.62785
117.67701
117.68381
117.63669
117.64991
117.63588
117.66887
117.66646
117.68027
117.67086
117.65414
117.66029
117.65665
117.67721
117.68642
117.66959
117.64118
117.63912
117.64344
117.64743
39.255379
39.254438
39.237416
39.228487
39.233295
39.257937
39.262858
39.271575
39.258331
39.251054
39.250669
39.23535
39.229935
39.220463
39.225849
39.221769
39.22548
39.228038
39.221943
39.227194
39.225132
39.221643
39.232561
39.24521
39.259847
39.251621
353.44393
353.44456
353.44664
353.44988
353.45002
353.43972
353.48004
353.45382
353.46213
353.45938
353.45379
353.45331
353.4543
353.48419
353.47955
353.47654
353.50645
353.49875
353.48945
353.49127
353.48764
353.49132
353.49364
353.49192
353.48639
353.49253
274.4376
274.45645
274.469
274.46561
274.42663
274.45624
274.45938
274.4143
274.41004
274.40287
274.41734
274.41613
274.41584
274.40912
274.4074
274.40296
274.45358
274.4233
274.38889
274.37511
274.38564
274.38805
274.36837
274.36497
274.38208
274.37099
196.27786
196.23789
196.25952
196.26939
196.27715
196.26318
196.23512
196.2669
196.28834
196.29768
196.28282
196.28475
196.29274
196.32148
196.3205
196.29848
196.24063
196.25242
196.2767
196.30248
196.31223
196.31388
196.31407
196.32406
196.30351
196.31862
117.66873
117.65362
117.68001
117.69292
117.69994
117.64693
117.6827
117.64074
117.68919
117.66578
117.63477
117.63872
117.66309
117.65168
117.65391
117.64023
117.63232
117.62921
117.62405
117.66183
117.63131
117.61589
117.67502
117.67093
117.64174
117.66966
39.247875
39.252415
39.231517
39.233336
39.215939
39.252375
39.246921
39.256352
39.262892
39.265568
39.274364
39.26001
39.244272
39.253352
39.238658
39.236881
39.255654
39.254266
39.251989
39.235615
39.250615
39.266468
39.255438
39.249216
39.281274
39.266217
353.44643
353.44742
353.45109
353.44057
353.45092
353.4371
353.47361
353.46317
353.46745
353.46358
353.46246
353.46087
353.46086
353.46508
353.4841
353.49381
353.48654
353.49262
353.48525
353.48482
353.48779
353.49543
353.49248
353.49455
353.51481
353.48746
353.50278
353.49966
353.50078
353.49616
274.43743
274.46398
274.48758
274.46656
274.43862
274.45292
274.45681
274.41431
274.39609
274.40567
274.40559
274.40878
274.41804
274.43363
274.46564
274.44781
274.39505
274.37985
274.37983
274.39545
274.38426
274.3738
274.37002
274.38343
274.42088
274.38718
274.36958
274.37062
274.36652
274.38792
196.2813
196.24884
196.24282
196.27457
196.29618
196.27806
196.23512
196.27299
196.29604
196.33694
196.31468
196.3049
196.29935
196.29496
196.27135
196.2637
196.2587
196.30455
196.31807
196.31715
196.31701
196.3171
196.29013
196.26757
196.23746
196.28515
196.28174
196.3385
196.31055
196.31678
117.67573
117.65632
117.66349
117.68015
117.68518
117.6439
117.64988
117.62807
117.67452
117.67928
117.673
117.66392
117.65704
117.6596
117.67646
117.65278
117.6193
117.65716
117.65889
117.61377
117.62296
117.65814
117.67543
117.63154
117.67559
117.62381
117.67448
117.67905
117.66794
117.63515
39.247156
39.252428
39.232785
39.235343
39.233759
39.239407
39.258232
39.268013
39.266837
39.277942
39.264456
39.254572
39.243619
39.23966
39.231988
39.22327
39.252567
39.245171
39.249857
39.279092
39.28322
39.265351
39.262551
39.256843
39.253368
39.264545
39.240503
39.260751
39.255794
39.293806
353.45191
353.44998
353.45397
353.45977
353.45383
353.45346
353.45892
353.45569
353.45981
353.46195
353.45967
353.45577
353.47706
353.48897
353.4817
353.50109
353.4865
353.49586
353.48568
353.49361
353.49901
353.49843
353.48729
353.5048
353.5157
353.49129
353.49315
353.49767
353.49557
353.5123
274.42772
274.42475
274.45345
274.48833
274.47284
274.46047
274.44238
274.42765
274.40717
274.40688
274.41275
274.42855
274.45423
274.47148
274.4695
274.45622
274.38504
274.37768
274.39436
274.401
274.37255
274.37965
274.37463
274.44427
274.47144
274.38771
274.38579
274.37523
274.38315
274.43075
196.30041
196.26471
196.24315
196.2438
196.25879
196.27709
196.28176
196.28235
196.30657
196.31413
196.28359
196.27392
196.23791
196.27896
196.27601
196.24622
196.26334
196.29586
196.32101
196.26591
196.32672
196.30497
196.26705
196.24774
196.24032
196.27806
196.29081
196.30068
196.30696
196.25141
117.67491
117.65186
117.65321
117.65577
117.66319
117.66012
117.64954
117.61308
117.66799
117.67126
117.66541
117.63748
117.64458
117.66491
117.65648
117.63038
117.62051
117.67484
117.69099
117.65365
117.66465
117.67253
117.6332
117.64377
117.6435
117.64538
117.66292
117.68182
117.65371
117.65387
39.259138
39.253949
39.246372
39.239111
39.232528
39.229885
39.237319
39.256037
39.258115
39.270686
39.259736
39.262479
39.255758
39.232899
39.238498
39.255813
39.269775
39.267334
39.258718
39.252567
39.257733
39.272159
39.263209
39.258257
39.244235
39.225562
39.230118
39.230861
39.237148
39.256394
353.4528
353.45287
353.45031
353.44879
353.46448
353.45744
353.46715
353.46037
353.46077
353.45824
353.4638
353.45855
353.4661
353.47562
353.48619
353.49261
353.48954
353.49558
353.47872
353.50737
353.49429
353.50509
353.4838
353.50635
353.50858
353.50766
353.51547
353.50156
353.5087
353.50837
274.42569
274.41842
274.41907
274.4341
274.4809
274.4818
274.44742
274.41257
274.40949
274.4181
274.42966
274.41039
274.40721
274.43023
274.45418
274.40801
274.37604
274.38522
274.40411
274.41994
274.39188
274.38455
274.3918
274.44692
274.47203
274.45414
274.43139
274.3794
274.37136
274.39086
196.31784
196.29574
196.26911
196.25305
196.23714
196.25843
196.26764
196.29516
196.30887
196.30546
196.2994
196.29223
196.33062
196.27523
196.2442
196.25187
196.28485
196.3056
196.27973
196.26217
196.33737
196.27934
196.24833
196.2334
196.25453
196.26764
196.27093
196.27876
196.3011
196.32147
117.68854
117.67791
117.66581
117.64014
117.64456
117.65969
117.65841
117.63799
117.65236
117.62608
117.62559
117.64524
117.65731
117.65185
117.63075
117.62428
117.66082
117.68921
117.62878
117.67704
117.65618
117.68016
117.63357
117.64768
117.66378
117.6819
117.68533
117.6312
117.65744
117.62511
39.269291
39.260987
39.24975
39.24556
39.239441
39.232069
39.226899
39.23497
39.242584
39.275086
39.271963
39.235585
39.240704
39.231236
39.249386
39.25608
39.258164
39.265692
39.262501
39.241235
39.243855
39.252792
39.249507
39.241401
39.223164
39.225088
39.23089
39.227684
39.243889
39.288688
353.44687
353.45655
353.4543
353.4513
353.44796
353.45218
353.46289
353.46346
353.45363
353.47082
353.47114
353.47725
353.4765
353.48093
353.47671
353.48628
353.48782
353.48013
353.50074
353.51253
353.49416
353.5083
353.49445
353.49792
353.50554
353.50764
353.50509
353.50974
353.5053
353.5085
274.45102
274.46938
274.42841
274.42825
274.44514
274.46164
274.46691
274.42561
274.43528
274.46321
274.48438
274.45599
274.41892
274.40886
274.41395
274.39333
274.3953
274.39062
274.45349
274.45453
274.38023
274.37486
274.37146
274.40195
274.43675
274.46233
274.45733
274.44022
274.40102
274.37895
196.30583
196.28293
196.31208
196.27903
196.25836
196.26983
196.26722
196.31431
196.2884
196.24879
196.27193
196.27487
196.32325
196.29884
196.29898
196.30901
196.30901
196.28195
196.26012
196.25987
196.30529
196.31146
196.28045
196.2465
196.25297
196.26486
196.28284
196.26739
196.26787
196.29196
117.64607
117.6366
117.68333
117.68253
117.63976
117.67072
117.68137
117.66545
117.63782
117.64066
117.64941
117.66264
117.65807
117.63769
117.63716
117.64859
117.67277
117.65665
117.65516
117.66907
117.66219
117.72129
117.681
117.63175
117.66376
117.68677
117.65671
117.64338
117.62127
117.68196
39.295498
39.271239
39.250168
39.237659
39.23026
39.221779
39.22706
39.233782
39.23243
39.254639
39.241712
39.230964
39.237956
39.253389
39.261379
39.252939
39.269118
39.270224
39.274822
39.254068
39.241439
39.263144
39.240671
39.23683
39.22459
39.231939
39.230658
39.236038
39.263086
39.270363
)
;

boundaryField
{
    minX
    {
        type            calculated;
        value           nonuniform List<scalar> 
50
(
353.42928
274.46347
196.28693
117.68221
39.228172
353.43651
274.46784
196.26777
117.66523
39.247289
353.42787
274.4601
196.29594
117.6684
39.233552
353.43909
274.43259
196.30618
117.68872
39.25381
353.43101
274.44236
196.3202
117.67017
39.255379
353.44393
274.4376
196.27786
117.66873
39.247875
353.44643
274.43743
196.2813
117.67573
39.247156
353.45191
274.42772
196.30041
117.67491
39.259138
353.4528
274.42569
196.31784
117.68854
39.269291
353.44687
274.45102
196.30583
117.64607
39.295498
)
;
    }
    maxX
    {
        type            calculated;
        value           nonuniform List<scalar> 
50
(
353.51128
274.36934
196.37055
117.68294
39.289013
353.51356
274.36531
196.31102
117.67268
39.26962
353.51047
274.37882
196.3007
117.65958
39.248579
353.51115
274.38734
196.29835
117.66441
39.247847
353.50088
274.38364
196.29925
117.64743
39.251621
353.49253
274.37099
196.31862
117.66966
39.266217
353.49616
274.38792
196.31678
117.63515
39.293806
353.5123
274.43075
196.25141
117.65387
39.256394
353.50837
274.39086
196.32147
117.62511
39.288688
353.5085
274.37895
196.29196
117.68196
39.270363
)
;
    }
    minY
    {
        type            calculated;
        value           nonuniform List<scalar> 
292
(
392.4
392.4
392.4
392.4
392.4
392.4
392.4
392.4
392.4
392.4
392.4
392.4
392.4
392.4
392.4
392.4
392.4
392.4
392.4
392.4
392.4
392.4
392.4
392.4
392.4
392.4
392.4
392.4
392.4
392.4
392.4
392.4
392.4
392.4
392.4
392.4
392.4
392.4
392.4
392.4
392.4
392.4
392.4
392.4
392.4
392.4
392.4
392.4
392.4
392.4
392.4
392.4
392.4
392.4
392.4
392.4
392.4
392.4
392.4
392.4
392.4
392.4
392.4
392.4
392.4
392.4
392.4
392.4
392.4
392.4
392.4
392.4
392.4
392.4
392.4
392.4
392.4
392.4
392.4
392.4
392.4
392.4
392.4
392.4
392.4
392.4
392.4
392.4
392.4
392.4
392.4
392.4
392.4
392.4
392.4
392.4
392.4
392.4
392.4
392.4
392.4
392.4
392.4
392.4
392.4
392.4
392.4
392.4
392.4
392.4
392.4
392.4
392.4
392.4
392.4
392.4
392.4
392.4
392.4
392.4
392.4
392.4
392.4
392.4
392.4
392.4
392.4
392.4
392.4
392.4
392.4
392.4
392.4
392.4
392.4
392.4
392.4
392.4
392.4
392.4
392.4
392.4
392.4
392.4
392.4
392.4
392.4
392.4
392.4
392.4
392.4
392.4
392.4
392.4
392.4
392.4
392.4
392.4
392.4
392.4
392.4
392.4
392.4
392.4
392.4
392.4
392.4
392.4
392.4
392.4
392.4
392.4
392.4
392.4
392.4
392.4
392.4
392.4
392.4
392.4
392.4
392.4
392.4
392.4
392.4
392.4
392.4
392.4
392.4
392.4
392.4
392.4
392.4
392.4
392.4
392.4
392.4
392.4
392.4
392.4
392.4
392.4
392.4
392.4
392.4
392.4
392.4
392.4
392.4
392.4
392.4
392.4
392.4
392.4
392.4
392.4
392.4
392.4
392.4
392.4
392.4
392.4
392.4
392.4
392.4
392.4
392.4
392.4
392.4
392.4
392.4
392.4
392.4
392.4
392.4
392.4
392.4
392.4
392.4
392.4
392.4
392.4
392.4
392.4
392.4
392.4
392.4
392.4
392.4
392.4
392.4
392.4
392.4
392.4
392.4
392.4
392.4
392.4
392.4
392.4
392.4
392.4
392.4
392.4
392.4
392.4
392.4
392.4
392.4
392.4
392.4
392.4
392.4
392.4
392.4
392.4
392.4
392.4
392.4
392.4
392.4
392.4
392.4
392.4
392.4
392.4
392.4
392.4
392.4
392.4
392.4
392.4
)
;
    }
    minZ
    {
        type            calculated;
        value           nonuniform List<scalar> 
150
(
353.42928
274.46347
196.28693
117.68221
39.228172
353.4484
274.46917
196.22675
117.66236
39.232482
353.45529
274.44149
196.26545
117.63942
39.241881
353.4473
274.41303
196.25394
117.68559
39.234909
353.45753
274.42462
196.32375
117.69664
39.253037
353.44652
274.42067
196.30075
117.6726
39.247349
353.44936
274.43633
196.29242
117.6506
39.283552
353.44263
274.4308
196.29707
117.64906
39.284545
353.44951
274.41543
196.30695
117.67492
39.253747
353.45497
274.41716
196.3257
117.68401
39.251265
353.45405
274.42325
196.31298
117.68313
39.235804
353.44899
274.42496
196.29856
117.67777
39.225027
353.46861
274.4577
196.26685
117.66244
39.237841
353.48271
274.45757
196.28232
117.65851
39.226066
353.48843
274.39787
196.2866
117.67854
39.234484
353.47194
274.42838
196.28916
117.64499
39.257698
353.4873
274.43501
196.25512
117.66769
39.244971
353.49996
274.46622
196.27046
117.67906
39.236152
353.51646
274.4459
196.26955
117.68344
39.234425
353.52473
274.40224
196.23535
117.63019
39.246744
353.52587
274.365
196.29339
117.66903
39.246613
353.52398
274.35252
196.29034
117.67952
39.263255
353.52459
274.40687
196.22698
117.62623
39.246655
353.52602
274.44373
196.2817
117.67763
39.236677
353.51647
274.43787
196.27404
117.65938
39.234411
353.51219
274.39359
196.31273
117.63195
39.245966
353.51726
274.42243
196.28638
117.63803
39.272033
353.50912
274.38331
196.29861
117.62232
39.276089
353.50762
274.35153
196.298
117.66616
39.277287
353.51128
274.36934
196.37055
117.68294
39.289013
)
;
    }
    maxZ
    {
        type            calculated;
        value           nonuniform List<scalar> 
150
(
353.44687
274.45102
196.30583
117.64607
39.295498
353.45655
274.46938
196.28293
117.6366
39.271239
353.4543
274.42841
196.31208
117.68333
39.250168
353.4513
274.42825
196.27903
117.68253
39.237659
353.44796
274.44514
196.25836
117.63976
39.23026
353.45218
274.46164
196.26983
117.67072
39.221779
353.46289
274.46691
196.26722
117.68137
39.22706
353.46346
274.42561
196.31431
117.66545
39.233782
353.45363
274.43528
196.2884
117.63782
39.23243
353.47082
274.46321
196.24879
117.64066
39.254639
353.47114
274.48438
196.27193
117.64941
39.241712
353.47725
274.45599
196.27487
117.66264
39.230964
353.4765
274.41892
196.32325
117.65807
39.237956
353.48093
274.40886
196.29884
117.63769
39.253389
353.47671
274.41395
196.29898
117.63716
39.261379
353.48628
274.39333
196.30901
117.64859
39.252939
353.48782
274.3953
196.30901
117.67277
39.269118
353.48013
274.39062
196.28195
117.65665
39.270224
353.50074
274.45349
196.26012
117.65516
39.274822
353.51253
274.45453
196.25987
117.66907
39.254068
353.49416
274.38023
196.30529
117.66219
39.241439
353.5083
274.37486
196.31146
117.72129
39.263144
353.49445
274.37146
196.28045
117.681
39.240671
353.49792
274.40195
196.2465
117.63175
39.23683
353.50554
274.43675
196.25297
117.66376
39.22459
353.50764
274.46233
196.26486
117.68677
39.231939
353.50509
274.45733
196.28284
117.65671
39.230658
353.50974
274.44022
196.26739
117.64338
39.236038
353.5053
274.40102
196.26787
117.62127
39.263086
353.5085
274.37895
196.29196
117.68196
39.270363
)
;
    }
    bottomWater_to_rightSolid
    {
        type            calculated;
        value           nonuniform List<scalar> 
130
(
-0.00384797
-0.0055746711
0.0067444066
0.0066126626
0.023254969
0.0066549667
-0.0033226684
-0.005588622
0.0059662407
0.032032765
0.036089424
0.037287397
0.049012907
0.0032640384
0.010433061
0.022999951
0.0308053
0.025909971
0.016202663
0.010448248
0.0078999298
-0.0070649239
-0.0036517867
0.01771165
0.030538608
0.029619751
0.023441639
0.02323553
0.015466407
0.018379327
0.035197651
0.020017768
0.032708841
0.012606453
-0.0018293622
-0.006880198
-0.012243004
0.0078736885
0.0085793714
0.010697144
0.00498271
-0.0057765336
0.0087354499
0.023077397
0.024467315
0.035607676
0.012280671
-0.0013020822
-0.009189683
-0.016901934
0.0023681256
0.007847092
-0.01953737
-0.014150901
-0.0182308
-0.014520442
-0.011962172
-0.01805663
-0.012805719
-0.014868441
-0.018357098
-0.0074392642
0.005209895
0.019846834
0.011620973
0.013352062
-0.0013423158
-0.0031193327
0.015654367
0.014266345
0.011988804
-0.0043845674
0.010614704
0.02646777
0.015438157
0.0092161465
0.041274313
0.02621705
0.0051707684
0.009856569
0.039092431
0.043219695
0.025351109
0.022550529
0.01684335
0.013368013
0.024544558
0.00050299899
0.020750966
0.015794327
0.053806493
0.027333905
0.018718163
0.012566766
0.017733453
0.032158844
0.023209057
0.018256958
0.0042349603
-0.014437765
-0.0098818008
-0.0091386089
-0.0028515876
0.016393776
0.025691786
0.02250057
0.0012346005
0.0038549841
0.012791944
0.0095072944
0.0014010667
-0.016836359
-0.014911896
-0.0091102475
-0.012316073
0.0038888974
0.048688441
0.030224228
0.034821911
0.014067556
0.0014388781
0.023143876
0.00067056588
-0.0031701099
-0.015410154
-0.008060821
-0.0093419939
-0.0039624895
0.023086335
0.030363263
)
;
    }
    bottomWater_to_leftSolid
    {
        type            calculated;
        value           nonuniform List<scalar> 
130
(
-0.01182841
-0.0075178803
0.0018814155
-0.005091096
0.013036647
0.0073487414
0.043551549
0.044544824
0.013747319
0.011264951
-0.0041964411
-0.014973437
-0.0021594003
0.0072885227
-0.014599915
0.0065858138
-0.0028134352
0.0043111745
-0.0068177044
-0.0079427653
0.0033615297
-0.0069195652
-0.019671466
-0.0095416337
-0.013680143
0.014056507
-0.0064479489
-0.013772876
-0.0072222636
0.0055279987
0.011839281
0.0033075439
0.028323386
0.022347641
0.021300055
0.019075577
-0.0050619382
-0.010392054
0.0011812124
0.013809866
0.0049720563
-0.0032131157
-0.013868286
0.00085229979
0.0093099759
0.015228907
0.026962221
0.020247423
0.016694274
0.0074607036
-0.013734736
-0.0014200748
0.015379432
0.014438005
-0.0025840077
-0.0115127
-0.0067050909
0.017937051
0.022858052
0.031574603
0.018331262
0.011053951
0.010668692
-0.0046501032
-0.010065138
0.0078749595
0.012414647
-0.0084832182
-0.006664422
-0.024061035
0.012374706
0.0069210438
0.016351915
0.022892166
0.025568134
0.034363923
0.020009613
0.0042718507
0.0071557887
0.012428227
-0.0072148005
-0.004657496
-0.0062414597
-0.00059283328
0.018232157
0.028012857
0.026836958
0.037942114
0.024456241
0.014572193
0.0036190025
0.019137565
0.013949318
0.0063717243
-0.00088907596
-0.0074721964
-0.010115069
-0.0026809927
0.016037193
0.018115008
0.030685709
0.019735568
0.022478983
0.01575846
0.02929094
0.020987206
0.0097500881
0.0055596866
-0.00055910226
-0.0079314984
-0.013100506
-0.0050304094
0.0025841498
0.035085549
0.031963269
-0.0044147136
0.00070399215
0.055498485
0.03123893
0.010168414
-0.0023405495
-0.0097404794
-0.018221295
-0.012940298
-0.0062183697
-0.0075697201
0.014638921
0.0017121701
-0.0090358451
-0.0020443102
)
;
    }
    bottomWater_to_heater
    {
        type            calculated;
        value           nonuniform List<scalar> 
92
(
-0.013934449
-0.005515805
0.017698183
0.0049707805
0.020878024
0.0076020421
0.010200105
0.016906576
0.011466954
0.017702108
0.034487817
0.028285629
353.49084
353.49082
353.48745
353.48905
274.4733
274.41195
274.39016
274.38564
196.25268
196.2575
196.28782
196.31501
117.65926
117.65624
117.66162
117.68068
-0.0011016357
39.238898
0.018490341
39.25849
0.018121322
39.258121
0.025754979
39.265755
353.45197
353.48823
274.43778
274.42778
196.28437
196.33551
117.66887
117.66646
39.229935
39.220463
353.4543
353.46508
353.4841
353.49381
353.48419
353.48654
274.41584
274.43363
274.46564
274.44781
274.40912
274.39505
196.29274
196.29496
196.27135
196.2637
196.32148
196.2587
117.66309
117.6596
117.67646
117.65278
117.65168
117.6193
39.244272
39.23966
39.231988
39.22327
39.253352
39.252567
-0.00034004577
-0.0080117746
-0.01672951
0.012567133
-0.0071014376
-0.0015023759
0.015813048
0.029775211
-0.008764499
0.0093860365
0.016079851
0.018163877
0.01338869
0.02137887
0.012939321
0.029118202
)
;
    }
}


// ************************************************************************* //
