/*--------------------------------*- C++ -*----------------------------------*\
| =========                 |                                                 |
| \\      /  F ield         | OpenFOAM: The Open Source CFD Toolbox           |
|  \\    /   O peration     | Version:  v2012                                 |
|   \\  /    A nd           | Website:  www.openfoam.com                      |
|    \\/     M anipulation  |                                                 |
\*---------------------------------------------------------------------------*/
FoamFile
{
    version     2.0;
    format      ascii;
    class       surfaceScalarField;
    location    "410/bottomWater";
    object      phi;
}
// * * * * * * * * * * * * * * * * * * * * * * * * * * * * * * * * * * * * * //

dimensions      [1 0 -1 0 0 0 0];
oriented        oriented;


internalField   nonuniform List<scalar> 
3858
(
-0.00018504011
0.00016921603
2.6398919e-05
-3.6506498e-05
-0.00019255353
5.0651873e-05
-1.7307497e-05
-1.7514958e-05
3.2304259e-06
-7.3380971e-05
0.00015962472
-9.6773468e-05
-7.6052268e-05
0.00013470212
-0.00012734004
-0.00012043062
0.00016644722
-0.00011503599
-0.00012844727
9.0079147e-05
-7.5665969e-05
-0.00019928657
0.00014538289
-6.6657721e-05
-0.00023508676
0.0001616995
-0.00011932318
-0.00023587772
0.00014720063
-0.00014093461
-0.00026786797
0.00015360468
-0.00011593979
-0.0002953206
0.00015683385
-0.00012260691
-8.9211653e-05
-0.00016565704
-3.7937691e-05
2.0989552e-05
-0.00014241529
3.1556185e-05
-0.00012056851
7.9996366e-05
5.9707114e-05
-0.00030333372
0.00011842989
6.6171535e-05
-0.00024615461
-0.00019355328
0.00013523033
-7.1330035e-05
-0.00028298948
0.00010425306
0.00010204158
-0.00023669698
5.5778278e-05
0.00011635753
-6.9547264e-05
4.584245e-05
-4.1921036e-05
8.9921096e-05
5.8707203e-05
-0.0002364588
0.00010704438
7.8376814e-05
-0.00022642761
-0.00010463953
8.5532243e-05
4.4005822e-05
-0.00030874239
2.8895948e-05
0.00020257652
-0.00020080505
3.4699019e-05
0.00015135732
4.9879333e-05
-5.3675845e-06
0.00019937617
-0.00010678065
5.1083571e-05
0.0001911035
7.341597e-05
-7.1102138e-05
7.8936971e-05
0.00018482494
-7.8307108e-05
0.00013226384
-5.9942624e-05
3.0418969e-05
0.00010076578
3.8031285e-05
0.00040295174
-0.00056257992
-2.5063788e-06
0.0004851248
-1.4533663e-05
-8.5154348e-05
0.0002603767
0.00055419525
-0.00016982242
-3.1567959e-05
0.00058498131
-0.00015833453
-0.00020601406
0.00040046874
-5.9575414e-05
-2.1624143e-05
-7.9482103e-05
-1.4828663e-05
0.00010092591
7.6148073e-05
-5.3315236e-05
-7.0593601e-05
0.00047165144
-0.00013843244
-0.00024523697
0.00052861763
-0.00020677364
-0.00027731333
0.00037924312
-0.00019356208
-7.5388626e-05
0.00013263851
-0.00017772937
0.00028046406
-0.00043900688
-8.250285e-05
0.00043310652
-0.00030465238
9.5946303e-06
-2.6235179e-05
0.00047628278
6.3055274e-05
-0.00020858606
9.2947821e-05
0.00020783294
-4.6195567e-05
-0.00052021369
0.00016426991
0.0001689825
-0.00059260075
9.4433198e-05
0.00042364023
-0.00054570364
5.434893e-05
0.00055160781
-0.00025113483
5.3619995e-05
9.457027e-05
0.00046668171
8.0276933e-05
-0.00049757457
0.00067763782
2.1551403e-05
-0.00037120046
-0.00031614967
8.5136044e-05
-1.8811697e-05
-0.00066197578
8.4463145e-07
0.00027215537
-0.00049421039
2.4382826e-06
0.00022574836
0.00016157111
-6.5284766e-05
0.00041723192
-0.00035000642
5.1742215e-05
0.00054756528
1.7051871e-05
-7.3969262e-05
0.00035579851
0.00055807202
-0.00018148031
0.00063708271
-0.00014902036
0.00030627039
-0.00027406493
6.8560334e-05
-0.00011759323
-0.00011618313
-2.2533149e-05
-0.00014445853
-5.5337555e-05
6.7669216e-05
-4.4979031e-05
0.00044882329
5.8924745e-06
-2.9979679e-05
0.00055654149
1.3440484e-05
3.7476194e-05
0.00031699463
1.601826e-05
-0.00010129666
-0.00013220378
0.00019149453
-0.00020297732
-1.6895446e-05
0.00019472418
-0.00019868641
0.00040581768
6.1542837e-05
-0.00010359981
0.0004707437
-3.7212668e-05
0.00016787713
0.00010477252
2.9936441e-06
0.00043400263
-0.00015487814
2.1391139e-05
0.0001674859
-0.00013969891
-3.279125e-05
9.6059325e-05
-0.00025116262
1.7936796e-05
0.00027325179
0.00027668023
2.2410067e-05
0.00030131644
1.2631058e-05
5.2252104e-05
9.9859519e-05
-0.00029039503
-2.8361756e-05
6.6106861e-05
-0.00052316369
-3.5684409e-05
-3.8641111e-05
-0.00045012733
9.1716649e-06
-9.7186761e-05
-0.00014268524
-4.9903936e-05
-2.2623896e-05
0.00032341049
6.8708363e-05
5.6549602e-05
0.00060515007
-6.6857298e-06
3.470999e-05
-0.00014552436
-0.00014878568
-9.0574775e-05
-0.00046725931
-6.943169e-05
6.850952e-06
-0.00054809806
-4.3538044e-05
0.00015309779
-4.4557432e-05
5.9881717e-05
-8.4640928e-05
-0.0001194989
7.231203e-06
-8.5348206e-05
-0.00012762321
0.00014538236
-6.310597e-06
0.00042123795
5.7796464e-05
0.00064533442
-1.456231e-05
1.9943047e-05
-0.00035547264
6.1464691e-05
-0.00016755723
7.4488751e-06
6.3868291e-05
-0.00041501687
0.0001182322
7.3889911e-05
-0.00016001801
2.4236148e-05
0.00016958831
0.00014759155
0.00014218381
0.00010674814
0.00030575573
9.9404516e-05
5.9425938e-05
-8.6020845e-05
0.00027036841
-1.0795598e-05
-0.00044173501
0.00030832246
3.0496259e-05
-0.00029867036
0.00018598076
7.6772263e-05
1.3203575e-05
0.00012379586
3.5073891e-05
0.0002602186
-0.0001791596
3.6917083e-05
0.00033216996
-0.00026528516
3.8455635e-05
0.00016085767
-4.5954338e-05
7.7567686e-05
6.4423313e-05
-0.00025332262
9.8594347e-05
0.00029481027
-3.6424137e-05
8.2717388e-05
9.4893053e-05
0.00024983719
-3.7288926e-05
-1.8359341e-05
-0.00015589877
-2.1243881e-05
1.0919975e-05
-0.00049878942
-5.3653595e-05
-3.6276004e-05
-0.00038170522
-2.1226133e-05
-0.00022277262
2.3189082e-05
2.0622294e-05
-0.00010995205
0.000146644
6.3945943e-05
0.00018875655
0.00030970493
-3.2634479e-06
0.00013596936
3.6266726e-05
-0.00012900388
0.00010283938
-0.00045565498
2.1525667e-05
0.00018839666
-0.00056769955
-6.5955776e-05
0.00012502666
4.3005758e-05
-2.4193176e-05
-0.00018391603
0.00026981209
-8.0368295e-05
-0.00039917908
0.00014978263
-6.2142775e-05
-0.00022161778
0.00017661909
6.7057556e-05
0.00040559117
1.8125464e-05
-0.00033305304
-2.2419577e-05
-0.00038731599
6.1711838e-05
-0.00032596274
5.6878978e-05
-0.00035425266
5.2526092e-05
-0.00030045762
8.8388788e-05
-0.00026808176
6.7028668e-05
-0.00014299344
0.00014528009
3.2118585e-05
0.00013321043
0.00019549313
2.2606204e-05
0.00032136871
-2.0797286e-06
0.0001806952
-3.8486108e-05
-3.9348968e-05
-4.5241012e-05
-1.3144931e-05
-7.215839e-05
-0.00014865035
-0.00011781722
-8.8394223e-05
-9.6680272e-05
0.00023009327
-6.8650322e-05
0.00022347341
-0.00014927892
-0.00010329848
-0.00017201753
-0.00034622693
-0.00013877677
-0.00026322195
-5.9815891e-05
-0.00010095877
-1.5619166e-05
0.00022376874
-1.5022569e-05
0.00034532993
-8.5294442e-05
7.2728492e-05
-0.00018305354
-0.00034884671
-0.00014612433
-0.00044359396
0.00013775302
-0.0003484016
0.00017461974
-0.00033698132
0.00013836235
-0.00028078304
0.00012042081
0.00012480813
-0.00018793683
0.00015809686
6.5338358e-05
-6.151266e-05
-0.00018854265
0.00011969428
7.3815574e-05
-0.00025561669
0.00012714555
4.0354851e-05
-6.4532823e-05
3.8768992e-06
-0.00011014077
0.00012351059
-9.680667e-05
-0.00020786255
0.00012352801
-0.0001347021
-5.97833e-05
-0.00021051538
-1.031681e-05
8.8410295e-05
-0.00026794517
5.4851126e-05
-4.8836821e-05
0.00015552293
-0.00013067386
-0.00017059967
0.00015211374
-0.00016747182
-0.00023356198
0.00013844454
-0.00018522782
-0.00021493074
4.7200515e-05
-0.00018355187
-0.0001849329
8.5559649e-05
-0.00014962698
-0.00014903579
0.0001346827
-0.00013731145
-0.00017487575
0.00016092002
-7.549206e-05
-0.00029087126
0.00018671116
-3.5160968e-06
-0.00036160005
0.00012757686
8.1160047e-05
-0.00018214235
-0.00021900854
0.00014142691
-1.675684e-05
-0.00021975212
0.00010239406
-2.3097713e-06
-1.5051914e-05
3.6449715e-05
-0.00010538435
0.00012887814
2.3874299e-05
-0.00024402532
0.00015795201
5.072493e-05
-0.0003236176
0.00010428144
5.5544247e-05
-0.00012630805
-0.0002926224
0.00011414584
7.9902061e-05
-0.00028896364
0.00010947053
0.00012172414
-0.00012073719
6.4560097e-05
2.9809491e-05
0.00012337294
1.2630069e-05
0.00020194808
-0.00026202645
7.6915771e-06
0.00015096833
8.4518428e-05
-0.0001165315
0.00014889052
-6.4831669e-05
-3.4924608e-05
8.2014619e-05
0.00014903814
0.0001442815
-0.00048477788
0.00011452275
0.00034626811
-0.00060592418
6.3166549e-05
0.00041276571
-0.00015223431
-0.00014861852
-2.1345958e-05
0.00055266037
-0.00015337263
-0.00013537655
0.00020832123
-3.0338033e-05
1.6494191e-06
-0.00052130712
0.00015893711
0.00012500802
-0.00064693754
0.00020231853
0.0001216853
8.1733597e-05
-6.1320391e-05
-9.8298794e-05
0.0004530746
-0.00028775041
-4.152292e-05
0.00015085306
-0.00026274648
6.1638599e-05
-2.5002323e-05
-0.00020868806
0.00019199096
-3.9416406e-06
-0.00012335393
0.00022077456
0.00014936955
-3.3875818e-05
-7.3762375e-05
0.00052154329
-3.0310727e-06
-0.00023993099
0.00041589928
0.00014481343
-0.00010898465
-3.9872039e-05
0.00020077245
0.00017762805
-0.00056210785
0.0001509198
0.00054604263
-0.00053838948
4.5717044e-06
0.00053412665
0.00010387971
-5.3395643e-05
4.2154579e-05
0.00076025472
-5.912757e-05
-0.00039049862
0.0006746564
-6.2499787e-05
-0.0003870943
5.871636e-05
0.00012729682
-0.00014357334
-0.00067961098
0.00014431225
8.2787283e-05
-0.00064820699
0.00013532101
0.0002062566
-0.00033312679
2.363553e-05
-2.890277e-06
0.00041029918
-2.6037146e-05
0.00028215434
-0.00059294942
-2.8090905e-05
0.00041464017
-1.3212065e-06
-0.00022812651
0.00061664657
-0.00020213624
0.0002475555
-7.3712521e-05
-2.326801e-05
0.00017068517
-0.00029853866
-0.00013190201
-0.00011093962
-0.00010952949
-0.00014710067
-7.6420924e-05
-0.00012336982
-5.7490698e-05
1.3152624e-05
0.00045099459
2.5532733e-05
0.00014806212
5.8781677e-07
8.8842195e-05
-1.4542497e-05
-0.00022975466
6.2546701e-05
-0.00040935823
-0.00010674985
4.935223e-05
-0.00034739389
-1.832071e-05
9.9632787e-05
-0.00015945647
0.00012987697
9.804753e-05
9.5762391e-05
-0.00025516792
0.00015379576
0.00027017084
-0.00028312512
0.00010510548
0.00030147232
-0.00016240502
9.4370632e-05
0.00021508984
1.1845077e-05
0.00024184373
0.00023750069
0.00040445677
0.00011708571
0.00032980513
0.00030718187
6.8665059e-05
0.00033135725
-7.1746743e-05
1.9608137e-06
0.00016085932
-0.00033072981
-9.6564521e-05
-5.2352692e-06
-0.00030715826
-5.5964963e-05
4.6449463e-05
-3.1107637e-05
3.3398682e-05
9.7288783e-05
0.00068354446
9.4579319e-05
0.00023929855
0.00056448129
-3.8520369e-05
0.00028628317
-4.082537e-05
-9.6228555e-05
-4.7196939e-05
-0.00014940016
-0.00026616238
-0.00022759398
-0.00038577407
-0.0001255739
-3.1584373e-08
-0.00052535164
2.4544181e-05
9.7800889e-05
0.00022778973
9.1908182e-05
-0.00027012965
-0.00012453813
4.490161e-05
-0.00017790252
-8.7060269e-05
5.1308394e-05
0.00052313343
-9.8951693e-05
-8.131148e-05
8.5699893e-05
-1.6636217e-05
-4.3120149e-05
-0.00027669692
3.8352433e-06
-0.00017527345
0.00012000435
-2.3490607e-05
-0.00023687553
4.6541574e-05
6.1279029e-05
8.3273505e-05
6.6525804e-05
0.00017106791
0.00016632157
-0.00015945613
0.00013642184
8.9315884e-05
-0.0001694795
5.934932e-06
-5.1798233e-05
5.0200115e-05
1.4660408e-05
-5.6906727e-05
-3.9941454e-05
0.00010350149
0.00019864999
-0.00019938855
0.00010878267
0.00036226794
-0.00038375103
1.8822221e-06
0.00037903531
-0.00018976903
-7.1667858e-05
0.00010483731
0.0002657741
-7.6413452e-05
-8.9572315e-05
0.00020439989
0.00010044914
0.00015509335
0.0001279927
0.00011451577
0.00030327195
9.4457501e-05
2.7256828e-05
0.00015582444
0.00011950881
-6.505194e-05
0.00010933169
-0.0002745645
-6.3326158e-05
-1.0168952e-05
-0.00016345654
-4.5427204e-05
-0.0002001525
0.00023492269
-5.5424468e-05
1.9631238e-05
0.00040214476
0.00012556191
0.00034440442
0.00021652033
1.9924348e-05
0.00023555841
3.2887082e-05
-9.38703e-05
0.00011930397
1.4532355e-05
-2.6152391e-05
6.9107364e-05
-0.00032142281
-8.0110416e-05
4.9438828e-05
-0.00054913502
1.9258747e-05
0.00019304106
-2.0916957e-06
5.9109097e-06
-0.00011253249
0.00017045199
-5.1559345e-05
-0.00029750919
0.00021827876
-5.3304777e-05
0.00026457851
-2.0828808e-05
2.5796733e-05
3.7483603e-05
-0.00024058216
5.139383e-05
-0.00016813063
0.00010443182
-0.00010516246
3.6099516e-05
4.9744007e-06
4.4777749e-05
-2.579343e-05
-6.1659618e-05
-2.7376735e-05
-2.2616104e-05
0.00020246614
-4.6432331e-05
0.00032427985
-0.00013914897
0.00028334164
-0.00016053008
2.3340064e-05
-0.00016223558
-0.00014104814
-7.0621854e-05
-5.9054691e-06
5.8473022e-05
3.8989104e-05
4.1688076e-05
7.6874964e-05
-6.5734483e-06
0.00014761669
-4.4934563e-05
0.00022387703
-0.00010603045
-8.1990527e-05
-0.00014071449
-0.00031269442
-7.1529413e-05
-0.00021097377
7.338615e-05
6.2047449e-05
0.00011350439
0.00027071154
-7.1663159e-06
0.00029158696
-7.3282766e-05
0.00032085294
-0.00019778714
4.1914932e-05
-0.00018860912
-0.00038430049
1.4833425e-05
-0.00043078855
0.0002190161
-0.00035528795
0.00023331374
-0.00022273447
0.00020614609
0.00016665217
-9.1570619e-05
0.00014173194
2.6000782e-05
-0.0001529533
0.00012284808
6.9237244e-05
-0.0002462254
0.00017096998
6.2081104e-05
-0.00013529453
-0.00016774204
6.8271159e-05
-6.1240187e-05
-0.00017639061
9.0686648e-06
-8.2024268e-05
-7.1112117e-06
-0.00010339942
-7.678852e-05
3.2749788e-05
-4.5500156e-05
-6.5384665e-05
1.3543818e-05
3.4021919e-05
-2.205348e-05
-0.00016338389
-8.9482873e-06
-0.00016796216
8.7350314e-05
-0.00010347446
-0.0002363516
3.7122263e-05
-0.00014771472
-6.950492e-05
-0.00028146566
-6.6712753e-05
4.2549336e-05
-0.00023219909
-2.9267307e-05
7.2680816e-05
-0.00010751192
-6.2866327e-05
-4.3332002e-05
6.8726757e-05
-3.1848647e-05
-0.0001894896
0.00013333627
6.1496189e-06
-0.00029015351
0.00017728662
3.241575e-06
-0.00028854105
0.00012949128
1.0348169e-05
-2.7122903e-05
-0.00026514968
0.00010075466
0.00014755481
-0.00018792834
4.0886306e-05
0.00017107271
3.8359625e-05
-4.7438366e-05
0.00010943953
0.00011420688
-1.0658549e-05
-4.0102535e-05
0.00014919485
4.7736735e-05
-0.00017238374
0.00011098137
0.000129004
-0.00019720223
-6.9106663e-06
0.00013468518
-0.00014665088
-0.00011212532
0.00011869656
-5.1433131e-06
-0.00017739652
4.161565e-05
0.00013081072
-0.00019712841
6.2436921e-05
0.0001724005
-0.00012419801
-4.1257359e-05
8.9300834e-05
1.1870901e-05
-4.4870929e-05
0.00012744228
0.00020819874
-5.9497484e-05
5.2193539e-05
0.00019980385
6.4034588e-05
2.5656799e-05
8.494767e-05
0.00028376467
-0.00050606622
-3.0024409e-05
0.00048161075
-0.00045559779
-7.201152e-05
0.00035165901
0.00024390438
-0.00015140187
-8.1389198e-05
0.00066484645
-4.0111341e-05
-0.0002091159
0.00018363206
0.00015995699
-4.4888898e-05
-0.0004891371
0.00010020581
-0.00010864058
-1.0559496e-05
-0.00012608892
-7.3660788e-05
-6.708756e-05
-0.00019351646
0.00015728779
-0.00064692344
-7.4178877e-05
0.00039274971
-0.00054512448
-4.5890474e-05
0.00059112076
-0.00031538587
-2.4372921e-05
0.00031190182
0.0004077454
-6.2830791e-05
-0.00013294816
0.00070372663
1.9273025e-05
-0.0003658731
0.00053484836
7.6135649e-05
-0.00015335752
6.761276e-05
2.8274233e-07
0.00025760473
-0.00063685701
-3.4683213e-05
0.000539184
-0.00042665898
-9.6244266e-05
0.00042480669
0.00031362
-0.00022001062
-1.009244e-05
0.00070226076
-0.00021565453
-0.00039802647
0.00065120746
1.3218255e-05
-0.00042269164
7.6384082e-05
0.00020357472
-0.00037160761
-0.00013587773
0.00021320404
-0.00023439553
-0.00033259215
0.00010689028
-1.0617825e-05
-0.00044857259
2.1361227e-05
0.00023689542
-0.00046760427
-5.1282822e-06
0.00038984006
-0.0003765788
-0.00012869038
0.00040182129
-0.00012481664
0.00012388744
-2.9554696e-05
9.8415458e-06
0.00033092744
-0.000269898
-1.6850452e-05
0.00047600668
-0.00012051547
-0.00014600763
0.00019783224
-9.8576192e-05
-0.00018680625
-6.1054111e-05
-0.00011626003
-5.4918654e-05
4.5129823e-05
0.00014759964
7.8963015e-05
0.00018134351
0.00057511511
1.6064361e-05
0.0002352728
0.00012347064
5.5584366e-05
-6.6501617e-05
-0.00010130821
1.3578306e-05
-3.7729684e-05
-9.2163054e-05
0.00015087914
0.00016528822
-0.00022936263
0.00011305291
0.00017163189
-0.0005559963
7.8346472e-06
6.5489262e-05
-0.00035327107
8.6598291e-06
-5.17031e-05
-0.0001315144
0.0001751646
3.5706614e-05
0.00029149115
0.00014593023
3.7430626e-05
0.0006707442
9.9923458e-05
0.00014815084
0.00044285856
-1.6769617e-05
0.00036069657
-2.1157587e-05
-0.00022033991
5.6067219e-05
-0.0001480424
-0.00024015022
-0.00011583971
-0.00015583324
-6.5520124e-05
2.7110295e-05
0.00018236865
8.2880684e-05
-3.9713538e-05
0.00064116496
8.9399285e-05
-3.8337343e-05
0.00053417784
1.9424888e-05
-7.0326552e-05
-4.496625e-05
-0.00011282283
-0.00013322248
-0.00015295363
-4.5602057e-05
-1.8303379e-05
-0.00042039264
-2.5744261e-06
3.9654327e-05
-0.00049053138
7.5909262e-05
-4.6406131e-05
-0.00029632796
-4.0314251e-05
-0.00013241777
-0.00014032773
-9.8931039e-05
0.00026895533
-9.8503506e-05
8.7947972e-05
-0.00010404125
-3.0097606e-05
0.00015026349
-0.00033968821
1.1309964e-05
0.00014890546
-4.2188329e-05
-0.00010045969
-1.7535869e-05
0.00019011711
-6.0972918e-05
-0.00011298419
5.8780074e-05
9.1476147e-05
-2.9821052e-07
2.7056852e-05
0.00014427867
0.00027162358
0.00024321314
6.5915124e-05
0.00030920673
0.00010672353
-6.1756395e-06
0.00023573337
9.7718934e-05
-2.2052301e-05
7.0574187e-05
0.00020370851
-2.1929729e-05
4.1937011e-05
-0.0001312939
-6.7549353e-05
5.6729039e-05
-0.00053133811
-0.0001111181
-8.5280627e-05
-0.00023898143
-4.8693452e-05
-0.0002563728
0.00013235302
7.6738773e-06
-0.00012694487
0.00017872741
9.7851567e-05
7.9153824e-05
0.00041175986
8.0142453e-05
0.00027768261
0.00023827846
-5.9000637e-05
0.00024010982
0.00013112737
-0.00017803833
1.9288164e-05
6.4761814e-05
-3.7409762e-05
-0.00019196501
-2.2188939e-05
2.2184418e-05
-0.00010825085
0.00011004595
0.00011417046
0.00010862662
0.0003634586
8.0753257e-05
0.0003440715
0.00022679131
-2.192863e-05
0.00013124594
0.00027972255
-0.00013801561
-0.00012742362
0.00019236354
-0.00016675802
-0.00016194493
-0.00034162545
-2.4987115e-05
-0.00015547616
-0.00051830802
2.7218784e-05
-0.00016129383
-0.0002659488
-7.612083e-05
-0.00021642747
7.1898769e-07
-0.00013921786
8.0685494e-05
-4.8986442e-05
-5.011426e-05
-1.6443371e-05
-0.00025817029
-8.0238329e-05
-0.0002596615
6.3734722e-05
-0.00013876346
0.0001053186
-0.00012277931
8.7573693e-05
-0.00013891687
-1.8465193e-05
8.22606e-05
-5.8043085e-07
0.00022639445
-8.3842649e-05
0.00029457867
-0.00010961427
0.00044663555
-0.00010887847
0.00033896284
-0.00018585679
-0.00010930971
-0.00015368743
-0.00037588545
8.6067306e-05
-0.00030977172
0.00010792735
-0.00020393696
6.6319177e-05
7.7721205e-05
8.5167119e-05
0.00023823341
-2.8264211e-05
0.00019493473
3.371156e-05
5.8699352e-05
0.00012946779
-0.0001213423
0.00023123888
-9.5501104e-05
0.00019770917
0.00011024804
0.00015054316
0.00020692584
5.6830762e-05
0.00032844665
-3.9585392e-05
0.00036131578
-2.9114703e-05
4.2570148e-05
-8.0463875e-06
-0.00033920007
8.2478305e-05
-0.00040840445
3.6569316e-05
-0.00022927112
2.7731744e-05
1.8066544e-05
-8.6465698e-05
0.00015650764
-3.5571795e-05
-0.00013631456
0.00016172462
-3.4300982e-05
-0.00020002277
0.00017631984
-4.2384099e-05
-0.00032248459
0.00022723711
-2.5063852e-05
-0.00020117743
-0.00014870045
4.2642151e-05
-9.6186877e-05
-0.00018112743
-2.4189448e-05
-8.8835643e-05
-8.4167507e-06
-4.3890977e-05
-0.00025046985
0.00012814582
7.0665574e-05
-0.00036868786
4.7527503e-05
6.6361515e-05
-0.00024520712
-0.00029397035
6.8174701e-05
-0.00012523896
-0.00027274669
5.6980421e-06
-6.4819089e-05
-0.00022956561
0.00010289076
3.6519939e-05
-0.00031363798
0.00018264472
0.00022124029
-0.00024971078
0.00024949079
-6.2224853e-05
0.00012672648
0.00012744519
-2.684391e-05
0.00015485262
-0.00013411655
0.00014281172
-2.8231566e-05
-0.00023143463
0.00016914456
2.9280255e-05
1.2278223e-06
-0.00027892297
8.1863229e-05
0.00022779861
-0.00020796275
-7.3171774e-05
0.00018714422
6.6288314e-05
-4.181245e-05
3.1661315e-05
0.00016450373
3.2633551e-05
-0.00010384551
0.00016261738
9.4673724e-05
-0.0002261815
0.00014496545
0.00010597671
-0.0002370319
-6.0004844e-05
0.00018246702
-5.2455425e-05
-0.0003465863
0.0001953397
0.00012485309
-0.00027750936
0.00015504409
0.00019622506
-0.00015918644
3.8833615e-05
7.2888587e-05
0.00012872938
-0.00012933737
0.00046289473
3.1149028e-05
-0.00020520536
0.00048108397
-4.3687496e-05
-0.00021056858
0.00035457589
-8.7945158e-05
-3.9494123e-05
0.00010832737
-8.2189115e-05
0.0002166757
-0.00046500133
-1.1880447e-05
0.00043924337
-0.00043302319
-0.00012207378
7.0356853e-05
0.00049974971
-0.00017939128
-0.00038227185
0.00069419744
4.653407e-05
-0.00038023183
1.9366355e-05
0.00012632693
-0.00025026687
-0.00065755964
0.00010753539
-9.7918992e-05
-0.00055667695
-6.1934084e-05
2.1900586e-05
-0.00044603695
2.2472865e-05
0.00011592964
-0.00062852474
0.00017496721
0.00037306466
-0.00053121873
0.00048040277
-0.00023239376
0.00035946327
0.00026765771
-1.8452198e-05
0.00060890372
-0.00025691681
0.00045283656
-7.1277496e-05
-0.00011038186
-2.0776761e-05
8.7031539e-06
0.00017478633
-0.00066773535
7.3999205e-06
0.00038024869
-0.00053152709
-0.00010190863
0.00039812404
1.6449239e-06
-0.00016888648
0.00013589403
0.00053176298
-9.1810978e-05
-0.00026933352
0.00073444918
3.6970486e-05
-0.00047756502
0.00053879943
2.7601562e-05
-0.00032984831
-0.00024223098
0.00014139971
-6.2237093e-05
-0.00079497712
0.00020214082
0.00013701351
-0.00061529063
0.00013340238
0.00036889895
-0.00040528808
-0.00011447418
0.00035526803
-3.829714e-05
3.3052643e-05
0.00038091104
5.8772601e-05
5.6189892e-05
0.00032831348
0.00011278281
0.00022726848
7.5998327e-06
2.9889867e-05
0.00039823124
-0.00013571294
-0.00011372869
0.00019893721
-0.00014606443
-0.0001745615
4.9209973e-05
-0.00013411507
-7.0217849e-05
6.7149124e-05
0.00040196282
9.5912108e-05
0.00014883236
0.00062713153
4.0967033e-05
0.00026691464
-5.5591684e-05
-2.9545939e-05
3.1419854e-05
-0.0001285597
-0.00014262602
-0.00016799483
-8.6822927e-05
-0.00015738646
-9.1416889e-05
-0.00044970672
-6.5073546e-05
-6.8452533e-05
-0.00054050045
-0.00010232884
-0.00019117253
-0.00023333415
-0.00018582951
-9.1806568e-05
2.3559005e-05
0.00015819264
6.3620977e-05
0.00055207212
0.00014166669
0.00027341667
-0.00011896574
0.0002943236
-0.00028227619
-0.0001313077
8.9680577e-05
-0.00043659566
-9.2016783e-05
-0.00023674896
-0.00019307984
7.0862992e-05
-0.00018430599
-8.5557029e-05
0.00012415829
-3.7488169e-05
0.00039204851
1.2321558e-05
-0.00012521285
0.00066573911
4.3611936e-05
1.4175351e-05
0.00038228261
-2.847342e-05
0.00011502686
-0.0003413887
-4.268212e-06
5.2149089e-05
-0.00063800539
-1.8184691e-05
-2.1613928e-05
-0.00046532661
-0.00011651526
-0.00012066591
-0.0002161237
-0.00018904344
0.00020934099
-7.3242376e-05
2.8571718e-05
0.00022081935
0.00010142239
0.00015498715
1.4883621e-05
0.00019832442
0.00025729597
-0.00025394685
5.8778198e-05
0.00021927934
-0.00014993565
-8.7335467e-06
0.0001308499
6.8447701e-05
-3.4606519e-05
-6.399481e-05
0.0001226775
8.2330822e-05
4.2272302e-05
0.00025624237
0.00010536847
0.00025496747
0.00035842724
4.9833481e-05
0.00020402103
0.00013250373
-0.00015920129
0.0001330766
7.4601515e-05
-0.00015414653
5.8509665e-05
7.927858e-05
-0.00015908396
-5.1323231e-05
-0.00046154982
1.0557866e-05
-7.8245199e-05
-0.00053282834
-2.9443627e-05
-0.00013657361
-0.00016733188
-0.00021341987
8.2891239e-05
-9.046051e-05
0.00011537571
0.00011621603
0.00028639493
0.00017518486
8.502572e-05
-4.8616212e-05
3.0954991e-05
-0.00022382693
4.8370846e-05
-9.1280668e-05
-0.00041397644
0.00012180087
-0.00022176972
-7.9639517e-05
0.0001312192
-0.00035550859
7.2783662e-05
5.6151465e-05
-0.00015192009
0.00011558188
5.0949531e-05
1.8329468e-05
0.00037216312
-1.468915e-05
0.00016541672
0.00014761177
-7.9174406e-05
1.372472e-05
-0.00022562435
1.0940542e-05
-7.533953e-05
-0.00057766717
5.5944812e-05
-6.511867e-05
-0.00045765121
-9.4017099e-05
-0.00016105298
-0.00013183688
-0.00012757038
7.1656648e-05
-7.2355085e-05
0.00018177365
2.2602353e-05
0.00014004561
-2.3626652e-05
-0.00012038425
7.0217758e-05
-0.00029995675
0.00013495547
-0.00026737089
0.00012343555
-0.00021682852
5.3669952e-05
-4.754862e-05
8.6382044e-05
0.00019172998
3.5305994e-05
0.00027154684
-5.6927405e-05
0.00035687187
-0.00011960201
0.00044745901
-0.00019716537
6.9436465e-05
-0.00023721474
-0.00031114196
-6.6182632e-05
-0.00037054651
-0.0002213361
-2.0793287e-05
0.00023733743
0.0002676868
8.8387895e-05
1.0464851e-05
0.00016286281
-0.0003086228
0.0001363501
-0.00030316833
0.0001126152
-0.0001924562
0.00011261472
-7.4585865e-05
5.4542318e-05
0.0002116561
4.6335778e-05
0.0003516775
-2.1524326e-05
0.00016080624
-4.2799468e-05
-0.00019700687
-0.00013737575
-0.00037639579
-0.00024169298
-0.00025478558
-0.00022571535
-0.00016506239
-7.8081273e-05
0.00014723193
-9.4532567e-05
-0.00015965769
0.00015402931
-9.5894209e-05
-0.00021509315
0.00012564223
-0.00010073302
-0.00024646005
0.00012347244
-0.00010689828
-0.00032332728
0.00020415004
-7.1622763e-05
-0.0001211459
-0.00023696448
1.5649281e-05
-4.8626964e-06
-8.8561758e-05
-6.9433849e-05
-8.5563116e-05
9.265118e-05
6.1882948e-05
-0.0002062447
0.00015677423
3.4533717e-05
-0.00024506427
8.6162589e-05
2.6476583e-05
-8.2124178e-05
-0.00023509928
8.0789342e-05
4.9494288e-05
-0.00018782375
0.00016250667
7.5575852e-05
0.00016246327
-5.4273816e-05
-5.9859107e-05
8.4055828e-05
-0.00012838123
2.2959992e-05
7.8989256e-05
-0.00019199699
5.0103871e-05
9.4306415e-05
0.00011210727
-0.00041503381
2.9422309e-05
0.00035378679
-0.00035408944
6.3593593e-05
0.00032875632
-1.3256674e-06
5.5733794e-05
0.00021764153
0.00015211972
4.9820758e-05
0.00011342709
0.00015810381
4.7027223e-05
-2.5475223e-05
0.00015450358
0.00016291223
-0.0001259829
0.00013438972
0.00015889441
-7.0027311e-05
-7.3419264e-06
0.00010314124
0.00010581941
-0.00024280843
9.9537723e-05
5.7275353e-05
0.00017298278
-0.00022780223
0.00040648108
-2.9788617e-07
-0.00026732329
0.00016588451
-1.6021622e-05
-0.00018643252
8.4033454e-06
-5.159704e-05
-0.00013042789
7.0958586e-05
-8.5679885e-05
2.7416263e-05
3.9379341e-05
-4.9538862e-06
0.00036368625
-0.00063335798
-6.1950259e-05
0.00038349881
-0.00020482362
-8.294197e-05
-5.2417466e-05
0.0006299143
-5.4812776e-05
-0.00039044014
0.00052509331
9.6030519e-05
-0.00033380349
7.2847385e-06
0.00012977658
-0.00015516471
-0.00059710453
0.00012143237
1.4622263e-05
-0.00052420074
0.00018906287
-2.5147972e-05
0.00029031328
-6.8521733e-05
-0.00022267224
0.00016005736
-0.00018325848
-1.1720196e-05
0.00015812008
-0.0001767648
-2.0993014e-05
7.2003126e-05
0.0001011816
-0.00075453002
-4.0358803e-05
0.00026956006
-0.00071988918
2.8534815e-05
0.00032807248
-0.00016667285
1.5023802e-05
0.00029734979
0.00021241655
7.396358e-06
3.2009367e-05
0.0004764267
-2.5380897e-05
-0.00019515441
0.00042903856
9.4028508e-05
-0.00011451743
2.5047318e-05
0.00023084624
3.421151e-05
-0.00024433333
0.00022166484
0.0002883404
-0.00067636396
6.4952449e-05
0.00028963945
1.7679158e-05
-3.900363e-05
0.00037115521
0.00013310212
-8.7567192e-05
7.88708e-05
0.00024836009
6.1686071e-05
-0.0003201225
0.00020916247
0.00033118891
-0.0003222435
9.9705818e-06
0.00044491173
-0.00011390693
-0.00013499804
6.2820592e-05
-0.00011149125
-0.00020999342
-8.4684557e-05
-5.8503168e-05
9.7096813e-05
3.8982411e-06
0.00057956413
2.7344138e-06
7.99671e-05
0.00041915236
3.2614635e-07
0.00021194939
-5.6465076e-05
-0.00021085852
-0.00011182774
-0.00010274775
-0.00032796613
-0.00035466212
-0.00013673034
-0.0002097096
-0.00049467855
1.2539592e-05
-0.0001242026
-0.00033062689
0.00011319151
0.00010311508
-0.00041565022
4.5304644e-05
0.00037934739
-0.00041726131
2.8019212e-05
-3.0981345e-05
-0.00019748851
-7.5849763e-05
-0.00039243199
-0.0002081383
-2.6141908e-05
-0.00032635793
-0.00028726962
6.6844286e-05
-4.208339e-06
-0.00015629949
9.0178393e-05
0.00024112964
9.2724174e-05
0.00010989113
0.00038538761
0.00018918338
9.1328999e-05
0.00043740101
-7.6941235e-05
3.1790462e-05
0.00029206786
-0.00010499554
-0.00011051991
-0.00011462412
-0.00013413714
-0.00032457828
0.00017054505
-6.8772093e-05
0.00010468835
0.00025235542
0.00011553385
8.1666373e-06
0.00018410786
0.0001896091
-5.8849657e-05
-0.00029094952
9.6621543e-05
-9.6165967e-06
-0.00037442842
-5.781657e-06
1.1827456e-05
-3.8158437e-05
-0.00013179903
-0.00016688796
0.00016020842
-1.065341e-05
-0.00026470941
0.00011899241
2.5694354e-05
-4.2626647e-06
0.00024320105
0.00012574981
0.0002608755
6.5916747e-05
-7.1103861e-05
0.00029270071
-3.452089e-05
-0.00020791595
0.0001213462
9.3866859e-05
-0.00018434409
-2.9117697e-08
-4.4005258e-06
-3.9668219e-07
-0.00049187453
-3.2276793e-05
-0.00012453307
-0.00028563862
3.0928572e-05
-8.648222e-05
-0.00040691261
1.5823734e-06
-5.8223921e-05
-0.00040614366
8.2424943e-05
-9.3157838e-05
-0.00015225733
0.00012092196
-0.00010727263
-0.00012797122
-9.9008004e-06
-0.00014754737
-0.00024266511
4.6619803e-05
-7.995351e-05
-0.0003130789
7.4496421e-05
0.0001666014
-0.00027662244
4.3617312e-05
0.00035267769
-0.00011316133
0.00012720897
0.00025505378
1.1374778e-05
6.5252709e-05
0.00010497563
7.7516908e-05
-0.00012645141
-0.0001237694
0.00012931999
-0.0001622825
4.5914289e-05
-7.1493732e-05
0.00016575621
0.00010920158
0.00021145864
0.0001147788
-0.00011458873
0.00010531563
-0.00044064077
8.6579111e-05
-0.00046391327
0.00010854963
-0.00031313461
6.3099726e-05
-0.00016942861
6.1668465e-05
8.3980776e-05
2.5097653e-05
0.00017871447
-8.5744362e-05
0.00022800103
-0.00020340947
0.00035891282
-0.00023421033
0.00035430129
-0.00023700377
-0.00020375589
-6.5600942e-05
-0.00013164979
-0.00018772195
-0.00012192878
-0.00027732259
-0.00018019292
-0.00013692207
-0.00018004263
2.5610984e-05
-0.00017788953
3.19912e-05
-0.00019450299
-0.00010218176
-0.00013257015
-0.0002443049
-0.00015602361
-0.00027520895
-0.00012505675
-0.00026103946
-0.00014017046
-0.00021284105
-0.00021237449
-8.6683599e-05
-0.00022255281
-0.0002058317
-0.00020072379
0.00013831514
-2.4557395e-05
-0.00022977974
-7.6585089e-05
1.7278933e-05
-0.00014232748
-0.00022211864
4.1113543e-05
-8.975161e-05
-0.00013579587
-1.7343205e-05
-0.00021698997
0.00015075216
-8.8740867e-05
-0.00026342527
9.7400616e-05
-2.6776566e-05
9.4320431e-05
-0.00040584002
-2.1004526e-05
0.00014714553
2.8203426e-05
-1.3736685e-05
7.3179265e-05
0.00015422366
-4.1969915e-05