/*--------------------------------*- C++ -*----------------------------------*\
| =========                 |                                                 |
| \\      /  F ield         | OpenFOAM: The Open Source CFD Toolbox           |
|  \\    /   O peration     | Version:  v2012                                 |
|   \\  /    A nd           | Website:  www.openfoam.com                      |
|    \\/     M anipulation  |                                                 |
\*---------------------------------------------------------------------------*/
FoamFile
{
    version     2.0;
    format      ascii;
    class       volScalarField;
    location    "220/rightSolid";
    object      T;
}
// * * * * * * * * * * * * * * * * * * * * * * * * * * * * * * * * * * * * * //

dimensions      [0 0 0 1 0 0 0];


internalField   nonuniform List<scalar> 
130
(
698.39972
704.99572
711.83502
718.57987
724.95722
730.80912
736.00972
740.47934
744.19599
747.15811
749.37103
750.84252
751.57879
693.54159
701.27502
709.10615
716.63591
723.60757
729.88036
735.37165
740.04573
743.90014
746.95597
749.22898
750.73764
751.49322
683.71341
694.05627
704.02228
713.14486
721.23966
728.2695
734.27863
739.30384
743.40008
746.61149
748.98715
750.5559
751.33917
668.87363
684.1642
697.55951
708.943
718.50259
726.48164
733.08984
738.50395
742.86299
746.24419
748.72298
750.35161
751.16107
651.17605
674.65214
692.14214
705.70802
716.50135
725.20949
732.26203
737.95689
742.49092
745.98971
748.54365
750.21721
751.04667
651.11291
674.52564
691.99192
705.55651
716.35892
725.07562
732.14447
737.86299
742.42524
745.95351
748.52955
750.21834
751.05688
668.77596
683.9484
697.26134
708.60535
718.17943
726.19606
732.84601
738.31162
742.72653
746.17391
748.70296
750.36389
751.1894
683.73096
693.95862
703.81856
712.86893
720.94048
727.98196
734.01563
739.09145
743.26008
746.55604
748.98647
750.58744
751.38625
693.72909
701.35005
709.08446
716.52368
723.43392
729.68501
735.18167
739.89775
743.8222
746.95801
749.28794
750.82508
751.58719
698.69206
705.19415
711.93156
718.57087
724.87694
730.69385
735.88948
740.39397
744.17108
747.20307
749.46386
750.96179
751.70632
)
;

boundaryField
{
    maxX
    {
        type            zeroGradient;
    }
    minZ
    {
        type            zeroGradient;
    }
    maxZ
    {
        type            zeroGradient;
    }
    rightSolid_to_bottomWater
    {
        type            compressible::turbulentTemperatureCoupledBaffleMixed;
        refValue        nonuniform List<scalar> 
130
(
962.32282
966.16065
967.26443
970.8038
971.60321
976.4251
980.06152
980.66066
980.90676
981.14809
981.44316
981.56554
981.88841
963.21467
967.55295
969.35245
971.29897
973.93367
978.51722
981.06745
982.43967
982.0066
982.74106
982.79951
982.88386
983.64598
965.79309
968.74093
973.69452
977.02763
978.97617
978.1054
980.70487
981.776
983.15271
982.90258
983.62764
983.62382
984.07148
963.57681
969.66299
972.15103
974.36517
975.42342
977.11346
977.03476
976.80985
980.09248
980.52805
980.37363
980.08928
980.03004
945.4547
964.70361
967.67708
970.18218
972.47658
974.9802
975.19019
975.76634
976.59133
976.98054
976.90842
976.98497
976.78147
940.34311
952.81632
958.79544
964.24658
967.87342
968.44582
968.64675
970.05753
972.04425
974.26392
974.95261
975.74795
976.55811
953.18192
953.96824
955.11604
956.55908
962.31668
967.10898
967.92459
969.15204
971.77175
975.80807
977.37154
978.17963
978.88312
958.99965
961.46868
962.85116
964.08328
966.78197
967.55678
968.77128
970.58618
973.70082
979.33664
980.34278
980.6358
981.69019
964.38325
964.35832
967.69449
967.29286
966.66111
970.17291
971.50783
974.09289
976.25981
981.16532
982.80851
982.7231
981.82802
966.86503
969.02717
969.35857
968.50237
967.59019
970.45806
973.03612
975.29301
977.31369
980.68741
981.14008
981.34476
981.01438
)
;
        refGradient     uniform 0;
        valueFraction   nonuniform List<scalar> 
130
(
0.0075140686
0.0075140686
0.0075140686
0.0075140686
0.0075140686
0.0075140686
0.0075140686
0.0075140686
0.0075140686
0.0075140686
0.0075140686
0.0075140686
0.0075140686
0.0075140686
0.0075140686
0.0075140686
0.0075140686
0.0075140686
0.0075140686
0.0075140686
0.0075140686
0.0075140686
0.0075140686
0.0075140686
0.0075140686
0.0075140686
0.0075140686
0.0075140686
0.0075140686
0.0075140686
0.0075140686
0.0075140686
0.0075140686
0.0075140686
0.0075140686
0.0075140686
0.0075140686
0.0075140686
0.0075140686
0.0075140686
0.0075140686
0.0075140686
0.0075140686
0.0075140686
0.0075140686
0.0075140686
0.0075140686
0.0075140686
0.0075140686
0.0075140686
0.0075140686
0.0075140686
0.0075140686
0.0075140686
0.0075140686
0.0075140686
0.0075140686
0.0075140686
0.0075140686
0.0075140686
0.0075140686
0.0075140686
0.0075140686
0.0075140686
0.0075140686
0.0075140686
0.0075140686
0.0075140686
0.0075140686
0.0075140686
0.0075140686
0.0075140686
0.0075140686
0.0075140686
0.0075140686
0.0075140686
0.0075140686
0.0075140686
0.0075140686
0.0075140686
0.0075140686
0.0075140686
0.0075140686
0.0075140686
0.0075140686
0.0075140686
0.0075140686
0.0075140686
0.0075140686
0.0075140686
0.0075140686
0.0075140686
0.0075140686
0.0075140686
0.0075140686
0.0075140686
0.0075140686
0.0075140686
0.0075140686
0.0075140686
0.0075140686
0.0075140686
0.0075140686
0.0075140686
0.0075140686
0.0075140686
0.0075140686
0.0075140686
0.0075140686
0.0075140686
0.0075140686
0.0075140686
0.0075140686
0.0075140686
0.0075140686
0.0075140686
0.0075140686
0.0075140686
0.0075140686
0.0075140686
0.0075140686
0.0075140686
0.0075140686
0.0075140686
0.0075140686
0.0075140686
0.0075140686
0.0075140686
0.0075140686
0.0075140686
)
;
        value           nonuniform List<scalar> 
130
(
700.37561
706.95066
713.74663
720.46716
726.80232
732.64619
737.83485
742.27522
745.96566
748.90723
751.10565
752.56694
753.30008
695.56077
703.26844
711.05399
718.54155
725.48034
731.74016
737.20916
741.85827
745.68032
748.7186
750.97488
752.47278
753.22839
685.82598
696.11297
706.04101
715.11981
723.16815
730.13836
736.12166
741.11698
745.19265
748.37793
750.74111
752.298
753.07873
671.08133
686.3023
699.61528
710.92956
720.42497
728.35651
734.91425
740.28581
744.63661
747.99555
750.45448
752.06869
752.87162
653.38095
676.82465
694.20512
707.6875
718.41666
727.07791
734.07882
739.73504
744.24109
747.71639
750.25051
751.91203
752.73372
653.27998
676.60985
693.9893
707.49252
718.24071
726.896
733.91305
739.59905
744.14184
747.66016
750.22194
751.90395
752.74225
670.90649
685.9704
699.19151
710.46075
720.00587
727.99809
734.60401
740.03761
744.43893
747.8906
750.41228
752.06673
752.89128
685.7926
695.96166
705.75758
714.74892
722.77986
729.77404
735.7713
740.82245
744.98302
748.29639
750.716
752.30705
753.10774
695.75589
703.31915
711.02025
718.4003
725.25366
731.48397
736.94915
741.64903
745.56012
748.70907
751.03371
752.55858
753.3082
700.70007
707.16936
713.8584
720.44115
726.69278
732.48737
737.66312
742.15052
745.91426
748.94868
751.19576
752.68389
753.42028
)
;
        Tnbr            T;
        thicknessLayers List<scalar> 0();
        kappaLayers     List<scalar> 0();
        kappaMethod     solidThermo;
        kappa           none;
        alphaAni        none;
        alpha           none;
        field           T;
    }
    rightSolid_to_topAir
    {
        type            compressible::turbulentTemperatureCoupledBaffleMixed;
        refValue        nonuniform List<scalar> 
130
(
465.83818
461.89253
458.04744
454.63968
451.8229
449.64488
448.11778
447.26845
447.15903
447.92143
449.83603
453.48058
459.55816
425.83047
421.42021
418.17696
415.86447
414.21043
413.04
412.31359
412.11791
412.59219
413.97265
416.7643
422.02453
430.14948
430.85085
421.9524
414.30123
408.16043
403.43479
399.93286
397.56784
396.49927
396.67001
398.06037
400.84739
406.12046
418.12365
467.24952
466.76811
466.55178
466.0318
465.01002
463.51295
461.74473
459.80616
458.0656
457.91111
461.90786
469.08963
478.01326
469.14589
473.5529
478.12415
482.65923
486.96932
490.87158
494.19984
496.84003
498.83631
500.57173
502.92786
507.18039
515.23383
468.52538
472.97081
477.58609
482.17065
486.53555
490.50002
493.90348
496.63477
498.70997
500.46604
502.81549
507.17603
515.42345
466.47235
466.29358
466.32536
465.98892
465.08227
463.64951
461.91764
460.09055
458.39898
457.8253
461.25301
469.38577
478.75246
430.20963
421.38155
413.83549
407.82295
403.24743
399.91435
397.7377
396.77254
396.95876
398.26288
400.93261
406.19954
418.61003
425.39584
420.91809
417.64648
415.33785
413.71577
412.60573
411.96318
411.85015
412.38306
413.7769
416.53824
421.80014
430.08437
465.69054
461.68501
457.79128
454.3505
451.5205
449.35212
447.85631
447.05147
446.98692
447.7796
449.70222
453.34495
459.42259
)
;
        refGradient     uniform 0;
        valueFraction   nonuniform List<scalar> 
130
(
0.00032132529
0.00032132529
0.00032132529
0.00032132529
0.00032132529
0.00032132529
0.00032132529
0.00032132529
0.00032132529
0.00032132529
0.00032132529
0.00032132529
0.00032132529
0.00032132529
0.00032132529
0.00032132529
0.00032132529
0.00032132529
0.00032132529
0.00032132529
0.00032132529
0.00032132529
0.00032132529
0.00032132529
0.00032132529
0.00032132529
0.00032132529
0.00032132529
0.00032132529
0.00032132529
0.00032132529
0.00032132529
0.00032132529
0.00032132529
0.00032132529
0.00032132529
0.00032132529
0.00032132529
0.00032132529
0.00032132529
0.00032132529
0.00032132529
0.00032132529
0.00032132529
0.00032132529
0.00032132529
0.00032132529
0.00032132529
0.00032132529
0.00032132529
0.00032132529
0.00032132529
0.00032132529
0.00032132529
0.00032132529
0.00032132529
0.00032132529
0.00032132529
0.00032132529
0.00032132529
0.00032132529
0.00032132529
0.00032132529
0.00032132529
0.00032132529
0.00032132529
0.00032132529
0.00032132529
0.00032132529
0.00032132529
0.00032132529
0.00032132529
0.00032132529
0.00032132529
0.00032132529
0.00032132529
0.00032132529
0.00032132529
0.00032132529
0.00032132529
0.00032132529
0.00032132529
0.00032132529
0.00032132529
0.00032132529
0.00032132529
0.00032132529
0.00032132529
0.00032132529
0.00032132529
0.00032132529
0.00032132529
0.00032132529
0.00032132529
0.00032132529
0.00032132529
0.00032132529
0.00032132529
0.00032132529
0.00032132529
0.00032132529
0.00032132529
0.00032132529
0.00032132529
0.00032132529
0.00032132529
0.00032132529
0.00032132529
0.00032132529
0.00032132529
0.00032132529
0.00032132529
0.00032132529
0.00032132529
0.00032132529
0.00032132529
0.00032132529
0.00032132529
0.00032132529
0.00032132529
0.00032132529
0.00032132529
0.00032132529
0.00032132529
0.00032132529
0.00032132529
0.00032132529
0.00032132529
0.00032132529
0.00032132529
)
;
        value           nonuniform List<scalar> 
130
(
698.31769
704.91008
711.74571
718.48706
724.86119
730.71021
735.90845
740.37621
744.09149
747.05279
749.26553
750.73765
751.47561
693.44835
701.17763
709.00494
716.53129
723.4999
729.77002
735.25911
739.93147
743.78465
746.83983
749.11292
750.62273
751.38065
683.62511
693.96148
703.92152
713.03892
721.12932
728.15551
734.16174
739.18481
743.27965
746.49036
748.86607
750.43597
751.22283
668.80208
684.08713
697.4777
708.85705
718.41294
726.38869
732.99398
738.40555
742.76248
746.14241
748.62161
750.25198
751.06404
651.11118
674.58052
692.06591
705.6285
716.41943
725.12576
732.17689
737.87059
742.40368
745.90179
748.45558
750.12992
750.96169
651.04797
674.45394
691.91557
705.47687
716.27691
724.99186
732.05934
737.77675
742.33809
745.86568
748.44156
750.13114
750.97204
668.70439
683.87146
697.17971
708.5196
718.09002
726.10343
732.7505
738.2136
742.62645
746.07239
748.60162
750.26456
751.09277
683.6427
693.86393
703.71796
712.7632
720.83045
727.86838
733.89921
738.97292
743.14013
746.43528
748.86567
750.46773
751.27023
693.6359
701.25273
708.98334
716.41917
723.32645
729.57499
735.06947
739.7838
743.707
746.84209
749.17204
750.71029
751.47478
698.61008
705.1086
711.84236
718.47819
724.78112
730.5953
735.78857
740.29115
744.06686
747.09799
749.35854
750.85708
751.60326
)
;
        Tnbr            T;
        thicknessLayers List<scalar> 0();
        kappaLayers     List<scalar> 0();
        kappaMethod     solidThermo;
        kappa           none;
        alphaAni        none;
        alpha           none;
        field           T;
    }
    rightSolid_to_heater
    {
        type            compressible::turbulentTemperatureCoupledBaffleMixed;
        refValue        nonuniform List<scalar> 10(692.48198 686.47988 673.89732 652.95305 617.89543 617.88977 652.98096 674.0369 686.75904 692.84001);
        refGradient     uniform 0;
        valueFraction   nonuniform List<scalar> 10(0.50000003 0.50000003 0.50000003 0.50000003 0.50000003 0.50000003 0.50000003 0.50000003 0.50000003 0.50000003);
        value           nonuniform List<scalar> 10(695.4372 690.00713 678.80184 660.90996 634.53255 634.4982 660.87518 678.88053 690.24058 695.76248);
        Tnbr            T;
        thicknessLayers List<scalar> 0();
        kappaLayers     List<scalar> 0();
        kappaMethod     solidThermo;
        kappa           none;
        alphaAni        none;
        alpha           none;
        field           T;
    }
}


// ************************************************************************* //
