/*--------------------------------*- C++ -*----------------------------------*\
| =========                 |                                                 |
| \\      /  F ield         | OpenFOAM: The Open Source CFD Toolbox           |
|  \\    /   O peration     | Version:  v2012                                 |
|   \\  /    A nd           | Website:  www.openfoam.com                      |
|    \\/     M anipulation  |                                                 |
\*---------------------------------------------------------------------------*/
FoamFile
{
    version     2.0;
    format      ascii;
    class       surfaceScalarField;
    location    "560/topAir";
    object      phi;
}
// * * * * * * * * * * * * * * * * * * * * * * * * * * * * * * * * * * * * * //

dimensions      [1 0 -1 0 0 0 0];
oriented        oriented;


internalField   nonuniform List<scalar> 
3140
(
9.5035348e-06
-3.0614026e-07
7.1583027e-08
9.6901915e-06
-2.6756108e-07
8.0910849e-08
9.8684449e-06
-2.4767919e-07
6.9446026e-08
1.0012434e-05
-1.9512704e-07
5.117501e-08
1.0116044e-05
-1.3117617e-07
2.7622534e-08
1.0189379e-05
-7.2377366e-08
-8.7883512e-10
1.0267305e-05
-2.5173941e-08
-5.2646735e-08
1.0370947e-05
1.7563818e-08
-1.2109757e-07
1.0510509e-05
8.1164056e-08
-2.2061486e-07
1.0707952e-05
1.661175e-07
-3.6345317e-07
1.0956643e-05
3.1633025e-07
-5.6492899e-07
1.1226818e-05
5.6763123e-07
-8.3774422e-07
1.146423e-05
9.4777774e-07
-1.1851678e-06
1.168198e-05
1.3902387e-06
-1.6080166e-06
1.1853927e-05
1.8833452e-06
-2.0553751e-06
1.1966535e-05
2.3633264e-06
-2.4760923e-06
1.2007275e-05
2.7879933e-06
-2.8289842e-06
1.1972339e-05
3.1326849e-06
-3.0981067e-06
1.1877132e-05
3.3815627e-06
-3.2868308e-06
1.1755148e-05
3.5277352e-06
-3.4063581e-06
1.1642819e-05
3.5804175e-06
-3.4688462e-06
1.1565559e-05
3.5611188e-06
-3.4847873e-06
1.1535271e-05
3.4914168e-06
-3.4622373e-06
1.155247e-05
3.3877079e-06
-3.4062056e-06
1.1604757e-05
3.263429e-06
-3.317235e-06
1.1655877e-05
3.1355528e-06
-3.1884913e-06
1.162299e-05
3.0330328e-06
-3.0024058e-06
1.1335208e-05
3.0135969e-06
-2.7287332e-06
1.0440444e-05
3.2107251e-06
-2.3198599e-06
3.9519522e-06
-1.7136901e-06
9.1129281e-06
-2.2878994e-07
7.8690739e-08
9.0858904e-06
-3.4221683e-07
1.0169414e-07
9.0919312e-06
-3.6048137e-07
1.0676428e-07
9.1447055e-06
-3.5497524e-07
1.0707955e-07
9.2428154e-06
-3.3141326e-07
1.0213641e-07
9.3805664e-06
-2.9994259e-07
8.9828603e-08
9.5612573e-06
-2.7373927e-07
6.7897883e-08
9.8014705e-06
-2.5624504e-07
3.3739443e-08
1.0127048e-05
-2.2562346e-07
-1.8714086e-08
1.0566487e-05
-1.6357554e-07
-1.1002863e-07
1.114421e-05
-1.7386879e-08
-2.4474459e-07
1.184003e-05
3.1001594e-07
-4.3897744e-07
1.2560911e-05
9.3214622e-07
-7.0563339e-07
1.3198435e-05
1.773545e-06
-1.0206777e-06
1.3687106e-05
2.7237093e-06
-1.3285337e-06
1.396927e-05
3.6471456e-06
-1.5654307e-06
1.4031441e-05
4.4344455e-06
-1.7082572e-06
1.3906801e-05
5.0498411e-06
-1.7924637e-06
1.3664215e-05
5.4867428e-06
-1.8629072e-06
1.3386999e-05
5.7503281e-06
-1.9460674e-06
1.3136868e-05
5.859453e-06
-2.0299866e-06
1.2940488e-05
5.847322e-06
-2.0913124e-06
1.280345e-05
5.7427423e-06
-2.1162004e-06
1.2719947e-05
5.5642934e-06
-2.0954582e-06
1.2674543e-05
5.3227161e-06
-2.0168036e-06
1.2628698e-05
5.0375124e-06
-1.8597366e-06
1.25019e-05
4.7496594e-06
-1.5943828e-06
1.2144043e-05
4.5498651e-06
-1.1842009e-06
1.1310894e-05
4.6260438e-06
-5.8961185e-07
5.2066529e-06
2.7114276e-07
9.1696152e-06
-2.1018231e-07
8.0737927e-08
9.0010838e-06
-2.7951846e-07
1.0583266e-07
8.8192547e-06
-2.9266345e-07
1.140109e-07
8.6366009e-06
-2.9185202e-07
1.1953048e-07
8.4656317e-06
-2.8391881e-07
1.2347482e-07
8.3116152e-06
-2.7132819e-07
1.2540254e-07
8.1713287e-06
-2.5960191e-07
1.2614973e-07
8.0416207e-06
-2.5459135e-07
1.2805596e-07
7.9400383e-06
-2.5852201e-07
1.3447624e-07
7.9103224e-06
-2.7837571e-07
1.4449282e-07
8.0690029e-06
-3.2709818e-07
1.5098787e-07
8.5756913e-06
-3.2782688e-07
1.3109881e-07
9.4643561e-06
-2.2350074e-08
6.6502425e-08
1.0644188e-05
6.1516763e-07
-1.9859738e-08
1.1715594e-05
1.7089945e-06
-5.4366043e-08
1.2524056e-05
2.8121933e-06
2.9222935e-08
1.2979393e-05
3.6603415e-06
3.2134113e-07
1.3126654e-05
4.2670743e-06
6.3755603e-07
1.3069009e-05
4.6725585e-06
8.7319755e-07
1.2925164e-05
4.9062703e-06
9.8857079e-07
1.2781216e-05
4.9884324e-06
1.0149837e-06
1.2657177e-05
4.9352238e-06
1.035573e-06
1.2547218e-05
4.7792518e-06
1.0723802e-06
1.2437077e-05
4.5532083e-06
1.1197142e-06
1.2323639e-05
4.2844027e-06
1.14982e-06
1.2187597e-05
3.9894968e-06
1.1816819e-06
1.1995802e-05
3.698374e-06
1.2401553e-06
1.1708259e-05
3.4844205e-06
1.3492818e-06
1.1238899e-05
3.5247305e-06
1.5656706e-06
4.1854448e-06
1.8422787e-06
8.9799101e-06
7.8860082e-08
8.5976408e-06
1.027505e-07
8.1951633e-06
1.0981384e-07
7.7896421e-06
1.1366886e-07
7.389981e-06
1.1574205e-07
7.0026299e-06
1.1602261e-07
6.6272485e-06
1.1577935e-07
6.2552123e-06
1.1744437e-07
5.8717231e-06
1.2496661e-07
5.4491845e-06
1.4416165e-07
4.9340207e-06
1.8806612e-07
4.3271174e-06
2.7909713e-07
3.8635733e-06
4.4136671e-07
3.8107169e-06
6.6958822e-07
4.5000618e-06
1.0227491e-06
5.6593488e-06
1.6564176e-06
6.689565e-06
2.6332721e-06
7.4985622e-06
3.4604793e-06
8.1301733e-06
4.0424904e-06
8.6550761e-06
4.3821037e-06
9.106401e-06
4.5371696e-06
9.4961797e-06
4.5449691e-06
9.8053994e-06
4.4691329e-06
1.0021942e-05
4.3354306e-06
1.0136646e-05
4.1681895e-06
1.0159004e-05
3.9653769e-06
1.0122399e-05
3.7329388e-06
1.0136815e-05
3.4675595e-06
1.0519783e-05
3.1385401e-06
2.4422305e-06
9.6155157e-06
-3.0584615e-07
3.0891109e-08
9.9176721e-06
-2.687305e-07
4.7486755e-08
1.0199604e-05
-2.6146227e-07
4.898406e-08
1.0434557e-05
-2.2646283e-07
4.2700505e-08
1.0616082e-05
-1.8454774e-07
3.066982e-08
1.0756963e-05
-1.5273657e-07
1.1010993e-08
1.0858791e-05
-1.393113e-07
-1.5117821e-08
1.0933024e-05
-1.469832e-07
-4.8288863e-08
1.0988473e-05
-1.8140157e-07
-9.4597231e-08
1.1033572e-05
-2.4991561e-07
-1.5857129e-07
1.1076815e-05
-3.6223138e-07
-2.4589168e-07
1.1128512e-05
-5.2806536e-07
-3.6134993e-07
1.1206039e-05
-7.573801e-07
-5.0527276e-07
1.1390769e-05
-1.1154292e-06
-6.7719128e-07
1.1686388e-05
-1.5024403e-06
-8.4830479e-07
1.2051817e-05
-1.841762e-06
-9.994439e-07
1.2398046e-05
-2.0311281e-06
-1.1437921e-06
1.2645761e-05
-2.0446513e-06
-1.3009986e-06
1.2765847e-05
-1.9343653e-06
-1.4725888e-06
1.2783441e-05
-1.7817931e-06
-1.6424642e-06
1.2746661e-05
-1.6439504e-06
-1.7887366e-06
1.2696594e-05
-1.5325835e-06
-1.9030821e-06
1.2658737e-05
-1.4456407e-06
-1.9799737e-06
1.2648463e-05
-1.3814426e-06
-2.0159645e-06
1.2678569e-05
-1.3400952e-06
-2.0089872e-06
1.2755885e-05
-1.3127748e-06
-1.955192e-06
1.2866483e-05
-1.2743305e-06
-1.8415721e-06
1.2957966e-05
-1.1671928e-06
-1.6571244e-06
1.2906116e-05
-8.4932775e-07
-1.4246153e-06
9.7944962e-08
-1.1723904e-06
9.2378146e-06
-2.3034435e-07
3.4343431e-08
9.3578537e-06
-3.4631118e-07
5.9235827e-08
9.5044584e-06
-3.6983231e-07
6.8530911e-08
9.691108e-06
-3.7494617e-07
6.8916086e-08
9.9139141e-06
-3.6827326e-07
6.3060365e-08
1.0160809e-05
-3.5965521e-07
4.9859374e-08
1.0423066e-05
-3.6086794e-07
2.720786e-08
1.069915e-05
-3.8186732e-07
-7.4463866e-09
1.0992852e-05
-4.3354121e-07
-6.0261527e-08
1.1302471e-05
-5.3469802e-07
-1.3485711e-07
1.1639382e-05
-7.0463142e-07
-2.3925925e-07
1.202011e-05
-9.6944307e-07
-3.7833015e-07
1.2470184e-05
-1.3637027e-06
-5.4934691e-07
1.2978605e-05
-1.9149068e-06
-7.2949669e-07
1.354226e-05
-2.509862e-06
-8.8459911e-07
1.406656e-05
-2.9130512e-06
-1.0183438e-06
1.4439668e-05
-2.9279279e-06
-1.1845948e-06
1.4609316e-05
-2.6067371e-06
-1.4002091e-06
1.4589153e-05
-2.1378562e-06
-1.6396059e-06
1.4449879e-05
-1.7168777e-06
-1.8722366e-06
1.4272497e-05
-1.4243026e-06
-2.0730095e-06
1.4079112e-05
-1.206149e-06
-2.225382e-06
1.3873168e-05
-1.0471999e-06
-2.3099853e-06
1.3662405e-05
-9.5761393e-07
-2.3100757e-06
1.3483203e-05
-9.6453684e-07
-2.2149437e-06
1.3397795e-05
-1.0655824e-06
-2.0234248e-06
1.3500344e-05
-1.2497442e-06
-1.7232476e-06
1.4021122e-05
-1.530026e-06
-1.3432855e-06
1.5698043e-05
-1.9700126e-06
-1.1461132e-06
-2.3640186e-06
-1.3225471e-06
9.2969334e-06
-2.125828e-07
3.5003644e-08
9.2786549e-06
-2.8326222e-07
6.1061894e-08
9.248681e-06
-2.982792e-07
7.2431327e-08
9.2193031e-06
-3.0169756e-07
7.5659551e-08
9.2013393e-06
-3.0050498e-07
7.3670202e-08
9.1982089e-06
-2.9705822e-07
6.5936076e-08
9.2094808e-06
-2.9731958e-07
5.1329755e-08
9.2346733e-06
-3.0834912e-07
2.9345803e-08
9.2722762e-06
-3.3851743e-07
1.8497796e-09
9.3346542e-06
-4.0201537e-07
-5.0568766e-08
9.4300439e-06
-5.2668122e-07
-1.2235481e-07
9.5727096e-06
-7.540445e-07
-2.2696919e-07
9.7826255e-06
-1.140223e-06
-3.6690334e-07
1.0080934e-05
-1.7209159e-06
-5.1215007e-07
1.0446081e-05
-2.3369138e-06
-5.925712e-07
1.077161e-05
-2.6508479e-06
-5.58914e-07
1.1058389e-05
-2.4319291e-06
-4.6195838e-07
1.1235658e-05
-1.8164598e-06
-3.3062263e-07
1.1285118e-05
-1.0734477e-06
-2.4157988e-07
1.1238805e-05
-3.9698388e-07
-2.8628118e-07
1.1159628e-05
3.068419e-08
-3.630925e-07
1.1096035e-05
2.2293779e-07
-3.3339012e-07
1.10362e-05
2.6545287e-07
-1.8486944e-07
1.0976196e-05
2.26826e-07
-9.6295056e-09
1.0860738e-05
7.7794394e-08
2.1786802e-07
1.0694281e-05
-1.4870811e-07
4.2658636e-07
1.0531925e-05
-5.1068499e-07
6.5928027e-07
1.0501161e-05
-9.2560289e-07
7.7191385e-07
1.1118153e-05
-1.3802688e-06
3.5575141e-07
-1.7689714e-06
-8.4031474e-07
9.1012241e-06
3.4005633e-08
8.8618121e-06
5.8899967e-08
8.6039531e-06
6.9393328e-08
8.3440706e-06
7.185356e-08
8.0902325e-06
6.9074875e-08
7.8486176e-06
6.0578991e-08
7.6216435e-06
4.5433653e-08
7.4073776e-06
2.3360906e-08
7.199487e-06
-5.6605177e-09
6.9990284e-06
-5.7395502e-08
6.7855491e-06
-1.2513585e-07
6.5341744e-06
-2.2357076e-07
6.2190374e-06
-3.8371492e-07
5.8190453e-06
-6.513772e-07
5.4307455e-06
-9.2622685e-07
5.2205862e-06
-7.8416615e-07
5.231895e-06
1.9089159e-07
5.3180182e-06
1.5585101e-06
5.4180658e-06
2.8687041e-06
5.7049506e-06
3.6971108e-06
6.1184522e-06
4.1530757e-06
6.5416588e-06
4.3433123e-06
6.8960445e-06
4.3788328e-06
7.1633254e-06
4.2936486e-06
7.3274037e-06
4.0805907e-06
7.4297476e-06
3.7125662e-06
7.4530638e-06
3.1969282e-06
7.4697288e-06
2.5230599e-06
8.1821912e-06
1.0433778e-06
-1.4875153e-06
9.5927712e-06
-3.0781904e-07
1.4916562e-08
9.8854653e-06
-2.6942187e-07
2.4218876e-08
1.0166144e-05
-2.5865706e-07
2.6976736e-08
1.0402951e-05
-2.1928831e-07
2.5207777e-08
1.0586174e-05
-1.7297634e-07
2.0461612e-08
1.0720689e-05
-1.3671931e-07
1.3265672e-08
1.0816303e-05
-1.1412861e-07
3.4582209e-09
1.088179e-05
-1.0538927e-07
-8.3044671e-09
1.0922778e-05
-1.1281135e-07
-2.2663594e-08
1.0945401e-05
-1.414342e-07
-3.9604897e-08
1.095779e-05
-2.0040897e-07
-5.7643172e-08
1.0974134e-05
-3.0469012e-07
-7.2644978e-08
1.102186e-05
-4.7790497e-07
-7.4514232e-08
1.1194836e-05
-7.9932284e-07
-5.0120666e-08
1.1468317e-05
-1.1360259e-06
1.4686264e-08
1.1734694e-05
-1.4081055e-06
1.4205802e-07
1.1934505e-05
-1.6059844e-06
2.6141469e-07
1.2058748e-05
-1.7778926e-06
3.5111951e-07
1.2113697e-05
-1.9393921e-06
4.0996649e-07
1.2111632e-05
-2.0931247e-06
4.5064472e-07
1.2076779e-05
-2.2463874e-06
4.9037073e-07
1.2026511e-05
-2.3968562e-06
5.4198048e-07
1.1965225e-05
-2.5296583e-06
6.0904361e-07
1.1890465e-05
-2.6290964e-06
6.8607306e-07
1.1806426e-05
-2.6928121e-06
7.6605667e-07
1.1746765e-05
-2.7424831e-06
8.4494808e-07
1.1790229e-05
-2.7962571e-06
9.0871772e-07
1.206294e-05
-2.8244797e-06
8.9123039e-07
1.2509428e-05
-2.4959235e-06
6.195968e-07
-1.2956838e-06
-6.0643129e-08
9.2096386e-06
-2.3024011e-07
1.6094986e-08
9.3166117e-06
-3.4555581e-07
2.8397074e-08
9.4600706e-06
-3.6705179e-07
3.3468708e-08
9.6461641e-06
-3.6867378e-07
3.2211884e-08
9.8676195e-06
-3.5703048e-07
2.5665067e-08
1.0109127e-05
-3.4168662e-07
1.3327364e-08
1.0360739e-05
-3.325645e-07
-5.9551847e-09
1.0618154e-05
-3.3696551e-07
-3.3265247e-08
1.0880325e-05
-3.6325096e-07
-7.1961478e-08
1.1150705e-05
-4.2272255e-07
-1.238968e-07
1.1440614e-05
-5.396085e-07
-1.8987176e-07
1.177652e-05
-7.5395737e-07
-2.6478427e-07
1.2206321e-05
-1.1272794e-06
-3.2944428e-07
1.2704731e-05
-1.6829397e-06
-3.4395353e-07
1.3173426e-05
-2.1860717e-06
-3.0330578e-07
1.3430313e-05
-2.3893032e-06
-2.9450161e-07
1.3453647e-05
-2.4275989e-06
-3.8697063e-07
1.3322055e-05
-2.4671107e-06
-5.8007535e-07
1.307357e-05
-2.4909608e-06
-8.4024087e-07
1.2739611e-05
-2.5118131e-06
-1.120343e-06
1.2349398e-05
-2.5652685e-06
-1.3648124e-06
1.1913068e-05
-2.6540847e-06
-1.5329142e-06
1.1425345e-05
-2.744573e-06
-1.6086256e-06
1.0880298e-05
-2.804498e-06
-1.5910546e-06
1.0283662e-05
-2.8431427e-06
-1.4695035e-06
9.7116492e-06
-2.949475e-06
-1.2459112e-06
9.4157165e-06
-3.2143357e-06
-1.010278e-06
9.8653373e-06
-3.6737811e-06
-9.4345406e-07
1.1483666e-05
-3.8703357e-06
-1.3896217e-06
-3.2343279e-06
-2.2762757e-06
9.2697416e-06
-2.1230015e-07
1.6282815e-08
9.2390653e-06
-2.8269384e-07
2.8875878e-08
9.2065288e-06
-2.9669426e-07
3.4609923e-08
9.1780811e-06
-2.9861959e-07
3.4052889e-08
9.1622678e-06
-2.954254e-07
2.7878272e-08
9.1604909e-06
-2.8916066e-07
1.5187238e-08
9.1698892e-06
-2.8495324e-07
-5.6794182e-09
9.1877908e-06
-2.8867192e-07
-3.6848378e-08
9.2161515e-06
-3.0694306e-07
-8.2816942e-08
9.2456538e-06
-3.5341457e-07
-1.4937459e-07
9.2779074e-06
-4.5392586e-07
-2.4027972e-07
9.3163073e-06
-6.615209e-07
-3.5777883e-07
9.3927968e-06
-1.0817131e-06
-4.8893704e-07
9.5375626e-06
-1.770863e-06
-5.6938703e-07
9.5472615e-06
-2.2670407e-06
-5.2266739e-07
9.1647827e-06
-2.0921619e-06
-4.7480574e-07
8.6001466e-06
-1.7360268e-06
-5.8931359e-07
8.1755712e-06
-1.5962634e-06
-7.7675957e-07
7.7660779e-06
-1.2822723e-06
-1.040697e-06
7.2925112e-06
-9.9235115e-07
-1.332318e-06
6.7366335e-06
-8.3088965e-07
-1.5420126e-06
6.1403179e-06
-8.1550379e-07
-1.5762788e-06
5.5474065e-06
-9.0654886e-07
-1.4306908e-06
4.9842248e-06
-1.084395e-06
-1.1673483e-06
4.4896223e-06
-1.3224428e-06
-8.0926016e-07
4.1240722e-06
-1.6708771e-06
-4.877135e-07
4.135692e-06
-2.1688046e-06
-3.9862711e-07
4.7121249e-06
-2.915408e-06
-5.6217008e-07
5.9295591e-06
-3.2599174e-06
-1.4686222e-06
-2.360969e-06
-3.165282e-06
9.0747723e-06
1.5885569e-08
8.8229958e-06
2.7982432e-08
8.5624237e-06
3.3270868e-08
8.3033595e-06
3.2297894e-08
8.0513645e-06
2.564424e-08
7.8105868e-06
1.2195686e-08
7.5806605e-06
-9.5934639e-09
7.358316e-06
-4.2966838e-08
7.1398626e-06
-9.4150462e-08
6.9021903e-06
-1.7313823e-07
6.617103e-06
-2.9397534e-07
6.2191686e-06
-4.87169e-07
5.5709125e-06
-8.1735137e-07
4.4964528e-06
-1.3497328e-06
3.1482664e-06
-1.8506705e-06
2.1160745e-06
-1.8475751e-06
2.0098893e-06
-1.4395865e-06
2.1743886e-06
-2.0087291e-07
2.4370866e-06
1.322182e-06
2.784635e-06
2.3539198e-06
3.1863012e-06
2.9169401e-06
3.5452736e-06
3.1655244e-06
3.7827522e-06
3.2318853e-06
3.8160283e-06
3.1733809e-06
3.6138891e-06
2.9579761e-06
3.2554718e-06
2.3979198e-06
2.7895236e-06
1.492177e-06
2.2812033e-06
1.1468427e-07
1.7361463e-06
-1.6666885e-06
-4.251086e-06
9.5871055e-06
-3.0810066e-07
4.8888979e-09
9.8721453e-06
-2.6902026e-07
8.2022406e-09
1.0146562e-05
-2.5651268e-07
9.0840575e-09
1.0378082e-05
-2.141829e-07
7.8903569e-09
1.0556414e-05
-1.6294384e-07
5.1032279e-09
1.0687517e-05
-1.1886479e-07
1.0665233e-09
1.078075e-05
-8.4785183e-08
-4.9406986e-09
1.0844516e-05
-5.9617697e-08
-1.2395543e-08
1.088662e-05
-4.3077358e-08
-2.1613978e-08
1.0917252e-05
-3.7649518e-08
-3.2472291e-08
1.0954286e-05
-5.0889176e-08
-4.3585945e-08
1.1033171e-05
-1.0076901e-07
-5.0364857e-08
1.1214236e-05
-2.1417306e-07
-4.0696426e-08
1.1562841e-05
-4.0347531e-07
5.4195975e-09
1.1936263e-05
-4.3800164e-07
7.9231193e-08
1.2217492e-05
-3.0765535e-07
1.6751887e-07
1.2384985e-05
-1.6393314e-07
2.5604972e-07
1.2487631e-05
-1.0705975e-07
3.5298605e-07
1.2564759e-05
-1.3826004e-07
4.6775602e-07
1.2640557e-05
-2.3753742e-07
6.0805084e-07
1.2722833e-05
-3.8066223e-07
7.8326293e-07
1.2799645e-05
-5.4177579e-07
1.0002491e-06
1.2855155e-05
-7.0716267e-07
1.2529622e-06
1.2888215e-05
-8.7951463e-07
1.523923e-06
1.291478e-05
-1.0486551e-06
1.7786433e-06
1.2935133e-05
-1.1525116e-06
1.9663148e-06
1.286088e-05
-1.0547798e-06
2.0249314e-06
1.2481277e-05
-6.2938221e-07
1.8851394e-06
1.1331172e-05
2.8375534e-07
1.4723963e-06
2.4948842e-06
7.2611553e-07
9.2019974e-06
-2.3009148e-07
5.0574919e-09
9.2972546e-06
-3.450529e-07
9.1728334e-09
9.4293729e-06
-3.6551921e-07
1.0358627e-08
9.6040829e-06
-3.6503393e-07
8.3561129e-09
9.8128864e-06
-3.4950498e-07
3.4273946e-09
1.0040186e-05
-3.2758179e-07
-5.2482215e-09
1.0275468e-05
-3.0789459e-07
-1.8118861e-08
1.0514567e-05
-2.9611928e-07
-3.584711e-08
1.0758131e-05
-2.9882873e-07
-5.9746688e-08
1.1015989e-05
-3.2906852e-07
-9.0281128e-08
1.1315928e-05
-4.1542284e-07
-1.251564e-07
1.1720101e-05
-6.1443267e-07
-1.550272e-07
1.2333258e-05
-1.0009104e-06
-1.5539662e-07
1.3091816e-05
-1.416538e-06
-8.9234419e-08
1.3735357e-05
-1.3773335e-06
-7.8433297e-09
1.4131457e-05
-1.0258787e-06
2.69797e-08
1.433805e-05
-7.6880277e-07
1.0464079e-08
1.4417124e-05
-7.1567194e-07
-5.1645879e-08
1.437762e-05
-8.1341359e-07
-1.2711071e-07
1.4252479e-05
-1.0035521e-06
-2.3136493e-07
1.4050249e-05
-1.2123712e-06
-3.3387441e-07
1.3753868e-05
-1.391706e-06
-3.9017304e-07
1.3338674e-05
-1.5382722e-06
-3.6597536e-07
1.2824763e-05
-1.6903126e-06
-2.6954232e-07
1.2318738e-05
-1.8719899e-06
-1.4250504e-07
1.2013462e-05
-2.0326332e-06
-6.1809017e-08
1.2010921e-05
-1.9229395e-06
-1.3974875e-07
1.2187708e-05
-1.2857813e-06
-4.630503e-07
1.2227481e-05
-9.5953669e-08
-1.063401e-06
1.7073895e-06
-1.8542825e-06
9.2624354e-06
-2.123069e-07
5.0234933e-09
9.2198859e-06
-2.8274645e-07
9.1186309e-09
9.1750758e-06
-2.9642808e-07
1.0328571e-08
9.133395e-06
-2.9750835e-07
8.2078851e-09
9.1017453e-06
-2.9278277e-07
2.8055351e-09
9.0809108e-06
-2.8405027e-07
-7.5097048e-09
9.0667722e-06
-2.760454e-07
-2.3389778e-08
9.0548025e-06
-2.7435265e-07
-4.6644408e-08
9.0399101e-06
-2.8653211e-07
-8.0218993e-08
9.017729e-06
-3.2853779e-07
-1.2771809e-07
8.9915105e-06
-4.3714125e-07
-1.9232564e-07
8.9922267e-06
-7.0233475e-07
-2.7055276e-07
9.155268e-06
-1.3179198e-06
-3.3500495e-07
9.5229851e-06
-2.0624373e-06
-2.9245821e-07
9.6018111e-06
-1.817861e-06
-1.6250393e-07
9.1421967e-06
-8.6518946e-07
-1.7598098e-07
8.5739243e-06
-5.1556783e-07
-2.7337387e-07
7.8937659e-06
-3.3973504e-07
-4.7135546e-07
7.2434325e-06
-4.6335364e-07
-7.3943262e-07
6.5776048e-06
-6.282782e-07
-1.0413689e-06
5.8871229e-06
-8.0315466e-07
-1.2607756e-06
5.1796745e-06
-9.9630467e-07
-1.2638611e-06
4.457054e-06
-1.1880201e-06
-1.0566093e-06
3.7708157e-06
-1.3988961e-06
-7.6932043e-07
3.342939e-06
-1.6769747e-06
-5.7246989e-07
3.4629499e-06
-2.0728453e-06
-5.6393219e-07
4.270818e-06
-2.1955975e-06
-9.3084598e-07
5.4275116e-06
-1.4178718e-06
-1.5837559e-06
6.1779081e-06
5.8198509e-08
-2.3742741e-06
1.375156e-06
-3.1303822e-06
9.0676829e-06
4.8482186e-09
8.804227e-06
8.6916187e-09
8.5314423e-06
9.6272273e-09
8.2590357e-06
7.195866e-09
7.9903808e-06
1.5160194e-09
7.7285418e-06
-1.0015877e-08
7.4705124e-06
-2.7609655e-08
7.2076543e-06
-5.446173e-08
6.9227357e-06
-9.5764248e-08
6.5818851e-06
-1.6082595e-07
6.1181931e-06
-2.6742684e-07
5.3828525e-06
-4.5419747e-07
4.0633716e-06
-8.163251e-07
2.0240265e-06
-1.3785461e-06
-1.5179554e-07
-1.5016462e-06
-1.6408039e-06
-1.2236507e-06
-2.5826307e-06
-1.0117494e-06
-2.5444287e-06
-5.7809499e-07
-1.8958088e-06
2.0732529e-07
-1.1196778e-06
9.4490131e-07
-4.5823399e-07
1.4476577e-06
-3.3678168e-08
1.7406954e-06
1.1791654e-07
1.8897629e-06
-6.4911071e-08
1.9541929e-06
-6.423413e-07
1.8566594e-06
-1.3857221e-06
1.0674334e-06
-1.8648989e-06
-2.2211354e-07
-1.4341262e-06
-1.7249843e-06
-1.0886174e-07
-2.9311463e-06
-3.7649459e-06
9.5839379e-06
-3.0857981e-07
-1.4921273e-09
9.8647419e-06
-2.6975103e-07
-2.8485964e-09
1.0135254e-05
-2.5728761e-07
-4.132011e-09
1.036338e-05
-2.148027e-07
-5.4150439e-09
1.0538479e-05
-1.6320334e-07
-6.7680979e-09
1.0666377e-05
-1.1850576e-07
-8.2979032e-09
1.0755597e-05
-8.394392e-08
-1.0179814e-08
1.0814551e-05
-5.8809419e-08
-1.2493134e-08
1.0852037e-05
-4.3621903e-08
-1.5412797e-08
1.0881451e-05
-4.2764928e-08
-1.901592e-08
1.0929433e-05
-6.8472933e-08
-2.2894622e-08
1.105171e-05
-1.464848e-07
-2.5751846e-08
1.1329565e-05
-2.9500316e-07
-2.2912406e-08
1.1765059e-05
-4.1678154e-07
-1.3013567e-08
1.2151937e-05
-3.041577e-07
-3.8946041e-09
1.2423786e-05
-1.0903832e-07
3.6443422e-09
1.261796e-05
5.416573e-08
6.6044406e-09
1.2776049e-05
1.8885132e-07
4.8540585e-09
1.2937501e-05
3.0789517e-07
-2.9068854e-09
1.3132541e-05
4.2645223e-07
-1.4944619e-08
1.3366221e-05
5.8661799e-07
-3.8782311e-08
1.3606871e-05
8.2550944e-07
-6.7985762e-08
1.3796331e-05
1.15357e-06
-9.259109e-08
1.3888055e-05
1.5369801e-06
-1.0787798e-07
1.3841289e-05
1.934726e-06
-1.1313821e-07
1.358829e-05
2.3232086e-06
-1.0862318e-07
1.2974666e-05
2.7260628e-06
-9.3359188e-08
1.1734155e-05
3.1841509e-06
-6.5666778e-08
9.4478981e-06
3.7770652e-06
-2.700188e-08
4.877882e-06
4.8882547e-09
9.1974793e-06
-2.3026347e-07
-1.769059e-09
9.2861331e-06
-3.4543076e-07
-3.8009418e-09
9.411209e-06
-3.659687e-07
-6.0347802e-09
9.5786921e-06
-3.654074e-07
-8.5196281e-09
9.7798877e-06
-3.4960902e-07
-1.1358779e-08
9.9980251e-06
-3.2712214e-07
-1.4764277e-08
1.0221788e-05
-3.0694446e-07
-1.8874042e-08
1.0446557e-05
-2.9554317e-07
-2.3871271e-08
1.0674525e-05
-3.0135555e-07
-2.9959616e-08
1.0921299e-05
-3.4250659e-07
-3.7266054e-08
1.1232055e-05
-4.5944068e-07
-4.4833878e-08
1.1708595e-05
-7.2966668e-07
-4.8136467e-08
1.2495556e-05
-1.1984892e-06
-3.8513302e-08
1.3299021e-05
-1.2931462e-06
-1.6419341e-08
1.3867508e-05
-8.7698785e-07
-3.894813e-09
1.4286733e-05
-5.0011052e-07
-1.8185148e-09
1.4624221e-05
-2.6586165e-07
-9.5324579e-09
1.4906272e-05
-1.2669339e-07
-2.3919609e-08
1.514906e-05
-2.3831915e-08
-4.8678205e-08
1.5415098e-05
-1.1183317e-08
-7.5888026e-08
1.571887e-05
2.9969031e-08
-1.0369734e-07
1.6017996e-05
2.2995935e-07
-1.2293219e-07
1.6221492e-05
6.7256088e-07
-1.2206467e-07
1.6292431e-05
1.26539e-06
-1.0412177e-07
1.6184581e-05
1.9488158e-06
-8.326136e-08
1.5824188e-05
2.6491271e-06
-5.9804202e-08
1.4981588e-05
3.4310726e-06
-3.2147818e-08
1.3392772e-05
4.2733666e-06
8.8806809e-09
1.0721154e-05
5.2777752e-06
8.1829262e-08
6.6756606e-06
1.5296365e-07
9.2578913e-06
-2.1237628e-07
-1.7942502e-09
9.2083866e-06
-2.8294488e-07
-3.862965e-09
9.1556407e-06
-2.9668175e-07
-6.2127374e-09
9.1051207e-06
-2.9774331e-07
-8.9365448e-09
9.0634887e-06
-2.9296438e-07
-1.220731e-08
9.0292882e-06
-2.8406056e-07
-1.6370818e-08
8.9967881e-06
-2.7616521e-07
-2.1668939e-08
8.9588729e-06
-2.7566008e-07
-2.8611783e-08
8.9075426e-06
-2.9240173e-07
-3.784102e-08
8.8364778e-06
-3.4834856e-07
-5.0806393e-08
8.751762e-06
-4.9867981e-07
-6.8356039e-08
8.729193e-06
-8.9074322e-07
-8.6878405e-08
9.1026758e-06
-1.8301518e-06
-7.7004747e-08
9.5234243e-06
-1.9698436e-06
-3.8014566e-08
9.2736068e-06
-7.706823e-07
-1.9429382e-08
9.0132044e-06
-3.6972413e-07
-4.5355871e-08
8.6172547e-06
-5.3447587e-08
-8.8715321e-08
8.0928033e-06
6.7789632e-08
-1.4043506e-07
7.5353971e-06
-1.6498407e-09
-2.0460164e-07
6.9372215e-06
-1.748965e-07
-2.8232207e-07
6.5035014e-06
-4.7120112e-07
-3.2971565e-07
6.5193373e-06
-7.474204e-07
-3.0580798e-07
7.1831074e-06
-8.3625523e-07
-2.1306885e-07
8.428543e-06
-6.4364888e-07
-1.0667364e-07
9.8180329e-06
-9.2938732e-09
-1.354248e-08
1.0892218e-05
8.8479728e-07
1.0935096e-07
1.1171518e-05
1.9861202e-06
2.1225425e-07
1.0547255e-05
2.9563998e-06
3.3072579e-07
8.8283533e-06
4.1516504e-06
4.4061866e-07
5.6837103e-06
5.0419455e-07
9.0631778e-06
-1.7534323e-09
8.7926855e-06
-3.7611752e-09
8.5116829e-06
-6.0522388e-09
8.2298739e-06
-8.7386612e-09
7.9504657e-06
-1.204044e-08
7.6728418e-06
-1.6452841e-08
7.3913546e-06
-2.2288012e-08
7.0916411e-06
-3.0408652e-08
6.7458664e-06
-4.2391633e-08
6.2985476e-06
-6.1856403e-08
5.6276343e-06
-9.5197465e-08
4.4373792e-06
-1.547469e-07
2.0478779e-06
-2.5794675e-07
-1.0211734e-06
-2.8993888e-07
-3.1512929e-06
-1.4441305e-07
-4.6264132e-06
-1.186146e-07
-5.5630787e-06
-1.2816612e-07
-5.9432434e-06
-1.2910184e-07
-5.6758319e-06
-6.0576503e-08
-4.9702499e-06
6.3593309e-08
-4.1935201e-06
1.9867455e-07
-3.5422776e-06
3.4191107e-07
-2.9562505e-06
4.69012e-07
-2.1843236e-06
5.4226188e-07
-8.3692288e-07
5.0916348e-07
7.1674325e-07
3.9790385e-07
1.7434625e-06
7.3048009e-07
2.0422996e-06
9.2141805e-07
2.258205e-06
9.9047226e-07
9.6367262e-07
9.5838177e-06
-3.0858773e-07
-7.7451767e-09
9.864415e-06
-2.6976154e-07
-1.3683265e-08
1.0134601e-05
-2.5728891e-07
-1.7021971e-08
1.0362212e-05
-2.1479126e-07
-1.8222051e-08
1.0536501e-05
-1.6320151e-07
-1.7837065e-08
1.0663017e-05
-1.1865209e-07
-1.6140671e-08
1.0750419e-05
-8.4399731e-08
-1.31612e-08
1.0806847e-05
-5.9936913e-08
-8.9693064e-09
1.0841512e-05
-4.6034773e-08
-4.0435553e-09
1.0869708e-05
-4.815654e-08
8.9476998e-10
1.092128e-05
-8.1317049e-08
6.676987e-09
1.106283e-05
-1.7385189e-07
6.1299086e-09
1.1382108e-05
-3.3194212e-07
-1.0849298e-08
1.1821147e-05
-3.8594661e-07
-6.6205006e-08
1.2187984e-05
-2.2556052e-07
-1.4454101e-07
1.244403e-05
-2.683499e-08
-2.2435311e-07
1.2624394e-05
1.3868469e-07
-3.1121425e-07
1.2758495e-05
2.8735281e-07
-4.1529416e-07
1.2883961e-05
4.1459897e-07
-5.4153572e-07
1.3036883e-05
5.2538314e-07
-6.9162261e-07
1.3230537e-05
6.3676486e-07
-8.6737032e-07
1.3445725e-05
7.8763993e-07
-1.0688187e-06
1.3628477e-05
1.0197879e-06
-1.2930581e-06
1.3726328e-05
1.3240796e-06
-1.5278209e-06
1.3697101e-05
1.6623528e-06
-1.7445903e-06
1.347106e-05
2.0133464e-06
-1.8947885e-06
1.2894928e-05
2.3937084e-06
-1.9104879e-06
1.1700177e-05
2.8641234e-06
-1.7354442e-06
9.4652751e-06
3.5263695e-06
-1.3199394e-06
4.8059859e-06
-6.0164347e-07
9.1973097e-06
-2.3029114e-07
-8.4062472e-09
9.2856022e-06
-3.4548413e-07
-1.6370672e-08
9.4100851e-06
-3.6606085e-07
-2.1744539e-08
9.5766102e-06
-3.6555492e-07
-2.4278961e-08
9.7760977e-06
-3.4986862e-07
-2.417652e-08
9.9917298e-06
-3.2772647e-07
-2.131942e-08
1.0211978e-05
-3.0832556e-07
-1.5194508e-08
1.0432095e-05
-2.9860558e-07
-5.3219808e-09
1.0654098e-05
-3.0788027e-07
9.8700079e-09
1.0895308e-05
-3.574331e-07
3.0752726e-08
1.1209031e-05
-4.9437034e-07
5.4361874e-08
1.1721913e-05
-8.0534579e-07
7.0163461e-08
1.2595028e-05
-1.3021214e-06
5.8157318e-08
1.334071e-05
-1.14762e-06
-4.2255942e-10
1.3892169e-05
-7.0123938e-07
-7.9418463e-08
1.4311457e-05
-3.6201389e-07
-8.5465583e-08
1.463355e-05
-1.2860982e-07
-6.2509009e-08
1.4863085e-05
5.589456e-08
-1.8470131e-08
1.5055301e-05
1.3126839e-07
4.8677666e-08
1.5269179e-05
1.0745766e-07
1.3861796e-07
1.5542356e-05
3.4967922e-08
2.4143112e-07
1.5855048e-05
5.2661994e-08
3.2316931e-07
1.609172e-05
3.5564143e-07
3.3589955e-07
1.6186664e-05
8.8948168e-07
2.7061589e-07
1.612268e-05
1.521678e-06
1.5838325e-07
1.581322e-05
2.2255974e-06
7.3731784e-08
1.506274e-05
2.9544579e-06
1.9111008e-07
1.3586161e-05
3.8087937e-06
5.6946147e-07
1.1161183e-05
4.8975614e-06
1.1566718e-06
6.4033075e-06
1.8550892e-06
9.2576995e-06
-2.1239797e-07
-8.4261525e-09
9.2077786e-06
-2.8298667e-07
-1.6439874e-08
9.1542999e-06
-2.9675844e-07
-2.2036847e-08
9.1025119e-06
-2.9787515e-07
-2.4828597e-08
9.0584225e-06
-2.9320476e-07
-2.4781978e-08
9.0204496e-06
-2.8464074e-07
-2.1483866e-08
8.981956e-06
-2.7746179e-07
-1.4039277e-08
8.9351324e-06
-2.7846721e-07
-1.9268889e-09
8.8677797e-06
-2.9899851e-07
2.062821e-08
8.7701913e-06
-3.6479939e-07
5.4142314e-08
8.6480467e-06
-5.4258323e-07
1.0198159e-07
8.6150751e-06
-1.0169107e-06
1.5762396e-07
9.2174465e-06
-2.1591549e-06
1.7801269e-07
9.3789066e-06
-1.4686525e-06
1.2218429e-07
9.1798974e-06
-5.701769e-07
4.7883751e-08
8.9090944e-06
-1.9036667e-07
5.2142328e-08
8.4359854e-06
9.6072482e-08
1.5796225e-07
7.7882645e-06
2.1589157e-07
3.4618796e-07
6.9973768e-06
1.2170177e-07
5.9600469e-07
6.0231992e-06
-9.8789904e-08
8.9878516e-07
4.9488055e-06
-3.7279668e-07
1.1528968e-06
4.2036666e-06
-7.3867251e-07
1.2319789e-06
4.2499492e-06
-9.9596982e-07
1.0944847e-06
5.2436902e-06
-1.0029732e-06
7.9395441e-07
6.9581709e-06
-6.5738072e-07
4.5679812e-07
8.7245279e-06
2.0795257e-07
3.7489092e-07
9.6736101e-06
1.2456294e-06
9.9072374e-07
9.6372508e-06
2.3877753e-06
1.8075388e-06
8.7065502e-06
3.6482094e-06
2.6362066e-06
5.2093311e-06
3.3164674e-06
9.0629758e-06
-8.174807e-09
8.792051e-06
-1.5823306e-08
8.5102627e-06
-2.1022619e-08
8.2270175e-06
-2.3368855e-08
7.9445406e-06
-2.2768606e-08
7.6621681e-06
-1.8721296e-08
7.372637e-06
-1.0218999e-08
7.0591072e-06
4.653723e-09
6.6841511e-06
3.3565917e-08
6.1754727e-06
8.2022941e-08
5.3697983e-06
1.6789972e-07
3.8699523e-06
3.2829832e-07
7.9484464e-07
6.5982601e-07
-2.1585639e-06
1.2094078e-06
-4.0761054e-06
1.2019336e-06
-5.4148992e-06
1.0270273e-06
-6.2933368e-06
8.4356707e-07
-6.6785071e-06
4.7014509e-07
-6.4272949e-06
-1.9097025e-07
-5.7929537e-06
-6.6769596e-07
-5.0300946e-06
-9.3420742e-07
-4.3760931e-06
-1.0473461e-06
-3.8190346e-06
-1.0803223e-06
-3.2113146e-06
-1.0649884e-06
-2.3333636e-06
-1.0239043e-06
-1.1262982e-06
-6.0201667e-07
5.3931799e-08
7.961228e-07
1.057452e-06
2.3119612e-06
2.1565621e-06
3.5440526e-06
4.3295008e-06
9.5866847e-06
-3.0820544e-07
-1.7247667e-08
9.8710163e-06
-2.6922483e-07
-2.8789496e-08
1.014441e-05
-2.5680482e-07
-3.3605527e-08
1.0374559e-05
-2.1456397e-07
-3.3796405e-08
1.0551158e-05
-1.6341948e-07
-3.1003462e-08
1.0680255e-05
-1.1938504e-07
-2.5837879e-08
1.0771068e-05
-8.5470607e-08
-1.8491273e-08
1.0831836e-05
-6.0807684e-08
-8.9239886e-09
1.0869713e-05
-4.599619e-08
4.0656695e-09
1.0896777e-05
-4.3815442e-08
1.7606509e-08
1.0934233e-05
-6.3393892e-08
3.2503683e-08
1.102211e-05
-1.2581405e-07
4.3791715e-08
1.1227551e-05
-2.5763933e-07
4.0826367e-08
1.1592276e-05
-4.4036519e-07
9.1539731e-09
1.1956033e-05
-4.1693522e-07
-9.080268e-08
1.2205833e-05
-2.5422833e-07
-2.1833237e-07
1.234064e-05
-1.1008394e-07
-3.334362e-07
1.2413452e-05
-6.7817283e-08
-4.170645e-07
1.2465865e-05
-1.2144409e-07
-4.6858347e-07
1.2531421e-05
-2.5618892e-07
-4.9645686e-07
1.2625206e-05
-4.4248857e-07
-5.1378412e-07
1.2729807e-05
-6.342718e-07
-5.3425188e-07
1.2806192e-05
-7.9743813e-07
-5.6744408e-07
1.2833288e-05
-9.385272e-07
-6.1268933e-07
1.2832213e-05