/*--------------------------------*- C++ -*----------------------------------*\
| =========                 |                                                 |
| \\      /  F ield         | OpenFOAM: The Open Source CFD Toolbox           |
|  \\    /   O peration     | Version:  v2012                                 |
|   \\  /    A nd           | Website:  www.openfoam.com                      |
|    \\/     M anipulation  |                                                 |
\*---------------------------------------------------------------------------*/
FoamFile
{
    version     2.0;
    format      ascii;
    class       volScalarField;
    location    "560/topAir";
    object      T;
}
// * * * * * * * * * * * * * * * * * * * * * * * * * * * * * * * * * * * * * //

dimensions      [0 0 0 1 0 0 0];


internalField   nonuniform List<scalar> 
1200
(
325.06146
348.23405
369.20384
388.57342
406.84386
424.31247
441.08127
456.9972
471.75802
485.32149
497.55962
508.23543
516.82625
516.66957
514.0078
508.90382
502.08156
494.60446
487.43595
481.20199
476.18559
472.43899
469.89269
468.43482
467.96327
468.42937
469.88113
472.53042
476.91723
483.9578
300.53963
301.55727
302.94957
304.65528
306.6312
308.84382
311.26295
314.09218
317.97179
323.18898
330.62807
340.72975
353.6752
367.60812
381.1685
393.14235
402.94158
410.3935
415.529
418.54121
419.88186
420.17835
420.03936
419.96488
420.35907
421.59926
424.12676
428.60008
436.26
448.2857
300.01199
300.04588
300.10876
300.20674
300.34505
300.52809
300.75936
301.04683
301.41262
301.88316
302.53626
304.68489
310.23029
319.70871
332.28632
346.67494
361.16936
374.62738
386.27887
395.68132
402.74896
407.74087
411.12454
413.42491
415.13489
416.69856
418.53936
421.15443
425.39871
432.52258
300.00029
300.00141
300.00411
300.0094
300.01857
300.03314
300.05495
300.08629
300.13051
300.1927
300.2851
300.48627
301.10624
304.5585
313.65882
326.53262
340.21582
353.68036
366.25751
377.39269
386.71987
394.15375
399.87405
404.2087
407.52521
410.17368
412.48564
414.82341
417.73773
422.0888
325.05625
347.98003
368.46201
387.10478
404.37271
420.50364
435.55167
449.44856
461.97972
472.79074
481.38995
487.19425
489.43889
480.94321
469.67861
457.45534
446.47221
438.06998
432.43604
429.02379
427.11577
426.19632
425.97648
426.33043
427.22913
428.7282
430.99706
434.41582
439.96688
449.80299
300.53891
301.53757
302.87717
304.48536
306.30735
308.29667
310.40501
312.5772
314.74563
316.82
318.67938
320.16853
321.1005
321.22334
320.79452
320.52012
321.14423
322.84829
325.32489
328.16778
331.16496
334.31328
337.68083
341.38514
345.56531
350.34518
355.78104
361.83596
368.64028
377.37675
300.01195
300.04494
300.10456
300.19503
300.31925
300.47892
300.6743
300.9038
301.16362
301.44615
301.73807
302.04244
302.35296
302.71224
303.73109
306.29691
311.26677
318.21687
325.96153
333.27496
339.80217
346.34154
352.90967
359.41008
365.5768
371.77282
378.45614
385.58541
393.17056
401.45234
300.00029
300.00137
300.00389
300.00867
300.01666
300.02892
300.04658
300.07083
300.10286
300.14395
300.19604
300.26856
300.42322
301.16768
304.2867
311.31733
321.31881
334.11739
347.6748
360.48301
371.4181
379.82184
386.58517
392.18917
397.08981
401.21257
404.58458
407.53615
410.46442
414.74976
325.05516
348.02202
368.56454
387.28298
404.64815
420.91133
436.1848
450.48808
463.7435
475.75265
486.14392
494.28867
499.03229
491.68945
481.18424
469.639
458.59521
448.57484
439.74385
432.15213
425.76168
420.5695
416.67318
414.21694
413.28849
413.84531
415.79278
419.12607
424.6477
434.16479
300.53898
301.54099
302.88679
304.5032
306.33605
308.34151
310.47848
312.70234
314.95617
317.16113
319.19229
320.85073
321.84647
321.88938
321.52923
321.57918
322.20674
323.28995
324.83769
326.86754
329.4165
332.61459
336.64288
341.64172
347.68248
354.80111
362.99757
372.06197
381.80253
393.27925
300.01196
300.04509
300.10504
300.19598
300.32073
300.48095
300.67709
300.908
301.17018
301.45572
301.74872
302.01934
302.24153
302.72198
304.78869
308.825
313.1408
316.90313
320.78739
325.03024
329.84391
335.71132
342.96881
351.62509
361.4375
371.69333
381.61187
390.71365
400.70315
412.90104
300.00029
300.00137
300.00391
300.00871
300.01672
300.02896
300.04653
300.07055
300.10212
300.14222
300.19206
300.25949
300.46481
302.20818
310.01157
323.36284
331.79771
333.61239
341.40795
352.37164
363.02956
371.9126
379.24035
385.4195
390.85376
395.64331
399.79334
403.67654
412.28507
428.65197
325.05762
348.0422
368.62566
387.41549
404.90229
421.37087
436.98157
451.82404
465.92787
479.23553
491.52465
502.22386
510.09899
506.16316
502.35971
500.7253
501.05476
502.09758
502.72847
502.21721
500.2276
496.80768
492.23288
486.84571
481.16608
476.1823
473.5372
475.22693
482.75634
493.74902
300.53908
301.54249
302.89269
304.5181
306.3672
308.40096
310.58601
312.88912
315.26931
317.66121
319.93974
321.86329
323.07942
323.62647
324.55846
326.04599
327.79694
329.62536
331.50481
333.55459
336.01964
339.15832
343.09509
347.80979
353.31849
359.78993
367.29561
376.00927
389.39429
418.42808
300.01196
300.04515
300.10536
300.19694
300.32296
300.48556
300.68589
300.92382
301.19713
301.49889
301.81113
302.09539
302.37768
303.8815
308.27798
312.43126
315.32422
317.54967
320.1626
323.83766
329.07711
336.20302
345.04458
355.15137
366.41823
378.38933
389.4811
399.37579
410.5729
426.35961
300.00029
300.00137
300.00393
300.00877
300.01688
300.02932
300.0473
300.07206
300.10494
300.14735
300.20187
300.29456
300.85563
307.10152
326.87187
347.15831
349.02779
348.64656
348.62227
354.78477
362.70841
370.3744
377.494
383.89972
390.75228
397.83157
405.26849
413.87153
425.75671
440.52607
325.05932
348.0505
368.64613
387.45327
404.96375
421.46617
437.11986
452.0105
466.15285
479.44415
491.5419
501.63451
508.41264
503.14903
500.30499
500.69453
503.0833
506.54794
510.59107
514.82272
518.8736
522.38112
525.02839
526.59483
527.04487
526.66599
526.20231
526.87938
530.33264
538.34719
300.53912
301.54315
302.89521
304.52415
306.3789
308.42108
310.61787
312.9359
315.33085
317.72416
319.95375
321.70668
322.66682
323.68269
325.32982
327.33564
330.184
334.67176
340.54234
347.62677
356.19111
366.67841
379.29182
393.68998
409.11788
424.79787
440.33923
455.95044
472.65467
493.10617
300.01196
300.04519
300.10552
300.19741
300.32404
300.48768
300.68968
300.93007
301.20645
301.51035
301.81807
302.08396
302.52222
306.42757
310.8683
313.81004
315.42155
316.96402
318.85494
322.141
327.75933
336.04306
346.23533
357.153
368.61199
382.01188
397.25257
414.64753
435.12103
460.64439
300.00029
300.00138
300.00394
300.00881
300.01697
300.02953
300.04774
300.07293
300.10659
300.15044
300.20918
300.34729
301.72768
320.80849
351.32049
356.99305
359.35928
361.27103
363.61543
366.20044
370.34509
375.1711
379.97727
384.28519
387.95519
390.91503
397.49886
409.869
428.04203
451.27123
325.06121
348.05444
368.65248
387.46266
404.97707
421.48347
437.13962
452.02649
466.15092
479.38696
491.32954
501.07467
507.42042
502.73496
500.91578
502.16416
504.32666
507.57833
511.39054
515.32876
518.98363
521.99598
524.11379
525.22762
525.39953
524.95446
524.65564
525.67907
529.42536
537.48839
300.53916
301.54329
302.89552
304.52476
306.37998
308.42274
310.61993
312.93722
315.3279
317.70624
319.89232
321.54538
322.40569
323.73161
325.5726
327.69344
331.49522
336.89518
343.38273
350.63543
358.51286
367.22483
377.22866
388.71389
401.40253
414.84129
428.8297
443.76209
460.96242
483.21889
300.01196
300.04519
300.10554
300.19745
300.32412
300.48786
300.68999
300.93053
301.20683
301.50958
301.81236
302.069
302.66553
307.77509
311.65755
313.99679
315.55942
317.4208
319.79523
323.23461
328.9827
338.27872
350.7309
363.48427
374.48746
384.55365
395.82522
409.50188
427.14834
450.78923
300.00029
300.00138
300.00394
300.00881
300.01697
300.02955
300.04779
300.07305
300.10685
300.15106
300.21162
300.38333
302.53094
334.32861
355.00743
359.17501
361.18614
363.51113
366.63709
369.84765
373.57293
377.91431
382.39972
386.56078
390.37473
393.95158
397.73019
409.20897
424.11802
443.37562
325.06175
348.05077
368.63927
387.43526
404.9301
421.40941
437.03041
451.87756
465.96481
479.21208
491.35064
501.71978
509.0222
504.71201
501.19536
500.07172
500.72697
501.79721
502.11212
500.87254
497.82982
493.38583
488.27879
483.0799
478.11938
473.98238
472.24405
474.998
483.07879
494.11889
300.53916
301.54278
302.89339
304.51948
306.36962
308.40477
310.59136
312.89553
315.2736
317.65359
319.89644
321.7356
322.8128
323.38596
324.56135
326.21331
328.0759
329.97332
331.88264
333.94672
336.47497
339.83445
344.22579
349.58176
355.78257
362.95994
371.02249
379.92807
393.90083
422.3778
300.01196
300.04516
300.1054
300.19703
300.32317
300.48598
300.68662
300.92499
301.19872
301.50018
301.80934
302.08419
302.3914
304.60064
309.70268
313.61234
316.26741
318.48749
321.35755
325.65869
331.90449
340.43452
350.96825
362.25262
373.14371
383.57032
392.54894
400.65794
409.73875
423.68459
300.00029
300.00138
300.00393
300.00878
300.0169
300.02937
300.04741
300.07229
300.10541
300.14826
300.20379
300.30621
301.08122
310.74005
337.0185
350.04355
351.24977
351.04628
351.3163
356.95416
363.89814
370.68696
377.39326
382.97611
388.23743
394.95624
402.56688
411.77066
422.2761
436.063
325.0601
348.03235
368.58148
387.30868
404.68622
420.96494
436.24933
450.5621
463.82155
475.80621
486.10822
494.03393
498.33925
490.39687
479.54824
468.07923
457.41621
447.82478
439.28866
431.83458
425.52842
420.53338
417.07263
415.27542
415.08115
416.26721
418.62105
422.17052
427.91253
438.51573
300.53908
301.54134
302.88767
304.50503
306.33943
308.34716
310.48686
312.71333
314.96797
317.16554
319.17244
320.77207
321.65534
321.58701
321.3208
321.59963
322.46601
323.74564
325.45889
327.65123
330.41961
333.94812
338.40425
343.81163
350.05332
357.04633
364.84303
373.1755
382.00909
392.76114
300.01196
300.0451
300.10509
300.19611
300.32103
300.48157
300.67821
300.9098
301.17271
301.45868
301.75019
302.01459
302.23116
302.88005
305.6701
310.25628
314.71197
318.41766
322.31727
326.70012
331.9718
338.63704
346.78333
355.91221
365.23612
374.14294
382.67983
390.47065
398.6588
408.81972
300.00029
300.00137
300.00391
300.00872
300.01675
300.02903
300.04669
300.07088
300.10273
300.14333
300.19397
300.26442
300.52178
303.09652
314.00602
327.96958
336.38255
336.44087
344.38281
354.79293
364.54438
372.68736
379.50807
385.33625
390.39048
394.73922
398.51934
402.22719
409.16741
422.3938
325.06181
347.99113
368.47934
387.12954
404.40619
420.54789
435.61272
449.52549
462.06578
472.88081
481.45565
487.15979
489.16564
480.28475
468.64761
456.27604
445.42009
437.27868
431.86194
428.52672
426.57649
425.5724
425.33218
425.81874
427.0212
428.94581
431.68627
435.61066
441.80014
451.80576
300.53902
301.53795
302.87811
304.48736
306.31106
308.303
310.41522
312.59223
314.76413
316.8397
318.69074
320.15135
321.02063
321.0561
320.60078
320.42322
321.23328
323.1209
325.72385
328.64548
331.72451
334.98558
338.51003
342.38487
346.68419
351.46575
356.7527
362.47801
368.72026
377.50675
300.01195
300.04495
300.10461
300.19518
300.31963
300.47972
300.67583
300.90646
301.16781
301.4519
301.74466
302.04479
302.34319
302.7217
303.93659
306.8526
312.16869
319.29883
326.94799
333.88662
340.08834
346.22225
352.36554
358.53288
364.64405
370.94059
377.60949
384.55065
391.83594
399.71033
300.00029
300.00137
300.00389
300.00868
300.0167
300.02901
300.0468
300.07128
300.10371
300.14544
300.19851
300.27265
300.43745
301.30315
305.08432
312.82236
323.05545
336.02454
349.61159
362.15917
372.59364
380.67243
387.22742
392.7305
397.37031
401.08459
404.17195
406.91745
409.66553
412.97907
325.06749
348.24659
369.22393
388.60256
406.88408
424.36628
441.15672
457.1087
471.90553
485.50504
497.7728
508.45801
517.0152
516.76794
513.96199
508.71098
501.79279
494.2812
487.10827
480.86171
475.81002
472.01729
469.44761
468.02807
467.67743
468.33907
470.03394
472.95028
477.62417
484.87935
300.53975
301.55771
302.95069
304.65766
306.63566
308.85151
311.27513
314.09124
317.98202
323.18984
330.54551
340.55439
353.40371
367.29516
380.90776
393.03626
403.051
410.67897
415.85786
418.76848
419.92259
420.02492
419.74964
419.6257
420.03998
421.32748
423.89859
428.41588
436.17437
448.55869
300.012
300.0459
300.10882
300.20693
300.34549
300.52903
300.76115
301.04953
301.41667
301.8876
302.53334
304.53283
309.85088
319.24876
331.85516
346.39776
361.12964
374.84205
386.67115
396.11214
403.08583
407.90471
411.09995
413.24373
414.84722
416.34643
418.14786
420.74692
425.03758
432.40389
300.00029
300.00141
300.00411
300.00942
300.01861
300.03326
300.05522
300.08683
300.13152
300.19446
300.28805
300.48994
301.13178
304.60464
314.02666
327.16199
340.98033
354.57959
367.25065
378.36316
387.53819
394.73902
400.20457
404.30451
407.4253
409.91903
412.11181
414.36224
417.23847
421.68003
)
;

boundaryField
{
    maxY
    {
        type            zeroGradient;
    }
    minX
    {
        type            fixedValue;
        value           uniform 300;
    }
    maxX
    {
        type            inletOutlet;
        inletValue      uniform 300;
        value           nonuniform List<scalar> 
40
(
484.04338
448.40417
432.61381
422.14878
449.89223
377.43234
401.47593
414.70286
434.28103
393.30333
412.83343
428.30432
493.98054
418.76239
426.50681
440.15805
538.56553
493.54001
461.16607
451.50975
537.5448
483.04357
450.6805
443.34541
494.20868
422.39805
423.57548
435.8812
438.61409
392.63008
408.58815
422.04269
451.88606
377.49146
399.6889
412.94543
484.93774
448.63901
432.46805
421.72098
)
;
    }
    minZ
    {
        type            zeroGradient;
    }
    maxZ
    {
        type            zeroGradient;
    }
    topAir_to_rightSolid
    {
        type            compressible::turbulentTemperatureCoupledBaffleMixed;
        refValue        nonuniform List<scalar> 
130
(
753.34418
761.31244
769.61799
777.85414
785.70064
792.93148
799.39535
805.00404
809.75461
813.59196
816.48763
818.42405
819.39567
747.33124
756.66547
766.17307
775.37406
783.95402
791.72053
798.56961
804.46511
809.39556
813.34517
816.30987
818.28649
819.27297
735.47231
747.92117
759.97291
771.09424
781.05306
789.78412
797.29674
803.63556
808.85117
812.98167
816.05816
818.09834
819.11497
718.00384
736.26443
752.39993
766.24324
777.95799
787.8141
796.05131
802.84924
808.35605
812.67251
815.86107
817.96557
819.01223
697.49867
725.35609
746.30071
762.6934
775.84048
786.53375
795.27076
802.37394
808.06497
812.49489
815.74846
817.88773
818.94869
697.70522
725.54108
746.45639
762.81724
775.94515
786.61904
795.3359
802.42333
808.09782
812.51139
815.7536
817.88604
818.94404
718.62448
736.8303
752.88259
766.63185
778.2794
788.07855
796.25637
803.00735
808.46174
812.73077
815.88593
817.96922
819.00693
736.35377
748.7295
760.67994
771.69676
781.57229
790.21813
797.65092
803.90967
809.04523
813.10744
816.13227
818.13932
819.14173
748.19463
757.48622
766.91924
776.03853
784.53582
792.22232
798.99785
804.81365
809.65512
813.5273
816.42992
818.36434
819.33393
754.02671
761.9924
770.26362
778.44781
786.23583
793.40809
799.81971
805.38265
810.05038
813.80659
816.63469
818.52464
819.47357
)
;
        refGradient     uniform 0;
        valueFraction   uniform 0.99967867;
        value           nonuniform List<scalar> 
130
(
753.26104
761.22444
769.52532
777.75721
785.59999
792.82769
799.28901
804.89575
809.64495
813.48153
816.37713
818.31434
819.28792
747.23187
756.56128
766.06473
775.26216
783.83907
791.60302
798.45
804.3439
809.27325
813.22233
816.18718
818.16495
819.15428
735.38013
747.82215
759.86758
770.98328
780.93723
789.66424
797.17365
803.51014
808.72425
812.85406
815.93063
817.97194
818.99132
717.93447
736.1894
752.31957
766.1578
777.86769
787.71917
795.952
802.74593
808.24937
812.5636
815.75169
817.85793
818.90779
697.43732
725.28709
746.22634
762.61506
775.75905
786.44974
795.18445
802.28549
807.97458
812.40293
815.65569
817.79539
818.8586
697.64412
725.47226
746.38212
762.73888
775.86354
786.53468
795.24909
802.3343
808.00683
812.41889
815.6604
817.79336
818.85362
718.55479
736.75485
752.80158
766.54545
778.18783
787.9822
796.15572
802.90294
808.35426
812.62136
815.7764
817.86163
818.90256
736.26105
748.63006
760.57426
771.58551
781.45627
790.09822
797.52805
803.78473
808.91902
812.98068
816.00568
818.01395
819.01946
748.09473
757.38159
766.81051
775.92624
784.42047
792.10444
798.87795
804.69226
809.53279
813.40462
816.30757
818.24337
819.21586
753.94325
761.90407
770.17062
778.35057
786.13486
793.30399
799.7131
805.27413
809.94059
813.69613
816.52427
818.41511
819.36607
)
;
        Tnbr            T;
        thicknessLayers List<scalar> 0();
        kappaLayers     List<scalar> 0();
        kappaMethod     fluidThermo;
        kappa           none;
        alphaAni        none;
        alpha           none;
        field           T;
    }
    topAir_to_heater
    {
        type            compressible::turbulentTemperatureCoupledBaffleMixed;
        refValue        nonuniform List<scalar> 
40
(
734.32006
736.35384
740.38486
746.19885
724.77568
727.15183
731.9294
738.84164
704.83385
707.93522
714.30711
723.73136
672.63241
676.61139
685.21047
699.08796
625.85432
629.51049
639.03747
658.22664
626.04216
629.70577
639.23782
658.42928
673.27749
677.29135
685.90458
699.76426
705.5454
708.75173
715.19601
724.64852
725.38756
727.88548
732.76782
739.72236
734.78521
736.91125
741.03328
746.87308
)
;
        refGradient     uniform 0;
        valueFraction   uniform 0.99967867;
        value           nonuniform List<scalar> 
40
(
734.25013
736.28239
740.31048
746.12041
724.69733
727.0691
731.8412
738.7477
704.76535
707.86236
714.2285
723.64617
672.57891
676.5554
685.15119
699.02433
625.81489
629.46897
638.99303
658.17679
626.00254
629.66439
639.19377
658.37975
673.22333
677.23476
685.84486
699.70029
705.47627
708.67808
715.1166
724.56264
725.30881
727.80218
732.67898
739.6278
734.71516
736.83961
740.95863
746.79433
)
;
        Tnbr            T;
        thicknessLayers List<scalar> 0();
        kappaLayers     List<scalar> 0();
        kappaMethod     fluidThermo;
        kappa           none;
        alphaAni        none;
        alpha           none;
        field           T;
    }
    topAir_to_leftSolid
    {
        type            compressible::turbulentTemperatureCoupledBaffleMixed;
        refValue        nonuniform List<scalar> 
130
(
916.45438
916.41863
916.34049
916.21834
916.05281
915.85264
915.63419
915.39976
915.14868
914.89336
914.6715
914.50554
914.40936
916.48223
916.44455
916.36091
916.22458
916.03082
915.79907
915.54723
915.27335
914.97951
914.69386
914.46078
914.29148
914.18969
916.53735
916.49663
916.40471
916.25108
916.02163
915.74469
915.44687
915.1285
914.79609
914.47378
914.21145
914.02302
913.92446
916.60405
916.56237
916.46894
916.31327
916.08566
915.7856
915.4526
915.09156
914.70719
914.31179
914.0077
913.80261
913.69148
916.66926
916.62792
916.53518
916.37997
916.15232
915.86138
915.5209
915.1284
914.69097
914.21858
913.85132
913.59599
913.44216
916.71618
916.6767
916.5875
916.43774
916.22207
915.95102
915.61839
915.21671
914.76143
914.25742
913.8604
913.58269
913.41606
916.71137
916.67747
916.59907
916.46808
916.28329
916.03591
915.72044
915.3319
914.88674
914.40785
914.01083
913.72372
913.55804
916.66628
916.63701
916.56942
916.45591
916.28964
916.06138
915.76924
915.41823
915.02802
914.62363
914.26502
913.97964
913.82351
916.63145
916.60744
916.54831
916.44813
916.3012
916.1015
915.84478
915.53384
915.18667
914.83558
914.51237
914.23758
914.07838
916.61507
916.59292
916.53852
916.4465
916.31102
916.12813
915.89345
915.60864
915.29278
914.97767
914.68309
914.42279
914.25261
)
;
        refGradient     uniform 0;
        valueFraction   uniform 0.99967867;
        value           nonuniform List<scalar> 
130
(
916.26435
916.23606
916.16468
916.0488
915.88919
915.6947
915.4817
915.25246
915.00621
914.75533
914.53747
914.37499
914.2816
916.29219
916.26188
916.18486
916.05456
915.86641
915.63992
915.393
915.12367
914.83395
914.55186
914.32162
914.15424
914.05321
916.3473
916.31396
916.22868
916.0811
915.85731
915.58569
915.29287
914.9792
914.65115
914.33281
914.0739
913.88814
913.79114
916.41397
916.37969
916.2929
916.14332
915.92141
915.62674
915.29885
914.9427
914.56299
914.17199
913.87195
913.67036
913.56179
916.47916
916.44522
916.35913
916.21001
915.98806
915.70252
915.36717
914.97959
914.54684
914.07887
913.71563
913.46361
913.31201
916.52607
916.49399
916.41143
916.26776
916.05779
915.79213
915.46464
915.06788
914.61728
914.11769
913.72463
913.45015
913.28561
916.52126
916.49476
916.423
916.29808
916.11898
915.87698
915.56662
915.18298
914.74249
914.26801
913.87502
913.59133
913.42806
916.47619
916.4543
916.39333
916.28588
916.12525
915.9023
915.61516
915.26886
914.88304
914.48263
914.12744
913.84471
913.69001
916.44136
916.42473
916.3722
916.27804
916.13671
915.94226
915.69047
915.3841
915.04108
914.69357
914.37322
914.10035
913.94185
916.42499
916.4103
916.36266
916.27689
916.14733
915.97012
915.74091
915.46131
915.15031
914.83967
914.54912
914.29235
914.12497
)
;
        Tnbr            T;
        thicknessLayers List<scalar> 0();
        kappaLayers     List<scalar> 0();
        kappaMethod     fluidThermo;
        kappa           none;
        alphaAni        none;
        alpha           none;
        field           T;
    }
}


// ************************************************************************* //
