/*--------------------------------*- C++ -*----------------------------------*\
| =========                 |                                                 |
| \\      /  F ield         | OpenFOAM: The Open Source CFD Toolbox           |
|  \\    /   O peration     | Version:  v2012                                 |
|   \\  /    A nd           | Website:  www.openfoam.com                      |
|    \\/     M anipulation  |                                                 |
\*---------------------------------------------------------------------------*/
FoamFile
{
    version     2.0;
    format      ascii;
    class       surfaceScalarField;
    location    "650/topAir";
    object      phi;
}
// * * * * * * * * * * * * * * * * * * * * * * * * * * * * * * * * * * * * * //

dimensions      [1 0 -1 0 0 0 0];
oriented        oriented;


internalField   nonuniform List<scalar> 
3140
(
9.505356e-06
-3.0813581e-07
7.1763243e-08
9.6925799e-06
-2.6853538e-07
8.1320028e-08
9.8709128e-06
-2.4843605e-07
7.0112951e-08
1.0014486e-05
-1.9566937e-07
5.2107205e-08
1.0117322e-05
-1.3155098e-07
2.8728148e-08
1.0189499e-05
-7.2704077e-08
5.4278548e-10
1.0265932e-05
-2.5464195e-08
-5.0957e-08
1.0368461e-05
1.6886831e-08
-1.1942742e-07
1.0506434e-05
8.103368e-08
-2.1904109e-07
1.0702463e-05
1.6579055e-07
-3.6187915e-07
1.0952135e-05
3.1320341e-07
-5.6295781e-07
1.1228793e-05
5.5803178e-07
-8.3478658e-07
1.1481291e-05
9.2778392e-07
-1.1803742e-06
1.1720835e-05
1.3604912e-06
-1.6000889e-06
1.1911285e-05
1.8502685e-06
-2.0406997e-06
1.2029366e-05
2.33407e-06
-2.4520555e-06
1.2058045e-05
2.7675329e-06
-2.7960624e-06
1.1996548e-05
3.1202244e-06
-3.0585519e-06
1.186846e-05
3.3713256e-06
-3.243034e-06
1.1715601e-05
3.5130322e-06
-3.3599144e-06
1.1578434e-05
3.5576184e-06
-3.4201086e-06
1.1483219e-05
3.5289071e-06
-3.433267e-06
1.144027e-05
3.4501205e-06
-3.4067342e-06
1.1446023e-05
3.3394638e-06
-3.3449176e-06
1.1482558e-05
3.2117022e-06
-3.2482979e-06
1.1508005e-05
3.0845482e-06
-3.1106714e-06
1.1436716e-05
2.9863246e-06
-2.9166109e-06
1.1099662e-05
2.9736499e-06
-2.6394164e-06
1.0151789e-05
3.1792715e-06
-2.235913e-06
3.9289569e-06
-1.6461485e-06
9.1120368e-06
-2.3000225e-07
7.8800365e-08
9.0854045e-06
-3.4393598e-07
1.0203465e-07
9.0917459e-06
-3.6219789e-07
1.0742215e-07
9.1447568e-06
-3.567779e-07
1.0809884e-07
9.2429979e-06
-3.3332182e-07
1.0352965e-07
9.3806928e-06
-3.0198293e-07
9.1580861e-08
9.561169e-06
-2.7595066e-07
7.0002996e-08
9.8009489e-06
-2.5894524e-07
3.6103676e-08
1.0125966e-05
-2.2849761e-07
-1.5447524e-08
1.0566167e-05
-1.677902e-07
-1.0659859e-07
1.1146232e-05
-2.6830775e-08
-2.398991e-07
1.185504e-05
2.7959277e-07
-4.3010064e-07
1.2604806e-05
8.6651056e-07
-6.8810283e-07
1.3271549e-05
1.6825934e-06
-9.8844667e-07
1.3775588e-05
2.6216075e-06
-1.275099e-06
1.4049373e-05
3.5534907e-06
-1.4931537e-06
1.4078599e-05
4.3652027e-06
-1.627104e-06
1.3907879e-05
5.0046387e-06
-1.714085e-06
1.3619943e-05
5.4555373e-06
-1.7966824e-06
1.3307043e-05
5.7201592e-06
-1.8944976e-06
1.303037e-05
5.8220057e-06
-1.9877904e-06
1.2815232e-05
5.7969e-06
-2.0527955e-06
1.2664623e-05
5.6771312e-06
-2.0763737e-06
1.2568592e-05
5.4857295e-06
-2.0505074e-06
1.2506371e-05
5.2374857e-06
-1.9644357e-06
1.2434914e-05
4.9525451e-06
-1.798317e-06
1.2271341e-05
4.6710632e-06
-1.5242031e-06
1.1867613e-05
4.4834819e-06
-1.1110068e-06
1.098875e-05
4.5772371e-06
-5.2681268e-07
5.1748357e-06
2.9837751e-07
9.1688534e-06
-2.1075364e-07
8.0860116e-08
8.9991139e-06
-2.8039499e-07
1.0620004e-07
8.815865e-06
-2.9366579e-07
1.1471822e-07
8.6314126e-06
-2.929694e-07
1.2064526e-07
8.4582433e-06
-2.8519491e-07
1.2504336e-07
8.3016282e-06
-2.7281079e-07
1.2744312e-07
8.1583953e-06
-2.6133757e-07
1.2861837e-07
8.0252273e-06
-2.5660612e-07
1.3082649e-07
7.9200645e-06
-2.6070896e-07
1.3736874e-07
7.8856876e-06
-2.8087576e-07
1.474552e-07
8.0363327e-06
-3.3150173e-07
1.5403249e-07
8.5322957e-06
-3.5131962e-07
1.3524184e-07
9.4375434e-06
-1.1197443e-07
7.3903966e-08
1.0647267e-05
4.8140517e-07
-7.8517594e-09
1.1751944e-05
1.5478018e-06
-3.0409295e-08
1.2555213e-05
2.6733466e-06
7.6874335e-08
1.2971027e-05
3.5618014e-06
3.8712518e-07
1.306759e-05
4.2111999e-06
6.9606104e-07
1.2966624e-05
4.6471218e-06
9.0840568e-07
1.2799227e-05
4.8949618e-06
9.9167177e-07
1.2641408e-05
4.9752384e-06
1.0038633e-06
1.2510951e-05
4.9144029e-06
1.0124782e-06
1.2400473e-05
4.7503872e-06
1.036936e-06
1.229224e-05
4.5173729e-06
1.076359e-06
1.2172904e-05
4.2415064e-06
1.1149554e-06
1.2017674e-05
3.9404336e-06
1.1666455e-06
1.1792149e-05
3.6484907e-06
1.246792e-06
1.1458559e-05
3.4399472e-06
1.3747339e-06
1.0941212e-05
3.4919743e-06
1.5981928e-06
4.1668099e-06
1.822163e-06
8.9792222e-06
7.8978092e-08
8.5957186e-06
1.0311026e-07
8.1915501e-06
1.1050435e-07
7.7838321e-06
1.1475012e-07
7.3813859e-06
1.1725291e-07
6.9906181e-06
1.1795841e-07
6.611266e-06
1.1801573e-07
6.2350013e-06
1.1965901e-07
5.8478373e-06
1.2645475e-07
5.4239708e-06
1.4298871e-07
4.9122488e-06
1.8021615e-07
4.304904e-06
2.5601834e-07
3.8054674e-06
3.8739394e-07
3.7172547e-06
5.6928046e-07
4.3815538e-06
8.8219645e-07
5.5202118e-06
1.5327599e-06
6.501477e-06
2.578442e-06
7.2655688e-06
3.4449712e-06
7.883163e-06
4.0274707e-06
8.4218012e-06
4.3545149e-06
8.9048854e-06
4.4907243e-06
9.3273933e-06
4.4908794e-06
9.6646342e-06
4.4124997e-06
9.8974022e-06
4.2842299e-06
1.0012213e-05
4.126468e-06
1.0022435e-05
3.9299896e-06
9.9561583e-06
3.7143798e-06
9.9271532e-06
3.4681215e-06
1.0265963e-05
3.1513043e-06
2.3938932e-06
9.6173694e-06
-3.0781118e-07
3.1188323e-08
9.9199632e-06
-2.6964441e-07
4.8380033e-08
1.0201742e-05
-2.6221768e-07
5.0562509e-08
1.0435999e-05
-2.2710741e-07
4.4969667e-08
1.0616261e-05
-1.8519617e-07
3.367633e-08
1.0755207e-05
-1.5354668e-07
1.5159718e-08
1.0855898e-05
-1.4018383e-07
-1.1449916e-08
1.0928455e-05
-1.4820529e-07
-4.376539e-08
1.0982594e-05
-1.8368574e-07
-8.9479942e-08
1.1027277e-05
-2.536847e-07
-1.528687e-07
1.1072555e-05
-3.6902814e-07
-2.3919898e-07
1.1131616e-05
-5.4150591e-07
-3.523057e-07
1.1225899e-05
-7.8419584e-07
-4.9033293e-07
1.143822e-05
-1.1639266e-06
-6.4815534e-07
1.1758447e-05
-1.5657058e-06
-7.9468482e-07
1.2131988e-05
-1.9012372e-06
-9.2376261e-07
1.2464054e-05
-2.0733801e-06
-1.0542999e-06
1.2678438e-05
-2.0683484e-06
-1.204375e-06
1.2756117e-05
-1.9498369e-06
-1.3708104e-06
1.2734689e-05
-1.8032637e-06
-1.5351161e-06
1.266742e-05
-1.6761492e-06
-1.6763997e-06
1.2596133e-05
-1.5771133e-06
-1.7843783e-06
1.254457e-05
-1.5008403e-06
-1.8538091e-06
1.2523667e-05
-1.4424345e-06
-1.8813843e-06
1.2540465e-05
-1.3996539e-06
-1.8660226e-06
1.2593081e-05
-1.3603387e-06
-1.8047661e-06
1.2662231e-05
-1.3033895e-06
-1.6859586e-06
1.2696982e-05
-1.1772966e-06
-1.503039e-06
1.2577092e-05
-8.4073465e-07
-1.2851938e-06
1.1893146e-07
-1.0796223e-06
9.2370033e-06
-2.3155023e-07
3.4506768e-08
9.3574637e-06
-3.4800774e-07
5.9939401e-08
9.5042823e-06
-3.7155082e-07
6.9938501e-08
9.6909777e-06
-3.7684748e-07
7.1144668e-08
9.913576e-06
-3.7045641e-07
6.6191529e-08
1.0159962e-05
-3.6227139e-07
5.3916242e-08
1.0421827e-05
-3.6412892e-07
3.2075596e-08
1.0696395e-05
-3.8630088e-07
-3.8496348e-10
1.0990459e-05
-4.3951211e-07
-5.3706369e-08
1.1301536e-05
-5.4395921e-07
-1.2742956e-07
1.1643553e-05
-7.2122902e-07
-2.2974013e-07
1.2036407e-05
-1.0012974e-06
-3.631605e-07
1.2508032e-05
-1.4243812e-06
-5.1946617e-07
1.3036883e-05
-2.013682e-06
-6.6735457e-07
1.3596073e-05
-2.6195718e-06
-7.8022224e-07
1.4083717e-05
-2.9857208e-06
-8.9628662e-07
1.4400394e-05
-2.9421312e-06
-1.0753134e-06
1.450165e-05
-2.5705759e-06
-1.3136691e-06
1.441484e-05
-2.0865451e-06
-1.5738578e-06
1.4226725e-05
-1.6916492e-06
-1.8187247e-06
1.4008592e-05
-1.4238839e-06
-2.0226792e-06
1.3780895e-05
-1.234605e-06
-2.1684254e-06
1.3548612e-05
-1.1064322e-06
-2.2394308e-06
1.3321058e-05
-1.0400161e-06
-2.226351e-06
1.3134357e-05
-1.0541172e-06
-2.1240614e-06
1.3037718e-05
-1.1368253e-06
-1.9253305e-06
1.3116659e-05
-1.290541e-06
-1.614832e-06
1.3601328e-05
-1.5357524e-06
-1.2340412e-06
1.5241637e-05
-1.9452421e-06
-1.0567442e-06
-2.3181426e-06
-1.2731237e-06
9.2962597e-06
-2.1315504e-07
3.5167327e-08
9.2768185e-06
-2.8413625e-07
6.177124e-08
9.2454201e-06
-2.9929422e-07
7.3861516e-08
9.2141547e-06
-3.0287219e-07
7.7936708e-08
9.1937746e-06
-3.0192128e-07
7.6889244e-08
9.1876479e-06
-2.988305e-07
7.0129347e-08
9.1953847e-06
-2.9961241e-07
5.6363872e-08
9.2165149e-06
-3.1142543e-07
3.4817451e-08
9.2502838e-06
-3.4286633e-07
6.9470538e-09
9.3077469e-06
-4.0963142e-07
-4.4346398e-08
9.3994607e-06
-5.4079931e-07
-1.1812492e-07
9.5405088e-06
-7.8330861e-07
-2.2380271e-07
9.7543024e-06
-1.2058598e-06
-3.5839552e-07
1.0054063e-05
-1.8456579e-06
-4.7565635e-07
1.0371158e-05
-2.4642092e-06
-5.0325822e-07
1.0632349e-05
-2.7159238e-06
-4.551129e-07
1.0866911e-05
-2.4239856e-06
-3.6720323e-07
1.0978551e-05
-1.7286716e-06
-2.5935191e-07
1.0976356e-05
-9.4679254e-07
-2.3072919e-07
1.0871654e-05
-2.6595024e-07
-3.3017792e-07
1.0763346e-05
9.3262782e-08
-4.0535339e-07
1.0682426e-05
2.3976843e-07
-3.8089892e-07
1.0618924e-05
2.5003707e-07
-2.557401e-07
1.0567751e-05
1.7215969e-07
-8.4586181e-08
1.0485415e-05
1.3613293e-08
1.2925007e-07
1.0331107e-05
-2.0750896e-07
3.9136246e-07
1.0183141e-05
-5.7150679e-07
6.7599946e-07
1.0148192e-05
-9.5374066e-07
8.2852368e-07
1.0732198e-05
-1.3844018e-06
4.5462435e-07
-1.7592996e-06
-7.8416037e-07
9.1006184e-06
3.41586e-08
8.8600155e-06
5.9578467e-08
8.6004574e-06
7.076985e-08
8.338288e-06
7.4048994e-08
8.0814502e-06
7.2170975e-08
7.8360129e-06
6.456662e-08
7.6043986e-06
5.0018861e-08
7.3847705e-06
2.7862312e-08
7.1694694e-06
-1.1105513e-09
6.9608077e-06
-5.7982531e-08
6.7373996e-06
-1.371785e-07
6.4706129e-06
-2.6051033e-07
6.1248646e-06
-4.7274101e-07
5.6732066e-06
-8.2495682e-07
5.2091479e-06
-1.1194875e-06
4.9367966e-06
-9.1377798e-07
4.8912471e-06
1.965263e-07
4.8705877e-06
1.7334205e-06
4.9769493e-06
2.9711411e-06
5.3507633e-06
3.7123465e-06
5.8389607e-06
4.0943108e-06
6.3236599e-06
4.2450805e-06
6.728851e-06
4.2567404e-06
7.0259792e-06
4.1590203e-06
7.216244e-06
3.9499767e-06
7.3374579e-06
3.6015166e-06
7.3356635e-06
3.1448859e-06
7.3033765e-06
2.5467455e-06
7.8246138e-06
1.2457057e-06
-1.2642828e-06
9.5946352e-06
-3.0980186e-07
1.5337953e-08
9.8878084e-06
-2.702276e-07
2.5442506e-08
1.0168412e-05
-2.5914333e-07
2.9111579e-08
1.0404561e-05
-2.1948212e-07
2.8310804e-08
1.0586584e-05
-1.7292585e-07
2.4588139e-08
1.0719842e-05
-1.3657468e-07
1.8484353e-08
1.0812708e-05
-1.1439198e-07
1.0086998e-08
1.0876852e-05
-1.0603427e-07
-1.8550733e-09
1.0916392e-05
-1.1447966e-07
-1.4508308e-08
1.0939524e-05
-1.4569291e-07
-3.0251378e-08
1.0957631e-05
-2.1036903e-07
-4.6828432e-08
1.0991477e-05
-3.2652836e-07
-5.9415294e-08
1.1078004e-05
-5.2031301e-07
-5.6135272e-08
1.1307941e-05
-8.5387817e-07
-2.3427001e-08
1.1601496e-05
-1.1614088e-06
7.4276717e-08
1.1859154e-05
-1.381769e-06
2.0154294e-07
1.2028985e-05
-1.5394161e-06
3.1634326e-07
1.2113463e-05
-1.6930525e-06
4.0508369e-07
1.212725e-05
-1.8553637e-06
4.7159876e-07
1.2087934e-05
-2.0221366e-06
5.272454e-07
1.2022965e-05
-2.1939472e-06
5.8351002e-07
1.1950855e-05
-2.3596864e-06
6.4828457e-07
1.1872946e-05
-2.4979515e-06
7.2237391e-07
1.1782205e-05
-2.5919243e-06
8.0057654e-07
1.1678049e-05
-2.6417203e-06
8.7775566e-07
1.1585439e-05
-2.66956e-06
9.5377792e-07
1.1573431e-05
-2.6982122e-06
1.0190693e-06
1.1754021e-05
-2.6944794e-06
1.0038665e-06
1.2049449e-05
-2.307273e-06
7.172099e-07
-1.0700192e-06
2.2821797e-08
9.2087199e-06
-2.3143751e-07
1.6393184e-08
9.3160879e-06
-3.4719123e-07
2.9536775e-08
9.4597852e-06
-3.6861225e-07
3.5711967e-08
9.6459508e-06
-3.702816e-07
3.5780046e-08
9.8671692e-06
-3.5875387e-07
3.0801875e-08
1.0107831e-05
-3.4368911e-07
2.0368289e-08
1.0358143e-05
-3.3525522e-07
2.6246764e-09
1.0615243e-05
-3.410175e-07
-2.2505284e-08
1.0877039e-05
-3.7074157e-07
-5.9242901e-08
1.1150517e-05
-4.3754269e-07
-1.0905224e-07
1.1451896e-05
-5.6941322e-07
-1.7204472e-07
1.1817275e-05
-8.1402635e-07
-2.40947e-07
1.2305025e-05
-1.2365178e-06
-2.9078485e-07
1.2852579e-05
-1.7929085e-06
-2.7547971e-07
1.3300659e-05
-2.1647895e-06
-2.2460618e-07
1.3511227e-05
-2.2524596e-06
-2.3614464e-07
1.3483119e-05
-2.2349197e-06
-3.5199941e-07
1.3303349e-05
-2.2707572e-06
-5.5674004e-07
1.3007918e-05
-2.3158667e-06
-8.1865225e-07
1.2629461e-05
-2.371908e-06
-1.0913858e-06
1.2198914e-05
-2.4665665e-06
-1.3206338e-06
1.1725587e-05
-2.5819416e-06
-1.4743461e-06
1.1206578e-05
-2.6769275e-06
-1.5434324e-06
1.0640899e-05
-2.7263551e-06
-1.5285398e-06
1.0040099e-05
-2.7479e-06
-1.4189933e-06
9.47022e-06
-2.8301971e-06
-1.1951269e-06
9.1703698e-06
-3.0715016e-06
-9.3905405e-07
9.5796204e-06
-3.476299e-06
-8.5482971e-07
1.1053766e-05
-3.5402457e-06
-1.2873791e-06
-2.7390794e-06
-2.2065281e-06
9.2689777e-06
-2.1286169e-07
1.6575944e-08
9.2370813e-06
-2.8353078e-07
3.0008703e-08
9.2030923e-06
-2.9762856e-07
3.6868292e-08
9.1727145e-06
-2.9966154e-07
3.7695847e-08
9.1543151e-06
-2.9667084e-07
3.3206729e-08
9.1489632e-06
-2.9081417e-07
2.2607076e-08
9.1539652e-06
-2.8752615e-07
3.6326807e-09
9.165952e-06
-2.9276872e-07
-2.5419312e-08
9.1862935e-06
-3.1458304e-07
-6.95556e-08
9.2077478e-06
-3.6849244e-07
-1.348553e-07
9.2327084e-06
-4.8675644e-07
-2.2574668e-07
9.2741995e-06
-7.3673676e-07
-3.425818e-07
9.393862e-06
-1.2521071e-06
-4.6245629e-07
9.574017e-06
-1.9618056e-06
-4.8711042e-07
9.4658128e-06
-2.1692759e-06
-3.9187063e-07
9.014123e-06
-1.8634806e-06
-3.9464452e-07
8.3825794e-06
-1.422381e-06
-5.5057872e-07
7.9326306e-06
-1.3292718e-06
-7.531166e-07
7.4754967e-06
-1.0672517e-06
-1.0243369e-06
6.927662e-06
-8.4182807e-07
-1.3146334e-06
6.3143274e-06
-7.4750178e-07
-1.5138028e-06
5.6793987e-06
-7.7641977e-07
-1.5551437e-06
5.0694746e-06
-8.823911e-07
-1.4449118e-06
4.5294457e-06
-1.0447586e-06
-1.2307535e-06
4.0975801e-06
-1.2741022e-06
-9.1549895e-07
3.8437993e-06
-1.6286421e-06
-5.5560432e-07
3.9703303e-06
-2.1207019e-06
-3.9660809e-07
4.5443486e-06
-2.7506322e-06
-4.6260712e-07
5.4094978e-06
-2.7320596e-06
-1.2011945e-06
-1.3843855e-06
-2.6785042e-06
9.0740916e-06
1.6159219e-08
8.8210757e-06
2.90652e-08
8.5587715e-06
3.5447073e-08
8.2973262e-06
3.5834392e-08
8.0419602e-06
3.0867678e-08
7.7961162e-06
1.9597945e-08
7.5599599e-06
-1.349626e-09
7.327177e-06
-3.212244e-08
7.0939407e-06
-8.2456826e-08
6.8311546e-06
-1.6368937e-07
6.5008924e-06
-2.936746e-07
6.0147637e-06
-5.111223e-07
5.1879918e-06
-8.9812132e-07
3.9064494e-06
-1.5062661e-06
2.49328e-06
-1.8813347e-06
1.3959851e-06
-1.6867656e-06
1.3745563e-06
-1.211374e-06
1.5974449e-06
1.7702673e-07
1.9102117e-06
1.587534e-06
2.3413147e-06
2.4371252e-06
2.8214013e-06
2.8657872e-06
3.249845e-06
3.0401593e-06
3.5548807e-06
3.0697869e-06
3.6666986e-06
3.0033044e-06
3.5422723e-06
2.8016375e-06
3.2678253e-06
2.2491161e-06
2.9231612e-06
1.3712646e-06
2.5294794e-06
1.9492178e-07
1.8590216e-06
-7.929545e-07
-4.9623882e-07
9.5889838e-06
-3.100973e-07
5.4342518e-09
9.8745472e-06
-2.6977385e-07
9.6607154e-09
1.014896e-05
-2.5687e-07
1.1578173e-08
1.0379945e-05
-2.141479e-07
1.1483258e-08
1.0557291e-05
-1.6257352e-07
9.8292321e-09
1.0687231e-05
-1.1825043e-07
6.8111394e-09
1.0779105e-05
-8.4271116e-08
2.5050504e-09
1.0840418e-05
-5.9963669e-08
-3.1751864e-09
1.0881813e-05
-4.4901629e-08
-1.0962781e-08
1.0914596e-05
-4.2862713e-08
-2.0102702e-08
1.0961496e-05
-6.4050116e-08
-2.9538356e-08
1.1067664e-05
-1.3056949e-07
-3.473362e-08
1.1300596e-05
-2.6518333e-07
-2.3362341e-08
1.1675997e-05
-4.1857948e-07
2.0550556e-08
1.2034609e-05
-3.693927e-07
8.5912116e-08
1.2279435e-05
-1.9766675e-07
1.5514877e-07
1.242132e-05
-5.7626077e-08
2.3283907e-07
1.2510055e-05
-1.1595968e-08
3.2885192e-07
1.2572154e-05
-3.9722278e-08
4.5050707e-07
1.2625015e-05
-1.2290409e-07
5.9932987e-07
1.2683507e-05
-2.5025136e-07
7.7840257e-07
1.2742995e-05
-3.9725055e-07
9.9027267e-07
1.2791043e-05
-5.5087402e-07
1.2299737e-06
1.2823647e-05
-7.0924168e-07
1.4815171e-06
1.2848699e-05
-8.5957165e-07
1.7149196e-06
1.2855245e-05
-9.3763659e-07
1.8849547e-06
1.2730553e-05
-7.9055838e-07
1.9316334e-06
1.2243714e-05
-3.027423e-07
1.7881415e-06
1.0862199e-05
7.3047899e-07
1.3629087e-06
2.8752658e-06
6.6093573e-07
9.200996e-06
-2.3128975e-07
5.5602719e-09
9.2966417e-06
-3.4666504e-07
1.0784038e-08
9.4290777e-06
-3.6700944e-07
1.3417208e-08
9.604079e-06
-3.6650176e-07
1.3134442e-08
9.813219e-06
-3.5099608e-07
1.0086204e-08
1.0040373e-05
-3.292278e-07
4.1933296e-09
1.0274477e-05
-3.1030073e-07
-5.4482596e-09
1.0512669e-05
-3.0041892e-07
-2.0241933e-08
1.0756674e-05
-3.0750517e-07
-4.0643187e-08
1.1019985e-05
-3.4761609e-07
-6.759775e-08
1.133896e-05
-4.56222e-07
-9.8802431e-08
1.1792379e-05
-7.0052493e-07
-1.2428521e-07
1.2500247e-05
-1.1405491e-06
-1.2302312e-07
1.3283832e-05
-1.4055152e-06
-7.1848627e-08
1.3874543e-05
-1.1587746e-06
-2.5832479e-08
1.4261479e-05
-8.0182203e-07
-1.8942271e-08
1.4484915e-05
-5.8305712e-07
-5.0094731e-08
1.4572361e-05
-5.5713856e-07
-9.875976e-08
1.4540593e-05
-6.5934678e-07
-1.673211e-07
1.4417082e-05
-8.4216959e-07
-2.485271e-07
1.4204233e-05
-1.0376113e-06
-3.2025e-07
1.3891768e-05
-1.2079744e-06
-3.5122857e-07
1.3467972e-05
-1.3482815e-06
-3.2313189e-07
1.2952181e-05
-1.4814634e-06
-2.4279223e-07
1.244051e-05
-1.6285693e-06
-1.4205351e-07
1.2122112e-05
-1.7439814e-06
-7.5052419e-08
1.2057535e-05
-1.4998824e-06
-1.7053263e-07
1.2022547e-05
-6.1690014e-07
-5.1109825e-07
1.1632323e-05
9.2807296e-07
-1.106647e-06
2.9700192e-06
-1.8705423e-06
9.2615926e-06
-2.128648e-07
5.5205537e-09
9.2177845e-06
-2.8356982e-07
1.0723064e-08
9.1715544e-06
-2.973304e-07
1.3420807e-08
9.1281179e-06
-2.9849315e-07
1.31252e-08
9.0945077e-06
-2.9392724e-07
9.7493482e-09
9.0703003e-06
-2.8544774e-07
3.0355299e-09
9.0509544e-06
-2.7824432e-07
-9.0770246e-09
9.0320387e-06
-2.7866498e-07
-2.8257552e-08
9.0074871e-06
-2.9567629e-07
-5.6834164e-08
8.9729848e-06
-3.4916894e-07
-9.8802288e-08
8.9352866e-06
-4.8692926e-07
-1.5734205e-07
8.9467486e-06
-8.2914453e-07
-2.2541687e-07
9.2290715e-06
-1.6215814e-06
-2.637656e-07
9.6266934e-06
-2.077312e-06
-2.1388012e-07
9.5235597e-06
-1.2872235e-06
-1.6189007e-07
9.1479796e-06
-6.2976374e-07
-1.9267777e-07
8.611308e-06
-3.2394742e-07
-2.7436487e-07
7.9656955e-06
-2.4750932e-07
-4.1846063e-07
7.2690462e-06
-3.8205549e-07
-6.0655401e-07
6.5284044e-06
-5.725115e-07
-8.4582913e-07
5.7785109e-06
-7.6166878e-07
-1.0431437e-06
5.0492478e-06
-9.4845328e-07
-1.0905318e-06
4.3483527e-06
-1.116035e-06
-9.8368302e-07
3.7171785e-06
-1.279911e-06
-8.0983678e-07
3.3139171e-06
-1.5362221e-06
-6.125302e-07
3.4913946e-06
-1.9337672e-06
-5.4742719e-07
4.4138741e-06
-1.8707392e-06
-9.4685576e-07
5.6369198e-06
-6.1882186e-07
-1.6789243e-06
6.0606572e-06
1.9196514e-06
-2.6102682e-06
7.3082062e-06
-3.5217177e-06
9.0669284e-06
5.3199553e-09
8.8022e-06
1.0225339e-08
8.5277229e-06
1.2595402e-08
8.2531422e-06
1.1923524e-08
7.9819984e-06
8.0858467e-09
7.7151565e-06
9.9364901e-10
7.4487434e-06
-1.317939e-08
7.1733186e-06
-3.5361428e-08
6.866002e-06
-7.0815712e-08
6.4822915e-06
-1.2914773e-07
5.9299611e-06
-2.2827462e-07
4.9971936e-06
-4.0750677e-07
3.2481823e-06
-7.7091426e-07
1.0427116e-06
-1.3824909e-06
-8.7423265e-07
-1.2642246e-06
-2.2031501e-06
-9.9142735e-07
-3.0512949e-06
-6.9072443e-07
-2.9511916e-06
-1.7397844e-07
-2.2714688e-06
5.2323187e-07
-1.5078197e-06
1.0996953e-06
-8.4955037e-07
1.4458915e-06
-3.8295748e-07
1.6260868e-06
-1.496285e-07
1.7221366e-06
-2.0037572e-07
1.7768782e-06
-6.1525215e-07
1.6853178e-06
-1.1726076e-06
8.8289142e-07
-1.2103928e-06
-4.4207421e-07
5.1989134e-07
-2.1264995e-06
5.6762962e-06
-4.0014982e-06
-7.5927001e-06
9.5859156e-06
-3.1060925e-07
-8.8965084e-10
9.8673658e-06
-2.7051288e-07
-1.2695308e-09
1.0138014e-05
-2.5762922e-07
-1.4326529e-09
1.0365713e-05
-2.1472759e-07
-1.480855e-09
1.0539797e-05
-1.6279267e-07
-1.4532892e-09
1.0666034e-05
-1.1803626e-07
-1.3771298e-09
1.0753443e-05
-8.3598026e-08
-1.2825027e-09
1.0810552e-05
-5.9023026e-08
-1.2327353e-09
1.084644e-05
-4.5565475e-08
-1.2449984e-09
1.0876947e-05
-4.9001475e-08
-1.5352346e-09
1.0935154e-05
-8.4978597e-08
-2.6185611e-09
1.1090451e-05
-1.8303338e-07
-6.6938126e-09
1.1427752e-05
-3.413111e-07
-1.8868571e-08
1.1871933e-05
-3.7859926e-07
-4.4756515e-08
1.2240964e-05
-2.085134e-07
-7.4724078e-08
1.2509809e-05
-1.2275255e-08
-1.0195686e-07
1.2717525e-05
1.5683207e-07
-1.321376e-07
1.2892868e-05
3.253603e-07
-1.721687e-07
1.3066459e-05
5.0346196e-07
-2.267367e-07
1.325764e-05
7.0526511e-07
-2.9713966e-07
1.3463483e-05
9.4927287e-07
-3.7649314e-07
1.3655766e-05
1.2498057e-06
-4.5127868e-07
1.3795343e-05
1.5979934e-06
-5.0672012e-07
1.3845608e-05
1.9673092e-06
-5.3493436e-07
1.376598e-05
2.3323739e-06
-5.3668999e-07
1.3469922e-05
2.6966527e-06
-5.1479665e-07
1.2784433e-05
3.0855361e-06
-4.6811225e-07
1.143252e-05
3.52814e-06
-3.8844357e-07
8.9818987e-06
4.0793669e-06
-2.6674678e-07
5.0717906e-06
-1.1687473e-07
9.1965412e-06
-2.3146171e-07
-1.157837e-09
9.285759e-06
-3.4702026e-07
-1.9246425e-09
9.4114067e-06
-3.6738765e-07
-2.4701575e-09
9.5793992e-06
-3.6675069e-07
-2.8329264e-09
9.7806598e-06
-3.5095019e-07
-3.0147112e-09
9.9986126e-06
-3.2876023e-07
-3.0335479e-09
1.0221858e-05
-3.0934033e-07
-2.9497614e-09
1.0445259e-05
-2.9992221e-07
-2.7401391e-09
1.0672351e-05
-3.1061391e-07
-2.6758673e-09
1.0922686e-05
-3.6360625e-07
-3.3010601e-09
1.1253803e-05
-5.0818505e-07
-6.6370572e-09
1.1796319e-05
-8.3175105e-07
-1.7884816e-08
1.2699136e-05
-1.3184266e-06
-4.8432236e-08
1.3448958e-05
-1.0994991e-06
-1.0074922e-07
1.4009738e-05
-6.6560107e-07
-1.2968637e-07
1.4452509e-05
-3.363145e-07
-1.3795811e-07
1.4794078e-05
-8.6123123e-08
-1.4984611e-07
1.5054189e-05
1.3387099e-07
-1.6906777e-07
1.5274645e-05
3.1389151e-07
-2.0004186e-07
1.550765e-05
4.6837509e-07
-2.4580054e-07
1.5755194e-05
6.6799661e-07
-2.8597162e-07
1.5965339e-05
9.9113786e-07
-2.9982527e-07
1.6097945e-05
1.4314238e-06
-2.8403676e-07
1.6120054e-05
1.9760799e-06
-2.6696762e-07
1.5999057e-05
2.5631935e-06
-2.4460377e-07
1.5603004e-05
3.2453281e-06
-2.2069488e-07
1.4690253e-05
4.0158348e-06
-1.8196526e-07
1.2972617e-05
4.8450966e-06
-1.0553741e-07
1.0079936e-05
5.8255378e-06
4.292856e-08
7.0984468e-06
2.4875281e-07
9.2571286e-06
-2.1292421e-07
-1.183424e-09
9.2065483e-06
-2.8373852e-07
-1.9768647e-09
9.1526583e-06
-2.9751481e-07
-2.5605417e-09
9.1005935e-06
-2.9860518e-07
-2.9540268e-09
9.0564797e-06
-2.9396139e-07
-3.1241828e-09
9.0193119e-06
-2.8551757e-07
-3.0380003e-09
8.9820609e-06
-2.7845537e-07
-2.7098712e-09
8.9359757e-06
-2.8013313e-07
-1.9603177e-09
8.8713907e-06
-3.0238536e-07
-4.7683811e-10
8.7799215e-06
-3.7251399e-07
1.5766058e-09
8.6729958e-06
-5.6138085e-07
2.7865223e-09
8.6828457e-06
-1.0641465e-06
-2.8556369e-09
9.392643e-06
-2.2467025e-06
-4.5547428e-08
9.5008454e-06
-1.2789789e-06
-1.4389093e-07
9.3690095e-06
-5.3376845e-07
-1.6275818e-07
9.1719558e-06
-2.0045729e-07
-1.3169183e-07
8.874303e-06
4.76721e-08
-1.1092743e-07
8.5492673e-06
1.5625125e-07
-1.1676454e-07
8.2956604e-06
9.4605166e-08
-1.3506071e-07
8.1114611e-06
-5.1382793e-08
-1.427127e-07
8.0890339e-06
-2.4132644e-07
-1.1195597e-07
8.3906917e-06
-3.5477384e-07
-4.8040905e-08
9.0954406e-06
-2.6880341e-07
7.18966e-09
9.997178e-06
1.1451129e-07
1.4611761e-07
1.0990495e-05
6.1081951e-07
3.4322458e-07
1.1670344e-05
1.5305483e-06
4.8527437e-07
1.162018e-05
2.5753837e-06
5.4280834e-07
1.0654603e-05
3.5419122e-06
5.8976164e-07
8.4019783e-06
4.8176781e-06
6.503285e-07
6.481629e-06
7.5256656e-07
9.0625187e-06
-1.1690187e-09
8.7909533e-06
-1.9461889e-09
8.5085442e-06
-2.508699e-09
8.2247301e-06
-2.8659931e-09
7.94182e-06
-2.9637322e-09
7.6600339e-06
-2.7362575e-09
7.3705503e-06
-2.1496202e-09
7.0555971e-06
-5.3994317e-10
6.6792406e-06
3.1566038e-09
6.1673381e-06
1.0241345e-08
5.3532669e-06
2.4413804e-08
3.8296252e-06
5.1936292e-08
7.1658753e-07
9.4115685e-08
-2.0187529e-06
5.6275999e-08
-3.8244944e-06
3.8866789e-09
-5.0957798e-06
7.6716822e-08
-5.9217389e-06
1.8035271e-07
-6.2240835e-06
2.809419e-07
-5.977467e-06
3.6652576e-07
-5.3552549e-06
4.2097823e-07
-4.6012007e-06
4.4577393e-07
-3.8336014e-06
4.9894496e-07
-2.9629387e-06
5.7714203e-07
-1.7268039e-06
6.477226e-07
-1.165312e-07
6.8057565e-07
1.5330632e-06
7.6437244e-07
2.4908276e-06
1.1750502e-06
2.6081928e-06
1.300928e-06
2.2575222e-06
1.173688e-06
9.6214873e-07
9.5858759e-06
-3.106596e-07
-7.1235708e-09
9.8672594e-06
-2.7057562e-07
-1.2070147e-08
1.0137837e-05
-2.5769682e-07
-1.4305164e-08
1.0365494e-05
-2.1478459e-07
-1.4345024e-08
1.0539604e-05
-1.6281302e-07
-1.274113e-08
1.0665961e-05
-1.1796783e-07
-9.7589543e-09
1.0753532e-05
-8.3387477e-08
-5.4614536e-09
1.0810752e-05
-5.8344991e-08
-1.1102155e-10
1.0846242e-05
-4.3770494e-08
7.0203909e-09
1.0874181e-05
-4.4375615e-08
1.4847752e-08
1.0922827e-05
-7.3368242e-08
2.1947008e-08
1.1050864e-05
-1.580129e-07
2.2912684e-08
1.1343928e-05
-3.1537735e-07
2.7916915e-09
1.1777914e-05
-4.2579568e-07
-5.3368155e-08
1.2152866e-05
-3.0520727e-07
-1.4439754e-07
1.2402636e-05
-1.0757123e-07
-2.436534e-07
1.2559005e-05
5.3397493e-08
-3.4160625e-07
1.2660139e-05
1.7377469e-07
-4.4697284e-07
1.2747345e-05
2.5308751e-07
-5.6712142e-07
1.2868559e-05
2.8603931e-07
-7.0470856e-07
1.3049846e-05
3.0578672e-07
-8.6415186e-07
1.3278981e-05
3.7012849e-07
-1.0514396e-06
1.3503822e-05
5.3690614e-07
-1.2696913e-06
1.3661894e-05
8.1524593e-07
-1.5097991e-06
1.3699774e-05
1.1653132e-06
-1.7417691e-06
1.3531856e-05
1.5636058e-06
-1.9127702e-06
1.3002746e-05
2.0098639e-06
-1.9515986e-06
1.185172e-05
2.5563889e-06
-1.7970767e-06
9.6702079e-06
3.3123545e-06
-1.4015531e-06
4.6776486e-06
-6.6221511e-07
9.1964486e-06
-2.314929e-07
-7.8025127e-09
9.2855587e-06
-3.4706233e-07
-1.4546228e-08
9.4111276e-06
-3.6742009e-07
-1.8313754e-08
9.5791333e-06
-3.6673851e-07
-1.8882212e-08
9.7805569e-06
-3.5081814e-07
-1.642996e-08
9.9987418e-06
-3.2834955e-07
-1.0832668e-08
1.0222722e-05
-3.0838393e-07
-1.9286615e-09
1.0446737e-05
-2.9764567e-07
1.2550781e-08
1.0673624e-05
-3.0525535e-07
3.1918914e-08
1.0919711e-05
-3.5068739e-07
5.6896363e-08
1.1232486e-05
-4.7741585e-07
8.4541016e-08
1.1720622e-05
-7.6809655e-07
1.0380232e-07
1.2534681e-05
-1.2652296e-06
8.6914352e-08
1.3306165e-05
-1.3035995e-06
5.56621e-09
1.3851352e-05
-8.7193233e-07
-1.0786097e-07
1.4236283e-05
-4.9266318e-07
-1.3735043e-07
1.4515561e-05
-2.5531191e-07
-1.1875982e-07
1.4714754e-05
-1.2388289e-07
-6.7909541e-08
1.4822645e-05
-6.5909481e-08
1.4464846e-08
1.4919453e-05
-1.9110741e-07
1.3737409e-07
1.5049959e-05
-3.8049853e-07
2.7030661e-07
1.5248744e-05
-4.9446775e-07
3.6192155e-07
1.5524996e-05
-3.9752232e-07
3.6363235e-07
1.5821075e-05
-3.8923466e-08
2.7366034e-07
1.5934531e-05
6.5111712e-07
1.3324631e-07
1.5750298e-05
1.4751536e-06
2.5113836e-08
1.5091008e-05
2.3517844e-06
1.0640307e-07
1.3693635e-05
3.3308041e-06
4.8827507e-07
1.1333807e-05
4.5472951e-06
1.1412062e-06
6.1434347e-06
1.8804635e-06
9.2570394e-06
-2.1293653e-07
-7.8170144e-09
9.2063532e-06
-2.8375264e-07
-1.4598882e-08
9.1524202e-06
-2.9751591e-07
-1.8530227e-08
9.1004934e-06
-2.9855991e-07
-1.9204286e-08
9.056853e-06
-2.9379013e-07
-1.6510203e-08
9.0205005e-06
-2.8504602e-07
-9.9871257e-09
8.9855131e-06
-2.7741923e-07
1.3148893e-09
8.9431456e-06
-2.7776267e-07
2.0526555e-08
8.8851922e-06
-2.9654304e-07
4.8766581e-08
8.8035199e-06
-3.5733026e-07
8.9892751e-08
8.7020924e-06
-5.1996507e-07
1.4675692e-07
8.6622617e-06
-9.4594418e-07
2.1479948e-07
9.0656496e-06
-1.9717786e-06
2.5779224e-07
9.348166e-06
-1.9012586e-06
1.7403459e-07
9.0453255e-06
-7.7489255e-07
4.5267009e-08
8.7416053e-06
-3.5538479e-07
3.6179972e-08
8.2667665e-06
-3.4347765e-08
1.4388044e-07
7.586436e-06
9.2276535e-08
3.4880874e-07
6.7648884e-06
9.6628817e-10
6.2067981e-07
5.7122535e-06
-2.0546579e-07
9.2582215e-07
4.538792e-06
-5.0791828e-07
1.1919883e-06
3.5331838e-06
-8.5130487e-07
1.3197236e-06
3.1045761e-06
-1.1809066e-06
1.2284506e-06
3.7587716e-06
-1.4104349e-06
8.7558354e-07
5.5411014e-06
-1.2595749e-06
4.8001144e-07
7.6337056e-06
-4.7676929e-07
3.4741672e-07
8.9588437e-06
6.9870057e-07
8.655922e-07
9.1991563e-06
1.9218621e-06
1.7464464e-06
8.455284e-06
3.3163626e-06
2.6084878e-06
4.9379466e-06
3.3655168e-06
9.0624388e-06
-7.5904082e-09
8.7907907e-06
-1.4049146e-08
8.5083962e-06
-1.7628461e-08
8.2248669e-06
-1.789496e-08
7.9427795e-06
-1.4664813e-08
7.662404e-06
-7.4052141e-09
7.3768848e-06
5.9521437e-09
7.0701115e-06
2.8472484e-08
6.712244e-06
6.4483109e-08
6.2414141e-06
1.2374369e-07
5.5207516e-06
2.2511598e-07
4.2161029e-06
4.1068136e-07
1.5543059e-06
7.8514474e-07
-1.6099407e-06
1.3385908e-06
-3.779644e-06
1.4056342e-06
-5.279739e-06
1.2264749e-06
-6.2315406e-06
1.1024039e-06
-6.6359963e-06
7.8210852e-07
-6.3469165e-06
8.4168248e-08
-5.6116416e-06
-5.1355042e-07
-4.7692554e-06
-8.9912416e-07
-4.0110974e-06
-1.1065944e-06
-3.3935202e-06
-1.2190101e-06
-2.9001556e-06
-1.2551586e-06
-2.2820737e-06
-1.1964072e-06
-1.3181691e-06
-6.7315543e-07
-1.6980717e-07
7.3430952e-07
8.0337621e-07
2.255535e-06
1.8224862e-06
3.4753573e-06
4.2821396e-06
9.5888277e-06
-3.1026863e-07
-1.6700325e-08
9.8740817e-06
-2.6998498e-07
-2.7331845e-08
1.0148061e-05
-2.5712175e-07
-3.1154291e-08
1.0378484e-05
-2.1442987e-07
-3.0330221e-08
1.0555127e-05
-1.6288494e-07
-2.649286e-08
1.068419e-05
-1.1856523e-07
-2.0252575e-08
1.0774977e-05
-8.4456243e-08
-1.1798267e-08
1.0834604e-05
-5.9789326e-08
2.6349785e-11
1.0873065e-05
-4.385528e-08
1.2366773e-08
1.0899961e-05
-3.9733682e-08
2.7585467e-08
1.0934013e-05
-5.5756046e-08
4.3438359e-08
1.1011977e-05
-1.1106307e-07
5.5564338e-08
1.1193699e-05
-2.3348297e-07
5.3689344e-08
1.1545472e-05
-4.3230255e-07
2.5848624e-08
1.1918534e-05
-4.5904449e-07
-5.9743519e-08
1.218894e-05
-3.2318745e-07
-1.9204785e-07
1.2336448e-05
-1.7852693e-07
-3.1172923e-07
1.2410676e-05
-1.2660544e-07
-3.9585596e-07
1.2459027e-05
-1.7640918e-07
-4.4059964e-07
1.2517001e-05
-3.0918621e-07
-4.5549224e-07
1.2601359e-05
-4.9486709e-07
-4.5621235e-07
1.2699989e-05
-6.9381457e-07
-4.593679e-07
1.278107e-05
-8.7621621e-07
-4.780496e-07
1.2823374e-05
-1.0399782e-06
-5.1585598e-07
1.2840098e-05
-1.1940018e-06
-5.6857952e-07
1.2851412e-05