/*--------------------------------*- C++ -*----------------------------------*\
| =========                 |                                                 |
| \\      /  F ield         | OpenFOAM: The Open Source CFD Toolbox           |
|  \\    /   O peration     | Version:  v2012                                 |
|   \\  /    A nd           | Website:  www.openfoam.com                      |
|    \\/     M anipulation  |                                                 |
\*---------------------------------------------------------------------------*/
FoamFile
{
    version     2.0;
    format      ascii;
    class       volScalarField;
    location    "650/topAir";
    object      rho;
}
// * * * * * * * * * * * * * * * * * * * * * * * * * * * * * * * * * * * * * //

dimensions      [1 -3 0 0 0 0 0];


internalField   nonuniform List<scalar> 
1200
(
1.0684428
0.99672567
0.9396538
0.89245004
0.85206937
0.81673078
0.78545319
0.75789571
0.73400987
0.7133512
0.69569352
0.68101877
0.66972804
0.67037967
0.67436768
0.6816273
0.69127954
0.70198219
0.71244231
0.72173898
0.72937421
0.7351758
0.73916256
0.74143239
0.74209194
0.74119341
0.73867563
0.73425707
0.72718254
0.71625132
1.1565196
1.1525775
1.1472281
1.1407425
1.1333208
1.1251239
1.1162966
1.1061713
1.0925492
1.0748071
1.0506743
1.0196418
0.98255033
0.94551054
0.91178686
0.88359977
0.86151012
0.84530804
0.8345256
0.82845004
0.82590576
0.82549349
0.82592547
0.82616705
0.82540687
0.82292151
0.81791548
0.80925615
0.79488556
0.77335785
1.1585733
1.1584411
1.1581959
1.157814
1.1572753
1.1565629
1.1556637
1.1545483
1.1531322
1.1513199
1.148843
1.1412474
1.1219647
1.0894157
1.0484233
1.0047641
0.96373634
0.92814242
0.8992328
0.87721974
0.86148507
0.85083584
0.84387409
0.83927542
0.83591108
0.83283138
0.82918497
0.82400944
0.81568175
0.80201175
1.1586179
1.1586135
1.158603
1.1585823
1.1585465
1.1584895
1.1584042
1.1582814
1.1581081
1.1578643
1.1575038
1.1567417
1.1544403
1.142626
1.110129
1.0660939
1.0225121
0.98254738
0.94777847
0.91908738
0.89657818
0.87962025
0.8671579
0.85805279
0.85127761
0.84597348
0.84139202
0.83676687
0.83097398
0.82232285
1.0684462
0.99743679
0.94153445
0.89583539
0.85729146
0.82416538
0.79548857
0.77072871
0.7497078
0.73250645
0.71945778
0.71109892
0.70836268
0.72211109
0.74066193
0.76121407
0.78007665
0.79471143
0.8045705
0.81055468
0.81390087
0.81551914
0.81587281
0.81510238
0.8131966
0.81002345
0.8053349
0.79854096
0.78793866
0.77009954
1.156522
1.1526527
1.1475037
1.1413835
1.1345289
1.1271391
1.1194128
1.1115665
1.1038514
1.0965911
1.0902147
1.0852708
1.0824144
1.0824084
1.0839982
1.0845348
1.0817058
1.0752496
1.0664869
1.0568541
1.0469133
1.0366422
1.0258057
1.0140944
1.0012478
0.98712382
0.97179367
0.955544
0.93815577
0.91669032
1.1585735
1.1584448
1.1582123
1.1578596
1.1573757
1.1567541
1.1559943
1.1551029
1.1540956
1.1530044
1.1518855
1.1507462
1.1496055
1.1481042
1.1433385
1.1321363
1.1127998
1.087762
1.0618322
1.0392174
1.0193197
1.0003736
0.98225457
0.96502339
0.94902268
0.93284583
0.91602974
0.89904388
0.88190232
0.86379219
1.1586179
1.1586137
1.1586039
1.1585852
1.158554
1.1585061
1.1584369
1.1583419
1.1582163
1.1580549
1.1578505
1.1575658
1.1569122
1.1532845
1.1386049
1.1112757
1.0772797
1.0357155
0.99462495
0.95914344
0.93179932
0.91168957
0.89604711
0.88332371
0.87253404
0.86422269
0.85751339
0.85167592
0.84587594
0.83644909
1.0684309
0.99728128
0.94122273
0.89535939
0.85662646
0.82326404
0.79421732
0.76881735
0.7467072
0.72780265
0.71233906
0.70097548
0.69512264
0.70675365
0.72257553
0.73972279
0.75639475
0.77214456
0.78682717
0.80026533
0.81228175
0.82250834
0.83035244
0.83522851
0.83684284
0.83533205
0.83106769
0.82420813
0.81314487
0.79502648
1.1565213
1.1526379
1.1474637
1.1413106
1.1344132
1.1269613
1.1191295
1.1110988
1.1030931
1.0954122
1.0885239
1.083165
1.0803256
1.0804356
1.080876
1.0796175
1.0766644
1.0724905
1.0670195
1.0601407
1.0516233
1.0409878
1.0277707
1.0118557
0.99350555
0.97315057
0.95122633
0.92854371
0.90526097
0.87909819
1.1585734
1.1584442
1.1582103
1.1578557
1.1573695
1.1567456
1.1559828
1.1550863
1.1540715
1.1529729
1.1518613
1.1508669
1.1500054
1.1468055
1.1357594
1.1196651
1.1048347
1.09247
1.0796952
1.0657697
1.0496509
1.029997
1.0065919
0.98048534
0.95333911
0.92743605
0.90460025
0.88482118
0.8631694
0.83772013
1.1586179
1.1586137
1.1586038
1.158585
1.1585537
1.1585059
1.1584371
1.158343
1.1582192
1.1580617
1.1578644
1.1575718
1.1562605
1.1433194
1.102053
1.0581828
1.0348027
1.0335701
1.0085805
0.97749893
0.95052913
0.92937598
0.9125
0.89853864
0.88656312
0.87652807
0.8680607
0.85969617
0.84037558
0.80645946
1.0684052
0.99719176
0.94102131
0.89499411
0.85601859
0.82228498
0.79267117
0.76643811
0.74309468
0.72240799
0.70448717
0.68999195
0.68026284
0.68590709
0.69000859
0.69070196
0.68904868
0.68683917
0.6854112
0.68564224
0.68808876
0.69275201
0.69927496
0.70712892
0.71553281
0.72303569
0.7270006
0.72430765
0.71425584
0.69896729
1.1565205
1.1526308
1.1474384
1.1412497
1.1342902
1.1267334
1.118728
1.110419
1.1019813
1.0936855
1.0860357
1.0799549
1.0765052
1.0740725
1.069747
1.0640993
1.0578956
1.0515649
1.0450894
1.038079
1.0298449
1.019771
1.0076692
0.99373974
0.9780734
0.96047038
0.94086109
0.91907893
0.88416217
0.82210519
1.1585734
1.1584439
1.1582089
1.1578518
1.1573605
1.1567273
1.1559482
1.1550245
1.1539674
1.1528097
1.1516358
1.150609
1.1492528
1.1392192
1.1218581
1.1093909
1.1011782
1.0939098
1.0844544
1.0707908
1.0519693
1.0280279
1.000407
0.97093181
0.94042413
0.91042604
0.88418533
0.8615476
0.83875493
0.80842896
1.1586179
1.1586137
1.1586037
1.1585848
1.1585531
1.1585045
1.1584341
1.1583372
1.1582082
1.1580414
1.1578227
1.1573653
1.1534371
1.1090782
1.0285745
0.99502392
0.99285087
0.99342025
0.98830793
0.97062667
0.95089265
0.93290681
0.91691738
0.90220539
0.88747832
0.87154544
0.85353587
0.83281651
0.81016954
0.78784324
1.0683902
0.99715142
0.94094636
0.89487808
0.85585377
0.82206159
0.79238026
0.76607215
0.74268265
0.72205148
0.70447185
0.69091097
0.68244742
0.68885627
0.69114253
0.68921068
0.68631619
0.68194286
0.67680444
0.67144278
0.66634567
0.66196208
0.65866586
0.65669886
0.65608302
0.656475
0.65698199
0.65612583
0.65200467
0.64268691
1.15652
1.1526276
1.1474276
1.141225
1.1342438
1.1266558
1.1186079
1.1102473
1.1017625
1.0934767
1.0860358
1.0805949
1.0777656
1.0731229
1.0669023
1.0598312
1.0466409
1.0283645
1.0060895
0.98045241
0.95195232
0.9210963
0.88883056
0.85667994
0.82613682
0.79809108
0.77252331
0.74857699
0.72468931
0.69733603
1.1585734
1.1584437
1.1582083
1.1578499
1.1573563
1.156719
1.1559334
1.1550005
1.1539322
1.1527685
1.1516187
1.1506467
1.147969
1.129141
1.1156906
1.1074771
1.102149
1.0952035
1.0856069
1.0720694
1.0516999
1.025067
0.99476489
0.96297108
0.9288709
0.89399736
0.85892501
0.82346502
0.78646179
0.74554701
1.1586179
1.1586137
1.1586037
1.1585847
1.1585528
1.1585037
1.1584325
1.1583339
1.1582019
1.1580292
1.1577869
1.1570038
1.147117
1.0290845
0.97875482
0.96830218
0.96277619
0.9572098
0.9500196
0.94081066
0.9306143
0.91993659
0.91004563
0.90193742
0.89566354
0.88421524
0.86610117
0.83930603
0.80408043
0.76381801
1.0683777
0.99713016
0.94091788
0.89484302
0.85581184
0.82201066
0.79231702
0.76598793
0.74255299
0.72181448
0.70397514
0.68987503
0.68091786
0.68839116
0.69255299
0.69226773
0.68923121
0.68479475
0.67969856
0.67452432
0.66978622
0.66591822
0.66323201
0.66188137
0.6618085
0.66260102
0.66330836
0.66244326
0.65819244
0.64881147
1.1565197
1.1526267
1.1474258
1.1412221
1.1342394
1.1266489
1.1185963
1.1102249
1.1017119
1.0933506
1.0857178
1.0798881
1.0768659
1.0732763
1.0676903
1.0610938
1.0522271
1.0391818
1.0239655
1.0088403
0.99410255
0.97769393
0.9567269
0.9301919
0.90006535
0.86817686
0.83584304
0.80311844
0.76828083
0.72855415
1.1585734
1.1584437
1.1582082
1.1578497
1.1573561
1.1567187
1.1559328
1.154999
1.1539279
1.1527546
1.1515754
1.150571
1.1487563
1.1318286
1.1151448
1.1045301
1.0989303
1.0934274
1.0867798
1.0746147
1.0541774
1.0246382
0.99006118
0.95892438
0.93403846
0.91303348
0.88913896
0.85954705
0.82290155
0.77827913
1.1586179
1.1586137
1.1586037
1.1585846
1.1585528
1.1585037
1.1584325
1.158334
1.1582024
1.1580308
1.1578003
1.157237
1.1511849
1.0685092
0.98290846
0.96735743
0.9603599
0.95468652
0.94770037
0.94159943
0.93230118
0.92116791
0.91002602
0.8997445
0.89048517
0.88163282
0.87381207
0.85084456
0.82161971
0.78676551
1.0683656
0.99712392
0.94093109
0.89488412
0.85588977
0.82213531
0.79249691
0.76623071
0.74283384
0.72204406
0.70389573
0.68891439
0.67846828
0.68445482
0.69028128
0.69313936
0.69332105
0.69259625
0.69265616
0.69459555
0.69883071
0.70506528
0.71257446
0.72066118
0.72873586
0.73569497
0.739167
0.7357686
0.72308293
0.70714809
1.1565195
1.1526279
1.1474328
1.1412405
1.1342764
1.1267136
1.1186994
1.1103746
1.1019043
1.0935333
1.0857053
1.0792476
1.0753312
1.0737018
1.0705604
1.0655706
1.0597819
1.0538937
1.0480831
1.0419316
1.0346685
1.025356
1.0133632
0.99873848
0.98181145
0.9625314
0.94181271
0.9201959
0.8913253
0.83278244
1.1585734
1.1584438
1.1582087
1.1578513
1.1573598
1.1567261
1.1559462
1.1550211
1.1539605
1.1527929
1.1515908
1.1505085
1.1494322
1.1431368
1.1251018
1.1092859
1.0985511
1.09052
1.081153
1.0678355
1.0490903
1.0243853
0.99536503
0.96573926
0.93752341
0.9105636
0.88898534
0.87112413
0.85187116
0.82503671
1.1586179
1.1586137
1.1586037
1.1585848
1.1585531
1.1585044
1.1584341
1.1583371
1.1582083
1.1580421
1.1578285
1.1574649
1.155158
1.128525
1.0523662
0.99546768
0.9902368
0.99181464
0.99387973
0.97919565
0.95947948
0.93983307
0.92312479
0.90905476
0.89567126
0.87958578
0.86428125
0.84623269
0.82487143
0.79939713
1.0683561
0.99715245
0.94104929
0.89514523
0.85637351
0.82297194
0.79388271
0.76843563
0.7462688
0.72727825
0.71165076
0.69994663
0.69348512
0.70470764
0.7211608
0.73995058
0.7585644
0.7759769
0.7917979
0.80578948
0.81778345
0.82752151
0.83461265
0.83872656
0.8398105
0.83812531
0.83402253
0.82752435
0.81713232
0.79858956
1.1565194
1.1526324
1.1474528
1.1412925
1.1343859
1.1269227
1.1190764
1.1110259
1.1029886
1.0952507
1.0882428
1.0826354
1.0793969
1.0795029
1.0809348
1.0807391
1.0783666
1.074387
1.0689092
1.0619409
1.0533943
1.0429171
1.0301122
1.0149131
0.99761651
0.97849376
0.95765111
0.93589196
0.913953
0.8891779
1.1585734
1.158444
1.1582099
1.1578548
1.157368
1.1567432
1.1559791
1.1550808
1.1540628
1.152957
1.1518274
1.1507924
1.1499575
1.1480681
1.1395815
1.1234503
1.1068876
1.093207
1.0797782
1.0654429
1.0493158
1.0301127
1.0075706
0.9829944
0.95820082
0.93456997
0.91251181
0.89296203
0.87382426
0.85188183
1.1586179
1.1586137
1.1586038
1.158585
1.1585537
1.1585058
1.158437
1.1583429
1.1582191
1.1580619
1.1578665
1.1576036
1.1567985
1.149629
1.1180052
1.0695544
1.0408657
1.035419
1.013229
0.98370112
0.95654826
0.93477817
0.91739763
0.9031378
0.89104777
0.8808093
0.87211441
0.86410629
0.85003483
0.82395159
1.0683375
0.99725023
0.94128501
0.89552974
0.85693151
0.82375123
0.7950211
0.77021146
0.74914446
0.73190187
0.71880206
0.71032651
0.70729811
0.72058191
0.73863526
0.75895822
0.77793124
0.7929645
0.80338324
0.80993617
0.81379463
0.81581622
0.81643723
0.81579811
0.81394454
0.81085129
0.8063214
0.7996864
0.78919054
0.77227565
1.1565193
1.1526447
1.1474879
1.1413574
1.1344898
1.1270843
1.1193401
1.1114733
1.1037367
1.0964481
1.0900234
1.0849774
1.0819179
1.0816453
1.0831639
1.0839852
1.0815872
1.0755812
1.0672185
1.0579207
1.0483581
1.0385283
1.0282271
1.0171916
1.0051767
0.99198938
0.97759649
0.96223748
0.94582593
0.92422051
1.1585734
1.1584445
1.1582117
1.1578584
1.1573735
1.1567507
1.1559892
1.1550958
1.1540861
1.1529916
1.1518661
1.1506974
1.1495275
1.1480794
1.1438566
1.1336017
1.1145715
1.0896451
1.0638152
1.0411031
1.0219631
1.0038811
0.98657333
0.96982111
0.95403253
0.93824667
0.9219336
0.90528937
0.88825942
0.8705876
1.1586179
1.1586137
1.1586038
1.1585851
1.1585539
1.1585059
1.1584366
1.1583415
1.1582158
1.1580544
1.1578492
1.1575598
1.1569172
1.1537008
1.1406205
1.1128674
1.0765783
1.0348738
0.99499549
0.96059696
0.9333366
0.91338563
0.89794142
0.88542843
0.87490714
0.86662526
0.85990049
0.85406025
0.84835906
0.84171151
1.0683122
0.99650076
0.93935385
0.89208445
0.85164188
0.81624561
0.78492325
0.75734132
0.73343694
0.71276698
0.69510435
0.68042523
0.66911567
0.66977372
0.67376854
0.68108155
0.69085583
0.70174267
0.71243063
0.72197656
0.72986839
0.73591844
0.74012994
0.74259262
0.74342253
0.74270099
0.74039232
0.73621628
0.72942203
0.71892178
1.1565163
1.1525677
1.1472088
1.1407104
1.1332729
1.1250574
1.1162085
1.1059611
1.0921891
1.0742004
1.0495537
1.0178102
0.97981293
0.9421386
0.90838488
0.88074448
0.85952853
0.84427071
0.83433505
0.82894857
0.82697366
0.82704311
0.82788067
0.82845967
0.82799776
0.82581498
0.82112957
0.81277063
0.79862527
0.77692074
1.1585732
1.1584408
1.1581952
1.1578125
1.1572725
1.1565585
1.1556572
1.1545363
1.1531112
1.1512833
1.1487516
1.1403158
1.1188569
1.0843614
1.0421793
0.99808291
0.95769905
0.92337117
0.89590346
0.87522125
0.86059549
0.85082489
0.84454285
0.8404665
0.83751388
0.8347851
0.83146477
0.82660644
0.81860113
0.80515644
1.1586179
1.1586135
1.158603
1.1585823
1.1585464
1.1584893
1.1584038
1.1582808
1.158107
1.1578621
1.1574957
1.1566739
1.1540262
1.1390337
1.1033271
1.0585756
1.0157647
0.9773014
0.94420494
0.91698939
0.89561969
0.87949312
0.86763231
0.85896805
0.85252444
0.84748148
0.8431252
0.83871992
0.83318129
0.8248227
)
;

boundaryField
{
    maxY
    {
        type            calculated;
        value           nonuniform List<scalar> 
300
(
1.1586174
1.1586174
1.1586174
1.1586174
1.1586174
1.1586174
1.1586174
1.1586174
1.1586174
1.1586174
1.158613
1.1586132
1.1586132
1.1586131
1.1586131
1.1586131
1.1586131
1.1586132
1.1586132
1.158613
1.1586025
1.1586033
1.1586032
1.1586032
1.1586031
1.1586031
1.1586032
1.1586032
1.1586033
1.1586025
1.1585818
1.1585847
1.1585845
1.1585843
1.1585841
1.1585841
1.1585842
1.1585845
1.1585846
1.1585817
1.158546
1.1585535
1.1585532
1.1585526
1.1585522
1.1585522
1.1585526
1.1585531
1.1585534
1.1585459
1.158489
1.1585055
1.1585054
1.1585039
1.1585031
1.1585031
1.1585039
1.1585052
1.1585053
1.1584888
1.1584037
1.1584364
1.1584366
1.1584336
1.1584319
1.158432
1.1584336
1.1584364
1.1584361
1.1584033
1.1582809
1.1583414
1.1583425
1.1583366
1.1583333
1.1583335
1.1583366
1.1583423
1.158341
1.1582802
1.1581075
1.1582157
1.1582187
1.1582077
1.1582014
1.1582018
1.1582078
1.1582186
1.1582153
1.1581064
1.1578638
1.1580544
1.1580611
1.1580409
1.1580286
1.1580303
1.1580416
1.1580614
1.1580539
1.1578616
1.1575033
1.1578499
1.1578639
1.1578221
1.1577864
1.1577997
1.157828
1.157866
1.1578487
1.1574951
1.1567412
1.1575653
1.1575712
1.1573648
1.1570033
1.1572365
1.1574643
1.1576031
1.1575593
1.1566734
1.1544398
1.1569117
1.15626
1.1534366
1.1471165
1.1511844
1.1551575
1.156798
1.1569167
1.1540257
1.1426255
1.1532839
1.1433189
1.1090777
1.0290841
1.0685087
1.1285245
1.1496285
1.1537002
1.1390332
1.1101285
1.1386044
1.1020525
1.028574
0.97875445
0.98290808
1.0523658
1.1180047
1.14062
1.1033266
1.0660934
1.1112752
1.0581824
0.99502353
0.96830182
0.96735707
0.99546729
1.069554
1.1128669
1.0585751
1.0225116
1.0772792
1.0348022
0.99285048
0.96277583
0.96035954
0.99023641
1.0408652
1.0765778
1.0157643
0.982547
1.0357151
1.0335697
0.99341986
0.95720944
0.95468616
0.99181425
1.0354186
1.0348734
0.97730102
0.94777812
0.99462457
1.0085801
0.98830755
0.95001925
0.94770002
0.99387935
1.0132286
0.99499511
0.94420459
0.91908705
0.95914307
0.97749855
0.9706263
0.94081032
0.94159908
0.97919528
0.98370074
0.9605966
0.91698906
0.89657786
0.93179898
0.95052878
0.95089229
0.93061396
0.93230084
0.95947912
0.9565479
0.93333626
0.89561937
0.87961995
0.91168924
0.92937564
0.93290647
0.91993626
0.92116758
0.93983273
0.93477783
0.9133853
0.87949282
0.86715761
0.89604679
0.91249967
0.91691705
0.91004531
0.91002569
0.92312446
0.9173973
0.8979411
0.86763201
0.8580525
0.88332341
0.89853832
0.90220507
0.9019371
0.89974419
0.90905444
0.90313748
0.88542813
0.85896776
0.85127733
0.87253374
0.88656281
0.88747802
0.89566322
0.89048485
0.89567095
0.89104745
0.87490684
0.85252415
0.8459732
0.86422239
0.87652776
0.87154514
0.88421493
0.88163252
0.87958548
0.88080899
0.86662497
0.8474812
0.84139174
0.8575131
0.86806041
0.85353558
0.86610088
0.87381177
0.86428095
0.87211411
0.8599002
0.84312492
0.8367666
0.85167564
0.85969588
0.83281624
0.83930575
0.85084428
0.84623241
0.864106
0.85405997
0.83871965
0.83097371
0.84587566
0.8403753
0.81016929
0.80408018
0.82161944
0.82487116
0.85003454
0.84835878
0.83318102
0.82232258
0.83644881
0.8064592
0.787843
0.76381778
0.78676527
0.79939687
0.82395133
0.84171123
0.82482243
)
;
    }
    minX
    {
        type            calculated;
        value           nonuniform List<scalar> 
40
(
1.1586221
1.1586211
1.1586201
1.158619
1.1586221
1.1586211
1.1586201
1.158619
1.1586221
1.1586211
1.1586201
1.158619
1.1586221
1.1586211
1.1586201
1.158619
1.1586221
1.1586211
1.1586201
1.158619
1.1586221
1.1586211
1.1586201
1.158619
1.1586221
1.1586211
1.1586201
1.158619
1.1586221
1.1586211
1.1586201
1.158619
1.1586221
1.1586211
1.1586201
1.158619
1.1586221
1.1586211
1.1586201
1.158619
)
;
    }
    maxX
    {
        type            calculated;
        value           nonuniform List<scalar> 
40
(
0.71609481
0.77311841
0.80182853
0.82222645
0.7698421
0.91664019
0.8638897
0.83672318
0.79466522
0.87939188
0.83831925
0.80701855
0.69885858
0.82174909
0.80849847
1.1586179
0.64265213
0.6973539
0.74553972
0.76404639
0.64868832
0.72799583
0.77779381
0.78675779
0.70696506
0.83256772
0.82493848
0.79971148
0.79843528
0.88933562
0.85210215
0.82438573
0.77212865
0.92416924
0.87052849
0.84171415
0.7187973
0.77671565
0.80498425
0.82471177
)
;
    }
    minZ
    {
        type            calculated;
        value           nonuniform List<scalar> 
120
(
1.0684428
1.1565196
1.1585733
1.1586179
0.99672567
1.1525775
1.1584411
1.1586135
0.9396538
1.1472281
1.1581959
1.158603
0.89245004
1.1407425
1.157814
1.1585823
0.85206937
1.1333208
1.1572753
1.1585465
0.81673078
1.1251239
1.1565629
1.1584895
0.78545319
1.1162966
1.1556637
1.1584042
0.75789571
1.1061713
1.1545483
1.1582814
0.73400987
1.0925492
1.1531322
1.1581081
0.7133512
1.0748071
1.1513199
1.1578643
0.69569352
1.0506743
1.148843
1.1575038
0.68101877
1.0196418
1.1412474
1.1567417
0.66972804
0.98255033
1.1219647
1.1544403
0.67037967
0.94551054
1.0894157
1.142626
0.67436768
0.91178686
1.0484233
1.110129
0.6816273
0.88359977
1.0047641
1.0660939
0.69127954
0.86151012
0.96373634
1.0225121
0.70198219
0.84530804
0.92814242
0.98254738
0.71244231
0.8345256
0.8992328
0.94777847
0.72173898
0.82845004
0.87721974
0.91908738
0.72937421
0.82590576
0.86148507
0.89657818
0.7351758
0.82549349
0.85083584
0.87962025
0.73916256
0.82592547
0.84387409
0.8671579
0.74143239
0.82616705
0.83927542
0.85805279
0.74209194
0.82540687
0.83591108
0.85127761
0.74119341
0.82292151
0.83283138
0.84597348
0.73867563
0.81791548
0.82918497
0.84139202
0.73425707
0.80925615
0.82400944
0.83676687
0.72718254
0.79488556
0.81568175
0.83097398
0.71625132
0.77335785
0.80201175
0.82232285
)
;
    }
    maxZ
    {
        type            calculated;
        value           nonuniform List<scalar> 
120
(
1.0683122
1.1565163
1.1585732
1.1586179
0.99650076
1.1525677
1.1584408
1.1586135
0.93935385
1.1472088
1.1581952
1.158603
0.89208445
1.1407104
1.1578125
1.1585823
0.85164188
1.1332729
1.1572725
1.1585464
0.81624561
1.1250574
1.1565585
1.1584893
0.78492325
1.1162085
1.1556572
1.1584038
0.75734132
1.1059611
1.1545363
1.1582808
0.73343694
1.0921891
1.1531112
1.158107
0.71276698
1.0742004
1.1512833
1.1578621
0.69510435
1.0495537
1.1487516
1.1574957
0.68042523
1.0178102
1.1403158
1.1566739
0.66911567
0.97981293
1.1188569
1.1540262
0.66977372
0.9421386
1.0843614
1.1390337
0.67376854
0.90838488
1.0421793
1.1033271
0.68108155
0.88074448
0.99808291
1.0585756
0.69085583
0.85952853
0.95769905
1.0157647
0.70174267
0.84427071
0.92337117
0.9773014
0.71243063
0.83433505
0.89590346
0.94420494
0.72197656
0.82894857
0.87522125
0.91698939
0.72986839
0.82697366
0.86059549
0.89561969
0.73591844
0.82704311
0.85082489
0.87949312
0.74012994
0.82788067
0.84454285
0.86763231
0.74259262
0.82845967
0.8404665
0.85896805
0.74342253
0.82799776
0.83751388
0.85252444
0.74270099
0.82581498
0.8347851
0.84748148
0.74039232
0.82112957
0.83146477
0.8431252
0.73621628
0.81277063
0.82660644
0.83871992
0.72942203
0.79862527
0.81860113
0.83318129
0.71892178
0.77692074
0.80515644
0.8248227
)
;
    }
    topAir_to_rightSolid
    {
        type            calculated;
        value           nonuniform List<scalar> 
130
(
0.46212411
0.45722014
0.45222255
0.44737996
0.44286214
0.43877185
0.43516681
0.43208465
0.429533
0.42750967
0.42600225
0.42500259
0.42450411
0.46574205
0.4599561
0.45421147
0.44878583
0.44383824
0.43944357
0.43562422
0.4323982
0.42975163
0.42766399
0.42611435
0.42509047
0.42458178
0.47314028
0.46526366
0.45787599
0.45126081
0.44549123
0.44054669
0.436367
0.43290013
0.43009525
0.42790275
0.42628517
0.42522203
0.42469625
0.48464397
0.47263843
0.46251374
0.45416919
0.44731765
0.44170498
0.43711802
0.43339398
0.43042451
0.42812845
0.42644353
0.42534304
0.42479972
0.49898841
0.479855
0.46639092
0.45635876
0.44860569
0.44248612
0.43760514
0.43371262
0.43064212
0.42828071
0.42655932
0.42543904
0.42488749
0.49895918
0.47982333
0.46636131
0.45633743
0.44859605
0.44248666
0.43761543
0.43373377
0.43067486
0.42832403
0.42661428
0.42550097
0.42495608
0.4845451
0.47256493
0.46246077
0.45413375
0.44730855
0.44172166
0.43716166
0.4334709
0.43053289
0.42826151
0.42660077
0.4255154
0.42498088
0.47302272
0.46519124
0.45783479
0.45124546
0.44550554
0.44059637
0.43646328
0.43304324
0.43027977
0.42812085
0.42652972
0.42548219
0.42496188
0.46563277
0.45990342
0.45419474
0.44880012
0.44388771
0.43953531
0.43577222
0.43259746
0.42999479
0.42794034
0.42641535
0.4254059
0.42490196
0.46204574
0.45720289
0.4522471
0.44743745
0.44295366
0.43890425
0.43534904
0.43231485
0.42980669
0.42781469
0.42632992
0.42534417
0.42485181
)
;
    }
    topAir_to_heater
    {
        type            calculated;
        value           nonuniform List<scalar> 
40
(
0.47438568
0.47301746
0.47035308
0.46661811
0.48050798
0.47885701
0.4756521
0.47114536
0.49382766
0.49160109
0.48718625
0.48082384
0.51717897
0.51414155
0.50772335
0.49769698
0.55587993
0.55267389
0.54448083
0.52867475
0.55586874
0.55265674
0.54445605
0.5286475
0.51713507
0.51406677
0.50762195
0.49759601
0.49360073
0.49137469
0.48697286
0.48064585
0.48016825
0.47856825
0.47541071
0.47096125
0.47402646
0.47273284
0.47013398
0.46646638
)
;
    }
    topAir_to_leftSolid
    {
        type            calculated;
        value           nonuniform List<scalar> 
130
(
0.37668063
0.37670603
0.37674942
0.37680412
0.37687067
0.3769503
0.37704416
0.3771547
0.37726709
0.37737652
0.37747942
0.37757144
0.37763515
0.37662694
0.37665336
0.37670579
0.37677138
0.37684975
0.37694191
0.37704669
0.37716267
0.37728045
0.37739243
0.37749643
0.37759093
0.37766495
0.37654616
0.3765705
0.37662497
0.37670062
0.3767872
0.37689002
0.37700474
0.37712938
0.37725578
0.37737353
0.37748565
0.37759605
0.3776667
0.37646485
0.37648435
0.3765282
0.37659541
0.37668742
0.37680707
0.37692843
0.3770543
0.37718841
0.37731411
0.37742826
0.37753005
0.37760423
0.3764089
0.37642386
0.37646168
0.37652147
0.37660462
0.37671369
0.37684002
0.37697378
0.37711076
0.37724486
0.37736394
0.37746253
0.37753991
0.37636996
0.37638203
0.3764141
0.37646782
0.37654386
0.37664234
0.37675998
0.37689234
0.37702804
0.37716451
0.37728687
0.3773785
0.3774479
0.37634056
0.37635155
0.37638097
0.3764314
0.37650545
0.37659788
0.37670025
0.37681699
0.37693913
0.37706465
0.37717793
0.37726558
0.37734353
0.37631387
0.37632558
0.37635588
0.3764051
0.37646877
0.3765466
0.37663637
0.37673724
0.37684619
0.37694658
0.37703394
0.37710648
0.37716859
0.37628983
0.37630233
0.37633085
0.37637196
0.37642474
0.3764908
0.37656624
0.37665083
0.37674156
0.3768304
0.37690499
0.37696207
0.37699697
0.37627669
0.37628929
0.3763142
0.37635062
0.37639512
0.37645225
0.37651922
0.37659613
0.37667996
0.37675962
0.37682904
0.37687998
0.37690827
)
;
    }
}


// ************************************************************************* //
