/*--------------------------------*- C++ -*----------------------------------*\
| =========                 |                                                 |
| \\      /  F ield         | OpenFOAM: The Open Source CFD Toolbox           |
|  \\    /   O peration     | Version:  v2012                                 |
|   \\  /    A nd           | Website:  www.openfoam.com                      |
|    \\/     M anipulation  |                                                 |
\*---------------------------------------------------------------------------*/
FoamFile
{
    version     2.0;
    format      ascii;
    class       volScalarField;
    location    "650/topAir";
    object      T;
}
// * * * * * * * * * * * * * * * * * * * * * * * * * * * * * * * * * * * * * //

dimensions      [0 0 0 1 0 0 0];


internalField   nonuniform List<scalar> 
1200
(
325.32079
348.72849
369.90924
389.4746
407.93229
425.58284
442.53
458.6206
473.54483
487.2587
499.626
510.39203
518.99656
518.49206
515.42584
509.93632
502.81615
495.15003
487.88021
481.59585
476.55441
472.79371
470.24364
468.80402
468.38736
468.95516
470.5536
473.38526
477.99068
485.28564
300.54514
301.57307
302.97927
304.70185
306.69721
308.93161
311.37454
314.2247
318.14251
323.39414
330.82213
340.89061
353.7593
367.61759
381.21442
393.37526
403.46163
411.1948
416.50762
419.56213
420.85463
421.06481
420.84458
420.72152
421.10899
422.38081
424.96597
429.51326
437.27835
449.45074
300.01212
300.04635
300.10986
300.20886
300.34862
300.53362
300.76745
301.05803
301.42773
301.90221
302.55312
304.56677
309.8012
319.05728
331.53212
345.93794
360.66504
374.49641
386.53617
396.23596
403.47305
408.523
411.89321
414.15011
415.81696
417.3546
419.18995
421.82285
426.12945
433.39268
300.00029
300.00142
300.00415
300.0095
300.01877
300.03353
300.05564
300.08744
300.13236
300.19555
300.28904
300.48689
301.08592
304.19901
313.10391
326.0367
339.93314
353.75978
366.73734
378.18576
387.68038
395.15436
400.83332
405.08671
408.31073
410.87078
413.10802
415.39144
418.28722
422.68776
325.31974
348.47986
369.17037
388.00278
405.44742
421.74376
436.94732
450.98436
463.62941
474.51675
483.12296
488.80199
490.69011
481.34776
469.29177
456.62128
445.57998
437.37452
432.015
428.8255
427.06247
426.21503
426.03026
426.43294
427.4323
429.1067
431.6049
435.27696
441.13393
451.35266
300.54451
301.55341
302.90651
304.53072
306.37063
308.37928
310.50775
312.69953
314.88509
316.96987
318.82374
320.27612
321.12131
321.12308
320.65211
320.49344
321.33164
323.26102
325.91704
328.88764
332.01055
335.30012
338.84219
342.75533
347.15306
352.12021
357.67494
363.75743
370.49948
379.17517
300.01207
300.0454
300.10563
300.19704
300.32256
300.48394
300.68144
300.91348
301.1761
301.46114
301.75398
302.05273
302.35242
302.74779
304.00971
307.01782
312.35267
319.54232
327.34549
334.46897
340.99798
347.45618
353.86547
360.18399
366.25677
372.60817
379.44836
386.61737
394.13207
402.39538
300.00029
300.00138
300.00393
300.00876
300.01684
300.02926
300.04716
300.07177
300.10432
300.14614
300.19914
300.27296
300.44259
301.38766
305.27332
312.7808
322.65131
335.5996
349.4641
362.3918
373.02638
381.25448
387.91012
393.49758
398.36354
402.19466
405.34149
408.11975
410.91814
415.54923
325.32441
348.5342
369.29264
388.20905
405.76217
422.2055
437.64671
452.10555
465.49248
477.58356
487.95103
495.86124
500.03631
491.80724
481.03836
469.88758
459.53061
450.15733
441.75715
434.3391
427.91374
422.59331
418.60118
416.15738
415.35458
416.10578
418.24089
421.72173
427.45947
437.20112
300.5447
301.55726
302.91707
304.55017
306.40189
308.42794
310.58634
312.83118
315.10155
317.31098
319.31897
320.89877
321.74218
321.70942
321.57835
321.95319
322.83625
324.09265
325.75438
327.86807
330.52355
333.90043
338.19435
343.51365
349.85839
357.17623
365.40856
374.33482
383.96246
395.38952
300.01208
300.04556
300.10615
300.19806
300.32416
300.48613
300.68442
300.9178
301.18239
301.46937
301.76031
302.02105
302.2473
303.09065
306.03841
310.43746
314.60453
318.16526
321.92974
326.13612
331.14439
337.46311
345.30975
354.50402
364.59848
374.78163
384.24265
392.83191
402.68572
414.91899
300.00029
300.00139
300.00395
300.00881
300.01691
300.0293
300.04711
300.07148
300.10356
300.14439
300.19552
300.27141
300.61194
304.01453
315.39835
328.47415
335.89565
336.29622
344.62863
355.5868
365.67603
373.99905
380.91587
386.83449
392.05979
396.54834
400.41642
404.31233
413.60764
431.00215
325.33222
348.56549
369.37168
388.36749
406.05031
422.7082
438.50037
453.50901
467.75545
481.14997
493.3895
503.75453
510.95921
506.75457
503.74235
503.23665
504.44409
506.06684
507.12116
506.95027
505.14779
501.74738
497.06699
491.54615
485.77296
480.73212
478.1103
479.88789
486.64141
497.28576
300.54491
301.55912
302.92374
304.56641
306.43511
308.4903
310.69781
313.02269
315.41945
317.81196
320.05055
321.85263
322.88402
323.61533
324.92385
326.64838
328.56391
330.54194
332.59001
334.83606
337.51324
340.84737
344.94085
349.77595
355.3785
361.89169
369.43417
378.18975
393.12497
422.80019
300.01209
300.04564
300.1065
300.19907
300.32649
300.49089
300.69344
300.9339
301.20956
301.51206
301.81941
302.08874
302.44523
305.10899
309.83062
313.31247
315.64919
317.74648
320.51693
324.60682
330.4146
338.1095
347.44457
357.99218
369.60557
381.78389
393.1144
403.44373
414.40706
429.95239
300.00029
300.00139
300.00397
300.00887
300.01707
300.02967
300.04788
300.073
300.10641
300.14964
300.20635
300.32499
301.34778
313.40055
337.92956
349.32398
350.08854
349.88789
351.69779
358.10444
365.53625
372.58355
379.08077
385.26233
391.65548
398.81541
407.2304
417.36173
429.02834
441.18617
325.33681
348.57959
369.40111
388.41785
406.1285
422.82307
438.66136
453.72566
468.01495
481.38753
493.40023
503.08445
509.32358
504.58502
502.91587
504.32553
506.45247
509.70037
513.5701
517.67109
521.63092
525.08521
527.71293
529.29356
529.79038
529.47403
529.06544
529.7558
533.10427
540.83332
300.54502
301.55998
302.9266
304.57302
306.44764
308.51155
310.73116
313.07108
315.4821
317.87265
320.05052
321.66202
322.50642
323.90169
325.79018
327.96384
332.09698
337.99913
345.48246
354.51622
365.12993
377.36149
391.06021
405.73643
420.73691
435.52203
449.93626
464.32932
479.63487
498.44876
300.01209
300.04568
300.10667
300.19956
300.32759
300.49305
300.69728
300.94016
301.21876
301.52284
301.82387
302.07884
302.78344
307.83226
311.54337
313.85388
315.37114
317.37115
320.17666
324.2197
330.49924
339.08612
349.41523
360.95165
374.2027
388.79981
404.67561
422.10173
441.96174
466.21613
300.00029
300.00139
300.00398
300.0089
300.01716
300.02988
300.04832
300.07386
300.10804
300.15281
300.21562
300.41881
303.00808
337.76207
355.13053
358.96409
361.02442
363.12386
365.87216
369.45343
373.50139
377.83663
381.94321
385.37679
388.07626
393.10085
401.32236
414.13473
432.27739
455.06365
325.34059
348.58702
369.41229
388.43306
406.1484
422.84927
438.69636
453.77555
468.09667
481.54559
493.74836
503.83991
510.46768
504.92594
501.89163
502.09843
504.3105
507.57768
511.38335
515.30614
518.95143
521.96575
524.0798
525.14922
525.20704
524.57884
524.01943
524.70376
528.09249
535.72804
300.5451
301.56021
302.92707
304.5738
306.44884
308.51344
310.73439
313.07741
315.49658
317.9093
320.14427
321.87255
322.77585
323.85539
325.54976
327.57359
330.33391
334.48074
339.45116
344.54045
349.64832
355.51645
363.30772
373.67157
386.17891
400.36341
415.8511
432.79576
452.42084
477.09051
300.01209
300.04569
300.10669
300.1996
300.32765
300.49315
300.69744
300.94054
301.21987
301.52647
301.83524
302.09872
302.57595
307.10128
311.69585
314.6913
316.29485
317.88667
319.83112
323.45176
329.72251
339.22804
351.07528
362.47488
372.13243
380.6936
390.92427
404.38276
422.39077
446.60845
300.00029
300.00139
300.00398
300.0089
300.01716
300.02988
300.04831
300.07382
300.10793
300.1524
300.21216
300.35827
301.93735
325.2997
353.6298
359.31467
361.93277
364.08361
366.76753
369.14395
372.82559
377.33158
381.95144
386.31606
390.33301
394.25229
397.78092
408.51854
423.04949
441.79087
325.34429
348.5892
369.4071
388.41523
406.11142
422.78516
438.59679
453.63177
467.9197
481.39248
493.80407
504.54247
512.31071
507.82981
503.54336
501.46704
501.33562
501.86025
501.81684
500.41571
497.383
492.98486
487.78974
482.31611
476.97185
472.46006
470.2408
472.41276
480.7007
491.5328
300.54517
301.55988
302.92523
304.56888
306.43883
308.49573
310.70576
313.0352
315.44148
317.85621
320.14795
322.06357
323.23652
323.72705
324.67697
326.19733
327.97909
329.81154
331.64001
333.598
335.93975
338.99083
343.00265
348.02531
354.02547
361.1168
369.0609
377.7307
389.96564
417.3794
300.01209
300.04566
300.10656
300.19919
300.32668
300.49121
300.69394
300.93478
301.21136
301.51645
301.83118
302.11513
302.39802
304.06335
308.93739
313.34214
316.40402
318.73417
321.49567
325.50521
331.32132
339.31179
349.20455
359.91702
370.74914
381.72622
390.99182
399.00858
408.02649
421.29762
300.00029
300.00139
300.00397
300.00888
300.01708
300.02969
300.0479
300.07301
300.10638
300.14945
300.20482
300.29915
300.89884
308.00001
330.2897
349.16826
351.01272
350.45431
349.72613
354.97066
362.26489
369.83774
376.5317
382.35953
388.07291
395.16983
402.16743
410.74492
421.38178
434.80992
325.34717
348.57923
369.3607
388.30193
405.88202
422.35535
437.83118
452.33013
465.76593
477.92792
488.42296
496.59011
501.21705
493.23512
481.98204
469.74292
458.21626
447.93413
438.98391
431.36147
425.03492
420.03322
416.46447
414.42173
413.88683
414.71901
416.75912
420.03173
425.37355
435.25046
300.54519
301.55871
302.91995
304.55501
306.40924
308.4385
310.60108
312.85168
315.13139
317.35777
319.40146
321.05576
322.01901
321.98737
321.56084
321.61906
322.32665
323.52055
325.17849
327.31226
329.96789
333.28274
337.42565
342.47885
348.41671
355.22583
362.95708
371.3957
380.31084
390.9074
300.01209
300.0456
300.10626
300.19828
300.32454
300.48676
300.68538
300.91923
301.18467
301.47353
301.7692
302.04059
302.25989
302.75731
305.01197
309.39152
314.02106
317.95075
321.90498
326.23616
331.25014
337.42522
344.97434
353.59916
362.74859
371.92078
380.91123
389.2506
397.77564
408.02138
300.00029
300.00139
300.00396
300.00882
300.01693
300.02933
300.04715
300.07153
300.10358
300.14433
300.19497
300.26315
300.47213
302.34598
310.89813
324.98178
333.93907
335.69571
343.04755
353.34484
363.375
371.83766
378.88231
384.86457
390.08655
394.6209
398.55524
402.24887
408.9077
421.8522
325.35283
348.54505
369.2682
388.13521
405.61773
421.9558
437.20424
451.28722
463.97805
474.90872
483.56369
489.33351
491.42866
482.36925
470.57942
457.9785
446.80882
438.33808
432.65345
429.15299
427.11823
426.05983
425.73574
426.06927
427.03954
428.66861
431.07685
434.65349
440.43417
450.08084
300.54522
301.55551
302.91068
304.53768
306.38119
308.39427
310.52789
312.72575
314.9178
317.01121
318.8797
320.36273
321.26866
321.34963
320.89909
320.65595
321.36686
323.16136
325.69363
328.55606
331.553
334.69117
338.04424
341.71169
345.79617
350.39312
355.55185
361.22708
367.49492
376.0858
300.01209
300.04546
300.10579
300.19736
300.32312
300.48483
300.68277
300.91533
301.17859
301.46449
301.75906
302.06554
302.37295
302.75433
303.872
306.62092
311.85615
318.99007
326.73529
333.86316
340.11598
346.2422
352.31641
358.40216
364.33347
370.46333
377.01846
383.95015
391.31134
399.25446
300.00029
300.00138
300.00393
300.00878
300.01687
300.02931
300.04724
300.07187
300.10444
300.14627
300.19945
300.27452
300.4413
301.27891
304.73388
312.33345
322.86152
335.87256
349.33396
361.84345
372.41197
380.54653
387.09178
392.56221
397.28302
401.07965
404.21626
406.98038
409.7154
412.9512
325.36054
348.8072
370.02736
389.63421
408.13706
425.8358
442.82877
458.95632
473.91475
487.65807
500.04947
510.83725
519.47154
518.96115
515.88418
510.34494
503.12453
495.31904
487.88821
481.43738
476.23175
472.3166
469.62902
468.07157
467.54904
468.00326
469.46257
472.1255
476.52314
483.48304
300.54599
301.57563
302.98437
304.7104
306.7102
308.94988
311.39912
314.28442
318.24739
323.57679
331.17535
341.50408
354.74763
368.9333
382.6421
394.65054
404.39179
411.70002
416.60274
419.30981
420.31117
420.27587
419.85068
419.55725
419.7913
420.90088
423.30256
427.65602
435.23072
447.38959
300.01213
300.04642
300.11006
300.20926
300.34932
300.53475
300.76915
301.06115
301.43324
301.91181
302.5772
304.81557
310.66172
320.54445
333.51846
348.25364
362.93866
376.43151
387.97261
397.14073
403.89011
408.52826
411.56705
413.56319
415.02119
416.37783
418.04058
420.49759
424.60974
431.69998
300.00029
300.00142
300.00416
300.00952
300.01881
300.0336
300.05574
300.08761
300.13265
300.19612
300.29116
300.5045
301.19394
305.15841
315.03415
328.3523
342.19119
355.6587
368.12533
379.05102
388.09528
395.21148
400.61416
404.65508
407.71358
410.13969
412.25882
414.42416
417.17907
421.40668
)
;

boundaryField
{
    maxY
    {
        type            zeroGradient;
    }
    minX
    {
        type            fixedValue;
        value           uniform 300;
    }
    maxX
    {
        type            inletOutlet;
        inletValue      uniform 300;
        value           nonuniform List<scalar> 
40
(
485.39173
449.58995
433.49172
422.73729
451.5036
379.19586
402.34994
415.4131
437.39988
395.25745
414.62247
430.70361
497.36315
422.98341
429.9155
300
540.86265
498.43604
466.22074
454.92769
535.82979
477.45644
446.88714
441.79522
491.66009
417.48703
421.34779
434.63902
435.33456
390.83804
407.91586
421.63003
450.16654
376.10661
399.28155
412.94989
483.56679
447.50774
431.79233
421.46335
)
;
    }
    minZ
    {
        type            zeroGradient;
    }
    maxZ
    {
        type            zeroGradient;
    }
    topAir_to_rightSolid
    {
        type            compressible::turbulentTemperatureCoupledBaffleMixed;
        refValue        nonuniform List<scalar> 
130
(
752.23251
760.3047
768.71071
777.03478
784.96441
792.28419
798.84939
804.54896
809.3291
813.1597
816.0367
817.955
818.91332
746.40649
755.79928
765.36102
774.61615
783.2528
791.08717
798.0241
803.97865
808.93013
812.87878
815.83426
817.7977
818.77438
734.72905
747.17269
759.23273
770.36668
780.34722
789.10837
796.6688
803.0502
808.28793
812.42944
815.51164
817.54906
818.55818
717.2678
735.49098
751.59491
765.4077
777.13498
787.01346
795.27553
802.1123
807.64869
811.98177
815.19
817.29737
818.33948
696.64262
724.42534
745.34196
761.72923
774.89565
785.6139
794.37789
801.50869
807.22479
811.67664
814.95264
817.098
818.15645
696.68413
724.47389
745.39006
761.76572
774.91332
785.61412
794.36055
801.47107
807.16498
811.59615
814.84925
816.98065
818.02599
717.41554
735.60709
751.68311
765.46993
777.15359
786.98667
795.19906
801.97275
807.44799
811.73197
814.89188
816.96816
817.99243
734.9124
747.28992
759.30202
770.39382
780.32298
789.02007
796.49361
802.78529
807.94174
812.01601
815.04457
817.04978
818.04712
746.58138
755.88568
765.3891
774.59147
783.16554
790.92212
797.75316
803.60841
808.47278
812.35395
815.25849
817.19148
818.15773
752.36008
760.33339
768.66903
776.93503
784.80234
792.04534
798.51519
804.12075
808.81396
812.5802
815.40981
817.29847
818.24358
)
;
        refGradient     uniform 0;
        valueFraction   uniform 0.99967867;
        value           nonuniform List<scalar> 
130
(
752.1499
760.21717
768.61845
776.93823
784.8641
792.18071
798.74334
804.44094
809.21973
813.04962
815.92661
817.84578
818.80615
746.30718
755.69524
765.25288
774.50447
783.13807
790.96987
797.9047
803.85766
808.8081
812.75628
815.712
817.67672
818.65636
734.6376
747.07455
759.12833
770.25664
780.23226
788.98931
796.54653
802.92564
808.16193
812.3028
815.38513
817.42375
818.43571
717.19993
735.41759
751.51629
765.32405
777.04647
786.92027
795.17791
802.01064
807.54365
811.87451
815.08229
817.19115
818.23635
696.58255
724.35759
745.2688
761.65208
774.81538
785.53103
794.2927
801.42137
807.13554
811.58583
814.861
817.00675
818.06735
696.62337
724.40542
745.31613
761.6877
774.83205
785.53009
794.27406
801.38231
807.07419
811.50376
814.75604
816.88785
817.93532
717.34628
735.53198
751.60238
765.3838
777.0623
786.89055
795.09854
801.86834
807.34037
811.62227
814.78187
816.86015
817.88757
734.8202
747.19086
759.19665
770.28285
780.20722
788.90036
796.37084
802.66032
807.81538
811.889
814.91765
816.92394
817.92414
746.48234
755.78182
765.28106
774.47982
783.0508
790.80478
797.63373
803.48741
808.35074
812.23144
815.13621
817.07044
818.03949
752.27749
760.24585
768.57674
776.83841
784.70194
791.94174
798.40901
804.01261
808.70446
812.46995
815.29952
817.18899
818.13604
)
;
        Tnbr            T;
        thicknessLayers List<scalar> 0();
        kappaLayers     List<scalar> 0();
        kappaMethod     fluidThermo;
        kappa           none;
        alphaAni        none;
        alpha           none;
        field           T;
    }
    topAir_to_heater
    {
        type            compressible::turbulentTemperatureCoupledBaffleMixed;
        refValue        nonuniform List<scalar> 
40
(
732.7778
734.89884
739.06445
744.98376
723.45112
725.94979
730.84628
737.84212
703.93042
707.12286
713.53572
722.98277
672.13509
676.10781
684.65678
698.45241
625.32968
628.95865
638.42485
657.51634
625.34216
628.97851
638.45465
657.55094
672.19181
676.20624
684.79414
698.59517
704.25367
707.44843
713.8485
723.25097
723.96275
726.38749
731.217
738.13022
733.33308
735.34125
739.40883
745.22605
)
;
        refGradient     uniform 0;
        valueFraction   uniform 0.99967867;
        value           nonuniform List<scalar> 
40
(
732.70894
734.82831
738.99083
744.90594
723.37333
725.86732
730.75816
737.74821
703.86226
707.05021
713.45743
722.89812
672.08194
676.05242
684.59848
698.39007
625.29088
628.91815
638.38176
657.4678
625.30347
628.93768
638.41083
657.50169
672.139
676.15077
684.73524
698.53179
704.18587
707.37599
713.77007
723.16582
723.88512
726.30529
731.1292
738.03661
733.2642
735.27074
739.33523
745.14826
)
;
        Tnbr            T;
        thicknessLayers List<scalar> 0();
        kappaLayers     List<scalar> 0();
        kappaMethod     fluidThermo;
        kappa           none;
        alphaAni        none;
        alpha           none;
        field           T;
    }
    topAir_to_leftSolid
    {
        type            compressible::turbulentTemperatureCoupledBaffleMixed;
        refValue        nonuniform List<scalar> 
130
(
922.95462
922.88479
922.77164
922.63134
922.46243
922.26184
922.02673
921.75125
921.4718
921.20012
920.94495
920.71697
920.55882
923.0862
923.01395
922.87877
922.71201
922.51445
922.28359
922.02236
921.73424
921.44236
921.16539
920.90876
920.67641
920.49531
923.28424
923.21705
923.07681
922.88529
922.66752
922.41045
922.12473
921.81525
921.50203
921.21055
920.93353
920.66167
920.48804
923.48369
923.42833
923.31405
923.14311
922.91186
922.61338
922.31117
921.99839
921.6659
921.3545
921.07184
920.82009
920.63683
923.62096
923.57674
923.4772
923.32438
923.11478
922.84208
922.52754
922.19528
921.85563
921.52357
921.22885
920.98506
920.79423
923.71654
923.67938
923.59394
923.45599
923.26375
923.01692
922.72355
922.39458
922.05791
921.71987
921.41694
921.18993
921.01837
923.7887
923.7542
923.67526
923.54535
923.35795
923.12591
922.86991
922.57909
922.27548
921.96406
921.68311
921.46547
921.27255
923.85422
923.81796
923.73685
923.60993
923.44801
923.25179
923.02671
922.77483
922.50367
922.25401
922.03689
921.85687
921.70351
923.91326
923.87506
923.79834
923.69131
923.55614
923.38878
923.19882
922.9869
922.76048
922.53938
922.35397
922.21241
922.12633
923.94552
923.90699
923.83895
923.74322
923.62801
923.4821
923.31232
923.11852
922.90821
922.7086
922.53457
922.40636
922.33432
)
;
        refGradient     uniform 0;
        valueFraction   uniform 0.99967867;
        value           nonuniform List<scalar> 
130
(
922.76259
922.7003
922.59399
922.46002
922.29709
922.10224
921.87265
921.60243
921.32787
921.06068
920.80957
920.58513
920.42979
922.89412
922.82934
922.70085
922.5402
922.3483
922.12276
921.8665
921.58298
921.29525
921.02187
920.76809
920.53763
920.35721
923.0921
923.03239
922.89886
922.71349
922.50143
922.24972
921.96906
921.66432
921.3555
921.068
920.7944
920.52517
920.35294
923.29149
923.24361
923.13606
922.97127
922.74578
922.45275
922.15571
921.84785
921.52005
921.21305
920.93442
920.68607
920.50519
923.42872
923.39198
923.29917
923.15251
922.94865
922.68141
922.37206
922.04475
921.7098
921.38215
921.09138
920.85078
920.66202
923.52426
923.49459
923.41587
923.28407
923.09759
922.8562
922.56802
922.244
921.91204
921.57843
921.27952
921.05583
920.88645
923.5964
923.56938
923.49716
923.3734
923.19175
922.96514
922.7143
922.42841
922.12949
921.8225
921.54562
921.33151
921.14114
923.66191
923.63312
923.55871
923.43792
923.28171
923.09084
922.87081
922.62366
922.35691
922.11124
921.89756
921.72022
921.5684
923.72092
923.6902
923.62015
923.51922
923.38971
923.22766
923.04266
922.83533
922.61306
922.39554
922.21298
922.07331
921.98794
923.75318
923.7222
923.661
923.5716
923.46237
923.32219
923.15793
922.96937
922.76393
922.56881
922.39882
922.27411
922.20487
)
;
        Tnbr            T;
        thicknessLayers List<scalar> 0();
        kappaLayers     List<scalar> 0();
        kappaMethod     fluidThermo;
        kappa           none;
        alphaAni        none;
        alpha           none;
        field           T;
    }
}


// ************************************************************************* //
