/*--------------------------------*- C++ -*----------------------------------*\
| =========                 |                                                 |
| \\      /  F ield         | OpenFOAM: The Open Source CFD Toolbox           |
|  \\    /   O peration     | Version:  v2012                                 |
|   \\  /    A nd           | Website:  www.openfoam.com                      |
|    \\/     M anipulation  |                                                 |
\*---------------------------------------------------------------------------*/
FoamFile
{
    version     2.0;
    format      ascii;
    class       volVectorField;
    location    "650/topAir";
    object      U;
}
// * * * * * * * * * * * * * * * * * * * * * * * * * * * * * * * * * * * * * //

dimensions      [0 1 -1 0 0 0 0];


internalField   nonuniform List<vector> 
1200
(
(0.10467131 -0.0024737846 0.00087568293)
(0.11854194 -0.0025468735 0.0013150749)
(0.13045322 -0.0023214768 0.0013942938)
(0.13975037 -0.00175767 0.0012530024)
(0.14787033 -0.00091904646 0.00090472229)
(0.1554616 2.0577493e-05 0.00030844756)
(0.16278802 0.00095787562 -0.00056782195)
(0.17011353 0.0018250265 -0.0018798858)
(0.1776344 0.0027206276 -0.0038984368)
(0.18565987 0.0038328562 -0.0069413816)
(0.19436199 0.0054865305 -0.011412496)
(0.20343526 0.008039824 -0.017720456)
(0.21139085 0.011869126 -0.026113025)
(0.2166601 0.016380503 -0.036395451)
(0.21926001 0.021459462 -0.047727884)
(0.21969047 0.026416117 -0.058890948)
(0.21807397 0.030668596 -0.068738839)
(0.21458336 0.033911862 -0.076580744)
(0.2097585 0.036017805 -0.082237352)
(0.20447125 0.036971635 -0.08588245)
(0.19964331 0.036923888 -0.087844421)
(0.19593592 0.03614086 -0.088469306)
(0.19363464 0.034883695 -0.08805151)
(0.19271865 0.033362857 -0.086807107)
(0.19294395 0.031759585 -0.084858225)
(0.19381088 0.030315447 -0.082176749)
(0.1943372 0.029421345 -0.078521205)
(0.19263202 0.029875281 -0.073342555)
(0.18530968 0.033608147 -0.06569866)
(0.14594085 0.046608085 -0.053607012)
(0.098688619 -0.0039149803 0.00084564664)
(0.098466851 -0.0047266884 0.0012752086)
(0.098914074 -0.0047712453 0.0014540437)
(0.099831844 -0.0042974165 0.0015333289)
(0.10129782 -0.0034968664 0.0015398029)
(0.10334225 -0.0026207641 0.001458397)
(0.1059444 -0.0018364192 0.0012641279)
(0.10925806 -0.0012092339 0.00089997063)
(0.11378957 -0.00041624461 0.00024061303)
(0.12003871 0.00091778535 -0.00088682983)
(0.1289496 0.0036020403 -0.0027831963)
(0.14085726 0.0086177308 -0.0058123693)
(0.15553552 0.016759242 -0.010455109)
(0.171211 0.027054347 -0.016802874)
(0.18575684 0.03901232 -0.024403602)
(0.19732672 0.051410623 -0.032354541)
(0.2047036 0.063122188 -0.039785633)
(0.20757701 0.073144318 -0.046193241)
(0.20664323 0.080656991 -0.051398809)
(0.20333659 0.085206231 -0.055380964)
(0.19923975 0.08699818 -0.058156179)
(0.19547735 0.086701971 -0.059747412)
(0.19258144 0.085025502 -0.060238909)
(0.19068815 0.082497265 -0.059761038)
(0.18972347 0.079477276 -0.058396846)
(0.18939405 0.076381517 -0.056049752)
(0.18901369 0.073932796 -0.052334432)
(0.18729821 0.073632609 -0.046422526)
(0.18296667 0.078751223 -0.036410024)
(0.15679237 0.094191248 -0.017363375)
(0.098817467 -0.0029254476 0.0008727484)
(0.09796304 -0.0042323268 0.0013233816)
(0.096324021 -0.0046400362 0.0015233119)
(0.094272931 -0.0047290496 0.001642701)
(0.092275326 -0.004690295 0.0017338516)
(0.090511518 -0.0046116928 0.001808944)
(0.088967739 -0.0045982322 0.0018859814)
(0.087574985 -0.0046978817 0.0020069082)
(0.08638333 -0.0047349995 0.0022395609)
(0.085702615 -0.0046155091 0.0026179342)
(0.086067547 -0.0041000758 0.0030975027)
(0.089515309 -0.0018050405 0.0032936593)
(0.099121917 0.0049955941 0.002591115)
(0.11491408 0.017616029 0.00074741468)
(0.13373294 0.034457566 -0.0019889068)
(0.15195592 0.052666951 -0.0049144126)
(0.16659026 0.069561298 -0.007499431)
(0.17638164 0.083805743 -0.0095165737)
(0.18169894 0.094697424 -0.01117971)
(0.18391677 0.10194485 -0.012790396)
(0.1845686 0.10565134 -0.01448427)
(0.18460636 0.10629666 -0.015972322)
(0.18434568 0.10457539 -0.016901771)
(0.183796 0.1011441 -0.017160401)
(0.18291889 0.09651249 -0.016724546)
(0.18163904 0.091125553 -0.015458236)
(0.17972332 0.085719769 -0.013086675)
(0.17681251 0.081884583 -0.0090810688)
(0.1734674 0.083259279 -0.0026179522)
(0.15961174 0.096036817 0.0094431006)
(0.096860181 -0.0015574258 0.00083822632)
(0.094639526 -0.0023006276 0.0012506775)
(0.090920883 -0.0025267274 0.0014117857)
(0.086370764 -0.0025578621 0.0014902358)
(0.081808445 -0.002496487 0.0015421198)
(0.077477589 -0.002374181 0.0015835916)
(0.07334001 -0.0022314995 0.0016384869)
(0.06929777 -0.0021072059 0.0017518036)
(0.065224663 -0.0020378462 0.001996787)
(0.060919186 -0.0021920213 0.002477625)
(0.055988869 -0.0030642866 0.0034156346)
(0.050028239 -0.004774772 0.0052210549)
(0.042555518 -0.0057269715 0.008510824)
(0.037610406 -0.00044447594 0.01334928)
(0.043744718 0.014257256 0.019096455)
(0.05855973 0.031759538 0.025272327)
(0.074599258 0.047078829 0.03115428)
(0.088768606 0.059701993 0.03646311)
(0.10081235 0.069497795 0.040779557)
(0.11140117 0.076343008 0.043767618)
(0.1210178 0.080168856 0.045581087)
(0.12965875 0.081137595 0.046403865)
(0.13700194 0.079732229 0.046439139)
(0.14266986 0.076542693 0.045925785)
(0.1464235 0.072119878 0.045145231)
(0.14829012 0.066907218 0.044391657)
(0.14861299 0.061550389 0.043916487)
(0.14840846 0.057298535 0.043512392)
(0.15183306 0.056961445 0.042347784)
(0.17621575 0.066339943 0.041011131)
(0.10593549 -0.0024745193 0.0010011568)
(0.12066324 -0.0025574515 0.0013980529)
(0.1338255 -0.0024221254 0.0013956722)
(0.14445885 -0.0020449843 0.0011619698)
(0.15372062 -0.0014960762 0.00071506488)
(0.16219438 -0.0009573956 1.122285e-05)
(0.16990244 -0.0005753195 -0.0010101219)
(0.17676215 -0.0004215875 -0.002515338)
(0.18274615 -0.00056435647 -0.004757863)
(0.18783725 -0.0010831066 -0.0080258786)
(0.19197657 -0.0021103863 -0.012655058)
(0.19507645 -0.0038006979 -0.018893123)
(0.1965512 -0.0063150048 -0.026673484)
(0.1961423 -0.010348111 -0.035230797)
(0.19553496 -0.015040254 -0.043344656)
(0.19597183 -0.019397044 -0.050101312)
(0.19717287 -0.022414416 -0.055348515)
(0.1981295 -0.023753509 -0.059391141)
(0.1980813 -0.023885927 -0.06246946)
(0.19696476 -0.023598141 -0.064643744)
(0.1952831 -0.023379171 -0.065965376)
(0.19366043 -0.023303699 -0.066510504)
(0.19253307 -0.023314461 -0.066335804)
(0.19211075 -0.023373895 -0.065469017)
(0.19249615 -0.02344211 -0.063892684)
(0.19374073 -0.023356089 -0.06150291)
(0.19576929 -0.022712956 -0.057985419)
(0.19833382 -0.020480546 -0.052764139)
(0.20103633 -0.013284644 -0.045115873)
(0.19580449 0.0091787513 -0.035422365)
(0.099977875 -0.0039260979 0.0010513194)
(0.10069584 -0.0047731787 0.0015934539)
(0.10252368 -0.0049561509 0.0017871514)
(0.10499303 -0.0047403582 0.0018263631)
(0.10791862 -0.0043211561 0.0017521998)
(0.11124028 -0.0039511769 0.0015410883)
(0.11486731 -0.0038270999 0.0011478438)
(0.11871888 -0.0040655442 0.00049772925)
(0.12278636 -0.004791326 -0.00052757664)
(0.12705014 -0.0061947191 -0.0020777915)
(0.13153765 -0.0085331048 -0.0043003644)
(0.13635216 -0.012106528 -0.0073320749)
(0.14166303 -0.017259762 -0.011166042)
(0.14740321 -0.024612949 -0.015173801)
(0.15344064 -0.032483467 -0.01837681)
(0.1594068 -0.038559546 -0.020252008)
(0.16471204 -0.040946892 -0.021087532)
(0.16844767 -0.039467665 -0.021954732)
(0.17007378 -0.035646387 -0.023488017)
(0.16989142 -0.031485935 -0.025625418)
(0.16880548 -0.028174103 -0.027927861)
(0.16759492 -0.025787452 -0.029953724)
(0.16651385 -0.024073219 -0.031291513)
(0.16560049 -0.022968868 -0.03156394)
(0.16507593 -0.022632155 -0.030410317)
(0.16545318 -0.023122842 -0.02746864)
(0.16765134 -0.024374271 -0.022211663)
(0.17383597 -0.025859122 -0.013842177)
(0.19008721 -0.026118851 -0.0011866914)
(0.24960563 -0.01888678 0.0131995)
(0.10011747 -0.00295353 0.0010717237)
(0.10021823 -0.0042850796 0.0016408374)
(0.10002482 -0.0047360724 0.0018817659)
(0.099676873 -0.004902774 0.0019969671)
(0.099388466 -0.0049807096 0.0020455675)
(0.099275387 -0.0050575755 0.0020271029)
(0.099351873 -0.0052218897 0.0019373861)
(0.099596971 -0.0055741645 0.001786623)
(0.099995706 -0.0062524435 0.0015970435)
(0.10059503 -0.0075188522 0.0013501696)
(0.10151194 -0.0097242079 0.00091037168)
(0.10292875 -0.013384297 6.7859487e-05)
(0.10508669 -0.019256731 -0.0010821503)
(0.10798599 -0.027866827 -0.0016657479)
(0.1114285 -0.037014676 -0.00029201694)
(0.11510255 -0.043208058 0.0045196581)
(0.12015292 -0.043450647 0.013038423)
(0.12551314 -0.038619423 0.021493403)
(0.12976022 -0.031808549 0.027773065)
(0.13232549 -0.026289605 0.031143552)
(0.13321942 -0.022338214 0.03320094)
(0.13386508 -0.019515653 0.035296308)
(0.13525043 -0.017986865 0.037484283)
(0.13716098 -0.017685902 0.039749021)
(0.13898863 -0.01890726 0.041564003)
(0.13976717 -0.021136958 0.04322137)
(0.14001349 -0.024124456 0.044864857)
(0.14089186 -0.028463933 0.046689422)
(0.14740384 -0.034684791 0.050261291)
(0.17830746 -0.043095026 0.047438537)
(0.098104049 -0.001584358 0.0010468575)
(0.096780473 -0.0023568777 0.0015973831)
(0.09443576 -0.002615973 0.0018242864)
(0.091509238 -0.0026929879 0.0019220197)
(0.088575731 -0.0026937135 0.0019492076)
(0.085826245 -0.0026523566 0.0019086524)
(0.083259914 -0.0026123892 0.0018009715)
(0.080843179 -0.0026309834 0.0016396752)
(0.078524953 -0.0027911782 0.0014504216)
(0.076272301 -0.0032427436 0.0012669891)
(0.074011292 -0.0042641975 0.0011188224)
(0.071517069 -0.0063766977 0.0010364814)
(0.068435213 -0.010408989 0.0008345279)
(0.064333614 -0.016725772 0.00026748826)
(0.059137888 -0.021978162 0.0020901063)
(0.054837013 -0.020959569 0.013459621)
(0.056620315 -0.011666745 0.039451305)
(0.058948868 0.0024372481 0.064141788)
(0.061993038 0.016447496 0.082733578)
(0.067172036 0.027379358 0.095626459)
(0.074953759 0.034146244 0.10327122)
(0.083616652 0.036591667 0.1066811)
(0.091392133 0.035942806 0.10756249)
(0.097726134 0.033256896 0.10659206)
(0.10227851 0.029409834 0.10404071)
(0.10552468 0.023976494 0.099067247)
(0.10713942 0.017641744 0.09236666)
(0.10716794 0.010366231 0.084737368)
(0.11264341 0.0024193833 0.077554866)
(0.1393844 -0.0047518788 0.050337217)
(0.10581089 -0.0024955077 0.00034694896)
(0.12034091 -0.0025758975 0.00057146899)
(0.13341293 -0.002412971 0.00066174031)
(0.14406471 -0.0019861974 0.00065880357)
(0.15339007 -0.0013763645 0.00058675916)
(0.16188636 -0.00077435255 0.00044622558)
(0.16957411 -0.00029277129 0.00020517056)
(0.17644325 3.7142478e-05 -0.00015700257)
(0.18250976 0.00018591332 -0.00065952603)
(0.18775764 0.00010262603 -0.0013193501)
(0.19214819 -0.00030500226 -0.0021385185)
(0.19562737 -0.0011993183 -0.0030492801)
(0.19763038 -0.0028294935 -0.0037998684)
(0.19793985 -0.0059350483 -0.0039108118)
(0.19802327 -0.0094087374 -0.0030768396)
(0.19823408 -0.012632101 -0.0017917003)
(0.19768012 -0.015697877 -0.0011040472)
(0.19582783 -0.018927359 -0.0017154727)
(0.19290861 -0.022299732 -0.0035907144)
(0.18938107 -0.025751719 -0.0062472031)
(0.1856877 -0.029243151 -0.0091612644)
(0.18225867 -0.032605396 -0.011897897)
(0.1793685 -0.035568297 -0.014142939)
(0.17705803 -0.037895386 -0.015711732)
(0.1752597 -0.039524989 -0.01645664)
(0.17400653 -0.040652731 -0.016143912)
(0.1737491 -0.041582252 -0.014623348)
(0.17580239 -0.041907194 -0.012994311)
(0.18168137 -0.037773514 -0.014963643)
(0.19035169 -0.020928496 -0.02206994)
(0.099854425 -0.0039396103 0.00033755799)
(0.10033773 -0.0047737189 0.00057330441)
(0.10203411 -0.0049131759 0.00067315791)
(0.10448489 -0.004626972 0.00067195613)
(0.10742134 -0.0041206328 0.00058220795)
(0.11072116 -0.0036509827 0.00038589636)
(0.11426653 -0.0033652922 4.714892e-05)
(0.11796849 -0.0033234154 -0.00047888086)
(0.12177883 -0.0036168809 -0.0012389452)
(0.12569543 -0.0043837925 -0.0023133207)
(0.12978913 -0.005895536 -0.003756177)
(0.13425688 -0.0086132604 -0.0055328696)
(0.13946555 -0.013164747 -0.0073644506)
(0.14535459 -0.019802461 -0.0086253386)
(0.15119687 -0.025452482 -0.0093612351)
(0.1555759 -0.028737412 -0.011005646)
(0.15733796 -0.030597681 -0.014809085)
(0.15661899 -0.032491424 -0.020489953)
(0.15445782 -0.034303947 -0.027053842)
(0.15144929 -0.036009424 -0.033415211)
(0.1478215 -0.037879583 -0.038694639)
(0.14381147 -0.039935184 -0.042412541)
(0.13956412 -0.04191031 -0.044410608)
(0.1350321 -0.043547489 -0.044706732)
(0.13019776 -0.044933444 -0.043099414)
(0.12523086 -0.046829131 -0.038895938)
(0.12163292 -0.050162554 -0.031737516)
(0.12417746 -0.05452495 -0.025158035)
(0.13964482 -0.052469005 -0.032112689)
(0.18771972 -0.034340505 -0.054880602)
(0.099998457 -0.0029489268 0.0003418832)
(0.099875358 -0.0042741005 0.00058380816)
(0.099556536 -0.0047047752 0.00069769069)
(0.09919823 -0.0048392371 0.00071439028)
(0.098942792 -0.0048728193 0.00064325167)
(0.098855912 -0.0048862648 0.0004642525)
(0.098927127 -0.0049516496 0.00013886595)
(0.099113026 -0.0051498149 -0.00038704107)
(0.099393936 -0.0056137874 -0.001184598)
(0.099750381 -0.0065530051 -0.0023380482)
(0.10017067 -0.0083967602 -0.0039760111)
(0.10077272 -0.011934858 -0.006200913)
(0.10192146 -0.018387693 -0.0088374381)
(0.10342479 -0.027094954 -0.011085062)
(0.10435169 -0.032467618 -0.012575385)
(0.10310756 -0.032836295 -0.015037016)
(0.098875593 -0.030616848 -0.019557419)
(0.093636073 -0.029761758 -0.023542093)
(0.089155937 -0.029904169 -0.028061651)
(0.084715483 -0.031033043 -0.033139179)
(0.079204798 -0.033250956 -0.037026903)
(0.072914438 -0.036068128 -0.038605505)
(0.066635421 -0.038808941 -0.037813736)
(0.060707885 -0.041166026 -0.034872192)
(0.055856714 -0.043409797 -0.028677332)
(0.053052923 -0.046735361 -0.017522273)
(0.053653099 -0.05217431 -0.003439317)
(0.060923311 -0.059820011 0.0038579509)
(0.070285362 -0.060543171 -0.020437882)
(0.091603503 -0.04564929 -0.065743472)
(0.097987582 -0.0015795143 0.00033301373)
(0.09644395 -0.0023469405 0.00056398572)
(0.093975719 -0.002597835 0.00066841896)
(0.091037425 -0.0026645739 0.00067654525)
(0.088133185 -0.0026524131 0.00059733595)
(0.085401773 -0.0025936347 0.00040975679)
(0.082815876 -0.0025290378 7.0777003e-05)
(0.080311485 -0.0025098906 -0.00048432705)
(0.077827791 -0.0026136365 -0.0013477535)
(0.075220306 -0.0029811893 -0.0026528576)
(0.072173576 -0.0039361623 -0.0046985238)
(0.068110468 -0.0062605059 -0.0080441675)
(0.062052562 -0.011820103 -0.013855305)
(0.051541298 -0.020201798 -0.023483217)
(0.035880258 -0.021508515 -0.033569851)
(0.020767946 -0.015330298 -0.037581176)
(0.0092876783 -0.0082775195 -0.028585557)
(0.020527804 -0.005995385 0.012049203)
(0.022414769 0.0024627314 0.046166459)
(0.027229441 0.01102303 0.067001992)
(0.03405889 0.016796334 0.0785874)
(0.041123518 0.019240967 0.084217696)
(0.047040161 0.018959014 0.086082347)
(0.050833979 0.01640036 0.085065656)
(0.051611683 0.011660633 0.081433205)
(0.049455294 0.0040152415 0.074988143)
(0.045573009 -0.0066502524 0.065914457)
(0.043238648 -0.020765455 0.049590748)
(0.025603488 -0.024215708 -0.0043312849)
(0.017105374 0.0048573449 -0.058612262)
(0.10578293 -0.0024970447 0.0001782871)
(0.12023697 -0.0025718902 0.00032438386)
(0.13322507 -0.0023932451 0.00041119703)
(0.14381263 -0.0019342731 0.00043887236)
(0.15310225 -0.0012656631 0.00041281435)
(0.16160619 -0.00056519297 0.00033323273)
(0.16937832 6.753046e-05 0.0001996102)
(0.17641832 0.00060848217 1.5495001e-05)
(0.18279777 0.0010658993 -0.00022663499)
(0.18862767 0.0014247882 -0.00051554742)
(0.19405733 0.0016285008 -0.00079248053)
(0.19935805 0.0015480771 -0.00087585862)
(0.20442018 0.0010587927 -0.00029606476)
(0.20929682 0.00022635254 0.001661352)
(0.21482118 0.00072730172 0.0049598342)
(0.22028275 0.0020348354 0.0089542696)
(0.22448883 0.0031870146 0.013216778)
(0.22722348 0.0037054466 0.01775517)
(0.22888773 0.0034177681 0.022730656)
(0.22974253 0.0023022521 0.028256974)
(0.22989151 0.00051325556 0.034338445)
(0.22941071 -0.0017579096 0.040831221)
(0.22828187 -0.0043596802 0.047371297)
(0.22650974 -0.0071564602 0.053382662)
(0.22433692 -0.0098437547 0.058189368)
(0.22217338 -0.011626799 0.061168179)
(0.22003531 -0.011082949 0.061728059)
(0.21643956 -0.0068363107 0.058966677)
(0.20625796 0.0034686011 0.049521845)
(0.14601695 0.031544077 0.027766752)
(0.099823608 -0.0039414538 0.00017356501)
(0.10020517 -0.0047684384 0.00032295149)
(0.10176857 -0.0048853889 0.00040725775)
(0.10409098 -0.0045527966 0.00042049839)
(0.10690332 -0.0039630441 0.00036400943)
(0.11007102 -0.003355229 0.00023043393)
(0.11346546 -0.0028580585 3.7431032e-06)
(0.11699583 -0.0025177394 -0.00034115516)
(0.12063739 -0.0023758073 -0.00084038925)
(0.1244512 -0.0025660318 -0.0015172705)
(0.12865722 -0.0034016802 -0.0023441248)
(0.13377599 -0.0054799781 -0.003132457)
(0.14062339 -0.0093271739 -0.0033091707)
(0.14932309 -0.012525949 -0.001990424)
(0.15853057 -0.010959538 -0.00011977674)
(0.16582234 -0.0072762023 0.00081817753)
(0.17060465 -0.0043820619 0.00034443955)
(0.17334702 -0.0034295984 -0.0012800175)
(0.17459836 -0.004317099 -0.0037405802)
(0.17469817 -0.0063774514 -0.0066436864)
(0.1739572 -0.0089712559 -0.0093815911)
(0.17245475 -0.011685486 -0.011309322)
(0.17003493 -0.014396504 -0.012051874)
(0.16655374 -0.01726492 -0.01163131)
(0.16237646 -0.020315712 -0.010458794)
(0.15867879 -0.022597447 -0.0096886124)
(0.15851073 -0.020473943 -0.01210812)
(0.16314675 -0.0091934347 -0.019890168)
(0.17328822 0.015812378 -0.033642188)
(0.17169029 0.056790211 -0.051514077)
(0.099968746 -0.0029464868 0.0001740113)
(0.09974635 -0.0042685648 0.00032333005)
(0.099290467 -0.0046899806 0.00040992372)
(0.09878888 -0.0048058136 0.00042435513)
(0.098381851 -0.0048074314 0.00036314103)
(0.098116064 -0.0047682479 0.00021282178)
(0.097959337 -0.0047518922 -5.1718071e-05)
(0.097853029 -0.0048306351 -0.00047140051)
(0.097739614 -0.0051285839 -0.0011059016)
(0.097576123 -0.0059137036 -0.0020467104)
(0.097420143 -0.0077838957 -0.0033706737)
(0.097738391 -0.011987408 -0.0050286687)
(0.099285392 -0.020331078 -0.0063914112)
(0.10161381 -0.026574979 -0.005709595)
(0.1057338 -0.023256577 -0.0032478463)
(0.10640894 -0.01738703 -0.0017507666)
(0.10240377 -0.012502832 -0.0030874877)
(0.095814031 -0.010216273 -0.0067466675)
(0.088073552 -0.01150906 -0.011829094)
(0.080339569 -0.015048963 -0.017044769)
(0.07288274 -0.01931535 -0.020830941)
(0.065627858 -0.023274928 -0.021852236)
(0.058618508 -0.026464193 -0.019901991)
(0.052251869 -0.028959083 -0.01608295)
(0.046901666 -0.03170944 -0.012107336)
(0.044116915 -0.035065079 -0.012244435)
(0.050981845 -0.031883184 -0.024941247)
(0.070631402 -0.015776843 -0.043474089)
(0.09194851 0.017867149 -0.064535777)
(0.068523197 0.090607204 -0.088846749)
(0.097958457 -0.0015812414 0.00016907457)
(0.096318105 -0.0023508267 0.00031153085)
(0.093715502 -0.0026014655 0.00039093324)
(0.09063426 -0.0026642518 0.00039738698)
(0.087575288 -0.0026430958 0.00032603191)
(0.084652281 -0.002567798 0.00016075015)
(0.081798979 -0.0024777951 -0.00012925758)
(0.078913621 -0.0024286975 -0.00060423896)
(0.075832344 -0.0025091397 -0.0013654729)
(0.07223254 -0.0029158418 -0.0026150774)
(0.067476345 -0.0041581988 -0.0047001905)
(0.060204654 -0.0076920725 -0.0083231613)
(0.048598568 -0.017122977 -0.015054642)
(0.025544393 -0.022379622 -0.02619604)
(-0.0018753195 -0.0078671085 -0.031191703)
(-0.02273576 0.0030723845 -0.025004473)
(-0.036864449 0.0042158863 -0.01688174)
(-0.040704238 0.002239161 -0.0041392416)
(-0.031430934 4.472136e-05 0.016875864)
(-0.023519886 0.00072063357 0.032837316)
(-0.014831689 0.0013076031 0.042234774)
(-0.0076346617 0.00079882556 0.046956467)
(-0.0028471383 -0.00085612357 0.048965886)
(-0.0011155251 -0.00400192 0.049321535)
(-0.0035379737 -0.010392722 0.045256403)
(-0.012852485 -0.020322477 0.024745296)
(-0.022378934 -0.020892354 -0.017436537)
(-0.0096536323 0.0025770282 -0.058720125)
(0.047815072 0.037088601 -0.085439743)
(0.15563217 0.10696111 -0.11306039)
(0.10576691 -0.0025015124 3.6357512e-05)
(0.12017973 -0.0025794738 6.73793e-05)
(0.1331165 -0.0024027972 8.1449093e-05)
(0.14365483 -0.0019440187 7.6985555e-05)
(0.15289916 -0.001273128 5.5541379e-05)
(0.16135621 -0.00056855202 1.7130155e-05)
(0.16907299 6.9421762e-05 -4.0988733e-05)
(0.17605122 0.00061556682 -0.00012403727)
(0.18235118 0.0010598973 -0.00023408193)
(0.18808392 0.0013683159 -0.00038060284)
(0.19345951 0.0014449941 -0.00056431256)
(0.19896011 0.0011160658 -0.00075569773)
(0.20485914 0.00046847645 -0.00084996304)
(0.21136031 0.00036919977 -0.00068328363)
(0.21828823 0.0013952269 -0.00027218013)
(0.22482261 0.002669847 0.00018939258)
(0.23016602 0.0040782377 0.00060704469)
(0.23494964 0.0058951549 0.0011008766)
(0.23978272 0.0082419073 0.0018169646)
(0.2449893 0.011106267 0.0029283035)
(0.25055651 0.014473507 0.0047461852)
(0.25603603 0.018307798 0.0076534809)
(0.26060766 0.022410651 0.011947032)
(0.26335933 0.02648409 0.01759699)
(0.26349053 0.030325066 0.024073785)
(0.26003947 0.034140769 0.030343379)
(0.25118385 0.038582432 0.034936529)
(0.23365187 0.044701936 0.036146801)
(0.20377199 0.05435597 0.031604423)
(0.10734728 0.075216875 0.019315275)
(0.099804675 -0.0039466225 3.1379866e-05)
(0.10013036 -0.0047770071 5.8319874e-05)
(0.10161795 -0.0048948979 6.5460406e-05)
(0.10386159 -0.0045599601 4.9438024e-05)
(0.10659264 -0.0039641397 1.0476159e-05)
(0.10966867 -0.0033477995 -5.3804845e-05)
(0.11295466 -0.0028407693 -0.00014907981)
(0.11634638 -0.0024963999 -0.00028206626)
(0.11981357 -0.0023890227 -0.00046847895)
(0.12345068 -0.0027096731 -0.00072373568)
(0.12760495 -0.0038994163 -0.0010511492)
(0.13314681 -0.0067200657 -0.0014132159)
(0.14111553 -0.01095501 -0.0016822865)
(0.15161977 -0.010076769 -0.0014710048)
(0.16116648 -0.0058848863 -0.0011681322)
(0.16848721 -0.0018678296 -0.0012878622)
(0.17519003 0.0012871366 -0.0018057954)
(0.18176918 0.0040122102 -0.0025265768)
(0.18859115 0.0068755 -0.0033531017)
(0.19628267 0.010419675 -0.0042942161)
(0.20523795 0.015366804 -0.0050472875)
(0.21526137 0.022307941 -0.0049806874)
(0.22561681 0.031247794 -0.0035006621)
(0.23537184 0.041506027 -0.00059129326)
(0.24348109 0.05243586 0.003350479)
(0.24832107 0.064291194 0.0073676425)
(0.24675582 0.077460994 0.0099556697)
(0.23408997 0.092218029 0.0095736765)
(0.20765787 0.10979083 0.00414563)
(0.11953299 0.13488026 -0.0089763073)
(0.099949568 -0.0029475549 3.0422619e-05)
(0.099670469 -0.0042713031 5.6081159e-05)
(0.099133658 -0.0046930366 6.1981305e-05)
(0.098541008 -0.0048074459 4.3583878e-05)
(0.098031311 -0.0048066558 -6.5309679e-07)
(0.097641575 -0.0047652971 -7.5275426e-05)
(0.097323213 -0.0047472807 -0.00018829125)
(0.096983992 -0.0048387354 -0.000353287)
(0.096524942 -0.0051984628 -0.00059862289)
(0.095874108 -0.0061893091 -0.00096333453)
(0.095168149 -0.0086574114 -0.0014990591)
(0.095483215 -0.014427624 -0.0022776912)
(0.096872406 -0.025585094 -0.0034772936)
(0.10220719 -0.022750599 -0.0039272293)
(0.10654656 -0.015908001 -0.0030963845)
(0.10596871 -0.0096862636 -0.0032386293)
(0.10335111 -0.0039462705 -0.0043299131)
(0.099564062 0.0010551618 -0.0061773501)
(0.096977055 0.0042026847 -0.0089597018)
(0.095849434 0.005339258 -0.0125312)
(0.095437297 0.0055700379 -0.015687903)
(0.098770488 0.0068336403 -0.017272919)
(0.10797925 0.011026305 -0.01652747)
(0.12413157 0.019474316 -0.013523527)
(0.14167308 0.03141929 -0.0083002311)
(0.15921964 0.046486611 -0.003764107)
(0.17144177 0.063239177 -0.0022434258)
(0.17232966 0.082712759 -0.0054715604)
(0.16009035 0.10800841 -0.014715012)
(0.092264973 0.14334878 -0.028784595)
(0.097939332 -0.0015813984 2.9064371e-05)
(0.096242452 -0.0023512369 5.2708245e-05)
(0.093557953 -0.0026015258 5.6221713e-05)
(0.090381281 -0.0026634085 3.4687304e-05)
(0.087209989 -0.0026414527 -1.4237318e-05)
(0.084146245 -0.0025663453 -9.6385821e-05)
(0.081096229 -0.0024775511 -0.00022118231)
(0.077891425 -0.0024383322 -0.00040866891)
(0.074258251 -0.0025620079 -0.00070322087)
(0.069665937 -0.0031210019 -0.0011811692)
(0.06299956 -0.0048800327 -0.0019968958)
(0.051730138 -0.010259245 -0.0035586458)
(0.03340131 -0.024783608 -0.0073741746)
(-0.016068816 -0.0077817442 -0.017640519)
(-0.04049024 0.0047578759 -0.015496661)
(-0.060147983 0.0062077634 -0.010809547)
(-0.073757258 0.0051768685 -0.0061967382)
(-0.080633193 0.001644928 -0.00031934002)
(-0.081033921 -0.0032328951 0.0066338943)
(-0.075559864 -0.0078411306 0.013675668)
(-0.066548155 -0.011635432 0.018635265)
(-0.057116269 -0.014574012 0.022204959)
(-0.047064304 -0.015685853 0.024911405)
(-0.03470361 -0.013362654 0.026269452)
(-0.015478756 -0.0056102668 0.023985072)
(0.0097799556 0.012654278 0.014699494)
(0.033003139 0.03643766 0.0074555846)
(0.039267775 0.05629896 -0.0052870592)
(0.043887338 0.083807151 -0.03084823)
(0.021249854 0.12181174 -0.080153662)
(0.1057676 -0.0025019607 -6.728926e-05)
(0.12018143 -0.0025800866 -0.00011487278)
(0.13311873 -0.0024035294 -0.00013860781)
(0.14365766 -0.0019448054 -0.00013985753)
(0.15290348 -0.001273845 -0.00012125063)
(0.16136387 -0.00056894708 -8.3638127e-05)
(0.16908615 6.9290252e-05 -2.51826e-05)
(0.17607288 0.00061807065 5.7789599e-05)
(0.18238418 0.0010702695 0.0001629854)
(0.18812554 0.0013994383 0.00028972783)
(0.19348192 0.0015267191 0.00041024823)
(0.19883501 0.0012939567 0.00041731717)
(0.20424212 0.00064757746 1.0524026e-05)
(0.20986504 8.6953655e-05 -0.0012402573)
(0.2161139 0.00089363632 -0.0030686394)
(0.22208123 0.0021947826 -0.0049261097)
(0.22686593 0.0034178575 -0.0067221533)
(0.23051012 0.0047190373 -0.0088372138)
(0.23375536 0.0061631534 -0.011722689)
(0.2372893 0.007436415 -0.01566036)
(0.24165012 0.008497432 -0.020742414)
(0.24688334 0.0097113219 -0.026870312)
(0.25229416 0.011504784 -0.033762174)
(0.2566686 0.013777549 -0.040987746)
(0.25878771 0.016361233 -0.047925896)
(0.25753538 0.019376651 -0.053607316)
(0.25129653 0.023471417 -0.056520117)
(0.23716765 0.030052089 -0.054703802)
(0.21157615 0.041502426 -0.045729122)
(0.12258174 0.066620181 -0.027368021)
(0.099804247 -0.0039472554 -6.8967765e-05)
(0.10012889 -0.0047778713 -0.00012116587)
(0.10161542 -0.0048958062 -0.00014692177)
(0.10385863 -0.0045605777 -0.00014424847)
(0.10659055 -0.003963759 -0.00011343557)
(0.1096688 -0.0033449213 -5.2311616e-05)
(0.11296022 -0.0028331846 4.418881e-05)
(0.11636024 -0.0024760317 0.00018147755)
(0.11983258 -0.0023380467 0.00036834636)
(0.12345416 -0.0025841645 0.000602402)
(0.1275153 -0.0036011712 0.00083716373)
(0.13273051 -0.0061136245 0.00090503755)
(0.14013298 -0.010487784 0.00037134283)
(0.14964515 -0.011837416 -0.0013686076)
(0.15906948 -0.0082489225 -0.0030151189)
(0.16610235 -0.0039446806 -0.0035461605)
(0.17140055 -0.00096237762 -0.0033294556)
(0.17615456 0.00064160986 -0.0030275468)
(0.18069043 0.0010655562 -0.0029819174)
(0.18459519 0.00084991379 -0.0031400155)
(0.18841717 0.00069711944 -0.0034043546)
(0.19317998 0.0016617358 -0.0039331995)
(0.20016967 0.0051556783 -0.0052426653)
(0.21091808 0.012344458 -0.0079449775)
(0.22110587 0.02226772 -0.011472542)
(0.22897041 0.033741676 -0.015020885)
(0.23209133 0.046835708 -0.016767228)
(0.22667076 0.062553003 -0.014252878)
(0.21088868 0.083390129 -0.0047142501)
(0.14899247 0.11528062 0.014027961)
(0.099949152 -0.0029478088 -6.8876693e-05)
(0.099668986 -0.004271616 -0.00012048085)
(0.099131177 -0.0046931616 -0.00014599479)
(0.098538715 -0.0048068722 -0.00014173009)
(0.098031835 -0.0048042366 -0.00010519537)
(0.097648423 -0.0047586224 -3.0376816e-05)
(0.097345103 -0.0047323274 9.2819299e-05)
(0.097035185 -0.0048044682 0.00028110312)
(0.096625821 -0.005117178 0.00056403933)
(0.096047881 -0.0059873396 0.00097880483)
(0.095369093 -0.0081501261 0.0015527335)
(0.095277037 -0.013213633 0.0022254562)
(0.096628071 -0.023491072 0.0025804363)
(0.098465657 -0.026066215 0.00082862427)
(0.10318491 -0.019511776 -0.0019689501)
(0.10194541 -0.012759611 -0.0017077511)
(0.09840796 -0.0069742665 0.00020711323)
(0.09163177 -0.0024988872 0.002745103)
(0.083788176 -0.0010139075 0.0055750629)
(0.07344936 -0.0031672534 0.0092258509)
(0.06097598 -0.007979473 0.013402097)
(0.048206492 -0.012953311 0.016708943)
(0.03914484 -0.015567204 0.017938176)
(0.037945007 -0.014436681 0.017899434)
(0.059037594 -0.006378768 0.017083768)
(0.091366326 0.0083306966 0.016960564)
(0.11960241 0.026201027 0.017918665)
(0.13525553 0.047487193 0.022659175)
(0.1411886 0.075150097 0.032646698)
(0.1161631 0.112722 0.047712526)
(0.097938976 -0.0015814815 -6.7109805e-05)
(0.096241192 -0.0023513391 -0.00011625642)
(0.093556055 -0.0026015362 -0.00013888221)
(0.090380553 -0.0026630844 -0.00013068436)
(0.087214512 -0.0026402001 -8.7739554e-05)
(0.084161763 -0.0025628797 -1.4239244e-06)
(0.081137925 -0.0024698051 0.00014260364)
(0.077992325 -0.0024201456 0.0003754705)
(0.074488309 -0.0025146745 0.00075964615)
(0.070180451 -0.0029865465 0.0014162469)
(0.064132997 -0.0044688926 0.0025931623)
(0.054228789 -0.0088957616 0.0048652839)
(0.038634857 -0.021004402 0.0097643107)
(-0.0014639012 -0.019009651 0.018384303)
(-0.040879948 0.0023315888 0.016088588)
(-0.061106843 0.0059354536 0.014615452)
(-0.077473539 0.0063486477 0.014179478)
(-0.085695039 0.0038379999 0.012155759)
(-0.087364886 -0.00070821445 0.0085105297)
(-0.07920887 -0.0058403012 0.0031448799)
(-0.069010004 -0.010179538 -0.00094044089)
(-0.059042655 -0.01403842 -0.002857753)
(-0.050502907 -0.018255027 -0.0031075059)
(-0.043416358 -0.022713394 -0.0020916542)
(-0.036757031 -0.0237997 0.0011867318)
(-0.031531284 -0.016176599 0.011374086)
(-0.01136575 0.0072076759 0.029407548)
(0.0055435859 0.033680387 0.043747498)
(0.022182795 0.061210722 0.057174675)
(0.051011437 0.0945525 0.068162794)
(0.10578489 -0.0024985331 -0.00020552362)
(0.12024136 -0.0025739279 -0.00036544258)
(0.13322923 -0.0023958279 -0.00045962638)
(0.14381417 -0.0019374748 -0.00049134)
(0.15309918 -0.0012696732 -0.00046761641)
(0.16159639 -0.00057007248 -0.00039048597)
(0.16935959 6.2613582e-05 -0.00026177742)
(0.17638606 0.00060483196 -8.8231969e-05)
(0.1827424 0.0010665914 0.00013344105)
(0.18852917 0.001437914 0.00038670887)
(0.19386868 0.0016752237 0.00060797654)
(0.19896175 0.001670071 0.00061851307)