/*--------------------------------*- C++ -*----------------------------------*\
| =========                 |                                                 |
| \\      /  F ield         | OpenFOAM: The Open Source CFD Toolbox           |
|  \\    /   O peration     | Version:  v2012                                 |
|   \\  /    A nd           | Website:  www.openfoam.com                      |
|    \\/     M anipulation  |                                                 |
\*---------------------------------------------------------------------------*/
FoamFile
{
    version     2.0;
    format      ascii;
    class       surfaceScalarField;
    location    "340/topAir";
    object      phi;
}
// * * * * * * * * * * * * * * * * * * * * * * * * * * * * * * * * * * * * * //

dimensions      [1 0 -1 0 0 0 0];
oriented        oriented;


internalField   nonuniform List<scalar> 
3140
(
9.4857148e-06
-2.89849e-07
7.3143304e-08
9.6618859e-06
-2.6016192e-07
8.4043137e-08
9.8325109e-06
-2.4473863e-07
7.4179449e-08
9.9715339e-06
-1.9621195e-07
5.7262925e-08
1.0072377e-05
-1.356908e-07
3.492603e-08
1.014313e-05
-7.8800362e-08
8.1270748e-09
1.0213144e-05
-3.0929413e-08
-3.9001843e-08
1.0308145e-05
8.422763e-09
-1.0333312e-07
1.0434507e-05
6.9939295e-08
-1.9620584e-07
1.0614745e-05
1.4965786e-07
-3.2979563e-07
1.0847235e-05
2.866381e-07
-5.1902907e-07
1.1103962e-05
5.2146603e-07
-7.7810127e-07
1.1328733e-05
8.8864368e-07
-1.1133468e-06
1.1520993e-05
1.3344833e-06
-1.5267282e-06
1.1660942e-05
1.8362571e-06
-1.9762903e-06
1.1750263e-05
2.3225709e-06
-2.4121068e-06
1.178672e-05
2.7502748e-06
-2.7870564e-06
1.1766003e-05
3.0980838e-06
-3.0777565e-06
1.1697774e-05
3.3533965e-06
-3.2855844e-06
1.1610971e-05
3.5089975e-06
-3.4226247e-06
1.154069e-05
3.5712169e-06
-3.5013789e-06
1.1510914e-05
3.5597645e-06
-3.53045e-06
1.1528217e-05
3.4973489e-06
-3.5151305e-06
1.1583148e-05
3.4034756e-06
-3.4588945e-06
1.1652615e-05
3.2935726e-06
-3.3635383e-06
1.1693338e-05
3.1845171e-06
-3.2257858e-06
1.1618215e-05
3.1057786e-06
-3.0313195e-06
1.1247074e-05
3.1200828e-06
-2.7498094e-06
1.0209799e-05
3.3666952e-06
-2.3305479e-06
4.1853733e-06
-1.7069337e-06
9.1175388e-06
-2.1873875e-07
8.0321915e-08
9.0816782e-06
-3.2919294e-07
1.048954e-07
9.0743433e-06
-3.4916003e-07
1.1176193e-07
9.1095067e-06
-3.456562e-07
1.1428856e-07
9.1860815e-06
-3.2434269e-07
1.1208699e-07
9.2984173e-06
-2.9436542e-07
1.0324182e-07
9.4490672e-06
-2.6736511e-07
8.5801726e-08
9.6521051e-06
-2.5146888e-07
5.6867054e-08
9.9334751e-06
-2.2453374e-07
1.3134592e-08
1.0320948e-05
-1.7124528e-07
-6.6500149e-08
1.0842836e-05
-4.4552367e-08
-1.9063542e-07
1.1492217e-05
2.4654902e-07
-3.7448478e-07
1.2179677e-05
8.3718942e-07
-6.3622149e-07
1.2788601e-05
1.6894122e-06
-9.6431301e-07
1.3260312e-05
2.6734751e-06
-1.3095785e-06
1.3559781e-05
3.6192073e-06
-1.5967764e-06
1.3668852e-05
4.4225524e-06
-1.7818729e-06
1.3608642e-05
5.044009e-06
-1.8860572e-06
1.3435929e-05
5.4841505e-06
-1.9582904e-06
1.3226566e-05
5.7524549e-06
-2.0343781e-06
1.3042114e-05
5.867013e-06
-2.1117506e-06
1.2909682e-05
5.8599935e-06
-2.1683592e-06
1.2830902e-05
5.7633728e-06
-2.1879413e-06
1.2791166e-05
5.603054e-06
-2.1606473e-06
1.276583e-05
5.3954049e-06
-2.0774152e-06
1.2712742e-05
5.1578141e-06
-1.9213195e-06
1.2546141e-05
4.9306591e-06
-1.659749e-06
1.2097854e-05
4.8088923e-06
-1.2426025e-06
1.1098015e-05
4.9864385e-06
-6.2281008e-07
5.690066e-06
2.5568713e-07
9.1741337e-06
-2.0624058e-07
8.2329958e-08
9.0096888e-06
-2.736589e-07
1.0891248e-07
8.8286659e-06
-2.8688886e-07
1.187533e-07
8.6435776e-06
-2.8672793e-07
1.2616188e-07
8.4663914e-06
-2.7943415e-07
1.3227973e-07
8.3025249e-06
-2.6719652e-07
1.3670007e-07
8.1501482e-06
-2.5514595e-07
1.4016081e-07
8.0032829e-06
-2.4909663e-07
1.4449749e-07
7.8771825e-06
-2.5156587e-07
1.5313914e-07
7.8085898e-06
-2.6890865e-07
1.6626583e-07
7.9017674e-06
-3.1319135e-07
1.7546723e-07
8.3173985e-06
-3.2787437e-07
1.5867086e-07
9.1091738e-06
-4.8540255e-08
9.3471039e-08
1.0213474e-05
6.0071471e-07
-1.653376e-08
1.122759e-05
1.7448801e-06
-8.6862948e-08
1.2030592e-05
2.8779317e-06
-6.3207364e-08
1.2558917e-05
3.7361518e-06
1.5664874e-07
1.279065e-05
4.3160953e-06
4.9500899e-07
1.282008e-05
4.6958656e-06
7.5797662e-07
1.2755466e-05
4.9158961e-06
9.0052423e-07
1.2685885e-05
4.9981786e-06
9.379059e-07
1.2637869e-05
4.9571319e-06
9.5045015e-07
1.260703e-05
4.8196866e-06
9.7416927e-07
1.2568537e-05
4.6148991e-06
1.0263916e-06
1.2497915e-05
4.36908e-06
1.0968178e-06
1.2373299e-05
4.1053287e-06
1.177103e-06
1.2156322e-05
3.8568982e-06
1.2908165e-06
1.1789049e-05
3.7011128e-06
1.4750675e-06
1.1138276e-05
3.824592e-06
1.8123367e-06
4.6195229e-06
2.4283268e-06
8.9822895e-06
8.042353e-08
8.6028546e-06
1.0577754e-07
8.2014972e-06
1.1447014e-07
7.7945713e-06
1.2019954e-07
7.3907095e-06
1.2442939e-07
6.9963429e-06
1.2717164e-07
6.6115567e-06
1.2964214e-07
6.2283414e-06
1.3412066e-07
5.8323485e-06
1.4442969e-07
5.3964913e-06
1.6695185e-07
4.8705206e-06
2.1278358e-07
4.2389673e-06
3.0367758e-07
3.7191879e-06
4.7120166e-07
3.5925642e-06
7.2679118e-07
4.2150776e-06
1.1212712e-06
5.3430753e-06
1.748601e-06
6.4547008e-06
2.623135e-06
7.3640823e-06
3.4055719e-06
8.0778507e-06
3.9813187e-06
8.6692897e-06
4.323992e-06
9.1828398e-06
4.484373e-06
9.6350332e-06
4.5048136e-06
1.0010092e-05
4.4446072e-06
1.0284888e-05
4.3401985e-06
1.0442205e-05
4.212005e-06
1.048378e-05
4.0641664e-06
1.0435788e-05
3.9054822e-06
1.03849e-05
3.7527437e-06
1.0587062e-05
3.6232358e-06
3.4893143e-06
9.5983935e-06
-2.8938564e-07
3.3144408e-08
9.8914331e-06
-2.6102104e-07
5.2075426e-08
1.0167662e-05
-2.5764862e-07
5.5660617e-08
1.0399784e-05
-2.2616473e-07
5.1372638e-08
1.0580463e-05
-1.8733187e-07
4.1648496e-08
1.0720275e-05
-1.5721051e-07
2.5594171e-08
1.0825319e-05
-1.4276023e-07
-1.2232676e-09
1.0899915e-05
-1.4814251e-07
-2.9732488e-08
1.0953536e-05
-1.7802899e-07
-7.1758084e-08
1.0993347e-05
-2.390232e-07
-1.3055945e-07
1.1025858e-05
-3.3917518e-07
-2.1236632e-07
1.1058325e-05
-4.8700418e-07
-3.2361491e-07
1.1101378e-05
-6.8757124e-07
-4.6899369e-07
1.1224121e-05
-9.9420105e-07
-6.5568018e-07
1.1445392e-05
-1.3310621e-06
-8.6731198e-07
1.1752203e-05
-1.641846e-06
-1.0782704e-06
1.2072912e-05
-1.8363746e-06
-1.2727329e-06
1.2324048e-05
-1.8695595e-06
-1.4605921e-06
1.2469135e-05
-1.7839475e-06
-1.6477989e-06
1.2524622e-05
-1.6567906e-06
-1.8222438e-06
1.2538595e-05
-1.5449753e-06
-1.9712398e-06
1.2552156e-05
-1.4605825e-06
-2.0843161e-06
1.2585513e-05
-1.3966472e-06
-2.1527877e-06
1.264173e-05
-1.3430436e-06
-2.1730777e-06
1.2720424e-05
-1.2950693e-06
-2.1482834e-06
1.2821046e-05
-1.2443762e-06
-2.0834368e-06
1.2927441e-05
-1.1651014e-06
-1.9746042e-06
1.2969559e-05
-9.8395321e-07
-1.8109063e-06
1.2801513e-05
-5.5716593e-07
-1.6092832e-06
7.6327066e-07
-1.3533004e-06
9.2430412e-06
-2.2019459e-07
3.7060613e-08
9.3549474e-06
-3.3313439e-07
6.5106113e-08
9.4894645e-06
-3.5822825e-07
7.7829522e-08
9.6602904e-06
-3.647968e-07
8.210138e-08
9.8640136e-06
-3.5976484e-07
8.0804935e-08
1.0089153e-05
-3.5214955e-07
7.3051202e-08
1.0328045e-05
-3.5264306e-07
5.6803971e-08
1.0578006e-05
-3.7063359e-07
2.9408882e-08
1.0842303e-05
-4.1567663e-07
-1.3502498e-08
1.1118113e-05
-5.0207171e-07
-7.9253291e-08
1.1412097e-05
-6.4893115e-07
-1.7486508e-07
1.1738214e-05
-8.7708289e-07
-3.1056007e-07
1.2118733e-05
-1.2100445e-06
-4.943843e-07
1.2556595e-05
-1.6736928e-06
-7.2295761e-07
1.3080828e-05
-2.1954512e-06
-9.6988872e-07
1.3619503e-05
-2.5922823e-06
-1.1855096e-06
1.405295e-05
-2.685106e-06
-1.3668503e-06
1.4295082e-05
-2.4470946e-06
-1.550576e-06
1.4343414e-05
-2.0433445e-06
-1.746822e-06
1.4260046e-05
-1.6612825e-06
-1.945838e-06
1.4130602e-05
-1.4012559e-06
-2.1250738e-06
1.399214e-05
-1.2236195e-06
-2.2655872e-06
1.3857385e-05
-1.1007903e-06
-2.3473611e-06
1.373164e-05
-1.0191543e-06
-2.3566175e-06
1.3643804e-05
-9.9346986e-07
-2.2884294e-06
1.3655789e-05
-1.0287713e-06
-2.145488e-06
1.3885248e-05
-1.1203417e-06
-1.9297454e-06
1.4569715e-05
-1.2584343e-06
-1.6475355e-06
1.6279846e-05
-1.4667611e-06
-1.4176369e-06
-1.4339438e-06
-1.4700131e-06
9.3019113e-06
-2.0860923e-07
3.7795112e-08
9.287958e-06
-2.773257e-07
6.7058653e-08
9.2588617e-06
-2.9235487e-07
8.1977885e-08
9.2271547e-06
-2.9625892e-07
8.9332741e-08
9.2028717e-06
-2.9548689e-07
9.2286717e-08
9.1890143e-06
-2.9214444e-07
9.055466e-08
9.1850505e-06
-2.9161935e-07
8.310366e-08
9.1904242e-06
-3.0033242e-07
6.882639e-08
9.2062763e-06
-3.2525702e-07
4.6872246e-08
9.2323808e-06
-3.7869708e-07
1.6792954e-08
9.2817875e-06
-4.8274312e-07
-4.0121223e-08
9.372062e-06
-6.7324576e-07
-1.3544176e-07
9.5255796e-06
-9.9232763e-07
-2.7779311e-07
9.770996e-06
-1.4675638e-06
-4.6813872e-07
1.014685e-05
-2.0005565e-06
-6.5762276e-07
1.0567201e-05
-2.3375532e-06
-7.3795469e-07
1.0922011e-05
-2.220782e-06
-6.6156184e-07
1.1175823e-05
-1.7198886e-06
-4.8476881e-07
1.1281058e-05
-1.0687832e-06
-3.2056575e-07
1.1283503e-05
-4.5687311e-07
-3.053826e-07
1.1248215e-05
-4.2622025e-08
-3.8483701e-07
1.1244952e-05
1.3971301e-07
-4.0928958e-07
1.1279349e-05
1.8498017e-07
-3.4577758e-07
1.1317834e-05
1.3579441e-07
-1.6665847e-07
1.1350948e-05
3.1236615e-08
3.9733131e-08
1.1345604e-05
-1.2528896e-07
2.8062831e-07
1.1375945e-05
-3.5894348e-07
5.0155695e-07
1.1559932e-05
-6.3916249e-07
6.7440017e-07
1.219164e-05
-8.7550919e-07
5.9175089e-07
-9.8631486e-07
2.0118925e-07
9.1040203e-06
3.6747542e-08
8.8677004e-06
6.4773313e-08
8.6110698e-06
7.8747467e-08
8.3497153e-06
8.5296742e-08
8.0911591e-06
8.7500308e-08
7.8410095e-06
8.517853e-08
7.6014872e-06
7.7546889e-08
7.371375e-06
6.3902376e-08
7.1466828e-06
4.3867333e-08
6.9165977e-06
1.8342813e-08
6.6664375e-06
-1.9795524e-08
6.377821e-06
-8.0947897e-08
6.0263761e-06
-1.6968603e-07
5.6035428e-06
-3.1803452e-07
5.2242979e-06
-5.0017885e-07
5.0697658e-06
-4.3420419e-07
5.2002117e-06
2.7176775e-07
5.4491187e-06
1.4368113e-06
5.6445981e-06
2.7175134e-06
5.9738462e-06
3.5386017e-06
6.4339793e-06
3.9823893e-06
6.9180986e-06
4.1612177e-06
7.3579785e-06
4.1906647e-06
7.7044892e-06
4.1306772e-06
7.9489721e-06
4.0001723e-06
8.1154638e-06
3.7733482e-06
8.2644479e-06
3.3983277e-06
8.4601626e-06
2.9185511e-06
9.149891e-06
2.0586203e-06
9.3902554e-07
9.5755366e-06
-2.9103179e-07
1.7648261e-08
9.8595918e-06
-2.6131753e-07
2.9389465e-08
1.0135333e-05
-2.5432784e-07
3.4312622e-08
1.037043e-05
-2.1825928e-07
3.4609649e-08
1.0554797e-05
-1.7462912e-07
3.1992086e-08
1.069315e-05
-1.3979623e-07
2.7123191e-08
1.0789785e-05
-1.1798897e-07
2.0219904e-08
1.0856419e-05
-1.0801664e-07
1.1741132e-08
1.0897234e-05
-1.1185101e-07
-6.3637519e-10
1.0913841e-05
-1.3441752e-07
-1.2676302e-08
1.0910655e-05
-1.8191389e-07
-2.7234704e-08
1.0892118e-05
-2.6339209e-07
-4.1760265e-08
1.0868312e-05
-3.9383962e-07
-5.1663359e-08
1.0922387e-05
-6.5883866e-07
-5.1664407e-08
1.1084728e-05
-1.0020075e-06
-2.8781581e-08
1.1324552e-05
-1.3618662e-06
4.2881075e-08
1.1547901e-05
-1.6512571e-06
1.5512562e-07
1.1711311e-05
-1.8645716e-06
2.4143471e-07
1.1806549e-05
-2.031353e-06
2.898603e-07
1.1853646e-05
-2.1733958e-06
3.0595094e-07
1.1882698e-05
-2.3024573e-06
3.0410791e-07
1.1914384e-05
-2.4156386e-06
3.0142673e-07
1.1948626e-05
-2.4984547e-06
3.1300682e-07
1.1972872e-05
-2.5402696e-06
3.4431031e-07
1.1984011e-05
-2.5456593e-06
3.8732566e-07
1.2007325e-05
-2.5360324e-06
4.2994229e-07
1.2096809e-05
-2.522331e-06
4.5829626e-07
1.2288757e-05
-2.4356004e-06
4.3212894e-07
1.2423285e-05
-1.9474931e-06
2.0241711e-07
-5.9443832e-07
-4.1600253e-07
9.2152274e-06
-2.1990494e-07
1.9677362e-08
9.3151001e-06
-3.3204018e-07
3.5959719e-08
9.4482151e-06
-3.5496153e-07
4.5353771e-08
9.6210483e-06
-3.5788233e-07
4.8898769e-08
9.8270476e-06
-3.4764873e-07
4.7835033e-08
1.0051348e-05
-3.3304912e-07
4.2015881e-08
1.0283089e-05
-3.233205e-07
3.040899e-08
1.0517767e-05
-3.2463352e-07
1.136371e-08
1.07528e-05
-3.4348713e-07
-1.6883501e-08
1.0987103e-05
-3.9021012e-07
-5.7757733e-08
1.1224321e-05
-4.7942824e-07
-1.1459274e-07
1.1476445e-05
-6.3749276e-07
-1.8868581e-07
1.1773868e-05
-9.1076909e-07
-2.7515256e-07
1.212063e-05
-1.3749781e-06
-3.5413887e-07
1.2529809e-05
-1.9988731e-06
-3.8280074e-07
1.2845152e-05
-2.4824631e-06
-3.8016231e-07
1.2942303e-05
-2.6722244e-06
-4.4218998e-07
1.2846725e-05
-2.7126991e-06
-6.0556735e-07
1.2612797e-05
-2.6867719e-06
-8.5592812e-07
1.2297309e-05
-2.6519925e-06
-1.1500581e-06
1.1950332e-05
-2.6436156e-06
-1.4350445e-06
1.1598493e-05
-2.6641977e-06
-1.6629148e-06
1.1241164e-05
-2.6814373e-06
-1.8041648e-06
1.0874768e-05
-2.6762636e-06
-1.8505486e-06
1.0512943e-05
-2.6593995e-06
-1.8083114e-06
1.020956e-05
-2.703703e-06
-1.668935e-06
1.0154236e-05
-2.906205e-06
-1.4840131e-06
1.0755588e-05
-3.2250425e-06
-1.4521758e-06
1.2514538e-05
-3.3058847e-06
-1.8113071e-06
-2.6852562e-06
-2.601932e-06
9.2751148e-06
-2.0822597e-07
1.9963164e-08
9.2500206e-06
-2.7654405e-07
3.6658276e-08
9.2204852e-06
-2.9043177e-07
4.6985164e-08
9.1928639e-06
-2.9269131e-07
5.1764839e-08
9.1752066e-06
-2.8971055e-07
5.2007744e-08
9.1686282e-06
-2.8326076e-07
4.7347111e-08
9.1699549e-06
-2.7800369e-07
3.6462969e-08
9.1756401e-06
-2.7888208e-07
1.7393261e-08
9.1826828e-06
-2.9086814e-07
-1.2785356e-08
9.1908028e-06
-3.2265115e-07
-5.8881875e-08
9.1918614e-06
-3.922175e-07
-1.2838923e-07
9.177672e-06
-5.3047282e-07
-2.2828143e-07
9.1502848e-06
-8.0018869e-07
-3.610226e-07
9.1420167e-06
-1.3253672e-06
-5.0950353e-07
9.1625358e-06
-2.0884712e-06
-5.8760613e-07
8.9556131e-06
-2.4555587e-06
-5.5486296e-07
8.4729865e-06
-2.2608373e-06
-5.8698099e-07
7.9796956e-06
-1.982346e-06
-7.1921506e-07
7.5007694e-06
-1.5726631e-06
-9.5370314e-07
6.9999354e-06
-1.2031091e-06
-1.2516901e-06
6.4737441e-06
-9.9084869e-07
-1.509554e-06
5.98078e-06
-9.3694569e-07
-1.641028e-06
5.5664129e-06
-9.9213792e-07
-1.6170535e-06
5.2939115e-06
-1.1155166e-06
-1.4501048e-06
5.1643748e-06
-1.3115957e-06
-1.1728454e-06
5.1223762e-06
-1.6076735e-06
-7.6692967e-07
5.3549046e-06
-2.0660359e-06
-5.6370431e-07
6.3076293e-06
-2.6359489e-06
-8.5961639e-07
8.0072192e-06
-2.8730109e-06
-1.5316959e-06
-2.3047821e-06
-2.9569975e-06
9.0779831e-06
1.9491963e-08
8.8306123e-06
3.5601715e-08
8.5735323e-06
4.539733e-08
8.316422e-06
4.9717305e-08
8.0646554e-06
4.9557971e-08
7.8220115e-06
4.4563375e-08
7.5881866e-06
3.3369827e-08
7.3594621e-06
1.3746727e-08
7.130054e-06
-1.7590527e-08
6.8926557e-06
-6.6907296e-08
6.6262831e-06
-1.4563676e-07
6.2876892e-06
-2.7282126e-07
5.8022753e-06
-4.8443733e-07
5.0184547e-06
-8.5923416e-07
3.862797e-06
-1.4285098e-06
2.7917889e-06
-1.8065323e-06
2.3920117e-06
-1.5807136e-06
2.439903e-06
-5.8967602e-07
2.7363182e-06
8.5227795e-07
3.1064007e-06
1.9692133e-06
3.5739069e-06
2.5272581e-06
4.0575803e-06
2.7431837e-06
4.4934664e-06
2.7648161e-06
4.8127088e-06
2.6978667e-06
4.9327442e-06
2.5703415e-06
4.757609e-06
2.3423164e-06
4.6128911e-06
1.4782901e-06
4.8724904e-06
2.4057669e-08
5.6264833e-06
-1.5609458e-06
-3.730485e-06
9.5700064e-06
-2.911671e-07
7.8172153e-09
9.8467848e-06
-2.6084653e-07
1.3509058e-08
1.0116879e-05
-2.5219228e-07
1.6476084e-08
1.0347601e-05
-2.1332779e-07
1.7291551e-08
1.0528195e-05
-1.6508301e-07
1.6563074e-08
1.0663603e-05
-1.2281795e-07
1.4620544e-08
1.0761789e-05
-8.9422251e-08
1.1544109e-08
1.0829949e-05
-6.3746663e-08
7.4129817e-09
1.0871831e-05
-4.5177346e-08
2.7282017e-09
1.0896213e-05
-3.3984384e-08
-3.0450404e-09
1.0911831e-05
-3.3524334e-08
-9.3945083e-09
1.0936111e-05
-5.238436e-08
-1.392781e-08
1.1004832e-05
-1.1042431e-07
-1.0639683e-08
1.1225318e-05
-2.8268525e-07
9.2375005e-09
1.157392e-05
-4.3832532e-07
5.9646599e-08
1.1897297e-05
-4.2242137e-07
1.4167357e-07
1.2117539e-05
-2.9625587e-07
2.3221726e-07
1.2242167e-05
-2.0790114e-07
3.2684406e-07
1.2323709e-05
-2.1942071e-07
4.3067097e-07
1.2404976e-05
-3.1699423e-07
5.4524179e-07
1.2511381e-05
-4.7110622e-07
6.7289759e-07
1.2639135e-05
-6.418149e-07
8.2002982e-07
1.2756964e-05
-7.9366174e-07
9.9382897e-07
1.2829943e-05
-9.1633572e-07
1.1930051e-06
1.2852792e-05
-1.0269199e-06
1.3967386e-06
1.2848531e-05
-1.1229967e-06
1.561954e-06
1.276533e-05
-1.0706009e-06
1.6156661e-06
1.230066e-05
-5.8722543e-07
1.4860892e-06
1.0850887e-05
5.444201e-07
1.110073e-06
2.9146711e-06
4.0838232e-07
9.2080825e-06
-2.1965151e-07
9.050251e-09
9.2971114e-06
-3.3135851e-07
1.7446499e-08
9.420249e-06
-3.532184e-07
2.3247969e-08
9.5835886e-06
-3.5405011e-07
2.6289231e-08
9.779559e-06
-3.4003643e-07
2.6828111e-08
9.9929464e-06
-3.1901109e-07
2.4833722e-08
1.0212925e-05
-2.9886699e-07
1.9889341e-08
1.0433347e-05
-2.8415456e-07
1.1362548e-08
1.0651591e-05
-2.7892635e-07
-1.3709232e-09
1.0871011e-05
-2.9046719e-07
-2.0706902e-08
1.1102976e-05
-3.3423779e-07
-4.5909877e-08
1.1380002e-05
-4.4345377e-07
-7.4840959e-08
1.1772703e-05
-6.8293757e-07
-9.5823942e-08
1.235057e-05
-1.1328984e-06
-8.2652028e-08
1.3038816e-05
-1.4935013e-06
-1.6244722e-08
1.3507827e-05
-1.3301648e-06
5.9056206e-08
1.3722263e-05
-1.0109788e-06
5.9056369e-08
1.3747983e-05
-8.5601021e-07
1.8005758e-08
1.3634663e-05
-8.9866206e-07
-6.1913243e-08
1.3415389e-05
-1.0611428e-06
-1.847963e-07
1.3134206e-05
-1.2794256e-06
-3.4309019e-07
1.2797858e-05
-1.482281e-06
-4.8279128e-07
1.2380423e-05
-1.6284122e-06
-5.4765948e-07
1.1852536e-05
-1.7161686e-06
-5.1746517e-07
1.1263919e-05
-1.8137641e-06
-4.265655e-07
1.0830401e-05
-2.0368134e-06
-3.1442182e-07
1.0840848e-05
-2.194228e-06
-3.623742e-07
1.1059216e-05
-1.5190688e-06
-7.284496e-07
1.117581e-05
-6.7805064e-08
-1.3106988e-06
2.2971318e-06
-1.9821668e-06
9.2683154e-06
-2.0817561e-07
9.1336994e-09
9.2324524e-06
-2.7648702e-07
1.7651345e-08
9.1924361e-06
-2.9001167e-07
2.3796346e-08
9.1542334e-06
-2.9138961e-07
2.7308913e-08
9.1247767e-06
-2.868331e-07
2.8263093e-08
9.1044516e-06
-2.7773291e-07
2.6396327e-08
9.0892222e-06
-2.6818124e-07
2.100929e-08
9.0737657e-06
-2.6240675e-07
1.1105124e-08
9.0521091e-06
-2.6496598e-07
-5.0860528e-09
9.0187563e-06
-2.8417777e-07
-3.1816376e-08
8.9666455e-06
-3.3912091e-07
-7.1398725e-08
8.8971753e-06
-4.7465905e-07
-1.2762779e-07
8.8500813e-06
-8.0269112e-07
-1.9423897e-07
8.9934462e-06
-1.5636924e-06
-2.2196171e-07
9.2206724e-06
-2.1756987e-06
-1.2954231e-07
8.9040544e-06
-1.5220554e-06
-4.3130057e-08
8.1477259e-06
-7.7713355e-07
-6.347816e-08
7.2645099e-06
-4.954569e-07
-1.9707989e-07
6.3715006e-06
-5.2305332e-07
-4.3706862e-07
5.5047999e-06
-7.0475223e-07
-7.4176933e-07
4.6760081e-06
-9.2331755e-07
-1.0366836e-06
3.9261839e-06
-1.1415783e-06
-1.2309654e-06
3.3014655e-06
-1.3655805e-06
-1.2531766e-06
2.8052798e-06
-1.5997509e-06
-1.0671244e-06
2.4016643e-06
-1.916034e-06
-6.6283776e-07
2.3781435e-06
-2.4228889e-06
-3.5247234e-07
3.1502755e-06
-2.9770374e-06
-5.4649943e-07
4.5382203e-06
-2.1709683e-06
-1.5874191e-06
5.7123272e-06
-1.5028007e-07
-2.6133117e-06
1.516323e-06
-3.4212888e-06
9.0713831e-06
8.8868315e-09
8.8134549e-06
1.7044484e-08
8.5460373e-06
2.2804868e-08
8.2784576e-06
2.5909006e-08
8.0147858e-06
2.6398279e-08
7.7576519e-06
2.396599e-08
7.505015e-06
1.7827295e-08
7.2493836e-06
6.9731765e-09
6.9795288e-06
-1.2699574e-08
6.6743894e-06
-4.5943071e-08
6.2913176e-06
-1.0168229e-07
5.7435687e-06
-1.9972409e-07
4.8403533e-06
-3.8384844e-07
3.187036e-06
-7.6840226e-07
9.0704005e-07
-1.3087667e-06
-1.1697144e-06
-1.2301432e-06
-2.4713259e-06
-1.053577e-06
-2.7733436e-06
-7.8305502e-07
-2.2259201e-06
-2.1720645e-07
-1.3626771e-06
4.06773e-07
-5.0970674e-07
7.560332e-07
2.1661809e-07
8.783252e-07
7.4628206e-07
8.732652e-07
9.9677577e-07
8.5094998e-07
8.4603998e-07
8.080792e-07
7.5488598e-08
6.9300284e-07
-1.099449e-06
-3.1212244e-07
-1.286201e-06
-1.9449974e-06
4.9167477e-07
-3.474502e-06
-4.4883643e-06
9.5671296e-06
-2.9141471e-07
1.1106852e-09
9.8402593e-06
-2.61271e-07
1.7024987e-09
1.0107347e-05
-2.5258154e-07
2.0376899e-09
1.0335886e-05
-2.1344787e-07
2.2806291e-09
1.0514738e-05
-1.6469737e-07
2.4988849e-09
1.0648441e-05
-1.2175057e-07
2.7657601e-09
1.0744498e-05
-8.7586821e-08
3.1768459e-09
1.0809386e-05
-6.1215841e-08
3.8420602e-09
1.0849239e-05
-4.2019821e-08
4.9802633e-09
1.0871146e-05
-3.1526797e-08
6.6164892e-09
1.0887678e-05
-3.5063005e-08
9.0724626e-09
1.0926669e-05
-6.5957819e-08
1.2723435e-08
1.1048601e-05
-1.513282e-07
1.7937016e-08
1.1392571e-05
-3.6134717e-07
2.5207516e-08
1.1802847e-05
-3.8245729e-07
3.1040401e-08
1.2120177e-05
-2.1247814e-07
3.7430974e-08
1.232886e-05
-1.9324834e-08
4.4692849e-08
1.246577e-05
1.3665137e-07
5.5043009e-08
1.2571774e-05
2.530357e-07
7.3383348e-08
1.269556e-05
3.1897448e-07
1.0430574e-07
1.2874075e-05
3.4811553e-07
1.4825603e-07
1.3108595e-05
3.865143e-07
2.0124524e-07
1.3355162e-05
4.9551768e-07
2.5434488e-07
1.3542838e-05
7.1019396e-07
2.981425e-07
1.3611286e-05
1.0026292e-06
3.2906933e-07
1.3469029e-05
1.3643363e-06
3.4358996e-07
1.2943046e-05
1.8109877e-06
3.3452341e-07
1.1745241e-05
2.3983733e-06
2.893358e-07
9.4044062e-06
3.2577327e-06
1.9667375e-07
4.8728516e-06
7.5406933e-08
9.2042285e-06
-2.1964421e-07
2.02223e-09
9.287782e-06
-3.313867e-07
4.0124499e-09
9.4055417e-06
-3.5312975e-07
6.0423658e-09
9.5638568e-06
-3.5361723e-07
8.1517585e-09
9.7546128e-06
-3.3898493e-07
1.0370552e-08
9.9619194e-06
-3.1700093e-07
1.2791145e-08
1.0174163e-05
-2.9558617e-07
1.5661307e-08
1.0384776e-05
-2.7949506e-07
1.9044858e-08
1.0591432e-05
-2.7326916e-07
2.3234645e-08
1.0796773e-05
-2.861972e-07
2.8612709e-08
1.1019301e-05
-3.3959655e-07
3.6022587e-08
1.1312669e-05
-4.8074021e-07
4.6336013e-08
1.1802042e-05
-7.974611e-07
6.0357193e-08
1.2590626e-05
-1.3100712e-06
7.6643715e-08
1.3255368e-05
-1.1472879e-06
8.3806023e-08
1.3720029e-05
-7.0840252e-07
9.0832293e-08
1.4047274e-05
-3.8175199e-07
9.5126e-08
1.4305783e-05
-1.9910743e-07
9.9174665e-08
1.4462581e-05
-6.7759074e-08
1.0967752e-07
1.4571469e-05
-1.0108275e-07
1.3824011e-07
1.4693246e-05
-2.7316997e-07
1.729057e-07
1.4860765e-05
-4.3264927e-07
1.90182e-07
1.5093085e-05
-4.3404607e-07
1.7560392e-07
1.5323322e-05
-1.5518415e-07
1.4770585e-07
1.5472083e-05
3.2779798e-07
1.3126072e-07
1.5343362e-05
1.0881744e-06
1.2141065e-07
1.4722625e-05
1.9940664e-06
1.0283973e-07
1.3315443e-05
3.0560853e-06
4.2971349e-08
1.0901288e-05
4.4732008e-06
-9.8835228e-08
6.2881485e-06
-2.9180865e-07
9.2645122e-06
-2.0814387e-07
2.0830146e-09
9.223099e-06
-2.7647347e-07
4.1529061e-09
9.1772992e-06
-2.8990018e-07
6.3682333e-09
9.1332157e-06
-2.9102974e-07
8.8066709e-09
9.0970592e-06
-2.8608663e-07
1.152333e-08
9.0682734e-06
-2.764586e-07
1.464209e-08
9.0414445e-06
-2.6631496e-07
1.8569669e-08
9.0098324e-06
-2.6008843e-07
2.331368e-08
8.9648486e-06
-2.6274167e-07
2.9373545e-08
8.8946564e-06
-2.8538282e-07
3.756341e-08
8.7882512e-06
-3.5412148e-07
4.952651e-08
8.6495022e-06
-5.3723455e-07
6.7587293e-08
8.5877674e-06
-1.0248155e-06
9.478563e-08
9.128398e-06
-2.2018223e-06
1.2978877e-07
9.130573e-06
-1.4122935e-06
1.3587277e-07
8.7996976e-06
-5.6278975e-07
1.4225345e-07
8.3727089e-06
-1.7079806e-07
1.5017896e-07
7.735959e-06
7.2854345e-08
1.6608914e-07
6.9468549e-06
9.4828145e-08
1.8857276e-07
5.9793357e-06
-8.9042262e-08
2.1232758e-07
4.8005079e-06
-3.4820643e-07
2.1499863e-07
3.6281816e-06
-6.6469726e-07
1.7060877e-07
2.8465379e-06
-9.7398583e-07
6.5715485e-08
2.8952636e-06
-1.2297538e-06
-4.2591759e-08
4.0563488e-06
-1.3090305e-06
-1.8652493e-07
6.0203534e-06
-8.6835935e-07
-3.567543e-07
7.601736e-06
3.2481274e-07
-4.5305296e-07
8.06294e-06
1.559287e-06
-5.4629129e-07
7.3678857e-06
3.2383827e-06
-6.8137923e-07
4.9725183e-06
-8.1890759e-07
9.0676549e-06
2.0415744e-09
8.8041791e-06
4.0484065e-09
8.530891e-06
6.1944917e-09
8.2572018e-06
8.5699866e-09
7.986268e-06
1.1247174e-08
7.7193611e-06
1.4415878e-08
7.4523808e-06
1.8494388e-08
7.1756734e-06
2.3593937e-08
6.8699516e-06
3.028258e-08
6.4987124e-06
3.9915913e-08
5.9879734e-06
5.4939048e-08
5.1713992e-06
7.9627195e-08
3.6405036e-06
1.2239919e-07
4.7301214e-07
2.0071011e-07
-2.4979989e-06
2.879241e-07
-4.4600018e-06
1.7608456e-07
-5.7419278e-06
5.9652623e-08
-6.4300163e-06
-2.2094102e-08
-6.4489058e-06
-1.0203982e-07
-5.901856e-06
-2.2657777e-07
-5.1223167e-06
-3.6895782e-07
-4.3797364e-06
-5.2674606e-07
-3.7794498e-06
-6.9937727e-07
-3.2997825e-06
-8.5766593e-07
-2.8859425e-06
-9.1479173e-07
-2.3134554e-06
-7.4795177e-07
-1.4131079e-06
-8.8658911e-07
-5.3390138e-07
-1.2548477e-06
5.6950475e-07
-1.3273197e-06
-1.1871646e-06
9.5671227e-06
-2.9135728e-07
-5.6462515e-09
9.8403769e-06
-2.6136479e-07
-1.013384e-08
1.010769e-05
-2.5282006e-07
-1.2385356e-08
1.0336561e-05
-2.138372e-07
-1.2670827e-08
1.0515891e-05
-1.6526432e-07
-1.1473833e-08
1.0650291e-05
-1.2250464e-07
-9.0291634e-09
1.0747316e-05
-8.8392846e-08
-5.3493284e-09
1.0813841e-05
-6.1939264e-08
-6.3253658e-10
1.0855586e-05
-4.261501e-08
5.9731167e-09
1.0880062e-05
-3.1795618e-08
1.4085685e-08
1.0900213e-05
-3.4362469e-08
2.3512125e-08
1.0943637e-05
-6.3018255e-08
3.2753599e-08
1.1068923e-05
-1.4361262e-07
3.7142099e-08
1.1407083e-05
-3.4197127e-07
3.0300374e-08
1.1816217e-05
-3.6773835e-07
-9.6905343e-09
1.213559e-05
-2.1104666e-07
-7.1257132e-08
1.2355626e-05
-3.1051851e-08
-1.4535259e-07
1.2520175e-05
1.1314093e-07
-2.2355522e-07
1.2677828e-05
2.2520498e-07
-3.1028755e-07
1.2874654e-05
3.1904903e-07
-4.1234824e-07
1.3131756e-05
4.3294776e-07
-5.4260148e-07
1.3425148e-05
6.2487952e-07
-7.1793364e-07
1.3694528e-05
9.1951865e-07
-9.3564576e-07
1.3873468e-05
1.2991109e-06
-1.1812784e-06
1.3894922e-05
1.7305012e-06
-1.424667e-06
1.3661841e-05
2.189809e-06
-1.6154588e-06
1.2993496e-05
2.689972e-06
-1.6899713e-06
1.1593904e-05
3.2643639e-06
-1.578697e-06
8.9952071e-06
3.970432e-06
-1.1784643e-06
5.1997556e-06
-4.9031741e-07
9.2044582e-06
-2.1959758e-07
-5.2247113e-09
9.2883047e-06
-3.3135776e-07
-9.8372439e-09
9.4064786e-06
-3.5315886e-07
-1.1786637e-08
9.5653747e-06
-3.5372121e-07
-1.0851873e-08
9.7569834e-06
-3.3919838e-07
-7.292964e-09
9.9658442e-06
-3.1733059e-07
-1.230179e-09
1.0180015e-05
-2.9584313e-07
8.9577486e-09
1.0393428e-05
-2.7950537e-07
2.3218292e-08
1.0603889e-05
-2.7277779e-07
4.2965725e-08
1.0815573e-05
-2.8456455e-07
6.9748524e-08
1.1047895e-05
-3.3509718e-07
1.0454884e-07
1.1355107e-05
-4.6916501e-07
1.4554238e-07
1.1857259e-05
-7.6851397e-07
1.8368988e-07
1.263657e-05
-1.239447e-06
1.9548342e-07
1.3320102e-05
-1.1172614e-06
1.4980237e-07
1.3802453e-05
-7.1040503e-07
1.0749511e-07
1.4150811e-05
-4.0440461e-07
1.1962412e-07
1.443821e-05
-2.4696429e-07
1.6973467e-07
1.4672338e-05
-1.5118875e-07
2.4680586e-07
1.4919108e-05
-1.5546236e-07
3.5455321e-07
1.5245028e-05
-2.1199421e-07
4.6996045e-07
1.5630595e-05
-1.4712592e-07
5.425937e-07
1.5966245e-05
1.8277689e-07
5.3761328e-07
1.6154099e-05
7.6533379e-07
4.5208055e-07
1.6137168e-05
1.514419e-06
3.2324988e-07
1.5802668e-05
2.3765133e-06
2.3103132e-07
1.4893335e-05
3.3424328e-06
3.2559335e-07
1.3082888e-05
4.4246126e-06
6.6341849e-07
1.0027556e-05
5.6685135e-06
1.2335586e-06
7.1770843e-06
1.9707249e-06
9.2647468e-06
-2.0812158e-07
-5.1779648e-09
9.2237454e-06
-2.7644984e-07
-9.751991e-09
9.1785368e-06
-2.8988551e-07
-1.1694868e-08
9.1352811e-06
-2.9102889e-07
-1.0628116e-08
9.1003243e-06
-2.8609808e-07
-6.6181758e-09
9.0739262e-06
-2.7641127e-07
1.2310646e-10
9.0499134e-06
-2.6619553e-07
1.2937334e-08
9.0224982e-06
-2.5971931e-07
3.0945637e-08
8.9839648e-06
-2.6195829e-07
5.7091082e-08
8.9257342e-06
-2.8339928e-07
9.4635018e-08
8.8412837e-06
-3.490228e-07
1.4791768e-07
8.7425497e-06
-5.2365398e-07
2.2085181e-07
8.7435735e-06
-9.8341112e-07
3.0871371e-07
9.3085414e-06
-2.0551308e-06
3.7972395e-07
9.4373192e-06
-1.440337e-06
3.2859195e-07
9.1992088e-06
-5.8395926e-07
2.5427322e-07
8.874623e-06
-2.2394055e-07
2.959515e-07
8.3867988e-06
5.9293949e-09
4.0246179e-07
7.7970414e-06
2.3582471e-08
6.0477782e-07
7.1011267e-06
-1.2862985e-07
8.8256276e-07
6.356252e-06
-3.8079821e-07
1.1300512e-06
5.9297056e-06
-7.3967917e-07
1.1925744e-06
6.157379e-06
-9.6293172e-07
9.8290337e-07
7.1761148e-06
-9.2507979e-07
6.2719336e-07
8.6653605e-06
-4.7527828e-07
3.0950795e-07
1.0032499e-05
3.9229131e-07
2.4600826e-07
1.0453965e-05
1.7788938e-06
6.6781375e-07
9.6711745e-06
3.1124136e-06
1.5234237e-06
7.3939359e-06
4.6672225e-06
2.5707041e-06
6.4209469e-06
3.5665022e-06
9.0678766e-06
-5.0030841e-09
8.8048047e-06
-9.3278792e-09
8.5321261e-06
-1.1010776e-08
8.2593333e-06
-9.6645706e-09
7.9898392e-06
-5.3550773e-09
7.7256195e-06
2.2258316e-09
7.4620514e-06
1.5868616e-08
7.1902057e-06
3.5721938e-08
6.8929979e-06
6.5533548e-08
6.5386893e-06
1.1082638e-07
6.0629801e-06
1.816252e-07
5.3218878e-06
2.9704879e-07
3.960848e-06
4.9975505e-07
1.200122e-06
9.0239522e-07
-1.4913504e-06
1.5066209e-06
-3.3308064e-06
1.4269818e-06
-4.5858872e-06
1.0889843e-06
-5.2746003e-06
6.7102646e-07
-5.2475242e-06
-1.0701592e-07
-4.6892937e-06
-9.1627799e-07
-3.9349522e-06
-1.5072413e-06
-3.3213588e-06
-1.8824671e-06
-2.8915015e-06
-2.0938881e-06
-2.4806961e-06
-2.1940703e-06
-1.7196734e-06
-2.1494485e-06
-4.9281693e-07
-1.5756333e-06
4.9135745e-07
-9.8117984e-08
6.8905885e-07
1.6591055e-06
2.3239141e-07
3.8037165e-06
7.660906e-06
9.570079e-06
-2.9087843e-07
-1.5838247e-08
9.8473489e-06
-2.6084738e-07
-2.6502705e-08
1.0118251e-05
-2.5243215e-07
-3.0783752e-08
1.0350088e-05
-2.137923e-07
-3.0628172e-08
1.0532121e-05
-1.6575283e-07
-2.7652688e-08
1.0669327e-05
-1.2366622e-07
-2.245566e-08
1.0769818e-05
-9.0549716e-08
-1.5167729e-08
1.0840307e-05
-6.522052e-08
-5.7654443e-09
1.0886706e-05
-4.6554916e-08
6.2846567e-09
1.0916175e-05
-3.5050329e-08
1.9863083e-08
1.0938133e-05
-3.3928863e-08
3.5771456e-08
1.0970982e-05
-5.1568176e-08
5.19634e-08
1.1052811e-05
-1.0749962e-07
6.3714935e-08
1.1291222e-05
-2.7215584e-07
6.5485501e-08
1.1638734e-05
-3.9925874e-07
4.3234996e-08
1.1960873e-05
-3.7214456e-07
-2.1235129e-08
1.2187473e-05
-2.4689444e-07
-1.2637929e-07
1.2329961e-05
-1.553326e-07
-2.1314835e-07
1.2433232e-05
-1.495205e-07
-2.6741585e-07
1.2527287e-05
-2.1066602e-07
-2.9992848e-07
1.2629445e-05
-3.1980511e-07
-3.2989841e-07
1.2736253e-05
-4.5654308e-07
-3.7396197e-07
1.2834734e-05
-6.0145764e-07
-4.3938823e-07
1.2918351e-05
-7.4975099e-07
-5.2302944e-07
1.2988647e-05
-8.8609458e-07
-6.1834549e-07
1.3021008e-05
-9.3981094e-07
-7.1953191e-07
1.289366e-05
-7.6834252e-07
-8.0785156e-07