/*--------------------------------*- C++ -*----------------------------------*\
| =========                 |                                                 |
| \\      /  F ield         | OpenFOAM: The Open Source CFD Toolbox           |
|  \\    /   O peration     | Version:  v2012                                 |
|   \\  /    A nd           | Website:  www.openfoam.com                      |
|    \\/     M anipulation  |                                                 |
\*---------------------------------------------------------------------------*/
FoamFile
{
    version     2.0;
    format      ascii;
    class       volScalarField;
    location    "340/topAir";
    object      rho;
}
// * * * * * * * * * * * * * * * * * * * * * * * * * * * * * * * * * * * * * //

dimensions      [1 -3 0 0 0 0 0];


internalField   nonuniform List<scalar> 
1200
(
1.0766708
1.0104952
0.95725323
0.91287122
0.8746817
0.8410832
0.81115159
0.78452287
0.76132002
0.74113668
0.72375723
0.70914015
0.69757594
0.6958394
0.69714386
0.7016255
0.70871483
0.71726569
0.72605273
0.73414798
0.74101714
0.74641604
0.7502635
0.75255049
0.75329724
0.75251117
0.7501047
0.74574019
0.73858373
0.72763963
1.1567234
1.1531575
1.1483074
1.1424139
1.1356554
1.1281724
1.1200934
1.1111512
1.0990356
1.0831866
1.0615647
1.0330736
0.99810152
0.96194346
0.92852091
0.90067341
0.87907278
0.86320073
0.85232056
0.84571031
0.84242696
0.84128112
0.84109596
0.84087492
0.83982616
0.83724487
0.83227755
0.82355621
0.80866279
0.78575856
1.1585778
1.1584583
1.1582365
1.1578908
1.1574027
1.1567564
1.1559395
1.1549324
1.1536582
1.152028
1.1497998
1.1432488
1.125505
1.0945789
1.0551043
1.0130918
0.97355844
0.93981298
0.91257725
0.89172606
0.87660166
0.86614615
0.8591265
0.85435149
0.85078755
0.847553
0.84380856
0.83849975
0.82977451
0.81502933
1.158618
1.158614
1.1586045
1.1585858
1.1585535
1.158502
1.1584248
1.1583139
1.1581577
1.1579381
1.1576133
1.1569271
1.1547174
1.1422297
1.1098327
1.0674455
1.0261753
0.9893809
0.95774941
0.9314975
0.91055055
0.89443664
0.88234582
0.87333953
0.86652363
0.86111656
0.85641182
0.85163026
0.84553789
0.83614542
1.0767001
1.0112008
0.95907005
0.91612154
0.87968904
0.84821724
0.82081664
0.79700643
0.77660394
0.75966714
0.74644442
0.73731729
0.73286895
0.74165203
0.75476398
0.77069525
0.78669585
0.80015714
0.81001513
0.81661754
0.82086513
0.82344127
0.82464815
0.82451357
0.82298987
0.82000796
0.81534094
0.80820685
0.79666886
0.77973776
1.1567262
1.1532274
1.1485609
1.1430016
1.1367613
1.1300165
1.122939
1.115717
1.1085621
1.1017386
1.095572
1.0904644
1.0868683
1.0855093
1.0860329
1.0867805
1.0855063
1.0810995
1.0742406
1.0661086
1.0574169
1.0482354
1.0384354
1.0278504
1.0163664
1.0039442
0.99062233
0.97659999
0.96175427
0.93724381
1.1585779
1.1584617
1.1582514
1.1579323
1.1574939
1.1569299
1.1562386
1.1554246
1.1544988
1.1534841
1.1524174
1.1512806
1.1500502
1.1487825
1.1459159
1.1385212
1.1237723
1.1019909
1.0779736
1.0556748
1.0366517
1.0187827
1.0017116
0.98528439
0.96965658
0.95424199
0.938429
0.92201143
0.90481317
0.88634826
1.158618
1.1586142
1.1586053
1.1585884
1.1585602
1.1585169
1.1584543
1.1583681
1.1582537
1.1581061
1.157917
1.157653
1.1571135
1.1548133
1.145692
1.1228216
1.0871978
1.0467704
1.0084655
0.97515956
0.94812635
0.92799729
0.91250237
0.89998548
0.88951436
0.88099849
0.87399483
0.867833
0.86171074
0.8549901
1.0767291
1.0111272
0.95886949
0.91577999
0.87918014
0.84749972
0.81978788
0.79541427
0.77402072
0.75547997
0.73987177
0.72751027
0.71925164
0.7254881
0.73745082
0.75411274
0.77264287
0.790749
0.80719455
0.82141859
0.83319329
0.84233252
0.84857444
0.85171985
0.85182793
0.84926647
0.84442574
0.8371737
0.82546123
0.80251044
1.1567266
1.1532171
1.1485308
1.1429462
1.1366737
1.1298825
1.1227246
1.1153505
1.107931
1.1006884
1.0939259
1.0880886
1.0838643
1.0825044
1.0839989
1.0858116
1.0855638
1.0829983
1.078252
1.0715388
1.0630103
1.0525401
1.0398779
1.0250632
1.0085502
0.99087516
0.97213917
0.95268707
0.93226966
0.90700255
1.1585779
1.1584612
1.1582499
1.1579293
1.1574896
1.1569246
1.1562326
1.1554164
1.1544858
1.1534612
1.1523835
1.1513268
1.1504181
1.1497139
1.1472184
1.137296
1.1218387
1.1066425
1.0915137
1.0758729
1.0591916
1.0402619
1.0185147
0.99507419
0.9719213
0.95066262
0.93105461
0.91294937
0.89622539
0.87695766
1.158618
1.1586142
1.1586052
1.1585883
1.1585601
1.158517
1.158455
1.1583702
1.1582585
1.158116
1.1579395
1.1577237
1.1574237
1.1563339
1.146303
1.1116509
1.074353
1.0558393
1.0317152
1.0014073
0.97339976
0.95092675
0.93321675
0.91890827
0.90696031
0.8968911
0.88825168
0.88064849
0.86942519
0.85271597
1.0767599
1.0111389
0.95880969
0.91559862
0.87880325
0.84680717
0.81859045
0.79345947
0.77093287
0.75068847
0.73258588
0.71674658
0.70401469
0.70572111
0.71013969
0.71358783
0.7143698
0.71338732
0.71247879
0.71291668
0.71526771
0.71936818
0.72455242
0.73010578
0.73557227
0.74039394
0.74255688
0.73776073
0.72461036
0.70939636
1.1567272
1.1532147
1.1485161
1.1429051
1.1365846
1.1297094
1.1224071
1.1147923
1.1069824
1.0991273
1.0914683
1.0844574
1.0789567
1.0764579
1.0753578
1.0723093
1.0677042
1.0624721
1.0569759
1.0509778
1.0438087
1.0346376
1.0228397
1.0084423
0.99193997
0.97358438
0.95321495
0.93211692
0.8991527
0.83599238
1.1585779
1.158461
1.158249
1.1579265
1.1574829
1.1569107
1.1562057
1.1553669
1.1543982
1.1533125
1.1521435
1.1509736
1.14997
1.1488589
1.140527
1.1226807
1.1088685
1.0986882
1.0886932
1.0759923
1.0584399
1.0351585
1.0070835
0.9780792
0.95186733
0.92890428
0.9073464
0.88995796
0.87254766
0.84080625
1.158618
1.1586141
1.1586052
1.1585881
1.1585596
1.1585159
1.1584528
1.1583658
1.1582503
1.1581011
1.1579129
1.1576739
1.1572393
1.1540314
1.1168812
1.0399704
1.0036666
1.0021315
1.0047726
0.99489282
0.97586743
0.95642912
0.9397847
0.92653276
0.91457522
0.90290471
0.88529274
0.86523027
0.84231638
0.81913265
1.0768032
1.0111989
0.9588672
0.91564187
0.87882114
0.84678776
0.8185191
0.79332039
0.77071001
0.75039122
0.73227797
0.71664707
0.70467976
0.70987984
0.71468687
0.71541862
0.71181295
0.70640613
0.70033104
0.69412102
0.68823183
0.68304918
0.67885658
0.67580677
0.67388671
0.67283224
0.67188459
0.66962942
0.66431502
0.65407959
1.1567282
1.1532159
1.1485142
1.1428956
1.1365614
1.1296642
1.1223286
1.114666
1.1067923
1.0988667
1.0911746
1.0843009
1.0793542
1.0775771
1.0739791
1.068602
1.0622968
1.0511934
1.036662
1.0212837
1.006683
0.99210751
0.974979
0.95329086
0.92748161
0.89852821
0.86694851
0.83226755
0.79237065
0.74431123
1.158578
1.158461
1.1582487
1.1579255
1.1574803
1.1569053
1.1561955
1.1553492
1.1543693
1.1532693
1.152089
1.1509367
1.1499987
1.1477607
1.1286089
1.1149444
1.1068489
1.1013243
1.0950395
1.0855643
1.0686107
1.0420547
1.0075219
0.97277975
0.94627083
0.927508
0.90912557
0.88273189
0.84493888
0.79398283
1.158618
1.1586141
1.1586052
1.1585881
1.1585594
1.1585154
1.1584517
1.1583636
1.158246
1.1580933
1.1578984
1.1576364
1.1569168
1.1482946
1.0357105
0.9839677
0.97244449
0.96644977
0.96026193
0.95316401
0.94427261
0.9331067
0.92151555
0.91050457
0.90026939
0.89093846
0.88156679
0.86786109
0.83661643
0.79754275
1.0768599
1.0112959
0.95899506
0.91579516
0.87899766
0.84698639
0.81873928
0.79356074
0.77097147
0.75067433
0.7325779
0.71695317
0.70495854
0.70994579
0.71455075
0.71516683
0.71154182
0.70592272
0.69957847
0.69299798
0.68660161
0.6807902
0.67591889
0.67225502
0.66988642
0.66855669
0.6674777
0.6652496
0.66001734
0.64966578
1.1567296
1.15322
1.1485222
1.1429086
1.1365807
1.1296913
1.122365
1.1147131
1.1068521
1.098941
1.0912652
1.0844044
1.0794347
1.0774596
1.0739695
1.0687052
1.0624908
1.0519211
1.0376219
1.0207495
1.0011339
0.97698368
0.9478309
0.91505424
0.88060003
0.84646232
0.81363671
0.78191818
0.74985385
0.71365266
1.158578
1.1584612
1.158249
1.1579261
1.1574814
1.1569071
1.1561983
1.1553535
1.1543757
1.1532787
1.1521032
1.1509572
1.1500077
1.1477272
1.1312225
1.1183384
1.1105209
1.105629
1.1000059
1.091196
1.0764361
1.0539019
1.0253335
0.99432776
0.96436096
0.93252175
0.89701504
0.85761891
0.81343894
0.76240235
1.158618
1.1586142
1.1586052
1.1585881
1.1585595
1.1585155
1.1584519
1.158364
1.1582468
1.1580945
1.1579001
1.157634
1.1568541
1.1483211
1.0528041
0.9941643
0.98317215
0.97755525
0.97250956
0.9661255
0.95519832
0.94191133
0.92853767
0.9161289
0.90481283
0.89661079
0.8863408
0.85855596
0.8186756
0.77074054
1.0769169
1.0114065
0.95915987
0.91601515
0.87927557
0.84733049
0.81916737
0.79409505
0.77162724
0.75144539
0.73340238
0.71762376
0.70495865
0.7065945
0.71032174
0.71274085
0.71242647
0.71027615
0.70796522
0.70661181
0.70690824
0.70914544
0.71322302
0.71884646
0.72537515
0.73130954
0.73394753
0.72991309
0.71927212
0.70417377
1.1567311
1.153226
1.1485378
1.1429402
1.1366361
1.1297801
1.1225006
1.1149128
1.1071352
1.0993178
1.0917029
1.0847479
1.0793118
1.0767553
1.0751204
1.0718259
1.0671356
1.0618639
1.056321
1.0503174
1.0433287
1.0346266
1.0236873
1.0104697
0.99502968
0.97724447
0.95727094
0.93554201
0.89722394
0.83074343
1.158578
1.1584614
1.1582498
1.1579282
1.1574859
1.1569156
1.1562132
1.155378
1.1544145
1.1533359
1.152177
1.1510228
1.1500315
1.1487771
1.140332
1.1250752
1.1131463
1.1044437
1.0956676
1.0848714
1.0704095
1.0509286
1.0264599
0.99825759
0.96695856
0.93408113
0.90515933
0.88274944
0.8608215
0.82464753
1.158618
1.1586142
1.1586052
1.1585882
1.1585598
1.1585163
1.1584534
1.1583669
1.1582521
1.1581042
1.1579178
1.1576777
1.1571892
1.1534389
1.115681
1.0525074
1.0130993
1.0127732
1.0152843
0.99925491
0.97713431
0.95572553
0.93774768
0.92240506
0.90531815
0.88653134
0.86708581
0.84793805
0.82609213
0.80023761
1.0769642
1.0115291
0.95939628
0.91640777
0.87989456
0.84829544
0.82066582
0.79637842
0.7750774
0.75662877
0.7410999
0.72879569
0.72057137
0.72671092
0.73819081
0.75380394
0.77100336
0.78790801
0.80339572
0.81692944
0.82843874
0.83796155
0.84533703
0.85020111
0.85220617
0.85128528
0.8475455
0.84088987
0.829454
0.80840377
1.1567324
1.153234
1.1485633
1.1429987
1.1367507
1.1299887
1.1228649
1.1155295
1.1081534
1.1009534
1.0942251
1.0884134
1.0842047
1.0827976
1.0839222
1.0852559
1.0848555
1.0825052
1.0782092
1.0721404
1.0645142
1.0552123
1.0438041
1.0298919
1.0133622
0.99444539
0.97348261
0.95124466
0.9274566
0.89914885
1.1585781
1.1584617
1.1582511
1.1579318
1.157494
1.1569319
1.1562438
1.1554329
1.1545088
1.1534921
1.1524234
1.1513767
1.1504773
1.1497182
1.1467929
1.1373742
1.1233469
1.1095915
1.0956476
1.0812755
1.0664393
1.0497735
1.0298626
1.0063957
0.98019162
0.9536508
0.92890568
0.90728996
0.88574143
0.85930572
1.158618
1.1586142
1.1586053
1.1585884
1.1585604
1.1585175
1.158456
1.1583718
1.1582612
1.1581203
1.157946
1.1577321
1.1574146
1.1560738
1.1446063
1.1126145
1.0782391
1.062141
1.0378126
1.0056022
0.97535643
0.95139142
0.93264902
0.91754193
0.9047348
0.89360307
0.88413149
0.87573181
0.85947232
0.82775641
1.0769823
1.011679
0.95969227
0.91685869
0.88052239
0.84913681
0.82182165
0.79809088
0.77775938
0.76086777
0.74765447
0.73848965
0.73396416
0.74263326
0.75575464
0.77188149
0.7881739
0.80186682
0.81170175
0.8179421
0.82158974
0.82351802
0.82425583
0.82400994
0.82277283
0.8203752
0.81642572
0.81008985
0.79945571
0.78208319
1.1567332
1.1532474
1.1485992
1.1430631
1.136851
1.130139
1.1230989
1.1159177
1.1088015
1.1020059
1.0958554
1.090744
1.0871285
1.0857701
1.0863781
1.0873484
1.0863216
1.0820828
1.0752382
1.0670388
1.0583295
1.0492316
1.0396246
1.0292273
1.0177126
1.0048322
0.99056212
0.97513329
0.95833549
0.93480086
1.1585781
1.1584623
1.1582529
1.1579353
1.1574992
1.1569386
1.1562521
1.1554444
1.1545266
1.1535209
1.1524636
1.1513416
1.1501302
1.1489446
1.1463778
1.1396429
1.12547
1.1040864
1.0798978
1.0570157
1.037455
1.0185947
1.0003231
0.98275987
0.96640325
0.95066638
0.93423781
0.9171159
0.89938689
0.88074531
1.158618
1.1586142
1.1586053
1.1585886
1.1585606
1.1585176
1.1584555
1.1583703
1.1582574
1.1581121
1.1579272
1.1576748
1.1571949
1.1553025
1.1474091
1.1268849
1.0937014
1.053816
1.0146453
0.97986136
0.95128473
0.93034453
0.91415797
0.90113058
0.89004127
0.88060979
0.87301962
0.86646602
0.8600582
0.85240972
1.0769789
1.0110182
0.95793394
0.91367838
0.87559854
0.84209899
0.81225273
0.78568655
0.76253683
0.74239523
0.72504244
0.71042983
0.69883931
0.69700472
0.69818508
0.70254753
0.70955004
0.71804805
0.72677564
0.73475011
0.74141191
0.74654001
0.75012038
0.75222506
0.75292587
0.75222817
0.74999853
0.7458543
0.73893136
0.72804209
1.156731
1.1531796
1.14835
1.1424829
1.1357567
1.1283118
1.120276
1.111421
1.0994222
1.0837502
1.0624447
1.0344723
1.000164
0.96456401
0.93139798
0.90349729
0.88162984
0.8653657
0.85400135
0.8468479
0.84302325
0.84139813
0.84085426
0.84042161
0.83926809
0.83659817
0.83148594
0.82259953
0.80765618
0.78520664
1.158578
1.158459
1.1582382
1.1578942
1.1574089
1.1567666
1.1559554
1.1549571
1.1536957
1.1520838
1.1498898
1.143593
1.1268733
1.0974067
1.059187
1.0178613
0.97858635
0.94455553
0.91669342
0.89502682
0.87903129
0.86775187
0.86002483
0.85469238
0.8507131
0.84716169
0.84314437
0.83759176
0.8287064
0.81413338
1.158618
1.1586141
1.1586046
1.158586
1.1585539
1.1585028
1.1584263
1.1583167
1.1581626
1.1579469
1.1576311
1.1569886
1.1550532
1.1446176
1.1155359
1.0745561
1.033361
0.9959708
0.96342391
0.93610392
0.91405818
0.89692566
0.88396019
0.87424055
0.86686077
0.86100793
0.85594075
0.85085221
0.84451058
0.83506248
)
;

boundaryField
{
    maxY
    {
        type            calculated;
        value           nonuniform List<scalar> 
300
(
1.1586175
1.1586175
1.1586175
1.1586175
1.1586175
1.1586175
1.1586175
1.1586175
1.1586175
1.1586175
1.1586135
1.1586137
1.1586136
1.1586136
1.1586136
1.1586136
1.1586136
1.1586136
1.1586137
1.1586135
1.158604
1.1586048
1.1586047
1.1586046
1.1586046
1.1586046
1.1586047
1.1586047
1.1586048
1.1586041
1.1585853
1.1585879
1.1585878
1.1585876
1.1585875
1.1585876
1.1585877
1.1585879
1.1585881
1.1585855
1.158553
1.1585597
1.1585596
1.1585591
1.1585589
1.158559
1.1585593
1.1585598
1.15856
1.1585534
1.1585015
1.1585164
1.1585164
1.1585154
1.1585149
1.158515
1.1585157
1.158517
1.158517
1.1585023
1.1584243
1.1584538
1.1584545
1.1584523
1.1584511
1.1584514
1.1584529
1.1584554
1.158455
1.1584258
1.1583134
1.1583676
1.1583696
1.1583653
1.1583631
1.1583635
1.1583664
1.1583713
1.1583698
1.1583162
1.1581571
1.1582532
1.1582579
1.1582497
1.1582455
1.1582462
1.1582516
1.1582606
1.1582569
1.1581621
1.1579376
1.1581055
1.1581155
1.1581006
1.1580928
1.158094
1.1581037
1.1581198
1.1581116
1.1579464
1.1576128
1.1579165
1.157939
1.1579124
1.1578978
1.1578996
1.1579173
1.1579455
1.1579267
1.1576306
1.1569266
1.1576525
1.1577232
1.1576734
1.1576359
1.1576334
1.1576772
1.1577316
1.1576743
1.1569881
1.1547169
1.157113
1.1574232
1.1572388
1.1569163
1.1568536
1.1571887
1.1574141
1.1571943
1.1550526
1.1422292
1.1548128
1.1563334
1.1540309
1.148294
1.1483206
1.1534383
1.1560733
1.1553019
1.1446171
1.1098322
1.1456914
1.1463024
1.1168808
1.0357101
1.0528037
1.1156805
1.1446058
1.1474086
1.1155354
1.067445
1.1228211
1.1116504
1.03997
0.98396732
0.99416391
1.0525069
1.112614
1.1268844
1.0745557
1.0261749
1.0871974
1.0743526
1.0036662
0.97244412
0.98317178
1.0130989
1.0782387
1.0937009
1.0333606
0.98938052
1.0467699
1.0558389
1.0021311
0.9664494
0.97755488
1.0127728
1.0621406
1.0538155
0.99597041
0.95774905
1.0084651
1.0317148
1.0047722
0.96026156
0.97250919
1.0152839
1.0378122
1.0146448
0.96342355
0.93149716
0.97515919
1.0014069
0.99489243
0.95316366
0.96612513
0.99925452
1.0056018
0.97986099
0.93610357
0.91055023
0.948126
0.97339939
0.97586705
0.94427226
0.95519796
0.97713393
0.97535605
0.95128438
0.91405785
0.89443633
0.92799696
0.9509264
0.95642876
0.93310636
0.94191098
0.95572517
0.95139106
0.93034419
0.89692535
0.88234551
0.91250204
0.93321641
0.93978435
0.92151521
0.92853734
0.93774734
0.93264868
0.91415765
0.88395989
0.87333923
0.89998516
0.91890794
0.92653243
0.91050425
0.91612857
0.92240473
0.9175416
0.90113026
0.87424025
0.86652334
0.88951405
0.90695999
0.91457489
0.90026907
0.90481251
0.90531782
0.90473448
0.89004096
0.86686048
0.86111627
0.88099819
0.89689078
0.90290439
0.89093815
0.89661047
0.88653103
0.89360276
0.88060948
0.86100764
0.85641153
0.87399453
0.88825137
0.88529244
0.88156649
0.88634049
0.86708552
0.88413118
0.87301932
0.85594046
0.85162997
0.86783271
0.88064818
0.86522998
0.86786079
0.85855567
0.84793777
0.87573151
0.86646572
0.85085193
0.84553761
0.86171045
0.8694249
0.8423161
0.83661615
0.81867534
0.82609187
0.85947203
0.86005791
0.8445103
0.83614515
0.85498981
0.85271569
0.81913239
0.7975425
0.77074031
0.80023736
0.82775614
0.85240943
0.83506221
)
;
    }
    minX
    {
        type            calculated;
        value           nonuniform List<scalar> 
40
(
1.1586221
1.1586211
1.15862
1.158619
1.1586221
1.1586211
1.15862
1.158619
1.1586221
1.1586211
1.15862
1.158619
1.1586221
1.1586211
1.15862
1.158619
1.1586221
1.1586211
1.15862
1.158619
1.1586221
1.1586211
1.15862
1.158619
1.1586221
1.1586211
1.15862
1.158619
1.1586221
1.1586211
1.15862
1.158619
1.1586221
1.1586211
1.15862
1.158619
1.1586221
1.1586211
1.15862
1.158619
)
;
    }
    maxX
    {
        type            calculated;
        value           nonuniform List<scalar> 
40
(
0.72760816
0.78569365
0.81501458
0.8361633
0.77967016
0.93722715
0.88638459
0.85500109
0.80246583
0.90714497
0.87725732
0.85345943
0.70945198
0.83589688
0.84087699
0.82028709
0.65414289
0.74437401
0.79385198
0.79819154
0.64956702
0.71312889
0.76171532
0.77110953
0.70397869
0.83026935
0.82456135
1.1586179
0.80800149
0.89926665
0.85979157
0.82868417
0.78185506
0.93460545
0.88072252
0.85258284
0.72791366
0.78499038
0.81399775
0.83500711
)
;
    }
    minZ
    {
        type            calculated;
        value           nonuniform List<scalar> 
120
(
1.0766708
1.1567234
1.1585778
1.158618
1.0104952
1.1531575
1.1584583
1.158614
0.95725323
1.1483074
1.1582365
1.1586045
0.91287122
1.1424139
1.1578908
1.1585858
0.8746817
1.1356554
1.1574027
1.1585535
0.8410832
1.1281724
1.1567564
1.158502
0.81115159
1.1200934
1.1559395
1.1584248
0.78452287
1.1111512
1.1549324
1.1583139
0.76132002
1.0990356
1.1536582
1.1581577
0.74113668
1.0831866
1.152028
1.1579381
0.72375723
1.0615647
1.1497998
1.1576133
0.70914015
1.0330736
1.1432488
1.1569271
0.69757594
0.99810152
1.125505
1.1547174
0.6958394
0.96194346
1.0945789
1.1422297
0.69714386
0.92852091
1.0551043
1.1098327
0.7016255
0.90067341
1.0130918
1.0674455
0.70871483
0.87907278
0.97355844
1.0261753
0.71726569
0.86320073
0.93981298
0.9893809
0.72605273
0.85232056
0.91257725
0.95774941
0.73414798
0.84571031
0.89172606
0.9314975
0.74101714
0.84242696
0.87660166
0.91055055
0.74641604
0.84128112
0.86614615
0.89443664
0.7502635
0.84109596
0.8591265
0.88234582
0.75255049
0.84087492
0.85435149
0.87333953
0.75329724
0.83982616
0.85078755
0.86652363
0.75251117
0.83724487
0.847553
0.86111656
0.7501047
0.83227755
0.84380856
0.85641182
0.74574019
0.82355621
0.83849975
0.85163026
0.73858373
0.80866279
0.82977451
0.84553789
0.72763963
0.78575856
0.81502933
0.83614542
)
;
    }
    maxZ
    {
        type            calculated;
        value           nonuniform List<scalar> 
120
(
1.0769789
1.156731
1.158578
1.158618
1.0110182
1.1531796
1.158459
1.1586141
0.95793394
1.14835
1.1582382
1.1586046
0.91367838
1.1424829
1.1578942
1.158586
0.87559854
1.1357567
1.1574089
1.1585539
0.84209899
1.1283118
1.1567666
1.1585028
0.81225273
1.120276
1.1559554
1.1584263
0.78568655
1.111421
1.1549571
1.1583167
0.76253683
1.0994222
1.1536957
1.1581626
0.74239523
1.0837502
1.1520838
1.1579469
0.72504244
1.0624447
1.1498898
1.1576311
0.71042983
1.0344723
1.143593
1.1569886
0.69883931
1.000164
1.1268733
1.1550532
0.69700472
0.96456401
1.0974067
1.1446176
0.69818508
0.93139798
1.059187
1.1155359
0.70254753
0.90349729
1.0178613
1.0745561
0.70955004
0.88162984
0.97858635
1.033361
0.71804805
0.8653657
0.94455553
0.9959708
0.72677564
0.85400135
0.91669342
0.96342391
0.73475011
0.8468479
0.89502682
0.93610392
0.74141191
0.84302325
0.87903129
0.91405818
0.74654001
0.84139813
0.86775187
0.89692566
0.75012038
0.84085426
0.86002483
0.88396019
0.75222506
0.84042161
0.85469238
0.87424055
0.75292587
0.83926809
0.8507131
0.86686077
0.75222817
0.83659817
0.84716169
0.86100793
0.74999853
0.83148594
0.84314437
0.85594075
0.7458543
0.82259953
0.83759176
0.85085221
0.73893136
0.80765618
0.8287064
0.84451058
0.72804209
0.78520664
0.81413338
0.83506248
)
;
    }
    topAir_to_rightSolid
    {
        type            calculated;
        value           nonuniform List<scalar> 
130
(
0.4690084
0.46417353
0.45922804
0.45443429
0.44995574
0.44589427
0.44230014
0.43919578
0.43659311
0.43450348
0.4329419
0.43190283
0.43138202
0.47261615
0.4668967
0.4612062
0.4558256
0.45091695
0.44655178
0.44274831
0.43950569
0.43681963
0.43467967
0.43308368
0.43202201
0.43148982
0.48003246
0.47222317
0.46489147
0.45832243
0.45258651
0.44766406
0.443493
0.44001701
0.43719149
0.4349676
0.43331741
0.43221994
0.4316693
0.49158415
0.47964358
0.46958326
0.46128989
0.45447565
0.44887509
0.44428654
0.44056134
0.4375855
0.43527439
0.43356674
0.43243066
0.43186119
0.50598637
0.48695079
0.47356543
0.46358734
0.45586235
0.44974377
0.44486267
0.44096623
0.43788857
0.43551597
0.43377037
0.43261422
0.43203853
0.50616187
0.48711492
0.47371536
0.46372629
0.45599247
0.44987247
0.44499306
0.44110158
0.43802967
0.43566192
0.43392029
0.43276603
0.43219466
0.49207128
0.48009333
0.46999869
0.46167634
0.45483922
0.44922044
0.44464043
0.44093454
0.43798016
0.43568518
0.43399031
0.43287397
0.43231981
0.48072581
0.47286646
0.46549578
0.45889453
0.45313278
0.44818949
0.44402698
0.44058575
0.43779844
0.43560804
0.43399263
0.43292717
0.43239682
0.47338471
0.46762003
0.46188972
0.45647799
0.45154504
0.44716585
0.44337678
0.44018016
0.43755097
0.43547251
0.43392971
0.43290882
0.43239925
0.4697967
0.46491345
0.45993126
0.45510172
0.45059942
0.44653743
0.44296938
0.43991626
0.43738273
0.4353695
0.43386937
0.43287382
0.43237614
)
;
    }
    topAir_to_heater
    {
        type            calculated;
        value           nonuniform List<scalar> 
40
(
0.48080649
0.47950472
0.47698071
0.4733995
0.48695378
0.48538122
0.48230436
0.47792685
0.50042643
0.49825508
0.49391732
0.48763835
0.52400583
0.52099555
0.51461098
0.50461469
0.56264733
0.55949088
0.55132978
0.53555063
0.56280828
0.55964966
0.55149056
0.53571705
0.52452764
0.52150975
0.5151218
0.50511792
0.50127585
0.49907762
0.49470613
0.48838676
0.48798901
0.48636772
0.4832091
0.47875242
0.48190494
0.48055516
0.47793557
0.4742543
)
;
    }
    topAir_to_leftSolid
    {
        type            calculated;
        value           nonuniform List<scalar> 
130
(
0.40386049
0.40389092
0.40394784
0.404027
0.40412169
0.40421323
0.40429953
0.40438319
0.40446363
0.40454011
0.40460223
0.40464525
0.40466892
0.40389942
0.40392626
0.40398242
0.40406273
0.4041653
0.40426839
0.40436628
0.40446462
0.40456324
0.4046499
0.40472086
0.40477302
0.4048029
0.40397297
0.40399763
0.40405335
0.40413874
0.40425498
0.40437919
0.40449803
0.40461901
0.40474749
0.40486418
0.40496366
0.40503595
0.40507693
0.40408069
0.40410626
0.40416418
0.40425927
0.40438891
0.40453388
0.40467857
0.40483296
0.40499198
0.40515315
0.40531132
0.40542167
0.4054812
0.40422583
0.4042535
0.40431489
0.40441579
0.40455189
0.40471361
0.40487848
0.40505287
0.40524198
0.40545204
0.40561889
0.4057303
0.40579626
0.40442357
0.40445061
0.40450999
0.40460543
0.40473571
0.40488742
0.40505341
0.40523262
0.40543074
0.40565403
0.40582725
0.40594283
0.40600613
0.40463139
0.40465678
0.40471292
0.40480058
0.40491347
0.40505047
0.40520737
0.40537565
0.40556255
0.40577127
0.40592692
0.40603114
0.40608661
0.40479806
0.40482696
0.40488271
0.40496042
0.40505859
0.4051783
0.40531838
0.40546262
0.40561572
0.40578032
0.40592146
0.40602017
0.40607127
0.40489275
0.40492115
0.40498001
0.40506196
0.40515553
0.40526203
0.40537924
0.40550146
0.40562589
0.40574926
0.40586175
0.40595009
0.40600395
0.40494483
0.40497029
0.40502326
0.40510277
0.40520128
0.40530187
0.40540522
0.4055103
0.40561752
0.40572331
0.40582071
0.40589612
0.40594614
)
;
    }
}


// ************************************************************************* //
