/*--------------------------------*- C++ -*----------------------------------*\
| =========                 |                                                 |
| \\      /  F ield         | OpenFOAM: The Open Source CFD Toolbox           |
|  \\    /   O peration     | Version:  v2012                                 |
|   \\  /    A nd           | Website:  www.openfoam.com                      |
|    \\/     M anipulation  |                                                 |
\*---------------------------------------------------------------------------*/
FoamFile
{
    version     2.0;
    format      ascii;
    class       volScalarField;
    location    "340/topAir";
    object      T;
}
// * * * * * * * * * * * * * * * * * * * * * * * * * * * * * * * * * * * * * //

dimensions      [0 0 0 1 0 0 0];


internalField   nonuniform List<scalar> 
1200
(
322.83464
343.97654
363.10832
380.76193
397.38639
413.26066
428.51003
443.05475
456.55777
468.99118
480.25297
490.15212
498.27771
499.5212
498.58651
495.40178
490.44622
484.59938
478.73451
473.45564
469.06674
465.67393
463.28589
461.87796
461.42009
461.90209
463.38394
466.09594
470.61214
477.69042
300.49218
301.42139
302.6945
304.25605
306.06673
308.09683
310.31904
312.81639
316.26485
320.89237
327.42829
336.45842
348.24745
361.33755
374.34406
385.91822
395.40102
402.67142
407.81166
410.9992
412.60106
413.16303
413.25398
413.36261
413.8788
415.15482
417.63261
422.05527
429.82841
442.35757
300.01094
300.04189
300.09933
300.18893
300.31553
300.48332
300.69569
300.95788
301.2903
301.71665
302.30132
304.03355
308.82672
317.55227
329.43284
343.09427
357.02633
369.84592
380.88392
389.7901
396.51533
401.30178
404.5807
406.84191
408.54617
410.10532
411.92519
414.53322
418.89212
426.47055
300.00027
300.00129
300.00375
300.00859
300.01696
300.0303
300.05029
300.07901
300.1195
300.1764
300.26063
300.43872
301.01364
304.30455
313.18749
325.62385
338.71964
351.31639
362.91929
373.14727
381.73142
388.60859
393.93372
397.99615
401.12671
403.64544
405.86289
408.14165
411.08244
415.70015
322.82585
343.73651
362.42047
379.41102
395.1244
409.78488
423.46436
436.11516
447.57251
457.55115
465.65633
471.4206
474.282
468.66528
460.5235
451.00387
441.8309
434.39783
429.11115
425.64175
423.43925
422.11451
421.49674
421.56553
422.34602
423.88185
426.30814
430.07119
436.29981
445.77355
300.49144
301.4031
302.62768
304.0996
305.76896
307.59403
309.53268
311.53627
313.54699
315.4889
317.26468
318.75072
319.80535
320.20574
320.05135
319.83118
320.20661
321.51184
323.56464
326.0327
328.71261
331.5918
334.7211
338.16813
341.98912
346.22069
350.87664
355.91463
361.40855
370.85995
300.0109
300.04101
300.09547
300.17818
300.29188
300.43828
300.61789
300.82969
301.07091
301.33577
301.61467
301.9125
302.23551
302.56903
303.32594
305.29602
309.30285
315.41637
322.44386
329.25477
335.29677
341.17772
346.99204
352.7773
358.46296
364.25349
370.39134
376.98662
384.1522
392.15507
300.00026
300.00125
300.00355
300.00791
300.01521
300.02644
300.04265
300.06497
300.09461
300.13287
300.18187
300.25034
300.39032
300.98864
303.38495
309.56449
319.70786
332.05535
344.66793
356.43983
366.60273
374.55467
380.91487
386.2126
390.75899
394.53613
397.69771
400.52147
403.36709
406.53775
322.81717
343.76151
362.49627
379.55253
395.35311
410.13181
423.99577
436.98811
449.06624
460.08708
469.79298
477.77547
483.2614
479.10717
471.33523
460.9212
449.86702
439.5662
430.61061
423.15396
417.17394
412.64763
409.61228
408.09957
408.04779
409.27849
411.62469
415.1904
421.08152
433.12392
300.49134
301.40579
302.63561
304.11434
305.79252
307.63049
309.59181
311.63866
313.72561
315.78992
317.74211
319.44671
320.69173
321.0946
320.6519
320.11658
320.18966
320.94814
322.36089
324.38049
326.98298
330.23565
334.25679
339.08763
344.63951
350.78712
357.54782
364.84827
372.83872
383.22517
300.0109
300.04114
300.09587
300.17895
300.29299
300.43963
300.61946
300.83181
301.07431
301.34175
301.62355
301.90039
302.13886
302.32393
302.98156
305.62493
309.83597
314.09059
318.44401
323.07346
328.16159
334.13315
341.26753
349.3066
357.6277
365.62496
373.32502
380.72866
387.83323
396.35434
300.00026
300.00125
300.00357
300.00795
300.01525
300.02642
300.04247
300.06444
300.09338
300.13029
300.17604
300.232
300.30981
300.59284
303.22324
312.67523
323.53024
329.2032
336.90082
347.09723
357.08423
365.52312
372.4598
378.25944
383.2425
387.54509
391.31449
394.69296
399.788
407.62197
322.80791
343.75755
362.51888
379.62771
395.52266
410.46723
424.61598
438.0647
450.86491
463.02373
474.46528
484.95043
493.7206
492.52679
489.46222
487.09707
486.56387
487.23396
487.85525
487.55559
485.95303
483.18304
479.72582
476.0769
472.53887
469.46154
468.09407
471.13712
479.68741
489.97499
300.49119
301.40643
302.63949
304.12526
305.81649
307.67765
309.67937
311.7947
313.99444
316.23844
318.45754
320.51634
322.1504
322.8982
323.22851
324.14744
325.54549
327.14862
328.84977
330.72655
332.99805
335.94977
339.82477
344.67641
350.41057
357.01708
364.64623
372.89982
386.57086
415.77679
300.0109
300.04118
300.0961
300.17968
300.29473
300.44325
300.62646
300.8447
301.09715
301.38059
301.6864
301.99303
302.25659
302.54892
304.75912
309.60362
313.46007
316.36454
319.269
323.03762
328.39465
335.78044
345.14119
355.37612
365.16222
374.18924
383.0797
390.5645
398.35759
413.39606
300.00026
300.00125
300.00358
300.00799
300.01537
300.02669
300.04304
300.06557
300.09551
300.13415
300.18293
300.24491
300.35767
301.19258
311.21098
334.22652
346.3159
346.8464
345.9347
349.37
356.18129
363.42026
369.85676
375.14673
380.05156
384.96393
392.62239
401.72631
412.65465
424.33394
322.79493
343.73716
362.49714
379.60978
395.51461
410.47664
424.653
438.1415
450.99528
463.20714
474.66479
485.01777
493.25464
489.64139
486.34803
485.85057
488.31161
492.04913
496.31745
500.7578
505.04277
508.87478
512.01757
514.32821
515.79364
516.60199
517.33061
519.07287
523.22537
531.41315
300.49092
301.40612
302.63998
304.12779
305.82273
307.68995
309.70103
311.83001
314.04836
316.31345
318.54326
320.56261
322.03175
322.56281
323.64345
325.27197
327.20261
330.65875
335.29374
340.34254
345.27878
350.35141
356.50641
364.61721
374.7635
386.83955
400.93067
417.63762
438.66624
466.99049
300.0109
300.04118
300.09618
300.17994
300.2954
300.44466
300.62911
300.84932
301.10468
301.39189
301.70065
302.00271
302.24904
302.83839
307.97738
311.75185
314.03202
315.60729
317.41868
320.18924
325.26905
333.55829
344.991
357.31212
367.32189
374.75255
382.33001
393.76168
411.37414
437.77524
300.00026
300.00125
300.00358
300.00801
300.01543
300.02683
300.04333
300.06615
300.0966
300.13617
300.18671
300.25464
300.4414
302.69734
335.60122
353.2491
357.43501
359.65212
361.96968
364.66517
368.09891
372.50373
377.18922
381.75067
386.09081
390.1344
394.28181
400.50852
415.46611
435.82091
322.77795
343.70416
362.44881
379.54624
395.43518
410.38038
424.5388
438.0088
450.84234
463.03245
474.47045
484.81069
493.05957
489.59591
486.44067
486.02162
488.49768
492.38609
496.85137
501.5693
506.24191
510.56331
514.2429
517.04557
518.87374
519.90575
520.74618
522.4903
526.63234
535.02355
300.49056
301.40505
302.63789
304.12434
305.81754
307.68258
309.69099
311.81683
314.03142
316.29206
318.51682
320.53199
322.00773
322.598
323.64635
325.24058
327.14286
330.42998
334.98355
340.52063
347.19261
355.7749
366.71759
379.85317
394.71524
410.63404
427.20078
444.5302
463.53867
487.05245
300.01089
300.04115
300.0961
300.17978
300.29512
300.4442
300.62837
300.8482
301.10302
301.38942
301.69694
301.99735
302.24669
302.84724
307.2658
310.80573
312.99364
314.37851
315.98557
318.53672
322.90444
329.80868
338.99798
349.56882
360.43142
372.73767
387.49182
405.29189
427.30436
455.90892
300.00026
300.00125
300.00358
300.008
300.01541
300.0268
300.04327
300.06604
300.09641
300.13586
300.18626
300.25527
300.45768
302.69034
330.15229
349.62602
353.53493
355.5663
357.41109
359.77284
363.88853
369.0217
374.3367
379.40702
384.15209
387.66625
392.15812
404.84927
424.57082
450.97641
322.76088
343.66659
362.38653
379.45509
395.3102
410.21372
424.31693
437.71408
450.45918
462.55733
473.93706
484.35766
493.05949
491.918
489.33677
487.67591
487.8911
489.36815
490.96553
491.9059
491.69961
490.1484
487.34616
483.53371
479.18168
475.29324
473.5849
476.20254
483.24751
493.60895
300.49018
301.40348
302.63376
304.11592
305.80265
307.65838
309.65357
311.76098
313.9511
316.18367
318.38911
320.4305
322.04439
322.80901
323.29988
324.29362
325.71894
327.336
329.05364
330.93453
333.15127
335.95334
339.54339
343.98483
349.32249
355.67993
363.10121
371.5346
387.40186
418.40382
300.01088
300.04109
300.09589
300.17924
300.29395
300.44198
300.62451
300.8418
301.09291
301.37449
301.67761
301.98014
302.24044
302.57045
304.81122
308.94467
312.25543
314.71591
317.23671
320.39373
324.72245
330.74175
338.62596
348.19268
359.46316
372.11541
384.00529
393.75382
403.78401
421.49639
300.00026
300.00125
300.00357
300.00797
300.01532
300.0266
300.04288
300.06528
300.09502
300.13335
300.18167
300.24392
300.37067
301.34731
311.54579
330.24539
343.09142
343.2019
342.35308
347.84488
355.71948
363.6878
370.66018
376.82548
383.93766
392.07383
400.86659
409.91877
420.75898
434.35292
322.74669
343.62493
362.29723
379.29252
395.03211
409.7471
423.54218
436.45907
448.45402
459.38852
469.01446
476.93279
482.37631
478.30099
470.86274
461.11001
450.82364
441.15116
432.64673
425.47925
419.56816
414.80008
411.18098
408.82857
407.86667
408.30788
410.10952
413.35553
419.05455
429.9664
300.48984
301.40138
302.62704
304.10037
305.7718
307.60159
309.55312
311.58863
313.66264
315.71393
317.65523
319.35137
320.59104
321.00766
320.67459
320.2805
320.39869
321.09433
322.37368
324.19846
326.52103
329.39937
332.99952
337.49781
343.00298
349.52773
357.05439
365.4015
374.77357
386.57248
300.01087
300.04101
300.09555
300.1783
300.29184
300.43774
300.61654
300.82753
301.06832
301.33368
301.61313
301.88732
302.12332
302.32278
303.09396
305.60391
309.41999
313.2558
317.24251
321.45921
325.93133
331.1057
337.50714
345.37704
354.61023
364.4793
374.18867
383.10352
392.42375
404.49629
300.00026
300.00125
300.00355
300.00792
300.01518
300.02628
300.04222
300.06402
300.09268
300.12917
300.17435
300.22982
300.31216
300.66046
303.6727
312.40444
322.3642
327.25004
334.92144
345.64932
356.36788
365.34459
372.68652
378.82271
384.18521
388.97106
393.13806
396.90889
404.41761
419.91308
322.74127
343.57402
362.18549
379.10597
394.75044
409.3411
422.9465
435.52256
446.9076
456.82914
464.90268
470.67221
473.57429
468.04603
459.91983
450.31076
441.00234
433.47164
428.21951
424.95247
423.06579
422.07517
421.69736
421.82318
422.45743
423.69209
425.7417
429.07151
434.77889
444.4367
300.48964
301.39787
302.6176
304.08324
305.74485
307.56067
309.48862
311.48025
313.47929
315.41238
317.18265
318.669
319.72881
320.12881
319.94965
319.66413
319.96628
321.21965
323.26443
325.74848
328.42914
331.27697
334.33824
337.71574
341.53674
345.91469
350.89796
356.44996
362.69784
371.82914
300.01086
300.04086
300.09509
300.17741
300.2905
300.43601
300.61439
300.82452
301.06366
301.32614
301.60259
301.89651
302.21449
302.52633
303.2037
304.99552
308.8363
314.81773
321.86933
328.83709
335.03715
341.24068
347.47369
353.68351
359.6697
365.62349
372.05298
378.99895
386.46991
394.64981
300.00026
300.00124
300.00353
300.00787
300.01513
300.02627
300.04233
300.06441
300.09365
300.1313
300.17922
300.24468
300.3692
300.86121
302.93091
308.44827
317.80676
329.83528
342.56869
354.72947
365.38556
373.60967
380.225
385.72182
390.52765
394.71028
398.14196
401.15335
404.14213
407.76841
322.74229
343.79858
362.8503
380.42556
396.97029
412.76216
427.92911
442.39854
455.82923
468.19612
479.40167
489.26232
497.37692
498.68606
497.84296
494.75161
489.86892
484.07137
478.25832
473.06763
468.81698
465.5966
463.37427
462.07778
461.64768
462.07586
463.44954
466.02462
470.39074
477.42635
300.49021
301.41562
302.68327
304.23767
306.03942
308.05877
310.26846
312.74045
316.15362
320.7255
327.15708
336.0035
347.5293
360.35586
373.18772
384.71204
394.25421
401.66402
407.00903
410.44709
412.30921
413.10556
413.37276
413.58556
414.154
415.47573
418.0302
422.54612
430.36412
442.6685
300.0109
300.04171
300.0989
300.18805
300.31394
300.48067
300.69155
300.95144
301.28049
301.70202
302.27768
303.94205
308.45171
316.73399
328.16301
341.48661
355.19195
367.98894
379.17365
388.3526
395.41936
400.5592
404.15809
406.67964
408.58192
410.29475
412.24968
414.98259
419.43202
426.93988
300.00026
300.00128
300.00373
300.00854
300.01686
300.03009
300.0499
300.07829
300.11821
300.17411
300.25601
300.42274
300.92615
303.66972
311.5863
323.46911
336.36427
348.99188
360.78172
371.31107
380.26655
387.53017
393.21427
397.58596
400.9707
403.69636
406.08626
408.51486
411.5825
416.23925
)
;

boundaryField
{
    maxY
    {
        type            zeroGradient;
    }
    minX
    {
        type            fixedValue;
        value           uniform 300;
    }
    maxX
    {
        type            inletOutlet;
        inletValue      uniform 300;
        value           nonuniform List<scalar> 
40
(
477.71111
442.39413
426.47828
415.69125
445.81221
370.8665
392.13898
406.53252
433.148
383.16497
396.21893
407.26687
489.93662
415.82429
413.36128
423.73675
531.36177
466.95113
437.84742
435.46667
535.10495
487.41022
456.32017
450.76067
493.74578
418.64273
421.54051
300
430.18048
386.52182
404.26771
419.44301
444.56638
371.90684
394.66001
407.6856
477.51061
442.79047
427.01103
416.26684
)
;
    }
    minZ
    {
        type            zeroGradient;
    }
    maxZ
    {
        type            zeroGradient;
    }
    topAir_to_rightSolid
    {
        type            compressible::turbulentTemperatureCoupledBaffleMixed;
        refValue        nonuniform List<scalar> 
130
(
741.19199
748.91582
756.98434
764.97265
772.58924
779.62858
785.96549
791.52212
796.24135
800.07088
802.95633
804.88698
805.85664
735.54907
744.5629
753.75234
762.652
770.95608
778.4939
785.18276
790.97649
795.84063
799.75848
802.70501
804.67592
805.66552
724.18134
736.16254
747.77697
758.49857
768.11466
776.56315
783.86846
790.0618
795.16832
799.23373
802.27677
804.31228
805.33455
707.14518
724.75303
740.28353
753.59617
764.89853
774.44511
782.44627
789.06471
794.43283
798.65213
801.79729
803.90143
804.95839
687.01124
713.87226
734.05299
749.85455
762.563
772.93857
781.42039
788.32612
793.86767
798.19316
801.4054
803.54628
804.61462
686.77286
713.63149
733.82032
749.6294
762.34478
772.71665
781.19048
788.08314
793.61079
797.92456
801.12731
803.26318
804.32268
706.44427
724.07289
739.62762
752.96332
764.28469
773.84709
781.82091
788.39451
793.71487
797.89711
801.01287
803.07675
804.10307
723.13613
735.1602
746.80526
757.552
767.1878
775.65208
782.92538
789.04179
794.06602
798.05894
801.02889
802.99874
803.98027
734.35496
743.41127
752.63693
761.56195
769.88352
777.42458
784.0695
789.76425
794.51024
798.30232
801.14001
803.02772
803.97113
739.94821
747.72381
755.82682
763.85063
771.48542
778.50541
784.77775
790.22545
794.80353
798.47908
801.23954
803.08122
804.00352
)
;
        refGradient     uniform 0;
        valueFraction   uniform 0.99967867;
        value           nonuniform List<scalar> 
130
(
741.10954
748.82901
756.89324
764.87757
772.49063
779.52693
785.86136
791.41605
796.13392
799.9627
802.84809
804.77958
805.7512
735.4523
744.46154
753.64691
762.54301
770.844
778.37919
785.06592
790.85804
795.72111
799.63849
802.58528
804.55757
805.54989
724.08988
736.06435
747.67265
758.38889
768.00043
776.44523
783.74771
789.93905
795.04432
799.10919
802.15239
804.18914
805.21495
707.07451
724.67689
740.2023
753.51014
764.80798
774.35038
782.3478
788.96297
794.32838
798.5459
801.69103
803.79724
804.85717
686.94859
713.80234
733.97801
749.77587
762.48147
772.85471
781.33455
788.23853
793.77856
798.10289
801.31466
803.45618
804.52681
686.7104
713.56183
733.7457
749.5512
762.26389
772.6336
781.10561
787.99665
793.52286
797.83552
801.03779
803.17431
804.23618
706.37453
723.99801
739.54804
752.87939
764.19664
773.75507
781.7251
788.29521
793.61261
797.79297
800.90858
802.97404
804.00334
723.04552
735.063
746.70201
757.44341
767.07457
775.53497
782.80518
788.91933
793.94208
797.93431
800.90435
802.87542
803.86016
734.25827
743.30998
752.53164
761.45319
769.77177
777.31028
783.95311
789.64623
794.3911
798.18262
801.02048
802.90944
803.85565
739.86599
747.63722
755.73596
763.75583
771.38713
778.40415
784.67406
790.11987
794.69663
798.37143
801.13185
802.97434
803.89861
)
;
        Tnbr            T;
        thicknessLayers List<scalar> 0();
        kappaLayers     List<scalar> 0();
        kappaMethod     fluidThermo;
        kappa           none;
        alphaAni        none;
        alpha           none;
        field           T;
    }
    topAir_to_heater
    {
        type            compressible::turbulentTemperatureCoupledBaffleMixed;
        refValue        nonuniform List<scalar> 
40
(
722.99597
724.9595
728.79758
734.31362
713.87682
716.19277
720.76573
727.37176
694.65018
697.68056
703.81253
712.88047
663.3808
667.21568
675.49626
688.88094
617.81119
621.29861
630.49789
649.07831
617.63449
621.12227
630.31397
648.87656
662.72092
666.55771
674.82605
688.19403
693.4731
696.53062
702.69
711.78752
712.36227
714.74002
719.41615
726.11749
721.34788
723.3747
727.34141
732.98999
)
;
        refGradient     uniform 0;
        valueFraction   uniform 0.99967867;
        value           nonuniform List<scalar> 
40
(
722.92416
724.88676
728.72259
734.23526
713.79803
716.11063
720.67905
727.28001
694.58092
697.60784
703.73449
712.79596
663.32591
667.15857
675.43572
688.81592
617.77002
621.25525
630.45141
649.02664
617.59334
621.07899
630.26761
648.82503
662.66603
666.50076
674.76592
688.12968
693.40395
696.4581
702.61237
711.70367
712.28377
714.65814
719.32967
726.02587
721.27633
723.30223
727.26667
732.91187
)
;
        Tnbr            T;
        thicknessLayers List<scalar> 0();
        kappaLayers     List<scalar> 0();
        kappaMethod     fluidThermo;
        kappa           none;
        alphaAni        none;
        alpha           none;
        field           T;
    }
    topAir_to_leftSolid
    {
        type            compressible::turbulentTemperatureCoupledBaffleMixed;
        refValue        nonuniform List<scalar> 
130
(
860.83338
860.76169
860.63419
860.45984
860.25282
860.05285
859.8643
859.6817
859.50632
859.33978
859.20417
859.1096
859.0567
860.75041
860.68645
860.56074
860.38419
860.16073
859.93661
859.72398
859.51083
859.29757
859.11027
858.957
858.84442
858.78009
860.59369
860.53436
860.40962
860.2223
859.9698
859.70084
859.44374
859.18252
858.90585
858.65469
858.44057
858.28476
858.19614
860.36424
860.30301
860.17364
859.96575
859.68489
859.37193
859.06006
858.72805
858.38666
858.04122
857.70261
857.46572
857.33698
860.05528
859.98964
859.85297
859.63288
859.3385
858.99024
858.63581
858.26172
857.85697
857.40851
857.05205
856.81333
856.67137
859.63473
859.57047
859.43822
859.22993
858.94818
858.62146
858.26497
857.881
857.45756
856.98157
856.61203
856.36473
856.22853
859.19315
859.13248
859.00725
858.81567
858.57108
858.27584
857.93889
857.57835
857.17897
856.73407
856.40183
856.1786
856.05881
858.83936
858.7713
858.64699
858.47671
858.26353
858.00516
857.70412
857.39478
857.06723
856.71597
856.41493
856.20412
856.09459
858.6385
858.57152
858.4407
858.26154
858.05822
857.82798
857.57553
857.31295
857.04623
856.78239
856.54226
856.35397
856.2394
858.52805
858.46725
858.34881
858.17463
857.96062
857.74256
857.51896
857.29202
857.06104
856.83352
856.62422
856.46185
856.35365
)
;
        refGradient     uniform 0;
        valueFraction   uniform 0.99967867;
        value           nonuniform List<scalar> 
130
(
860.66051
860.59564
860.47432
860.3057
860.10408
859.90928
859.72569
859.54782
859.37685
859.21435
859.08241
858.99105
858.94077
860.57756
860.52035
860.40068
860.22964
860.0113
859.79197
859.5838
859.37478
859.16527
858.98124
858.83062
858.71993
858.65654
860.42089
860.36831
860.24963
860.06785
859.82051
859.55638
859.30382
859.04685
858.77416
858.52662
858.31569
858.16249
858.07566
860.19151
860.13704
860.01373
859.81141
859.53574
859.22769
858.92046
858.59288
858.25571
857.91429
857.57947
857.34603
857.22014
859.88264
859.82376
859.69315
859.47864
859.18946
858.84612
858.49636
858.12672
857.72624
857.28185
856.92918
856.69387
856.5546
859.46222
859.4047
859.27852
859.07579
858.79924
858.47743
858.1256
857.74608
857.3269
856.85498
856.48923
856.24534
856.11183
859.02078
858.96684
858.84767
858.66164
858.42222
858.13186
857.79956
857.44344
857.04828
856.60741
856.27893
856.05912
855.94217
858.6671
858.60577
858.4875
858.32274
858.11468
857.86112
857.56461
857.25952
856.93593
856.5883
856.29045
856.08224
855.97451
858.4663
858.40604
858.28124
858.10758
857.90935
857.68387
857.43588
857.17742
856.91444
856.65388
856.41641
856.23004
856.11644
858.35589
858.30188
858.18959
858.02111
857.81249
857.59958
857.38092
857.15871
856.93211
856.70864
856.503
856.34386
856.2383
)
;
        Tnbr            T;
        thicknessLayers List<scalar> 0();
        kappaLayers     List<scalar> 0();
        kappaMethod     fluidThermo;
        kappa           none;
        alphaAni        none;
        alpha           none;
        field           T;
    }
}


// ************************************************************************* //
