/*--------------------------------*- C++ -*----------------------------------*\
| =========                 |                                                 |
| \\      /  F ield         | OpenFOAM: The Open Source CFD Toolbox           |
|  \\    /   O peration     | Version:  v2012                                 |
|   \\  /    A nd           | Website:  www.openfoam.com                      |
|    \\/     M anipulation  |                                                 |
\*---------------------------------------------------------------------------*/
FoamFile
{
    version     2.0;
    format      ascii;
    class       volScalarField;
    location    "30/bottomWater";
    object      p;
}
// * * * * * * * * * * * * * * * * * * * * * * * * * * * * * * * * * * * * * //

dimensions      [1 -1 -2 0 0 0 0];


internalField   nonuniform List<scalar> 
1460
(
353.35845
353.36176
353.36177
353.35977
353.36149
353.36531
353.36685
353.36868
353.36803
353.36701
353.36328
353.36508
353.36659
353.36428
353.36566
353.36566
353.36428
353.36659
353.36508
353.36327
353.367
353.36803
353.36868
353.36684
353.36531
353.36149
353.35977
353.36177
353.36176
353.35845
274.5155
274.51229
274.50824
274.49704
274.51467
274.5369
274.55194
274.55524
274.54863
274.53142
274.51524
274.50194
274.52821
274.52949
274.53504
274.53505
274.52948
274.5282
274.50194
274.51524
274.53142
274.54863
274.55524
274.55194
274.5369
274.51467
274.49704
274.50824
274.51229
274.5155
196.28476
196.25846
196.27717
196.25943
196.24605
196.24355
196.24968
196.23982
196.24409
196.2345
196.24926
196.25118
196.24565
196.25473
196.26337
196.26336
196.25472
196.24565
196.25117
196.24926
196.2345
196.24409
196.23981
196.24968
196.24355
196.24605
196.25942
196.27717
196.25846
196.28476
117.68189
117.65507
117.67091
117.67494
117.65817
117.66687
117.68556
117.70138
117.6817
117.67346
117.65743
117.67939
117.65657
117.67292
117.69278
117.69278
117.67292
117.65657
117.67939
117.65743
117.67346
117.68169
117.70138
117.68556
117.66687
117.65818
117.67494
117.67091
117.65507
117.68189
39.238918
39.243104
39.25352
39.246853
39.255061
39.232357
39.23405
39.236804
39.233559
39.238253
39.254579
39.246576
39.249763
39.231579
39.237254
39.237252
39.231578
39.24976
39.246573
39.254576
39.238252
39.233557
39.236802
39.234049
39.232357
39.25506
39.246855
39.253523
39.243119
39.238925
353.36537
353.36963
353.36718
353.36903
353.36828
353.37372
353.36925
353.36261
353.363
353.36519
353.36879
353.3696
353.36902
353.37108
353.37052
353.37052
353.37107
353.36902
353.3696
353.36879
353.36518
353.363
353.3626
353.36925
353.37372
353.36827
353.36903
353.36717
353.36962
353.36537
274.53445
274.5254
274.50661
274.49151
274.49189
274.52038
274.53524
274.51531
274.50956
274.49993
274.4907
274.49491
274.48985
274.52203
274.5435
274.54348
274.52202
274.48985
274.49491
274.4907
274.49993
274.50956
274.51531
274.53523
274.52038
274.49189
274.49151
274.50661
274.5254
274.53445
196.24913
196.22622
196.25755
196.26995
196.24741
196.22976
196.23728
196.24356
196.23827
196.24078
196.26104
196.2755
196.24725
196.23388
196.2407
196.2407
196.23388
196.24726
196.27549
196.26103
196.24078
196.23827
196.24356
196.23728
196.22976
196.24741
196.26995
196.25755
196.22622
196.24912
117.67757
117.65001
117.64957
117.6875
117.68338
117.64198
117.67483
117.67212
117.64903
117.65534
117.68603
117.68861
117.6718
117.65186
117.68059
117.68059
117.65186
117.6718
117.6886
117.68603
117.65533
117.64903
117.67212
117.67483
117.64198
117.68338
117.68749
117.64958
117.65001
117.67757
39.237835
39.245774
39.263102
39.265455
39.256501
39.244461
39.239161
39.236592
39.249979
39.254785
39.257841
39.259913
39.246743
39.243753
39.235469
39.235466
39.243752
39.24674
39.25991
39.257838
39.254783
39.249976
39.236591
39.239159
39.244459
39.2565
39.265455
39.263104
39.245777
39.237838
353.36328
353.36809
353.36406
353.36508
353.36429
353.36987
353.35867
353.36051
353.36415
353.36306
353.36413
353.36648
353.36369
353.36143
353.36098
353.36094
353.36143
353.36369
353.36647
353.36413
353.36305
353.36415
353.36051
353.35867
353.36987
353.36429
353.36508
353.36406
353.36809
353.36328
274.54544
274.53272
274.50142
274.49528
274.51132
274.52171
274.50711
274.50173
274.4952
274.50749
274.49051
274.49094
274.49125
274.50283
274.50759
274.50757
274.50283
274.49125
274.49094
274.49051
274.50749
274.4952
274.50173
274.50711
274.52171
274.51133
274.49528
274.50142
274.53272
274.54544
196.24647
196.22822
196.26105
196.26374
196.26907
196.23994
196.26062
196.25537
196.27138
196.2646
196.28018
196.29538
196.2734
196.25952
196.26348
196.26356
196.25948
196.27341
196.29536
196.28018
196.26459
196.27138
196.25537
196.26062
196.23993
196.26907
196.26373
196.26105
196.22821
196.24647
117.68548
117.65918
117.66833
117.68779
117.64814
117.67415
117.68022
117.6771
117.6971
117.66119
117.70092
117.69611
117.67635
117.65373
117.67488
117.6749
117.65371
117.67634
117.6961
117.70091
117.66119
117.69709
117.6771
117.68022
117.67415
117.64813
117.68779
117.66833
117.65918
117.68548
39.232642
39.24389
39.243977
39.254579
39.261165
39.242676
39.240723
39.244852
39.25188
39.268707
39.26508
39.26985
39.259087
39.257813
39.253696
39.253658
39.25781
39.259079
39.269842
39.265075
39.268701
39.251877
39.24485
39.240721
39.242675
39.261165
39.254579
39.243977
39.24389
39.232642
353.36582
353.36638
353.3646
353.36444
353.36723
353.35101
353.36041
353.36133
353.35791
353.37014
353.36822
353.36824
353.36923
353.36817
353.37006
353.37006
353.36818
353.36924
353.36824
353.36822
353.37014
353.35791
353.36133
353.36041
353.35101
353.36723
353.36444
353.3646
353.36638
353.36582
274.53627
274.51659
274.49482
274.50023
274.51697
274.50599
274.50646
274.50647
274.50561
274.5253
274.50811
274.4919
274.51581
274.52575
274.54225
274.54227
274.52574
274.51584
274.4919
274.50811
274.5253
274.5056
274.50647
274.50646
274.50599
274.51697
274.50023
274.49482
274.51659
274.53627
196.24007
196.23579
196.24961
196.28393
196.22782
196.2684
196.27528
196.27221
196.2542
196.21833
196.26457
196.25064
196.27003
196.24418
196.25499
196.25498
196.24416
196.26998
196.25062
196.26456
196.21832
196.25419
196.2722
196.27528
196.26839
196.22782
196.28393
196.24961
196.23579
196.24007
117.68441
117.64501
117.68486
117.67074
117.66829
117.67006
117.69831
117.68831
117.66589
117.67229
117.66319
117.68394
117.63889
117.66058
117.68035
117.68036
117.66058
117.63887
117.68394
117.6632
117.67229
117.66589
117.68831
117.69831
117.67006
117.66828
117.67074
117.68486
117.64501
117.68441
39.237256
39.250243
39.248823
39.255833
39.24841
39.23193
39.236587
39.235317
39.241771
39.247536
39.250857
39.25391
39.255433
39.239623
39.23634
39.236343
39.23961
39.255419
39.2539
39.250847
39.247529
39.241768
39.235314
39.236586
39.231928
39.24841
39.255832
39.248822
39.250243
39.237256
353.36445
353.36203
353.36006
353.3613
353.35883
353.36006
353.36037
353.35742
353.36832
353.36991
353.37103
353.36785
353.3635
353.36351
353.36786
353.37103
353.36991
353.36832
353.35742
353.36037
353.36006
353.35883
353.36129
353.36006
353.36203
353.36445
274.53937
274.51012
274.49396
274.49376
274.51356
274.49859
274.50406
274.50623
274.52998
274.5525
274.53579
274.50111
274.51274
274.51276
274.5011
274.53579
274.5525
274.52998
274.50623
274.50407
274.49859
274.51356
274.49376
274.49396
274.51012
274.53937
196.23592
196.23193
196.25129
196.28194
196.26021
196.28055
196.26668
196.26156
196.23877
196.24774
196.22956
196.25788
196.28323
196.28321
196.25786
196.22955
196.24774
196.23876
196.26155
196.26667
196.28055
196.26021
196.28194
196.25128
196.23193
196.23592
117.69803
117.66155
117.68575
117.69491
117.66372
117.68959
117.69707
117.68643
117.69861
117.68711
117.67466
117.67906
117.67193
117.67193
117.67906
117.67466
117.68711
117.69861
117.68643
117.69707
117.68959
117.66372
117.69491
117.68575
117.66155
117.69803
39.234634
39.239101
39.242099
39.25257
39.262195
39.246335
39.244211
39.237976
39.235705
39.230323
39.248768
39.244178
39.246557
39.246546
39.24417
39.248762
39.230319
39.235702
39.237974
39.24421
39.246334
39.262194
39.252569
39.242099
39.2391
39.234634
353.36445
353.36203
353.36006
353.3613
353.35883
353.36006
353.36037
353.35742
353.36832
353.36992
353.37103
353.36786
353.36352
353.36352
353.36786
353.37103
353.36991
353.36832
353.35742
353.36037
353.36006
353.35883
353.36129
353.36006
353.36203
353.36445
274.53937
274.51012
274.49396
274.49376
274.51357
274.49859
274.50406
274.50623
274.52998
274.5525
274.53578
274.5011
274.51276
274.51276
274.5011
274.53579
274.5525
274.52998
274.50623
274.50407
274.49859
274.51357
274.49376
274.49396
274.51012
274.53937
196.23592
196.23193
196.25129
196.28194
196.26021
196.28055
196.26668
196.26155
196.23877
196.24774
196.22956
196.25787
196.2832
196.2832
196.25786
196.22955
196.24774
196.23876
196.26155
196.26667
196.28054
196.26021
196.28194
196.25129
196.23193
196.23592
117.69803
117.66155
117.68575
117.69491
117.66371
117.68959
117.69707
117.68643
117.69861
117.68711
117.67466
117.67908
117.67194
117.67193
117.67907
117.67466
117.68711
117.69861
117.68643
117.69707
117.68959
117.66371
117.69491
117.68575
117.66155
117.69803
39.234634
39.239101
39.242098
39.25257
39.262198
39.246334
39.244211
39.237975
39.235706
39.230322
39.248764
39.244177
39.246552
39.246545
39.244171
39.24876
39.230318
39.235704
39.237972
39.24421
39.246332
39.262199
39.25257
39.242099
39.239101
39.234634
353.36583
353.36638
353.3646
353.36444
353.36723
353.35101
353.36041
353.36133
353.35791
353.37014
353.36822
353.36824
353.36924
353.36818
353.37006
353.37006
353.36818
353.36924
353.36824
353.36822
353.37014
353.35791
353.36133
353.36041
353.35101
353.36723
353.36444
353.3646
353.36638
353.36582
274.53627
274.51659
274.49482
274.50023
274.51697
274.50599
274.50646
274.50647
274.5056
274.5253
274.5081
274.4919
274.51583
274.52575
274.54225
274.54226
274.52574
274.51584
274.4919
274.50811
274.5253
274.50561
274.50647
274.50646
274.50599
274.51697
274.50023
274.49482
274.51659
274.53627
196.24007
196.23579
196.24961
196.28393
196.22782
196.2684
196.27528
196.27221
196.2542
196.21832
196.26457
196.25063
196.27
196.24417
196.25498
196.25498
196.24416
196.26998
196.25062
196.26456
196.21832
196.25419
196.2722
196.27528
196.2684
196.22782
196.28393
196.24961
196.23578
196.24007
117.68441
117.64501
117.68486
117.67074
117.66829
117.67007
117.69831
117.68831
117.66589
117.6723
117.66321
117.68394
117.63888
117.66058
117.68034
117.68035
117.66058
117.63887
117.68394
117.6632
117.67229
117.66589
117.68831
117.69831
117.67007
117.66829
117.67075
117.68486
117.64501
117.68441
39.237257
39.250244
39.248824
39.255833
39.248411
39.23193
39.236587
39.235317
39.241773
39.247533
39.250849
39.253906
39.255424
39.239616
39.236338
39.23634
39.239609
39.255418
39.253901
39.250844
39.24753
39.241773
39.235314
39.236586
39.231928
39.24841
39.25583
39.248822
39.250242
39.237256
353.36328
353.36809
353.36406
353.36508
353.36429
353.36987
353.35867
353.36051
353.36415
353.36306
353.36413
353.36648
353.36369
353.36143
353.36097
353.36095
353.36143
353.36369
353.36647
353.36413
353.36306
353.36415
353.36051
353.35867
353.36987
353.36429
353.36508
353.36406
353.36809
353.36328
274.54544
274.53272
274.50142
274.49528
274.51132
274.52171
274.50711
274.50173
274.4952
274.50748
274.49051
274.49094
274.49125
274.50282
274.50758
274.50757
274.50282
274.49125
274.49094
274.49051
274.50748
274.4952
274.50173
274.50711
274.52171
274.51132
274.49528
274.50142
274.53272
274.54544
196.24647
196.22822
196.26105
196.26373
196.26907
196.23994
196.26062
196.25537
196.27138
196.2646
196.28018
196.29537
196.2734
196.2595
196.2635
196.26354
196.25949
196.27341
196.29536
196.28018
196.2646
196.27138
196.25537
196.26061
196.23993
196.26907
196.26373
196.26105
196.22822
196.24647
117.68548
117.65918
117.66833
117.68779
117.64813
117.67415
117.68022
117.6771
117.69709
117.6612
117.70091
117.69611
117.67634
117.65372
117.67488
117.67489
117.65371
117.67634
117.6961
117.70091
117.66119
117.69709
117.6771
117.68022
117.67415
117.64813
117.68779
117.66833
117.65918
117.68548
39.232643
39.24389
39.243978
39.25458
39.261165
39.242676
39.240723
39.244851
39.25188
39.268699
39.265077
39.269845
39.259082
39.257807
39.253685
39.253669
39.257807
39.259079
39.269842
39.265075
39.268697
39.251879
39.244849
39.240722
39.242675
39.261162
39.254579
39.243976
39.243889
39.232642
353.36537
353.36963
353.36718
353.36903
353.36828
353.37372
353.36925
353.36261
353.36301
353.36519
353.36879
353.3696
353.36902
353.37108
353.37052
353.37052
353.37108
353.36902
353.3696
353.36879
353.36518
353.363
353.3626
353.36925
353.37372
353.36827
353.36903
353.36717
353.36962
353.36537
274.53445
274.5254
274.50661
274.49151
274.49189
274.52038
274.53524
274.51531
274.50956
274.49993
274.49069
274.49491
274.48985
274.52203
274.54349
274.54348
274.52202
274.48985
274.49491
274.49069
274.49993
274.50956
274.51531
274.53524
274.52038
274.49189
274.49151
274.50661
274.5254
274.53445
196.24913
196.22622
196.25755
196.26995
196.24741
196.22976
196.23728
196.24356
196.23827
196.24078
196.26103
196.27549
196.24725
196.23388
196.2407
196.2407
196.23388
196.24726
196.27549
196.26103
196.24078
196.23827
196.24356
196.23727
196.22976
196.24741
196.26995
196.25755
196.22622
196.24912
117.67757
117.65001
117.64957
117.6875
117.68338
117.64198
117.67483
117.67212
117.64903
117.65533
117.68603
117.6886
117.6718
117.65186
117.68059
117.68059
117.65186
117.6718
117.6886
117.68603
117.65533
117.64903
117.67212
117.67483
117.64198
117.68338
117.68749
117.64957
117.65001
117.67757
39.237838
39.245777
39.263104
39.265456
39.256501
39.24446
39.23916
39.236592
39.249978
39.254784
39.257839
39.25991
39.24674
39.24375
39.235467
39.235467
39.243751
39.24674
39.25991
39.257838
39.254783
39.249978
39.236591
39.239159
39.244459
39.256499
39.265454
39.2631
39.245773
39.237834
353.35845
353.36176
353.36177
353.35977
353.36149
353.36531
353.36685
353.36868
353.36803
353.36701
353.36328
353.36508
353.36659
353.36428
353.36566
353.36566
353.36427
353.36659
353.36508
353.36327
353.367
353.36803
353.36868
353.36685
353.36531
353.36149
353.35977
353.36177
353.36175
353.35845
274.5155
274.51229
274.50824
274.49704
274.51467
274.5369
274.55194
274.55524
274.54863
274.53142
274.51524
274.50194
274.52821
274.52948
274.53504
274.53503
274.52949
274.52821
274.50194
274.51524
274.53142
274.54863
274.55524
274.55194
274.5369
274.51467
274.49704
274.50824
274.51229
274.5155
196.28476
196.25846
196.27717
196.25943
196.24605
196.24355
196.24968
196.23982
196.24409
196.2345
196.24926
196.25117
196.24565
196.25473
196.26337
196.26338
196.25473
196.24566
196.25118
196.24926
196.2345
196.24409
196.23981
196.24967
196.24355
196.24605
196.25942
196.27717
196.25846
196.28476
117.68189
117.65507
117.67091
117.67494
117.65818
117.66687
117.68556
117.70138
117.6817
117.67346
117.65743
117.67939
117.65657
117.67292
117.69278
117.69278
117.67292
117.65657
117.67938
117.65743
117.67346
117.68169
117.70138
117.68556
117.66687
117.65817
117.67494
117.6709
117.65507
117.68189
39.238924
39.243115
39.253523
39.246855
39.255061
39.232358
39.23405
39.236803
39.233559
39.238252
39.254577
39.246573
39.24976
39.231578
39.237254
39.237254
39.231578
39.249761
39.246573
39.254577
39.238252
39.233558
39.236802
39.234049
39.232356
39.255059
39.246853
39.25352
39.243104
39.238917
)
;

boundaryField
{
    minX
    {
        type            calculated;
        value           nonuniform List<scalar> 
50
(
353.35845
274.5155
196.28476
117.68189
39.238918
353.36537
274.53445
196.24913
117.67757
39.237835
353.36328
274.54544
196.24647
117.68548
39.232642
353.36582
274.53627
196.24007
117.68441
39.237256
353.36445
274.53937
196.23592
117.69803
39.234634
353.36445
274.53937
196.23592
117.69803
39.234634
353.36583
274.53627
196.24007
117.68441
39.237257
353.36328
274.54544
196.24647
117.68548
39.232643
353.36537
274.53445
196.24913
117.67757
39.237838
353.35845
274.5155
196.28476
117.68189
39.238924
)
;
    }
    maxX
    {
        type            calculated;
        value           nonuniform List<scalar> 
50
(
353.35845
274.5155
196.28476
117.68189
39.238925
353.36537
274.53445
196.24912
117.67757
39.237838
353.36328
274.54544
196.24647
117.68548
39.232642
353.36582
274.53627
196.24007
117.68441
39.237256
353.36445
274.53937
196.23592
117.69803
39.234634
353.36445
274.53937
196.23592
117.69803
39.234634
353.36582
274.53627
196.24007
117.68441
39.237256
353.36328
274.54544
196.24647
117.68548
39.232642
353.36537
274.53445
196.24912
117.67757
39.237834
353.35845
274.5155
196.28476
117.68189
39.238917
)
;
    }
    minY
    {
        type            calculated;
        value           nonuniform List<scalar> 
292
(
392.4
392.4
392.4
392.4
392.4
392.4
392.4
392.4
392.4
392.4
392.4
392.4
392.4
392.4
392.4
392.4
392.4
392.4
392.4
392.4
392.4
392.4
392.4
392.4
392.4
392.4
392.4
392.4
392.4
392.4
392.4
392.4
392.4
392.4
392.4
392.4
392.4
392.4
392.4
392.4
392.4
392.4
392.4
392.4
392.4
392.4
392.4
392.4
392.4
392.4
392.4
392.4
392.4
392.4
392.4
392.4
392.4
392.4
392.4
392.4
392.4
392.4
392.4
392.4
392.4
392.4
392.4
392.4
392.4
392.4
392.4
392.4
392.4
392.4
392.4
392.4
392.4
392.4
392.4
392.4
392.4
392.4
392.4
392.4
392.4
392.4
392.4
392.4
392.4
392.4
392.4
392.4
392.4
392.4
392.4
392.4
392.4
392.4
392.4
392.4
392.4
392.4
392.4
392.4
392.4
392.4
392.4
392.4
392.4
392.4
392.4
392.4
392.4
392.4
392.4
392.4
392.4
392.4
392.4
392.4
392.4
392.4
392.4
392.4
392.4
392.4
392.4
392.4
392.4
392.4
392.4
392.4
392.4
392.4
392.4
392.4
392.4
392.4
392.4
392.4
392.4
392.4
392.4
392.4
392.4
392.4
392.4
392.4
392.4
392.4
392.4
392.4
392.4
392.4
392.4
392.4
392.4
392.4
392.4
392.4
392.4
392.4
392.4
392.4
392.4
392.4
392.4
392.4
392.4
392.4
392.4
392.4
392.4
392.4
392.4
392.4
392.4
392.4
392.4
392.4
392.4
392.4
392.4
392.4
392.4
392.4
392.4
392.4
392.4
392.4
392.4
392.4
392.4
392.4
392.4
392.4
392.4
392.4
392.4
392.4
392.4
392.4
392.4
392.4
392.4
392.4
392.4
392.4
392.4
392.4
392.4
392.4
392.4
392.4
392.4
392.4
392.4
392.4
392.4
392.4
392.4
392.4
392.4
392.4
392.4
392.4
392.4
392.4
392.4
392.4
392.4
392.4
392.4
392.4
392.4
392.4
392.4
392.4
392.4
392.4
392.4
392.4
392.4
392.4
392.4
392.4
392.4
392.4
392.4
392.4
392.4
392.4
392.4
392.4
392.4
392.4
392.4
392.4
392.4
392.4
392.4
392.4
392.4
392.4
392.4
392.4
392.4
392.4
392.4
392.4
392.4
392.4
392.4
392.4
392.4
392.4
392.4
392.4
392.4
392.4
392.4
392.4
392.4
392.4
392.4
392.4
392.4
392.4
392.4
392.4
392.4
392.4
)
;
    }
    minZ
    {
        type            calculated;
        value           nonuniform List<scalar> 
150
(
353.35845
274.5155
196.28476
117.68189
39.238918
353.36176
274.51229
196.25846
117.65507
39.243104
353.36177
274.50824
196.27717
117.67091
39.25352
353.35977
274.49704
196.25943
117.67494
39.246853
353.36149
274.51467
196.24605
117.65817
39.255061
353.36531
274.5369
196.24355
117.66687
39.232357
353.36685
274.55194
196.24968
117.68556
39.23405
353.36868
274.55524
196.23982
117.70138
39.236804
353.36803
274.54863
196.24409
117.6817
39.233559
353.36701
274.53142
196.2345
117.67346
39.238253
353.36328
274.51524
196.24926
117.65743
39.254579
353.36508
274.50194
196.25118
117.67939
39.246576
353.36659
274.52821
196.24565
117.65657
39.249763
353.36428
274.52949
196.25473
117.67292
39.231579
353.36566
274.53504
196.26337
117.69278
39.237254
353.36566
274.53505
196.26336
117.69278
39.237252
353.36428
274.52948
196.25472
117.67292
39.231578
353.36659
274.5282
196.24565
117.65657
39.24976
353.36508
274.50194
196.25117
117.67939
39.246573
353.36327
274.51524
196.24926
117.65743
39.254576
353.367
274.53142
196.2345
117.67346
39.238252
353.36803
274.54863
196.24409
117.68169
39.233557
353.36868
274.55524
196.23981
117.70138
39.236802
353.36684
274.55194
196.24968
117.68556
39.234049
353.36531
274.5369
196.24355
117.66687
39.232357
353.36149
274.51467
196.24605
117.65818
39.25506
353.35977
274.49704
196.25942
117.67494
39.246855
353.36177
274.50824
196.27717
117.67091
39.253523
353.36176
274.51229
196.25846
117.65507
39.243119
353.35845
274.5155
196.28476
117.68189
39.238925
)
;
    }
    maxZ
    {
        type            calculated;
        value           nonuniform List<scalar> 
150
(
353.35845
274.5155
196.28476
117.68189
39.238924
353.36176
274.51229
196.25846
117.65507
39.243115
353.36177
274.50824
196.27717
117.67091
39.253523
353.35977
274.49704
196.25943
117.67494
39.246855
353.36149
274.51467
196.24605
117.65818
39.255061
353.36531
274.5369
196.24355
117.66687
39.232358
353.36685
274.55194
196.24968
117.68556
39.23405
353.36868
274.55524
196.23982
117.70138
39.236803
353.36803
274.54863
196.24409
117.6817
39.233559
353.36701
274.53142
196.2345
117.67346
39.238252
353.36328
274.51524
196.24926
117.65743
39.254577
353.36508
274.50194
196.25117
117.67939
39.246573
353.36659
274.52821
196.24565
117.65657
39.24976
353.36428
274.52948
196.25473
117.67292
39.231578
353.36566
274.53504
196.26337
117.69278
39.237254
353.36566
274.53503
196.26338
117.69278
39.237254
353.36427
274.52949
196.25473
117.67292
39.231578
353.36659
274.52821
196.24566
117.65657
39.249761
353.36508
274.50194
196.25118
117.67938
39.246573
353.36327
274.51524
196.24926
117.65743
39.254577
353.367
274.53142
196.2345
117.67346
39.238252
353.36803
274.54863
196.24409
117.68169
39.233558
353.36868
274.55524
196.23981
117.70138
39.236802
353.36685
274.55194
196.24967
117.68556
39.234049
353.36531
274.5369
196.24355
117.66687
39.232356
353.36149
274.51467
196.24605
117.65817
39.255059
353.35977
274.49704
196.25942
117.67494
39.246853
353.36177
274.50824
196.27717
117.6709
39.25352
353.36175
274.51229
196.25846
117.65507
39.243104
353.35845
274.5155
196.28476
117.68189
39.238917
)
;
    }
    bottomWater_to_rightSolid
    {
        type            calculated;
        value           nonuniform List<scalar> 
130
(
0.0097604148
0.006572536
0.014576067
-0.0017482654
-0.0064428951
-0.0031976164
-0.0059512857
-0.0076434785
0.015059961
0.0068548299
0.013523365
0.0031185515
-0.001074869
0.0067401851
0.019909517
0.017837897
0.014782597
0.0099764552
-0.0034086626
-0.00084108599
0.0044593118
0.016499638
0.025455129
0.023103555
0.0057772761
-0.0021616632
0.01907856
0.029841913
0.025074953
0.028701245
0.011877463
0.0048502162
0.00072133375
0.0026749095
0.021165469
0.014578799
0.0039772885
0.0038897328
-0.007357728
0.015419113
0.013900493
0.010847443
0.0075292275
0.0017678445
-0.0046855327
-0.0034136481
-0.0080719108
0.0084096849
0.015831947
0.0088216971
0.01024315
-0.0027435636
0.0065458161
0.0041697877
0.0087624399
-0.0096809993
-0.0042976214
-0.0020264891
0.0042097452
0.0063338447
0.022194032
0.012568815
0.0020990395
-0.00089953963
-0.0053663007
0.0065452465
0.0041705003
0.0087595392
-0.0096821311
-0.0042963527
-0.0020278503
0.0042096577
0.0063318313
0.022199207
0.012570267
0.0020993763
-0.00089896918
-0.0053659767
0.015418186
0.013900788
0.010844393
0.0075295247
0.0017730821
-0.0046857049
-0.0034139903
-0.0080720958
0.0084099981
0.01583023
0.0088218298
0.010242018
-0.0027442048
0.019079094
0.02984181
0.025075206
0.02869729
0.011879188
0.0048493901
0.00072171472
0.0026748241
0.021161772
0.014578926
0.0039758421
0.0038889251
-0.007358324
0.0067403705
0.019909665
0.017838215
0.014783054
0.0099775948
-0.0034092339
-0.00084066245
0.0044592638
0.016499257
0.02545396
0.023100017
0.0057730043
-0.0021663652
0.0097614702
0.0065728742
0.014577084
-0.0017482862
-0.0064421139
-0.0031976224
-0.0059511296
-0.0076439527
0.015059033
0.0068526769
0.013519598
0.0031035704
-0.001082619
)
;
    }
    bottomWater_to_leftSolid
    {
        type            calculated;
        value           nonuniform List<scalar> 
130
(
-0.0010822849
0.003103518
0.013519528
0.0068533694
0.015060545
-0.0076429518
-0.005950125
-0.0031961331
-0.0064409377
-0.0017465513
0.014578658
0.0065758885
0.0097626125
-0.0021653256
0.0057736215
0.023102278
0.025455383
0.016501275
0.0044610451
-0.00083942006
-0.0034076631
0.0099789388
0.014784565
0.017841496
0.019912657
0.0067432627
-0.0073581646
0.0038896836
0.0039769504
0.014579494
0.021164648
0.0026763788
0.00072348274
0.004852252
0.011880389
0.028706832
0.025079681
0.029850405
0.019087466
-0.0027436986
0.010243215
0.0088229433
0.015832559
0.0084102928
-0.0080702123
-0.0034130297
-0.0046833079
0.0017706333
0.0075361332
0.010856727
0.013910324
0.015432612
-0.0053658153
-0.00089911587
0.0020988823
0.012569637
0.022195382
0.0063352634
0.0042112271
-0.002024109
-0.0042952154
-0.0096772484
0.0087681996
0.0041777797
0.0065569988
-0.0053660438
-0.00089938788
0.0020975288
0.012569587
0.022198294
0.0063339671
0.0042111067
-0.0020251294
-0.0042941114
-0.0096781884
0.0087639735
0.0041772962
0.0065517632
-0.0027429041
0.010244285
0.0088242464
0.015832844
0.0084105267
-0.0080698203
-0.0034131148
-0.0046829276
0.0017729411
0.0075328334
0.010848519
0.013905673
0.015424057
-0.0073573808
0.0038903714
0.0039779647
0.014580097
0.021164543
0.0026763296
0.00072315191
0.0048509979
0.011880171
0.028698534
0.025076734
0.029844934
0.019082225
-0.00216179
0.005777158
0.023104454
0.025456251
0.016501213
0.0044604611
-0.00083988521
-0.0034080766
0.0099781895
0.014783654
0.017838586
0.019909842
0.0067402963
-0.0010762297
0.0031151145
0.013522814
0.0068553084
0.01506087
-0.0076421507
-0.005950492
-0.0031966859
-0.0064413753
-0.0017479929
0.014576749
0.0065733812
0.0097604688
)
;
    }
    bottomWater_to_heater
    {
        type            calculated;
        value           nonuniform List<scalar> 
92
(
-0.0084206263
-0.0027457271
-0.0027479344
-0.0084222397
0.0037526333
-0.0045310072
-0.0045339594
0.0037523891
0.017813487
0.013695822
0.013658111
0.017810357
353.36817
353.37006
353.37006
353.36818
274.52575
274.54225
274.54227
274.52574
196.24418
196.25499
196.25498
196.24416
117.66058
117.68035
117.68036
117.66058
-0.000376914
39.239623
-0.0036598127
39.23634
-0.0036569521
39.236343
-0.0003904242
39.23961
353.3635
353.36351
274.51274
274.51276
196.28323
196.28321
117.67193
117.67193
39.246557
39.246546
353.36352
353.36818
353.37006
353.37006
353.36352
353.36818
274.51276
274.52575
274.54225
274.54226
274.51276
274.52574
196.2832
196.24417
196.25498
196.25498
196.2832
196.24416
117.67194
117.66058
117.68034
117.68035
117.67193
117.66058
39.246552
39.239616
39.236338
39.23634
39.246545
39.239609
-0.00038427449
-0.0036619949
-0.0036598836
-0.0003914476
0.017807435
0.013685429
0.013668937
0.017807446
0.0037502811
-0.0045325666
-0.0045333831
0.0037512313
-0.0084222299
-0.0027464527
-0.0027464254
-0.0084220369
)
;
    }
}


// ************************************************************************* //
