/*--------------------------------*- C++ -*----------------------------------*\
| =========                 |                                                 |
| \\      /  F ield         | OpenFOAM: The Open Source CFD Toolbox           |
|  \\    /   O peration     | Version:  v2012                                 |
|   \\  /    A nd           | Website:  www.openfoam.com                      |
|    \\/     M anipulation  |                                                 |
\*---------------------------------------------------------------------------*/
FoamFile
{
    version     2.0;
    format      ascii;
    class       volScalarField;
    location    "30/bottomWater";
    object      T;
}
// * * * * * * * * * * * * * * * * * * * * * * * * * * * * * * * * * * * * * //

dimensions      [0 0 0 1 0 0 0];


internalField   nonuniform List<scalar> 
1460
(
1055.9047
1057.469
1057.9244
1054.2007
1052.5114
1051.4312
1049.7558
1047.8553
1051.6143
1053.6729
1054.224
1055.2481
1053.6024
1052.0411
1052.6474
1052.6457
1052.0378
1053.5991
1055.2448
1054.2186
1053.666
1051.606
1047.8475
1049.752
1051.429
1052.5099
1054.1998
1057.924
1057.4695
1055.9055
1053.5611
1054.4334
1055.062
1054.2822
1053.6288
1051.807
1049.3665
1046.898
1051.5622
1054.389
1055.0176
1053.842
1050.9695
1047.442
1046.0339
1046.0293
1047.4349
1050.9637
1053.8372
1055.0112
1054.3815
1051.552
1046.8882
1049.3627
1051.8051
1053.6277
1054.2814
1055.0627
1054.4345
1053.5622
1048.0954
1050.0899
1053.4412
1054.7529
1057.3541
1052.5133
1049.0444
1046.272
1051.5529
1054.7527
1056.8911
1054.4593
1052.7349
1046.4278
1043.499
1043.4922
1046.4173
1052.7291
1054.4548
1056.888
1054.7455
1051.5416
1046.261
1049.0408
1052.5123
1057.354
1054.7524
1053.4421
1050.0914
1048.097
1046.5224
1049.9563
1056.6742
1055.6733
1057.2059
1049.7374
1046.9951
1044.1124
1047.5853
1051.0057
1056.9093
1055.3582
1056.3542
1046.2004
1042.0018
1041.9913
1046.1859
1056.3509
1055.3543
1056.9062
1050.9927
1047.5689
1044.0992
1046.9913
1049.7359
1057.2054
1055.673
1056.6741
1049.9576
1046.5241
1045.7095
1048.9607
1052.0406
1050.1229
1050.6676
1048.3816
1045.7489
1042.6915
1044.941
1046.3527
1048.6471
1048.1616
1046.8737
1044.1818
1040.3309
1040.3179
1044.1621
1046.8447
1048.1392
1048.6279
1046.3312
1044.9202
1042.6765
1045.7464
1048.3806
1050.6673
1050.123
1052.0409
1048.9617
1045.7111
1050.8249
1053.2116
1055.5526
1059.6116
1058.0325
1056.6155
1055.5485
1051.8599
1052.5665
1054.3588
1057.9787
1058.5153
1057.2998
1056.7253
1055.8018
1055.7998
1056.724
1057.2981
1058.5137
1057.9761
1054.3543
1052.5615
1051.8555
1055.5454
1056.6141
1058.0319
1059.6118
1055.5532
1053.2125
1050.8261
1048.9454
1052.8757
1054.1777
1056.2561
1057.3824
1057.0084
1054.9122
1051.666
1053.2424
1054.2037
1055.6439
1055.5558
1053.9042
1053.0035
1052.0944
1052.0905
1053.0006
1053.9013
1055.553
1055.6392
1054.1981
1053.2361
1051.6593
1054.9078
1057.0067
1057.3815
1056.2562
1054.1783
1052.8766
1048.947
1048.3089
1053.5115
1055.7397
1056.7362
1057.9956
1058.5735
1053.7049
1052.6594
1058.7049
1056.8192
1056.0478
1055.878
1053.2166
1052.9149
1049.9563
1049.9498
1052.9136
1053.2126
1055.875
1056.0438
1056.8156
1058.7022
1052.652
1053.6997
1058.5725
1057.9946
1056.7364
1055.74
1053.5124
1048.3105
1047.7394
1056.1224
1058.4224
1057.3201
1058.4311
1057.1691
1050.7931
1050.0768
1058.1868
1057.2629
1056.5192
1056.1073
1054.1585
1055.3266
1046.6054
1046.5972
1055.3227
1054.1547
1056.1043
1056.5156
1057.2596
1058.1839
1050.0665
1050.7876
1057.1678
1058.4304
1057.3202
1058.4226
1056.1232
1047.741
1047.1807
1050.5213
1053.5943
1054.2015
1053.6346
1052.3771
1048.6847
1046.343
1049.7045
1050.1615
1050.8116
1051.2649
1047.7309
1046.0588
1041.408
1041.3991
1046.0451
1047.7035
1051.2485
1050.7945
1050.1443
1049.6888
1046.3275
1048.6814
1052.3755
1053.6339
1054.2017
1053.5948
1050.5224
1047.1824
1054.3689
1055.8374
1057.5178
1063.7295
1063.2397
1058.4038
1059.0472
1056.1869
1056.2151
1060.1136
1059.918
1039.6208
1037.1975
1046.4289
1050.8699
1050.8617
1046.4247
1037.1869
1039.6119
1059.9161
1060.1099
1056.2118
1056.1849
1059.046
1058.4029
1063.2397
1063.7296
1057.5183
1055.8381
1054.3698
1051.8538
1055.3375
1055.9416
1058.9778
1057.9369
1055.9748
1057.5275
1055.9587
1055.3556
1057.9143
1058.2213
1043.2549
1040.0938
1045.8871
1045.5931
1045.6024
1045.8888
1040.0873
1043.247
1058.217
1057.9104
1055.3513
1055.9555
1057.5254
1055.9734
1057.9363
1058.9779
1055.942
1055.3381
1051.8548
1050.448
1057.5933
1056.7273
1059.6674
1060.567
1055.0104
1053.5042
1056.9375
1056.4855
1060.7667
1058.5848
1043.3525
1040.995
1046.2326
1046.9846
1046.9741
1046.231
1040.9882
1043.3444
1058.5806
1060.764
1056.482
1056.9351
1053.4993
1055.0086
1060.5671
1059.6675
1056.7277
1057.5936
1050.4491
1047.9938
1059.2073
1058.3163
1060.4416
1061.0397
1050.8193
1048.338
1057.6768
1057.4917
1056.8175
1057.6182
1043.6233
1042.8466
1044.6696
1044.127
1044.0961
1044.6639
1042.8397
1043.6151
1057.6139
1056.8128
1057.4885
1057.6741
1048.3306
1050.8162
1061.0396
1060.4416
1058.3167
1059.2077
1047.9952
1045.8397
1049.5857
1050.6091
1054.8136
1054.8245
1050.0587
1043.9578
1047.6954
1050.5912
1051.2544
1050.2966
1039.9948
1038.3263
1037.8982
1034.0071
1033.9964
1037.8808
1038.2889
1039.969
1050.2751
1051.2365
1050.5749
1047.6788
1043.9479
1050.0574
1054.8243
1054.8136
1050.6097
1049.5866
1045.8413
1054.9225
1056.3633
1058.3992
1064.9989
1058.6784
1060.8003
1061.5211
1058.8398
1056.6789
1056.6028
1058.8189
1037.6513
1021.5633
1023.4241
1023.44
1023.4363
1023.4216
1021.551
1037.6399
1058.8125
1056.5949
1056.672
1058.8373
1061.5205
1060.8001
1058.6784
1064.999
1058.3996
1056.3639
1054.9234
1052.868
1055.1849
1056.2993
1058.4817
1056.8778
1060.1335
1060.9135
1057.8454
1053.9295
1056.9815
1055.6947
1039.6329
1026.3705
1028.7716
1026.0462
1026.0376
1028.7632
1026.354
1039.6173
1055.6857
1056.9751
1053.9193
1057.8409
1060.9128
1060.1334
1056.8774
1058.4817
1056.3
1055.1856
1052.8691
1052.0021
1060.5984
1056.826
1059.4638
1056.8673
1053.4671
1057.1536
1059.0207
1058.3985
1058.0293
1055.482
1040.0725
1037.08
1031.5224
1026.7918
1026.7806
1031.5098
1037.0661
1040.0571
1055.4744
1058.0255
1058.395
1059.0176
1057.1506
1053.4658
1056.8668
1059.464
1056.8267
1060.5987
1052.0032
1049.1647
1059.8381
1057.4839
1060.301
1055.3445
1049.0505
1041.6089
1043.641
1044.6819
1049.0007
1053.9405
1040.2826
1038.1325
1029.3781
1027.4371
1027.4227
1029.362
1038.1104
1040.2681
1053.9342
1048.992
1044.6702
1043.6286
1041.5999
1049.0485
1055.3439
1060.3012
1057.4845
1059.8384
1049.1661
1047.5957
1051.3816
1051.2501
1054.403
1051.148
1048.1824
1041.7532
1038.5514
1041.1613
1041.9602
1041.8431
1035.8429
1034.8588
1030.4415
1026.7619
1026.7442
1030.4131
1034.8026
1035.7994
1041.798
1041.9186
1041.1312
1038.5231
1041.7449
1048.1803
1051.1473
1054.4031
1051.2509
1051.3826
1047.5973
1055.2204
1056.9612
1058.6862
1062.6497
1063.5304
1064.1971
1059.5198
1053.2195
1047.9209
1047.6057
1051.2994
1050.6782
1013.2304
1013.2001
1050.6649
1051.283
1047.5818
1047.904
1053.2091
1059.5155
1064.1963
1063.5305
1062.6499
1058.6866
1056.9617
1055.221
1052.8815
1055.354
1056.7377
1059.4394
1063.8345
1062.4731
1056.4191
1050.9016
1046.0959
1044.3898
1048.9722
1048.4743
1015.1945
1015.1499
1048.4542
1048.9505
1044.3567
1046.0756
1050.8891
1056.4123
1062.472
1063.8347
1059.4397
1056.7382
1055.3544
1052.8823
1051.959
1059.7808
1057.9725
1060.5895
1064.7536
1063.4222
1058.2156
1050.5206
1045.5489
1043.2008
1051.301
1045.8931
1017.3401
1017.2805
1045.8742
1051.2854
1043.1624
1045.5273
1050.5125
1058.2104
1063.4214
1064.7536
1060.5898
1057.9729
1059.7812
1051.9598
1047.5573
1060.6435
1059.9496
1061.771
1063.0997
1062.825
1058.9681
1044.5678
1038.4906
1039.137
1051.468
1047.0688
1020.9302
1020.853
1047.0522
1051.452
1039.0819
1038.453
1044.5562
1058.9642
1062.8237
1063.0987
1061.771
1059.9499
1060.6436
1047.5584
1043.6723
1047.1353
1050.1627
1053.2217
1054.8896
1052.2915
1045.3618
1037.2809
1035.7614
1037.4555
1038.4108
1036.1666
1021.0658
1020.9486
1036.0869
1038.3423
1037.392
1035.7147
1037.2627
1045.3536
1052.2873
1054.8874
1053.2207
1050.1625
1047.1357
1043.6736
1055.2204
1056.9612
1058.6863
1062.6496
1063.5303
1064.1975
1059.521
1053.2208
1047.9221
1047.6064
1051.3013
1050.6768
1013.2224
1013.1985
1050.6647
1051.2836
1047.5821
1047.9044
1053.2097
1059.5161
1064.1962
1063.5303
1062.6499
1058.6867
1056.9618
1055.2212
1052.8815
1055.3539
1056.7377
1059.4395
1063.8345
1062.4736
1056.4205
1050.9034
1046.0969
1044.39
1048.9722
1048.4731
1015.1965
1015.1502
1048.4541
1048.9507
1044.3569
1046.076
1050.8895
1056.4125
1062.472
1063.8347
1059.4399
1056.7383
1055.3545
1052.8824
1051.959
1059.7809
1057.9725
1060.5895
1064.7537
1063.4228
1058.2168
1050.5226
1045.55
1043.2008
1051.3029
1045.8959
1017.3435
1017.2811
1045.8748
1051.2862
1043.1626
1045.5278
1050.513
1058.2106
1063.4214
1064.7534
1060.5899
1057.9731
1059.7813
1051.96
1047.5573
1060.6435
1059.9496
1061.771
1063.1003
1062.8258
1058.9694
1044.5701
1038.491
1039.1366
1051.4684
1047.0686
1020.9309
1020.853
1047.0521
1051.4529
1039.0816
1038.4533
1044.557
1058.9644
1062.8236
1063.0983
1061.771
1059.9499
1060.6437
1047.5584
1043.6723
1047.1353
1050.1628
1053.222
1054.8904
1052.2918
1045.3626
1037.2813
1035.7609
1037.4549
1038.4098
1036.1679
1021.0665
1020.948
1036.0871
1038.3408
1037.3912
1035.7145
1037.2627
1045.3535
1052.2869
1054.8879
1053.2209
1050.1625
1047.1358
1043.6737
1054.9226
1056.3633
1058.3991
1064.9987
1058.6783
1060.8002
1061.5215
1058.8407
1056.6801
1056.6037
1058.82
1037.6478
1021.5621
1023.4244
1023.4402
1023.4358
1023.4211
1021.5506
1037.638
1058.813
1056.5956
1056.6729
1058.8378
1061.5205
1060.7999
1058.6779
1064.999
1058.3996
1056.364
1054.9235
1052.8681
1055.1849
1056.2994
1058.4818
1056.878
1060.133
1060.9138
1057.8459
1053.9303
1056.9822
1055.6953
1039.6304
1026.3713
1028.7717
1026.046
1026.0374
1028.7631
1026.3538
1039.6164
1055.6863
1056.9757
1053.9203
1057.8417
1060.9126
1060.1327
1056.8774
1058.4815
1056.3
1055.1856
1052.8692
1052.0021
1060.5984
1056.8261
1059.4638
1056.8675
1053.467
1057.1537
1059.0211
1058.3991
1058.03
1055.4832
1040.0704
1037.0838
1031.5227
1026.7915
1026.7805
1031.5102
1037.0644
1040.0563
1055.4757
1058.0262
1058.3954
1059.0182
1057.1513
1053.4651
1056.8669
1059.4639
1056.8267
1060.5988
1052.0034
1049.1647
1059.8381
1057.484
1060.3011
1055.3447
1049.0502
1041.6088
1043.645
1044.6846
1049.0032
1053.9436
1040.2807
1038.132
1029.3774
1027.4364
1027.4227
1029.3624
1038.1101
1040.2673
1053.9363
1048.9951
1044.6712
1043.6294
1041.5994
1049.048
1055.345
1060.3012
1057.4846
1059.8384
1049.1663
1047.5956
1051.3815
1051.25
1054.403
1051.148
1048.1824
1041.7531
1038.5509
1041.1616
1041.9596
1041.8426
1035.8414
1034.8582
1030.441
1026.7611
1026.7442
1030.4126
1034.802
1035.7987
1041.7971
1041.9182
1041.1315
1038.5229
1041.7442
1048.1801
1051.1471
1054.4029
1051.2511
1051.3828
1047.5974
1054.3689
1055.8374
1057.5178
1063.7294
1063.2399
1058.4038
1059.0473
1056.1872
1056.2148
1060.1138
1059.9178
1039.6192
1037.1962
1046.4279
1050.8677
1050.8628
1046.4248
1037.188
1039.6113
1059.9154
1060.1104
1056.212
1056.185
1059.0461
1058.4032
1063.2398
1063.7295
1057.5183
1055.8381
1054.3699
1051.8537
1055.3374
1055.9415
1058.9778
1057.9369
1055.9748
1057.5276
1055.9588
1055.3557
1057.9144
1058.2214
1043.2536
1040.0941
1045.8884
1045.5969
1045.5981
1045.8867
1040.0867
1043.2459
1058.2171
1057.9106
1055.3514
1055.9557
1057.5258
1055.9737
1057.9365
1058.9779
1055.942
1055.3381
1051.855
1050.4478
1057.5931
1056.7272
1059.6674
1060.567
1055.0104
1053.5047
1056.9377
1056.4858
1060.7663
1058.5848
1043.3514
1040.9956
1046.2335
1046.9828
1046.9759
1046.2299
1040.9875
1043.3435
1058.5809
1060.764
1056.4823
1056.9353
1053.5005
1055.0088
1060.5669
1059.6675
1056.7277
1057.5938
1050.4494
1047.9937
1059.2074
1058.3165
1060.4415
1061.0397
1050.8192
1048.3381
1057.6765
1057.4919
1056.8184
1057.6182
1043.6221
1042.8464
1044.6695
1044.1197
1044.1024
1044.6634
1042.839
1043.6143
1057.6143
1056.8142
1057.4888
1057.6745
1048.3309
1050.8167
1061.0396
1060.4416
1058.3167
1059.2077
1047.9954
1045.8396
1049.5855
1050.6091
1054.8136
1054.8245
1050.0586
1043.9577
1047.6959
1050.5915
1051.2548
1050.297
1039.9938
1038.3259
1037.8977
1034.0067
1033.9964
1037.8806
1038.288
1039.9682
1050.2755
1051.2372
1050.5754
1047.6796
1043.947
1050.0565
1054.8236
1054.8137
1050.6097
1049.5866
1045.8413
1050.8249
1053.2115
1055.5525
1059.6117
1058.0326
1056.6156
1055.5487
1051.8601
1052.5666
1054.3587
1057.9784
1058.5153
1057.2997
1056.7254
1055.8019
1055.8001
1056.7243
1057.2983
1058.5138
1057.976
1054.3542
1052.5615
1051.8555
1055.5459
1056.6141
1058.0316
1059.6117
1055.5531
1053.2124
1050.826
1048.9455
1052.8756
1054.1777
1056.2561
1057.3826
1057.0085
1054.9123
1051.6661
1053.2427
1054.2038
1055.6439
1055.5557
1053.9042
1053.0036
1052.0944
1052.0908
1053.0008
1053.9013
1055.553
1055.6391
1054.198
1053.236
1051.6593
1054.9087
1057.007
1057.3815
1056.2561
1054.1782
1052.8766
1048.9468
1048.309
1053.5115
1055.7395
1056.7362
1057.9957
1058.5735
1053.7051
1052.6596
1058.7049
1056.8194
1056.0478
1055.878
1053.2167
1052.9155
1049.9558
1049.9506
1052.9134
1053.213
1055.8751
1056.0437
1056.8156
1058.7023
1052.6521
1053.7007
1058.5729
1057.9946
1056.7362
1055.74
1053.5124
1048.3103
1047.7395
1056.1224
1058.4224
1057.3201
1058.4312
1057.1689
1050.7931
1050.0769
1058.1869
1057.263
1056.5192
1056.1071
1054.1584
1055.3265
1046.6049
1046.5976
1055.323
1054.155
1056.1042
1056.5156
1057.2597
1058.184
1050.0664
1050.788
1057.1679
1058.4303
1057.3202
1058.4226
1056.1237
1047.7408
1047.1809
1050.5215
1053.5944
1054.2015
1053.6346
1052.377
1048.6845
1046.343
1049.7045
1050.1615
1050.8115
1051.2647
1047.731
1046.0588
1041.4081
1041.399
1046.0453
1047.7035
1051.2485
1050.7945
1050.1445
1049.6888
1046.3276
1048.6813
1052.3755
1053.6337
1054.2016
1053.5944
1050.522
1047.182
1055.9048
1057.4691
1057.9243
1054.2008
1052.5114
1051.4313
1049.7559
1047.8554
1051.6144
1053.6729
1054.2241
1055.2482
1053.6025
1052.0412
1052.648
1052.6474
1052.0382
1053.5992
1055.2449
1054.2186
1053.666
1051.6061
1047.8476
1049.752
1051.4289
1052.5097
1054.1996
1057.9239
1057.4693
1055.9053
1053.5613
1054.4337
1055.0622
1054.2822
1053.6288
1051.8071
1049.3666
1046.8981
1051.5623
1054.3889
1055.0175
1053.8421
1050.9694
1047.4419
1046.0342
1046.0301
1047.4351
1050.9637
1053.8372
1055.0111
1054.3813
1051.552
1046.8882
1049.3628
1051.805
1053.6275
1054.2812
1055.0621
1054.4338
1053.5616
1048.0955
1050.0901
1053.4413
1054.7528
1057.3541
1052.5135
1049.0445
1046.2721
1051.5529
1054.7526
1056.8911
1054.4593
1052.7343
1046.4273
1043.4992
1043.4918
1046.4169
1052.7281
1054.4547
1056.8879
1054.7453
1051.5416
1046.2611
1049.0411
1052.5121
1057.354
1054.7523
1053.4418
1050.0909
1048.0967
1046.5224
1049.9564
1056.674
1055.6732
1057.2059
1049.7375
1046.9951
1044.1124
1047.5853
1051.0056
1056.9094
1055.3582
1056.3543
1046.2003
1042.0016
1041.9915
1046.1858
1056.3511
1055.3543
1056.9062
1050.9924
1047.5688
1044.0992
1046.9916
1049.736
1057.2054
1055.6729
1056.6743
1049.9574
1046.5239
1045.7095
1048.9606
1052.0404
1050.1228
1050.6676
1048.3815
1045.7488
1042.6914
1044.941
1046.3527
1048.647
1048.1615
1046.8736
1044.1816
1040.3307
1040.318
1044.1622
1046.8447
1048.1392
1048.6279
1046.3312
1044.9201
1042.6764
1045.7464
1048.3806
1050.6672
1050.1231
1052.041
1048.9617
1045.711
)
;

boundaryField
{
    minX
    {
        type            zeroGradient;
    }
    maxX
    {
        type            zeroGradient;
    }
    minY
    {
        type            fixedValue;
        value           uniform 1073;
    }
    minZ
    {
        type            zeroGradient;
    }
    maxZ
    {
        type            zeroGradient;
    }
    bottomWater_to_rightSolid
    {
        type            compressible::turbulentTemperatureCoupledBaffleMixed;
        refValue        nonuniform List<scalar> 
130
(
407.00483
407.41435
407.77322
408.06373
408.3018
408.50303
408.70029
408.87475
409.00851
409.08681
409.12148
409.10492
409.07723
406.44825
407.01115
407.50095
407.89817
408.20958
408.45174
408.67269
408.86963
409.01658
409.10506
409.13508
409.12118
409.0961
405.15722
406.07864
406.88818
407.50457
407.955
408.2812
408.53941
408.78432
408.97716
409.09055
409.12697
409.12845
409.10902
403.12816
404.767
406.03077
406.93195
407.56322
408.01446
408.37857
408.68877
408.91991
409.06876
409.12828
409.14495
409.13146
400.54101
403.47555
405.32072
406.50311
407.28646
407.84763
408.29782
408.65508
408.90533
409.04974
409.10993
409.11925
409.1062
400.54103
403.47556
405.32072
406.5031
407.28646
407.84763
408.29782
408.65508
408.90533
409.04974
409.10993
409.11926
409.1062
403.12817
404.767
406.03076
406.93195
407.56322
408.01447
408.37857
408.68877
408.91992
409.06876
409.12829
409.14496
409.13147
405.15722
406.07863
406.88818
407.50458
407.95501
408.28121
408.53942
408.78433
408.97717
409.09057
409.12699
409.12849
409.10907
406.44823
407.01114
407.50095
407.89818
408.20959
408.45175
408.67269
408.86964
409.0166
409.10509
409.13514
409.12127
409.09623
407.00472
407.4143
407.7732
408.06373
408.30181
408.50303
408.70031
408.87476
409.00853
409.08687
409.12158
409.10512
409.07758
)
;
        refGradient     uniform 0;
        valueFraction   uniform 0.99248593;
        value           nonuniform List<scalar> 
130
(
411.81275
412.22893
412.58871
412.85978
413.08546
413.26833
413.4872
413.68014
413.83008
413.90375
413.9526
413.913
413.86105
411.26687
411.85213
412.33478
412.72412
413.02974
413.24485
413.48186
413.70509
413.86037
413.95246
413.97762
413.94074
413.89075
409.91474
410.84182
411.72266
412.3417
412.78376
413.08581
413.3139
413.60287
413.83011
413.94265
413.9472
413.94102
413.89358
407.87472
409.50866
410.80792
411.70333
412.324
412.75228
413.13764
413.49397
413.74572
413.91794
413.95337
413.97087
413.92903
405.20305
408.22927
410.07742
411.24376
412.00862
412.57708
413.08457
413.4913
413.75924
413.8901
413.92688
413.91342
413.87446
405.20307
408.22927
410.07741
411.24375
412.00862
412.57708
413.08456
413.4913
413.75925
413.8901
413.92689
413.91342
413.87446
407.87472
409.50865
410.80791
411.70333
412.324
412.75228
413.13764
413.49396
413.74572
413.91795
413.95338
413.97089
413.92905
409.91473
410.84181
411.72266
412.34171
412.78378
413.08582
413.31389
413.60286
413.83011
413.94266
413.94723
413.94106
413.89363
411.26685
411.85212
412.33477
412.72413
413.02975
413.24486
413.48187
413.7051
413.86039
413.95249
413.97768
413.94083
413.89088
411.81264
412.22888
412.58869
412.85978
413.08546
413.26833
413.48721
413.68016
413.83011
413.90381
413.9527
413.91319
413.86139
)
;
        Tnbr            T;
        thicknessLayers List<scalar> 0();
        kappaLayers     List<scalar> 0();
        kappaMethod     fluidThermo;
        kappa           none;
        alphaAni        none;
        alpha           none;
        field           T;
    }
    bottomWater_to_leftSolid
    {
        type            compressible::turbulentTemperatureCoupledBaffleMixed;
        refValue        nonuniform List<scalar> 
130
(
408.98202
409.02373
409.06758
409.07511
409.05768
409.00924
408.95186
408.91169
408.91564
408.93714
408.96284
408.97218
408.96889
409.00795
409.04831
409.09198
409.10822
409.08724
409.03628
408.97341
408.9361
408.93961
408.94772
408.95166
408.94321
408.92422
409.02474
409.06138
409.09345
409.10991
409.07519
408.99689
408.91638
408.89062
408.88751
408.87684
408.84267
408.77386
408.73743
409.04154
409.07377
409.09462
409.09538
409.03791
408.94259
408.83224
408.75968
408.73027
408.70434
408.66214
408.59363
408.54916
409.01124
409.04409
409.07487
409.07998
409.03569
408.93602
408.80363
408.68849
408.6273
408.59471
408.55406
408.48134
408.3825
409.01124
409.04409
409.07487
409.07998
409.03569
408.93602
408.80363
408.68849
408.6273
408.59471
408.55405
408.48134
408.3825
409.04153
409.07377
409.09462
409.09538
409.03791
408.94259
408.83223
408.75967
408.73027
408.70434
408.66213
408.59362
408.54915
409.02474
409.06138
409.09345
409.10991
409.07519
408.99689
408.91638
408.89062
408.88751
408.87684
408.84267
408.77385
408.73743
409.00795
409.04831
409.09198
409.10822
409.08724
409.03628
408.97341
408.9361
408.93961
408.94772
408.95166
408.94321
408.92422
408.98202
409.02373
409.06758
409.07511
409.05768
409.00924
408.95186
408.91169
408.91564
408.93714
408.96284
408.97217
408.96889
)
;
        refGradient     uniform 0;
        valueFraction   uniform 0.99248593;
        value           nonuniform List<scalar> 
130
(
413.76654
413.83241
413.8991
413.89213
413.87889
413.81363
413.7369
413.67404
413.69484
413.72679
413.76953
413.77522
413.76226
413.80326
413.86841
413.93484
413.9556
413.9305
413.8705
413.78035
413.72569
413.75441
413.76591
413.77471
413.7698
413.72444
413.80993
413.87444
413.91393
413.96186
413.9274
413.81385
413.6881
413.69077
413.70938
413.70379
413.66263
413.51698
413.46833
413.83977
413.90023
413.91996
413.94436
413.86283
413.7459
413.58796
413.4921
413.4825
413.46272
413.41985
413.30686
413.2554
413.7802
413.83881
413.8921
413.92012
413.88864
413.77016
413.58664
413.41176
413.33974
413.32012
413.28698
413.19804
412.9865
413.7802
413.83881
413.8921
413.92012
413.88865
413.77017
413.58664
413.41176
413.33974
413.32011
413.28697
413.19805
412.9865
413.83977
413.90022
413.91996
413.94436
413.86283
413.7459
413.58796
413.49209
413.4825
413.46271
413.41984
413.30684
413.25539
413.80993
413.87444
413.91393
413.96186
413.9274
413.81385
413.6881
413.69078
413.70939
413.70379
413.66263
413.51697
413.46832
413.80326
413.86841
413.93485
413.9556
413.9305
413.8705
413.78035
413.72569
413.75441
413.76591
413.77471
413.7698
413.72444
413.76654
413.83241
413.8991
413.89213
413.87889
413.81363
413.7369
413.67404
413.69484
413.72679
413.76953
413.77521
413.76226
)
;
        Tnbr            T;
        thicknessLayers List<scalar> 0();
        kappaLayers     List<scalar> 0();
        kappaMethod     fluidThermo;
        kappa           none;
        alphaAni        none;
        alpha           none;
        field           T;
    }
    bottomWater_to_heater
    {
        type            compressible::turbulentTemperatureCoupledBaffleMixed;
        refValue        nonuniform List<scalar> 
92
(
405.97621
406.06171
406.26875
406.58355
405.03412
405.15347
405.44065
405.88057
402.80338
402.99109
403.45892
404.20649
324.83683
321.53658
321.54314
324.85253
358.42934
353.88194
353.90834
358.49299
380.18596
375.51887
375.59127
380.36283
392.36699
387.91563
388.10239
392.838
398.83366
396.39083
399.02336
392.72207
399.77916
393.1783
401.21607
397.6444
324.83683
324.85253
358.42934
358.49299
380.18596
380.36283
392.36699
392.838
396.39083
397.6444
324.83677
324.83677
321.53654
321.54312
324.85251
324.85251
358.42926
358.42926
353.88188
353.9083
358.49298
358.49298
380.18586
380.18586
375.51881
375.59123
380.36285
380.36285
392.36686
392.36686
387.91557
388.10237
392.83804
392.83804
396.39074
396.39074
392.72203
393.1783
397.64446
397.64446
398.83372
399.02339
399.77918
401.21608
402.80337
402.99109
403.45891
404.20648
405.03402
405.1534
405.44062
405.88056
405.97588
406.06155
406.2687
406.58361
)
;
        refGradient     uniform 0;
        valueFraction   nonuniform List<scalar> 
92
(
0.99248593
0.99248593
0.99248593
0.99248593
0.99248593
0.99248593
0.99248593
0.99248593
0.99248593
0.99248593
0.99248593
0.99248593
0.99248593
0.99248593
0.99248593
0.99248593
0.99248593
0.99248593
0.99248593
0.99248593
0.99248593
0.99248593
0.99248593
0.99248593
0.99248593
0.99248593
0.99248593
0.99248593
0.99248593
0.99248593
0.99248593
0.99248593
0.99248593
0.99248593
0.99248593
0.99248593
0.99248593
0.99248593
0.99248593
0.99248593
0.99248593
0.99248593
0.99248593
0.99248593
0.99248593
0.99248593
0.99248593
0.99248593
0.99248593
0.99248593
0.99248593
0.99248593
0.99248593
0.99248593
0.99248593
0.99248593
0.99248593
0.99248593
0.99248593
0.99248593
0.99248593
0.99248593
0.99248593
0.99248593
0.99248593
0.99248593
0.99248593
0.99248593
0.99248593
0.99248593
0.99248593
0.99248593
0.99248593
0.99248593
0.99248593
0.99248593
0.99248593
0.99248593
0.99248593
0.99248593
0.99248593
0.99248593
0.99248593
0.99248593
0.99248593
0.99248593
0.99248593
0.99248593
0.99248593
0.99248593
0.99248593
0.99248593
)
;
        value           nonuniform List<scalar> 
92
(
410.77184
410.82775
411.03314
411.37448
409.851
409.93449
410.21944
410.69098
407.57564
407.73271
408.19694
408.96808
330.08623
326.8109
326.81739
330.10179
363.46656
358.93283
358.95897
363.52967
385.08042
380.41278
380.48455
385.25587
397.15376
392.72122
392.90647
397.62112
403.57973
401.15526
403.74039
397.48644
404.49037
397.93911
405.94403
402.39919
330.00913
330.02449
363.36459
363.42743
384.97397
385.14907
397.09013
397.55703
401.08494
402.3282
330.00902
330.08617
326.81087
326.81736
330.02446
330.10177
363.36452
363.46648
358.93277
358.95892
363.42742
363.52966
384.9739
385.08033
380.41271
380.48451
385.14909
385.25589
397.09002
397.15363
392.72115
392.90645
397.55707
397.62116
401.08485
401.15516
397.4864
397.93912
402.32826
402.39924
403.57978
403.74042
404.4904
405.94403
407.57563
407.7327
408.19694
408.96807
409.8509
409.93442
410.21941
410.69098
410.77152
410.82759
411.0331
411.37453
)
;
        Tnbr            T;
        thicknessLayers List<scalar> 0();
        kappaLayers     List<scalar> 0();
        kappaMethod     fluidThermo;
        kappa           none;
        alphaAni        none;
        alpha           none;
        field           T;
    }
}


// ************************************************************************* //
