/*--------------------------------*- C++ -*----------------------------------*\
| =========                 |                                                 |
| \\      /  F ield         | OpenFOAM: The Open Source CFD Toolbox           |
|  \\    /   O peration     | Version:  v2012                                 |
|   \\  /    A nd           | Website:  www.openfoam.com                      |
|    \\/     M anipulation  |                                                 |
\*---------------------------------------------------------------------------*/
FoamFile
{
    version     2.0;
    format      ascii;
    class       volScalarField;
    location    "21";
    object      p;
}
// * * * * * * * * * * * * * * * * * * * * * * * * * * * * * * * * * * * * * //

dimensions      [0 2 -2 0 0 0 0];


internalField   nonuniform List<scalar> 
64000
(
9.83108e-22
-3.49256e-21
-2.17938e-21
-4.19203e-21
-6.94559e-21
-1.74999e-21
-2.9804e-21
-2.36098e-21
-3.83701e-21
-3.3164e-21
-2.22861e-21
-5.08617e-21
-3.06012e-21
-5.39142e-21
-2.99443e-21
-4.52462e-21
-7.41176e-22
-3.25678e-22
7.33299e-22
5.09146e-23
-1.74661e-21
-2.92983e-21
-1.47326e-21
1.14347e-21
-4.44897e-21
-1.14733e-21
1.45711e-22
-2.59911e-21
-1.87715e-21
-1.70719e-21
-2.39843e-21
-1.33243e-21
-1.25378e-21
-3.04113e-22
-1.2469e-23
-4.75002e-21
-1.89774e-21
1.7159e-21
1.73259e-21
1.58607e-21
-5.63809e-21
-8.82836e-21
-9.26252e-21
-6.30969e-21
-8.46592e-21
-1.01206e-20
-6.15399e-21
-2.2051e-21
-3.93133e-21
-6.40051e-21
-4.48178e-21
-7.61198e-21
-2.87815e-21
-3.42604e-21
-5.5229e-21
-5.98176e-21
-4.02766e-21
1.75829e-21
-5.07853e-22
-4.68744e-22
5.00112e-22
-2.4224e-21
-5.52558e-21
-5.91879e-21
-4.91437e-21
-8.51845e-22
-8.68888e-22
-3.31104e-21
-2.26192e-21
-9.69787e-22
1.89658e-21
-2.39371e-22
-4.82136e-21
-2.39582e-21
-8.0669e-23
-1.29251e-21
-1.39925e-21
2.08341e-21
5.09231e-22
9.65058e-22
-4.58823e-21
-6.03399e-21
-1.23418e-20
-8.78181e-21
-7.26376e-21
-9.69068e-21
-7.17356e-21
-6.08911e-21
-6.68623e-21
-6.36512e-21
-4.44945e-21
-6.79107e-21
-4.23367e-21
-3.51172e-21
-1.96069e-21
-2.0503e-21
-7.40091e-21
-2.14757e-21
-4.36666e-22
5.08202e-23
-1.28468e-21
-3.39214e-21
-7.00112e-21
-4.22677e-21
-1.74342e-21
-2.23877e-21
-3.17168e-21
-3.2385e-21
-3.45922e-22
-2.08065e-21
-1.19804e-22
-1.98353e-21
-4.62534e-21
-2.4513e-22
-6.73281e-22
-1.66759e-21
1.53138e-21
2.22116e-21
1.01869e-22
9.33242e-22
-8.25245e-21
-7.77881e-21
-9.00461e-21
-1.18887e-20
-1.10792e-20
-1.13373e-20
-7.741e-21
-4.37242e-21
-6.99969e-21
-7.13925e-21
-6.46555e-21
-6.78504e-21
-6.52156e-21
-3.8207e-21
-3.22882e-21
-3.21579e-21
-4.44504e-21
-1.85707e-21
-8.56576e-22
2.42496e-22
-1.52456e-22
-3.56083e-21
-9.76172e-21
-5.35645e-21
-2.8835e-21
-3.70815e-21
-1.27618e-21
5.12549e-22
-1.08513e-21
-3.67191e-21
1.5718e-22
-1.48012e-21
-3.9588e-21
-6.35604e-22
-4.0969e-22
-6.85176e-22
1.40166e-21
3.36649e-22
-7.94205e-22
-2.82211e-22
-1.43336e-20
-8.54779e-21
-1.01665e-20
-9.31086e-21
-1.14854e-20
-1.23556e-20
-8.28456e-21
-2.23614e-21
-6.05363e-21
-8.71969e-21
-6.5926e-21
-6.74246e-21
-5.42361e-21
-1.334e-21
-5.65779e-21
-7.9539e-21
-4.08026e-21
1.01354e-21
-1.09041e-21
-2.99454e-21
1.21037e-21
-5.23629e-21
-1.07221e-20
-6.27722e-21
-2.12392e-21
-2.20021e-21
2.5164e-23
-7.74597e-22
-3.77938e-21
-7.42744e-22
-1.96216e-22
3.06757e-22
-1.76158e-21
1.39301e-21
-1.89973e-21
-2.53509e-21
-1.69416e-22
1.58101e-21
-1.2368e-21
-2.03192e-21
-9.99319e-21
-9.62533e-21
-9.40378e-21
-1.16396e-20
-1.09117e-20
-9.9603e-21
-6.86661e-21
-8.75769e-21
-8.62709e-21
-8.02909e-21
-5.34922e-21
-7.13906e-21
-7.4514e-21
-1.64399e-21
-3.93075e-21
-7.41576e-21
-3.6587e-21
1.291e-21
7.55829e-22
-2.40711e-21
1.39237e-21
-4.78496e-21
-1.10381e-20
-7.20355e-21
-3.59716e-21
-2.06877e-21
-2.32373e-21
3.21072e-22
-9.65364e-22
-2.51045e-21
-3.08624e-21
-2.51262e-21
-1.82175e-21
1.10827e-21
-1.24072e-22
-5.40871e-22
-2.54867e-21
-1.74642e-21
-2.96474e-22
7.95005e-22
-1.14984e-20
-1.17674e-20
-8.17478e-21
-1.01186e-20
-1.12549e-20
-1.1484e-20
-7.38433e-21
-8.80806e-21
-9.30852e-21
-6.59477e-21
-6.06495e-21
-8.04031e-21
-6.34308e-21
-4.45008e-21
-5.19262e-21
-7.35532e-21
-2.74662e-21
2.34835e-21
2.21279e-21
7.83207e-23
-2.23339e-21
-5.56761e-21
-1.13283e-20
-8.4216e-21
-3.18121e-21
-2.47504e-21
-1.45325e-21
1.40914e-21
3.40114e-22
-1.22398e-21
-4.6135e-21
-3.99587e-21
-5.52487e-22
-7.02677e-22
5.48041e-23
-2.07233e-21
-2.33506e-21
-2.64448e-22
-1.04296e-21
-5.29706e-22
-1.27841e-20
-1.15842e-20
-9.81629e-21
-7.11574e-21
-1.21022e-20
-8.99155e-21
-6.63649e-21
-1.2847e-20
-1.04353e-20
-8.2694e-21
-6.51314e-21
-8.0169e-21
-8.77371e-21
-7.30366e-21
-4.73799e-21
-7.40466e-21
-2.17354e-21
9.89445e-22
2.28237e-21
6.86482e-22
-4.25269e-21
-7.2556e-21
-8.20526e-21
-4.50134e-21
-2.42516e-21
-4.36185e-21
-1.40071e-21
1.45951e-21
6.30616e-22
-1.11331e-21
-4.30188e-21
-3.08462e-21
-3.97288e-22
-1.9636e-21
-3.55188e-21
-2.87039e-21
-3.01987e-21
-1.07961e-21
3.09843e-22
-3.9538e-22
-1.80922e-20
-1.31247e-20
-1.05301e-20
-9.29307e-21
-9.5943e-21
-1.06418e-20
-9.90036e-21
-1.01639e-20
-1.1423e-20
-1.19779e-20
-4.25489e-21
-6.90553e-21
-6.62586e-21
-1.04234e-20
-6.86821e-21
-7.10056e-21
-2.27862e-21
3.36685e-21
-1.57673e-21
-2.03676e-21
-4.91281e-21
-6.21894e-21
-6.31676e-21
-6.84722e-21
4.63201e-22
-1.58559e-21
-3.68786e-21
-2.40725e-22
6.12145e-22
-9.13595e-22
-4.42912e-22
-1.47475e-21
-3.44522e-21
-1.86292e-21
-5.30167e-21
-1.85604e-21
-1.22678e-21
4.51728e-22
9.71558e-22
-1.1909e-21
-8.98861e-21
-1.17316e-20
-1.17745e-20
-9.00426e-21
-1.01987e-20
-1.19639e-20
-9.77309e-21
-9.67194e-21
-1.07088e-20
-1.06678e-20
-6.88513e-21
-5.44276e-21
-5.8267e-21
-9.76196e-21
-9.10771e-21
-5.63301e-21
-2.86604e-21
-4.40728e-22
1.90704e-21
-1.47524e-21
-4.15835e-21
-4.01945e-21
-8.43203e-21
-5.61716e-21
-1.87537e-21
-2.62921e-21
-1.84789e-21
5.78616e-22
7.99599e-23
-1.35731e-21
-1.96774e-21
-9.93412e-22
-1.84059e-21
-2.23553e-21
-5.84793e-21
-4.07708e-21
-5.65911e-22
1.63807e-21
1.36155e-21
-4.52203e-22
-7.56186e-21
-1.22992e-20
-1.32155e-20
-1.31943e-20
-9.19886e-21
-1.12558e-20
-1.37299e-20
-7.26632e-21
-1.01229e-20
-1.38337e-20
-8.61024e-21
-4.22302e-21
-4.66002e-21
-7.59234e-21
-8.57128e-21
-9.15426e-21
-5.1204e-21
1.70494e-21
4.12716e-21
-7.04123e-24
-5.51777e-21
-1.01748e-20
-7.35486e-21
-5.5547e-21
-2.99768e-21
-3.1974e-21
1.13526e-22
1.31536e-21
-1.58117e-21
-2.23804e-21
-1.53347e-21
6.73504e-22
-3.17957e-21
-1.74947e-21
-3.14673e-21
-4.35672e-21
-2.00807e-21
-8.99728e-22
-1.17514e-21
-5.41462e-22
-1.00855e-20
-1.41297e-20
-1.49878e-20
-1.02597e-20
-1.03497e-20
-1.45948e-20
-9.77785e-21
-8.95862e-21
-7.56792e-21
-1.13658e-20
-1.40222e-20
-6.24797e-21
-4.83461e-21
-8.0557e-21
-9.27334e-21
-6.62299e-21
-3.58353e-21
1.70099e-21
1.64885e-21
-7.92595e-23
-5.11038e-21
-9.06058e-21
-7.41557e-21
-6.73294e-21
-5.89606e-21
-1.19999e-23
1.54384e-21
-8.40005e-23
-3.27328e-21
-6.58842e-22
1.71078e-22
-7.18514e-22
-1.53326e-21
-2.95831e-21
-2.65359e-21
-1.36911e-21
-6.02462e-22
-1.89603e-21
-1.91462e-21
-2.01381e-21
-1.45985e-20
-1.36201e-20
-1.40347e-20
-1.1565e-20
-1.27392e-20
-1.27477e-20
-1.26669e-20
-1.10586e-20
-1.1588e-20
-1.03854e-20
-1.03943e-20
-5.45101e-21
-6.75625e-21
-9.43955e-21
-6.59932e-21
-4.96521e-21
-2.5648e-21
-4.16872e-23
-1.77623e-21
-2.67709e-21
-4.09837e-21
-5.69824e-21
-6.84986e-21
-6.20231e-21
-2.88236e-21
-4.29258e-22
-2.5069e-23
-1.07613e-21
-6.08488e-22
5.01965e-22
-3.51367e-21
-1.44682e-21
2.84846e-22
-3.42403e-21
-2.82998e-21
-1.04748e-21
-1.60816e-21
-3.37154e-21
-2.05333e-21
-1.30257e-21
-1.72334e-20
-1.67042e-20
-1.28571e-20
-1.26501e-20
-1.01469e-20
-1.15508e-20
-1.2145e-20
-9.25629e-21
-1.03891e-20
-1.2983e-20
-8.367e-21
-4.5982e-21
-9.13494e-21
-1.39709e-20
-7.65712e-21
-4.89033e-21
-1.38408e-21
1.95467e-21
-1.75548e-21
-3.34511e-21
-5.84999e-21
-7.17317e-21
-6.86313e-21
-8.96651e-21
-1.89963e-21
-7.64019e-22
-1.0155e-21
-1.30884e-21
1.41627e-21
2.33276e-21
-7.41809e-22
-3.02269e-21
-1.40567e-21
-1.4351e-21
-1.90554e-21
-2.89878e-21
-3.21056e-21
-3.15052e-21
-1.45922e-21
-1.66907e-21
-1.13407e-20
-1.8696e-20
-1.69594e-20
-1.02989e-20
-8.19705e-21
-1.1212e-20
-1.58447e-20
-1.57318e-20
-1.10417e-20
-8.65476e-21
-5.98314e-21
-7.74573e-21
-9.68156e-21
-1.13885e-20
-4.27088e-21
-4.77475e-21
-2.54208e-21
-2.5613e-21
-3.97211e-21
-2.21498e-21
-8.09219e-21
-4.60924e-21
-5.16878e-21
-8.73697e-21
-9.33864e-22
-1.3998e-21
-1.97102e-21
-8.25805e-22
1.61308e-21
1.88739e-21
2.66534e-22
-1.86064e-21
-1.61013e-21
-7.60725e-22
-1.72533e-21
-3.84599e-21
-4.29966e-21
-4.36886e-21
-2.39752e-21
3.13501e-22
-1.31879e-20
-1.32812e-20
-1.60102e-20
-1.18145e-20
-1.23279e-20
-1.03195e-20
-1.43739e-20
-1.56231e-20
-9.28663e-21
-6.12948e-21
-1.0244e-20
-9.89866e-21
-7.37547e-21
-8.05443e-21
-7.40605e-21
-5.9535e-21
-2.12393e-21
-2.99815e-21
-2.75907e-21
-4.08882e-21
-8.06542e-21
-5.75775e-21
-4.06824e-21
-3.79848e-21
-9.99792e-22
-2.76767e-21
-4.02017e-21
-2.7789e-21
3.18835e-21
2.88385e-21
-1.78452e-21
-3.68605e-21
1.13517e-21
-1.30034e-22
-1.6979e-21
-2.41972e-21
-5.67175e-21
-4.3579e-21
-1.48413e-21
-1.26591e-23
-1.39706e-20
-1.2231e-20
-1.47883e-20
-1.00061e-20
-9.78819e-21
-1.17231e-20
-1.46674e-20
-1.5531e-20
-9.20581e-21
-8.86847e-21
-1.00388e-20
-1.24079e-20
-4.14085e-21
-7.03973e-21
-5.9499e-21
-5.06443e-21
-3.68671e-21
-1.78071e-21
-4.17469e-21
-5.09489e-21
-7.63508e-21
-5.09742e-21
-3.78905e-21
-1.3888e-21
-5.04823e-22
-1.2398e-21
-2.5492e-21
-2.77817e-21
2.16727e-21
7.34516e-22
-3.30339e-21
-2.53649e-21
3.3857e-22
-1.09866e-21
-1.59448e-21
-2.30577e-21
-4.08288e-21
-3.17512e-21
-2.96127e-22
-1.50883e-21
-1.04944e-20
-1.33505e-20
-1.82646e-20
-1.0303e-20
-6.77858e-21
-1.17446e-20
-1.564e-20
-1.38698e-20
-1.10652e-20
-9.17342e-21
-1.0279e-20
-1.09007e-20
-6.94494e-21
-6.91174e-21
-2.65228e-21
-8.07275e-21
-6.1475e-21
1.38948e-21
-5.18496e-22
-7.81706e-21
-8.51699e-21
-8.27543e-21
-1.03548e-21
-4.01056e-22
1.5253e-21
-3.75296e-21
-2.42464e-21
-1.56823e-22
3.02376e-23
3.74725e-22
-1.10094e-21
-6.00927e-22
2.01987e-22
-6.70953e-22
-1.48871e-22
-3.61394e-21
-3.62579e-21
-2.82261e-21
-2.85439e-22
-7.52922e-22
-8.51914e-21
-1.0636e-20
-1.37277e-20
-1.24683e-20
-1.13553e-20
-1.16635e-20
-1.30525e-20
-1.21855e-20
-1.15182e-20
-1.04502e-20
-1.04508e-20
-9.46194e-21
-6.30014e-21
-6.95788e-21
-3.61914e-21
-6.70691e-21
-6.97331e-21
-7.12506e-21
-8.99277e-21
-4.34882e-21
-4.02068e-21
-2.68188e-21
-2.02e-21
-9.26714e-22
8.97186e-22
-9.74479e-22
-7.93855e-22
1.52098e-21
9.26879e-22
-5.92646e-22
-3.51399e-21
-1.72499e-21
8.814e-22
-5.38142e-22
-1.02616e-21
-9.46138e-22
-1.40735e-21
-1.91228e-21
-3.30732e-21
-2.57614e-21
-5.97305e-21
-9.50962e-21
-1.6322e-20
-1.38032e-20
-1.20538e-20
-9.76904e-21
-9.96763e-21
-1.51013e-20
-1.29444e-20
-1.16975e-20
-8.65062e-21
-9.68148e-21
-4.74046e-21
-5.92893e-21
-7.88932e-21
-7.9868e-21
-4.64112e-21
-3.84174e-21
-9.60774e-21
-4.68417e-21
-5.49006e-21
-5.11297e-21
-2.91279e-21
2.27849e-22
1.55051e-21
1.40277e-21
-4.74271e-21
-3.86454e-22
6.5007e-22
-8.31477e-22
-3.47239e-21
-8.35622e-22
-1.69382e-22
-4.92013e-22
-1.72197e-21
3.0739e-22
-1.14446e-21
-1.06194e-21
-2.38502e-21
-2.35153e-21
-9.16206e-21
-1.04188e-20
-1.50549e-20
-1.25642e-20
-1.14178e-20
-1.01174e-20
-9.92865e-21
-1.08006e-20
-1.12938e-20
-1.26542e-20
-1.40793e-20
-9.18774e-21
-7.06587e-21
-5.08658e-21
-7.58495e-21
-6.49368e-21
-6.51271e-21
-2.885e-21
-5.29611e-21
-5.12752e-21
-5.63967e-21
-4.76731e-21
-1.24534e-21
-2.08089e-21
-2.93346e-21
3.02031e-22
-1.93048e-21
-1.13964e-21
-1.71657e-22
4.1259e-22
-1.81195e-21
-6.49209e-22
-2.28532e-21
1.37452e-21
-1.23673e-21
-9.0012e-22
-1.46909e-22
-2.07422e-21
-1.55739e-21
-3.45673e-21
-1.50162e-20
-1.3721e-20
-1.28172e-20
-1.22385e-20
-1.14226e-20
-1.03562e-20
-1.09671e-20
-9.64202e-21
-8.66278e-21
-1.30055e-20
-1.45747e-20
-7.09903e-21
-7.03627e-21
-1.192e-20
-7.75242e-21
-6.60301e-21
-2.77543e-21
-2.47381e-21
-5.43893e-21
-5.37735e-21
-6.53829e-21
-5.96311e-22
-1.70317e-21
-2.74076e-21
-8.40878e-22
-7.20705e-22
-3.62073e-21
-2.8318e-21
-5.82186e-23
9.57099e-22
-3.07945e-21
-2.59373e-22
1.17662e-23
2.65943e-22
-2.2057e-21
-4.74062e-21
-7.08633e-22
-1.12447e-21
1.69512e-23
2.89791e-22
-1.62385e-20
-1.66934e-20
-1.2117e-20
-1.17096e-20
-1.17396e-20
-1.31312e-20
-9.10268e-21
-9.22872e-21
-1.22375e-20
-1.17062e-20
-1.22718e-20
-9.56645e-21
-7.91283e-21
-6.66005e-21
-6.7999e-21
-6.9028e-21
-4.29216e-21
3.22267e-22
-1.11985e-22
-5.28963e-21
-6.14561e-21
-2.04526e-21
-5.22449e-21
-4.74707e-21
-2.35705e-21
-1.74559e-21
-2.54152e-21
-2.01884e-21
1.57528e-22
7.24334e-22
-3.56619e-21
-5.9408e-22
-3.80643e-22
3.63378e-22
-1.7253e-21
-4.06019e-21
-2.21899e-21
3.63008e-22
-1.36361e-21
-1.33763e-21
-1.11051e-20
-1.27724e-20
-1.5648e-20
-1.09877e-20
-1.12957e-20
-1.2529e-20
-1.22817e-20
-1.31197e-20
-8.7366e-21
-9.96927e-21
-1.20658e-20
-1.15937e-20
-3.64416e-21
-8.81078e-21
-1.02701e-20
-4.79854e-21
5.13885e-22
-1.91255e-21
-3.01173e-21
-3.90911e-21
-5.69856e-21
-4.25109e-21
-3.41069e-21
-2.3648e-21
-4.62694e-21
-2.22386e-21
-2.5491e-21
-3.54736e-21
2.52662e-21
6.19391e-22
-2.94422e-21
-6.19441e-22
-2.8313e-22
-2.49173e-21
-4.79139e-21
-3.51603e-21
-1.67453e-21
-1.39592e-22
-1.85557e-21
-1.91648e-21
-9.27596e-21
-1.28957e-20
-1.37326e-20
-1.23995e-20
-1.00214e-20
-1.29156e-20
-1.16992e-20
-1.08065e-20
-7.876e-21
-1.19257e-20
-1.43457e-20
-1.03385e-20
-3.79015e-21
-6.28546e-21
-7.52332e-21
-2.83097e-21
-2.77619e-21
-5.77145e-21
-1.6643e-21
-7.26007e-22
-3.9071e-21
-5.09084e-21
-2.28541e-21
-4.607e-21
-5.58415e-21
-4.15907e-21
-1.70649e-21
3.58286e-22
7.86819e-22
-3.37179e-22
2.3279e-22
-2.49905e-21
-3.83603e-21
5.35727e-22
-3.69761e-21
-2.63973e-21
-1.39536e-21
-1.09684e-21
-1.53501e-21
-5.32831e-22
-1.14455e-20
-1.47884e-20
-1.44829e-20
-1.00898e-20
-1.00878e-20
-1.15442e-20
-1.10269e-20
-1.03953e-20
-8.28687e-21
-9.53168e-21
-1.43894e-20
-1.28823e-20
-4.53271e-21
-8.18027e-21
-2.61872e-21
-5.03968e-21
-5.76792e-21
-3.04839e-22
2.08832e-21
-2.62951e-21
-2.80139e-21
-4.04635e-21
-8.35925e-21
-8.71805e-21
-7.03761e-21
-5.3844e-21
1.05285e-21
-2.45974e-21
-1.64508e-21
9.59802e-22
-5.33638e-22
-2.20147e-21
-3.75989e-21
-6.00413e-23
3.52144e-22
-2.52339e-22
-3.95534e-22
-4.47936e-21
-2.40136e-22
-2.47929e-22
-6.63908e-21
-1.1203e-20
-1.32552e-20
-1.53671e-20
-1.37245e-20
-1.34163e-20
-1.02552e-20
-4.82004e-21
-8.63607e-21
-1.1086e-20
-1.45907e-20
-1.13021e-20
-4.24349e-21
-6.68705e-21
-5.5192e-21
-7.84816e-21
-5.24562e-21
-2.10503e-21
4.08335e-21
1.19569e-21
-1.26251e-21
-6.5999e-21
-6.31039e-21
-7.32724e-21
-7.49844e-21
-4.3438e-21
1.862e-21
7.97188e-22
-4.0857e-21
-9.78843e-22
1.55376e-21
-1.20048e-21
-1.85812e-21
-7.95458e-22
-3.49133e-21
1.46035e-21
-8.15025e-22
-6.34143e-21
-3.27955e-21
-1.08591e-21
-7.72271e-21
-1.14726e-20
-1.33743e-20
-1.50497e-20
-1.20837e-20
-1.19996e-20
-1.0049e-20
-9.31561e-21
-8.45009e-21
-9.68718e-21
-1.27131e-20
-6.78875e-21
-6.03596e-21
-5.63177e-21
-7.46343e-21
-4.51244e-21
-4.941e-21
-1.81686e-21
1.38026e-21
1.97101e-21
-2.41023e-21
-1.80969e-21
-4.55476e-21
-8.19852e-21
-7.14101e-21
-2.10903e-21
2.85993e-22
-1.35944e-21
-1.93212e-21
-1.0451e-21
-7.63155e-22
-9.95723e-22
-2.75595e-21
-4.09018e-21
-1.88284e-21
-1.36804e-21
-2.54591e-21
-3.71678e-21
-2.14636e-21
5.18353e-23
-9.56504e-21
-1.44358e-20
-1.53737e-20
-1.21355e-20
-1.57437e-20
-1.29231e-20
-9.47466e-21
-7.39616e-21
-7.09132e-21
-1.03375e-20
-1.32711e-20
-4.10601e-21
-5.63346e-21
-8.16031e-21
-5.57703e-21
-5.62232e-21
-5.26975e-21
1.32649e-21
1.54559e-21
1.77397e-21
-4.63459e-21
-4.47212e-21
-3.74001e-21
-5.12277e-21
-4.87797e-21
-2.39337e-21
-1.25895e-21
-2.8482e-21
3.70954e-22
-1.26983e-21
-8.66449e-22
-9.18327e-22
-2.78112e-21
-1.36762e-21
-5.54876e-22
-5.90209e-21
-3.99437e-21
-4.16957e-21
-1.59986e-21
4.17714e-22
-9.19375e-21
-1.23244e-20
-1.4192e-20
-1.48387e-20
-1.35089e-20
-1.46306e-20
-9.64562e-21
-5.48706e-21
-7.6019e-21
-1.02818e-20
-1.13718e-20
-7.25845e-21
-3.70907e-21
-9.20515e-21
-6.37246e-21
-5.17258e-21
-3.31955e-21
-1.89173e-21
1.48301e-21
5.00145e-21
-2.08825e-21
-5.66982e-21
-6.42237e-21
-4.98894e-21
-6.76075e-21
-4.19495e-21
6.32424e-22
4.06655e-22
-2.77192e-22
7.92379e-22
-1.58574e-21
-1.57454e-21
-3.01926e-21
-1.28283e-21
-3.3196e-21
-3.52e-21
-3.53944e-21
-1.39181e-21
-3.97596e-22
5.74828e-22
-1.10114e-20
-1.17579e-20
-1.16764e-20
-1.38028e-20
-1.19211e-20
-1.20679e-20
-9.29291e-21
-7.89042e-21
-7.66365e-21
-8.79905e-21
-7.4865e-21
-7.2771e-21
-6.9512e-21
-7.99246e-21
-5.34487e-21
-5.49931e-21
-2.32195e-21
4.4899e-22
8.33137e-22
1.16352e-21
-2.87222e-22
-6.80387e-21
-7.12844e-21
-5.21582e-21
-3.75263e-21
-2.52188e-21
-1.62051e-21
-5.5449e-22
-2.05534e-21
-7.81448e-22
-1.54258e-21
-9.58428e-22
9.82832e-22
-1.58168e-21
-3.08939e-21
-6.55756e-21
-3.22026e-21
4.80872e-22
-5.57711e-22
-1.13182e-21
-1.49205e-20
-1.35179e-20
-1.07059e-20
-1.15409e-20
-1.23842e-20
-1.37913e-20
-9.64567e-21
-8.26534e-21
-7.26439e-21
-8.15831e-21
-4.80196e-21
-8.22041e-21
-1.08254e-20
-8.83633e-21
-3.95447e-21
-3.44752e-21
-5.26134e-22
1.01687e-21
1.95367e-21
-1.98668e-21
4.07623e-22
-3.31593e-21
-1.11684e-20
-6.98123e-21
-4.45029e-21
-5.38878e-21
-3.29464e-22
5.10532e-22
-6.9673e-22
-2.06335e-22
-1.78305e-21
-2.62562e-21
2.99937e-21
-1.30148e-21
-6.04197e-21
-4.16096e-21
-1.58816e-21
1.80393e-21
-1.43565e-21
-1.56078e-21
-9.11632e-21
-8.14825e-21
-9.65867e-21
-8.41346e-21
-1.56495e-20
-1.39693e-20
-1.02578e-20
-9.25818e-21
-7.23168e-21
-7.29065e-21
-7.30014e-21
-7.16143e-21
-1.00928e-20
-6.37345e-21
-2.44407e-21
-3.92543e-21
-1.54613e-21
-6.59551e-22
2.33946e-21
-7.79148e-22
-1.21363e-21
-3.90245e-21
-8.12092e-21
-4.38802e-21
-7.67743e-21
-7.18899e-21
8.97633e-22
-3.61561e-22
-9.52184e-22
4.47912e-22
-1.46547e-21
-1.02165e-22
2.09489e-21
-8.65809e-22
-3.51794e-21
-3.16927e-21
-1.34761e-21
-1.62051e-21
-1.59138e-21
-6.57873e-22
-9.93952e-21
-9.11953e-21
-9.69401e-21
-1.35751e-20
-1.33482e-20
-1.02111e-20
-8.67702e-21
-7.10135e-21
-8.64376e-21
-5.55498e-21
-6.22746e-21
-9.90523e-21
-8.6352e-21
-5.12451e-21
-4.16257e-21
-2.33273e-21
-9.46402e-22
-5.72741e-22
-7.79788e-23
-4.02779e-22
1.35227e-21
-6.00401e-21
-5.6139e-21
-5.49816e-21
-4.16703e-21
-3.85354e-21
-1.73517e-21
-2.51907e-21
-1.30708e-21
5.70305e-22
-4.15783e-22
1.31413e-22
1.74721e-21
-9.83376e-23
-1.36985e-21
-2.10565e-21
-1.57923e-21
1.61392e-21
-3.34275e-21
-3.0382e-21
-1.14035e-20
-8.62309e-21
-8.20511e-21
-9.11059e-21
-1.20097e-20
-1.3121e-20
-9.91983e-21
-9.51209e-21
-7.83199e-21
-6.12875e-21
-4.79263e-21
-9.43478e-21
-2.89126e-21
-2.81293e-21
-4.0867e-21
-4.1401e-21
-3.88584e-21
8.18609e-22
2.4784e-21
1.61906e-21
1.95324e-22
-7.30177e-21
-3.23324e-21
-4.80082e-21
-4.08036e-21
-2.7105e-21
-2.78761e-21
-4.92601e-21
-2.00158e-21
-1.04479e-21
-2.58773e-22
5.98697e-22
9.52938e-22
2.54324e-22
-2.96414e-22
-3.07454e-23
-1.35911e-21
1.21676e-21
-5.20671e-23
-1.25449e-22
-7.67201e-21
-8.39499e-21
-9.77456e-21
-8.56815e-21
-8.31739e-21
-1.62294e-20
-8.87649e-21
-8.80355e-21
-8.05111e-21
-8.85454e-21
-8.38844e-21
-2.99523e-21
-4.07512e-21
-2.51133e-21
-3.22642e-21
-3.84405e-21
-3.66461e-21
7.60205e-23
1.58466e-21
5.80324e-22
-5.23003e-22
-3.30494e-21
-3.43066e-21
-4.06418e-21
-3.38268e-21
-1.87508e-21
-1.96138e-22
-2.15633e-21
-3.62393e-21
-1.80431e-21
-2.39663e-21
-7.45255e-22
1.04434e-21
1.31443e-21
-9.29863e-23
2.85407e-23
6.95583e-22
2.80428e-21
-2.19102e-21
-2.3427e-21
-6.37225e-21
-7.68256e-21
-8.51963e-21
-1.12436e-20
-9.35403e-21
-1.08844e-20
-8.80415e-21
-8.79675e-21
-1.05866e-20
-7.76235e-21
-6.36365e-21
-3.9466e-21
-4.2153e-21
-2.31784e-21
-4.43416e-21
-3.73141e-21
-2.96301e-21
2.24005e-21
3.63676e-21
-6.50852e-22
-4.94253e-22
-7.50189e-22
-2.85887e-21
-4.84155e-21
-5.65606e-21
-3.06197e-21
-2.27539e-21
-1.55969e-21
-6.44528e-22
-1.98606e-21
-4.5437e-21
-1.74275e-21
-5.35115e-22
8.61064e-22
-1.31554e-21
-1.66091e-22
2.51894e-21
2.26625e-21
-2.45392e-21
-2.23971e-21
-4.49744e-21
-6.33494e-21
-1.10087e-20
-7.34746e-21
-6.59845e-21
-9.77976e-21
-8.7784e-21
-8.37852e-21
-9.3171e-21
-7.24102e-21
-4.14457e-21
-6.39449e-21
-3.67427e-21
-2.60689e-21
-2.55667e-21
-2.03953e-21
-3.582e-22
-1.10837e-21
1.29826e-21
2.27107e-22
-4.73508e-22
2.00828e-21
-3.47931e-21
-5.50536e-21
-2.99464e-21
-1.12896e-21
-2.82512e-21
-1.13024e-21
9.76161e-22
-2.67317e-21
-6.33673e-21
-4.09687e-21
-2.67777e-21
-4.62948e-22
-1.29708e-21
-5.50475e-22
9.56411e-22
1.52083e-21
-3.57987e-22
-1.44014e-21
-6.15957e-21
-6.73524e-21
-9.38952e-21
-6.25526e-21
-6.61619e-21
-1.01869e-20
-6.70829e-21
-3.84396e-21
-8.52311e-21
-8.64607e-21
-5.18532e-21
-4.30705e-21
-2.27641e-21
-2.02609e-21
-3.50917e-21
-3.36671e-21
-1.85145e-21
8.2517e-22
4.4899e-22
1.81526e-21
1.72312e-21
-2.81117e-21
-2.2225e-21
-3.88785e-21
-5.26371e-21
4.46582e-22
9.55664e-22
7.39001e-22
-2.6362e-23
-4.99357e-21
-2.38828e-21
-4.68557e-21
-2.61695e-21
-1.24315e-21
-7.4251e-23
-5.64193e-22
-2.99828e-21
-4.24983e-22
7.26108e-22
6.88533e-23
-6.55918e-21
-5.29033e-21
-6.32512e-21
-2.46498e-21
-9.69537e-22
-4.44559e-21
-7.41755e-21
-4.49238e-21
-5.92062e-21
-5.97434e-21
-2.2122e-21
-7.4838e-22
-3.09831e-21
-8.35304e-22
4.53228e-23
-3.10955e-21
-1.54503e-21
-1.58355e-21
1.91359e-21
2.88625e-21
7.77898e-22
-3.62289e-21
-2.59631e-21
-6.57113e-22
-8.27786e-22
2.96681e-22
-1.35651e-21
1.12408e-21
3.00227e-21
-3.67419e-22
-4.19446e-21
-2.14252e-21
-3.07009e-21
-2.7957e-21
-9.41965e-22
-7.41739e-22
-3.90764e-21
-1.62756e-21
-6.87395e-22
3.38808e-22
-4.62854e-21
-7.50513e-21
-1.09712e-20
-7.276e-21
-6.1173e-21
-8.47343e-21
-3.94359e-21
-8.1445e-22
-8.98728e-21
-6.98304e-21
-2.90709e-21
-7.09219e-21
-5.00283e-21
-2.01072e-21
-3.49233e-21
-6.44441e-21
-4.82899e-21
-1.84514e-21
1.79899e-21
5.87292e-23
-2.2218e-21
-2.79275e-21
-2.06612e-21
-2.07812e-21
-2.7051e-21
-1.62231e-21
-1.79997e-21
-2.93161e-21
-4.98016e-21
-4.62486e-21
-5.12666e-21
-4.60606e-22
-5.37896e-22
-1.49262e-21
-2.10653e-21
-3.23729e-21
5.22058e-22
-1.857e-22
1.61391e-21
1.40062e-21
-6.50245e-21
-9.28539e-21
-1.41112e-20
-1.27245e-20
-8.78825e-21
-1.31139e-20
-1.03173e-20
-4.70594e-21
-7.77392e-21
-1.25688e-20
-1.04182e-20
-8.24555e-21
-7.39671e-21
-5.11876e-21
-5.81392e-21
-4.94658e-21
-5.10951e-21
-4.10827e-21
2.42844e-22
-1.72206e-21
-2.59311e-21
-3.1801e-21
-2.6076e-21
-5.19118e-21
-3.17243e-21
-1.51877e-21
2.06926e-22
2.64244e-22
-5.70516e-21
-1.44748e-21
-1.31957e-21
-8.95538e-22
-4.10653e-21
-1.92803e-21
-4.436e-21
-1.81504e-21
1.06482e-21
2.3114e-21
3.95409e-22
5.55667e-22
-9.15897e-21
-9.93372e-21
-1.2324e-20
-1.33718e-20
-1.23932e-20
-1.08278e-20
-1.0246e-20
-9.67848e-21
-1.10647e-20
-1.22902e-20
-8.57945e-21
-8.63656e-21
-3.10772e-21
-3.84198e-21
-7.0156e-21
-6.36142e-21
-8.35076e-21
-4.28575e-21
2.35738e-21
-7.24404e-22
-4.34835e-21
-5.19281e-21
-2.14572e-21
-2.68145e-21
-3.59007e-21
-1.71586e-21
-1.92341e-22
-2.8351e-21
-1.79257e-21
-3.74231e-21
-4.37688e-21
-3.356e-21
-1.65532e-21
-8.45167e-22
-6.00004e-21
-2.93854e-21
3.24427e-21
5.8652e-21
1.92406e-21
5.20203e-22
-1.37755e-20
-1.31321e-20
-1.19802e-20
-1.42895e-20
-1.50846e-20
-1.36488e-20
-1.16651e-20
-7.03302e-21
-1.05524e-20
-1.1045e-20
-1.06462e-20
-1.10842e-20
-7.81959e-21
-3.7038e-21
-4.41475e-21
-5.74461e-21
-5.73136e-21
-4.44436e-21
-2.22705e-21
3.04351e-24
-4.5107e-21
-5.13828e-21
-6.1891e-21
-4.14764e-21
-2.25734e-21
-1.44771e-21
4.58983e-22
1.47965e-21
-1.22956e-21
-7.4401e-21
-5.29032e-21
-2.69852e-21
-3.12191e-21
-2.69886e-21
-3.01085e-21
-1.5045e-21
1.08458e-21
4.03537e-21
1.50074e-21
-6.31581e-22
-1.51086e-20
-1.44001e-20
-1.43144e-20
-1.27277e-20
-1.75722e-20
-1.50576e-20
-1.14099e-20
-6.37442e-21
-8.95199e-21
-1.1735e-20
-1.09256e-20
-1.1504e-20
-8.31233e-21
-5.50196e-21
-5.79559e-21
-4.74101e-21
-7.51748e-21
-3.96474e-21
-3.4359e-21
-1.14002e-21
-3.59176e-21
-5.01487e-21
-6.93825e-21
-3.43669e-21
-3.45891e-21
-1.83214e-21
-6.26759e-22
-1.44868e-21
-1.19057e-21
-2.40624e-21
-3.40358e-21
-3.924e-21
-5.1456e-23
1.35929e-21
-2.3629e-21
-3.15562e-21
8.62245e-22
1.42347e-21
-1.25005e-21
5.91685e-23
-1.3701e-20
-1.40115e-20
-1.32897e-20
-1.34355e-20
-1.56436e-20
-1.64976e-20
-1.05949e-20
-1.07386e-20
-1.12449e-20
-1.25078e-20
-1.03848e-20
-1.30815e-20
-1.02206e-20
-4.09409e-21
-8.26821e-21
-7.38005e-21
-5.41908e-21
-3.28601e-21
-1.67161e-21
-2.10785e-21
-4.07459e-21
-5.89969e-21
-5.96069e-21
-3.86709e-21
-4.1774e-21
-3.09639e-21
-8.29052e-22
-1.41209e-21
-2.3452e-21
-1.28414e-21
-5.66442e-21
-2.80407e-21
3.25706e-21
-8.65459e-22
-1.45766e-21
-2.06347e-21
-1.29044e-21
-1.49017e-23
1.55514e-21
6.79189e-22
-1.70452e-20
-1.73406e-20
-1.48515e-20
-1.3689e-20
-1.48276e-20
-1.48174e-20
-1.44769e-20
-1.25927e-20
-1.34109e-20
-1.15308e-20
-1.02631e-20
-1.14633e-20
-1.03832e-20
-5.87221e-21
-1.00429e-20
-8.24335e-21
-2.85625e-21
-5.6473e-22
-2.72349e-23
-1.46827e-21
-3.72304e-21
-4.40932e-21
-3.62447e-21
-6.8155e-21
-3.17865e-21
-2.6419e-21
-2.76206e-21
-1.52283e-22
6.2533e-22
-2.11241e-21
-5.5323e-21
-2.11716e-21
-7.51533e-22
-1.55254e-22
-3.12121e-21
-2.19838e-21
-5.43351e-23
1.5659e-21
-1.41215e-22
-1.08243e-21
-1.62989e-20
-1.64405e-20
-1.48985e-20
-1.4745e-20
-1.67317e-20
-1.41683e-20
-1.30623e-20
-1.50029e-20
-1.50889e-20
-1.37353e-20
-7.88e-21
-1.16787e-20
-9.17693e-21
-5.80605e-21
-1.03798e-20
-9.42361e-21
-4.65746e-21
-9.21163e-22
1.27089e-21
-3.02394e-22
-3.10664e-21
-7.51758e-21
-7.02964e-21
-3.07534e-21
-2.85779e-21
-8.21308e-22
-1.34667e-21
-3.04361e-22
1.60306e-22
-1.96267e-21
-6.84809e-21
-9.96501e-22
-2.03041e-21
-3.86211e-21
-2.39253e-21
9.3805e-23
8.27211e-22
8.47473e-22
-1.04934e-21
-4.9458e-22
-1.78584e-20
-1.96799e-20
-1.89399e-20
-1.52676e-20
-1.46727e-20
-1.43612e-20
-1.54367e-20
-1.39636e-20
-1.44272e-20
-1.31844e-20
-1.1001e-20
-1.32499e-20
-7.59758e-21
-7.84113e-21
-8.03893e-21
-8.23494e-21
-5.91614e-21
-1.08769e-21
-2.72744e-21
-3.82685e-21
-1.6217e-21
-8.35717e-21
-6.67618e-21
-5.33303e-21
-3.87577e-22
1.2558e-21
-1.38567e-21
-1.6209e-21
2.24902e-21
-7.93836e-22
-4.50694e-21
-3.1375e-21
-3.5601e-21
9.77464e-24
-2.34236e-21
1.1861e-21
5.17357e-22
5.3756e-23
-4.6608e-22
-2.22034e-21
-1.83227e-20
-1.74485e-20
-1.75176e-20
-1.85414e-20
-1.55925e-20
-1.5273e-20
-1.80109e-20
-1.47215e-20
-1.10874e-20
-1.32353e-20
-1.16743e-20
-8.98388e-21
-9.51368e-21
-1.11636e-20
-9.83133e-21
-7.0486e-21
-4.8265e-21
-2.27088e-21
5.68582e-22
4.53301e-22
-4.57176e-21
-9.13699e-21
-8.18567e-21
-6.85308e-21
-2.80982e-21
-5.14924e-22
3.25061e-22
-7.3117e-22
5.71094e-22
-2.08183e-21
-2.3129e-21
-3.2796e-21
-3.58544e-21
-7.16178e-22
-2.0588e-21
8.05457e-22
6.82903e-23
1.61684e-22
2.08808e-21
-4.29724e-22
-1.72678e-20
-2.04575e-20
-2.10639e-20
-1.837e-20
-1.59546e-20
-1.45263e-20
-1.58308e-20
-1.52417e-20
-1.27741e-20
-1.35715e-20
-1.21172e-20
-1.06072e-20
-7.40739e-21
-9.14549e-21
-1.12584e-20
-1.03206e-20
-3.12104e-21
3.76574e-22
1.56069e-21
-1.43242e-21
-6.24828e-21
-6.81703e-21
-9.0308e-21
-1.11297e-20
-1.85306e-21
-6.92337e-23
5.77196e-22
-1.97158e-21
9.77992e-22
-1.34449e-21
-3.3212e-21
-2.2336e-21
-1.40536e-21
-2.35436e-21
-3.09178e-21
-1.69134e-22
-1.52906e-21
-1.14281e-21
-1.84543e-21
-1.96517e-21
-2.00581e-20
-2.17444e-20
-1.99919e-20
-1.75304e-20
-1.37188e-20
-1.58912e-20
-1.61366e-20
-1.44365e-20
-1.19691e-20
-1.42214e-20
-1.33741e-20
-1.083e-20
-1.13077e-20
-6.77241e-21
-1.01544e-20
-8.57242e-21
-6.65535e-21
8.92664e-23
2.33527e-21
-2.567e-21
-5.09773e-21
-6.82516e-21
-8.10663e-21
-9.31091e-21
-5.74747e-22
-3.48546e-21
-1.49245e-21
-9.40562e-22
2.06276e-21
-3.10798e-21
-3.38552e-21
-1.50816e-21
-1.75873e-21
-2.41925e-21
-3.18162e-21
-5.9705e-22
2.88524e-22
-1.37757e-21
-2.36924e-21
-3.18929e-22
-2.18071e-20
-2.12211e-20
-1.79253e-20
-1.8937e-20
-1.86038e-20
-1.58362e-20
-1.47391e-20
-1.41153e-20
-1.44674e-20
-1.45326e-20
-1.10805e-20
-1.01958e-20
-1.08784e-20
-7.4433e-21
-1.05456e-20
-6.37696e-21
-2.66936e-21
-1.61406e-21
-5.16343e-21
-3.85634e-21
-4.84307e-21
-4.59004e-21
-7.31909e-21
-8.44538e-21
-4.16159e-21
-1.27732e-21
-1.31526e-21
2.67829e-22
6.48388e-22
-1.76989e-22
-4.00547e-21
-3.02088e-21
1.75613e-23
-2.88643e-21
-7.2695e-21
1.0216e-22
6.75504e-22
-1.48448e-21
-1.59457e-21
1.06073e-21
-2.26041e-20
-2.21815e-20
-1.85243e-20
-1.85557e-20
-1.56871e-20
-1.6004e-20
-1.52205e-20
-1.35749e-20
-1.51698e-20
-1.52911e-20
-1.1476e-20
-8.18903e-21
-1.06442e-20
-1.1217e-20
-1.1863e-20
-6.94846e-21
-5.67414e-21
-2.29313e-21
-3.14214e-21
-1.32837e-21
-5.74044e-21
-7.04334e-21
-6.19996e-21
-7.76285e-21
-4.57155e-21
-1.2965e-21
-5.9422e-22
-4.93793e-22
9.39345e-22
-5.95446e-24
-3.37844e-21
-2.89142e-21
-1.23668e-21
-2.96009e-21
-4.94224e-21
-2.35407e-21
2.23455e-22
-1.34293e-21
-2.1833e-21
4.7803e-22
-2.46148e-20
-2.26904e-20
-1.88723e-20
-1.69006e-20
-1.55063e-20
-1.45929e-20
-1.7234e-20
-1.47529e-20
-1.37763e-20
-1.35328e-20
-1.06075e-20
-9.78953e-21
-1.3688e-20
-1.09878e-20
-8.53287e-21
-7.8377e-21
-1.00501e-21
-2.40364e-21
-6.50683e-21
-4.00149e-21
-6.05561e-21
-8.57091e-21
-8.79983e-21
-4.69307e-21
-2.56192e-21
-2.44766e-21
2.8251e-22
-8.10577e-23
4.32354e-22
4.13953e-22
-4.67963e-21
-3.33038e-21
1.21077e-21
-1.44579e-21
-4.64483e-21
-3.71852e-21
-2.89609e-21
-7.79268e-22
-8.09974e-22
1.09696e-21
-2.33139e-20
-2.21333e-20
-2.0118e-20
-1.70969e-20
-1.69115e-20
-1.61293e-20
-1.64897e-20
-1.71206e-20
-1.34007e-20
-1.09745e-20
-1.22856e-20
-1.33812e-20
-1.42895e-20
-1.03674e-20
-8.09818e-21
-3.96246e-21
-2.5223e-21
-4.06669e-21
-5.35012e-21
-5.06003e-21
-5.93149e-21
-8.88205e-21
-8.1565e-21
-3.71542e-21
-1.37084e-21
-2.59312e-21
-8.03948e-22
-4.88994e-22
-6.0351e-22
5.86961e-22
-1.08793e-21
-2.95372e-21
4.54582e-22
-7.5728e-22
-4.78498e-21
-1.68485e-21
-2.24187e-21
-3.86976e-21
-1.04803e-21
1.20281e-22
-2.0399e-20
-2.01354e-20
-2.00269e-20
-1.65076e-20
-1.99256e-20
-1.78015e-20
-1.81953e-20
-1.75642e-20
-1.37435e-20
-1.14176e-20
-1.19422e-20
-1.35376e-20
-1.25524e-20
-1.00741e-20
-7.47294e-21
-3.09839e-21
-1.22003e-21
-4.37087e-21
-9.20457e-21
-6.97143e-21
-7.60285e-21
-5.5121e-21
-2.94545e-21
-2.7113e-21
9.1416e-22
-2.3636e-21
-1.88982e-21
-2.27578e-21
-1.57055e-21
5.12508e-23
-1.00948e-21
-2.15423e-21
-5.41247e-22
-3.38238e-21
-3.86565e-21
-3.16053e-21
-1.25048e-21
-2.35278e-21
2.86819e-21
2.40529e-21
-1.98576e-20
-2.07897e-20
-2.11392e-20
-1.81399e-20