/*--------------------------------*- C++ -*----------------------------------*\
| =========                 |                                                 |
| \\      /  F ield         | OpenFOAM: The Open Source CFD Toolbox           |
|  \\    /   O peration     | Version:  v2012                                 |
|   \\  /    A nd           | Website:  www.openfoam.com                      |
|    \\/     M anipulation  |                                                 |
\*---------------------------------------------------------------------------*/
FoamFile
{
    version     2.0;
    format      ascii;
    class       surfaceScalarField;
    location    "21";
    object      phi;
}
// * * * * * * * * * * * * * * * * * * * * * * * * * * * * * * * * * * * * * //

dimensions      [0 3 -1 0 0 0 0];
oriented        oriented;


internalField   nonuniform List<scalar> 
187200
(
1.875e-06
2.01626e-22
2.0611e-22
1.875e-06
2.75548e-22
2.82795e-22
1.875e-06
3.44615e-22
4.16031e-22
1.875e-06
2.63652e-22
2.90873e-22
1.875e-06
2.7586e-22
1.74269e-22
1.875e-06
4.20568e-22
2.91439e-22
1.875e-06
2.96659e-22
1.93337e-22
1.875e-06
1.59541e-22
1.62047e-22
1.875e-06
1.786e-22
3.14342e-22
1.875e-06
2.70367e-22
2.82923e-22
1.875e-06
2.33932e-22
1.49495e-22
1.875e-06
2.13691e-22
2.04135e-22
1.875e-06
1.35077e-22
1.76819e-22
1.875e-06
9.01977e-23
3.58378e-23
1.875e-06
1.46982e-22
1.30557e-22
1.875e-06
1.14077e-22
1.60212e-22
1.875e-06
1.54377e-22
1.63494e-22
1.875e-06
4.32661e-23
6.29565e-23
1.875e-06
6.23014e-23
1.6121e-23
1.875e-06
7.62426e-23
2.97709e-23
1.875e-06
2.24832e-23
6.05668e-23
1.875e-06
5.05814e-23
7.04557e-23
1.875e-06
1.77622e-22
5.31113e-23
1.875e-06
2.80487e-22
9.39642e-23
1.875e-06
8.46682e-23
1.55106e-23
1.875e-06
8.82982e-23
5.44033e-23
1.875e-06
1.10047e-22
1.38806e-22
1.875e-06
1.02753e-23
3.62988e-23
1.875e-06
4.26101e-23
1.41151e-22
1.875e-06
2.88303e-24
1.47962e-22
1.875e-06
-7.57537e-23
1.25464e-22
1.875e-06
-4.24519e-24
6.01806e-23
1.875e-06
8.70987e-23
3.07355e-23
1.875e-06
7.23906e-23
6.58444e-23
1.875e-06
1.08216e-23
9.89372e-23
1.875e-06
-1.22032e-22
-6.71146e-23
1.875e-06
-1.41478e-22
-2.14798e-22
1.875e-06
-9.74275e-23
1.07133e-22
1.875e-06
9.61123e-24
4.97418e-23
7.01969e-24
3.48804e-23
1.875e-06
7.86832e-23
1.91322e-22
1.875e-06
1.13127e-22
3.93224e-22
1.875e-06
2.45008e-22
5.86252e-22
1.875e-06
2.81417e-22
6.04504e-22
1.875e-06
2.11158e-22
4.74351e-22
1.875e-06
2.4412e-22
4.89767e-22
1.875e-06
2.78344e-22
5.124e-22
1.875e-06
3.21993e-22
5.15454e-22
1.875e-06
2.7837e-22
5.46474e-22
1.875e-06
2.35955e-22
6.36775e-22
1.875e-06
1.75e-22
5.37674e-22
1.875e-06
1.53386e-22
3.99191e-22
1.875e-06
1.72238e-22
4.35358e-22
1.875e-06
9.91804e-23
3.29168e-22
1.875e-06
-5.87834e-24
2.61816e-22
1.875e-06
-1.16314e-23
2.11887e-22
1.875e-06
1.77267e-22
2.36754e-22
1.875e-06
1.78555e-22
3.09645e-22
1.875e-06
5.21534e-23
1.04518e-22
1.875e-06
4.64505e-24
6.63182e-23
1.875e-06
1.32527e-22
2.30034e-22
1.875e-06
1.34821e-22
1.49308e-22
1.875e-06
1.80169e-22
-5.83679e-24
1.875e-06
7.38209e-23
1.08901e-24
1.875e-06
4.72142e-23
8.33682e-23
1.875e-06
4.88303e-23
5.70981e-23
1.875e-06
8.48231e-23
1.86874e-23
1.875e-06
-1.59897e-24
5.71617e-24
1.875e-06
-6.51184e-23
2.08251e-22
1.875e-06
2.93223e-23
1.644e-22
1.875e-06
7.89622e-23
1.6423e-22
1.875e-06
7.3758e-23
1.59642e-22
1.875e-06
-3.4493e-24
7.7469e-23
1.875e-06
-6.51884e-23
4.86139e-23
1.875e-06
-1.36024e-24
1.70501e-22
1.875e-06
-4.85463e-23
1.45865e-23
1.875e-06
-1.92672e-22
-1.97496e-22
1.875e-06
-5.28139e-23
-2.82279e-23
1.875e-06
4.30134e-23
5.21849e-23
6.33448e-23
4.4063e-23
1.875e-06
1.82626e-22
3.17151e-22
1.875e-06
1.55025e-22
4.91092e-22
1.875e-06
1.05573e-22
6.1235e-22
1.875e-06
2.48507e-22
7.16628e-22
1.875e-06
2.88521e-22
6.6615e-22
1.875e-06
2.27917e-22
5.45792e-22
1.875e-06
2.46937e-22
5.91815e-22
1.875e-06
1.7375e-22
6.36665e-22
1.875e-06
1.88352e-22
6.82957e-22
1.875e-06
2.14071e-22
6.97461e-22
1.875e-06
2.34127e-22
6.05052e-22
1.875e-06
1.73889e-22
4.73364e-22
1.875e-06
2.19891e-22
3.82035e-22
1.875e-06
1.38696e-22
3.71276e-22
1.875e-06
1.43075e-22
4.52334e-22
1.875e-06
7.90144e-23
3.80675e-22
1.875e-06
2.26467e-23
2.93042e-22
1.875e-06
7.21567e-23
3.20111e-22
1.875e-06
7.24533e-23
9.11908e-23
1.875e-06
7.19251e-23
1.39774e-22
1.875e-06
3.60346e-23
2.36974e-22
1.875e-06
7.25847e-23
2.16428e-22
1.875e-06
1.23809e-22
-1.50361e-22
1.875e-06
1.21243e-22
1.6013e-24
1.875e-06
1.05699e-22
1.22211e-22
1.875e-06
7.77558e-23
4.86877e-23
1.875e-06
-5.97725e-24
-1.7347e-23
1.875e-06
-1.01298e-22
5.70071e-23
1.875e-06
-2.51711e-23
1.51091e-22
1.875e-06
5.69976e-23
2.23955e-22
1.875e-06
3.61226e-23
3.28843e-22
1.875e-06
3.7371e-23
2.11309e-22
1.875e-06
-8.32989e-23
5.22522e-23
1.875e-06
-2.30361e-23
6.67595e-23
1.875e-06
-4.19634e-23
1.69253e-22
1.875e-06
-6.82784e-23
8.40462e-23
1.875e-06
-1.31799e-24
-1.02986e-22
1.875e-06
1.15713e-22
-1.82608e-22
1.875e-06
8.18995e-23
-3.89623e-23
1.17289e-22
4.72235e-23
1.875e-06
2.11044e-22
3.64753e-22
1.875e-06
1.59395e-22
6.31878e-22
1.875e-06
1.32419e-22
7.07596e-22
1.875e-06
6.1516e-23
7.13268e-22
1.875e-06
1.62556e-22
7.18391e-22
1.875e-06
1.98304e-22
6.24607e-22
1.875e-06
1.54842e-22
6.83239e-22
1.875e-06
1.46673e-22
6.06512e-22
1.875e-06
1.60978e-22
7.05333e-22
1.875e-06
2.0981e-22
7.20765e-22
1.875e-06
1.79741e-22
6.94452e-22
1.875e-06
1.64284e-22
6.57993e-22
1.875e-06
1.21215e-22
5.66966e-22
1.875e-06
2.63223e-23
3.58039e-22
1.875e-06
1.28725e-22
3.13283e-22
1.875e-06
2.96652e-22
3.81212e-22
1.875e-06
9.20786e-23
2.90409e-22
1.875e-06
-6.15112e-23
3.27182e-22
1.875e-06
4.69766e-23
2.25831e-22
1.875e-06
1.59713e-22
1.76221e-22
1.875e-06
-5.02317e-23
2.35678e-22
1.875e-06
9.26743e-23
1.76474e-22
1.875e-06
1.23765e-22
5.43159e-24
1.875e-06
1.36437e-22
4.34295e-23
1.875e-06
6.61935e-23
8.14526e-23
1.875e-06
2.34265e-23
2.6073e-23
1.875e-06
-1.73321e-23
-2.42342e-23
1.875e-06
3.41673e-23
-1.52162e-23
1.875e-06
9.285e-23
1.58576e-22
1.875e-06
-5.37685e-23
2.85925e-22
1.875e-06
-4.46187e-24
3.35958e-22
1.875e-06
-7.84936e-23
1.57349e-22
1.875e-06
-7.0261e-23
1.97883e-22
1.875e-06
-1.11074e-22
1.91575e-22
1.875e-06
-3.39802e-25
9.42652e-23
1.875e-06
8.10591e-23
5.65369e-23
1.875e-06
9.62798e-23
2.17925e-23
1.875e-06
-9.54103e-24
-1.56179e-22
1.875e-06
7.70813e-23
1.02449e-23
1.05797e-22
3.27264e-23
1.875e-06
-6.33839e-23
2.47461e-22
1.875e-06
1.04735e-22
6.71833e-22
1.875e-06
7.12833e-23
7.40808e-22
1.875e-06
1.31156e-22
7.5262e-22
1.875e-06
9.94168e-23
7.92077e-22
1.875e-06
7.00192e-23
7.35222e-22
1.875e-06
8.79795e-23
7.6695e-22
1.875e-06
3.61263e-22
7.60039e-22
1.875e-06
2.95064e-22
6.92063e-22
1.875e-06
1.54808e-22
7.29361e-22
1.875e-06
1.15716e-22
7.41362e-22
1.875e-06
1.50039e-22
6.94381e-22
1.875e-06
2.07749e-22
6.27104e-22
1.875e-06
1.64939e-22
5.05028e-22
1.875e-06
9.14289e-23
3.76291e-22
1.875e-06
8.38919e-23
2.19356e-22
1.875e-06
2.69247e-23
3.43705e-22
1.875e-06
-1.3933e-23
3.7741e-22
1.875e-06
-7.42316e-23
2.77285e-22
1.875e-06
-2.8694e-23
1.16652e-22
1.875e-06
4.51182e-23
2.96121e-22
1.875e-06
7.24224e-23
1.39644e-22
1.875e-06
1.26127e-22
2.66493e-23
1.875e-06
1.20929e-22
1.90074e-23
1.875e-06
1.126e-22
1.67965e-22
1.875e-06
6.64436e-23
1.29224e-22
1.875e-06
8.32409e-23
4.14811e-23
1.875e-06
-2.65573e-23
4.25416e-23
1.875e-06
-8.9689e-23
7.70782e-23
1.875e-06
2.78715e-24
1.94988e-22
1.875e-06
8.57423e-23
2.61515e-22
1.875e-06
1.25478e-22
2.42592e-22
1.875e-06
5.12605e-23
1.05783e-22
1.875e-06
-5.46788e-23
9.06148e-23
1.875e-06
-8.07336e-23
5.44064e-23
1.875e-06
-6.20593e-23
6.34516e-23
1.875e-06
1.20675e-22
2.44626e-23
1.875e-06
2.12247e-22
-3.1283e-23
1.875e-06
7.41056e-23
6.68149e-23
-3.59891e-23
-2.91773e-23
1.875e-06
6.60496e-23
3.50134e-22
1.875e-06
9.23221e-23
6.34082e-22
1.875e-06
9.96333e-23
7.44159e-22
1.875e-06
5.45562e-23
7.26952e-22
1.875e-06
9.53636e-23
7.83368e-22
1.875e-06
1.53848e-22
8.61248e-22
1.875e-06
1.52891e-22
8.47348e-22
1.875e-06
2.01657e-22
8.32364e-22
1.875e-06
2.56364e-22
7.73338e-22
1.875e-06
1.61639e-22
7.61116e-22
1.875e-06
1.57593e-22
7.48568e-22
1.875e-06
1.52525e-22
7.36373e-22
1.875e-06
1.00512e-22
6.20053e-22
1.875e-06
1.91893e-22
4.9362e-22
1.875e-06
1.83556e-22
5.57022e-22
1.875e-06
1.30725e-22
4.04871e-22
1.875e-06
1.46001e-23
3.22922e-22
1.875e-06
-5.8379e-23
3.64766e-22
1.875e-06
-7.18935e-23
2.93727e-22
1.875e-06
-6.90715e-23
1.82854e-22
1.875e-06
1.48573e-22
3.38419e-22
1.875e-06
1.19696e-22
1.95424e-22
1.875e-06
5.51461e-23
-1.70544e-23
1.875e-06
1.13661e-22
-6.86836e-25
1.875e-06
3.53328e-23
1.31864e-22
1.875e-06
3.52174e-23
1.4737e-22
1.875e-06
1.96977e-23
4.58876e-23
1.875e-06
-3.67729e-24
8.96329e-23
1.875e-06
-8.74145e-23
9.99087e-23
1.875e-06
-9.47836e-23
1.34376e-22
1.875e-06
6.02335e-23
2.34448e-22
1.875e-06
8.39356e-23
1.32737e-22
1.875e-06
1.01093e-24
-8.27644e-23
1.875e-06
1.03684e-22
1.53669e-22
1.875e-06
2.24098e-23
1.17014e-22
1.875e-06
8.01023e-23
6.67915e-23
1.875e-06
4.07533e-23
-1.45682e-23
1.875e-06
1.47318e-23
-6.92394e-23
1.875e-06
2.96746e-23
-4.50513e-23
5.01777e-23
1.8193e-23
1.875e-06
8.49709e-23
3.89685e-22
1.875e-06
1.18702e-22
6.75291e-22
1.875e-06
1.2161e-22
7.79837e-22
1.875e-06
1.81855e-23
7.89433e-22
1.875e-06
1.16526e-22
8.02763e-22
1.875e-06
5.49535e-23
8.27717e-22
1.875e-06
1.43007e-22
9.52027e-22
1.875e-06
2.88141e-22
9.33068e-22
1.875e-06
2.32317e-22
8.69821e-22
1.875e-06
2.24773e-22
8.37714e-22
1.875e-06
1.254e-22
7.3966e-22
1.875e-06
1.03998e-22
6.73882e-22
1.875e-06
1.66677e-22
6.45955e-22
1.875e-06
1.96498e-22
4.80602e-22
1.875e-06
1.20136e-22
5.59575e-22
1.875e-06
9.39256e-23
3.97547e-22
1.875e-06
3.02061e-23
2.88606e-22
1.875e-06
7.81411e-23
2.89263e-22
1.875e-06
1.00557e-22
2.77568e-22
1.875e-06
1.80394e-23
2.22916e-22
1.875e-06
1.53456e-22
2.56587e-22
1.875e-06
1.57588e-22
1.52918e-22
1.875e-06
-5.47277e-23
-4.98202e-23
1.875e-06
-1.25269e-22
6.82675e-23
1.875e-06
-3.58206e-23
1.58221e-22
1.875e-06
4.87138e-23
1.24843e-22
1.875e-06
2.57958e-23
7.8364e-23
1.875e-06
-4.43056e-23
4.31642e-23
1.875e-06
-4.69012e-23
6.2722e-23
1.875e-06
-4.88447e-24
1.41506e-22
1.875e-06
-4.52822e-23
1.62219e-22
1.875e-06
-7.42115e-23
2.71416e-23
1.875e-06
-1.76279e-23
6.21642e-23
1.875e-06
9.0753e-23
1.02809e-22
1.875e-06
2.29681e-22
1.75705e-22
1.875e-06
1.5077e-22
3.35982e-23
1.875e-06
1.48316e-23
-1.40546e-22
1.875e-06
-2.06055e-23
-1.51723e-22
1.875e-06
-3.15073e-23
3.33687e-23
2.03947e-23
6.15316e-23
1.875e-06
1.33907e-22
2.65224e-22
1.875e-06
1.00201e-22
6.24638e-22
1.875e-06
9.51384e-23
7.75293e-22
1.875e-06
1.66982e-22
9.54782e-22
1.875e-06
7.26112e-23
8.97834e-22
1.875e-06
1.73931e-22
8.7745e-22
1.875e-06
2.48804e-22
9.85773e-22
1.875e-06
1.10707e-22
9.19357e-22
1.875e-06
1.92151e-22
9.25633e-22
1.875e-06
1.85677e-22
8.42328e-22
1.875e-06
6.46992e-23
6.81574e-22
1.875e-06
2.9545e-23
6.24936e-22
1.875e-06
4.38801e-23
5.77311e-22
1.875e-06
1.97323e-22
3.88142e-22
1.875e-06
1.58044e-22
5.44968e-22
1.875e-06
7.66138e-23
4.71202e-22
1.875e-06
7.16425e-23
3.9303e-22
1.875e-06
2.56055e-23
2.69592e-22
1.875e-06
1.72819e-22
1.62326e-22
1.875e-06
2.11062e-22
2.39964e-22
1.875e-06
1.27509e-22
1.98166e-22
1.875e-06
3.88094e-24
1.89163e-22
1.875e-06
2.83437e-23
2.24745e-22
1.875e-06
7.757e-23
1.26102e-22
1.875e-06
-5.73296e-23
1.55627e-22
1.875e-06
-7.77693e-23
2.20899e-23
1.875e-06
3.28797e-23
4.54391e-23
1.875e-06
3.87721e-23
6.46449e-23
1.875e-06
-1.28601e-23
4.11437e-23
1.875e-06
-6.64945e-24
8.98881e-23
1.875e-06
-1.37119e-22
1.91824e-22
1.875e-06
-9.06584e-23
9.43074e-23
1.875e-06
1.8009e-23
1.77835e-22
1.875e-06
2.75302e-23
6.7827e-23
1.875e-06
9.8594e-23
-3.66852e-23
1.875e-06
9.1898e-25
-2.14543e-22
1.875e-06
1.99312e-23
-2.09871e-22
1.875e-06
-4.43926e-23
-7.83959e-23
1.875e-06
-3.93169e-23
6.92809e-23
-1.84587e-23
2.57017e-23
1.875e-06
-2.34148e-22
2.04124e-22
1.875e-06
-1.99732e-23
6.61814e-22
1.875e-06
1.20152e-22
9.05068e-22
1.875e-06
1.14027e-22
9.07824e-22
1.875e-06
1.63218e-22
9.32246e-22
1.875e-06
1.63747e-22
9.13476e-22
1.875e-06
1.7134e-22
1.00171e-21
1.875e-06
1.04948e-22
9.85943e-22
1.875e-06
5.36651e-23
8.58089e-22
1.875e-06
1.45592e-22
8.06949e-22
1.875e-06
2.26768e-22
8.51576e-22
1.875e-06
4.85468e-23
7.50637e-22
1.875e-06
-3.48797e-23
4.65897e-22
1.875e-06
6.11346e-23
3.7995e-22
1.875e-06
1.60796e-22
4.61523e-22
1.875e-06
4.38283e-23
4.20791e-22
1.875e-06
1.05025e-22
4.29608e-22
1.875e-06
1.84684e-22
3.53238e-22
1.875e-06
-5.84271e-23
2.60934e-22
1.875e-06
1.68009e-23
2.07975e-22
1.875e-06
2.48465e-23
1.44634e-22
1.875e-06
1.58963e-23
2.97051e-22
1.875e-06
1.23986e-22
2.19329e-22
1.875e-06
5.69465e-23
1.84502e-22
1.875e-06
8.642e-23
1.91703e-22
1.875e-06
2.81664e-23
9.31307e-24
1.875e-06
-8.63076e-23
-7.26987e-24
1.875e-06
-2.44286e-23
5.20939e-23
1.875e-06
-5.11387e-24
-4.12832e-23
1.875e-06
-3.53288e-23
2.96204e-23
1.875e-06
-1.78273e-24
2.18761e-22
1.875e-06
-4.92752e-23
1.92431e-22
1.875e-06
-2.61198e-23
1.83017e-22
1.875e-06
-1.05893e-23
-1.10519e-23
1.875e-06
1.54123e-23
-1.61094e-22
1.875e-06
6.36419e-23
-3.43861e-22
1.875e-06
3.09293e-23
-2.03699e-22
1.875e-06
-2.7681e-23
-5.5937e-23
1.875e-06
2.51626e-23
6.19134e-23
-7.79605e-24
7.98758e-23
1.875e-06
5.4358e-24
4.84397e-22
1.875e-06
4.70346e-23
6.76356e-22
1.875e-06
1.50181e-22
8.69346e-22
1.875e-06
2.53841e-22
1.05584e-21
1.875e-06
9.01642e-23
9.97008e-22
1.875e-06
1.20226e-22
9.80934e-22
1.875e-06
2.25845e-22
1.09387e-21
1.875e-06
5.65879e-23
9.92915e-22
1.875e-06
8.51688e-23
7.87684e-22
1.875e-06
1.79807e-22
7.57996e-22
1.875e-06
1.71468e-22
7.42658e-22
1.875e-06
6.75655e-23
6.88317e-22
1.875e-06
3.7925e-24
6.41381e-22
1.875e-06
2.55817e-23
5.22644e-22
1.875e-06
5.77046e-23
4.53497e-22
1.875e-06
1.74835e-22
4.06386e-22
1.875e-06
1.27122e-22
3.13287e-22
1.875e-06
1.25902e-23
2.95926e-22
1.875e-06
-4.1113e-23
3.23742e-22
1.875e-06
-1.4427e-23
1.73448e-22
1.875e-06
6.71859e-23
2.36976e-22
1.875e-06
2.13246e-22
3.57908e-22
1.875e-06
4.74649e-23
2.2359e-22
1.875e-06
1.44441e-23
2.41246e-22
1.875e-06
7.19158e-23
2.19813e-22
1.875e-06
3.87889e-24
4.22907e-23
1.875e-06
-8.6357e-23
-3.80798e-23
1.875e-06
-3.23257e-23
-5.22902e-24
1.875e-06
1.05381e-22
1.67137e-23
1.875e-06
-1.02081e-23
9.28776e-23
1.875e-06
-6.06966e-23
1.28045e-22
1.875e-06
-9.88212e-23
1.89958e-22
1.875e-06
1.26516e-23
1.79248e-22
1.875e-06
-2.90244e-23
6.52418e-23
1.875e-06
-1.18851e-22
-1.72811e-22
1.875e-06
2.65552e-24
-2.75229e-22
1.875e-06
8.37139e-23
-2.09e-22
1.875e-06
1.48605e-22
-5.10864e-23
1.875e-06
1.45982e-22
-8.74287e-23
1.18223e-22
-2.61259e-23
1.875e-06
1.02771e-22
5.24934e-22
1.875e-06
1.62672e-22
8.1572e-22
1.875e-06
1.65831e-22
9.62031e-22
1.875e-06
2.39217e-23
9.82425e-22
1.875e-06
1.40039e-22
1.05265e-21
1.875e-06
2.04734e-22
9.61437e-22
1.875e-06
1.80812e-23
9.01303e-22
1.875e-06
1.35425e-22
1.02459e-21
1.875e-06
2.26966e-23
8.25911e-22
1.875e-06
3.25697e-23
7.10837e-22
1.875e-06
2.32079e-22
7.28503e-22
1.875e-06
1.44465e-22
7.41921e-22
1.875e-06
1.13822e-22
6.70785e-22
1.875e-06
8.37702e-23
5.25533e-22
1.875e-06
4.3251e-23
5.41888e-22
1.875e-06
-3.32717e-23
4.22305e-22
1.875e-06
1.14138e-23
3.33923e-22
1.875e-06
4.57879e-23
2.48363e-22
1.875e-06
1.45386e-22
2.89965e-22
1.875e-06
7.2473e-23
2.50506e-22
1.875e-06
7.24863e-23
2.50604e-22
1.875e-06
1.86159e-23
1.28615e-22
1.875e-06
-7.8667e-25
2.41994e-22
1.875e-06
2.89219e-23
3.39904e-22
1.875e-06
7.32138e-23
1.2659e-22
1.875e-06
-6.07234e-23
-6.33693e-24
1.875e-06
-5.20077e-23
1.18487e-23
1.875e-06
-4.07679e-23
3.75009e-23
1.875e-06
-5.10671e-23
-5.91003e-23
1.875e-06
-4.05248e-23
6.69818e-23
1.875e-06
-4.35172e-23
1.76082e-22
1.875e-06
2.28331e-23
2.40062e-22
1.875e-06
-7.94027e-23
9.07965e-23
1.875e-06
-8.16652e-26
1.03272e-22
1.875e-06
-4.03313e-23
2.0645e-24
1.875e-06
-1.36545e-22
-2.52534e-22
1.875e-06
-9.64049e-23
-2.20468e-22
1.875e-06
8.87172e-23
-1.07486e-22
1.875e-06
8.80109e-23
-5.35985e-23
9.46346e-23
-5.66017e-23
1.875e-06
1.50987e-22
5.59685e-22
1.875e-06
8.201e-23
8.09873e-22
1.875e-06
5.69011e-23
9.03284e-22
1.875e-06
1.64558e-22
1.06969e-21
1.875e-06
1.67045e-22
9.86157e-22
1.875e-06
2.98535e-23
9.28074e-22
1.875e-06
1.65642e-22
9.87125e-22
1.875e-06
1.29119e-22
9.28592e-22
1.875e-06
1.66484e-22
8.299e-22
1.875e-06
6.19487e-23
7.7961e-22
1.875e-06
6.84999e-24
6.48808e-22
1.875e-06
2.90997e-23
7.16013e-22
1.875e-06
1.47807e-22
7.16595e-22
1.875e-06
1.57426e-22
4.83868e-22
1.875e-06
4.43058e-23
5.64577e-22
1.875e-06
-2.41869e-23
5.18555e-22
1.875e-06
-2.90828e-23
3.67998e-22
1.875e-06
3.55553e-23
2.75648e-22
1.875e-06
1.30934e-22
2.32674e-22
1.875e-06
1.59905e-22
3.30875e-22
1.875e-06
8.11035e-23
2.51245e-22
1.875e-06
-4.27571e-23
1.38216e-22
1.875e-06
-1.15043e-23
2.11943e-22
1.875e-06
-2.25021e-23
2.54176e-22
1.875e-06
-1.11938e-22
1.07124e-23
1.875e-06
-3.10848e-23
6.90726e-23
1.875e-06
-3.16043e-24
4.43825e-23
1.875e-06
1.67767e-23
6.8588e-23
1.875e-06
-9.08041e-23
-4.70858e-23
1.875e-06
-1.10455e-22
1.44333e-22
1.875e-06
3.61441e-23
2.58617e-22
1.875e-06
8.13129e-24
1.40102e-22
1.875e-06
-1.00502e-22
1.39726e-22
1.875e-06
3.32159e-24
7.10284e-23
1.875e-06
-1.09638e-23
-7.06445e-24
1.875e-06
-5.32009e-23
-9.29962e-23
1.875e-06
4.73482e-24
-1.15752e-22
1.875e-06
1.02979e-22
-1.5811e-22
1.875e-06
8.4822e-23
-1.91171e-22
-8.47987e-24
-2.79478e-22
1.875e-06
1.52754e-22
5.08058e-22
1.875e-06
1.99674e-22
8.33574e-22
1.875e-06
6.09727e-23
8.67248e-22
1.875e-06
9.62336e-23
1.08018e-21
1.875e-06
-6.33438e-23
1.06275e-21
1.875e-06
-1.76305e-23
9.61972e-22
1.875e-06
4.80952e-23
8.9446e-22
1.875e-06
7.02752e-23
9.06001e-22
1.875e-06
9.46315e-23
8.49643e-22
1.875e-06
8.47926e-23
7.47084e-22
1.875e-06
-5.72274e-23
5.90919e-22
1.875e-06
6.18777e-23
7.11609e-22
1.875e-06
1.55911e-22
6.80098e-22
1.875e-06
1.81879e-22
4.86579e-22
1.875e-06
8.79975e-23
6.09816e-22
1.875e-06
-6.71057e-24
4.75011e-22
1.875e-06
-2.88088e-23
3.27527e-22
1.875e-06
6.61455e-24
3.03033e-22
1.875e-06
1.29456e-22
4.68312e-22
1.875e-06
1.26487e-22
3.47126e-22
1.875e-06
1.00975e-22
2.5721e-22
1.875e-06
8.59502e-23
2.05103e-22
1.875e-06
6.31746e-24
2.5162e-22
1.875e-06
2.27773e-23
1.97942e-22
1.875e-06
-5.4978e-23
1.63959e-22
1.875e-06
-3.21373e-23
7.45455e-24
1.875e-06
3.48628e-23
-2.00733e-23
1.875e-06
2.31587e-23
-3.22927e-23
1.875e-06
-1.16071e-22
4.60921e-23
1.875e-06
-1.44375e-22
9.62293e-23
1.875e-06
-1.50197e-22
1.81474e-22
1.875e-06
4.29555e-25
1.97024e-22
1.875e-06
4.72896e-23
9.15711e-23
1.875e-06
-7.80805e-23
2.43175e-23
1.875e-06
-4.15309e-23
8.70303e-23
1.875e-06
3.55162e-23
-9.14309e-23
1.875e-06
1.0014e-22
-1.16091e-22
1.875e-06
9.873e-24
-1.631e-22
1.875e-06
4.10846e-24
-2.16756e-22
1.94824e-23
-3.03288e-22
1.875e-06
-1.37424e-22
4.42061e-22
1.875e-06
6.52738e-23
7.63904e-22
1.875e-06
1.65336e-22
8.95294e-22
1.875e-06
-6.53776e-23
1.02584e-21
1.875e-06
-5.99716e-23
1.07799e-21
1.875e-06
-1.01163e-23
1.00449e-21
1.875e-06
1.55666e-22
9.1589e-22
1.875e-06
3.27079e-22
9.24681e-22
1.875e-06
9.51389e-23
8.77318e-22
1.875e-06
-1.11724e-22
7.80733e-22
1.875e-06
-5.52406e-23
7.0117e-22
1.875e-06
1.57642e-22
6.82363e-22
1.875e-06
1.1074e-22
6.39803e-22
1.875e-06
-5.84907e-24
5.09403e-22
1.875e-06
-7.2864e-23
6.26365e-22
1.875e-06
-1.80837e-23
4.75764e-22
1.875e-06
2.19563e-23
4.79094e-22
1.875e-06
1.85712e-22
4.09514e-22
1.875e-06
1.47221e-22
3.59269e-22
1.875e-06
4.1584e-23
2.42454e-22
1.875e-06
1.31936e-22
2.16049e-22
1.875e-06
1.77403e-23
2.4115e-22
1.875e-06
-6.2223e-23
2.15864e-22
1.875e-06
-6.9607e-23
1.33824e-22
1.875e-06
-9.50553e-23
1.73557e-22
1.875e-06
-3.06567e-23
-1.03676e-23
1.875e-06
5.13483e-23
-1.46998e-22
1.875e-06
-2.21064e-24
-1.04618e-22
1.875e-06
-4.09531e-23
9.24641e-23
1.875e-06
-8.92239e-23
1.58837e-22
1.875e-06
-9.30974e-23
2.38773e-22
1.875e-06
-4.48467e-23
1.40139e-22
1.875e-06
1.70718e-25
7.23384e-23
1.875e-06
-7.30229e-23
6.6732e-23
1.875e-06
-5.62291e-23
1.00553e-22
1.875e-06
1.41884e-23
-1.07602e-22
1.875e-06
8.49049e-23
-2.87762e-22
1.875e-06
1.22919e-22
-1.51789e-22
1.875e-06
8.17159e-23
-1.68588e-22
-6.37218e-23
-3.46606e-22
1.875e-06
-2.4811e-23
5.89179e-22
1.875e-06
-2.11864e-22
7.64477e-22
1.875e-06
-7.59933e-23
8.57027e-22
1.875e-06
3.95793e-23
1.06451e-21
1.875e-06
9.91198e-23
1.07158e-21
1.875e-06
1.18835e-24
9.42473e-22
1.875e-06
3.77335e-24
8.79712e-22
1.875e-06
5.44696e-23
7.87005e-22
1.875e-06
-1.91451e-23
8.21119e-22
1.875e-06
-3.98869e-23
8.73446e-22
1.875e-06
1.43866e-22
7.6559e-22
1.875e-06
1.25107e-22
6.87027e-22
1.875e-06
1.1477e-23
7.4131e-22
1.875e-06
-7.37373e-23
5.79705e-22
1.875e-06
4.79915e-23
6.04942e-22
1.875e-06
1.22756e-23
4.98411e-22
1.875e-06
8.87038e-24
2.73644e-22
1.875e-06
5.91911e-23
2.97373e-22
1.875e-06
4.44288e-23
3.82757e-22
1.875e-06
9.50452e-23
3.35427e-22
1.875e-06
1.32661e-22
2.17414e-22
1.875e-06
8.87319e-23
3.84289e-22
1.875e-06
-8.11912e-23
3.61049e-22
1.875e-06
-2.24078e-22
1.05806e-22
1.875e-06
-1.37498e-22
1.27884e-22
1.875e-06
-1.41973e-23
2.33476e-23
1.875e-06
1.08063e-22
-2.0334e-22
1.875e-06
7.82566e-23
-8.6895e-23
1.875e-06
-6.69636e-23
5.83921e-23
1.875e-06
-7.36576e-23
8.82274e-23
1.875e-06
4.20138e-23
2.36158e-22
1.875e-06
1.90293e-24
1.6902e-22
1.875e-06
-6.7538e-23
-4.76511e-23
1.875e-06
-8.03003e-23
5.34943e-23
1.875e-06
-2.50204e-23
1.15855e-22
1.875e-06
-6.04861e-23
5.19745e-24
1.875e-06
1.51172e-23
-2.3127e-22
1.875e-06
4.65867e-25
-2.95061e-22
1.875e-06
-2.39706e-23
-2.64255e-22
-1.62767e-24
-3.2826e-22
1.875e-06
-4.82471e-23
5.99065e-22
1.875e-06
-1.18008e-22
9.10638e-22
1.875e-06
-8.60125e-23
9.3368e-22
1.875e-06
-8.1386e-23
1.02394e-21
1.875e-06
-5.88768e-23
1.01418e-21
1.875e-06
3.49512e-23
9.97128e-22
1.875e-06
4.43878e-24
9.09914e-22
1.875e-06
2.37423e-23
8.56462e-22
1.875e-06
7.03158e-25
9.06077e-22
1.875e-06
1.0266e-22
8.28524e-22
1.875e-06
5.12605e-23
7.49091e-22
1.875e-06
1.21011e-22
7.52531e-22
1.875e-06
-3.89141e-23
8.25602e-22
1.875e-06
-4.29503e-23
6.97844e-22
1.875e-06
-6.08604e-23
5.57417e-22
1.875e-06
-5.50719e-24
3.5093e-22
1.875e-06
6.06978e-23
3.20831e-22
1.875e-06
-3.39958e-23
3.41785e-22
1.875e-06
6.53838e-23
3.89363e-22
1.875e-06
1.42456e-22
3.55996e-22
1.875e-06
4.53892e-23
1.85972e-22
1.875e-06
-2.23492e-23
3.32692e-22
1.875e-06
-6.1224e-23
3.62224e-22
1.875e-06
-1.76736e-22
1.99956e-22
1.875e-06
-1.32169e-22
1.13299e-22
1.875e-06
-9.37489e-23
4.27575e-23
1.875e-06
-5.73951e-23
-1.9762e-22
1.875e-06
-1.53027e-23
-2.26766e-22
1.875e-06
-2.17474e-23
9.88063e-23
1.875e-06
5.97176e-23
1.57043e-22
1.875e-06
2.38474e-23
4.80737e-23
1.875e-06
2.80178e-23
5.89891e-23
1.875e-06
-2.16699e-23
-1.16908e-23
1.875e-06
-2.54512e-23
9.52003e-23
1.875e-06
-6.46385e-23
1.07834e-22
1.875e-06
5.15944e-24
-3.74311e-23
1.875e-06
-3.44147e-23
-2.53037e-22
1.875e-06
-1.18815e-22
-1.68258e-22
1.875e-06
-5.11382e-23
-2.07503e-22
9.78379e-24
-2.88621e-22
1.875e-06
-1.49539e-22
4.97196e-22
1.875e-06
-7.06832e-23
8.73797e-22
1.875e-06
2.13203e-23
9.88508e-22
1.875e-06
-2.89474e-23
1.1014e-21
1.875e-06
-8.71104e-23
1.20835e-21
1.875e-06
-1.9186e-23
1.04937e-21
1.875e-06
-2.97134e-23
9.89627e-22
1.875e-06
-1.05651e-22
8.76185e-22
1.875e-06
8.31259e-23
9.62541e-22
1.875e-06
7.83387e-23
8.0191e-22
1.875e-06
3.98265e-23
7.60128e-22
1.875e-06
1.46378e-23
7.203e-22
1.875e-06
8.29459e-23
8.68494e-22
1.875e-06
-2.87931e-23
7.47025e-22
1.875e-06
-5.91371e-23
5.80085e-22
1.875e-06
9.04818e-23
3.2239e-22
1.875e-06
1.08174e-22
2.4362e-22
1.875e-06
-1.71551e-23
3.93126e-22
1.875e-06
-1.62924e-23
4.6314e-22
1.875e-06
1.2899e-22
3.65591e-22
1.875e-06
2.18938e-23
2.93161e-22
1.875e-06
3.67475e-23
2.73916e-22
1.875e-06
-8.79759e-23
1.93395e-22
1.875e-06
-8.57598e-23
1.78191e-22
1.875e-06
-1.13292e-22
1.05072e-22
1.875e-06
-1.4575e-23
8.05736e-23
1.875e-06
-8.52275e-23
-5.30047e-23
1.875e-06
-1.78177e-22
-9.92793e-23
1.875e-06
6.71549e-23
1.84087e-22
1.875e-06
5.30706e-23
1.08031e-22
1.875e-06
-3.34582e-23
-3.57314e-23
1.875e-06
-1.29941e-22
-2.767e-23
1.875e-06
-9.59628e-23
1.45646e-23
1.875e-06
-2.70607e-23
1.1029e-22
1.875e-06
-4.98305e-23
8.90735e-23
1.875e-06
-3.5523e-23
-4.12883e-23
1.875e-06
-4.16888e-23
-2.65182e-22
1.875e-06
-7.70473e-23
-1.66686e-22
1.875e-06
-2.74614e-23
-3.42013e-22
2.76615e-23
-3.72233e-22
1.875e-06
-1.05454e-22
5.67851e-22
1.875e-06
-1.82412e-22
9.08546e-22
1.875e-06
-2.08058e-22
9.359e-22
1.875e-06
3.40487e-23
1.12608e-21
1.875e-06
1.12855e-22
1.19828e-21
1.875e-06
-3.93629e-23
1.10916e-21
1.875e-06
-1.38385e-22
1.00685e-21
1.875e-06
-1.09582e-22
9.34736e-22
1.875e-06
2.74598e-23
9.71938e-22
1.875e-06
9.52068e-23
9.45138e-22
1.875e-06
1.07336e-23
7.48496e-22
1.875e-06
6.3486e-24
6.88273e-22
1.875e-06
-1.38068e-23
7.41795e-22
1.875e-06
2.98373e-23
7.94461e-22
1.875e-06
4.49679e-23
6.88257e-22
1.875e-06
-9.43765e-24
3.79718e-22
1.875e-06
3.99284e-23
3.47685e-22
1.875e-06
3.1529e-22
4.06008e-22
1.875e-06
3.14868e-22
3.73569e-22
1.875e-06
-8.97501e-23
2.45945e-22
1.875e-06
-1.553e-22
2.18752e-22
1.875e-06
-1.75964e-22
2.51301e-22
1.875e-06
-1.07664e-23
2.95406e-22
1.875e-06
-2.12442e-23
2.28117e-22
1.875e-06
-8.24851e-24
1.99383e-22
1.875e-06
-1.09161e-22
6.98994e-23
1.875e-06
-8.54948e-23
3.41722e-23
1.875e-06
-1.12155e-22
-5.28278e-23
1.875e-06
-1.07479e-22
5.23152e-23
1.875e-06
1.81042e-23
3.39198e-23
1.875e-06
6.57948e-23
-1.16513e-22
1.875e-06
2.64876e-23
-5.57864e-23
1.875e-06
-4.24565e-23
2.32733e-23
1.875e-06
3.88185e-24
7.11773e-23
1.875e-06
8.44445e-24
1.2196e-22
1.875e-06
-1.33883e-22
2.87178e-23
1.875e-06
-2.05102e-22
-1.75895e-22
1.875e-06
-7.21765e-23
-2.40775e-22
1.875e-06
2.86411e-23
-2.84125e-22
5.69672e-23
-3.59691e-22
1.875e-06
-9.16083e-23
6.31807e-22
1.875e-06
-1.38502e-23
9.77856e-22
1.875e-06
7.77673e-24
1.00599e-21
1.875e-06
1.93415e-23
1.12517e-21
1.875e-06
2.66246e-23
1.11954e-21
1.875e-06
-8.15639e-23
1.09388e-21
1.875e-06
-1.66396e-22
1.0398e-21
1.875e-06
-3.54023e-23
1.05692e-21
1.875e-06
-1.3583e-23
1.02475e-21
1.875e-06
4.13815e-23
8.47077e-22
1.875e-06
4.24038e-23
8.39981e-22
1.875e-06
5.30984e-23
7.666e-22
1.875e-06
-1.34544e-23
8.00341e-22
1.875e-06
2.86977e-24
7.83477e-22
1.875e-06
1.35028e-22
7.10298e-22
1.875e-06
6.17097e-23
4.97633e-22
1.875e-06
-4.61954e-23
4.28442e-22
1.875e-06
-1.21334e-22
1.98407e-22
1.875e-06
-1.66688e-23
1.38052e-22
1.875e-06
5.99677e-23
2.43339e-22
1.875e-06
2.37611e-23
2.29764e-22
1.875e-06
1.99384e-23
3.65787e-22
1.875e-06
-7.6392e-24
3.56368e-22
1.875e-06
-3.74293e-23
2.81778e-22
1.875e-06
7.55571e-24
1.44578e-22
1.875e-06
-5.53796e-23
1.40007e-22
1.875e-06
7.25995e-23
1.16291e-22
1.875e-06
3.82896e-23
1.96192e-23
1.875e-06
-1.19171e-23
-1.28498e-23
1.875e-06
-1.50673e-23
2.84414e-23
1.875e-06
2.52416e-23
-1.18597e-22
1.875e-06
-5.42927e-23
-1.84914e-22
1.875e-06
5.0937e-23
-4.79113e-23
1.875e-06
2.56341e-23
7.21158e-23
1.875e-06
3.97317e-23
9.73792e-23
1.875e-06
-1.07468e-22
-2.64601e-23
1.875e-06
-1.38771e-22
-5.00216e-23
1.875e-06
-1.14876e-22
-9.31387e-23
1.875e-06
-9.03382e-23
-2.77496e-22
-5.93133e-23
-2.87065e-22
1.875e-06
1.42013e-22
7.32972e-22
1.875e-06
3.74551e-23
9.27725e-22
1.875e-06
8.51766e-24
9.11191e-22
1.875e-06
-8.30556e-23
1.03239e-21
1.875e-06
-9.2684e-23
1.20168e-21
1.875e-06
4.73468e-24
1.14089e-21
1.875e-06
-4.26546e-23
1.06468e-21
1.875e-06
-1.70287e-22
9.26461e-22
1.875e-06
-1.52683e-22
9.78347e-22
1.875e-06
6.3534e-24
1.04123e-21
1.875e-06
-1.7033e-22
8.3293e-22
1.875e-06
3.86144e-22
7.99488e-22
1.875e-06
8.92013e-23
8.00927e-22
1.875e-06
2.44343e-23
8.27354e-22
1.875e-06
2.72282e-23
8.04275e-22
1.875e-06
-3.03294e-23
5.20959e-22
1.875e-06
-1.10983e-23
3.23408e-22
1.875e-06
-1.15772e-22
1.85055e-22
1.875e-06
-2.01314e-22
2.32703e-22
1.875e-06
-3.83671e-23
2.54946e-22
1.875e-06
-1.21419e-23
2.26708e-22
1.875e-06
-5.37885e-23
3.19037e-22
1.875e-06
-4.54368e-23
4.38087e-22
1.875e-06
1.04945e-22
2.17988e-22
1.875e-06
1.85628e-22
2.00056e-22
1.875e-06
9.72846e-23
1.60309e-22
1.875e-06
-5.02628e-23
1.59043e-23
1.875e-06
4.9024e-23
-1.93975e-23
1.875e-06
-9.27883e-23
5.65876e-23
1.875e-06
1.28222e-22
-5.41273e-23
1.875e-06
-9.46098e-23
-5.85457e-23
1.875e-06
-2.13143e-23
-8.09718e-23
1.875e-06
1.43475e-22
-5.46664e-23
1.875e-06
-1.74363e-22
4.87313e-23
1.875e-06
-1.72466e-23
-5.05136e-23
1.875e-06
4.91755e-23
1.12526e-22
1.875e-06
-5.63267e-23
-1.31803e-23
1.875e-06
2.49847e-23
-1.64679e-22
1.875e-06
-1.10858e-22
-4.14612e-22
-3.96071e-23
-2.4497e-22
1.875e-06
2.33456e-22
5.89261e-22
1.875e-06
1.65667e-22
9.30201e-22
1.875e-06
-3.06862e-23
9.55032e-22
1.875e-06
-4.15436e-23
1.06795e-21
1.875e-06
2.75598e-25
1.21771e-21
1.875e-06
-1.16492e-23
1.1351e-21
1.875e-06
-1.36028e-23
1.05948e-21
1.875e-06
-1.17347e-22
9.50059e-22
1.875e-06
-1.56958e-22
1.00591e-21
1.875e-06
-3.13286e-23
1.05714e-21
1.875e-06
6.00003e-23
9.14574e-22
1.875e-06
-7.58067e-23
9.00998e-22
1.875e-06
1.13468e-23
8.35332e-22
1.875e-06
1.48284e-22
7.84225e-22
1.875e-06
4.94615e-25
7.49118e-22
1.875e-06
-2.35476e-23
5.20528e-22
1.875e-06
-1.48909e-22
3.14281e-22
1.875e-06
-1.15576e-22
2.63091e-22
1.875e-06
-1.02689e-22
3.27444e-22
1.875e-06
-9.53091e-23
2.34831e-22
1.875e-06
-4.85224e-23
2.59147e-22
1.875e-06
-1.2687e-22
2.90649e-22
1.875e-06
9.49334e-24
3.7286e-22
1.875e-06
5.67134e-23
3.07957e-22
1.875e-06
3.37042e-23
1.60361e-22
1.875e-06
7.40403e-23
1.76845e-22
1.875e-06
8.05853e-23
3.50746e-23
1.875e-06
1.1253e-22
-8.34502e-23
1.875e-06
7.08053e-23
3.08426e-24
1.875e-06
9.02003e-24
-6.38749e-23
1.875e-06
4.64073e-23
-7.45629e-23
1.875e-06
-2.40619e-25
-5.83631e-23
1.875e-06
-9.40015e-23
-1.07971e-22
1.875e-06
1.8922e-23
8.92265e-23
1.875e-06
5.20552e-23
1.87736e-23
1.875e-06
1.77883e-22
1.99582e-23
1.875e-06
4.97972e-23
-5.37168e-25
1.875e-06
-5.38683e-23
-1.20608e-22
1.875e-06
-1.37514e-22
-3.04667e-22
-2.11652e-22
-2.16244e-22
1.875e-06
5.34238e-23
5.11226e-22
1.875e-06
1.4536e-22
9.36869e-22
1.875e-06
6.82984e-24
1.03662e-21
1.875e-06
-4.71822e-24
1.03992e-21
1.875e-06
-2.08343e-23
1.08916e-21
1.875e-06
5.12709e-23
1.13255e-21
1.875e-06
-1.3043e-23
1.08027e-21
1.875e-06
-4.9188e-23
9.77402e-22
1.875e-06
5.58066e-23
1.07901e-21
1.875e-06
-6.23047e-23
1.09558e-21
1.875e-06
-7.75491e-23
9.46766e-22
1.875e-06
-5.0264e-24
9.41437e-22
1.875e-06
-6.87976e-23
8.42832e-22
1.875e-06
-1.80076e-22
6.86472e-22