/*--------------------------------*- C++ -*----------------------------------*\
| =========                 |                                                 |
| \\      /  F ield         | OpenFOAM: The Open Source CFD Toolbox           |
|  \\    /   O peration     | Version:  v2012                                 |
|   \\  /    A nd           | Website:  www.openfoam.com                      |
|    \\/     M anipulation  |                                                 |
\*---------------------------------------------------------------------------*/
FoamFile
{
    version     2.0;
    format      ascii;
    class       volVectorField;
    location    "21";
    object      U;
}
// * * * * * * * * * * * * * * * * * * * * * * * * * * * * * * * * * * * * * //

dimensions      [0 1 -1 0 0 0 0];


internalField   nonuniform List<vector> 
64000
(
(0.003 2.37361e-19 2.12697e-19)
(0.003 3.98285e-19 3.44e-19)
(0.003 4.08422e-19 4.30298e-19)
(0.003 3.92923e-19 4.69006e-19)
(0.003 4.78512e-19 4.32388e-19)
(0.003 4.80861e-19 3.51239e-19)
(0.003 3.89596e-19 2.91398e-19)
(0.003 2.0884e-19 2.59477e-19)
(0.003 2.89369e-19 3.89919e-19)
(0.003 3.80207e-19 3.12389e-19)
(0.003 3.0467e-19 2.06165e-19)
(0.003 3.25321e-19 3.59335e-19)
(0.003 2.85219e-19 2.98315e-19)
(0.003 2.92355e-19 2.06821e-19)
(0.003 2.44929e-19 2.61553e-19)
(0.003 2.21625e-19 2.80652e-19)
(0.003 1.70878e-19 2.10258e-19)
(0.003 3.99063e-20 1.4806e-19)
(0.003 1.63616e-20 1.33502e-20)
(0.003 1.07537e-19 -1.82166e-20)
(0.003 2.1819e-20 2.93648e-20)
(0.003 9.04096e-20 9.22705e-20)
(0.003 2.365e-19 1.08096e-19)
(0.003 3.22569e-19 1.09312e-19)
(0.003 2.96006e-19 1.37793e-19)
(0.003 1.52673e-19 1.05587e-19)
(0.003 3.41138e-20 1.15176e-19)
(0.003 9.24182e-20 1.33851e-19)
(0.003 1.41961e-19 1.73879e-19)
(0.003 2.34359e-20 2.2979e-19)
(0.003 -8.0869e-20 2.06615e-19)
(0.003 -6.80806e-22 1.00744e-19)
(0.003 1.16091e-19 6.71156e-20)
(0.003 1.01612e-19 7.42023e-20)
(0.003 5.94039e-20 8.85683e-20)
(0.003 3.77591e-20 1.30507e-20)
(0.003 -1.56286e-19 -1.59339e-19)
(0.003 -2.43887e-19 -8.41803e-22)
(0.003 -1.26014e-19 8.38332e-20)
(0.003 -8.7899e-20 2.13393e-20)
(0.003 2.19665e-19 3.09567e-19)
(0.003 3.20077e-19 6.93923e-19)
(0.003 5.54671e-19 9.16198e-19)
(0.003 4.99414e-19 8.80559e-19)
(0.003 4.21323e-19 8.26869e-19)
(0.003 5.83193e-19 8.70609e-19)
(0.003 5.15755e-19 7.61438e-19)
(0.003 4.50146e-19 5.94152e-19)
(0.003 4.08723e-19 7.02618e-19)
(0.003 3.78252e-19 8.3489e-19)
(0.003 3.7442e-19 7.34537e-19)
(0.003 3.30387e-19 6.73194e-19)
(0.003 2.4411e-19 5.73151e-19)
(0.003 1.65052e-19 4.88161e-19)
(0.003 1.12682e-19 4.66484e-19)
(0.003 9.81054e-20 3.95923e-19)
(0.003 2.84593e-19 3.76561e-19)
(0.003 2.46172e-19 2.88322e-19)
(0.003 1.9319e-19 8.88695e-20)
(0.003 1.28385e-19 3.03263e-20)
(0.003 1.37944e-19 1.14521e-19)
(0.003 1.19285e-19 2.10298e-19)
(0.003 2.46499e-19 2.40624e-19)
(0.003 2.54844e-19 2.73473e-19)
(0.003 7.96384e-20 2.88635e-19)
(0.003 7.82972e-20 1.2421e-19)
(0.003 1.41877e-19 3.18998e-20)
(0.003 6.73799e-20 9.47876e-20)
(0.003 -1.16244e-20 2.42216e-19)
(0.003 1.3098e-20 2.2283e-19)
(0.003 -5.18071e-20 1.15382e-19)
(0.003 1.84477e-20 1.23868e-19)
(0.003 1.17144e-19 2.2693e-19)
(0.003 5.22449e-20 1.69336e-19)
(0.003 -1.61335e-20 1.79807e-19)
(0.003 -1.56942e-19 3.87453e-20)
(0.003 -2.73298e-19 -2.69155e-19)
(0.003 -1.35674e-19 -1.68326e-19)
(0.003 3.02105e-20 -6.74807e-22)
(0.003 4.59772e-20 -9.73719e-20)
(0.003 1.68998e-19 4.28481e-19)
(0.003 1.79397e-19 7.22993e-19)
(0.003 2.55104e-19 1.00998e-18)
(0.003 4.03797e-19 1.0922e-18)
(0.003 4.12357e-19 9.76306e-19)
(0.003 4.14557e-19 9.35103e-19)
(0.003 4.13637e-19 9.23319e-19)
(0.003 4.18024e-19 8.82627e-19)
(0.003 4.03435e-19 9.6349e-19)
(0.003 3.84054e-19 9.52304e-19)
(0.003 3.44614e-19 8.09829e-19)
(0.003 2.66984e-19 7.61377e-19)
(0.003 3.10068e-19 5.83243e-19)
(0.003 1.66906e-19 5.00567e-19)
(0.003 9.7406e-20 5.06654e-19)
(0.003 7.69403e-20 4.60759e-19)
(0.003 1.48465e-19 4.98828e-19)
(0.003 2.10957e-19 3.62958e-19)
(0.003 1.82592e-19 8.19589e-20)
(0.003 1.15094e-19 6.06696e-20)
(0.003 6.99102e-20 2.15353e-19)
(0.003 8.6047e-20 3.10804e-19)
(0.003 2.46027e-19 2.72134e-19)
(0.003 2.01314e-19 2.47301e-19)
(0.003 8.09748e-20 2.03837e-19)
(0.003 1.24183e-19 1.56594e-19)
(0.003 1.02358e-19 9.25312e-20)
(0.003 -6.29415e-20 1.23596e-19)
(0.003 -5.8214e-20 1.86868e-19)
(0.003 6.85196e-20 2.87165e-19)
(0.003 7.00277e-20 2.80775e-19)
(0.003 8.08868e-20 2.64986e-19)
(0.003 -2.40907e-20 2.01679e-19)
(0.003 -7.42915e-20 8.92355e-20)
(0.003 -5.46753e-20 2.34294e-19)
(0.003 -1.22846e-19 9.94591e-20)
(0.003 -1.63652e-19 -2.57088e-19)
(0.003 1.34666e-20 -3.23147e-19)
(0.003 1.26326e-19 -1.34962e-19)
(0.003 1.65147e-19 -8.45016e-20)
(0.003 3.46711e-19 5.63467e-19)
(0.003 2.90221e-19 9.20551e-19)
(0.003 1.8631e-19 1.03911e-18)
(0.003 2.48321e-19 1.12461e-18)
(0.003 3.72762e-19 1.15479e-18)
(0.003 3.51296e-19 1.15288e-18)
(0.003 3.20343e-19 1.05293e-18)
(0.003 2.54339e-19 8.82009e-19)
(0.003 2.42384e-19 9.74006e-19)
(0.003 3.37965e-19 1.01516e-18)
(0.003 3.58493e-19 9.57203e-19)
(0.003 2.99296e-19 9.21175e-19)
(0.003 2.54926e-19 7.87172e-19)
(0.003 1.19242e-19 5.43072e-19)
(0.003 2.47628e-19 4.87514e-19)
(0.003 3.3214e-19 4.60298e-19)
(0.003 1.10779e-19 4.5424e-19)
(0.003 -8.40851e-21 4.31264e-19)
(0.003 3.44863e-20 2.19223e-19)
(0.003 1.15935e-19 7.06152e-20)
(0.003 -3.41995e-21 1.98061e-19)
(0.003 1.49039e-19 3.24572e-19)
(0.003 2.69605e-19 3.71928e-19)
(0.003 2.00038e-19 3.22134e-19)
(0.003 1.46013e-19 2.32558e-19)
(0.003 8.14315e-20 1.57687e-19)
(0.003 -1.56062e-20 -3.62474e-20)
(0.003 -5.92263e-20 -5.06704e-20)
(0.003 3.64973e-20 2.41136e-19)
(0.003 1.71113e-20 4.31408e-19)
(0.003 3.84667e-21 3.10039e-19)
(0.003 -6.15907e-20 1.80879e-19)
(0.003 -1.12854e-19 2.35172e-19)
(0.003 -1.20764e-19 1.84286e-19)
(0.003 -4.25785e-20 1.87358e-19)
(0.003 -2.43252e-20 1.23568e-19)
(0.003 6.7532e-20 -7.7452e-20)
(0.003 2.05301e-19 -1.84485e-19)
(0.003 2.64666e-19 -8.92014e-20)
(0.003 2.11857e-19 -6.06207e-21)
(0.003 1.28522e-19 6.02991e-19)
(0.003 2.35543e-19 1.04883e-18)
(0.003 1.5811e-19 1.1396e-18)
(0.003 1.44032e-19 1.13884e-18)
(0.003 1.8947e-19 1.25898e-18)
(0.003 1.69641e-19 1.24106e-18)
(0.003 1.88957e-19 1.14871e-18)
(0.003 3.56077e-19 9.28006e-19)
(0.003 3.68931e-19 9.27116e-19)
(0.003 3.20031e-19 1.10485e-18)
(0.003 2.65624e-19 1.08069e-18)
(0.003 2.52527e-19 9.41079e-19)
(0.003 2.42481e-19 8.03636e-19)
(0.003 1.56798e-19 6.06709e-19)
(0.003 1.84652e-19 5.98244e-19)
(0.003 3.45329e-19 6.09702e-19)
(0.003 1.27692e-19 5.21218e-19)
(0.003 -1.34548e-19 3.2791e-19)
(0.003 -7.50698e-20 2.656e-19)
(0.003 7.04665e-20 1.78179e-19)
(0.003 2.96947e-20 1.84715e-19)
(0.003 1.33783e-19 3.46489e-19)
(0.003 1.82232e-19 4.60226e-19)
(0.003 1.9036e-19 3.51762e-19)
(0.003 1.37006e-19 2.88307e-19)
(0.003 4.74122e-20 1.95308e-19)
(0.003 2.43463e-20 4.69574e-20)
(0.003 1.90096e-20 8.13184e-20)
(0.003 2.765e-20 1.85234e-19)
(0.003 -3.11636e-20 1.90384e-19)
(0.003 9.94848e-20 2.06129e-19)
(0.003 8.97892e-20 2.1373e-19)
(0.003 -1.01577e-19 9.74327e-20)
(0.003 -1.52768e-19 4.85073e-20)
(0.003 -5.5729e-20 1.38281e-19)
(0.003 3.02323e-20 1.39222e-19)
(0.003 2.40948e-19 3.98543e-20)
(0.003 2.36739e-19 -9.5517e-21)
(0.003 1.08333e-19 6.6532e-20)
(0.003 6.17309e-20 7.48681e-20)
(0.003 6.31516e-21 6.55229e-19)
(0.003 1.59031e-19 1.05271e-18)
(0.003 1.22586e-19 1.11948e-18)
(0.003 1.13079e-19 1.18316e-18)
(0.003 1.25158e-19 1.23829e-18)
(0.003 1.63148e-19 1.21827e-18)
(0.003 1.99009e-19 1.14523e-18)
(0.003 4.72239e-19 1.15107e-18)
(0.003 4.50874e-19 1.13265e-18)
(0.003 2.37647e-19 1.09001e-18)
(0.003 1.94711e-19 9.99399e-19)
(0.003 2.39727e-19 1.03665e-18)
(0.003 2.54474e-19 9.56585e-19)
(0.003 2.81302e-19 6.38724e-19)
(0.003 2.33298e-19 6.61064e-19)
(0.003 1.1315e-19 7.37628e-19)
(0.003 -1.90187e-20 5.06375e-19)
(0.003 -4.22889e-20 2.89953e-19)
(0.003 -1.4057e-19 2.15799e-19)
(0.003 -8.98196e-20 2.11234e-19)
(0.003 1.56861e-19 2.54205e-19)
(0.003 1.67283e-19 3.5212e-19)
(0.003 1.53089e-19 4.28665e-19)
(0.003 1.90487e-19 3.36693e-19)
(0.003 1.24832e-19 2.38855e-19)
(0.003 8.59984e-20 2.10344e-19)
(0.003 8.37662e-20 1.58096e-19)
(0.003 -4.47682e-20 7.96676e-20)
(0.003 -1.65838e-19 1.6135e-19)
(0.003 -6.91013e-20 2.7184e-19)
(0.003 1.41759e-19 3.09284e-19)
(0.003 1.56076e-19 1.46257e-19)
(0.003 1.1412e-20 -4.21137e-20)
(0.003 5.0808e-20 1.06885e-19)
(0.003 2.88974e-20 1.35355e-19)
(0.003 8.02295e-20 5.63111e-20)
(0.003 1.40469e-19 1.09939e-19)
(0.003 1.30333e-19 5.55903e-20)
(0.003 6.33089e-20 3.48618e-21)
(0.003 3.68654e-20 4.54052e-20)
(0.003 1.04514e-19 8.00069e-19)
(0.003 1.8486e-19 1.19984e-18)
(0.003 1.67933e-19 1.17629e-18)
(0.003 8.11194e-20 1.16414e-18)
(0.003 1.6151e-19 1.25661e-18)
(0.003 1.32009e-19 1.2958e-18)
(0.003 2.15319e-19 1.24398e-18)
(0.003 4.08764e-19 1.21839e-18)
(0.003 4.02458e-19 1.21561e-18)
(0.003 3.26681e-19 1.14261e-18)
(0.003 2.42669e-19 1.04998e-18)
(0.003 2.1619e-19 1.01403e-18)
(0.003 2.30842e-19 8.85925e-19)
(0.003 3.40968e-19 7.5559e-19)
(0.003 2.39035e-19 7.80524e-19)
(0.003 1.40382e-19 6.99539e-19)
(0.003 3.70778e-20 4.36395e-19)
(0.003 4.77115e-21 2.68284e-19)
(0.003 -6.06305e-21 1.91374e-19)
(0.003 -2.86997e-20 1.39519e-19)
(0.003 2.44635e-19 2.35396e-19)
(0.003 2.46956e-19 3.54829e-19)
(0.003 3.13545e-20 4.03004e-19)
(0.003 -1.64045e-20 4.43124e-19)
(0.003 -2.53037e-21 3.24349e-19)
(0.003 7.67633e-20 1.96064e-19)
(0.003 3.69501e-20 1.16781e-19)
(0.003 -7.83059e-20 7.52815e-20)
(0.003 -1.28288e-19 1.13859e-19)
(0.003 -8.57235e-20 1.51935e-19)
(0.003 4.3614e-20 2.48822e-19)
(0.003 1.29513e-21 1.24668e-19)
(0.003 7.92486e-21 3.78026e-20)
(0.003 1.82735e-19 1.4217e-19)
(0.003 1.94381e-19 1.40239e-19)
(0.003 1.74333e-19 1.30409e-19)
(0.003 1.06806e-19 -5.36642e-22)
(0.003 6.39026e-20 -7.63749e-20)
(0.003 1.09347e-21 4.43855e-20)
(0.003 1.63487e-20 7.60542e-20)
(0.003 2.22241e-19 6.94422e-19)
(0.003 2.22593e-19 1.11326e-18)
(0.003 2.18751e-19 1.22331e-18)
(0.003 1.96497e-19 1.3038e-18)
(0.003 1.52042e-19 1.39604e-18)
(0.003 1.58843e-19 1.27336e-18)
(0.003 2.92203e-19 1.24337e-18)
(0.003 2.76798e-19 1.32776e-18)
(0.003 3.10457e-19 1.31341e-18)
(0.003 3.94857e-19 1.23473e-18)
(0.003 2.41923e-19 1.07941e-18)
(0.003 1.42211e-19 9.72076e-19)
(0.003 1.23394e-19 8.42038e-19)
(0.003 2.96354e-19 7.07648e-19)
(0.003 2.38159e-19 7.63223e-19)
(0.003 1.12451e-19 7.60717e-19)
(0.003 5.69653e-20 4.95453e-19)
(0.003 1.1567e-19 2.19833e-19)
(0.003 2.56196e-19 9.9969e-20)
(0.003 2.50378e-19 1.59009e-19)
(0.003 2.54571e-19 2.81248e-19)
(0.003 1.07428e-19 4.2804e-19)
(0.003 -6.48292e-20 4.75694e-19)
(0.003 -1.00009e-19 4.07466e-19)
(0.003 -1.16737e-19 3.09283e-19)
(0.003 -6.22967e-21 2.05648e-19)
(0.003 8.27672e-20 8.41023e-20)
(0.003 9.81359e-21 4.71975e-20)
(0.003 -7.06193e-20 8.57947e-20)
(0.003 -5.41671e-20 1.18013e-19)
(0.003 -1.96921e-19 2.89458e-19)
(0.003 -1.33135e-19 1.70612e-19)
(0.003 7.52399e-20 1.23671e-19)
(0.003 1.27345e-19 1.81995e-19)
(0.003 2.71711e-19 1.3508e-19)
(0.003 1.78799e-19 -3.96762e-20)
(0.003 3.29303e-20 -2.2405e-19)
(0.003 -1.15254e-19 -1.57515e-20)
(0.003 -1.24828e-19 1.86932e-19)
(0.003 -1.03997e-20 1.15173e-19)
(0.003 -8.99535e-20 7.22101e-19)
(0.003 -3.7183e-21 1.29968e-18)
(0.003 1.79063e-19 1.37956e-18)
(0.003 2.53485e-19 1.37407e-18)
(0.003 1.88025e-19 1.36926e-18)
(0.003 2.96149e-19 1.34814e-18)
(0.003 3.47748e-19 1.3649e-18)
(0.003 1.52238e-19 1.33161e-18)
(0.003 1.55127e-19 1.30367e-18)
(0.003 2.5614e-19 1.29018e-18)
(0.003 2.15002e-19 1.11914e-18)
(0.003 3.23267e-20 1.00657e-18)
(0.003 1.66176e-20 7.83601e-19)
(0.003 1.82911e-19 7.39188e-19)
(0.003 2.24662e-19 7.50783e-19)
(0.003 1.14494e-19 7.28005e-19)
(0.003 1.94996e-19 5.22353e-19)
(0.003 2.13715e-19 2.45285e-19)
(0.003 1.27816e-19 2.57239e-19)
(0.003 1.59495e-19 2.66448e-19)
(0.003 1.15155e-19 3.26688e-19)
(0.003 3.84412e-20 4.57838e-19)
(0.003 7.2981e-20 5.01615e-19)
(0.003 1.11914e-19 4.56602e-19)
(0.003 4.30008e-20 2.1298e-19)
(0.003 -8.09498e-20 9.82322e-20)
(0.003 -8.85845e-20 1.35435e-19)
(0.003 2.98417e-20 6.8092e-20)
(0.003 1.1817e-20 -3.16779e-22)
(0.003 -5.62738e-20 7.3611e-20)
(0.003 -1.50125e-19 1.97468e-19)
(0.003 -1.04486e-19 2.11034e-19)
(0.003 9.05672e-21 1.86822e-19)
(0.003 1.37993e-20 8.81202e-20)
(0.003 7.11591e-20 -1.93464e-20)
(0.003 1.26574e-19 -2.25733e-19)
(0.003 5.29543e-20 -1.71048e-19)
(0.003 -1.12566e-19 -5.73119e-21)
(0.003 -8.35283e-20 1.98973e-19)
(0.003 -3.55773e-20 2.26019e-19)
(0.003 -2.73552e-19 8.27264e-19)
(0.003 -5.03043e-20 1.23388e-18)
(0.003 1.78689e-19 1.40927e-18)
(0.003 2.90782e-19 1.51024e-18)
(0.003 2.25072e-19 1.47149e-18)
(0.003 2.45512e-19 1.41002e-18)
(0.003 3.34682e-19 1.43014e-18)
(0.003 1.77278e-19 1.35297e-18)
(0.003 1.31773e-19 1.20176e-18)
(0.003 1.92487e-19 1.22515e-18)
(0.003 2.57399e-19 1.10384e-18)
(0.003 6.49208e-20 9.23085e-19)
(0.003 -8.45415e-21 8.41552e-19)
(0.003 3.08856e-20 8.36228e-19)
(0.003 1.76508e-19 7.98077e-19)
(0.003 2.43805e-19 7.0853e-19)
(0.003 2.73057e-19 5.31193e-19)
(0.003 1.22554e-19 3.25852e-19)
(0.003 -9.72937e-20 1.83998e-19)
(0.003 -5.47806e-20 1.64204e-19)
(0.003 4.16403e-20 3.27586e-19)
(0.003 1.88149e-19 5.06439e-19)
(0.003 1.52416e-19 6.05894e-19)
(0.003 9.71818e-20 5.07787e-19)
(0.003 1.44992e-19 2.89767e-19)
(0.003 4.9938e-20 1.53477e-19)
(0.003 -1.33319e-19 5.77558e-20)
(0.003 -9.9554e-20 -3.4513e-21)
(0.003 7.34771e-20 1.95706e-20)
(0.003 4.72634e-20 1.24472e-19)
(0.003 5.59251e-21 2.04564e-19)
(0.003 -9.25793e-20 2.02151e-19)
(0.003 -9.24297e-20 2.1955e-19)
(0.003 -6.46687e-20 1.67971e-19)
(0.003 -5.51558e-20 1.26907e-19)
(0.003 7.93754e-20 -1.58468e-19)
(0.003 7.88263e-20 -3.74255e-19)
(0.003 1.23326e-19 -1.41608e-19)
(0.003 1.57651e-19 -3.8661e-20)
(0.003 4.51833e-20 1.48894e-20)
(0.003 9.00632e-20 8.32713e-19)
(0.003 1.75829e-19 1.34919e-18)
(0.003 2.24064e-19 1.55843e-18)
(0.003 2.2046e-19 1.56766e-18)
(0.003 2.15597e-19 1.46379e-18)
(0.003 2.92656e-19 1.42243e-18)
(0.003 2.09606e-19 1.45267e-18)
(0.003 1.57581e-19 1.35167e-18)
(0.003 9.57597e-20 1.21994e-18)
(0.003 1.53966e-19 1.17507e-18)
(0.003 3.0207e-19 1.07337e-18)
(0.003 1.90851e-19 9.63852e-19)
(0.003 1.30664e-19 8.00035e-19)
(0.003 1.18464e-19 7.38382e-19)
(0.003 8.51493e-20 8.62341e-19)
(0.003 9.9248e-20 8.5512e-19)
(0.003 9.92765e-20 5.45666e-19)
(0.003 6.33653e-21 2.42048e-19)
(0.003 9.22057e-21 1.54618e-19)
(0.003 6.69271e-21 1.67062e-19)
(0.003 1.21469e-19 3.75386e-19)
(0.003 2.32564e-19 5.63643e-19)
(0.003 7.45171e-20 6.40161e-19)
(0.003 4.52944e-20 6.16814e-19)
(0.003 1.25247e-19 2.88749e-19)
(0.003 -2.67263e-20 7.70921e-20)
(0.003 -1.70755e-19 1.04742e-20)
(0.003 -8.66607e-20 5.57238e-20)
(0.003 5.55698e-20 2.61309e-20)
(0.003 -1.67982e-20 1.51629e-19)
(0.003 -4.81225e-20 2.45473e-19)
(0.003 -3.64349e-20 2.12101e-19)
(0.003 -2.54859e-20 1.91697e-19)
(0.003 -6.34473e-20 1.49484e-19)
(0.003 -1.25405e-19 1.78402e-19)
(0.003 -1.07878e-19 -6.88792e-20)
(0.003 -2.28765e-20 -2.79931e-19)
(0.003 1.64372e-19 -9.39134e-20)
(0.003 2.79549e-19 -8.21927e-20)
(0.003 2.42828e-19 -1.35559e-19)
(0.003 2.76022e-19 9.22053e-19)
(0.003 2.44837e-19 1.42883e-18)
(0.003 1.61472e-19 1.54473e-18)
(0.003 1.40972e-19 1.47626e-18)
(0.003 2.42298e-19 1.47411e-18)
(0.003 2.19422e-19 1.50895e-18)
(0.003 1.68148e-19 1.41465e-18)
(0.003 2.67377e-19 1.33811e-18)
(0.003 1.69497e-19 1.15648e-18)
(0.003 3.58757e-20 1.18653e-18)
(0.003 1.42531e-19 1.15882e-18)
(0.003 1.5436e-19 9.87895e-19)
(0.003 2.09264e-19 8.82683e-19)
(0.003 1.95061e-19 7.62841e-19)
(0.003 6.05318e-20 8.21062e-19)
(0.003 -7.33519e-20 7.98959e-19)
(0.003 -7.76752e-20 6.06846e-19)
(0.003 9.19062e-20 2.58072e-19)
(0.003 3.09488e-19 1.29472e-19)
(0.003 2.44625e-19 2.21546e-19)
(0.003 9.50898e-20 3.58241e-19)
(0.003 -8.63463e-20 5.04453e-19)
(0.003 -9.47916e-20 5.44362e-19)
(0.003 -8.837e-21 5.75936e-19)
(0.003 -2.1944e-20 4.00856e-19)
(0.003 -8.11603e-20 8.27719e-20)
(0.003 -6.17066e-20 1.16248e-20)
(0.003 1.20338e-20 1.37211e-19)
(0.003 -5.14856e-20 3.27695e-20)
(0.003 -1.42679e-19 1.37252e-19)
(0.003 -3.57891e-20 2.51616e-19)
(0.003 5.22587e-21 1.80651e-19)
(0.003 -1.03266e-19 1.47119e-19)
(0.003 -8.50822e-21 1.21503e-19)
(0.003 -2.21461e-20 8.39876e-20)
(0.003 -1.89086e-19 8.87788e-20)
(0.003 -1.30544e-19 4.52732e-20)
(0.003 6.79239e-20 -9.26208e-20)
(0.003 1.43509e-19 -3.60607e-19)
(0.003 9.79936e-20 -4.15359e-19)
(0.003 2.53091e-19 9.39804e-19)
(0.003 2.62322e-19 1.43358e-18)
(0.003 1.37734e-19 1.52753e-18)
(0.003 1.80713e-19 1.55689e-18)
(0.003 1.04374e-19 1.55352e-18)
(0.003 1.20884e-20 1.47132e-18)
(0.003 1.73737e-19 1.41704e-18)
(0.003 1.78193e-19 1.36657e-18)
(0.003 2.25896e-19 1.27104e-18)
(0.003 1.44688e-19 1.16361e-18)
(0.003 -2.6365e-20 1.07392e-18)
(0.003 4.10954e-20 9.80703e-19)
(0.003 2.1073e-19 8.90813e-19)
(0.003 2.73819e-19 8.35641e-19)
(0.003 9.9364e-20 8.24577e-19)
(0.003 -3.82466e-20 7.09608e-19)
(0.003 -7.14082e-20 4.91058e-19)
(0.003 3.35654e-20 2.97486e-19)
(0.003 2.04665e-19 3.60805e-19)
(0.003 2.41713e-19 3.33264e-19)
(0.003 1.50202e-19 3.62374e-19)
(0.003 3.08488e-20 4.48482e-19)
(0.003 4.06407e-20 5.03312e-19)
(0.003 2.88247e-20 5.36735e-19)
(0.003 -1.43528e-19 3.9418e-19)
(0.003 -5.77538e-20 6.49263e-20)
(0.003 8.28343e-20 -3.96183e-20)
(0.003 2.61031e-20 4.8278e-20)
(0.003 -2.03232e-19 6.47064e-20)
(0.003 -2.69763e-19 1.07015e-19)
(0.003 -1.02388e-19 2.41234e-19)
(0.003 1.27599e-20 2.08274e-19)
(0.003 -2.69332e-20 6.76908e-20)
(0.003 -6.67061e-21 1.64039e-19)
(0.003 -8.68664e-20 1.77836e-19)
(0.003 -1.19954e-19 4.54294e-21)
(0.003 6.2404e-20 5.33096e-21)
(0.003 1.14507e-19 -1.50316e-19)
(0.003 2.14979e-20 -3.75972e-19)
(0.003 -3.571e-20 -4.38221e-19)
(0.003 7.18072e-21 9.78874e-19)
(0.003 1.9754e-19 1.50266e-18)
(0.003 2.1682e-19 1.50724e-18)
(0.003 3.20892e-20 1.5498e-18)
(0.003 -1.1196e-19 1.53689e-18)
(0.003 -3.91097e-20 1.51018e-18)
(0.003 1.6256e-19 1.45365e-18)
(0.003 2.5506e-19 1.30832e-18)
(0.003 1.79671e-19 1.21285e-18)
(0.003 2.09023e-20 1.22208e-18)
(0.003 -8.17687e-20 1.07629e-18)
(0.003 1.28479e-19 8.91631e-19)
(0.003 2.15314e-19 9.41676e-19)
(0.003 1.4712e-19 9.49575e-19)
(0.003 2.00404e-20 8.75525e-19)
(0.003 -1.12893e-20 7.08432e-19)
(0.003 -2.52379e-20 5.28413e-19)
(0.003 1.3271e-19 3.47222e-19)
(0.003 1.92365e-19 3.06133e-19)
(0.003 1.37187e-19 3.11096e-19)
(0.003 2.2749e-19 3.86199e-19)
(0.003 1.07031e-19 5.04493e-19)
(0.003 -1.54258e-20 5.34368e-19)
(0.003 -4.71856e-20 5.57017e-19)
(0.003 -1.3139e-19 3.27783e-19)
(0.003 -4.74956e-20 -2.52798e-20)
(0.003 1.31682e-19 -2.08445e-19)
(0.003 7.94895e-20 -1.10872e-19)
(0.003 -1.823e-19 9.34585e-20)
(0.003 -2.36117e-19 1.866e-19)
(0.003 -2.43644e-19 2.90502e-19)
(0.003 -6.23432e-20 2.20792e-19)
(0.003 3.66632e-20 1.23705e-19)
(0.003 -8.75293e-20 1.42468e-19)
(0.003 -1.19119e-19 1.07007e-19)
(0.003 7.81123e-21 -7.24139e-20)
(0.003 1.19223e-19 -3.06495e-19)
(0.003 1.01741e-19 -2.39585e-19)
(0.003 5.91191e-20 -3.2681e-19)
(0.003 -2.46243e-20 -5.01161e-19)
(0.003 -1.76112e-19 1.00753e-18)
(0.003 -1.52953e-19 1.49211e-18)
(0.003 6.94965e-20 1.59176e-18)
(0.003 3.14416e-20 1.49921e-18)
(0.003 5.10492e-20 1.46739e-18)
(0.003 3.38393e-21 1.50819e-18)
(0.003 1.21242e-19 1.53752e-18)
(0.003 2.74448e-19 1.41529e-18)
(0.003 2.1549e-20 1.24398e-18)
(0.003 -1.5749e-19 1.16999e-18)
(0.003 6.02814e-20 1.02832e-18)
(0.003 2.38452e-19 9.61245e-19)
(0.003 1.00184e-19 1.04165e-18)
(0.003 -8.85459e-20 9.6215e-19)
(0.003 -5.62308e-20 7.5998e-19)
(0.003 -3.88245e-20 7.02867e-19)
(0.003 4.19213e-20 4.56227e-19)
(0.003 2.60187e-19 3.73731e-19)
(0.003 1.86186e-19 4.36582e-19)
(0.003 1.34995e-19 3.28851e-19)
(0.003 2.3531e-19 4.5803e-19)
(0.003 7.8953e-20 5.56196e-19)
(0.003 -1.36488e-19 6.00245e-19)
(0.003 -2.50778e-19 5.11195e-19)
(0.003 -2.12251e-19 2.10872e-19)
(0.003 -4.02623e-20 -1.93087e-20)
(0.003 1.48216e-19 -2.60611e-19)
(0.003 7.03795e-20 -1.94099e-20)
(0.003 -6.4411e-20 1.14014e-19)
(0.003 -6.51112e-20 8.00046e-20)
(0.003 2.39783e-21 2.4607e-19)
(0.003 3.39098e-20 2.13167e-19)
(0.003 -7.34959e-20 8.37979e-20)
(0.003 -1.72671e-19 8.48244e-20)
(0.003 -1.18109e-19 1.69274e-19)
(0.003 -6.83692e-20 -1.12936e-21)
(0.003 7.58772e-20 -3.318e-19)
(0.003 1.52554e-19 -2.66218e-19)
(0.003 3.89445e-20 -3.9595e-19)
(0.003 -5.05414e-20 -6.15455e-19)
(0.003 -5.82603e-20 9.78676e-19)
(0.003 -2.63519e-19 1.48358e-18)
(0.003 -1.79381e-19 1.64924e-18)
(0.003 -8.12908e-20 1.53945e-18)
(0.003 4.42324e-20 1.54535e-18)
(0.003 5.72491e-20 1.55202e-18)
(0.003 1.14803e-21 1.53079e-18)
(0.003 2.3685e-20 1.46693e-18)
(0.003 -2.65362e-20 1.26407e-18)
(0.003 7.45882e-21 1.07236e-18)
(0.003 1.40985e-19 1.0907e-18)
(0.003 2.08566e-19 1.0975e-18)
(0.003 -1.95262e-20 1.07763e-18)
(0.003 -7.2799e-20 9.81141e-19)
(0.003 -4.13044e-21 8.35374e-19)
(0.003 1.56162e-20 6.47e-19)
(0.003 4.60782e-20 4.38163e-19)
(0.003 -1.05563e-20 3.89777e-19)
(0.003 1.01536e-19 4.41331e-19)
(0.003 2.52292e-19 4.22963e-19)
(0.003 1.06394e-19 4.74926e-19)
(0.003 4.23998e-20 6.19791e-19)
(0.003 -1.22933e-19 6.00834e-19)
(0.003 -3.26935e-19 3.77693e-19)
(0.003 -2.0836e-19 1.28141e-19)
(0.003 -7.77869e-20 1.31696e-19)
(0.003 3.68997e-20 -9.53779e-20)
(0.003 3.02643e-20 -2.30405e-19)
(0.003 1.72351e-20 6.84087e-20)
(0.003 8.00284e-20 1.505e-19)
(0.003 1.20912e-19 1.62135e-19)
(0.003 2.05217e-20 8.08771e-20)
(0.003 -1.60876e-19 2.62637e-20)
(0.003 -1.10873e-19 2.09471e-19)
(0.003 -7.75735e-20 2.0005e-19)
(0.003 -8.69286e-20 -1.05441e-20)
(0.003 -6.42887e-20 -2.92857e-19)
(0.003 -4.33152e-20 -2.35221e-19)
(0.003 -2.76744e-20 -3.53008e-19)
(0.003 1.0532e-20 -5.3839e-19)
(0.003 -1.52691e-19 8.95351e-19)
(0.003 -1.23259e-19 1.42824e-18)
(0.003 1.20227e-20 1.6172e-18)
(0.003 -1.02077e-19 1.57396e-18)
(0.003 -1.6842e-19 1.60372e-18)
(0.003 -3.34897e-20 1.59594e-18)
(0.003 -3.40125e-20 1.58642e-18)
(0.003 -5.22142e-20 1.49462e-18)
(0.003 6.6358e-20 1.31305e-18)
(0.003 1.75718e-19 1.19147e-18)
(0.003 1.22191e-19 1.16212e-18)
(0.003 1.1926e-19 1.16192e-18)
(0.003 4.46671e-20 1.07861e-18)
(0.003 -4.77043e-20 9.98419e-19)
(0.003 -1.42945e-19 7.67223e-19)
(0.003 5.59808e-20 5.46728e-19)
(0.003 1.19765e-19 3.91371e-19)
(0.003 -1.07637e-19 4.43221e-19)
(0.003 -2.73934e-20 5.9098e-19)
(0.003 2.04443e-19 5.43719e-19)
(0.003 1.49501e-19 5.64197e-19)
(0.003 8.04283e-20 5.05115e-19)
(0.003 -1.13446e-19 4.13859e-19)
(0.003 -2.51637e-19 2.37994e-19)
(0.003 -1.72888e-19 1.1812e-19)
(0.003 -7.78315e-20 2.01054e-19)
(0.003 -1.46249e-19 3.78499e-20)
(0.003 -1.38661e-19 2.73364e-20)
(0.003 5.66291e-20 1.50208e-19)
(0.003 1.03121e-19 1.03429e-19)
(0.003 5.38652e-21 1.0352e-19)
(0.003 -1.48661e-19 7.89342e-20)
(0.003 -1.24859e-19 5.56987e-20)
(0.003 -3.13916e-20 1.57564e-19)
(0.003 -5.11547e-20 1.94747e-19)
(0.003 1.57048e-21 -1.30728e-20)
(0.003 -8.45883e-20 -3.23797e-19)
(0.003 -1.93455e-19 -2.48013e-19)
(0.003 -9.06604e-20 -5.12853e-19)
(0.003 2.55611e-20 -6.26623e-19)
(0.003 -1.92049e-19 8.32536e-19)
(0.003 -1.8909e-19 1.45287e-18)
(0.003 -1.34844e-19 1.76572e-18)
(0.003 3.92539e-21 1.64672e-18)
(0.003 2.64333e-20 1.55188e-18)
(0.003 -4.6081e-20 1.5853e-18)
(0.003 -1.33136e-19 1.59179e-18)
(0.003 -1.63205e-19 1.47259e-18)
(0.003 3.51738e-20 1.38483e-18)
(0.003 1.02272e-19 1.27504e-18)
(0.003 8.16182e-20 1.1522e-18)
(0.003 4.46615e-20 1.16858e-18)
(0.003 6.11586e-20 1.08058e-18)
(0.003 2.40738e-20 9.94179e-19)
(0.003 -2.69907e-21 7.90915e-19)
(0.003 5.67138e-20 7.02781e-19)
(0.003 1.64711e-19 5.49015e-19)
(0.003 2.87522e-19 3.36216e-19)
(0.003 2.42167e-19 3.70304e-19)
(0.003 3.86146e-20 5.24601e-19)
(0.003 -1.41107e-19 6.39267e-19)
(0.003 -1.41672e-19 6.74658e-19)
(0.003 -7.33224e-20 4.26709e-19)
(0.003 -4.76468e-20 2.32252e-19)
(0.003 -9.19452e-20 1.29167e-19)
(0.003 -1.30728e-19 1.94466e-19)
(0.003 -1.47822e-19 1.75875e-19)
(0.003 -2.49282e-19 1.46047e-20)
(0.003 -1.41413e-19 1.1342e-19)
(0.003 -9.90539e-21 1.14739e-19)
(0.003 4.69399e-21 -4.46607e-20)
(0.003 -6.81189e-20 -9.61272e-21)
(0.003 -6.28252e-21 8.9833e-20)
(0.003 -1.65367e-21 1.29286e-19)
(0.003 -5.48952e-20 9.40038e-20)
(0.003 -1.10133e-19 3.26451e-20)
(0.003 -2.48757e-19 -2.17789e-19)
(0.003 -2.13811e-19 -3.07566e-19)
(0.003 -2.44403e-20 -4.25056e-19)
(0.003 8.13182e-20 -4.97639e-19)
(0.003 -1.4812e-19 8.11616e-19)
(0.003 -2.40077e-19 1.4082e-18)
(0.003 -2.22979e-19 1.63439e-18)
(0.003 4.57637e-20 1.67572e-18)
(0.003 1.18784e-19 1.62334e-18)
(0.003 -1.24117e-19 1.55824e-18)
(0.003 -2.6511e-19 1.57144e-18)
(0.003 -1.11073e-19 1.54821e-18)
(0.003 7.8156e-20 1.47494e-18)
(0.003 9.93709e-20 1.33191e-18)
(0.003 1.81818e-20 1.20483e-18)
(0.003 3.3403e-20 1.13157e-18)
(0.003 -1.76866e-20 1.07424e-18)
(0.003 -1.35427e-20 1.04038e-18)
(0.003 1.82858e-19 8.27758e-19)
(0.003 7.2358e-20 7.55096e-19)
(0.003 9.17667e-21 6.78471e-19)
(0.003 1.80996e-19 4.99384e-19)
(0.003 2.79056e-19 4.46011e-19)
(0.003 -1.69932e-20 4.05469e-19)
(0.003 -1.32681e-19 5.16521e-19)
(0.003 -1.16532e-19 5.73859e-19)
(0.003 -2.51495e-20 4.99468e-19)
(0.003 -4.95317e-20 3.17207e-19)
(0.003 -9.90465e-21 1.36213e-19)
(0.003 -1.25421e-19 1.74393e-19)
(0.003 -4.81063e-20 1.72111e-19)
(0.003 -8.36683e-20 1.43132e-20)
(0.003 -1.38162e-19 2.92347e-20)
(0.003 1.83271e-20 2.45518e-20)
(0.003 9.75268e-20 -2.65721e-20)
(0.003 4.35994e-20 1.40659e-21)
(0.003 1.4226e-20 3.90654e-20)
(0.003 1.34338e-21 1.47502e-19)
(0.003 -4.77259e-21 6.40609e-20)
(0.003 -2.09405e-19 -1.06443e-19)
(0.003 -2.42839e-19 -1.07427e-19)
(0.003 -1.60218e-19 -1.68106e-19)
(0.003 -4.88778e-20 -2.99798e-19)
(0.003 1.129e-20 -3.30263e-19)
(0.003 5.15366e-20 8.61862e-19)
(0.003 4.68311e-20 1.42555e-18)
(0.003 -6.12902e-21 1.59053e-18)
(0.003 -6.29458e-20 1.63363e-18)
(0.003 -1.64899e-20 1.66359e-18)
(0.003 -1.15552e-19 1.52739e-18)
(0.003 -2.42062e-19 1.46596e-18)
(0.003 -2.37044e-19 1.55211e-18)
(0.003 -1.30117e-19 1.55468e-18)
(0.003 1.17838e-19 1.42258e-18)
(0.003 1.85747e-19 1.20179e-18)
(0.003 8.26516e-20 1.19698e-18)
(0.003 5.82558e-20 1.03153e-18)
(0.003 2.23915e-20 1.0275e-18)
(0.003 1.05046e-19 1.01314e-18)
(0.003 3.41443e-21 8.17534e-19)
(0.003 -1.12184e-19 5.38921e-19)
(0.003 -2.14294e-19 3.76658e-19)
(0.003 -1.3386e-19 5.19481e-19)
(0.003 7.15403e-21 4.67389e-19)
(0.003 4.61475e-20 5.0102e-19)
(0.003 2.33251e-21 6.12203e-19)
(0.003 -2.77606e-20 6.03216e-19)
(0.003 4.25257e-20 2.73922e-19)
(0.003 1.30226e-19 1.20904e-19)
(0.003 1.36054e-20 1.55175e-19)
(0.003 4.40867e-20 2.08379e-19)
(0.003 9.53136e-20 6.01643e-20)
(0.003 6.6075e-20 4.60403e-21)
(0.003 -1.94747e-20 -4.97007e-20)
(0.003 -8.4203e-20 9.24597e-20)
(0.003 -8.39331e-20 7.05765e-20)
(0.003 6.04534e-21 1.23148e-20)
(0.003 -3.99565e-20 9.05121e-20)
(0.003 -5.52164e-21 5.32604e-20)
(0.003 1.37296e-20 5.86037e-21)
(0.003 -2.02377e-20 -3.81176e-20)
(0.003 -6.41129e-20 -2.3825e-19)
(0.003 -1.67784e-19 -4.74757e-19)
(0.003 -1.41664e-19 -4.13415e-19)
(0.003 2.9716e-19 8.42744e-19)
(0.003 2.5499e-19 1.37544e-18)
(0.003 -3.15737e-20 1.57562e-18)
(0.003 -1.30603e-19 1.59212e-18)
(0.003 -8.27903e-20 1.60923e-18)
(0.003 2.23466e-20 1.5617e-18)
(0.003 -3.62768e-20 1.48667e-18)
(0.003 -2.33475e-19 1.43384e-18)
(0.003 -2.84416e-19 1.43942e-18)
(0.003 -6.12134e-21 1.52217e-18)
(0.003 2.25624e-19 1.4423e-18)
(0.003 -1.09706e-20 1.27957e-18)
(0.003 4.93513e-20 1.15989e-18)
(0.003 1.81289e-19 1.00358e-18)
(0.003 5.01712e-20 9.52114e-19)
(0.003 -5.94829e-20 7.48349e-19)
(0.003 -1.3815e-19 5.20858e-19)
(0.003 -1.71294e-19 3.99161e-19)
(0.003 -2.59215e-19 5.01786e-19)
(0.003 -1.35445e-19 5.03389e-19)
(0.003 -3.12631e-20 5.61142e-19)
(0.003 -1.40654e-19 5.64843e-19)
(0.003 -5.16751e-20 5.1482e-19)
(0.003 1.13945e-19 3.94072e-19)
(0.003 1.62142e-19 2.45671e-19)
(0.003 1.29211e-19 1.3035e-19)
(0.003 1.92462e-20 1.12282e-19)
(0.003 1.35448e-19 2.78965e-20)
(0.003 1.22072e-19 -5.98036e-20)
(0.003 -9.3845e-20 -1.80508e-19)
(0.003 -6.5173e-20 -3.66513e-21)
(0.003 -5.80439e-20 3.31992e-20)
(0.003 -1.37157e-20 2.24825e-20)
(0.003 -1.89189e-20 1.35886e-19)
(0.003 4.62643e-20 1.00901e-19)
(0.003 1.80678e-19 3.54226e-20)
(0.003 5.98497e-20 -2.02822e-20)
(0.003 -4.92559e-20 -1.81487e-19)
(0.003 -2.05824e-19 -3.8287e-19)
(0.003 -2.66342e-19 -3.17349e-19)
(0.003 2.74148e-19 9.18446e-19)
(0.003 2.69877e-19 1.46042e-18)
(0.003 1.79739e-20 1.56893e-18)
(0.003 -3.9387e-20 1.53944e-18)
(0.003 -7.24678e-20 1.56027e-18)
(0.003 4.23571e-20 1.51395e-18)
(0.003 1.9297e-20 1.49795e-18)
(0.003 -7.286e-20 1.41384e-18)
(0.003 -1.04848e-19 1.41583e-18)
(0.003 -6.80744e-20 1.55491e-18)
(0.003 -4.88799e-20 1.50861e-18)
(0.003 -5.33643e-20 1.23489e-18)
(0.003 -2.29648e-20 1.15598e-18)
(0.003 -6.10219e-20 1.1187e-18)
(0.003 -8.56864e-20 9.35288e-19)
(0.003 -7.43611e-20 6.99083e-19)
(0.003 -1.57886e-19 5.3378e-19)
(0.003 -2.30399e-19 4.29757e-19)
(0.003 -3.03503e-19 4.35663e-19)
(0.003 -1.73323e-19 4.51039e-19)
(0.003 -1.34743e-19 6.06996e-19)
(0.003 -1.09614e-19 5.6208e-19)
(0.003 1.47241e-19 5.06625e-19)
(0.003 1.74756e-19 3.88296e-19)
(0.003 1.02271e-19 1.87933e-19)
(0.003 1.33945e-19 1.4936e-19)
(0.003 9.86034e-20 8.68334e-20)
(0.003 9.96486e-20 -2.92371e-20)
(0.003 1.16303e-19 -3.64062e-20)
(0.003 3.43546e-20 -1.62756e-19)
(0.003 3.37499e-20 -4.66465e-20)
(0.003 4.35213e-20 5.06777e-21)
(0.003 1.88509e-20 -1.43665e-20)
(0.003 8.56095e-21 7.93294e-20)
(0.003 6.94135e-20 1.36223e-19)
(0.003 1.79929e-19 9.04942e-20)
(0.003 1.05115e-19 -1.06655e-19)
(0.003 -1.07693e-19 -3.22339e-19)
(0.003 -8.31903e-20 -3.11261e-19)
(0.003 -9.60937e-20 -1.28061e-19)
(0.003 -1.02259e-19 9.26905e-19)
(0.003 -5.36491e-20 1.49259e-18)
(0.003 6.46575e-20 1.53324e-18)
(0.003 7.72441e-22 1.48593e-18)
(0.003 -3.25673e-20 1.50503e-18)
(0.003 5.89052e-20 1.59981e-18)
(0.003 6.53351e-20 1.54653e-18)
(0.003 1.19752e-19 1.37547e-18)
(0.003 -7.0588e-21 1.30294e-18)
(0.003 -2.1686e-19 1.44605e-18)
(0.003 -1.96321e-19 1.47956e-18)
(0.003 -6.55901e-20 1.35353e-18)
(0.003 -2.0185e-19 1.21205e-18)
(0.003 -2.09316e-19 9.7512e-19)
(0.003 -1.28097e-19 7.94184e-19)
(0.003 -1.82401e-19 7.76408e-19)
(0.003 -1.88929e-19 6.45861e-19)
(0.003 -1.59513e-19 3.82711e-19)
(0.003 -2.14343e-19 3.73637e-19)
(0.003 -1.79489e-19 4.88283e-19)
(0.003 -1.40529e-19 5.1092e-19)
(0.003 -3.15224e-20 5.22909e-19)