/*--------------------------------*- C++ -*----------------------------------*\
| =========                 |                                                 |
| \\      /  F ield         | OpenFOAM: The Open Source CFD Toolbox           |
|  \\    /   O peration     | Version:  v2012                                 |
|   \\  /    A nd           | Website:  www.openfoam.com                      |
|    \\/     M anipulation  |                                                 |
\*---------------------------------------------------------------------------*/
FoamFile
{
    version     2.0;
    format      ascii;
    class       volScalarField;
    location    "750/leftSolid";
    object      T;
}
// * * * * * * * * * * * * * * * * * * * * * * * * * * * * * * * * * * * * * //

dimensions      [0 0 0 1 0 0 0];


internalField   nonuniform List<scalar> 
130
(
928.7877
928.77275
928.74012
928.68255
928.59069
928.45141
928.26723
928.04617
927.7935
927.51418
927.2158
926.90717
926.69174
928.73754
928.72906
928.70054
928.64333
928.54686
928.39807
928.20068
927.96316
927.69017
927.38557
927.05424
926.69506
926.44173
928.64736
928.63956
928.60924
928.5462
928.43821
928.27166
928.05938
927.8056
927.50949
927.17278
926.80227
926.4124
926.12794
928.49952
928.48748
928.45051
928.37825
928.25717
928.08889
927.86676
927.58968
927.25811
926.87481
926.44627
926.08232
925.85363
928.33758
928.31885
928.27208
928.18976
928.05968
927.875
927.62795
927.31439
926.93225
926.47681
926.07565
925.74874
925.5271
928.1835
928.15907
928.10227
928.00572
927.85547
927.64165
927.35743
926.99448
926.56571
926.14885
925.77126
925.43985
925.21361
928.06582
928.03318
927.96168
927.84073
927.65811
927.39653
927.0664
926.70659
926.33644
925.97319
925.62521
925.30622
925.10484
927.97995
927.94223
927.86014
927.72403
927.52151
927.23589
926.915
926.5816
926.24637
925.91976
925.60669
925.30906
925.12209
927.92388
927.88665
927.80392
927.66826
927.46963
927.20046
926.88991
926.57069
926.25597
925.95763
925.67253
925.40894
925.25269
927.89135
927.8563
927.77958
927.65273
927.46566
927.21486
926.90881
926.60014
926.29238
926.008
925.75028
925.53023
925.39746
)
;

boundaryField
{
    minX
    {
        type            zeroGradient;
    }
    minZ
    {
        type            zeroGradient;
    }
    maxZ
    {
        type            zeroGradient;
    }
    leftSolid_to_bottomWater
    {
        type            compressible::turbulentTemperatureCoupledBaffleMixed;
        refValue        nonuniform List<scalar> 
130
(
969.88719
968.85734
968.49382
968.63963
968.99527
967.92181
966.36698
965.34414
964.58222
963.82462
963.265
954.07292
944.96029
968.49328
968.83619
969.00017
969.36609
969.59098
968.41883
966.4805
965.03906
963.82169
962.55969
962.01859
948.19663
934.66003
968.68105
969.15329
969.11028
969.01797
968.84233
965.87861
964.31738
963.81979
963.29945
962.44997
960.73181
944.7159
924.51369
966.50722
966.68829
966.57723
966.55056
964.67678
964.74307
964.52794
964.20106
963.8004
963.38009
947.8595
939.36081
932.56977
965.65311
965.35919
964.90685
964.88562
964.60937
964.6522
964.51627
964.39857
964.1599
946.83029
944.18648
941.94221
931.49856
964.82026
964.52704
964.23176
964.68472
964.74312
964.81834
964.70517
960.0019
947.95355
944.55421
942.93188
935.90529
925.80611
965.49373
964.8689
964.64982
964.3104
964.19379
960.81314
953.36088
949.90599
949.14058
948.95686
947.28786
938.50366
932.05485
965.43211
964.82272
964.37933
963.95768
963.55689
956.12508
952.49194
951.1027
950.25589
949.83445
949.40144
938.84887
931.58115
964.95095
964.71088
964.30612
964.16127
963.82366
959.81098
955.3668
953.26897
952.1409
952.50631
950.70114
940.74394
936.315
964.02396
963.90046
964.23206
964.83886
964.80111
963.57511
956.99573
955.97365
953.23272
952.55703
951.5075
947.08691
943.54449
)
;
        refGradient     uniform 0;
        valueFraction   nonuniform List<scalar> 
130
(
0.0075140686
0.0075140686
0.0075140686
0.0075140686
0.0075140686
0.0075140686
0.0075140686
0.0075140686
0.0075140686
0.0075140686
0.0075140686
0.0075140686
0.0075140686
0.0075140686
0.0075140686
0.0075140686
0.0075140686
0.0075140686
0.0075140686
0.0075140686
0.0075140686
0.0075140686
0.0075140686
0.0075140686
0.0075140686
0.0075140686
0.0075140686
0.0075140686
0.0075140686
0.0075140686
0.0075140686
0.0075140686
0.0075140686
0.0075140686
0.0075140686
0.0075140686
0.0075140686
0.0075140686
0.0075140686
0.0075140686
0.0075140686
0.0075140686
0.0075140686
0.0075140686
0.0075140686
0.0075140686
0.0075140686
0.0075140686
0.0075140686
0.0075140686
0.0075140686
0.0075140686
0.0075140686
0.0075140686
0.0075140686
0.0075140686
0.0075140686
0.0075140686
0.0075140686
0.0075140686
0.0075140686
0.0075140686
0.0075140686
0.0075140686
0.0075140686
0.0075140686
0.0075140686
0.0075140686
0.0075140686
0.0075140686
0.0075140686
0.0075140686
0.0075140686
0.0075140686
0.0075140686
0.0075140686
0.0075140686
0.0075140686
0.0075140686
0.0075140686
0.0075140686
0.0075140686
0.0075140686
0.0075140686
0.0075140686
0.0075140686
0.0075140686
0.0075140686
0.0075140686
0.0075140686
0.0075140686
0.0075140686
0.0075140686
0.0075140686
0.0075140686
0.0075140686
0.0075140686
0.0075140686
0.0075140686
0.0075140686
0.0075140686
0.0075140686
0.0075140686
0.0075140686
0.0075140686
0.0075140686
0.0075140686
0.0075140686
0.0075140686
0.0075140686
0.0075140686
0.0075140686
0.0075140686
0.0075140686
0.0075140686
0.0075140686
0.0075140686
0.0075140686
0.0075140686
0.0075140686
0.0075140686
0.0075140686
0.0075140686
0.0075140686
0.0075140686
0.0075140686
0.0075140686
0.0075140686
0.0075140686
0.0075140686
)
;
        value           nonuniform List<scalar> 
130
(
929.09572
929.07314
929.03803
928.98197
928.89348
928.74721
928.55276
928.32569
928.06921
927.78632
927.48599
927.11066
926.82832
929.03548
929.02964
929.00257
928.94854
928.85452
928.69806
928.48761
928.24105
927.96098
927.6492
927.31631
926.85594
926.50277
928.94742
928.94324
928.91284
928.84961
928.74116
928.55361
928.3312
928.07558
927.77778
927.43722
927.0566
926.54938
926.11524
928.7844
928.77382
928.73631
928.66442
928.53022
928.36372
928.14165
927.86419
927.53208
927.1485
926.60658
926.18154
925.90356
928.61728
928.59649
928.54669
928.46486
928.33371
928.15077
927.90456
927.59246
927.21137
926.62909
926.21107
925.86978
925.57136
928.4581
928.43166
928.37308
928.28069
928.13204
927.92042
927.63751
927.24196
926.72581
926.28648
925.89953
925.51781
925.21723
928.34637
928.30929
928.23669
928.11411
927.932
927.64701
927.26339
926.8803
926.50712
926.14515
925.7872
925.40455
925.15618
928.26073
928.21871
928.1339
927.99564
927.79164
927.45233
927.10658
926.76524
926.42613
926.09877
925.78479
925.41011
925.16992
928.20151
928.16275
928.07759
927.94185
927.74216
927.44487
927.10329
926.77072
926.44986
926.1565
925.86
925.52362
925.33532
928.16228
928.12655
928.05288
927.93153
927.74557
927.48746
927.13431
926.82029
926.49424
926.20692
925.94328
925.69173
925.53337
)
;
        Tnbr            T;
        thicknessLayers List<scalar> 0();
        kappaLayers     List<scalar> 0();
        kappaMethod     solidThermo;
        kappa           none;
        alphaAni        none;
        alpha           none;
        field           T;
    }
    leftSolid_to_heater
    {
        type            compressible::turbulentTemperatureCoupledBaffleMixed;
        refValue        nonuniform List<scalar> 10(730.24716 720.76525 701.00099 669.0804 622.61366 622.71304 669.49389 701.44472 721.06747 730.38852);
        refGradient     uniform 0;
        valueFraction   nonuniform List<scalar> 10(2.08329e-05 2.08329e-05 2.08329e-05 2.08329e-05 2.08329e-05 2.08329e-05 2.08329e-05 2.08329e-05 2.08329e-05 2.08329e-05);
        value           nonuniform List<scalar> 10(926.68695 926.43673 926.12268 925.84774 925.52018 925.20647 925.09862 925.11672 925.24794 925.39294);
        Tnbr            T;
        thicknessLayers List<scalar> 1(0.001);
        kappaLayers     List<scalar> 1(0.0005);
        kappaMethod     solidThermo;
        kappa           none;
        alphaAni        none;
        alpha           none;
        field           T;
    }
    leftSolid_to_topAir
    {
        type            compressible::turbulentTemperatureCoupledBaffleMixed;
        refValue        nonuniform List<scalar> 
130
(
325.55483
349.17926
370.56189
390.32198
408.9722
426.81214
443.93567
460.17372
475.23291
489.06664
501.53765
512.39204
521.07371
325.54632
348.91445
369.79704
388.81322
406.43866
422.91416
438.28824
452.48591
465.28176
476.30189
485.02662
490.83922
492.93015
325.53926
348.94594
369.88587
388.97581
406.69828
423.3083
438.91889
453.54472
467.1014
479.37696
489.97334
498.21632
502.87739
325.53301
348.94922
369.92227
389.07594
406.91258
423.72337
439.66944
454.83899
469.25605
482.851
495.37079
506.18856
514.00259
325.52555
348.93953
369.91602
389.07803
406.92893
423.76186
439.73674
454.93768
469.37281
482.92269
495.20563
505.33951
511.99212
325.51932
348.92731
369.89779
389.05338
406.89681
423.71978
439.68043
454.85769
469.25258
482.72325
494.82166
504.57135
510.80096
325.51544
348.91468
369.87052
389.00541
406.82049
423.60499
439.51692
454.64009
468.98558
482.46223
494.76621
505.16949
512.33069
325.51228
348.89296
369.80685
388.86899
406.56065
423.13531
438.69905
453.27156
466.76364
478.94176
489.36911
497.30051
501.42191
325.51339
348.84992
369.70106
388.68362
406.27091
422.70314
438.03591
452.1902
464.93602
475.89929
484.54337
490.21292
492.03974
325.51858
349.10872
370.45776
390.18273
408.79489
426.59481
443.68341
459.905
474.94929
488.76966
501.22506
512.05328
520.67833
)
;
        refGradient     uniform 0;
        valueFraction   nonuniform List<scalar> 
130
(
0.00032132529
0.00032132529
0.00032132529
0.00032132529
0.00032132529
0.00032132529
0.00032132529
0.00032132529
0.00032132529
0.00032132529
0.00032132529
0.00032132529
0.00032132529
0.00032132529
0.00032132529
0.00032132529
0.00032132529
0.00032132529
0.00032132529
0.00032132529
0.00032132529
0.00032132529
0.00032132529
0.00032132529
0.00032132529
0.00032132529
0.00032132529
0.00032132529
0.00032132529
0.00032132529
0.00032132529
0.00032132529
0.00032132529
0.00032132529
0.00032132529
0.00032132529
0.00032132529
0.00032132529
0.00032132529
0.00032132529
0.00032132529
0.00032132529
0.00032132529
0.00032132529
0.00032132529
0.00032132529
0.00032132529
0.00032132529
0.00032132529
0.00032132529
0.00032132529
0.00032132529
0.00032132529
0.00032132529
0.00032132529
0.00032132529
0.00032132529
0.00032132529
0.00032132529
0.00032132529
0.00032132529
0.00032132529
0.00032132529
0.00032132529
0.00032132529
0.00032132529
0.00032132529
0.00032132529
0.00032132529
0.00032132529
0.00032132529
0.00032132529
0.00032132529
0.00032132529
0.00032132529
0.00032132529
0.00032132529
0.00032132529
0.00032132529
0.00032132529
0.00032132529
0.00032132529
0.00032132529
0.00032132529
0.00032132529
0.00032132529
0.00032132529
0.00032132529
0.00032132529
0.00032132529
0.00032132529
0.00032132529
0.00032132529
0.00032132529
0.00032132529
0.00032132529
0.00032132529
0.00032132529
0.00032132529
0.00032132529
0.00032132529
0.00032132529
0.00032132529
0.00032132529
0.00032132529
0.00032132529
0.00032132529
0.00032132529
0.00032132529
0.00032132529
0.00032132529
0.00032132529
0.00032132529
0.00032132529
0.00032132529
0.00032132529
0.00032132529
0.00032132529
0.00032132529
0.00032132529
0.00032132529
0.00032132529
0.00032132529
0.00032132529
0.00032132529
0.00032132529
0.00032132529
0.00032132529
0.00032132529
0.00032132529
)
;
        value           nonuniform List<scalar> 
130
(
928.59305
928.5857
928.55995
928.50874
928.42291
928.28943
928.11084
927.89509
927.64735
927.37259
927.07833
926.77334
926.56071
928.54293
928.54196
928.52016
928.46908
928.37834
928.23491
928.04255
927.80967
927.5409
927.23995
926.91155
926.55432
926.30172
928.45281
928.45254
928.42897
928.37212
928.26991
928.10877
927.90158
927.65257
927.36091
927.02825
926.66129
926.27425
925.99137
928.30505
928.30055
928.27035
928.2043
928.08904
927.92623
927.7093
927.43718
927.11033
926.73152
926.30716
925.94683
925.72075
928.14318
928.13199
928.092
928.01589
927.89162
927.71244
927.4706
927.16202
926.78461
926.33362
925.93653
925.613
925.39361
927.98915
927.97226
927.92223
927.8319
927.68746
927.47915
927.20017
926.84222
926.41815
926.00569
925.6321
925.30393
925.07961
927.87152
927.84641
927.78168
927.66693
927.49011
927.23403
926.90915
926.55429
926.18881
925.82994
925.48597
925.17037
924.97131
927.78572
927.75552
927.68017
927.55023
927.35347
927.07327
926.75751
926.4289
926.09807
925.77544
925.46581
925.17084
924.98524
927.72971
927.69999
927.62397
927.49444
927.30151
927.03772
926.73223
926.41767
926.10712
925.81239
925.53018
925.26855
925.11299
927.69721
927.66974
927.59988
927.4794
927.29836
927.05338
926.75296
926.44961
926.14678
925.86693
925.61332
925.39688
925.26696
)
;
        Tnbr            T;
        thicknessLayers List<scalar> 0();
        kappaLayers     List<scalar> 0();
        kappaMethod     solidThermo;
        kappa           none;
        alphaAni        none;
        alpha           none;
        field           T;
    }
}


// ************************************************************************* //
