/*--------------------------------*- C++ -*----------------------------------*\
| =========                 |                                                 |
| \\      /  F ield         | OpenFOAM: The Open Source CFD Toolbox           |
|  \\    /   O peration     | Version:  v2012                                 |
|   \\  /    A nd           | Website:  www.openfoam.com                      |
|    \\/     M anipulation  |                                                 |
\*---------------------------------------------------------------------------*/
FoamFile
{
    version     2.0;
    format      ascii;
    class       volScalarField;
    location    "280/rightSolid";
    object      T;
}
// * * * * * * * * * * * * * * * * * * * * * * * * * * * * * * * * * * * * * //

dimensions      [0 0 0 1 0 0 0];


internalField   nonuniform List<scalar> 
130
(
725.7803
733.15608
740.83278
748.42292
755.607
762.19474
768.0727
773.18359
777.46819
780.88915
783.45085
785.15998
786.0151
720.43374
729.04413
737.80397
746.26332
754.09964
761.15249
767.34681
772.66129
777.08741
780.60412
783.22669
784.97208
785.84482
709.63088
721.07961
732.15516
742.35187
751.43595
759.34632
766.10975
771.77949
776.42717
780.09895
782.81592
784.61061
785.50838
693.4378
710.26824
725.09576
737.78387
748.45371
757.37377
764.77854
770.84998
775.73933
779.55811
782.36885
784.22182
785.14805
674.2513
699.95451
719.2163
734.24262
746.22897
755.91534
763.7737
770.11848
775.16878
779.08516
781.96226
783.85451
784.79586
674.05622
699.74353
718.98994
733.98447
745.95222
755.62387
763.47039
769.80969
774.85593
778.76663
781.64627
783.54469
784.48949
692.81291
709.64538
724.42709
737.02737
747.64605
756.53477
763.91455
769.9727
774.83717
778.62585
781.43071
783.28854
784.21464
708.76108
720.10311
731.06949
741.15439
750.15789
758.02666
764.7546
770.39024
774.99134
778.60691
781.28205
783.05332
783.9415
719.42801
727.87317
736.46867
744.76626
752.48682
759.47314
765.61595
770.87502
775.23236
778.68528
781.25302
782.95203
783.79789
724.7053
731.89949
739.39624
746.81138
753.85913
760.34752
766.15379
771.18926
775.40083
778.75602
781.25971
782.91805
783.742
)
;

boundaryField
{
    maxX
    {
        type            zeroGradient;
    }
    minZ
    {
        type            zeroGradient;
    }
    maxZ
    {
        type            zeroGradient;
    }
    rightSolid_to_bottomWater
    {
        type            compressible::turbulentTemperatureCoupledBaffleMixed;
        refValue        nonuniform List<scalar> 
130
(
956.02307
957.13957
958.26725
961.92533
962.07587
962.05501
962.09009
965.91714
969.79836
970.36955
970.99827
971.88856
972.15083
955.62661
957.379
959.34277
964.12036
964.53535
964.53513
964.24483
965.81325
971.05332
972.53292
973.31069
974.52463
974.97563
952.04412
954.60309
956.22925
959.77339
963.38762
965.09071
966.2397
965.25334
966.52893
970.56843
971.55295
971.16715
971.76193
947.94604
953.18301
955.64603
966.64394
966.10635
965.70957
966.23797
965.63317
965.64828
967.92732
968.46552
968.76003
970.17593
949.41587
957.95049
959.53012
964.37862
964.99981
965.10485
964.7911
963.97425
962.68608
964.45008
966.09244
966.7308
967.27999
950.39248
957.6857
960.54777
961.8925
963.39801
962.87327
961.49746
960.50827
959.5591
960.44039
963.16957
965.06169
966.12917
938.75301
956.71006
959.43022
960.63448
960.96194
960.8212
959.82811
961.22605
959.72322
958.54734
961.45872
964.20695
965.37853
948.18542
947.77773
949.11467
950.33936
952.90098
957.52586
958.48742
957.93182
957.75808
957.34481
956.20126
955.64127
957.04352
952.84948
950.29953
950.40302
949.51067
948.87882
952.31151
953.67939
955.64323
956.72408
956.25366
955.81538
954.72677
953.70074
951.59112
949.69817
949.65227
949.41761
948.83955
948.65421
951.13664
953.53824
955.61847
955.05096
954.67027
953.70404
952.38023
)
;
        refGradient     uniform 0;
        valueFraction   nonuniform List<scalar> 
130
(
0.0075140686
0.0075140686
0.0075140686
0.0075140686
0.0075140686
0.0075140686
0.0075140686
0.0075140686
0.0075140686
0.0075140686
0.0075140686
0.0075140686
0.0075140686
0.0075140686
0.0075140686
0.0075140686
0.0075140686
0.0075140686
0.0075140686
0.0075140686
0.0075140686
0.0075140686
0.0075140686
0.0075140686
0.0075140686
0.0075140686
0.0075140686
0.0075140686
0.0075140686
0.0075140686
0.0075140686
0.0075140686
0.0075140686
0.0075140686
0.0075140686
0.0075140686
0.0075140686
0.0075140686
0.0075140686
0.0075140686
0.0075140686
0.0075140686
0.0075140686
0.0075140686
0.0075140686
0.0075140686
0.0075140686
0.0075140686
0.0075140686
0.0075140686
0.0075140686
0.0075140686
0.0075140686
0.0075140686
0.0075140686
0.0075140686
0.0075140686
0.0075140686
0.0075140686
0.0075140686
0.0075140686
0.0075140686
0.0075140686
0.0075140686
0.0075140686
0.0075140686
0.0075140686
0.0075140686
0.0075140686
0.0075140686
0.0075140686
0.0075140686
0.0075140686
0.0075140686
0.0075140686
0.0075140686
0.0075140686
0.0075140686
0.0075140686
0.0075140686
0.0075140686
0.0075140686
0.0075140686
0.0075140686
0.0075140686
0.0075140686
0.0075140686
0.0075140686
0.0075140686
0.0075140686
0.0075140686
0.0075140686
0.0075140686
0.0075140686
0.0075140686
0.0075140686
0.0075140686
0.0075140686
0.0075140686
0.0075140686
0.0075140686
0.0075140686
0.0075140686
0.0075140686
0.0075140686
0.0075140686
0.0075140686
0.0075140686
0.0075140686
0.0075140686
0.0075140686
0.0075140686
0.0075140686
0.0075140686
0.0075140686
0.0075140686
0.0075140686
0.0075140686
0.0075140686
0.0075140686
0.0075140686
0.0075140686
0.0075140686
0.0075140686
0.0075140686
0.0075140686
0.0075140686
0.0075140686
0.0075140686
0.0075140686
)
;
        value           nonuniform List<scalar> 
130
(
727.50564
734.83425
742.46161
750.02206
757.15314
763.69108
769.52501
774.62614
778.90757
782.30701
784.85409
786.55701
787.40765
722.19637
730.75507
739.4637
747.89524
755.67563
762.67534
768.82079
774.107
778.53908
782.04035
784.64897
786.39032
787.25987
711.44792
722.82967
733.83403
743.98057
753.02337
760.88693
767.60802
773.22761
777.84982
781.52421
784.22807
786.00632
786.90179
695.34591
712.08897
726.82336
739.49856
750.08401
758.93389
766.28684
772.30796
777.16054
780.96759
783.76116
785.60236
786.53224
676.31478
701.88859
721.01726
735.96688
747.86766
757.48188
765.2787
771.56953
776.57207
780.47209
783.33983
785.22261
786.16099
676.1285
701.67719
720.80025
735.69201
747.58097
757.17585
764.95296
771.2371
776.23819
780.12599
783.00441
784.90272
785.84843
694.65657
711.49715
726.18806
738.70256
749.24376
758.06453
765.3813
771.40435
776.22089
779.97216
782.77773
784.6422
785.57012
710.55566
721.80916
732.70299
742.72115
751.6761
759.52039
766.20489
771.79394
776.35912
779.94437
782.59076
784.34449
785.23651
721.17742
729.5398
738.07133
746.2997
753.95735
760.91682
767.02363
772.25784
776.59052
780.01392
782.55904
784.23709
785.06888
726.40557
733.53137
740.97131
748.32881
755.3191
761.75716
767.53831
772.55387
776.74937
780.07504
782.55702
784.19562
785.00343
)
;
        Tnbr            T;
        thicknessLayers List<scalar> 0();
        kappaLayers     List<scalar> 0();
        kappaMethod     solidThermo;
        kappa           none;
        alphaAni        none;
        alpha           none;
        field           T;
    }
    rightSolid_to_topAir
    {
        type            compressible::turbulentTemperatureCoupledBaffleMixed;
        refValue        nonuniform List<scalar> 
130
(
477.28512
472.21646
467.53827
463.56639
460.41569
458.10122
456.61218
455.94657
456.13145
457.26338
459.59365
463.69909
470.39383
430.93768
425.92798
422.53699
420.29176
418.80317
417.87783
417.4964
417.72296
418.65672
420.48198
423.64884
429.2701
438.57957
436.10418
427.16024
419.63026
413.52958
408.76368
405.31976
403.2615
402.62256
403.33935
405.32186
408.68083
414.50635
426.43588
481.16101
482.44339
483.19537
482.97071
481.67109
479.5619
477.03314
474.40396
472.20997
471.96414
475.85658
482.47018
491.96133
483.99765
488.38732
493.02184
497.63129
501.96175
505.7965
508.98271
511.46503
513.35776
515.11152
517.62771
522.20773
530.63876
481.03322
485.5557
490.24221
494.83609
499.09435
502.79119
505.74972
507.87226
509.22771
510.26583
511.97757
515.78722
523.27032
477.65242
477.96699
477.97011
477.17694
475.4492
472.87948
469.78543
466.49854
463.45175
461.94688
464.51317
473.43699
483.12114
435.33448
426.20797
418.69753
412.80803
408.38687
405.30639
403.52006
402.99807
403.66801
405.45284
408.4316
413.52111
424.79456
431.17659
426.02548
422.51549
420.22656
418.77924
417.9538
417.68804
418.01138
419.00406
420.84483
423.99303
429.50692
438.17844
477.15252
472.01642
467.25543
463.2072
460.00159
457.65467
456.14339
455.44826
455.58179
456.63089
458.84122
462.76408
469.1204
)
;
        refGradient     uniform 0;
        valueFraction   nonuniform List<scalar> 
130
(
0.00032132529
0.00032132529
0.00032132529
0.00032132529
0.00032132529
0.00032132529
0.00032132529
0.00032132529
0.00032132529
0.00032132529
0.00032132529
0.00032132529
0.00032132529
0.00032132529
0.00032132529
0.00032132529
0.00032132529
0.00032132529
0.00032132529
0.00032132529
0.00032132529
0.00032132529
0.00032132529
0.00032132529
0.00032132529
0.00032132529
0.00032132529
0.00032132529
0.00032132529
0.00032132529
0.00032132529
0.00032132529
0.00032132529
0.00032132529
0.00032132529
0.00032132529
0.00032132529
0.00032132529
0.00032132529
0.00032132529
0.00032132529
0.00032132529
0.00032132529
0.00032132529
0.00032132529
0.00032132529
0.00032132529
0.00032132529
0.00032132529
0.00032132529
0.00032132529
0.00032132529
0.00032132529
0.00032132529
0.00032132529
0.00032132529
0.00032132529
0.00032132529
0.00032132529
0.00032132529
0.00032132529
0.00032132529
0.00032132529
0.00032132529
0.00032132529
0.00032132529
0.00032132529
0.00032132529
0.00032132529
0.00032132529
0.00032132529
0.00032132529
0.00032132529
0.00032132529
0.00032132529
0.00032132529
0.00032132529
0.00032132529
0.00032132529
0.00032132529
0.00032132529
0.00032132529
0.00032132529
0.00032132529
0.00032132529
0.00032132529
0.00032132529
0.00032132529
0.00032132529
0.00032132529
0.00032132529
0.00032132529
0.00032132529
0.00032132529
0.00032132529
0.00032132529
0.00032132529
0.00032132529
0.00032132529
0.00032132529
0.00032132529
0.00032132529
0.00032132529
0.00032132529
0.00032132529
0.00032132529
0.00032132529
0.00032132529
0.00032132529
0.00032132529
0.00032132529
0.00032132529
0.00032132529
0.00032132529
0.00032132529
0.00032132529
0.00032132529
0.00032132529
0.00032132529
0.00032132529
0.00032132529
0.00032132529
0.00032132529
0.00032132529
0.00032132529
0.00032132529
0.00032132529
0.00032132529
0.00032132529
0.00032132529
)
;
        value           nonuniform List<scalar> 
130
(
725.6957
733.06735
740.73994
748.32621
755.50683
762.09156
767.96703
773.07595
777.35909
780.7792
783.34073
785.05058
785.90756
720.33606
728.94191
737.6977
746.15347
753.98663
761.03677
767.22883
772.54155
776.96639
780.48242
783.10508
784.85167
785.7271
709.53848
720.98048
732.04986
742.24116
751.32061
759.22716
765.98759
771.65517
776.30146
779.97255
782.68963
784.48555
785.38685
693.36527
710.19045
725.01323
737.69698
748.36279
757.27914
764.68056
770.74905
775.63598
779.45329
782.26428
784.11872
785.04767
674.18601
699.88198
719.13881
734.16156
746.14527
755.82961
763.68633
770.02973
775.07888
778.99438
781.87129
783.76434
784.70808
673.99004
699.67014
718.91163
733.90262
745.86771
755.53729
763.38212
769.71997
774.76492
778.67456
781.55373
783.45271
784.39959
692.73939
709.56621
724.343
736.93883
747.55339
756.43832
763.81464
769.8697
774.73155
778.51842
781.32311
783.18316
784.11205
708.66872
720.00393
730.96418
741.04378
750.04281
757.90796
764.63306
770.26665
774.86644
778.48137
781.15656
782.92887
783.82037
719.33082
727.77145
736.3629
744.65692
752.37438
759.35804
765.49867
770.75605
775.11228
778.56464
781.13253
782.83275
783.68112
724.62115
731.81127
739.30395
746.71524
753.75954
760.24491
766.04868
771.08219
775.29239
778.6468
781.15036
782.80941
783.63514
)
;
        Tnbr            T;
        thicknessLayers List<scalar> 0();
        kappaLayers     List<scalar> 0();
        kappaMethod     solidThermo;
        kappa           none;
        alphaAni        none;
        alpha           none;
        field           T;
    }
    rightSolid_to_heater
    {
        type            compressible::turbulentTemperatureCoupledBaffleMixed;
        refValue        nonuniform List<scalar> 10(719.16475 712.58649 698.8103 675.99103 637.91156 637.74046 675.38207 698.03011 711.72054 718.2529);
        refGradient     uniform 0;
        valueFraction   nonuniform List<scalar> 10(0.50000003 0.50000003 0.50000003 0.50000003 0.50000003 0.50000003 0.50000003 0.50000003 0.50000003 0.50000003);
        value           nonuniform List<scalar> 10(722.47015 716.50778 704.21834 684.71225 656.07935 655.89626 684.0953 703.39334 715.57199 721.4768);
        Tnbr            T;
        thicknessLayers List<scalar> 0();
        kappaLayers     List<scalar> 0();
        kappaMethod     solidThermo;
        kappa           none;
        alphaAni        none;
        alpha           none;
        field           T;
    }
}


// ************************************************************************* //
