/*--------------------------------*- C++ -*----------------------------------*\
| =========                 |                                                 |
| \\      /  F ield         | OpenFOAM: The Open Source CFD Toolbox           |
|  \\    /   O peration     | Version:  v2012                                 |
|   \\  /    A nd           | Website:  www.openfoam.com                      |
|    \\/     M anipulation  |                                                 |
\*---------------------------------------------------------------------------*/
FoamFile
{
    version     2.0;
    format      ascii;
    class       volScalarField;
    location    "440/heater";
    object      T;
}
// * * * * * * * * * * * * * * * * * * * * * * * * * * * * * * * * * * * * * //

dimensions      [0 0 0 1 0 0 0];


internalField   nonuniform List<scalar> 
80
(
733.55405
735.63517
739.71054
745.52183
724.09987
726.54782
731.37427
738.29224
704.20655
707.38837
713.79807
723.23744
671.88756
675.89559
684.51018
698.37877
345.73342
342.95656
342.96814
345.68421
422.55041
419.17262
419.36995
422.94509
488.04977
485.28013
485.9975
489.74616
543.7169
542.06507
544.00498
548.51113
589.72823
589.99786
594.66427
602.27069
624.83675
628.49082
638.00668
657.16058
345.65956
342.9138
342.946
345.66681
422.4491
419.10147
419.32821
422.91317
487.99829
485.21908
485.95062
489.70353
543.65509
542.00391
543.94476
548.45157
589.635
589.91844
594.58322
602.19353
624.6543
628.31122
637.82531
656.9758
671.2345
675.25137
683.85791
697.72825
703.15148
706.34984
712.76546
722.22569
722.799
725.25487
730.088
737.04934
732.18295
734.27274
738.32834
744.15582
)
;

boundaryField
{
    minY
    {
        type            fixedValue;
        value           uniform 300;
    }
    minZ
    {
        type            zeroGradient;
    }
    maxZ
    {
        type            zeroGradient;
    }
    heater_to_topAir
    {
        type            compressible::turbulentTemperatureCoupledBaffleMixed;
        refValue        nonuniform List<scalar> 
40
(
509.90803
508.16775
504.05337
498.18151
476.35906
466.43201
455.29166
445.04223
486.75861
477.72648
467.27965
456.9326
500.71129
497.96482
497.23843
498.4988
497.7087
495.49538
496.4574
499.00633
497.68098
494.11541
493.65583
495.84716
500.24719
495.9292
493.28543
492.68761
486.50305
476.53698
464.81953
453.41493
476.23658
466.19513
455.0002
444.72178
510.0322
508.07993
503.72181
497.6085
)
;
        refGradient     uniform 0;
        valueFraction   nonuniform List<scalar> 
40
(
0.00032132529
0.00032132529
0.00032132529
0.00032132529
0.00032132529
0.00032132529
0.00032132529
0.00032132529
0.00032132529
0.00032132529
0.00032132529
0.00032132529
0.00032132529
0.00032132529
0.00032132529
0.00032132529
0.00032132529
0.00032132529
0.00032132529
0.00032132529
0.00032132529
0.00032132529
0.00032132529
0.00032132529
0.00032132529
0.00032132529
0.00032132529
0.00032132529
0.00032132529
0.00032132529
0.00032132529
0.00032132529
0.00032132529
0.00032132529
0.00032132529
0.00032132529
0.00032132529
0.00032132529
0.00032132529
0.00032132529
)
;
        value           nonuniform List<scalar> 
40
(
733.48151
735.56143
739.63425
745.44184
724.01953
726.46359
731.28503
738.19754
704.13608
707.31409
713.71844
723.15146
671.83213
675.838
684.44957
698.31414
624.79553
628.4477
637.96079
657.10933
624.61302
628.2676
637.77846
656.92344
671.17884
675.19304
683.79597
697.66165
703.08119
706.27529
712.68508
722.13858
722.71914
725.17094
729.99887
736.95461
732.11088
734.19934
738.2522
744.07578
)
;
        Tnbr            T;
        thicknessLayers List<scalar> 0();
        kappaLayers     List<scalar> 0();
        kappaMethod     solidThermo;
        kappa           none;
        alphaAni        none;
        alpha           none;
        field           T;
    }
    heater_to_rightSolid
    {
        type            compressible::turbulentTemperatureCoupledBaffleMixed;
        refValue        nonuniform List<scalar> 10(752.66375 746.78827 734.97301 717.25864 696.33241 696.13862 716.62875 734.00281 745.60956 751.36007);
        refGradient     uniform 0;
        valueFraction   nonuniform List<scalar> 10(0.49999997 0.49999997 0.49999997 0.49999997 0.49999997 0.49999997 0.49999997 0.49999997 0.49999997 0.49999997);
        value           nonuniform List<scalar> 10(749.09254 742.54002 729.10502 707.81851 676.74628 676.55692 707.17814 728.11388 741.32905 747.75753);
        Tnbr            T;
        thicknessLayers List<scalar> 0();
        kappaLayers     List<scalar> 0();
        kappaMethod     solidThermo;
        kappa           none;
        alphaAni        none;
        alpha           none;
        field           T;
    }
    heater_to_leftSolid
    {
        type            compressible::turbulentTemperatureCoupledBaffleMixed;
        refValue        nonuniform List<scalar> 10(891.94048 891.83594 891.61806 891.24503 890.89291 890.78936 890.96766 891.37277 891.75195 891.93238);
        refGradient     uniform 0;
        valueFraction   nonuniform List<scalar> 10(2.0832898e-05 2.0832898e-05 2.0832898e-05 2.0832898e-05 2.0832898e-05 2.0832898e-05 2.0832898e-05 2.0832898e-05 2.0832898e-05 2.0832898e-05);
        value           nonuniform List<scalar> 10(733.55667 724.10263 704.20986 671.89171 624.84192 624.65936 671.23836 703.15472 722.80188 732.18559);
        Tnbr            T;
        thicknessLayers List<scalar> 1(0.001);
        kappaLayers     List<scalar> 1(0.0005);
        kappaMethod     solidThermo;
        kappa           none;
        alphaAni        none;
        alpha           none;
        field           T;
    }
    heater_to_bottomWater
    {
        type            compressible::turbulentTemperatureCoupledBaffleMixed;
        refValue        nonuniform List<scalar> 
92
(
955.88115
951.03281
946.98038
944.152
955.00061
948.24851
944.16152
939.82789
945.98313
940.33942
939.06415
938.15891
942.61505
938.29878
932.41066
927.04229
944.04427
942.14758
935.33629
930.96402
932.96196
939.45281
935.26054
931.47382
932.25733
934.75055
934.27331
933.37315
928.00545
928.00545
925.99012
925.99012
928.75505
928.75505
929.50928
929.50928
945.06197
920.6382
941.88014
920.18086
929.88291
917.14751
931.41504
913.09401
931.14148
916.27583
941.0222
923.97018
927.33322
928.39245
918.71268
927.6041
939.08354
925.34182
928.40839
930.20955
919.52246
928.30443
934.87073
926.75756
929.43356
930.81927
916.56383
927.24981
930.7529
927.90855
929.03251
927.39827
914.00215
925.01852
928.58263
927.89049
928.34677
927.44885
919.00892
927.5075
927.89049
928.34677
927.44885
927.5075
937.8677
937.67105
935.53089
934.54447
943.96129
939.92699
935.78752
936.80993
950.7095
950.37997
940.78065
937.5589
)
;
        refGradient     uniform 0;
        valueFraction   nonuniform List<scalar> 
92
(
0.0075140686
0.0075140686
0.0075140686
0.0075140686
0.0075140686
0.0075140686
0.0075140686
0.0075140686
0.0075140686
0.0075140686
0.0075140686
0.0075140686
0.0075140686
0.0075140686
0.0075140686
0.0075140686
0.0075140686
0.0075140686
0.0075140686
0.0075140686
0.0075140686
0.0075140686
0.0075140686
0.0075140686
0.0075140686
0.0075140686
0.0075140686
0.0075140686
0.0075140686
0.0075140686
0.0075140686
0.0075140686
0.0075140686
0.0075140686
0.0075140686
0.0075140686
0.0075140679
0.0075140679
0.0075140679
0.0075140679
0.0075140679
0.0075140679
0.0075140679
0.0075140679
0.0075140679
0.0075140679
0.0075140679
0.0075140686
0.0075140686
0.0075140686
0.0075140679
0.0075140686
0.0075140679
0.0075140686
0.0075140686
0.0075140686
0.0075140679
0.0075140686
0.0075140679
0.0075140686
0.0075140686
0.0075140686
0.0075140679
0.0075140686
0.0075140679
0.0075140686
0.0075140686
0.0075140686
0.0075140679
0.0075140686
0.0075140679
0.0075140686
0.0075140686
0.0075140686
0.0075140679
0.0075140686
0.0075140686
0.0075140686
0.0075140686
0.0075140686
0.0075140686
0.0075140686
0.0075140686
0.0075140686
0.0075140686
0.0075140686
0.0075140686
0.0075140686
0.0075140686
0.0075140686
0.0075140686
0.0075140686
)
;
        value           nonuniform List<scalar> 
92
(
735.22396
737.25304
741.26741
747.01384
725.83415
728.21305
732.97265
739.80613
706.02268
709.1383
715.49032
724.85197
350.21836
347.42993
347.39718
350.05256
426.46892
423.10218
423.24685
426.7623
491.39293
488.69269
489.37313
493.06517
546.63619
545.01548
546.9372
551.40275
673.81163
592.26977
677.7744
592.52221
686.34502
597.17431
700.1151
604.72927
350.23675
350.00444
426.45266
426.68127
491.36979
492.95752
546.62986
551.25037
592.29333
604.62983
350.13311
350.00498
347.30513
347.34506
349.9727
350.03951
426.33103
426.22778
422.92835
423.16693
426.64468
426.71067
491.35599
491.29503
488.55679
489.29325
492.91087
492.99117
546.56351
546.54214
544.91178
546.82576
551.19801
551.28079
592.18145
592.17625
592.461
597.08396
604.57358
604.63744
673.16232
677.15244
685.68757
699.45411
704.91448
708.0873
714.43863
723.82034
724.4602
726.86725
731.63291
738.54957
733.82429
735.89587
739.84883
745.60825
)
;
        Tnbr            T;
        thicknessLayers List<scalar> 0();
        kappaLayers     List<scalar> 0();
        kappaMethod     solidThermo;
        kappa           none;
        alphaAni        none;
        alpha           none;
        field           T;
    }
}


// ************************************************************************* //
