/*--------------------------------*- C++ -*----------------------------------*\
| =========                 |                                                 |
| \\      /  F ield         | OpenFOAM: The Open Source CFD Toolbox           |
|  \\    /   O peration     | Version:  v2012                                 |
|   \\  /    A nd           | Website:  www.openfoam.com                      |
|    \\/     M anipulation  |                                                 |
\*---------------------------------------------------------------------------*/
FoamFile
{
    version     2.0;
    format      ascii;
    class       surfaceScalarField;
    location    "190/topAir";
    object      phi;
}
// * * * * * * * * * * * * * * * * * * * * * * * * * * * * * * * * * * * * * //

dimensions      [1 0 -1 0 0 0 0];
oriented        oriented;


internalField   nonuniform List<scalar> 
3140
(
9.4400222e-06
-2.4488909e-07
7.400516e-08
9.5882732e-06
-2.3548728e-07
8.7396396e-08
9.7385602e-06
-2.303047e-07
8.0190343e-08
9.8644695e-06
-1.912512e-07
6.5547535e-08
9.9587096e-06
-1.399293e-07
4.5892265e-08
1.0027665e-05
-8.9373204e-08
2.060375e-08
1.0085668e-05
-4.393203e-08
-1.3889392e-08
1.0164732e-05
-8.3316442e-09
-7.0602166e-08
1.0267819e-05
4.4399085e-08
-1.4724939e-07
1.0411913e-05
1.1277821e-07
-2.5654504e-07
1.0604084e-05
2.1884937e-07
-4.1063173e-07
1.0826566e-05
4.0101912e-07
-6.2305445e-07
1.1034841e-05
6.9578902e-07
-9.0354366e-07
1.1207429e-05
1.0860776e-06
-1.258047e-06
1.1308761e-05
1.5639144e-06
-1.664503e-06
1.1339604e-05
2.0592531e-06
-2.0892189e-06
1.1327346e-05
2.5057023e-06
-2.4924599e-06
1.1300877e-05
2.8669858e-06
-2.8394779e-06
1.1272637e-05
3.1391715e-06
-3.1098984e-06
1.1247474e-05
3.3277462e-06
-3.3015999e-06
1.1235852e-05
3.4374584e-06
-3.424923e-06
1.1251426e-05
3.4775384e-06
-3.4922777e-06
1.1302677e-05
3.4618976e-06
-3.512388e-06
1.1385887e-05
3.406324e-06
-3.4888331e-06
1.1479537e-05
3.3274104e-06
-3.420386e-06
1.1536215e-05
3.2445965e-06
-3.3005796e-06
1.1463262e-05
3.1888229e-06
-3.1150936e-06
1.1075974e-05
3.2241176e-06
-2.8359536e-06
9.9965412e-06
3.4920739e-06
-2.4117195e-06
4.3478541e-06
-1.7790106e-06
9.1371962e-06
-1.932405e-07
8.0125697e-08
9.0911551e-06
-2.9475905e-07
1.0531516e-07
9.0661352e-06
-3.1802712e-07
1.1274825e-07
9.0765886e-06
-3.1816659e-07
1.1647351e-07
9.1219203e-06
-3.0179163e-07
1.1654743e-07
9.1967556e-06
-2.7578297e-07
1.1159652e-07
9.3015698e-06
-2.4924903e-07
1.0053072e-07
9.444068e-06
-2.3175903e-07
8.0958177e-08
9.6484322e-06
-2.0977482e-07
4.9585476e-08
9.9275721e-06
-1.707328e-07
3.9649978e-09
1.0317795e-05
-8.4672843e-08
-8.7273594e-08
1.0827191e-05
1.1246609e-07
-2.2152967e-07
1.1414093e-05
5.2728201e-07
-4.1919162e-07
1.1971631e-05
1.2172717e-06
-6.8949727e-07
1.2413199e-05
2.1407543e-06
-1.0190495e-06
1.2695703e-05
3.141693e-06
-1.3654181e-06
1.2842366e-05
4.0357644e-06
-1.6770621e-06
1.289499e-05
4.7317402e-06
-1.9176303e-06
1.2876141e-05
5.2384951e-06
-2.0806572e-06
1.2812785e-05
5.5793726e-06
-2.1884226e-06
1.274028e-05
5.773382e-06
-2.26357e-06
1.268519e-05
5.8431399e-06
-2.3106534e-06
1.2659397e-05
5.8137319e-06
-2.3261575e-06
1.2657931e-05
5.7093058e-06
-2.3015752e-06
1.2656759e-05
5.5514808e-06
-2.2228657e-06
1.2608116e-05
5.3622607e-06
-2.0688549e-06
1.2419005e-05
5.183461e-06
-1.8052374e-06
1.1912559e-05
5.107013e-06
-1.3761418e-06
1.0808189e-05
5.3181543e-06
-7.2157101e-07
6.0473017e-06
1.6452947e-07
9.1893274e-06
-1.9553867e-07
8.1930092e-08
9.0438849e-06
-2.581544e-07
1.088377e-07
8.8781496e-06
-2.7102407e-07
1.1873221e-07
8.7054524e-06
-2.716998e-07
1.2623082e-07
8.5362838e-06
-2.65395e-07
1.3277262e-07
8.3760405e-06
-2.5368436e-07
1.3814617e-07
8.2244975e-06
-2.4085447e-07
1.4315048e-07
8.0748338e-06
-2.313675e-07
1.4927513e-07
7.9331272e-06
-2.2778704e-07
1.5971947e-07
7.8191709e-06
-2.3314572e-07
1.7636762e-07
7.7919219e-06
-2.5444419e-07
1.9701398e-07
7.966912e-06
-2.7286598e-07
2.1019292e-07
8.4529819e-06
-1.549106e-07
1.9574e-07
9.2579887e-06
2.6707415e-07
1.4458206e-07
1.0159913e-05
1.1855842e-06
5.2524669e-08
1.0901821e-05
2.4115855e-06
-1.2671433e-08
1.1473158e-05
3.4552241e-06
8.3862646e-09
1.1898747e-05
4.1821684e-06
1.2325123e-07
1.2157167e-05
4.6346187e-06
3.4483617e-07
1.2280544e-05
4.8913925e-06
5.6411882e-07
1.2332028e-05
5.0065289e-06
7.150094e-07
1.2355621e-05
5.0061927e-06
8.1311691e-07
1.2369812e-05
4.9117559e-06
8.876697e-07
1.2368734e-05
4.747976e-06
9.6241582e-07
1.2324449e-05
4.5382068e-06
1.0576968e-06
1.2203314e-05
4.3083602e-06
1.1753074e-06
1.1949329e-05
4.0919108e-06
1.3459215e-06
1.1477086e-05
3.9610923e-06
1.6185907e-06
1.0626317e-05
4.102587e-06
2.0665869e-06
4.9164481e-06
2.813196e-06
8.9933614e-06
8.0050885e-08
8.6294909e-06
1.057159e-07
8.2439782e-06
1.1448842e-07
7.8519315e-06
1.2034666e-07
7.4615358e-06
1.2500055e-07
7.0792769e-06
1.285743e-07
6.7061481e-06
1.3227435e-07
6.3365741e-06
1.3820646e-07
5.9591339e-06
1.4965337e-07
5.5539914e-06
1.7199697e-07
5.0850323e-06
2.1451559e-07
4.518054e-06
2.9411233e-07
3.9259924e-06
4.3715102e-07
3.515799e-06
6.7724885e-07
3.6362412e-06
1.0649716e-06
4.4033463e-06
1.6440921e-06
5.4889918e-06
2.369122e-06
6.5816806e-06
3.0889704e-06
7.5232867e-06
3.6924618e-06
8.2786347e-06
4.1355213e-06
8.8770856e-06
4.407611e-06
9.359893e-06
4.5229783e-06
9.7506917e-06
4.5206218e-06
1.0042563e-05
4.4558531e-06
1.0217352e-05
4.3632629e-06
1.0252467e-05
4.2731927e-06
1.0138395e-05
4.2060418e-06
9.9266794e-06
4.1729672e-06
9.8411989e-06
4.1882834e-06
4.1451049e-06
9.5532794e-06
-2.4410036e-07
3.3964156e-08
9.8217444e-06
-2.3534994e-07
5.4488258e-08
1.008241e-05
-2.4029614e-07
6.0059658e-08
1.030725e-05
-2.1701739e-07
5.8005695e-08
1.0487932e-05
-1.8562771e-07
5.115868e-08
1.0630315e-05
-1.6052907e-07
3.9127278e-08
1.0743387e-05
-1.4653147e-07
2.0031821e-08
1.0829095e-05
-1.4778294e-07
-7.949392e-09
1.0890669e-05
-1.6874795e-07
-3.9348796e-08
1.0935998e-05
-2.1596658e-07
-8.5017278e-08
1.0967954e-05
-2.9240544e-07
-1.4910411e-07
1.098909e-05
-4.0530726e-07
-2.375775e-07
1.1001067e-05
-5.5664575e-07
-3.5731334e-07
1.1043902e-05
-7.7947157e-07
-5.1957854e-07
1.1128301e-05
-1.020088e-06
-7.2673191e-07
1.1266321e-05
-1.2473077e-06
-9.7764044e-07
1.1457319e-05
-1.417752e-06
-1.2633201e-06
1.1677092e-05
-1.4979321e-06
-1.558971e-06
1.1882847e-05
-1.4821294e-06
-1.8313021e-06
1.204134e-05
-1.403783e-06
-2.0542562e-06
1.2155846e-05
-1.312091e-06
-2.2254554e-06
1.2251773e-05
-1.237607e-06
-2.34888e-06
1.2355365e-05
-1.1876906e-06
-2.4267473e-06
1.2481239e-05
-1.1553317e-06
-2.4579934e-06
1.2630567e-05
-1.128062e-06
-2.4404026e-06
1.2791878e-05
-1.0871514e-06
-2.3735358e-06
1.293247e-05
-9.9617719e-07
-2.2581367e-06
1.296895e-05
-7.8048581e-07
-2.0904025e-06
1.2757522e-05
-3.2132164e-07
-1.8773812e-06
1.2377492e-06
-1.6107375e-06
9.2623458e-06
-1.9441647e-07
3.7066543e-08
9.3653271e-06
-2.9818934e-07
6.5178587e-08
9.4852214e-06
-3.2602539e-07
7.8593941e-08
9.6353646e-06
-3.3493448e-07
8.4265089e-08
9.8137773e-06
-3.3298466e-07
8.5516741e-08
1.0010179e-05
-3.2732595e-07
8.2026213e-08
1.0218378e-05
-3.2672185e-07
7.2568715e-08
1.0435157e-05
-3.3878502e-07
5.5243136e-08
1.0659919e-05
-3.7103216e-07
2.7188955e-08
1.0897441e-05
-4.3295953e-07
-1.645411e-08
1.1140098e-05
-5.3835218e-07
-8.3827714e-08
1.1396802e-05
-6.9959977e-07
-1.8373084e-07
1.1680384e-05
-9.3023174e-07
-3.2890158e-07
1.1981206e-05
-1.235234e-06
-5.3418287e-07
1.2332228e-05
-1.5774692e-06
-8.1221364e-07
1.2734567e-05
-1.8564838e-06
-1.1580017e-06
1.3163621e-05
-1.9924929e-06
-1.5308213e-06
1.3561792e-05
-1.9573319e-06
-1.8560032e-06
1.3855235e-05
-1.7705748e-06
-2.0854305e-06
1.4013043e-05
-1.511359e-06
-2.2385992e-06
1.4068532e-05
-1.2802447e-06
-2.3509897e-06
1.4066168e-05
-1.1035467e-06
-2.4425002e-06
1.4037405e-05
-9.7332865e-07
-2.5119553e-06
1.4006946e-05
-8.8645266e-07
-2.540247e-06
1.4000734e-05
-8.3971974e-07
-2.5052917e-06
1.4074566e-05
-8.3702692e-07
-2.3931806e-06
1.4352009e-05
-8.6923515e-07
-2.210143e-06
1.5081085e-05
-9.1439706e-07
-1.9721395e-06
1.6753331e-05
-1.002625e-06
-1.7137081e-06
-8.0646316e-07
-1.6106421e-06
9.3164792e-06
-1.9775723e-07
3.7750973e-08
9.3218138e-06
-2.615949e-07
6.6908594e-08
9.3083433e-06
-2.7601503e-07
8.2192598e-08
9.2894152e-06
-2.8029429e-07
9.0519194e-08
9.2736438e-06
-2.7987112e-07
9.5431454e-08
9.263572e-06
-2.7629794e-07
9.7191648e-08
9.2585083e-06
-2.7400211e-07
9.5496944e-08
9.2569521e-06
-2.7797085e-07
9.0020702e-08
9.2585169e-06
-2.9328355e-07
8.0410648e-08
9.2639835e-06
-3.2777518e-07
6.5722385e-08
9.2753418e-06
-3.9574127e-07
4.3050941e-08
9.2975864e-06
-5.2065403e-07
9.0052056e-09
9.3633773e-06
-7.2524471e-07
-7.5050018e-08
9.5078611e-06
-1.0303825e-06
-2.047969e-07
9.7676841e-06
-1.3866318e-06
-3.9821419e-07
1.0159384e-05
-1.6128278e-06
-6.4818473e-07
1.0634058e-05
-1.5752849e-06
-8.8414651e-07
1.1091622e-05
-1.3243433e-06
-9.6862599e-07
1.1438606e-05
-9.4396447e-07
-8.3026597e-07
1.1617145e-05
-5.1294416e-07
-6.1465564e-07
1.1636632e-05
-1.2585303e-07
-4.6107325e-07
1.1620072e-05
9.1026551e-08
-3.6649894e-07
1.1614017e-05
2.0901857e-07
-2.8981494e-07
1.1630944e-05
2.2853052e-07
-1.7034512e-07
1.1678292e-05
1.9486834e-07
-2.4806649e-08
1.1721905e-05
1.0046968e-07
1.9383875e-07
1.1791107e-05
-2.7879044e-08
4.3463921e-07
1.1933884e-05
-1.6791838e-07
7.2851565e-07
1.2311236e-05
-3.1225016e-07
9.9839322e-07
-3.9943271e-07
1.0926816e-06
9.1145394e-06
3.6705199e-08
8.8940224e-06
6.4637784e-08
8.6535098e-06
7.8985733e-08
8.4070402e-06
8.6521785e-08
8.1614359e-06
9.0733534e-08
7.9216763e-06
9.2035823e-08
7.6895113e-06
9.0437163e-08
7.4635521e-06
8.6194816e-08
7.240066e-06
7.9855885e-08
7.0118087e-06
7.2479157e-08
6.764309e-06
6.6274169e-08
6.472292e-06
6.5475261e-08
6.1079658e-06
7.6231638e-08
5.6482053e-06
1.0661906e-07
5.1359516e-06
1.9049699e-07
4.7695107e-06
3.9726097e-07
4.789023e-06
7.7340921e-07
5.2011729e-06
1.3513562e-06
5.6857194e-06
2.2629049e-06
6.1233218e-06
3.1841148e-06
6.5628249e-06
3.841581e-06
6.983817e-06
4.1918899e-06
7.3848711e-06
4.3274751e-06
7.7224325e-06
4.3460079e-06
7.9775109e-06
4.3022397e-06
8.1300474e-06
4.2203665e-06
8.2046374e-06
4.1033216e-06
8.285751e-06
3.9240574e-06
8.4508424e-06
3.7113516e-06
3.4357427e-06
9.5306791e-06
-2.4551081e-07
1.7931101e-08
9.7902519e-06
-2.3543926e-07
3.0530293e-08
1.0050885e-05
-2.3705531e-07
3.6678716e-08
1.0279715e-05
-2.0901287e-07
3.8422263e-08
1.0466213e-05
-1.7261735e-07
3.7529451e-08
1.0613165e-05
-1.4233487e-07
3.4773305e-08
1.0725202e-05
-1.2221013e-07
3.0481789e-08
1.0805145e-05
-1.1265957e-07
2.5065507e-08
1.0860402e-05
-1.1318577e-07
1.8892424e-08
1.089112e-05
-1.2633594e-07
1.0920809e-08
1.0898189e-05
-1.5565701e-07
-1.9327595e-10
1.0876173e-05
-2.0562662e-07
-9.6214088e-09
1.0817461e-05
-2.7864872e-07
-1.9643559e-08
1.0762798e-05
-4.30097e-07
-3.4512111e-08
1.0722461e-05
-6.2702397e-07
-5.9059309e-08
1.0734671e-05
-8.9577706e-07
-9.3771412e-08
1.0848581e-05
-1.241937e-06
-1.3503871e-07
1.1059433e-05
-1.6003326e-06
-1.6929503e-07
1.1302039e-05
-1.8838804e-06
-1.8984819e-07
1.152179e-05
-2.0693332e-06
-2.0442337e-07
1.1699035e-05
-2.1845679e-06
-2.177306e-07
1.184588e-05
-2.2677902e-06
-2.2733885e-07
1.1985044e-05
-2.3376218e-06
-2.2749262e-07
1.2130141e-05
-2.3904662e-06
-2.1166922e-07
1.2282317e-05
-2.4145376e-06
-1.7700113e-07
1.2442486e-05
-2.4024562e-06
-1.3021372e-07
1.2620513e-05
-2.3449858e-06
-9.0001471e-08
1.2776296e-05
-2.1574089e-06
-8.7690167e-08
1.2645931e-05
-1.531539e-06
-2.1490353e-07
-6.6417396e-08
-7.122819e-07
9.235435e-06
-1.9410303e-07
1.9194141e-08
9.327131e-06
-2.9704162e-07
3.5088585e-08
9.4468959e-06
-3.2277386e-07
4.4555816e-08
9.6016071e-06
-3.282084e-07
4.8763995e-08
9.7866493e-06
-3.2133236e-07
4.9210701e-08
9.9893553e-06
-3.0907563e-07
4.608908e-08
1.020024e-05
-2.9929065e-07
3.88001e-08
1.0413473e-05
-2.9698129e-07
2.6375715e-08
1.0626387e-05
-3.0598422e-07
7.1246847e-09
1.0835743e-05
-3.3161335e-07
-2.047562e-08
1.1038532e-05
-3.8182136e-07
-6.039005e-08
1.1233936e-05
-4.6716415e-07
-1.1753071e-07
1.1425702e-05
-6.0074241e-07
-1.9851608e-07
1.1590182e-05
-8.1578633e-07
-3.1293264e-07
1.1758186e-05
-1.1379894e-06
-4.6924756e-07
1.196148e-05
-1.583965e-06
-6.7317377e-07
1.2227249e-05
-2.1313212e-06
-9.0734633e-07
1.2481249e-05
-2.5931892e-06
-1.1173144e-06
1.2616034e-05
-2.8057648e-06
-1.2984692e-06
1.2595844e-05
-2.80624e-06
-1.481578e-06
1.2441229e-05
-2.718023e-06
-1.6629121e-06
1.220876e-05
-2.6483693e-06
-1.8293509e-06
1.1952238e-05
-2.6273186e-06
-1.9655451e-06
1.1705342e-05
-2.6310924e-06
-2.0524787e-06
1.1488278e-05
-2.6224474e-06
-2.0801209e-06
1.1337274e-05
-2.5945636e-06
-2.0500812e-06
1.1358168e-05
-2.5977794e-06
-1.9787282e-06
1.1877889e-05
-2.6870716e-06
-1.9635324e-06
1.358966e-05
-2.7256991e-06
-2.2327142e-06
-2.274533e-06
-2.7983198e-06
9.2905035e-06
-1.9735551e-07
1.9459299e-08
9.2854398e-06
-2.6077321e-07
3.5703725e-08
9.2729409e-06
-2.7403913e-07
4.5956835e-08
9.2606732e-06
-2.7668558e-07
5.1264463e-08
9.2558667e-06
-2.7409926e-07
5.3005729e-08
9.2601692e-06
-2.6752135e-07
5.1336309e-08
9.2715263e-06
-2.6080824e-07
4.5659664e-08
9.2871089e-06
-2.5758552e-07
3.5045476e-08
9.3041544e-06
-2.607505e-07
1.8135597e-08
9.3196207e-06
-2.7394003e-07
-7.4119787e-09
9.329636e-06
-3.0353555e-07
-4.5244297e-08
9.3337695e-06
-3.6040537e-07
-1.0188124e-07
9.3131705e-06
-4.6676772e-07
-1.8842056e-07
9.2566551e-06
-6.4954091e-07
-3.1452461e-07
9.1690502e-06
-9.5205438e-07
-4.9654788e-07
9.0967433e-06
-1.4143332e-06
-7.455204e-07
9.1058659e-06
-2.0044922e-06
-1.0200578e-06
9.1041361e-06
-2.3815553e-06
-1.1783873e-06
8.9887562e-06
-2.3151439e-06
-1.2053435e-06
8.6875357e-06
-1.9009743e-06
-1.2185972e-06
8.2179809e-06
-1.4473131e-06
-1.2621434e-06
7.68755e-06
-1.1291907e-06
-1.3551719e-06
7.190538e-06
-9.86843e-07
-1.4332585e-06
6.8094687e-06
-9.8513201e-07
-1.4354528e-06
6.5981192e-06
-1.0875712e-06
-1.3490092e-06
6.6097247e-06
-1.2572564e-06
-1.1564213e-06
6.7815538e-06
-1.5101401e-06
-8.2688357e-07
7.3183564e-06
-1.8588349e-06
-6.4025504e-07
8.9513252e-06
-2.2512869e-06
-1.1126684e-06
-2.3566671e-06
-1.9923425e-06
9.0892983e-06
1.9002366e-08
8.858474e-06
3.4688587e-08
8.6189741e-06
4.4446318e-08
8.3794663e-06
4.9343779e-08
8.1453205e-06
5.0779879e-08
7.9208271e-06
4.900772e-08
7.7068779e-06
4.3578043e-08
7.5017167e-06
3.3770516e-08
7.3022787e-06
1.8543535e-08
7.1044852e-06
-3.6671193e-09
6.9024367e-06
-3.5212544e-08
6.6869555e-06
-7.9448353e-08
6.4385094e-06
-1.4208931e-07
6.1262932e-06
-2.3070587e-07
5.721093e-06
-3.5636436e-07
5.2354481e-06
-5.3144758e-07
4.7606275e-06
-7.5613346e-07
4.5334716e-06
-8.0275703e-07
4.5808394e-06
-9.9523315e-08
4.5225127e-06
1.3412956e-06
4.5385637e-06
2.3779212e-06
4.7151084e-06
2.8856984e-06
5.0012305e-06
3.0540711e-06
5.3116665e-06
3.0500886e-06
5.574224e-06
2.9517745e-06
5.7423471e-06
2.794643e-06
5.7823303e-06
2.5530102e-06
5.881464e-06
1.9659626e-06
6.7645315e-06
5.7709004e-07
-1.0281572e-06
9.5253279e-06
-2.4557283e-07
7.3122156e-09
9.777782e-06
-2.3481039e-07
1.3065488e-08
1.0033108e-05
-2.3486064e-07
1.6415456e-08
1.0258131e-05
-2.0417628e-07
1.7813745e-08
1.0441676e-05
-1.6363565e-07
1.7875927e-08
1.0586507e-05
-1.2678216e-07
1.6991217e-08
1.0698394e-05
-9.645518e-08
1.533312e-08
1.0782483e-05
-7.1715821e-08
1.2993453e-08
1.084278e-05
-5.1191847e-08
1.0102541e-08
1.0881323e-05
-3.4249707e-08
6.9528784e-09
1.0897706e-05
-2.0279161e-08
4.0346206e-09
1.089497e-05
-8.9986107e-09
2.4963172e-09
1.0866594e-05
6.0025765e-09
3.0835944e-09
1.0850593e-05
-1.9871355e-08
1.6286179e-09
1.0862476e-05
-6.7618996e-08
-3.2893944e-09
1.0938905e-05
-1.6655037e-07
-3.9866835e-09
1.1128037e-05
-3.3731235e-07
1.2463931e-08
1.1380714e-05
-4.812277e-07
5.846666e-08
1.160835e-05
-5.4922491e-07
1.3107237e-07
1.1799672e-05
-6.0219225e-07
2.0595414e-07
1.1973651e-05
-6.6912681e-07
2.7705987e-07
1.2150539e-05
-7.5167784e-07
3.4720108e-07
1.2341936e-05
-8.4614285e-07
4.2713605e-07
1.2534382e-05
-9.3376421e-07
5.2971378e-07
1.2689414e-05
-9.9336991e-07
6.6159921e-07
1.2763475e-05
-1.0148721e-06
8.1091985e-07
1.2694047e-05
-9.489627e-07
9.2828022e-07
1.2271868e-05
-5.9094553e-07
9.2333036e-07
1.0810515e-05
5.9853849e-07
6.4980001e-07
3.2218714e-06
8.5524628e-08
9.2286525e-06
-1.9384012e-07
7.7793372e-09
9.310246e-06
-2.9631168e-07
1.5000142e-08
9.421112e-06
-3.2098998e-07
1.9827391e-08
9.5679773e-06
-3.2445375e-07
2.2190862e-08
9.7452478e-06
-3.1416161e-07
2.2487492e-08
9.9399229e-06
-2.9619884e-07
2.0859014e-08
1.0142457e-05
-2.7723957e-07
1.708699e-08
1.0346996e-05
-2.605641e-07
1.0729812e-08
1.0549335e-05
-2.4764929e-07
1.2958896e-09
1.0747417e-05
-2.4005952e-07
-1.2688137e-08
1.0939347e-05
-2.4053657e-07
-3.1998009e-08
1.1125066e-05
-2.5351388e-07
-5.866912e-08
1.1309908e-05
-2.8316815e-07
-9.4374313e-08
1.1483037e-05
-3.6533068e-07
-1.4074316e-07
1.1682491e-05
-5.3529991e-07
-2.0113284e-07
1.1958651e-05
-8.4915696e-07
-2.6688958e-07
1.2352363e-05
-1.3268923e-06
-3.1161769e-07
1.2662136e-05
-1.5893482e-06
-3.1896609e-07
1.2770928e-05
-1.5946323e-06
-3.6168155e-07
1.2742988e-05
-1.5900505e-06
-4.6548083e-07
1.2613979e-05
-1.5808718e-06
-6.2174871e-07
1.2426156e-05
-1.5951206e-06
-7.975131e-07
1.2207914e-05
-1.6465579e-06
-9.4607138e-07
1.1952404e-05
-1.7023213e-06
-1.0273092e-06
1.1629788e-05
-1.7358256e-06
-1.0136884e-06
1.1259527e-05
-1.7657299e-06
-9.2736403e-07
1.1026925e-05
-1.8403164e-06
-8.5281908e-07
1.1202171e-05
-1.7596838e-06
-9.6648582e-07
1.1246124e-05
-2.3332955e-07
-1.4439458e-06
2.7313043e-06
-2.0536414e-06
9.2840547e-06
-1.9729881e-07
7.8225636e-09
9.2690294e-06
-2.6068914e-07
1.5106394e-08
9.2474263e-06
-2.7357916e-07
2.0149253e-08
9.2267815e-06
-2.7536261e-07
2.2818534e-08
9.2134999e-06
-2.7127968e-07
2.340626e-08
9.208921e-06
-2.622189e-07
2.1936792e-08
9.210743e-06
-2.5147719e-07
1.8077546e-08
9.2157892e-06
-2.4182838e-07
1.1266798e-08
9.2201422e-06
-2.3494383e-07
1.0813966e-09
9.2206559e-06
-2.324279e-07
-1.5551983e-08
9.211569e-06
-2.3726963e-07
-3.9417953e-08
9.1863565e-06
-2.553037e-07
-7.4872222e-08
9.1406399e-06
-2.9801998e-07
-1.2785074e-07
9.0556227e-06
-3.9246762e-07
-2.0237439e-07
8.922528e-06
-5.952158e-07
-3.0355396e-07
8.7780467e-06
-1.0270328e-06
-4.2317421e-07
8.7567613e-06
-1.8207327e-06
-5.0453469e-07
8.3966526e-06
-1.9661285e-06
-4.407763e-07
7.6319783e-06
-1.5718222e-06
-4.6282493e-07
6.9096037e-06
-1.5236973e-06
-5.6227728e-07
6.1701684e-06
-1.3308602e-06
-7.7244185e-07
5.4254442e-06
-1.2062406e-06
-9.9904728e-07
4.7337612e-06
-1.23523e-06
-1.1527141e-06
4.1282692e-06
-1.3536262e-06
-1.1788396e-06
3.618917e-06
-1.5236248e-06
-1.0527962e-06
3.1574815e-06
-1.7673841e-06
-6.9551114e-07
2.9434162e-06
-2.178955e-06
-2.7790522e-07
3.6510532e-06
-2.7657842e-06
-3.4706638e-07
4.9958439e-06
-1.2364697e-06
-1.45353e-06
1.4251919e-06
-2.5789276e-06
9.0830507e-06
7.6037604e-09
8.8424745e-06
1.4575422e-08
8.594044e-06
1.929748e-08
8.3463813e-06
2.1643624e-08
8.1039837e-06
2.1897673e-08
7.8706734e-06
2.0099019e-08
7.6468348e-06
1.5939307e-08
7.4298497e-06
8.9273006e-09
7.2148224e-06
-1.3728421e-09
6.9974624e-06
-1.8734753e-08
6.7683094e-06
-4.3328647e-08
6.5134078e-06
-7.9849805e-08
6.2083695e-06
-1.3506992e-07
5.8055703e-06
-2.2037254e-07
5.2132118e-06
-3.5921197e-07
4.2655083e-06
-6.1062878e-07
2.7641562e-06
-1.0736154e-06
1.3357841e-06
-1.3383004e-06
6.8742008e-07
-1.0209375e-06
5.1491423e-07
-9.1702823e-09
7.0416458e-07
8.5800078e-07
1.1182235e-06
1.2653766e-06
1.563399e-06
1.3734257e-06
1.9274989e-06
1.3319055e-06
2.120661e-06
1.2342772e-06
1.9658335e-06
1.1809968e-06
1.207952e-06
1.129854e-06
-2.3059751e-07
6.3327536e-07
4.7984941e-07
-1.3742324e-06
-2.9294811e-06
9.522515e-06
-2.4590111e-07
-1.6525517e-10
9.7713624e-06
-2.3527612e-07
-3.2534188e-10
1.0023758e-05
-2.3529083e-07
-4.8674281e-10
1.0246776e-05
-2.0431526e-07
-6.487174e-10
1.0428952e-05
-1.6323122e-07
-8.125952e-10
1.0572802e-05
-1.2560648e-07
-9.8234259e-10
1.0683894e-05
-9.4311408e-08
-1.1619328e-09
1.0766979e-05
-6.8432028e-08
-1.3557407e-09
1.0825542e-05
-4.6565198e-08
-1.5742924e-09
1.0862368e-05
-2.7690726e-08
-1.8437249e-09
1.0880864e-05
-1.1883928e-08
-2.2136373e-09
1.0882234e-05
4.3130855e-09
-2.8115048e-09
1.0848357e-05
4.1159099e-08
-3.81354e-09
1.0844026e-05
1.1738155e-08
-5.4102781e-09
1.0887403e-05
-3.9735576e-08
-6.7349621e-09
1.1036714e-05
-1.4621329e-07
-7.1790077e-09
1.132841e-05
-2.7480783e-07
-4.4817925e-09
1.1605138e-05
-2.1656231e-07
-1.2954189e-09
1.1797658e-05
-6.3265503e-08
2.577458e-09
1.1959096e-05
3.7435623e-08
7.7934549e-09
1.2125285e-05
9.5904242e-08
1.5680161e-08
1.2342913e-05
1.0421991e-07
2.6120653e-08
1.262562e-05
1.0811426e-07
3.7191126e-08
1.2940297e-05
1.686381e-07
4.7450398e-08
1.3204556e-05
3.42518e-07
5.6114309e-08
1.3280679e-05
6.7274374e-07
6.3625435e-08
1.2949556e-05
1.1909311e-06
7.0325164e-08
1.1805129e-05
1.9983706e-06
7.1285882e-08
9.161153e-06
3.2438635e-06
5.1534169e-08
5.4938885e-06
2.9074661e-08
9.2248645e-06
-1.9387444e-07
-1.4136784e-10
9.3012567e-06
-2.963726e-07
-2.9180549e-10
9.4071749e-06
-3.2091193e-07
-4.6135588e-10
9.5496989e-06
-3.2397591e-07
-6.5777184e-10
9.722859e-06
-3.1299942e-07
-8.8332475e-10
9.9132006e-06
-2.939213e-07
-1.1396189e-09
1.0110752e-05
-2.7330689e-07
-1.4324579e-09
1.0309145e-05
-2.5427748e-07
-1.774042e-09
1.0504179e-05
-2.3806579e-07
-2.1861288e-09
1.0692368e-05
-2.257762e-07
-2.7337936e-09
1.0872103e-05
-2.2014172e-07
-3.4147386e-09
1.1045433e-05
-2.2337946e-07
-4.3175433e-09
1.1222941e-05
-2.2541165e-07
-5.4471237e-09
1.1388589e-05
-2.8846303e-07
-6.4507814e-09
1.1614861e-05
-4.6146309e-07
-5.9982702e-09
1.2012456e-05
-8.0873967e-07
-2.3908102e-09
1.2612016e-05
-1.1935784e-06
7.4615732e-09
1.3010641e-05
-9.5110393e-07
1.7078028e-08
1.323543e-05
-6.7303201e-07
2.3597166e-08
1.3354157e-05
-5.7729773e-07
3.1910218e-08
1.3386151e-05
-5.9556053e-07
3.9880525e-08
1.3376327e-05
-7.2513402e-07
4.4893326e-08
1.3373349e-05
-8.7194714e-07
4.1671652e-08
1.3420961e-05
-9.2531244e-07
2.5290806e-08
1.3562902e-05
-7.9963893e-07
-5.8656254e-09
1.3710634e-05
-3.6647167e-07
-2.7215142e-08
1.3569292e-05
5.1757223e-07
-2.9333424e-08
1.2433614e-05
2.2030687e-06
-2.8339613e-08
9.8243033e-06
4.4767689e-06
-6.5095335e-08
7.3615962e-06
-1.2673596e-07
9.2803336e-06
-1.9728083e-07
-1.4536248e-10
9.2600519e-06
-2.6068494e-07
-2.9964438e-10
9.2332201e-06
-2.7345668e-07
-4.7410791e-10
9.2076928e-06
-2.7495187e-07
-6.7775516e-10
9.1894233e-06
-2.7040801e-07
-9.1479845e-10
9.1792802e-06
-2.6065059e-07
-1.189313e-09
9.1744489e-06
-2.4888657e-07
-1.5092451e-09
9.1710922e-06
-2.3776087e-07
-1.8899287e-09
9.1651344e-06
-2.2866305e-07
-2.3592468e-09
9.1495819e-06
-2.227454e-07
-3.0249474e-09
9.1162819e-06
-2.2244523e-07
-3.8083107e-09
9.0552435e-06
-2.3243371e-07
-4.7741412e-09
8.9701275e-06
-2.6231369e-07
-5.8317721e-09
8.831714e-06
-3.460198e-07
-6.4171594e-09
8.6435577e-06
-5.709568e-07
-5.9430036e-09
8.5565895e-06
-1.1427821e-06
-2.1457418e-09
8.9293202e-06
-2.0825053e-06
1.3166439e-08
8.4315619e-06
-9.1784956e-07
2.5168486e-08
7.699129e-06
-4.3473506e-07
3.2120536e-08
6.7990454e-06
-2.8470438e-07
4.5783237e-08
5.7675041e-06
-3.9335374e-07
5.7445049e-08
4.6088399e-06
-6.1698146e-07
5.1809154e-08
3.4821432e-06
-9.1039499e-07
1.2415949e-08
2.6150341e-06
-1.178472e-06
-5.9146764e-08
2.3155823e-06
-1.379888e-06
-1.7456527e-07
3.0542416e-06
-1.5363256e-06
-2.6688155e-07
4.771069e-06
-1.2571211e-06
-2.2268911e-07
6.4579979e-06
3.5738086e-07
-1.8564913e-07
6.5882918e-06
3.1393931e-06
-2.445101e-07
5.9429046e-06
-3.4982378e-07
9.0794182e-06
-1.4435883e-10
8.8336052e-06
-2.9672113e-10
8.5799158e-06
-4.6995793e-10
8.3272807e-06
-6.7344786e-10
8.0796826e-06
-9.1231363e-10
7.8403232e-06
-1.1923609e-09
7.608901e-06
-1.5251641e-09
7.3820034e-06
-1.9359574e-09
7.1544497e-06
-2.4819509e-09
6.9162233e-06
-3.2533904e-09
6.6547e-06
-4.2500203e-09
6.3480909e-06
-5.6733811e-09
5.9584699e-06
-7.761057e-09
5.4029371e-06
-1.0856293e-08
4.4882756e-06
-1.5479967e-08
2.7551923e-06
-1.9834559e-08
-3.9011892e-07
-2.8302144e-09
-2.7170028e-06
7.2983213e-08
-4.2473265e-06
7.5415119e-08
-4.6155201e-06
7.4706618e-08
-4.1922221e-06
4.1505511e-08
-3.5077028e-06
-3.6500034e-08
-2.9039214e-06
-1.4173444e-07
-2.4611519e-06
-2.908756e-07
-2.1514246e-06
-4.5745156e-07
-1.9626089e-06
-5.4759196e-07
-1.6798673e-06
-4.171534e-07
-3.8543854e-07
-3.1745199e-07
2.0823865e-06
-7.0089757e-07
-7.8516525e-07
9.5224968e-06
-2.4591103e-07
-7.6146815e-09
9.7713255e-06
-2.3531526e-07
-1.365835e-08
1.0023693e-05
-2.3535801e-07
-1.7293175e-08
1.0246663e-05
-2.04409e-07
-1.897054e-08
1.0428772e-05
-1.6335557e-07
-1.9308851e-08
1.0572529e-05
-1.2576961e-07
-1.8700376e-08
1.0683491e-05
-9.4520707e-08
-1.7318757e-08
1.0766384e-05
-6.8692252e-08
-1.5253135e-08
1.0824629e-05
-4.6878927e-08
-1.2619267e-08
1.0860884e-05
-2.8078882e-08
-9.6795942e-09
1.0878197e-05
-1.2266028e-08
-6.8936142e-09
1.0877531e-05
3.7279493e-09
-5.4984162e-09
1.0840807e-05
3.9766077e-08
-6.4749693e-09
1.0836898e-05
4.3469647e-09
-5.4730699e-09
1.0883424e-05
-5.0464497e-08
-2.2659556e-09
1.1043828e-05
-1.64277e-07
-2.5954483e-09
1.1338609e-05
-2.8059802e-07
-1.8008241e-08
1.1615213e-05
-2.147436e-07
-6.2647512e-08
1.1811692e-05
-6.4015505e-08
-1.2965548e-07
1.1982292e-05
3.6623315e-08
-1.9932725e-07
1.2163061e-05
1.0395292e-07
-2.6901586e-07
1.2399147e-05
1.3326778e-07
-3.4325946e-07
1.2699331e-05
1.7163067e-07
-4.3471571e-07
1.3030641e-05
2.7413004e-07
-5.5819459e-07
1.3309396e-05
4.972236e-07
-7.2027299e-07
1.3386718e-05
8.8078375e-07
-8.9520273e-07
1.3023564e-05
1.4535304e-06
-1.0211303e-06
1.1798313e-05
2.2987177e-06
-1.003876e-06
9.0700655e-06
3.4860288e-06
-7.0865676e-07
5.5648987e-06
-1.2832218e-07
9.2248542e-06
-1.9388308e-07
-8.0530542e-09
9.3012136e-06
-2.9639605e-07
-1.5566645e-08
9.4070796e-06
-3.2095568e-07
-2.0721356e-08
9.549529e-06
-3.2404193e-07
-2.3459537e-08
9.7225852e-06
-3.130937e-07
-2.4180427e-08
9.9127812e-06
-2.9405108e-07
-2.3026289e-08
1.0110127e-05
-2.7348077e-07
-1.9782279e-08
1.0308221e-05
-2.5450535e-07
-1.401134e-08
1.0502686e-05
-2.3836381e-07
-5.1161184e-09
1.0690167e-05
-2.2621316e-07
7.9778571e-09
1.0868775e-05
-2.2068721e-07
2.6462401e-08
1.1040546e-05
-2.2441807e-07
5.2095294e-08
1.1216548e-05
-2.2823515e-07
8.6610366e-08
1.1382691e-05
-2.9942516e-07
1.3147829e-07
1.161966e-05
-4.8309369e-07
1.9003807e-07
1.2039613e-05
-8.397083e-07
2.5354485e-07
1.2633966e-05
-1.1674818e-06
3.0014784e-07
1.3036104e-05
-9.2064553e-07
3.2077629e-07
1.3271355e-05
-6.5592073e-07
3.8003487e-07
1.3407464e-05
-5.6603934e-07
4.9731857e-07
1.3473091e-05
-5.8145504e-07
6.5738376e-07
1.351813e-05
-6.9479684e-07
8.2452451e-07
1.3591378e-05
-8.1536752e-07
9.5090086e-07
1.3741397e-05
-8.4530106e-07
9.888165e-07
1.3979747e-05
-6.7239617e-07
9.1765104e-07
1.4215058e-05
-1.7539646e-07
7.8332909e-07
1.3963926e-05
9.7027625e-07
6.9154079e-07
1.256637e-05
2.7612433e-06
8.9064733e-07
9.6630561e-06
4.9451386e-06
1.3605605e-06
7.5585026e-06
1.9731219e-06
9.2803207e-06
-1.9728612e-07
-8.1037441e-09
9.2600091e-06
-2.6069692e-07
-1.568718e-08
9.2331247e-06
-2.7347809e-07
-2.1067258e-08
9.2075176e-06
-2.7498482e-07
-2.412732e-08
9.189131e-06
-2.7045488e-07
-2.51661e-08
9.178819e-06
-2.6071488e-07
-2.4212043e-08
9.1737427e-06
-2.4897406e-07
-2.0937518e-08
9.1700154e-06
-2.3788549e-07
-1.4779345e-08
9.1632417e-06
-2.2887849e-07
-5.066717e-09
9.1469106e-06
-2.2305615e-07
1.015441e-08
9.1124342e-06
-2.2297355e-07
3.2960772e-08
9.0498702e-06
-2.3355274e-07
6.6931898e-08
8.963042e-06
-2.6517673e-07
1.1794785e-07
8.8223862e-06
-3.5466993e-07
1.8950184e-07
8.6426777e-06
-5.9519967e-07
2.8590438e-07
8.5989919e-06
-1.1936696e-06
3.9549017e-07
8.9402237e-06
-1.976714e-06
4.7997623e-07
8.4684655e-06
-8.7312131e-07
4.4940024e-07
7.778699e-06
-4.3572666e-07
5.0196259e-07
6.928106e-06
-2.9633688e-07
6.2726538e-07
5.9697661e-06
-4.0231673e-07
8.3746079e-07
4.9033438e-06
-6.2064603e-07
1.044915e-06
3.8756524e-06
-9.1959331e-07
1.1451096e-06
3.1000027e-06
-1.1815297e-06
1.0536399e-06
2.9563155e-06
-1.4070299e-06
7.0486581e-07
3.9616215e-06
-1.5662198e-06
1.1939276e-07
5.836117e-06
-9.2703118e-07
-2.0077619e-07
6.8746841e-06
1.1156241e-06
4.1601134e-07
6.2613759e-06
3.7544872e-06
1.549147e-06
6.2923936e-06
2.5025797e-06
9.0794027e-06
-7.8822049e-09
8.8335575e-06
-1.5148704e-08
8.579813e-06
-2.0203755e-08
8.327092e-06
-2.2937433e-08
8.0793658e-06
-2.3641189e-08
7.8398172e-06
-2.2358771e-08
7.608102e-06
-1.8784029e-08
7.3806841e-06
-1.2403565e-08
7.1521451e-06
-2.8212985e-09
6.912777e-06
1.3058828e-08
6.6491584e-06
3.6395607e-08
6.3388554e-06
7.1077601e-08
5.9422607e-06
1.2365779e-07
5.3718066e-06
2.0492789e-07
4.4239591e-06
3.3714593e-07
2.6323052e-06
5.777093e-07
-3.9583627e-07
1.0416264e-06
-2.5497043e-06
1.3519035e-06
-3.9709634e-06
1.059826e-06
-4.2558246e-06
6.2046317e-08
-3.7460579e-06
-8.7201901e-07
-2.9931533e-06
-1.4106713e-06
-2.358368e-06
-1.6960527e-06
-1.9628938e-06
-1.8673504e-06
-1.8187433e-06
-2.0079381e-06
-1.8341902e-06
-2.0980366e-06
-1.5771878e-06
-1.6009946e-06
-7.3075039e-07
-5.5537982e-08
9.6486241e-07
1.3398124e-06
2.769193e-06
9.5252797e-06
-2.4561129e-07
-1.8146883e-08
9.7776765e-06
-2.3493551e-07
-3.0940463e-08
1.0032918e-05
-2.3506563e-07
-3.7267292e-08
1.0257816e-05
-2.0445077e-07
-3.9178924e-08
1.0441192e-05
-1.6398957e-07
-3.8439481e-08
1.0585804e-05
-1.2723231e-07
-3.5813731e-08
1.0697399e-05
-9.7012986e-08
-3.162034e-08
1.0781093e-05
-7.2391712e-08
-2.6259862e-08
1.0840911e-05
-5.199009e-08
-2.0139994e-08
1.0878857e-05
-3.5079605e-08
-1.2229734e-08
1.0894364e-05
-2.1129064e-08
-9.4916473e-10
1.0890135e-05
-9.7171114e-09
8.8088201e-09
1.0860827e-05
4.0872548e-09
1.9086958e-08
1.0844308e-05
-2.2961255e-08
3.4320702e-08
1.0857933e-05
-7.4742031e-08
5.9068975e-08
1.0942951e-05
-1.8086902e-07
9.3342056e-08
1.1147638e-05
-3.550517e-07
1.3222804e-07
1.1414356e-05
-4.9152532e-07
1.617281e-07
1.1649121e-05
-5.4146032e-07
1.7629319e-07
1.183933e-05
-5.7497594e-07
1.8439516e-07
1.2007652e-05
-6.2940361e-07
1.9075937e-07
1.2175991e-05
-7.0540119e-07
1.9225869e-07
1.2355911e-05
-7.9890253e-07
1.824335e-07
1.2537202e-05
-8.9728903e-07
1.5544969e-07
1.2693805e-05
-9.8868486e-07
1.0827825e-07
1.2805498e-05
-1.0580974e-06