/*--------------------------------*- C++ -*----------------------------------*\
| =========                 |                                                 |
| \\      /  F ield         | OpenFOAM: The Open Source CFD Toolbox           |
|  \\    /   O peration     | Version:  v2012                                 |
|   \\  /    A nd           | Website:  www.openfoam.com                      |
|    \\/     M anipulation  |                                                 |
\*---------------------------------------------------------------------------*/
FoamFile
{
    version     2.0;
    format      ascii;
    class       volScalarField;
    location    "190/topAir";
    object      rho;
}
// * * * * * * * * * * * * * * * * * * * * * * * * * * * * * * * * * * * * * //

dimensions      [1 -3 0 0 0 0 0];


internalField   nonuniform List<scalar> 
1200
(
1.0927946
1.0379453
0.99279924
0.95454802
0.92124842
0.891669
0.86504178
0.84099053
0.81966591
0.80091655
0.78454763
0.77049465
0.75892727
0.75437638
0.75220714
0.75257149
0.75528455
0.75977572
0.76522023
0.7708049
0.77594062
0.78029571
0.78371682
0.78613159
0.78747447
0.78763318
0.78638281
0.78323559
0.77720485
0.76741175
1.1571148
1.1542734
1.1503905
1.1456521
1.1401986
1.1341379
1.1275673
1.1205559
1.1114731
1.099485
1.0834277
1.0617745
1.034256
1.0034817
0.97246953
0.9447236
0.92243326
0.90602743
0.89472233
0.88740176
0.88304422
0.88069928
0.87949138
0.87862612
0.87736077
0.87493587
0.87039815
0.8622011
0.84759174
0.82402251
1.1585864
1.1584913
1.1583148
1.1580395
1.1576504
1.1571349
1.1564822
1.1556828
1.1546859
1.1534203
1.1517469
1.148177
1.1380185
1.1170512
1.0855726
1.0483736
1.0113094
0.97873586
0.95226612
0.93182454
0.91666987
0.90581945
0.89822805
0.89289451
0.88890538
0.88542487
0.88159672
0.87627275
0.86738084
0.85183694
1.1586181
1.158615
1.1586074
1.1585926
1.158567
1.1585264
1.1584655
1.1583785
1.1582566
1.1580873
1.157846
1.157422
1.1562903
1.1509773
1.1310011
1.0953232
1.0562977
1.0210816
0.99131654
0.96686723
0.94722485
0.93180621
0.91994439
0.91090498
0.90394995
0.89837886
0.89350904
0.88853204
0.88207818
0.87183734
1.092799
1.038507
0.99430788
0.95730671
0.92555524
0.89787442
0.87354994
0.85217758
0.83359725
0.81785493
0.8050854
0.79554236
0.78958005
0.79282082
0.79910838
0.80753765
0.8168594
0.82581882
0.83344848
0.83935732
0.84369945
0.84682172
0.84898699
0.85026909
0.85056612
0.84962204
0.84694109
0.84140462
0.83074697
0.81570407
1.1571166
1.1543281
1.1505917
1.1461215
1.1410846
1.1356191
1.1298536
1.1239264
1.1179793
1.1122153
1.1068365
1.1020858
1.0982272
1.0956415
1.0942435
1.0934566
1.0924652
1.0905586
1.0873209
1.082835
1.077439
1.0712857
1.0643853
1.0566674
1.0480232
1.0383939
1.0278083
1.0163518
1.0037282
0.97761399
1.1585865
1.158494
1.1583266
1.1580723
1.1577227
1.1572722
1.1567186
1.1560637
1.1553128
1.1544775
1.1535763
1.1525982
1.1514313
1.1499629
1.1479871
1.1441506
1.1368253
1.1253304
1.1101596
1.0933938
1.077116
1.0609234
1.0446191
1.0285449
1.0127838
0.99750376
0.98218221
0.96578838
0.94768776
0.92699117
1.1586181
1.1586151
1.158608
1.1585947
1.1585724
1.1585381
1.1584886
1.1584204
1.1583298
1.1582123
1.1580621
1.157861
1.157516
1.1563876
1.151372
1.136305
1.1084052
1.0734781
1.0393355
1.0092779
0.98413635
0.96447073
0.94953972
0.9376235
0.92769721
0.91900918
0.911249
0.90441891
0.89755936
0.88968394
1.0927892
1.0383851
0.99405811
0.95691634
0.92499931
0.89711105
0.87250703
0.85070007
0.83136211
0.81433242
0.79958114
0.78720367
0.77752644
0.77752614
0.78087303
0.78820711
0.79991021
0.81484854
0.83054505
0.84481334
0.85657448
0.8656799
0.87235023
0.87678287
0.87906122
0.8792004
0.87708971
0.87179607
0.85972185
0.83386448
1.1571161
1.1543175
1.1505635
1.1460715
1.1410087
1.1355088
1.1296886
1.1236598
1.117538
1.1114565
1.1055847
1.100137
1.0953834
1.0919332
1.0901526
1.090308
1.0921981
1.0941465
1.0941378
1.0914601
1.0863965
1.0794104
1.0706744
1.060114
1.0476984
1.0336619
1.0183715
1.0018119
0.98250655
0.95641243
1.1585865
1.1584935
1.1583252
1.1580698
1.1577191
1.1572683
1.1567153
1.1560611
1.1553107
1.1544739
1.1535679
1.1526215
1.1516813
1.1508175
1.1500938
1.1493681
1.1475101
1.1410007
1.1289372
1.1136534
1.0974195
1.081052
1.0639156
1.045202
1.0250074
1.0044533
0.98502993
0.96664687
0.9486395
0.92983303
1.1586181
1.158615
1.158608
1.1585945
1.1585723
1.1585382
1.1584894
1.1584226
1.1583348
1.1582228
1.1580838
1.1579149
1.1577097
1.1574324
1.1568423
1.154758
1.1472674
1.1259984
1.0943519
1.0583343
1.0242378
0.99633379
0.97515941
0.95903818
0.94626617
0.93561526
0.92638935
0.9182052
0.91047156
0.90095686
1.0927777
1.0383312
0.9939254
0.95666522
0.92457072
0.8964098
0.87138023
0.84891555
0.82859481
0.81010403
0.79319627
0.77768678
0.7636323
0.75857284
0.75467329
0.75267597
0.75353904
0.7561617
0.75891114
0.76152213
0.76423743
0.76724708
0.77059657
0.77399113
0.77686884
0.77864093
0.77821479
0.77240442
0.75961985
0.74582611
1.1571157
1.1543131
1.1505475
1.1460328
1.1409311
1.135366
1.1294372
1.1232285
1.1168124
1.1102587
1.1036441
1.0970543
1.0903699
1.0846918
1.0802589
1.0778185
1.0778538
1.077974
1.0765841
1.0737816
1.069341
1.0631881
1.0551675
1.0449548
1.0323391
1.0174208
1.0001567
0.97981385
0.94541444
0.87622956
1.1585865
1.1584934
1.1583244
1.1580674
1.1577137
1.1572575
1.1566951
1.1560251
1.1552477
1.1543654
1.1533844
1.1523165
1.1511797
1.1500436
1.1490287
1.1482769
1.1466413
1.1370292
1.1235655
1.1103625
1.0949266
1.0772504
1.0565621
1.032828
1.0077643
0.98407289
0.96266453
0.94174138
0.92215175
0.88834958
1.1586181
1.158615
1.1586079
1.1585944
1.1585719
1.1585374
1.1584878
1.1584197
1.1583296
1.1582138
1.1580684
1.1578896
1.1576725
1.157411
1.1570734
1.1562438
1.1493502
1.107885
1.0705574
1.0605759
1.0327939
1.006422
0.98608101
0.97012304
0.95695879
0.94547359
0.93455936
0.92086684
0.89815775
0.87125921
1.092781
1.0383247
0.99389771
0.95660829
0.92447663
0.89626693
0.87117282
0.84862164
0.82818545
0.80953557
0.79242714
0.77669775
0.76260392
0.75925821
0.75669574
0.75585347
0.75648556
0.75423624
0.74842802
0.74139013
0.73461439
0.72830904
0.72266017
0.71782922
0.71391099
0.71085039
0.70824809
0.70504944
0.69934627
0.68863006
1.1571157
1.1543118
1.1505418
1.1460187
1.1409033
1.1353174
1.1293577
1.1231033
1.1166206
1.1099688
1.103207
1.0962096
1.0878607
1.0815158
1.0769798
1.0746869
1.074212
1.0715823
1.0674548
1.0616345
1.0538206
1.0456898
1.036757
1.0246902
1.0068745
0.98175735
0.94819619
0.9050848
0.85105997
0.78474327
1.1585865
1.1584933
1.158324
1.1580663
1.1577112
1.1572527
1.1566865
1.1560103
1.1552233
1.1543262
1.1533218
1.1522114
1.150981
1.1497295
1.1486211
1.1477449
1.1431516
1.1284402
1.1181449
1.1091338
1.0975264
1.0804609
1.0561831
1.0262528
0.99539281
0.96934646
0.95256858
0.93461079
0.89664885
0.83578375
1.1586181
1.158615
1.1586079
1.1585943
1.1585717
1.158537
1.158487
1.1584181
1.1583268
1.1582089
1.1580601
1.1578753
1.1576472
1.1573663
1.156969
1.1553259
1.1335398
1.0309591
1.0113882
1.0036451
0.99735113
0.98496769
0.97137159
0.95801016
0.94510541
0.93271333
0.92121909
0.91132786
0.89234567
0.85203113
1.0927845
1.0383308
0.9939051
0.95661611
0.92448466
0.89627522
0.87118113
0.84862921
0.8281914
0.80953865
0.79242395
0.77667709
0.76256324
0.75921718
0.75688808
0.75642149
0.7571453
0.75480075
0.74891102
0.74177317
0.73487674
0.72843704
0.72265826
0.71773121
0.71378974
0.71077142
0.70820266
0.70487729
0.69891546
0.68788171
1.1571158
1.1543121
1.1505423
1.1460193
1.1409042
1.1353186
1.1293593
1.1231054
1.1166231
1.1099721
1.103212
1.0962449
1.0879836
1.0820086
1.0776063
1.0754833
1.0747219
1.071892
1.0676456
1.0615963
1.0531931
1.0438103
1.0327848
1.0179596
0.99689652
0.96824243
0.93200989
0.88823051
0.83648468
0.77482069
1.1585865
1.1584933
1.158324
1.1580663
1.1577113
1.1572527
1.1566865
1.1560104
1.1552234
1.1543264
1.153322
1.1522131
1.1509882
1.1497573
1.1486822
1.1477472
1.1420446
1.1280778
1.1180712
1.109285
1.0981762
1.0821702
1.0595119
1.0316419
1.0020268
0.9758979
0.95623598
0.93027726
0.88647554
0.82349673
1.1586181
1.158615
1.1586079
1.1585943
1.1585717
1.158537
1.158487
1.1584181
1.1583268
1.1582089
1.15806
1.157875
1.1576467
1.157364
1.1569331
1.1547908
1.1284037
1.0328109
1.0147551
1.0077308
1.002024
0.99047585
0.97700107
0.9631322
0.94900149
0.93432808
0.91878653
0.90808008
0.88120566
0.83719493
1.0927877
1.038348
0.99394542
0.95668557
0.92459054
0.89642835
0.87139566
0.84892571
0.8285977
0.81009463
0.79316979
0.77763565
0.76354089
0.75851547
0.75474499
0.75302828
0.75421095
0.75694824
0.75944065
0.76146645
0.76344954
0.76571533
0.76841032
0.77139007
0.77428792
0.77652122
0.77657491
0.77001476
0.75698744
0.74293217
1.1571159
1.1543138
1.1505488
1.1460346
1.1409336
1.1353691
1.1294411
1.1232331
1.116818
1.110265
1.1036509
1.0970651
1.0904718
1.0848362
1.0805026
1.0782408
1.0783353
1.0782531
1.0765096
1.0733647
1.0687342
1.0625348
1.0545546
1.0444203
1.0317953
1.0163969
0.99774352
0.97664197
0.93838262
0.86822726
1.1585865
1.1584934
1.1583244
1.1580674
1.1577138
1.1572576
1.1566953
1.1560253
1.155248
1.1543657
1.1533847
1.1523173
1.1511846
1.1500575
1.1490626
1.148308
1.1461845
1.1358614
1.1221396
1.1092427
1.0948055
1.0784128
1.059147
1.036729
1.01213
0.98638771
0.95726269
0.93097335
0.9154919
0.87765727
1.1586181
1.158615
1.1586079
1.1585944
1.1585719
1.1585374
1.1584878
1.1584197
1.1583296
1.1582137
1.1580683
1.1578893
1.1576721
1.1574097
1.1570582
1.1560301
1.1472612
1.1040819
1.0650067
1.0562761
1.0318231
1.0068833
0.98678366
0.97050058
0.95659311
0.9434002
0.92247294
0.89697902
0.87877768
0.85796954
1.0927972
1.0383981
0.99407331
0.9569304
0.92500872
0.89711292
0.87249677
0.85067363
0.83131544
0.8142611
0.79948091
0.78707192
0.77736542
0.77734813
0.78071676
0.78816099
0.80009073
0.81530233
0.83121206
0.84559723
0.85742185
0.86660526
0.87345038
0.87823941
0.88111597
0.8821963
0.88095692
0.87656305
0.86612505
0.84175483
1.1571163
1.154318
1.1505644
1.1460728
1.1410102
1.1355101
1.1296895
1.1236598
1.1175365
1.1114534
1.10558
1.100132
1.0953852
1.0919542
1.0902207
1.0904738
1.0924762
1.0944404
1.0943226
1.0914783
1.0862792
1.0792507
1.0705898
1.0601876
1.0478734
1.0336167
1.0174677
0.99957779
0.97875899
0.95094149
1.1585865
1.1584936
1.1583253
1.1580698
1.1577192
1.1572683
1.1567153
1.156061
1.1553103
1.1544732
1.1535671
1.1526207
1.1516811
1.1508202
1.1501043
1.1493849
1.1474155
1.1405683
1.128179
1.1128033
1.0967853
1.0809196
1.0644777
1.0464137
1.0263832
1.0050013
0.98346267
0.96264957
0.94403169
0.92267772
1.1586181
1.158615
1.158608
1.1585946
1.1585723
1.1585382
1.1584894
1.1584226
1.1583347
1.1582226
1.1580835
1.1579143
1.1577086
1.1574298
1.1568332
1.1547136
1.146929
1.1250241
1.0932257
1.0575253
1.0237164
0.99601696
0.97492636
0.95876832
0.94586685
0.93498888
0.92551169
0.91719002
0.9096005
0.89558086
1.0928021
1.0385109
0.99430958
0.95730258
0.92554121
0.89784616
0.87350264
0.85210622
0.83349751
0.81772251
0.80491974
0.79534428
0.78934966
0.792555
0.79882074
0.8072731
0.81669521
0.82582039
0.83361908
0.83964623
0.84404345
0.84717106
0.84933256
0.85066514
0.85113771
0.85056702
0.84844913
0.84368004
0.83405695
0.81923566
1.1571167
1.1543283
1.1505919
1.1461214
1.1410838
1.1356169
1.1298492
1.1239191
1.1179683
1.1122003
1.1068179
1.1020634
1.0981998
1.0956096
1.0942148
1.0934529
1.0925034
1.0906118
1.0873165
1.0827194
1.0772044
1.0709567
1.0640118
1.0563007
1.0476796
1.0379954
1.0271598
1.0152248
1.0019361
0.97752017
1.1585865
1.158494
1.1583266
1.1580723
1.1577226
1.157272
1.1567182
1.1560629
1.1553115
1.1544754
1.1535732
1.1525923
1.1514179
1.1499363
1.1479443
1.144086
1.136667
1.124925
1.1093061
1.09209
1.0754986
1.059064
1.0426272
1.026562
1.0109387
0.99593457
0.9806299
0.96414023
0.94615883
0.92606497
1.1586181
1.1586151
1.158608
1.1585947
1.1585723
1.1585381
1.1584886
1.1584203
1.1583296
1.158212
1.1580614
1.1578596
1.1575115
1.1563644
1.1512849
1.1361352
1.1082173
1.0733393
1.039263
1.0092505
0.98408123
0.96443357
0.94950398
0.93754559
0.92754668
0.91866574
0.91095573
0.90427306
0.89768362
0.89024257
1.092795
1.0379441
0.99279315
0.95453387
0.92122186
0.89162538
0.86497665
0.84090062
0.81954741
0.80076683
0.78436587
0.77028276
0.75868915
0.75411244
0.75192881
0.75229872
0.7550465
0.75960386
0.76513408
0.77080499
0.77601393
0.78042231
0.78388168
0.78633889
0.78775989
0.78806548
0.78703821
0.78418494
0.77851844
0.76901923
1.1571148
1.1542733
1.1503902
1.1456512
1.1401966
1.1341338
1.1275605
1.1205456
1.1114615
1.0994614
1.0833515
1.0615872
1.0339188
1.0030069
0.97191774
0.94416827
0.92192146
0.90555676
0.89425086
0.88688684
0.88247296
0.88008795
0.8788802
0.87807576
0.87694496
0.87472168
0.87042223
0.86251205
0.84836288
0.82542409
1.1585864
1.1584913
1.1583148
1.1580394
1.1576503
1.1571346
1.1564816
1.1556817
1.1546841
1.1534169
1.1517383
1.148129
1.1378358
1.1166645
1.0850027
1.0477192
1.0106865
0.97819484
0.95179282
0.93137239
0.91620019
0.90531544
0.89769719
0.89236558
0.8884229
0.88504137
0.88136425
0.87626476
0.86776588
0.85289563
1.1586181
1.158615
1.1586074
1.1585926
1.158567
1.1585264
1.1584655
1.1583783
1.1582563
1.1580867
1.1578446
1.1574172
1.1562701
1.1508447
1.1306452
1.0948713
1.0559006
1.0207829
0.99109792
0.96667545
0.94700936
0.93153879
0.91962134
0.91054186
0.90357658
0.89803363
0.89323985
0.88840617
0.88223074
0.87253458
)
;

boundaryField
{
    maxY
    {
        type            calculated;
        value           nonuniform List<scalar> 
300
(
1.1586176
1.1586176
1.1586176
1.1586176
1.1586176
1.1586176
1.1586176
1.1586176
1.1586176
1.1586176
1.1586144
1.1586145
1.1586145
1.1586145
1.1586145
1.1586145
1.1586145
1.1586145
1.1586145
1.1586144
1.1586069
1.1586075
1.1586074
1.1586074
1.1586074
1.1586074
1.1586074
1.1586074
1.1586075
1.1586069
1.1585921
1.1585941
1.158594
1.1585939
1.1585938
1.1585938
1.1585939
1.158594
1.1585941
1.1585921
1.1585665
1.1585718
1.1585717
1.1585714
1.1585712
1.1585712
1.1585714
1.1585717
1.1585718
1.1585665
1.1585259
1.1585376
1.1585377
1.1585369
1.1585365
1.1585365
1.1585369
1.1585377
1.1585375
1.1585258
1.158465
1.1584881
1.1584888
1.1584873
1.1584865
1.1584865
1.1584873
1.1584888
1.1584881
1.1584649
1.1583779
1.1584199
1.1584221
1.1584192
1.1584176
1.1584176
1.1584192
1.158422
1.1584198
1.1583778
1.1582561
1.1583292
1.1583343
1.1583291
1.1583263
1.1583262
1.1583291
1.1583342
1.158329
1.1582558
1.1580868
1.1582118
1.1582223
1.1582132
1.1582084
1.1582083
1.1582132
1.1582221
1.1582114
1.1580862
1.1578455
1.1580615
1.1580833
1.1580679
1.1580596
1.1580595
1.1580678
1.158083
1.1580609
1.1578441
1.1574215
1.1578605
1.1579143
1.157889
1.1578748
1.1578745
1.1578888
1.1579137
1.1578591
1.1574166
1.1562897
1.1575155
1.1577092
1.157672
1.1576467
1.1576462
1.1576716
1.1577081
1.157511
1.1562695
1.1509768
1.1563871
1.1574318
1.1574105
1.1573658
1.1573634
1.1574092
1.1574293
1.1563638
1.1508442
1.1310006
1.1513714
1.1568418
1.1570728
1.1569685
1.1569326
1.1570576
1.1568327
1.1512844
1.1306447
1.0953228
1.1363045
1.1547575
1.1562433
1.1553254
1.1547903
1.1560295
1.1547131
1.1361346
1.0948708
1.0562973
1.1084047
1.1472668
1.1493497
1.1335393
1.1284032
1.1472607
1.1469284
1.1082168
1.0559001
1.0210812
1.0734776
1.1259979
1.1078846
1.0309587
1.0328105
1.1040814
1.1250236
1.0733388
1.0207825
0.99131615
1.0393351
1.0943514
1.070557
1.0113878
1.0147547
1.0650062
1.0932253
1.0392626
0.99109753
0.96686686
1.0092775
1.0583339
1.0605754
1.0036447
1.0077304
1.0562756
1.0575248
1.0092501
0.96667508
0.9472245
0.98413597
1.0242374
1.0327935
0.99735074
1.0020236
1.0318227
1.023716
0.98408085
0.94700901
0.93180587
0.96447036
0.9963334
1.0064216
0.98496731
0.99047546
1.0068829
0.99601657
0.96443321
0.93153845
0.91994406
0.94953936
0.97515904
0.98608063
0.97137122
0.9770007
0.98678328
0.97492599
0.94950363
0.91962101
0.91090465
0.93762316
0.95903782
0.97012268
0.9580098
0.96313183
0.97050021
0.95876796
0.93754524
0.91054154
0.90394963
0.92769688
0.94626582
0.95695843
0.94510506
0.94900114
0.95659275
0.9458665
0.92754634
0.90357626
0.89837854
0.91900885
0.93561492
0.94547324
0.93271299
0.93432773
0.94339986
0.93498854
0.91866541
0.89803332
0.89350873
0.91124868
0.92638902
0.93455902
0.92121876
0.91878619
0.92247261
0.92551136
0.9109554
0.89323954
0.88853173
0.90441859
0.91820487
0.92086651
0.91132753
0.90807976
0.8969787
0.91718969
0.90427274
0.88840586
0.88207787
0.89755904
0.91047124
0.89815744
0.89234536
0.88120536
0.87877738
0.90960017
0.8976833
0.88223043
0.87183704
0.88968363
0.90095654
0.87125891
0.85203084
0.83719466
0.85796926
0.89558054
0.89024226
0.87253428
)
;
    }
    minX
    {
        type            calculated;
        value           nonuniform List<scalar> 
40
(
1.158622
1.158621
1.1586199
1.1586189
1.158622
1.158621
1.1586199
1.1586189
1.158622
1.158621
1.1586199
1.1586189
1.158622
1.158621
1.1586199
1.1586189
1.158622
1.158621
1.1586199
1.1586189
1.158622
1.158621
1.1586199
1.1586189
1.158622
1.158621
1.1586199
1.1586189
1.158622
1.158621
1.1586199
1.1586189
1.158622
1.158621
1.1586199
1.1586189
1.158622
1.158621
1.1586199
1.1586189
)
;
    }
    maxX
    {
        type            calculated;
        value           nonuniform List<scalar> 
40
(
0.76742644
0.82401575
0.85183399
0.87184166
0.8157148
0.97753227
0.92698432
0.88970098
0.83377757
0.95636335
0.929701
0.90097245
0.74588113
0.87617737
0.88853434
0.87139325
0.68860797
0.78465717
0.83618471
0.85232844
0.6877709
0.77434613
0.82357159
0.83774515
0.7428148
0.86790046
0.87782712
0.85809402
0.84163497
0.95086774
0.92260541
0.89559974
0.81924366
0.97745704
0.92610613
0.89025748
0.76903216
0.82542171
0.85289795
0.87254138
)
;
    }
    minZ
    {
        type            calculated;
        value           nonuniform List<scalar> 
120
(
1.0927946
1.1571148
1.1585864
1.1586181
1.0379453
1.1542734
1.1584913
1.158615
0.99279924
1.1503905
1.1583148
1.1586074
0.95454802
1.1456521
1.1580395
1.1585926
0.92124842
1.1401986
1.1576504
1.158567
0.891669
1.1341379
1.1571349
1.1585264
0.86504178
1.1275673
1.1564822
1.1584655
0.84099053
1.1205559
1.1556828
1.1583785
0.81966591
1.1114731
1.1546859
1.1582566
0.80091655
1.099485
1.1534203
1.1580873
0.78454763
1.0834277
1.1517469
1.157846
0.77049465
1.0617745
1.148177
1.157422
0.75892727
1.034256
1.1380185
1.1562903
0.75437638
1.0034817
1.1170512
1.1509773
0.75220714
0.97246953
1.0855726
1.1310011
0.75257149
0.9447236
1.0483736
1.0953232
0.75528455
0.92243326
1.0113094
1.0562977
0.75977572
0.90602743
0.97873586
1.0210816
0.76522023
0.89472233
0.95226612
0.99131654
0.7708049
0.88740176
0.93182454
0.96686723
0.77594062
0.88304422
0.91666987
0.94722485
0.78029571
0.88069928
0.90581945
0.93180621
0.78371682
0.87949138
0.89822805
0.91994439
0.78613159
0.87862612
0.89289451
0.91090498
0.78747447
0.87736077
0.88890538
0.90394995
0.78763318
0.87493587
0.88542487
0.89837886
0.78638281
0.87039815
0.88159672
0.89350904
0.78323559
0.8622011
0.87627275
0.88853204
0.77720485
0.84759174
0.86738084
0.88207818
0.76741175
0.82402251
0.85183694
0.87183734
)
;
    }
    maxZ
    {
        type            calculated;
        value           nonuniform List<scalar> 
120
(
1.092795
1.1571148
1.1585864
1.1586181
1.0379441
1.1542733
1.1584913
1.158615
0.99279315
1.1503902
1.1583148
1.1586074
0.95453387
1.1456512
1.1580394
1.1585926
0.92122186
1.1401966
1.1576503
1.158567
0.89162538
1.1341338
1.1571346
1.1585264
0.86497665
1.1275605
1.1564816
1.1584655
0.84090062
1.1205456
1.1556817
1.1583783
0.81954741
1.1114615
1.1546841
1.1582563
0.80076683
1.0994614
1.1534169
1.1580867
0.78436587
1.0833515
1.1517383
1.1578446
0.77028276
1.0615872
1.148129
1.1574172
0.75868915
1.0339188
1.1378358
1.1562701
0.75411244
1.0030069
1.1166645
1.1508447
0.75192881
0.97191774
1.0850027
1.1306452
0.75229872
0.94416827
1.0477192
1.0948713
0.7550465
0.92192146
1.0106865
1.0559006
0.75960386
0.90555676
0.97819484
1.0207829
0.76513408
0.89425086
0.95179282
0.99109792
0.77080499
0.88688684
0.93137239
0.96667545
0.77601393
0.88247296
0.91620019
0.94700936
0.78042231
0.88008795
0.90531544
0.93153879
0.78388168
0.8788802
0.89769719
0.91962134
0.78633889
0.87807576
0.89236558
0.91054186
0.78775989
0.87694496
0.8884229
0.90357658
0.78806548
0.87472168
0.88504137
0.89803363
0.78703821
0.87042223
0.88136425
0.89323985
0.78418494
0.86251205
0.87626476
0.88840617
0.77851844
0.84836288
0.86776588
0.88223074
0.76901923
0.82542409
0.85289563
0.87253458
)
;
    }
    topAir_to_rightSolid
    {
        type            calculated;
        value           nonuniform List<scalar> 
130
(
0.51256893
0.50807445
0.50351579
0.49912593
0.49507727
0.49145134
0.48828316
0.48557749
0.483325
0.48153593
0.48020437
0.47932164
0.47887967
0.51607832
0.51072601
0.50543918
0.50047698
0.4960059
0.49207459
0.48869376
0.48584556
0.48350421
0.48165834
0.48028929
0.47938234
0.47892958
0.52332204
0.51594259
0.50905092
0.50293083
0.49764403
0.49315049
0.48937618
0.48627538
0.4837831
0.48184231
0.48041692
0.47947545
0.47900446
0.53455852
0.52317482
0.51361507
0.50580025
0.49944119
0.49426007
0.49006595
0.48670606
0.48405254
0.48200884
0.48052382
0.47955025
0.47906488
0.54838825
0.53017924
0.51742026
0.50797084
0.50071409
0.49501361
0.49051985
0.48697691
0.48421123
0.48210549
0.48058312
0.47958833
0.47909262
0.54825463
0.53006944
0.51733448
0.50790986
0.5006844
0.49501894
0.49052201
0.48696329
0.48419251
0.4820862
0.48056153
0.4795635
0.47906654
0.53420593
0.52289265
0.51340483
0.50564836
0.49933712
0.49420089
0.49001505
0.48664442
0.48398507
0.48194743
0.48046682
0.47949532
0.47900884
0.52291974
0.51561517
0.50878656
0.50272864
0.49748802
0.49302787
0.48927036
0.48617273
0.48368142
0.48174766
0.48033325
0.47940195
0.47893548
0.51571718
0.51044529
0.50521324
0.50031507
0.49588114
0.49195755
0.48855929
0.48570372
0.48337086
0.48153438
0.48017724
0.47927989
0.47884032
0.51223299
0.50782127
0.5033269
0.49899682
0.49497685
0.49134395
0.48814433
0.48542363
0.48318044
0.48140646
0.48008703
0.47921147
0.4787809
)
;
    }
    topAir_to_heater
    {
        type            calculated;
        value           nonuniform List<scalar> 
40
(
0.523837
0.52259113
0.52014513
0.51670417
0.52976097
0.52826094
0.52529282
0.52109822
0.54268609
0.5406393
0.53651648
0.53054023
0.56523872
0.56240483
0.5563807
0.5469308
0.60196078
0.59919914
0.5915971
0.57661303
0.60174822
0.59901888
0.59144365
0.57647201
0.5646693
0.56190223
0.55594259
0.54653309
0.54196679
0.53995301
0.53590456
0.53004244
0.52902897
0.52757241
0.52470378
0.52063089
0.52313601
0.52193607
0.51959201
0.51626585
)
;
    }
    topAir_to_leftSolid
    {
        type            calculated;
        value           nonuniform List<scalar> 
130
(
0.46850599
0.4685416
0.46861973
0.468733
0.46886728
0.46901515
0.46917539
0.46934607
0.4695305
0.46973327
0.46991307
0.4700457
0.47011845
0.46846646
0.46850039
0.46857587
0.46868902
0.46882646
0.46898063
0.46915241
0.46933744
0.469538
0.46976109
0.46995305
0.47009897
0.47018221
0.46840181
0.46843731
0.46851092
0.46862374
0.46876764
0.46893493
0.46912541
0.46932852
0.46954413
0.46978399
0.46999458
0.47016399
0.47026433
0.46835187
0.46838983
0.46847079
0.46858708
0.46872954
0.46890576
0.46910853
0.46931949
0.46953856
0.469779
0.47001105
0.47020955
0.47033972
0.46836084
0.4683948
0.46846859
0.46857868
0.46872073
0.4688964
0.46910279
0.46930972
0.46952147
0.46974682
0.4699687
0.47016624
0.47031553
0.46837635
0.46840911
0.4684774
0.46858087
0.46871812
0.46888918
0.46908734
0.46927982
0.46947353
0.46967311
0.4698634
0.47002173
0.47013016
0.46839623
0.46842813
0.46849267
0.46858756
0.46871447
0.46887141
0.46904218
0.46921227
0.46938642
0.46956307
0.46972947
0.46985206
0.46992176
0.46843713
0.46846623
0.4685272
0.46861639
0.46872844
0.46886109
0.46899835
0.46914194
0.46929525
0.46945938
0.4695986
0.46970486
0.46976304
0.46847995
0.46850541
0.46856457
0.46865109
0.46875246
0.46886252
0.46898137
0.46910693
0.46924104
0.46938492
0.46950632
0.46959668
0.46964619
0.46850728
0.46853331
0.46859163
0.46868016
0.46877792
0.46888103
0.46898963
0.46910408
0.4692252
0.46935455
0.46946327
0.46954344
0.46958676
)
;
    }
}


// ************************************************************************* //
