/*--------------------------------*- C++ -*----------------------------------*\
| =========                 |                                                 |
| \\      /  F ield         | OpenFOAM: The Open Source CFD Toolbox           |
|  \\    /   O peration     | Version:  v2012                                 |
|   \\  /    A nd           | Website:  www.openfoam.com                      |
|    \\/     M anipulation  |                                                 |
\*---------------------------------------------------------------------------*/
FoamFile
{
    version     2.0;
    format      ascii;
    class       volScalarField;
    location    "190/topAir";
    object      T;
}
// * * * * * * * * * * * * * * * * * * * * * * * * * * * * * * * * * * * * * //

dimensions      [0 0 0 1 0 0 0];


internalField   nonuniform List<scalar> 
1200
(
318.07132
334.8795
350.10763
364.13735
377.29951
389.8157
401.81477
413.30615
424.05882
433.98597
443.04071
451.12128
457.99716
460.76008
462.08882
461.8651
460.20603
457.48566
454.23066
450.93964
447.95501
445.45482
443.5103
442.14795
441.39396
441.30501
442.00669
443.78277
447.22631
452.93347
300.3905
301.12997
302.14635
303.39603
304.84715
306.47623
308.26212
310.19095
312.72577
316.13553
320.82092
327.36356
336.07374
346.38029
357.42639
367.92376
376.81453
383.63767
388.48505
391.68983
393.62268
394.67074
395.21278
395.60197
396.17252
397.27051
399.34164
403.13822
410.08684
421.81642
300.00869
300.0333
300.07903
300.15038
300.25124
300.38502
300.55455
300.76244
301.0221
301.3524
301.79024
302.72856
305.43088
311.16387
320.18675
331.54782
343.69894
355.13767
365.00928
373.01654
379.18336
383.72544
386.96851
389.27999
391.02695
392.56404
394.26867
396.66412
400.73051
408.04285
300.00021
300.00102
300.00298
300.00681
300.01343
300.02395
300.03971
300.06227
300.09383
300.1377
300.20025
300.31023
300.60416
301.99176
307.32567
317.33617
329.06035
340.40933
350.63039
359.49684
366.95164
373.02362
377.83341
381.58286
384.51878
386.90328
389.01199
391.191
394.05321
398.68186
318.07004
334.69837
349.57642
363.08801
375.54385
387.12159
397.9012
407.88044
416.97181
424.99781
431.73873
436.91771
440.21697
438.41752
434.96795
430.42764
425.51573
420.89924
417.04619
414.11029
411.97906
410.46006
409.41321
408.79586
408.6531
409.10718
410.40218
413.10263
418.40232
426.11832
300.39003
301.11569
302.09351
303.27178
304.61044
306.07647
307.63836
309.26071
310.90584
312.51708
314.0358
315.38951
316.4976
317.24454
317.64985
317.87843
318.16691
318.72313
319.6722
320.99649
322.6041
324.45709
326.56054
328.94573
331.65891
334.73445
338.18195
341.99397
346.29514
355.54541
300.00866
300.03262
300.07597
300.14186
300.23251
300.34938
300.49311
300.66335
300.85877
301.07645
301.31166
301.56734
301.87297
302.25844
302.77865
303.7939
305.75143
308.87458
313.09548
317.8964
322.70056
327.62586
332.73939
337.93949
343.19857
348.45577
353.8915
359.89865
366.77263
374.96142
300.00021
300.00099
300.00282
300.00627
300.01205
300.02092
300.03373
300.05139
300.07488
300.10531
300.14425
300.19636
300.28583
300.57886
301.88825
305.89117
313.5908
323.79391
334.43066
344.39047
353.18853
360.39007
366.05702
370.70923
374.67579
378.21787
381.43877
384.31936
387.25651
390.68448
318.07287
334.73764
349.66426
363.23613
375.76955
387.451
398.37681
408.58885
418.09285
426.8362
434.71079
441.54589
447.04144
447.04161
445.12555
440.98375
434.53193
426.56581
418.50412
411.43587
405.78668
401.51851
398.44834
396.43395
395.40647
395.34386
396.29524
398.70158
404.30106
416.83806
300.39017
301.11845
302.10092
303.28501
304.63071
306.10621
307.68329
309.33409
311.02862
312.73044
314.39138
315.94818
317.31929
318.32192
318.84185
318.7964
318.24472
317.678
317.68052
318.45989
319.94419
322.01491
324.64234
327.87627
331.76171
336.26685
341.31574
346.95755
353.77494
363.42708
300.00867
300.03273
300.07632
300.14253
300.23343
300.35039
300.49398
300.66401
300.85931
301.07739
301.31384
301.56124
301.80742
302.03396
302.22403
302.41484
302.9045
304.63256
307.88779
312.11322
316.73025
321.52567
326.70443
332.55385
339.1058
346.04491
352.86841
359.57903
366.40467
373.81543
300.00021
300.001
300.00283
300.0063
300.01208
300.02089
300.03354
300.05083
300.07358
300.10258
300.1386
300.1824
300.2356
300.30754
300.46072
301.00303
302.96832
308.69108
317.61782
328.42709
339.36032
348.86469
356.43986
362.43154
367.32338
371.50494
375.20476
378.54904
381.76448
385.79617
318.07623
334.75503
349.71094
363.33147
375.94374
387.7541
398.89196
409.44775
419.48918
429.06409
438.21001
446.94928
455.17527
458.21115
460.57882
461.80102
461.27209
459.67221
458.00687
456.43652
454.81481
453.03072
451.06156
449.08329
447.41977
446.40149
446.64593
450.00579
457.57948
466.04223
300.39028
301.11959
302.10512
303.29524
304.65143
306.14472
307.75176
309.45289
311.23069
313.06783
314.94418
316.83598
318.77831
320.44706
321.762
322.49054
322.47998
322.44403
322.86029
323.70295
325.04716
326.92828
329.41334
332.63279
336.69774
341.63467
347.53177
354.7472
367.65486
396.68395
300.00867
300.03278
300.07655
300.14315
300.23484
300.35319
300.49921
300.67339
300.87572
301.10568
301.36178
301.64107
301.93893
302.23723
302.50417
302.70223
303.13401
305.69661
309.35976
313.03827
317.45138
322.66032
328.97826
336.53809
344.90799
353.2116
361.06655
369.08855
376.92923
391.27159
300.00021
300.001
300.00284
300.00634
300.01217
300.0211
300.03394
300.05158
300.07492
300.10493
300.1426
300.18896
300.24524
300.31308
300.40072
300.61623
302.41928
313.73803
324.67728
327.73296
336.54891
345.36773
352.49202
358.29031
363.21909
367.63132
371.9247
377.45491
386.99852
398.94641
318.07526
334.75712
349.72069
363.3531
375.98201
387.81591
398.98693
409.58956
419.69653
429.36539
438.63534
447.51841
455.78908
457.79753
459.34781
459.85967
459.47543
460.84569
464.4221
468.83078
473.15504
477.25139
480.98194
484.21892
486.87649
488.97275
490.76936
492.99586
497.01625
504.75065
300.39027
301.11993
302.10661
303.29899
304.65887
306.15783
307.77344
309.48737
311.28416
313.14961
315.06898
317.08012
319.51359
321.38807
322.74168
323.43028
323.57325
324.36731
325.62152
327.40672
329.83438
332.39902
335.26298
339.21106
345.21305
354.04495
366.57627
384.03719
408.41567
442.92988
300.00867
300.0328
300.07664
300.14343
300.23548
300.35444
300.50147
300.67724
300.88207
301.1159
301.37815
301.66857
301.99106
302.3198
302.61151
302.84254
304.05939
308.02338
310.85949
313.38506
316.69942
321.70156
329.0963
338.69428
349.19477
358.57763
364.89337
371.9045
387.65005
415.88028
300.00021
300.001
300.00285
300.00636
300.01222
300.0212
300.03416
300.05199
300.07565
300.10619
300.14474
300.19266
300.2518
300.32467
300.4278
300.85508
306.63738
337.14788
343.67186
346.32328
348.50883
352.89044
357.82979
362.82047
367.77453
372.66081
377.31058
381.40578
389.51915
407.9496
318.07424
334.75516
349.71809
363.35012
375.97874
387.81232
398.98312
409.58591
419.69351
429.36376
438.63711
447.53032
455.8134
457.82228
459.23109
459.51435
459.07506
460.50103
464.12258
468.58868
472.98613
477.16752
480.98321
484.28503
486.9592
489.02707
490.80084
493.11627
497.32261
505.29978
300.39025
301.11986
302.10649
303.2988
304.65862
306.15749
307.77299
309.4868
311.28344
313.14867
315.06754
317.06994
319.4775
321.2417
322.55407
323.19077
323.41973
324.2736
325.56333
327.4185
330.03091
332.99754
336.55246
341.45385
348.66832
358.98678
372.94264
391.32435
415.5321
448.60217
300.00867
300.0328
300.07664
300.14342
300.23546
300.35443
300.50145
300.67721
300.88204
301.11586
301.37808
301.66815
301.98918
302.31247
302.59542
302.84193
304.35412
308.12234
310.87999
313.34234
316.51202
321.19343
328.06235
336.92501
346.88288
356.17041
363.49391
373.63695
392.09877
422.08546
300.00021
300.001
300.00285
300.00636
300.01222
300.0212
300.03416
300.05199
300.07566
300.10621
300.14478
300.19273
300.25194
300.32529
300.43713
300.99448
308.03307
336.54337
342.53159
344.91919
346.88358
350.92797
355.76797
360.89095
366.26465
372.01676
378.30954
382.76989
394.44337
415.17901
318.07333
334.74962
349.7039
363.32375
375.93569
387.74608
398.8849
409.44285
419.48772
429.06907
438.22464
446.97866
455.22977
458.24581
460.53507
461.58496
460.86115
459.19457
457.68753
456.4699
455.28419
453.93698
452.3449
450.59756
448.91115
447.62006
447.58911
451.40234
459.17071
467.8576
300.39022
301.11941
302.1048
303.29475
304.65078
306.14387
307.75071
309.4516
311.22914
313.06606
314.94223
316.83289
318.74854
320.4044
321.68943
322.36425
322.336
322.36057
322.88264
323.82866
325.23171
327.12927
329.60479
332.80303
336.8752
341.97883
348.37232
355.89932
370.4099
400.34012
300.00867
300.03277
300.07653
300.14313
300.23481
300.35315
300.49916
300.67333
300.87565
301.10561
301.3617
301.64086
301.93767
302.23356
302.49526
302.69402
303.25482
306.01091
309.75288
313.35429
317.48648
322.31252
328.17537
335.27175
343.42027
352.3827
363.10405
373.35758
379.67125
396.03838
300.00021
300.001
300.00284
300.00634
300.01217
300.02109
300.03394
300.05158
300.07493
300.10495
300.14263
300.18903
300.24535
300.31341
300.40466
300.67183
302.96994
314.81874
326.36947
329.06706
336.86558
345.2095
352.24102
358.15094
363.35793
368.43929
376.79773
387.50708
395.53317
405.12596
318.07056
334.73347
349.65891
363.23079
375.76573
387.45019
398.3815
408.60155
418.11633
426.87358
434.76529
441.6198
447.13404
447.14398
445.21464
441.00956
434.43389
426.32838
418.16829
411.05446
405.38565
401.08977
397.94648
395.77647
394.48438
394.00129
394.55559
396.53333
401.31209
412.93075
300.39012
301.11831
302.10068
303.28467
304.63032
306.10585
307.68305
309.3341
311.02902
312.73132
314.39272
315.94963
317.31877
318.31581
318.82193
318.74794
318.16371
317.5927
317.62686
318.45456
319.97875
322.06255
324.668
327.85351
331.70631
336.28156
341.61893
347.73303
355.12951
365.51794
300.00867
300.03273
300.07632
300.14251
300.23342
300.35038
300.49399
300.66406
300.85941
301.07756
301.31407
301.56147
301.80748
302.03326
302.22128
302.41042
302.92949
304.74806
308.09469
312.35166
316.91338
321.56503
326.53193
332.16876
338.65126
345.85623
353.43075
361.07215
368.19309
376.71435
300.00021
300.001
300.00283
300.0063
300.01208
300.02089
300.03354
300.05084
300.07361
300.10263
300.13869
300.18256
300.23587
300.30821
300.46308
301.01461
303.05771
308.95841
317.94501
328.67836
339.53315
348.97566
356.52506
362.53355
367.47846
371.75383
375.56057
378.96804
382.13008
388.11204
318.06913
334.69712
349.57582
363.08957
375.54954
387.13378
397.92275
407.91459
417.02171
425.06663
431.82758
437.02652
440.34546
438.56456
435.12457
430.5687
425.60128
420.89844
416.96084
413.9678
411.81115
410.29081
409.24664
408.60554
408.37866
408.65266
409.67273
411.98849
416.74188
424.2814
300.39001
301.11565
302.09347
303.27181
304.61066
306.07706
307.63954
309.26272
310.90891
312.5213
314.04107
315.39592
316.5055
317.25376
317.65817
317.8795
318.15577
318.7076
319.67349
321.03077
322.67437
324.55676
326.67517
329.05994
331.76768
334.86296
338.39546
342.37365
346.91453
355.57954
300.00866
300.03261
300.07597
300.14187
300.23253
300.34943
300.49322
300.66355
300.85911
301.07698
301.31247
301.56888
301.87648
302.26541
302.78993
303.81105
305.794
308.9859
313.33637
318.27592
323.18587
328.20106
333.37508
338.59224
343.82493
349.00479
354.4517
360.51388
367.36531
375.33644
300.00021
300.00099
300.00282
300.00628
300.01205
300.02093
300.03375
300.05142
300.07493
300.1054
300.14442
300.19673
300.287
300.5849
301.91107
305.9369
313.64395
323.83579
334.454
344.39981
353.20832
360.40396
366.0708
370.74004
374.7366
378.35926
381.56157
384.38135
387.2029
390.43932
318.0712
334.8799
350.10978
364.14275
377.31039
389.83477
401.84503
413.35035
424.12013
434.06712
443.14338
451.24538
458.1409
460.92135
462.25987
462.03257
460.35112
457.58917
454.28181
450.93959
447.91269
445.38255
443.41702
442.0314
441.23403
441.06293
441.63861
443.24552
446.47171
451.98669
300.39049
301.12998
302.14643
303.39626
304.8477
306.47731
308.26399
310.1938
312.72905
316.14234
320.84349
327.42131
336.18334
346.54427
357.62931
368.14016
377.02372
383.83707
388.68986
391.91724
393.87749
394.94489
395.48761
395.84993
396.36037
397.36779
399.33059
402.99289
409.71409
421.10017
300.00869
300.0333
300.07903
300.15039
300.25128
300.3851
300.55471
300.76273
301.02258
301.3533
301.79251
302.74123
305.47992
311.27164
320.35494
331.75488
343.91077
355.33409
365.19079
373.19763
379.37775
383.93907
387.19734
389.51073
391.23931
392.73414
394.37266
396.66774
400.5527
407.53635
300.00021
300.00102
300.00298
300.00681
300.01343
300.02396
300.03973
300.06231
300.09391
300.13786
300.20061
300.31148
300.60942
302.02655
307.42242
317.46716
329.1841
340.50894
350.70773
359.56816
367.03514
373.1307
377.96614
381.73503
384.67767
387.05202
389.12923
391.24642
393.98507
398.36328
)
;

boundaryField
{
    maxY
    {
        type            zeroGradient;
    }
    minX
    {
        type            fixedValue;
        value           uniform 300;
    }
    maxX
    {
        type            inletOutlet;
        inletValue      uniform 300;
        value           nonuniform List<scalar> 
40
(
452.92482
421.81989
408.04427
398.67987
426.11273
355.57509
374.96417
390.67699
416.88151
363.4457
373.86849
385.78948
466.00789
396.70757
391.19022
398.88503
504.7669
442.9785
415.68088
407.80729
505.38124
448.87713
422.04711
414.90633
467.93157
400.49086
395.96174
405.0672
412.98955
365.54626
376.74385
388.10384
424.27727
355.60246
375.31974
390.43278
451.97912
421.10139
407.53525
398.36016
)
;
    }
    minZ
    {
        type            zeroGradient;
    }
    maxZ
    {
        type            zeroGradient;
    }
    topAir_to_rightSolid
    {
        type            compressible::turbulentTemperatureCoupledBaffleMixed;
        refValue        nonuniform List<scalar> 
130
(
678.19748
684.19922
690.3961
696.47043
702.16803
707.3503
711.94123
715.90924
719.24635
721.91889
723.92051
725.25286
725.92051
673.59648
680.65829
687.78022
694.60152
700.86445
706.46521
711.35371
715.52473
718.9901
721.74557
723.80238
725.17028
725.85346
664.26899
673.77448
682.90033
691.21385
698.55982
704.92719
710.36556
714.89643
718.57998
721.47451
723.6147
725.03397
725.74294
650.29244
664.44582
676.81617
687.27603
696.02909
703.32743
709.34856
714.24695
718.16347
721.20896
723.43715
724.90371
725.63559
633.88871
655.66355
671.83369
684.33274
694.2515
702.24692
708.68073
713.8369
717.91435
721.05015
723.33404
724.83347
725.58113
634.04334
655.79948
671.94519
684.41497
694.29271
702.23937
708.67757
713.85684
717.94209
721.07899
723.36649
724.87089
725.62043
650.7219
664.80455
677.09338
687.48237
696.17389
703.41124
709.42176
714.33694
718.26318
721.30055
723.52251
724.98622
725.7199
664.78023
674.20254
683.25534
691.49203
698.77907
705.1027
710.51944
715.0477
718.73151
721.61684
723.74146
725.14611
725.84874
674.06828
681.03272
688.08793
694.8264
701.04088
706.63338
711.54961
715.73381
719.18864
721.93165
723.97167
725.32586
725.98937
678.64232
684.5404
690.65525
696.65069
702.31054
707.50496
712.14379
716.13626
719.46166
722.1132
724.09766
725.41987
726.0706
)
;
        refGradient     uniform 0;
        valueFraction   uniform 0.99967867;
        value           nonuniform List<scalar> 
130
(
678.12656
684.12533
690.31916
696.39058
702.08554
707.26552
711.85454
715.82102
719.15704
721.82895
723.83049
725.16352
725.83279
673.51528
680.57358
687.69228
694.5107
700.77113
706.36976
711.25648
715.42612
718.89052
721.64553
723.70254
725.0717
725.75715
664.19261
673.69246
682.8131
691.12213
698.46437
704.8287
710.26468
714.79376
718.47611
721.37002
723.51029
724.93091
725.6437
650.2312
664.37949
676.74536
687.20134
695.95101
703.24637
709.26493
714.16121
718.07615
721.12074
723.3493
724.8178
725.55216
633.8331
655.60209
671.76845
684.26488
694.18177
702.17582
708.6086
713.76397
717.84077
720.97615
723.26002
724.76026
725.51017
633.98757
655.73789
671.87984
684.34703
694.22295
702.16827
708.60547
713.78393
717.86854
721.005
723.29251
724.79779
725.54966
650.66036
664.738
677.02249
687.40777
696.09606
703.33058
709.33861
714.25166
718.17624
721.21263
723.43511
724.90084
725.63706
664.70361
674.12027
683.16787
691.40009
698.68341
705.004
710.4183
714.94469
718.62716
721.51174
723.63633
725.04206
725.74821
673.98692
680.94786
687.99983
694.73545
700.94744
706.53782
711.45225
715.63504
719.08885
721.8313
723.87141
725.22669
725.89243
678.57128
684.4664
690.57821
696.57076
702.22798
707.4201
712.05699
716.04792
719.3722
722.02308
724.00741
725.33024
725.98253
)
;
        Tnbr            T;
        thicknessLayers List<scalar> 0();
        kappaLayers     List<scalar> 0();
        kappaMethod     fluidThermo;
        kappa           none;
        alphaAni        none;
        alpha           none;
        field           T;
    }
    topAir_to_heater
    {
        type            compressible::turbulentTemperatureCoupledBaffleMixed;
        refValue        nonuniform List<scalar> 
40
(
663.60484
665.18681
668.31562
672.76775
656.18974
658.05454
661.77507
667.10473
640.55519
642.98139
647.92477
655.22695
614.98815
618.08697
624.78042
635.57814
577.46252
580.12415
587.58049
602.85352
577.66654
580.2988
587.73309
603.00116
615.60845
618.63997
625.27297
636.04089
641.40548
643.79879
648.66475
655.84248
657.09785
658.9135
662.51809
667.70364
664.4942
666.02178
669.02717
673.33901
)
;
        refGradient     uniform 0;
        valueFraction   uniform 0.99967867;
        value           nonuniform List<scalar> 
40
(
663.53966
665.12154
668.24928
672.69944
656.11976
657.98285
661.70072
667.0271
640.493
642.91781
647.85827
655.15604
614.93777
618.03636
624.72806
635.52213
577.42406
580.08534
587.53945
602.80745
577.62803
580.2599
587.69189
602.95491
615.55789
618.58917
625.22037
635.9846
641.34306
643.73498
648.59802
655.77133
657.02762
658.84158
662.44355
667.62584
664.42879
665.9563
668.96065
673.27057
)
;
        Tnbr            T;
        thicknessLayers List<scalar> 0();
        kappaLayers     List<scalar> 0();
        kappaMethod     fluidThermo;
        kappa           none;
        alphaAni        none;
        alpha           none;
        field           T;
    }
    topAir_to_leftSolid
    {
        type            compressible::turbulentTemperatureCoupledBaffleMixed;
        refValue        nonuniform List<scalar> 
130
(
742.04084
741.979
741.85035
741.66653
741.44983
741.21198
740.95492
740.68171
740.38725
740.06437
739.77823
739.56683
739.45013
742.10346
742.04433
741.91998
741.73647
741.51497
741.26742
740.99248
740.69708
740.3777
740.02345
739.71892
739.48759
739.35559
742.20591
742.14427
742.02281
741.83976
741.60796
741.33958
741.03499
740.71092
740.36767
739.98676
739.6526
739.38383
739.22425
742.28505
742.2195
742.08637
741.89778
741.66819
741.3856
741.06149
740.72491
740.376
739.99391
739.62554
739.31043
739.10313
742.27084
742.21161
742.08986
741.91108
741.68211
741.40038
741.07052
740.74029
740.40289
740.04452
739.69208
739.37836
739.14095
742.24625
742.18894
742.0759
741.90762
741.68626
741.41181
741.09493
740.7875
740.47852
740.16068
739.85788
739.60572
739.43243
742.21475
742.1588
742.05171
741.89702
741.69204
741.43993
741.16633
740.8942
740.61603
740.33426
740.06899
739.87304
739.76061
742.14993
742.09844
741.99703
741.8514
741.66998
741.45634
741.23577
741.00556
740.76038
740.49852
740.27639
740.10667
740.01321
742.08209
742.03638
741.93787
741.79652
741.63204
741.45418
741.26276
741.0611
740.84632
740.61658
740.42287
740.27868
740.19956
742.03879
741.99214
741.89484
741.75016
741.59119
741.42403
741.24844
741.06385
740.86905
740.66162
740.48712
740.35805
740.28749
)
;
        refGradient     uniform 0;
        valueFraction   uniform 0.99967867;
        value           nonuniform List<scalar> 
130
(
741.90461
741.84819
741.72448
741.54522
741.33282
741.09907
740.84595
740.57651
740.2856
739.96602
739.68287
739.47415
739.35969
741.9672
741.91344
741.79391
741.6148
741.39737
741.15362
740.88224
740.59014
740.27377
739.92222
739.61996
739.39037
739.25946
742.06962
742.01336
741.89674
741.71811
741.4904
741.22586
740.92488
740.6042
740.26411
739.88613
739.55461
739.28812
739.13036
742.14874
742.08858
741.96029
741.77614
741.55067
741.27197
740.95154
740.61846
740.27289
739.894
739.52868
739.21649
739.01189
742.13453
742.08069
741.96378
741.78944
741.5646
741.28677
740.9606
740.63388
740.29984
739.94469
739.59534
739.28458
739.0499
742.10995
742.05802
741.94983
741.78598
741.56874
741.29819
740.985
740.68107
740.37544
740.06082
739.76108
739.51187
739.3413
742.07846
742.02789
741.92564
741.77537
741.57451
741.32627
741.05635
740.78769
740.51284
740.23425
739.972
739.77893
739.66918
742.01366
741.96754
741.87096
741.72974
741.55241
741.34259
741.1256
740.89875
740.65671
740.39774
740.17822
740.01076
739.9191
741.94584
741.90549
741.8118
741.67483
741.51441
741.34032
741.15243
740.95405
740.74226
740.51519
740.3237
740.18123
740.1032
741.90256
741.86132
741.76895
741.62882
741.47414
741.31106
741.13938
740.95854
740.76727
740.5631
740.39157
740.26515
740.19683
)
;
        Tnbr            T;
        thicknessLayers List<scalar> 0();
        kappaLayers     List<scalar> 0();
        kappaMethod     fluidThermo;
        kappa           none;
        alphaAni        none;
        alpha           none;
        field           T;
    }
}


// ************************************************************************* //
