/*--------------------------------*- C++ -*----------------------------------*\
| =========                 |                                                 |
| \\      /  F ield         | OpenFOAM: The Open Source CFD Toolbox           |
|  \\    /   O peration     | Version:  v2012                                 |
|   \\  /    A nd           | Website:  www.openfoam.com                      |
|    \\/     M anipulation  |                                                 |
\*---------------------------------------------------------------------------*/
FoamFile
{
    version     2.0;
    format      ascii;
    class       volVectorField;
    location    "190/topAir";
    object      U;
}
// * * * * * * * * * * * * * * * * * * * * * * * * * * * * * * * * * * * * * //

dimensions      [0 1 -1 0 0 0 0];


internalField   nonuniform List<vector> 
1200
(
(0.1027791 -0.0019511034 0.00087484788)
(0.11305699 -0.0021405672 0.0013055)
(0.12190492 -0.0020793727 0.0014009842)
(0.12873041 -0.0017269423 0.0013093429)
(0.13463895 -0.0011286934 0.0010530425)
(0.14014073 -0.00041881323 0.00060091546)
(0.14534688 0.00032505049 -8.3768697e-05)
(0.15048227 0.0010598609 -0.0010504729)
(0.15572619 0.0017970747 -0.0024696618)
(0.16126384 0.0026630103 -0.0045713573)
(0.16728493 0.0038436424 -0.0076357214)
(0.17372527 0.0056426315 -0.01199328)
(0.17981119 0.0084296884 -0.017934939)
(0.18450535 0.012117951 -0.025567998)
(0.18733595 0.016734267 -0.034641623)
(0.18829057 0.021688106 -0.044530242)
(0.18769916 0.026218151 -0.054363279)
(0.18620218 0.029830328 -0.063254593)
(0.18440138 0.032412863 -0.070556749)
(0.18263404 0.034015518 -0.076015372)
(0.18111019 0.034718901 -0.079722782)
(0.1800767 0.034660628 -0.081932819)
(0.17976822 0.034030756 -0.082901528)
(0.18026883 0.033036718 -0.082807972)
(0.18141082 0.031892107 -0.081732117)
(0.18269674 0.030847858 -0.079636935)
(0.18313987 0.03031369 -0.076313167)
(0.18085142 0.031169506 -0.071262215)
(0.1728234 0.035443128 -0.063554975)
(0.12904084 0.049246074 -0.050986453)
(0.098759409 -0.0031470146 0.00086258888)
(0.098504063 -0.003985256 0.0013006562)
(0.098594998 -0.0041717548 0.0014888946)
(0.098935678 -0.0038915819 0.0015890661)
(0.099676071 -0.0032992414 0.0016344789)
(0.10086076 -0.0025914028 0.0016177119)
(0.10245464 -0.0018917229 0.0015257243)
(0.1044598 -0.0012996968 0.0013319142)
(0.10722618 -0.00067282867 0.00096597706)
(0.11106433 0.00027354501 0.00028440462)
(0.11654957 0.0020193317 -0.00088970531)
(0.12428832 0.0054188132 -0.0028661514)
(0.13429279 0.011411306 -0.0060425102)
(0.14572962 0.020009108 -0.010787747)
(0.15698924 0.030920786 -0.01718487)
(0.16647161 0.042776959 -0.024761213)
(0.17337261 0.053807437 -0.032626401)
(0.17780064 0.062973069 -0.039857095)
(0.18021653 0.070141034 -0.045868682)
(0.18107432 0.075360542 -0.050509754)
(0.18092739 0.078644461 -0.053887976)
(0.18041023 0.080163342 -0.0561404)
(0.18002429 0.080262978 -0.057345509)
(0.18000691 0.0793587 -0.057532328)
(0.18030855 0.077864738 -0.056671289)
(0.18058901 0.076228197 -0.054610922)
(0.18012321 0.075190924 -0.050906278)
(0.17751777 0.07630505 -0.044449314)
(0.17160436 0.082780549 -0.032890434)
(0.13975241 0.099642772 -0.01183695)
(0.098903734 -0.0026199552 0.00088705572)
(0.098279422 -0.0038222335 0.0013446117)
(0.096888608 -0.0042144471 0.0015508754)
(0.095009332 -0.0043050187 0.0016786494)
(0.093089314 -0.0042635182 0.0017808612)
(0.091311433 -0.0041600746 0.0018693541)
(0.089680207 -0.0040659589 0.0019574021)
(0.088130458 -0.004079523 0.0020691189)
(0.086637064 -0.0041038683 0.0022546573)
(0.08532249 -0.0040551714 0.0025640246)
(0.084493631 -0.0037655664 0.0030039169)
(0.085033208 -0.0025725342 0.0034144003)
(0.08917853 0.0015266907 0.0033185167)
(0.098498788 0.010912528 0.0022150511)
(0.11166983 0.026030582 -8.5462953e-05)
(0.12594281 0.044139001 -0.0032259799)
(0.13892219 0.061621118 -0.0062046562)
(0.1498086 0.076096411 -0.0083503622)
(0.15832378 0.086961337 -0.0097765331)
(0.16427758 0.094461368 -0.010882216)
(0.16805804 0.098998819 -0.012043087)
(0.17043647 0.10097675 -0.013420149)
(0.17204758 0.10085174 -0.014722535)
(0.17316542 0.099127901 -0.015550326)
(0.17370686 0.096285286 -0.01562082)
(0.17337129 0.092813134 -0.01459901)
(0.17169576 0.089427443 -0.012027519)
(0.16788674 0.087644645 -0.0070538192)
(0.16210766 0.090967749 0.0019116864)
(0.13517817 0.10570723 0.01801614)
(0.09692236 -0.0014847533 0.00085405854)
(0.09487232 -0.0021739942 0.0012739787)
(0.091371896 -0.0023835093 0.0014417589)
(0.087024682 -0.0024192624 0.0015288032)
(0.082619233 -0.0023719608 0.0015908493)
(0.07839796 -0.0022636308 0.0016420151)
(0.074334697 -0.0021233237 0.0016997287)
(0.07035389 -0.00198745 0.0017953162)
(0.066358424 -0.001870856 0.0019801314)
(0.062190648 -0.0018379929 0.0023394821)
(0.057564989 -0.0021208158 0.0030187695)
(0.052080823 -0.0029949015 0.0042787791)
(0.045247349 -0.0037811647 0.0065448655)
(0.037901787 -0.0011960357 0.010224574)
(0.036853712 0.010236725 0.014950944)
(0.045520417 0.028142697 0.019876807)
(0.059329996 0.045026411 0.024934201)
(0.074704397 0.058068953 0.0301393)
(0.08959175 0.067282023 0.03524304)
(0.10270946 0.073387625 0.039619457)
(0.11365007 0.076993229 0.042767251)
(0.12264319 0.078433198 0.044646104)
(0.13005676 0.077987008 0.045446116)
(0.13601277 0.076018931 0.045537423)
(0.14034437 0.072934417 0.045323808)
(0.14277045 0.069204922 0.045256803)
(0.14307962 0.065433158 0.045792154)
(0.141491 0.062774188 0.047378853)
(0.14142188 0.064128196 0.050260429)
(0.14858001 0.075727894 0.053090715)
(0.10402955 -0.0019456564 0.0010381259)
(0.11515974 -0.0021354215 0.001485049)
(0.12527202 -0.0021407871 0.00154976)
(0.13347658 -0.0019359145 0.0014132557)
(0.14061013 -0.0015750664 0.0011089514)
(0.14710112 -0.0011983325 0.00061214396)
(0.15301219 -0.000902903 -0.00011490777)
(0.1583033 -0.00075415377 -0.0011396419)
(0.16292896 -0.00080441432 -0.002646795)
(0.16686393 -0.0011147684 -0.0048458347)
(0.17008898 -0.0017486539 -0.0079925487)
(0.17252778 -0.0027925487 -0.012367889)
(0.17385659 -0.0042938302 -0.018186472)
(0.1738884 -0.0065833395 -0.025426998)
(0.17337424 -0.0092797653 -0.033710276)
(0.17315826 -0.01200299 -0.042326836)
(0.17367652 -0.014319118 -0.050458102)
(0.17496945 -0.015902421 -0.057385077)
(0.17668801 -0.016703111 -0.062730353)
(0.17827727 -0.017015645 -0.066543047)
(0.17941804 -0.017251402 -0.069046609)
(0.1802491 -0.017620197 -0.070460638)
(0.18116212 -0.018098407 -0.070930788)
(0.18250584 -0.018574512 -0.070506461)
(0.18443991 -0.018918206 -0.069159068)
(0.18694148 -0.018940813 -0.066806582)
(0.18983342 -0.018165625 -0.063285049)
(0.19268569 -0.01518611 -0.058282349)
(0.19464906 -0.0062370359 -0.051478783)
(0.17874514 0.018525067 -0.041863074)
(0.10005057 -0.0031504893 0.0010902867)
(0.1007427 -0.0040136491 0.0016697117)
(0.10224312 -0.0043104581 0.0019095399)
(0.10418847 -0.0042433213 0.0020147982)
(0.10646791 -0.0039732947 0.0020379317)
(0.10904918 -0.0037019223 0.0019711329)
(0.11186024 -0.0035652843 0.0017935834)
(0.11482972 -0.003665987 0.0014633475)
(0.11792069 -0.0040982426 0.00090531427)
(0.1211465 -0.0049828747 -1.6926469e-05)
(0.12445427 -0.0064469171 -0.001449017)
(0.12783048 -0.0086310744 -0.0035896922)
(0.13133659 -0.011631485 -0.006694724)
(0.13495806 -0.015711063 -0.01092021)
(0.13878345 -0.020221329 -0.016132851)
(0.14309484 -0.024247502 -0.021787606)
(0.14798087 -0.026811224 -0.027069619)
(0.15311225 -0.027355414 -0.031200264)
(0.1577733 -0.025914334 -0.033949457)
(0.1612267 -0.023216028 -0.035701379)
(0.16329049 -0.020399617 -0.036894473)
(0.16439695 -0.01826006 -0.037753675)
(0.16512321 -0.01689858 -0.038282402)
(0.16587546 -0.016141576 -0.03823835)
(0.16695353 -0.015836886 -0.037224064)
(0.16879523 -0.015821818 -0.034789902)
(0.17240924 -0.015825387 -0.030401264)
(0.1799838 -0.01498666 -0.023155274)
(0.19725258 -0.011101735 -0.011318631)
(0.25197116 0.0026916314 0.0029285218)
(0.10020229 -0.0026454757 0.0011091946)
(0.10053449 -0.0038701989 0.0017107302)
(0.10059452 -0.0042986105 0.0019886821)
(0.10042322 -0.004456643 0.0021527606)
(0.1002181 -0.004518268 0.0022698642)
(0.10009364 -0.0045572689 0.0023495274)
(0.10006129 -0.0046402893 0.0023981617)
(0.10009376 -0.0048403193 0.0024279478)
(0.10017048 -0.005240192 0.0024658982)
(0.10029164 -0.0059594983 0.0025230287)
(0.10047153 -0.0071975818 0.0025515825)
(0.10074663 -0.0091896842 0.0024086935)
(0.10134739 -0.012185284 0.0019458366)
(0.10262241 -0.016449711 0.0012116648)
(0.10481703 -0.021851981 0.00051651449)
(0.10835838 -0.027168357 0.00059527111)
(0.11364607 -0.030960332 0.0023148237)
(0.12018612 -0.032421861 0.0060956647)
(0.12682502 -0.031199309 0.011505603)
(0.13223358 -0.028279418 0.01722611)
(0.13571558 -0.025252219 0.022048546)
(0.13753146 -0.022309122 0.026280571)
(0.13903713 -0.019761542 0.030126662)
(0.14108244 -0.017945879 0.03373443)
(0.14384045 -0.016858176 0.03752621)
(0.1466811 -0.016716466 0.04119324)
(0.14976353 -0.017291967 0.045212171)
(0.15357181 -0.018067713 0.050296646)
(0.16045757 -0.018737962 0.057572854)
(0.17942747 -0.018974151 0.069290791)
(0.098164289 -0.0015106415 0.0010834859)
(0.097012761 -0.0022278876 0.001665712)
(0.094892401 -0.0024676432 0.0019291902)
(0.092171223 -0.0025439367 0.0020761202)
(0.089390533 -0.0025505511 0.0021731893)
(0.086733183 -0.0025124683 0.0022336118)
(0.084193908 -0.0024608866 0.0022707323)
(0.081738235 -0.0024348089 0.0023084685)
(0.079333101 -0.002480061 0.0023853345)
(0.076927355 -0.0026699132 0.0025644249)
(0.074418173 -0.0031423607 0.0029550066)
(0.071610856 -0.0041368413 0.0037562077)
(0.068205403 -0.0059494734 0.0052784706)
(0.063753147 -0.0086517316 0.0080363067)
(0.058273264 -0.010909625 0.013598731)
(0.053528976 -0.009585457 0.024254299)
(0.052681723 -0.0029623355 0.039977323)
(0.057363001 0.0066849209 0.057515035)
(0.065268296 0.016281602 0.073646816)
(0.0733724 0.024334097 0.08695084)
(0.080817132 0.030365193 0.096513753)
(0.087992504 0.034021299 0.10195341)
(0.094849736 0.035052905 0.10413898)
(0.10097138 0.034104333 0.10455858)
(0.10608656 0.03177663 0.10401396)
(0.10987835 0.028611988 0.10305274)
(0.11227882 0.024922577 0.10190034)
(0.11390341 0.020839762 0.10042448)
(0.11593397 0.017510489 0.099283602)
(0.12243464 0.015553159 0.099295324)
(0.10391129 -0.0019617154 0.00038165224)
(0.11485146 -0.0021480006 0.00064538489)
(0.12488348 -0.0021285282 0.00078138503)
(0.13312368 -0.0018770919 0.00083394477)
(0.14035414 -0.0014547358 0.00083271071)
(0.14695675 -0.0010116275 0.00078847711)
(0.15294978 -0.0006441245 0.000699185)
(0.15828582 -0.00038725313 0.00054705323)
(0.16297455 -0.00024443769 0.00031632255)
(0.16702801 -0.00023562602 1.5934161e-06)
(0.17040005 -0.00039120325 -0.00042386303)
(0.17295953 -0.0007553189 -0.0010088298)
(0.17421105 -0.0013657868 -0.0018094517)
(0.17369968 -0.0027325276 -0.0030085417)
(0.1720199 -0.0047526688 -0.0048438755)
(0.16997569 -0.0076101076 -0.0075025235)
(0.16832987 -0.011425246 -0.011024239)
(0.16773042 -0.015740254 -0.015001604)
(0.16813873 -0.019786604 -0.01886341)
(0.16893116 -0.023173655 -0.02236702)
(0.16961754 -0.025949863 -0.025423617)
(0.17015515 -0.028322367 -0.027941776)
(0.17081761 -0.030387579 -0.029826668)
(0.17190207 -0.032092057 -0.030992389)
(0.17352606 -0.033323472 -0.031419355)
(0.17568711 -0.034013967 -0.031220669)
(0.17843186 -0.034039983 -0.030662793)
(0.18181766 -0.032480791 -0.030152793)
(0.18624836 -0.025261163 -0.030570252)
(0.17954175 -0.00094300676 -0.03271481)
(0.099933398 -0.0031579255 0.00038056221)
(0.10040757 -0.0040064403 0.00066486059)
(0.10180152 -0.0042626665 0.00082379311)
(0.10377056 -0.0041285204 0.0008983021)
(0.10613012 -0.0037717429 0.00091099727)
(0.10879647 -0.0034007164 0.00085740015)
(0.11166837 -0.0031406394 0.00072011133)
(0.11464888 -0.0030417521 0.00047191489)
(0.11767569 -0.0031252208 7.4593821e-05)
(0.12070559 -0.0034453668 -0.00052781901)
(0.12369003 -0.0040873825 -0.0014359144)
(0.12658079 -0.0051620908 -0.0027782299)
(0.12935395 -0.0067777141 -0.004741493)
(0.13184264 -0.0095602837 -0.0075787995)
(0.13397567 -0.013500759 -0.011564954)
(0.1360085 -0.018826607 -0.016858659)
(0.13831465 -0.025421404 -0.023050146)
(0.14099296 -0.031699991 -0.028848513)
(0.14344827 -0.035932269 -0.033357139)
(0.14473025 -0.037864109 -0.036885582)
(0.14447785 -0.038401029 -0.039904465)
(0.14305348 -0.038596888 -0.042602777)
(0.14116078 -0.038956275 -0.044892278)
(0.13943366 -0.039431938 -0.046459366)
(0.13819964 -0.039720509 -0.046999231)
(0.13780762 -0.039694268 -0.046341495)
(0.13891766 -0.039544813 -0.044771162)
(0.14364937 -0.038839022 -0.043103789)
(0.15994961 -0.032793897 -0.044745403)
(0.21263297 -0.012046874 -0.054857123)
(0.1000889 -0.0026391803 0.00038645789)
(0.10021398 -0.0038563514 0.00067784421)
(0.10017781 -0.0042641689 0.00085205298)
(0.10004496 -0.0043899865 0.00094887171)
(0.099950311 -0.0044078498 0.00099042703)
(0.099970833 -0.0043855497 0.00097467807)
(0.1001061 -0.0043756968 0.00088990431)
(0.10031943 -0.0044237458 0.00071822091)
(0.10057325 -0.0045773991 0.00043079448)
(0.10083592 -0.0049091918 -2.5702036e-05)
(0.10107198 -0.0055267266 -0.00074267892)
(0.10125968 -0.006586161 -0.0018696354)
(0.10130572 -0.0083279554 -0.0036094499)
(0.10105155 -0.011170648 -0.006318569)
(0.10041224 -0.015533708 -0.010528709)
(0.099590044 -0.021866173 -0.016506285)
(0.099078791 -0.029999935 -0.023078314)
(0.099173444 -0.03695621 -0.027320891)
(0.099888085 -0.040164795 -0.027665438)
(0.099526455 -0.039937608 -0.027153662)
(0.096902707 -0.038451195 -0.027964615)
(0.092455077 -0.037440478 -0.029966038)
(0.087492026 -0.037504369 -0.032098379)
(0.083416926 -0.038406439 -0.03309186)
(0.080940566 -0.039724912 -0.031946962)
(0.081393062 -0.041076303 -0.027209949)
(0.084561684 -0.043178975 -0.019786621)
(0.090860774 -0.046782354 -0.011197977)
(0.10475907 -0.050386027 -0.005359253)
(0.15474059 -0.049309056 -0.013125883)
(0.098053379 -0.0015051568 0.00037699341)
(0.096698457 -0.0022163869 0.00065678008)
(0.094484775 -0.0024469099 0.00082114302)
(0.091803917 -0.0025118971 0.00090970608)
(0.089137481 -0.0025043573 0.00094575831)
(0.086632285 -0.0024466576 0.00092981223)
(0.084274544 -0.0023657094 0.00085407367)
(0.082027594 -0.0022920317 0.00070755476)
(0.079859449 -0.0022550532 0.00047401861)
(0.07773484 -0.0022915116 0.00012722703)
(0.075602071 -0.0024588742 -0.00036672675)
(0.073385528 -0.0028584294 -0.0010529293)
(0.070944298 -0.0036968131 -0.0019992978)
(0.068027106 -0.0052935001 -0.00334214)
(0.064310257 -0.0081399526 -0.0051440022)
(0.05962195 -0.012718616 -0.0067866343)
(0.054458005 -0.018539952 -0.0064186291)
(0.049833858 -0.020866057 0.00015796716)
(0.051284683 -0.016156357 0.021269621)
(0.053756136 -0.0063109028 0.045767202)
(0.055424572 0.0039971944 0.064068379)
(0.058034523 0.011614566 0.075210252)
(0.062228703 0.01561823 0.080608799)
(0.067252644 0.016547468 0.082427899)
(0.072076332 0.015054848 0.082160242)
(0.075879296 0.011676061 0.080556182)
(0.078059478 0.0066087415 0.077577166)
(0.079288641 -0.0001839184 0.07242751)
(0.085889723 -0.0084964615 0.066979852)
(0.11693507 -0.013394665 0.045957836)
(0.10388533 -0.0019613764 0.00021366191)
(0.11475416 -0.0021419233 0.00039126285)
(0.12470999 -0.0021092405 0.00051161828)
(0.13289718 -0.0018323954 0.00058007917)
(0.140103 -0.0013650468 0.00060759708)
(0.1467118 -0.00084824064 0.00060078289)
(0.1527606 -0.00036463691 0.00056299944)
(0.15824631 6.708968e-05 0.0005011027)
(0.16320656 0.00045552664 0.00043232096)
(0.16768326 0.00081407362 0.00036335819)
(0.17168774 0.0011667761 0.00030792571)
(0.17521182 0.0015546873 0.00029868962)
(0.17784393 0.0020277265 0.0004069446)
(0.17919121 0.0020588271 0.00055523637)
(0.17989382 0.0019446245 0.0007265142)
(0.18084564 0.0015506809 0.0011086283)
(0.18268424 0.00069979081 0.0020465589)
(0.18572254 -6.7032455e-05 0.0040023175)
(0.18923985 -0.00054136674 0.0067750976)
(0.19224786 -0.001155432 0.009698162)
(0.19457511 -0.0020913186 0.012371469)
(0.19658357 -0.0033725225 0.014735764)
(0.19863797 -0.0049334032 0.016974735)
(0.20085891 -0.0065666083 0.019373408)
(0.20299542 -0.0080264001 0.022113593)
(0.20450408 -0.0091200711 0.024990796)
(0.20478281 -0.0092268008 0.027205316)
(0.20305199 -0.0059165047 0.027345881)
(0.19512867 0.0050623514 0.021867813)
(0.12741147 0.035875346 0.0043254384)
(0.099906412 -0.0031571483 0.00021551606)
(0.10029191 -0.0039979479 0.00040520236)
(0.10157466 -0.0042344352 0.00053604848)
(0.10344608 -0.004061693 0.00060802377)
(0.10572241 -0.0036373754 0.00062907284)
(0.10830862 -0.0031561351 0.00060019894)
(0.1110991 -0.0027223323 0.0005150779)
(0.11399964 -0.0023593671 0.00036274361)
(0.11694597 -0.0020616472 0.00012730733)
(0.11989981 -0.0018281646 -0.00021835383)
(0.12283485 -0.0016618345 -0.0007139444)
(0.12573148 -0.0015655746 -0.0014097148)
(0.12863191 -0.0015352642 -0.0023695567)
(0.13140046 -0.0022995566 -0.0036737953)
(0.13410907 -0.0038236243 -0.0053934744)
(0.13712335 -0.0066851807 -0.0074635387)
(0.14075741 -0.011186046 -0.0094656498)
(0.14486536 -0.014538728 -0.010876037)
(0.14797078 -0.01587627 -0.01263359)
(0.14899572 -0.016944787 -0.015300838)
(0.1485746 -0.018039136 -0.01864307)
(0.14745789 -0.019216278 -0.02217968)
(0.146039 -0.020525391 -0.025259291)
(0.14453219 -0.021703235 -0.027265764)
(0.1428265 -0.022440243 -0.027902216)
(0.14076482 -0.022634296 -0.027397724)
(0.1388336 -0.021981416 -0.026734856)
(0.13888347 -0.016642828 -0.029724845)
(0.15457557 0.00795266 -0.041146854)
(0.15552336 0.055533447 -0.05557126)
(0.10006302 -0.002635657 0.0002174723)
(0.10010284 -0.0038488817 0.00040854802)
(0.099956445 -0.0042471875 0.00054414703)
(0.099721954 -0.0043549037 0.00062308014)
(0.09953615 -0.0043427632 0.00065154819)
(0.099465426 -0.0042716308 0.00062915755)
(0.09950284 -0.0041826357 0.0005482048)
(0.099608814 -0.0041040503 0.00039555177)
(0.099739255 -0.0040581453 0.00015178755)
(0.099854221 -0.0040742314 -0.00021212067)
(0.099910099 -0.0042025738 -0.00074604889)
(0.099844372 -0.0045298201 -0.0015318881)
(0.099602353 -0.0051793375 -0.0027080813)
(0.099084066 -0.0065683667 -0.0043837482)
(0.098178305 -0.0092962631 -0.0066970815)
(0.097069433 -0.014534334 -0.0096884833)
(0.095613852 -0.0231387 -0.012722213)
(0.093639433 -0.027698883 -0.014290077)
(0.089491173 -0.026790402 -0.01615063)
(0.082475975 -0.026112656 -0.017403118)
(0.074795626 -0.025963654 -0.018564055)
(0.067482633 -0.02662827 -0.020629659)
(0.060045774 -0.028445224 -0.022209213)
(0.053170519 -0.030736449 -0.022173612)
(0.047497956 -0.032940304 -0.020134139)
(0.043007206 -0.03554389 -0.015203108)
(0.039791092 -0.040066584 -0.0073762511)
(0.039674955 -0.044205151 -0.0095300156)
(0.052476899 -0.01869227 -0.039205651)
(0.094749284 0.032283084 -0.066239247)
(0.098028007 -0.0015065295 0.00021206787)
(0.09659023 -0.0022194467 0.00039585661)
(0.094269316 -0.0024492661 0.00052419256)
(0.091489009 -0.0025100801 0.00059606167)
(0.088733569 -0.002493762 0.00061782032)
(0.086138918 -0.0024201066 0.00058984634)
(0.083682543 -0.002312023 0.00050537701)
(0.081320545 -0.0021941456 0.00035225774)
(0.079008232 -0.0020870375 0.0001124799)
(0.076695928 -0.0020118867 -0.00023982868)
(0.074316616 -0.0019989236 -0.0007488742)
(0.071752072 -0.0021016003 -0.0014867221)
(0.068808953 -0.0024298883 -0.0025706789)
(0.065140065 -0.0032664685 -0.0041853261)
(0.060096696 -0.0052430588 -0.0066840608)
(0.052605037 -0.0099646177 -0.010907352)
(0.041281407 -0.01976165 -0.0183357)
(0.021733726 -0.020249508 -0.026955148)
(0.0045789555 -0.013862632 -0.025767379)
(0.008599514 -0.013127151 0.00020783106)
(0.006801267 -0.0071832188 0.026928233)
(0.011638055 -0.0024592943 0.039164868)
(0.017238184 -0.00092143618 0.043724322)
(0.022734588 -0.0017350898 0.044580622)
(0.026853522 -0.0044054715 0.043384556)
(0.027889184 -0.0089466431 0.041059299)
(0.023520128 -0.016385707 0.037263945)
(0.013184785 -0.028537622 0.02158891)
(-0.024565484 -0.0080895814 -0.037079951)
(0.049065703 0.03535729 -0.081364169)
(0.10387007 -0.0019643772 5.8747298e-05)
(0.1147013 -0.0021470921 0.00010584371)
(0.12461468 -0.0021154456 0.00013452439)
(0.13276801 -0.0018378081 0.00014628795)
(0.13995202 -0.0013669207 0.00014519934)
(0.14654908 -0.00084377825 0.00013443475)
(0.15259373 -0.00035176332 0.00011565625)
(0.15808019 8.9433434e-05 8.9417538e-05)
(0.16304156 0.00048796769 5.4575468e-05)
(0.16752327 0.0008616906 7.1743613e-06)
(0.17156784 0.0012306237 -5.4692298e-05)
(0.17518444 0.0016285085 -0.00011644005)
(0.17773524 0.0021816415 -0.00016926671)
(0.17888286 0.002199851 -0.00032929957)
(0.17954582 0.0020088957 -0.0006190666)
(0.18101132 0.0015104323 -0.00091728042)
(0.18437975 0.0010184417 -0.00091629598)
(0.18977136 0.0018479352 -0.00029892716)
(0.19552457 0.0034203898 0.00074698207)
(0.20050588 0.0049413091 0.0019039103)
(0.20500953 0.00621169 0.0031051897)
(0.20988169 0.0072434581 0.0044557533)
(0.21571706 0.0082078363 0.0061845435)
(0.22239798 0.0094987905 0.0085290783)
(0.22890865 0.011553361 0.011617004)
(0.23333401 0.014561116 0.015293394)
(0.23276203 0.018941274 0.018761614)
(0.22261848 0.026800324 0.020171518)
(0.19870802 0.041818018 0.016042709)
(0.085455635 0.077223481 0.0038915183)
(0.099890219 -0.00315992 5.8906519e-05)
(0.10022947 -0.0040022168 0.00010895785)
(0.10145308 -0.0042376347 0.00013946682)
(0.10327021 -0.0040600177 0.00014979271)
(0.10550018 -0.0036256397 0.00014280672)
(0.10804218 -0.0031285672 0.00011980646)
(0.11078428 -0.00267285 7.9280526e-05)
(0.11362709 -0.0022811488 1.733061e-05)
(0.11650399 -0.0019459708 -7.2421969e-05)
(0.11937082 -0.0016573531 -0.00019796991)
(0.12219532 -0.0014206896 -0.00037308096)
(0.12498919 -0.0012255283 -0.00061464089)
(0.1279629 -0.00087271806 -0.00093673159)
(0.1307394 -0.0014305122 -0.001348664)
(0.13356291 -0.0029289723 -0.001860085)
(0.13728353 -0.0059518598 -0.0023476034)
(0.14247957 -0.0093208931 -0.0024658072)
(0.14917902 -0.0076651982 -0.0018711141)
(0.15427108 -0.0047621634 -0.0015245801)
(0.15723562 -0.0031850745 -0.002001385)
(0.15909515 -0.0030405908 -0.00334474)
(0.16024322 -0.0036551776 -0.0053291615)
(0.1612073 -0.0042473588 -0.0074832342)
(0.16291742 -0.0037938623 -0.0091247765)
(0.16646423 -0.00099565479 -0.0095458772)
(0.17343004 0.0060544584 -0.0085228251)
(0.18119566 0.019121819 -0.0066821942)
(0.18239905 0.039156126 -0.0058846396)
(0.17458608 0.070902092 -0.01018566)
(0.10305188 0.12357327 -0.022351926)
(0.10004692 -0.002635295 5.8937114e-05)
(0.10004112 -0.0038485438 0.00010872696)
(0.099834682 -0.0042450097 0.00013973751)
(0.099541858 -0.0043479752 0.00015082078)
(0.099302212 -0.0043276447 0.0001440235)
(0.099176024 -0.0042439297 0.00011962343)
(0.099149226 -0.0041362301 7.4943567e-05)
(0.099175589 -0.004030103 4.6054951e-06)
(0.099206168 -0.0039433621 -9.9766134e-05)
(0.099183773 -0.0038989864 -0.00024934234)
(0.099029685 -0.0039435798 -0.00046802927)
(0.098647534 -0.0041382459 -0.00079488191)
(0.098006445 -0.0044778825 -0.0012874617)
(0.097032571 -0.0056286488 -0.0019866721)
(0.095716704 -0.0084761589 -0.0029467453)
(0.094923869 -0.014759429 -0.0041479351)
(0.093333906 -0.023906567 -0.005303596)
(0.095414371 -0.02007731 -0.0033899369)
(0.0923046 -0.014423418 -0.0019610451)
(0.083771657 -0.010508895 -0.0030003158)
(0.07251072 -0.010160618 -0.0064154039)
(0.06021162 -0.013134374 -0.010807075)
(0.047337076 -0.017405807 -0.014539202)
(0.035839148 -0.020685572 -0.016489534)
(0.029276691 -0.021709852 -0.01593251)
(0.029847901 -0.019601764 -0.011635785)
(0.04420152 -0.0087209453 -0.0062431165)
(0.078556276 0.020674646 -0.0066700093)
(0.10360483 0.065979193 -0.016463527)
(0.089139166 0.12613861 -0.031397618)
(0.098012063 -0.0015061977 5.7354208e-05)
(0.096529363 -0.0022187245 0.00010494317)
(0.094149018 -0.002447227 0.00013362888)
(0.091309828 -0.0025055397 0.0001422079)
(0.088498793 -0.0024855291 0.00013251804)
(0.085845109 -0.0024065439 0.00010468343)
(0.083317415 -0.0022907686 5.5657255e-05)
(0.0808633 -0.0021618647 -2.0712084e-05)
(0.078431394 -0.0020382139 -0.00013377885)
(0.075946937 -0.0019370057 -0.00029538854)
(0.073292686 -0.0018831679 -0.00053467581)
(0.070290693 -0.0019190964 -0.00089933205)
(0.066643441 -0.0021390066 -0.0014688655)
(0.061771631 -0.0029167561 -0.002384143)
(0.054411881 -0.0051922264 -0.003952654)
(0.042418093 -0.011686005 -0.0070039331)
(0.019996961 -0.023733943 -0.013296377)
(-0.029015176 -0.0018571247 -0.013914841)
(-0.046177397 0.002610201 -0.0054209303)
(-0.058372005 0.00087226504 0.00091016347)
(-0.054540412 -0.0033376879 0.008584725)
(-0.048112516 -0.0065297079 0.012499784)
(-0.04069533 -0.00945239 0.012542251)
(-0.034571152 -0.012576372 0.010000939)
(-0.030087858 -0.016487665 0.0064828815)
(-0.027005106 -0.020602041 0.0040666089)
(-0.025896895 -0.019710684 0.0031219907)
(-0.02662197 -0.0012352948 -0.0022910931)
(0.012259668 0.056709606 -0.024322147)
(0.076953784 0.10742048 -0.039311687)
(0.10386978 -0.0019644573 -6.431587e-05)
(0.11470041 -0.0021474097 -0.00011745444)
(0.12461315 -0.0021160485 -0.00015271081)
(0.13276578 -0.0018387456 -0.00017149333)
(0.13994887 -0.0013682782 -0.00017785376)
(0.14654466 -0.00084566516 -0.00017506442)
(0.15258757 -0.00035429466 -0.00016491652)
(0.15807164 8.6152933e-05 -0.00014815303)
(0.16302939 0.00048382704 -0.0001240523)
(0.16750485 0.00085631361 -8.9301946e-05)
(0.17153733 0.0012246224 -4.3374138e-05)
(0.17513232 0.0016225817 -4.796911e-06)
(0.17764688 0.0021739336 9.9258379e-06)
(0.1787667 0.002162381 0.00011323423)
(0.17939537 0.0019117293 0.00034383119)
(0.18088328 0.001343889 0.00060772358)
(0.1843581 0.00089174976 0.00066955939)
(0.18981449 0.0017393273 0.00022597239)
(0.19560645 0.0032899142 -0.00056662132)
(0.20070175 0.004812626 -0.0014144257)
(0.2054327 0.0061485375 -0.0022722283)
(0.21063234 0.0073588107 -0.0032623346)
(0.21683682 0.0086440482 -0.004633202)
(0.22386543 0.010378558 -0.0066699835)
(0.2306655 0.01293462 -0.009531635)
(0.23524023 0.016346925 -0.01300397)
(0.23446267 0.021368831 -0.016145082)
(0.22351499 0.029997982 -0.017155037)
(0.1982827 0.045029535 -0.013082768)
(0.083943381 0.078978749 -0.0016981986)
(0.099890168 -0.003160056 -6.3491409e-05)
(0.1002292 -0.0040026775 -0.00011845043)
(0.10145235 -0.0042384894 -0.00015452762)
(0.10326877 -0.0040613319 -0.00017134554)
(0.10549774 -0.0036275186 -0.000171855)
(0.10803835 -0.0031311544 -0.00015741002)
(0.11077849 -0.0026763047 -0.00012668464)
(0.11361851 -0.0022856261 -7.6165429e-05)
(0.11649073 -0.001951644 -1.237789e-07)
(0.1193503 -0.0016649312 0.0001087317)
(0.12216447 -0.0014293489 0.00026226562)
(0.12494012 -0.00123756 0.00047541979)
(0.12788721 -0.00090051521 0.00076164322)
(0.1306108 -0.0015499952 0.0011369885)
(0.13346577 -0.0031850436 0.0016369104)
(0.13729474 -0.0063350352 0.0022170009)
(0.14270928 -0.0093190606 0.0026074124)
(0.14946922 -0.0075510878 0.0023809481)
(0.15459727 -0.004706338 0.0024198283)
(0.15772525 -0.0031192909 0.0032248267)
(0.15995555 -0.0028173863 0.0047743554)
(0.16181273 -0.0030939209 0.0068035267)
(0.16392536 -0.0031248129 0.0087424222)
(0.16721178 -0.0018972718 0.0097751239)
(0.17277526 0.0020516513 0.0091896026)
(0.18237365 0.011065697 0.0072438804)
(0.19046817 0.025870893 0.0052936325)
(0.18994291 0.047514575 0.004939648)
(0.1778882 0.078819218 0.0085222647)
(0.097636785 0.12772285 0.018890221)
(0.10004686 -0.0026353879 -6.3652612e-05)
(0.10004086 -0.0038487711 -0.00011844831)
(0.099833997 -0.0042454073 -0.00015512494)
(0.099540471 -0.0043485717 -0.00017281964)
(0.09929978 -0.0043284748 -0.00017370833)
(0.099172084 -0.0042450482 -0.00015818479)
(0.09914312 -0.0041377185 -0.00012380444)
(0.099166287 -0.0040321121 -6.564863e-05)
(0.099190924 -0.0039463265 2.3874962e-05)
(0.099159943 -0.0039034953 0.00015481174)
(0.098995528 -0.0039501763 0.00034924284)
(0.098600056 -0.0041524401 0.00064492169)
(0.097944664 -0.0045182038 0.0010998854)
(0.096959531 -0.0057684818 0.0017600488)
(0.095684378 -0.0087864164 0.0027026332)
(0.094928522 -0.015278175 0.004010301)
(0.093636561 -0.023159066 0.0055155955)
(0.095954684 -0.019290294 0.0041664003)
(0.09288179 -0.013945999 0.003289029)
(0.0847558 -0.010377129 0.0047548574)
(0.074219624 -0.010161744 0.0082809613)
(0.062945957 -0.013043938 0.012288196)
(0.05126532 -0.017108327 0.014707651)
(0.041226007 -0.020451097 0.013798696)
(0.036264214 -0.021646173 0.0083167565)
(0.036644566 -0.018731709 -0.00071571038)
(0.060374594 -0.0030712828 -0.0042273346)
(0.089479137 0.030418177 0.00010412127)
(0.10579329 0.075480294 0.0093422576)
(0.074836675 0.1326337 0.020652556)
(0.098012004 -0.0015062334 -6.2037266e-05)
(0.096529075 -0.0022188072 -0.00011457348)
(0.09414827 -0.0024473759 -0.00014888526)
(0.091308332 -0.0025057721 -0.00016406715)
(0.088496173 -0.0024858644 -0.00016211187)
(0.085840829 -0.0024070062 -0.00014330281)
(0.083310635 -0.0022913942 -0.00010490783)
(0.080852381 -0.0021627492 -4.1408454e-05)
(0.078412937 -0.0020397732 5.5429654e-05)
(0.075917193 -0.0019394884 0.00019550722)
(0.073246508 -0.0018875926 0.00040480146)
(0.070216343 -0.0019291329 0.00072625394)
(0.066518204 -0.0021667063 0.0012314293)
(0.061546158 -0.0030032994 0.0020469881)
(0.053983299 -0.0054624905 0.0034549275)
(0.041769855 -0.012354676 0.0062933485)
(0.018051902 -0.022421426 0.013146356)
(-0.027027042 -0.001616182 0.015804214)
(-0.043217529 0.002191528 0.0076590228)
(-0.054164064 0.00052488391 0.0013982187)
(-0.049460511 -0.0033725023 -0.0075269367)
(-0.041750641 -0.0062416261 -0.014427833)
(-0.033543114 -0.0087190506 -0.019171931)
(-0.027289685 -0.011621494 -0.023011049)
(-0.023816673 -0.015751476 -0.026590214)
(-0.023259055 -0.020268517 -0.028581333)
(-0.027271964 -0.015817223 -0.023547759)
(-0.025596638 0.018918128 -0.013414906)
(0.0021450018 0.070493838 0.00095341997)
(0.047355927 0.1187577 0.014672076)
(0.10388454 -0.0019616964 -0.00021821078)
(0.11475166 -0.0021429678 -0.00040045763)
(0.12470572 -0.0021111179 -0.00052567178)
(0.1328911 -0.001835194 -0.00059920777)
(0.14009471 -0.0013689591 -0.00063193262)
(0.1467007 -0.00085348189 -0.00063033982)
(0.15274596 -0.00037138166 -0.00059761633)
(0.15822716 5.8662902e-05 -0.00054029988)
(0.16318183 0.00044525975 -0.00047578805)