/*--------------------------------*- C++ -*----------------------------------*\
| =========                 |                                                 |
| \\      /  F ield         | OpenFOAM: The Open Source CFD Toolbox           |
|  \\    /   O peration     | Version:  v2012                                 |
|   \\  /    A nd           | Website:  www.openfoam.com                      |
|    \\/     M anipulation  |                                                 |
\*---------------------------------------------------------------------------*/
FoamFile
{
    version     2.0;
    format      ascii;
    class       volScalarField;
    location    "430/heater";
    object      T;
}
// * * * * * * * * * * * * * * * * * * * * * * * * * * * * * * * * * * * * * //

dimensions      [0 0 0 1 0 0 0];


internalField   nonuniform List<scalar> 
80
(
733.04989
735.15267
739.2497
745.0729
723.63164
726.10149
730.94126
737.86735
703.80928
707.00422
713.41772
722.85209
671.56165
675.56478
684.15866
698.00555
345.65077
342.88867
342.92598
345.65645
422.38473
419.02532
419.27328
422.88598
487.90871
485.11613
485.87237
489.66406
543.55369
541.87835
543.84091
548.39828
589.55097
589.77353
594.42318
602.03625
624.56797
628.20099
637.68963
656.80812
345.54831
342.83269
342.88831
345.62601
422.22518
418.93112
419.20671
422.83493
487.7431
485.01083
485.78917
489.5919
543.39325
541.76496
543.73556
548.27354
589.37822
589.6283
594.27425
601.83899
624.32213
627.95815
637.44297
656.54479
670.72358
674.71945
683.30653
697.15401
702.63343
705.77682
712.16191
721.6079
722.292
724.6751
729.44809
736.38234
731.61621
733.6251
737.64955
743.45196
)
;

boundaryField
{
    minY
    {
        type            fixedValue;
        value           uniform 300;
    }
    minZ
    {
        type            zeroGradient;
    }
    maxZ
    {
        type            zeroGradient;
    }
    heater_to_topAir
    {
        type            compressible::turbulentTemperatureCoupledBaffleMixed;
        refValue        nonuniform List<scalar> 
40
(
509.11498
507.51001
503.54485
497.77018
476.09714
466.76423
456.11084
446.01883
487.36356
478.50414
467.24578
455.57221
501.54786
497.88877
495.17857
494.28625
497.80191
493.91311
492.98057
494.93389
496.21079
494.75818
496.3307
498.76676
498.53175
495.69291
495.02345
496.28637
484.75618
475.19311
464.56744
454.43544
474.90541
464.65588
453.374
443.24505
508.96105
507.02367
502.7049
496.69066
)
;
        refGradient     uniform 0;
        valueFraction   nonuniform List<scalar> 
40
(
0.00032132529
0.00032132529
0.00032132529
0.00032132529
0.00032132529
0.00032132529
0.00032132529
0.00032132529
0.00032132529
0.00032132529
0.00032132529
0.00032132529
0.00032132529
0.00032132529
0.00032132529
0.00032132529
0.00032132529
0.00032132529
0.00032132529
0.00032132529
0.00032132529
0.00032132529
0.00032132529
0.00032132529
0.00032132529
0.00032132529
0.00032132529
0.00032132529
0.00032132529
0.00032132529
0.00032132529
0.00032132529
0.00032132529
0.00032132529
0.00032132529
0.00032132529
0.00032132529
0.00032132529
0.00032132529
0.00032132529
)
;
        value           nonuniform List<scalar> 
40
(
732.97728
735.07887
739.17329
744.99276
723.55153
726.01755
730.8523
737.77295
703.73925
706.93028
713.33806
722.76562
671.5067
675.50732
684.09747
697.93952
624.52692
628.15749
637.64272
656.75562
624.2806
627.91494
637.39717
656.49359
670.6677
674.6613
683.24535
697.08874
702.56267
705.7019
712.08151
721.52118
722.21153
724.59057
729.35843
736.28722
731.54354
733.55123
737.57306
743.37171
)
;
        Tnbr            T;
        thicknessLayers List<scalar> 0();
        kappaLayers     List<scalar> 0();
        kappaMethod     solidThermo;
        kappa           none;
        alphaAni        none;
        alpha           none;
        field           T;
    }
    heater_to_rightSolid
    {
        type            compressible::turbulentTemperatureCoupledBaffleMixed;
        refValue        nonuniform List<scalar> 10(752.22381 746.3626 734.56755 716.86778 695.91639 695.61739 716.03959 733.3802 744.93847 750.65717);
        refGradient     uniform 0;
        valueFraction   nonuniform List<scalar> 10(0.49999997 0.49999997 0.49999997 0.49999997 0.49999997 0.49999997 0.49999997 0.49999997 0.49999997 0.49999997);
        value           nonuniform List<scalar> 10(748.64802 742.11466 728.70953 707.43638 676.36201 676.08084 706.59644 727.49361 740.65994 747.05409);
        Tnbr            T;
        thicknessLayers List<scalar> 0();
        kappaLayers     List<scalar> 0();
        kappaMethod     solidThermo;
        kappa           none;
        alphaAni        none;
        alpha           none;
        field           T;
    }
    heater_to_leftSolid
    {
        type            compressible::turbulentTemperatureCoupledBaffleMixed;
        refValue        nonuniform List<scalar> 10(889.0464 888.93843 888.75766 888.51449 888.3637 888.26751 888.38103 888.74142 889.07337 889.26806);
        refGradient     uniform 0;
        valueFraction   nonuniform List<scalar> 10(2.0832898e-05 2.0832898e-05 2.0832898e-05 2.0832898e-05 2.0832898e-05 2.0832898e-05 2.0832898e-05 2.0832898e-05 2.0832898e-05 2.0832898e-05);
        value           nonuniform List<scalar> 10(733.05249 723.63451 703.81265 671.56585 624.57315 624.32726 670.72756 702.63656 722.29449 731.61837);
        Tnbr            T;
        thicknessLayers List<scalar> 1(0.001);
        kappaLayers     List<scalar> 1(0.0005);
        kappaMethod     solidThermo;
        kappa           none;
        alphaAni        none;
        alpha           none;
        field           T;
    }
    heater_to_bottomWater
    {
        type            compressible::turbulentTemperatureCoupledBaffleMixed;
        refValue        nonuniform List<scalar> 
92
(
951.07144
948.72676
947.50744
945.0951
948.26586
946.67652
944.66755
941.6923
942.32621
941.4471
942.31393
942.87444
935.76751
931.78722
931.53042
927.00469
936.79474
934.52816
936.05543
933.8504
937.33389
936.29715
937.49851
931.92968
930.13823
930.97926
934.5418
936.11119
927.09765
927.09765
926.77427
926.77427
928.66915
928.66915
930.66929
930.66929
945.12807
920.84284
944.03207
921.12639
939.64754
919.75786
935.99061
920.30672
939.16238
919.9564
936.08283
919.80503
921.59976
924.19629
921.14053
919.84314
933.30343
922.4299
925.57149
929.07471
922.81995
926.78688
930.71336
923.39341
928.82882
930.43846
920.40135
927.66933
928.51731
921.14655
926.22816
928.04622
917.32907
924.49104
933.55138
919.5674
920.22612
921.39423
907.98791
921.41179
919.5674
920.22612
921.39423
921.41179
942.6279
934.71052
934.4054
934.82752
958.24268
944.5302
934.8421
935.21956
961.36329
946.60141
941.06489
934.569
)
;
        refGradient     uniform 0;
        valueFraction   nonuniform List<scalar> 
92
(
0.0075140686
0.0075140686
0.0075140686
0.0075140686
0.0075140686
0.0075140686
0.0075140686
0.0075140686
0.0075140686
0.0075140686
0.0075140686
0.0075140686
0.0075140686
0.0075140686
0.0075140686
0.0075140686
0.0075140686
0.0075140686
0.0075140686
0.0075140686
0.0075140686
0.0075140686
0.0075140686
0.0075140686
0.0075140686
0.0075140686
0.0075140686
0.0075140686
0.0075140686
0.0075140686
0.0075140686
0.0075140686
0.0075140686
0.0075140686
0.0075140686
0.0075140686
0.0075140679
0.0075140679
0.0075140679
0.0075140679
0.0075140679
0.0075140679
0.0075140679
0.0075140679
0.0075140679
0.0075140679
0.0075140679
0.0075140686
0.0075140686
0.0075140686
0.0075140679
0.0075140686
0.0075140679
0.0075140686
0.0075140686
0.0075140686
0.0075140679
0.0075140686
0.0075140679
0.0075140686
0.0075140686
0.0075140686
0.0075140679
0.0075140686
0.0075140679
0.0075140686
0.0075140686
0.0075140686
0.0075140679
0.0075140686
0.0075140679
0.0075140686
0.0075140686
0.0075140686
0.0075140679
0.0075140686
0.0075140686
0.0075140686
0.0075140686
0.0075140686
0.0075140686
0.0075140686
0.0075140686
0.0075140686
0.0075140686
0.0075140686
0.0075140686
0.0075140686
0.0075140686
0.0075140686
0.0075140686
0.0075140686
)
;
        value           nonuniform List<scalar> 
92
(
734.68747
736.75683
740.8139
746.57521
725.31899
727.7583
732.54656
739.39828
705.60104
708.76532
715.13711
724.50478
350.08477
347.31361
347.34875
350.02472
426.24965
422.89864
423.15631
426.72536
491.2853
488.50609
489.26578
492.98723
546.45829
544.80189
546.77648
551.3114
673.48145
592.08713
677.45202
592.30552
685.99546
596.9344
699.75324
604.50524
350.15511
349.97842
426.30403
426.62975
491.30268
492.89577
546.50227
551.19264
592.17778
604.42474
349.98545
349.86314
347.18146
347.25621
349.95041
349.94067
426.06513
425.98343
422.7378
423.03772
426.59175
426.62156
491.07124
491.01624
488.34541
489.13008
492.82889
492.8835
546.28682
546.23143
544.65356
546.62305
551.04649
551.10031
591.96412
591.85904
592.11212
596.73191
604.13909
604.23996
672.59286
676.56359
685.09486
698.83838
704.43602
707.49623
713.83103
723.20919
724.06398
726.32614
730.99049
737.87549
733.34143
735.22437
739.17704
744.88707
)
;
        Tnbr            T;
        thicknessLayers List<scalar> 0();
        kappaLayers     List<scalar> 0();
        kappaMethod     solidThermo;
        kappa           none;
        alphaAni        none;
        alpha           none;
        field           T;
    }
}


// ************************************************************************* //
