/*--------------------------------*- C++ -*----------------------------------*\
| =========                 |                                                 |
| \\      /  F ield         | OpenFOAM: The Open Source CFD Toolbox           |
|  \\    /   O peration     | Version:  v2012                                 |
|   \\  /    A nd           | Website:  www.openfoam.com                      |
|    \\/     M anipulation  |                                                 |
\*---------------------------------------------------------------------------*/
FoamFile
{
    version     2.0;
    format      ascii;
    class       volScalarField;
    location    "570/heater";
    object      T;
}
// * * * * * * * * * * * * * * * * * * * * * * * * * * * * * * * * * * * * * //

dimensions      [0 0 0 1 0 0 0];


internalField   nonuniform List<scalar> 
80
(
734.36589
736.38629
740.33143
746.11274
724.77186
727.12548
731.8331
738.74536
704.81397
707.89576
714.20861
723.64913
672.52386
676.47463
685.07027
698.96527
345.55058
342.84503
342.87941
345.57842
422.32543
419.02636
419.25042
422.77948
488.02732
485.29564
486.02354
489.73121
543.99624
542.36194
544.31415
548.83484
590.32731
590.58509
595.25984
602.86151
625.64701
629.30118
638.83708
658.04226
345.51327
342.8296
342.88006
345.59594
422.28893
419.01692
419.26719
422.82501
488.00715
485.29917
486.05876
489.79234
543.97029
542.38148
544.36235
548.88948
590.35633
590.66044
595.35366
602.97582
625.76634
629.44079
638.99364
658.21264
672.93497
676.96323
685.60864
699.52229
705.19549
708.4239
714.90266
724.40155
725.04245
727.57866
732.50242
739.49522
734.48077
736.6488
740.82782
746.72809
)
;

boundaryField
{
    minY
    {
        type            fixedValue;
        value           uniform 300;
    }
    minZ
    {
        type            zeroGradient;
    }
    maxZ
    {
        type            zeroGradient;
    }
    heater_to_topAir
    {
        type            compressible::turbulentTemperatureCoupledBaffleMixed;
        refValue        nonuniform List<scalar> 
40
(
517.06793
514.26772
508.99856
502.01483
481.01841
469.57232
457.21048
446.16364
491.73666
480.8504
468.91707
457.63185
506.2038
502.11638
500.1962
500.23969
503.38008
500.44004
500.72173
503.0219
503.16372
501.3729
502.67547
504.90499
505.44723
502.27478
501.5382
502.6085
490.92356
480.35082
469.18388
458.73391
480.48574
468.87157
456.53294
445.70923
516.96155
514.16678
508.95152
502.08644
)
;
        refGradient     uniform 0;
        valueFraction   nonuniform List<scalar> 
40
(
0.00032132529
0.00032132529
0.00032132529
0.00032132529
0.00032132529
0.00032132529
0.00032132529
0.00032132529
0.00032132529
0.00032132529
0.00032132529
0.00032132529
0.00032132529
0.00032132529
0.00032132529
0.00032132529
0.00032132529
0.00032132529
0.00032132529
0.00032132529
0.00032132529
0.00032132529
0.00032132529
0.00032132529
0.00032132529
0.00032132529
0.00032132529
0.00032132529
0.00032132529
0.00032132529
0.00032132529
0.00032132529
0.00032132529
0.00032132529
0.00032132529
0.00032132529
0.00032132529
0.00032132529
0.00032132529
0.00032132529
)
;
        value           nonuniform List<scalar> 
40
(
734.29633
736.31521
740.2575
746.03468
724.69374
727.04289
731.74501
738.6515
704.74558
707.82285
714.12984
723.56371
672.47044
676.41869
685.01098
698.90154
625.60791
629.26
638.79295
657.9927
625.72726
629.39998
638.95018
658.16372
672.8816
676.90755
685.54994
699.45942
705.12719
708.35113
714.82419
724.31663
724.96438
727.49603
732.41421
739.40121
734.41131
736.57772
740.75368
746.64979
)
;
        Tnbr            T;
        thicknessLayers List<scalar> 0();
        kappaLayers     List<scalar> 0();
        kappaMethod     solidThermo;
        kappa           none;
        alphaAni        none;
        alpha           none;
        field           T;
    }
    heater_to_rightSolid
    {
        type            compressible::turbulentTemperatureCoupledBaffleMixed;
        refValue        nonuniform List<scalar> 10(753.30543 747.29278 735.43965 717.9139 697.3353 697.52444 718.43928 736.16063 748.02756 753.92984);
        refGradient     uniform 0;
        valueFraction   nonuniform List<scalar> 10(0.49999997 0.49999997 0.49999997 0.49999997 0.49999997 0.49999997 0.49999997 0.49999997 0.49999997 0.49999997);
        value           nonuniform List<scalar> 10(749.70927 743.01915 729.54442 708.43965 677.68891 677.86871 708.98098 730.28131 743.76159 750.32912);
        Tnbr            T;
        thicknessLayers List<scalar> 0();
        kappaLayers     List<scalar> 0();
        kappaMethod     solidThermo;
        kappa           none;
        alphaAni        none;
        alpha           none;
        field           T;
    }
    heater_to_leftSolid
    {
        type            compressible::turbulentTemperatureCoupledBaffleMixed;
        refValue        nonuniform List<scalar> 10(915.67584 915.44052 915.13389 914.86044 914.59224 914.45433 914.47348 914.61825 914.80451 914.94486);
        refGradient     uniform 0;
        valueFraction   nonuniform List<scalar> 10(2.0832898e-05 2.0832898e-05 2.0832898e-05 2.0832898e-05 2.0832898e-05 2.0832898e-05 2.0832898e-05 2.0832898e-05 2.0832898e-05 2.0832898e-05);
        value           nonuniform List<scalar> 10(734.36993 724.77604 704.81843 672.52893 625.65322 625.77267 672.94045 705.2004 725.04692 734.48497);
        Tnbr            T;
        thicknessLayers List<scalar> 1(0.001);
        kappaLayers     List<scalar> 1(0.0005);
        kappaMethod     solidThermo;
        kappa           none;
        alphaAni        none;
        alpha           none;
        field           T;
    }
    heater_to_bottomWater
    {
        type            compressible::turbulentTemperatureCoupledBaffleMixed;
        refValue        nonuniform List<scalar> 
92
(
954.13715
951.56134
930.53526
929.63753
947.31431
934.71658
918.74187
921.54896
941.81684
926.64012
914.62281
917.30004
928.15571
922.9281
920.10608
918.98263
924.58538
921.55561
919.34898
918.6968
924.95838
921.21787
916.02307
916.45449
925.77621
919.92795
915.75022
914.92559
920.97205
920.97205
908.4893
908.4893
911.67076
911.67076
912.91911
912.91911
930.37441
914.64741
931.33139
908.37645
925.68032
904.97691
928.84978
917.03354
933.42291
911.3525
928.1146
915.3927
916.37836
917.23717
916.99323
918.08596
928.78638
917.62082
917.9282
919.39055
912.0956
920.63694
924.84568
919.95757
918.25289
920.35675
908.80926
922.20191
921.63478
921.8099
918.64413
919.85234
913.91973
922.36259
928.74683
921.59103
919.55252
919.91421
914.69281
922.53477
921.59103
919.55252
919.91421
922.53477
925.04001
923.41029
927.06815
929.58892
927.63741
932.21892
934.36647
933.66627
931.01301
933.8796
935.10875
936.00512
)
;
        refGradient     uniform 0;
        valueFraction   nonuniform List<scalar> 
92
(
0.0075140686
0.0075140686
0.0075140686
0.0075140686
0.0075140686
0.0075140686
0.0075140686
0.0075140686
0.0075140686
0.0075140686
0.0075140686
0.0075140686
0.0075140686
0.0075140686
0.0075140686
0.0075140686
0.0075140686
0.0075140686
0.0075140686
0.0075140686
0.0075140686
0.0075140686
0.0075140686
0.0075140686
0.0075140686
0.0075140686
0.0075140686
0.0075140686
0.0075140686
0.0075140686
0.0075140686
0.0075140686
0.0075140686
0.0075140686
0.0075140686
0.0075140686
0.0075140679
0.0075140679
0.0075140679
0.0075140679
0.0075140679
0.0075140679
0.0075140679
0.0075140679
0.0075140679
0.0075140679
0.0075140679
0.0075140686
0.0075140686
0.0075140686
0.0075140679
0.0075140686
0.0075140679
0.0075140686
0.0075140686
0.0075140686
0.0075140679
0.0075140686
0.0075140679
0.0075140686
0.0075140686
0.0075140686
0.0075140679
0.0075140686
0.0075140679
0.0075140686
0.0075140686
0.0075140686
0.0075140679
0.0075140686
0.0075140679
0.0075140686
0.0075140686
0.0075140686
0.0075140679
0.0075140686
0.0075140686
0.0075140686
0.0075140686
0.0075140686
0.0075140686
0.0075140686
0.0075140686
0.0075140686
0.0075140686
0.0075140686
0.0075140686
0.0075140686
0.0075140686
0.0075140686
0.0075140686
0.0075140686
)
;
        value           nonuniform List<scalar> 
92
(
736.01753
738.00342
741.76103
747.49213
726.44426
728.6855
733.2377
740.11911
706.5949
709.53946
715.71459
725.1043
349.92826
347.20378
347.21672
349.88703
426.09945
422.80245
423.00828
426.50595
491.31048
488.57131
489.25474
492.93791
546.86499
545.19916
547.10534
551.58596
674.39074
592.81187
678.21809
592.97403
686.77307
597.63761
700.57306
605.19158
349.94493
349.85445
426.15014
426.4284
491.3159
492.85166
546.88809
551.6018
592.90543
605.17981
349.89098
349.79539
347.13933
347.19587
349.88952
349.89773
426.09488
426.01098
422.76591
423.0253
426.5016
426.56578
491.28974
491.25301
488.55262
489.32234
492.94114
493.04177
546.80828
546.8096
545.209
547.18411
551.63268
551.69612
592.89924
592.84548
593.13205
597.79277
605.31845
605.37737
674.80384
678.78651
687.36967
701.19842
706.84796
710.03984
716.49737
725.94379
726.56527
729.11684
734.01971
740.95462
735.95796
738.13122
742.28803
748.15064
)
;
        Tnbr            T;
        thicknessLayers List<scalar> 0();
        kappaLayers     List<scalar> 0();
        kappaMethod     solidThermo;
        kappa           none;
        alphaAni        none;
        alpha           none;
        field           T;
    }
}


// ************************************************************************* //
