/*--------------------------------*- C++ -*----------------------------------*\
| =========                 |                                                 |
| \\      /  F ield         | OpenFOAM: The Open Source CFD Toolbox           |
|  \\    /   O peration     | Version:  v2012                                 |
|   \\  /    A nd           | Website:  www.openfoam.com                      |
|    \\/     M anipulation  |                                                 |
\*---------------------------------------------------------------------------*/
FoamFile
{
    version     2.0;
    format      ascii;
    class       volScalarField;
    location    "370/rightSolid";
    object      T;
}
// * * * * * * * * * * * * * * * * * * * * * * * * * * * * * * * * * * * * * //

dimensions      [0 0 0 1 0 0 0];


internalField   nonuniform List<scalar> 
130
(
746.96307
754.80574
762.95522
771.00901
778.67352
785.74197
792.07694
797.59211
802.24906
806.02547
808.87329
810.77852
811.73239
741.16652
750.32808
759.63223
768.62134
776.9982
784.57763
791.26773
797.02529
801.84101
805.719
808.63944
810.58869
811.56536
729.55595
741.73793
753.51875
764.37219
774.07783
782.57786
789.89223
796.0727
801.16865
805.22714
808.27001
810.29175
811.30177
712.19731
730.07233
745.82801
759.31773
770.74299
780.36271
788.40346
795.05325
800.45193
804.70586
807.88079
809.98176
811.02913
691.58814
718.84696
739.33009
755.36283
768.23845
778.72699
787.29699
794.27435
799.88022
804.26809
807.53403
809.68919
810.76475
691.11394
718.37771
738.88958
754.96296
767.88925
778.42953
787.02703
794.01874
799.62896
804.01434
807.28594
809.44578
810.52179
710.87828
728.79454
744.62851
758.21894
769.76449
779.50562
787.62002
794.312
799.73325
803.99377
807.17741
809.28999
810.34235
727.62554
739.87838
751.76704
762.75775
772.61647
781.26506
788.68479
794.93323
800.07288
804.16028
807.21052
809.23815
810.2517
738.85032
748.10124
757.54131
766.69361
775.23036
782.95565
789.76446
795.62559
800.5097
804.41131
807.33384
809.28285
810.26
744.40734
752.36155
760.66134
768.89419
776.73628
783.96281
790.43933
796.07609
800.80258
804.59847
807.44915
809.35339
810.30856
)
;

boundaryField
{
    maxX
    {
        type            zeroGradient;
    }
    minZ
    {
        type            zeroGradient;
    }
    maxZ
    {
        type            zeroGradient;
    }
    rightSolid_to_bottomWater
    {
        type            compressible::turbulentTemperatureCoupledBaffleMixed;
        refValue        nonuniform List<scalar> 
130
(
958.88214
958.48964
957.5136
955.28435
953.39465
953.00737
953.28991
952.3352
952.12965
955.64311
956.31679
956.81106
956.60824
953.0992
955.1877
954.1285
953.33025
954.32299
954.42082
954.53193
953.72513
952.69411
954.32958
956.13605
956.71631
957.13605
949.99333
952.46081
953.69958
954.91837
955.22438
954.7232
953.50348
953.29936
952.85361
953.45916
956.30543
956.8154
956.94217
949.44409
951.78924
952.5118
953.02984
952.92969
953.04001
952.47558
952.39718
951.93879
952.15989
956.38072
957.00393
957.17705
943.8253
945.72046
946.80096
948.15162
948.63284
950.36091
949.86325
949.58109
949.4043
950.23485
956.01885
956.8364
958.0423
932.48461
937.70805
940.02346
942.45253
945.39703
950.64693
949.71849
949.44351
948.77901
947.9526
955.07137
956.26054
957.02361
935.02541
937.04702
939.84061
941.66732
945.48916
951.98876
951.01303
950.73136
950.35594
948.79858
953.40506
955.45534
955.82756
935.18954
936.85844
938.35599
941.46042
945.3288
950.56864
950.29294
949.06854
948.22036
951.59986
953.2916
954.12778
954.62177
940.25273
939.44758
940.77278
943.98734
946.38046
947.74879
946.78639
949.03862
951.16596
951.98421
952.49362
953.1197
953.84969
938.49779
939.33419
940.45896
942.3794
944.02217
944.41253
946.30289
950.17153
951.11285
952.58212
953.14491
953.71583
954.24128
)
;
        refGradient     uniform 0;
        valueFraction   nonuniform List<scalar> 
130
(
0.0075140686
0.0075140686
0.0075140686
0.0075140686
0.0075140686
0.0075140686
0.0075140686
0.0075140686
0.0075140686
0.0075140686
0.0075140686
0.0075140686
0.0075140686
0.0075140686
0.0075140686
0.0075140686
0.0075140686
0.0075140686
0.0075140686
0.0075140686
0.0075140686
0.0075140686
0.0075140686
0.0075140686
0.0075140686
0.0075140686
0.0075140686
0.0075140686
0.0075140686
0.0075140686
0.0075140686
0.0075140686
0.0075140686
0.0075140686
0.0075140686
0.0075140686
0.0075140686
0.0075140686
0.0075140686
0.0075140686
0.0075140686
0.0075140686
0.0075140686
0.0075140686
0.0075140686
0.0075140686
0.0075140686
0.0075140686
0.0075140686
0.0075140686
0.0075140686
0.0075140686
0.0075140686
0.0075140686
0.0075140686
0.0075140686
0.0075140686
0.0075140686
0.0075140686
0.0075140686
0.0075140686
0.0075140686
0.0075140686
0.0075140686
0.0075140686
0.0075140686
0.0075140686
0.0075140686
0.0075140686
0.0075140686
0.0075140686
0.0075140686
0.0075140686
0.0075140686
0.0075140686
0.0075140686
0.0075140686
0.0075140686
0.0075140686
0.0075140686
0.0075140686
0.0075140686
0.0075140686
0.0075140686
0.0075140686
0.0075140686
0.0075140686
0.0075140686
0.0075140686
0.0075140686
0.0075140686
0.0075140686
0.0075140686
0.0075140686
0.0075140686
0.0075140686
0.0075140686
0.0075140686
0.0075140686
0.0075140686
0.0075140686
0.0075140686
0.0075140686
0.0075140686
0.0075140686
0.0075140686
0.0075140686
0.0075140686
0.0075140686
0.0075140686
0.0075140686
0.0075140686
0.0075140686
0.0075140686
0.0075140686
0.0075140686
0.0075140686
0.0075140686
0.0075140686
0.0075140686
0.0075140686
0.0075140686
0.0075140686
0.0075140686
0.0075140686
0.0075140686
0.0075140686
0.0075140686
0.0075140686
0.0075140686
)
;
        value           nonuniform List<scalar> 
130
(
748.55339
756.33411
764.41495
772.39142
779.9841
786.99648
793.28593
798.7525
803.37294
807.14742
809.97893
811.87358
812.81877
742.75706
751.86535
761.09153
770.00704
778.32836
785.85151
792.49215
798.20038
802.97219
806.8334
809.74548
811.68445
812.65695
731.21053
743.31937
755.02083
765.80178
775.43672
783.86905
791.11927
797.25176
802.30609
806.33868
809.38009
811.39049
812.39388
713.97831
731.73645
747.37901
760.77115
772.10972
781.65792
789.63397
796.2332
801.58787
805.81153
808.99434
811.08423
812.12505
693.48185
720.54988
740.88704
756.80931
769.59169
780.01434
788.51617
795.43896
801.00137
805.36253
808.64741
810.79253
811.86911
692.92595
720.02393
740.39891
756.36962
769.22079
779.72127
788.24714
795.18421
800.74726
805.09347
808.39398
810.54655
811.62023
712.56077
730.35748
746.09333
759.59524
771.08264
780.79936
788.84539
795.4849
800.86257
805.07938
808.27372
810.38585
811.43312
729.18339
741.35662
753.1671
764.09846
773.91207
782.53494
789.89678
796.08903
801.18366
805.26574
808.30575
810.32442
811.33407
740.36187
749.53716
758.91615
768.02374
776.51424
784.19167
790.94203
796.77602
801.63936
805.51776
808.42213
810.36117
811.33644
745.86395
753.76461
762.01039
770.19572
777.99114
785.16622
791.60823
797.23165
801.92965
805.70801
808.54145
810.43565
811.38758
)
;
        Tnbr            T;
        thicknessLayers List<scalar> 0();
        kappaLayers     List<scalar> 0();
        kappaMethod     solidThermo;
        kappa           none;
        alphaAni        none;
        alpha           none;
        field           T;
    }
    rightSolid_to_topAir
    {
        type            compressible::turbulentTemperatureCoupledBaffleMixed;
        refValue        nonuniform List<scalar> 
130
(
487.17125
481.07326
475.63533
471.15624
467.73381
465.36457
464.00683
463.61178
464.1543
465.68518
468.42951
472.95516
480.02154
435.62663
430.31104
426.89216
424.79353
423.61422
423.16899
423.41346
424.34794
426.00136
428.50142
432.29064
438.48869
447.93424
441.1649
432.27622
424.88241
418.96459
414.51255
411.56261
410.13211
410.14521
411.40975
413.74902
417.24911
422.96423
434.62258
489.32796
489.71549
489.10719
487.17832
484.11741
480.4123
476.54052
472.7996
469.53576
468
470.79258
479.7236
490.05697
494.29862
498.57868
502.99611
507.20974
510.91763
513.89056
516.00184
517.25855
517.8673
518.41834
519.99424
523.9892
531.91774
496.13631
500.56097
505.22633
509.81421
514.00852
517.50661
520.06462
521.59219
522.29279
522.80992
524.2742
528.29288
536.76005
493.80331
495.47353
496.31466
495.89523
494.04995
490.82746
486.46138
481.50697
477.05974
474.86053
476.88008
483.66546
494.34591
443.33686
434.78791
427.46826
421.34505
416.37298
412.61572
410.22006
409.30324
409.85322
411.78182
415.07896
420.67723
430.6152
434.31931
428.99317
425.73858
423.91169
423.00758
422.72778
422.95271
423.68437
425.01399
427.13304
430.42434
435.8935
445.74449
486.61752
480.53451
475.14182
470.75482
467.4564
465.20371
463.9129
463.51448
463.99189
465.42117
468.03383
472.39112
479.43923
)
;
        refGradient     uniform 0;
        valueFraction   nonuniform List<scalar> 
130
(
0.00032132529
0.00032132529
0.00032132529
0.00032132529
0.00032132529
0.00032132529
0.00032132529
0.00032132529
0.00032132529
0.00032132529
0.00032132529
0.00032132529
0.00032132529
0.00032132529
0.00032132529
0.00032132529
0.00032132529
0.00032132529
0.00032132529
0.00032132529
0.00032132529
0.00032132529
0.00032132529
0.00032132529
0.00032132529
0.00032132529
0.00032132529
0.00032132529
0.00032132529
0.00032132529
0.00032132529
0.00032132529
0.00032132529
0.00032132529
0.00032132529
0.00032132529
0.00032132529
0.00032132529
0.00032132529
0.00032132529
0.00032132529
0.00032132529
0.00032132529
0.00032132529
0.00032132529
0.00032132529
0.00032132529
0.00032132529
0.00032132529
0.00032132529
0.00032132529
0.00032132529
0.00032132529
0.00032132529
0.00032132529
0.00032132529
0.00032132529
0.00032132529
0.00032132529
0.00032132529
0.00032132529
0.00032132529
0.00032132529
0.00032132529
0.00032132529
0.00032132529
0.00032132529
0.00032132529
0.00032132529
0.00032132529
0.00032132529
0.00032132529
0.00032132529
0.00032132529
0.00032132529
0.00032132529
0.00032132529
0.00032132529
0.00032132529
0.00032132529
0.00032132529
0.00032132529
0.00032132529
0.00032132529
0.00032132529
0.00032132529
0.00032132529
0.00032132529
0.00032132529
0.00032132529
0.00032132529
0.00032132529
0.00032132529
0.00032132529
0.00032132529
0.00032132529
0.00032132529
0.00032132529
0.00032132529
0.00032132529
0.00032132529
0.00032132529
0.00032132529
0.00032132529
0.00032132529
0.00032132529
0.00032132529
0.00032132529
0.00032132529
0.00032132529
0.00032132529
0.00032132529
0.00032132529
0.00032132529
0.00032132529
0.00032132529
0.00032132529
0.00032132529
0.00032132529
0.00032132529
0.00032132529
0.00032132529
0.00032132529
0.00032132529
0.00032132529
0.00032132529
0.00032132529
0.00032132529
0.00032132529
0.00032132529
)
;
        value           nonuniform List<scalar> 
130
(
746.87753
754.71564
762.86069
770.91039
778.57131
785.63667
791.96913
797.48241
802.13807
805.9138
808.76162
810.66772
811.62356
741.06639
750.22317
759.52314
768.50862
776.88236
784.45915
791.14715
796.90316
801.71789
805.5955
808.51623
810.46686
811.44626
729.46147
741.63653
753.41105
764.259
773.96002
782.4563
789.76784
795.94633
801.04106
805.09905
808.14208
810.16502
811.17848
712.12399
729.99321
745.74347
759.22812
770.64864
780.26401
788.30089
794.94734
800.34324
804.59534
807.77017
809.87336
810.92373
691.52312
718.77435
739.25214
755.28092
768.1535
778.63956
787.20744
794.18294
799.7872
804.17386
807.43927
809.59504
810.67284
691.04961
718.30586
738.81248
754.88202
767.80539
778.34336
786.93887
793.92878
799.5374
803.92153
807.19255
809.35302
810.43143
710.80675
728.71767
744.54669
758.13249
769.67362
779.41053
787.52086
794.20902
799.62708
803.88553
807.0688
809.18291
810.23837
727.53238
739.77845
751.66084
762.64595
772.49981
781.14431
788.56082
794.80692
799.94506
804.03177
807.08206
809.11084
810.12726
738.75065
747.99682
757.43271
766.58139
775.11501
782.83764
789.64427
795.50373
800.38664
804.28764
807.21026
809.16037
810.14035
744.3227
752.27232
760.56762
768.79633
776.63474
783.85815
790.33213
795.96689
800.69197
804.48705
807.33761
809.24261
810.19972
)
;
        Tnbr            T;
        thicknessLayers List<scalar> 0();
        kappaLayers     List<scalar> 0();
        kappaMethod     solidThermo;
        kappa           none;
        alphaAni        none;
        alpha           none;
        field           T;
    }
    rightSolid_to_heater
    {
        type            compressible::turbulentTemperatureCoupledBaffleMixed;
        refValue        nonuniform List<scalar> 10(739.91044 732.80496 718.02813 693.64604 653.07966 652.67468 692.32678 716.05957 730.4243 737.28239);
        refGradient     uniform 0;
        valueFraction   nonuniform List<scalar> 10(0.50000003 0.50000003 0.50000003 0.50000003 0.50000003 0.50000003 0.50000003 0.50000003 0.50000003 0.50000003);
        value           nonuniform List<scalar> 10(743.43572 736.98476 723.79113 702.92082 672.33308 671.89347 701.60164 721.84165 734.6364 740.84396);
        Tnbr            T;
        thicknessLayers List<scalar> 0();
        kappaLayers     List<scalar> 0();
        kappaMethod     solidThermo;
        kappa           none;
        alphaAni        none;
        alpha           none;
        field           T;
    }
}


// ************************************************************************* //
