/*--------------------------------*- C++ -*----------------------------------*\
| =========                 |                                                 |
| \\      /  F ield         | OpenFOAM: The Open Source CFD Toolbox           |
|  \\    /   O peration     | Version:  v2012                                 |
|   \\  /    A nd           | Website:  www.openfoam.com                      |
|    \\/     M anipulation  |                                                 |
\*---------------------------------------------------------------------------*/
FoamFile
{
    version     2.0;
    format      ascii;
    class       volScalarField;
    location    "390/rightSolid";
    object      T;
}
// * * * * * * * * * * * * * * * * * * * * * * * * * * * * * * * * * * * * * //

dimensions      [0 0 0 1 0 0 0];


internalField   nonuniform List<scalar> 
130
(
749.41796
757.38455
765.67626
773.87251
781.65835
788.81538
795.20496
800.75298
805.42334
809.18054
812.00553
813.89076
814.83567
743.58259
752.88682
762.34676
771.47628
779.96456
787.6306
794.37946
800.17227
805.00075
808.86688
811.76234
813.69093
814.6554
731.86485
744.21709
756.16518
767.16675
776.9983
785.60129
792.99024
799.21304
804.32302
808.37066
811.38993
813.39218
814.39164
714.32587
732.42566
748.38924
762.05342
773.62489
783.3628
791.49034
798.19641
803.62189
807.87434
811.0312
813.11524
814.15189
693.58868
721.1263
741.83824
758.05991
771.0919
781.70017
790.37572
797.44749
803.10934
807.51702
810.77399
812.91226
813.97204
693.22916
720.73176
741.44301
757.68778
770.75605
781.40399
790.12489
797.23667
802.93329
807.36728
810.64021
812.79013
813.85583
713.23588
731.29585
747.2709
760.99735
772.66443
782.51173
790.75402
797.57357
803.0938
807.41559
810.62318
812.73842
813.79045
730.19117
742.5532
754.55933
765.66179
775.6262
784.37839
791.90584
798.2519
803.46602
807.60251
810.69006
812.73814
813.76282
741.4944
750.85037
760.4047
769.66409
778.29942
786.12379
793.022
798.95242
803.90202
807.86696
810.83433
812.8109
813.8014
747.10521
755.13615
763.53709
771.87918
779.82245
787.13987
793.69046
799.39334
804.20154
808.06063
810.95923
812.89099
813.85669
)
;

boundaryField
{
    maxX
    {
        type            zeroGradient;
    }
    minZ
    {
        type            zeroGradient;
    }
    maxZ
    {
        type            zeroGradient;
    }
    rightSolid_to_bottomWater
    {
        type            compressible::turbulentTemperatureCoupledBaffleMixed;
        refValue        nonuniform List<scalar> 
130
(
948.79239
949.44932
950.48107
950.98192
951.31254
951.39912
950.67101
950.15264
952.28591
953.40788
953.98693
953.88597
954.17894
946.04863
949.46042
951.27052
951.83084
951.82649
951.55507
951.10155
950.58659
950.68828
952.61841
952.95799
953.15902
953.12427
943.54694
948.71718
949.86629
950.5767
950.75181
950.96726
950.69761
950.43535
949.98492
950.41438
951.99336
952.21321
952.34532
935.84972
945.29945
948.13039
948.44946
948.59798
949.55317
948.88732
948.27
947.85228
947.7063
951.04596
951.84122
952.15067
928.62528
938.82887
940.57198
941.92407
943.355
942.82927
942.2236
945.72225
946.48167
947.60011
952.53097
953.07289
953.02093
927.01926
933.48606
935.54622
938.0912
940.57907
940.59382
942.074
945.97961
947.61745
949.17919
953.62731
954.66372
954.77986
930.81512
932.4611
933.49605
935.03428
937.67399
940.51461
942.5598
946.72891
950.00581
950.60923
955.21532
956.35358
956.8262
937.91119
939.25419
940.84049
942.42026
944.61329
948.3202
949.17128
949.6897
949.25944
951.14273
954.40167
955.50785
956.73566
938.24865
941.07548
944.06614
946.61704
946.89236
948.75846
948.49015
948.60645
949.64212
953.13653
953.97836
954.61681
955.45331
940.10364
939.17948
940.61995
944.17505
945.76234
945.99707
946.24293
947.46378
952.55402
953.92706
955.00974
955.16344
954.91108
)
;
        refGradient     uniform 0;
        valueFraction   nonuniform List<scalar> 
130
(
0.0075140686
0.0075140686
0.0075140686
0.0075140686
0.0075140686
0.0075140686
0.0075140686
0.0075140686
0.0075140686
0.0075140686
0.0075140686
0.0075140686
0.0075140686
0.0075140686
0.0075140686
0.0075140686
0.0075140686
0.0075140686
0.0075140686
0.0075140686
0.0075140686
0.0075140686
0.0075140686
0.0075140686
0.0075140686
0.0075140686
0.0075140686
0.0075140686
0.0075140686
0.0075140686
0.0075140686
0.0075140686
0.0075140686
0.0075140686
0.0075140686
0.0075140686
0.0075140686
0.0075140686
0.0075140686
0.0075140686
0.0075140686
0.0075140686
0.0075140686
0.0075140686
0.0075140686
0.0075140686
0.0075140686
0.0075140686
0.0075140686
0.0075140686
0.0075140686
0.0075140686
0.0075140686
0.0075140686
0.0075140686
0.0075140686
0.0075140686
0.0075140686
0.0075140686
0.0075140686
0.0075140686
0.0075140686
0.0075140686
0.0075140686
0.0075140686
0.0075140686
0.0075140686
0.0075140686
0.0075140686
0.0075140686
0.0075140686
0.0075140686
0.0075140686
0.0075140686
0.0075140686
0.0075140686
0.0075140686
0.0075140686
0.0075140686
0.0075140686
0.0075140686
0.0075140686
0.0075140686
0.0075140686
0.0075140686
0.0075140686
0.0075140686
0.0075140686
0.0075140686
0.0075140686
0.0075140686
0.0075140686
0.0075140686
0.0075140686
0.0075140686
0.0075140686
0.0075140686
0.0075140686
0.0075140686
0.0075140686
0.0075140686
0.0075140686
0.0075140686
0.0075140686
0.0075140686
0.0075140686
0.0075140686
0.0075140686
0.0075140686
0.0075140686
0.0075140686
0.0075140686
0.0075140686
0.0075140686
0.0075140686
0.0075140686
0.0075140686
0.0075140686
0.0075140686
0.0075140686
0.0075140686
0.0075140686
0.0075140686
0.0075140686
0.0075140686
0.0075140686
0.0075140686
0.0075140686
0.0075140686
0.0075140686
)
;
        value           nonuniform List<scalar> 
130
(
750.91481
758.82634
767.06339
775.20172
782.93147
790.03531
796.37135
801.87375
806.525
810.26238
813.0705
814.94081
815.88082
745.10264
754.36249
763.76485
772.82989
781.25429
788.86062
795.55532
801.30068
806.09361
809.94517
812.82141
814.73702
815.69398
733.45419
745.75234
757.61918
768.54334
778.30226
786.84216
794.17351
800.34754
805.4157
809.43612
812.44454
814.4334
815.42633
715.98923
734.02388
749.88865
763.45246
774.93803
784.6099
792.67131
799.3223
804.70382
808.92316
812.08135
814.15569
815.18687
695.35362
722.76082
743.3301
759.43994
772.38471
782.9093
791.51507
798.55992
804.18485
808.56775
811.83721
813.96345
815.01486
694.98468
722.32906
742.90004
759.04179
772.03054
782.59854
791.26499
798.3526
804.01863
808.43098
811.71266
813.85416
814.9127
714.86941
732.80597
748.66866
762.30347
773.90268
783.69731
791.89298
798.69255
804.19581
808.48959
811.70761
813.81546
814.86311
731.75042
744.02959
755.95736
766.98823
776.89422
785.60847
793.08571
799.3879
804.55953
808.67902
811.76779
813.80874
814.83494
742.97115
752.278
761.78295
770.99189
779.56436
787.34393
794.18825
800.07493
804.99506
808.9564
811.90774
813.87423
814.86355
748.55369
756.51729
764.8659
773.17193
781.06739
788.33155
794.83474
800.50391
805.31416
809.15451
812.03943
813.95781
814.91434
)
;
        Tnbr            T;
        thicknessLayers List<scalar> 0();
        kappaLayers     List<scalar> 0();
        kappaMethod     solidThermo;
        kappa           none;
        alphaAni        none;
        alpha           none;
        field           T;
    }
    rightSolid_to_topAir
    {
        type            compressible::turbulentTemperatureCoupledBaffleMixed;
        refValue        nonuniform List<scalar> 
130
(
488.20998
482.02365
476.5647
472.11002
468.7367
466.43244
465.16285
464.89552
465.62014
467.3976
470.46271
475.41463
483.05158
435.17774
430.04995
426.85108
424.92224
423.82908
423.40377
423.65712
424.65022
426.45022
429.20614
433.37728
440.1538
450.36747
443.70047
435.44383
428.35103
422.40332
417.66961
414.33808
412.5714
412.37726
413.59678
416.07054
419.93898
426.45653
439.36989
495.10578
496.6393
497.12128
496.17817
493.9768
491.10432
488.08648
485.17255
482.69429
482.08854
485.92502
493.08008
503.34136
498.95776
503.23579
507.78323
512.28509
516.45814
520.07876
523.00417
525.19021
526.76262
528.2148
530.55565
535.11217
543.66443
495.95897
500.42704
505.10512
509.68543
513.87096
517.38844
520.0232
521.68758
522.5609
523.24018
524.80754
528.74431
536.8231
492.5455
493.32398
493.37525
492.27672
489.94216
486.59157
482.59786
478.39615
474.76349
473.16181
475.81135
483.89654
494.47266
443.59588
434.64944
427.2237
421.23898
416.56828
413.17016
411.08932
410.37257
410.9754
412.80684
415.93728
421.29824
432.07586
436.01557
430.45371
426.95814
424.91648
423.84026
423.45344
423.6626
424.46858
425.92571
428.20169
431.74668
437.63492
447.06819
488.30311
482.00743
476.40896
471.83002
468.36006
465.96709
464.58103
464.13865
464.6141
466.06649
468.72756
473.16402
480.1918
)
;
        refGradient     uniform 0;
        valueFraction   nonuniform List<scalar> 
130
(
0.00032132529
0.00032132529
0.00032132529
0.00032132529
0.00032132529
0.00032132529
0.00032132529
0.00032132529
0.00032132529
0.00032132529
0.00032132529
0.00032132529
0.00032132529
0.00032132529
0.00032132529
0.00032132529
0.00032132529
0.00032132529
0.00032132529
0.00032132529
0.00032132529
0.00032132529
0.00032132529
0.00032132529
0.00032132529
0.00032132529
0.00032132529
0.00032132529
0.00032132529
0.00032132529
0.00032132529
0.00032132529
0.00032132529
0.00032132529
0.00032132529
0.00032132529
0.00032132529
0.00032132529
0.00032132529
0.00032132529
0.00032132529
0.00032132529
0.00032132529
0.00032132529
0.00032132529
0.00032132529
0.00032132529
0.00032132529
0.00032132529
0.00032132529
0.00032132529
0.00032132529
0.00032132529
0.00032132529
0.00032132529
0.00032132529
0.00032132529
0.00032132529
0.00032132529
0.00032132529
0.00032132529
0.00032132529
0.00032132529
0.00032132529
0.00032132529
0.00032132529
0.00032132529
0.00032132529
0.00032132529
0.00032132529
0.00032132529
0.00032132529
0.00032132529
0.00032132529
0.00032132529
0.00032132529
0.00032132529
0.00032132529
0.00032132529
0.00032132529
0.00032132529
0.00032132529
0.00032132529
0.00032132529
0.00032132529
0.00032132529
0.00032132529
0.00032132529
0.00032132529
0.00032132529
0.00032132529
0.00032132529
0.00032132529
0.00032132529
0.00032132529
0.00032132529
0.00032132529
0.00032132529
0.00032132529
0.00032132529
0.00032132529
0.00032132529
0.00032132529
0.00032132529
0.00032132529
0.00032132529
0.00032132529
0.00032132529
0.00032132529
0.00032132529
0.00032132529
0.00032132529
0.00032132529
0.00032132529
0.00032132529
0.00032132529
0.00032132529
0.00032132529
0.00032132529
0.00032132529
0.00032132529
0.00032132529
0.00032132529
0.00032132529
0.00032132529
0.00032132529
0.00032132529
0.00032132529
0.00032132529
0.00032132529
)
;
        value           nonuniform List<scalar> 
130
(
749.33275
757.29466
765.58184
773.77394
781.55611
788.71004
795.0971
800.64321
805.31227
809.06881
811.89388
813.7801
814.72716
743.48219
752.78167
762.23745
771.36333
779.84846
787.51183
794.25856
800.04978
804.87725
808.743
811.63886
813.56901
814.53645
731.77099
744.11649
756.05836
767.05439
776.8812
785.48028
792.86624
799.08693
804.19563
808.24272
811.26224
813.26594
814.26922
714.25424
732.34855
748.30703
761.96642
773.5334
783.26721
791.39112
798.09404
803.51693
807.76776
810.92479
813.01044
814.05005
693.52499
721.05496
741.76158
757.97939
771.00848
781.61449
790.28814
797.35828
803.01873
807.42539
810.68199
812.821
813.88316
693.16457
720.65961
741.36558
757.60653
770.67192
781.31753
790.03643
797.14639
802.84136
807.27409
810.54639
812.69682
813.76476
713.16358
731.21792
747.18775
760.90938
772.57193
782.41496
790.65327
797.46921
802.98639
807.30621
810.51354
812.63065
813.68571
730.09749
742.45262
754.45244
765.54937
775.50905
784.25731
791.78162
798.12534
803.3379
807.47357
810.56107
812.61017
813.63797
741.39455
750.74568
760.29575
769.55146
778.18363
786.00533
792.90135
798.83007
803.77849
807.74282
810.71032
812.68812
813.68131
747.02031
755.0466
763.44301
771.78086
779.72041
787.03467
793.58268
799.28355
804.0903
807.94855
810.84704
812.77959
813.74722
)
;
        Tnbr            T;
        thicknessLayers List<scalar> 0();
        kappaLayers     List<scalar> 0();
        kappaMethod     solidThermo;
        kappa           none;
        alphaAni        none;
        alpha           none;
        field           T;
    }
    rightSolid_to_heater
    {
        type            compressible::turbulentTemperatureCoupledBaffleMixed;
        refValue        nonuniform List<scalar> 10(742.26886 735.1099 720.20717 695.60982 654.79826 654.50072 694.56426 718.53595 733.00114 739.9271);
        refGradient     uniform 0;
        valueFraction   nonuniform List<scalar> 10(0.50000003 0.50000003 0.50000003 0.50000003 0.50000003 0.50000003 0.50000003 0.50000003 0.50000003 0.50000003);
        value           nonuniform List<scalar> 10(745.84277 739.34559 726.03538 704.96725 674.19289 673.86434 703.89938 724.36277 737.24693 743.51529);
        Tnbr            T;
        thicknessLayers List<scalar> 0();
        kappaLayers     List<scalar> 0();
        kappaMethod     solidThermo;
        kappa           none;
        alphaAni        none;
        alpha           none;
        field           T;
    }
}


// ************************************************************************* //
