/*--------------------------------*- C++ -*----------------------------------*\
| =========                 |                                                 |
| \\      /  F ield         | OpenFOAM: The Open Source CFD Toolbox           |
|  \\    /   O peration     | Version:  v2012                                 |
|   \\  /    A nd           | Website:  www.openfoam.com                      |
|    \\/     M anipulation  |                                                 |
\*---------------------------------------------------------------------------*/
FoamFile
{
    version     2.0;
    format      ascii;
    class       volScalarField;
    location    "120/rightSolid";
    object      T;
}
// * * * * * * * * * * * * * * * * * * * * * * * * * * * * * * * * * * * * * //

dimensions      [0 0 0 1 0 0 0];


internalField   nonuniform List<scalar> 
130
(
604.38312
608.15469
612.00544
615.71152
619.10682
622.12754
624.73492
626.93985
628.76992
630.23377
631.31707
632.03314
632.38616
601.0068
605.5698
610.10477
614.35587
618.17694
621.51313
624.34727
626.71003
628.63804
630.14123
631.24508
631.97772
632.34354
594.11323
600.46433
606.48545
611.88135
616.54475
620.48106
623.72765
626.35286
628.43415
630.00802
631.13461
631.87032
632.24125
583.65128
593.50245
601.97003
609.01895
614.78108
619.40147
623.07616
625.97411
628.22058
629.88994
631.06708
631.81362
632.17538
571.08811
586.79694
598.27216
606.92858
613.55057
618.66555
622.63782
625.72035
628.07892
629.81241
631.02823
631.79386
632.1608
571.08475
586.79853
598.27614
606.9268
613.54532
618.6552
622.63087
625.7185
628.08014
629.8151
631.03244
631.79737
632.16394
583.61156
593.47221
601.9497
609.01635
614.77783
619.39706
623.07076
625.96846
628.2161
629.88714
631.06713
631.81822
632.18446
594.04687
600.40223
606.4313
611.85192
616.52285
620.46433
623.71318
626.33656
628.4167
629.99425
631.13027
631.87893
632.25784
600.88644
605.4577
610.01944
614.30487
618.14252
621.48458
624.32263
626.6878
628.62094
630.13339
631.246
631.98042
632.34673
604.23498
608.03364
611.90809
615.63721
619.05008
622.08248
624.70035
626.91119
628.74873
630.21814
631.30513
632.02464
632.37955
)
;

boundaryField
{
    maxX
    {
        type            zeroGradient;
    }
    minZ
    {
        type            zeroGradient;
    }
    maxZ
    {
        type            zeroGradient;
    }
    rightSolid_to_bottomWater
    {
        type            compressible::turbulentTemperatureCoupledBaffleMixed;
        refValue        nonuniform List<scalar> 
130
(
995.04062
996.47695
1000.7011
1005.2935
1004.3038
1004.9896
1003.6479
1002.4205
1004.3593
1009.9012
1012.0477
1013.6018
1013.2583
994.4823
999.03673
1002.8097
1004.2044
1003.7683
1004.416
1003.4276
1004.0616
1007.9296
1010.0044
1011.5291
1014.333
1015.7477
989.12735
987.47454
991.81456
996.17946
998.9481
1004.4317
1008.1584
1009.5229
1013.0988
1012.0998
1009.8567
1009.6867
1011.9405
981.41995
981.58253
983.36154
992.23605
1005.135
1008.5316
1009.7955
1011.4385
1014.5266
1013.8889
1012.9733
1010.9174
1009.2305
961.03962
965.74806
987.60024
1002.9745
1007.2184
1008.287
1008.9503
1010.8907
1014.1502
1012.6499
1012.1429
1010.8187
1009.2292
963.02796
967.63629
988.7141
1001.6786
1005.8066
1005.9141
1007.966
1011.0493
1014.6057
1013.0971
1013.0715
1011.3072
1009.4506
981.27999
981.80187
983.20039
995.12104
1005.7038
1008.962
1009.8997
1011.3651
1014.6123
1013.854
1012.7094
1010.7656
1009.5694
990.99012
988.28299
990.58122
997.93781
998.92233
1004.4874
1008.3974
1008.9833
1011.7747
1010.4834
1008.826
1010.5355
1013.5784
990.66882
994.90803
1000.9123
1005.792
1005.0866
1004.5744
1003.3992
1003.7275
1007.7529
1010.6741
1013.0228
1014.7398
1015.6665
991.83222
995.49676
999.38652
1003.8434
1003.1586
1003.8115
1003.3196
1001.8643
1004.54
1009.8602
1011.5449
1013.163
1012.8936
)
;
        refGradient     uniform 0;
        valueFraction   nonuniform List<scalar> 
130
(
0.0075140686
0.0075140686
0.0075140686
0.0075140686
0.0075140686
0.0075140686
0.0075140686
0.0075140686
0.0075140686
0.0075140686
0.0075140686
0.0075140686
0.0075140686
0.0075140686
0.0075140686
0.0075140686
0.0075140686
0.0075140686
0.0075140686
0.0075140686
0.0075140686
0.0075140686
0.0075140686
0.0075140686
0.0075140686
0.0075140686
0.0075140686
0.0075140686
0.0075140686
0.0075140686
0.0075140686
0.0075140686
0.0075140686
0.0075140686
0.0075140686
0.0075140686
0.0075140686
0.0075140686
0.0075140686
0.0075140686
0.0075140686
0.0075140686
0.0075140686
0.0075140686
0.0075140686
0.0075140686
0.0075140686
0.0075140686
0.0075140686
0.0075140686
0.0075140686
0.0075140686
0.0075140686
0.0075140686
0.0075140686
0.0075140686
0.0075140686
0.0075140686
0.0075140686
0.0075140686
0.0075140686
0.0075140686
0.0075140686
0.0075140686
0.0075140686
0.0075140686
0.0075140686
0.0075140686
0.0075140686
0.0075140686
0.0075140686
0.0075140686
0.0075140686
0.0075140686
0.0075140686
0.0075140686
0.0075140686
0.0075140686
0.0075140686
0.0075140686
0.0075140686
0.0075140686
0.0075140686
0.0075140686
0.0075140686
0.0075140686
0.0075140686
0.0075140686
0.0075140686
0.0075140686
0.0075140686
0.0075140686
0.0075140686
0.0075140686
0.0075140686
0.0075140686
0.0075140686
0.0075140686
0.0075140686
0.0075140686
0.0075140686
0.0075140686
0.0075140686
0.0075140686
0.0075140686
0.0075140686
0.0075140686
0.0075140686
0.0075140686
0.0075140686
0.0075140686
0.0075140686
0.0075140686
0.0075140686
0.0075140686
0.0075140686
0.0075140686
0.0075140686
0.0075140686
0.0075140686
0.0075140686
0.0075140686
0.0075140686
0.0075140686
0.0075140686
0.0075140686
0.0075140686
0.0075140686
0.0075140686
0.0075140686
)
;
        value           nonuniform List<scalar> 
130
(
607.29658
611.04998
614.9029
618.61499
621.97674
624.97934
627.5565
629.73517
631.56565
633.05979
634.15082
634.87302
635.22072
603.94175
608.50403
613.03258
617.26152
621.04996
624.36533
627.17019
629.51946
631.46162
632.96876
634.0755
634.82353
635.19715
597.06046
603.35059
609.35823
614.74557
619.39399
623.34124
626.59083
629.20605
631.29813
632.85233
633.95334
634.68207
635.06706
586.62023
596.39743
604.81365
611.87531
617.69022
622.30067
625.9566
628.84458
631.09693
632.74859
633.90974
634.63505
634.98132
573.99944
589.6239
601.17566
609.88151
616.48472
621.56852
625.51525
628.58863
630.95351
632.66234
633.86496
634.61471
634.96686
574.01101
589.63965
601.18807
609.87008
616.46899
621.54045
625.50097
628.58799
630.95814
632.66837
633.87609
634.62184
634.97162
586.57973
596.36904
604.79225
611.89441
617.6913
622.29956
625.95205
628.83843
631.09313
632.74556
633.90781
634.63847
634.99287
597.00856
603.295
609.29518
614.72955
619.37206
623.32507
626.57828
629.18584
631.27088
632.82654
633.9413
634.697
635.09583
603.7937
608.36179
612.93365
617.22285
621.02571
624.3382
627.14553
629.49489
631.44332
632.96601
634.08764
634.82927
635.19971
607.12548
610.92254
614.79647
618.53042
621.91188
624.9258
627.51975
629.70256
631.54596
633.04396
634.13518
634.8613
635.21144
)
;
        Tnbr            T;
        thicknessLayers List<scalar> 0();
        kappaLayers     List<scalar> 0();
        kappaMethod     solidThermo;
        kappa           none;
        alphaAni        none;
        alpha           none;
        field           T;
    }
    rightSolid_to_topAir
    {
        type            compressible::turbulentTemperatureCoupledBaffleMixed;
        refValue        nonuniform List<scalar> 
130
(
428.02295
426.49718
424.64451
422.74738
421.01344
419.5732
418.49513
417.82085
417.61031
417.99703
419.2621
421.94938
426.3906
400.68413
398.28523
396.33798
394.83244
393.72534
392.97287
392.53202
392.39719
392.65733
393.59013
395.79729
400.45367
406.13924
406.79674
401.91856
397.10416
392.94502
389.65162
387.1544
385.30673
384.02974
383.37267
383.53496
385.06581
389.48612
398.77266
431.59787
431.86019
430.21538
427.14277
423.48892
419.8043
416.37175
413.38785
411.08535
409.87444
410.86171
416.75328
424.80206
432.08125
435.36124
437.60244
439.75822
442.27676
444.8858
447.4113
449.84061
451.70544
453.19019
454.89761
458.19526
464.19952
432.07086
435.19713
437.446
439.80677
442.5791
445.41815
448.21273
450.61434
452.49756
454.05493
455.87903
459.2806
465.21837
431.53821
431.73872
430.06601
427.02523
423.43513
419.82128
416.46021
413.57749
411.45291
410.54805
412.02623
418.56816
426.57253
406.7372
401.84299
397.01107
392.83715
389.53155
387.02541
385.17436
383.90391
383.26777
383.47246
385.08925
389.69892
399.12259
400.64291
398.232
396.27143
394.75338
393.63195
392.86172
392.40172
392.25238
392.50959
393.45673
395.70373
400.43764
406.18291
427.98243
426.44966
424.5906
422.68815
420.94908
419.50272
418.41777
417.73792
417.52664
417.92082
419.20443
421.92367
426.40234
)
;
        refGradient     uniform 0;
        valueFraction   nonuniform List<scalar> 
130
(
0.00032132529
0.00032132529
0.00032132529
0.00032132529
0.00032132529
0.00032132529
0.00032132529
0.00032132529
0.00032132529
0.00032132529
0.00032132529
0.00032132529
0.00032132529
0.00032132529
0.00032132529
0.00032132529
0.00032132529
0.00032132529
0.00032132529
0.00032132529
0.00032132529
0.00032132529
0.00032132529
0.00032132529
0.00032132529
0.00032132529
0.00032132529
0.00032132529
0.00032132529
0.00032132529
0.00032132529
0.00032132529
0.00032132529
0.00032132529
0.00032132529
0.00032132529
0.00032132529
0.00032132529
0.00032132529
0.00032132529
0.00032132529
0.00032132529
0.00032132529
0.00032132529
0.00032132529
0.00032132529
0.00032132529
0.00032132529
0.00032132529
0.00032132529
0.00032132529
0.00032132529
0.00032132529
0.00032132529
0.00032132529
0.00032132529
0.00032132529
0.00032132529
0.00032132529
0.00032132529
0.00032132529
0.00032132529
0.00032132529
0.00032132529
0.00032132529
0.00032132529
0.00032132529
0.00032132529
0.00032132529
0.00032132529
0.00032132529
0.00032132529
0.00032132529
0.00032132529
0.00032132529
0.00032132529
0.00032132529
0.00032132529
0.00032132529
0.00032132529
0.00032132529
0.00032132529
0.00032132529
0.00032132529
0.00032132529
0.00032132529
0.00032132529
0.00032132529
0.00032132529
0.00032132529
0.00032132529
0.00032132529
0.00032132529
0.00032132529
0.00032132529
0.00032132529
0.00032132529
0.00032132529
0.00032132529
0.00032132529
0.00032132529
0.00032132529
0.00032132529
0.00032132529
0.00032132529
0.00032132529
0.00032132529
0.00032132529
0.00032132529
0.00032132529
0.00032132529
0.00032132529
0.00032132529
0.00032132529
0.00032132529
0.00032132529
0.00032132529
0.00032132529
0.00032132529
0.00032132529
0.00032132529
0.00032132529
0.00032132529
0.00032132529
0.00032132529
0.00032132529
0.00032132529
0.00032132529
0.00032132529
0.00032132529
)
;
        value           nonuniform List<scalar> 
130
(
604.30432
608.07356
611.92185
615.62547
619.01851
622.03722
624.64286
626.8464
628.6754
630.13855
631.22165
631.93819
632.29243
600.92062
605.48072
610.01291
614.26146
618.0803
621.41455
624.24708
626.60853
628.53558
630.03824
631.14217
631.8759
632.24334
594.03196
600.37862
606.3954
611.78741
616.4475
620.38105
623.62539
626.24883
628.32879
629.90187
631.02833
631.76505
632.13876
583.58236
593.42927
601.8925
608.93718
614.69544
619.3124
622.98416
625.87968
628.12423
629.79231
630.96912
631.71713
632.08127
571.02452
586.72762
598.19843
606.85171
613.47146
618.58486
622.55599
625.63773
627.99568
629.72872
630.94445
631.71071
632.07937
571.02112
586.72914
598.20245
606.85002
613.4664
618.57472
622.5493
625.63613
627.99715
629.73169
630.94895
631.71455
632.08282
583.54261
593.39898
601.87212
608.93455
614.69219
619.30803
622.97882
625.8741
628.11988
629.78974
630.96954
631.72231
632.09091
593.96556
600.31648
606.34119
611.75793
616.42557
620.3643
623.61091
626.23251
628.31134
629.88811
631.02401
631.77373
632.15545
600.80035
605.36868
609.92761
614.21047
618.04587
621.38599
624.22242
626.58627
628.51844
630.03035
631.14306
631.87859
632.24655
604.15625
607.9526
611.82457
615.55124
618.96183
621.99219
624.60831
626.81773
628.65418
630.1229
631.20969
631.92969
632.28585
)
;
        Tnbr            T;
        thicknessLayers List<scalar> 0();
        kappaLayers     List<scalar> 0();
        kappaMethod     solidThermo;
        kappa           none;
        alphaAni        none;
        alpha           none;
        field           T;
    }
    rightSolid_to_heater
    {
        type            compressible::turbulentTemperatureCoupledBaffleMixed;
        refValue        nonuniform List<scalar> 10(600.93545 596.77124 587.99765 573.20891 548.20257 548.19155 573.15912 587.92356 596.66214 600.77561);
        refGradient     uniform 0;
        valueFraction   nonuniform List<scalar> 10(0.50000003 0.50000003 0.50000003 0.50000003 0.50000003 0.50000003 0.50000003 0.50000003 0.50000003 0.50000003);
        value           nonuniform List<scalar> 10(602.64822 598.87811 591.04489 578.42006 559.63588 559.62866 578.3753 590.97465 598.76341 602.49425);
        Tnbr            T;
        thicknessLayers List<scalar> 0();
        kappaLayers     List<scalar> 0();
        kappaMethod     solidThermo;
        kappa           none;
        alphaAni        none;
        alpha           none;
        field           T;
    }
}


// ************************************************************************* //
