/*--------------------------------*- C++ -*----------------------------------*\
| =========                 |                                                 |
| \\      /  F ield         | OpenFOAM: The Open Source CFD Toolbox           |
|  \\    /   O peration     | Version:  v2012                                 |
|   \\  /    A nd           | Website:  www.openfoam.com                      |
|    \\/     M anipulation  |                                                 |
\*---------------------------------------------------------------------------*/
FoamFile
{
    version     2.0;
    format      ascii;
    class       volScalarField;
    location    "280/leftSolid";
    object      T;
}
// * * * * * * * * * * * * * * * * * * * * * * * * * * * * * * * * * * * * * //

dimensions      [0 0 0 1 0 0 0];


internalField   nonuniform List<scalar> 
130
(
825.85069
825.83368
825.78991
825.70643
825.57543
825.39233
825.15034
824.85752
824.5228
824.161
823.79124
823.50595
823.33349
825.88071
825.85764
825.80096
825.7019
825.55292
825.35214
825.09901
824.78476
824.43314
824.06043
823.69442
823.41584
823.2308
825.90106
825.87248
825.79804
825.67291
825.4893
825.2504
824.96584
824.62195
824.22875
823.83689
823.50515
823.23716
823.03685
825.89897
825.85358
825.75685
825.60085
825.38237
825.10438
824.76725
824.37191
823.92691
823.52283
823.18642
822.92529
822.76105
825.82096
825.7628
825.64469
825.46185
825.20504
824.88202
824.49363
824.04978
823.57704
823.16344
822.81599
822.54506
822.37231
825.66338
825.60099
825.4674
825.25345
824.95225
824.57984
824.12802
823.69446
823.27277
822.88615
822.54876
822.28195
822.11056
825.46838
825.40069
825.25781
825.02781
824.69222
824.33942
823.96959
823.59956
823.2402
822.89819
822.58485
822.33557
822.1978
825.27266
825.20649
825.06805
824.84378
824.56203
824.26792
823.95965
823.65371
823.36133
823.08094
822.84393
822.66873
822.57056
825.0866
825.02974
824.90755
824.7168
824.50435
824.2632
824.0068
823.75831
823.5164
823.28315
823.08873
822.94863
822.87023
824.97128
824.91759
824.80674
824.65308
824.47776
824.28158
824.07338
823.86097
823.64643
823.4378
823.26424
823.13579
823.06355
)
;

boundaryField
{
    minX
    {
        type            zeroGradient;
    }
    minZ
    {
        type            zeroGradient;
    }
    maxZ
    {
        type            zeroGradient;
    }
    leftSolid_to_bottomWater
    {
        type            compressible::turbulentTemperatureCoupledBaffleMixed;
        refValue        nonuniform List<scalar> 
130
(
982.2839
982.53721
983.42381
983.99957
984.39399
985.14008
984.50675
984.3258
983.45419
981.9951
972.44774
967.71217
962.03942
984.3644
984.52509
984.62342
984.85211
984.86567
985.04259
986.38737
984.30509
983.68185
981.22878
971.37341
969.35249
960.67524
984.8368
986.40211
986.07339
986.0342
984.88927
983.27325
984.83047
984.41928
979.73834
973.24364
973.84931
972.99201
958.17698
988.24221
987.73463
987.48708
986.83634
985.97043
985.51817
984.77334
983.46424
972.92994
969.55092
968.46939
966.70651
962.62705
988.57833
987.34028
986.48415
986.74983
985.49947
985.15722
984.53908
979.32466
966.2369
963.14961
960.64469
957.55777
950.42659
986.15883
986.00676
985.55809
984.70341
981.73611
979.20829
964.10258
961.24513
957.20912
954.33897
951.21573
947.71375
939.16139
984.58054
983.81138
983.14776
982.97657
969.8384
966.8468
965.13762
963.14549
961.4441
959.00277
952.659
945.77037
943.48056
983.72225
982.9074
982.61262
977.70022
971.42297
970.52298
968.43862
966.60414
966.65859
963.45902
962.97411
963.49265
963.22659
980.10766
980.2664
979.93628
974.36559
975.21817
972.81344
969.77297
969.97621
970.27612
968.03307
967.47835
967.81761
967.40455
977.89072
977.46722
975.77659
974.33808
974.76526
974.81105
975.1534
975.57165
975.46501
973.64094
973.47854
972.74778
971.81184
)
;
        refGradient     uniform 0;
        valueFraction   nonuniform List<scalar> 
130
(
0.0075140686
0.0075140686
0.0075140686
0.0075140686
0.0075140686
0.0075140686
0.0075140686
0.0075140686
0.0075140686
0.0075140686
0.0075140686
0.0075140686
0.0075140686
0.0075140686
0.0075140686
0.0075140686
0.0075140686
0.0075140686
0.0075140686
0.0075140686
0.0075140686
0.0075140686
0.0075140686
0.0075140686
0.0075140686
0.0075140686
0.0075140686
0.0075140686
0.0075140686
0.0075140686
0.0075140686
0.0075140686
0.0075140686
0.0075140686
0.0075140686
0.0075140686
0.0075140686
0.0075140686
0.0075140686
0.0075140686
0.0075140686
0.0075140686
0.0075140686
0.0075140686
0.0075140686
0.0075140686
0.0075140686
0.0075140686
0.0075140686
0.0075140686
0.0075140686
0.0075140686
0.0075140686
0.0075140686
0.0075140686
0.0075140686
0.0075140686
0.0075140686
0.0075140686
0.0075140686
0.0075140686
0.0075140686
0.0075140686
0.0075140686
0.0075140686
0.0075140686
0.0075140686
0.0075140686
0.0075140686
0.0075140686
0.0075140686
0.0075140686
0.0075140686
0.0075140686
0.0075140686
0.0075140686
0.0075140686
0.0075140686
0.0075140686
0.0075140686
0.0075140686
0.0075140686
0.0075140686
0.0075140686
0.0075140686
0.0075140686
0.0075140686
0.0075140686
0.0075140686
0.0075140686
0.0075140686
0.0075140686
0.0075140686
0.0075140686
0.0075140686
0.0075140686
0.0075140686
0.0075140686
0.0075140686
0.0075140686
0.0075140686
0.0075140686
0.0075140686
0.0075140686
0.0075140686
0.0075140686
0.0075140686
0.0075140686
0.0075140686
0.0075140686
0.0075140686
0.0075140686
0.0075140686
0.0075140686
0.0075140686
0.0075140686
0.0075140686
0.0075140686
0.0075140686
0.0075140686
0.0075140686
0.0075140686
0.0075140686
0.0075140686
0.0075140686
0.0075140686
0.0075140686
0.0075140686
0.0075140686
0.0075140686
)
;
        value           nonuniform List<scalar> 
130
(
827.01634
827.00136
826.96459
826.88607
826.75902
826.58289
826.33792
826.04589
825.70709
825.33698
824.89824
824.57958
824.36583
827.06178
827.04009
826.98459
826.888
826.74025
826.5423
826.30114
825.97356
825.61985
825.23146
824.79415
824.50253
824.2537
827.08557
827.06895
826.99261
826.86814
826.67731
826.42805
826.15731
825.81288
825.38742
824.94969
824.62498
824.35257
824.04244
827.10913
827.06026
826.96241
826.80269
826.57933
826.30002
825.9598
825.55755
825.03673
824.61028
824.26826
823.99582
823.80214
827.0343
826.96728
826.84364
826.66417
826.39988
826.07668
825.6865
825.20674
824.63924
824.20554
823.84186
823.54975
823.32471
826.85978
826.79673
826.66078
826.44202
826.12079
825.73214
825.1701
824.71834
824.26952
823.86423
823.50588
823.21475
822.9804
826.65442
826.58147
826.4347
826.20515
825.77336
825.40076
825.02086
824.63865
824.26919
823.91139
823.55274
823.25351
823.09955
826.45372
826.38194
826.24233
825.98284
825.65607
825.35744
825.03582
824.71842
824.42864
824.12632
823.88741
823.71737
823.61788
826.2419
826.18665
826.0629
825.83173
825.6273
825.36994
825.09264
824.84754
824.60969
824.36131
824.16415
824.02761
823.94668
826.11077
826.0543
825.93158
825.76827
825.59749
825.40315
825.19909
824.99143
824.77769
824.55686
824.38335
824.25035
824.1716
)
;
        Tnbr            T;
        thicknessLayers List<scalar> 0();
        kappaLayers     List<scalar> 0();
        kappaMethod     solidThermo;
        kappa           none;
        alphaAni        none;
        alpha           none;
        field           T;
    }
    leftSolid_to_heater
    {
        type            compressible::turbulentTemperatureCoupledBaffleMixed;
        refValue        nonuniform List<scalar> 10(708.09409 699.48196 681.31279 651.61554 608.01831 607.84947 651.09288 680.73652 698.9329 707.5523);
        refGradient     uniform 0;
        valueFraction   nonuniform List<scalar> 10(2.08329e-05 2.08329e-05 2.08329e-05 2.08329e-05 2.08329e-05 2.08329e-05 2.08329e-05 2.08329e-05 2.08329e-05 2.08329e-05);
        value           nonuniform List<scalar> 10(823.32111 823.21828 823.02396 822.74754 822.35796 822.09633 822.18459 822.55796 822.85798 823.05141);
        Tnbr            T;
        thicknessLayers List<scalar> 1(0.001);
        kappaLayers     List<scalar> 1(0.0005);
        kappaMethod     solidThermo;
        kappa           none;
        alphaAni        none;
        alpha           none;
        field           T;
    }
    leftSolid_to_topAir
    {
        type            compressible::turbulentTemperatureCoupledBaffleMixed;
        refValue        nonuniform List<scalar> 
130
(
321.43184
341.29922
359.28183
375.8672
391.47013
406.35263
420.64298
434.30277
446.98278
458.66251
469.25782
478.61152
486.38082
321.42814
341.08126
358.64637
374.61302
389.3661
403.11505
415.93376
427.78708
438.53889
447.94072
455.65883
461.298
464.39301
321.42692
341.11827
358.73614
374.76855
389.60754
403.4722
416.4657
428.63359
439.94891
450.30131
459.49096
467.2098
472.87769
321.42688
341.13078
358.78014
374.86769
389.80014
403.82428
417.087
429.68359
441.67317
453.08798
463.9079
474.01991
482.94839
321.42322
341.12781
358.78253
374.87958
389.82623
403.87121
417.16378
429.80223
441.85044
453.33394
464.21072
474.29889
482.91615
321.41687
341.11544
358.76391
374.85367
389.79133
403.82544
417.10509
429.73253
441.77811
453.27886
464.21952
474.48086
483.50433
321.40957
341.09681
358.72906
374.79731
389.7059
403.7027
416.9357
429.50271
441.46602
452.85659
463.66742
473.81436
482.87148
321.40166
341.06867
358.66201
374.66753
389.47681
403.31052
416.27288
428.4082
439.69458
450.03172
459.22063
466.96829
472.72508
321.39622
341.01909
358.55438
374.4896
389.20977
402.92446
415.71045
427.53872
438.27411
447.66927
455.3961
461.06464
464.22292
321.39647
341.23008
359.17914
375.73005
391.29798
406.14637
420.40694
434.05294
446.72655
458.40807
469.01467
478.38767
486.18364
)
;
        refGradient     uniform 0;
        valueFraction   nonuniform List<scalar> 
130
(
0.00032132529
0.00032132529
0.00032132529
0.00032132529
0.00032132529
0.00032132529
0.00032132529
0.00032132529
0.00032132529
0.00032132529
0.00032132529
0.00032132529
0.00032132529
0.00032132529
0.00032132529
0.00032132529
0.00032132529
0.00032132529
0.00032132529
0.00032132529
0.00032132529
0.00032132529
0.00032132529
0.00032132529
0.00032132529
0.00032132529
0.00032132529
0.00032132529
0.00032132529
0.00032132529
0.00032132529
0.00032132529
0.00032132529
0.00032132529
0.00032132529
0.00032132529
0.00032132529
0.00032132529
0.00032132529
0.00032132529
0.00032132529
0.00032132529
0.00032132529
0.00032132529
0.00032132529
0.00032132529
0.00032132529
0.00032132529
0.00032132529
0.00032132529
0.00032132529
0.00032132529
0.00032132529
0.00032132529
0.00032132529
0.00032132529
0.00032132529
0.00032132529
0.00032132529
0.00032132529
0.00032132529
0.00032132529
0.00032132529
0.00032132529
0.00032132529
0.00032132529
0.00032132529
0.00032132529
0.00032132529
0.00032132529
0.00032132529
0.00032132529
0.00032132529
0.00032132529
0.00032132529
0.00032132529
0.00032132529
0.00032132529
0.00032132529
0.00032132529
0.00032132529
0.00032132529
0.00032132529
0.00032132529
0.00032132529
0.00032132529
0.00032132529
0.00032132529
0.00032132529
0.00032132529
0.00032132529
0.00032132529
0.00032132529
0.00032132529
0.00032132529
0.00032132529
0.00032132529
0.00032132529
0.00032132529
0.00032132529
0.00032132529
0.00032132529
0.00032132529
0.00032132529
0.00032132529
0.00032132529
0.00032132529
0.00032132529
0.00032132529
0.00032132529
0.00032132529
0.00032132529
0.00032132529
0.00032132529
0.00032132529
0.00032132529
0.00032132529
0.00032132529
0.00032132529
0.00032132529
0.00032132529
0.00032132529
0.00032132529
0.00032132529
0.00032132529
0.00032132529
0.00032132529
0.00032132529
0.00032132529
0.00032132529
)
;
        value           nonuniform List<scalar> 
130
(
825.67874
825.66812
825.63015
825.55203
825.42608
825.24781
825.01046
824.72207
824.39148
824.03349
823.66723
823.38511
823.21524
825.70876
825.69201
825.64101
825.54712
825.40294
825.20663
824.95767
824.64728
824.29917
823.92955
823.56615
823.28953
823.10556
825.72915
825.70689
825.63814
825.51822
825.33944
825.10506
824.82475
824.48484
824.09536
823.70693
823.37825
823.11283
822.9144
825.7271
825.68805
825.59703
825.44625
825.23263
824.95922
824.62643
824.23522
823.79421
823.39391
823.06108
822.80325
822.64191
825.64918
825.59738
825.485
825.30739
825.05545
824.73701
824.35295
823.91324
823.44455
823.03477
822.69091
822.42329
822.25335
825.49171
825.43568
825.30782
825.0991
824.80281
824.43498
823.98746
823.55812
823.14046
822.75765
822.42386
822.16042
821.99199
825.2968
825.23547
825.09833
824.87357
824.54288
824.19471
823.82925
823.46339
823.10798
822.76972
822.45996
822.21396
822.07912
825.10114
825.04133
824.90859
824.68955
824.41267
824.12314
823.81913
823.51721
823.22855
822.95157
822.71755
822.54485
822.4485
824.91514
824.8646
824.74809
824.56252
824.35489
824.11827
823.86607
823.62146
823.38307
823.15289
822.96097
822.82271
822.74532
824.79984
824.75254
824.64749
824.4992
824.32896
824.13763
823.93409
823.72614
823.51573
823.31086
823.14073
823.01531
822.94557
)
;
        Tnbr            T;
        thicknessLayers List<scalar> 0();
        kappaLayers     List<scalar> 0();
        kappaMethod     solidThermo;
        kappa           none;
        alphaAni        none;
        alpha           none;
        field           T;
    }
}


// ************************************************************************* //
