/*--------------------------------*- C++ -*----------------------------------*\
| =========                 |                                                 |
| \\      /  F ield         | OpenFOAM: The Open Source CFD Toolbox           |
|  \\    /   O peration     | Version:  v2012                                 |
|   \\  /    A nd           | Website:  www.openfoam.com                      |
|    \\/     M anipulation  |                                                 |
\*---------------------------------------------------------------------------*/
FoamFile
{
    version     2.0;
    format      ascii;
    class       volScalarField;
    location    "33";
    object      p;
}
// * * * * * * * * * * * * * * * * * * * * * * * * * * * * * * * * * * * * * //

dimensions      [0 2 -2 0 0 0 0];


internalField   nonuniform List<scalar> 
64000
(
3.69455e-22
-4.13314e-21
-3.31399e-21
-5.31026e-21
-8.40913e-21
-2.92487e-21
-4.69451e-21
-4.48125e-21
-5.62099e-21
-4.80682e-21
-4.72615e-21
-6.36229e-21
-4.4897e-21
-6.59041e-21
-3.98655e-21
-5.30882e-21
-1.18296e-21
-7.91632e-22
-1.50319e-21
-2.28003e-21
-1.6195e-21
-1.9977e-21
-2.18408e-21
1.46292e-23
-5.10059e-21
-1.68819e-21
5.84277e-22
-4.9302e-21
-2.91229e-21
-1.97233e-21
-3.31601e-21
7.5737e-23
1.95343e-22
-5.45114e-22
-1.2216e-21
-4.8867e-21
-5.62063e-22
1.01985e-22
-5.88275e-22
-1.25722e-21
-6.90433e-21
-1.16049e-20
-1.12868e-20
-8.22586e-21
-1.07342e-20
-1.11385e-20
-8.94338e-21
-5.69448e-21
-3.92217e-21
-9.3131e-21
-1.11861e-20
-1.10303e-20
-5.40678e-21
-5.21142e-21
-6.20671e-21
-5.77401e-21
-3.67506e-21
1.94408e-21
-9.93141e-22
-4.9268e-21
5.67146e-22
-2.95735e-21
-5.45743e-21
-8.4023e-21
-5.05963e-21
-2.62341e-21
-3.50944e-21
-5.62565e-21
-3.82086e-21
-1.38244e-21
1.10733e-21
-4.7486e-22
-4.03901e-21
-2.25741e-21
-6.81208e-22
-2.03198e-21
-8.1555e-22
1.78542e-21
-7.31939e-22
-2.53429e-21
-6.94083e-21
-9.63255e-21
-1.31121e-20
-1.00856e-20
-9.59831e-21
-1.12316e-20
-9.97289e-21
-7.90294e-21
-9.36164e-21
-1.02609e-20
-8.20051e-21
-9.16158e-21
-8.29628e-21
-4.72393e-21
-3.76092e-21
-1.35805e-21
-8.85961e-21
-3.20734e-21
1.57637e-21
-1.8076e-21
-3.55914e-21
-6.12612e-21
-6.11934e-21
-6.27477e-21
-3.45169e-21
-4.2906e-21
-4.72143e-21
-5.39533e-21
-1.82933e-21
-2.54751e-21
-1.94524e-21
-6.41333e-22
-3.58708e-21
6.58312e-22
-1.12045e-21
-5.03737e-21
2.69203e-21
3.14826e-21
8.63654e-23
4.84727e-23
-8.26667e-21
-9.49332e-21
-1.08272e-20
-1.43951e-20
-1.23776e-20
-1.33499e-20
-1.10766e-20
-7.64229e-21
-1.02097e-20
-1.07208e-20
-9.07088e-21
-9.89939e-21
-9.0554e-21
-5.15064e-21
-5.49958e-21
-3.53444e-21
-5.50248e-21
-4.39055e-21
1.64298e-21
-2.77311e-22
-3.58512e-21
-6.77658e-21
-9.02573e-21
-7.742e-21
-7.66704e-21
-1.71968e-21
-2.81756e-21
-3.22543e-21
-2.4816e-21
-3.29612e-21
-9.46303e-22
-1.25587e-21
-1.585e-21
-5.44486e-22
-1.94647e-21
-3.19686e-21
1.62441e-21
1.1235e-21
-1.15464e-21
-3.15152e-23
-1.54299e-20
-1.05344e-20
-1.16377e-20
-1.28785e-20
-1.20915e-20
-1.44303e-20
-1.09971e-20
-5.4228e-21
-9.01697e-21
-1.24109e-20
-9.9483e-21
-9.34708e-21
-7.42563e-21
-3.66143e-21
-9.3684e-21
-1.21559e-20
-5.36409e-21
-3.40592e-21
-5.83248e-22
-1.87433e-21
-3.15106e-21
-8.1029e-21
-9.37396e-21
-7.62902e-21
-5.4398e-21
-3.77835e-21
-2.28058e-21
-2.97714e-21
-5.02696e-21
-1.03361e-21
-1.67193e-22
1.17558e-21
-6.25108e-22
1.67494e-22
-2.8529e-21
-3.20152e-21
-4.71857e-22
-7.01927e-22
6.81634e-22
-9.588e-22
-1.22131e-20
-1.16444e-20
-1.1442e-20
-1.41011e-20
-1.20831e-20
-1.18777e-20
-8.9401e-21
-1.22303e-20
-1.21136e-20
-1.15305e-20
-9.76059e-21
-8.95762e-21
-8.75319e-21
-4.33041e-21
-8.07214e-21
-9.74704e-21
-4.92397e-21
-2.83888e-21
-2.8725e-21
-4.86392e-21
-1.4411e-21
-4.59532e-21
-1.04956e-20
-8.71594e-21
-8.52036e-21
-2.97905e-21
-3.07945e-21
-6.06164e-22
-2.30602e-21
-3.2306e-21
-2.76398e-21
-2.30981e-21
-1.23812e-21
-8.03783e-22
-1.10152e-21
3.23126e-22
-2.27995e-21
-1.28394e-21
-4.93732e-22
1.00905e-21
-1.27977e-20
-1.55117e-20
-9.83551e-21
-1.15987e-20
-1.29179e-20
-1.25043e-20
-9.62367e-21
-1.16775e-20
-1.28534e-20
-1.15388e-20
-1.00352e-20
-1.08876e-20
-7.37942e-21
-7.44544e-21
-8.01287e-21
-8.25079e-21
-5.13872e-21
-7.94277e-22
-1.2524e-21
-4.28255e-21
-3.94835e-21
-7.52262e-21
-1.28361e-20
-1.19247e-20
-5.99198e-21
-4.37982e-21
-2.89918e-21
3.54548e-22
-1.21883e-21
-7.67014e-22
-4.60431e-21
-5.27458e-21
-1.29068e-22
-1.7256e-22
-2.11536e-22
-1.97468e-21
-1.28546e-21
-8.69599e-22
-3.1903e-21
-7.49171e-23
-1.38105e-20
-1.41152e-20
-1.22095e-20
-1.12623e-20
-1.2451e-20
-1.03761e-20
-9.67423e-21
-1.71957e-20
-1.46785e-20
-1.20206e-20
-9.77175e-21
-9.05646e-21
-8.3859e-21
-9.50882e-21
-7.18505e-21
-8.54697e-21
-4.22551e-21
-2.41301e-21
-5.23702e-21
-3.50718e-21
-3.91139e-21
-8.31834e-21
-9.58911e-21
-9.78715e-21
-5.24587e-21
-4.75136e-21
-3.39567e-21
-8.61127e-22
-1.32761e-21
-2.39896e-21
-3.97232e-21
-3.65498e-21
7.41868e-24
-1.77512e-21
-4.27868e-21
-5.3659e-21
-1.4404e-21
-1.43599e-22
-5.4342e-22
-9.8134e-22
-1.86297e-20
-1.47759e-20
-1.17126e-20
-1.21255e-20
-1.32848e-20
-1.43505e-20
-1.28246e-20
-1.23289e-20
-1.34321e-20
-1.49339e-20
-8.02622e-21
-8.15783e-21
-8.00824e-21
-9.66696e-21
-1.06691e-20
-8.85913e-21
-4.39127e-21
1.15132e-21
-6.8035e-21
-7.19316e-21
-2.6136e-21
-8.16796e-21
-1.02986e-20
-9.39621e-21
-3.17812e-21
-4.15644e-21
-6.37044e-21
-3.66726e-21
-5.64417e-22
-4.13585e-21
-2.25537e-21
-1.55763e-21
-1.27751e-22
-2.12743e-21
-5.69495e-21
-2.8317e-21
-2.58526e-21
7.0143e-22
8.70573e-22
-1.05837e-21
-1.11102e-20
-1.27999e-20
-1.28655e-20
-1.18344e-20
-1.49137e-20
-1.5307e-20
-1.26379e-20
-1.20807e-20
-1.33687e-20
-1.39622e-20
-1.09437e-20
-8.12675e-21
-8.32365e-21
-9.99121e-21
-1.00498e-20
-7.50922e-21
-5.17663e-21
-3.6455e-21
-3.5798e-22
-2.52459e-21
-6.23545e-21
-7.01513e-21
-1.09986e-20
-9.73366e-21
-7.00588e-21
-3.49164e-21
-3.54951e-21
-9.22331e-22
-3.63645e-21
-3.40013e-21
-2.29735e-21
-1.14734e-21
-1.78446e-21
-2.0825e-21
-6.08982e-21
-3.92628e-21
-2.1044e-21
-1.31807e-22
2.14217e-22
4.5266e-22
-9.86739e-21
-1.33675e-20
-1.31492e-20
-1.59419e-20
-1.25626e-20
-1.41039e-20
-1.72005e-20
-1.05945e-20
-1.39425e-20
-1.4051e-20
-1.02131e-20
-8.31151e-21
-6.82339e-21
-1.00715e-20
-9.727e-21
-9.7238e-21
-5.18793e-21
-2.75894e-21
1.31201e-21
-1.71698e-21
-8.98076e-21
-1.14707e-20
-9.24547e-21
-8.13231e-21
-7.36849e-21
-5.24443e-21
2.75144e-22
-8.15006e-22
-3.26637e-21
-4.84984e-21
-4.04344e-21
7.54421e-22
-4.26565e-21
-2.10759e-21
-3.08018e-21
-5.24074e-21
-1.84589e-21
-1.96655e-21
9.96951e-22
8.46546e-22
-1.10203e-20
-1.46662e-20
-1.4629e-20
-1.38586e-20
-1.3661e-20
-1.60277e-20
-1.31674e-20
-1.45866e-20
-1.08335e-20
-1.31977e-20
-1.48963e-20
-9.44111e-21
-5.61246e-21
-9.96223e-21
-1.10675e-20
-1.03827e-20
-6.32133e-21
-1.41724e-21
-1.89545e-21
-2.28992e-21
-6.53051e-21
-1.13498e-20
-9.60797e-21
-9.08477e-21
-8.53691e-21
-1.79567e-21
-1.60734e-21
-2.31779e-21
-4.11345e-21
-2.68802e-21
-5.57786e-22
-1.62291e-21
-2.66471e-21
-1.42888e-21
-2.19058e-21
-3.86543e-21
-1.83078e-21
-1.6907e-21
-6.03001e-22
-6.72116e-22
-1.65236e-20
-1.41917e-20
-1.42291e-20
-1.45111e-20
-1.62462e-20
-1.5319e-20
-1.49744e-20
-1.54507e-20
-1.65184e-20
-1.355e-20
-1.14049e-20
-7.60171e-21
-7.77813e-21
-1.05112e-20
-9.64834e-21
-8.81128e-21
-6.05168e-21
-2.00387e-21
-1.03039e-21
-5.38708e-21
-6.4551e-21
-7.83601e-21
-8.29159e-21
-8.23478e-21
-5.21107e-21
-1.33795e-21
-1.54128e-21
-3.87982e-21
-3.32106e-21
-2.09533e-21
-4.85835e-21
-2.522e-21
4.00847e-22
-5.00682e-21
-6.00127e-21
-1.94913e-21
-3.40979e-22
-1.52594e-21
-1.36229e-21
-1.92843e-21
-1.89419e-20
-1.83667e-20
-1.45096e-20
-1.65316e-20
-1.31062e-20
-1.26609e-20
-1.52995e-20
-1.29462e-20
-1.33779e-20
-1.57479e-20
-1.14316e-20
-1.02863e-20
-1.05452e-20
-1.16834e-20
-1.00435e-20
-8.8006e-21
-5.44374e-21
-5.58131e-22
-1.51218e-21
-3.89562e-21
-7.41825e-21
-9.33078e-21
-1.08164e-20
-9.28948e-21
-2.76077e-21
1.11665e-21
8.13534e-22
-4.15251e-21
-5.92526e-21
4.0584e-22
-2.08295e-21
-4.76356e-21
-2.0161e-21
-2.90995e-21
-5.47404e-21
-2.10079e-21
-1.10151e-21
-2.43362e-21
6.89888e-22
-1.51148e-21
-1.24813e-20
-1.92655e-20
-1.79826e-20
-1.472e-20
-1.15417e-20
-1.40697e-20
-1.88688e-20
-1.85209e-20
-1.38949e-20
-1.08301e-20
-9.11292e-21
-1.29249e-20
-1.233e-20
-1.07321e-20
-7.68544e-21
-8.66564e-21
-6.57543e-21
-4.00842e-21
-4.14335e-21
-3.81298e-21
-9.6597e-21
-5.79793e-21
-7.76753e-21
-1.05079e-20
-2.68563e-21
-1.51463e-21
-2.23826e-21
-2.77506e-21
-2.72721e-21
-1.334e-21
-5.08781e-22
-1.93195e-21
-2.93583e-21
-2.2025e-21
-4.65984e-21
-3.22551e-21
-7.13895e-22
-2.28328e-21
-1.63342e-21
6.67983e-22
-1.36343e-20
-1.45214e-20
-1.76257e-20
-1.46468e-20
-1.5224e-20
-1.30681e-20
-1.67188e-20
-1.77084e-20
-1.30311e-20
-1.04953e-20
-1.38393e-20
-1.28623e-20
-1.12966e-20
-9.72981e-21
-1.07303e-20
-1.05407e-20
-5.95495e-21
-5.76749e-21
-3.46436e-21
-3.94655e-21
-1.01242e-20
-8.67399e-21
-7.54881e-21
-5.18194e-21
-1.52801e-21
-3.71146e-21
-4.98377e-21
-1.65662e-21
-1.95907e-21
-1.24366e-21
-1.48206e-21
-1.31327e-21
-2.41668e-21
-3.39632e-21
-6.80314e-21
-4.30898e-21
4.92419e-22
1.3461e-22
-1.90708e-21
-1.38981e-22
-1.44372e-20
-1.35166e-20
-1.64285e-20
-1.21159e-20
-1.24372e-20
-1.4595e-20
-1.85941e-20
-1.85122e-20
-1.32233e-20
-1.26567e-20
-1.22077e-20
-1.30385e-20
-6.62896e-21
-1.02088e-20
-1.15518e-20
-8.9378e-21
-7.26221e-21
-5.63963e-21
-6.05317e-21
-3.90348e-21
-9.81939e-21
-7.1027e-21
-7.3563e-21
-4.71221e-21
-2.50709e-21
-1.75699e-21
-3.39009e-21
-3.98277e-21
-1.39344e-21
-3.41649e-21
8.6302e-22
-4.1478e-21
-3.04547e-21
-1.83067e-21
-3.59698e-21
-3.18409e-21
-1.55255e-21
-2.18968e-21
-1.48317e-21
-2.669e-22
-1.06133e-20
-1.46371e-20
-1.90424e-20
-1.19819e-20
-9.8314e-21
-1.43083e-20
-1.79617e-20
-1.64121e-20
-1.42149e-20
-1.28089e-20
-1.25711e-20
-1.28457e-20
-8.24933e-21
-8.05067e-21
-1.3508e-20
-1.00801e-20
-7.34946e-21
-5.34166e-22
-5.14731e-21
-6.69394e-21
-1.35129e-20
-7.06122e-21
-3.35159e-21
-3.59474e-21
-3.10841e-22
-5.02469e-21
-3.78896e-21
-2.35313e-21
-3.0954e-21
-2.33577e-21
-1.69674e-21
-1.11925e-21
-1.76204e-21
-6.65636e-22
-1.22795e-21
-3.65795e-21
-2.8329e-21
-4.04681e-21
-7.55285e-22
5.68986e-22
-9.1765e-21
-1.10029e-20
-1.48968e-20
-1.42484e-20
-1.29822e-20
-1.39402e-20
-1.51278e-20
-1.40136e-20
-1.42475e-20
-1.39329e-20
-1.20325e-20
-1.2272e-20
-9.39786e-21
-6.35495e-21
-1.18146e-20
-8.89392e-21
-7.84179e-21
-8.31942e-21
-1.20948e-20
-8.2042e-21
-9.46094e-21
-1.12475e-21
-3.92611e-21
-4.33153e-21
-1.3588e-21
-1.9172e-21
-3.39566e-21
-1.3012e-21
-2.00737e-21
-2.44882e-21
-5.24111e-21
-6.02415e-22
-8.13322e-22
-1.43538e-21
-3.45669e-22
-1.13016e-21
-1.29287e-21
-1.69918e-21
-3.25594e-21
-2.4956e-21
-9.32251e-21
-1.07908e-20
-1.72967e-20
-1.54746e-20
-1.33533e-20
-1.1655e-20
-1.08827e-20
-1.40538e-20
-1.66547e-20
-1.47928e-20
-1.06047e-20
-1.08121e-20
-9.65744e-21
-9.46975e-21
-1.13368e-20
-9.29184e-21
-6.63934e-21
-6.0753e-21
-1.20943e-20
-7.35722e-21
-8.07704e-21
-6.04198e-21
-3.80414e-21
-4.90715e-21
-6.63845e-22
1.54098e-21
-7.49457e-21
-4.43211e-21
-2.00382e-21
-3.09468e-21
-1.63959e-21
-1.90622e-22
-1.54372e-21
-1.77268e-21
-1.84251e-21
-1.61904e-22
-2.26599e-21
-1.21548e-21
-2.68361e-21
-1.95153e-21
-1.1409e-20
-1.4019e-20
-1.5922e-20
-1.36469e-20
-1.14986e-20
-1.22227e-20
-1.15037e-20
-1.14917e-20
-1.39119e-20
-1.44898e-20
-1.50491e-20
-1.27936e-20
-8.62163e-21
-1.23431e-20
-1.1339e-20
-5.62544e-21
-8.43859e-21
-5.29545e-21
-7.46857e-21
-7.91259e-21
-7.22479e-21
-4.87695e-21
-3.23066e-21
-5.44025e-21
-5.82866e-21
-5.29217e-22
-3.44908e-21
-3.48957e-21
-3.25692e-21
-2.32361e-21
-2.71396e-21
-3.15953e-22
-3.11756e-21
1.17102e-22
-3.01846e-21
-1.55652e-21
-3.23664e-21
-1.28639e-21
-4.4139e-22
-2.4831e-21
-1.70723e-20
-1.57196e-20
-1.44136e-20
-1.33091e-20
-1.32148e-20
-1.30113e-20
-1.30868e-20
-1.05907e-20
-1.1874e-20
-1.35724e-20
-1.4637e-20
-1.47643e-20
-1.11935e-20
-1.31161e-20
-9.9447e-21
-7.51755e-21
-6.58984e-21
-4.94619e-21
-8.39051e-21
-9.33697e-21
-5.77228e-21
-1.92305e-21
-3.87184e-21
-4.56427e-21
-3.74256e-21
-2.52696e-21
-4.9559e-21
-6.14054e-21
-3.94016e-21
-1.75403e-21
-2.48015e-21
7.22122e-22
-1.64137e-22
-1.40092e-21
-3.75489e-21
-6.51546e-21
-1.80518e-21
-2.65844e-21
1.10398e-21
8.63262e-22
-1.72852e-20
-1.89021e-20
-1.3752e-20
-1.32764e-20
-1.39029e-20
-1.5652e-20
-1.24005e-20
-1.01272e-20
-1.48116e-20
-1.11391e-20
-1.40366e-20
-1.45465e-20
-1.17059e-20
-8.98059e-21
-8.91815e-21
-8.73234e-21
-6.5196e-21
-3.21273e-21
-2.65568e-21
-9.47897e-21
-7.90346e-21
-4.82906e-21
-6.53182e-21
-5.92863e-21
-4.88661e-21
-3.33485e-21
-3.82368e-21
-4.31848e-21
-2.85687e-21
-2.00155e-21
-2.13464e-21
-8.42361e-22
2.6485e-22
-1.15631e-21
-5.20274e-21
-5.32703e-21
-2.29867e-21
-9.74075e-22
-9.75501e-22
-1.60983e-22
-1.3179e-20
-1.48078e-20
-1.81784e-20
-1.23012e-20
-1.27813e-20
-1.47636e-20
-1.414e-20
-1.45177e-20
-1.13445e-20
-1.24575e-20
-1.47634e-20
-1.51332e-20
-7.67015e-21
-1.18189e-20
-1.30418e-20
-8.42323e-21
-3.09432e-21
-3.50342e-21
-5.82129e-21
-6.20813e-21
-7.31459e-21
-7.38574e-21
-9.39856e-21
-7.29211e-21
-5.90053e-21
-1.43177e-21
-3.80747e-21
-5.24597e-21
1.79627e-22
-2.42832e-21
-4.08933e-21
-3.04112e-22
6.3103e-22
-3.51867e-21
-5.86325e-21
-4.97531e-21
-3.95531e-21
-1.90129e-21
-1.51405e-21
-1.55642e-21
-1.06108e-20
-1.31234e-20
-1.6048e-20
-1.49364e-20
-1.20786e-20
-1.50122e-20
-1.37997e-20
-1.39398e-20
-1.05089e-20
-1.39549e-20
-1.68515e-20
-1.25439e-20
-6.71005e-21
-9.03259e-21
-1.0328e-20
-7.38496e-21
-6.25286e-21
-8.92998e-21
-5.4616e-21
-4.64648e-21
-7.19729e-21
-7.16587e-21
-5.81109e-21
-6.16041e-21
-8.44413e-21
-6.05761e-21
-1.84737e-21
-2.26505e-21
-2.565e-21
-2.87283e-21
-2.28885e-21
-2.41758e-21
-1.83216e-21
-2.89028e-22
-7.13669e-21
-5.46712e-21
-3.96231e-21
-1.44375e-21
-8.06204e-22
-1.25166e-21
-1.42537e-20
-1.65701e-20
-1.45644e-20
-1.21925e-20
-1.13171e-20
-1.3626e-20
-1.40824e-20
-1.69408e-20
-9.30491e-21
-1.1941e-20
-1.87262e-20
-1.45672e-20
-8.76893e-21
-8.88756e-21
-4.47984e-21
-7.05802e-21
-7.92827e-21
-4.70705e-21
-2.54605e-21
-6.01879e-21
-5.70068e-21
-5.10871e-21
-1.12484e-20
-1.13433e-20
-7.29858e-21
-6.32361e-21
-1.00882e-21
-4.53177e-21
-3.8199e-21
-1.13201e-22
-2.50993e-21
-2.61702e-21
-2.72542e-21
-1.20172e-21
-3.50965e-21
-5.37722e-21
-3.91643e-21
-2.102e-21
-5.59384e-22
-4.68577e-22
-8.35269e-21
-1.3011e-20
-1.51168e-20
-1.87772e-20
-1.32962e-20
-1.47039e-20
-1.2604e-20
-1.15639e-20
-1.15261e-20
-1.3168e-20
-1.71386e-20
-1.36775e-20
-8.69446e-21
-9.14162e-21
-5.32987e-21
-1.03015e-20
-7.11859e-21
-5.00206e-21
-1.0733e-21
-3.46783e-21
-3.75854e-21
-8.19649e-21
-8.13527e-21
-8.31931e-21
-8.95705e-21
-5.2974e-21
-4.50101e-22
-1.00648e-21
-5.53658e-21
-2.23846e-21
-1.30093e-22
-2.6251e-21
-3.13531e-21
-2.57913e-21
-8.69501e-21
-2.32344e-21
-3.55038e-21
-3.37859e-21
-1.57413e-21
-2.12738e-21
-9.33304e-21
-1.3716e-20
-1.47157e-20
-1.60363e-20
-1.31559e-20
-1.3693e-20
-1.27817e-20
-1.23402e-20
-1.25806e-20
-1.27586e-20
-1.55579e-20
-8.37389e-21
-9.38134e-21
-1.1187e-20
-6.54647e-21
-6.75619e-21
-7.70421e-21
-5.03078e-21
-4.18759e-21
-3.74097e-21
-4.69333e-21
-5.6581e-22
-5.80206e-21
-9.40318e-21
-8.60545e-21
-5.27897e-21
-2.49662e-21
-1.54426e-21
-4.27683e-21
-3.13997e-21
-2.09561e-21
-2.68469e-21
-4.85877e-21
-6.04702e-21
-5.86958e-21
-3.28635e-21
-3.27045e-21
-2.16442e-21
-2.74885e-21
-2.34619e-21
-1.31424e-20
-1.8349e-20
-1.49293e-20
-1.07037e-20
-1.74888e-20
-1.4514e-20
-1.26298e-20
-1.10325e-20
-1.21016e-20
-1.29528e-20
-1.27644e-20
-5.61853e-21
-8.81364e-21
-1.21274e-20
-7.40134e-21
-8.98005e-21
-8.99432e-21
-6.29986e-22
-2.82141e-21
-1.854e-21
-5.84086e-21
-4.70755e-21
-5.06053e-21
-6.06028e-21
-7.23915e-21
-3.77479e-21
-2.68781e-21
-4.17796e-21
-2.02233e-21
-5.46054e-21
-2.4273e-21
-1.82814e-21
-3.96284e-21
-3.18314e-21
-6.28091e-21
-4.6604e-21
-4.01685e-21
-3.82922e-21
-1.11857e-21
-6.90488e-22
-1.15519e-20
-1.55123e-20
-1.72578e-20
-1.23818e-20
-1.16246e-20
-1.73605e-20
-1.34501e-20
-6.79306e-21
-1.05116e-20
-1.62532e-20
-1.08542e-20
-9.33903e-21
-7.36668e-21
-1.24897e-20
-8.94825e-21
-8.85287e-21
-4.87468e-21
-4.49159e-21
-2.72092e-21
1.28322e-21
-2.96479e-21
-6.74339e-21
-7.62295e-21
-6.71951e-21
-9.47252e-21
-6.08004e-21
-6.73666e-22
2.74913e-21
-3.56054e-21
-4.24589e-21
-2.94708e-21
-3.47746e-21
-5.52776e-21
-2.04442e-21
-4.06157e-21
-6.57723e-21
-3.85055e-21
3.48282e-22
-1.47246e-21
-2.44503e-21
-1.27476e-20
-1.29461e-20
-1.31574e-20
-1.36936e-20
-1.3332e-20
-1.38206e-20
-1.34418e-20
-1.15261e-20
-9.99723e-21
-1.17929e-20
-9.64742e-21
-8.82765e-21
-8.68816e-21
-1.03056e-20
-8.77886e-21
-8.79745e-21
-4.30799e-21
-4.37081e-21
-2.54451e-21
-1.51409e-21
-3.25447e-21
-6.71042e-21
-8.71893e-21
-7.62408e-21
-6.65849e-21
-4.60882e-21
-1.14103e-21
-2.05153e-21
-4.01931e-21
-3.69546e-21
-3.11524e-21
-3.10759e-21
-1.89557e-21
-1.34255e-21
-2.38414e-21
-7.06059e-21
-3.14725e-21
-1.02888e-21
-1.69531e-21
-2.02715e-21
-1.60564e-20
-1.47815e-20
-1.19563e-20
-1.20274e-20
-1.40918e-20
-1.45485e-20
-1.16793e-20
-1.11683e-20
-1.16717e-20
-9.5628e-21
-7.14897e-21
-1.02069e-20
-1.20043e-20
-1.15123e-20
-6.96408e-21
-8.1152e-21
-5.18741e-21
-2.95515e-21
7.63423e-23
-3.41284e-21
-1.95887e-21
-5.47497e-21
-1.31643e-20
-7.70772e-21
-7.26813e-21
-6.70937e-21
-6.7861e-22
3.49762e-22
-2.95468e-21
-4.62585e-21
-3.84211e-21
-5.4003e-21
9.27281e-22
-4.76168e-22
-3.64242e-21
-5.62983e-21
-2.29571e-21
1.33701e-21
-1.25268e-21
-2.61858e-21
-1.07194e-20
-1.04935e-20
-1.20233e-20
-9.71419e-21
-1.72702e-20
-1.53114e-20
-1.34145e-20
-1.17327e-20
-9.55098e-21
-1.00626e-20
-9.96528e-21
-8.60297e-21
-1.1544e-20
-9.03286e-21
-5.57932e-21
-8.23767e-21
-7.86945e-21
-3.8961e-21
-6.14731e-22
-1.26248e-21
-3.27287e-21
-5.05046e-21
-1.09003e-20
-8.19491e-21
-9.07262e-21
-6.91095e-21
1.17144e-21
4.31051e-22
-3.55557e-21
-4.42582e-21
-3.38208e-21
-4.22062e-21
-3.71616e-22
5.77268e-22
-2.41887e-21
-4.43227e-21
-2.13468e-21
-4.51212e-22
-5.56193e-22
-6.14779e-22
-1.2115e-20
-1.24662e-20
-1.24909e-20
-1.36455e-20
-1.45886e-20
-1.05999e-20
-1.25372e-20
-1.05011e-20
-9.69989e-21
-7.08934e-21
-7.9238e-21
-1.3222e-20
-1.03776e-20
-7.70268e-21
-6.66434e-21
-8.91686e-21
-8.40501e-21
-4.07207e-21
-2.56242e-21
-3.11484e-21
-2.12547e-21
-3.78538e-21
-8.46222e-21
-8.49773e-21
-6.51784e-21
-5.25993e-21
-2.79379e-21
-1.99042e-21
-1.7315e-21
-4.11862e-21
-3.67404e-21
-2.48092e-21
-1.71787e-21
-4.75205e-22
1.5937e-21
-3.33766e-21
-2.65648e-21
1.72209e-21
-1.83886e-21
-2.66463e-21
-1.28384e-20
-1.11665e-20
-9.79881e-21
-9.83291e-21
-1.31797e-20
-1.46594e-20
-1.30501e-20
-1.33852e-20
-1.13002e-20
-8.15946e-21
-4.33766e-21
-1.16281e-20
-6.52292e-21
-5.36836e-21
-6.55822e-21
-9.3539e-21
-1.14802e-20
-3.43583e-21
-9.82981e-22
-2.84533e-21
-3.71239e-21
-6.28483e-21
-5.13327e-21
-5.83343e-21
-6.0141e-21
-3.84353e-21
-5.02819e-21
-7.08331e-21
-1.86398e-21
-2.97143e-21
-4.49622e-21
-3.94694e-21
-3.93175e-21
-1.9679e-21
6.07694e-22
1.36032e-21
-4.77085e-22
1.22323e-21
1.4215e-22
-2.82024e-22
-8.31478e-21
-1.04462e-20
-1.08362e-20
-9.02841e-21
-8.28518e-21
-1.73305e-20
-1.16962e-20
-1.19517e-20
-1.18498e-20
-1.13362e-20
-9.03416e-21
-6.61016e-21
-8.36544e-21
-6.40033e-21
-7.4366e-21
-6.50361e-21
-7.66973e-21
-4.38365e-21
-3.20281e-21
-3.64e-21
-3.89277e-21
-5.14121e-21
-4.87861e-21
-7.67619e-21
-4.5467e-21
-1.71426e-21
-1.25163e-21
-1.59874e-21
-4.13003e-21
-2.78411e-21
-5.29093e-21
-3.96064e-21
-2.30564e-21
-3.70796e-21
-3.11614e-21
3.39e-22
1.12724e-21
9.94684e-22
8.65484e-22
-6.59167e-22
-7.02961e-21
-9.34959e-21
-1.12426e-20
-9.48985e-21
-7.35351e-21
-1.42355e-20
-1.32652e-20
-9.94423e-21
-9.84049e-21
-9.33143e-21
-8.89351e-21
-7.64735e-21
-9.77688e-21
-5.94121e-21
-7.93782e-21
-7.3287e-21
-5.12076e-21
3.76862e-23
1.3399e-22
-4.70572e-21
-4.42307e-21
-7.78801e-21
-7.40115e-21
-6.2601e-21
-4.89427e-21
-3.88046e-21
-1.91329e-21
-6.89875e-22
-1.8317e-21
-2.07326e-21
-6.27239e-21
-3.98174e-21
-4.87661e-21
-2.58366e-21
-1.22317e-21
3.7846e-22
9.82586e-22
-2.02206e-21
-1.22322e-21
-2.28536e-22
-5.42081e-21
-9.32913e-21
-1.2155e-20
-7.29912e-21
-7.10366e-21
-1.18548e-20
-1.00342e-20
-9.34674e-21
-9.46495e-21
-9.32666e-21
-5.90961e-21
-9.0977e-21
-1.00455e-20
-9.64955e-21
-3.94361e-21
-3.46051e-21
-2.44477e-21
-3.44306e-21
-3.56455e-21
-4.97565e-21
-4.96845e-21
-5.62608e-21
-6.32424e-21
-6.66015e-21
-3.82769e-21
-1.66266e-21
-2.86821e-21
-6.31097e-22
-3.16329e-22
-3.41159e-21
-6.56834e-21
-4.64496e-21
-5.94158e-21
-2.00444e-21
-2.12168e-21
3.27769e-22
1.90976e-21
2.25517e-21
-2.35572e-22
-1.09171e-21
-6.70815e-21
-9.16621e-21
-1.13249e-20
-6.29099e-21
-6.12627e-21
-1.32339e-20
-1.01605e-20
-5.58408e-21
-9.58258e-21
-9.39529e-21
-6.18595e-21
-6.36169e-21
-7.01815e-21
-7.18436e-21
-7.05015e-21
-3.37515e-21
-3.34053e-21
-1.32713e-21
-4.33883e-21
-4.12104e-21
-2.30611e-21
-5.4957e-21
-6.46326e-21
-9.35088e-21
-6.86581e-21
-1.23561e-21
-1.36036e-21
1.16637e-21
-2.39841e-21
-3.05372e-21
-2.48737e-21
-3.55968e-21
-3.55866e-21
-1.13001e-21
-5.28148e-22
-2.56771e-21
-2.41181e-21
-2.95791e-22
2.88513e-21
-1.5558e-21
-6.01486e-21
-6.81506e-21
-6.83142e-21
-2.91426e-21
-3.28232e-21
-3.6355e-21
-8.30855e-21
-4.77866e-21
-6.82298e-21
-6.2301e-21
-2.36488e-21
-2.37717e-21
-5.68579e-21
-4.37371e-21
-4.12033e-21
-2.95424e-21
-8.19625e-22
4.07172e-22
-4.16316e-21
-6.40124e-22
-3.84793e-21
-7.17645e-21
-6.00282e-21
-4.24367e-21
-4.04566e-21
-8.28824e-22
-6.09145e-22
-2.02032e-22
-5.91677e-22
8.84456e-22
-7.20299e-22
-1.36192e-21
-2.29498e-21
-2.20066e-21
7.28434e-23
-6.25926e-21
-3.34972e-21
-2.50927e-21
1.43581e-21
1.40593e-21
-5.07976e-21
-9.07526e-21
-1.32656e-20
-9.54878e-21
-9.00678e-21
-1.12347e-20
-7.18957e-21
-4.548e-21
-1.32082e-20
-1.15391e-20
-5.67225e-21
-5.85602e-21
-8.75538e-21
-4.25886e-21
-5.78449e-21
-8.41133e-21
-5.24179e-21
3.86421e-22
-2.01043e-21
-5.48961e-21
-3.29621e-21
-2.0056e-21
-4.35651e-21
-3.70121e-21
-2.66778e-21
-3.10347e-21
-3.41925e-21
-3.55453e-21
-5.58967e-21
-5.02989e-21
-5.23052e-21
-2.53028e-22
-1.19859e-21
-4.83665e-22
-3.22375e-21
-4.71674e-21
-5.88154e-22
-1.58469e-21
-1.67048e-21
6.36977e-22
-6.79988e-21
-1.19843e-20
-1.81966e-20
-1.53279e-20
-1.2337e-20
-1.48776e-20
-1.30819e-20
-8.84298e-21
-9.8761e-21
-1.6965e-20
-1.27666e-20
-1.14079e-20
-1.13712e-20
-7.8383e-21
-8.45428e-21
-8.40915e-21
-7.09253e-21
-4.58845e-21
-5.13206e-21
-6.07261e-21
-3.74602e-21
-3.04748e-21
-6.01731e-21
-9.16653e-21
-4.05117e-21
-3.01603e-21
-2.62573e-21
-2.81783e-21
-8.5917e-21
-3.6395e-21
-1.09646e-21
-1.02792e-21
-2.74635e-21
-1.76556e-21
-6.14705e-21
-3.49411e-21
1.24374e-21
2.70661e-21
3.39157e-22
-2.29187e-22
-1.12769e-20
-1.41534e-20
-1.45056e-20
-1.59264e-20
-1.47624e-20
-1.35927e-20
-1.38568e-20
-1.16646e-20
-1.44713e-20
-1.64091e-20
-1.27366e-20
-1.24241e-20
-9.05601e-21
-5.16596e-21
-9.62762e-21
-8.7172e-21
-9.23739e-21
-7.60667e-21
-1.8742e-21
-7.35546e-21
-5.30917e-21
-2.98062e-21
-3.56037e-21
-6.94128e-21
-6.99797e-21
-4.0652e-21
-5.10635e-21
-4.77297e-21
-4.53444e-21
-4.04824e-21
-5.78832e-21
-3.02453e-21
-1.53878e-21
-9.23343e-22
-3.69764e-21
-2.26888e-21
2.10342e-21
5.47706e-22
-3.7993e-22
8.44254e-22
-1.59589e-20
-1.54634e-20
-1.52673e-20
-1.93131e-20
-1.65116e-20
-1.42339e-20
-1.49992e-20
-1.27567e-20
-1.36851e-20
-1.35837e-20
-1.34581e-20
-1.43136e-20
-1.07421e-20
-7.30995e-21
-9.84392e-21
-8.28811e-21
-8.05814e-21
-6.87801e-21
-3.78429e-21
-3.08435e-21
-6.7516e-21
-6.80974e-21
-6.62662e-21
-7.24175e-21
-6.31834e-21
-5.11945e-21
-4.8926e-21
-3.77537e-21
-3.71619e-21
-4.78865e-21
-3.92291e-21
-9.98609e-22
-4.08771e-21
-2.69687e-21
-2.14917e-21
-1.02773e-21
1.77167e-21
1.42008e-22
-1.04574e-21
-4.70909e-22
-1.64832e-20
-1.61039e-20
-1.55756e-20
-1.75658e-20
-1.89785e-20
-1.8801e-20
-1.40362e-20
-1.15638e-20
-9.95281e-21
-1.53194e-20
-1.41826e-20
-1.41957e-20
-9.22434e-21
-9.67767e-21
-1.27073e-20
-1.27697e-20
-7.95894e-21
-5.8847e-21
-3.66668e-21
-3.66755e-21
-6.04163e-21
-7.06132e-21
-6.6536e-21
-8.80799e-21
-8.1155e-21
-4.31604e-21
-4.76698e-21
-4.47677e-21
-2.60603e-21
-2.58383e-21
-3.81254e-21
-4.41381e-21
-2.68706e-21
-1.1083e-21
-1.24491e-21
-5.40131e-22
1.15664e-21
-2.67924e-23
-5.67823e-22
-1.3329e-21
-1.50805e-20
-1.73692e-20
-1.62193e-20
-1.69446e-20
-1.83842e-20
-1.99241e-20
-1.28525e-20
-1.55106e-20
-1.57201e-20
-1.42616e-20
-1.34092e-20
-1.48507e-20
-1.2674e-20
-1.02795e-20
-1.35981e-20
-1.09446e-20
-8.39785e-21
-5.38784e-21
-3.6206e-21
-3.75351e-21
-5.7925e-21
-7.9343e-21
-7.77398e-21
-8.08026e-21
-8.50848e-21
-6.26368e-21
-3.07201e-21
-2.46638e-21
-3.73446e-21
-4.10821e-21
-3.82636e-21
-2.61115e-21
-7.1845e-23
-3.28131e-21
-2.52464e-21
-1.84544e-22
5.99853e-22
1.61363e-21
8.93281e-22
-1.6585e-21
-1.79725e-20
-2.11115e-20
-1.74899e-20
-1.75752e-20
-1.91121e-20
-1.75592e-20
-1.62549e-20
-1.64657e-20
-1.68169e-20
-1.54103e-20
-1.50282e-20
-1.56849e-20
-1.31353e-20
-1.07197e-20
-1.4046e-20
-9.87395e-21
-5.74643e-21
-4.19522e-21
-5.49072e-21
-5.08828e-21
-5.10489e-21
-6.27689e-21
-8.51566e-21
-1.1195e-20
-8.26432e-21
-5.71212e-21
-3.93796e-21
-2.53352e-21
-1.65114e-21
-9.93194e-22
-3.43963e-21
-5.06083e-21
4.11675e-22
-2.91436e-23
-3.28466e-21
-1.95071e-21
7.9596e-23
2.64948e-22
-2.17297e-21
-2.75641e-21
-1.68372e-20
-1.94082e-20
-1.80336e-20
-1.88404e-20
-2.00679e-20
-1.51228e-20
-1.78944e-20
-1.88848e-20
-1.8783e-20
-1.76399e-20
-1.60609e-20
-1.4664e-20
-1.27454e-20
-1.13932e-20
-1.3338e-20
-1.08686e-20
-6.49054e-21
-4.98852e-21
-5.25887e-21
-3.77275e-21
-5.25184e-21
-9.54383e-21
-9.17948e-21
-9.03768e-21
-8.97984e-21
-5.31253e-21
-3.33364e-21
-3.79203e-21
-6.65697e-22
-1.30294e-21
-5.19396e-21
-3.36956e-21
-2.0097e-21
-2.08906e-21
-2.13246e-21
-1.68592e-21
-1.66805e-23
2.15496e-22
-2.96841e-21
-3.39701e-22
-1.76592e-20
-2.18806e-20
-2.07727e-20
-1.94799e-20
-1.98811e-20
-1.74182e-20
-1.92474e-20
-1.81881e-20
-1.89236e-20
-1.81885e-20
-1.55822e-20
-1.66605e-20
-1.16473e-20
-1.16064e-20
-1.36811e-20
-1.11593e-20
-9.04617e-21
-4.21209e-21
-5.34611e-21
-5.88865e-21
-3.38577e-21
-9.30916e-21
-1.02684e-20
-1.19088e-20
-7.51131e-21
-3.7298e-21
-4.74155e-21
-3.77342e-21
1.54115e-21
-5.2384e-21
-4.41592e-21
-3.34786e-21
-2.5831e-21
-1.29928e-21
-1.78659e-21
-2.26553e-22
-9.44561e-22
-9.21593e-22
-4.47036e-22
-1.10245e-21
-1.92618e-20
-1.98824e-20
-1.83186e-20
-2.19031e-20
-2.21312e-20
-2.10078e-20
-2.1851e-20
-1.80629e-20
-1.46862e-20
-1.67979e-20
-1.72948e-20
-1.54213e-20
-1.37984e-20
-1.30143e-20
-1.27294e-20
-1.09686e-20
-7.63334e-21
-5.88129e-21
-2.65304e-21
-3.47813e-21
-8.40818e-21
-1.21026e-20
-1.17023e-20
-1.10251e-20
-5.89301e-21
-4.45448e-21
-4.11423e-21
-2.88966e-21
-3.23674e-21
-4.79545e-21
-2.30205e-21
-2.97286e-21
-4.24491e-21
-1.41349e-21
-2.41867e-21
-4.03709e-23
5.33304e-22
-7.08469e-22
1.51281e-22
4.35775e-22
-1.9938e-20
-2.21837e-20
-2.16668e-20
-2.16722e-20
-2.11155e-20
-1.97978e-20
-2.08258e-20
-2.10833e-20
-1.68173e-20
-1.63456e-20
-1.44615e-20
-1.44515e-20
-1.26169e-20
-1.08418e-20
-1.33646e-20
-1.31159e-20
-7.56629e-21
-5.78793e-21
-2.53552e-21
-5.10828e-21
-1.01768e-20
-1.0478e-20
-1.24312e-20
-1.29707e-20
-5.21025e-21
-4.22386e-21
-3.76166e-21
-4.02824e-21
-3.6248e-21
-3.74383e-21
-3.08277e-21
-3.09163e-21
-2.50635e-21
-2.47795e-21
-2.73437e-21
-7.83466e-22
-1.57362e-21
-1.80585e-21
-8.56158e-22
-6.74776e-22
-2.14329e-20
-2.41211e-20
-2.06994e-20
-2.01655e-20
-1.93216e-20
-2.18106e-20
-2.05068e-20
-1.94076e-20
-1.58153e-20
-1.85265e-20
-1.52598e-20
-1.42541e-20
-1.44608e-20
-1.0994e-20
-1.35749e-20
-1.50436e-20
-8.98357e-21
-4.23753e-21
-3.48771e-21
-6.16841e-21
-8.82543e-21
-1.14618e-20
-1.14789e-20
-1.24001e-20
-3.82663e-21
-5.90377e-21
-4.81895e-21
-3.16376e-21
-1.70458e-21
-4.26501e-21
-3.47181e-21
-2.75151e-21
-2.73537e-21
-2.11198e-21
-2.72166e-21
-1.82335e-21
-7.59258e-22
-1.80362e-21
-1.70594e-21
1.31427e-21
-2.37104e-20
-2.36226e-20
-2.08221e-20
-2.27992e-20
-2.09582e-20
-2.26086e-20
-1.97003e-20
-1.86123e-20
-1.89936e-20
-1.63498e-20
-1.28179e-20
-1.48781e-20
-1.53589e-20
-1.3083e-20
-1.29591e-20
-1.1357e-20
-7.68091e-21
-5.94877e-21
-6.10239e-21
-6.6759e-21
-8.29337e-21
-7.82337e-21
-1.06173e-20
-9.92956e-21
-5.49962e-21
-3.57137e-21
-4.19865e-21
-3.5521e-21
-3.34278e-21
-1.94597e-21
-3.71403e-21
-3.75398e-21
-2.6291e-21
-2.02414e-21
-7.78343e-21
-1.40946e-21
1.58341e-21
-3.50863e-21
-3.07508e-21
7.15817e-22
-2.63529e-20
-2.56582e-20
-2.16884e-20
-2.28066e-20
-2.1431e-20
-1.98711e-20
-2.04556e-20
-1.68267e-20
-1.86365e-20
-1.88528e-20
-1.46337e-20
-1.25001e-20
-1.71837e-20
-1.24639e-20
-1.34633e-20
-1.20124e-20
-1.14438e-20
-6.86908e-21
-4.62121e-21
-2.76431e-21
-9.36116e-21
-9.88252e-21
-1.12846e-20
-1.00304e-20
-4.3412e-21
-2.62909e-21
-3.92241e-21
-4.20686e-21
-4.66485e-21
-3.09555e-21
-4.12377e-21
-3.18842e-21
-2.18262e-21
-3.76575e-21
-6.36842e-21
-1.78889e-21
-2.46255e-22
1.63213e-21
-3.43667e-22
5.03438e-22
-2.7645e-20
-2.48555e-20
-2.05033e-20
-2.01974e-20
-2.13324e-20
-1.91018e-20
-2.03955e-20
-1.77382e-20
-1.85379e-20
-1.67113e-20
-1.44583e-20
-1.64075e-20
-1.70225e-20
-1.36013e-20
-1.33088e-20
-1.15885e-20
-7.95939e-21
-6.18628e-21
-7.537e-21
-8.2192e-21
-8.45175e-21
-1.01937e-20
-1.24808e-20
-8.8595e-21
-4.18122e-21
-4.00218e-21
-4.61169e-21
-2.63202e-21
-3.44944e-21
-2.55414e-21
-4.68962e-21
-3.29648e-21
-2.05779e-21
-2.05076e-21
-6.1422e-21
-3.2374e-21
1.88602e-21
-8.67433e-22
-1.55096e-21
-4.74998e-22
-2.46328e-20
-2.53258e-20
-2.19581e-20
-2.22832e-20
-2.1735e-20
-1.95143e-20
-1.99951e-20
-1.83581e-20
-1.76028e-20
-1.43458e-20
-1.63344e-20
-1.86202e-20
-1.85355e-20
-1.25867e-20
-1.20801e-20
-1.27321e-20
-7.66802e-21
-7.59083e-21
-6.82953e-21
-5.98092e-21
-1.03053e-20
-1.18364e-20
-1.09766e-20
-6.77274e-21
-4.72004e-21
-4.51246e-21
-3.96155e-21
-2.39035e-21
-4.14118e-21
-3.10571e-21
-2.65118e-21
-2.34234e-21
-1.36945e-21
-3.10478e-21
-5.20457e-21
-2.20127e-21
3.09495e-22
-2.19247e-21
-1.86228e-21
-1.85176e-21
-2.18435e-20
-2.22874e-20
-2.32335e-20
-2.0068e-20
-2.36334e-20
-2.14901e-20
-2.13664e-20
-2.05648e-20
-1.87377e-20
-1.3366e-20
-1.45507e-20
-1.67641e-20
-1.64626e-20
-1.54855e-20
-1.28969e-20
-7.98979e-21
-4.95429e-21
-7.35525e-21
-1.09733e-20
-9.65901e-21
-1.14229e-20
-8.02372e-21
-7.69335e-21
-6.17144e-21
-3.22464e-21
-5.16875e-21
-3.74648e-21
-3.28807e-21
-4.36662e-21