/*--------------------------------*- C++ -*----------------------------------*\
| =========                 |                                                 |
| \\      /  F ield         | OpenFOAM: The Open Source CFD Toolbox           |
|  \\    /   O peration     | Version:  v2012                                 |
|   \\  /    A nd           | Website:  www.openfoam.com                      |
|    \\/     M anipulation  |                                                 |
\*---------------------------------------------------------------------------*/
FoamFile
{
    version     2.0;
    format      ascii;
    class       surfaceScalarField;
    location    "33";
    object      phi;
}
// * * * * * * * * * * * * * * * * * * * * * * * * * * * * * * * * * * * * * //

dimensions      [0 3 -1 0 0 0 0];
oriented        oriented;


internalField   nonuniform List<scalar> 
187200
(
1.875e-06
2.46437e-22
2.3413e-22
1.875e-06
3.63296e-22
3.23728e-22
1.875e-06
4.25985e-22
4.81323e-22
1.875e-06
3.26051e-22
3.60197e-22
1.875e-06
3.376e-22
2.57458e-22
1.875e-06
4.48763e-22
3.97461e-22
1.875e-06
3.7382e-22
3.06235e-22
1.875e-06
2.781e-22
2.66864e-22
1.875e-06
2.06132e-22
4.3753e-22
1.875e-06
3.3441e-22
3.84644e-22
1.875e-06
4.25018e-22
2.67585e-22
1.875e-06
3.42305e-22
1.86634e-22
1.875e-06
2.27781e-22
3.1283e-22
1.875e-06
1.58037e-22
1.33285e-22
1.875e-06
1.75731e-22
2.2773e-22
1.875e-06
1.33232e-22
2.58066e-22
1.875e-06
1.79968e-22
2.41106e-22
1.875e-06
7.07371e-23
9.91785e-23
1.875e-06
4.44142e-23
9.68942e-23
1.875e-06
1.33007e-22
1.75978e-22
1.875e-06
4.99677e-23
1.2999e-22
1.875e-06
1.34038e-22
1.36474e-22
1.875e-06
2.11252e-22
1.47681e-22
1.875e-06
3.34222e-22
1.48149e-22
1.875e-06
1.45572e-22
4.22486e-23
1.875e-06
1.143e-22
1.13874e-22
1.875e-06
1.78797e-22
1.88151e-22
1.875e-06
1.07481e-22
6.06928e-23
1.875e-06
1.04719e-22
1.46232e-22
1.875e-06
2.33188e-24
1.56722e-22
1.875e-06
-1.09536e-22
7.44727e-23
1.875e-06
4.13422e-23
1.05508e-22
1.875e-06
1.44348e-22
8.66674e-23
1.875e-06
6.08272e-23
2.53174e-23
1.875e-06
-6.06261e-24
8.25606e-23
1.875e-06
-6.03256e-23
5.67302e-23
1.875e-06
-4.56699e-23
2.50875e-23
1.875e-06
-1.12473e-22
7.21454e-23
1.875e-06
-6.20273e-23
1.05225e-22
-1.77929e-23
3.27552e-23
1.875e-06
1.16522e-22
2.23897e-22
1.875e-06
1.09681e-22
4.39392e-22
1.875e-06
2.66438e-22
7.31048e-22
1.875e-06
2.98261e-22
7.37857e-22
1.875e-06
2.77659e-22
5.73261e-22
1.875e-06
3.05087e-22
6.30208e-22
1.875e-06
3.41655e-22
6.73169e-22
1.875e-06
3.53235e-22
6.3634e-22
1.875e-06
4.22612e-22
7.00895e-22
1.875e-06
2.94433e-22
7.76011e-22
1.875e-06
1.92517e-22
6.06585e-22
1.875e-06
1.93671e-22
5.2539e-22
1.875e-06
2.54285e-22
6.02983e-22
1.875e-06
1.47739e-22
4.92388e-22
1.875e-06
7.07803e-23
4.93e-22
1.875e-06
3.65932e-23
4.7942e-22
1.875e-06
2.89518e-22
4.55486e-22
1.875e-06
3.05018e-22
5.27666e-22
1.875e-06
3.69433e-23
4.1975e-22
1.875e-06
6.00757e-24
2.60506e-22
1.875e-06
2.371e-22
3.3273e-22
1.875e-06
2.3623e-22
2.69516e-22
1.875e-06
1.67903e-22
2.43995e-22
1.875e-06
1.15743e-22
2.26424e-22
1.875e-06
1.02405e-22
1.77618e-22
1.875e-06
1.48524e-22
2.04641e-22
1.875e-06
1.15946e-22
1.74889e-22
1.875e-06
5.74066e-23
1.1232e-22
1.875e-06
-1.79548e-23
2.98748e-22
1.875e-06
6.33234e-23
2.57528e-22
1.875e-06
1.05322e-22
1.63009e-22
1.875e-06
1.35238e-23
1.03277e-22
1.875e-06
3.11891e-25
-2.13713e-23
1.875e-06
-7.47941e-23
2.40386e-23
1.875e-06
4.53089e-24
1.91154e-22
1.875e-06
3.55609e-23
1.1051e-22
1.875e-06
-1.39989e-22
-2.00544e-23
1.875e-06
-9.28301e-23
2.38389e-23
1.875e-06
-8.25026e-23
8.40399e-23
-1.32808e-22
3.43739e-23
1.875e-06
1.04842e-22
3.43791e-22
1.875e-06
1.42999e-22
6.33644e-22
1.875e-06
1.23101e-22
6.94223e-22
1.875e-06
3.17939e-22
8.44429e-22
1.875e-06
2.70777e-22
7.64523e-22
1.875e-06
3.25079e-22
7.3052e-22
1.875e-06
2.96444e-22
8.03854e-22
1.875e-06
2.76125e-22
8.12138e-22
1.875e-06
2.76143e-22
8.54045e-22
1.875e-06
2.66434e-22
8.65832e-22
1.875e-06
2.62087e-22
8.05677e-22
1.875e-06
2.04841e-22
7.3897e-22
1.875e-06
1.89697e-22
5.92029e-22
1.875e-06
1.80641e-22
5.0244e-22
1.875e-06
2.48714e-22
6.34442e-22
1.875e-06
2.34793e-22
6.71923e-22
1.875e-06
1.12295e-22
4.89311e-22
1.875e-06
1.85927e-22
5.636e-22
1.875e-06
1.20641e-22
5.09298e-22
1.875e-06
6.24135e-23
4.19504e-22
1.875e-06
3.49654e-23
3.08207e-22
1.875e-06
1.4042e-22
1.8479e-22
1.875e-06
2.48322e-22
1.44793e-22
1.875e-06
2.02313e-22
2.41072e-22
1.875e-06
2.49248e-22
3.56748e-22
1.875e-06
4.46342e-23
2.94548e-22
1.875e-06
1.36816e-23
2.73923e-22
1.875e-06
-2.80988e-23
2.24064e-22
1.875e-06
-1.4751e-23
2.95836e-22
1.875e-06
3.18945e-23
2.45732e-22
1.875e-06
6.49552e-24
2.71163e-22
1.875e-06
3.73489e-23
1.53952e-22
1.875e-06
-6.22021e-23
-1.47841e-23
1.875e-06
-1.47447e-23
6.4e-23
1.875e-06
-7.16482e-24
8.86084e-23
1.875e-06
-6.52887e-23
-4.63114e-23
1.875e-06
-1.52582e-23
9.40904e-24
1.875e-06
3.29008e-23
1.82405e-22
1.875e-06
1.67903e-23
1.50849e-22
-1.34942e-24
6.43535e-23
1.875e-06
2.42267e-22
4.72837e-22
1.875e-06
1.78313e-22
7.39599e-22
1.875e-06
1.56311e-22
8.1618e-22
1.875e-06
1.26944e-22
9.04715e-22
1.875e-06
1.84925e-22
8.79721e-22
1.875e-06
1.9417e-22
7.37569e-22
1.875e-06
1.75612e-22
8.18825e-22
1.875e-06
1.70158e-22
8.91651e-22
1.875e-06
2.13345e-22
8.99378e-22
1.875e-06
2.75497e-22
8.76083e-22
1.875e-06
2.22154e-22
8.5809e-22
1.875e-06
1.93377e-22
8.34723e-22
1.875e-06
1.48518e-22
6.5511e-22
1.875e-06
1.30567e-22
6.24245e-22
1.875e-06
2.98834e-22
6.66129e-22
1.875e-06
4.78883e-22
6.77123e-22
1.875e-06
1.87386e-22
5.4499e-22
1.875e-06
1.04084e-22
5.45755e-22
1.875e-06
1.61347e-22
5.9348e-22
1.875e-06
1.04958e-22
3.74664e-22
1.875e-06
6.96658e-23
3.70822e-22
1.875e-06
1.43471e-22
2.66919e-22
1.875e-06
1.216e-22
1.39348e-22
1.875e-06
1.18281e-22
2.31053e-22
1.875e-06
8.24057e-23
2.82978e-22
1.875e-06
1.75478e-22
4.01547e-22
1.875e-06
4.85749e-23
3.50004e-22
1.875e-06
-5.35045e-25
2.48844e-22
1.875e-06
6.2497e-23
2.76903e-22
1.875e-06
-6.57763e-23
2.31238e-22
1.875e-06
-3.59785e-23
1.69182e-22
1.875e-06
-2.85632e-23
1.47874e-22
1.875e-06
-4.04358e-23
1.80558e-22
1.875e-06
-6.18303e-23
1.11088e-22
1.875e-06
-4.84433e-23
1.96417e-23
1.875e-06
-4.85638e-23
-6.26688e-23
1.875e-06
8.00062e-23
7.34484e-24
1.875e-06
8.80561e-23
1.14611e-22
1.875e-06
-6.63023e-23
8.67149e-23
4.65201e-23
6.73876e-23
1.875e-06
-1.07895e-23
2.78699e-22
1.875e-06
1.44495e-22
7.44097e-22
1.875e-06
1.20671e-22
8.46551e-22
1.875e-06
1.16884e-22
9.42924e-22
1.875e-06
1.17579e-22
9.85837e-22
1.875e-06
7.64708e-23
9.19057e-22
1.875e-06
9.81707e-23
9.38031e-22
1.875e-06
3.59973e-22
9.94954e-22
1.875e-06
3.44535e-22
8.61059e-22
1.875e-06
2.21383e-22
9.06186e-22
1.875e-06
2.03392e-22
9.12721e-22
1.875e-06
1.6902e-22
8.57213e-22
1.875e-06
2.2184e-22
7.21472e-22
1.875e-06
2.09471e-22
7.63788e-22
1.875e-06
1.78173e-22
6.94714e-22
1.875e-06
1.34167e-22
6.0954e-22
1.875e-06
1.0542e-22
5.33056e-22
1.875e-06
5.89412e-23
4.76092e-22
1.875e-06
2.01649e-22
4.84669e-22
1.875e-06
1.81248e-22
4.64838e-22
1.875e-06
4.43194e-23
3.85905e-22
1.875e-06
-3.50895e-23
2.18776e-22
1.875e-06
1.72381e-22
1.17487e-22
1.875e-06
1.66735e-22
3.53769e-22
1.875e-06
1.96059e-22
4.19879e-22
1.875e-06
5.78781e-23
3.44366e-22
1.875e-06
6.73911e-23
3.47207e-22
1.875e-06
-4.85541e-23
2.44725e-22
1.875e-06
-9.29582e-23
1.55276e-22
1.875e-06
2.11085e-23
2.10433e-22
1.875e-06
7.43091e-23
2.35589e-22
1.875e-06
1.20116e-22
2.92507e-22
1.875e-06
2.02686e-23
1.81353e-22
1.875e-06
2.73532e-23
1.29034e-22
1.875e-06
-6.21537e-23
-1.5539e-23
1.875e-06
-1.29796e-22
-4.96414e-23
1.875e-06
4.28393e-23
-1.24219e-23
1.875e-06
6.85685e-23
2.6813e-23
1.875e-06
9.06898e-23
8.50473e-23
-4.04315e-23
2.41655e-23
1.875e-06
4.79925e-23
3.53385e-22
1.875e-06
1.58169e-22
7.19658e-22
1.875e-06
4.74549e-23
8.91154e-22
1.875e-06
2.33923e-23
9.5512e-22
1.875e-06
1.31571e-22
1.04425e-21
1.875e-06
1.40249e-22
1.08044e-21
1.875e-06
1.70456e-22
1.037e-21
1.875e-06
2.33159e-22
1.02903e-21
1.875e-06
3.0125e-22
9.57845e-22
1.875e-06
2.38502e-22
8.80499e-22
1.875e-06
1.984e-22
9.07904e-22
1.875e-06
2.18481e-22
9.52362e-22
1.875e-06
1.29321e-22
8.43158e-22
1.875e-06
2.62246e-22
8.34233e-22
1.875e-06
1.88126e-22
7.78696e-22
1.875e-06
1.20675e-22
6.46747e-22
1.875e-06
9.06801e-23
5.58285e-22
1.875e-06
-2.11003e-23
4.66374e-22
1.875e-06
2.73736e-23
4.07566e-22
1.875e-06
8.96119e-23
3.58193e-22
1.875e-06
1.28298e-22
3.87918e-22
1.875e-06
1.65374e-22
3.41908e-22
1.875e-06
1.76534e-22
1.83834e-22
1.875e-06
1.94222e-22
3.01758e-22
1.875e-06
4.21242e-23
3.3461e-22
1.875e-06
1.19124e-22
3.99991e-22
1.875e-06
5.14358e-23
2.92245e-22
1.875e-06
-2.82535e-23
2.39431e-22
1.875e-06
-6.41693e-23
2.13784e-22
1.875e-06
-8.37404e-23
2.17132e-22
1.875e-06
8.7632e-23
1.95074e-22
1.875e-06
1.32437e-22
1.18166e-22
1.875e-06
3.45181e-23
8.91168e-23
1.875e-06
1.15117e-23
1.76221e-22
1.875e-06
-4.86291e-23
1.06212e-22
1.875e-06
9.61943e-23
5.05893e-23
1.875e-06
4.87848e-24
-3.80501e-23
1.875e-06
-1.1888e-23
-7.98941e-23
1.875e-06
1.37047e-22
-5.14809e-23
1.49065e-23
1.02459e-22
1.875e-06
6.84195e-23
4.31427e-22
1.875e-06
7.84599e-23
7.75438e-22
1.875e-06
1.49386e-22
9.83841e-22
1.875e-06
1.07431e-22
1.05114e-21
1.875e-06
1.01915e-22
1.08673e-21
1.875e-06
8.7247e-23
1.07874e-21
1.875e-06
1.889e-22
1.13407e-21
1.875e-06
3.49867e-22
1.09003e-21
1.875e-06
2.73951e-22
1.02992e-21
1.875e-06
2.17764e-22
9.92901e-22
1.875e-06
1.56651e-22
9.614e-22
1.875e-06
9.70197e-23
9.47829e-22
1.875e-06
1.76168e-22
8.96991e-22
1.875e-06
2.24655e-22
8.15992e-22
1.875e-06
1.41139e-22
8.37872e-22
1.875e-06
1.08167e-22
6.60561e-22
1.875e-06
5.89044e-23
4.80198e-22
1.875e-06
1.09007e-22
5.00714e-22
1.875e-06
1.7511e-22
4.67131e-22
1.875e-06
6.33864e-23
3.50313e-22
1.875e-06
9.34397e-23
3.54767e-22
1.875e-06
1.50132e-22
2.44403e-22
1.875e-06
2.41211e-23
1.85534e-22
1.875e-06
1.91592e-23
3.50413e-22
1.875e-06
9.30719e-24
3.94738e-22
1.875e-06
4.88527e-23
3.5544e-22
1.875e-06
6.1523e-23
2.42169e-22
1.875e-06
7.02002e-23
2.77507e-22
1.875e-06
7.85317e-24
1.97648e-22
1.875e-06
3.96087e-23
1.45719e-22
1.875e-06
8.40978e-24
1.16757e-22
1.875e-06
-5.24399e-23
6.83825e-23
1.875e-06
-1.97656e-23
3.31526e-23
1.875e-06
6.90095e-23
1.02707e-22
1.875e-06
2.23444e-22
1.96151e-22
1.875e-06
1.64141e-22
2.03312e-23
1.875e-06
4.93864e-23
-5.90565e-23
1.875e-06
-1.28702e-23
-7.48815e-23
1.875e-06
-8.86595e-23
-5.66997e-23
4.91845e-23
1.87082e-22
1.875e-06
1.21667e-22
3.15145e-22
1.875e-06
5.23815e-23
7.20857e-22
1.875e-06
7.68972e-23
9.76217e-22
1.875e-06
1.23469e-22
1.13385e-21
1.875e-06
1.59646e-22
1.21663e-21
1.875e-06
2.89485e-22
1.09225e-21
1.875e-06
2.87725e-22
1.20094e-21
1.875e-06
5.29444e-23
1.06377e-21
1.875e-06
1.04733e-22
1.07058e-21
1.875e-06
2.34451e-22
1.05603e-21
1.875e-06
7.87498e-23
1.03562e-21
1.875e-06
7.29986e-23
9.69533e-22
1.875e-06
1.3791e-22
8.89317e-22
1.875e-06
1.46864e-22
7.9356e-22
1.875e-06
2.43715e-22
8.12362e-22
1.875e-06
1.36559e-22
6.93396e-22
1.875e-06
1.07841e-22
5.40446e-22
1.875e-06
1.64191e-23
4.75145e-22
1.875e-06
7.96904e-23
3.52515e-22
1.875e-06
1.49877e-22
2.48221e-22
1.875e-06
9.91291e-23
3.97638e-22
1.875e-06
5.7159e-23
3.76453e-22
1.875e-06
8.584e-23
3.05748e-22
1.875e-06
4.68409e-23
3.80497e-22
1.875e-06
2.69683e-23
4.48772e-22
1.875e-06
4.526e-23
3.67578e-22
1.875e-06
9.5146e-23
2.40325e-22
1.875e-06
9.37695e-23
2.75297e-22
1.875e-06
1.54451e-23
1.16382e-22
1.875e-06
6.1236e-23
1.07722e-22
1.875e-06
-8.76899e-23
1.44197e-22
1.875e-06
-8.63304e-23
1.28805e-22
1.875e-06
1.74827e-23
1.47263e-22
1.875e-06
3.80989e-23
1.02407e-22
1.875e-06
9.35949e-23
-1.77158e-23
1.875e-06
-3.16051e-23
-1.73686e-22
1.875e-06
1.82492e-23
-1.5075e-22
1.875e-06
1.30779e-23
2.20067e-23
1.875e-06
-4.22995e-23
7.91617e-23
-3.4536e-24
8.31518e-24
1.875e-06
-1.81286e-22
2.15631e-22
1.875e-06
-2.97017e-23
7.58717e-22
1.875e-06
1.03338e-22
1.09806e-21
1.875e-06
1.37279e-22
1.15529e-21
1.875e-06
1.96745e-22
1.18638e-21
1.875e-06
2.13403e-22
1.12906e-21
1.875e-06
1.9958e-22
1.21946e-21
1.875e-06
1.57652e-22
1.20485e-21
1.875e-06
1.0481e-22
1.13507e-21
1.875e-06
9.13794e-23
1.01375e-21
1.875e-06
2.13152e-22
1.10096e-21
1.875e-06
1.09295e-22
1.06484e-21
1.875e-06
6.42944e-23
8.70045e-22
1.875e-06
1.4421e-22
7.92758e-22
1.875e-06
1.14892e-22
7.08057e-22
1.875e-06
1.07383e-22
6.90518e-22
1.875e-06
1.39509e-22
6.29552e-22
1.875e-06
1.93215e-22
5.54944e-22
1.875e-06
-1.18514e-22
3.03558e-22
1.875e-06
-1.20835e-22
2.82723e-22
1.875e-06
1.47882e-22
3.34291e-22
1.875e-06
1.07078e-22
4.19958e-22
1.875e-06
7.53172e-23
3.42267e-22
1.875e-06
1.11561e-22
4.79579e-22
1.875e-06
1.58097e-22
4.69186e-22
1.875e-06
4.26278e-23
3.2277e-22
1.875e-06
-9.97593e-23
2.2359e-22
1.875e-06
-7.41387e-23
1.86089e-22
1.875e-06
9.05211e-23
9.20676e-23
1.875e-06
-3.37907e-24
1.73524e-22
1.875e-06
7.87094e-25
2.35082e-22
1.875e-06
-4.55166e-23
2.15586e-22
1.875e-06
1.1961e-24
1.27399e-22
1.875e-06
1.93675e-23
4.85263e-23
1.875e-06
2.37271e-23
-2.0711e-22
1.875e-06
2.5001e-23
-3.18736e-22
1.875e-06
4.03424e-23
-1.32807e-22
1.875e-06
4.55293e-23
4.88066e-24
1.875e-06
2.64647e-23
2.33927e-23
-2.11537e-23
3.96514e-24
1.875e-06
-7.55026e-24
4.98745e-22
1.875e-06
6.9029e-23
8.25104e-22
1.875e-06
1.1075e-22
1.01913e-21
1.875e-06
2.28624e-22
1.24871e-21
1.875e-06
8.48798e-23
1.27997e-21
1.875e-06
9.30597e-23
1.25516e-21
1.875e-06
2.4491e-22
1.30829e-21
1.875e-06
1.11565e-22
1.21705e-21
1.875e-06
9.67234e-23
9.95257e-22
1.875e-06
5.05912e-23
9.48915e-22
1.875e-06
9.25806e-23
1.0347e-21
1.875e-06
1.47947e-22
1.02128e-21
1.875e-06
5.11769e-23
9.30886e-22
1.875e-06
8.58069e-23
7.96221e-22
1.875e-06
1.04719e-22
7.48963e-22
1.875e-06
1.93318e-22
7.21171e-22
1.875e-06
1.33673e-22
6.03903e-22
1.875e-06
7.31647e-23
4.97008e-22
1.875e-06
-4.21652e-24
4.39693e-22
1.875e-06
4.3467e-23
4.0002e-22
1.875e-06
1.49185e-22
4.36468e-22
1.875e-06
2.22336e-22
4.83366e-22
1.875e-06
9.66522e-23
4.09615e-22
1.875e-06
1.94768e-23
4.43601e-22
1.875e-06
5.64097e-23
3.35313e-22
1.875e-06
4.22778e-23
3.23141e-22
1.875e-06
-1.19999e-22
3.36962e-22
1.875e-06
-4.522e-23
2.65865e-22
1.875e-06
4.31472e-24
1.50553e-22
1.875e-06
3.22589e-23
1.81801e-22
1.875e-06
4.92961e-23
1.52456e-22
1.875e-06
-5.56284e-23
2.06635e-22
1.875e-06
3.37303e-23
1.85309e-22
1.875e-06
-4.51949e-24
2.66085e-23
1.875e-06
-1.31291e-22
-1.99542e-22
1.875e-06
-6.23071e-24
-3.60443e-22
1.875e-06
4.22033e-23
-3.02694e-22
1.875e-06
6.08904e-23
-1.15417e-22
1.875e-06
9.04038e-23
-9.05848e-23
8.8259e-23
-1.14393e-22
1.875e-06
1.08457e-22
5.49098e-22
1.875e-06
1.62388e-22
9.45775e-22
1.875e-06
1.48592e-22
1.15676e-21
1.875e-06
8.33993e-23
1.17999e-21
1.875e-06
1.34153e-22
1.32936e-21
1.875e-06
9.96642e-23
1.25252e-21
1.875e-06
3.84616e-23
1.17604e-21
1.875e-06
2.50693e-22
1.32748e-21
1.875e-06
7.63883e-23
1.07395e-21
1.875e-06
9.51478e-23
9.54186e-22
1.875e-06
2.0367e-22
8.93164e-22
1.875e-06
4.21152e-23
9.74115e-22
1.875e-06
7.78759e-23
8.97909e-22
1.875e-06
9.71816e-23
7.4324e-22
1.875e-06
1.82503e-22
8.07459e-22
1.875e-06
4.30815e-23
7.18109e-22
1.875e-06
1.16761e-22
6.16005e-22
1.875e-06
8.99351e-23
5.47279e-22
1.875e-06
1.68894e-22
5.07059e-22
1.875e-06
1.34479e-22
4.76863e-22
1.875e-06
5.41251e-23
4.27793e-22
1.875e-06
7.87112e-23
3.65734e-22
1.875e-06
1.90862e-23
4.57607e-22
1.875e-06
2.3159e-23
4.95698e-22
1.875e-06
2.83341e-24
3.21144e-22
1.875e-06
-1.33782e-22
2.57698e-22
1.875e-06
1.21284e-23
3.52594e-22
1.875e-06
3.28749e-23
3.10344e-22
1.875e-06
4.0398e-23
2.08204e-22
1.875e-06
-5.0199e-23
2.06098e-22
1.875e-06
-9.54189e-23
1.64579e-22
1.875e-06
3.49379e-23
2.62246e-22
1.875e-06
-6.02587e-23
6.69958e-23
1.875e-06
-1.02987e-23
6.06453e-23
1.875e-06
-1.17538e-23
-6.53612e-23
1.875e-06
-6.60372e-23
-2.92907e-22
1.875e-06
-1.05454e-22
-3.65872e-22
1.875e-06
3.54015e-23
-1.4458e-22
1.875e-06
1.33173e-22
-1.41589e-22
1.39321e-22
-1.22499e-22
1.875e-06
2.28557e-22
5.9904e-22
1.875e-06
1.05589e-22
9.70685e-22
1.875e-06
1.23698e-22
1.1117e-21
1.875e-06
1.31828e-22
1.21383e-21
1.875e-06
1.59982e-22
1.27646e-21
1.875e-06
1.08833e-22
1.32879e-21
1.875e-06
1.07445e-22
1.1959e-21
1.875e-06
1.00952e-22
1.11911e-21
1.875e-06
2.30345e-22
1.05436e-21
1.875e-06
7.09578e-23
1.02018e-21
1.875e-06
-2.73952e-23
8.38044e-22
1.875e-06
9.61289e-23
9.38915e-22
1.875e-06
1.677e-22
1.00724e-21
1.875e-06
1.70115e-22
8.29228e-22
1.875e-06
1.68175e-23
7.55117e-22
1.875e-06
8.62281e-23
8.61736e-22
1.875e-06
6.39138e-23
5.87371e-22
1.875e-06
5.05951e-23
5.06888e-22
1.875e-06
9.10219e-23
5.05071e-22
1.875e-06
2.16523e-22
5.21784e-22
1.875e-06
9.83297e-23
4.91631e-22
1.875e-06
-2.49626e-23
3.96482e-22
1.875e-06
-2.23532e-23
4.10431e-22
1.875e-06
-3.53308e-23
4.4846e-22
1.875e-06
-1.31322e-22
2.22412e-22
1.875e-06
-9.2205e-23
3.31695e-22
1.875e-06
-3.52438e-23
3.16775e-22
1.875e-06
2.88601e-23
2.29527e-22
1.875e-06
-2.37478e-23
1.47476e-22
1.875e-06
-6.22878e-23
2.58343e-22
1.875e-06
5.04473e-23
2.75174e-22
1.875e-06
2.36328e-23
2.38744e-22
1.875e-06
-4.11725e-23
1.31648e-22
1.875e-06
6.83696e-23
1.36023e-23
1.875e-06
1.10699e-22
-6.01732e-24
1.875e-06
-4.74794e-23
-1.97677e-22
1.875e-06
-1.12761e-22
-3.36127e-22
1.875e-06
-9.21201e-23
-2.22527e-22
1.875e-06
3.9481e-23
-1.80405e-22
9.53736e-23
-2.38991e-22
1.875e-06
9.3935e-23
5.05157e-22
1.875e-06
1.90418e-22
9.91613e-22
1.875e-06
1.11181e-22
1.0962e-21
1.875e-06
1.34204e-22
1.29018e-21
1.875e-06
-2.24196e-23
1.26138e-21
1.875e-06
-5.63161e-23
1.31998e-21
1.875e-06
6.87505e-23
1.19158e-21
1.875e-06
5.19869e-23
1.0788e-21
1.875e-06
4.84886e-23
1.0009e-21
1.875e-06
1.13177e-22
9.20619e-22
1.875e-06
5.78994e-23
8.23165e-22
1.875e-06
1.70924e-22
9.74848e-22
1.875e-06
1.85812e-22
1.02505e-21
1.875e-06
1.19424e-22
8.92799e-22
1.875e-06
1.01057e-22
8.33371e-22
1.875e-06
6.32415e-23
7.07237e-22
1.875e-06
4.89656e-23
5.79239e-22
1.875e-06
6.89253e-23
5.99442e-22
1.875e-06
1.33054e-22
6.24528e-22
1.875e-06
4.46507e-23
4.57574e-22
1.875e-06
1.04917e-22
5.01502e-22
1.875e-06
1.01614e-22
4.33124e-22
1.875e-06
1.36343e-22
4.31274e-22
1.875e-06
-1.67786e-23
3.72547e-22
1.875e-06
-1.35777e-22
3.01993e-22
1.875e-06
-1.73124e-22
2.85905e-22
1.875e-06
-5.59689e-23
2.79379e-22
1.875e-06
-6.13067e-24
1.87617e-22
1.875e-06
3.47276e-23
1.97787e-22
1.875e-06
-1.45228e-22
2.03127e-22
1.875e-06
-1.2234e-22
1.80397e-22
1.875e-06
5.45171e-23
2.32915e-22
1.875e-06
6.00946e-23
2.04643e-22
1.875e-06
-3.09978e-23
-4.9748e-23
1.875e-06
-5.76353e-25
-6.82476e-23
1.875e-06
-1.84737e-23
-2.39972e-22
1.875e-06
-2.89164e-23
-3.22993e-22
1.875e-06
-1.44641e-23
-1.08546e-22
1.875e-06
-1.48822e-22
-1.20643e-22
-9.89282e-23
-2.73763e-22
1.875e-06
-1.71174e-22
5.81933e-22
1.875e-06
1.29935e-23
9.31224e-22
1.875e-06
1.25539e-22
1.1279e-21
1.875e-06
7.74926e-24
1.24286e-21
1.875e-06
-1.86638e-23
1.34541e-21
1.875e-06
7.31662e-23
1.35226e-21
1.875e-06
1.482e-22
1.18325e-21
1.875e-06
1.9847e-22
1.13729e-21
1.875e-06
7.5191e-23
1.03424e-21
1.875e-06
-6.88123e-23
9.31437e-22
1.875e-06
-1.42579e-24
8.83461e-22
1.875e-06
1.69058e-22
8.48748e-22
1.875e-06
1.54197e-22
1.01023e-21
1.875e-06
5.41809e-23
8.45971e-22
1.875e-06
3.69925e-24
8.1656e-22
1.875e-06
3.93338e-23
7.4061e-22
1.875e-06
9.67183e-23
7.1573e-22
1.875e-06
1.9549e-22
6.60234e-22
1.875e-06
1.7417e-22
5.48738e-22
1.875e-06
1.34726e-22
4.26682e-22
1.875e-06
1.63083e-22
5.06993e-22
1.875e-06
-4.76368e-23
4.54455e-22
1.875e-06
-1.07653e-22
4.35653e-22
1.875e-06
-2.04049e-23
3.50878e-22
1.875e-06
-4.20015e-23
3.3336e-22
1.875e-06
8.33433e-23
3.5875e-22
1.875e-06
7.42096e-23
2.70913e-22
1.875e-06
-5.82088e-23
1.99208e-22
1.875e-06
-1.34112e-22
1.29805e-22
1.875e-06
3.72219e-23
3.028e-22
1.875e-06
-1.01755e-22
2.5728e-22
1.875e-06
-1.53495e-22
1.2455e-22
1.875e-06
-1.49698e-23
1.36719e-22
1.875e-06
-3.45189e-23
5.00332e-23
1.875e-06
-5.72922e-23
-1.24402e-22
1.875e-06
1.50213e-23
-3.05169e-22
1.875e-06
-3.13445e-23
-3.14492e-22
1.875e-06
-8.04756e-23
-2.98356e-22
1.875e-06
4.23825e-23
-1.3757e-22
-1.45179e-22
-2.65678e-22
1.875e-06
-5.78118e-23
7.38802e-22
1.875e-06
-1.84463e-22
9.2643e-22
1.875e-06
-5.14809e-23
1.00677e-21
1.875e-06
-2.51675e-23
1.22836e-21
1.875e-06
7.4584e-23
1.35935e-21
1.875e-06
1.55673e-24
1.26554e-21
1.875e-06
-2.26582e-23
1.14479e-21
1.875e-06
4.25526e-23
1.0334e-21
1.875e-06
4.6178e-23
1.07107e-21
1.875e-06
5.32306e-23
1.01754e-21
1.875e-06
1.79957e-22
9.74524e-22
1.875e-06
1.0443e-22
8.95996e-22
1.875e-06
1.01496e-22
9.61061e-22
1.875e-06
4.73131e-23
9.44343e-22
1.875e-06
1.01192e-22
8.83165e-22
1.875e-06
9.41265e-23
7.05712e-22
1.875e-06
5.01702e-23
6.02547e-22
1.875e-06
1.37848e-22
5.37377e-22
1.875e-06
8.38518e-23
5.37214e-22
1.875e-06
9.01125e-23
5.49609e-22
1.875e-06
1.03156e-22
4.45932e-22
1.875e-06
1.75264e-22
5.97996e-22
1.875e-06
-2.39824e-23
5.84688e-22
1.875e-06
-1.96918e-22
3.42151e-22
1.875e-06
-1.65024e-22
2.88923e-22
1.875e-06
1.49478e-23
2.5909e-22
1.875e-06
8.94785e-23
2.31968e-22
1.875e-06
-3.10686e-23
1.65501e-22
1.875e-06
-2.57781e-23
1.67089e-22
1.875e-06
2.41092e-24
2.04579e-22
1.875e-06
-1.34775e-23
2.67584e-22
1.875e-06
-4.82838e-23
2.03119e-22
1.875e-06
-7.14463e-23
1.2122e-22
1.875e-06
-2.95335e-23
3.26486e-24
1.875e-06
-1.50553e-23
-7.44373e-23
1.875e-06
-6.7223e-23
-2.13624e-22
1.875e-06
-6.13104e-23
-3.4001e-22
1.875e-06
-6.46306e-23
-2.2041e-22
1.875e-06
-1.14607e-22
-2.48279e-22
-6.78459e-23
-2.327e-22
1.875e-06
-5.52145e-23
6.54221e-22
1.875e-06
-1.09984e-22
1.06099e-21
1.875e-06
-9.10652e-23
1.10397e-21
1.875e-06
-1.30146e-22
1.28511e-21
1.875e-06
-8.82952e-23
1.29638e-21
1.875e-06
2.57542e-23
1.29908e-21
1.875e-06
5.52153e-23
1.19865e-21
1.875e-06
4.47042e-23
1.07259e-21
1.875e-06
4.24394e-23
1.05847e-21
1.875e-06
1.04884e-22
9.77992e-22
1.875e-06
1.41635e-23
9.62243e-22
1.875e-06
9.74853e-23
9.83335e-22
1.875e-06
-1.07458e-22
1.02128e-21
1.875e-06
3.87055e-23
9.45666e-22
1.875e-06
1.0693e-22
7.644e-22
1.875e-06
3.11768e-23
6.94295e-22
1.875e-06
6.26643e-23
5.90351e-22
1.875e-06
5.06235e-23
5.06149e-22
1.875e-06
1.51367e-22
5.03193e-22
1.875e-06
8.15529e-23
5.04134e-22
1.875e-06
1.05905e-22
5.26719e-22
1.875e-06
-6.22822e-24
5.68319e-22
1.875e-06
-1.68493e-23
5.07214e-22
1.875e-06
-8.69788e-23
4.02313e-22
1.875e-06
-7.73559e-23
3.4109e-22
1.875e-06
-1.35226e-22
2.47963e-22
1.875e-06
-7.9901e-23
1.4298e-22
1.875e-06
2.23664e-23
1.15991e-22
1.875e-06
1.5199e-23
1.98032e-22
1.875e-06
5.0538e-23
1.9059e-22
1.875e-06
-4.00457e-23
1.93067e-22
1.875e-06
3.73165e-23
1.41215e-22
1.875e-06
-2.44025e-23
1.0498e-22
1.875e-06
-1.32211e-22
1.75473e-23
1.875e-06
-1.85355e-22
-1.58198e-22
1.875e-06
-1.29711e-22
-2.98077e-22
1.875e-06
5.30798e-24
-2.51788e-22
1.875e-06
3.41497e-23
-3.49539e-23
1.875e-06
-1.50801e-23
-1.21917e-22
-5.96176e-23
-1.46796e-22
1.875e-06
-1.53937e-22
5.57678e-22
1.875e-06
-7.08887e-23
1.02228e-21
1.875e-06
-1.63063e-23
1.19198e-21
1.875e-06
-6.45075e-23
1.31472e-21
1.875e-06
-8.83587e-23
1.45323e-21
1.875e-06
-5.1038e-23
1.31606e-21
1.875e-06
-7.48912e-23
1.20376e-21
1.875e-06
-9.59108e-23
1.11672e-21
1.875e-06
2.42216e-23
1.09947e-21
1.875e-06
9.32641e-23
9.71038e-22
1.875e-06
1.37308e-22
1.00497e-21
1.875e-06
2.16002e-23
9.42998e-22
1.875e-06
5.77451e-23
1.10726e-21
1.875e-06
-2.83339e-23
1.025e-21
1.875e-06
8.53111e-23
7.77438e-22
1.875e-06
4.29332e-23
5.69824e-22
1.875e-06
4.42515e-23
4.57065e-22
1.875e-06
-5.59996e-23
5.07798e-22
1.875e-06
7.9923e-23
5.70484e-22
1.875e-06
1.83065e-22
6.15057e-22
1.875e-06
1.26476e-22
5.08052e-22
1.875e-06
-3.7452e-23
4.74234e-22
1.875e-06
-2.16539e-22
3.74933e-22
1.875e-06
-1.21826e-22
3.32685e-22
1.875e-06
-8.0338e-23
3.18355e-22
1.875e-06
6.10808e-23
3.48495e-22
1.875e-06
1.31829e-23
1.65978e-22
1.875e-06
1.92179e-23
1.52418e-22
1.875e-06
5.19608e-24
2.00947e-22
1.875e-06
-4.6603e-23
1.00893e-22
1.875e-06
6.85711e-23
1.48883e-22
1.875e-06
-8.85708e-23
5.18939e-23
1.875e-06
-9.90658e-23
7.28401e-23
1.875e-06
-1.33603e-22
1.37663e-22
1.875e-06
-1.5073e-22
5.6285e-24
1.875e-06
-4.68481e-23
-1.84872e-22
1.875e-06
-3.37924e-24
-2.90544e-22
1.875e-06
1.17375e-23
-1.72021e-22
1.875e-06
-6.78896e-23
-1.83591e-22
-3.22834e-23
-1.63449e-22
1.875e-06
-7.24731e-23
6.17953e-22
1.875e-06
-1.58724e-22
1.05555e-21
1.875e-06
-1.58412e-22
1.15402e-21
1.875e-06
2.90056e-23
1.27422e-21
1.875e-06
2.69322e-23
1.419e-21
1.875e-06
-7.2485e-23
1.33311e-21
1.875e-06
-1.58907e-22
1.19846e-21
1.875e-06
-1.40315e-22
1.14808e-21
1.875e-06
-9.45825e-24
1.21916e-21
1.875e-06
4.97981e-23
1.15196e-21
1.875e-06
8.5096e-23
9.78526e-22
1.875e-06
3.24505e-23
9.39545e-22
1.875e-06
5.46997e-23
1.06441e-21
1.875e-06
-1.28863e-24
1.06197e-21
1.875e-06
-2.99669e-23
7.61098e-22
1.875e-06
2.76854e-24
6.373e-22
1.875e-06
2.1533e-23
6.16906e-22
1.875e-06
2.30694e-22
5.77337e-22
1.875e-06
3.00847e-22
4.35602e-22
1.875e-06
1.51764e-22
4.75025e-22
1.875e-06
-1.04264e-22
3.65067e-22
1.875e-06
-2.0486e-22
5.07224e-22
1.875e-06
-4.5112e-23
5.03854e-22
1.875e-06
-1.21307e-23
4.20056e-22
1.875e-06
-6.78616e-24
4.56512e-22
1.875e-06
-1.09801e-22
2.44299e-22
1.875e-06
-3.50903e-23
1.57616e-22
1.875e-06
-2.70183e-23
2.0231e-22
1.875e-06
-5.20819e-23
1.47831e-22
1.875e-06
1.63778e-23
1.28567e-22
1.875e-06
7.48323e-23
9.42776e-23
1.875e-06
-5.44767e-23
4.58796e-23
1.875e-06
-7.99171e-23
2.38897e-23
1.875e-06
7.45376e-24
1.33606e-22
1.875e-06
-6.68574e-23
6.08732e-23
1.875e-06
-1.74009e-22
-7.44217e-23
1.875e-06
-1.31553e-22
-1.81514e-22
1.875e-06
-1.10421e-22
-3.41711e-22
1.875e-06
3.20993e-23
-1.9178e-22
1.23846e-22
-1.18425e-22
1.875e-06
2.546e-23
6.8211e-22
1.875e-06
-1.60823e-24
1.08245e-21
1.875e-06
2.01994e-23
1.205e-21
1.875e-06
-5.06888e-24
1.31574e-21
1.875e-06
-2.92008e-23
1.28911e-21
1.875e-06
-1.41038e-22
1.35183e-21
1.875e-06
-2.00741e-22
1.2798e-21
1.875e-06
-1.31352e-22
1.31104e-21
1.875e-06
4.22983e-23
1.19962e-21
1.875e-06
8.21497e-23
1.14072e-21
1.875e-06
-3.67033e-23
1.01026e-21
1.875e-06
1.37619e-23
1.03746e-21
1.875e-06
9.30052e-23
1.06717e-21
1.875e-06
1.43896e-22
1.05409e-21
1.875e-06
2.38826e-23
8.15955e-22
1.875e-06
2.95187e-23
6.63825e-22
1.875e-06
-1.01897e-23
7.10161e-22
1.875e-06
-5.94594e-23
5.1658e-22
1.875e-06
-1.29926e-23
2.91241e-22
1.875e-06
-1.62082e-23
3.39308e-22
1.875e-06
-6.1105e-23
3.21368e-22
1.875e-06
3.94944e-23
6.08346e-22
1.875e-06
-3.75221e-23
5.79912e-22
1.875e-06
1.66233e-23
4.81011e-22
1.875e-06
2.57006e-24
4.14186e-22
1.875e-06
-9.06426e-23
2.46061e-22
1.875e-06
7.05405e-23
2.67808e-22
1.875e-06
7.5444e-23
2.49141e-22
1.875e-06
9.8906e-24
1.57909e-22
1.875e-06
5.45925e-23
8.75432e-23
1.875e-06
-1.12366e-22
-9.75e-23
1.875e-06
-5.19507e-23
-1.62059e-23
1.875e-06
-1.54472e-23
6.1192e-23
1.875e-06
1.38736e-23
1.70286e-22
1.875e-06
7.99793e-24
6.13301e-23
1.875e-06
-1.58434e-23
7.8352e-23
1.875e-06
-1.73518e-23
-5.10173e-23
1.875e-06
-8.55699e-23
-1.51538e-22
1.875e-06
-7.51942e-23
-2.40205e-22
-1.79847e-23
-2.36268e-22
1.875e-06
1.11691e-22
7.81864e-22
1.875e-06
1.55597e-22
1.15909e-21
1.875e-06
1.34554e-23
1.04324e-21
1.875e-06
-8.49653e-23
1.13121e-21
1.875e-06
-6.81402e-23
1.31719e-21
1.875e-06
-3.38921e-23
1.30614e-21
1.875e-06
-1.11123e-22
1.36729e-21
1.875e-06
-1.40841e-22
1.2366e-21
1.875e-06
-1.76724e-22
1.13585e-21
1.875e-06
-1.54587e-23
1.26994e-21
1.875e-06
-1.9436e-22
1.09373e-21
1.875e-06
4.70831e-22
1.10351e-21
1.875e-06
7.2157e-23
1.0061e-21
1.875e-06
1.72964e-22
1.00917e-21
1.875e-06
-1.02488e-23
9.53482e-22
1.875e-06
-1.0825e-22
7.35259e-22
1.875e-06
7.26836e-25
5.84927e-22
1.875e-06
-8.25694e-23
4.10127e-22
1.875e-06
-1.79758e-22
4.11734e-22
1.875e-06
-4.18647e-23
4.20116e-22
1.875e-06
-5.64637e-23
4.07182e-22
1.875e-06
-4.97623e-23
5.13593e-22
1.875e-06
-7.71752e-23
6.55473e-22
1.875e-06
-2.63728e-23
3.96269e-22
1.875e-06
1.73267e-22
4.23642e-22
1.875e-06
1.01873e-22
3.01832e-22
1.875e-06
-7.0741e-23
1.96067e-22
1.875e-06
9.02984e-24
1.10349e-22
1.875e-06
-1.18225e-22
2.15924e-22
1.875e-06
1.49417e-22
5.25319e-23
1.875e-06
3.79885e-23
6.08896e-23
1.875e-06
-3.51668e-23
2.45053e-23
1.875e-06
7.80728e-23
-1.1981e-23
1.875e-06
-1.04671e-22
7.05469e-23
1.875e-06
7.27741e-23
7.09346e-23
1.875e-06
9.67074e-23
5.60845e-23
1.875e-06
-2.58883e-25
-6.21105e-23
1.875e-06
1.88685e-23
-1.62282e-22
1.875e-06
-1.23354e-22
-3.01744e-22
-8.73978e-23
-2.48921e-22
1.875e-06
1.97377e-22
6.96282e-22
1.875e-06
1.21962e-22
9.97222e-22
1.875e-06
-4.96634e-24
1.06367e-21
1.875e-06
-3.36051e-23
1.13105e-21
1.875e-06
1.36135e-24
1.19383e-21
1.875e-06
6.12058e-23
1.35573e-21
1.875e-06
7.85292e-23
1.36315e-21
1.875e-06
-9.32911e-24
1.24514e-21
1.875e-06
-2.26445e-22
1.20178e-21
1.875e-06
-1.10954e-22
1.32316e-21
1.875e-06
2.19781e-23
1.13858e-21
1.875e-06
7.55167e-23
1.11721e-21
1.875e-06
2.27683e-23
1.06097e-21
1.875e-06
1.50162e-23
8.85349e-22
1.875e-06
-5.21607e-23
9.48161e-22
1.875e-06
4.7643e-24
8.07276e-22
1.875e-06
-9.40286e-23
5.59125e-22
1.875e-06
-6.76437e-23
4.75112e-22
1.875e-06
-7.02025e-23
5.34944e-22
1.875e-06
-5.66066e-23
4.40559e-22
1.875e-06
-1.01565e-22
4.30906e-22
1.875e-06
-1.22672e-22
4.72379e-22
1.875e-06
7.55958e-24
6.12029e-22
1.875e-06
-5.24285e-25
4.06625e-22
1.875e-06
-5.52896e-24
3.21933e-22
1.875e-06
1.16341e-22
3.40981e-22
1.875e-06
6.04103e-23
1.7132e-22
1.875e-06
1.00389e-22
1.65681e-22
1.875e-06
5.14576e-23
1.66709e-22
1.875e-06
-2.45901e-23
7.29506e-23
1.875e-06
1.18349e-24
5.72718e-23
1.875e-06
4.82106e-23
2.59294e-23
1.875e-06
-2.35671e-23
-4.65934e-23
1.875e-06
-7.39888e-24
7.22766e-23
1.875e-06
5.76375e-23
9.8674e-23
1.875e-06
2.15173e-22
3.1253e-23
1.875e-06
4.83018e-24
-1.05717e-22
1.875e-06
6.98097e-23
-1.82573e-22
1.875e-06
-8.03398e-23
-2.2047e-22
-1.83247e-22
-1.70676e-22
1.875e-06
4.57079e-23
5.27372e-22
1.875e-06
1.22883e-22
9.22518e-22
1.875e-06
6.96602e-24
1.13619e-21
1.875e-06
2.0203e-23
1.07796e-21
1.875e-06
2.83778e-23
1.18483e-21
1.875e-06
8.71382e-23
1.34447e-21
1.875e-06
1.71254e-23
1.25601e-21
1.875e-06
-6.84882e-23
1.18994e-21
1.875e-06
6.21422e-23
1.33634e-21
1.875e-06
-1.26947e-22
1.432e-21
1.875e-06
-9.44231e-23
1.1846e-21
1.875e-06
-3.4334e-23
1.01093e-21
1.875e-06
7.84604e-24
1.08361e-21
1.875e-06
-2.22622e-22
8.70514e-22
1.875e-06
-1.07635e-22
9.09539e-22
1.875e-06
-4.73467e-23
7.93799e-22
1.875e-06
-1.09134e-22
7.05103e-22
1.875e-06