/*--------------------------------*- C++ -*----------------------------------*\
| =========                 |                                                 |
| \\      /  F ield         | OpenFOAM: The Open Source CFD Toolbox           |
|  \\    /   O peration     | Version:  v2012                                 |
|   \\  /    A nd           | Website:  www.openfoam.com                      |
|    \\/     M anipulation  |                                                 |
\*---------------------------------------------------------------------------*/
FoamFile
{
    version     2.0;
    format      ascii;
    class       volVectorField;
    location    "33";
    object      U;
}
// * * * * * * * * * * * * * * * * * * * * * * * * * * * * * * * * * * * * * //

dimensions      [0 1 -1 0 0 0 0];


internalField   nonuniform List<vector> 
64000
(
(0.003 2.7393e-19 2.11537e-19)
(0.003 4.7787e-19 3.6705e-19)
(0.003 4.92328e-19 5.01858e-19)
(0.003 4.84492e-19 5.69627e-19)
(0.003 5.92964e-19 5.65682e-19)
(0.003 5.76139e-19 4.91966e-19)
(0.003 5.21884e-19 4.47637e-19)
(0.003 3.58693e-19 4.31002e-19)
(0.003 3.52896e-19 5.60594e-19)
(0.003 5.41004e-19 5.05907e-19)
(0.003 5.64944e-19 3.86707e-19)
(0.003 5.03635e-19 4.42059e-19)
(0.003 4.26506e-19 4.36443e-19)
(0.003 3.89217e-19 3.16202e-19)
(0.003 3.11652e-19 3.73484e-19)
(0.003 2.63479e-19 4.00035e-19)
(0.003 2.15214e-19 2.89293e-19)
(0.003 7.85695e-20 1.34176e-19)
(0.003 8.79596e-20 1.1354e-19)
(0.003 1.75944e-19 2.36825e-19)
(0.003 7.47788e-20 1.96245e-19)
(0.003 1.57629e-19 1.71748e-19)
(0.003 2.71617e-19 2.03272e-19)
(0.003 3.47087e-19 1.69985e-19)
(0.003 3.5029e-19 1.8562e-19)
(0.003 2.1177e-19 1.75733e-19)
(0.003 1.47085e-19 1.88695e-19)
(0.003 2.4868e-19 2.30747e-19)
(0.003 2.4262e-19 2.37286e-19)
(0.003 7.20528e-20 2.57969e-19)
(0.003 -6.89972e-20 2.23565e-19)
(0.003 -4.35813e-20 1.01994e-19)
(0.003 1.38865e-19 5.81772e-20)
(0.003 7.98123e-20 6.40832e-20)
(0.003 6.19221e-20 1.19203e-19)
(0.003 7.4615e-20 2.11385e-19)
(0.003 -3.90978e-20 5.28377e-20)
(0.003 -1.0823e-19 7.62231e-20)
(0.003 -1.2575e-19 1.9514e-19)
(0.003 -6.96445e-20 1.21045e-19)
(0.003 2.90547e-19 3.13616e-19)
(0.003 4.2851e-19 7.48259e-19)
(0.003 6.51062e-19 1.07509e-18)
(0.003 5.81068e-19 1.0747e-18)
(0.003 5.19758e-19 1.04206e-18)
(0.003 6.69999e-19 1.07429e-18)
(0.003 6.31048e-19 1.0113e-18)
(0.003 5.88993e-19 8.29576e-19)
(0.003 5.75039e-19 8.49928e-19)
(0.003 5.35994e-19 1.11177e-18)
(0.003 4.94383e-19 1.069e-18)
(0.003 4.60583e-19 9.26032e-19)
(0.003 3.86825e-19 8.24842e-19)
(0.003 2.48461e-19 7.01742e-19)
(0.003 1.91769e-19 6.91499e-19)
(0.003 1.54669e-19 6.87472e-19)
(0.003 3.92718e-19 6.49497e-19)
(0.003 3.34853e-19 4.59262e-19)
(0.003 1.18477e-19 3.60979e-19)
(0.003 8.37544e-20 4.38781e-19)
(0.003 2.07853e-19 3.24373e-19)
(0.003 3.16293e-19 3.41031e-19)
(0.003 3.02946e-19 3.97916e-19)
(0.003 3.63269e-19 5.15245e-19)
(0.003 1.95486e-19 4.52462e-19)
(0.003 2.15172e-19 3.39113e-19)
(0.003 2.90096e-19 2.715e-19)
(0.003 1.73679e-19 3.10142e-19)
(0.003 6.12672e-20 4.2135e-19)
(0.003 4.84881e-20 3.01716e-19)
(0.003 2.58705e-20 1.08893e-19)
(0.003 5.41039e-20 7.60208e-20)
(0.003 1.02607e-19 1.68735e-19)
(0.003 3.90771e-21 1.58456e-19)
(0.003 -1.76008e-20 2.19403e-19)
(0.003 -7.5435e-20 2.0601e-19)
(0.003 -1.32414e-19 -3.45481e-20)
(0.003 -1.45644e-19 -2.53304e-20)
(0.003 -1.26988e-19 1.77728e-19)
(0.003 -1.31761e-19 1.53349e-19)
(0.003 1.74019e-19 4.93144e-19)
(0.003 2.05306e-19 8.99609e-19)
(0.003 3.19282e-19 1.17555e-18)
(0.003 4.96853e-19 1.2484e-18)
(0.003 4.58534e-19 1.22373e-18)
(0.003 5.09747e-19 1.21023e-18)
(0.003 5.28652e-19 1.21362e-18)
(0.003 5.33953e-19 1.10723e-18)
(0.003 5.6108e-19 1.19073e-18)
(0.003 4.52503e-19 1.26495e-18)
(0.003 3.47701e-19 1.12931e-18)
(0.003 3.1302e-19 1.04936e-18)
(0.003 3.59213e-19 8.9388e-19)
(0.003 2.3385e-19 7.78949e-19)
(0.003 1.96247e-19 7.8764e-19)
(0.003 1.89731e-19 7.44166e-19)
(0.003 3.31983e-19 8.23375e-19)
(0.003 4.47065e-19 6.71284e-19)
(0.003 1.51555e-19 4.20909e-19)
(0.003 6.35065e-20 4.33339e-19)
(0.003 2.23843e-19 4.55686e-19)
(0.003 3.05811e-19 4.588e-19)
(0.003 3.20703e-19 4.32612e-19)
(0.003 2.38464e-19 5.08636e-19)
(0.003 2.29676e-19 4.7942e-19)
(0.003 1.87405e-19 4.58472e-19)
(0.003 1.27645e-19 4.14949e-19)
(0.003 1.46661e-20 4.18347e-19)
(0.003 -1.90655e-20 3.84003e-19)
(0.003 5.54619e-20 3.00778e-19)
(0.003 8.60159e-20 2.77784e-19)
(0.003 7.2312e-20 1.84877e-19)
(0.003 -5.66808e-20 1.48868e-19)
(0.003 -9.65015e-20 1.08812e-19)
(0.003 -1.79289e-20 1.88626e-19)
(0.003 -3.43372e-20 7.78243e-20)
(0.003 -1.34791e-19 -1.43396e-19)
(0.003 -8.86734e-20 5.64253e-20)
(0.003 -4.45367e-20 1.64941e-19)
(0.003 -8.39158e-20 1.05358e-19)
(0.003 3.37418e-19 6.48076e-19)
(0.003 2.93455e-19 1.06973e-18)
(0.003 2.18888e-19 1.27161e-18)
(0.003 3.49394e-19 1.44278e-18)
(0.003 4.02509e-19 1.39257e-18)
(0.003 4.192e-19 1.36859e-18)
(0.003 3.74247e-19 1.34257e-18)
(0.003 3.26772e-19 1.20122e-18)
(0.003 3.40837e-19 1.2073e-18)
(0.003 4.07666e-19 1.26354e-18)
(0.003 3.91328e-19 1.23808e-18)
(0.003 3.30755e-19 1.22414e-18)
(0.003 2.71028e-19 1.04683e-18)
(0.003 2.39527e-19 8.53495e-19)
(0.003 4.83327e-19 8.51257e-19)
(0.003 6.29974e-19 7.7829e-19)
(0.003 2.52645e-19 7.6633e-19)
(0.003 1.88836e-19 7.33097e-19)
(0.003 2.34456e-19 5.25921e-19)
(0.003 1.67437e-19 3.80128e-19)
(0.003 1.23068e-19 4.51148e-19)
(0.003 2.60946e-19 5.3762e-19)
(0.003 3.32201e-19 5.33333e-19)
(0.003 2.43633e-19 5.98854e-19)
(0.003 2.7407e-19 6.20846e-19)
(0.003 1.63915e-19 4.73163e-19)
(0.003 7.13933e-21 3.63841e-19)
(0.003 -3.2254e-20 3.54036e-19)
(0.003 3.06323e-20 4.08279e-19)
(0.003 -3.09746e-20 3.59271e-19)
(0.003 -5.49472e-20 2.1108e-19)
(0.003 -2.1565e-20 1.75814e-19)
(0.003 -1.07785e-19 1.99243e-19)
(0.003 -9.69797e-20 1.26453e-19)
(0.003 -7.49105e-20 1.37737e-19)
(0.003 -1.08451e-19 6.18584e-20)
(0.003 1.08699e-19 -1.00529e-19)
(0.003 1.64613e-19 9.88997e-20)
(0.003 3.35566e-20 1.64333e-19)
(0.003 3.9919e-20 1.10122e-19)
(0.003 1.6605e-19 6.65848e-19)
(0.003 2.58018e-19 1.14384e-18)
(0.003 1.84204e-19 1.35329e-18)
(0.003 1.75278e-19 1.47901e-18)
(0.003 2.1538e-19 1.50152e-18)
(0.003 1.78729e-19 1.54003e-18)
(0.003 1.93453e-19 1.44979e-18)
(0.003 3.95916e-19 1.20932e-18)
(0.003 4.47102e-19 1.14291e-18)
(0.003 4.00028e-19 1.34787e-18)
(0.003 3.28848e-19 1.34232e-18)
(0.003 2.92005e-19 1.20777e-18)
(0.003 3.03783e-19 1.06932e-18)
(0.003 3.05281e-19 9.70119e-19)
(0.003 4.14748e-19 1.04877e-18)
(0.003 5.24901e-19 1.03136e-18)
(0.003 2.53863e-19 7.85911e-19)
(0.003 1.11456e-19 6.29829e-19)
(0.003 2.62308e-19 4.65018e-19)
(0.003 2.8088e-19 3.81467e-19)
(0.003 7.66377e-20 4.27722e-19)
(0.003 6.9558e-20 5.38782e-19)
(0.003 2.38497e-19 5.9745e-19)
(0.003 2.45018e-19 6.5443e-19)
(0.003 2.0941e-19 6.49704e-19)
(0.003 1.6992e-19 5.25951e-19)
(0.003 8.37138e-20 3.75652e-19)
(0.003 -4.51782e-20 3.65735e-19)
(0.003 -2.3477e-20 3.62216e-19)
(0.003 -2.9573e-20 2.24287e-19)
(0.003 3.02732e-20 1.79647e-19)
(0.003 3.95668e-20 2.40468e-19)
(0.003 -5.38575e-20 1.7147e-19)
(0.003 -3.38796e-20 8.46431e-20)
(0.003 -5.68008e-20 7.38091e-20)
(0.003 -1.01425e-19 1.11963e-19)
(0.003 7.85003e-20 8.60075e-20)
(0.003 1.01419e-19 8.97434e-21)
(0.003 -2.10307e-20 6.39345e-20)
(0.003 -2.46102e-20 1.39531e-19)
(0.003 8.90242e-21 7.23775e-19)
(0.003 1.967e-19 1.19076e-18)
(0.003 1.30234e-19 1.36453e-18)
(0.003 9.06351e-20 1.51266e-18)
(0.003 1.52855e-19 1.54358e-18)
(0.003 1.56881e-19 1.51335e-18)
(0.003 1.90114e-19 1.44174e-18)
(0.003 4.61293e-19 1.49401e-18)
(0.003 5.28135e-19 1.38505e-18)
(0.003 3.69092e-19 1.27069e-18)
(0.003 3.48907e-19 1.2845e-18)
(0.003 3.41345e-19 1.31801e-18)
(0.003 2.85169e-19 1.20561e-18)
(0.003 3.74894e-19 1.01044e-18)
(0.003 2.98097e-19 1.12386e-18)
(0.003 1.78124e-19 1.07728e-18)
(0.003 1.21366e-19 8.19706e-19)
(0.003 -1.78683e-20 6.03835e-19)
(0.003 8.99692e-20 5.05246e-19)
(0.003 1.91242e-19 3.9871e-19)
(0.003 1.6231e-19 3.84235e-19)
(0.003 1.37255e-19 5.13138e-19)
(0.003 2.80948e-19 6.19661e-19)
(0.003 3.38243e-19 6.65407e-19)
(0.003 1.95513e-19 6.84038e-19)
(0.003 1.44836e-19 5.21479e-19)
(0.003 1.18938e-19 4.0192e-19)
(0.003 -5.98842e-20 2.65964e-19)
(0.003 -2.10028e-19 2.50109e-19)
(0.003 -9.45569e-20 3.36439e-19)
(0.003 1.32575e-19 2.79066e-19)
(0.003 2.26525e-19 1.82987e-19)
(0.003 5.5239e-20 8.59492e-20)
(0.003 -8.98791e-21 1.61558e-19)
(0.003 -7.17042e-20 1.20559e-19)
(0.003 -8.55098e-21 -7.82451e-21)
(0.003 2.53836e-20 8.25194e-20)
(0.003 4.36877e-20 7.38021e-21)
(0.003 1.77084e-19 9.51976e-21)
(0.003 9.34304e-20 1.17998e-19)
(0.003 8.20778e-20 8.65247e-19)
(0.003 1.88226e-19 1.40518e-18)
(0.003 1.5647e-19 1.40367e-18)
(0.003 6.05749e-20 1.46356e-18)
(0.003 1.52025e-19 1.61015e-18)
(0.003 1.6355e-19 1.61304e-18)
(0.003 2.77877e-19 1.50669e-18)
(0.003 5.13037e-19 1.48456e-18)
(0.003 4.91101e-19 1.46663e-18)
(0.003 3.74748e-19 1.41132e-18)
(0.003 2.84449e-19 1.40965e-18)
(0.003 2.17027e-19 1.36147e-18)
(0.003 2.5918e-19 1.23049e-18)
(0.003 3.90034e-19 1.10829e-18)
(0.003 2.40213e-19 1.14573e-18)
(0.003 1.41726e-19 1.01904e-18)
(0.003 1.19689e-19 7.36223e-19)
(0.003 9.02737e-20 5.37648e-19)
(0.003 1.3998e-19 4.73438e-19)
(0.003 9.88352e-20 4.54193e-19)
(0.003 2.12926e-19 4.55039e-19)
(0.003 2.65547e-19 5.57519e-19)
(0.003 1.75578e-19 6.87022e-19)
(0.003 1.51435e-19 7.64552e-19)
(0.003 4.5613e-20 6.79092e-19)
(0.003 1.00503e-19 5.29012e-19)
(0.003 5.47594e-20 3.99144e-19)
(0.003 3.33632e-22 2.28559e-19)
(0.003 -5.09501e-20 1.70441e-19)
(0.003 -3.31517e-20 1.54893e-19)
(0.003 1.0737e-19 2.26589e-19)
(0.003 6.62249e-20 1.6063e-19)
(0.003 2.03137e-20 2.44154e-20)
(0.003 1.18517e-19 1.39859e-19)
(0.003 1.52637e-19 1.4294e-19)
(0.003 2.24863e-19 9.50004e-20)
(0.003 3.88103e-20 2.68563e-21)
(0.003 -4.48065e-20 -1.20807e-20)
(0.003 3.78314e-20 1.55683e-19)
(0.003 3.58443e-20 1.82625e-19)
(0.003 2.06003e-19 7.54213e-19)
(0.003 1.64246e-19 1.30484e-18)
(0.003 1.68644e-19 1.4728e-18)
(0.003 2.01477e-19 1.56924e-18)
(0.003 2.21942e-19 1.66917e-18)
(0.003 2.7821e-19 1.57425e-18)
(0.003 3.82567e-19 1.58231e-18)
(0.003 3.21548e-19 1.6548e-18)
(0.003 3.09194e-19 1.61179e-18)
(0.003 3.49636e-19 1.55147e-18)
(0.003 2.17121e-19 1.46445e-18)
(0.003 1.47182e-19 1.32556e-18)
(0.003 1.93693e-19 1.21712e-18)
(0.003 3.03075e-19 1.13495e-18)
(0.003 2.94447e-19 1.11126e-18)
(0.003 1.95209e-19 1.07164e-18)
(0.003 9.8462e-20 7.60258e-19)
(0.003 1.18594e-19 5.31574e-19)
(0.003 2.56791e-19 5.02273e-19)
(0.003 2.26347e-19 3.78348e-19)
(0.003 1.81797e-19 4.34214e-19)
(0.003 1.16862e-19 6.41438e-19)
(0.003 -2.00913e-21 7.19424e-19)
(0.003 2.44512e-20 7.14776e-19)
(0.003 3.82576e-20 6.56828e-19)
(0.003 5.33601e-20 5.25793e-19)
(0.003 1.26598e-19 3.87195e-19)
(0.003 1.13009e-19 2.55595e-19)
(0.003 3.56185e-20 1.37878e-19)
(0.003 1.09928e-19 1.75031e-19)
(0.003 -3.00331e-20 3.12764e-19)
(0.003 -9.07985e-20 2.77454e-19)
(0.003 6.06579e-21 1.37836e-19)
(0.003 8.48096e-20 1.32418e-19)
(0.003 2.63022e-19 8.66025e-20)
(0.003 1.34945e-19 -1.09271e-19)
(0.003 8.62257e-20 -1.66834e-19)
(0.003 -2.90718e-20 9.01483e-20)
(0.003 -1.46089e-19 1.86469e-19)
(0.003 -3.8494e-20 1.21833e-19)
(0.003 -5.04838e-20 7.73587e-19)
(0.003 1.41735e-20 1.47042e-18)
(0.003 1.41363e-19 1.55033e-18)
(0.003 1.81509e-19 1.61495e-18)
(0.003 2.78759e-19 1.70759e-18)
(0.003 4.62848e-19 1.68781e-18)
(0.003 4.16246e-19 1.69301e-18)
(0.003 1.25458e-19 1.6463e-18)
(0.003 1.18278e-19 1.60867e-18)
(0.003 2.30512e-19 1.63258e-18)
(0.003 1.98008e-19 1.50935e-18)
(0.003 1.39163e-19 1.37803e-18)
(0.003 1.56159e-19 1.17238e-18)
(0.003 2.38456e-19 1.11756e-18)
(0.003 2.89457e-19 1.16288e-18)
(0.003 1.82846e-19 1.08192e-18)
(0.003 2.23107e-19 8.13766e-19)
(0.003 1.7852e-19 5.09446e-19)
(0.003 -3.09131e-20 5.22712e-19)
(0.003 1.73902e-20 4.88949e-19)
(0.003 1.50138e-19 4.43203e-19)
(0.003 1.07607e-19 6.88582e-19)
(0.003 1.65458e-19 7.84742e-19)
(0.003 1.72801e-19 8.00105e-19)
(0.003 1.27927e-19 6.18317e-19)
(0.003 3.84911e-20 4.60752e-19)
(0.003 -1.25832e-20 4.06288e-19)
(0.003 4.08229e-20 2.79599e-19)
(0.003 9.58189e-20 1.23353e-19)
(0.003 4.07916e-20 2.48902e-19)
(0.003 -9.53412e-20 3.02372e-19)
(0.003 -1.27762e-19 2.91611e-19)
(0.003 3.90945e-20 2.02949e-19)
(0.003 7.4969e-20 1.07633e-19)
(0.003 5.73056e-20 -1.05692e-19)
(0.003 -1.91482e-20 -3.56286e-19)
(0.003 7.42908e-20 -7.01722e-20)
(0.003 6.10453e-20 1.23299e-19)
(0.003 -4.14628e-20 1.16594e-19)
(0.003 -2.35357e-20 6.27063e-20)
(0.003 -1.9542e-19 9.14004e-19)
(0.003 -7.88978e-21 1.39833e-18)
(0.003 1.63844e-19 1.53025e-18)
(0.003 3.20684e-19 1.70359e-18)
(0.003 2.4005e-19 1.84898e-18)
(0.003 2.26259e-19 1.83468e-18)
(0.003 3.43234e-19 1.7799e-18)
(0.003 2.03003e-19 1.66987e-18)
(0.003 1.48645e-19 1.48138e-18)
(0.003 1.23932e-19 1.51232e-18)
(0.003 2.11173e-19 1.50365e-18)
(0.003 1.55271e-19 1.32908e-18)
(0.003 1.14346e-19 1.22151e-18)
(0.003 1.80544e-19 1.17362e-18)
(0.003 2.08105e-19 1.17779e-18)
(0.003 2.507e-19 1.10599e-18)
(0.003 2.21723e-19 8.12915e-19)
(0.003 1.86534e-19 5.83165e-19)
(0.003 -1.22267e-19 4.15681e-19)
(0.003 -1.07293e-19 4.15511e-19)
(0.003 1.83824e-19 5.8393e-19)
(0.003 2.77747e-19 7.66222e-19)
(0.003 1.87537e-19 8.90559e-19)
(0.003 1.12759e-19 8.63237e-19)
(0.003 2.01163e-19 6.58035e-19)
(0.003 6.34888e-20 4.53679e-19)
(0.003 -1.98187e-19 3.61261e-19)
(0.003 -1.41949e-19 2.4317e-19)
(0.003 5.18248e-20 2.35521e-19)
(0.003 3.07583e-20 2.8967e-19)
(0.003 2.66971e-20 2.46266e-19)
(0.003 -6.65555e-20 3.02828e-19)
(0.003 2.18319e-20 2.81261e-19)
(0.003 1.92801e-21 1.15018e-19)
(0.003 -6.43358e-20 -5.26588e-20)
(0.003 4.42394e-20 -3.61045e-19)
(0.003 4.31009e-20 -3.79551e-19)
(0.003 1.36501e-19 -7.97387e-20)
(0.003 1.31826e-19 -6.01449e-21)
(0.003 2.96921e-20 -2.01379e-19)
(0.003 5.31976e-20 9.12443e-19)
(0.003 1.42865e-19 1.50837e-18)
(0.003 2.32393e-19 1.70342e-18)
(0.003 2.67322e-19 1.80005e-18)
(0.003 1.8894e-19 1.83336e-18)
(0.003 1.90909e-19 1.81728e-18)
(0.003 1.82251e-19 1.81831e-18)
(0.003 2.01286e-19 1.71622e-18)
(0.003 1.17142e-19 1.54719e-18)
(0.003 1.26623e-19 1.43277e-18)
(0.003 2.52696e-19 1.36629e-18)
(0.003 1.98533e-19 1.36579e-18)
(0.003 1.39945e-19 1.18244e-18)
(0.003 1.33475e-19 1.06373e-18)
(0.003 1.6932e-19 1.16464e-18)
(0.003 2.7561e-19 1.19725e-18)
(0.003 2.32173e-19 8.62462e-19)
(0.003 1.18769e-19 5.636e-19)
(0.003 8.43451e-20 4.21169e-19)
(0.003 9.0939e-20 4.64674e-19)
(0.003 1.84051e-19 6.55922e-19)
(0.003 2.73015e-19 8.43162e-19)
(0.003 1.05581e-19 9.44064e-19)
(0.003 3.53413e-20 9.08266e-19)
(0.003 5.74722e-20 6.35086e-19)
(0.003 -6.01522e-20 4.06535e-19)
(0.003 -9.93734e-20 3.24822e-19)
(0.003 -3.25065e-21 2.85096e-19)
(0.003 4.41294e-20 2.62383e-19)
(0.003 -3.45708e-20 3.69459e-19)
(0.003 -8.00812e-20 3.36045e-19)
(0.003 -3.24775e-20 2.6019e-19)
(0.003 -3.27433e-21 1.99048e-19)
(0.003 -2.21168e-20 1.01267e-19)
(0.003 -1.23306e-19 1.10032e-19)
(0.003 -5.72068e-20 -1.57367e-19)
(0.003 -2.38189e-20 -4.71325e-19)
(0.003 1.14819e-19 -2.05271e-19)
(0.003 2.28032e-19 -1.99132e-19)
(0.003 2.16833e-19 -2.3021e-19)
(0.003 2.25284e-19 9.85176e-19)
(0.003 2.00311e-19 1.58444e-18)
(0.003 1.68366e-19 1.70729e-18)
(0.003 1.61839e-19 1.73791e-18)
(0.003 2.40339e-19 1.82733e-18)
(0.003 1.87997e-19 1.89868e-18)
(0.003 1.27831e-19 1.76991e-18)
(0.003 2.52074e-19 1.69032e-18)
(0.003 2.01288e-19 1.48617e-18)
(0.003 9.65994e-20 1.50131e-18)
(0.003 1.35042e-19 1.46415e-18)
(0.003 1.56464e-19 1.31899e-18)
(0.003 2.0796e-19 1.25174e-18)
(0.003 2.19895e-19 1.112e-18)
(0.003 1.49411e-19 1.13938e-18)
(0.003 8.64251e-20 1.14257e-18)
(0.003 1.17175e-19 8.68419e-19)
(0.003 1.51577e-19 6.0126e-19)
(0.003 2.96394e-19 5.17614e-19)
(0.003 3.03307e-19 5.40623e-19)
(0.003 1.39534e-19 6.68563e-19)
(0.003 -1.04989e-20 7.84766e-19)
(0.003 -6.91944e-20 8.36162e-19)
(0.003 -3.13359e-20 8.95485e-19)
(0.003 -9.21622e-20 7.18327e-19)
(0.003 -1.19632e-19 4.50023e-19)
(0.003 -1.4897e-20 3.58278e-19)
(0.003 5.88211e-20 3.12256e-19)
(0.003 3.09244e-20 2.36322e-19)
(0.003 -7.66953e-20 3.0311e-19)
(0.003 -2.85553e-20 2.98562e-19)
(0.003 4.01032e-20 2.79075e-19)
(0.003 -6.5364e-20 2.13782e-19)
(0.003 2.90033e-20 5.47699e-20)
(0.003 5.55548e-20 1.40013e-19)
(0.003 -9.08459e-20 -8.99932e-20)
(0.003 -1.76476e-19 -4.67192e-19)
(0.003 1.48601e-20 -2.36629e-19)
(0.003 1.79542e-19 -2.07097e-19)
(0.003 2.14022e-19 -3.21797e-19)
(0.003 2.5247e-19 1.01945e-18)
(0.003 2.68583e-19 1.55076e-18)
(0.003 2.16745e-19 1.67122e-18)
(0.003 2.31009e-19 1.85607e-18)
(0.003 1.06997e-19 1.88734e-18)
(0.003 -1.30544e-21 1.86549e-18)
(0.003 1.27493e-19 1.79905e-18)
(0.003 1.40349e-19 1.72019e-18)
(0.003 1.91556e-19 1.60699e-18)
(0.003 1.71142e-19 1.4667e-18)
(0.003 5.92831e-20 1.34198e-18)
(0.003 1.41117e-19 1.30915e-18)
(0.003 2.46845e-19 1.28867e-18)
(0.003 2.55375e-19 1.22983e-18)
(0.003 1.63419e-19 1.16962e-18)
(0.003 5.28999e-20 1.05632e-18)
(0.003 7.80203e-20 8.0427e-19)
(0.003 1.06849e-19 6.27257e-19)
(0.003 1.87825e-19 6.39268e-19)
(0.003 2.29258e-19 6.36902e-19)
(0.003 1.75764e-19 6.55917e-19)
(0.003 7.14289e-20 7.28163e-19)
(0.003 8.67435e-20 7.68983e-19)
(0.003 6.99172e-21 7.78531e-19)
(0.003 -1.94143e-19 6.57194e-19)
(0.003 -1.87455e-19 4.43531e-19)
(0.003 -9.47819e-20 3.50844e-19)
(0.003 2.4901e-20 3.64179e-19)
(0.003 3.32774e-21 2.89642e-19)
(0.003 -1.35632e-19 2.39596e-19)
(0.003 5.13982e-21 3.26914e-19)
(0.003 7.05983e-20 2.97943e-19)
(0.003 4.49206e-21 1.83753e-19)
(0.003 6.83085e-20 1.40155e-19)
(0.003 1.10555e-19 8.3264e-20)
(0.003 -9.62878e-20 -2.74001e-19)
(0.003 -1.51352e-19 -4.15486e-19)
(0.003 -9.29825e-20 -1.70475e-19)
(0.003 -6.05291e-20 -9.19702e-20)
(0.003 2.85844e-20 -2.19704e-19)
(0.003 -8.50382e-22 1.0847e-18)
(0.003 2.14955e-19 1.67546e-18)
(0.003 2.4476e-19 1.7329e-18)
(0.003 1.01031e-19 1.85154e-18)
(0.003 -4.54798e-20 1.86973e-18)
(0.003 -1.34627e-20 1.84605e-18)
(0.003 1.87102e-19 1.73212e-18)
(0.003 2.35482e-19 1.61747e-18)
(0.003 1.41155e-19 1.57728e-18)
(0.003 3.74021e-20 1.53005e-18)
(0.003 7.02713e-21 1.39171e-18)
(0.003 2.37852e-19 1.31191e-18)
(0.003 2.96806e-19 1.36579e-18)
(0.003 1.92249e-19 1.26341e-18)
(0.003 1.09977e-19 1.19722e-18)
(0.003 9.35144e-20 1.05429e-18)
(0.003 1.17631e-19 8.93405e-19)
(0.003 2.14676e-19 6.96817e-19)
(0.003 2.54475e-19 5.94006e-19)
(0.003 1.5473e-19 6.03398e-19)
(0.003 2.41934e-19 6.97635e-19)
(0.003 1.11566e-19 7.78732e-19)
(0.003 6.63289e-20 8.04659e-19)
(0.003 6.41572e-21 7.81545e-19)
(0.003 -1.62483e-19 6.29441e-19)
(0.003 -8.01753e-20 3.85375e-19)
(0.003 -3.73879e-21 2.53363e-19)
(0.003 -3.94426e-20 3.81458e-19)
(0.003 -5.91436e-20 3.78477e-19)
(0.003 -7.57131e-20 2.68146e-19)
(0.003 -2.10518e-19 3.65334e-19)
(0.003 -1.09757e-19 2.98822e-19)
(0.003 4.24511e-20 2.07358e-19)
(0.003 -3.14715e-20 1.41018e-19)
(0.003 -3.84986e-20 3.49991e-20)
(0.003 1.34686e-20 -3.47097e-19)
(0.003 -4.44709e-20 -4.81001e-19)
(0.003 -1.36054e-19 -3.06388e-19)
(0.003 -1.75534e-19 -3.08463e-19)
(0.003 -2.18234e-19 -3.75102e-19)
(0.003 -2.02413e-19 1.10091e-18)
(0.003 -1.63674e-19 1.63927e-18)
(0.003 7.50338e-20 1.76372e-18)
(0.003 3.04551e-20 1.78528e-18)
(0.003 4.64504e-20 1.82589e-18)
(0.003 4.50492e-20 1.83113e-18)
(0.003 1.28046e-19 1.80617e-18)
(0.003 2.62032e-19 1.68556e-18)
(0.003 1.13241e-19 1.5876e-18)
(0.003 -3.74819e-20 1.48987e-18)
(0.003 1.53205e-19 1.40161e-18)
(0.003 2.41216e-19 1.40651e-18)
(0.003 1.71501e-19 1.44847e-18)
(0.003 7.65545e-20 1.28228e-18)
(0.003 8.64204e-20 1.11692e-18)
(0.003 8.50703e-20 1.0756e-18)
(0.003 1.33846e-19 8.45151e-19)
(0.003 3.03728e-19 6.72312e-19)
(0.003 2.55326e-19 7.11201e-19)
(0.003 1.88825e-19 7.10764e-19)
(0.003 2.62833e-19 7.42095e-19)
(0.003 1.03921e-19 7.72129e-19)
(0.003 -1.38697e-19 8.56893e-19)
(0.003 -2.20296e-19 7.9242e-19)
(0.003 -1.66179e-19 5.72114e-19)
(0.003 6.49306e-20 3.98026e-19)
(0.003 1.88406e-19 2.66265e-19)
(0.003 -1.71639e-20 3.23778e-19)
(0.003 -1.43015e-19 3.09851e-19)
(0.003 -3.87283e-20 1.94037e-19)
(0.003 -8.9525e-20 2.66299e-19)
(0.003 -1.33724e-19 3.10564e-19)
(0.003 -6.93648e-20 2.34357e-19)
(0.003 -3.44738e-20 9.3647e-20)
(0.003 -1.84791e-20 8.21104e-20)
(0.003 2.0944e-20 -2.30318e-19)
(0.003 -4.35739e-20 -4.76025e-19)
(0.003 -9.79234e-20 -3.04e-19)
(0.003 -1.2795e-19 -2.68365e-19)
(0.003 -2.38552e-19 -3.68528e-19)
(0.003 -6.34414e-20 1.05122e-18)
(0.003 -2.37932e-19 1.6746e-18)
(0.003 -1.70729e-19 1.86572e-18)
(0.003 -1.46221e-19 1.8602e-18)
(0.003 9.93789e-21 1.90345e-18)
(0.003 5.53988e-20 1.85583e-18)
(0.003 3.11508e-20 1.77281e-18)
(0.003 9.59027e-20 1.69903e-18)
(0.003 8.31083e-20 1.58019e-18)
(0.003 1.39025e-19 1.39845e-18)
(0.003 1.9618e-19 1.44732e-18)
(0.003 1.32021e-19 1.52475e-18)
(0.003 -2.20235e-20 1.4737e-18)
(0.003 7.33394e-21 1.27512e-18)
(0.003 1.39232e-19 1.21477e-18)
(0.003 1.11248e-19 1.07749e-18)
(0.003 1.16481e-19 7.99153e-19)
(0.003 1.53657e-19 6.78458e-19)
(0.003 1.66543e-19 6.73781e-19)
(0.003 1.65105e-19 6.97623e-19)
(0.003 1.19583e-19 7.94944e-19)
(0.003 8.33342e-20 8.60389e-19)
(0.003 -4.37971e-20 8.43486e-19)
(0.003 -2.75594e-19 6.28743e-19)
(0.003 -2.32124e-19 4.05875e-19)
(0.003 -4.61636e-20 4.22301e-19)
(0.003 9.40422e-20 3.38724e-19)
(0.003 3.78235e-20 2.29808e-19)
(0.003 -1.44306e-20 2.91747e-19)
(0.003 2.45726e-20 2.26985e-19)
(0.003 -4.33938e-20 2.6563e-19)
(0.003 -4.24234e-21 2.25851e-19)
(0.003 -4.90162e-20 1.68378e-19)
(0.003 -1.17834e-19 1.52285e-19)
(0.003 -1.36025e-19 4.01743e-20)
(0.003 -1.12419e-19 -2.88878e-19)
(0.003 -6.27027e-20 -3.9543e-19)
(0.003 -1.25326e-19 -1.69852e-19)
(0.003 -1.49363e-19 -2.28401e-19)
(0.003 -1.02834e-19 -3.12203e-19)
(0.003 -1.50303e-19 9.75053e-19)
(0.003 -1.18847e-19 1.591e-18)
(0.003 -2.43777e-20 1.84347e-18)
(0.003 -1.70802e-19 1.86273e-18)
(0.003 -2.02174e-19 1.92421e-18)
(0.003 -5.0712e-20 1.8777e-18)
(0.003 -8.90632e-21 1.90505e-18)
(0.003 -2.54395e-20 1.82606e-18)
(0.003 8.77129e-20 1.69839e-18)
(0.003 2.32673e-19 1.47299e-18)
(0.003 1.52787e-19 1.43723e-18)
(0.003 8.2941e-20 1.45506e-18)
(0.003 -7.58687e-20 1.42816e-18)
(0.003 -2.58526e-20 1.3977e-18)
(0.003 1.02018e-19 1.19654e-18)
(0.003 1.1321e-19 9.22471e-19)
(0.003 9.52067e-20 6.97334e-19)
(0.003 -5.19843e-20 7.07911e-19)
(0.003 1.17791e-19 8.02946e-19)
(0.003 2.33589e-19 7.54349e-19)
(0.003 1.73537e-19 8.46587e-19)
(0.003 -1.11181e-20 7.59348e-19)
(0.003 -2.17976e-19 6.99038e-19)
(0.003 -2.29961e-19 5.33401e-19)
(0.003 -9.92484e-20 3.74444e-19)
(0.003 -4.76009e-20 4.57268e-19)
(0.003 -5.64762e-20 3.61722e-19)
(0.003 1.9769e-20 3.51418e-19)
(0.003 5.90747e-21 2.88452e-19)
(0.003 -8.61711e-22 2.03618e-19)
(0.003 4.09545e-20 1.74482e-19)
(0.003 -6.46589e-22 1.86836e-19)
(0.003 -1.17432e-19 1.66741e-19)
(0.003 -2.45302e-19 2.1768e-19)
(0.003 -3.1978e-19 1.56415e-19)
(0.003 -1.88918e-19 -1.92174e-19)
(0.003 1.41005e-20 -4.23747e-19)
(0.003 2.67259e-20 -2.12804e-19)
(0.003 -7.21507e-20 -2.8459e-19)
(0.003 -8.77497e-20 -3.95473e-19)
(0.003 -1.73236e-19 9.19503e-19)
(0.003 -1.92761e-19 1.64288e-18)
(0.003 -1.49903e-19 1.95352e-18)
(0.003 -2.78704e-20 1.8625e-18)
(0.003 -3.55445e-20 1.81934e-18)
(0.003 -8.14413e-20 1.86577e-18)
(0.003 -1.85816e-19 1.89247e-18)
(0.003 -1.96312e-19 1.7834e-18)
(0.003 2.95744e-20 1.74376e-18)
(0.003 1.53424e-19 1.59725e-18)
(0.003 1.23345e-19 1.53399e-18)
(0.003 7.15128e-20 1.48906e-18)
(0.003 1.02138e-19 1.37839e-18)
(0.003 -1.40894e-20 1.35615e-18)
(0.003 1.79867e-20 1.28314e-18)
(0.003 2.86368e-20 1.04964e-18)
(0.003 8.42573e-20 8.39986e-19)
(0.003 1.70713e-19 5.609e-19)
(0.003 3.01802e-19 6.50133e-19)
(0.003 2.47632e-19 7.72015e-19)
(0.003 1.91453e-20 8.83771e-19)
(0.003 -1.99474e-19 8.55097e-19)
(0.003 -1.69304e-19 6.76418e-19)
(0.003 -7.54292e-20 5.26734e-19)
(0.003 -1.07819e-19 4.28194e-19)
(0.003 -1.28532e-19 4.36054e-19)
(0.003 -6.95341e-20 4.09091e-19)
(0.003 -7.54838e-20 3.55424e-19)
(0.003 -3.02018e-20 2.76575e-19)
(0.003 1.42196e-20 2.10338e-19)
(0.003 1.30332e-19 2.00666e-19)
(0.003 -1.0207e-19 1.63224e-19)
(0.003 -1.84041e-19 9.43963e-20)
(0.003 -1.28559e-19 1.29901e-19)
(0.003 -2.21835e-19 1.25268e-19)
(0.003 -2.35239e-19 6.28762e-21)
(0.003 -1.65063e-19 -1.88058e-19)
(0.003 -7.14816e-20 -2.29126e-19)
(0.003 5.87418e-20 -3.00235e-19)
(0.003 1.0807e-19 -3.52326e-19)
(0.003 -5.20408e-20 9.65177e-19)
(0.003 -1.63754e-19 1.56663e-18)
(0.003 -1.74469e-19 1.78511e-18)
(0.003 4.94281e-20 1.88601e-18)
(0.003 4.81819e-20 1.86541e-18)
(0.003 -1.54809e-19 1.85553e-18)
(0.003 -3.03844e-19 1.87519e-18)
(0.003 -2.15408e-19 1.85224e-18)
(0.003 4.51594e-20 1.78303e-18)
(0.003 9.0765e-20 1.67096e-18)
(0.003 -5.57445e-21 1.51795e-18)
(0.003 7.08693e-20 1.47881e-18)
(0.003 1.57863e-19 1.42384e-18)
(0.003 1.22924e-19 1.31851e-18)
(0.003 8.01614e-20 1.23472e-18)
(0.003 -8.80455e-21 1.05627e-18)
(0.003 -5.13491e-21 9.32278e-19)
(0.003 1.52323e-19 7.65912e-19)
(0.003 2.54236e-19 7.70093e-19)
(0.003 8.63742e-20 7.47616e-19)
(0.003 -1.67945e-19 7.65891e-19)
(0.003 -1.67069e-19 7.06825e-19)
(0.003 -4.95545e-20 7.26215e-19)
(0.003 -5.72121e-22 6.033e-19)
(0.003 -1.8533e-20 4.208e-19)
(0.003 -1.48302e-19 3.66636e-19)
(0.003 1.25803e-20 3.95624e-19)
(0.003 3.2983e-20 3.59773e-19)
(0.003 -3.21507e-20 2.81106e-19)
(0.003 3.4793e-20 1.70152e-19)
(0.003 -1.79291e-20 1.48299e-19)
(0.003 -1.05417e-19 8.56346e-20)
(0.003 -3.74054e-20 9.83247e-20)
(0.003 1.31115e-20 1.84023e-19)
(0.003 -4.51806e-20 1.125e-19)
(0.003 -1.71684e-19 3.94135e-20)
(0.003 -1.52263e-19 -2.24856e-20)
(0.003 -1.77231e-19 -8.00324e-20)
(0.003 -1.97393e-20 -2.03615e-19)
(0.003 1.46044e-19 -2.31146e-19)
(0.003 1.06235e-19 1.03315e-18)
(0.003 1.54076e-19 1.63041e-18)
(0.003 7.30707e-20 1.74825e-18)
(0.003 -7.39251e-20 1.79843e-18)
(0.003 -1.2238e-19 1.8716e-18)
(0.003 -1.62577e-19 1.8281e-18)
(0.003 -2.38017e-19 1.78687e-18)
(0.003 -1.98045e-19 1.76005e-18)
(0.003 -1.21845e-19 1.84918e-18)
(0.003 2.80986e-20 1.77824e-18)
(0.003 1.25563e-19 1.51347e-18)
(0.003 1.48944e-19 1.52329e-18)
(0.003 1.96096e-19 1.35421e-18)
(0.003 2.21469e-19 1.35138e-18)
(0.003 1.72756e-20 1.33189e-18)
(0.003 -7.00784e-20 1.11376e-18)
(0.003 -1.00597e-19 8.65619e-19)
(0.003 -1.85078e-19 6.45535e-19)
(0.003 -1.6319e-19 8.20554e-19)
(0.003 -2.2722e-20 7.5118e-19)
(0.003 -7.76703e-20 7.25621e-19)
(0.003 -1.24782e-20 7.932e-19)
(0.003 -2.6411e-20 8.13322e-19)
(0.003 5.45929e-20 5.76045e-19)
(0.003 1.58395e-19 3.95751e-19)
(0.003 -1.11719e-20 3.2014e-19)
(0.003 -1.21797e-20 4.73568e-19)
(0.003 6.54735e-20 3.74122e-19)
(0.003 4.50987e-20 2.5988e-19)
(0.003 2.94635e-20 1.91959e-19)
(0.003 -6.18772e-20 1.49622e-19)
(0.003 -5.60288e-20 7.12015e-20)
(0.003 1.4875e-21 4.14913e-20)
(0.003 -2.11154e-20 1.40928e-19)
(0.003 6.30943e-20 1.67708e-19)
(0.003 5.19169e-20 1.13102e-19)
(0.003 -9.83242e-22 4.39271e-21)
(0.003 -9.01608e-20 -1.95031e-19)
(0.003 -1.537e-19 -2.88125e-19)
(0.003 -7.99794e-20 -3.02421e-19)
(0.003 2.68993e-19 9.78823e-19)
(0.003 2.53609e-19 1.55229e-18)
(0.003 2.47101e-20 1.72785e-18)
(0.003 -1.16603e-19 1.76698e-18)
(0.003 -8.34534e-20 1.7814e-18)
(0.003 3.32945e-20 1.83941e-18)
(0.003 -7.36563e-21 1.78982e-18)
(0.003 -1.95635e-19 1.70628e-18)
(0.003 -2.62465e-19 1.74651e-18)
(0.003 -6.69925e-20 1.85204e-18)
(0.003 1.95075e-19 1.71064e-18)
(0.003 1.41838e-19 1.61047e-18)
(0.003 1.27712e-19 1.45865e-18)
(0.003 2.07176e-19 1.38527e-18)
(0.003 -3.33647e-20 1.30685e-18)
(0.003 -8.61291e-20 1.0546e-18)
(0.003 -7.43648e-20 8.67865e-19)
(0.003 -1.4117e-19 6.86158e-19)
(0.003 -2.22293e-19 7.94347e-19)
(0.003 -1.11197e-19 7.96766e-19)
(0.003 -1.31343e-19 7.41183e-19)
(0.003 -1.16705e-19 7.16165e-19)
(0.003 -6.17436e-20 7.60726e-19)
(0.003 -5.15913e-20 6.21633e-19)
(0.003 1.23005e-19 5.37802e-19)
(0.003 2.10978e-19 3.9927e-19)
(0.003 1.45615e-20 3.12259e-19)
(0.003 7.13865e-20 3.37777e-19)
(0.003 1.4153e-19 2.55762e-19)
(0.003 4.527e-20 1.57237e-19)
(0.003 -2.50811e-20 1.45992e-19)
(0.003 -3.74128e-20 5.04726e-20)
(0.003 -6.49041e-20 3.79711e-20)
(0.003 -6.02057e-20 1.38582e-19)
(0.003 5.97702e-20 2.3604e-19)
(0.003 2.5216e-19 1.6457e-19)
(0.003 1.08109e-19 -4.36404e-20)
(0.003 1.97256e-20 -2.8541e-19)
(0.003 -1.90897e-19 -3.30688e-19)
(0.003 -2.97203e-19 -1.84781e-19)
(0.003 2.3575e-19 9.3883e-19)
(0.003 2.26675e-19 1.52524e-18)
(0.003 -1.97333e-20 1.74514e-18)
(0.003 1.61299e-21 1.6979e-18)
(0.003 9.33016e-20 1.74186e-18)
(0.003 1.21805e-19 1.78577e-18)
(0.003 7.30296e-20 1.78176e-18)
(0.003 -7.7161e-20 1.71177e-18)
(0.003 -1.40429e-19 1.72305e-18)
(0.003 -1.7461e-19 1.88304e-18)
(0.003 -5.13628e-20 1.8054e-18)
(0.003 3.38301e-20 1.63485e-18)
(0.003 2.30401e-20 1.52664e-18)
(0.003 -1.8293e-19 1.4271e-18)
(0.003 -1.62513e-19 1.28009e-18)
(0.003 -2.43203e-20 1.10383e-18)
(0.003 -1.13367e-19 9.09949e-19)
(0.003 -1.51408e-19 6.88131e-19)
(0.003 -2.25079e-19 7.73159e-19)
(0.003 -1.05274e-19 8.09942e-19)
(0.003 -6.36031e-20 7.31038e-19)
(0.003 -4.84129e-20 7.27439e-19)
(0.003 5.59651e-20 7.42558e-19)
(0.003 7.34448e-20 5.81069e-19)
(0.003 2.96664e-20 4.40278e-19)
(0.003 1.37876e-19 4.11622e-19)
(0.003 8.06549e-20 4.02679e-19)
(0.003 8.72132e-20 4.20678e-19)
(0.003 6.52963e-20 3.01853e-19)
(0.003 -9.63297e-23 7.83673e-20)
(0.003 6.19988e-20 -1.42824e-20)
(0.003 1.08597e-19 4.26219e-21)
(0.003 -5.09035e-20 7.07092e-20)
(0.003 -1.78108e-20 1.05546e-19)
(0.003 1.41336e-19 2.37407e-19)
(0.003 1.88612e-19 1.36444e-19)
(0.003 1.01492e-19 -2.13312e-19)
(0.003 9.99207e-20 -3.16643e-19)
(0.003 7.84532e-20 -2.55439e-19)
(0.003 -4.24555e-20 -8.15789e-20)
(0.003 -9.29207e-20 1.01589e-18)
(0.003 -1.66905e-20 1.63206e-18)
(0.003 8.68555e-20 1.70259e-18)
(0.003 3.05477e-20 1.66925e-18)
(0.003 1.91276e-20 1.71642e-18)
(0.003 8.49791e-20 1.85229e-18)
(0.003 8.28894e-20 1.80292e-18)
(0.003 1.13472e-19 1.69295e-18)
(0.003 -3.45995e-20 1.69689e-18)
(0.003 -1.71054e-19 1.76712e-18)
(0.003 -1.51151e-19 1.78471e-18)
(0.003 -1.60716e-19 1.70107e-18)
(0.003 -2.48526e-19 1.57159e-18)
(0.003 -2.34205e-19 1.30911e-18)
(0.003 -1.31597e-19 1.12703e-18)
(0.003 -1.25189e-19 1.04201e-18)
(0.003 -1.61899e-19 9.77607e-19)
(0.003 -1.26703e-19 8.10922e-19)
(0.003 -1.80123e-19 7.36241e-19)
(0.003 -1.83008e-19 8.18978e-19)
(0.003 -6.90687e-20 7.30728e-19)
(0.003 5.84574e-20 7.16252e-19)
(0.003 1.393e-19 7.76284e-19)
(0.003 1.55762e-19 6.6611e-19)