/*--------------------------------*- C++ -*----------------------------------*\
| =========                 |                                                 |
| \\      /  F ield         | OpenFOAM: The Open Source CFD Toolbox           |
|  \\    /   O peration     | Version:  v2012                                 |
|   \\  /    A nd           | Website:  www.openfoam.com                      |
|    \\/     M anipulation  |                                                 |
\*---------------------------------------------------------------------------*/
FoamFile
{
    version     2.0;
    format      ascii;
    class       volScalarField;
    location    "780/bottomWater";
    object      p;
}
// * * * * * * * * * * * * * * * * * * * * * * * * * * * * * * * * * * * * * //

dimensions      [1 -1 -2 0 0 0 0];


internalField   nonuniform List<scalar> 
1460
(
353.43045
353.42946
353.42303
353.44445
353.44854
353.45243
353.44725
353.45421
353.45301
353.46632
353.43989
353.45268
353.44952
353.449
353.44901
353.45098
353.44845
353.46183
353.46725
353.47881
353.47496
353.48693
353.48542
353.46939
353.48132
353.47628
353.47762
353.48303
353.4754
353.46867
274.4479
274.45303
274.4511
274.48255
274.47886
274.43392
274.43341
274.46544
274.48816
274.47976
274.4196
274.41922
274.41742
274.42166
274.43215
274.4435
274.43918
274.47396
274.49275
274.49624
274.48896
274.50591
274.45821
274.38496
274.39306
274.39961
274.44087
274.49637
274.44953
274.42585
196.30054
196.28461
196.28085
196.25114
196.23076
196.26581
196.28036
196.26796
196.25811
196.23209
196.25617
196.2855
196.31463
196.30307
196.29426
196.26649
196.28861
196.25813
196.26913
196.27012
196.26758
196.25093
196.25
196.26574
196.30413
196.256
196.23949
196.22944
196.24922
196.30238
117.70085
117.6931
117.69397
117.68474
117.67051
117.66346
117.69173
117.68473
117.67348
117.6618
117.65884
117.68877
117.68523
117.67558
117.66307
117.65739
117.66835
117.68935
117.67287
117.70489
117.69255
117.66427
117.6578
117.65499
117.68927
117.6698
117.65419
117.65978
117.68485
117.69933
39.238893
39.236374
39.231715
39.220517
39.235788
39.237404
39.237808
39.227757
39.226391
39.237108
39.245164
39.253113
39.259789
39.254331
39.253581
39.246142
39.223776
39.223527
39.226204
39.230999
39.217983
39.226694
39.228709
39.231073
39.264031
39.2442
39.247124
39.242861
39.220178
39.240585
353.43183
353.43065
353.41853
353.44134
353.45466
353.45336
353.44677
353.44679
353.44592
353.44525
353.44482
353.45237
353.44424
353.45479
353.46838
353.45268
353.45979
353.45652
353.4509
353.45354
353.45057
353.48268
353.48695
353.46323
353.48202
353.47814
353.47994
353.48829
353.46477
353.47449
274.44297
274.4443
274.44588
274.49091
274.51022
274.44686
274.41631
274.4162
274.43823
274.43305
274.41153
274.41795
274.42397
274.45353
274.49882
274.46232
274.4169
274.41868
274.43216
274.44093
274.42151
274.48112
274.45603
274.39778
274.39292
274.38667
274.43668
274.45707
274.40028
274.40615
196.30613
196.27506
196.2537
196.2237
196.23425
196.23462
196.26795
196.27741
196.279
196.27583
196.27962
196.29216
196.26289
196.23658
196.24109
196.25759
196.29394
196.29732
196.2855
196.28938
196.28329
196.22141
196.23279
196.23963
196.29276
196.26191
196.24912
196.23289
196.26715
196.29087
117.70226
117.6838
117.65869
117.65345
117.66373
117.65723
117.67087
117.67684
117.64166
117.6333
117.67717
117.68719
117.66109
117.66004
117.6676
117.65832
117.69324
117.68333
117.61991
117.67441
117.64695
117.64357
117.64745
117.62566
117.68022
117.66581
117.63599
117.65459
117.65878
117.68154
39.235699
39.228842
39.226279
39.228494
39.251103
39.247008
39.240127
39.236988
39.252754
39.268327
39.251328
39.261405
39.266152
39.260451
39.258062
39.245561
39.230361
39.231454
39.246339
39.250998
39.221904
39.245419
39.256331
39.253531
39.268567
39.246902
39.256871
39.245523
39.225958
39.236691
353.43528
353.42232
353.44612
353.47258
353.46712
353.45855
353.45355
353.45097
353.44559
353.44888
353.44369
353.45105
353.4581
353.45398
353.45913
353.46964
353.43635
353.4592
353.44399
353.45023
353.44334
353.45135
353.44922
353.45491
353.46585
353.46915
353.47272
353.48754
353.47317
353.47855
274.44207
274.43744
274.47058
274.51597
274.45084
274.40284
274.41105
274.41478
274.43927
274.44534
274.43123
274.4142
274.41642
274.4188
274.46677
274.47468
274.41993
274.40687
274.41216
274.42317
274.41491
274.40993
274.39847
274.39024
274.38853
274.3822
274.42141
274.43941
274.39835
274.39665
196.27512
196.2482
196.21694
196.22613
196.2324
196.26143
196.30651
196.30102
196.27801
196.28017
196.2733
196.29596
196.30556
196.27881
196.24584
196.23618
196.26957
196.30174
196.30522
196.29683
196.29859
196.28036
196.30287
196.3072
196.33637
196.2793
196.27618
196.24126
196.2824
196.31487
117.68866
117.65966
117.66259
117.67685
117.67148
117.6684
117.68617
117.67423
117.64211
117.64612
117.65435
117.67446
117.68347
117.66575
117.67232
117.65002
117.66356
117.68877
117.67698
117.6681
117.65688
117.64749
117.63871
117.67206
117.67985
117.67407
117.64476
117.65501
117.65747
117.68454
39.233647
39.239195
39.248411
39.249638
39.250721
39.249258
39.264935
39.257791
39.263233
39.267403
39.250051
39.257108
39.258705
39.249287
39.243696
39.264545
39.240214
39.260558
39.252197
39.245277
39.242909
39.270786
39.278737
39.262412
39.276068
39.253624
39.276494
39.258353
39.246222
39.260776
353.43687
353.43327
353.43092
353.43988
353.44386
353.44997
353.44726
353.44757
353.46008
353.45458
353.46187
353.45148
353.44789
353.44903
353.45157
353.44563
353.44349
353.44457
353.45321
353.46968
353.46228
353.4668
353.46332
353.46726
353.46991
353.4706
353.47191
353.49133
353.46985
353.47863
274.43076
274.42075
274.43469
274.42983
274.41403
274.41601
274.42323
274.43375
274.49834
274.48798
274.47253
274.4348
274.41414
274.41794
274.41991
274.43949
274.44482
274.42681
274.45129
274.47005
274.42106
274.40333
274.39672
274.39143
274.39204
274.39364
274.42361
274.44704
274.39871
274.39584
196.3116
196.28507
196.27965
196.26803
196.27262
196.29164
196.26886
196.24589
196.23117
196.2498
196.258
196.24291
196.28212
196.32142
196.30166
196.299
196.29356
196.32214
196.30064
196.26394
196.30366
196.28697
196.31322
196.31314
196.30461
196.2618
196.27525
196.23532
196.27096
196.29538
117.68432
117.67218
117.64398
117.65226
117.67606
117.69449
117.67946
117.66807
117.66816
117.67641
117.69327
117.66901
117.67786
117.69351
117.67216
117.63492
117.64486
117.65391
117.65001
117.64444
117.62337
117.67903
117.67938
117.68374
117.67825
117.65516
117.6425
117.65882
117.64775
117.68253
39.248368
39.249456
39.268829
39.260299
39.237255
39.256109
39.248908
39.250662
39.246391
39.233085
39.229141
39.252289
39.238141
39.243632
39.236284
39.273474
39.265006
39.237946
39.239398
39.255281
39.259768
39.243976
39.249153
39.253571
39.263573
39.251291
39.255945
39.249132
39.238559
39.256871
353.43674
353.43119
353.42453
353.45058
353.45696
353.46081
353.46113
353.45597
353.46696
353.46091
353.46969
353.46862
353.46525
353.4563
353.45111
353.46153
353.43896
353.46931
353.46642
353.46757
353.45952
353.47085
353.47571
353.48135
353.48238
353.4812
274.43751
274.4416
274.44405
274.47585
274.45609
274.40915
274.4183
274.43019
274.46429
274.48673
274.49497
274.46865
274.44285
274.4107
274.40889
274.41632
274.41939
274.4607
274.45095
274.40776
274.41897
274.4348
274.46355
274.46381
274.43041
274.41165
196.29178
196.26829
196.25752
196.23607
196.24436
196.26499
196.29218
196.25865
196.25151
196.26163
196.27189
196.26381
196.28818
196.34023
196.31808
196.29593
196.27865
196.23626
196.27305
196.29508
196.29135
196.26591
196.26549
196.27057
196.27138
196.28814
117.69263
117.67339
117.66293
117.66676
117.64792
117.67445
117.68975
117.62816
117.66271
117.67687
117.69152
117.67689
117.67456
117.68479
117.66399
117.64056
117.62454
117.63457
117.64951
117.66741
117.65556
117.66968
117.66048
117.67115
117.65404
117.64338
39.233018
39.228911
39.233442
39.236949
39.250731
39.248472
39.265139
39.260321
39.237318
39.225325
39.231785
39.224309
39.236941
39.238966
39.236057
39.252264
39.273179
39.263822
39.235295
39.220531
39.21957
39.218588
39.216637
39.226533
39.224641
39.245578
353.44273
353.43581
353.45218
353.45518
353.45827
353.46434
353.46558
353.46504
353.46356
353.45753
353.46672
353.4569
353.45442
353.44615
353.45139
353.455
353.45708
353.45711
353.46029
353.46565
353.48175
353.48611
353.4876
353.49591
353.49223
353.49298
274.42854
274.43361
274.47323
274.4873
274.47953
274.45263
274.40524
274.40546
274.4211
274.43897
274.47047
274.45064
274.43305
274.41431
274.42106
274.40258
274.39773
274.38909
274.413
274.41952
274.46183
274.48021
274.47877
274.46275
274.4212
274.39724
196.2752
196.24987
196.25161
196.25378
196.24883
196.22477
196.26897
196.28772
196.2672
196.25242
196.25974
196.24912
196.28355
196.31597
196.31786
196.32547
196.32244
196.29261
196.27147
196.24825
196.22857
196.26213
196.26105
196.26382
196.26244
196.29193
117.67053
117.65117
117.67919
117.6687
117.66738
117.63514
117.67104
117.68662
117.65204
117.6616
117.66887
117.66171
117.67677
117.6496
117.63307
117.67423
117.66892
117.66458
117.6483
117.65248
117.64911
117.67559
117.68436
117.67574
117.64191
117.66507
39.243596
39.2425
39.236559
39.228961
39.236353
39.245811
39.257492
39.276529
39.260808
39.243659
39.233822
39.247788
39.238068
39.260596
39.273509
39.262608
39.259243
39.251072
39.244752
39.241935
39.231674
39.222879
39.22161
39.223269
39.227916
39.243017
353.44641
353.43675
353.46517
353.43005
353.45481
353.44616
353.46261
353.45677
353.45698
353.45101
353.45618
353.4559
353.46138
353.47014
353.46288
353.47309
353.45832
353.45408
353.46323
353.47224
353.46502
353.46328
353.45569
353.46275
353.46952
353.46821
353.4752
353.49043
353.48782
353.48832
274.42828
274.43382
274.48581
274.45538
274.47876
274.4732
274.45549
274.41414
274.4067
274.41105
274.42999
274.41787
274.43313
274.48031
274.4896
274.47747
274.44003
274.42936
274.4476
274.42402
274.3929
274.40433
274.39645
274.39659
274.41472
274.43211
274.44864
274.44796
274.39262
274.38386
196.28746
196.265
196.24649
196.30138
196.26863
196.27107
196.23849
196.27964
196.29065
196.29167
196.28753
196.29217
196.28191
196.24387
196.27878
196.26614
196.31001
196.28025
196.26582
196.26083
196.29418
196.30389
196.29823
196.28121
196.26573
196.25036
196.26505
196.24694
196.26199
196.2959
117.679
117.62833
117.64703
117.64512
117.6682
117.66839
117.63552
117.65074
117.6671
117.66837
117.61338
117.66489
117.6228
117.63201
117.65248
117.6916
117.66622
117.64033
117.64777
117.62334
117.67165
117.68347
117.6596
117.6311
117.61403
117.63771
117.63671
117.63879
117.60755
117.66622
39.260958
39.261143
39.255148
39.246172
39.22658
39.234482
39.24542
39.245831
39.255852
39.24841
39.260816
39.249183
39.238074
39.231603
39.212327
39.224788
39.224188
39.244371
39.266253
39.272128
39.260392
39.256596
39.237528
39.2542
39.259662
39.254134
39.217302
39.236413
39.245829
39.254836
353.45543
353.45112
353.45986
353.4572
353.45614
353.45752
353.46276
353.45953
353.45386
353.45419
353.45813
353.45489
353.45563
353.46363
353.46738
353.4699
353.47594
353.47222
353.4613
353.47064
353.46391
353.45669
353.48778
353.48025
353.48576
353.47872
353.47078
353.5075
353.49704
353.50025
274.42028
274.41422
274.44477
274.48252
274.48408
274.48549
274.48942
274.44132
274.44156
274.42437
274.40193
274.40496
274.40794
274.45126
274.46975
274.46299
274.48777
274.44525
274.41177
274.40133
274.41831
274.41365
274.45409
274.41121
274.37823
274.39409
274.40429
274.44557
274.37797
274.37469
196.29807
196.26634
196.24253
196.24311
196.26887
196.27767
196.24337
196.29246
196.27965
196.30553
196.29503
196.30748
196.26794
196.25066
196.24718
196.26368
196.25723
196.24378
196.30646
196.30182
196.29338
196.27494
196.24635
196.29349
196.27072
196.27921
196.26316
196.24804
196.27324
196.32928
117.68666
117.6643
117.64691
117.64849
117.6688
117.66621
117.63239
117.64293
117.62249
117.63671
117.68336
117.66644
117.65023
117.63176
117.63991
117.65734
117.66915
117.65564
117.66102
117.6861
117.67003
117.6368
117.6569
117.61303
117.68455
117.68115
117.63127
117.65839
117.62553
117.69721
39.267212
39.256594
39.254156
39.239945
39.225869
39.228369
39.251418
39.268149
39.281466
39.280168
39.271916
39.262143
39.247649
39.251238
39.232118
39.219497
39.241847
39.24917
39.229365
39.232121
39.235197
39.245162
39.269761
39.283458
39.277772
39.256819
39.247925
39.268458
39.284591
39.295047
353.44732
353.45039
353.4475
353.44149
353.45046
353.45369
353.45188
353.46377
353.44104
353.4516
353.45442
353.45049
353.44946
353.45001
353.44969
353.44859
353.45249
353.45234
353.45258
353.45025
353.46465
353.47446
353.48224
353.47252
353.47926
353.48088
353.46028
353.50027
353.4922
353.49501
274.4372
274.41732
274.4297
274.43641
274.45687
274.47067
274.47933
274.46129
274.40868
274.40863
274.40131
274.39927
274.41774
274.4281
274.43532
274.41453
274.42887
274.41072
274.41117
274.42139
274.44231
274.46996
274.45017
274.3974
274.38624
274.40172
274.39978
274.43318
274.39573
274.37643
196.30669
196.29802
196.27967
196.28676
196.27539
196.26217
196.241
196.23255
196.26691
196.2891
196.32184
196.30994
196.29261
196.29368
196.27833
196.30962
196.2753
196.31969
196.28141
196.2636
196.25676
196.27388
196.2451
196.26554
196.30052
196.30019
196.27171
196.24359
196.26302
196.29394
117.62775
117.66678
117.65217
117.6566
117.67956
117.66988
117.6331
117.63993
117.63198
117.65358
117.67913
117.66553
117.61317
117.63082
117.61721
117.65096
117.64091
117.65885
117.6843
117.64342
117.67577
117.66897
117.63768
117.62181
117.6762
117.69581
117.62215
117.63446
117.60947
117.67571
39.283198
39.252102
39.243653
39.231548
39.230496
39.212969
39.231418
39.247008
39.256401
39.258837
39.270887
39.260965
39.271218
39.266886
39.247098
39.221558
39.261318
39.253734
39.257683
39.251998
39.236741
39.237109
39.243907
39.262995
39.265446
39.245463
39.233179
39.251985
39.271733
39.276129
353.45997
353.45878
353.44515
353.44337
353.44613
353.44552
353.44307
353.44494
353.44431
353.44927
353.45106
353.44597
353.4713
353.47413
353.45433
353.4598
353.46268
353.4579
353.45014
353.45923
353.4701
353.47607
353.47663
353.47595
353.47771
353.474
353.47083
353.48929
353.49754
353.49411
274.48567
274.47527
274.44794
274.42183
274.43152
274.43721
274.43135
274.43542
274.4178
274.41765
274.41551
274.40963
274.48265
274.5009
274.42795
274.41162
274.41236
274.41214
274.41212
274.44691
274.49765
274.4545
274.39934
274.38879
274.38924
274.40896
274.40353
274.4541
274.44696
274.39645
196.27643
196.2504
196.269
196.27446
196.31325
196.31755
196.30748
196.29497
196.31304
196.31661
196.29336
196.26404
196.23794
196.22989
196.27416
196.30655
196.31092
196.30268
196.26838
196.24663
196.24045
196.25862
196.27311
196.29655
196.32067
196.32655
196.30426
196.26385
196.23479
196.27927
117.66867
117.66456
117.64158
117.67706
117.6853
117.69226
117.67554
117.65051
117.67275
117.68437
117.68509
117.65903
117.65675
117.65839
117.6739
117.7019
117.68654
117.6779
117.6568
117.65357
117.65337
117.67482
117.66786
117.69043
117.6901
117.68995
117.68365
117.65508
117.6326
117.64619
39.241071
39.243923
39.259801
39.240648
39.246593
39.230475
39.227826
39.234623
39.238524
39.248668
39.253986
39.248451
39.247916
39.243141
39.22581
39.233655
39.249478
39.256068
39.257098
39.256581
39.245844
39.234054
39.239251
39.247429
39.254878
39.240497
39.234178
39.221425
39.25275
39.256837
)
;

boundaryField
{
    minX
    {
        type            calculated;
        value           nonuniform List<scalar> 
50
(
353.43045
274.4479
196.30054
117.70085
39.238893
353.43183
274.44297
196.30613
117.70226
39.235699
353.43528
274.44207
196.27512
117.68866
39.233647
353.43687
274.43076
196.3116
117.68432
39.248368
353.43674
274.43751
196.29178
117.69263
39.233018
353.44273
274.42854
196.2752
117.67053
39.243596
353.44641
274.42828
196.28746
117.679
39.260958
353.45543
274.42028
196.29807
117.68666
39.267212
353.44732
274.4372
196.30669
117.62775
39.283198
353.45997
274.48567
196.27643
117.66867
39.241071
)
;
    }
    maxX
    {
        type            calculated;
        value           nonuniform List<scalar> 
50
(
353.46867
274.42585
196.30238
117.69933
39.240585
353.47449
274.40615
196.29087
117.68154
39.236691
353.47855
274.39665
196.31487
117.68454
39.260776
353.47863
274.39584
196.29538
117.68253
39.256871
353.4812
274.41165
196.28814
117.64338
39.245578
353.49298
274.39724
196.29193
117.66507
39.243017
353.48832
274.38386
196.2959
117.66622
39.254836
353.50025
274.37469
196.32928
117.69721
39.295047
353.49501
274.37643
196.29394
117.67571
39.276129
353.49411
274.39645
196.27927
117.64619
39.256837
)
;
    }
    minY
    {
        type            calculated;
        value           nonuniform List<scalar> 
292
(
392.4
392.4
392.4
392.4
392.4
392.4
392.4
392.4
392.4
392.4
392.4
392.4
392.4
392.4
392.4
392.4
392.4
392.4
392.4
392.4
392.4
392.4
392.4
392.4
392.4
392.4
392.4
392.4
392.4
392.4
392.4
392.4
392.4
392.4
392.4
392.4
392.4
392.4
392.4
392.4
392.4
392.4
392.4
392.4
392.4
392.4
392.4
392.4
392.4
392.4
392.4
392.4
392.4
392.4
392.4
392.4
392.4
392.4
392.4
392.4
392.4
392.4
392.4
392.4
392.4
392.4
392.4
392.4
392.4
392.4
392.4
392.4
392.4
392.4
392.4
392.4
392.4
392.4
392.4
392.4
392.4
392.4
392.4
392.4
392.4
392.4
392.4
392.4
392.4
392.4
392.4
392.4
392.4
392.4
392.4
392.4
392.4
392.4
392.4
392.4
392.4
392.4
392.4
392.4
392.4
392.4
392.4
392.4
392.4
392.4
392.4
392.4
392.4
392.4
392.4
392.4
392.4
392.4
392.4
392.4
392.4
392.4
392.4
392.4
392.4
392.4
392.4
392.4
392.4
392.4
392.4
392.4
392.4
392.4
392.4
392.4
392.4
392.4
392.4
392.4
392.4
392.4
392.4
392.4
392.4
392.4
392.4
392.4
392.4
392.4
392.4
392.4
392.4
392.4
392.4
392.4
392.4
392.4
392.4
392.4
392.4
392.4
392.4
392.4
392.4
392.4
392.4
392.4
392.4
392.4
392.4
392.4
392.4
392.4
392.4
392.4
392.4
392.4
392.4
392.4
392.4
392.4
392.4
392.4
392.4
392.4
392.4
392.4
392.4
392.4
392.4
392.4
392.4
392.4
392.4
392.4
392.4
392.4
392.4
392.4
392.4
392.4
392.4
392.4
392.4
392.4
392.4
392.4
392.4
392.4
392.4
392.4
392.4
392.4
392.4
392.4
392.4
392.4
392.4
392.4
392.4
392.4
392.4
392.4
392.4
392.4
392.4
392.4
392.4
392.4
392.4
392.4
392.4
392.4
392.4
392.4
392.4
392.4
392.4
392.4
392.4
392.4
392.4
392.4
392.4
392.4
392.4
392.4
392.4
392.4
392.4
392.4
392.4
392.4
392.4
392.4
392.4
392.4
392.4
392.4
392.4
392.4
392.4
392.4
392.4
392.4
392.4
392.4
392.4
392.4
392.4
392.4
392.4
392.4
392.4
392.4
392.4
392.4
392.4
392.4
392.4
392.4
392.4
392.4
392.4
392.4
392.4
392.4
392.4
392.4
392.4
392.4
)
;
    }
    minZ
    {
        type            calculated;
        value           nonuniform List<scalar> 
150
(
353.43045
274.4479
196.30054
117.70085
39.238893
353.42946
274.45303
196.28461
117.6931
39.236374
353.42303
274.4511
196.28085
117.69397
39.231715
353.44445
274.48255
196.25114
117.68474
39.220517
353.44854
274.47886
196.23076
117.67051
39.235788
353.45243
274.43392
196.26581
117.66346
39.237404
353.44725
274.43341
196.28036
117.69173
39.237808
353.45421
274.46544
196.26796
117.68473
39.227757
353.45301
274.48816
196.25811
117.67348
39.226391
353.46632
274.47976
196.23209
117.6618
39.237108
353.43989
274.4196
196.25617
117.65884
39.245164
353.45268
274.41922
196.2855
117.68877
39.253113
353.44952
274.41742
196.31463
117.68523
39.259789
353.449
274.42166
196.30307
117.67558
39.254331
353.44901
274.43215
196.29426
117.66307
39.253581
353.45098
274.4435
196.26649
117.65739
39.246142
353.44845
274.43918
196.28861
117.66835
39.223776
353.46183
274.47396
196.25813
117.68935
39.223527
353.46725
274.49275
196.26913
117.67287
39.226204
353.47881
274.49624
196.27012
117.70489
39.230999
353.47496
274.48896
196.26758
117.69255
39.217983
353.48693
274.50591
196.25093
117.66427
39.226694
353.48542
274.45821
196.25
117.6578
39.228709
353.46939
274.38496
196.26574
117.65499
39.231073
353.48132
274.39306
196.30413
117.68927
39.264031
353.47628
274.39961
196.256
117.6698
39.2442
353.47762
274.44087
196.23949
117.65419
39.247124
353.48303
274.49637
196.22944
117.65978
39.242861
353.4754
274.44953
196.24922
117.68485
39.220178
353.46867
274.42585
196.30238
117.69933
39.240585
)
;
    }
    maxZ
    {
        type            calculated;
        value           nonuniform List<scalar> 
150
(
353.45997
274.48567
196.27643
117.66867
39.241071
353.45878
274.47527
196.2504
117.66456
39.243923
353.44515
274.44794
196.269
117.64158
39.259801
353.44337
274.42183
196.27446
117.67706
39.240648
353.44613
274.43152
196.31325
117.6853
39.246593
353.44552
274.43721
196.31755
117.69226
39.230475
353.44307
274.43135
196.30748
117.67554
39.227826
353.44494
274.43542
196.29497
117.65051
39.234623
353.44431
274.4178
196.31304
117.67275
39.238524
353.44927
274.41765
196.31661
117.68437
39.248668
353.45106
274.41551
196.29336
117.68509
39.253986
353.44597
274.40963
196.26404
117.65903
39.248451
353.4713
274.48265
196.23794
117.65675
39.247916
353.47413
274.5009
196.22989
117.65839
39.243141
353.45433
274.42795
196.27416
117.6739
39.22581
353.4598
274.41162
196.30655
117.7019
39.233655
353.46268
274.41236
196.31092
117.68654
39.249478
353.4579
274.41214
196.30268
117.6779
39.256068
353.45014
274.41212
196.26838
117.6568
39.257098
353.45923
274.44691
196.24663
117.65357
39.256581
353.4701
274.49765
196.24045
117.65337
39.245844
353.47607
274.4545
196.25862
117.67482
39.234054
353.47663
274.39934
196.27311
117.66786
39.239251
353.47595
274.38879
196.29655
117.69043
39.247429
353.47771
274.38924
196.32067
117.6901
39.254878
353.474
274.40896
196.32655
117.68995
39.240497
353.47083
274.40353
196.30426
117.68365
39.234178
353.48929
274.4541
196.26385
117.65508
39.221425
353.49754
274.44696
196.23479
117.6326
39.25275
353.49411
274.39645
196.27927
117.64619
39.256837
)
;
    }
    bottomWater_to_rightSolid
    {
        type            calculated;
        value           nonuniform List<scalar> 
130
(
-0.016472831
-0.013796122
-0.0090013242
-0.02201652
-0.013306333
-0.011291129
-0.008927217
0.024030757
0.0041999692
0.0071240182
0.0028605536
-0.01982217
0.000584912
-0.0085461879
0.0063388467
0.010998093
-0.018095867
0.0054190157
0.016331347
0.013531239
0.028567141
0.0069023629
0.016871287
0.0055233037
-0.01404207
-0.0033094988
0.020557892
0.012197067
0.0052774335
0.0029091926
0.030786359
0.038737313
0.022412173
0.036067782
0.013623625
0.036494127
0.01835264
0.0062217226
0.020776007
-0.0020539369
-0.00060160718
0.015280993
0.019768296
0.0039755998
0.0091530543
0.013571216
0.023573098
0.011291009
0.015945257
0.0091322022
-0.0014412729
0.016871127
-0.0010344231
-0.0039427491
0.012263644
0.03317911
0.023822074
-0.0047045249
-0.019469139
-0.02043013
-0.021412289
-0.023363396
-0.01346696
-0.015358803
0.0055777545
0.020596181
0.033509266
0.022608477
0.019243003
0.011071808
0.0047515814
0.0019354018
-0.008326009
-0.01712125
-0.018389905
-0.016731145
-0.012084118
0.0030166842
0.0043711562
0.026253071
0.03212751
0.020391702
0.01659603
-0.0024721167
0.01419958
0.019661747
0.014133656
-0.022698391
-0.0035874652
0.0058286955
0.014835926
0.0091696936
-0.01063508
-0.0078791896
-0.0048034139
0.0051621148
0.029761407
0.043457762
0.037772099
0.016819239
0.0079246579
0.028458313
0.044590908
0.055046667
0.013733916
0.01768269
0.011998093
-0.0032591789
-0.0028907969
0.0039070489
0.022994576
0.025446311
0.0054626882
-0.0068209716
0.01198538
0.031732928
0.036128796
0.016067941
0.017097996
0.016580752
0.0058443207
-0.0059462476
-0.00074856084
0.007429248
0.014878087
0.0004974115
-0.0058221908
-0.018574879
0.012750234
0.016836886
)
;
    }
    bottomWater_to_leftSolid
    {
        type            calculated;
        value           nonuniform List<scalar> 
130
(
-0.0011067662
-0.0036256385
-0.0082854327
-0.01948294
-0.0042123368
-0.0025959008
-0.0021923536
-0.012242738
-0.013609054
-0.0028920596
0.0051637293
0.013113215
0.0197886
-0.0043013257
-0.011158174
-0.01372124
-0.011506288
0.011102546
0.0070082516
0.00012724171
-0.0030122012
0.012753634
0.028326516
0.011328389
0.021404936
0.026151728
-0.006353475
-0.00080477653
0.0084112138
0.0096384133
0.010721481
0.0092582737
0.02493548
0.017791259
0.023232508
0.027403217
0.010051285
0.017107725
0.018705293
0.0083684822
0.0094562377
0.02882867
0.020298812
-0.0027448547
0.016108552
0.008907916
0.010662111
0.0063914758
-0.0069154757
-0.010858707
0.012289115
-0.0018587644
-0.0069821065
-0.011088748
-0.0065577311
-0.0030512957
0.010730561
0.0084724703
0.025138561
0.020320625
-0.0026819283
-0.014675309
-0.008215044
-0.015690656
-0.0030591435
0.0035960625
0.0024997967
-0.0034406301
-0.011038984
-0.0036465256
0.0058107417
0.017492184
0.036529041
0.020807827
0.0036591644
-0.0061776925
0.0077883117
-0.0019323007
0.020957768
0.021142696
0.015148073
0.0061717453
-0.013420378
-0.0055181425
0.0054195463
0.0058308521
0.01585206
0.0084098347
0.020816125
0.0091829771
-0.0019261799
0.027212496
0.016594187
0.014156472
-5.4661152e-05
-0.014130637
-0.01163123
0.011417925
0.028148707
0.041465579
0.040167709
0.031916272
0.022143117
0.0076491615
0.043198206
0.012102064
0.0036533356
-0.0084518222
-0.009504427
-0.027031256
-0.0085823746
0.0070084867
0.016400859
0.01883686
0.03088664
0.020965402
0.031217507
0.0010711681
0.0039230398
0.01980103
0.00064808299
0.0065928434
-0.0095246516
-0.01217353
-0.0053767439
-0.0014764455
0.0086677715
0.013985821
0.0084506373
0.0079159548
)
;
    }
    bottomWater_to_heater
    {
        type            calculated;
        value           nonuniform List<scalar> 
92
(
0.014330625
0.013581048
0.0061416832
-0.016224303
0.020450927
0.018062374
0.0055612214
-0.0096385993
0.0092869725
0.0036958701
0.024545156
0.00021419046
353.44903
353.45157
353.44563
353.44349
274.41794
274.41991
274.43949
274.44482
196.32142
196.30166
196.299
196.29356
117.69351
117.67216
117.63492
117.64486
0.0036317115
39.243632
-0.0037156434
39.236284
0.033473555
39.273474
0.025005663
39.265006
353.46525
353.4563
274.44285
274.4107
196.28818
196.34023
117.67456
117.68479
39.236941
39.238966
353.45442
353.47014
353.46288
353.47309
353.44615
353.45832
274.43305
274.48031
274.4896
274.47747
274.41431
274.44003
196.28355
196.24387
196.27878
196.26614
196.31597
196.31001
117.67677
117.63201
117.65248
117.6916
117.6496
117.66622
39.238068
39.231603
39.212327
39.224788
39.260596
39.224188
-0.0083974681
-0.027673093
-0.015212276
-0.015811586
0.011238388
-0.0078820187
-0.020503247
0.0018466011
0.026886429
0.0070981364
-0.018442003
0.021317916
0.0031411165
-0.014190133
-0.0063446195
0.0094781384
)
;
    }
}


// ************************************************************************* //
