/*--------------------------------*- C++ -*----------------------------------*\
| =========                 |                                                 |
| \\      /  F ield         | OpenFOAM: The Open Source CFD Toolbox           |
|  \\    /   O peration     | Version:  v2012                                 |
|   \\  /    A nd           | Website:  www.openfoam.com                      |
|    \\/     M anipulation  |                                                 |
\*---------------------------------------------------------------------------*/
FoamFile
{
    version     2.0;
    format      ascii;
    class       volScalarField;
    location    "780/bottomWater";
    object      p_rgh;
}
// * * * * * * * * * * * * * * * * * * * * * * * * * * * * * * * * * * * * * //

dimensions      [1 -1 -2 0 0 0 0];


internalField   nonuniform List<scalar> 
1460
(
0.27044796
0.26946151
0.26302585
0.28445246
0.28853939
0.29242811
0.28724577
0.29420859
0.29300654
0.30632207
0.27989368
0.29268012
0.28951798
0.28900497
0.28900611
0.29098359
0.28844814
0.30183373
0.3072493
0.31880799
0.31496189
0.32692752
0.32542426
0.30938592
0.32132022
0.31627738
0.31762227
0.32303242
0.31539604
0.30866554
-0.23209619
-0.22696936
-0.22890371
-0.19744686
-0.20114013
-0.24607603
-0.24658764
-0.21456381
-0.19184093
-0.20024451
-0.26039968
-0.26078033
-0.26258202
-0.25833904
-0.24785433
-0.23650092
-0.24081704
-0.20603988
-0.18724704
-0.18376334
-0.19103839
-0.17408841
-0.2217855
-0.29503601
-0.28693793
-0.28038885
-0.23913039
-0.1836301
-0.23047086
-0.25414783
0.10054076
0.084609415
0.080846523
0.051136284
0.030761434
0.06580636
0.080364059
0.067955721
0.058113505
0.032087629
0.056165957
0.085504473
0.11462671
0.10307227
0.094259763
0.066494808
0.088612577
0.058133271
0.069131958
0.070120303
0.067584552
0.050932106
0.049998006
0.065735491
0.10412525
0.055997176
0.039485057
0.0294416
0.049224377
0.1023824
-0.019145268
-0.026898229
-0.026026061
-0.035256714
-0.049491114
-0.056543415
-0.028268247
-0.035265755
-0.046519633
-0.058202156
-0.061164588
-0.031230704
-0.034773979
-0.044420219
-0.05692826
-0.062606742
-0.051652379
-0.030654481
-0.0471283
-0.015107883
-0.027452579
-0.05573485
-0.062197237
-0.065011886
-0.030729946
-0.050204112
-0.065805203
-0.060217612
-0.035146121
-0.020670674
-0.0011067662
-0.0036256385
-0.0082854327
-0.01948294
-0.0042123368
-0.0025959008
-0.0021923536
-0.012242738
-0.013609054
-0.0028920596
0.0051637293
0.013113215
0.0197886
0.014330625
0.013581048
0.0061416832
-0.016224303
-0.016472831
-0.013796122
-0.0090013242
-0.02201652
-0.013306333
-0.011291129
-0.008927217
0.024030757
0.0041999692
0.0071240182
0.0028605536
-0.01982217
0.000584912
0.27182972
0.27064539
0.25852753
0.28133695
0.29466366
0.2933626
0.28677326
0.28679136
0.28591648
0.28524804
0.28482079
0.29237157
0.28423549
0.29479262
0.30837998
0.29268448
0.29979262
0.29652395
0.29089947
0.29354038
0.29056787
0.32268163
0.32695414
0.30322824
0.32201795
0.31814116
0.31994147
0.32829269
0.30476847
0.31449158
-0.2370288
-0.23570078
-0.23411725
-0.18909321
-0.1697802
-0.23313599
-0.26368814
-0.2637978
-0.24177469
-0.24694513
-0.26846509
-0.2620481
-0.25602908
-0.22646776
-0.18118261
-0.2176764
-0.263103
-0.26132168
-0.24783955
-0.23906572
-0.25848813
-0.19888131
-0.22397455
-0.28222432
-0.28708329
-0.29333475
-0.24331586
-0.22292998
-0.2797225
-0.27384669
0.10612999
0.075063433
0.05370179
0.023702527
0.034252054
0.034624932
0.067953603
0.077405652
0.079001006
0.075828826
0.079622884
0.092158329
0.062893398
0.03657656
0.04108635
0.057593109
0.093940562
0.097319266
0.085504651
0.089379993
0.083288062
0.021409752
0.032790096
0.039630457
0.092758502
0.061907519
0.049123397
0.032887822
0.067148226
0.090874755
-0.017737449
-0.036195464
-0.06130996
-0.066554257
-0.056270677
-0.062770658
-0.049126066
-0.043157282
-0.078335883
-0.086703925
-0.042825783
-0.032813557
-0.058914703
-0.059964596
-0.05240145
-0.061679175
-0.026756691
-0.036667294
-0.1000881
-0.045589783
-0.073045893
-0.076429041
-0.072549339
-0.094343827
-0.03977941
-0.054189705
-0.084013475
-0.06541382
-0.061216674
-0.038457966
-0.0043013257
-0.011158174
-0.01372124
-0.011506288
0.011102546
0.0070082516
0.00012724171
-0.0030122012
0.012753634
0.028326516
0.011328389
0.021404936
0.026151728
0.020450927
0.018062374
0.0055612214
-0.0096385993
-0.0085461879
0.0063388467
0.010998093
-0.018095867
0.0054190157
0.016331347
0.013531239
0.028567141
0.0069023629
0.016871287
0.0055233037
-0.01404207
-0.0033094988
0.27528116
0.26232429
0.28611765
0.31258045
0.30711729
0.29854638
0.2935468
0.29096842
0.28559111
0.28887588
0.28368912
0.29105418
0.29810099
0.29398227
0.29913289
0.30964017
0.27634809
0.29919868
0.28399411
0.29023454
0.28333538
0.29134839
0.28921666
0.29491482
0.30584757
0.30914642
0.31272049
0.3275351
0.31317007
0.31854902
-0.23792591
-0.24256156
-0.2094163
-0.16402663
-0.22916266
-0.27715785
-0.26894906
-0.26522349
-0.24072812
-0.23466043
-0.24876725
-0.26579631
-0.26358163
-0.26120277
-0.21323237
-0.20531762
-0.26006696
-0.27312592
-0.26783514
-0.25682934
-0.26509294
-0.27007367
-0.28152821
-0.2897609
-0.29147436
-0.29779533
-0.2585864
-0.24059407
-0.28164748
-0.28335386
0.075121733
0.048197497
0.01693866
0.026130648
0.032398941
0.061427977
0.10651168
0.10101588
0.078008892
0.080166754
0.07329868
0.095958514
0.10556358
0.078805169
0.045842595
0.036182721
0.069571884
0.10173522
0.10521535
0.096826317
0.098593916
0.080358318
0.10287264
0.10720027
0.13636615
0.07930148
0.076182012
0.041262291
0.082401446
0.11487364
-0.031339948
-0.060336584
-0.057409805
-0.043150607
-0.048521238
-0.051603507
-0.033830313
-0.045769226
-0.077887308
-0.073882607
-0.0656506
-0.045543441
-0.036529245
-0.054246141
-0.047675734
-0.069978604
-0.05643869
-0.031233934
-0.043022014
-0.051896602
-0.063123445
-0.07250665
-0.081288471
-0.04794264
-0.040149598
-0.045934682
-0.075242403
-0.064993794
-0.062532539
-0.035459567
-0.006353475
-0.00080477653
0.0084112138
0.0096384133
0.010721481
0.0092582737
0.02493548
0.017791259
0.023232508
0.027403217
0.010051285
0.017107725
0.018705293
0.0092869725
0.0036958701
0.024545156
0.00021419046
0.020557892
0.012197067
0.0052774335
0.0029091926
0.030786359
0.038737313
0.022412173
0.036067782
0.013623625
0.036494127
0.01835264
0.0062217226
0.020776007
0.27686877
0.27327391
0.27092311
0.27987798
0.28386468
0.28996888
0.2872629
0.28756948
0.30007621
0.29457538
0.30186678
0.29147841
0.28788701
0.28902763
0.29157238
0.28563175
0.28349313
0.28456605
0.29321348
0.30968084
0.30228441
0.30680269
0.30332091
0.30725774
0.30991286
0.31059869
0.31191449
0.33132917
0.30985134
0.31863234
-0.24923789
-0.25925232
-0.24530933
-0.25017192
-0.26597254
-0.26398913
-0.25677033
-0.24625297
-0.18165551
-0.19201851
-0.20747334
-0.24520261
-0.26585689
-0.26206263
-0.26009498
-0.24050883
-0.23517683
-0.25318651
-0.22871005
-0.20994641
-0.25893826
-0.27667087
-0.28328117
-0.28856656
-0.28795602
-0.28635952
-0.25638558
-0.23295898
-0.2812874
-0.28416
0.11160286
0.085065595
0.079654756
0.068033905
0.072618816
0.091638581
0.068862075
0.045889891
0.031169
0.049799022
0.057998907
0.042907881
0.082118419
0.12142488
0.10166376
0.099004555
0.093556645
0.12213529
0.10064189
0.063936055
0.10365573
0.086969605
0.11321973
0.11314179
0.10460968
0.061797538
0.075252187
0.035318809
0.070963199
0.095376562
-0.035675561
-0.047817887
-0.076017788
-0.067742953
-0.043941029
-0.025507161
-0.040535224
-0.05192732
-0.051838616
-0.043585712
-0.026733352
-0.050987231
-0.042137995
-0.026491653
-0.047841799
-0.085076667
-0.075141617
-0.066093716
-0.069989082
-0.07556292
-0.096632079
-0.040970456
-0.040622361
-0.036260565
-0.041745146
-0.064844006
-0.077503634
-0.061180967
-0.072251579
-0.037470808
0.0083684822
0.0094562377
0.02882867
0.020298812
-0.0027448547
0.016108552
0.008907916
0.010662111
0.0063914758
-0.0069154757
-0.010858707
0.012289115
-0.0018587644
0.0036317115
-0.0037156434
0.033473555
0.025005663
-0.0020539369
-0.00060160718
0.015280993
0.019768296
0.0039755998
0.0091530543
0.013571216
0.023573098
0.011291009
0.015945257
0.0091322022
-0.0014412729
0.016871127
0.27674026
0.27118926
0.26452874
0.2905756
0.29695734
0.30081164
0.30112812
0.29597356
0.30696057
0.30090793
0.30968694
0.30862367
0.30524971
0.29630208
0.29110767
0.3015305
0.2789558
0.30931279
0.3064174
0.30756879
0.29952323
0.3108531
0.31571114
0.32135331
0.32238051
0.32119882
-0.24248718
-0.23840368
-0.23595131
-0.20414619
-0.22391411
-0.27084533
-0.26170024
-0.24980851
-0.21571027
-0.1932713
-0.18502959
-0.2113542
-0.23715006
-0.26929542
-0.27110505
-0.26368184
-0.26060792
-0.21929781
-0.22904707
-0.27223687
-0.26102814
-0.24520486
-0.21644839
-0.21619276
-0.24958677
-0.26834628
0.091778882
0.068290307
0.057520102
0.036073145
0.044363189
0.064986801
0.092176339
0.058651872
0.051514608
0.061631562
0.071890414
0.063811013
0.088178883
0.14023154
0.11807787
0.095933026
0.078654631
0.036263142
0.073050888
0.095079091
0.091350348
0.065914309
0.065494168
0.070571449
0.071381487
0.088137432
-0.027371882
-0.046605887
-0.057072364
-0.053235467
-0.072080072
-0.045546411
-0.030253727
-0.091843103
-0.057289234
-0.043126523
-0.028478064
-0.043111481
-0.045444911
-0.035212625
-0.056011445
-0.079444264
-0.095460223
-0.085426493
-0.070490917
-0.052590288
-0.064443829
-0.050319376
-0.059524531
-0.048849434
-0.065964144
-0.076616876
-0.0069821065
-0.011088748
-0.0065577311
-0.0030512957
0.010730561
0.0084724703
0.025138561
0.020320625
-0.0026819283
-0.014675309
-0.008215044
-0.015690656
-0.0030591435
-0.0010344231
-0.0039427491
0.012263644
0.03317911
0.023822074
-0.0047045249
-0.019469139
-0.02043013
-0.021412289
-0.023363396
-0.01346696
-0.015358803
0.0055777545
0.2827323
0.27581464
0.29217737
0.29517916
0.29827484
0.3043386
0.30557504
0.30504024
0.30356413
0.29752714
0.30671798
0.29690445
0.29442404
0.28615252
0.29138958
0.29500268
0.29707741
0.29711453
0.30028943
0.30564969
0.32175296
0.32610542
0.32759598
0.33590669
0.33222511
0.33297711
-0.25145835
-0.2463876
-0.20676681
-0.19269822
-0.2004698
-0.22737205
-0.27476475
-0.27454215
-0.25889802
-0.24103102
-0.20952925
-0.2293567
-0.24694687
-0.26569464
-0.25893983
-0.27742232
-0.28227392
-0.29091134
-0.2669994
-0.2604751
-0.21816901
-0.1997866
-0.20123399
-0.2172481
-0.2587964
-0.28275562
0.075197109
0.049866074
0.051607145
0.053780621
0.048827199
0.02477399
0.068970897
0.087715688
0.067199845
0.052415467
0.059740624
0.049122334
0.083548554
0.11596834
0.11785931
0.12547267
0.12243736
0.092613796
0.071473123
0.048249687
0.028565505
0.062129959
0.061045603
0.06382447
0.06244332
0.091930217
-0.049465168
-0.068834561
-0.040811782
-0.0513023
-0.052623778
-0.084863936
-0.048963908
-0.033376566
-0.067959409
-0.058399977
-0.051131883
-0.058287683
-0.043229957
-0.07040393
-0.086932594
-0.045771606
-0.051080643
-0.055421705
-0.071697751
-0.067524837
-0.07089456
-0.044407982
-0.03563526
-0.044258256
-0.078092241
-0.05493034
0.0035960625
0.0024997967
-0.0034406301
-0.011038984
-0.0036465256
0.0058107417
0.017492184
0.036529041
0.020807827
0.0036591644
-0.0061776925
0.0077883117
-0.0019323007
0.020596181
0.033509266
0.022608477
0.019243003
0.011071808
0.0047515814
0.0019354018
-0.008326009
-0.01712125
-0.018389905
-0.016731145
-0.012084118
0.0030166842
0.28640797
0.27674705
0.30516818
0.27004517
0.29481452
0.28615995
0.30261217
0.29677076
0.29698415
0.29101071
0.29617751
0.29590441
0.30138359
0.3101388
0.30288362
0.31308681
0.29832229
0.29407585
0.30323064
0.31224215
0.305024
0.30327521
0.29568519
0.30275391
0.30952372
0.30820554
0.31519596
0.33042752
0.32781931
0.32831619
-0.25171857
-0.24617963
-0.19418872
-0.2246201
-0.20123501
-0.20679832
-0.22450661
-0.26585998
-0.27330498
-0.26895315
-0.25000967
-0.26213367
-0.24687032
-0.19968526
-0.19040316
-0.20252742
-0.23997429
-0.25064156
-0.23239966
-0.25597508
-0.28710315
-0.27567388
-0.28355253
-0.28340719
-0.26528414
-0.24788523
-0.2313586
-0.23204235
-0.28737741
-0.29613791
0.087461759
0.064996905
0.046494083
0.10138401
0.068629304
0.071072582
0.038488851
0.079636687
0.090647136
0.09166557
0.087526928
0.092172754
0.081908104
0.043874981
0.078780656
0.066140025
0.11001237
0.080253429
0.065818924
0.060828189
0.09418085
0.10388772
0.098230724
0.08121336
0.065729853
0.050364357
0.065048408
0.04693982
0.061989068
0.095900086
-0.040998651
-0.091669516
-0.072970292
-0.074884799
-0.051800462
-0.051606671
-0.084484019
-0.069257837
-0.052902853
-0.051633067
-0.10662478
-0.05511141
-0.097195166
-0.08798506
-0.067523245
-0.02840191
-0.053781989
-0.079669182
-0.072230252
-0.096663475
-0.048347852
-0.036530812
-0.060398313
-0.088899156
-0.10597321
-0.082289755
-0.083285319
-0.081211465
-0.11245108
-0.053780234
0.020957768
0.021142696
0.015148073
0.0061717453
-0.013420378
-0.0055181425
0.0054195463
0.0058308521
0.01585206
0.0084098347
0.020816125
0.0091829771
-0.0019261799
-0.0083974681
-0.027673093
-0.015212276
-0.015811586
0.0043711562
0.026253071
0.03212751
0.020391702
0.01659603
-0.0024721167
0.01419958
0.019661747
0.014133656
-0.022698391
-0.0035874652
0.0058286955
0.014835926
0.29542631
0.29111865
0.2998601
0.29720306
0.296138
0.29752109
0.30275835
0.29952921
0.29386117
0.2941906
0.29813068
0.29488539
0.29562587
0.30362529
0.30737655
0.30990113
0.3159351
0.31222269
0.30130009
0.31063865
0.30391213
0.29669243
0.32777843
0.32024964
0.32575532
0.31872471
0.31078421
0.34749826
0.33703771
0.34024624
-0.25972228
-0.26577596
-0.23523179
-0.19747942
-0.19592312
-0.19450825
-0.19058225
-0.23867538
-0.23844243
-0.25562784
-0.278074
-0.27504132
-0.27206313
-0.22874086
-0.21024614
-0.21701087
-0.19222711
-0.23475179
-0.26823006
-0.2786716
-0.26168579
-0.26635043
-0.22590971
-0.26879385
-0.30177191
-0.28590824
-0.27571319
-0.23443287
-0.30203065
-0.30531267
0.098068867
0.06633906
0.042533894
0.04310959
0.06887448
0.077667767
0.043370557
0.092455775
0.079646521
0.10553029
0.095033481
0.10748494
0.06793541
0.050655453
0.047182759
0.063678316
0.057232739
0.043782094
0.10646456
0.10182162
0.093379762
0.074937386
0.046352271
0.093486725
0.070717897
0.079205005
0.063161766
0.048036598
0.073238158
0.12928166
-0.03334406
-0.055699601
-0.073085317
-0.07150508
-0.051196939
-0.053785373
-0.087614208
-0.077070391
-0.097509983
-0.083287472
-0.036638416
-0.053557753
-0.069772794
-0.088235429
-0.080086866
-0.062658939
-0.050847512
-0.064358166
-0.058975249
-0.033895936
-0.049971898
-0.083204691
-0.063098307
-0.10697086
-0.035447052
-0.038847848
-0.088734835
-0.061611534
-0.094473226
-0.0227904
0.027212496
0.016594187
0.014156472
-5.4661152e-05
-0.014130637
-0.01163123
0.011417925
0.028148707
0.041465579
0.040167709
0.031916272
0.022143117
0.0076491615
0.011238388
-0.0078820187
-0.020503247
0.0018466011
0.0091696936
-0.01063508
-0.0078791896
-0.0048034139
0.0051621148
0.029761407
0.043457762
0.037772099
0.016819239
0.0079246579
0.028458313
0.044590908
0.055046667
0.2873242
0.29039439
0.28750326
0.28149411
0.29046299
0.29369312
0.2918808
0.3037748
0.28103627
0.29160057
0.29441587
0.29048986
0.28945616
0.29001407
0.28969465
0.28858768
0.29248796
0.29234359
0.29258202
0.29025379
0.30465066
0.31445584
0.32224278
0.31251796
0.31925907
0.32088146
0.30028176
0.34027443
0.33219528
0.33501179
-0.24280103
-0.26267823
-0.25030453
-0.2435889
-0.22313492
-0.20932546
-0.20067104
-0.21871169
-0.27132147
-0.27136931
-0.27868632
-0.28073129
-0.26225591
-0.25190004
-0.24468286
-0.26546966
-0.25112761
-0.26928194
-0.26883447
-0.25861317
-0.23768972
-0.21003872
-0.22983443
-0.28259564
-0.29376233
-0.27828308
-0.2802163
-0.24682275
-0.28427054
-0.30356814
0.10669298
0.098023218
0.079665478
0.086764612
0.075390728
0.06217066
0.041001077
0.032546034
0.066911385
0.089103908
0.12183755
0.10993762
0.092610648
0.093678438
0.078325882
0.10961824
0.075303873
0.11968805
0.08140613
0.06360348
0.056758391
0.073881798
0.045104486
0.065538463
0.10051778
0.10018705
0.071714422
0.043585404
0.06301899
0.093937103
-0.09224713
-0.053215627
-0.067825537
-0.063404623
-0.040436366
-0.050121716
-0.086896175
-0.080071167
-0.088020015
-0.06642363
-0.040872792
-0.054467481
-0.10683008
-0.089179546
-0.10279248
-0.069038318
-0.07908703
-0.061145918
-0.035701066
-0.076580295
-0.044232657
-0.051027275
-0.082318997
-0.098191223
-0.043800376
-0.024194202
-0.097852366
-0.085535998
-0.11053403
-0.0442905
0.043198206
0.012102064
0.0036533356
-0.0084518222
-0.009504427
-0.027031256
-0.0085823746
0.0070084867
0.016400859
0.01883686
0.03088664
0.020965402
0.031217507
0.026886429
0.0070981364
-0.018442003
0.021317916
0.013733916
0.01768269
0.011998093
-0.0032591789
-0.0028907969
0.0039070489
0.022994576
0.025446311
0.0054626882
-0.0068209716
0.01198538
0.031732928
0.036128796
0.2999675
0.29877976
0.28514775
0.2833699
0.2861342
0.28552106
0.28306996
0.28494424
0.28430649
0.2892694
0.29106067
0.28596642
0.31129994
0.31413012
0.29433222
0.29979898
0.30268359
0.29789578
0.29014096
0.29922707
0.31009969
0.31607356
0.31663375
0.31594605
0.31771024
0.31399944
0.31082674
0.32929084
0.33753634
0.33410685
-0.19432512
-0.20472686
-0.2320616
-0.25817
-0.24848429
-0.24278992
-0.24864699
-0.24458425
-0.26220231
-0.2623467
-0.26448507
-0.27036943
-0.19735491
-0.17909601
-0.25205355
-0.26837632
-0.26764131
-0.26785687
-0.26788259
-0.23309087
-0.18234516
-0.2254952
-0.28066239
-0.2912081
-0.29075657
-0.27104098
-0.27647435
-0.22589743
-0.23303883
-0.28354525
0.076429728
0.050404929
0.069000116
0.074460244
0.11324878
0.11755398
0.10747564
0.094967028
0.1130369
0.11660667
0.093356539
0.064035991
0.037938168
0.029892182
0.074164903
0.10655155
0.11092149
0.1026793
0.068380937
0.046631579
0.040452718
0.058624575
0.073112071
0.09655047
0.12067431
0.12655444
0.10425889
0.063849385
0.034786518
0.079272529
-0.051326081
-0.055444324
-0.078420621
-0.042944649
-0.034699948
-0.027742402
-0.04446351
-0.069489649
-0.047249188
-0.035628237
-0.034909783
-0.060966983
-0.063249319
-0.061612929
-0.04610144
-0.018097839
-0.03345921
-0.042103525
-0.063202584
-0.066432951
-0.066627543
-0.045181205
-0.05214359
-0.029567345
-0.029897566
-0.030052502
-0.036352679
-0.064920858
-0.087399289
-0.073806002
0.0010711681
0.0039230398
0.01980103
0.00064808299
0.0065928434
-0.0095246516
-0.01217353
-0.0053767439
-0.0014764455
0.0086677715
0.013985821
0.0084506373
0.0079159548
0.0031411165
-0.014190133
-0.0063446195
0.0094781384
0.016067941
0.017097996
0.016580752
0.0058443207
-0.0059462476
-0.00074856084
0.007429248
0.014878087
0.0004974115
-0.0058221908
-0.018574879
0.012750234
0.016836886
)
;

boundaryField
{
    minX
    {
        type            fixedFluxPressure;
        gradient        uniform 0;
        value           nonuniform List<scalar> 
50
(
0.27044796
-0.23209619
0.10054076
-0.019145268
-0.0011067662
0.27182972
-0.2370288
0.10612999
-0.017737449
-0.0043013257
0.27528116
-0.23792591
0.075121733
-0.031339948
-0.006353475
0.27686877
-0.24923789
0.11160286
-0.035675561
0.0083684822
0.27674026
-0.24248718
0.091778882
-0.027371882
-0.0069821065
0.2827323
-0.25145835
0.075197109
-0.049465168
0.0035960625
0.28640797
-0.25171857
0.087461759
-0.040998651
0.020957768
0.29542631
-0.25972228
0.098068867
-0.03334406
0.027212496
0.2873242
-0.24280103
0.10669298
-0.09224713
0.043198206
0.2999675
-0.19432512
0.076429728
-0.051326081
0.0010711681
)
;
    }
    maxX
    {
        type            fixedFluxPressure;
        gradient        uniform 0;
        value           nonuniform List<scalar> 
50
(
0.30866554
-0.25414783
0.1023824
-0.020670674
0.000584912
0.31449158
-0.27384669
0.090874755
-0.038457966
-0.0033094988
0.31854902
-0.28335386
0.11487364
-0.035459567
0.020776007
0.31863234
-0.28416
0.095376562
-0.037470808
0.016871127
0.32119882
-0.26834628
0.088137432
-0.076616876
0.0055777545
0.33297711
-0.28275562
0.091930217
-0.05493034
0.0030166842
0.32831619
-0.29613791
0.095900086
-0.053780234
0.014835926
0.34024624
-0.30531267
0.12928166
-0.0227904
0.055046667
0.33501179
-0.30356814
0.093937103
-0.0442905
0.036128796
0.33410685
-0.28354525
0.079272529
-0.073806002
0.016836886
)
;
    }
    minY
    {
        type            fixedValue;
        value           uniform 0;
    }
    minZ
    {
        type            fixedFluxPressure;
        gradient        uniform 0;
        value           nonuniform List<scalar> 
150
(
0.27044796
-0.23209619
0.10054076
-0.019145268
-0.0011067662
0.26946151
-0.22696936
0.084609415
-0.026898229
-0.0036256385
0.26302585
-0.22890371
0.080846523
-0.026026061
-0.0082854327
0.28445246
-0.19744686
0.051136284
-0.035256714
-0.01948294
0.28853939
-0.20114013
0.030761434
-0.049491114
-0.0042123368
0.29242811
-0.24607603
0.06580636
-0.056543415
-0.0025959008
0.28724577
-0.24658764
0.080364059
-0.028268247
-0.0021923536
0.29420859
-0.21456381
0.067955721
-0.035265755
-0.012242738
0.29300654
-0.19184093
0.058113505
-0.046519633
-0.013609054
0.30632207
-0.20024451
0.032087629
-0.058202156
-0.0028920596
0.27989368
-0.26039968
0.056165957
-0.061164588
0.0051637293
0.29268012
-0.26078033
0.085504473
-0.031230704
0.013113215
0.28951798
-0.26258202
0.11462671
-0.034773979
0.0197886
0.28900497
-0.25833904
0.10307227
-0.044420219
0.014330625
0.28900611
-0.24785433
0.094259763
-0.05692826
0.013581048
0.29098359
-0.23650092
0.066494808
-0.062606742
0.0061416832
0.28844814
-0.24081704
0.088612577
-0.051652379
-0.016224303
0.30183373
-0.20603988
0.058133271
-0.030654481
-0.016472831
0.3072493
-0.18724704
0.069131958
-0.0471283
-0.013796122
0.31880799
-0.18376334
0.070120303
-0.015107883
-0.0090013242
0.31496189
-0.19103839
0.067584552
-0.027452579
-0.02201652
0.32692752
-0.17408841
0.050932106
-0.05573485
-0.013306333
0.32542426
-0.2217855
0.049998006
-0.062197237
-0.011291129
0.30938592
-0.29503601
0.065735491
-0.065011886
-0.008927217
0.32132022
-0.28693793
0.10412525
-0.030729946
0.024030757
0.31627738
-0.28038885
0.055997176
-0.050204112
0.0041999692
0.31762227
-0.23913039
0.039485057
-0.065805203
0.0071240182
0.32303242
-0.1836301
0.0294416
-0.060217612
0.0028605536
0.31539604
-0.23047086
0.049224377
-0.035146121
-0.01982217
0.30866554
-0.25414783
0.1023824
-0.020670674
0.000584912
)
;
    }
    maxZ
    {
        type            fixedFluxPressure;
        gradient        uniform 0;
        value           nonuniform List<scalar> 
150
(
0.2999675
-0.19432512
0.076429728
-0.051326081
0.0010711681
0.29877976
-0.20472686
0.050404929
-0.055444324
0.0039230398
0.28514775
-0.2320616
0.069000116
-0.078420621
0.01980103
0.2833699
-0.25817
0.074460244
-0.042944649
0.00064808299
0.2861342
-0.24848429
0.11324878
-0.034699948
0.0065928434
0.28552106
-0.24278992
0.11755398
-0.027742402
-0.0095246516
0.28306996
-0.24864699
0.10747564
-0.04446351
-0.01217353
0.28494424
-0.24458425
0.094967028
-0.069489649
-0.0053767439
0.28430649
-0.26220231
0.1130369
-0.047249188
-0.0014764455
0.2892694
-0.2623467
0.11660667
-0.035628237
0.0086677715
0.29106067
-0.26448507
0.093356539
-0.034909783
0.013985821
0.28596642
-0.27036943
0.064035991
-0.060966983
0.0084506373
0.31129994
-0.19735491
0.037938168
-0.063249319
0.0079159548
0.31413012
-0.17909601
0.029892182
-0.061612929
0.0031411165
0.29433222
-0.25205355
0.074164903
-0.04610144
-0.014190133
0.29979898
-0.26837632
0.10655155
-0.018097839
-0.0063446195
0.30268359
-0.26764131
0.11092149
-0.03345921
0.0094781384
0.29789578
-0.26785687
0.1026793
-0.042103525
0.016067941
0.29014096
-0.26788259
0.068380937
-0.063202584
0.017097996
0.29922707
-0.23309087
0.046631579
-0.066432951
0.016580752
0.31009969
-0.18234516
0.040452718
-0.066627543
0.0058443207
0.31607356
-0.2254952
0.058624575
-0.045181205
-0.0059462476
0.31663375
-0.28066239
0.073112071
-0.05214359
-0.00074856084
0.31594605
-0.2912081
0.09655047
-0.029567345
0.007429248
0.31771024
-0.29075657
0.12067431
-0.029897566
0.014878087
0.31399944
-0.27104098
0.12655444
-0.030052502
0.0004974115
0.31082674
-0.27647435
0.10425889
-0.036352679
-0.0058221908
0.32929084
-0.22589743
0.063849385
-0.064920858
-0.018574879
0.33753634
-0.23303883
0.034786518
-0.087399289
0.012750234
0.33410685
-0.28354525
0.079272529
-0.073806002
0.016836886
)
;
    }
    bottomWater_to_rightSolid
    {
        type            fixedFluxPressure;
        gradient        uniform 0;
        value           nonuniform List<scalar> 
130
(
-0.016472831
-0.013796122
-0.0090013242
-0.02201652
-0.013306333
-0.011291129
-0.008927217
0.024030757
0.0041999692
0.0071240182
0.0028605536
-0.01982217
0.000584912
-0.0085461879
0.0063388467
0.010998093
-0.018095867
0.0054190157
0.016331347
0.013531239
0.028567141
0.0069023629
0.016871287
0.0055233037
-0.01404207
-0.0033094988
0.020557892
0.012197067
0.0052774335
0.0029091926
0.030786359
0.038737313
0.022412173
0.036067782
0.013623625
0.036494127
0.01835264
0.0062217226
0.020776007
-0.0020539369
-0.00060160718
0.015280993
0.019768296
0.0039755998
0.0091530543
0.013571216
0.023573098
0.011291009
0.015945257
0.0091322022
-0.0014412729
0.016871127
-0.0010344231
-0.0039427491
0.012263644
0.03317911
0.023822074
-0.0047045249
-0.019469139
-0.02043013
-0.021412289
-0.023363396
-0.01346696
-0.015358803
0.0055777545
0.020596181
0.033509266
0.022608477
0.019243003
0.011071808
0.0047515814
0.0019354018
-0.008326009
-0.01712125
-0.018389905
-0.016731145
-0.012084118
0.0030166842
0.0043711562
0.026253071
0.03212751
0.020391702
0.01659603
-0.0024721167
0.01419958
0.019661747
0.014133656
-0.022698391
-0.0035874652
0.0058286955
0.014835926
0.0091696936
-0.01063508
-0.0078791896
-0.0048034139
0.0051621148
0.029761407
0.043457762
0.037772099
0.016819239
0.0079246579
0.028458313
0.044590908
0.055046667
0.013733916
0.01768269
0.011998093
-0.0032591789
-0.0028907969
0.0039070489
0.022994576
0.025446311
0.0054626882
-0.0068209716
0.01198538
0.031732928
0.036128796
0.016067941
0.017097996
0.016580752
0.0058443207
-0.0059462476
-0.00074856084
0.007429248
0.014878087
0.0004974115
-0.0058221908
-0.018574879
0.012750234
0.016836886
)
;
    }
    bottomWater_to_leftSolid
    {
        type            fixedFluxPressure;
        gradient        uniform 0;
        value           nonuniform List<scalar> 
130
(
-0.0011067662
-0.0036256385
-0.0082854327
-0.01948294
-0.0042123368
-0.0025959008
-0.0021923536
-0.012242738
-0.013609054
-0.0028920596
0.0051637293
0.013113215
0.0197886
-0.0043013257
-0.011158174
-0.01372124
-0.011506288
0.011102546
0.0070082516
0.00012724171
-0.0030122012
0.012753634
0.028326516
0.011328389
0.021404936
0.026151728
-0.006353475
-0.00080477653
0.0084112138
0.0096384133
0.010721481
0.0092582737
0.02493548
0.017791259
0.023232508
0.027403217
0.010051285
0.017107725
0.018705293
0.0083684822
0.0094562377
0.02882867
0.020298812
-0.0027448547
0.016108552
0.008907916
0.010662111
0.0063914758
-0.0069154757
-0.010858707
0.012289115
-0.0018587644
-0.0069821065
-0.011088748
-0.0065577311
-0.0030512957
0.010730561
0.0084724703
0.025138561
0.020320625
-0.0026819283
-0.014675309
-0.008215044
-0.015690656
-0.0030591435
0.0035960625
0.0024997967
-0.0034406301
-0.011038984
-0.0036465256
0.0058107417
0.017492184
0.036529041
0.020807827
0.0036591644
-0.0061776925
0.0077883117
-0.0019323007
0.020957768
0.021142696
0.015148073
0.0061717453
-0.013420378
-0.0055181425
0.0054195463
0.0058308521
0.01585206
0.0084098347
0.020816125
0.0091829771
-0.0019261799
0.027212496
0.016594187
0.014156472
-5.4661152e-05
-0.014130637
-0.01163123
0.011417925
0.028148707
0.041465579
0.040167709
0.031916272
0.022143117
0.0076491615
0.043198206
0.012102064
0.0036533356
-0.0084518222
-0.009504427
-0.027031256
-0.0085823746
0.0070084867
0.016400859
0.01883686
0.03088664
0.020965402
0.031217507
0.0010711681
0.0039230398
0.01980103
0.00064808299
0.0065928434
-0.0095246516
-0.01217353
-0.0053767439
-0.0014764455
0.0086677715
0.013985821
0.0084506373
0.0079159548
)
;
    }
    bottomWater_to_heater
    {
        type            fixedFluxPressure;
        gradient        uniform 0;
        value           nonuniform List<scalar> 
92
(
0.014330625
0.013581048
0.0061416832
-0.016224303
0.020450927
0.018062374
0.0055612214
-0.0096385993
0.0092869725
0.0036958701
0.024545156
0.00021419046
0.28902763
0.29157238
0.28563175
0.28349313
-0.26206263
-0.26009498
-0.24050883
-0.23517683
0.12142488
0.10166376
0.099004555
0.093556645
-0.026491653
-0.047841799
-0.085076667
-0.075141617
0.0036317115
0.0036317115
-0.0037156434
-0.0037156434
0.033473555
0.033473555
0.025005663
0.025005663
0.30524971
0.29630208
-0.23715006
-0.26929542
0.088178883
0.14023154
-0.045444911
-0.035212625
-0.0030591435
-0.0010344231
0.29442404
0.3101388
0.30288362
0.31308681
0.28615252
0.29832229
-0.24694687
-0.19968526
-0.19040316
-0.20252742
-0.26569464
-0.23997429
0.083548554
0.043874981
0.078780656
0.066140025
0.11596834
0.11001237
-0.043229957
-0.08798506
-0.067523245
-0.02840191
-0.07040393
-0.053781989
-0.0019323007
-0.0083974681
-0.027673093
-0.015212276
0.020596181
-0.015811586
-0.0083974681
-0.027673093
-0.015212276
-0.015811586
0.011238388
-0.0078820187
-0.020503247
0.0018466011
0.026886429
0.0070981364
-0.018442003
0.021317916
0.0031411165
-0.014190133
-0.0063446195
0.0094781384
)
;
    }
}


// ************************************************************************* //
