/*--------------------------------*- C++ -*----------------------------------*\
| =========                 |                                                 |
| \\      /  F ield         | OpenFOAM: The Open Source CFD Toolbox           |
|  \\    /   O peration     | Version:  v2012                                 |
|   \\  /    A nd           | Website:  www.openfoam.com                      |
|    \\/     M anipulation  |                                                 |
\*---------------------------------------------------------------------------*/
FoamFile
{
    version     2.0;
    format      ascii;
    class       volScalarField;
    location    "780/bottomWater";
    object      T;
}
// * * * * * * * * * * * * * * * * * * * * * * * * * * * * * * * * * * * * * //

dimensions      [0 0 0 1 0 0 0];


internalField   nonuniform List<scalar> 
1460
(
985.85828
980.31312
976.57102
972.41761
971.41652
975.36139
967.91807
961.76622
959.10589
956.77463
961.42283
963.80613
946.39401
935.0958
930.20157
927.03962
924.79861
922.8667
919.0832
913.57732
909.06035
907.31823
906.58133
906.83181
906.12361
909.15421
908.90267
908.72714
908.59299
908.5759
978.63207
974.55156
971.48128
969.02076
968.32903
969.15842
964.70935
957.45345
955.09142
956.01793
957.31247
958.34085
946.63701
931.55192
927.12911
925.55549
925.36822
925.74079
921.62027
914.89018
909.41002
909.00761
909.26431
909.13685
909.15034
910.34698
910.37244
909.93936
909.19028
909.21843
977.95385
973.52377
970.32658
969.04117
967.94248
967.53754
965.59124
957.34167
954.5835
956.01467
955.30575
954.76747
945.53712
931.51733
926.70439
925.91527
928.32656
926.67442
922.23194
915.04794
908.42958
908.76792
909.46489
909.39423
909.42058
910.0884
910.37184
909.92274
909.08268
908.69067
971.89129
969.35199
968.22368
968.01783
967.25991
965.83779
964.62474
956.73158
952.71813
951.45698
951.87911
951.98632
946.5509
932.69791
928.97334
929.68754
929.42566
926.34188
922.61297
914.74806
907.25997
908.52599
909.08102
909.32371
909.69607
910.03776
910.25784
910.43015
909.26016
908.46961
966.63861
967.6158
967.93256
968.18477
968.3602
968.21824
968.3962
957.58533
954.32
952.1796
949.91628
948.63404
947.0716
935.00676
932.45253
931.8607
930.02947
925.84695
921.64402
914.7422
906.87881
907.43486
907.95175
908.2152
908.78166
908.68425
908.92846
908.9702
908.79443
908.25376
983.16657
979.52745
976.88726
974.14322
971.91027
973.53158
975.00106
973.34244
971.70888
966.87366
962.00835
949.47701
939.38172
935.19664
929.00431
926.32288
928.29335
921.78513
918.1039
913.34465
909.80337
907.02805
907.22555
907.96705
906.49412
907.66154
908.11919
908.05833
909.41214
908.2387
977.80023
975.12045
973.51854
971.65788
970.54422
970.21837
970.3057
967.31786
964.62157
962.7609
962.11844
947.10709
938.41292
937.26097
929.09137
926.36386
925.86874
922.90788
918.54378
913.11686
909.50062
908.02881
909.13059
909.15598
908.89631
909.90274
910.35641
909.92412
909.64204
909.27045
977.60615
975.3281
973.21857
972.06176
970.4063
969.66058
969.74069
967.59735
965.11245
961.2031
961.82526
949.16687
943.57056
938.26451
929.85965
928.49568
925.89337
922.74725
919.11845
914.50716
908.55591
908.0496
909.37217
909.83821
909.24034
910.05206
910.49036
909.77668
909.4298
909.30058
974.50703
972.97331
971.4787
970.91513
970.10975
970.11528
969.47596
966.49281
963.35647
959.99486
960.00836
949.53412
946.06895
939.72302
934.39141
932.30751
926.22897
924.14018
923.78081
916.03653
906.993
907.74883
909.72822
909.68696
909.52312
910.14127
910.36472
910.00128
909.23281
909.09029
968.01778
968.72545
968.55001
968.63326
969.45145
969.74229
968.51271
962.14843
960.58751
958.85037
956.08391
949.86574
946.05684
942.58773
938.54918
933.07096
926.71762
922.08641
921.50611
915.15519
906.53495
907.63735
908.66358
908.82684
909.09641
909.27936
909.46825
909.28417
908.9247
908.33006
979.22612
976.00155
973.24348
970.36033
971.74119
973.78981
975.29505
973.27213
968.96018
967.47266
964.34804
960.39554
938.9135
925.38783
920.36783
916.48678
926.12637
922.50562
920.50338
916.56615
914.87453
913.14624
912.88834
911.20946
909.10146
908.96127
908.47326
908.08968
908.87587
906.5056
976.04177
974.20087
973.07205
970.40465
969.85175
970.48294
971.39079
968.59177
966.4328
963.86353
961.71678
958.16721
937.47548
921.30745
919.31278
915.88068
918.69864
920.56345
917.72771
913.90344
911.81924
910.99415
911.42398
910.82059
909.83463
909.86513
910.10812
910.14293
909.81274
909.02016
975.95297
974.8184
973.33398
970.2544
968.27366
970.4803
971.08707
968.59092
966.87067
962.36522
961.17236
958.39519
939.05857
927.98834
920.5544
915.87132
917.87608
919.97894
916.56352
913.31181
910.84153
907.83146
908.81171
910.25744
909.94423
909.98734
910.30999
910.03133
909.73849
909.19555
972.59398
971.76138
971.05429
969.87908
968.69291
969.7526
970.66529
968.66928
967.35196
963.98762
958.6915
957.55406
938.22257
930.39514
926.17034
923.44245
920.96863
920.07079
916.20305
911.13672
906.58426
906.35601
909.09242
909.64472
909.98902
910.18391
910.15961
909.70949
909.45277
909.33643
969.3089
970.18383
969.44927
968.38555
969.06917
969.64971
969.65864
968.37333
967.41089
964.50591
960.5192
956.34349
939.18433
936.7415
921.71962
919.23743
912.54151
916.70115
913.32752
906.99026
904.89523
906.48053
908.58448
908.94446
909.45448
909.5255
909.61176
909.28598
908.70161
908.75422
978.59885
975.05957
972.78733
970.48281
968.41912
967.13408
967.11017
966.49936
965.64398
962.6695
957.57153
954.75009
949.98949
941.95622
917.75279
916.70974
916.95834
916.11634
912.23103
909.25465
909.98261
907.84255
908.78199
909.99297
909.57563
908.75234
908.00832
907.24658
907.90783
905.87699
974.68722
972.20485
971.19462
968.40873
967.55662
966.24515
966.45116
965.74601
965.7435
961.81054
955.84141
948.65973
946.02211
932.66236
913.17642
912.25494
912.96839
914.2467
912.46134
910.12691
909.98266
909.22678
908.84821
909.05002
909.663
909.25663
909.35708
909.51625
909.21668
908.39095
974.37992
972.19165
971.24283
968.27498
967.23238
965.88821
966.7348
966.37576
966.15798
962.36536
954.8636
938.82413
938.68217
927.79429
910.87485
907.28708
906.92958
910.89759
911.34725
909.91358
907.48663
908.08593
908.04967
908.57514
909.49854
909.42265
909.55747
909.46402
909.24717
908.614
974.03789
972.80572
971.82478
966.55208
966.65601
965.74141
966.3677
966.5891
966.17835
965.15689
960.63787
934.62908
930.43894
919.4874
912.74809
913.11148
909.36312
910.48692
909.65084
909.86905
904.66444
905.31777
907.17753
908.0032
909.045
909.1348
909.09948
909.28841
908.93879
908.89531
970.8267
971.90243
970.99959
968.11395
967.25497
965.84608
966.32706
966.17753
966.12005
965.09485
960.59433
950.33522
937.67114
917.91569
909.36916
909.70904
905.46488
906.88058
906.09175
906.54966
902.67612
902.25732
906.20092
907.04012
908.31282
908.38743
908.61699
908.55319
908.20254
908.38628
976.4756
973.16441
970.56182
967.75719
965.74761
963.9479
962.34282
960.91492
959.92245
958.43119
950.44476
943.71722
933.88395
899.60155
912.81441
910.77665
913.91489
907.91488
908.6272
911.01396
910.34178
908.77049
908.00789
907.57266
907.11865
904.9253
972.32391
970.19811
968.7977
967.12915
964.87981
963.71086
962.11394
961.62967
960.57531
958.67602
951.49005
939.60679
932.45931
902.16272
910.83579
909.56957
910.11544
907.68928
907.19571
908.85148
909.80888
908.87767
908.40895
908.56231
908.79424
908.22631
972.12528
970.46646
969.09337
967.5153
962.97597
963.24736
962.15825
960.36305
960.48282
959.05735
952.56778
936.16327
923.68578
898.44226
906.7967
907.42207
906.80609
907.70067
906.92691
907.98813
908.12049
908.06302
908.13522
908.34233
908.70198
908.69639
970.93141
969.20427
967.76762
966.50714
963.28279
963.04576
962.00527
961.42148
961.64341
959.84021
954.11662
943.29952
923.92775
892.62903
900.32357
902.71872
904.11697
908.34797
906.66414
905.9175
906.52229
907.48321
907.74347
908.12306
908.33764
909.09107
966.2526
967.03922
966.14022
964.19576
963.3641
963.29787
962.16335
961.75462
961.45645
960.0173
953.79615
943.35085
929.89567
891.87537
898.04273
899.79997
902.38679
904.62204
905.01133
905.80064
906.7674
907.36052
907.64217
907.8556
907.94241
908.31896
974.48058
971.73945
968.89562
966.39475
964.4714
963.64413
963.54686
959.3825
957.74685
955.68636
947.77273
944.24218
935.83619
908.36049
913.61674
914.05321
914.57541
912.98202
911.2091
909.8461
908.6966
907.9119
906.62235
905.3043
904.29729
900.93847
971.12782
969.29318
968.45012
964.44827
962.87185
961.69279
961.10749
959.26061
956.93181
954.48461
947.43327
933.81222
929.99097
906.54787
908.77461
910.34269
911.92064
910.95229
910.26664
910.47739
909.83926
909.77722
908.09465
908.07601
908.43541
907.37616
971.00867
970.22314
968.7989
964.31521
962.28425
960.89395
961.05342
959.13355
957.49649
955.3187
947.37149
927.85208
924.14565
897.62469
903.08627
908.19272
911.27704
911.43429
910.93461
910.43391
909.60656
909.75583
907.94374
907.85518
908.42866
907.84996
970.75281
969.77627
968.06386
963.23022
961.10373
961.33986
960.72698
958.93777
958.27864
955.18209
950.21058
931.74259
922.0111
890.91944
902.58044
907.19043
911.012
911.69475
911.3999
910.61005
908.71326
909.28166
907.65938
907.44143
908.09478
908.50044
968.89072
968.11659
967.5318
962.51629
960.74042
960.29339
959.47446
958.26234
957.06277
954.10403
949.19251
934.89521
927.9031
896.57602
902.1998
904.86364
908.65842
909.42386
908.65712
909.00838
909.15161
908.91161
907.48656
907.04488
907.25191
907.65845
973.72843
971.94434
969.0562
971.13243
965.83359
963.30072
962.43178
963.61342
962.29737
957.27019
944.80916
933.19713
922.70944
915.77163
914.602
912.02206
910.28476
914.63872
908.64517
909.97779
913.32371
914.28197
913.25434
911.43148
909.97126
909.19106
907.72575
905.65216
902.93105
899.52702
969.80467
968.32764
967.4961
966.58584
963.70478
960.96437
959.34344
958.84264
958.8937
953.11694
942.81828
928.38386
922.2869
919.03612
916.65162
914.28196
912.83414
913.50657
906.09387
905.98088
909.12409
912.27852
912.16699
911.02379
910.53007
910.1857
908.76986
908.294
908.21794
906.66183
969.54134
968.6847
967.41655
965.85992
964.02436
960.63214
959.70218
958.60454
958.86547
954.41752
951.59524
929.80648
924.73482
921.35804
918.81074
915.25824
908.1429
903.60141
903.10796
906.50845
909.16025
912.29992
912.55695
912.01036
911.80208
910.91421
908.65053
908.12126
908.1165
907.04168
969.4716
968.80559
968.39151
965.40034
964.59429
959.56767
959.60731
958.64203
958.84791
956.06564
954.10476
932.94247
924.96347
920.75977
922.3546
917.19528
910.13128
900.5417
904.24357
909.19495
909.42437
912.35155
910.93866
911.11802
910.62735
909.88547
907.80091
907.85603
907.89499
907.36915
968.449
968.00076
967.61575
967.02118
965.0251
958.20601
957.97919
957.5443
956.91201
951.65771
950.45317
939.11358
933.3977
928.44718
925.47866
917.73235
909.37558
905.85269
904.80309
907.19175
908.29608
907.60467
908.13701
910.28852
910.1661
909.30149
907.32876
906.87515
906.86735
906.84958
970.67128
968.24157
966.16344
964.00305
962.20377
957.99637
957.90572
959.92637
958.65009
958.59218
941.3958
928.31181
923.64805
921.89542
922.533
921.73287
917.78924
915.31057
917.02637
915.70963
913.8103
912.7553
910.55173
909.5054
906.1923
907.12324
906.66691
905.3447
898.11863
891.52268
966.79207
965.38942
963.92094
962.70938
960.82528
955.62149
955.41719
956.0229
954.30813
954.94127
942.72432
926.55741
924.75523
925.33701
926.41297
926.41603
919.45588
913.98413
912.15049
911.90792
913.19984
912.14533
912.00806
911.97808
910.33061
909.11363
909.05756
909.01317
908.74508
906.20901
966.81473
965.46247
964.31985
962.88066
960.91826
955.05883
955.3981
956.31802
953.0742
950.70033
941.03953
926.79074
924.97573
927.29335
928.77521
928.05236
920.4343
912.97301
909.47297
911.25017
912.5074
911.86486
911.90138
911.84965
910.48706
909.3149
909.61435
908.99715
908.10111
906.45798
966.88323
965.81973
965.16542
963.02217
961.55111
954.84439
955.36831
956.37271
952.99059
945.36351
940.49356
927.20183
925.59992
925.66065
928.27946
926.09918
923.87287
916.84029
909.01933
909.32006
909.62812
910.12292
911.08031
911.35382
910.72187
909.59939
909.4419
909.24278
907.35931
906.68362
966.71753
966.20747
965.6136
965.18422
962.49234
954.1072
953.15462
951.51717
949.13076
944.83158
941.5461
930.58819
928.56808
926.3288
925.83164
924.87098
922.32516
919.70972
907.34922
907.78627
909.07302
909.68251
910.45249
910.731
910.32199
908.59119
907.29479
907.55168
906.70257
906.45475
970.27953
968.13312
965.87773
962.98761
959.69653
956.22614
957.99217
957.69557
960.17005
961.07377
944.85123
934.35817
933.14397
930.48758
928.79634
928.3664
923.31739
918.84462
917.18723
915.85802
913.86833
912.15367
911.12819
911.41683
908.85378
906.98143
907.75475
905.81401
900.75302
894.75611
965.82783
963.96285
961.9073
959.80254
957.70918
953.44438
954.55065
956.50117
957.15384
957.8488
948.16936
933.32576
932.07596
928.53995
927.43472
927.50768
929.32586
922.45053
915.30481
914.77876
913.86262
912.13281
912.33666
912.30482
911.33696
908.70509
908.8465
908.91979
909.01174
906.51246
964.45634
963.77247
962.5402
963.09306
958.83202
953.4284
954.83168
956.62694
956.13895
954.5008
947.03646
932.78681
930.17357
929.94453
932.9429
933.40346
933.62731
924.88914
915.51608
913.4407
913.98556
911.93933
912.27267
912.34073
911.27664
908.93397
908.91959
908.80283
907.81183
906.75381
964.09413
963.66811
962.60232
961.29932
956.65175
952.2391
952.69253
954.43354
954.38569
952.72441
947.86297
933.93706
931.93273
934.10768
937.78952
932.35744
933.73749
925.1775
915.83363
913.1029
914.49456
911.43185
911.76034
911.81114
911.25591
909.07168
908.69008
909.06426
907.41255
906.93695
964.12925
963.68978
963.25784
962.78975
957.04199
952.07105
951.8024
951.63302
950.8398
949.67532
948.30862
934.48804
933.46043
932.95253
932.61308
929.88234
927.18618
924.84171
916.79961
915.49375
914.99919
910.27342
910.75487
911.05968
910.92289
907.80844
907.24569
907.39233
906.84424
906.63163
965.3734
965.86974
967.82651
969.51911
969.62105
965.66868
964.85257
965.08061
962.68691
956.52407
949.38594
946.54898
944.10234
940.51783
942.69655
943.61632
924.46606
920.42146
919.51401
917.87062
916.54414
914.29388
913.48697
912.30479
908.13702
907.43321
906.8754
905.86655
904.58664
897.85345
964.00999
964.18736
964.76618
965.47087
965.98459
960.31699
960.60355
962.0824
961.57715
954.60962
947.47329
945.12913
942.94109
940.43927
937.47639
936.75282
932.5088
920.47185
918.2145
917.83303
916.72062
915.08813
914.63728
914.05127
910.28981
908.60177
908.44845
908.15356
908.44266
907.28829
963.88357
964.06783
964.19575
964.98653
962.97431
955.3657
955.64082
958.10382
961.34702
955.84127
949.71695
945.6248
942.28283
940.19295
940.52111
937.01345
933.85492
923.59413
920.15863
918.32842
916.74044
914.92506
912.23974
913.47844
910.34863
908.43058
907.84915
907.86785
908.26923
907.80951
963.4851
963.48637
961.71486
961.38488
956.40667
951.15124
951.64079
954.61593
956.92548
956.02472
951.90528
948.78134
947.92365
948.02319
941.96644
937.02624
935.14053
927.53518
924.60751
922.09222
919.30856
917.10145
911.51015
912.3921
910.55296
907.54474
907.22353
907.45475
908.60498
907.944
963.2081
962.38846
961.84516
961.22706
954.9191
950.40417
949.7523
949.35551
948.74841
948.10126
947.29138
937.42566
937.79132
937.52845
936.67355
935.47621
930.56645
926.68741
924.35484
922.33088
920.61884
918.88902
910.61924
908.85039
909.4109
906.88412
906.81567
906.79965
906.69058
906.74795
)
;

boundaryField
{
    minX
    {
        type            zeroGradient;
    }
    maxX
    {
        type            zeroGradient;
    }
    minY
    {
        type            fixedValue;
        value           uniform 1073;
    }
    minZ
    {
        type            zeroGradient;
    }
    maxZ
    {
        type            zeroGradient;
    }
    bottomWater_to_rightSolid
    {
        type            compressible::turbulentTemperatureCoupledBaffleMixed;
        refValue        nonuniform List<scalar> 
130
(
748.13183
755.87994
763.97158
772.01789
779.74653
786.90441
793.32476
798.90746
803.59266
807.35156
810.16993
812.04569
812.98115
742.27739
751.37403
760.64387
769.63505
778.08189
785.76231
792.54891
798.38245
803.23689
807.10675
809.99545
811.91284
812.86834
730.51351
742.67259
754.46241
765.37454
775.19241
783.82793
791.26382
797.53286
802.67443
806.73068
809.73713
811.72415
812.71452
713.03792
730.96772
746.8181
760.41747
771.98291
781.75937
789.93307
796.67956
802.12735
806.37938
809.50938
811.56986
812.59499
692.50367
719.92467
740.57079
756.76578
769.79263
780.40875
789.09298
796.15481
801.8003
806.17456
809.38048
811.48612
812.53225
692.61819
720.03811
740.6881
756.8865
769.90187
780.49979
789.16642
796.20844
801.83367
806.18791
809.38172
811.48235
812.52651
713.27395
731.17626
747.03065
760.64677
772.1979
781.9367
790.0793
796.78558
802.19199
806.40565
809.5134
811.56363
812.58368
730.8313
742.93387
754.73211
765.65603
775.45207
784.04748
791.44003
797.6588
802.74751
806.76265
809.7472
811.72116
812.70544
742.62067
751.68786
760.97583
769.99056
778.39545
786.02091
792.75154
798.52687
803.31894
807.14726
810.01416
811.92012
812.8729
748.50888
756.27355
764.39639
772.46136
780.14159
787.20271
793.53933
799.05453
803.6767
807.39553
810.19254
812.05945
812.99457
)
;
        refGradient     uniform 0;
        valueFraction   uniform 0.99248593;
        value           nonuniform List<scalar> 
130
(
749.46712
757.12543
765.10447
773.03128
780.70601
787.81398
794.18807
799.73307
804.38235
808.11485
810.91235
812.77269
813.69705
743.62848
752.65241
761.80491
770.66377
779.0554
786.68582
793.42264
799.21438
804.03373
807.87592
810.74154
812.64181
813.58566
731.91249
743.95487
755.60853
766.42294
776.17895
784.76537
792.14809
798.37386
803.47734
807.50376
810.48517
812.45287
813.43618
714.49456
732.28362
748.01836
761.48639
772.96178
782.69447
790.81303
797.51838
802.92582
807.14762
810.25362
812.29598
813.31479
694.00174
721.26302
741.76717
757.85995
770.80575
781.34502
789.96993
796.98597
802.5935
806.93701
810.12045
812.21091
813.25202
694.15079
721.40692
741.92171
758.02696
770.95029
781.4628
790.06694
797.05712
802.63827
806.94909
810.11558
812.20199
813.24135
714.72106
732.48094
748.2341
761.75623
773.21534
782.885
790.98258
797.63754
802.99682
807.164
810.24501
812.27977
813.29202
732.25055
744.16936
755.88216
766.73368
776.4607
784.99731
792.33641
798.50538
803.54284
807.51808
810.48214
812.43488
813.40991
743.98992
752.92852
762.13688
771.08017
779.38641
786.95819
793.64053
799.37145
804.10409
807.89944
810.7459
812.63341
813.57744
749.84776
757.53652
765.58311
773.5746
781.18412
788.13012
794.40578
799.88375
804.45222
808.14261
810.91848
812.77054
813.69907
)
;
        Tnbr            T;
        thicknessLayers List<scalar> 0();
        kappaLayers     List<scalar> 0();
        kappaMethod     fluidThermo;
        kappa           none;
        alphaAni        none;
        alpha           none;
        field           T;
    }
    bottomWater_to_leftSolid
    {
        type            compressible::turbulentTemperatureCoupledBaffleMixed;
        refValue        nonuniform List<scalar> 
130
(
930.18089
930.17819
930.15337
930.09565
929.99415
929.83538
929.60509
929.28369
928.96014
928.65564
928.3871
928.18064
928.06116
930.14884
930.14124
930.10813
930.04313
929.93908
929.78123
929.55574
929.26004
928.95184
928.64316
928.35034
928.09966
927.94537
930.07417
930.05978
930.01117
929.92621
929.80756
929.64346
929.42531
929.157
928.85641
928.53208
928.20906
927.92234
927.70176
929.95486
929.93191
929.86287
929.74596
929.5947
929.40363
929.17505
928.90527
928.59928
928.26173
927.9074
927.57676
927.34516
929.77354
929.73948
929.65272
929.51271
929.33389
929.11868
928.8626
928.56997
928.23976
927.87327
927.48483
927.13223
926.89479
929.64245
929.59421
929.48867
929.31418
929.09819
928.84666
928.562
928.24414
927.89443
927.51469
927.12652
926.76873
926.55579
929.51032
929.45934
929.34971
929.17395
928.93067
928.62938
928.32097
927.99543
927.64861
927.27846
926.92543
926.59888
926.40824
929.37091
929.3176
929.20301
929.01912
928.75717
928.4328
928.11023
927.77987
927.44012
927.09367
926.76437
926.46475
926.30247
929.24706
929.19292
929.07627
928.88673
928.61286
928.29569
927.98241
927.67193
927.36352
927.06182
926.77409
926.49952
926.35922
929.18132
929.12532
929.00639
928.81376
928.53709
928.22431
927.91506
927.61372
927.32232
927.04592
926.79033
926.55962
926.44557
)
;
        refGradient     uniform 0;
        valueFraction   uniform 0.99248593;
        value           nonuniform List<scalar> 
130
(
930.45483
930.45949
930.43724
930.38184
930.28244
930.12381
929.89659
929.49637
929.15067
928.83238
928.54886
928.33433
928.20404
930.43337
930.43114
930.39697
930.33309
930.23597
930.08151
929.84851
929.50716
929.18956
928.87016
928.55874
928.26323
928.08148
930.36895
930.36124
930.30748
930.21518
930.10258
929.94411
929.72758
929.45164
929.1461
928.80234
928.45177
928.13595
927.7881
930.26194
930.24727
930.17193
930.03423
929.87766
929.67746
929.4542
929.18532
928.8812
928.53847
928.15298
927.74788
927.42283
930.04762
930.01973
929.92686
929.77329
929.58958
929.3755
929.11282
928.81935
928.48937
928.11477
927.6823
927.25404
926.91737
929.93735
929.88366
929.77452
929.56364
929.33592
929.08294
928.79426
928.46966
928.11355
927.71441
927.2921
926.82959
926.56586
929.80291
929.74894
929.63724
929.45833
929.20185
928.85159
928.5438
928.21745
927.86849
927.46164
927.10219
926.69285
926.46076
929.65154
929.5948
929.47661
929.29087
929.01064
928.62571
928.29842
927.95822
927.60314
927.22699
926.87551
926.49571
926.31948
929.50917
929.45213
929.33313
929.14149
928.82653
928.47432
928.16139
927.85197
927.53994
927.23177
926.93601
926.55957
926.41264
929.43701
929.37529
929.25317
929.05734
928.7354
928.39099
928.07914
927.77708
927.48331
927.2041
926.94433
926.64136
926.53097
)
;
        Tnbr            T;
        thicknessLayers List<scalar> 0();
        kappaLayers     List<scalar> 0();
        kappaMethod     fluidThermo;
        kappa           none;
        alphaAni        none;
        alpha           none;
        field           T;
    }
    bottomWater_to_heater
    {
        type            compressible::turbulentTemperatureCoupledBaffleMixed;
        refValue        nonuniform List<scalar> 
92
(
729.60134
731.62715
735.58333
741.2146
720.28394
722.65108
727.31828
734.02745
700.56797
703.61666
709.83564
719.03384
345.228
342.45109
342.43337
345.05114
421.24333
417.84535
417.97446
421.40633
486.19852
483.36856
483.97348
487.54334
541.491
539.77519
541.57287
545.85719
668.60569
587.28881
672.4872
587.45599
680.89883
591.93974
694.48659
599.27514
345.228
345.05114
421.24333
421.40633
486.19852
487.54334
541.491
545.85719
587.28881
599.27514
345.19273
345.19273
342.44438
342.43509
345.07853
345.07853
421.22203
421.22203
417.86119
417.99685
421.4392
421.4392
486.22043
486.22043
483.41299
484.01492
487.56376
487.56376
541.53281
541.53281
539.83911
541.62838
545.89653
545.89653
587.36674
587.36674
587.55305
592.02847
599.36783
599.36783
668.98309
672.88022
681.2523
694.7813
700.86387
703.97501
710.21636
719.4055
720.53374
722.93655
727.63859
734.3716
729.92687
731.96675
735.93573
741.57762
)
;
        refGradient     uniform 0;
        valueFraction   nonuniform List<scalar> 
92
(
0.99248593
0.99248593
0.99248593
0.99248593
0.99248593
0.99248593
0.99248593
0.99248593
0.99248593
0.99248593
0.99248593
0.99248593
0.99248593
0.99248593
0.99248593
0.99248593
0.99248593
0.99248593
0.99248593
0.99248593
0.99248593
0.99248593
0.99248593
0.99248593
0.99248593
0.99248593
0.99248593
0.99248593
0.99248593
0.99248593
0.99248593
0.99248593
0.99248593
0.99248593
0.99248593
0.99248593
0.99248593
0.99248593
0.99248593
0.99248593
0.99248593
0.99248593
0.99248593
0.99248593
0.99248593
0.99248593
0.99248593
0.99248593
0.99248593
0.99248593
0.99248593
0.99248593
0.99248593
0.99248593
0.99248593
0.99248593
0.99248593
0.99248593
0.99248593
0.99248593
0.99248593
0.99248593
0.99248593
0.99248593
0.99248593
0.99248593
0.99248593
0.99248593
0.99248593
0.99248593
0.99248593
0.99248593
0.99248593
0.99248593
0.99248593
0.99248593
0.99248593
0.99248593
0.99248593
0.99248593
0.99248593
0.99248593
0.99248593
0.99248593
0.99248593
0.99248593
0.99248593
0.99248593
0.99248593
0.99248593
0.99248593
0.99248593
)
;
        value           nonuniform List<scalar> 
92
(
731.14476
733.13621
737.05823
742.63337
721.95435
724.27333
728.86425
735.47528
702.34259
705.25549
711.40905
720.48792
349.71167
346.77393
346.74852
349.34844
425.08601
421.5673
421.68851
425.09995
489.51659
486.58084
487.15426
490.69462
544.33121
542.57773
544.36461
548.58838
670.479
589.77314
674.26712
589.87483
682.6181
594.32746
696.07183
601.57581
349.65119
349.21804
425.08454
425.01877
489.48579
490.63086
544.36468
548.46291
589.86322
601.47374
349.63086
349.48016
346.74366
346.71505
349.31104
349.32554
425.04497
424.96268
421.60914
421.72598
425.08432
425.13157
489.51107
489.49013
486.68456
487.25533
490.6449
490.72399
544.39172
544.38239
542.7133
544.45049
548.48913
548.63335
589.9255
589.92958
590.0922
594.47592
601.60113
601.69729
670.93266
674.77821
683.02931
696.39381
702.55802
705.64204
711.82928
720.93022
722.12988
724.51205
729.15824
735.82044
731.48694
733.50504
737.43514
742.99771
)
;
        Tnbr            T;
        thicknessLayers List<scalar> 0();
        kappaLayers     List<scalar> 0();
        kappaMethod     fluidThermo;
        kappa           none;
        alphaAni        none;
        alpha           none;
        field           T;
    }
}


// ************************************************************************* //
