/*--------------------------------*- C++ -*----------------------------------*\
| =========                 |                                                 |
| \\      /  F ield         | OpenFOAM: The Open Source CFD Toolbox           |
|  \\    /   O peration     | Version:  v2012                                 |
|   \\  /    A nd           | Website:  www.openfoam.com                      |
|    \\/     M anipulation  |                                                 |
\*---------------------------------------------------------------------------*/
FoamFile
{
    version     2.0;
    format      ascii;
    class       volVectorField;
    location    "780/bottomWater";
    object      U;
}
// * * * * * * * * * * * * * * * * * * * * * * * * * * * * * * * * * * * * * //

dimensions      [0 1 -1 0 0 0 0];


internalField   nonuniform List<vector> 
1460
(
(-0.00021953001 -0.015833261 0.00043106764)
(-0.0022103543 -0.015441755 0.00084227138)
(-0.0039180362 -0.012899136 0.00083723597)
(-0.0024898175 -0.010932158 0.00067442038)
(0.00024022983 -0.011267439 -2.3503149e-05)
(0.0012845202 -0.017861546 0.00066011961)
(-0.0021469926 -0.015544381 0.0017128593)
(-0.0027854149 -0.012388361 0.0018339183)
(-0.0016749123 -0.011869872 0.0015004933)
(0.0012488506 -0.011924491 0.00053666739)
(0.0031594755 -0.012688242 0.00020271819)
(0.00088460261 -0.014959069 0.00054977328)
(-0.00072490462 -0.01585886 0.0002028131)
(-0.0019067316 -0.01563446 -0.0017430527)
(-0.001900008 -0.016516056 -0.0020261423)
(-0.002349475 -0.016279171 -0.00060556759)
(-0.0041283181 -0.014117342 0.00056255128)
(-0.0031039337 -0.011623627 0.0015331571)
(-0.0023377713 -0.012580923 0.0022550562)
(-0.00058342489 -0.013162871 0.0020670617)
(-0.00033553341 -0.012747179 0.0030118825)
(0.0017184676 -0.014301593 0.0016948104)
(0.0049324138 -0.014822834 0.00088059195)
(0.0045936463 -0.016217064 0.0012573893)
(0.0027456408 -0.01921816 0.0013277821)
(-0.0016481735 -0.014453439 0.0010691919)
(-0.0025389014 -0.012458307 0.0015035029)
(-0.0010972327 -0.013860481 0.0014581427)
(0.0018007278 -0.011011006 0.0021778097)
(0.0021074087 -0.016318026 0.0016882286)
(-0.0019561628 0.017426174 0.0018152612)
(-0.0028939098 0.017173701 0.0021689599)
(-0.0033223502 0.013523373 0.0018394419)
(0.0014687966 0.0020920609 0.00076021246)
(0.0020140149 0.00371629 0.00019096185)
(0.0060021974 0.017570808 0.00014658422)
(-0.0018556421 0.016832737 0.0018607663)
(-0.0035717332 0.006350607 0.0010076558)
(0.00012322487 0.0029217257 0.00051032009)
(-0.00031180093 -0.0016965231 -0.0013806383)
(0.0062838721 0.013523562 -0.00041384605)
(0.004130202 0.016920249 -0.00012341225)
(-0.00014902669 0.017575025 -0.0011666065)
(-0.0032503367 0.016839988 -0.0036698805)
(-0.0035256525 0.017615803 -0.0033369043)
(-0.0033953974 0.018244577 0.00030596199)
(-0.003896144 0.014096326 0.0017008564)
(-0.00054498933 0.0016544079 0.00025586374)
(-0.00087774654 0.00070622808 0.00095136483)
(0.00055436097 0.00076698873 -7.102096e-05)
(0.00075686157 0.00086666543 0.0010564907)
(0.0035189779 0.0014822994 0.00087721714)
(0.0065087063 0.00720297 -4.032596e-05)
(0.0093281119 0.016250358 -0.00074954946)
(0.0030566396 0.020199126 -5.9470332e-05)
(-0.0062753198 0.015752383 0.0015879939)
(-0.0030177941 0.0063007161 0.00087007218)
(-0.0017552858 0.0023511444 0.0017988004)
(0.00036439926 -0.00040310643 0.0012280375)
(0.0036788122 0.016841306 0.0028546245)
(0.00019836363 -0.0055518844 0.0011752086)
(0.0023276197 -0.012109137 0.0016264465)
(0.0038989868 -0.014472967 0.0017529798)
(0.0039349149 -0.013723634 0.0011649486)
(-0.0021460112 -0.013729587 0.0015334686)
(-0.0036177583 -0.010189653 0.0033310589)
(-0.0015426109 -0.001820833 0.0021510615)
(0.00089805365 -0.014036724 -0.0026573446)
(0.0013395014 -0.013648133 -0.0025351613)
(-0.0043919244 -0.01507449 -0.0033111065)
(-0.0059727566 -0.012462304 -0.001859565)
(-0.0014484139 -0.00039559329 -0.00030477716)
(-0.0013238237 0.0021041119 0.0013314648)
(-0.00086338348 -0.0011048881 0.00072028226)
(0.0014997529 -0.0077398344 0.0018757727)
(-0.00081963932 -0.01127396 0.0016081759)
(0.0025188074 -0.014729652 -0.0013082045)
(0.0035434743 -0.013825505 -0.0028127876)
(0.00057754161 -0.013601678 -0.0019249362)
(0.00023225333 -0.013946235 -0.0026646509)
(0.001260402 -0.013922805 -0.001942404)
(0.0020250327 -0.014435228 -1.5022361e-05)
(-0.0044992556 -0.013877735 0.00035150563)
(0.0026407145 -0.001366078 -0.00034196531)
(0.0029367174 0.0060566402 0.00010691515)
(0.0038604966 -0.0037725959 0.00027161346)
(0.0059373349 -0.013435307 -0.00052736291)
(-0.0010646812 -0.01545861 -0.0002733817)
(-0.004364573 -0.014527583 -0.00074093623)
(-0.0043596888 -0.014027597 6.5170247e-05)
(0.0015376999 0.0078992349 -0.00010646224)
(0.0020509398 0.0074371061 -0.00021156258)
(0.0012320638 0.0016078467 -0.00029888391)
(-0.00056132556 -0.00071496287 -0.001151423)
(-0.001306833 0.00674428 -0.00015473074)
(-0.004749515 0.0095536235 0.00063439832)
(-0.0023134353 0.0035863513 0.00024591254)
(-0.00089290343 -0.0023317609 -0.0023288785)
(-0.0023374094 0.0033506599 -1.6545109e-05)
(-0.003942088 0.0089402015 0.00077941861)
(-0.0055846954 0.0096886842 -0.00032273107)
(-0.0033494715 0.007503904 0.00085015405)
(-0.00029564579 0.0086645885 0.0028230096)
(0.0015655674 0.0081485541 0.0022266302)
(0.0027036434 0.0098592854 0.0015786927)
(0.0014983976 0.011394707 0.001080098)
(0.0014901531 0.0040965384 -0.0020647226)
(0.0025993151 0.00045687877 -0.0019446521)
(0.00012125552 0.002779488 0.00073015385)
(0.00038796136 -0.0022542863 -0.0018136526)
(-0.0011700704 -0.003820333 -0.00086891749)
(0.0017733467 0.0070758186 0.0014426477)
(-0.0033627673 0.0050569395 0.00085894669)
(-0.0022885362 0.005688774 0.0019382407)
(0.0026119759 0.0097790071 0.00092931173)
(0.00631613 0.0081136472 0.00094498357)
(0.0068665586 0.0096315573 0.0018243038)
(0.0016340229 0.010792656 0.001685072)
(0.0015416567 -0.00091789783 -0.00023269881)
(-0.00068657312 -0.00092917717 -0.00099140361)
(-6.3925606e-05 -0.0092752996 -0.0012700861)
(0.00049743125 -0.010866904 -0.0019478092)
(-0.00031515544 -0.010421866 -0.0033445158)
(-0.0033085061 -0.0091297886 -0.0037368332)
(-0.0036788686 -0.0083869457 -0.0032038311)
(-0.0026002331 -0.0063260771 -0.0025476301)
(0.0023559241 -0.0071025521 -0.0031149878)
(-0.0022820818 -0.010107036 -0.0036945544)
(-0.0045806022 -0.010356131 -0.0037545744)
(-0.0045333053 -0.010651449 -0.0031443515)
(-0.0036681799 -0.0098078506 -0.0016153626)
(-0.0028867387 -0.0051290329 -0.00089190817)
(-0.00042230843 -0.0014244666 0.00088705495)
(0.0020274772 -0.0030228371 0.00060261678)
(0.0034834963 -0.0052005244 4.0838588e-05)
(0.0056570961 -0.0090219705 -0.00062704238)
(0.0058956473 -0.010673836 -0.0017500031)
(0.0033165765 -0.0097327577 -0.0030261392)
(0.001483542 -0.0086153896 -0.0039181191)
(0.0021850763 -0.0092194901 -0.0042444693)
(-0.0043787946 -0.010593124 -0.0036052169)
(-0.0048798304 -0.010948473 -0.0040133706)
(-0.0038483513 -0.009412029 -0.0042192749)
(-0.0044385243 -0.006977549 -0.0034300473)
(-9.9603983e-05 -0.00099483984 -0.0013375521)
(0.0028972537 -0.0070873862 -0.0016553012)
(0.003401689 -0.0084121243 -0.0016098376)
(0.0057142968 -0.0089405033 -0.0014286066)
(0.0056226582 -0.0092214067 -0.0021591488)
(0.0011883984 -0.0095848209 -0.0023348044)
(-0.00020497501 -0.015654363 -0.0015550284)
(-0.0018697675 -0.014640994 -0.0011202645)
(-0.0038462735 -0.012333282 -0.0021146318)
(-0.0030274712 -0.011460609 -0.00053539538)
(0.0014489872 -0.012524941 0.00099020697)
(0.0034291961 -0.013095747 0.00088206583)
(0.0029004205 -0.014561858 0.00033330451)
(0.0011363624 -0.01530484 0.00099442167)
(0.00064776321 -0.016288546 0.0005378331)
(0.00084959544 -0.017134659 0.0028820077)
(-0.00023333291 -0.015295911 -0.0016443333)
(-0.0014761396 -0.015677641 -0.0014018597)
(-0.0029676616 -0.013372804 -0.0014586375)
(-0.003344737 -0.010888296 -0.0010881495)
(-0.00053618897 -0.012658373 -0.00093624996)
(0.0022970464 -0.014024849 -0.0025047835)
(0.0017051952 -0.01698687 -0.00017048576)
(-0.0014075411 -0.01636546 0.0030948641)
(-0.0019730784 -0.016857224 0.0047359595)
(-0.0020592265 -0.016621249 0.0046512827)
(-0.0035964826 -0.014217672 0.0038730245)
(-0.0016596944 -0.012998592 0.0014086729)
(0.0029807301 -0.012284664 -9.0833886e-05)
(0.0038688436 -0.013327614 0.00119468)
(0.0016691524 -0.017372755 0.0025763787)
(-0.0017627756 -0.015964034 0.0023864082)
(-0.0029108015 -0.014369212 0.0023763654)
(2.0151162e-05 -0.012378281 0.0015039949)
(0.0026567851 -0.013350216 0.002325703)
(-0.00048202074 -0.017441818 0.0010614328)
(-0.0022604592 0.017315914 -0.00017497662)
(-0.0040911501 0.016862412 4.4308051e-05)
(-0.0053473682 0.014189554 -0.00084388998)
(0.0013871107 0.0021818846 0.0023743988)
(0.0029674813 -0.00058836701 0.0025796795)
(0.0058359452 0.0084836252 0.0028406037)
(0.0054594759 0.015875945 0.0029041424)
(-0.00022930305 0.017083805 0.0041881833)
(-0.0015077026 0.017490029 0.0040752759)
(0.0026306749 0.018254263 0.0042034818)
(0.0029745611 0.017942835 -0.00020593775)
(-0.0020442712 0.017782856 -0.0015252028)
(-0.0046250622 0.015110453 -0.0010448063)
(-0.0011960745 0.0030953542 -0.00093449108)
(-5.8843032e-05 -0.00081090373 -0.00011574391)
(0.0045231862 0.010305327 -0.0010697025)
(0.0051550111 0.017617607 8.2214615e-05)
(-0.00090209555 0.017269323 0.0053496472)
(-0.0024198242 0.016684295 0.0071332204)
(8.7916009e-06 0.017033107 0.0070407828)
(-0.003312463 0.014256543 0.0056410731)
(0.002343724 -0.00082584325 -0.0016256379)
(0.001284514 -0.0013358086 -0.0031823208)
(0.0066741227 0.014105581 -0.0026295202)
(0.0026637648 0.018962261 -0.00044444198)
(-0.0062487854 0.017475759 0.0022629278)
(-0.0039618864 0.010037979 0.0012028668)
(-0.0020802654 0.0014316135 0.0020304772)
(0.0044981555 0.014288776 0.0047131267)
(0.002312904 0.018877667 0.0042949584)
(0.0007209778 -0.00086510076 0.0013070334)
(0.0024881249 -0.0050182066 0.0023362248)
(0.0062469542 -0.012585934 0.004482565)
(0.0062272606 -0.01416305 0.0042681078)
(0.0005332804 -0.015076247 0.0016602529)
(-0.0044351556 -0.0137082 0.00090660608)
(0.00033784496 -0.0016110001 0.0011507363)
(-0.001107579 0.0019274978 0.002680971)
(0.001966768 -0.015081569 0.0024610581)
(-0.0023238451 -0.017455673 -0.0036976661)
(0.0015036208 0.0021322904 -0.00067294692)
(-0.00035873588 0.0030258847 -0.0018554938)
(0.0040053713 -0.0095418644 -0.00097987004)
(0.0044697121 -0.013919831 -0.0012450694)
(-0.00015381662 -0.015123558 0.0013885292)
(-0.0043977776 -0.013705709 0.0027989646)
(0.0014291561 -3.884107e-05 0.0010914389)
(-0.00023411926 -0.0010666704 0.0020125224)
(0.0016007701 -0.016449234 -0.0034289657)
(-0.0010343468 -0.015122706 -0.0014817226)
(0.003681228 -0.014378262 -0.0029836167)
(0.0044606646 -0.015874458 -0.0048835099)
(-0.0044218334 -0.015137808 -0.0052369397)
(-0.0048464041 -0.010948232 -0.0038264392)
(0.001072588 0.0048191411 -0.0017212167)
(-0.0021868437 0.0018773711 0.00073798229)
(0.0051879455 -0.015105807 -0.0028407211)
(-0.004729743 -0.015477518 -0.00057133288)
(-0.0053095136 -0.013266927 -7.7120691e-05)
(-0.0006978278 -0.0025341211 0.0027820187)
(0.0024029557 0.0073163105 0.0014164139)
(0.0050247893 0.0072829517 0.0023566589)
(0.0053847215 0.0072561942 0.0023631342)
(0.0038639095 0.0090838497 0.002557895)
(0.00144968 0.010447118 0.0016845258)
(-0.0027958178 0.0089950559 -0.00087534646)
(-0.0021083577 0.0066955751 0.0012227589)
(0.0013858222 0.0058095027 0.0022870583)
(0.0046001403 0.01019551 0.0033746404)
(-0.0046091646 0.011604265 0.00043825291)
(-0.0027553801 0.0078115341 -0.0004056993)
(0.0011483748 0.0080759039 -0.0010196268)
(0.0036602341 0.0097727906 -0.00088159774)
(0.0024819919 0.0098289064 -0.00065371019)
(0.0028950671 0.011061264 -0.0015905502)
(-0.00096981251 0.0084221859 -7.9681711e-05)
(0.00062470218 0.0048912832 0.00013210154)
(0.0053201181 0.0079841511 0.0010954778)
(0.0047745448 0.012101189 0.00058752202)
(-0.00059774405 0.0069175678 0.0011091044)
(-0.0012113933 -0.00061442779 -0.0015755921)
(3.127038e-05 0.010672481 0.00064246476)
(-0.0030190482 0.0099088117 0.0023443315)
(-0.0046687752 0.0096854123 -0.0004356022)
(-0.0011603924 0.0086812743 -0.00084021475)
(0.0023843127 0.0072283696 9.8810204e-06)
(0.0046322105 0.0099858735 0.00076468046)
(-0.0022564423 0.0091411306 0.00056578509)
(-0.0015655094 0.0038723758 0.00054066653)
(-0.0032745811 0.0051403727 0.0011777819)
(-0.00040023032 -0.008546376 -0.001826447)
(-0.00025265978 -0.0089387233 -0.0030875285)
(-0.0016648586 -0.010082282 -0.0041235129)
(-0.0032049678 -0.0090724655 -0.0036228134)
(-0.0016725657 -0.0033633531 -0.0014341071)
(-0.0012052926 -0.003974544 -0.0026526676)
(0.0012517813 -0.0051328909 -0.0030955345)
(-0.0025489649 -0.0078580158 -0.0031068532)
(-0.0032096834 -0.0053880795 -0.0018791969)
(-0.002838351 -0.0017712645 -0.0013910158)
(-0.00095919736 -0.0020348503 -0.00085567872)
(-0.0012199985 -0.0010451016 -0.0013971712)
(0.0023917775 -0.0034956469 -0.0010693126)
(0.0033602968 -0.0059510539 -0.00062954127)
(0.0046208537 -0.0060480036 -0.00077804268)
(0.0053863346 -0.0091248757 -0.0020964079)
(0.0042953567 -0.010158406 -0.0028974928)
(0.00078626445 -0.0080921043 -0.0038860697)
(0.0016348367 -0.0029150822 -0.0021277625)
(0.0036370255 -0.0099491718 -0.0028118154)
(-0.0044065336 -0.010346866 -0.0042116342)
(-0.0053076764 -0.00714051 -0.0035538374)
(-0.0037408793 -0.0047503109 -0.0029707624)
(-0.003344637 -0.004205624 -0.0026223067)
(-0.00034654017 0.00094337444 -0.0017627463)
(0.002303931 -0.0014507165 -0.0014235074)
(0.0034093832 -0.0036732181 -0.0018279412)
(0.0048451602 -0.0057153247 -0.0018852998)
(0.0046533604 -0.0091763035 -0.0029991329)
(7.8124985e-05 -0.0085113782 -0.0033060872)
(-0.00047567975 -0.014603356 -0.0012424719)
(-0.0043003667 -0.012191903 -0.00081336037)
(-0.0035438858 -0.011065785 -0.00053638455)
(-1.4409238e-05 -0.013816337 0.0003181592)
(0.0037773678 -0.014220919 0.0020303551)
(0.0042684381 -0.015129534 0.0019325395)
(0.0035809995 -0.016676914 0.0013441418)
(0.0014016138 -0.016378368 -0.00041101421)
(0.00069432977 -0.013583577 -0.0021693786)
(0.0021840809 -0.01722035 -0.0021655338)
(0.0021358761 -0.01572965 -0.0032922215)
(0.00076859564 -0.015616234 -0.0024620998)
(-0.00067658155 -0.016762213 -0.00099850767)
(-0.002545925 -0.013922527 0.00079607477)
(-0.0026638124 -0.011394869 0.00026564202)
(0.0003953117 -0.0118637 -0.00063705966)
(0.0021722176 -0.013701729 0.001765598)
(-0.0018852566 -0.017281026 0.003283517)
(-0.00058131817 -0.016588141 0.0022082793)
(-0.0016606781 -0.017060007 0.00095705201)
(-0.0021635436 -0.015130206 0.0020878443)
(-0.0018899686 -0.015456498 0.0026186422)
(-0.0010712369 -0.01560054 0.0027741474)
(-0.0024711416 -0.015203345 0.0011996469)
(-0.0026222334 -0.016506334 0.0025981582)
(-0.0034654194 -0.015941325 0.0020308421)
(-0.0037223136 -0.016392041 0.0018390708)
(-0.00087618801 -0.011442989 0.00076557365)
(0.0025727114 -0.015676222 0.00025989568)
(-0.00079865833 -0.017792428 -0.00089665414)
(-0.0018732848 0.016944957 0.00087646898)
(-0.0047021606 0.014502338 0.0012728585)
(0.0011075751 -0.00041691192 0.00034930447)
(0.0018279551 -0.00032851968 1.3706655e-05)
(0.0068083411 0.0086283856 0.0028225201)
(0.0078629154 0.015507181 0.0036519652)
(0.0051967814 0.018072507 0.0025725077)
(-0.0026919303 0.017741232 -0.00071589477)
(-0.0013235938 0.012261328 -0.00045803683)
(0.0024504455 0.016873542 -0.0034814041)
(0.0048365297 0.016919908 -0.0049832258)
(0.0045870623 0.017313469 -0.0041668945)
(-0.00083825079 0.018266001 -0.00088861386)
(-0.0058013308 0.014729803 0.00092765895)
(-0.0014274803 0.0031566107 -0.0016147357)
(-0.0021010457 -0.0031531418 -0.0019484503)
(0.0055459394 0.015102016 -0.0021383014)
(0.0022706597 0.018723847 0.00075353451)
(-0.0023625126 0.018320038 0.0030215331)
(-0.00088541431 0.018742172 0.0023840486)
(-0.0014490806 0.017048701 0.0042376891)
(0.00044509539 0.015848882 0.005661682)
(0.002211207 0.017019921 0.0059306275)
(0.0010584655 0.017610829 0.0013662629)
(-0.0041958787 0.018189541 -0.0007185174)
(-0.0065008446 0.01810918 2.261682e-05)
(-0.0057415628 0.015763762 0.00079607331)
(-0.0010689158 0.001606478 0.0010362512)
(0.0049616797 0.016777259 0.0018987691)
(0.002613658 0.019223074 0.0020886102)
(0.0010217328 -0.0010480773 0.00058447266)
(0.0055214313 -0.01108097 0.00052670661)
(0.0059077887 -0.014411984 6.9149147e-05)
(0.00070527715 -0.015499116 -0.0025362237)
(-0.0029403639 -0.013254302 -0.0040571599)
(0.00049414923 -0.0020246542 -9.5339487e-06)
(0.0018118496 0.0040072781 0.0020194823)
(0.00058914345 0.0010383835 0.0018749518)
(0.0034348667 -0.014377907 0.0048014853)
(-0.0011705521 -0.017953597 0.0016370087)
(-0.00013060652 -0.013415434 -0.00056500498)
(0.0011309042 -0.00034336363 -0.0012322892)
(0.00020887089 0.0036495158 -0.0018110535)
(0.0023505415 -0.0071981785 -0.005519274)
(0.0035697853 -0.013168326 -0.005934199)
(-0.0047452587 -0.015707541 -0.0024150339)
(-0.0060688969 -0.013020897 3.1782014e-05)
(-0.00074747556 0.0027474539 0.0005329463)
(-0.0018773922 -0.00022917975 0.0022484542)
(-0.00079208958 -0.008961877 0.0033829499)
(0.00081334095 -0.0085444122 0.0014647509)
(0.0012238916 -0.01646924 -0.0057942012)
(-0.0023881027 -0.013686875 -0.006238696)
(-0.0010394819 0.00083206581 -0.0025098292)
(-0.0014251514 0.0030497628 -0.0014085917)
(-0.0012998994 0.00082765495 -0.00044467107)
(0.0053407853 -0.016057085 -0.0021446926)
(-0.0025383077 -0.015056216 0.00043710141)
(-0.004443392 -0.0075836244 0.0016183162)
(0.00025505088 0.0039410737 0.0019933889)
(0.0032270191 0.0057624541 0.00078092961)
(0.0052593146 0.0090888237 0.001699976)
(0.0031332913 0.0090513745 0.0025935717)
(0.00076086702 0.010174326 0.0011814383)
(-0.0012430222 0.0090068718 -0.0027165775)
(-0.0010366272 0.0068163756 -0.0025338349)
(0.0011526183 0.0090192734 0.0014931071)
(0.0036076802 0.0079000945 0.002326059)
(0.0054019805 0.010522326 0.0013411585)
(0.00072148112 0.012403012 -0.0021400099)
(-0.0033313298 0.010086868 -0.00098663563)
(-0.0012836501 0.007849312 -8.7699896e-05)
(0.00052349554 0.0088480182 -0.0025074319)
(0.0024443606 0.0079043973 -0.0039275162)
(0.004285038 0.0099186502 -0.0030918715)
(-0.00081663861 0.011096898 0.0019449952)
(-0.0042041397 0.011645525 0.0035055343)
(-0.00092353286 0.0084789692 0.0019290535)
(0.00020810811 0.0084861653 0.00025468177)
(0.0015757751 0.0083424943 0.0027708788)
(0.00051067534 0.0059148294 -9.2702664e-05)
(0.0016009451 0.011342384 -0.0038911316)
(-0.0048826013 0.011980571 -0.0040646717)
(-0.0033585227 0.0085112018 -0.0038795293)
(-0.0011188988 0.0094480816 -0.0010920211)
(0.002137491 0.0074832291 0.00022888241)
(0.0027299427 0.011245142 -0.00040447844)
(-0.005024188 0.0095412179 0.00062149145)
(-0.0041299725 0.0081137438 0.0014100658)
(-0.0020191976 0.0088276338 0.0017146151)
(-0.0015966071 -0.007642893 -0.0026313806)
(-0.00053715358 -0.004705585 -0.0021386682)
(-0.00016325217 -0.0049658403 -0.003079196)
(-0.00067525401 -0.0077272206 -0.0024525217)
(-0.0014255488 -0.0082122552 -5.3929475e-05)
(-0.0020129054 -0.0014016697 -0.0018309366)
(0.00077738027 0.0029615757 0.00071920692)
(0.0027205477 -0.0011853958 0.00056918493)
(0.0024829993 -0.0053916182 0.0012719747)
(0.0023693763 -0.0057628418 0.0020415844)
(0.0018394667 -0.010556748 0.0030247756)
(-0.0019731197 -0.0028253309 0.0010265548)
(0.0015165034 0.0020547351 -0.00010939387)
(0.002448424 -0.0087947344 0.0017701587)
(-0.0016877451 -0.010402705 0.0011416462)
(0.00021919189 -0.0031078115 -0.0013100039)
(0.0011506526 -0.012445609 -0.0020897268)
(-0.0018509743 -0.0010004474 0.001245269)
(0.0018542164 -0.001415637 0.0011959488)
(0.00029218736 -0.011390303 -0.0016559056)
(-0.0041139183 -0.009344425 -0.0040087379)
(-0.0038241251 -0.0068524996 -0.0024376492)
(-0.0033958378 -0.0013557836 -0.0025363539)
(-0.0025071674 -0.00022608969 -0.0021528055)
(-0.00046955183 0.002016972 -0.00057423236)
(0.001384465 -0.00031624201 0.00016957492)
(0.0021171166 -0.0016570213 7.6046027e-05)
(0.0030484408 -0.0051055137 -6.0580651e-06)
(0.0010782059 -0.0099199489 -0.0010701522)
(-0.0033029211 0.00021407369 -0.00039217827)
(-0.00043365147 -0.014462046 -0.0014203139)
(-0.0026476041 -0.014506467 -0.00076381733)
(-0.0037739753 -0.015413876 0.00093194124)
(-0.0033095069 -0.015521792 -6.1939484e-05)
(-0.0020250334 -0.015615556 -0.0015879474)
(-0.002119375 -0.016317718 -0.0016315568)
(-0.002606853 -0.014321485 -0.00064417649)
(-0.0033027107 -0.011588926 -1.8179651e-05)
(-0.00099798406 -0.012775553 -0.00021754076)
(0.0012712977 -0.012258798 -0.0015379099)
(0.002685134 -0.011770368 -0.002615959)
(0.0038876518 -0.013423323 -0.0030357187)
(0.003117877 -0.015147761 -0.0027012013)
(0.0011137263 -0.016100515 -0.0014170648)
(-0.00090242818 -0.016704987 0.0017364657)
(-0.0012431098 -0.017549041 0.0019673182)
(-0.0029974943 -0.016252045 2.96016e-05)
(-0.0039191112 -0.014616904 0.00074388298)
(-0.0031663925 -0.011976005 0.0002385017)
(-0.00082340166 -0.012230697 0.001051514)
(0.0014523119 -0.01849432 -0.00024100648)
(-0.00017290157 -0.017997317 -0.0033037763)
(0.00019024447 -0.017521226 -0.0034795147)
(-0.0023338989 -0.017078361 -0.0025296543)
(-0.0030756793 -0.016038803 -0.0019096936)
(-0.003186727 -0.015638524 -0.0023605492)
(-0.0034034161 -0.016751298 -0.0018149008)
(0.00032513007 -0.011904817 -0.00095228195)
(0.0029112851 -0.014181855 -0.0021340581)
(0.00026858022 -0.016877584 -0.00212772)
(-0.00089238804 0.016438532 -0.00021904314)
(-0.0032772784 0.016954619 0.00023694596)
(-0.0027332016 0.016767991 0.0022983558)
(0.0026393892 0.013978394 0.0020112065)
(0.0030329973 0.017231206 -0.00064406943)
(-8.2370961e-05 0.018299923 -0.0014314694)
(-0.0037474628 0.016181146 0.00053478708)
(-0.0038011608 0.0085584222 0.001405822)
(-0.00072025244 0.00051483073 0.0016995597)
(0.0012133536 0.002945061 -0.00012782134)
(0.0031962998 0.0018105399 -0.0011704153)
(0.0046909689 0.01078997 -0.0026067671)
(0.0051125842 0.016653287 -0.0032262579)
(0.00048128366 0.017740609 -0.0005623397)
(-0.0038816909 0.018316577 0.0036314192)
(-0.0037403565 0.019015802 0.0021219185)
(-0.0020453125 0.01806178 -0.0011287698)
(-0.0030487882 0.01576979 0.00061386261)
(-0.00021363921 0.0062582917 0.0010719357)
(0.00022062508 0.0006472019 0.0027808775)
(0.004959615 0.017814999 0.0023898947)
(0.0039771692 0.019096439 -0.00060739466)
(0.0034536548 0.018951664 -0.0020792652)
(0.0016073868 0.019004176 -0.0033241036)
(-0.0037485863 0.017921629 -0.0055474873)
(-0.0044735049 0.017066628 -0.0053262917)
(-0.0039200557 0.015116149 -0.0039685379)
(-5.4943856e-05 0.00070396432 -0.0017069449)
(0.0054909749 0.015038827 -0.0031337296)
(0.0037607658 0.018554487 -0.0029103374)
(0.0012257567 -0.00041672208 -0.00094147133)
(0.00011578251 -0.00040432022 -0.00078514172)
(0.0039476553 -0.015716151 -0.0035405215)
(9.2134414e-05 -0.017259004 -0.001973167)
(0.0009806606 0.00016863723 -0.0016965971)
(0.00032185012 0.0047733695 -0.0013817178)
(0.0023737479 -0.0035468322 0.001101128)
(0.0046864944 -0.012568877 0.0029160704)
(0.0030469152 -0.014988917 0.0033425679)
(-0.0012824264 -0.014134726 0.0020996662)
(-6.6436422e-05 -0.014386345 0.0017136641)
(-0.0041023665 -0.014493755 0.0012318966)
(-0.0024617968 -0.0029032893 -0.0018332492)
(-0.0011138849 0.0011381485 -0.0023762955)
(-0.00088169904 -0.0025683379 -0.00099622517)
(-0.0002355093 -0.015912567 -0.0053944752)
(-0.0034729851 -0.016919225 -0.002547432)
(0.0010033962 -0.01318302 -0.00089731807)
(0.0043997774 -0.013098856 0.00030546432)
(-0.0011378569 -0.015351086 0.0027613013)
(-0.0039861445 -0.01676934 0.0028639986)
(0.0020083262 -0.0037933599 0.0017799542)
(0.0012108024 -0.0033572541 -0.00028004429)
(0.0020426087 0.0021874627 -0.002240272)
(0.00072650429 0.002266751 -0.0027927318)
(0.00028968443 -0.0050766528 -0.0031486455)
(0.0047815367 -0.015911423 -0.0010966014)
(-0.0019607881 -0.015507259 -0.00083344315)
(-0.0053589775 -0.011394672 0.00083730074)
(0.0018141575 0.0033158037 -0.0012452753)
(0.0023379422 0.0085459765 -0.0011555664)
(0.0038290242 0.0079204836 -0.0015188428)
(0.0047152307 0.011240106 -0.00098618039)
(-0.0047516973 0.0097602106 0.00011021392)
(-0.0025599334 0.0058163008 -0.00014056061)
(0.00055803623 0.009023502 -0.001175033)
(0.0041150441 0.0079198727 0.00016404475)
(0.004740701 0.009438937 0.0027999659)
(0.0037965482 0.010270215 0.0010301498)
(0.0018132253 0.003491375 0.0011033635)
(0.0011694735 -0.0018518962 0.0021109804)
(-0.00082413645 0.010041837 0.00023247213)
(-0.003560461 0.0069536232 -0.00056214498)
(-0.00024306406 0.0023418967 -0.00059026955)
(0.0043002153 0.0062981453 -0.00022524539)
(0.0038371484 0.011830812 0.00098696616)
(-0.0036150407 0.012807476 0.0017335664)
(0.0013084153 0.0011747198 0.0021304419)
(0.00053481596 0.0038689892 0.0024118423)
(0.0026250495 0.010745696 0.0046413961)
(-0.0044663571 0.012480471 0.0014959698)
(-0.003092621 0.0058695104 -0.00015936904)
(-0.0015852692 0.0059366435 0.00038013685)
(0.0016087803 0.0086439708 -0.0018782897)
(0.0025937958 0.0083653623 -0.0011922439)
(0.0045750164 0.0073701095 -0.001153253)
(0.0039278362 0.010550929 -0.0016811575)
(-0.0026001103 0.0089964807 -5.5818203e-05)
(-0.003187316 0.0059647145 0.0022034722)
(-0.0012071507 0.0083181046 0.0011706433)
(0.0002987356 -0.004590542 -0.0010397537)
(-5.674406e-05 -0.0011902183 -0.00071552265)
(0.002286619 0.00015287657 -1.5176306e-05)
(0.0021228512 -0.0032860001 0.0007659102)
(0.0023170441 -0.007973314 0.00062799267)
(-0.00036951638 -0.0044260149 0.00065822966)
(0.0021650679 -0.0049202861 0.001424858)
(0.0028874336 -0.0083777381 0.0017425171)
(0.0041912079 -0.0096937974 0.0033957101)
(0.0044251719 -0.0096669606 0.0047757859)
(0.00072775266 -0.0098573667 0.0047033311)
(-0.0020498374 -0.0072497051 0.0044651519)
(0.0014314473 -0.0042662348 0.0035407023)
(-0.0008697331 -0.010093594 0.0027033836)
(-0.0036627003 -0.0081033148 0.0022367503)
(0.00039489812 0.00022228626 0.00066069161)
(0.003525601 -0.0072682075 -3.1970831e-05)
(0.002312677 -0.011314572 0.001828841)
(-0.0025291592 -0.010836869 0.0017818119)
(-0.0012948943 -0.0055824529 0.0012743702)
(1.7726256e-06 -0.0032356766 -0.002457282)
(0.0033198741 -0.0089101109 -0.0019718667)
(-0.0021345728 -0.0094578131 0.0046418075)
(-0.0015158209 -0.0025051285 0.0032649586)
(0.0013837757 -0.00035517812 0.0035470563)
(0.0027182162 -0.0039579879 0.0036152055)
(0.0031471942 -0.0036782684 0.0037834272)
(0.0038270545 -0.007170987 0.004087346)
(0.00030098078 -0.010218285 0.0036856649)
(-0.003325234 -0.00016995961 0.0020888994)
(-0.00061459133 -0.014484803 -0.0026475045)
(-0.002715038 -0.013429127 -0.0028328281)
(-0.0041718633 -0.012047443 -0.0033283797)
(-0.0020248948 -0.011213866 -0.0023976382)
(0.00044063945 -0.014416806 -0.0038670439)
(-0.00039139168 -0.017206286 -0.0033787624)
(-0.0012689586 -0.018050893 -0.002043868)
(-0.0033364289 -0.015261726 -0.00011570849)
(-0.0024642902 -0.011734221 0.0010440977)
(-0.0013200924 -0.011986718 0.00085994095)
(0.0014053579 -0.012696762 -0.00010596038)
(0.0025350504 -0.012217413 -0.000482469)
(0.0021778712 -0.017426552 -0.0011998295)
(0.00023087127 -0.016280519 -0.0001512984)
(-0.001951345 -0.016913866 0.0019861781)
(0.00026119079 -0.017920496 0.0027148026)
(-0.002182824 -0.014373156 -0.0001464823)
(-0.001156533 -0.011262131 -0.00051808138)
(0.0016065556 -0.011587122 0.00076084962)
(-6.9710247e-06 -0.016394566 -0.00049381602)
(-0.0031220755 -0.014386803 -0.0029502948)
(-0.0029185543 -0.012244628 -0.003292972)
(-0.0013209911 -0.012415438 -0.0026350728)
(0.001580048 -0.012734981 -0.0011130044)
(0.0023706641 -0.012898376 -0.0021977534)
(0.001581464 -0.017584759 -0.0025072908)
(-0.0026077406 0.016669633 -0.0024483924)
(-0.0039626979 0.015941525 -0.0034306326)
(-0.0041375731 0.013287955 -0.0038823167)
(0.0026618662 0.00077044618 -0.00096658873)
(0.0049543098 0.010373692 -0.0031425147)
(0.0058666864 0.017353964 -0.0044757942)
(-0.0032444982 0.019241481 0.00098537699)
(-0.0058749961 0.015328078 0.0029601238)
(-0.002657681 0.0025706812 0.0016397125)
(-0.0016067774 0.00052648814 0.0015163247)
(0.002209855 -0.00013256695 0.00043837614)
(0.0026555264 0.0031030359 0.00011729315)
(0.0047026282 0.017281628 -0.0010206148)
(-0.00067416568 0.017546051 0.0015689844)
(-0.0019038224 0.017633038 0.0048513675)
(-0.0023840267 0.017793147 0.0055245884)
(-0.0035027025 0.016423494 0.0016928527)
(0.0023069729 -0.00095491102 -0.0017081701)
(0.0019179121 0.0045498755 0.00013946923)
(0.0038113694 0.017055729 -0.0017935692)
(-0.0038093937 0.015247039 -0.0057363774)
(-0.0011875094 0.006607861 -0.0037321014)
(0.00034091992 0.0035515936 -0.0019273987)
(0.0033846845 0.0037431763 -0.00071361186)
(0.0036896136 0.007431947 0.00022593057)
(0.004391491 0.018113441 -0.00046358432)
(-4.6107354e-05 -0.00049753303 -3.8610881e-05)
(0.0020516999 -0.0077600713 0.00084700301)
(0.0046167148 -0.013219468 0.0020763559)
(0.0036725899 -0.014408051 0.0015879635)
(-0.0044952624 -0.013674373 0.0021165425)
(0.0011750442 0.0027903644 -0.00096378665)
(-0.0022735028 0.0063164886 0.00080077994)
(0.0037027755 -0.012189106 -0.0039689117)
(0.001381356 -0.013457843 -0.0027536769)
(0.00025536246 -0.013477099 -0.0005450561)
(0.0011490171 -0.013694765 0.0002507917)
(-0.0015266632 -0.013448613 0.0007820796)
(-0.00087444953 -0.0091683125 -4.7117507e-05)
(0.0014512271 -0.0028207393 0.0010397704)
(0.0026306882 -0.0032813326 0.001960155)
(0.0031822031 -0.0081612129 -0.0004957298)
(0.0070515072 -0.01529008 -0.0022237253)
(0.0047986077 -0.015055328 -0.0024434603)
(-0.0033857383 -0.012935952 0.0020302804)
(0.0016608365 -0.0079207948 0.0029836607)
(0.0032409917 -0.010587881 0.0040058545)
(0.0043250339 -0.013777633 0.0018432032)
(0.0028023892 -0.013712784 0.0011177148)
(0.001755797 -0.013898027 0.00058716183)
(-0.0021235515 -0.013940842 0.0030190278)
(0.0012781054 -0.0083065597 0.00024013264)
(0.0021570477 0.0072108519 0.00095189728)
(0.0036953041 0.0054528292 0.0022673473)
(0.0022360278 0.0040639249 0.00078654006)
(0.0026035092 0.0065643758 -0.00075354981)
(-0.0034809514 0.0099568137 0.0020210464)
(-0.0021893858 0.0077340398 0.0019912877)
(0.00088797924 0.0094812586 0.00074381852)
(0.003971932 0.011769222 -0.0013127066)
(0.0002283826 0.0041949546 0.00028014128)
(0.001742929 -0.0022009579 -3.4800383e-05)