/*--------------------------------*- C++ -*----------------------------------*\
| =========                 |                                                 |
| \\      /  F ield         | OpenFOAM: The Open Source CFD Toolbox           |
|  \\    /   O peration     | Version:  v2012                                 |
|   \\  /    A nd           | Website:  www.openfoam.com                      |
|    \\/     M anipulation  |                                                 |
\*---------------------------------------------------------------------------*/
FoamFile
{
    version     2.0;
    format      ascii;
    class       surfaceScalarField;
    location    "370/topAir";
    object      phi;
}
// * * * * * * * * * * * * * * * * * * * * * * * * * * * * * * * * * * * * * //

dimensions      [1 0 -1 0 0 0 0];
oriented        oriented;


internalField   nonuniform List<scalar> 
3140
(
9.4896696e-06
-2.9363959e-07
7.2968979e-08
9.6681084e-06
-2.6199995e-07
8.3599509e-08
9.8402208e-06
-2.4544894e-07
7.3390136e-08
9.9800661e-06
-1.9592971e-07
5.6150281e-08
1.0081227e-05
-1.3456171e-07
3.3476203e-08
1.0151812e-05
-7.7228065e-08
6.7278171e-09
1.0223335e-05
-2.940425e-08
-4.2030852e-08
1.0320432e-05
1.0398728e-08
-1.0740351e-07
1.0449942e-05
7.2817142e-08
-2.0223133e-07
1.0634876e-05
1.5387612e-07
-3.3871289e-07
1.0871915e-05
2.9516699e-07
-5.321157e-07
1.1132004e-05
5.3641344e-07
-7.9643409e-07
1.1358497e-05
9.1077618e-07
-1.1372502e-06
1.1554077e-05
1.3601522e-06
-1.5558086e-06
1.1699594e-05
1.8618383e-06
-2.0075867e-06
1.1794179e-05
2.3463745e-06
-2.4413728e-06
1.1832835e-05
2.7720271e-06
-2.8112448e-06
1.1811149e-05
3.1174149e-06
-3.0963802e-06
1.174058e-05
3.3693865e-06
-3.2995111e-06
1.1651631e-05
3.521061e-06
-3.432826e-06
1.1579644e-05
3.5798199e-06
-3.5085608e-06
1.15481e-05
3.5661298e-06
-3.5353244e-06
1.1563499e-05
3.5026536e-06
-3.518787e-06
1.1617466e-05
3.4082046e-06
-3.4628762e-06
1.1688587e-05
3.297685e-06
-3.3694669e-06
1.1734881e-05
3.1878968e-06
-3.2348365e-06
1.1669767e-05
3.108347e-06
-3.043947e-06
1.1313542e-05
3.1212491e-06
-2.765941e-06
1.0298265e-05
3.364807e-06
-2.3508076e-06
4.1736607e-06
-1.7329824e-06
9.1161521e-06
-2.2110017e-07
8.0279445e-08
9.0816119e-06
-3.3226493e-07
1.0480853e-07
9.0764855e-06
-3.5187851e-07
1.1156152e-07
9.1146405e-06
-3.4794764e-07
1.1387069e-07
9.1949289e-06
-3.2614784e-07
1.1130785e-07
9.3117289e-06
-2.9590324e-07
1.0188806e-07
9.4679903e-06
-2.692219e-07
8.3572955e-08
9.6784498e-06
-2.5342398e-07
5.3393073e-08
9.968684e-06
-2.2611753e-07
8.6983883e-09
1.0368939e-05
-1.710377e-07
-7.5470979e-08
1.0905134e-05
-3.777264e-08
-2.0362489e-07
1.1568042e-05
2.6555751e-07
-3.9257503e-07
1.2262945e-05
8.7513649e-07
-6.599189e-07
1.2876187e-05
1.7368211e-06
-9.9068532e-07
1.3350125e-05
2.7190785e-06
-1.3320283e-06
1.3645949e-05
3.6581641e-06
-1.6083999e-06
1.3745607e-05
4.4534089e-06
-1.7816221e-06
1.3673524e-05
5.0679575e-06
-1.8788451e-06
1.3490086e-05
5.5021016e-06
-1.9495986e-06
1.327309e-05
5.7650603e-06
-2.0274138e-06
1.3083555e-05
5.8758435e-06
-2.1070937e-06
1.2947452e-05
5.8672763e-06
-2.1658881e-06
1.2866236e-05
5.7707721e-06
-2.187976e-06
1.2826657e-05
5.6102503e-06
-2.1637502e-06
1.2805984e-05
5.4003146e-06
-2.0834663e-06
1.2762609e-05
5.1584459e-06
-1.9290004e-06
1.2610575e-05
4.9250279e-06
-1.6669801e-06
1.2181577e-05
4.7952415e-06
-1.2481234e-06
1.1204588e-05
4.9629461e-06
-6.2533268e-07
5.6537196e-06
2.5906058e-07
9.1727185e-06
-2.0715745e-07
8.2300803e-08
9.0066448e-06
-2.7505482e-07
1.0886524e-07
8.8244248e-06
-2.8830636e-07
1.1864951e-07
8.6385467e-06
-2.8803995e-07
1.2597227e-07
8.461095e-06
-2.8065618e-07
1.3196202e-07
8.29743e-06
-2.6842772e-07
1.3619212e-07
8.1453961e-06
-2.565904e-07
1.394057e-07
7.9995406e-06
-2.5108738e-07
1.4352331e-07
7.8759172e-06
-2.5444021e-07
1.5194958e-07
7.8134722e-06
-2.7333905e-07
1.6474516e-07
7.9231948e-06
-3.2016535e-07
1.7265249e-07
8.3671357e-06
-3.3151921e-07
1.5287983e-07
9.1938889e-06
-3.5041099e-08
8.2818665e-08
1.0320851e-05
6.359294e-07
-2.6985815e-08
1.1343685e-05
1.7871472e-06
-9.2171114e-08
1.2147984e-05
2.9076752e-06
-5.5187449e-08
1.2660486e-05
3.7525464e-06
1.8701638e-07
1.2875193e-05
4.3279648e-06
5.2414282e-07
1.2890298e-05
4.7052054e-06
7.8086227e-07
1.2816794e-05
4.922186e-06
9.1557961e-07
1.2741847e-05
5.0005181e-06
9.4949997e-07
1.2689284e-05
4.9551616e-06
9.6387057e-07
1.2652946e-05
4.8138118e-06
9.9244449e-07
1.2609689e-05
4.6063053e-06
1.0463277e-06
1.2539987e-05
4.3590151e-06
1.1101397e-06
1.2422047e-05
4.0932386e-06
1.1823083e-06
1.2218321e-05
3.8412818e-06
1.2865978e-06
1.1870713e-05
3.6804784e-06
1.4613029e-06
1.1244225e-05
3.7971167e-06
1.7907415e-06
4.5804156e-06
2.3988438e-06
8.9814041e-06
8.039222e-08
8.6006281e-06
1.0572278e-07
8.1979671e-06
1.1435636e-07
7.7899333e-06
1.1999544e-07
7.3851794e-06
1.2409946e-07
6.990081e-06
1.2667238e-07
6.604555e-06
1.2893755e-07
6.22026e-06
1.3320976e-07
5.8224155e-06
1.4340719e-07
5.3830073e-06
1.6607262e-07
4.8506496e-06
2.1219732e-07
4.2143927e-06
3.0473939e-07
3.7050414e-06
4.742941e-07
3.6131566e-06
7.2736768e-07
4.2854681e-06
1.1139514e-06
5.4469907e-06
1.7449683e-06
6.5521217e-06
2.6460438e-06
7.4449831e-06
3.4338715e-06
8.1453715e-06
4.0038444e-06
8.7287287e-06
4.3380572e-06
9.2366214e-06
4.4919458e-06
9.6831809e-06
4.5079429e-06
1.0052306e-05
4.4440345e-06
1.0322944e-05
4.3350479e-06
1.047987e-05
4.2015452e-06
1.0526141e-05
4.0465371e-06
1.0490524e-05
3.8766009e-06
1.0460268e-05
3.7105327e-06
1.0686769e-05
3.5703526e-06
3.4321286e-06
9.6021756e-06
-2.9322408e-07
3.3016629e-08
9.897155e-06
-2.6298036e-07
5.1636408e-08
1.0174399e-05
-2.5865912e-07
5.4852049e-08
1.0406774e-05
-2.2634357e-07
5.0172466e-08
1.058707e-05
-1.8675034e-07
3.9987907e-08
1.0726668e-05
-1.5610322e-07
2.3287235e-08
1.0830356e-05
-1.4180611e-07
-3.8576502e-09
1.0903885e-05
-1.4770889e-07
-3.3176629e-08
1.0956893e-05
-1.7879813e-07
-7.6405533e-08
1.0996534e-05
-2.4146086e-07
-1.3688246e-07
1.1029894e-05
-3.4465594e-07
-2.2085543e-07
1.1065063e-05
-4.9706627e-07
-3.3466732e-07
1.1114366e-05
-7.0438556e-07
-4.8249816e-07
1.1250215e-05
-1.021905e-06
-6.7047283e-07
1.1489886e-05
-1.369708e-06
-8.7882794e-07
1.18124e-05
-1.6852632e-06
-1.08038e-06
1.2139804e-05
-1.8751046e-06
-1.2654767e-06
1.2389761e-05
-1.9001524e-06
-1.4480341e-06
1.2529977e-05
-1.8068178e-06
-1.6345733e-06
1.2580251e-05
-1.6729614e-06
-1.8116452e-06
1.2589189e-05
-1.5539316e-06
-1.9650009e-06
1.2596849e-05
-1.4605851e-06
-2.0838251e-06
1.262281e-05
-1.3866505e-06
-2.1595161e-06
1.2671399e-05
-1.3243836e-06
-2.1884448e-06
1.2744606e-05
-1.2710373e-06
-2.1729367e-06
1.2843637e-05
-1.2184541e-06
-2.1167745e-06
1.2953133e-05
-1.1415315e-06
-2.0136253e-06
1.300265e-05
-9.6778117e-07
-1.8501429e-06
1.2844837e-05
-5.546005e-07
-1.6417792e-06
7.3934742e-07
-1.372672e-06
9.2415458e-06
-2.2258302e-07
3.7063465e-08
9.3546259e-06
-3.3626112e-07
6.5012337e-08
9.4910317e-06
-3.6105113e-07
7.7552324e-08
9.6643675e-06
-3.673379e-07
8.1535281e-08
9.8711012e-06
-3.6197258e-07
7.9803944e-08
1.0099652e-05
-3.5416519e-07
7.1408471e-08
1.034208e-05
-3.5487565e-07
5.4224597e-08
1.0595855e-05
-3.7366829e-07
2.5587867e-08
1.0865387e-05
-4.2030161e-07
-1.9320319e-08
1.1145976e-05
-5.1011729e-07
-8.7403565e-08
1.1446725e-05
-6.6303775e-07
-1.860189e-07
1.1782161e-05
-9.0021778e-07
-3.2494312e-07
1.217623e-05
-1.2476573e-06
-5.1091889e-07
1.2631784e-05
-1.7313e-06
-7.372608e-07
1.3172312e-05
-2.2712621e-06
-9.7163439e-07
1.3714721e-05
-2.6688129e-06
-1.167877e-06
1.4137379e-05
-2.7395549e-06
-1.3401491e-06
1.4363388e-05
-2.4787262e-06
-1.5262072e-06
1.4397787e-05
-2.0597175e-06
-1.7306637e-06
1.4306181e-05
-1.6692293e-06
-1.9387981e-06
1.4172928e-05
-1.4012957e-06
-2.1254268e-06
1.4031616e-05
-1.2126921e-06
-2.2710652e-06
1.3892488e-05
-1.0770203e-06
-2.3566227e-06
1.3762011e-05
-9.8691416e-07
-2.368367e-06
1.3671425e-05
-9.608175e-07
-2.3001625e-06
1.3685683e-05
-1.0040198e-06
-2.1541448e-06
1.3921114e-05
-1.1106867e-06
-1.9290016e-06
1.4610734e-05
-1.2710938e-06
-1.6294509e-06
1.6323012e-05
-1.505975e-06
-1.3807793e-06
-1.5010076e-06
-1.4068622e-06
9.3004243e-06
-2.0953533e-07
3.7790772e-08
9.2848182e-06
-2.7874833e-07
6.6960196e-08
9.254525e-06
-2.9382405e-07
8.1717293e-08
9.2219986e-06
-2.9766696e-07
8.8829493e-08
9.1974204e-06
-2.9685393e-07
9.1423515e-08
9.1838514e-06
-2.9355293e-07
8.9151209e-08
9.180769e-06
-2.932867e-07
8.0902034e-08
9.1877447e-06
-3.0264497e-07
6.5528258e-08
9.2060716e-06
-3.2890122e-07
4.2227476e-08
9.2346204e-06
-3.8510264e-07
1.1187855e-08
9.2906277e-06
-4.9454745e-07
-5.1839943e-08
9.388946e-06
-6.9446907e-07
-1.5119378e-07
9.5524301e-06
-1.0295771e-06
-2.9879086e-07
9.8122991e-06
-1.5273194e-06
-4.9090113e-07
1.0200034e-05
-2.0831055e-06
-6.6798516e-07
1.0612113e-05
-2.4154175e-06
-7.2006056e-07
1.0958189e-05
-2.2651713e-06
-6.3218196e-07
1.1199889e-05
-1.7354056e-06
-4.5932533e-07
1.1301218e-05
-1.0674811e-06
-3.112631e-07
1.1310131e-05
-4.5082665e-07
-3.1075383e-07
1.1286797e-05
-4.0658422e-08
-3.8734637e-07
1.1294563e-05
1.3911227e-07
-3.959894e-07
1.1332e-05
1.8597298e-07
-3.0892698e-07
1.1375784e-05
1.4132646e-07
-1.2693018e-07
1.1401036e-05
3.4819248e-08
8.8133067e-08
1.1394056e-05
-1.2894456e-07
3.1415659e-07
1.1420625e-05
-3.8266181e-07
5.3292725e-07
1.1602561e-05
-6.8260654e-07
6.9205101e-07
1.2239348e-05
-9.3800918e-07
5.8693361e-07
-1.0597005e-06
2.0210105e-07
9.1030728e-06
3.6737803e-08
8.8653854e-06
6.466351e-08
8.6074516e-06
7.8467729e-08
8.3450181e-06
8.4763677e-08
8.0856771e-06
8.6588179e-08
7.8351053e-06
8.3693027e-08
7.5955494e-06
7.5208599e-08
7.3657545e-06
6.0361829e-08
7.1414802e-06
3.8782901e-08
6.9105152e-06
1.193845e-08
6.6627299e-06
-3.4560145e-08
6.3749565e-06
-1.0195099e-07
6.0243847e-06
-2.0471175e-07
5.6050012e-06
-3.8063487e-07
5.2413464e-06
-6.0531391e-07
5.1036597e-06
-5.3177715e-07
5.2360007e-06
2.4876698e-07
5.4716975e-06
1.4628431e-06
5.659073e-06
2.7491856e-06
5.9912228e-06
3.5553068e-06
6.4535117e-06
3.9890925e-06
6.9365865e-06
4.1642528e-06
7.3736674e-06
4.1934537e-06
7.7186176e-06
4.1322635e-06
7.961361e-06
3.9946841e-06
8.1302383e-06
3.7491037e-06
8.2857131e-06
3.3385439e-06
8.4978455e-06
2.8157331e-06
9.2286413e-06
1.9013415e-06
7.3274936e-07
9.5793441e-06
-2.9493354e-07
1.7605269e-08
9.8652844e-06
-2.6344206e-07
2.9176102e-08
1.0141941e-05
-2.5562666e-07
3.3874346e-08
1.0377107e-05
-2.1885777e-07
3.3927311e-08
1.056076e-05
-1.746389e-07
3.1045542e-08
1.0697729e-05
-1.3948857e-07
2.5884794e-08
1.0792903e-05
-1.1761015e-07
1.8656591e-08
1.0858122e-05
-1.0793223e-07
9.6156981e-09
1.0897083e-05
-1.1264197e-07
-2.6491787e-09
1.0912627e-05
-1.3675364e-07
-1.561702e-08
1.090955e-05
-1.8701663e-07
-3.076853e-08
1.0893966e-05
-2.7368662e-07
-4.556202e-08
1.0879555e-05
-4.1390313e-07
-5.4703197e-08
1.0955236e-05
-6.9560959e-07
-5.1698139e-08
1.1145584e-05
-1.049434e-06
-2.1457722e-08
1.1396389e-05
-1.3972856e-06
6.4697489e-08
1.1615137e-05
-1.6646481e-06
1.8008582e-07
1.1766048e-05
-1.8618207e-06
2.6372428e-07
1.1846968e-05
-2.0201175e-06
3.06382e-07
1.1881037e-05
-2.1574886e-06
3.1404338e-07
1.1898809e-05
-2.2813677e-06
3.0104753e-07
1.1919845e-05
-2.3868482e-06
2.8446356e-07
1.1943776e-05
-2.4608335e-06
2.7989119e-07
1.1958997e-05
-2.4956899e-06
2.9457783e-07
1.1963079e-05
-2.4982306e-06
3.2373685e-07
1.1982842e-05
-2.4929121e-06
3.5866746e-07
1.2078062e-05
-2.4935879e-06
3.8654085e-07
1.2296227e-05
-2.4324286e-06
3.6525391e-07
1.2487542e-05
-1.9855612e-06
1.527486e-07
-6.8564045e-07
-4.1995506e-07
9.2137341e-06
-2.2233133e-07
1.9698073e-08
9.3146786e-06
-3.3525515e-07
3.588423e-08
9.4494588e-06
-3.5793925e-07
4.5089901e-08
9.6244277e-06
-3.6064496e-07
4.8360729e-08
9.8328425e-06
-3.5015819e-07
4.6917623e-08
1.0059648e-05
-3.3544713e-07
4.0573056e-08
1.0293958e-05
-3.2591772e-07
2.8234676e-08
1.0531499e-05
-3.2796905e-07
8.0974144e-09
1.0769433e-05
-3.4858842e-07
-2.129559e-08
1.1007715e-05
-3.9866929e-07
-6.3770742e-08
1.1250657e-05
-4.937843e-07
-1.222349e-07
1.151282e-05
-6.6384245e-07
-1.9709674e-07
1.1828801e-05
-9.5980202e-07
-2.8137766e-07
1.2205601e-05
-1.459478e-06
-3.5093946e-07
1.2634631e-05
-2.0901436e-06
-3.6068354e-07
1.2933594e-05
-2.5150342e-06
-3.4892594e-07
1.3001958e-05
-2.6567204e-06
-4.1533387e-07
1.2880235e-05
-2.6780949e-06
-5.8652497e-07
1.262705e-05
-2.6514876e-06
-8.4414126e-07
1.229867e-05
-2.6220431e-06
-1.1437383e-06
1.1940384e-05
-2.6165935e-06
-1.4295577e-06
1.1574313e-05
-2.6347128e-06
-1.6543199e-06
1.1199615e-05
-2.6476475e-06
-1.7916209e-06
1.0815281e-05
-2.6416868e-06
-1.8337366e-06
1.0435295e-05
-2.632979e-06
-1.7803457e-06
1.0114386e-05
-2.7026253e-06
-1.6176956e-06
1.0066947e-05
-2.9459432e-06
-1.4226114e-06
1.0704015e-05
-3.3029506e-06
-1.3890776e-06
1.2515362e-05
-3.4242646e-06
-1.7472762e-06
-2.8974626e-06
-2.5049654e-06
9.2736225e-06
-2.0917208e-07
1.997104e-08
9.2467807e-06
-2.7801234e-07
3.6560808e-08
9.2158439e-06
-2.9197835e-07
4.669485e-08
9.1870512e-06
-2.9421261e-07
5.1191639e-08
9.1685232e-06
-2.912305e-07
5.1025828e-08
9.1613321e-06
-2.8486426e-07
4.5761761e-08
9.1622257e-06
-2.7988755e-07
3.3981075e-08
9.1676468e-06
-2.8144143e-07
1.3583131e-08
9.1746151e-06
-2.948317e-07
-1.8493343e-08
9.1838917e-06
-3.2953477e-07
-6.7219112e-08
9.1840723e-06
-4.0526906e-07
-1.405349e-07
9.1700541e-06
-5.5670966e-07
-2.4432057e-07
9.146677e-06
-8.5541351e-07
-3.7984832e-07
9.1604449e-06
-1.4398587e-06
-5.2429867e-07
9.1878532e-06
-2.2058956e-06
-5.7813458e-07
8.9181721e-06
-2.4324764e-06
-5.2875051e-07
8.3986945e-06
-2.1805225e-06
-5.8430591e-07
7.8968424e-06
-1.8988353e-06
-7.3301015e-07
7.4193143e-06
-1.5052663e-06
-9.7705484e-07
6.9229051e-06
-1.1659992e-06
-1.2678765e-06
6.3995299e-06
-9.781353e-07
-1.4996029e-06
5.9083914e-06
-9.3753263e-07
-1.5981557e-06
5.5041365e-06
-9.9781553e-07
-1.5492147e-06
5.2441882e-06
-1.1278003e-06
-1.3743898e-06
5.1322791e-06
-1.329369e-06
-1.096527e-06
5.0754057e-06
-1.6456045e-06
-6.7871204e-07
5.3576327e-06
-2.1412218e-06
-5.4633329e-07
6.3643903e-06
-2.7334035e-06
-8.7669233e-07
8.0862295e-06
-2.9792413e-06
-1.5715732e-06
-2.4958021e-06
-2.9391715e-06
9.0770248e-06
1.9494646e-08
8.8281831e-06
3.5494518e-08
8.5695834e-06
4.5090765e-08
8.3110187e-06
4.9117363e-08
8.0578511e-06
4.8526986e-08
7.8138033e-06
4.2878327e-08
7.5784502e-06
3.0675958e-08
7.3479242e-06
9.4484035e-09
7.1161179e-06
-2.4240043e-08
6.8759992e-06
-7.7474547e-08
6.5990195e-06
-1.6284519e-07
6.2407562e-06
-3.0039054e-07
5.7128181e-06
-5.3215713e-07
4.8406981e-06
-9.478791e-07
3.5989333e-06
-1.5625032e-06
2.5155549e-06
-1.8645241e-06
2.1873329e-06
-1.5913823e-06
2.3160838e-06
-5.5886712e-07
2.6737774e-06
8.9081308e-07
3.0810485e-06
1.9857379e-06
3.5695623e-06
2.5250874e-06
4.0599739e-06
2.7382113e-06
4.491046e-06
2.7660795e-06
4.7906501e-06
2.7061927e-06
4.8711892e-06
2.5859938e-06
4.6284696e-06
2.3471076e-06
4.5067645e-06
1.3197275e-06
4.7778079e-06
-1.8661982e-07
5.4735971e-06
-1.7655782e-06
-3.9344183e-06
9.5737856e-06
-2.9512507e-07
7.9439741e-09
9.8524194e-06
-2.6310204e-07
1.368222e-08
1.0123367e-05
-2.5368778e-07
1.6665886e-08
1.0354033e-05
-2.1416767e-07
1.7492036e-08
1.0533735e-05
-1.6536098e-07
1.6774813e-08
1.0667628e-05
-1.2277783e-07
1.4845694e-08
1.0763907e-05
-8.9336757e-08
1.1790951e-08
1.0829775e-05
-6.3873275e-08
7.6912293e-09
1.0870032e-05
-4.585798e-08
3.0062508e-09
1.0893118e-05
-3.5990627e-08
-2.7039674e-09
1.0909429e-05
-3.8409316e-08
-8.7615877e-09
1.0939617e-05
-6.3745455e-08
-1.2317888e-08
1.1025114e-05
-1.3523378e-07
-5.7419391e-09
1.1280718e-05
-3.2736008e-07
1.8554285e-08
1.1648865e-05
-4.7127701e-07
8.0266401e-08
1.196882e-05
-4.2575541e-07
1.7032734e-07
1.2176027e-05
-2.9150642e-07
2.6571843e-07
1.2289891e-05
-2.1174258e-07
3.6411197e-07
1.2362773e-05
-2.3455478e-07
4.7142905e-07
1.2435965e-05
-3.4439925e-07
5.8926701e-07
1.2530929e-05
-5.0930311e-07
7.1988538e-07
1.2640388e-05
-6.887463e-07
8.6868352e-07
1.27348e-05
-8.5016132e-07
1.0410793e-06
1.2786185e-05
-9.8481585e-07
1.2339771e-06
1.279656e-05
-1.1075358e-06
1.4272026e-06
1.2796042e-05
-1.215255e-06
1.5805931e-06
1.2734062e-05
-1.1708714e-06
1.6247151e-06
1.2314451e-05
-7.0307515e-07
1.4917793e-06
1.0974299e-05
3.6542e-07
1.1316348e-06
2.7658905e-06
4.3999181e-07
9.2065561e-06
-2.2210842e-07
9.0961765e-09
9.29656e-06
-3.3464441e-07
1.7426124e-08
9.4211954e-06
-3.5631272e-07
2.3084637e-08
9.5864275e-06
-3.5696809e-07
2.5936266e-08
9.7844822e-06
-3.4272846e-07
2.6239699e-08
9.9999403e-06
-3.2159462e-07
2.3942744e-08
1.0221866e-05
-3.0162519e-07
1.8609708e-08
1.0444076e-05
-2.8758506e-07
9.6120964e-09
1.0664941e-05
-2.8397931e-07
-4.0314006e-09
1.0888005e-05
-2.9920328e-07
-2.3631528e-08
1.1127206e-05
-3.510924e-07
-4.8816192e-08
1.1420251e-05
-4.7801998e-07
-7.6074982e-08
1.1847769e-05
-7.5275562e-07
-9.1906276e-08
1.2482954e-05
-1.2482715e-06
-6.6185421e-08
1.3175513e-05
-1.545474e-06
2.0674419e-08
1.3607638e-05
-1.3033837e-06
9.7197461e-08
1.3793638e-05
-9.868774e-07
9.5164696e-08
1.3793812e-05
-8.5138358e-07
5.4330196e-08
1.3649756e-05
-9.0670357e-07
-2.6283744e-08
1.3401085e-05
-1.0828727e-06
-1.546313e-07
1.3080244e-05
-1.3061657e-06
-3.094101e-07
1.2688384e-05
-1.5058829e-06
-4.4218659e-07
1.2205864e-05
-1.6543734e-06
-5.0091675e-07
1.1616856e-05
-1.7637626e-06
-4.6099197e-07
1.0990176e-05
-1.8969931e-06
-3.5874622e-07
1.0569195e-05
-2.1599957e-06
-2.4589059e-07
1.0622875e-05
-2.3276864e-06
-3.1270105e-07
1.0954015e-05
-1.7114337e-06
-7.0418017e-07
1.1239124e-05
-3.3535009e-07
-1.3300206e-06
1.8626047e-06
-1.9799893e-06
9.2667872e-06
-2.0913579e-07
9.1732409e-09
9.2290751e-06
-2.7798678e-07
1.7616853e-08
9.1874683e-06
-2.916102e-07
2.3600847e-08
9.1477941e-06
-2.9298363e-07
2.688317e-08
9.1170167e-06
-2.884456e-07
2.7522355e-08
9.0954213e-06
-2.794476e-07
2.5212404e-08
9.0787781e-06
-2.7019732e-07
1.9199131e-08
9.0614548e-06
-2.6515385e-07
8.4784753e-09
9.0379025e-06
-2.6944987e-07
-9.466733e-09
9.0016496e-06
-2.9261161e-07
-3.7554504e-08
8.9454964e-06
-3.5652419e-07
-7.8951049e-08
8.8728541e-06
-5.132878e-07
-1.3643009e-07
8.8349003e-06
-8.9314401e-07
-2.0157222e-07
9.0434117e-06
-1.761305e-06
-2.1959486e-07
9.2388602e-06
-2.2196995e-06
-9.5059937e-08
8.7913092e-06
-1.3638935e-06
-1.686989e-08
8.017702e-06
-7.4574025e-07
-5.0042902e-08
7.1133677e-06
-4.7830677e-07
-2.0138843e-07
6.2007813e-06
-5.2847653e-07
-4.4255264e-07
5.3209862e-06
-7.4389446e-07
-7.2629309e-07
4.4843162e-06
-9.8128711e-07
-9.8590206e-07
3.7341221e-06
-1.2009256e-06
-1.1495768e-06
3.1217037e-06
-1.4201306e-06
-1.1661405e-06
2.6293056e-06
-1.6601452e-06
-9.7966176e-07
2.3240014e-06
-1.9720491e-06
-7.1035543e-07
2.4622431e-06
-2.5101748e-06
-4.6160735e-07
3.3602526e-06
-3.0207852e-06
-7.4638763e-07
4.7772319e-06
-2.2183648e-06
-1.7820306e-06
6.0967634e-06
-4.2575741e-07
-2.7937767e-06
1.1083516e-06
-3.5525797e-06
9.0703857e-06
8.9268466e-09
8.8108815e-06
1.7013637e-08
8.5417475e-06
2.2616158e-08
8.2723933e-06
2.54896e-08
8.0068239e-06
2.5652506e-08
7.7475165e-06
2.2739843e-08
7.4921131e-06
1.5883875e-08
7.2322773e-06
4.1322213e-09
6.9566151e-06
-1.8025366e-08
6.6405696e-06
-5.4037794e-08
6.2359943e-06
-1.1478986e-07
5.6443792e-06
-2.2205548e-07
4.6446956e-06
-4.2555297e-07
2.7833055e-06
-8.4633699e-07
4.4088053e-07
-1.4184629e-06
-1.5329156e-06
-1.228647e-06
-2.7690636e-06
-1.096553e-06
-2.9678384e-06
-8.362961e-07
-2.3107474e-06
-2.9143295e-07
-1.3876583e-06
3.2506928e-07
-5.0394654e-07
6.6525168e-07
2.3042845e-07
8.0558747e-07
7.351984e-07
8.4461868e-07
9.6044326e-07
8.2378804e-07
7.8567225e-07
7.9129416e-07
5.3642866e-08
5.7138588e-07
-9.3757866e-07
-7.0065729e-07
-9.6884247e-07
-2.364365e-06
6.0511106e-07
-3.7525534e-06
-4.6640322e-06
9.5709263e-06
-2.9538794e-07
1.4051378e-09
9.8459244e-06
-2.6353199e-07
2.2540992e-09
1.0113867e-05
-2.540758e-07
2.8501819e-09
1.0342342e-05
-2.1428496e-07
3.3654586e-09
1.0520294e-05
-1.6497669e-07
3.8723865e-09
1.065249e-05
-1.2171591e-07
4.4446334e-09
1.0746696e-05
-8.7511632e-08
5.1788398e-09
1.0809663e-05
-6.1381553e-08
6.1869258e-09
1.084789e-05
-4.2817649e-08
7.6648575e-09
1.0869351e-05
-3.3794283e-08
9.6677626e-09
1.0888536e-05
-4.0681352e-08
1.2696001e-08
1.0937558e-05
-7.9298249e-08
1.772202e-08
1.1084305e-05
-1.7989605e-07
2.6739482e-08
1.1462572e-05
-4.0443685e-07
4.3505311e-08
1.1878803e-05
-4.0145716e-07
6.4901106e-08
1.2181163e-05
-2.1858589e-07
8.7213617e-08
1.2369378e-05
-3.2747808e-08
1.1198566e-07
1.2483459e-05
1.0485751e-07
1.4680442e-07
1.2565099e-05
1.935708e-07
1.9782846e-07
1.2665176e-05
2.2230797e-07
2.6856166e-07
1.2820547e-05
2.0990222e-07
3.5645814e-07
1.3033943e-05
2.0774555e-07
4.4966474e-07
1.3264065e-05
2.8347438e-07
5.300011e-07
1.3447698e-05
4.6943621e-07
5.8393151e-07
1.3530426e-05
7.4004373e-07
6.0803272e-07
1.3427721e-05
1.0855513e-06
6.0189863e-07
1.2973159e-05
1.5248711e-06
5.5895814e-07
1.1887464e-05
2.1173287e-06
4.64798e-07
9.7023268e-06
3.0114557e-06
3.0958135e-07
4.691481e-06
1.2613247e-07
9.2026777e-06
-2.2210912e-07
2.1105858e-09
9.2871714e-06
-3.3468465e-07
4.088453e-09
9.4063698e-06
-3.562384e-07
6.0541127e-09
9.5664878e-06
-3.565591e-07
8.099727e-09
9.7592108e-06
-3.4171512e-07
1.026448e-08
9.9684811e-06
-3.1964962e-07
1.2617773e-08
1.0182657e-05
-2.9846761e-07
1.5403778e-08
1.0395453e-05
-2.8315854e-07
1.8607725e-08
1.0604878e-05
-2.787681e-07
2.250656e-08
1.0815662e-05
-2.9589604e-07
2.768548e-08
1.1049597e-05
-3.5883438e-07
3.5357727e-08
1.1367127e-05
-5.2090674e-07
4.7828757e-08
1.1902048e-05
-8.7666319e-07
6.9460082e-08
1.2739873e-05
-1.4125346e-06
1.0331312e-07
1.3373217e-05
-1.1442239e-06
1.2995156e-07
1.3811897e-05
-7.0159077e-07
1.418193e-07
1.4112193e-05
-3.8814721e-07
1.508355e-07
1.4331156e-05
-2.2551391e-07
1.6892833e-07
1.443989e-05
-1.3488029e-07
1.9946885e-07
1.4491742e-05
-2.2002405e-07
2.4473614e-07
1.4537418e-05
-4.2720125e-07
2.9352542e-07
1.4612064e-05
-6.1466044e-07
3.1922851e-07
1.4747424e-05
-6.3857983e-07
3.0089559e-07
1.493771e-05
-4.2076552e-07
2.5470941e-07
1.5164005e-05
-5.3706443e-08
2.2408151e-07
1.5148845e-05
6.6916954e-07
1.9925935e-07
1.4658785e-05
1.5604215e-06
1.5234628e-07
1.3425515e-05
2.6099025e-06
4.3393237e-08
1.1263667e-05
4.0216743e-06
-1.7760949e-07
5.862144e-06
-4.5236883e-07
9.2629541e-06
-2.0910723e-07
2.1792588e-09
9.2196278e-06
-2.7797999e-07
4.2401147e-09
9.172129e-06
-2.9151043e-07
6.3733554e-09
9.1264063e-06
-2.9264493e-07
8.6935166e-09
9.088697e-06
-2.877383e-07
1.1256814e-08
9.058353e-06
-2.7825007e-07
1.415902e-08
9.029871e-06
-2.6849357e-07
1.7709622e-08
8.9965327e-06
-2.631714e-07
2.1832679e-08
8.9492648e-06
-2.6781582e-07
2.6852408e-08
8.8771664e-06
-2.9498255e-07
3.3633797e-08
8.7698428e-06
-3.7437034e-07
4.3908505e-08
8.6348274e-06
-5.8368467e-07
6.1346784e-08
8.5982066e-06
-1.1362788e-06
9.4608229e-08
9.2361648e-06
-2.4253343e-06
1.5582518e-07
9.0433327e-06
-1.2455279e-06
2.0077071e-07
8.6881801e-06
-5.5118011e-07
1.8789693e-07
8.2417934e-06
-1.6678349e-07
1.7297552e-07
7.5943497e-06
4.048584e-08
1.7869458e-07
6.7668517e-06
3.4457451e-08
2.146789e-07
5.7195529e-06
-1.502182e-07
2.4980644e-07
4.5075832e-06
-4.4192701e-07
2.3918045e-07
3.3751145e-06
-7.8786606e-07
1.5486443e-07
2.7067913e-06
-1.1361286e-06
-1.0759477e-10
2.8410517e-06
-1.3749193e-06
-1.581404e-07
3.9890423e-06
-1.4419845e-06
-4.6907495e-07
5.962472e-06
-1.0676639e-06
-6.9731946e-07
7.553706e-06
6.4158014e-08
-8.4181112e-07
8.1113498e-06
1.2384062e-06
-9.7083077e-07
7.6792004e-06
2.7770827e-06
-1.1242751e-06
4.456159e-06
-1.2653195e-06
9.0666273e-06
2.1460663e-09
8.8015071e-06
4.155497e-09
8.5263798e-06
6.2347008e-09
8.2507193e-06
8.506796e-09
7.977595e-06
1.1040158e-08
7.7081032e-06
1.3983291e-08
7.4379216e-06
1.7573694e-08
7.1570764e-06
2.1807885e-08
6.8444587e-06
2.6778541e-08
6.4620211e-06
3.3419863e-08
5.9299081e-06
4.2956517e-08
5.0664437e-06
5.7730065e-08
3.4212879e-06
8.34185e-08
1.7098854e-09
1.5110121e-07
-2.8609962e-06
2.3894067e-07
-4.7361312e-06
1.0324221e-07
-5.9441539e-06
-5.2357467e-08
-6.5654533e-06
-1.7371931e-07
-6.5129519e-06
-3.0811184e-07
-5.8689106e-06
-4.671986e-07
-5.0186474e-06
-6.2490196e-07
-4.1964327e-06
-8.0292235e-07
-3.4824822e-06
-1.0042876e-06
-2.8672228e-06
-1.1658628e-06
-2.3857316e-06
-1.1324179e-06
-1.8793072e-06
-1.0035655e-06
-1.0206766e-06
-1.4926254e-06
-2.5682685e-07
-1.886796e-06
7.3132183e-07
-1.9493436e-06
-1.7519732e-06
9.570986e-06
-2.952789e-07
-5.3019455e-09
9.846162e-06
-2.6341099e-07
-9.4722062e-09
1.0114382e-05
-2.539199e-07
-1.1397189e-08
1.0343257e-05
-2.1411948e-07
-1.132643e-08
1.0521762e-05
-1.6482863e-07
-9.7307502e-09
1.0654721e-05
-1.2159037e-07
-6.8434737e-09
1.0749943e-05
-8.7238944e-08
-2.7159902e-09
1.081444e-05
-6.0922864e-08
2.7134979e-09
1.085442e-05
-4.23604e-08
1.0179197e-08
1.0878694e-05
-3.3654116e-08
1.9271652e-08
1.0903524e-05
-4.1625668e-08
2.9935146e-08
1.0965111e-05
-8.33434e-08
4.0401955e-08
1.113545e-05
-1.8703657e-07
4.505595e-08
1.1528168e-05
-3.8375071e-07
3.5624614e-08
1.1950144e-05
-3.4914855e-07
-8.4672753e-09
1.2268629e-05
-1.6029864e-07
-7.3118843e-08
1.2505442e-05
2.2910598e-08
-1.4956038e-07
1.2700233e-05
1.8664155e-07
-2.3614435e-07
1.2887962e-05
3.4960724e-07
-3.4073825e-07
1.3100723e-05
5.27124e-07
-4.7228388e-07
1.3339495e-05
7.5322595e-07
-6.3626699e-07
1.3572319e-05
1.0517037e-06
-8.3541901e-07
1.375612e-05
1.4146666e-06
-1.0689617e-06
1.384803e-05
1.813478e-06
-1.322079e-06
1.3803015e-05
2.215505e-06
-1.5634896e-06
1.3529016e-05
2.6211114e-06
-1.7470089e-06
1.2844574e-05
3.0545405e-06
-1.8140252e-06
1.1459081e-05
3.5416992e-06
-1.6955751e-06
8.9051997e-06
4.1348894e-06
-1.2767707e-06
5.2028578e-06
-5.7474061e-07
9.2028698e-06
-2.2203169e-07
-5.0355512e-09
9.2876549e-06
-3.3456244e-07
-9.541709e-09
9.4072752e-06
-3.5607994e-07
-1.1400823e-08
9.5679567e-06
-3.5636742e-07
-1.0326481e-08
9.7614551e-06
-3.4150429e-07
-6.5485895e-09
9.9722112e-06
-3.194095e-07
-3.0674524e-10
1.0187951e-05
-2.9810657e-07
1.0547674e-08
1.0402932e-05
-2.8266197e-07
2.5390808e-08
1.0615584e-05
-2.7842096e-07
4.5961472e-08
1.0832389e-05
-2.9644541e-07
7.3776898e-08
1.107895e-05
-3.6206034e-07
1.0948593e-07
1.1424014e-05
-5.3004721e-07
1.5005452e-07
1.2007991e-05
-8.8514766e-07
1.8460213e-07
1.2861088e-05
-1.3217499e-06
1.8812667e-07
1.3518288e-05
-1.013387e-06
1.3588922e-07
1.4004323e-05
-6.0523841e-07
9.9017296e-08
1.4385926e-05
-3.2277666e-07
1.0917642e-07
1.4712983e-05
-1.2863302e-07
1.4696506e-07
1.4978653e-05
6.2252782e-08
2.0748526e-07
1.5256768e-05
1.7872042e-07
2.9747783e-07
1.555645e-05
3.439365e-07
3.8208186e-07
1.5817689e-05
6.6619282e-07
4.2037622e-07
1.5998822e-05
1.1195727e-06
3.9153728e-07
1.6059387e-05
1.6837304e-06
3.0197721e-07
1.5963768e-05
2.324803e-06
1.9079433e-07
1.5575701e-05
3.0723694e-06
1.1884136e-07
1.4635557e-05
3.9190847e-06
2.1243461e-07
1.2835551e-05
4.8289413e-06
5.4119384e-07
9.7683364e-06
5.8786787e-06
1.1309448e-06
7.2339847e-06
1.9080713e-06
9.2631611e-06
-2.0906991e-07
-4.9816322e-09
9.220202e-06
-2.7791834e-07
-9.4432643e-09
9.1732217e-06
-2.9142468e-07
-1.1299862e-08
9.1281963e-06
-2.9253477e-07
-1.0111999e-08
9.0914714e-06
-2.8760041e-07
-5.9201915e-09
9.0630501e-06
-2.7801123e-07
1.1841936e-09
9.0364073e-06
-2.6823899e-07
1.4487189e-08
9.0053079e-06
-2.6291352e-07
3.3186652e-08
8.9613462e-06
-2.6799905e-07
6.0397223e-08
8.8955034e-06
-2.9649492e-07
9.9538474e-08
8.8024569e-06
-3.7999919e-07
1.5492856e-07
8.7059612e-06
-6.0172841e-07
2.2960866e-07
8.7754375e-06
-1.1743357e-06
3.1418201e-07
9.5375107e-06
-2.3062644e-06
3.7406456e-07
9.4336387e-06
-1.0031905e-06
2.9204633e-07
9.2400227e-06
-4.7561007e-07
2.5144609e-07
8.9460599e-06
-1.4770673e-07
2.9289874e-07
8.5781815e-06
2.2006063e-08
3.964342e-07
8.261674e-06
2.4471377e-08
5.6691592e-07
7.998112e-06
-9.1137249e-08
7.7882749e-07
7.9388878e-06
-3.1215187e-07
9.4820386e-07
8.2617436e-06
-4.710154e-07
9.6261059e-07
9.0100674e-06
-4.5776778e-07
8.2272267e-07
1.0011116e-05
-1.103538e-07
6.2770329e-07
1.1031641e-05
3.7139713e-07
4.52978e-07
1.168536e-05
1.2841532e-06
4.2370162e-07
1.1545405e-05
2.3915924e-06
8.1004809e-07
1.0379706e-05
3.4716406e-06
1.5344554e-06
7.7689326e-06
4.8402265e-06
2.5047304e-06
6.5182883e-06
3.4769602e-06
9.066832e-06
-4.8021721e-09
8.8020766e-06
-9.0056852e-09
8.527477e-06
-1.0588742e-08
8.2525555e-06
-9.1047641e-09
7.9805992e-06
-4.6023283e-09
7.7130233e-06
3.549584e-09
7.4447048e-06
1.7654862e-08
7.1652045e-06
3.8396204e-08
6.8542729e-06
6.9712395e-08
6.4735088e-06
1.1768958e-07
5.9432059e-06
1.9325631e-07
5.0813547e-06
3.177705e-07
3.448666e-06
5.4032133e-07
2.8439538e-07
9.927521e-07
-2.1180482e-06
1.6125236e-06
-3.7912401e-06
1.295956e-06
-4.9151528e-06
9.2051856e-07
-5.4917421e-06
4.2223679e-07
-5.4238849e-06
-3.5507797e-07
-4.8523187e-06
-1.1348601e-06
-4.1207114e-06
-1.672505e-06
-3.4162033e-06
-1.9803403e-06
-2.714398e-06
-2.1635567e-06
-1.7122263e-06
-2.276015e-06
-3.6019947e-07
-2.1078477e-06
1.0991646e-06
-1.1790506e-06
1.8548605e-06
1.4029632e-07
1.6594332e-06
1.7776728e-06
8.0908534e-07
3.7433005e-06
7.4671502e-06
9.5740221e-06
-2.9476364e-07
-1.5559851e-08
9.8533082e-06
-2.6273648e-07
-2.5982114e-08
1.0125246e-05
-2.5324127e-07
-3.0040195e-08
1.0357274e-05
-2.1363364e-07
-2.9653662e-08
1.0538755e-05
-1.6471214e-07
-2.6421563e-08
1.0674907e-05
-1.2196675e-07
-2.0938937e-08
1.0774045e-05
-8.8436386e-08
-1.3314641e-08
1.0842998e-05
-6.2950309e-08
-3.1681116e-09
1.0888815e-05
-4.4425517e-08
8.9400624e-09
1.0919037e-05
-3.4017236e-08
2.327642e-08
1.0945603e-05
-3.6054339e-08
3.9754944e-08
1.0992108e-05
-6.1514626e-08
5.5999604e-08
1.1105378e-05
-1.3321609e-07
6.6034366e-08
1.1390791e-05
-3.1007573e-07
6.1629221e-08
1.1751663e-05
-3.9625284e-07
2.8132828e-08
1.2058198e-05
-3.150167e-07
-6.3818453e-08
1.2263987e-05
-1.7202132e-07
-1.8289937e-07
1.2395776e-05
-8.8343037e-08
-2.7935428e-07
1.2491525e-05
-8.6834638e-08
-3.4950801e-07
1.2568848e-05
-1.4483803e-07
-4.0472911e-07
1.2638309e-05
-2.4477006e-07
-4.6115725e-07
1.270258e-05
-3.7097714e-07
-5.2939055e-07
1.27588e-05
-5.1547862e-07
-6.1125377e-07
1.2810411e-05
-6.7511861e-07
-7.0160518e-07
1.2864098e-05
-8.2652655e-07
-7.9598086e-07
1.2896404e-05
-8.948023e-07
-8.9306855e-07
1.2788626e-05
-7.412212e-07
-9.7752212e-07
1.231859e-05