/*--------------------------------*- C++ -*----------------------------------*\
| =========                 |                                                 |
| \\      /  F ield         | OpenFOAM: The Open Source CFD Toolbox           |
|  \\    /   O peration     | Version:  v2012                                 |
|   \\  /    A nd           | Website:  www.openfoam.com                      |
|    \\/     M anipulation  |                                                 |
\*---------------------------------------------------------------------------*/
FoamFile
{
    version     2.0;
    format      ascii;
    class       volScalarField;
    location    "370/topAir";
    object      T;
}
// * * * * * * * * * * * * * * * * * * * * * * * * * * * * * * * * * * * * * //

dimensions      [0 0 0 1 0 0 0];


internalField   nonuniform List<scalar> 
1200
(
323.33744
344.93797
364.48512
382.52649
399.52232
415.75517
431.34702
446.19928
459.98421
472.67061
484.14887
494.21693
502.44085
503.44949
502.19635
498.641
493.32428
487.17125
481.07326
475.63533
471.15624
467.73381
465.36457
464.00683
463.61178
464.1543
465.68518
468.42951
472.95516
480.02154
300.5029
301.45212
302.75229
304.3467
306.19522
308.26728
310.53489
313.10585
316.65809
321.4293
328.20293
337.53311
349.65982
363.01151
376.17218
387.82575
397.35363
404.64015
409.75989
412.89411
414.4297
414.93262
414.98166
415.06641
415.57619
416.86587
419.38172
423.8642
431.70966
444.28565
300.01118
300.04279
300.10147
300.19299
300.3223
300.49364
300.71047
300.97861
301.31909
301.75644
302.35962
304.21565
309.28366
318.30838
330.44897
344.33972
358.42584
371.3718
382.5062
391.4741
398.22988
403.02711
406.30832
408.57039
410.27788
411.84597
413.68347
416.31676
420.70082
428.28046
300.00027
300.00131
300.00383
300.00877
300.01733
300.03096
300.0514
300.08076
300.1222
300.18053
300.26729
300.45463
301.06518
304.59142
313.79543
326.43758
339.66419
352.40873
364.16344
374.52386
383.2102
390.16151
395.54048
399.64382
402.80737
405.35413
407.59654
409.89713
412.85229
417.46283
323.32667
344.68907
363.7762
381.1368
397.19857
412.1897
426.17719
439.10926
450.80949
460.97937
469.19829
474.97312
477.7069
471.55017
462.79501
452.73528
443.2177
435.62663
430.31104
426.89216
424.79353
423.61422
423.16899
423.41346
424.34794
426.00136
428.50142
432.29064
438.48869
447.93424
300.50211
301.43333
302.68384
304.18659
305.89064
307.75329
309.73107
311.77382
313.82102
315.79443
317.59076
319.08012
320.11167
320.45516
320.23703
320.0036
320.44331
321.85057
324.00842
326.56953
329.33078
332.28237
335.47602
338.98188
342.86364
347.1707
351.92772
357.08491
362.69182
372.16965
300.01114
300.0419
300.09752
300.182
300.29811
300.44759
300.63092
300.84696
301.09275
301.3621
301.64471
301.94578
302.26721
302.608
303.42218
305.5448
309.8087
316.14573
323.34293
330.26742
336.40841
342.41368
348.3795
354.30526
360.078
365.92122
372.11347
378.758
385.96379
393.96666
300.00027
300.00127
300.00363
300.00809
300.01555
300.02701
300.04358
300.06638
300.09663
300.13567
300.18565
300.25582
300.40172
301.04009
303.61087
310.12315
320.4249
332.94411
345.73437
357.66528
367.95221
375.99089
382.41259
387.74779
392.33255
396.15861
399.35778
402.20807
405.07177
408.23935
323.31434
344.70695
363.84133
381.26461
397.41155
412.51949
426.69468
439.97782
452.31883
463.56161
473.42376
481.45323
486.79817
481.97831
473.4742
462.61771
451.43666
441.1649
432.27622
424.88241
418.96459
414.51255
411.56261
410.13211
410.14521
411.40975
413.74902
417.24911
422.96423
434.62258
300.50193
301.43583
302.69142
304.20079
305.91347
307.78895
309.78976
311.87666
314.00181
316.09871
318.07171
319.77293
320.97111
321.27064
320.76973
320.337
320.56244
321.44512
322.9446
325.02946
327.6951
331.01895
335.11528
340.01772
345.64648
351.90643
358.84951
366.32445
374.25026
384.24178
300.01114
300.04201
300.09791
300.18275
300.2992
300.44891
300.63246
300.84909
301.09623
301.3682
301.6534
301.93056
302.16352
302.3556
303.26005
306.39973
310.84464
315.11413
319.43764
324.08528
329.2887
335.45071
342.76715
350.91488
359.28262
367.30514
375.15159
382.6304
389.7615
397.99293
300.00027
300.00128
300.00364
300.00812
300.01558
300.02699
300.0434
300.06585
300.09542
300.13311
300.17981
300.23716
300.32203
300.70102
304.35341
315.46498
326.08487
330.98462
338.44948
348.57266
358.55043
367.0096
373.98245
379.8204
384.8455
389.19851
393.02247
396.53098
401.9802
410.09829
323.30278
344.69867
363.85814
381.33362
397.57609
412.85373
427.32058
441.07304
454.15899
466.57342
478.21338
488.7775
497.38254
495.43146
491.84578
489.35834
488.79124
489.32796
489.71549
489.10719
487.17832
484.11741
480.4123
476.54052
472.7996
469.53576
468
470.79258
479.7236
490.05697
300.50173
301.43633
302.69511
304.21151
305.93736
307.83639
309.8784
312.0353
314.27578
316.55523
318.79489
320.83904
322.39092
322.99402
323.37039
324.42171
325.90899
327.56565
329.29149
331.1814
333.45791
336.40955
340.28542
345.1519
350.9591
357.73687
365.47118
373.58575
385.81979
414.04215
300.01114
300.04205
300.09814
300.18347
300.30094
300.45258
300.63959
300.86228
301.11958
301.40772
301.71661
302.02131
302.27521
302.62288
305.53633
310.62157
314.44209
317.31923
320.28721
324.27193
329.99598
337.80558
347.45256
357.67284
367.33436
376.21579
384.76824
391.79194
399.21593
412.88831
300.00027
300.00128
300.00366
300.00816
300.0157
300.02728
300.04399
300.06702
300.09764
300.13715
300.18706
300.25136
300.3851
301.53423
314.86919
339.47922
348.01492
348.28251
347.41185
350.7692
357.61584
364.93886
371.38536
376.74499
381.73525
386.77446
394.6563
403.80833
415.18987
426.33849
323.29173
344.68199
363.8416
381.32218
397.57559
412.87237
427.36964
441.16462
454.30617
466.77366
478.41939
488.81305
496.80684
492.43311
488.81099
488.21485
490.53165
494.29862
498.57868
502.99611
507.20974
510.91763
513.89056
516.00184
517.25855
517.8673
518.41834
519.99424
523.9892
531.91774
300.5015
301.43616
302.69587
304.2145
305.9443
307.84972
309.90146
312.07233
314.33143
316.63086
318.87626
320.86728
322.23337
322.65698
323.82836
325.52569
327.49432
330.65024
334.72723
338.9025
342.7356
346.63205
351.69306
358.78189
368.08328
379.62189
393.527
410.49888
432.6096
462.50283
300.01113
300.04206
300.09822
300.18377
300.30167
300.45408
300.64239
300.8671
301.12736
301.41916
301.73031
302.02842
302.2689
303.04151
308.70755
312.55522
314.84164
316.42572
318.26655
321.4326
327.14186
336.15173
347.96341
359.57676
368.56598
375.35173
381.96728
392.684
409.71014
435.46313
300.00027
300.00128
300.00366
300.00819
300.01576
300.02742
300.0443
300.06764
300.09879
300.13928
300.1911
300.26315
300.49937
303.46437
343.10061
355.28137
358.91368
361.1282
363.34721
365.76198
369.02533
373.17315
377.54636
381.85851
386.16415
390.92912
396.10977
403.05914
417.8028
437.13279
323.2809
344.66173
363.8131
381.28519
397.52886
412.81499
427.30237
441.08755
454.21471
466.6564
478.24591
488.50471
496.28197
492.16248
489.2726
489.50654
492.29729
496.13631
500.56097
505.22633
509.81421
514.00852
517.50661
520.06462
521.59219
522.29279
522.80992
524.2742
528.29288
536.76005
300.50127
301.4355
302.69463
304.21251
305.94137
307.84558
309.89583
312.06473
314.32034
316.61193
318.83799
320.78515
322.09756
322.68276
323.96776
325.74421
328.14437
332.52245
338.6366
346.31265
355.70997
367.01276
380.18501
394.81731
410.17675
425.65021
441.06274
456.72298
473.47713
494.2681
300.01113
300.04204
300.09818
300.18367
300.3015
300.45381
300.64195
300.8664
301.12616
301.41674
301.72464
302.01591
302.27813
303.40948
308.1665
311.46128
313.41968
314.91044
316.8699
320.01791
325.28192
332.81477
342.05881
352.39714
364.73251
379.07286
395.33619
413.82212
435.51106
462.88535
300.00027
300.00128
300.00366
300.00818
300.01575
300.0274
300.04426
300.06758
300.0987
300.13917
300.19148
300.27311
300.64847
304.83876
342.83552
352.51119
355.31865
357.15675
359.02465
361.81154
366.00011
370.80791
375.56246
379.88427
383.18048
387.55152
394.65212
408.31133
428.99768
455.96129
323.26877
344.63405
363.76599
381.21485
397.42976
412.67824
427.11532
440.83505
453.88896
466.26859
477.86488
488.3548
496.84014
495.01824
492.38079
491.23674
492.01973
493.80331
495.47353
496.31466
495.89523
494.04995
490.82746
486.46138
481.50697
477.05974
474.86053
476.88008
483.66546
494.34591
300.501
301.43424
302.69112
304.2051
305.92799
307.82351
309.86142
312.01328
314.24723
316.51745
318.74093
320.75268
322.25497
322.90971
323.58874
324.81352
326.38906
328.11517
329.95161
331.99921
334.45062
337.49855
341.24099
345.68443
350.89881
357.01346
364.08866
372.32725
387.68428
418.43838
300.01112
300.04199
300.09799
300.18316
300.30039
300.45167
300.63821
300.86019
301.11641
301.40278
301.70821
302.00587
302.25988
302.77998
305.93411
310.05652
313.04592
315.33253
317.87767
321.28493
326.0508
332.51125
340.65474
350.35233
361.72213
374.1765
385.76865
395.61419
406.45045
423.96815
300.00027
300.00128
300.00365
300.00815
300.01567
300.02721
300.04386
300.0668
300.09726
300.13654
300.1863
300.25431
300.45176
302.26451
317.65051
337.0147
344.73864
344.57545
344.72362
350.72647
358.73987
366.46378
373.51857
380.30644
387.52163
395.47192
404.05853
413.09332
424.2774
437.13337
323.25425
344.59185
363.67564
381.04937
397.14438
412.1959
426.31175
439.53089
451.80318
462.97934
472.78208
480.7576
486.04448
481.27699
473.20768
463.21794
452.95855
443.33686
434.78791
427.46826
421.34505
416.37298
412.61572
410.22006
409.30324
409.85322
411.78182
415.07896
420.67723
430.6152
300.50065
301.4321
302.68424
304.18915
305.89626
307.76493
309.7576
311.83521
313.94989
316.0367
317.99945
319.68711
320.86554
321.17436
320.84017
320.61151
320.90145
321.70827
323.05689
324.94861
327.38067
330.44191
334.30011
339.12313
345.01712
352.00986
360.06546
368.96556
378.73791
390.55325
300.01111
300.0419
300.09764
300.1822
300.29821
300.44729
300.62995
300.8454
301.09103
301.36108
301.64381
301.91712
302.14673
302.38677
303.55051
306.5748
310.51369
314.27117
318.21721
322.49838
327.20069
332.77059
339.66077
348.07218
357.84368
368.17014
378.04934
387.01022
397.12225
410.02375
300.00027
300.00128
300.00363
300.00809
300.01552
300.02688
300.04318
300.06547
300.0948
300.13212
300.17839
300.23624
300.33934
300.93363
305.64483
316.08429
325.26891
328.93187
336.71756
347.71251
358.60237
367.64347
375.01391
381.19822
386.64328
391.4275
395.5622
399.46864
408.92962
427.84434
323.24513
344.53274
363.55088
380.84483
396.83883
411.75847
425.67039
438.52608
450.15256
460.26618
468.46012
474.24844
477.0152
470.87546
462.04452
451.80257
442.06982
434.31931
428.99317
425.73858
423.91169
423.00758
422.72778
422.95271
423.68437
425.01399
427.13304
430.42434
435.8935
445.74449
300.50037
301.42829
302.67412
304.1708
305.8673
307.72084
309.68808
311.71912
313.75539
315.72041
317.51212
319.00091
320.03116
320.35785
320.09838
319.78726
320.15175
321.51821
323.69445
326.31237
329.13246
332.13451
335.37567
338.96687
343.04555
347.729
353.06139
358.99941
365.69727
374.44367
300.0111
300.04175
300.09715
300.18125
300.29676
300.44536
300.62746
300.84185
301.08559
301.3526
301.63259
301.9275
302.2397
302.54551
303.27629
305.20753
309.3089
315.53789
322.8414
330.06072
336.53811
343.03736
349.50505
355.85203
361.88696
368.03567
374.715
381.84199
389.43453
397.83782
300.00027
300.00127
300.00361
300.00805
300.01546
300.02684
300.04326
300.06582
300.09567
300.13408
300.18283
300.24912
300.3748
300.87794
303.10257
308.87473
318.18968
330.3787
343.42409
355.91989
366.84119
375.26158
382.01367
387.63175
392.5783
396.71365
400.1103
403.09994
406.10087
411.21508
323.24437
344.75807
364.22322
382.18337
399.09496
415.23917
430.74249
445.52043
459.23495
471.85965
483.29222
493.33883
501.57366
502.6393
501.47342
498.00552
492.74755
486.61752
480.53451
475.14182
470.75482
467.4564
465.20371
463.9129
463.51448
463.99189
465.42117
468.03383
472.39112
479.43923
300.50091
301.44627
302.74086
304.32791
306.16715
308.22801
310.48253
313.0179
316.52176
321.21221
327.80515
336.83262
348.54442
361.51014
374.45911
386.1179
395.82176
403.38875
408.85411
412.36482
414.26423
415.081
415.36568
415.60193
416.20653
417.58314
420.19746
424.72594
432.43394
444.47454
300.01114
300.04262
300.10103
300.19209
300.32066
300.49091
300.70619
300.97174
301.30824
301.73929
302.32722
304.032
308.59833
316.95293
328.46052
341.94015
355.80344
368.82408
380.25503
389.66211
396.91548
402.19601
405.89626
408.49096
410.45045
412.21611
414.21934
416.97255
421.36081
428.65886
300.00027
300.00131
300.00381
300.00873
300.01723
300.03075
300.05099
300.08001
300.12083
300.17798
300.26162
300.43149
300.93862
303.64583
311.54087
323.49817
336.5274
349.39354
361.47326
372.28566
381.48141
388.93201
394.75512
399.22831
402.68883
405.47252
407.90824
410.36527
413.41724
417.95852
)
;

boundaryField
{
    maxY
    {
        type            zeroGradient;
    }
    minX
    {
        type            fixedValue;
        value           uniform 300;
    }
    maxX
    {
        type            inletOutlet;
        inletValue      uniform 300;
        value           nonuniform List<scalar> 
40
(
480.0494
444.34205
428.30946
417.47097
447.96804
372.18319
393.96725
408.24542
434.62989
384.19656
397.88189
409.73578
489.99705
414.13068
412.94012
425.76879
531.85932
462.60289
435.67417
436.83762
536.90328
494.55621
463.26847
455.85018
494.56493
418.79222
424.0438
300
430.79513
390.51149
409.79809
427.48649
445.87482
374.48992
397.80479
411.05322
479.5398
444.61228
428.75426
418.01113
)
;
    }
    minZ
    {
        type            zeroGradient;
    }
    maxZ
    {
        type            zeroGradient;
    }
    topAir_to_rightSolid
    {
        type            compressible::turbulentTemperatureCoupledBaffleMixed;
        refValue        nonuniform List<scalar> 
130
(
746.961
754.8036
762.95301
771.00674
778.67122
785.73962
792.07455
797.58973
802.24671
806.02316
808.87101
810.77627
811.73015
741.16457
750.326
759.63005
768.6191
776.99591
784.57528
791.26535
797.02291
801.83866
805.71671
808.63716
810.58642
811.56311
729.55413
741.73597
753.51665
764.36999
774.07555
782.57552
789.88986
796.07033
801.1663
805.22484
808.26773
810.28948
811.29951
712.1956
730.07044
745.82596
759.31556
770.74074
780.36039
788.4011
795.05089
800.44957
804.70354
807.87849
809.97948
811.02687
691.58651
718.84513
739.32807
755.36066
768.23618
778.72466
787.29461
794.27196
799.87782
804.26571
807.53166
809.68684
810.76244
691.11226
718.37585
738.88756
754.96079
767.88697
778.4272
787.02465
794.01632
799.62651
804.01189
807.28349
809.44336
810.51939
710.8765
728.79264
744.62647
758.21678
769.76221
779.50329
787.61763
794.30954
799.73076
803.99129
807.17493
809.28754
810.33991
727.62373
739.87648
751.76504
762.75566
772.61428
781.26276
788.68243
794.93083
800.07045
804.15785
807.20807
809.23569
810.24924
738.84851
748.09935
757.53933
766.69153
775.22819
782.95339
789.76214
795.62325
800.5073
804.40887
807.33137
809.28035
810.25748
744.40553
752.35967
760.65937
768.89213
776.73412
783.96057
790.43705
796.07375
800.80019
804.59603
807.44667
809.35088
810.30604
)
;
        refGradient     uniform 0;
        valueFraction   uniform 0.99967867;
        value           nonuniform List<scalar> 
130
(
746.87753
754.71565
762.86069
770.9104
778.57131
785.63668
791.96914
797.48242
802.13807
805.91381
808.76162
810.66772
811.62357
741.0664
750.22318
759.52314
768.50863
776.88236
784.45916
791.14716
796.90317
801.7179
805.59551
808.51624
810.46687
811.44627
729.46146
741.63652
753.41104
764.25899
773.96001
782.45629
789.76783
795.94632
801.04105
805.09904
808.14208
810.16502
811.17848
712.12398
729.99319
745.74345
759.2281
770.64861
780.26398
788.30086
794.94731
800.34321
804.59532
807.77015
809.87333
810.92371
691.52311
718.77434
739.25213
755.28091
768.15349
778.63954
787.20742
794.18292
799.78718
804.17383
807.43924
809.59501
810.67282
691.04961
718.30587
738.81248
754.88202
767.80539
778.34336
786.93887
793.92879
799.53741
803.92155
807.19258
809.35305
810.43147
710.80675
728.71767
744.54669
758.13249
769.67362
779.41054
787.52087
794.20905
799.62712
803.88559
807.06889
809.18298
810.23845
727.53237
739.77845
751.66083
762.64595
772.49981
781.14431
788.56082
794.80693
799.94508
804.03179
807.08209
809.11087
810.12731
738.75065
747.99682
757.43271
766.58139
775.11501
782.83764
789.64428
795.50374
800.38665
804.28766
807.21028
809.16041
810.14039
744.32269
752.27232
760.56762
768.79633
776.63474
783.85815
790.33213
795.96689
800.69197
804.48706
807.33762
809.24263
810.19975
)
;
        Tnbr            T;
        thicknessLayers List<scalar> 0();
        kappaLayers     List<scalar> 0();
        kappaMethod     fluidThermo;
        kappa           none;
        alphaAni        none;
        alpha           none;
        field           T;
    }
    topAir_to_heater
    {
        type            compressible::turbulentTemperatureCoupledBaffleMixed;
        refValue        nonuniform List<scalar> 
40
(
728.08865
730.15088
734.17004
739.90854
718.76909
721.19831
725.9742
732.80317
699.25804
702.40437
708.73465
718.02647
667.53388
671.48705
679.9775
693.64451
621.20623
624.79445
634.18411
653.07824
620.87882
624.45506
633.81904
652.6732
666.33355
670.25591
678.69422
692.32509
697.33031
700.46338
706.75963
716.05783
716.32291
718.76227
723.55192
730.42255
725.35219
727.43787
731.48893
737.28065
)
;
        refGradient     uniform 0;
        valueFraction   uniform 0.99967867;
        value           nonuniform List<scalar> 
40
(
728.01647
730.07764
734.09436
739.82931
718.68965
721.11528
725.88641
732.71013
699.18823
702.33082
708.65558
717.94081
667.47859
671.42934
679.91625
693.57868
621.16486
624.75076
634.1372
653.026
620.83746
624.41163
633.77268
652.62168
666.2785
670.19875
678.63398
692.26073
697.26088
700.39035
706.68137
715.97328
716.24404
718.67978
723.46459
730.32989
725.28062
727.36526
731.41391
737.20208
)
;
        Tnbr            T;
        thicknessLayers List<scalar> 0();
        kappaLayers     List<scalar> 0();
        kappaMethod     fluidThermo;
        kappa           none;
        alphaAni        none;
        alpha           none;
        field           T;
    }
    topAir_to_leftSolid
    {
        type            compressible::turbulentTemperatureCoupledBaffleMixed;
        refValue        nonuniform List<scalar> 
130
(
873.38177
873.31709
873.19499
873.01963
872.79258
872.54949
872.32067
872.11892
871.93513
871.76277
871.60067
871.48249
871.41296
873.25556
873.19044
873.06166
872.87813
872.65398
872.41688
872.16759
871.94303
871.73771
871.54147
871.34542
871.19939
871.10734
873.0139
872.9422
872.81064
872.63705
872.4258
872.179
871.90201
871.64316
871.39653
871.15313
870.90634
870.68798
870.55947
872.7303
872.66041
872.53382
872.36067
872.14299
871.88212
871.56769
871.26598
870.96047
870.63684
870.29091
870.04871
869.91968
872.47024
872.39308
872.25154
872.05821
871.81576
871.52872
871.19826
870.86051
870.49929
870.10389
869.75012
869.50284
869.35952
872.19892
872.13202
871.99447
871.77932
871.49869
871.18684
870.84342
870.47758
870.07499
869.65858
869.3271
869.08249
868.93277
871.8778
871.81776
871.69014
871.48564
871.2004
870.85298
870.50831
870.14953
869.77789
869.39395
869.05743
868.82135
868.67413
871.51666
871.46471
871.3503
871.16198
870.89204
870.55567
870.22784
869.89122
869.55527
869.2273
868.9183
868.68065
868.5531
871.22251
871.17438
871.06727
870.89207
870.64268
870.34161
870.03503
869.71512
869.40909
869.11828
868.8532
868.64273
868.523
871.06434
871.01601
870.90949
870.7362
870.48763
870.1986
869.90303
869.60853
869.32966
869.06564
868.83336
868.65043
868.53649
)
;
        refGradient     uniform 0;
        valueFraction   uniform 0.99967867;
        value           nonuniform List<scalar> 
130
(
873.20502
873.14731
873.03153
872.86202
872.64051
872.40271
872.17898
871.98206
871.80276
871.63453
871.47617
871.36127
871.2944
873.07885
873.02062
872.89802
872.72012
872.5012
872.269
872.02428
871.80395
871.60245
871.40954
871.2162
871.07207
870.98093
872.83727
872.77247
872.64709
872.47916
872.27316
872.0313
871.75895
871.50445
871.26187
871.02216
870.77862
870.56291
870.43616
872.55375
872.49076
872.37037
872.20289
871.9905
871.73462
871.42494
871.12774
870.82654
870.50701
870.16492
869.9262
869.79998
872.29377
872.22351
872.08818
871.90053
871.66337
871.38134
871.05564
870.72243
870.36555
869.97429
869.62438
869.38052
869.23981
872.02254
871.96253
871.83118
871.62171
871.3464
871.03955
870.7009
870.3396
869.94136
869.52908
869.20143
868.96019
868.81302
871.70152
871.64836
871.52693
871.32811
871.04816
870.70576
870.36583
870.01158
869.64425
869.26441
868.93173
868.6991
868.55465
871.34049
871.29541
871.18717
871.00449
870.73981
870.40838
870.0852
869.75293
869.42104
869.09676
868.79101
868.55599
868.43019
871.04643
871.00516
870.90419
870.73461
870.49044
870.19426
869.89225
869.57657
869.27437
868.9869
868.72454
868.516
868.39719
870.88831
870.84691
870.74667
870.57922
870.33616
870.05241
869.76192
869.47226
869.19788
868.93801
868.70947
868.52983
868.41857
)
;
        Tnbr            T;
        thicknessLayers List<scalar> 0();
        kappaLayers     List<scalar> 0();
        kappaMethod     fluidThermo;
        kappa           none;
        alphaAni        none;
        alpha           none;
        field           T;
    }
}


// ************************************************************************* //
