/*--------------------------------*- C++ -*----------------------------------*\
| =========                 |                                                 |
| \\      /  F ield         | OpenFOAM: The Open Source CFD Toolbox           |
|  \\    /   O peration     | Version:  v2012                                 |
|   \\  /    A nd           | Website:  www.openfoam.com                      |
|    \\/     M anipulation  |                                                 |
\*---------------------------------------------------------------------------*/
FoamFile
{
    version     2.0;
    format      ascii;
    class       volVectorField;
    location    "370/topAir";
    object      U;
}
// * * * * * * * * * * * * * * * * * * * * * * * * * * * * * * * * * * * * * //

dimensions      [0 1 -1 0 0 0 0];


internalField   nonuniform List<vector> 
1200
(
(0.10415993 -0.0023487267 0.0008776134)
(0.1170655 -0.0024599337 0.0013167813)
(0.12815758 -0.0022811758 0.0014012121)
(0.13678847 -0.0017729677 0.0012729147)
(0.14430689 -0.00099507223 0.00094736459)
(0.15131921 -0.00011140367 0.00038487819)
(0.15805548 0.00078727981 -0.00044277192)
(0.16478646 0.0016261555 -0.001662056)
(0.17168862 0.0024854113 -0.0035287355)
(0.17905367 0.0035379759 -0.0063444625)
(0.18706133 0.0050960499 -0.010497556)
(0.19542947 0.0075400787 -0.01639934)
(0.20281083 0.011299508 -0.024330789)
(0.20775833 0.01590734 -0.034200981)
(0.21021631 0.021137286 -0.045347634)
(0.21075802 0.02621606 -0.056641272)
(0.2097356 0.030545658 -0.066869811)
(0.20737222 0.033857895 -0.075217251)
(0.20401108 0.036064825 -0.081417832)
(0.20025339 0.037161383 -0.085595143)
(0.1968468 0.037261197 -0.088048538)
(0.1944092 0.036610925 -0.089094927)
(0.19322621 0.03548521 -0.089002169)
(0.19324856 0.034115856 -0.087976951)
(0.1941843 0.032693155 -0.086155266)
(0.19551006 0.031443122 -0.083545476)
(0.19626102 0.030771072 -0.079919017)
(0.19451319 0.031548534 -0.074686916)
(0.18682423 0.035796498 -0.066819487)
(0.1446232 0.049615723 -0.054090844)
(0.098695294 -0.0037314187 0.00085565901)
(0.098436244 -0.0045578419 0.0012948797)
(0.098754234 -0.0046409578 0.0014842163)
(0.099479222 -0.004214677 0.0015765203)
(0.10070879 -0.0034626198 0.001600018)
(0.10247692 -0.0026224358 0.001541187)
(0.1047613 -0.0018441295 0.0013775874)
(0.10766515 -0.0012324753 0.001057916)
(0.11167587 -0.0004854457 0.00046450412)
(0.11726476 0.00075578988 -0.00057125602)
(0.12532718 0.0032850867 -0.0023506972)
(0.13625689 0.0081711458 -0.0052616212)
(0.14980045 0.016340571 -0.0098250611)
(0.16427142 0.026906388 -0.016231639)
(0.177714 0.039074342 -0.024097061)
(0.1886501 0.051245498 -0.0324075)
(0.19618265 0.062350136 -0.040117267)
(0.20000884 0.071803694 -0.046648739)
(0.20055504 0.079071355 -0.051877233)
(0.19889892 0.083763226 -0.055863068)
(0.19637892 0.085927652 -0.058687247)
(0.19404864 0.086100204 -0.060383869)
(0.19242277 0.084938939 -0.061002087)
(0.19160048 0.082979339 -0.060628701)
(0.19145708 0.080577636 -0.059331255)
(0.19169311 0.078107041 -0.057018211)
(0.19165514 0.076299298 -0.053255419)
(0.18999566 0.076781441 -0.047001667)
(0.18526249 0.082962626 -0.03607278)
(0.15578424 0.09982626 -0.01568403)
(0.098833492 -0.0028506192 0.00088221625)
(0.098018292 -0.0041329044 0.0013422604)
(0.096410348 -0.004537335 0.0015522852)
(0.094360001 -0.0046264051 0.0016821932)
(0.092329096 -0.0045862261 0.0017842625)
(0.090499427 -0.0045002251 0.0018702043)
(0.088863634 -0.0044646075 0.0019557213)
(0.087349411 -0.0045597581 0.0020759322)
(0.08598532 -0.0046151522 0.0022958054)
(0.085046271 -0.0045336992 0.0026584962)
(0.085037422 -0.0040615861 0.0030942492)
(0.087832687 -0.0017748091 0.0032117337)
(0.096812809 0.0054287447 0.0023225011)
(0.11137968 0.018881639 0.00018909849)
(0.12889966 0.036333764 -0.0031209424)
(0.14609753 0.054606383 -0.0065320344)
(0.16073665 0.071217791 -0.0092635716)
(0.1713724 0.084672609 -0.0112181)
(0.17790476 0.094783585 -0.012685777)
(0.18133423 0.10156145 -0.014048194)
(0.18307906 0.10518374 -0.015474753)
(0.18418271 0.10605268 -0.016819022)
(0.18501736 0.10476165 -0.017727097)
(0.18553719 0.10191239 -0.01800591)
(0.18558275 0.097995421 -0.017614023)
(0.18502173 0.093452855 -0.016378914)
(0.18363554 0.089001106 -0.013897479)
(0.18095683 0.086284632 -0.0093967823)
(0.17724089 0.089049852 -0.0015021007)
(0.1562242 0.10378538 0.012936686)
(0.096869274 -0.0015378177 0.00084778373)
(0.094673675 -0.0022694448 0.0012694519)
(0.090981633 -0.0024935432 0.0014403488)
(0.086442189 -0.0025272865 0.001529102)
(0.081867089 -0.0024700136 0.0015915232)
(0.077499946 -0.0023510049 0.0016430352)
(0.073304707 -0.0022084949 0.0017054445)
(0.069185131 -0.0020841007 0.0018205573)
(0.065011826 -0.0020088735 0.0020608936)
(0.060568886 -0.0021338672 0.0025455655)
(0.055448364 -0.0029147671 0.0034715864)
(0.049218589 -0.0044421401 0.0052436472)
(0.041114101 -0.0047933075 0.008520671)
(0.036670261 0.0023993858 0.013062418)
(0.043107474 0.018564165 0.018115542)
(0.057699415 0.036143938 0.023462622)
(0.074310146 0.050744625 0.028929751)
(0.089695101 0.061998386 0.034272633)
(0.10291215 0.070438602 0.039013947)
(0.1141814 0.076326889 0.042447874)
(0.1240709 0.079746335 0.044531294)
(0.13286954 0.080757933 0.045568677)
(0.14048322 0.079669709 0.045819326)
(0.14659655 0.076947804 0.045555531)
(0.150929 0.073097304 0.045041682)
(0.15341421 0.068590149 0.044565289)
(0.15432051 0.064043163 0.044442229)
(0.15450168 0.060713328 0.044964357)
(0.15778371 0.061526412 0.046032695)
(0.17268312 0.07259638 0.047181738)
(0.10541982 -0.0023482707 0.0010247975)
(0.11917768 -0.00246812 0.0014423635)
(0.13151883 -0.0023742192 0.0014608467)
(0.14149221 -0.002043863 0.0012538553)
(0.15016752 -0.0015432137 0.00084413928)
(0.1580894 -0.001041632 0.00019312877)
(0.16529865 -0.00067381316 -0.00074931706)
(0.17171249 -0.00051549938 -0.0021329544)
(0.17729355 -0.00062503569 -0.0042023777)
(0.18202602 -0.0010727836 -0.0072327144)
(0.1858525 -0.0019748798 -0.011569488)
(0.18868002 -0.0034515459 -0.017522777)
(0.19002104 -0.0055880149 -0.025180172)
(0.18965092 -0.0089327075 -0.034083086)
(0.18901068 -0.012891152 -0.043209495)
(0.18940719 -0.016750428 -0.051278752)
(0.19083174 -0.019619132 -0.057579753)
(0.19238347 -0.021048395 -0.062235399)
(0.19321301 -0.0213588 -0.065638486)
(0.19310386 -0.02124288 -0.068070176)
(0.19245116 -0.021209023 -0.069637745)
(0.19188057 -0.021331533 -0.070386425)
(0.19184012 -0.021498198 -0.070347441)
(0.19248918 -0.021612002 -0.069555241)
(0.19383301 -0.021623582 -0.068039055)
(0.19588127 -0.021402277 -0.065757989)
(0.19862228 -0.020505919 -0.062447464)
(0.20180665 -0.017654254 -0.057566083)
(0.20459237 -0.0092259095 -0.050526915)
(0.1935351 0.01494205 -0.040551708)
(0.09998702 -0.0037410707 0.0010856357)
(0.10067187 -0.0046015609 0.0016597408)
(0.10237753 -0.0048168659 0.0018870701)
(0.10466682 -0.0046384812 0.0019648763)
(0.10737541 -0.0042537793 0.0019373623)
(0.11044975 -0.003900715 0.0017850638)
(0.11380287 -0.0037611205 0.0014685595)
(0.1173556 -0.0039531969 0.0009153517)
(0.1210997 -0.0045894449 6.5597547e-06)
(0.12499389 -0.0058196045 -0.0014207335)
(0.12903047 -0.0078696748 -0.0035513786)
(0.13327603 -0.010957425 -0.0066142838)
(0.13787111 -0.015273388 -0.010806515)
(0.14285265 -0.021375482 -0.015821921)
(0.14840043 -0.028283313 -0.020672904)
(0.15450479 -0.034198328 -0.024041106)
(0.16049136 -0.037139735 -0.025603919)
(0.16528695 -0.036477679 -0.026370661)
(0.16812419 -0.033286484 -0.027352741)
(0.16907325 -0.02935185 -0.02889217)
(0.16893342 -0.02601966 -0.030728749)
(0.16857765 -0.023560453 -0.032453196)
(0.16841419 -0.021738013 -0.033677895)
(0.16851995 -0.020407755 -0.034048391)
(0.16904798 -0.019714744 -0.033222736)
(0.17053317 -0.019782758 -0.030842074)
(0.17410223 -0.020476626 -0.026341859)
(0.18212963 -0.020892704 -0.018702942)
(0.20042285 -0.018753369 -0.0062950003)
(0.2582051 -0.0068707698 0.0087824352)
(0.10013507 -0.0028783042 0.0011063499)
(0.10027765 -0.0041850453 0.0017069013)
(0.10011676 -0.0046313933 0.0019808363)
(0.099770579 -0.004795713 0.0021333864)
(0.099450169 -0.0048686844 0.0022262347)
(0.09927017 -0.0049342417 0.0022619221)
(0.099243037 -0.0050744641 0.002238727)
(0.09934708 -0.00538093 0.0021632625)
(0.09957619 -0.0059714318 0.0020547377)
(0.099933458 -0.0070541247 0.0018942074)
(0.10049371 -0.0089287216 0.0015501081)
(0.10145524 -0.011982211 0.0007599912)
(0.10307509 -0.016749614 -0.00054030014)
(0.10547566 -0.023825718 -0.0018786031)
(0.10897594 -0.032228857 -0.0020100455)
(0.11356673 -0.039389678 0.0015575291)
(0.1194607 -0.041937869 0.0093294436)
(0.12584855 -0.03908772 0.017998883)
(0.13128816 -0.033357498 0.025100476)
(0.13501201 -0.027793692 0.029564962)
(0.13734014 -0.023995406 0.031851339)
(0.13905973 -0.021141007 0.033964103)
(0.14144013 -0.01928907 0.036269905)
(0.14455409 -0.018313725 0.038972483)
(0.1477355 -0.018422163 0.04165761)
(0.15022745 -0.019642533 0.04396721)
(0.1527128 -0.02169933 0.04602753)
(0.15651555 -0.024383934 0.048438041)
(0.1650828 -0.027418692 0.053480418)
(0.19235395 -0.029710001 0.062754159)
(0.098114547 -0.0015646942 0.0010807655)
(0.096818571 -0.0023255065 0.001661985)
(0.094502288 -0.002582178 0.0019212031)
(0.091587299 -0.0026605921 0.0020561381)
(0.088640469 -0.0026633719 0.00212834)
(0.085850059 -0.002622256 0.0021445236)
(0.083213131 -0.0025772728 0.0021102692)
(0.080698147 -0.0025802183 0.0020411394)
(0.078271432 -0.002701386 0.0019697272)
(0.075858518 -0.0030648594 0.0019572288)
(0.073347433 -0.0038979254 0.0021104823)
(0.070581392 -0.005598637 0.0026015764)
(0.067204669 -0.0086420542 0.0035861511)
(0.063006314 -0.012953718 0.0053896406)
(0.058696464 -0.016852599 0.0099332595)
(0.056137534 -0.016195941 0.021560082)
(0.058813504 -0.0080323003 0.043573973)
(0.063903271 0.0037541823 0.065480953)
(0.069384505 0.015661417 0.082723836)
(0.075139125 0.025374905 0.094739022)
(0.082223991 0.032104653 0.10239108)
(0.090617896 0.035068565 0.10592273)
(0.098651887 0.035066753 0.10695756)
(0.10554971 0.033022805 0.10642485)
(0.11090891 0.029777473 0.10469873)
(0.11488625 0.025426621 0.10136101)
(0.11800024 0.020182609 0.095986134)
(0.12107682 0.014604913 0.089613731)
(0.12774579 0.0095456584 0.085048816)
(0.15461446 0.0068922848 0.082596158)
(0.10529265 -0.0023668002 0.00038159767)
(0.11884832 -0.0024847698 0.00062979422)
(0.13109865 -0.0023654758 0.00073894925)
(0.14109397 -0.0019879928 0.00075453831)
(0.14984267 -0.0014284859 0.00070368272)
(0.15781234 -0.00086760989 0.0005912552)
(0.1650084 -0.00041625545 0.00039289375)
(0.17141017 -9.8609672e-05 8.3485996e-05)
(0.17704319 6.1273206e-05 -0.00034977678)
(0.18187892 2.0365317e-05 -0.00093585988)
(0.18583635 -0.00028283292 -0.0017059262)
(0.18878373 -0.0009465998 -0.0026723607)
(0.19008571 -0.0021319039 -0.0037886775)
(0.18931517 -0.0046918095 -0.0049564198)
(0.18795443 -0.0082826632 -0.0058135933)
(0.18723871 -0.012299067 -0.0061338335)
(0.18679369 -0.01619529 -0.0064640356)
(0.18574363 -0.019895588 -0.0075877679)
(0.18387557 -0.023415365 -0.0098126294)
(0.18153694 -0.026730539 -0.012891759)
(0.17927638 -0.029784346 -0.016286931)
(0.17755858 -0.032460192 -0.019449235)
(0.17658482 -0.034591385 -0.021975581)
(0.17626799 -0.036070866 -0.023684057)
(0.17643146 -0.036930845 -0.024573255)
(0.17708934 -0.037387407 -0.024653452)
(0.17865773 -0.037625176 -0.023817188)
(0.18208804 -0.036927637 -0.022546835)
(0.18843433 -0.031415881 -0.023394065)
(0.19257033 -0.010696515 -0.027286012)
(0.099865434 -0.0037513189 0.00038815764)
(0.10032266 -0.0045991478 0.00067012069)
(0.10190961 -0.0047731072 0.00081713216)
(0.10419963 -0.004526682 0.00086771246)
(0.10694672 -0.0040565908 0.0008372198)
(0.11003692 -0.0036072618 0.00071137963)
(0.11334902 -0.0033216033 0.00045914972)
(0.11678307 -0.0032454914 3.9566971e-05)
(0.12027927 -0.003444223 -0.00060154426)
(0.12380171 -0.0040343882 -0.0015550907)
(0.12733864 -0.0051774703 -0.0029212288)
(0.13093264 -0.0071548166 -0.004796593)
(0.13474856 -0.010441246 -0.0072022883)
(0.13885743 -0.016217843 -0.0099215865)
(0.14321278 -0.023616801 -0.012420477)
(0.14730716 -0.029943359 -0.014794676)
(0.14982246 -0.033924131 -0.018181422)
(0.1500665 -0.036354755 -0.022901425)
(0.14854153 -0.037874174 -0.028466625)
(0.14597892 -0.038899127 -0.034223854)
(0.14300133 -0.039753758 -0.039427569)
(0.14001945 -0.040588876 -0.043485647)
(0.13721541 -0.041295493 -0.04604794)
(0.13455464 -0.041767721 -0.047008048)
(0.13204214 -0.042169817 -0.046354939)
(0.12993145 -0.043331285 -0.043949328)
(0.12940318 -0.046140864 -0.039598439)
(0.13495484 -0.049338446 -0.034931799)
(0.15358543 -0.046468369 -0.037936968)
(0.20908801 -0.028088698 -0.053774334)
(0.10001797 -0.0028725033 0.00039401963)
(0.099944923 -0.0041721658 0.00068361979)
(0.099675211 -0.0045977426 0.00084781802)
(0.099344262 -0.0047290975 0.00092258399)
(0.09909351 -0.0047562034 0.00092159241)
(0.098991004 -0.0047554408 0.00083068374)
(0.099024176 -0.0047907028 0.00062066464)
(0.099145707 -0.0049271522 0.00024855167)
(0.099313074 -0.0052588043 -0.00035203772)
(0.099512526 -0.0059378582 -0.0012824757)
(0.099703345 -0.0072144937 -0.0026654316)
(0.099813414 -0.0095520022 -0.0046961948)
(0.099869701 -0.013782216 -0.0075791672)
(0.10008318 -0.021210962 -0.011277186)
(0.10016372 -0.030765654 -0.015044851)
(0.099339131 -0.036682642 -0.018494735)
(0.096490429 -0.037621577 -0.022303365)
(0.092459947 -0.036633634 -0.024863875)
(0.088361198 -0.035260368 -0.027243239)
(0.083882193 -0.034667054 -0.031167414)
(0.079037329 -0.035362846 -0.035277348)
(0.074166265 -0.037033578 -0.037849711)
(0.069991258 -0.039004951 -0.038175403)
(0.067149887 -0.040932164 -0.03606625)
(0.066189929 -0.042973202 -0.030897906)
(0.067334917 -0.04617293 -0.02273954)
(0.070063018 -0.052016873 -0.012746442)
(0.080126025 -0.059374933 -0.0054770417)
(0.098693967 -0.06306341 -0.015326278)
(0.14779348 -0.057149122 -0.046295285)
(0.098000029 -0.0015594152 0.00038434346)
(0.096492323 -0.0023146762 0.00066197093)
(0.094069834 -0.0025627125 0.00081571567)
(0.09117084 -0.0026303161 0.00088135963)
(0.088294742 -0.0026192326 0.00087306344)
(0.085583516 -0.0025584267 0.00077760128)
(0.083009491 -0.0024831324 0.00056653558)
(0.080517524 -0.0024364757 0.00019689437)
(0.078048741 -0.0024722462 -0.00040033996)
(0.075536727 -0.0026776561 -0.001328366)
(0.072821151 -0.0032288332 -0.0027376641)
(0.069557895 -0.0044912131 -0.0049320396)
(0.065130954 -0.007305992 -0.0085456609)
(0.058600066 -0.013615394 -0.014869758)
(0.047851012 -0.022608517 -0.024893835)
(0.033155247 -0.024147099 -0.03342415)
(0.021900841 -0.0189953 -0.030018593)
(0.0255604 -0.013218103 -0.001122747)
(0.032192627 -0.0037111994 0.035107744)
(0.036569789 0.0057115297 0.058911409)
(0.042900933 0.012495961 0.072314287)
(0.050455638 0.015925611 0.078754933)
(0.057745891 0.01648384 0.081022524)
(0.063759697 0.014746732 0.08067384)
(0.067390549 0.010980442 0.078276479)
(0.067264139 0.0048791177 0.073322709)
(0.065050928 -0.0042809261 0.065269656)
(0.068075645 -0.015775304 0.053006067)
(0.070201548 -0.021567358 0.015293921)
(0.10641451 -0.014220816 -0.042987913)
(0.10526138 -0.0023674975 0.0002197649)
(0.11873557 -0.0024813561 0.00039450783)
(0.13089927 -0.0023490755 0.00050435505)
(0.14083019 -0.0019440462 0.00055454246)
(0.14954298 -0.0013332774 0.00055387774)
(0.15751379 -0.00068487955 0.00050592877)
(0.16479052 -9.3315742e-05 0.00041171795)
(0.17137571 0.0004219994 0.00028480513)
(0.17731061 0.00086498506 0.00012375662)
(0.1826633 0.0012440699 -6.8278988e-05)
(0.18752169 0.0015472019 -0.00025696493)
(0.19198976 0.0017226277 -0.00034736263)
(0.19570272 0.0016424098 -0.00010515006)
(0.19863018 0.000555184 0.00085795482)
(0.20251556 -0.00019198907 0.0032899232)
(0.20770493 0.00040085111 0.0071453765)
(0.21248291 0.0014662359 0.011574738)
(0.21569687 0.0019924344 0.015979225)
(0.21739646 0.0016058782 0.020097306)
(0.21820906 0.00035423855 0.023804336)
(0.21868657 -0.0015480574 0.027064881)
(0.21907058 -0.0038035458 0.029981035)
(0.21923399 -0.0061344849 0.032754166)
(0.21883589 -0.0084016877 0.035477491)
(0.21768953 -0.010609876 0.037925568)
(0.2160955 -0.012500965 0.03961774)
(0.21465621 -0.012630428 0.039717534)
(0.2128421 -0.0082681148 0.037374044)
(0.20530242 0.0034322351 0.030558526)
(0.14379264 0.032864814 0.010779105)
(0.099836807 -0.003751751 0.00023022456)
(0.10019891 -0.0045937037 0.00043055007)
(0.10166304 -0.0047479298 0.00056596342)
(0.10383812 -0.0044598712 0.00063407311)
(0.1064776 -0.0039138982 0.00063879889)
(0.10945575 -0.0033368397 0.00057601669)
(0.11264773 -0.0028476055 0.00043323122)
(0.11594813 -0.0024774208 0.00019216006)
(0.11929994 -0.0022479967 -0.00017637234)
(0.12269932 -0.0022131056 -0.00070701309)
(0.12621724 -0.002521409 -0.0014238152)
(0.1300816 -0.0035056344 -0.0022886946)
(0.13481796 -0.005809826 -0.0030842188)
(0.14097246 -0.010582034 -0.0031949073)
(0.14856956 -0.014022248 -0.0017501262)
(0.15621981 -0.012690829 8.7159335e-05)
(0.16133956 -0.0097836161 0.00073255021)
(0.16342898 -0.0082184328 -0.00043951916)
(0.16320569 -0.0088617935 -0.0033335414)
(0.16152956 -0.011178151 -0.0076019317)
(0.15899979 -0.014344404 -0.01251241)
(0.1559897 -0.017648815 -0.016962219)
(0.1524393 -0.020550742 -0.019937256)
(0.14810129 -0.022980566 -0.020994712)
(0.14295932 -0.025444579 -0.020377246)
(0.13802438 -0.02873302 -0.018423595)
(0.13646499 -0.030221048 -0.019585449)
(0.14273193 -0.022022639 -0.028084175)
(0.15937788 0.0019861849 -0.041742031)
(0.17059111 0.045282046 -0.056882749)
(0.099990572 -0.002869338 0.00023242102)
(0.09982609 -0.0041656682 0.00043446665)
(0.099433225 -0.004582024 0.00057579734)
(0.098979115 -0.0046949058 0.00065175685)
(0.098604119 -0.0046902475 0.00066281016)
(0.098361415 -0.0046365014 0.00060064997)
(0.098225746 -0.0045851649 0.00044666655)
(0.098134161 -0.0045851468 0.00017239669)
(0.098020921 -0.0047077173 -0.0002630785)
(0.097826183 -0.0050894853 -0.00092301899)
(0.097493403 -0.0060260998 -0.0019091249)
(0.097052336 -0.0081635871 -0.0033061311)
(0.096955131 -0.012838372 -0.005050308)
(0.097844956 -0.022011069 -0.0064694234)
(0.09872819 -0.028653886 -0.0057512642)
(0.10003869 -0.025282489 -0.0034118222)
(0.096629306 -0.019575926 -0.0026570162)
(0.088189368 -0.0152855 -0.0053917824)
(0.077406467 -0.014479208 -0.011208735)
(0.067014834 -0.017371675 -0.017375611)
(0.057678718 -0.022262531 -0.021890289)
(0.049442561 -0.027242354 -0.023734223)
(0.042090767 -0.031327566 -0.022511549)
(0.036438284 -0.034792402 -0.018149759)
(0.032380922 -0.038685034 -0.010555475)
(0.032467039 -0.045391306 -0.001536281)
(0.036445329 -0.050362749 -0.012186193)
(0.052750551 -0.039360554 -0.041227701)
(0.080082472 -0.01724434 -0.066157041)
(0.10906785 0.020641844 -0.091303636)
(0.097973113 -0.0015608964 0.00022665811)
(0.096376396 -0.0023181024 0.00042079521)
(0.09383368 -0.0025657464 0.0005540008)
(0.090812994 -0.0026293427 0.00062165333)
(0.087812426 -0.0026092867 0.00062372437)
(0.084956597 -0.0025317995 0.00055102638)
(0.08219786 -0.0024281972 0.00038220399)
(0.079448151 -0.0023373911 8.1942961e-05)
(0.076598299 -0.002312628 -0.00040531475)
(0.073472702 -0.0024462858 -0.0011839313)
(0.069722343 -0.00295373 -0.0024628676)
(0.064663638 -0.0043912675 -0.0046226278)
(0.056880353 -0.0083477176 -0.0084576883)
(0.04455511 -0.018737741 -0.015788943)
(0.019666204 -0.023814389 -0.02757475)
(-0.010907208 -0.0079800707 -0.030490495)
(-0.031493712 0.0014467964 -0.025577135)
(-0.040739689 0.0014129459 -0.016440113)
(-0.033500689 -0.0017073827 0.0014005722)
(-0.021126792 -0.0024322066 0.022013983)
(-0.011665982 -0.0019709434 0.033810861)
(-0.001065625 -0.0020506238 0.039560973)
(0.007093494 -0.0038974269 0.041303037)
(0.012133613 -0.0074371127 0.041401138)
(0.01308194 -0.013015681 0.040729456)
(0.010127118 -0.022614988 0.037198646)
(-0.0078899154 -0.033609629 -0.0015324197)
(-0.0221086 -0.017569253 -0.063253658)
(-0.010234053 0.013887151 -0.10103061)
(0.037262414 0.038418964 -0.12977809)
(0.10524314 -0.0023698575 7.9024978e-05)
(0.11867393 -0.0024860302 0.00013889949)
(0.13078902 -0.0023549209 0.00017558832)
(0.14067906 -0.0019492148 0.00019216557)
(0.14936113 -0.0013349941 0.00019270438)
(0.15730776 -0.00068057054 0.000180079)
(0.16456128 -8.1572359e-05 0.0001554486)
(0.17111725 0.0004404133 0.00011808167)
(0.17702351 0.00088923269 6.5877935e-05)
(0.18235377 0.0012602973 3.0073994e-06)
(0.18720713 0.0015201055 -6.1654635e-05)
(0.19175559 0.0015816624 -9.1301114e-05)
(0.19574531 0.001280251 3.2788776e-05)
(0.19948558 -3.5368568e-05 0.00052568156)
(0.20494115 0.00013023948 0.0016620637)
(0.21133375 0.0013895612 0.0031541164)
(0.21701643 0.0027524617 0.0046924114)
(0.2213168 0.0040420348 0.0064179981)
(0.22478669 0.0053940036 0.0087334523)
(0.22820886 0.0065631431 0.011970046)
(0.23227473 0.0073521847 0.016310853)
(0.23728574 0.0079931757 0.021751388)
(0.24284263 0.0090049131 0.028061955)
(0.24788994 0.010644275 0.034828437)
(0.25122406 0.012590973 0.041462271)
(0.25162144 0.015019209 0.047049326)
(0.24729185 0.018700149 0.050054597)
(0.23508094 0.02524293 0.048334707)
(0.21091025 0.037628173 0.039414393)
(0.11900293 0.066508614 0.021575906)
(0.099820298 -0.0037537246 8.7879435e-05)
(0.10013399 -0.0045973781 0.00016376873)
(0.10153443 -0.0047508 0.00021792914)
(0.10364812 -0.0044581939 0.00024993014)
(0.10623023 -0.0039027959 0.00026161798)
(0.10914721 -0.0033115644 0.00025293142)
(0.11226518 -0.0028045909 0.00022211467)
(0.11547361 -0.0024163392 0.00016290962)
(0.11871284 -0.0021711616 6.9410094e-05)
(0.12198325 -0.0021503165 -6.256651e-05)
(0.12539764 -0.0025644747 -0.00022430366)
(0.12932947 -0.0038770054 -0.00035637089)
(0.13467216 -0.006896058 -0.00027376562)
(0.14205708 -0.012041448 0.00040362566)
(0.15149399 -0.010690847 0.0019798989)
(0.15952442 -0.0063953445 0.0030275682)
(0.16516372 -0.0027059101 0.0031603902)
(0.16960035 -0.00053869306 0.0028804645)
(0.17360513 0.00013887162 0.0026979278)
(0.17676495 -0.00025231132 0.0026200453)
(0.17914031 -0.0010673656 0.0025623436)
(0.18146433 -0.0014310391 0.0025514524)
(0.18492152 -8.7603354e-05 0.0028289988)
(0.19078953 0.0039123681 0.0039453684)
(0.19961077 0.010968404 0.0063362256)
(0.20767908 0.020519876 0.0091017989)
(0.21227055 0.032443794 0.010353445)
(0.20985407 0.048011502 0.0071829902)
(0.19943534 0.071036 -0.0030050661)
(0.14815616 0.10825615 -0.021159414)
(0.099974115 -0.0028687745 8.8709042e-05)
(0.099761833 -0.0041652929 0.00016506384)
(0.099303626 -0.0045801835 0.00022122003)
(0.098781659 -0.0046889951 0.00025596941)
(0.098336704 -0.0046775429 0.00026961792)
(0.098011922 -0.0046142006 0.00026006296)
(0.097768582 -0.0045510682 0.00022293176)
(0.09753052 -0.0045398491 0.00014685503)
(0.097210963 -0.004658555 1.7094179e-05)
(0.096711463 -0.0050789576 -0.0001880697)
(0.095948464 -0.0061970037 -0.00049388017)
(0.095044502 -0.0089293672 -0.00090008492)
(0.0950823 -0.015243925 -0.0013085262)
(0.095587214 -0.027397382 -0.0014643822)
(0.099217877 -0.023658599 0.001004104)
(0.10063047 -0.016465089 0.0026168044)
(0.097453724 -0.0099122944 0.0019129529)
(0.091593903 -0.0044313589 0.00010874612)
(0.083556705 -0.0015874962 -0.0022433352)
(0.073276029 -0.0027158762 -0.0052733362)
(0.060524668 -0.0072512858 -0.0090635291)
(0.046810975 -0.012959845 -0.013186617)
(0.035296155 -0.016980299 -0.017115772)
(0.032643036 -0.017944522 -0.020559863)
(0.040115315 -0.014712464 -0.023477287)
(0.064307182 -0.0052076874 -0.024447953)
(0.095945309 0.010146378 -0.025970434)
(0.11371914 0.031406336 -0.032032742)
(0.12352727 0.061106775 -0.043573269)
(0.10781015 0.10169722 -0.058775774)
(0.097956773 -0.0015605082 8.6646054e-05)
(0.096312794 -0.0023173665 0.00016002551)
(0.093704927 -0.0025638865 0.00021288717)
(0.090614686 -0.0026253908 0.00024389255)
(0.087539581 -0.0026024147 0.00025283113)
(0.084591374 -0.0025212328 0.00023696612)
(0.081703149 -0.0024139701 0.00018901246)
(0.0787662 -0.0023218393 9.2721195e-05)
(0.075620005 -0.0023015493 -7.726403e-05)
(0.071971888 -0.0024712452 -0.00037485871)
(0.067249973 -0.0031273124 -0.00090764481)
(0.060246572 -0.0051103082 -0.001905513)
(0.048210599 -0.011076724 -0.0039598213)
(0.027957583 -0.026935662 -0.0087135513)
(-0.029925672 -0.0057402687 -0.016486774)
(-0.051054015 0.0048489301 -0.012622366)
(-0.071820819 0.0066282215 -0.012506913)
(-0.083440549 0.0051665643 -0.011491005)
(-0.086958781 0.0010034383 -0.0096094937)
(-0.081761441 -0.0043862636 -0.0071622464)
(-0.071765493 -0.0091377981 -0.0057309797)
(-0.061353555 -0.012998039 -0.006829552)
(-0.051777855 -0.016504803 -0.0094324272)
(-0.043518636 -0.019956329 -0.012063291)
(-0.036638885 -0.022016284 -0.014059246)
(-0.031603957 -0.018228033 -0.02031822)
(-0.025167214 -0.0018988914 -0.038187137)
(-0.010084045 0.024663075 -0.053911513)
(0.0035394666 0.056320957 -0.07088819)
(0.03278483 0.089469422 -0.082553834)
(0.10524097 -0.0023689146 -3.0376183e-05)
(0.11866868 -0.002484857 -5.5432369e-05)
(0.13078317 -0.0023534433 -6.3963067e-05)
(0.1406748 -0.0019475818 -5.363945e-05)
(0.14936029 -0.0013335329 -2.5967249e-05)
(0.15731291 -0.00067945457 1.8980352e-05)
(0.16457679 -7.8997587e-05 8.4014851e-05)
(0.17114979 0.00044565642 0.00017525983)
(0.17707886 0.00089600177 0.00030030827)
(0.18243863 0.0012659796 0.00046965468)
(0.18734011 0.0015180947 0.00069343779)
(0.19198757 0.0015530668 0.00097128899)
(0.19620488 0.0012120332 0.0012648099)
(0.20039854 4.8489147e-05 0.0015020765)
(0.20637271 0.00036180417 0.0014010085)
(0.21329802 0.001625837 0.001009512)
(0.21970303 0.0030170487 0.00060687834)
(0.22516876 0.0046136866 0.00028276313)
(0.23042658 0.0067003857 -6.1615296e-05)
(0.23606238 0.0092753827 -0.00056623121)
(0.24228073 0.012397119 -0.0015041128)
(0.24868757 0.016129831 -0.0032941324)
(0.25440237 0.020313867 -0.0063466894)
(0.258411 0.024659402 -0.01078321)
(0.25978906 0.028904525 -0.016195257)
(0.25745048 0.033197558 -0.021668306)
(0.24941728 0.038148061 -0.025930438)
(0.23223461 0.044766426 -0.027449905)
(0.20218487 0.055022065 -0.023753277)
(0.10161781 0.077265872 -0.012486061)
(0.09982111 -0.0037522842 -1.9131585e-05)
(0.10013716 -0.0045953857 -3.0131257e-05)
(0.10154128 -0.0047482084 -1.8896364e-05)
(0.10366011 -0.0044551601 1.8111942e-05)
(0.10624927 -0.0038996915 8.0500383e-05)
(0.1091779 -0.0033084805 0.00017036027)
(0.11231246 -0.0027992753 0.00029246709)
(0.11554188 -0.0024077863 0.00045777324)
(0.1188103 -0.0021629143 0.0006827959)
(0.1221287 -0.0021504722 0.00098741668)
(0.12563646 -0.0025922949 0.0013919199)
(0.12975975 -0.0039706582 0.001899365)
(0.13544325 -0.0070101945 0.0024526093)
(0.14331989 -0.011276096 0.0028204571)
(0.15325522 -0.0092781656 0.0023807862)
(0.16166232 -0.0050404547 0.001998263)
(0.16812708 -0.0015024441 0.0021787658)
(0.17436325 0.0011249166 0.002816383)
(0.18106087 0.0033776976 0.0037319634)
(0.18839295 0.0061734328 0.0049298859)
(0.19708102 0.010491825 0.0061422909)
(0.207071 0.017044439 0.0067152535)
(0.21765988 0.025923302 0.0059352865)
(0.22790834 0.036437025 0.0035694519)
(0.23668864 0.047964059 0.0002547945)
(0.24226508 0.060631712 -0.0030634868)
(0.24134694 0.074835209 -0.005220862)
(0.22889799 0.090788959 -0.0050131551)
(0.20212472 0.10946732 -0.00053154243)
(0.10890683 0.1361911 0.010891365)
(0.099975 -0.0028680633 -1.7723945e-05)
(0.099765614 -0.0041641403 -2.6945565e-05)
(0.099312211 -0.0045786103 -1.3187966e-05)
(0.098796841 -0.0046870142 2.8497458e-05)
(0.098360877 -0.0046751954 9.9579437e-05)
(0.098051023 -0.004611007 0.00020432733)
(0.097828319 -0.0045469812 0.00035016147)
(0.09761382 -0.0045353842 0.00055419992)
(0.097324508 -0.0046587215 0.00084274457)
(0.09687638 -0.0050954493 0.0012555224)
(0.096226105 -0.0062603215 0.001852872)
(0.095600464 -0.0091054415 0.0027216789)
(0.096220322 -0.015499754 0.0039810985)
(0.097402757 -0.025990679 0.0057509954)
(0.10390707 -0.021309392 0.0050617674)
(0.10583276 -0.014645398 0.0039956552)
(0.10383478 -0.0088047528 0.0043789107)
(0.09999429 -0.0036255184 0.005936406)
(0.096120639 -7.6138274e-05 0.0085524467)
(0.093581075 0.0012074075 0.012033753)
(0.0921714 0.0012799049 0.015021599)
(0.095130565 0.0021258839 0.016317624)
(0.10432422 0.0057237929 0.015585634)
(0.12063305 0.013404174 0.013335141)
(0.13862394 0.025313775 0.0088577741)
(0.15578031 0.040954109 0.0040383904)
(0.16726829 0.058682437 0.0015012086)
(0.16668073 0.079515892 0.003381579)
(0.15203266 0.10622855 0.011056568)
(0.075026643 0.14333604 0.024101434)
(0.097957587 -0.0015602486 -1.6690183e-05)
(0.096316451 -0.0023168938 -2.4496601e-05)
(0.09371351 -0.0025632015 -9.0692323e-06)
(0.0906302 -0.0026244988 3.4984098e-05)
(0.087565201 -0.0026013291 0.00010982112)
(0.084632981 -0.0025195064 0.00022057641)
(0.081765917 -0.0024120443 0.00037808815)
(0.078849381 -0.0023201484 0.00060370538)
(0.075721888 -0.0023042092 0.00093381437)
(0.072096614 -0.0024896509 0.0014346067)
(0.067408525 -0.0031998478 0.0022307962)
(0.060466328 -0.0053702826 0.0035901882)
(0.048705282 -0.011763634 0.0062283015)
(0.028038779 -0.026101229 0.012644079)
(-0.02177137 -0.0021720123 0.023238485)
(-0.038901228 0.0047228198 0.015364495)
(-0.058374865 0.0056529028 0.0094523584)
(-0.069243946 0.0038351317 0.0031282611)
(-0.071777745 -0.00045816016 -0.0046694315)
(-0.06683458 -0.0053628925 -0.013912805)
(-0.058593099 -0.0094028345 -0.021786302)
(-0.049836518 -0.012739445 -0.027792059)
(-0.041147709 -0.014775367 -0.032501722)
(-0.031920352 -0.014085838 -0.035314063)
(-0.017743824 -0.0084249566 -0.032105505)
(0.0044512305 0.0093275618 -0.01820439)
(0.024743017 0.033822923 -0.011969504)
(0.027000216 0.056182093 -0.0037175276)
(0.026320487 0.086725761 0.019262823)
(-0.011730334 0.12742565 0.069612321)
(0.10525495 -0.0023644071 -0.00017798579)
(0.11872017 -0.0024777236 -0.00032470816)
(0.13088273 -0.002344786 -0.00041386236)
(0.14082009 -0.0019390271 -0.00044560636)
(0.14954581 -0.001327342 -0.0004265807)
(0.15753697 -0.00067756268 -0.00035864333)
(0.16484336 -8.5272468e-05 -0.00024122152)
(0.17146665 0.00043007669 -8.2536811e-05)
(0.17746221 0.00087929864 0.00012460783)
(0.18291114 0.0012676942 0.00038152671)
(0.18790767 0.001580904 0.00066255913)
(0.19258218 0.0017640783 0.00087956821)