/*--------------------------------*- C++ -*----------------------------------*\
| =========                 |                                                 |
| \\      /  F ield         | OpenFOAM: The Open Source CFD Toolbox           |
|  \\    /   O peration     | Version:  v2012                                 |
|   \\  /    A nd           | Website:  www.openfoam.com                      |
|    \\/     M anipulation  |                                                 |
\*---------------------------------------------------------------------------*/
FoamFile
{
    version     2.0;
    format      ascii;
    class       surfaceScalarField;
    location    "680/topAir";
    object      phi;
}
// * * * * * * * * * * * * * * * * * * * * * * * * * * * * * * * * * * * * * //

dimensions      [1 0 -1 0 0 0 0];
oriented        oriented;


internalField   nonuniform List<scalar> 
3140
(
9.5053231e-06
-3.079418e-07
7.160089e-08
9.6930951e-06
-2.688483e-07
8.1087193e-08
9.8716394e-06
-2.4823101e-07
6.9709311e-08
1.001532e-05
-1.9517161e-07
5.1531455e-08
1.0118246e-05
-1.3090069e-07
2.8036342e-08
1.0190706e-05
-7.201478e-08
-3.6107899e-10
1.0267934e-05
-2.4969997e-08
-5.215763e-08
1.0370967e-05
1.7877754e-08
-1.2082394e-07
1.051001e-05
8.1704278e-08
-2.2067564e-07
1.0706969e-05
1.6699807e-07
-3.6390209e-07
1.0956558e-05
3.1599268e-07
-5.6554538e-07
1.123128e-05
5.6330429e-07
-8.3800187e-07
1.1479166e-05
9.3629558e-07
-1.184148e-06
1.1712661e-05
1.3710787e-06
-1.6045109e-06
1.1897384e-05
1.8613461e-06
-2.0459588e-06
1.2011942e-05
2.3438803e-06
-2.4582869e-06
1.2040311e-05
2.7747469e-06
-2.8029649e-06
1.1981108e-05
3.1248219e-06
-3.0655121e-06
1.185621e-05
3.3743505e-06
-3.2494e-06
1.1705823e-05
3.5156841e-06
-3.3652667e-06
1.1569675e-05
3.5606223e-06
-3.4244038e-06
1.1474225e-05
3.5324629e-06
-3.4368414e-06
1.143081e-05
3.45396e-06
-3.4102391e-06
1.1437703e-05
3.3428101e-06
-3.349276e-06
1.1479058e-05
3.2136593e-06
-3.2545271e-06
1.1514584e-05
3.0845481e-06
-3.1196025e-06
1.1458941e-05
2.9846672e-06
-2.9286228e-06
1.1141701e-05
2.9712787e-06
-2.6537475e-06
1.0212665e-05
3.1778913e-06
-2.2487213e-06
3.9334348e-06
-1.6508575e-06
9.1126737e-06
-2.3033945e-07
7.8693241e-08
9.0860335e-06
-3.4415307e-07
1.0194545e-07
9.0930102e-06
-3.6239717e-07
1.0719122e-07
9.1469637e-06
-3.567493e-07
1.0762796e-07
9.2463451e-06
-3.3304891e-07
1.0277292e-07
9.3854315e-06
-3.0159055e-07
9.0497097e-08
9.5676264e-06
-2.7567778e-07
6.8520814e-08
9.8096637e-06
-2.58357e-07
3.4257174e-08
1.0137167e-05
-2.2752944e-07
-1.8311546e-08
1.0579349e-05
-1.6554074e-07
-1.0985308e-07
1.1161011e-05
-2.1880342e-08
-2.4400157e-07
1.1867808e-05
2.920771e-07
-4.3556109e-07
1.2610198e-05
8.8995925e-07
-6.956973e-07
1.3268045e-05
1.7124881e-06
-9.98634e-07
1.3764417e-05
2.6542971e-06
-1.2886282e-06
1.4034657e-05
3.5836989e-06
-1.5094728e-06
1.4065111e-05
4.389334e-06
-1.6446597e-06
1.3898604e-05
5.0221888e-06
-1.7306392e-06
1.3615119e-05
5.4684592e-06
-1.8104096e-06
1.3305246e-05
5.7309483e-06
-1.9050068e-06
1.3029934e-05
5.8324946e-06
-1.9958965e-06
1.2814978e-05
5.8082154e-06
-2.0598246e-06
1.2664462e-05
5.6895566e-06
-2.0838475e-06
1.257029e-05
5.4984672e-06
-2.060102e-06
1.2513983e-05
5.2492746e-06
-1.9779211e-06
1.2454757e-05
4.962366e-06
-1.8173389e-06
1.2311999e-05
4.678627e-06
-1.5501772e-06
1.1939886e-05
4.4885559e-06
-1.1444419e-06
1.1102629e-05
4.5792243e-06
-5.6363841e-07
5.1765287e-06
2.734322e-07
9.1685352e-06
-2.1066619e-07
8.0752255e-08
8.9987073e-06
-2.8044626e-07
1.0612079e-07
8.8155373e-06
-2.937446e-07
1.1451721e-07
8.6315095e-06
-2.929718e-07
1.2025007e-07
8.4591242e-06
-2.8509899e-07
1.2443503e-07
8.3035578e-06
-2.7264718e-07
1.2662225e-07
8.161444e-06
-2.611738e-07
1.2760794e-07
8.0298614e-06
-2.5650316e-07
1.2972496e-07
7.9267622e-06
-2.607159e-07
1.3627515e-07
7.8959163e-06
-2.8099214e-07
1.4627873e-07
8.0527414e-06
-3.3143087e-07
1.5271703e-07
8.5576174e-06
-3.4589703e-07
1.3335546e-07
9.4620205e-06
-8.477765e-08
7.1165709e-08
1.0666301e-05
5.1922376e-07
-9.851332e-09
1.1759589e-05
1.5962287e-06
-3.4004242e-08
1.2558477e-05
2.7165724e-06
6.9189376e-08
1.2974488e-05
3.5944002e-06
3.7948592e-07
1.3074601e-05
4.2332803e-06
6.8899027e-07
1.2976313e-05
4.6614335e-06
9.0528752e-07
1.2809165e-05
4.9050661e-06
9.9298806e-07
1.2650011e-05
4.9841402e-06
1.0076244e-06
1.2517412e-05
4.9238213e-06
1.0173637e-06
1.2404889e-05
4.760917e-06
1.0418023e-06
1.2297298e-05
4.5291178e-06
1.0777989e-06
1.2184311e-05
4.2543692e-06
1.1088742e-06
1.2044615e-05
3.9540699e-06
1.1489964e-06
1.1847132e-05
3.6616511e-06
1.2153992e-06
1.1557887e-05
3.4514633e-06
1.3271243e-06
1.1100608e-05
3.4994734e-06
1.5375197e-06
4.1664142e-06
1.7933515e-06
8.9794089e-06
7.8877361e-08
8.5959349e-06
1.030275e-07
8.191882e-06
1.1030805e-07
7.7845381e-06
1.1437185e-07
7.382763e-06
1.1667586e-07
6.9929172e-06
1.1719818e-07
6.6146107e-06
1.171321e-07
6.2393287e-06
1.1877756e-07
5.8527854e-06
1.2582535e-07
5.4285748e-06
1.4321472e-07
4.9146178e-06
1.8252113e-07
4.3059369e-06
2.6278205e-07
3.8185875e-06
4.0255527e-07
3.7424918e-06
5.954367e-07
4.4177073e-06
9.2072013e-07
5.5577004e-06
1.5758601e-06
6.5446168e-06
2.6065302e-06
7.3138086e-06
3.4629364e-06
7.9307898e-06
4.0432e-06
8.4636477e-06
4.3710347e-06
8.9389883e-06
4.5078716e-06
9.3541878e-06
4.5080173e-06
9.6867056e-06
4.4281151e-06
9.9201697e-06
4.2956338e-06
1.0043581e-05
4.1311196e-06
1.0072473e-05
3.9254325e-06
1.0040778e-05
3.6936117e-06
1.0064331e-05
3.4281056e-06
1.0465434e-05
3.0983837e-06
2.4307505e-06
9.6170859e-06
-3.0767164e-07
3.1168413e-08
9.9201521e-06
-2.6995821e-07
4.7988636e-08
1.0202142e-05
-2.6200769e-07
4.9746927e-08
1.0436495e-05
-2.2651753e-07
4.3733664e-08
1.0616907e-05
-1.8429403e-07
3.1978729e-08
1.0756236e-05
-1.5238581e-07
1.2783491e-08
1.0856717e-05
-1.3899809e-07
-1.3523585e-08
1.0929417e-05
-1.4701308e-07
-4.6369497e-08
1.0983619e-05
-1.8224354e-07
-9.2478487e-08
1.1028255e-05
-2.5215372e-07
-1.5622521e-07
1.1073073e-05
-3.6722635e-07
-2.4297888e-07
1.1130721e-05
-5.3874039e-07
-3.5672973e-07
1.1222012e-05
-7.792618e-07
-4.9590604e-07
1.1429812e-05
-1.1556504e-06
-6.5622101e-07
1.1745834e-05
-1.5544179e-06
-8.0697402e-07
1.2117791e-05
-1.8901031e-06
-9.3957292e-07
1.2451842e-05
-2.0644652e-06
-1.0722453e-06
1.2670793e-05
-2.0616975e-06
-1.2228565e-06
1.2753548e-05
-1.9439912e-06
-1.3885822e-06
1.2736013e-05
-1.7967639e-06
-1.5515009e-06
1.2670555e-05
-1.6688483e-06
-1.6905396e-06
1.2599308e-05
-1.5694798e-06
-1.7963253e-06
1.2547097e-05
-1.494e-06
-1.8639828e-06
1.25269e-05
-1.4381089e-06
-1.8907949e-06
1.2548248e-05
-1.3993793e-06
-1.8763945e-06
1.2610933e-05
-1.3640899e-06
-1.8183118e-06
1.269604e-05
-1.3090792e-06
-1.7049839e-06
1.2751422e-05
-1.181698e-06
-1.5279711e-06
1.265482e-05
-8.4310498e-07
-1.3099903e-06
1.1879219e-07
-1.0877221e-06
9.2372499e-06
-2.3188345e-07
3.4624446e-08
9.3576288e-06
-3.4821666e-07
5.9825381e-08
9.5050438e-06
-3.7170297e-07
6.9473298e-08
9.6926528e-06
-3.7673806e-07
7.0243711e-08
9.9163709e-06
-3.7003526e-07
6.4803314e-08
1.0164038e-05
-3.6156903e-07
5.2024264e-08
1.0427093e-05
-3.6322581e-07
2.9706505e-08
1.0703634e-05
-3.8515023e-07
-4.1306859e-09
1.0998657e-05
-4.3834343e-07
-5.7221204e-08
1.1310829e-05
-5.4263582e-07
-1.3153339e-07
1.1653377e-05
-7.1904122e-07
-2.3471931e-07
1.2045653e-05
-9.9691614e-07
-3.696079e-07
1.2515197e-05
-1.4154887e-06
-5.2886856e-07
1.3041408e-05
-1.9976758e-06
-6.8255385e-07
1.3601593e-05
-2.5997488e-06
-8.0321268e-07
1.4095972e-05
-2.9704391e-06
-9.2343638e-07
1.4422086e-05
-2.9347529e-06
-1.1007369e-06
1.4533014e-05
-2.5701197e-06
-1.3336937e-06
1.4454005e-05
-2.0882958e-06
-1.5877999e-06
1.4270934e-05
-1.6913136e-06
-1.8281197e-06
1.4055851e-05
-1.4205449e-06
-2.0298804e-06
1.3829721e-05
-1.2283311e-06
-2.1756855e-06
1.3597412e-05
-1.0980055e-06
-2.2485361e-06
1.3369951e-05
-1.0330855e-06
-2.2388763e-06
1.3185178e-05
-1.050933e-06
-2.1429818e-06
1.3097353e-05
-1.1407423e-06
-1.9542916e-06
1.3193542e-05
-1.3000226e-06
-1.656667e-06
1.370261e-05
-1.5494561e-06
-1.2865641e-06
1.5370602e-05
-1.9614232e-06
-1.1132672e-06
-2.3171579e-06
-1.3002863e-06
9.2955893e-06
-2.1304687e-07
3.5287061e-08
9.2760132e-06
-2.8418048e-07
6.1660469e-08
9.2447775e-06
-2.9935157e-07
7.3401218e-08
9.2140657e-06
-3.0282788e-07
7.705152e-08
9.1946622e-06
-3.0173928e-07
7.5542387e-08
9.1898967e-06
-2.9850638e-07
6.8324743e-08
9.1993236e-06
-2.9917732e-07
5.4131356e-08
9.222504e-06
-3.1093495e-07
3.2326801e-08
9.2579955e-06
-3.424252e-07
4.8601189e-09
9.3185009e-06
-4.0890251e-07
-4.7968177e-08
9.4133423e-06
-5.3968681e-07
-1.2148819e-07
9.557685e-06
-7.8070868e-07
-2.2719293e-07
9.774201e-06
-1.1982062e-06
-3.6259719e-07
1.0076999e-05
-1.8266817e-06
-4.8366437e-07
1.0405343e-05
-2.4426166e-06
-5.1990203e-07
1.0680179e-05
-2.7040024e-06
-4.7305681e-07
1.0926054e-05
-2.4194514e-06
-3.8312025e-07
1.104621e-05
-1.7354803e-06
-2.6730902e-07
1.1045611e-05
-9.5848284e-07
-2.2489479e-07
1.094018e-05
-2.7685609e-07
-3.1589437e-07
1.0826324e-05
9.1964539e-08
-3.9021014e-07
1.0740376e-05
2.4131634e-07
-3.6483174e-07
1.0666482e-05
2.5633856e-07
-2.3651057e-07
1.0604649e-05
1.8564198e-07
-7.6862097e-08
1.0514973e-05
2.4964088e-08
1.2442514e-07
1.0367641e-05
-2.0114092e-07
3.5762647e-07
1.0232516e-05
-5.651424e-07
6.1586136e-07
1.0228419e-05
-9.5624377e-07
7.3799948e-07
1.0891443e-05
-1.3876983e-06
3.0107907e-07
-1.7480333e-06
-8.7183755e-07
9.1005031e-06
3.4279837e-08
8.859874e-06
5.9475798e-08
8.6005053e-06
7.0324977e-08
8.3388604e-06
7.3188637e-08
8.0829365e-06
7.0860236e-08
7.8388058e-06
6.2822065e-08
7.6088215e-06
4.7938614e-08
7.391042e-06
2.5621081e-08
7.1780634e-06
-3.6229366e-09
6.9724188e-06
-6.0046033e-08
6.752323e-06
-1.3707434e-07
6.4900551e-06
-2.5566566e-07
6.1524781e-06
-4.5810175e-07
5.7148587e-06
-7.9394056e-07
5.2695687e-06
-1.0782158e-06
5.004627e-06
-8.6594617e-07
4.966383e-06
2.2229599e-07
4.9595293e-06
1.7311311e-06
5.0617761e-06
2.9794031e-06
5.4203762e-06
3.7330793e-06
5.8959399e-06
4.1227817e-06
6.3674394e-06
4.2769097e-06
6.7619242e-06
4.2893083e-06
7.0542322e-06
4.1883368e-06
7.2414487e-06
3.9683385e-06
7.3670731e-06
3.5986028e-06
7.3978596e-06
3.0978913e-06
7.4314509e-06
2.4385619e-06
8.1733457e-06
9.6911375e-07
-1.3868839e-06
9.5945077e-06
-3.0967522e-07
1.5317349e-08
9.8881604e-06
-2.7067095e-07
2.5015753e-08
1.0168939e-05
-2.5918924e-07
2.817399e-08
1.0405167e-05
-2.1929284e-07
2.6826494e-08
1.0587259e-05
-1.7261763e-07
2.2545039e-08
1.0720403e-05
-1.3619783e-07
1.5892206e-08
1.0813917e-05
-1.1385729e-07
6.8876317e-09
1.0877876e-05
-1.0545611e-07
-4.7946101e-09
1.0917637e-05
-1.1380568e-07
-1.8347513e-08
1.0940677e-05
-1.4464338e-07
-3.452123e-08
1.0957799e-05
-2.0843965e-07
-5.1526991e-08
1.098862e-05
-3.2271255e-07
-6.4616341e-08
1.106833e-05
-5.1318079e-07
-6.2026883e-08
1.1287134e-05
-8.4488633e-07
-2.9503919e-08
1.1576593e-05
-1.1567372e-06
6.0948026e-08
1.1834628e-05
-1.3872411e-06
1.8998896e-07
1.2010631e-05
-1.5545987e-06
3.0623717e-07
1.2104164e-05
-1.7124704e-06
3.9549438e-07
1.2126517e-05
-1.8732779e-06
4.6142948e-07
1.2093794e-05
-2.0359364e-06
5.1614105e-07
1.2033199e-05
-2.2035802e-06
5.7269329e-07
1.196318e-05
-2.367102e-06
6.3995126e-07
1.1885588e-05
-2.5063212e-06
7.190255e-07
1.1794223e-05
-2.6047093e-06
8.0405951e-07
1.1689515e-05
-2.6616767e-06
8.8824891e-07
1.1598946e-05
-2.6989203e-06
9.6882026e-07
1.159852e-05
-2.7398716e-06
1.0324367e-06
1.1811855e-05
-2.7524502e-06
1.0078344e-06
1.2164029e-05
-2.3701841e-06
7.0428398e-07
-1.1280774e-06
9.5686933e-09
9.2092015e-06
-2.318003e-07
1.6517299e-08
9.3164905e-06
-3.4747543e-07
2.9341078e-08
9.4606796e-06
-3.6892026e-07
3.5016465e-08
9.6475789e-06
-3.7042428e-07
3.4478411e-08
9.869652e-06
-3.5870249e-07
2.8819051e-08
1.0111345e-05
-3.4348681e-07
1.7625306e-08
1.0363368e-05
-3.3492122e-07
-1.2481392e-09
1.0621227e-05
-3.4058578e-07
-2.6855317e-08
1.0884423e-05
-3.697937e-07
-6.4422888e-08
1.1158697e-05
-4.3533608e-07
-1.1509898e-07
1.1459519e-05
-5.6482216e-07
-1.7911188e-07
1.1821309e-05
-8.0452085e-07
-2.4946374e-07
1.230032e-05
-1.2187717e-06
-3.0201401e-07
1.2838284e-05
-1.7736366e-06
-2.9138984e-07
1.3287796e-05
-2.1677348e-06
-2.4157674e-07
1.3505791e-05
-2.279631e-06
-2.4928352e-07
1.3490211e-05
-2.2791634e-06
-3.6119281e-07
1.3323269e-05
-2.3158885e-06
-5.6422063e-07
1.3039962e-05
-2.3527305e-06
-8.2612773e-07
1.2672649e-05
-2.398556e-06
-1.0994187e-06
1.2252162e-05
-2.4851375e-06
-1.3292515e-06
1.1787172e-05
-2.5975981e-06
-1.4819597e-06
1.1273077e-05
-2.695782e-06
-1.5472858e-06
1.0705459e-05
-2.751843e-06
-1.527085e-06
1.0091944e-05
-2.7824246e-06
-1.4121502e-06
9.5009828e-06
-2.8720347e-06
-1.1935315e-06
9.1868471e-06
-3.1269918e-06
-9.5786844e-07
9.6281128e-06
-3.5810807e-06
-8.9998161e-07
1.1193997e-05
-3.6973602e-06
-1.3508627e-06
-2.9534712e-06
-2.2445652e-06
9.268513e-06
-2.1277049e-07
1.6704962e-08
9.2364992e-06
-2.8362133e-07
2.9819891e-08
9.2025773e-06
-2.9777201e-07
3.6174554e-08
9.1725695e-06
-2.9974715e-07
3.6382015e-08
9.154879e-06
-2.9665945e-07
3.1189508e-08
9.150571e-06
-2.9065822e-07
1.9803768e-08
9.1573548e-06
-2.87032e-07
-5.4262518e-10
9.1711539e-06
-2.9216012e-07
-2.9899764e-08
9.194544e-06
-3.1342639e-07
-7.4900132e-08
9.2187686e-06
-3.6640681e-07
-1.4112552e-07
9.2471319e-06
-4.8207737e-07
-2.3259733e-07
9.2909282e-06
-7.2552361e-07
-3.4997693e-07
9.4067345e-06
-1.2250603e-06
-4.7210506e-07
9.581482e-06
-1.9257368e-06
-5.0669432e-07
9.4938961e-06
-2.1813579e-06
-4.2023602e-07
9.0517928e-06
-1.9010131e-06
-4.1176353e-07
8.4449884e-06
-1.4995755e-06
-5.5801825e-07
8.0072532e-06
-1.3902214e-06
-7.5716379e-07
7.5629134e-06
-1.1080988e-06
-1.026893e-06
7.0293684e-06
-8.6574142e-07
-1.3167625e-06
6.4259113e-06
-7.5890129e-07
-1.5149557e-06
5.7923123e-06
-7.8040299e-07
-1.5513563e-06
5.172225e-06
-8.8413141e-07
-1.432316e-06
4.5995982e-06
-1.0482052e-06
-1.2132226e-06
4.1146551e-06
-1.2764348e-06
-9.021257e-07
3.7941388e-06
-1.6281111e-06
-5.6998226e-07
3.8619458e-06
-2.1389236e-06
-4.4194091e-07
4.4738471e-06
-2.8845919e-06
-5.7046621e-07
5.6696939e-06
-3.1013205e-06
-1.4888761e-06
-2.0818715e-06
-3.0977652e-06
9.0741691e-06
1.6292687e-08
8.8211332e-06
2.8890046e-08
8.5589103e-06
3.4775642e-08
8.2978053e-06
3.4546241e-08
8.0431483e-06
2.8857534e-08
7.7986113e-06
1.6700495e-08
7.5639119e-06
-4.3943918e-09
7.3338737e-06
-3.6501629e-08
7.104394e-06
-8.7570827e-08
6.8471129e-06
-1.6917392e-07
6.5263331e-06
-2.9837549e-07
6.0577999e-06
-5.1266679e-07
5.2664601e-06
-8.9196171e-07
4.0354042e-06
-1.490613e-06
2.654625e-06
-1.8854661e-06
1.5924935e-06
-1.7114708e-06
1.5391063e-06
-1.2296352e-06
1.7304728e-06
1.4490718e-07
2.0218191e-06
1.5753806e-06
2.4332957e-06
2.4523064e-06
2.8961115e-06
2.8990184e-06
3.3069619e-06
3.0846699e-06
3.590742e-06
3.1210559e-06
3.6717643e-06
3.0591254e-06
3.5069857e-06
2.8570359e-06
3.1642534e-06
2.3140447e-06
2.6935434e-06
1.4309014e-06
2.1915391e-06
5.6398502e-08
1.7377653e-06
-1.6756166e-06
-4.0532584e-06
9.5888567e-06
-3.0996474e-07
5.406487e-09
9.8748993e-06
-2.7027041e-07
9.2511865e-09
1.0149475e-05
-2.5703888e-07
1.065104e-08
1.0380502e-05
-2.1416736e-07
9.9895481e-09
1.0557847e-05
-1.6252804e-07
7.7618518e-09
1.0687693e-05
-1.1812569e-07
4.2179624e-09
1.077902e-05
-8.4110458e-08
-2.7464321e-10
1.0840937e-05
-5.9462558e-08
-7.1768186e-09
1.0882105e-05
-4.4128679e-08
-1.5289093e-08
1.0914231e-05
-4.1551978e-08
-2.4951626e-08
1.0959288e-05
-6.14799e-08
-3.4873112e-08
1.1060984e-05
-1.2546226e-07
-4.045147e-08
1.1285908e-05
-2.5701459e-07
-2.9288537e-08
1.1658166e-05
-4.1593593e-07
1.4857879e-08
1.2017718e-05
-3.8027005e-07
8.1975559e-08
1.2267889e-05
-2.1599085e-07
1.5557478e-07
1.2413469e-05
-7.5638894e-08
2.3557448e-07
1.250615e-05
-2.9373166e-08
3.3110745e-07
1.2572147e-05
-5.4833032e-08
4.4888142e-07
1.2629954e-05
-1.3849782e-07
5.9529537e-07
1.2692565e-05
-2.6337283e-07
7.720251e-07
1.2754672e-05
-4.0524082e-07
9.8196916e-07
1.2803755e-05
-5.5114774e-07
1.2202825e-06
1.2836179e-05
-6.9948266e-07
1.4704e-06
1.285944e-05
-8.3809393e-07
1.7021237e-06
1.2859785e-05
-9.0521047e-07
1.8721825e-06
1.2733794e-05
-7.6899276e-07
1.9248398e-06
1.229245e-05
-3.4657874e-07
1.792174e-06
1.0983166e-05
6.4457692e-07
1.370695e-06
2.765736e-06
6.6359956e-07
9.2015549e-06
-2.3165585e-07
5.62273e-09
9.2971379e-06
-3.4697385e-07
1.0461662e-08
9.430034e-06
-3.6738375e-07
1.2466088e-08
9.6056914e-06
-3.6676275e-07
1.1418117e-08
9.8155525e-06
-3.5111428e-07
7.5471639e-09
1.0043219e-05
-3.2922198e-07
1.059445e-09
1.0278264e-05
-3.1011184e-07
-1.028477e-08
1.0517667e-05
-2.9983701e-07
-2.5873182e-08
1.0762653e-05
-3.0610841e-07
-4.7410747e-08
1.1026234e-05
-3.4459977e-07
-7.55905e-08
1.1343459e-05
-4.4968803e-07
-1.080334e-07
1.1790592e-05
-6.8692555e-07
-1.3492049e-07
1.2485267e-05
-1.1190029e-06
-1.3432351e-07
1.3264249e-05
-1.4064657e-06
-7.9620102e-08
1.3861741e-05
-1.1931577e-06
-2.62879e-08
1.4248975e-05
-8.3892086e-07
-1.3907363e-08
1.4471039e-05
-6.1691552e-07
-4.2459144e-08
1.4558477e-05
-5.8892798e-07
-9.2738717e-08
1.4530104e-05
-6.8885979e-07
-1.6453604e-07
1.4413252e-05
-8.6982755e-07
-2.5222761e-07
1.421389e-05
-1.0638787e-06
-3.3060794e-07
1.3922257e-05
-1.2317938e-06
-3.6543164e-07
1.3528333e-05
-1.3687571e-06
-3.3821963e-07
1.3054884e-05
-1.4999943e-06
-2.5684694e-07
1.2597377e-05
-1.6447122e-06
-1.5334038e-07
1.2327817e-05
-1.7518825e-06
-8.4352961e-08
1.2296844e-05
-1.5378251e-06
-1.6658542e-07
1.2295815e-05
-7.9595191e-07
-4.5909335e-07
1.201275e-05
5.4878605e-07
-9.9295436e-07
2.3164306e-06
-1.7466341e-06
9.2611985e-06
-2.1277706e-07
5.5883117e-09
9.2173078e-06
-2.836726e-07
1.040907e-08
9.1711359e-06
-2.9750414e-07
1.2466603e-08
9.1280188e-06
-2.9863831e-07
1.1374413e-08
9.0950007e-06
-2.9403989e-07
7.1328723e-09
9.0713388e-06
-2.8563402e-07
-1.2276686e-10
9.053321e-06
-2.7830464e-07
-1.4332837e-08
9.036395e-06
-2.7820855e-07
-3.4603409e-08
9.0145012e-06
-2.9441695e-07
-6.4699158e-08
8.9834562e-06
-3.4621783e-07
-1.0846266e-07
8.9498859e-06
-4.7962987e-07
-1.6907968e-07
8.9632389e-06
-8.0998422e-07
-2.4025094e-07
9.2318925e-06
-1.5728154e-06
-2.8700519e-07
9.6216115e-06
-2.0662965e-06
-2.379853e-07
9.5550879e-06
-1.3784615e-06
-1.7005648e-07
9.1639917e-06
-6.6678188e-07
-1.9377914e-07
8.6271636e-06
-3.6195759e-07
-2.7653554e-07
7.9859569e-06
-2.7303962e-07
-4.3217049e-07
7.3084055e-06
-4.0193599e-07
-6.3684327e-07
6.5907917e-06
-5.8544946e-07
-8.8465953e-07
5.8594901e-06
-7.7115712e-07
-1.078451e-06
5.1434513e-06
-9.5953605e-07
-1.1111275e-06
4.4535869e-06
-1.1321563e-06
-9.8458342e-07
3.8434748e-06
-1.2965329e-06
-8.1419344e-07
3.4579238e-06
-1.5481469e-06
-6.2245265e-07
3.6091507e-06
-1.9383813e-06
-5.4459652e-07
4.4481852e-06
-1.9525177e-06
-8.75108e-07
5.5219076e-06
-9.7140023e-07
-1.4764446e-06
6.278882e-06
4.9463364e-07
-2.198603e-06
1.9625989e-06
-2.9128122e-06
9.0670726e-06
5.3953829e-09
8.8023521e-06
9.9377122e-09
8.5279315e-06
1.1691948e-08
8.2535792e-06
1.0259965e-08
7.982761e-06
5.6355835e-09
7.7166918e-06
-2.8647151e-09
7.4523112e-06
-1.8318793e-08
7.1794192e-06
-4.1818833e-08
6.8764767e-06
-7.9046214e-08
6.5006552e-06
-1.3957206e-07
5.9642018e-06
-2.415556e-07
5.0669817e-06
-4.2545819e-07
3.4009884e-06
-7.9930593e-07
1.2489179e-06
-1.4121549e-06
-7.0114877e-07
-1.32659e-06
-2.053403e-06
-1.0286011e-06
-2.9196914e-06
-7.2705396e-07
-2.8337728e-06
-2.1590082e-07
-2.1646285e-06
5.0092948e-07
-1.4031334e-06
1.1024186e-06
-7.4812432e-07
1.4710342e-06
-2.9256696e-07
1.6686973e-06
-7.8201295e-08
1.774304e-06
-1.580812e-07
1.8427708e-06
-6.1599569e-07
1.7671577e-06
-1.2194267e-06
9.776273e-07
-1.5990532e-06
-1.4408041e-07
-8.7621761e-07
-1.6385088e-06
7.7535038e-07
-2.8300522e-06
-3.6357179e-06
9.5857348e-06
-3.104584e-07
-8.8917049e-10
9.8676378e-06
-2.7102491e-07
-1.62034e-09
1.013842e-05
-2.5784725e-07
-2.2727443e-09
1.0366135e-05
-2.1484086e-07
-2.8695594e-09
1.054023e-05
-1.6290449e-07
-3.4084424e-09
1.0666514e-05
-1.1813869e-07
-3.9037374e-09
1.0754245e-05
-8.3574935e-08
-4.3986187e-09
1.0811139e-05
-5.8996564e-08
-5.0314816e-09
1.084696e-05
-4.5324328e-08
-5.7207737e-09
1.0876932e-05
-4.811727e-08
-6.6918946e-09
1.09333e-05
-8.24761e-08
-8.5419825e-09
1.1083496e-05
-1.7736211e-07
-1.2845288e-08
1.1412351e-05
-3.3463887e-07
-2.2833593e-08
1.1855283e-05
-3.8580396e-07
-4.1898107e-08
1.2224745e-05
-2.2420025e-07
-6.3462609e-08
1.2492213e-05
-2.930634e-08
-8.3252256e-08
1.2694761e-05
1.3891074e-07
-1.0647307e-07
1.2864134e-05
2.9998599e-07
-1.387926e-07
1.3033364e-05
4.6373418e-07
-1.8459925e-07
1.3225176e-05
6.4858764e-07
-2.456125e-07
1.3436134e-05
8.7757912e-07
-3.1700855e-07
1.36344e-05
1.1701059e-06
-3.8686525e-07
1.3777241e-05
1.5181402e-06
-4.4110031e-07
1.3826372e-05
1.8922664e-06
-4.7132242e-07
1.3743454e-05
2.2609279e-06
-4.7613019e-07
1.3447153e-05
2.6250096e-06
-4.5668221e-07
1.2776008e-05
3.007011e-06
-4.1107602e-07
1.1467056e-05
3.4334765e-06
-3.3218495e-07
9.0740943e-06
3.9772677e-06
-2.1283909e-07
5.0196414e-06
-8.2454846e-08
9.1970736e-06
-2.3182873e-07
-1.1112809e-09
9.2861639e-06
-3.4734968e-07
-2.3038406e-09
9.4121456e-06
-3.678194e-07
-3.5430625e-09
9.5806125e-06
-3.6711192e-07
-4.7768142e-09
9.7824293e-06
-3.512084e-07
-5.9642912e-09
1.0001376e-05
-3.289079e-07
-7.1160517e-09
1.0225226e-05
-3.0929171e-07
-8.4149934e-09
1.044961e-05
-2.9948897e-07
-9.7571108e-09
1.0677673e-05
-3.0938257e-07
-1.1398268e-08
1.092848e-05
-3.6037898e-07
-1.4088874e-08
1.125783e-05
-5.0024247e-07
-1.9498799e-08
1.1791862e-05
-8.1500175e-07
-3.1045236e-08
1.2679265e-05
-1.300003e-06
-5.5991388e-08
1.3437486e-05
-1.1307403e-06
-9.2903328e-08
1.3996988e-05
-6.980208e-07
-1.1217807e-07
1.4432202e-05
-3.6185663e-07
-1.169104e-07
1.4771541e-05
-1.1942787e-07
-1.2494953e-07
1.502708e-05
8.8409659e-08
-1.3897504e-07
1.5247233e-05
2.4129288e-07
-1.6512127e-07
1.5484167e-05
3.6293925e-07
-2.064806e-07
1.5742781e-05
5.3204848e-07
-2.4599089e-07
1.5961162e-05
8.4755405e-07
-2.6218921e-07
1.6093538e-05
1.2988157e-06
-2.5045807e-07
1.6104194e-05
1.8599182e-06
-2.3261424e-07
1.5967177e-05
2.4515915e-06
-2.0302792e-07
1.5554204e-05
3.1247321e-06
-1.6615447e-07
1.4640108e-05
3.8661054e-06
-1.0602299e-07
1.29799e-05
4.654385e-06
-1.4106072e-08
1.0229034e-05
5.5867287e-06
1.5361909e-07
6.8963518e-06
3.4409201e-07
9.2566941e-06
-2.1284155e-07
-1.1323024e-09
9.2059639e-06
-2.8385878e-07
-2.3518716e-09
9.1519918e-06
-2.977267e-07
-3.6543567e-09
9.1000424e-06
-2.9880415e-07
-4.9841418e-09
9.0563358e-06
-2.9408633e-07
-6.2828947e-09
9.0202788e-06
-2.8542982e-07
-7.544054e-09
8.983948e-06
-2.7832303e-07
-8.9711464e-09
8.939703e-06
-2.7963861e-07
-1.0209232e-08
8.8782241e-06
-3.0101264e-07
-1.1590207e-08
8.7918439e-06
-3.6879014e-07
-1.3668495e-08
8.6916266e-06
-5.510104e-07
-1.80818e-08
8.7008134e-06
-1.0339594e-06
-3.0456516e-08
9.3536761e-06
-2.1701493e-06
-7.0077333e-08
9.5228603e-06
-1.4009574e-06
-1.3836243e-07
9.36881e-06
-5.6989053e-07
-1.4462395e-07
9.157822e-06
-2.2316701e-07
-1.2121991e-07
8.8383141e-06
3.3558315e-08
-1.1003315e-07
8.4726562e-06
1.4331574e-07
-1.2208341e-07
8.1547335e-06
6.8287222e-08
-1.4722729e-07
7.8802225e-06
-8.356944e-08
-1.648825e-07
7.7837842e-06
-3.0547835e-07
-1.4569228e-07
8.0623006e-06
-4.4980435e-07
-9.4023755e-08
8.7940867e-06
-4.0494301e-07
-1.5505702e-08
9.7480699e-06
-1.5062068e-08
1.0344314e-07
1.0775238e-05
4.8798877e-07
3.1135563e-07
1.1451547e-05
1.4061082e-06
4.9667542e-07
1.1422012e-05
2.3977012e-06
6.2367956e-07
1.0539385e-05
3.3067462e-06
7.5636441e-07
8.6014081e-06
4.43137e-06
8.9864025e-07
5.8984896e-06
9.962686e-07
9.0626143e-06
-1.1081108e-09
8.7909837e-06
-2.2906885e-09
8.5085008e-06
-3.552082e-09
8.2247908e-06
-4.8344346e-09
7.9424159e-06
-6.0760871e-09
7.6614164e-06
-7.295296e-09
7.3733298e-06
-8.5555679e-09
7.0611362e-06
-9.2643508e-09
6.6907393e-06
-9.6626688e-09
6.1917002e-06
-9.3246695e-09
5.406439e-06
-7.3106389e-09
3.9495244e-06
-2.5928756e-09
9.750404e-07
3.1979702e-09
-1.8196336e-06
-4.011203e-08
-3.6776307e-06
-4.2154416e-08
-4.984672e-06
5.3187941e-08
-5.8259645e-06
1.458552e-07
-6.129987e-06
2.2838339e-07
-5.8694374e-06
3.0464568e-07
-5.2240655e-06
3.6834123e-07
-4.47492e-06
4.1140247e-07
-3.744215e-06
4.8351701e-07
-2.9604275e-06
5.8125239e-07
-1.8101846e-06
6.7345077e-07
-2.8389977e-07
7.2481695e-07
1.230833e-06
8.6665784e-07
2.1132099e-06
1.369845e-06
2.1272706e-06
1.6560173e-06
2.0068705e-06
1.7283743e-06
1.6771248e-06
9.5856884e-06
-3.104797e-07
-7.1175375e-09
9.8675141e-06
-2.7105732e-07
-1.2383293e-08
1.0138195e-05
-2.5788501e-07
-1.5061e-08
1.0365784e-05
-2.1486673e-07
-1.5583002e-08
1.0539718e-05
-1.6287095e-07
-1.4462406e-08
1.0665781e-05
-1.1801005e-07
-1.1949198e-08
1.0752922e-05
-8.3451815e-08
-8.0872955e-09
1.080949e-05
-5.85246e-08
-3.0898067e-09
1.0844636e-05
-4.4010717e-08
3.0996856e-09
1.0872368e-05
-4.4960981e-08
1.0436033e-08
1.0921785e-05
-7.4987291e-08
1.6803986e-08
1.1053376e-05
-1.6185388e-07
1.6946867e-08
1.1354202e-05
-3.2081019e-07
-3.6211981e-09
1.1790055e-05
-4.1821705e-07
-5.9871712e-08
1.2162313e-05
-2.8618896e-07
-1.4898386e-07
1.2411288e-05
-8.6625193e-08
-2.4424628e-07
1.2569567e-05
7.5816071e-08
-3.3942563e-07
1.2673513e-05
2.0176572e-07
-4.4356266e-07
1.2763406e-05
2.89671e-07
-5.6338802e-07
1.288307e-05
3.3639397e-07
-7.0102128e-07
1.3057505e-05
3.6864047e-07
-8.5950045e-07
1.3272866e-05
4.4189206e-07
-1.0435009e-06
1.3478108e-05
6.091624e-07
-1.2546666e-06
1.3616032e-05
8.7504982e-07
-1.4829204e-06
1.3634821e-05
1.206435e-06
-1.6990184e-06
1.3452029e-05
1.582806e-06
-1.8529684e-06
1.2918235e-05
2.0064258e-06
-1.878327e-06
1.1781021e-05
2.5332612e-06
-1.7214373e-06
9.6239433e-06
3.2753849e-06
-1.3236786e-06
4.6651155e-06
-6.0629546e-07
9.1969943e-06
-2.3185221e-07
-7.7638271e-09
9.2859275e-06
-3.4738799e-07
-1.4906394e-08
9.411687e-06
-3.6786569e-07
-1.9321944e-08
9.5798801e-06
-3.6714413e-07
-2.0692488e-08
9.7813619e-06
-3.5117901e-07
-1.9138352e-08
9.9994818e-06
-3.2874907e-07
-1.4497726e-08
1.0222941e-05
-3.0896803e-07
-6.3607681e-09
1.0446726e-05
-2.9843791e-07
6.3641226e-09
1.0673234e-05
-3.0646459e-07
2.4528109e-08
1.0919243e-05
-3.530364e-07
4.7925522e-08
1.1233629e-05
-4.8274485e-07
7.3741485e-08
1.1729195e-05
-7.799357e-07
9.1160734e-08
1.2559707e-05
-1.2817715e-06
7.3965451e-08
1.3324687e-05
-1.2718778e-06
-4.1269146e-09
1.3868695e-05
-8.3146916e-07
-1.1044103e-07
1.425717e-05
-4.5838872e-07
-1.3292017e-07
1.4546827e-05
-2.2479101e-07
-1.1121135e-07
1.475205e-05
-7.7733262e-08
-5.9825264e-08
1.4879248e-05
-1.8307832e-08
2.2299382e-08
1.4989838e-05
-1.15021e-07
1.427123e-07
1.5138854e-05
-2.9505673e-07
2.7810885e-07
1.5349513e-05
-3.9632213e-07
3.7488315e-07
1.5610561e-05
-2.8186358e-07
3.8813318e-07
1.5859415e-05
8.3143588e-08
3.168745e-07
1.5928476e-05
7.4542036e-07
1.9261267e-07
1.5719821e-05
1.526231e-06
1.0035029e-07
1.5063011e-05
2.3662603e-06
1.901476e-07
1.3697568e-05
3.3158871e-06
5.6641741e-07
1.1433505e-05
4.5115205e-06
1.1797527e-06
6.1079955e-06
1.8892969e-06
9.2566082e-06
-2.1285522e-07
-7.7767839e-09
9.2057081e-06
-2.8388025e-07
-1.4959821e-08
9.1514997e-06
-2.9775264e-07
-1.9559295e-08
9.0992746e-06
-2.9882193e-07
-2.108151e-08
9.0552494e-06
-2.9407576e-07
-1.9361253e-08
9.0182685e-06
-2.8542381e-07
-1.3888658e-08
8.9824122e-06
-2.7810063e-07
-3.9825468e-09
8.9389119e-06
-2.7853989e-07
1.3392637e-08
8.8788673e-06
-2.9779122e-07
3.9780026e-08
8.7937577e-06
-3.6009499e-07
7.8495725e-08
8.6877854e-06
-5.2721667e-07
1.3234742e-07
8.6484826e-06
-9.6724653e-07
1.9612158e-07
9.0920414e-06
-2.0282137e-06
2.3305816e-07
9.3364306e-06
-1.805938e-06
1.5418027e-07
9.0468437e-06
-7.2435665e-07
3.9329622e-08
8.74715e-06
-3.086175e-07
2.8695883e-08
8.2674708e-06
-5.5941137e-10
1.4452797e-07
7.5762819e-06
1.360986e-07
3.5530223e-07
6.7556449e-06
2.8048542e-08
6.2786936e-07
5.7203941e-06
-1.768015e-07
9.328038e-07
4.5483178e-06
-4.6587597e-07
1.1978366e-06
3.5198922e-06
-7.9035345e-07
1.3293655e-06
3.0818427e-06
-1.1100479e-06
1.2532163e-06
3.7010866e-06
-1.3432334e-06
9.1544738e-07
5.4676785e-06
-1.2157525e-06
5.1136659e-07
7.5439054e-06
-4.6022569e-07
4.1186644e-07
8.8936773e-06
6.6507906e-07
9.7834615e-07
9.2091316e-06
1.9106116e-06
1.8476912e-06
8.6339568e-06
3.2744935e-06
2.7113283e-06
4.8805709e-06
3.3809159e-06
9.0625295e-06
-7.540452e-09
8.790738e-06
-1.4379642e-08
8.508036e-06
-1.8602988e-08
8.2240693e-06
-1.9689896e-08
7.941313e-06
-1.7395788e-08
7.6597014e-06
-1.1107748e-08
7.3734486e-06
-4.0357841e-10
7.0644086e-06
2.1235753e-08
6.7019832e-06
5.4971608e-08
6.2213463e-06
1.1121796e-07
5.4781451e-06
2.0867771e-07
4.1188426e-06
3.8952342e-07
1.332552e-06
7.6272683e-07
-1.8106421e-06
1.320366e-06
-3.932718e-06
1.3620409e-06
-5.3817476e-06
1.1972432e-06
-6.2993847e-06
1.0653027e-06
-6.6741514e-06
7.4058791e-07
-6.3603516e-06
2.1413622e-08
-5.6308016e-06
-5.3449027e-07
-4.7870071e-06
-8.9509694e-07
-4.0145466e-06
-1.0769277e-06
-3.3709741e-06
-1.1707582e-06
-2.8490289e-06
-1.1906992e-06
-2.2402474e-06
-1.0991225e-06
-1.3473377e-06
-4.8586241e-07
-1.8937231e-07
8.8136261e-07
8.3587951e-07
2.5440297e-06
1.9161291e-06
3.9286725e-06
4.7156837e-06
9.5886351e-06
-3.1007432e-07
-1.6698403e-08
9.8743043e-06
-2.7047137e-07
-2.7576865e-08
1.0148351e-05
-2.5734196e-07
-3.1762044e-08
1.0378657e-05
-2.1455271e-07
-3.1334014e-08
1.0555053e-05
-1.6296987e-07
-2.7892149e-08
1.068372e-05
-1.1859476e-07
-2.2033756e-08
1.077399e-05
-8.4415948e-08
-1.3964177e-08
1.0833521e-05
-5.9628523e-08
-3.0299186e-09
1.087103e-05
-4.4013093e-08
9.5407136e-09
1.0897517e-05
-4.0379565e-08
2.4210597e-08
1.0931965e-05
-5.7483416e-08
3.9597403e-08
1.1012417e-05
-1.1523482e-07
5.1235291e-08
1.1200724e-05
-2.4169351e-07
4.8842459e-08
1.1557892e-05
-4.3892989e-07
2.0659166e-08
1.1931296e-05
-4.5082915e-07
-7.2504715e-08
1.2195814e-05
-3.0573502e-07
-2.0345453e-07
1.2337758e-05
-1.5951829e-07
-3.2185262e-07
1.2407972e-05
-1.0883754e-07
-4.0467367e-07
1.2453299e-05
-1.5944879e-07
-4.4884382e-07
1.2509066e-05
-2.9262109e-07
-4.6366067e-07
1.2592151e-05
-4.7804499e-07
-4.639375e-07
1.2689224e-05
-6.742305e-07
-4.6545686e-07
1.2766833e-05
-8.5015421e-07
-4.8051944e-07
1.2803599e-05
-1.0044321e-06
-5.122207e-07
1.2812989e-05
-1.145951e-06
-5.5715343e-07
1.2808338e-05