/*--------------------------------*- C++ -*----------------------------------*\
| =========                 |                                                 |
| \\      /  F ield         | OpenFOAM: The Open Source CFD Toolbox           |
|  \\    /   O peration     | Version:  v2012                                 |
|   \\  /    A nd           | Website:  www.openfoam.com                      |
|    \\/     M anipulation  |                                                 |
\*---------------------------------------------------------------------------*/
FoamFile
{
    version     2.0;
    format      ascii;
    class       volScalarField;
    location    "680/topAir";
    object      rho;
}
// * * * * * * * * * * * * * * * * * * * * * * * * * * * * * * * * * * * * * //

dimensions      [1 -3 0 0 0 0 0];


internalField   nonuniform List<scalar> 
1200
(
1.0681605
0.99625698
0.93905519
0.89175812
0.85131187
0.8159318
0.78463759
0.75708531
0.73321178
0.71256981
0.69492821
0.68026238
0.66896866
0.66968746
0.67372474
0.68103029
0.69073526
0.70149776
0.71201831
0.72137003
0.7290538
0.73490106
0.73893806
0.74127161
0.74201313
0.7412137
0.73881015
0.73453023
0.7276474
0.71698478
1.1565126
1.1525578
1.1471915
1.140686
1.1332424
1.125023
1.1161731
1.105977
1.0922905
1.0744393
1.0501146
1.0188979
0.98162541
0.94450225
0.91081751
0.88277343
0.86088555
0.84488564
0.83426317
0.82829509
0.825819
0.82545629
0.82593937
0.8262474
0.8255721
0.82318229
0.81828018
0.8097648
0.79565315
0.77448249
1.1585732
1.1584406
1.1581946
1.1578115
1.1572711
1.1565568
1.1556552
1.1545359
1.1531142
1.1512932
1.1487962
1.1409629
1.1212182
1.0883386
1.0471726
1.0034917
0.96261018
0.9272507
0.89858666
0.8767816
0.86120439
0.85067179
0.8438045
0.83929634
0.83603051
0.83306239
0.8295445
0.82453544
0.81647299
0.80321091
1.1586179
1.1586136
1.158603
1.1585823
1.1585464
1.1584892
1.1584037
1.1582807
1.1581069
1.1578625
1.1575005
1.1567268
1.1543779
1.1421037
1.1092062
1.0650914
1.0215792
0.98179317
0.94723569
0.91872351
0.89634083
0.8794683
0.867069
0.85802131
0.85130881
0.84607798
0.84158707
0.83708682
0.83150313
0.82321779
1.0681728
0.9969822
0.94095235
0.89515934
0.85654559
0.82336946
0.79466048
0.76987967
0.74884301
0.73163144
0.71856931
0.71017544
0.70736064
0.72106914
0.73955763
0.76010474
0.77904398
0.79381168
0.80381653
0.80992832
0.81337727
0.8150804
0.8155188
0.81485033
0.8130638
0.81000668
0.80541017
0.79869904
0.78824488
0.77073948
1.1565152
1.1526336
1.1474684
1.1413293
1.1344541
1.1270429
1.1192957
1.1114288
1.1036935
1.0964128
1.0900119
1.0850333
1.0821235
1.0820541
1.0836264
1.0842423
1.0815395
1.0752144
1.0665625
1.0570214
1.0471716
1.0370029
1.0262885
1.0147119
1.0019923
0.98796585
0.97269218
0.95643763
0.93891903
0.91751814
1.1585733
1.1584443
1.158211
1.1578573
1.1573719
1.1567486
1.1559868
1.1550933
1.154084
1.1529906
1.1518691
1.1507227
1.1495738
1.1480838
1.1434702
1.1325641
1.1133616
1.0883863
1.0624597
1.0398101
1.0199329
1.0010014
0.98291094
0.9657366
0.94980141
0.93377005
0.91700193
0.89997348
0.8827558
0.86476
1.158618
1.1586137
1.1586039
1.1585851
1.1585538
1.1585058
1.1584365
1.1583414
1.1582156
1.1580541
1.1578495
1.1575641
1.1569134
1.1533881
1.1392283
1.1122197
1.0777402
1.0359672
0.9948519
0.95934241
0.93195037
0.91182874
0.89620032
0.88353257
0.87277607
0.86438789
0.85767185
0.85187176
0.84615419
0.8376838
1.0681711
0.996852
0.94067541
0.89472579
0.85593202
0.82252748
0.79344789
0.76802297
0.7458909
0.72696197
0.71145759
0.70001287
0.69401754
0.70557789
0.72144905
0.73882446
0.75584602
0.7719371
0.7868549
0.80040485
0.8124454
0.82266952
0.83054158
0.83550253
0.83723692
0.83582514
0.83160226
0.82473047
0.81358744
0.79558389
1.1565149
1.15262
1.1474307
1.1412599
1.1343433
1.1268715
1.1190194
1.1109686
1.1029409
1.0952329
1.088306
1.0828849
1.079952
1.0800142
1.0805862
1.0795423
1.0767738
1.0727142
1.0672998
1.0604605
1.0520125
1.0415081
1.0284812
1.0127701
0.99455595
0.97421355
0.95217996
0.92925401
0.90553204
0.87919441
1.1585733
1.1584437
1.1582091
1.1578534
1.1573659
1.1567403
1.1559755
1.1550767
1.1540594
1.1529576
1.1518411
1.1508381
1.1499763
1.1469942
1.1365479
1.1207934
1.1058909
1.0933236
1.0803964
1.0664675
1.0505532
1.0312678
1.0082653
0.98243108
0.95523293
0.92893663
0.90563753
0.88555614
0.86374316
0.83867046
1.158618
1.1586137
1.1586038
1.158585
1.1585536
1.1585056
1.1584367
1.1583424
1.1582185
1.1580608
1.1578636
1.1575743
1.1563358
1.144411
1.1055971
1.0618261
1.0384731
1.0353326
1.0098064
0.97837929
0.95112097
0.92977622
0.91279165
0.89877447
0.8867391
0.87659961
0.86802471
0.85983581
0.84069299
0.80913496
1.0681601
0.99678854
0.94051089
0.89440767
0.85537776
0.8216014
0.79195305
0.76568547
0.74231072
0.72158891
0.70361323
0.68901625
0.67913758
0.68483687
0.68918462
0.69019424
0.68878331
0.68675024
0.68537864
0.68558738
0.68789244
0.69229492
0.6984623
0.70589539
0.71381892
0.72075204
0.72412531
0.721093
0.71199731
0.69735275
1.1565144
1.152614
1.1474076
1.1412027
1.1342255
1.12665
1.1186249
1.1102949
1.1018336
1.093507
1.0858091
1.0796468
1.0760964
1.0737472
1.0695908
1.0640537
1.0579268
1.0516605
1.0452359
1.0382578
1.030035
1.0199541
1.0078351
0.993898
0.97826607
0.96079404
0.94164121
0.92069489
0.88331587
0.82047365
1.1585733
1.1584434
1.1582078
1.1578497
1.1573572
1.1567224
1.1559413
1.1550153
1.1539555
1.152794
1.1516137
1.1505761
1.1492633
1.1399376
1.1226811
1.1099309
1.1014303
1.0940792
1.0847346
1.0713673
1.0529593
1.0294525
1.0022527
0.97321117
0.94294545
0.91293753
0.88687194
0.86516777
0.84293909
0.81136628
1.158618
1.1586137
1.1586037
1.1585847
1.158553
1.1585042
1.1584337
1.1583366
1.1582074
1.1580404
1.1578221
1.1573772
1.1537157
1.1128527
1.0351573
0.99658917
0.99396486
0.99442636
0.98957556
0.9716511
0.95162007
0.93340771
0.91727058
0.90245555
0.88754093
0.87159671
0.85454388
0.83600812
0.81339781
0.78979915
1.0681539
0.99676394
0.94045762
0.89431889
0.85524587
0.82141559
0.79169969
0.76536333
0.7419457
0.72127951
0.70364115
0.68996764
0.68139491
0.68805342
0.6906979
0.68909145
0.68620379
0.68184079
0.67670844
0.67134213
0.66621912
0.66177627
0.65837717
0.65625774
0.65543898
0.65558675
0.65584297
0.6547945
0.65065973
0.64146473
1.1565142
1.1526114
1.1473979
1.1411798
1.1341818
1.126576
1.1185096
1.1101288
1.1016207
1.0933029
1.0858074
1.0802726
1.077385
1.0729101
1.0667929
1.0597958
1.0472715
1.0296379
1.0082001
0.98348678
0.95577813
0.9253632
0.8931052
0.86058238
0.82942995
0.80064764
0.77428176
0.74955683
0.72493625
0.69693403
1.1585733
1.1584433
1.1582072
1.1578479
1.157353
1.1567141
1.1559266
1.1549914
1.1539202
1.1527523
1.1515946
1.1506144
1.1481333
1.1297161
1.1159065
1.1074418
1.1022061
1.0956666
1.0867288
1.0736647
1.0535483
1.0269223
0.99657965
0.96547805
0.93177824
0.89695815
0.86158883
0.82553803
0.7877176
0.74590575
1.1586179
1.1586137
1.1586037
1.1585846
1.1585526
1.1585034
1.158432
1.1583332
1.158201
1.1580281
1.1577875
1.1570476
1.1480389
1.0393158
0.98055834
0.96915032
0.96340427
0.95795319
0.95083129
0.94196281
0.931596
0.92065845
0.9104125
0.90167236
0.89557587
0.88472456
0.8674407
0.84057855
0.80449919
0.76283626
1.0681466
0.9967518
0.94044152
0.89429805
0.85521563
0.82137276
0.79164351
0.76528489
0.74182509
0.72107272
0.70324509
0.68920405
0.68032996
0.68771349
0.69162171
0.69111457
0.68823333
0.68393639
0.67896752
0.6739139
0.66929564
0.66554936
0.66298306
0.66174736
0.66178744
0.6626987
0.66354849
0.66289315
0.65897192
0.64996
1.156514
1.1526109
1.1473968
1.1411777
1.134178
1.1265694
1.1184981
1.1101073
1.1015759
1.0932021
1.0855742
1.0797877
1.0768171
1.0730098
1.0672851
1.0605985
1.0509363
1.0370191
1.0208236
1.0045527
0.98879019
0.97174977
0.95079525
0.92512498
0.89640357
0.86609544
0.83525912
0.80378642
0.76984353
0.73056258
1.1585733
1.1584432
1.1582071
1.1578477
1.1573528
1.1567137
1.1559257
1.1549895
1.1539156
1.1527399
1.1515607
1.1505609
1.1486469
1.1307959
1.1146034
1.1044959
1.0991583
1.0933955
1.0866287
1.0747457
1.0545243
1.0250224
0.98969808
0.95720897
0.93177646
0.91118308
0.88819787
0.85970543
0.82410337
0.78031441
1.1586179
1.1586137
1.1586037
1.1585846
1.1585526
1.1585034
1.158432
1.1583332
1.1582011
1.1580288
1.1577965
1.1572129
1.1506936
1.0605686
0.98073033
0.96613681
0.95946806
0.9541188
0.94680351
0.94057953
0.93139051
0.92046695
0.90944418
0.89914627
0.88964218
0.88034715
0.87258315
0.85064966
0.82204023
0.78742587
1.0681392
0.99675498
0.94046796
0.89435316
0.85530543
0.82150558
0.79182756
0.76552534
0.74210362
0.72130158
0.70316679
0.68825263
0.67795361
0.68413534
0.68990532
0.69259073
0.69263851
0.69185588
0.69192381
0.69393188
0.69827964
0.7046207
0.71217606
0.72023998
0.72825241
0.73507931
0.73838786
0.73499589
0.72355095
0.70830455
1.1565139
1.1526125
1.1474045
1.141197
1.1342159
1.1266344
1.1185999
1.110255
1.1017662
1.0933833
1.0855612
1.0791481
1.0753264
1.0736751
1.0703208
1.0651891
1.0593036
1.0533348
1.047459
1.0412341
1.0338559
1.024394
1.0122552
0.99753757
0.9805865
0.9613085
0.94104322
0.92036732
0.89046957
0.83170506
1.1585733
1.1584433
1.1582077
1.1578494
1.1573565
1.1567211
1.155939
1.1550112
1.1539477
1.1527774
1.1515752
1.1504986
1.1494013
1.1425268
1.1238892
1.1083831
1.0979273
1.0899934
1.0805932
1.0670681
1.0480402
1.023021
0.99357207
0.96347259
0.93489176
0.90743758
0.88644223
0.87008452
0.85238465
0.82608041
1.158618
1.1586137
1.1586037
1.1585847
1.1585529
1.1585041
1.1584336
1.1583363
1.1582069
1.1580399
1.1578248
1.1574519
1.1549715
1.1257713
1.0453829
0.9938191
0.98915308
0.99069156
0.99254911
0.97758673
0.9582257
0.93914194
0.92243062
0.9085134
0.89506429
0.87842868
0.86290408
0.84591709
0.82516782
0.80609646
1.0681349
0.99679284
0.94059847
0.89462848
0.85580589
0.82236197
0.79323751
0.76775827
0.74555965
0.72654433
0.71091282
0.6992503
0.69291397
0.7044528
0.72115919
0.74004945
0.75864208
0.7759976
0.79178584
0.80577777
0.81777448
0.82746483
0.83440783
0.83826012
0.83899788
0.83692209
0.8324424
0.82565999
0.81507141
0.7968549
1.156514
1.1526173
1.1474252
1.1412501
1.1343269
1.1268453
1.1189795
1.1109092
1.1028522
1.0951005
1.0880935
1.0825186
1.079363
1.0795618
1.0809155
1.0805419
1.0780025
1.073902
1.0683324
1.0612822
1.0526309
1.0420037
1.0290175
1.013662
0.99629581
0.97718083
0.95640888
0.93469839
0.91277753
0.88892009
1.1585733
1.1584436
1.1582088
1.1578529
1.1573648
1.1567382
1.1559719
1.1550709
1.1540498
1.1529411
1.1518105
1.1507793
1.1499479
1.1479048
1.1387694
1.1222448
1.1056744
1.0921188
1.0787451
1.0644127
1.0481625
1.0287065
1.0058651
0.98107675
0.95631369
0.93294296
0.91139016
0.89243395
0.8738235
0.85360396
1.158618
1.1586137
1.1586038
1.1585849
1.1585535
1.1585055
1.1584364
1.1583419
1.1582177
1.1580596
1.1578631
1.1575964
1.1567407
1.1488511
1.1146898
1.06623
1.0380292
1.0337821
1.0113257
0.98197148
0.95524846
0.93384708
0.91671915
0.90262551
0.89065567
0.88053721
0.87196579
0.86392069
0.84935112
0.82964405
1.0681217
0.99689925
0.94084519
0.89502691
0.85638154
0.82316241
0.79439578
0.76955061
0.74844746
0.73116968
0.71804745
0.7095809
0.70661968
0.72014571
0.73846386
0.75898963
0.77806129
0.79312008
0.80354619
0.81012205
0.8140088
0.81604389
0.81663811
0.81590964
0.81389358
0.81055777
0.8057262
0.79883187
0.78833015
0.77191803
1.156514
1.1526299
1.1474608
1.1413158
1.1344318
1.127008
1.1192438
1.1113554
1.1035994
1.0962958
1.0898669
1.0848353
1.0818199
1.0816188
1.083168
1.0839252
1.081391
1.075248
1.0667885
1.0574306
1.0478081
1.0379133
1.0275383
1.0164294
1.0043603
0.99115078
0.97678057
0.96146433
0.94497748
0.92296371
1.1585733
1.1584441
1.1582107
1.1578565
1.1573703
1.1567456
1.1559818
1.1550855
1.1540727
1.1529753
1.1518481
1.1506853
1.1495302
1.1480561
1.1436601
1.1331104
1.113775
1.0886758
1.0628435
1.0402929
1.0211494
1.003131
0.98596695
0.96942914
0.95387164
0.93826843
0.92204131
0.90539439
0.88830513
0.87073301
1.158618
1.1586137
1.1586038
1.1585851
1.1585537
1.1585056
1.1584361
1.1583406
1.1582143
1.158052
1.1578456
1.1575544
1.1569022
1.1535837
1.1399631
1.1117387
1.0753274
1.0335435
0.99364399
0.95936585
0.93244211
0.91271144
0.89741378
0.88500957
0.87460161
0.86645519
0.85990424
0.85424433
0.8487011
0.84250832
1.0681014
0.99615814
0.93892579
0.8915971
0.85111214
0.81568316
0.78432963
0.75671434
0.73277871
0.71208108
0.69439858
0.67970886
0.66840367
0.6691645
0.67327745
0.68071717
0.69061249
0.70160724
0.71239112
0.72202424
0.72999097
0.73609742
0.74034042
0.74280538
0.74360898
0.74283771
0.74047175
0.73627441
0.72957429
0.71933198
1.1565111
1.1525534
1.1471823
1.1406694
1.133215
1.1249806
1.116111
1.1058697
1.0921445
1.0743008
1.049877
1.0182107
0.98015493
0.9423295
0.90838113
0.88054335
0.85915977
0.84379657
0.83383426
0.8284886
0.82658655
0.82673251
0.8276335
0.82825598
0.82781653
0.82563023
0.82091341
0.8125421
0.79853886
0.77750767
1.1585732
1.1584404
1.1581942
1.1578106
1.1572692
1.1565532
1.1556493
1.1545263
1.1531011
1.1512776
1.1487601
1.1405511
1.1192691
1.0847154
1.0423476
0.99801315
0.95740354
0.92289667
0.89532631
0.87462502
0.86004482
0.85035848
0.84417911
0.84021262
0.83737343
0.83476136
0.83156548
0.82686823
0.81914455
0.80624996
1.1586179
1.1586136
1.158603
1.1585822
1.1585462
1.1584889
1.1584031
1.1582796
1.1581052
1.1578595
1.1574915
1.1566697
1.1540036
1.1390078
1.1030226
1.0580473
1.0151115
0.97654193
0.94338027
0.91617035
0.89487414
0.87886294
0.8671363
0.85861374
0.85231681
0.84742831
0.84324159
0.83904248
0.83380703
0.82594495
)
;

boundaryField
{
    maxY
    {
        type            calculated;
        value           nonuniform List<scalar> 
300
(
1.1586174
1.1586174
1.1586174
1.1586174
1.1586174
1.1586174
1.1586174
1.1586174
1.1586174
1.1586174
1.158613
1.1586132
1.1586132
1.1586132
1.1586132
1.1586132
1.1586132
1.1586132
1.1586132
1.158613
1.1586025
1.1586033
1.1586032
1.1586032
1.1586031
1.1586031
1.1586032
1.1586032
1.1586033
1.1586025
1.1585817
1.1585846
1.1585844
1.1585842
1.1585841
1.1585841
1.1585842
1.1585844
1.1585846
1.1585817
1.1585458
1.1585533
1.1585531
1.1585525
1.1585521
1.1585521
1.1585524
1.158553
1.1585532
1.1585457
1.1584887
1.1585053
1.1585051
1.1585037
1.1585029
1.1585028
1.1585036
1.1585049
1.158505
1.1584884
1.1584032
1.158436
1.1584362
1.1584332
1.1584315
1.1584315
1.158433
1.1584359
1.1584355
1.1584026
1.1582801
1.1583408
1.1583419
1.158336
1.1583327
1.1583327
1.1583357
1.1583414
1.15834
1.1582791
1.1581064
1.158215
1.1582179
1.1582069
1.1582005
1.1582006
1.1582064
1.1582171
1.1582137
1.1581047
1.157862
1.1580536
1.1580602
1.1580399
1.1580276
1.1580283
1.1580394
1.1580591
1.1580515
1.1578589
1.1575
1.157849
1.157863
1.1578216
1.157787
1.157796
1.1578243
1.1578626
1.1578451
1.157491
1.1567263
1.1575636
1.1575738
1.1573766
1.157047
1.1572124
1.1574513
1.1575959
1.1575539
1.1566692
1.1543774
1.1569129
1.1563353
1.1537152
1.1480384
1.1506931
1.1549709
1.1567401
1.1569017
1.154003
1.1421032
1.1533876
1.1444105
1.1128522
1.0393154
1.0605682
1.1257708
1.1488505
1.1535832
1.1390073
1.1092057
1.1392278
1.1055967
1.0351568
0.98055797
0.98072995
1.0453825
1.1146893
1.1399626
1.1030221
1.065091
1.1122192
1.0618257
0.99658878
0.96914995
0.96613644
0.99381872
1.0662296
1.1117382
1.0580469
1.0215788
1.0777397
1.0384726
0.99396447
0.96340391
0.9594677
0.9891527
1.0380288
1.075327
1.0151111
0.98179279
1.0359668
1.0353322
0.99442597
0.95795283
0.95411844
0.99069117
1.0337817
1.0335431
0.97654155
0.94723534
0.99485151
1.009806
0.98957518
0.95083093
0.94680316
0.99254873
1.0113253
0.9936436
0.94337992
0.91872318
0.95934205
0.97837892
0.97165073
0.94196246
0.94057918
0.97758636
0.9819711
0.95936549
0.91617003
0.89634052
0.93195003
0.95112062
0.95161971
0.93159566
0.93139017
0.95822534
0.9552481
0.93244177
0.89487382
0.87946799
0.91182841
0.92977588
0.93340736
0.92065812
0.92046662
0.93914159
0.93384674
0.91271111
0.87886264
0.86706871
0.89620001
0.91279133
0.91727025
0.91041218
0.90944385
0.92243028
0.91671882
0.89741347
0.86713601
0.85802102
0.88353226
0.89877416
0.90245523
0.90167204
0.89914596
0.90851307
0.90262519
0.88500926
0.85861345
0.85130852
0.87277577
0.88673879
0.88754062
0.89557555
0.88964187
0.89506398
0.89065536
0.87460131
0.85231652
0.8460777
0.86438759
0.87659931
0.87159641
0.88472425
0.88034685
0.87842838
0.8805369
0.86645489
0.84742803
0.84158679
0.85767157
0.86802442
0.85454359
0.8674404
0.87258285
0.86290378
0.8719655
0.85990395
0.84324131
0.83708655
0.85187148
0.85983552
0.83600785
0.84057828
0.85064937
0.84591681
0.86392039
0.85424404
0.83904221
0.83150286
0.84615391
0.84069271
0.81339755
0.80449894
0.82203996
0.82516755
0.84935084
0.84870081
0.83380676
0.82321752
0.83768352
0.80913471
0.7897989
0.76283603
0.78742562
0.80609621
0.82964377
0.84250804
0.82594469
)
;
    }
    minX
    {
        type            calculated;
        value           nonuniform List<scalar> 
40
(
1.1586222
1.1586212
1.1586201
1.1586191
1.1586222
1.1586212
1.1586201
1.1586191
1.1586222
1.1586212
1.1586201
1.1586191
1.1586222
1.1586212
1.1586201
1.1586191
1.1586222
1.1586212
1.1586201
1.1586191
1.1586222
1.1586212
1.1586201
1.1586191
1.1586222
1.1586212
1.1586201
1.1586191
1.1586222
1.1586212
1.1586201
1.1586191
1.1586222
1.1586212
1.1586201
1.1586191
1.1586222
1.1586212
1.1586201
1.1586191
)
;
    }
    maxX
    {
        type            calculated;
        value           nonuniform List<scalar> 
40
(
0.71698454
0.77449349
0.80321195
0.82320979
0.77071084
0.91752473
0.86480303
0.83780275
0.79545964
0.87930476
0.83876852
0.80939916
0.69744436
0.82005208
0.81119338
0.79052988
0.641508
0.69705834
0.74603963
0.76307973
0.65013344
0.73056067
0.7802992
0.78764973
0.70858312
0.83176642
0.82590987
0.80647656
0.79738979
0.8886266
0.85304672
0.82938929
0.77224054
0.92301214
0.87063855
0.84235529
0.71950554
0.77776023
0.80643365
0.82603005
)
;
    }
    minZ
    {
        type            calculated;
        value           nonuniform List<scalar> 
120
(
1.0681605
1.1565126
1.1585732
1.1586179
0.99625698
1.1525578
1.1584406
1.1586136
0.93905519
1.1471915
1.1581946
1.158603
0.89175812
1.140686
1.1578115
1.1585823
0.85131187
1.1332424
1.1572711
1.1585464
0.8159318
1.125023
1.1565568
1.1584892
0.78463759
1.1161731
1.1556552
1.1584037
0.75708531
1.105977
1.1545359
1.1582807
0.73321178
1.0922905
1.1531142
1.1581069
0.71256981
1.0744393
1.1512932
1.1578625
0.69492821
1.0501146
1.1487962
1.1575005
0.68026238
1.0188979
1.1409629
1.1567268
0.66896866
0.98162541
1.1212182
1.1543779
0.66968746
0.94450225
1.0883386
1.1421037
0.67372474
0.91081751
1.0471726
1.1092062
0.68103029
0.88277343
1.0034917
1.0650914
0.69073526
0.86088555
0.96261018
1.0215792
0.70149776
0.84488564
0.9272507
0.98179317
0.71201831
0.83426317
0.89858666
0.94723569
0.72137003
0.82829509
0.8767816
0.91872351
0.7290538
0.825819
0.86120439
0.89634083
0.73490106
0.82545629
0.85067179
0.8794683
0.73893806
0.82593937
0.8438045
0.867069
0.74127161
0.8262474
0.83929634
0.85802131
0.74201313
0.8255721
0.83603051
0.85130881
0.7412137
0.82318229
0.83306239
0.84607798
0.73881015
0.81828018
0.8295445
0.84158707
0.73453023
0.8097648
0.82453544
0.83708682
0.7276474
0.79565315
0.81647299
0.83150313
0.71698478
0.77448249
0.80321091
0.82321779
)
;
    }
    maxZ
    {
        type            calculated;
        value           nonuniform List<scalar> 
120
(
1.0681014
1.1565111
1.1585732
1.1586179
0.99615814
1.1525534
1.1584404
1.1586136
0.93892579
1.1471823
1.1581942
1.158603
0.8915971
1.1406694
1.1578106
1.1585822
0.85111214
1.133215
1.1572692
1.1585462
0.81568316
1.1249806
1.1565532
1.1584889
0.78432963
1.116111
1.1556493
1.1584031
0.75671434
1.1058697
1.1545263
1.1582796
0.73277871
1.0921445
1.1531011
1.1581052
0.71208108
1.0743008
1.1512776
1.1578595
0.69439858
1.049877
1.1487601
1.1574915
0.67970886
1.0182107
1.1405511
1.1566697
0.66840367
0.98015493
1.1192691
1.1540036
0.6691645
0.9423295
1.0847154
1.1390078
0.67327745
0.90838113
1.0423476
1.1030226
0.68071717
0.88054335
0.99801315
1.0580473
0.69061249
0.85915977
0.95740354
1.0151115
0.70160724
0.84379657
0.92289667
0.97654193
0.71239112
0.83383426
0.89532631
0.94338027
0.72202424
0.8284886
0.87462502
0.91617035
0.72999097
0.82658655
0.86004482
0.89487414
0.73609742
0.82673251
0.85035848
0.87886294
0.74034042
0.8276335
0.84417911
0.8671363
0.74280538
0.82825598
0.84021262
0.85861374
0.74360898
0.82781653
0.83737343
0.85231681
0.74283771
0.82563023
0.83476136
0.84742831
0.74047175
0.82091341
0.83156548
0.84324159
0.73627441
0.8125421
0.82686823
0.83904248
0.72957429
0.79853886
0.81914455
0.83380703
0.71933198
0.77750767
0.80624996
0.82594495
)
;
    }
    topAir_to_rightSolid
    {
        type            calculated;
        value           nonuniform List<scalar> 
130
(
0.46282366
0.45790266
0.45288117
0.44801674
0.44348626
0.43939123
0.43578716
0.43270038
0.4301351
0.42808551
0.42654689
0.42551932
0.42500867
0.46641119
0.46060734
0.45483267
0.44937945
0.44441877
0.44002031
0.43620669
0.43297697
0.43031541
0.4282007
0.42662115
0.42557256
0.4250528
0.47378746
0.46589287
0.45847089
0.45182815
0.44604493
0.44108938
0.43690434
0.43342764
0.43060026
0.42837523
0.42673184
0.42564496
0.42510549
0.48526165
0.47322943
0.4630786
0.45471469
0.4478563
0.44222992
0.43762203
0.43386993
0.43086606
0.42854074
0.4268366
0.42571466
0.42515529
0.49956395
0.48041717
0.46694482
0.45690783
0.44914825
0.44301201
0.43810247
0.43416603
0.43105525
0.42866747
0.42693041
0.42579172
0.42522471
0.49947992
0.48036039
0.46691444
0.45689398
0.44914679
0.44302293
0.4381298
0.43421575
0.43111522
0.42872967
0.42699511
0.42585889
0.42529383
0.48505287
0.47309849
0.46301532
0.45469903
0.44787514
0.44227528
0.43769582
0.43397989
0.43101143
0.42870463
0.42700326
0.4258799
0.42531835
0.47350016
0.46570877
0.45838716
0.45181627
0.44608181
0.44116397
0.43701439
0.4335715
0.43077807
0.4285833
0.42694636
0.42585758
0.42531423
0.46609388
0.46040307
0.4547449
0.44938094
0.44447744
0.4401203
0.43634083
0.43314158
0.43050573
0.42840697
0.42683742
0.42579411
0.42527293
0.46252035
0.45770832
0.45280041
0.4480249
0.443554
0.43950182
0.43593188
0.43287401
0.43033128
0.42829257
0.4267648
0.42574956
0.42524266
)
;
    }
    topAir_to_heater
    {
        type            calculated;
        value           nonuniform List<scalar> 
40
(
0.47497128
0.47364023
0.47102587
0.46731647
0.48101529
0.47941496
0.47628014
0.47180943
0.49432047
0.49212974
0.48778028
0.48146471
0.51773917
0.51472586
0.50834872
0.49833436
0.55645022
0.55325706
0.54507775
0.52926993
0.55640676
0.55320098
0.54500364
0.52918404
0.5175947
0.51454457
0.50811931
0.49809288
0.49401719
0.49180357
0.48741747
0.48110885
0.48061515
0.47898378
0.47582698
0.47139536
0.47454408
0.47319012
0.47057687
0.46692037
)
;
    }
    topAir_to_leftSolid
    {
        type            calculated;
        value           nonuniform List<scalar> 
130
(
0.37582338
0.37584195
0.37588437
0.37595262
0.37604815
0.37617235
0.376317
0.37645861
0.37660596
0.37674518
0.37686493
0.37695079
0.37699827
0.37579596
0.37581511
0.375859
0.37592993
0.37602999
0.37615925
0.37629753
0.37643647
0.37658588
0.3767269
0.37684373
0.3769321
0.37698267
0.37575642
0.37577519
0.37581963
0.37589348
0.37600103
0.37612935
0.3762565
0.37638789
0.37652471
0.37666317
0.37678473
0.37687825
0.37693385
0.37572021
0.37573801
0.37578088
0.37585242
0.37595621
0.37607314
0.37619157
0.37631601
0.37644731
0.37658415
0.37671359
0.37681467
0.37687797
0.37569145
0.37570868
0.37574925
0.37581676
0.37591467
0.37601718
0.37612616
0.37624546
0.37637558
0.37651265
0.37665407
0.37676054
0.37682464
0.37566892
0.37568641
0.37572551
0.3757879
0.37586453
0.37595201
0.37605221
0.3761686
0.37629382
0.37642825
0.3765649
0.37666303
0.37672486
0.37565435
0.3756762
0.37571551
0.37576698
0.37583097
0.37590707
0.37599569
0.37609711
0.3762076
0.37632195
0.37643049
0.37651793
0.37657804
0.37564349
0.37566812
0.37570843
0.37575827
0.37581921
0.37588944
0.37596922
0.37605874
0.37615848
0.37624912
0.37633194
0.37639765
0.37643935
0.37563643
0.37566323
0.37570268
0.37575093
0.37580978
0.37587984
0.37595675
0.37603646
0.37612064
0.37620019
0.37627326
0.37633047
0.37636489
0.37563938
0.3756619
0.37570144
0.37574659
0.37580183
0.37586822
0.37594958
0.3760256
0.37610256
0.37618314
0.37627242
0.37633721
0.37636677
)
;
    }
}


// ************************************************************************* //
