/*--------------------------------*- C++ -*----------------------------------*\
| =========                 |                                                 |
| \\      /  F ield         | OpenFOAM: The Open Source CFD Toolbox           |
|  \\    /   O peration     | Version:  v2012                                 |
|   \\  /    A nd           | Website:  www.openfoam.com                      |
|    \\/     M anipulation  |                                                 |
\*---------------------------------------------------------------------------*/
FoamFile
{
    version     2.0;
    format      ascii;
    class       volScalarField;
    location    "680/topAir";
    object      T;
}
// * * * * * * * * * * * * * * * * * * * * * * * * * * * * * * * * * * * * * //

dimensions      [0 0 0 1 0 0 0];


internalField   nonuniform List<scalar> 
1200
(
325.40676
348.89256
370.14506
389.7768
408.29529
425.9996
442.99
459.11154
474.0603
487.79303
500.17624
510.95956
519.58571
519.02801
515.91773
510.38337
503.21237
495.49199
488.17076
481.84219
476.76387
472.97048
470.38652
468.90572
468.43712
468.94235
470.46794
473.20923
477.68532
484.78921
300.54697
301.57823
302.98894
304.71695
306.71845
308.95934
311.40899
314.27991
318.21785
323.50485
330.99847
341.1395
354.09263
368.01005
381.62015
393.7435
403.75436
411.40039
416.63865
419.64063
420.89886
421.0838
420.83751
420.68062
421.02472
422.24701
424.77659
429.24347
436.85651
448.79808
300.01216
300.0465
300.11022
300.20952
300.3497
300.53522
300.76967
301.06127
301.43245
301.90922
302.56544
304.64272
310.00749
319.37307
331.92811
346.37657
361.087
374.85657
386.81413
396.43398
403.60456
408.60179
411.92719
414.1398
415.75758
417.23888
419.00829
421.55377
425.7165
432.74565
300.00029
300.00143
300.00416
300.00953
300.01883
300.03362
300.05578
300.08765
300.13267
300.19602
300.28991
300.49076
301.1022
304.33815
313.36439
326.34357
340.24356
354.03154
366.94749
378.33556
387.78305
395.22265
400.87443
405.10159
408.29579
410.82005
413.01229
415.23268
418.02104
422.22824
325.40303
348.63877
369.39877
388.29582
405.80049
422.15146
437.40266
451.48173
464.16484
475.08427
483.72033
489.43762
491.38523
482.04333
469.99253
457.28771
446.17064
437.87028
432.42024
429.15716
427.3374
426.44447
426.21522
426.56486
427.50214
429.1156
431.56457
435.19082
440.96256
450.9779
300.54628
301.5584
302.91583
304.54518
306.39084
308.40561
310.54024
312.73828
314.93014
317.02142
318.88306
320.34625
321.20763
321.22824
320.76215
320.57993
321.38104
323.2716
325.89397
328.83561
331.92868
335.18351
338.68279
342.54676
346.89516
351.82011
357.34455
363.41758
370.19831
378.83307
300.01211
300.04555
300.10597
300.19766
300.32356
300.48539
300.6834
300.91598
301.17914
301.46477
301.75829
302.0589
302.36077
302.75318
303.97472
306.90183
312.19507
319.35903
327.15217
334.27835
340.793
347.23826
353.62918
359.91801
365.95649
372.23939
379.04609
386.21804
393.75102
401.94504
300.00029
300.00138
300.00394
300.00879
300.01689
300.02933
300.04728
300.07192
300.10451
300.14636
300.19939
300.27341
300.44229
301.36059
305.1063
312.51535
322.51346
335.51807
349.38439
362.31665
372.96593
381.1963
387.84381
393.40458
398.25309
402.11782
405.26662
408.02594
410.78303
414.93674
325.40353
348.6843
369.50752
388.48397
406.09139
422.58359
438.07112
452.57318
466.00193
478.13586
488.55559
496.54313
500.83255
492.62679
481.78948
470.45892
459.86424
450.27833
441.74161
434.26341
427.82757
422.51053
418.50587
416.02091
415.15909
415.86032
417.97205
421.45465
427.22695
436.89481
300.54638
301.56196
302.9258
304.5637
306.42076
308.45251
310.61691
312.86784
315.14503
317.36295
319.38292
320.9818
321.85351
321.83495
321.6646
321.97563
322.80346
324.02509
325.66885
327.76919
330.40129
333.73363
337.96076
343.20354
349.48891
356.78652
365.04261
374.0487
383.84753
395.34626
300.01212
300.0457
300.10647
300.19865
300.3251
300.48752
300.68634
300.9203
301.18558
301.47339
301.76562
302.02861
302.25496
303.0408
305.82611
310.12497
314.30408
317.91685
321.72082
325.92274
330.85998
337.04729
344.73664
353.80192
363.87565
374.17624
383.80257
392.50591
402.41825
414.44884
300.00029
300.00139
300.00396
300.00883
300.01696
300.02938
300.04723
300.07165
300.10377
300.14463
300.19575
300.27077
300.59238
303.72456
314.38732
327.34713
334.70846
335.72371
344.21027
355.26685
365.4485
373.83807
380.79418
386.73301
391.982
396.516
400.43305
404.2467
413.45153
429.57704
325.40689
348.7065
369.57216
388.62215
406.35452
423.05991
438.898
453.95481
468.24947
481.69614
494.00235
504.4679
511.80583
507.54651
504.34463
503.60686
504.63846
506.1324
507.14527
506.99086
505.29197
502.07868
497.64535
492.40512
486.93933
482.25531
480.00876
482.02726
488.1851
498.43711
300.5465
301.56353
302.93189
304.57898
306.4526
308.51315
310.72645
313.05767
315.46175
317.86386
320.11735
321.9445
323.00669
323.71339
324.97132
326.66238
328.5542
330.51188
332.54339
334.77841
337.45096
340.78619
344.88407
349.72027
355.30852
361.7698
369.12813
377.52599
393.50165
423.64096
300.01212
300.04577
300.1068
300.19962
300.32737
300.49219
300.69524
300.9363
301.21269
301.51616
301.82521
302.0974
302.44247
304.91673
309.60351
313.16004
315.57695
317.69731
320.43415
324.43217
330.10395
337.64164
346.80475
357.15374
368.61731
380.73362
391.92356
401.75562
412.3501
428.39593
300.00029
300.00139
300.00398
300.00889
300.01711
300.02975
300.048
300.07317
300.10663
300.1499
300.20651
300.32192
301.27503
312.33759
335.7806
348.77534
349.69619
349.5339
351.24728
357.7269
365.25684
372.38363
378.93481
385.15555
391.62788
398.79198
406.75007
415.76844
427.32572
440.09394
325.40878
348.71511
369.59309
388.66073
406.41719
423.15561
439.03846
454.14588
468.47983
481.90277
493.98275
503.7723
510.11032
505.17381
503.23964
504.41281
506.53545
509.77669
513.64297
517.74872
521.73003
525.23266
527.94434
529.64936
530.31098
530.19144
529.9843
530.83292
534.20624
541.86377
300.54655
301.56422
302.93444
304.58509
306.46441
308.53342
310.75849
313.10453
315.52271
317.92319
320.11787
321.758
322.62035
323.96594
325.82361
327.97481
331.89702
337.58111
344.75924
353.42244
363.66839
375.62147
389.18851
403.89657
419.06646
434.13138
448.91444
463.72236
479.47151
498.73629
300.01213
300.0458
300.10696
300.2001
300.32845
300.49434
300.69906
300.94255
301.2219
301.52709
301.83021
302.08733
302.74015
307.67555
311.48309
313.86391
315.35484
317.23701
319.84614
323.73797
329.91939
338.47352
348.77896
360.01442
373.03513
387.51643
403.42448
421.04182
441.25718
465.99193
300.00029
300.00139
300.00399
300.00893
300.0172
300.02996
300.04844
300.07404
300.10828
300.15309
300.21547
300.40747
302.76476
334.43707
354.47736
358.64996
360.78907
362.84208
365.55984
369.00155
373.10781
377.54039
381.78931
385.4901
388.11427
392.87457
400.70265
413.50782
432.05243
455.64936
325.411
348.71936
369.59942
388.66978
406.43156
423.17768
439.06961
454.19243
468.556
482.04097
494.26095
504.33044
510.90882
505.42351
502.56745
502.93622
505.04172
508.21472
511.93396
515.7729
519.33182
522.25505
524.2766
525.25559
525.22377
524.50153
523.82981
524.34767
527.46783
534.78136
300.54659
301.56436
302.93474
304.58565
306.46542
308.53522
310.76169
313.1106
315.53553
317.95252
320.18662
321.90247
322.79051
323.93583
325.67335
327.72657
330.73964
335.17831
340.49596
346.01101
351.52684
357.69114
365.57427
375.71818
387.75645
401.32559
416.14183
432.4361
451.50249
475.77892
300.01213
300.04581
300.10698
300.20013
300.32851
300.49445
300.69929
300.94304
301.2231
301.53034
301.83909
302.10139
302.60478
307.38176
311.84726
314.70104
316.22924
317.89596
319.87561
323.41233
329.61403
339.10088
351.20409
363.12449
373.03584
381.46671
391.33849
404.30828
421.7748
445.44358
300.00029
300.0014
300.00399
300.00893
300.01721
300.02996
300.04845
300.07404
300.10827
300.15292
300.21313
300.36454
302.06628
327.73525
354.41519
359.76864
362.2692
364.30026
367.11496
369.54423
373.19013
377.61894
382.19582
386.5731
390.70289
394.82808
398.34116
408.61216
422.83309
441.42038
325.41325
348.71824
369.58903
388.64583
406.38889
423.10926
438.96756
454.04977
468.38014
481.88802
494.31599
505.02761
512.69965
508.06697
503.81777
501.86429
501.82966
502.39732
502.34799
500.89431
497.77554
493.29593
488.06262
482.59818
477.2885
472.85577
470.737
472.90942
480.38977
490.73027
300.54663
301.56393
302.93271
304.58049
306.45519
308.51744
310.7334
313.06894
315.48104
317.8998
320.19046
322.09328
323.23799
323.7351
324.74967
326.31419
328.12719
329.98652
331.83761
333.82146
336.2038
339.30918
343.37811
348.4443
354.46773
361.57619
369.36269
377.66035
390.34039
417.92007
300.01213
300.04578
300.10684
300.19971
300.32755
300.49253
300.69584
300.93738
301.21474
301.52051
301.8353
302.11773
302.40617
304.2257
309.27072
313.59737
316.58383
318.88818
321.66222
325.73929
331.65331
339.76431
349.83472
360.76378
371.79278
383.04123
392.11355
399.48533
407.78069
420.76534
300.00029
300.00139
300.00398
300.0089
300.01713
300.02977
300.04804
300.07325
300.10675
300.15004
300.20579
300.30253
300.94746
308.75341
332.4961
349.74748
351.3973
350.85161
350.19499
355.55488
362.73891
370.10992
376.81507
382.58738
388.33609
395.69037
402.80929
410.89817
421.23043
431.19629
325.41456
348.705
369.53774
388.52623
406.15124
422.66864
438.18731
452.72922
466.20897
478.41071
488.92997
497.08463
501.6302
493.41357
481.98314
469.68018
458.16936
447.9222
438.9906
431.36775
425.0396
420.062
416.56671
414.65234
414.28771
415.31525
417.55021
420.98018
426.44911
436.19795
300.54661
301.56266
302.92725
304.56633
306.42521
308.45969
310.62799
312.88456
315.17037
317.40132
319.4453
321.09042
322.02913
321.96984
321.56661
321.67776
322.43552
323.6667
325.35407
327.51543
330.2072
333.57489
337.78462
342.90154
348.87858
355.70311
363.42851
371.86996
380.80061
391.02077
300.01212
300.04572
300.10653
300.19879
300.32539
300.48807
300.68727
300.92183
301.18807
301.4777
301.77364
302.04405
302.26243
302.8004
305.22951
309.72388
314.36561
318.26758
322.2133
326.55192
331.61461
337.88648
345.55928
354.29033
363.46442
372.5694
381.38003
389.48093
397.77598
407.1982
300.00029
300.00139
300.00397
300.00884
300.01698
300.02942
300.0473
300.07178
300.10397
300.14493
300.19588
300.26503
300.48717
302.55073
311.82283
325.99506
334.85159
336.22725
343.69314
353.96723
363.86945
372.20841
379.16274
385.08301
390.25829
394.74285
398.62318
402.33529
409.23686
418.95773
325.41858
348.66778
369.44084
388.35327
405.87823
422.25764
437.54841
451.67478
464.41015
475.38431
484.07189
489.84771
491.9005
482.66145
470.68866
457.95957
446.73415
438.25211
432.56573
429.05453
427.00586
425.94097
425.63103
426.01104
427.06628
428.82385
431.3953
435.11845
440.91486
450.28936
300.54661
301.55937
302.91783
304.54879
306.39687
308.41515
310.55465
312.75894
314.95699
317.05524
318.92549
320.40471
321.29777
321.35752
320.89788
320.6737
321.42517
323.2615
325.82493
328.70835
331.72703
334.88949
338.27087
341.96795
346.07725
350.68958
355.84886
361.51756
367.82488
376.59791
300.01212
300.04558
300.10606
300.19786
300.32397
300.48615
300.6847
300.91801
301.18211
301.46877
301.76378
302.06873
302.37224
302.76049
303.92425
306.75388
312.07919
319.2741
327.03403
334.1232
340.387
346.5011
352.5331
358.54708
364.39493
370.45474
376.97442
383.90561
391.29121
399.18778
300.00029
300.00139
300.00394
300.0088
300.01692
300.0294
300.04739
300.07213
300.10485
300.1469
300.2004
300.27592
300.44521
301.30949
304.90962
312.65056
323.23711
336.30487
349.80912
362.3078
372.76924
380.82764
387.31938
392.74802
397.42181
401.15838
404.2145
406.89269
409.55028
412.56064
325.42476
348.92718
370.19607
389.8472
408.3911
426.12945
443.16394
459.33661
474.34046
488.12782
500.55773
511.37567
520.02491
519.43364
516.26048
510.61814
503.30183
495.41467
487.91528
481.4056
476.15179
472.20177
469.49551
467.93751
467.43181
467.91713
469.41221
472.08823
476.42369
483.20732
300.54735
301.5794
302.99139
304.72138
306.72585
308.97098
311.42632
314.31039
318.26038
323.54658
331.07338
341.36976
354.62386
368.85858
382.64369
394.7407
404.56537
411.93138
416.85296
419.54262
420.50802
420.43378
419.97607
419.66044
419.88321
420.99507
423.41403
427.7763
435.27782
447.05187
300.01216
300.04654
300.11032
300.20977
300.3502
300.53615
300.77122
301.06376
301.43588
301.9133
302.57496
304.7527
310.54733
320.43984
333.46462
348.278
363.05069
376.62506
388.22272
397.41147
404.14872
408.75234
411.7444
413.68817
415.09081
416.38968
417.98995
420.36446
424.32806
431.11447
300.00029
300.00143
300.00417
300.00955
300.01886
300.0337
300.05593
300.08791
300.13311
300.19681
300.29224
300.50559
301.19987
305.16537
315.12113
328.51624
342.41138
355.93531
368.44714
379.3899
388.41863
395.49488
400.84332
404.82207
407.81291
410.16543
412.20192
414.26484
416.866
420.83409
)
;

boundaryField
{
    maxY
    {
        type            zeroGradient;
    }
    minX
    {
        type            fixedValue;
        value           uniform 300;
    }
    maxX
    {
        type            inletOutlet;
        inletValue      uniform 300;
        value           nonuniform List<scalar> 
40
(
484.78939
448.79172
432.74509
422.23232
450.99467
378.8303
401.92502
414.87781
436.96305
395.29662
414.40038
429.43682
498.37167
423.85873
428.48725
439.68714
541.82727
498.64738
465.90833
455.50398
534.63875
475.78019
445.45227
441.29493
490.53738
417.88923
420.85223
430.99306
435.90534
391.14988
407.46418
419.0864
450.10131
376.57811
399.23107
412.63558
483.09079
446.90671
431.01627
420.79072
)
;
    }
    minZ
    {
        type            zeroGradient;
    }
    maxZ
    {
        type            zeroGradient;
    }
    topAir_to_rightSolid
    {
        type            compressible::turbulentTemperatureCoupledBaffleMixed;
        refValue        nonuniform List<scalar> 
130
(
751.09519
759.17115
767.59251
775.93011
783.85949
791.16712
797.71199
803.4039
808.19604
812.06574
814.99465
816.96166
817.94115
745.33532
754.73037
764.31542
773.59264
782.22944
790.05007
796.9583
802.9038
807.87018
811.8598
814.865
816.87126
817.86707
733.72522
746.16343
758.24744
769.39924
779.37842
788.13738
795.68891
802.07279
807.33993
811.53334
814.65802
816.7367
817.77019
716.35459
734.57226
750.67791
764.48925
776.19999
786.07886
794.35915
801.23187
806.82041
811.19986
814.4385
816.58335
817.65465
695.83984
723.57745
744.45763
760.81364
773.95937
784.68106
793.47584
800.67133
806.45076
810.9439
814.24381
816.42073
817.50718
695.95745
723.66356
744.50673
760.83749
773.96286
784.66293
793.42777
800.5813
806.34042
810.82824
814.12254
816.29415
817.3766
716.66421
734.77717
750.78251
764.51802
776.17019
786.00132
794.22837
801.03195
806.55129
810.89273
814.12359
816.26903
817.34361
734.17125
746.45936
758.3869
769.42038
779.31477
788.00473
795.48895
801.8069
807.00683
811.13946
814.24882
816.32918
817.36911
745.84271
755.06525
764.46302
773.5902
782.12633
789.87073
796.71343
802.59874
807.51306
811.46889
814.45209
816.44622
817.44393
751.58788
759.49363
767.72959
775.91618
783.73999
790.96829
797.44742
803.0819
807.82785
811.67341
814.5788
816.5202
817.49153
)
;
        refGradient     uniform 0;
        valueFraction   uniform 0.99967867;
        value           nonuniform List<scalar> 
130
(
751.01306
759.08407
767.50069
775.83398
783.75959
791.06405
797.60633
803.29627
808.08702
811.95598
814.88482
816.85264
817.8341
745.23652
754.62681
764.20773
773.48139
782.11512
789.93316
796.83928
802.78317
807.74848
811.7376
814.74301
816.75047
817.74919
733.63414
746.06561
758.14334
769.28949
779.26376
788.01861
795.56692
801.94847
807.21414
811.40689
814.53169
816.61156
817.64782
716.28705
734.49919
750.59962
764.40597
776.11192
785.98619
794.26213
801.13089
806.71613
811.09345
814.33171
816.47782
817.55206
695.78006
723.51
744.38478
760.73682
773.87945
784.59857
793.39107
800.58446
806.36199
810.85362
814.15275
816.33005
817.41859
695.89711
723.59552
744.43323
760.75989
773.88198
784.57926
793.34159
800.49281
806.24984
810.73598
814.02939
816.2013
817.28575
716.59536
734.70248
750.70222
764.4323
776.07929
785.90558
794.12822
800.9279
806.44402
810.78337
814.01389
816.16102
817.2386
734.07927
746.36056
758.28182
769.30972
779.19934
787.88537
795.36657
801.68237
806.88096
811.01297
814.12242
816.20385
817.24654
745.74387
754.96162
764.35524
773.47883
782.01188
789.75369
796.59431
802.47807
807.39137
811.34675
814.33018
816.3255
817.3259
751.50556
759.40637
767.63758
775.81985
783.63989
790.86499
797.34154
802.97405
807.71863
811.56342
814.46873
816.41089
817.38407
)
;
        Tnbr            T;
        thicknessLayers List<scalar> 0();
        kappaLayers     List<scalar> 0();
        kappaMethod     fluidThermo;
        kappa           none;
        alphaAni        none;
        alpha           none;
        field           T;
    }
    topAir_to_heater
    {
        type            compressible::turbulentTemperatureCoupledBaffleMixed;
        refValue        nonuniform List<scalar> 
40
(
731.87399
733.93219
738.00846
743.87012
722.68775
725.10455
729.88217
736.80325
703.22825
706.36287
712.66642
722.02013
671.40743
675.33995
683.81422
697.55882
624.68846
628.29544
637.72552
656.77676
624.73719
628.35937
637.81275
656.88388
671.5947
675.57811
684.12358
697.89799
703.65981
706.83137
713.19725
722.55484
723.28937
725.75719
730.5772
737.4504
732.53287
734.63038
738.71271
744.50127
)
;
        refGradient     uniform 0;
        valueFraction   uniform 0.99967867;
        value           nonuniform List<scalar> 
40
(
731.8056
733.86214
737.93532
743.79279
722.61043
725.02257
729.79458
736.70986
703.16057
706.29071
712.58859
721.9359
671.35477
675.28501
683.75632
697.49683
624.65005
628.25525
637.68269
656.72849
624.69885
628.31895
637.7694
656.83508
671.54216
675.52292
684.06502
697.83499
703.59225
706.75913
713.119
722.46989
723.21205
725.67523
730.4896
737.35699
732.4644
734.56021
738.63941
744.42377
)
;
        Tnbr            T;
        thicknessLayers List<scalar> 0();
        kappaLayers     List<scalar> 0();
        kappaMethod     fluidThermo;
        kappa           none;
        alphaAni        none;
        alpha           none;
        field           T;
    }
    topAir_to_leftSolid
    {
        type            compressible::turbulentTemperatureCoupledBaffleMixed;
        refValue        nonuniform List<scalar> 
130
(
925.0601
925.00681
924.89552
924.72125
924.48031
924.16932
923.80853
923.45576
923.08956
922.74396
922.4467
922.23305
922.11407
925.12761
925.07295
924.9582
924.77755
924.52576
924.20273
923.85814
923.51256
923.14199
922.79284
922.5039
922.28575
922.16136
925.22496
925.17123
925.05507
924.86716
924.5969
924.27608
923.95868
923.63141
923.2914
922.94802
922.64684
922.41525
922.27779
925.31413
925.26276
925.15046
924.96818
924.70704
924.4141
924.11791
923.80741
923.48054
923.14057
922.81935
922.56838
922.41102
925.38498
925.335
925.22834
925.05594
924.80922
924.55167
924.2786
923.9806
923.65649
923.31583
922.96522
922.70118
922.54213
925.4405
925.38987
925.28681
925.12699
924.93262
924.71195
924.46038
924.16943
923.8572
923.52286
923.18372
922.93989
922.78627
925.47639
925.41502
925.31142
925.17851
925.01522
924.82252
924.5994
924.34515
924.069
923.78382
923.51339
923.29541
923.14551
925.50315
925.43494
925.32888
925.2
925.04426
924.86606
924.66477
924.4399
924.19039
923.96377
923.757
923.59306
923.48925
925.52055
925.44699
925.34308
925.21813
925.06757
924.88982
924.69565
924.49503
924.28397
924.08495
923.90265
923.76031
923.67513
925.51327
925.45018
925.34589
925.22833
925.08632
924.91716
924.71147
924.51926
924.3252
924.12271
923.89939
923.73679
923.66141
)
;
        refGradient     uniform 0;
        valueFraction   uniform 0.99967867;
        value           nonuniform List<scalar> 
130
(
924.86741
924.82169
924.71727
924.54936
924.31445
924.00924
923.65403
923.30655
922.94528
922.6042
922.31102
922.10089
921.98473
924.9349
924.88772
924.77968
924.60516
924.35908
924.04141
923.70183
923.36088
922.99451
922.64898
922.36291
922.14666
922.02294
925.03223
924.98599
924.87655
924.69481
924.43029
924.11487
923.80256
923.48005
923.14446
922.80509
922.50736
922.27841
922.14237
925.12137
925.0775
924.97194
924.79584
924.54048
924.253
923.96199
923.65644
923.33426
922.99872
922.68156
922.43403
922.27908
925.1922
925.14972
925.0498
924.88359
924.64265
924.39056
924.12268
923.82963
923.51023
923.174
922.82737
922.56656
922.4096
925.24769
925.20457
925.10825
924.95462
924.76601
924.5508
924.30441
924.01841
923.7109
923.381
923.04589
922.80539
922.65392
925.28357
925.22972
925.13286
925.00611
924.84857
924.66131
924.44336
924.19403
923.92258
923.64183
923.37548
923.16101
923.01363
925.31032
925.24962
925.15029
925.02755
924.87753
924.70469
924.50845
924.28833
924.04323
923.82061
923.61728
923.45602
923.3537
925.32772
925.26165
925.16445
925.04562
924.90074
924.72831
924.53911
924.3431
924.1362
923.94077
923.76132
923.62088
923.53639
925.32044
925.26493
925.16751
925.0563
924.92029
924.75689
924.55673
924.36978
924.18061
923.98261
923.76336
923.60429
923.53172
)
;
        Tnbr            T;
        thicknessLayers List<scalar> 0();
        kappaLayers     List<scalar> 0();
        kappaMethod     fluidThermo;
        kappa           none;
        alphaAni        none;
        alpha           none;
        field           T;
    }
}


// ************************************************************************* //
