/*--------------------------------*- C++ -*----------------------------------*\
| =========                 |                                                 |
| \\      /  F ield         | OpenFOAM: The Open Source CFD Toolbox           |
|  \\    /   O peration     | Version:  v2012                                 |
|   \\  /    A nd           | Website:  www.openfoam.com                      |
|    \\/     M anipulation  |                                                 |
\*---------------------------------------------------------------------------*/
FoamFile
{
    version     2.0;
    format      ascii;
    class       volScalarField;
    location    "100/bottomWater";
    object      p;
}
// * * * * * * * * * * * * * * * * * * * * * * * * * * * * * * * * * * * * * //

dimensions      [1 -1 -2 0 0 0 0];


internalField   nonuniform List<scalar> 
1460
(
353.41612
353.41219
353.4209
353.42062
353.42284
353.41638
353.41013
353.41422
353.40622
353.41818
353.41076
353.41188
353.42886
353.4053
353.42445
353.41073
353.41689
353.41367
353.40313
353.40831
353.41017
353.4001
353.41365
353.4067
353.41536
353.41787
353.41544
353.41614
353.40492
353.41005
274.46217
274.47167
274.50855
274.52455
274.52228
274.51679
274.50689
274.49889
274.46236
274.45529
274.44786
274.47172
274.5242
274.51441
274.52929
274.52081
274.54183
274.51136
274.45924
274.46424
274.46352
274.4687
274.51711
274.51532
274.52018
274.52327
274.52781
274.51193
274.47148
274.46763
196.26913
196.23749
196.24235
196.25526
196.25372
196.2508
196.25733
196.24299
196.25404
196.29003
196.2559
196.24333
196.23502
196.26217
196.24777
196.25317
196.22655
196.24008
196.24994
196.29201
196.26699
196.24875
196.23042
196.2616
196.24858
196.25321
196.2577
196.23862
196.24206
196.2692
117.6812
117.65618
117.66708
117.68256
117.70388
117.69312
117.66927
117.65592
117.65599
117.69282
117.69044
117.64026
117.66362
117.66061
117.70529
117.69295
117.66509
117.67242
117.66413
117.69193
117.68506
117.64563
117.65909
117.6797
117.70076
117.70315
117.68212
117.66772
117.65874
117.68544
39.244609
39.244378
39.232784
39.226279
39.23674
39.228936
39.236355
39.253503
39.257911
39.268484
39.260698
39.258189
39.251681
39.219095
39.236818
39.226224
39.238257
39.25093
39.246577
39.270436
39.258773
39.254156
39.247531
39.229546
39.23221
39.236817
39.225138
39.236997
39.246511
39.246942
353.41611
353.41455
353.41123
353.41588
353.41088
353.41245
353.41937
353.41607
353.41313
353.42273
353.4167
353.415
353.42631
353.40862
353.40624
353.40259
353.41338
353.41946
353.40372
353.41422
353.41162
353.40791
353.41279
353.41239
353.40738
353.40405
353.40911
353.40519
353.40883
353.41043
274.45321
274.4492
274.46544
274.47749
274.46476
274.47096
274.49486
274.48186
274.44852
274.44672
274.44529
274.4661
274.52579
274.50085
274.48022
274.47335
274.51022
274.50579
274.46062
274.45733
274.45519
274.46556
274.50116
274.495
274.46951
274.4658
274.48333
274.46732
274.45287
274.45848
196.29326
196.26139
196.25916
196.2346
196.27516
196.26303
196.24318
196.24505
196.25074
196.29997
196.25972
196.24123
196.2301
196.23655
196.27577
196.26672
196.22486
196.22751
196.24482
196.27607
196.26919
196.25354
196.22764
196.25359
196.26845
196.26997
196.24012
196.26142
196.26381
196.29189
117.67927
117.66981
117.63575
117.63741
117.6576
117.66836
117.66561
117.64182
117.66677
117.69079
117.68857
117.64416
117.66537
117.6533
117.68643
117.67841
117.65733
117.67465
117.66139
117.69347
117.67899
117.65346
117.64822
117.66935
117.66237
117.65415
117.64172
117.6391
117.67578
117.68203
39.253691
39.248201
39.252389
39.251461
39.234231
39.229803
39.237495
39.254154
39.254025
39.277011
39.262458
39.262865
39.253393
39.226114
39.234649
39.230849
39.249501
39.261599
39.258348
39.26357
39.255815
39.247649
39.244438
39.23022
39.231466
39.239263
39.256872
39.254029
39.250997
39.254912
353.41422
353.41578
353.41522
353.41207
353.41079
353.40997
353.4121
353.40907
353.40907
353.41068
353.413
353.41127
353.41213
353.39198
353.40283
353.39849
353.39736
353.39522
353.39853
353.39972
353.40026
353.40123
353.4017
353.40274
353.40541
353.4065
353.40719
353.40983
353.40902
353.40857
274.46719
274.45799
274.45185
274.44677
274.44364
274.45703
274.46787
274.46692
274.46516
274.45214
274.44993
274.4677
274.488
274.46753
274.46682
274.45881
274.46894
274.47523
274.46438
274.45786
274.46824
274.47743
274.47949
274.47564
274.45076
274.44954
274.45167
274.45804
274.46593
274.47503
196.30083
196.30063
196.29896
196.29299
196.28663
196.27578
196.26985
196.28895
196.27361
196.2803
196.27437
196.28512
196.23885
196.25881
196.28367
196.27746
196.27099
196.27482
196.28386
196.281
196.26364
196.2693
196.27539
196.26776
196.27413
196.2958
196.29313
196.29655
196.29835
196.30105
117.63839
117.63226
117.68166
117.68529
117.6786
117.64681
117.64927
117.647
117.65269
117.66766
117.69132
117.64977
117.65513
117.65096
117.68018
117.67893
117.65423
117.65585
117.68448
117.67782
117.65416
117.65477
117.64563
117.6526
117.67864
117.69034
117.6867
117.68339
117.63573
117.64009
39.28347
39.248545
39.239161
39.253805
39.254912
39.258813
39.260161
39.283443
39.247994
39.259814
39.257095
39.265956
39.251999
39.233665
39.23301
39.2381
39.255079
39.270533
39.247676
39.255722
39.252186
39.250898
39.277623
39.251898
39.255614
39.25901
39.25782
39.242582
39.247731
39.281801
353.41094
353.42272
353.41656
353.41474
353.41856
353.4177
353.41391
353.41418
353.41598
353.41652
353.40742
353.40428
353.40373
353.40297
353.40568
353.40535
353.40412
353.40605
353.39971
353.39963
353.40944
353.40996
353.41352
353.40977
353.41211
353.41411
353.40935
353.41147
353.41863
353.40546
274.47157
274.48635
274.46734
274.4478
274.44736
274.44318
274.45041
274.4863
274.49943
274.4933
274.46799
274.45929
274.45972
274.46529
274.46177
274.45985
274.46055
274.46087
274.46232
274.46708
274.49613
274.50766
274.49827
274.47098
274.44948
274.45652
274.4557
274.47554
274.49319
274.47772
196.28102
196.25539
196.25488
196.26999
196.30775
196.28754
196.25349
196.23605
196.24335
196.23068
196.2363
196.25111
196.27352
196.28618
196.30744
196.3074
196.28879
196.27459
196.2516
196.23352
196.23078
196.24748
196.23651
196.25118
196.27519
196.30592
196.26821
196.25164
196.25634
196.28161
117.66233
117.66662
117.65062
117.66487
117.68885
117.6817
117.65979
117.6475
117.67236
117.67916
117.65267
117.66732
117.67744
117.68792
117.69924
117.69471
117.69036
117.69177
117.6815
117.66051
117.68315
117.66457
117.64965
117.63526
117.67902
117.68914
117.66581
117.65374
117.67019
117.66734
39.246662
39.227547
39.250497
39.250356
39.268634
39.261423
39.253727
39.250044
39.230153
39.241283
39.242672
39.230946
39.240442
39.230757
39.24127
39.246739
39.253299
39.251753
39.242753
39.243228
39.237472
39.229375
39.248596
39.262258
39.259818
39.273048
39.251852
39.252396
39.229144
39.246628
353.41957
353.41043
353.42535
353.40833
353.41486
353.41533
353.4102
353.41815
353.41677
353.41775
353.41631
353.4076
353.41068
353.40382
353.4005
353.40909
353.41297
353.41222
353.41226
353.41001
353.41149
353.41297
353.40526
353.42159
353.40722
353.4154
274.51587
274.48975
274.5103
274.46132
274.45452
274.45186
274.4624
274.50425
274.52248
274.52376
274.50467
274.46987
274.4642
274.472
274.47709
274.50905
274.53084
274.52785
274.51577
274.48316
274.45709
274.45601
274.46977
274.51574
274.49306
274.52017
196.26356
196.28949
196.25763
196.26793
196.27973
196.27298
196.24592
196.2391
196.25507
196.25475
196.24807
196.26013
196.26666
196.26609
196.25289
196.24692
196.25217
196.25171
196.2433
196.23831
196.26713
196.27442
196.26836
196.25782
196.28647
196.2628
117.67785
117.64628
117.67184
117.65553
117.69074
117.68448
117.64266
117.65815
117.683
117.69546
117.68168
117.679
117.69381
117.68521
117.67879
117.68802
117.70121
117.68659
117.66257
117.6481
117.67802
117.69125
117.65767
117.6764
117.64953
117.6813
39.237616
39.259575
39.242868
39.241069
39.252653
39.249375
39.250659
39.236877
39.224764
39.229999
39.227567
39.227538
39.233704
39.237793
39.232905
39.228574
39.231512
39.224623
39.232348
39.246102
39.24471
39.254081
39.239834
39.245106
39.258133
39.238915
353.41981
353.41238
353.4256
353.40872
353.41443
353.41482
353.40967
353.4172
353.41632
353.41651
353.41456
353.4057
353.40898
353.40472
353.4014
353.41003
353.41339
353.412
353.4122
353.40819
353.4101
353.41206
353.40261
353.42108
353.4057
353.41532
274.51734
274.49758
274.51377
274.46283
274.45461
274.45178
274.46207
274.50322
274.52274
274.52384
274.50429
274.4702
274.46402
274.47203
274.47776
274.51014
274.53104
274.52783
274.51394
274.48016
274.45741
274.45582
274.46483
274.51082
274.49208
274.51918
196.25856
196.28294
196.25784
196.26711
196.27886
196.27191
196.24537
196.23863
196.25441
196.25445
196.24812
196.25821
196.2663
196.26791
196.25564
196.24829
196.25385
196.25266
196.24287
196.24035
196.26864
196.27655
196.27114
196.2564
196.29068
196.26366
117.67546
117.64284
117.67254
117.65656
117.6904
117.68376
117.64388
117.65885
117.68457
117.69457
117.68105
117.67522
117.68623
117.68566
117.6799
117.68765
117.69953
117.68502
117.66135
117.64529
117.67947
117.69219
117.65404
117.67366
117.64995
117.68216
39.23678
39.257561
39.239931
39.239478
39.251109
39.247577
39.249258
39.235487
39.225401
39.230386
39.227521
39.229622
39.23639
39.238504
39.231847
39.229196
39.231004
39.224605
39.23301
39.247235
39.24731
39.257942
39.243228
39.250609
39.26138
39.239539
353.40994
353.4227
353.41586
353.41367
353.41712
353.41666
353.4127
353.41455
353.41555
353.41446
353.4055
353.40341
353.40565
353.4037
353.40727
353.40631
353.40485
353.40638
353.4005
353.40142
353.41129
353.41166
353.41393
353.41079
353.41304
353.41534
353.41042
353.41153
353.41862
353.40604
274.47292
274.48952
274.47077
274.4496
274.45018
274.44492
274.45126
274.48075
274.49986
274.49475
274.46635
274.45911
274.45763
274.46224
274.46201
274.46086
274.46018
274.46044
274.46185
274.46667
274.49698
274.50651
274.49516
274.46661
274.44804
274.45382
274.45315
274.46995
274.49005
274.47526
196.2803
196.2559
196.25342
196.26958
196.30586
196.29149
196.2537
196.23663
196.24325
196.2264
196.23371
196.25026
196.27398
196.28576
196.31458
196.30706
196.28641
196.27247
196.24884
196.23215
196.22872
196.24585
196.23473
196.25152
196.27881
196.30964
196.27038
196.25593
196.25602
196.28219
117.66326
117.66619
117.65186
117.66337
117.68831
117.68157
117.65941
117.64577
117.6738
117.68024
117.65435
117.67091
117.68042
117.69148
117.70478
117.70561
117.6928
117.6914
117.68059
117.66239
117.6828
117.66862
117.64893
117.64251
117.67875
117.68978
117.66803
117.65066
117.67015
117.66703
39.24639
39.227363
39.249333
39.250426
39.268054
39.260883
39.252492
39.249859
39.22977
39.242445
39.242959
39.234815
39.24371
39.231106
39.239762
39.240723
39.244313
39.248643
39.239501
39.241732
39.237388
39.228637
39.248398
39.2582
39.259934
39.273488
39.253066
39.253998
39.230719
39.247916
353.41223
353.414
353.41427
353.41099
353.40961
353.40844
353.40863
353.40747
353.4065
353.40722
353.40939
353.40735
353.4096
353.39451
353.40337
353.3992
353.3966
353.39607
353.39949
353.40123
353.40183
353.40226
353.40261
353.40266
353.40488
353.40626
353.4067
353.4102
353.40971
353.4092
274.46375
274.46125
274.45355
274.44734
274.44555
274.45076
274.46739
274.47335
274.46854
274.4557
274.45203
274.46775
274.48442
274.46713
274.46334
274.45883
274.46799
274.47406
274.46697
274.45657
274.46602
274.47555
274.47842
274.47463
274.45153
274.4489
274.45109
274.45651
274.46432
274.47421
196.29994
196.30356
196.29931
196.29287
196.29135
196.2759
196.27028
196.28381
196.27346
196.27577
196.278
196.28543
196.24638
196.25903
196.28224
196.27679
196.26723
196.27484
196.28438
196.28241
196.26801
196.27193
196.27948
196.27117
196.27405
196.29457
196.29329
196.2982
196.29926
196.30109
117.64518
117.62967
117.68125
117.68561
117.68255
117.66356
117.64877
117.64374
117.65351
117.66726
117.68834
117.66047
117.65964
117.65154
117.68242
117.6806
117.64912
117.65303
117.6788
117.67711
117.65348
117.65371
117.6437
117.65017
117.67333
117.68693
117.6866
117.68513
117.63618
117.64005
39.284714
39.247594
39.239284
39.254496
39.254811
39.25512
39.252598
39.279653
39.245893
39.256314
39.255895
39.262667
39.258618
39.236683
39.23359
39.236418
39.248024
39.271755
39.247922
39.255259
39.253461
39.249305
39.27808
39.251558
39.25518
39.257798
39.257172
39.242146
39.248643
39.282869
353.41497
353.41346
353.40969
353.41405
353.40836
353.41015
353.41747
353.41629
353.41213
353.41879
353.41598
353.41029
353.42587
353.40856
353.40747
353.40371
353.41508
353.42279
353.40504
353.4151
353.41406
353.40955
353.4136
353.41375
353.40741
353.40525
353.41002
353.40537
353.40939
353.4111
274.45348
274.44934
274.46338
274.47932
274.46618
274.4651
274.49531
274.49141
274.45419
274.45121
274.4502
274.46067
274.52163
274.50166
274.47932
274.47496
274.51049
274.50875
274.45994
274.45629
274.45347
274.46157
274.49834
274.49609
274.46904
274.46803
274.4826
274.46543
274.45284
274.45806
196.29371
196.26393
196.26414
196.23747
196.27341
196.26924
196.24687
196.23598
196.25175
196.28745
196.26563
196.24419
196.23057
196.23419
196.27414
196.26878
196.22259
196.22594
196.24297
196.27353
196.27325
196.25249
196.22983
196.25084
196.26702
196.26835
196.23678
196.26262
196.26277
196.29198
117.68171
117.6725
117.63669
117.6384
117.65532
117.66737
117.66849
117.64584
117.65735
117.68738
117.692
117.64362
117.66914
117.65245
117.68546
117.67711
117.65378
117.67536
117.65417
117.69389
117.68164
117.65385
117.64635
117.66883
117.66409
117.65453
117.64151
117.63896
117.67408
117.68135
39.255508
39.249968
39.253455
39.253752
39.23459
39.230925
39.232904
39.249148
39.249743
39.269679
39.263043
39.262341
39.256941
39.230766
39.234497
39.231893
39.244571
39.262371
39.261057
39.26375
39.259776
39.248121
39.245388
39.230297
39.230672
39.237181
39.254999
39.2534
39.250128
39.254616
353.41508
353.41072
353.42018
353.41967
353.42189
353.41674
353.40903
353.4148
353.40463
353.41477
353.4082
353.40609
353.42343
353.40684
353.4222
353.41449
353.41422
353.41644
353.40403
353.40839
353.41247
353.40257
353.41422
353.40701
353.41509
353.4185
353.41594
353.4161
353.40628
353.41082
274.4632
274.47097
274.50916
274.52539
274.52166
274.51634
274.50893
274.50682
274.46522
274.45832
274.45614
274.46838
274.52075
274.52001
274.52753
274.5248
274.53672
274.51762
274.46181
274.46413
274.46387
274.47108
274.51512
274.51396
274.51962
274.52368
274.52792
274.51169
274.47348
274.46686
196.2702
196.24016
196.24227
196.25692
196.25438
196.24977
196.25999
196.23756
196.25269
196.28244
196.26948
196.25014
196.24151
196.25513
196.24968
196.25225
196.23763
196.24258
196.24956
196.28599
196.27224
196.24544
196.23124
196.26027
196.24796
196.25293
196.25609
196.24068
196.23971
196.26885
117.68337
117.657
117.66705
117.68202
117.70318
117.69474
117.67099
117.65575
117.64895
117.69107
117.68834
117.63771
117.66577
117.65973
117.70302
117.6944
117.66066
117.67126
117.65035
117.68956
117.68613
117.6413
117.65591
117.67489
117.69787
117.70262
117.68237
117.66857
117.65856
117.6841
39.246401
39.245986
39.234673
39.226107
39.236542
39.229419
39.233399
39.252415
39.258575
39.266059
39.265863
39.259076
39.25392
39.222415
39.236911
39.229263
39.233797
39.253957
39.250514
39.269804
39.261034
39.255482
39.248556
39.229984
39.230493
39.236389
39.225619
39.235417
39.245856
39.246223
)
;

boundaryField
{
    minX
    {
        type            calculated;
        value           nonuniform List<scalar> 
50
(
353.41612
274.46217
196.26913
117.6812
39.244609
353.41611
274.45321
196.29326
117.67927
39.253691
353.41422
274.46719
196.30083
117.63839
39.28347
353.41094
274.47157
196.28102
117.66233
39.246662
353.41957
274.51587
196.26356
117.67785
39.237616
353.41981
274.51734
196.25856
117.67546
39.23678
353.40994
274.47292
196.2803
117.66326
39.24639
353.41223
274.46375
196.29994
117.64518
39.284714
353.41497
274.45348
196.29371
117.68171
39.255508
353.41508
274.4632
196.2702
117.68337
39.246401
)
;
    }
    maxX
    {
        type            calculated;
        value           nonuniform List<scalar> 
50
(
353.41005
274.46763
196.2692
117.68544
39.246942
353.41043
274.45848
196.29189
117.68203
39.254912
353.40857
274.47503
196.30105
117.64009
39.281801
353.40546
274.47772
196.28161
117.66734
39.246628
353.4154
274.52017
196.2628
117.6813
39.238915
353.41532
274.51918
196.26366
117.68216
39.239539
353.40604
274.47526
196.28219
117.66703
39.247916
353.4092
274.47421
196.30109
117.64005
39.282869
353.4111
274.45806
196.29198
117.68135
39.254616
353.41082
274.46686
196.26885
117.6841
39.246223
)
;
    }
    minY
    {
        type            calculated;
        value           nonuniform List<scalar> 
292
(
392.4
392.4
392.4
392.4
392.4
392.4
392.4
392.4
392.4
392.4
392.4
392.4
392.4
392.4
392.4
392.4
392.4
392.4
392.4
392.4
392.4
392.4
392.4
392.4
392.4
392.4
392.4
392.4
392.4
392.4
392.4
392.4
392.4
392.4
392.4
392.4
392.4
392.4
392.4
392.4
392.4
392.4
392.4
392.4
392.4
392.4
392.4
392.4
392.4
392.4
392.4
392.4
392.4
392.4
392.4
392.4
392.4
392.4
392.4
392.4
392.4
392.4
392.4
392.4
392.4
392.4
392.4
392.4
392.4
392.4
392.4
392.4
392.4
392.4
392.4
392.4
392.4
392.4
392.4
392.4
392.4
392.4
392.4
392.4
392.4
392.4
392.4
392.4
392.4
392.4
392.4
392.4
392.4
392.4
392.4
392.4
392.4
392.4
392.4
392.4
392.4
392.4
392.4
392.4
392.4
392.4
392.4
392.4
392.4
392.4
392.4
392.4
392.4
392.4
392.4
392.4
392.4
392.4
392.4
392.4
392.4
392.4
392.4
392.4
392.4
392.4
392.4
392.4
392.4
392.4
392.4
392.4
392.4
392.4
392.4
392.4
392.4
392.4
392.4
392.4
392.4
392.4
392.4
392.4
392.4
392.4
392.4
392.4
392.4
392.4
392.4
392.4
392.4
392.4
392.4
392.4
392.4
392.4
392.4
392.4
392.4
392.4
392.4
392.4
392.4
392.4
392.4
392.4
392.4
392.4
392.4
392.4
392.4
392.4
392.4
392.4
392.4
392.4
392.4
392.4
392.4
392.4
392.4
392.4
392.4
392.4
392.4
392.4
392.4
392.4
392.4
392.4
392.4
392.4
392.4
392.4
392.4
392.4
392.4
392.4
392.4
392.4
392.4
392.4
392.4
392.4
392.4
392.4
392.4
392.4
392.4
392.4
392.4
392.4
392.4
392.4
392.4
392.4
392.4
392.4
392.4
392.4
392.4
392.4
392.4
392.4
392.4
392.4
392.4
392.4
392.4
392.4
392.4
392.4
392.4
392.4
392.4
392.4
392.4
392.4
392.4
392.4
392.4
392.4
392.4
392.4
392.4
392.4
392.4
392.4
392.4
392.4
392.4
392.4
392.4
392.4
392.4
392.4
392.4
392.4
392.4
392.4
392.4
392.4
392.4
392.4
392.4
392.4
392.4
392.4
392.4
392.4
392.4
392.4
392.4
392.4
392.4
392.4
392.4
392.4
392.4
392.4
392.4
392.4
392.4
392.4
392.4
392.4
392.4
392.4
392.4
392.4
)
;
    }
    minZ
    {
        type            calculated;
        value           nonuniform List<scalar> 
150
(
353.41612
274.46217
196.26913
117.6812
39.244609
353.41219
274.47167
196.23749
117.65618
39.244378
353.4209
274.50855
196.24235
117.66708
39.232784
353.42062
274.52455
196.25526
117.68256
39.226279
353.42284
274.52228
196.25372
117.70388
39.23674
353.41638
274.51679
196.2508
117.69312
39.228936
353.41013
274.50689
196.25733
117.66927
39.236355
353.41422
274.49889
196.24299
117.65592
39.253503
353.40622
274.46236
196.25404
117.65599
39.257911
353.41818
274.45529
196.29003
117.69282
39.268484
353.41076
274.44786
196.2559
117.69044
39.260698
353.41188
274.47172
196.24333
117.64026
39.258189
353.42886
274.5242
196.23502
117.66362
39.251681
353.4053
274.51441
196.26217
117.66061
39.219095
353.42445
274.52929
196.24777
117.70529
39.236818
353.41073
274.52081
196.25317
117.69295
39.226224
353.41689
274.54183
196.22655
117.66509
39.238257
353.41367
274.51136
196.24008
117.67242
39.25093
353.40313
274.45924
196.24994
117.66413
39.246577
353.40831
274.46424
196.29201
117.69193
39.270436
353.41017
274.46352
196.26699
117.68506
39.258773
353.4001
274.4687
196.24875
117.64563
39.254156
353.41365
274.51711
196.23042
117.65909
39.247531
353.4067
274.51532
196.2616
117.6797
39.229546
353.41536
274.52018
196.24858
117.70076
39.23221
353.41787
274.52327
196.25321
117.70315
39.236817
353.41544
274.52781
196.2577
117.68212
39.225138
353.41614
274.51193
196.23862
117.66772
39.236997
353.40492
274.47148
196.24206
117.65874
39.246511
353.41005
274.46763
196.2692
117.68544
39.246942
)
;
    }
    maxZ
    {
        type            calculated;
        value           nonuniform List<scalar> 
150
(
353.41508
274.4632
196.2702
117.68337
39.246401
353.41072
274.47097
196.24016
117.657
39.245986
353.42018
274.50916
196.24227
117.66705
39.234673
353.41967
274.52539
196.25692
117.68202
39.226107
353.42189
274.52166
196.25438
117.70318
39.236542
353.41674
274.51634
196.24977
117.69474
39.229419
353.40903
274.50893
196.25999
117.67099
39.233399
353.4148
274.50682
196.23756
117.65575
39.252415
353.40463
274.46522
196.25269
117.64895
39.258575
353.41477
274.45832
196.28244
117.69107
39.266059
353.4082
274.45614
196.26948
117.68834
39.265863
353.40609
274.46838
196.25014
117.63771
39.259076
353.42343
274.52075
196.24151
117.66577
39.25392
353.40684
274.52001
196.25513
117.65973
39.222415
353.4222
274.52753
196.24968
117.70302
39.236911
353.41449
274.5248
196.25225
117.6944
39.229263
353.41422
274.53672
196.23763
117.66066
39.233797
353.41644
274.51762
196.24258
117.67126
39.253957
353.40403
274.46181
196.24956
117.65035
39.250514
353.40839
274.46413
196.28599
117.68956
39.269804
353.41247
274.46387
196.27224
117.68613
39.261034
353.40257
274.47108
196.24544
117.6413
39.255482
353.41422
274.51512
196.23124
117.65591
39.248556
353.40701
274.51396
196.26027
117.67489
39.229984
353.41509
274.51962
196.24796
117.69787
39.230493
353.4185
274.52368
196.25293
117.70262
39.236389
353.41594
274.52792
196.25609
117.68237
39.225619
353.4161
274.51169
196.24068
117.66857
39.235417
353.40628
274.47348
196.23971
117.65856
39.245856
353.41082
274.46686
196.26885
117.6841
39.246223
)
;
    }
    bottomWater_to_rightSolid
    {
        type            calculated;
        value           nonuniform List<scalar> 
130
(
0.01092977
0.0065774694
0.030435994
0.018773397
0.014156329
0.0075313423
-0.010453608
-0.0077903553
-0.0031827686
-0.014862336
-0.0030025741
0.0065105654
0.0069421049
0.021599427
0.018348413
0.02357021
0.015814529
0.0076487486
0.0044383398
-0.0097804483
-0.0085343015
-0.00073679045
0.016872361
0.014029365
0.010996998
0.01491242
0.030532643
0.0076759852
0.015721913
0.012186294
0.010898114
0.037622894
0.011898237
0.015613684
0.01900987
0.01781997
0.0025819719
0.0077312216
0.041800649
0.011752833
0.0027532603
0.0032280454
-0.0025275716
-0.010624912
0.0085957759
0.022258343
0.019817649
0.033047958
0.011851753
0.012396177
-0.010855736
0.0066282966
-0.0022071101
-0.0070950551
-0.011425989
-0.0084881068
-0.015376994
-0.0076522362
0.0061023453
0.0047101703
0.014081032
-0.00016562431
0.005105555
0.018132808
-0.0010853248
-0.0014955614
-0.0081526322
-0.01080403
-0.0089962244
-0.01539491
-0.0069895918
0.0072352258
0.0073103535
0.017941777
0.0032283666
0.010608588
0.021380184
-0.00046100165
0.0086432309
-0.00049929299
0.0017320317
-0.0026121263
-0.011363466
0.0083977518
0.018200126
0.019934141
0.033487945
0.013066433
0.01399807
-0.0092812986
0.0079155836
0.031754533
0.0079222421
0.015258605
0.013461491
0.0093048222
0.038080368
0.01155752
0.015179676
0.017798261
0.017172469
0.0021456065
0.0086432218
0.042869343
0.022370633
0.021056867
0.023750298
0.019776314
0.0081206866
0.0053882798
-0.0097031178
-0.0093278015
-0.0028194368
0.014999202
0.013400181
0.010128106
0.014616162
0.013957132
0.010514095
0.029804228
0.021034379
0.015481631
0.0085556133
-0.010015678
-0.0095071748
-0.0036114903
-0.014380665
-0.0045832749
0.0058559584
0.0062226834
)
;
    }
    bottomWater_to_leftSolid
    {
        type            calculated;
        value           nonuniform List<scalar> 
130
(
0.0046089598
0.0043782913
-0.0072157834
-0.013720723
-0.0032604573
-0.011064379
-0.0036454063
0.013503353
0.017911167
0.028484049
0.020698057
0.018188933
0.011681366
0.013691103
0.008200518
0.012389297
0.011460636
-0.0057693336
-0.010197409
-0.0025047958
0.014153577
0.014025361
0.037011216
0.022458226
0.02286462
0.013392725
0.043470169
0.0085446138
-0.00083916846
0.013805308
0.014912334
0.018812602
0.020160512
0.043443488
0.0079939027
0.019814015
0.017095077
0.025956162
0.011999485
0.0066621723
-0.012453079
0.010496825
0.010355591
0.028633825
0.021422753
0.013727115
0.010043817
-0.0098472138
0.0012830487
0.0026722201
-0.0090538761
0.00044179752
-0.0023844035
0.019574608
0.0028679866
0.0010690412
0.012653365
0.009375414
0.01065876
-0.0031226372
-0.015235537
-0.010000651
-0.012432917
-0.012461728
-0.0062956149
-0.0032203115
0.017560965
-6.8519508e-05
-0.00052186464
0.011109436
0.0075770676
0.0092580942
-0.0045132761
-0.0145988
-0.0096137174
-0.012478712
-0.010377561
-0.0036097401
0.0063897636
-0.012636943
0.0093328641
0.010426487
0.028054059
0.020882982
0.012491771
0.0098585027
-0.01022969
0.0024447357
0.0029587996
-0.0051854696
0.003709937
0.044713878
0.0075940204
-0.00071575306
0.014496442
0.014811022
0.015119595
0.012598276
0.039652629
0.0058934382
0.016313541
0.015894683
0.022667
0.01861801
0.01550756
0.0099682268
0.01345537
0.013751837
-0.0054102456
-0.0090751824
-0.0070956482
0.00914829
0.0097434964
0.029679126
0.023042522
0.022341067
0.016941002
0.0064007375
0.0059863554
-0.0053273622
-0.013893016
-0.0034578127
-0.01058124
-0.006601129
0.012415085
0.018574817
0.026058791
0.025862662
0.019075833
0.013920388
)
;
    }
    bottomWater_to_heater
    {
        type            calculated;
        value           nonuniform List<scalar> 
92
(
-0.020904855
-0.0031819402
-0.013775797
-0.0017429569
-0.013886284
-0.0053505644
-0.0091511539
0.0095012167
-0.0063346393
-0.0069903846
-0.0018999487
0.015078773
353.40297
353.40568
353.40535
353.40412
274.46529
274.46177
274.45985
274.46055
196.28618
196.30744
196.3074
196.28879
117.68792
117.69924
117.69471
117.69036
-0.0092431051
39.230757
0.0012701535
39.24127
0.0067392691
39.246739
0.013299421
39.253299
353.41068
353.40382
274.4642
274.472
196.26666
196.26609
117.69381
117.68521
39.233704
39.237793
353.40898
353.4037
353.40727
353.40631
353.40472
353.40485
274.46402
274.46224
274.46201
274.46086
274.47203
274.46018
196.2663
196.28576
196.31458
196.30706
196.26791
196.28641
117.68623
117.69148
117.70478
117.70561
117.68566
117.6928
39.23639
39.231106
39.239762
39.240723
39.238504
39.244313
-0.0088942389
-0.00023825572
0.00072277349
0.0043133466
-0.0033166655
-0.0064096027
-0.0035822847
0.0080236733
-0.0092341731
-0.005502892
-0.0081066599
0.0045713919
-0.017584919
-0.0030885253
-0.010736584
-0.0062026547
)
;
    }
}


// ************************************************************************* //
