/*--------------------------------*- C++ -*----------------------------------*\
| =========                 |                                                 |
| \\      /  F ield         | OpenFOAM: The Open Source CFD Toolbox           |
|  \\    /   O peration     | Version:  v2012                                 |
|   \\  /    A nd           | Website:  www.openfoam.com                      |
|    \\/     M anipulation  |                                                 |
\*---------------------------------------------------------------------------*/
FoamFile
{
    version     2.0;
    format      ascii;
    class       volScalarField;
    location    "100/bottomWater";
    object      p_rgh;
}
// * * * * * * * * * * * * * * * * * * * * * * * * * * * * * * * * * * * * * //

dimensions      [1 -1 -2 0 0 0 0];


internalField   nonuniform List<scalar> 
1460
(
0.25612497
0.25218963
0.2608959
0.26062123
0.26283977
0.25638124
0.25012576
0.25421721
0.24622444
0.25817877
0.25076057
0.25188436
0.26886372
0.24530195
0.26444804
0.2507264
0.25688592
0.25367099
0.24313088
0.2483082
0.25016976
0.24009507
0.25365337
0.24669984
0.25536149
0.257867
0.25544238
0.25614165
0.24492173
0.25005167
-0.21782729
-0.20833307
-0.17145303
-0.15544918
-0.15771644
-0.16321105
-0.17311062
-0.18110721
-0.21764062
-0.22471454
-0.2321419
-0.20827905
-0.15579774
-0.16559444
-0.15070747
-0.15919144
-0.13816607
-0.16864195
-0.22075974
-0.21575591
-0.21647614
-0.21129874
-0.16289195
-0.16467555
-0.15981702
-0.15673003
-0.15218695
-0.16807295
-0.20851936
-0.21237116
0.069126336
0.037494895
0.042349259
0.05525631
0.053722073
0.050804136
0.057328919
0.042985493
0.054037592
0.090027257
0.055900392
0.043329298
0.035021771
0.062174393
0.047773979
0.053168455
0.026554264
0.040075351
0.049937131
0.092009992
0.066985947
0.048754742
0.030424182
0.061597019
0.048582782
0.053208798
0.057704858
0.038623011
0.042058854
0.069197199
-0.038799565
-0.063823082
-0.052922665
-0.037443053
-0.016121234
-0.026876339
-0.050726232
-0.064078749
-0.064014564
-0.027177579
-0.029557804
-0.079739221
-0.056375334
-0.059394255
-0.014714319
-0.027047562
-0.054912282
-0.047583105
-0.055870146
-0.028069625
-0.034939691
-0.074367652
-0.060908101
-0.040299204
-0.019238765
-0.016852983
-0.037877538
-0.052277867
-0.06126378
-0.034559367
0.0046089598
0.0043782913
-0.0072157834
-0.013720723
-0.0032604573
-0.011064379
-0.0036454063
0.013503353
0.017911167
0.028484049
0.020698057
0.018188933
0.011681366
-0.020904855
-0.0031819402
-0.013775797
-0.0017429569
0.01092977
0.0065774694
0.030435994
0.018773397
0.014156329
0.0075313423
-0.010453608
-0.0077903553
-0.0031827686
-0.014862336
-0.0030025741
0.0065105654
0.0069421049
0.25611378
0.2545473
0.25123341
0.25588308
0.25087663
0.25244602
0.25937213
0.25606637
0.25313318
0.26273068
0.25669788
0.25500361
0.26631302
0.2486191
0.246236
0.24258916
0.25338154
0.25946246
0.24372281
0.25421725
0.25161841
0.24790521
0.2527913
0.25238903
0.24737524
0.24404779
0.24911273
0.2451883
0.24882787
0.25042579
-0.22679405
-0.23079908
-0.21456282
-0.20251277
-0.21523615
-0.20903849
-0.18514256
-0.19813511
-0.23147795
-0.23328429
-0.23470788
-0.21390423
-0.15421313
-0.17914625
-0.1997838
-0.20665083
-0.16978133
-0.17420527
-0.21937747
-0.22267066
-0.22481407
-0.21443569
-0.1788443
-0.18499779
-0.21048722
-0.21419729
-0.19667376
-0.21268299
-0.22712599
-0.22151802
0.093259075
0.061390991
0.059155059
0.034602529
0.075164144
0.06303356
0.043177773
0.045047824
0.050739403
0.099967703
0.059721959
0.04123416
0.030097102
0.036552177
0.075774148
0.066723633
0.024855769
0.027510418
0.044818298
0.076067763
0.069187409
0.053539988
0.027644306
0.053588747
0.068450723
0.069971417
0.040120339
0.061419035
0.06381327
0.091889523
-0.040732014
-0.050190748
-0.084245922
-0.08258994
-0.062400091
-0.051641853
-0.054387544
-0.078184388
-0.053230555
-0.029210569
-0.031432379
-0.075841203
-0.054632506
-0.066699349
-0.033565433
-0.041594303
-0.062666363
-0.045347739
-0.05860679
-0.026527867
-0.041009456
-0.066537982
-0.071779075
-0.050647019
-0.057633097
-0.06584811
-0.078284807
-0.08089724
-0.044218928
-0.037973208
0.013691103
0.008200518
0.012389297
0.011460636
-0.0057693336
-0.010197409
-0.0025047958
0.014153577
0.014025361
0.037011216
0.022458226
0.02286462
0.013392725
-0.013886284
-0.0053505644
-0.0091511539
0.0095012167
0.021599427
0.018348413
0.02357021
0.015814529
0.0076487486
0.0044383398
-0.0097804483
-0.0085343015
-0.00073679045
0.016872361
0.014029365
0.010996998
0.01491242
0.25421697
0.25577978
0.2552235
0.25207021
0.25078541
0.24996779
0.25209648
0.24906791
0.24907252
0.25068209
0.25299958
0.25126826
0.25213436
0.23197862
0.24282708
0.23849121
0.23735867
0.23521687
0.23852567
0.239718
0.24026429
0.24122841
0.24170061
0.24273608
0.24540668
0.24649868
0.24719402
0.24982661
0.24901944
0.24856642
-0.21280658
-0.22201287
-0.22814532
-0.23322854
-0.23635891
-0.22296924
-0.21213268
-0.21308062
-0.21484365
-0.22785788
-0.23006781
-0.21230455
-0.19200418
-0.2124738
-0.2131767
-0.22118718
-0.21106058
-0.20476898
-0.21562427
-0.22214138
-0.21175886
-0.20257414
-0.20050947
-0.20435569
-0.22923665
-0.2304575
-0.22833263
-0.22196077
-0.21406831
-0.20496767
0.10082983
0.10063234
0.098964337
0.092992189
0.086633373
0.07578332
0.069848718
0.088945428
0.073608629
0.080299325
0.074365955
0.085116556
0.038845006
0.058806069
0.083672372
0.077456886
0.070985551
0.074824416
0.083861217
0.08099677
0.063636721
0.069299487
0.075388779
0.067761249
0.07412666
0.095801478
0.093130396
0.096551078
0.098348883
0.10105439
-0.081605837
-0.087738389
-0.038335035
-0.034714005
-0.041402545
-0.07318898
-0.070733177
-0.072999853
-0.067313094
-0.052344389
-0.02867836
-0.070225173
-0.064874499
-0.06903999
-0.039818333
-0.041069162
-0.06577402
-0.064147111
-0.03551941
-0.042175001
-0.065838247
-0.065234629
-0.07437227
-0.067398049
-0.041358287
-0.029659331
-0.033304434
-0.036609019
-0.084266482
-0.079905082
0.043470169
0.0085446138
-0.00083916846
0.013805308
0.014912334
0.018812602
0.020160512
0.043443488
0.0079939027
0.019814015
0.017095077
0.025956162
0.011999485
-0.0063346393
-0.0069903846
-0.0018999487
0.015078773
0.030532643
0.0076759852
0.015721913
0.012186294
0.010898114
0.037622894
0.011898237
0.015613684
0.01900987
0.01781997
0.0025819719
0.0077312216
0.041800649
0.2509419
0.26271748
0.2565569
0.25474003
0.2585578
0.25769766
0.25391459
0.25417896
0.25597871
0.25651521
0.24741619
0.24428047
0.24372804
0.24297339
0.24567909
0.24534615
0.24412082
0.24605168
0.23970668
0.23963088
0.24943957
0.24995728
0.25352223
0.24976952
0.2521136
0.25411391
0.24934738
0.25146714
0.25862762
0.24545684
-0.20843403
-0.19365308
-0.21266054
-0.23219761
-0.23263634
-0.23681911
-0.22958942
-0.19369911
-0.18057299
-0.18669939
-0.21200676
-0.2207115
-0.22028077
-0.21471092
-0.21822977
-0.22014934
-0.21945257
-0.21913047
-0.21767599
-0.21292257
-0.18386722
-0.17234016
-0.18173219
-0.20902096
-0.23052169
-0.22348316
-0.22430201
-0.20445758
-0.18680693
-0.20227594
0.0810227
0.055385468
0.054881523
0.069994134
0.10774865
0.087540748
0.053491402
0.036050956
0.043348844
0.030677373
0.03629678
0.051114619
0.073517656
0.086184619
0.10744111
0.10740134
0.088794716
0.074585841
0.05159539
0.033515659
0.030783844
0.047484054
0.036509155
0.051184583
0.075188451
0.10592138
0.068213598
0.051636346
0.056338562
0.081612325
-0.057669774
-0.053383888
-0.069380564
-0.055127804
-0.031154965
-0.038298317
-0.060213059
-0.072504201
-0.047639077
-0.0408431
-0.067326176
-0.052679926
-0.042556438
-0.032078265
-0.020764148
-0.025293365
-0.029637372
-0.028231764
-0.038501109
-0.059490174
-0.036854338
-0.055428859
-0.070351974
-0.084736904
-0.040978253
-0.030860453
-0.054192196
-0.066256988
-0.049808174
-0.052663902
0.0066621723
-0.012453079
0.010496825
0.010355591
0.028633825
0.021422753
0.013727115
0.010043817
-0.0098472138
0.0012830487
0.0026722201
-0.0090538761
0.00044179752
-0.0092431051
0.0012701535
0.0067392691
0.013299421
0.011752833
0.0027532603
0.0032280454
-0.0025275716
-0.010624912
0.0085957759
0.022258343
0.019817649
0.033047958
0.011851753
0.012396177
-0.010855736
0.0066282966
0.25957309
0.25042979
0.26534955
0.24832683
0.25486117
0.25533137
0.25020055
0.25815317
0.25676972
0.25774846
0.25630652
0.2475967
0.25068142
0.24382227
0.24050163
0.24909068
0.25296554
0.25222112
0.25225876
0.2500055
0.25148855
0.25296996
0.24526477
0.26158818
0.24722304
0.25539797
-0.16412931
-0.19025021
-0.16969681
-0.2186808
-0.22547671
-0.22813577
-0.21760116
-0.17574848
-0.15751525
-0.15624027
-0.17533243
-0.21013025
-0.21580448
-0.20799689
-0.20291476
-0.17094695
-0.1491566
-0.15214847
-0.1642309
-0.1968352
-0.22291366
-0.22398543
-0.21023101
-0.16425527
-0.18694341
-0.1598286
0.063563975
0.089485846
0.057631435
0.067934623
0.079734534
0.072978828
0.045919856
0.039095633
0.055068237
0.054745225
0.048068698
0.060131995
0.066663491
0.066093914
0.052893237
0.046916367
0.052165714
0.051712818
0.043298868
0.038313182
0.067129706
0.07441723
0.068355141
0.057818954
0.086469871
0.062802671
-0.042149483
-0.073717437
-0.048163222
-0.064469857
-0.029262681
-0.035517227
-0.077340622
-0.061846207
-0.037000579
-0.024539947
-0.038319956
-0.041003697
-0.026185117
-0.034788751
-0.041213549
-0.031982193
-0.01879435
-0.033411669
-0.057429705
-0.071904726
-0.041976494
-0.028746261
-0.062333228
-0.043600863
-0.070474673
-0.038702803
-0.0023844035
0.019574608
0.0028679866
0.0010690412
0.012653365
0.009375414
0.01065876
-0.0031226372
-0.015235537
-0.010000651
-0.012432917
-0.012461728
-0.0062956149
-0.0022071101
-0.0070950551
-0.011425989
-0.0084881068
-0.015376994
-0.0076522362
0.0061023453
0.0047101703
0.014081032
-0.00016562431
0.005105555
0.018132808
-0.0010853248
0.25980767
0.25237706
0.26559511
0.2487244
0.25443174
0.25481668
0.24967282
0.25719838
0.25632125
0.25651477
0.25456208
0.24569843
0.24897644
0.24471971
0.24139771
0.25003368
0.25338572
0.25200184
0.25220477
0.24818802
0.25010226
0.25206456
0.24260966
0.26108012
0.24569924
0.25532464
-0.16265832
-0.18241501
-0.1662261
-0.21716809
-0.2253911
-0.22822345
-0.21792645
-0.17678156
-0.15726056
-0.15615848
-0.17570665
-0.20980312
-0.21598047
-0.20797207
-0.20224402
-0.16986322
-0.14896478
-0.15216732
-0.16605533
-0.19983937
-0.22258967
-0.22417835
-0.21516813
-0.1691843
-0.18792125
-0.16081736
0.058556732
0.08293527
0.057844976
0.067114497
0.078858017
0.071905512
0.045370344
0.038627381
0.054410949
0.054449074
0.048124124
0.058210651
0.066302087
0.067910966
0.055638252
0.048291192
0.053853813
0.05266462
0.04287221
0.040349948
0.068636218
0.076554484
0.071141514
0.056397547
0.090679461
0.063657365
-0.044535288
-0.077159591
-0.047455433
-0.063440687
-0.02960314
-0.036240946
-0.076123791
-0.061154121
-0.035428715
-0.02543142
-0.038954368
-0.044776513
-0.033774965
-0.034343942
-0.040103974
-0.032352728
-0.020471431
-0.034983281
-0.058651965
-0.074713295
-0.040534106
-0.027814425
-0.065963876
-0.0463386
-0.070050979
-0.037840329
-0.0032203115
0.017560965
-6.8519508e-05
-0.00052186464
0.011109436
0.0075770676
0.0092580942
-0.0045132761
-0.0145988
-0.0096137174
-0.012478712
-0.010377561
-0.0036097401
-0.0014955614
-0.0081526322
-0.01080403
-0.0089962244
-0.01539491
-0.0069895918
0.0072352258
0.0073103535
0.017941777
0.0032283666
0.010608588
0.021380184
-0.00046100165
0.24994348
0.26270239
0.25585958
0.25367064
0.25711847
0.25665513
0.25270095
0.2545458
0.25554836
0.25445995
0.2455009
0.24340807
0.24564982
0.24369534
0.24726546
0.24631286
0.2448477
0.24637743
0.24050492
0.24142149
0.25128663
0.25165887
0.25392983
0.25079406
0.25304276
0.25534079
0.2504249
0.25153013
0.25861681
0.24604024
-0.20708207
-0.19048004
-0.20923125
-0.23040276
-0.22982386
-0.23507782
-0.22874371
-0.19924885
-0.18014089
-0.18524726
-0.21365494
-0.22089055
-0.22237402
-0.21775824
-0.21798896
-0.21913778
-0.21982225
-0.21955698
-0.21814578
-0.21332599
-0.18301843
-0.17348649
-0.18483972
-0.21338747
-0.23195568
-0.22618259
-0.22685186
-0.21004793
-0.18994686
-0.20474082
0.0803046
0.055899128
0.053418907
0.069575994
0.10586088
0.091488437
0.053696563
0.036634427
0.043253264
0.026401148
0.033706041
0.050255194
0.073980577
0.085761394
0.11457569
0.10705649
0.08640927
0.072465705
0.048835001
0.03214556
0.028716933
0.045853238
0.034728959
0.051522142
0.078807949
0.10964022
0.070376802
0.055934542
0.056020519
0.08219023
-0.056744809
-0.053813058
-0.068139053
-0.05663441
-0.031693705
-0.038428292
-0.060592864
-0.074231668
-0.04619643
-0.039760586
-0.065653223
-0.049094804
-0.039577547
-0.028523342
-0.015220068
-0.014394674
-0.027197671
-0.028598047
-0.039414051
-0.057608106
-0.037195884
-0.051383958
-0.071067541
-0.077490906
-0.041250278
-0.030224248
-0.051969175
-0.069335647
-0.049847853
-0.052968592
0.0063897636
-0.012636943
0.0093328641
0.010426487
0.028054059
0.020882982
0.012491771
0.0098585027
-0.01022969
0.0024447357
0.0029587996
-0.0051854696
0.003709937
-0.0088942389
-0.00023825572
0.00072277349
0.0043133466
0.0086432309
-0.00049929299
0.0017320317
-0.0026121263
-0.011363466
0.0083977518
0.018200126
0.019934141
0.033487945
0.013066433
0.01399807
-0.0092812986
0.0079155836
0.25222851
0.25400482
0.25426775
0.25099367
0.24961179
0.24844245
0.24863257
0.24746602
0.24649946
0.24721933
0.24939324
0.24735338
0.24959871
0.23451413
0.24336681
0.23919798
0.23660003
0.23607454
0.23949324
0.24122799
0.24183245
0.24225774
0.24260759
0.24266492
0.2448759
0.24625521
0.24669731
0.25019883
0.24970734
0.24920462
-0.21625269
-0.21875322
-0.22645334
-0.23266444
-0.23444596
-0.22923505
-0.21261296
-0.20664846
-0.2114566
-0.22429917
-0.22796787
-0.21224785
-0.19557621
-0.21286875
-0.2166568
-0.22117174
-0.21200818
-0.20593647
-0.21303446
-0.223433
-0.21398284
-0.20445289
-0.20157972
-0.20537337
-0.22847304
-0.23109531
-0.228912
-0.2234878
-0.2156762
-0.20579485
0.099935471
0.10355572
0.099307363
0.092872454
0.091351558
0.07589699
0.07028049
0.083813325
0.073463226
0.075774992
0.07799871
0.085425774
0.046384256
0.059025298
0.082239962
0.07679124
0.067231337
0.07484414
0.084383848
0.082407307
0.068009485
0.071932026
0.079481514
0.071167404
0.074052304
0.094571713
0.093290309
0.098199969
0.09925566
0.10109318
-0.074822995
-0.09032571
-0.038748423
-0.034391889
-0.037446619
-0.056442553
-0.071230106
-0.07626368
-0.066489327
-0.052739341
-0.031659803
-0.059525011
-0.060356134
-0.068456584
-0.037576667
-0.039401074
-0.070884391
-0.066970133
-0.041203208
-0.042890879
-0.06652492
-0.066287732
-0.076302081
-0.069825269
-0.046669485
-0.033067698
-0.033395851
-0.034871283
-0.083815323
-0.079947685
0.044713878
0.0075940204
-0.00071575306
0.014496442
0.014811022
0.015119595
0.012598276
0.039652629
0.0058934382
0.016313541
0.015894683
0.022667
0.01861801
-0.0033166655
-0.0064096027
-0.0035822847
0.0080236733
0.031754533
0.0079222421
0.015258605
0.013461491
0.0093048222
0.038080368
0.01155752
0.015179676
0.017798261
0.017172469
0.0021456065
0.0086432218
0.042869343
0.25496742
0.25346213
0.24968587
0.25404838
0.24836089
0.25015488
0.2574725
0.25628787
0.25213203
0.2587854
0.25598496
0.25028831
0.26586927
0.24855756
0.24747022
0.24371476
0.25508363
0.26278825
0.24504041
0.2550952
0.25406097
0.24955383
0.25359659
0.25375444
0.24741303
0.24525369
0.25001676
0.24536987
0.2493894
0.2511037
-0.22652494
-0.23066444
-0.21661903
-0.20067631
-0.21381617
-0.21489701
-0.18469491
-0.18859109
-0.22580928
-0.22879125
-0.22980275
-0.21932676
-0.15837283
-0.17834267
-0.20068452
-0.20504492
-0.16950623
-0.1712479
-0.22005623
-0.2237145
-0.22652771
-0.21843379
-0.18166277
-0.18390689
-0.21096182
-0.21196779
-0.19740169
-0.21457487
-0.22715985
-0.22193816
0.093706117
0.063933497
0.064141937
0.03746609
0.073409046
0.069244326
0.046870726
0.035979671
0.051753702
0.087454832
0.065627663
0.04419185
0.030573394
0.03419165
0.074142678
0.068783239
0.022587088
0.025939334
0.042973459
0.073530721
0.073248083
0.05249261
0.029834618
0.050842313
0.067015996
0.068347297
0.03677835
0.062616666
0.062772054
0.091978855
-0.038290667
-0.047499355
-0.083306898
-0.081602543
-0.064682842
-0.052627741
-0.051509264
-0.07416214
-0.062645141
-0.032622298
-0.027997219
-0.076383732
-0.050860392
-0.067548841
-0.034542696
-0.042888531
-0.066223445
-0.044639429
-0.065831999
-0.026109558
-0.038356884
-0.066151313
-0.073646092
-0.051172945
-0.055912052
-0.065472273
-0.078488963
-0.081043025
-0.045921704
-0.038653949
0.01550756
0.0099682268
0.01345537
0.013751837
-0.0054102456
-0.0090751824
-0.0070956482
0.00914829
0.0097434964
0.029679126
0.023042522
0.022341067
0.016941002
-0.0092341731
-0.005502892
-0.0081066599
0.0045713919
0.022370633
0.021056867
0.023750298
0.019776314
0.0081206866
0.0053882798
-0.0097031178
-0.0093278015
-0.0028194368
0.014999202
0.013400181
0.010128106
0.014616162
0.25507844
0.25072234
0.26018421
0.25966851
0.26188842
0.25673916
0.24902617
0.25480256
0.24462906
0.25476851
0.24819579
0.24608835
0.26342958
0.24684329
0.26219714
0.25448685
0.25421771
0.25643733
0.24403026
0.24838512
0.25246969
0.24256892
0.25421817
0.24700555
0.25508742
0.25849905
0.25594174
0.25610312
0.24627822
0.2508245
-0.21679819
-0.2090331
-0.17084136
-0.15461497
-0.15834145
-0.16366167
-0.17106878
-0.17317541
-0.21478125
-0.22168316
-0.22386208
-0.21162279
-0.15924627
-0.15999432
-0.15247345
-0.15519845
-0.14327621
-0.1623774
-0.2181927
-0.21586889
-0.21613203
-0.20891927
-0.16488199
-0.16604211
-0.16038412
-0.15631664
-0.15207549
-0.16831449
-0.2065159
-0.21313554
0.070197828
0.040163562
0.042271217
0.056922101
0.054378328
0.049772611
0.059994049
0.037561505
0.052685462
0.082443751
0.069479474
0.050142084
0.041511903
0.055129084
0.049679107
0.052246275
0.037633164
0.042584727
0.049560454
0.085991125
0.072236809
0.045442488
0.031239356
0.060273745
0.047957178
0.052931681
0.056089373
0.040678453
0.039708768
0.068845466
-0.036628768
-0.063002208
-0.052947738
-0.0379766
-0.016817914
-0.025256849
-0.049008683
-0.064253892
-0.071050598
-0.028932131
-0.031661897
-0.082294738
-0.054226729
-0.060266524
-0.016980087
-0.025597395
-0.059342256
-0.048737772
-0.069653861
-0.030442877
-0.033871039
-0.078695554
-0.064086385
-0.045109146
-0.022132134
-0.017375017
-0.037625192
-0.05143227
-0.061443768
-0.035900436
0.0064007375
0.0059863554
-0.0053273622
-0.013893016
-0.0034578127
-0.01058124
-0.006601129
0.012415085
0.018574817
0.026058791
0.025862662
0.019075833
0.013920388
-0.017584919
-0.0030885253
-0.010736584
-0.0062026547
0.013957132
0.010514095
0.029804228
0.021034379
0.015481631
0.0085556133
-0.010015678
-0.0095071748
-0.0036114903
-0.014380665
-0.0045832749
0.0058559584
0.0062226834
)
;

boundaryField
{
    minX
    {
        type            fixedFluxPressure;
        gradient        uniform 0;
        value           nonuniform List<scalar> 
50
(
0.25612497
-0.21782729
0.069126336
-0.038799565
0.0046089598
0.25611378
-0.22679405
0.093259075
-0.040732014
0.013691103
0.25421697
-0.21280658
0.10082983
-0.081605837
0.043470169
0.2509419
-0.20843403
0.0810227
-0.057669774
0.0066621723
0.25957309
-0.16412931
0.063563975
-0.042149483
-0.0023844035
0.25980767
-0.16265832
0.058556732
-0.044535288
-0.0032203115
0.24994348
-0.20708207
0.0803046
-0.056744809
0.0063897636
0.25222851
-0.21625269
0.099935471
-0.074822995
0.044713878
0.25496742
-0.22652494
0.093706117
-0.038290667
0.01550756
0.25507844
-0.21679819
0.070197828
-0.036628768
0.0064007375
)
;
    }
    maxX
    {
        type            fixedFluxPressure;
        gradient        uniform 0;
        value           nonuniform List<scalar> 
50
(
0.25005167
-0.21237116
0.069197199
-0.034559367
0.0069421049
0.25042579
-0.22151802
0.091889523
-0.037973208
0.01491242
0.24856642
-0.20496767
0.10105439
-0.079905082
0.041800649
0.24545684
-0.20227594
0.081612325
-0.052663902
0.0066282966
0.25539797
-0.1598286
0.062802671
-0.038702803
-0.0010853248
0.25532464
-0.16081736
0.063657365
-0.037840329
-0.00046100165
0.24604024
-0.20474082
0.08219023
-0.052968592
0.0079155836
0.24920462
-0.20579485
0.10109318
-0.079947685
0.042869343
0.2511037
-0.22193816
0.091978855
-0.038653949
0.014616162
0.2508245
-0.21313554
0.068845466
-0.035900436
0.0062226834
)
;
    }
    minY
    {
        type            fixedValue;
        value           uniform 0;
    }
    minZ
    {
        type            fixedFluxPressure;
        gradient        uniform 0;
        value           nonuniform List<scalar> 
150
(
0.25612497
-0.21782729
0.069126336
-0.038799565
0.0046089598
0.25218963
-0.20833307
0.037494895
-0.063823082
0.0043782913
0.2608959
-0.17145303
0.042349259
-0.052922665
-0.0072157834
0.26062123
-0.15544918
0.05525631
-0.037443053
-0.013720723
0.26283977
-0.15771644
0.053722073
-0.016121234
-0.0032604573
0.25638124
-0.16321105
0.050804136
-0.026876339
-0.011064379
0.25012576
-0.17311062
0.057328919
-0.050726232
-0.0036454063
0.25421721
-0.18110721
0.042985493
-0.064078749
0.013503353
0.24622444
-0.21764062
0.054037592
-0.064014564
0.017911167
0.25817877
-0.22471454
0.090027257
-0.027177579
0.028484049
0.25076057
-0.2321419
0.055900392
-0.029557804
0.020698057
0.25188436
-0.20827905
0.043329298
-0.079739221
0.018188933
0.26886372
-0.15579774
0.035021771
-0.056375334
0.011681366
0.24530195
-0.16559444
0.062174393
-0.059394255
-0.020904855
0.26444804
-0.15070747
0.047773979
-0.014714319
-0.0031819402
0.2507264
-0.15919144
0.053168455
-0.027047562
-0.013775797
0.25688592
-0.13816607
0.026554264
-0.054912282
-0.0017429569
0.25367099
-0.16864195
0.040075351
-0.047583105
0.01092977
0.24313088
-0.22075974
0.049937131
-0.055870146
0.0065774694
0.2483082
-0.21575591
0.092009992
-0.028069625
0.030435994
0.25016976
-0.21647614
0.066985947
-0.034939691
0.018773397
0.24009507
-0.21129874
0.048754742
-0.074367652
0.014156329
0.25365337
-0.16289195
0.030424182
-0.060908101
0.0075313423
0.24669984
-0.16467555
0.061597019
-0.040299204
-0.010453608
0.25536149
-0.15981702
0.048582782
-0.019238765
-0.0077903553
0.257867
-0.15673003
0.053208798
-0.016852983
-0.0031827686
0.25544238
-0.15218695
0.057704858
-0.037877538
-0.014862336
0.25614165
-0.16807295
0.038623011
-0.052277867
-0.0030025741
0.24492173
-0.20851936
0.042058854
-0.06126378
0.0065105654
0.25005167
-0.21237116
0.069197199
-0.034559367
0.0069421049
)
;
    }
    maxZ
    {
        type            fixedFluxPressure;
        gradient        uniform 0;
        value           nonuniform List<scalar> 
150
(
0.25507844
-0.21679819
0.070197828
-0.036628768
0.0064007375
0.25072234
-0.2090331
0.040163562
-0.063002208
0.0059863554
0.26018421
-0.17084136
0.042271217
-0.052947738
-0.0053273622
0.25966851
-0.15461497
0.056922101
-0.0379766
-0.013893016
0.26188842
-0.15834145
0.054378328
-0.016817914
-0.0034578127
0.25673916
-0.16366167
0.049772611
-0.025256849
-0.01058124
0.24902617
-0.17106878
0.059994049
-0.049008683
-0.006601129
0.25480256
-0.17317541
0.037561505
-0.064253892
0.012415085
0.24462906
-0.21478125
0.052685462
-0.071050598
0.018574817
0.25476851
-0.22168316
0.082443751
-0.028932131
0.026058791
0.24819579
-0.22386208
0.069479474
-0.031661897
0.025862662
0.24608835
-0.21162279
0.050142084
-0.082294738
0.019075833
0.26342958
-0.15924627
0.041511903
-0.054226729
0.013920388
0.24684329
-0.15999432
0.055129084
-0.060266524
-0.017584919
0.26219714
-0.15247345
0.049679107
-0.016980087
-0.0030885253
0.25448685
-0.15519845
0.052246275
-0.025597395
-0.010736584
0.25421771
-0.14327621
0.037633164
-0.059342256
-0.0062026547
0.25643733
-0.1623774
0.042584727
-0.048737772
0.013957132
0.24403026
-0.2181927
0.049560454
-0.069653861
0.010514095
0.24838512
-0.21586889
0.085991125
-0.030442877
0.029804228
0.25246969
-0.21613203
0.072236809
-0.033871039
0.021034379
0.24256892
-0.20891927
0.045442488
-0.078695554
0.015481631
0.25421817
-0.16488199
0.031239356
-0.064086385
0.0085556133
0.24700555
-0.16604211
0.060273745
-0.045109146
-0.010015678
0.25508742
-0.16038412
0.047957178
-0.022132134
-0.0095071748
0.25849905
-0.15631664
0.052931681
-0.017375017
-0.0036114903
0.25594174
-0.15207549
0.056089373
-0.037625192
-0.014380665
0.25610312
-0.16831449
0.040678453
-0.05143227
-0.0045832749
0.24627822
-0.2065159
0.039708768
-0.061443768
0.0058559584
0.2508245
-0.21313554
0.068845466
-0.035900436
0.0062226834
)
;
    }
    bottomWater_to_rightSolid
    {
        type            fixedFluxPressure;
        gradient        uniform 0;
        value           nonuniform List<scalar> 
130
(
0.01092977
0.0065774694
0.030435994
0.018773397
0.014156329
0.0075313423
-0.010453608
-0.0077903553
-0.0031827686
-0.014862336
-0.0030025741
0.0065105654
0.0069421049
0.021599427
0.018348413
0.02357021
0.015814529
0.0076487486
0.0044383398
-0.0097804483
-0.0085343015
-0.00073679045
0.016872361
0.014029365
0.010996998
0.01491242
0.030532643
0.0076759852
0.015721913
0.012186294
0.010898114
0.037622894
0.011898237
0.015613684
0.01900987
0.01781997
0.0025819719
0.0077312216
0.041800649
0.011752833
0.0027532603
0.0032280454
-0.0025275716
-0.010624912
0.0085957759
0.022258343
0.019817649
0.033047958
0.011851753
0.012396177
-0.010855736
0.0066282966
-0.0022071101
-0.0070950551
-0.011425989
-0.0084881068
-0.015376994
-0.0076522362
0.0061023453
0.0047101703
0.014081032
-0.00016562431
0.005105555
0.018132808
-0.0010853248
-0.0014955614
-0.0081526322
-0.01080403
-0.0089962244
-0.01539491
-0.0069895918
0.0072352258
0.0073103535
0.017941777
0.0032283666
0.010608588
0.021380184
-0.00046100165
0.0086432309
-0.00049929299
0.0017320317
-0.0026121263
-0.011363466
0.0083977518
0.018200126
0.019934141
0.033487945
0.013066433
0.01399807
-0.0092812986
0.0079155836
0.031754533
0.0079222421
0.015258605
0.013461491
0.0093048222
0.038080368
0.01155752
0.015179676
0.017798261
0.017172469
0.0021456065
0.0086432218
0.042869343
0.022370633
0.021056867
0.023750298
0.019776314
0.0081206866
0.0053882798
-0.0097031178
-0.0093278015
-0.0028194368
0.014999202
0.013400181
0.010128106
0.014616162
0.013957132
0.010514095
0.029804228
0.021034379
0.015481631
0.0085556133
-0.010015678
-0.0095071748
-0.0036114903
-0.014380665
-0.0045832749
0.0058559584
0.0062226834
)
;
    }
    bottomWater_to_leftSolid
    {
        type            fixedFluxPressure;
        gradient        uniform 0;
        value           nonuniform List<scalar> 
130
(
0.0046089598
0.0043782913
-0.0072157834
-0.013720723
-0.0032604573
-0.011064379
-0.0036454063
0.013503353
0.017911167
0.028484049
0.020698057
0.018188933
0.011681366
0.013691103
0.008200518
0.012389297
0.011460636
-0.0057693336
-0.010197409
-0.0025047958
0.014153577
0.014025361
0.037011216
0.022458226
0.02286462
0.013392725
0.043470169
0.0085446138
-0.00083916846
0.013805308
0.014912334
0.018812602
0.020160512
0.043443488
0.0079939027
0.019814015
0.017095077
0.025956162
0.011999485
0.0066621723
-0.012453079
0.010496825
0.010355591
0.028633825
0.021422753
0.013727115
0.010043817
-0.0098472138
0.0012830487
0.0026722201
-0.0090538761
0.00044179752
-0.0023844035
0.019574608
0.0028679866
0.0010690412
0.012653365
0.009375414
0.01065876
-0.0031226372
-0.015235537
-0.010000651
-0.012432917
-0.012461728
-0.0062956149
-0.0032203115
0.017560965
-6.8519508e-05
-0.00052186464
0.011109436
0.0075770676
0.0092580942
-0.0045132761
-0.0145988
-0.0096137174
-0.012478712
-0.010377561
-0.0036097401
0.0063897636
-0.012636943
0.0093328641
0.010426487
0.028054059
0.020882982
0.012491771
0.0098585027
-0.01022969
0.0024447357
0.0029587996
-0.0051854696
0.003709937
0.044713878
0.0075940204
-0.00071575306
0.014496442
0.014811022
0.015119595
0.012598276
0.039652629
0.0058934382
0.016313541
0.015894683
0.022667
0.01861801
0.01550756
0.0099682268
0.01345537
0.013751837
-0.0054102456
-0.0090751824
-0.0070956482
0.00914829
0.0097434964
0.029679126
0.023042522
0.022341067
0.016941002
0.0064007375
0.0059863554
-0.0053273622
-0.013893016
-0.0034578127
-0.01058124
-0.006601129
0.012415085
0.018574817
0.026058791
0.025862662
0.019075833
0.013920388
)
;
    }
    bottomWater_to_heater
    {
        type            fixedFluxPressure;
        gradient        uniform 0;
        value           nonuniform List<scalar> 
92
(
-0.020904855
-0.0031819402
-0.013775797
-0.0017429569
-0.013886284
-0.0053505644
-0.0091511539
0.0095012167
-0.0063346393
-0.0069903846
-0.0018999487
0.015078773
0.24297339
0.24567909
0.24534615
0.24412082
-0.21471092
-0.21822977
-0.22014934
-0.21945257
0.086184619
0.10744111
0.10740134
0.088794716
-0.032078265
-0.020764148
-0.025293365
-0.029637372
-0.0092431051
-0.0092431051
0.0012701535
0.0012701535
0.0067392691
0.0067392691
0.013299421
0.013299421
0.25068142
0.24382227
-0.21580448
-0.20799689
0.066663491
0.066093914
-0.026185117
-0.034788751
-0.0062956149
-0.0022071101
0.24897644
0.24369534
0.24726546
0.24631286
0.24471971
0.2448477
-0.21598047
-0.21775824
-0.21798896
-0.21913778
-0.20797207
-0.21982225
0.066302087
0.085761394
0.11457569
0.10705649
0.067910966
0.08640927
-0.033774965
-0.028523342
-0.015220068
-0.014394674
-0.034343942
-0.027197671
-0.0036097401
-0.0088942389
-0.00023825572
0.00072277349
-0.0014955614
0.0043133466
-0.0088942389
-0.00023825572
0.00072277349
0.0043133466
-0.0033166655
-0.0064096027
-0.0035822847
0.0080236733
-0.0092341731
-0.005502892
-0.0081066599
0.0045713919
-0.017584919
-0.0030885253
-0.010736584
-0.0062026547
)
;
    }
}


// ************************************************************************* //
