/*--------------------------------*- C++ -*----------------------------------*\
| =========                 |                                                 |
| \\      /  F ield         | OpenFOAM: The Open Source CFD Toolbox           |
|  \\    /   O peration     | Version:  v2012                                 |
|   \\  /    A nd           | Website:  www.openfoam.com                      |
|    \\/     M anipulation  |                                                 |
\*---------------------------------------------------------------------------*/
FoamFile
{
    version     2.0;
    format      ascii;
    class       volScalarField;
    location    "100/bottomWater";
    object      T;
}
// * * * * * * * * * * * * * * * * * * * * * * * * * * * * * * * * * * * * * //

dimensions      [0 0 0 1 0 0 0];


internalField   nonuniform List<scalar> 
1460
(
1023.0134
1021.232
1019.6931
1016.177
1014.1047
1014.1062
1015.7782
1017.5536
1019.0208
1015.7611
1009.1001
1007.8445
1006.9447
1005.9806
1002.9155
1004.1458
1006.3139
1007.2308
1008.2351
1010.7676
1019.2462
1019.1832
1017.564
1015.6664
1014.0689
1014.6277
1016.6641
1020.4348
1021.9674
1023.9197
1023.7526
1023.1073
1021.2712
1016.0743
1013.4958
1012.6788
1014.6645
1017.9108
1018.4629
1015.0588
1008.2349
1007.8351
1007.6874
1004.9588
1002.2246
1002.7185
1006.5247
1008.1556
1008.3686
1010.5846
1018.8557
1018.3345
1017.8608
1013.8468
1012.3702
1013.8391
1016.3943
1022.1155
1023.4537
1024.186
1024.5379
1025.6242
1022.8402
1016.2913
1013.2173
1012.2046
1014.809
1018.7988
1017.4848
1014.7875
1008.5566
1009.4317
1008.6894
1004.8725
1001.8184
1002.0703
1006.4832
1009.5969
1009.3181
1011.0421
1018.2418
1018.5748
1018.6712
1013.0344
1011.7484
1013.6162
1016.6272
1023.8456
1025.8593
1024.899
1025.4323
1026.3609
1020.1999
1015.0056
1011.6529
1010.5625
1013.1006
1016.7264
1016.329
1014.9752
1009.128
1009.7959
1009.8087
1004.1864
1001.2567
1001.222
1008.1202
1009.804
1009.7432
1011.3905
1016.3768
1016.5272
1016.3952
1010.7261
1009.5702
1012.1048
1015.2312
1021.6047
1026.5391
1025.7093
1016.5035
1017.672
1016.1638
1015.3469
1011.4567
1009.2791
1009.2188
1009.9662
1010.3567
1011.2565
1006.2216
1005.4121
1004.8853
1003.2979
1000.7808
1000.2748
1001.7739
1003.3548
1004.7916
1008.6847
1009.6836
1008.5356
1007.5595
1007.2127
1008.1064
1012.3556
1015.4131
1015.844
1017.4302
1016.2705
1024.8527
1022.1939
1020.216
1018.123
1016.8602
1016.9498
1019.0241
1019.7721
1020.7524
1020.725
1009.9083
1007.2444
1005.3062
1004.6705
1005.22
1006.1319
1005.2405
1008.7823
1010.3839
1015.1123
1022.4204
1021.2802
1020.1011
1018.6794
1017.3624
1017.5717
1018.8277
1021.0662
1023.2258
1025.9744
1023.9626
1022.1558
1020.6616
1019.6396
1015.6972
1016.2571
1018.7996
1020.3763
1020.1753
1016.292
1007.2062
1005.5771
1004.4188
1002.7837
1003.3093
1003.9584
1003.2013
1008.5093
1009.4812
1012.9159
1019.4673
1020.2435
1020.4484
1017.5316
1015.6582
1015.6324
1019.9807
1021.1385
1022.6929
1024.4949
1024.6435
1023.0186
1024.6806
1022.5511
1018.3259
1017.1473
1018.9755
1021.6584
1020.4766
1017.1225
1008.1734
1008.5937
1004.2546
1002.0992
1002.3119
1002.228
1002.7568
1008.8773
1012.6641
1014.0059
1019.8684
1020.6068
1020.7384
1017.5571
1016.8732
1018.7638
1022.7804
1024.8676
1023.3642
1025.0938
1025.3249
1024.1969
1024.229
1024.5089
1017.7893
1015.9549
1017.5585
1020.6291
1020.1286
1017.6981
1010.4336
1008.8463
1005.1214
1002.5059
1001.5367
1001.1335
1005.2833
1011.4916
1013.6076
1014.7601
1020.1686
1020.6963
1020.6787
1016.1487
1016.0596
1018.3823
1025.2117
1024.574
1024.4581
1025.7091
1022.5536
1021.0663
1020.6583
1019.6196
1017.6285
1014.5572
1014.4351
1015.3421
1015.956
1016.2199
1010.4396
1008.6854
1006.3796
1004.201
1001.1811
1000.1553
1003.4476
1006.9679
1009.6686
1011.1528
1016.7576
1015.461
1014.4022
1013.5826
1014.904
1017.9828
1020.3445
1020.6698
1021.2185
1022.7021
1026.3701
1027.8616
1024.8411
1022.2094
1022.7846
1021.087
1022.308
1021.9505
1019.3177
1017.4208
1016.3403
1011.695
1004.2354
1006.5381
1007.1738
1008.1927
1007.5858
1012.9196
1016.9747
1017.3557
1017.6942
1019.854
1022.3534
1022.2886
1021.9097
1024.7218
1023.5667
1025.9794
1028.1512
1026.4947
1022.8832
1024.2614
1024.0891
1021.0903
1019.2227
1020.0099
1021.6928
1022.0264
1018.0199
1012.6229
1007.7983
1003.2643
999.70806
1003.6301
1004.2462
1005.1526
1004.2491
1008.1799
1010.9628
1011.179
1013.3744
1017.0111
1022.1477
1021.1949
1019.7868
1019.3722
1022.074
1024.5867
1024.3728
1022.9094
1025.2611
1025.487
1024.9167
1022.3174
1020.0926
1021.7151
1023.7837
1021.0882
1017.814
1014.0235
1008.8588
1006.0731
999.15805
998.62999
1001.9782
1005.0576
1001.9247
1004.551
1010.3306
1012.0837
1015.1552
1017.5479
1021.5762
1023.2659
1020.6999
1020.1785
1023.0088
1025.254
1025.2121
1025.3107
1023.0369
1021.7422
1020.7488
1022.9927
1021.5146
1022.2846
1022.6251
1019.6391
1015.1436
1013.9834
1008.9779
999.32517
989.65218
989.23814
991.55867
999.18455
997.9118
1002.5555
1008.3231
1012.9832
1014.1316
1015.2225
1019.5662
1021.9939
1021.6878
1021.1848
1023.5351
1020.8098
1021.76
1023.0538
1021.049
1018.5865
1015.8512
1016.8023
1019.3706
1017.0204
1016.8798
1017.1264
1013.2416
1010.5197
1007.1501
1000.797
994.23527
992.60563
990.53108
990.96125
994.9638
999.70514
1004.0055
1009.3483
1009.9943
1012.7211
1017.0637
1015.5713
1017.0865
1019.3167
1018.1011
1015.7639
1018.3117
1020.9949
1022.4168
1022.8248
1024.3097
1025.4364
1026.2781
1020.698
1019.2272
1017.6847
1014.457
1008.8558
1008.8886
1010.383
1010.1348
1006.3615
1002.3202
1000.9614
1004.705
1010.7187
1010.2679
1008.9861
1009.8
1013.2168
1017.6017
1018.8281
1020.2805
1026.4694
1025.7143
1024.4762
1022.9726
1022.5421
1020.4516
1021.6358
1023.7717
1024.3631
1023.7833
1020.2749
1019.7697
1019.0211
1014.6094
1004.3102
1002.629
1004.2044
1006.9368
1003.0479
1001.112
1000.8568
1002.1634
1005.4993
1003.6585
1003.3381
1006.2326
1011.8446
1018.1394
1018.8917
1019.506
1023.3401
1024.6482
1023.9289
1021.5811
1020.4309
1022.0178
1021.1666
1025.4853
1024.5746
1023.9114
1020.8029
1020.83
1021.865
1015.0401
1003.1817
1002.2418
1003.5376
1002.7482
998.47493
998.59267
999.60182
999.50259
1003.8278
1004.1814
1005.2741
1006.0145
1011.4167
1020.4435
1021.5693
1019.9931
1023.4677
1024.8598
1025.6165
1021.0889
1021.8271
1019.5773
1019.5003
1024.2817
1024.8128
1024.4127
1021.5677
1021.8861
1021.9846
1015.7088
1000.3792
993.31974
992.19726
988.4935
982.89193
984.59032
996.88806
996.42203
999.17164
1001.4981
1001.9606
1003.5566
1010.9122
1017.5485
1021.839
1020.9547
1024.0017
1024.9345
1024.443
1019.5271
1019.3522
1017.2362
1016.7176
1018.3437
1021.2676
1022.6179
1019.9455
1019.0142
1017.6506
1014.7292
1005.4374
997.36681
997.2276
984.60585
976.62117
969.56009
979.0495
984.03575
990.2011
993.462
1000.9631
1005.785
1014.3098
1017.1836
1019.1962
1019.3509
1022.2745
1021.1328
1018.3302
1016.7085
1017.0202
1018.669
1020.9125
1022.9492
1024.1332
1025.0368
1019.2831
1017.0704
1015.9958
1012.9626
1006.6335
1002.1743
1004.3952
994.41198
994.84571
1004.1207
1001.3286
1005.6533
1011.8357
1014.9107
1016.5979
1018.1996
1025.219
1024.2892
1022.9836
1020.9121
1018.6898
1018.0269
1019.9436
1023.6345
1024.2409
1024.2796
1018.9765
1018.5962
1018.2423
1013.4738
1004.841
996.58808
995.6778
991.6442
989.83468
993.12399
994.87317
1002.8291
1011.6902
1016.1921
1018.2875
1018.4911
1023.6581
1024.1234
1023.4863
1019.8106
1017.816
1017.7712
1021.5236
1024.2948
1024.0157
1024.6984
1019.9365
1021.7481
1020.7205
1014.0599
1004.9854
993.58342
987.95472
988.07736
985.57592
984.95734
992.01137
1002.6774
1012.0567
1018.7073
1021.7081
1019.7571
1024.1103
1023.7911
1024.0565
1021.1727
1017.527
1016.362
1022.5444
1023.501
1021.7561
1025.1987
1021.6067
1022.3695
1019.5011
1014.1226
1006.0411
996.33771
986.05561
982.94695
979.46002
982.61197
992.86956
1003.7886
1012.8397
1018.4782
1022.5591
1022.0098
1024.6697
1021.2588
1023.3652
1022.2715
1016.0694
1015.6919
1017.9775
1017.299
1016.5907
1019.3606
1017.7629
1017.3497
1015.8299
1013.9371
1006.1405
994.5734
985.50391
963.69114
971.35477
980.79097
991.74869
1003.9135
1013.1505
1015.1769
1016.6763
1017.3303
1019.0977
1016.2174
1017.3465
1017.6931
1015.444
1018.671
1020.8135
1022.8923
1024.1075
1025.0564
1019.373
1017.0481
1015.9029
1012.8061
1006.6146
1002.3396
1004.599
994.64787
994.69095
1003.6513
1000.9229
1005.3476
1011.9282
1014.9838
1016.5581
1018.2095
1025.2232
1024.3636
1023.0636
1021.0533
1018.7129
1017.979
1019.8819
1023.5545
1024.1441
1024.2735
1018.9584
1018.5318
1018.0613
1013.2107
1004.4024
996.45867
995.35806
991.50666
989.62531
992.71846
994.62453
1002.7665
1011.8258
1016.4325
1018.097
1018.3683
1023.6464
1024.2332
1023.6106
1019.8395
1017.877
1017.71
1021.4552
1024.155
1023.7454
1024.6904
1020.0492
1021.7378
1020.6379
1013.7692
1004.309
993.33731
986.87579
987.78614
985.58603
984.62921
991.69051
1002.6914
1012.246
1019.0195
1021.5646
1019.5023
1024.0575
1024.3084
1024.346
1021.3057
1017.6082
1016.3067
1022.4078
1023.2843
1021.4041
1025.2024
1021.8172
1022.4933
1019.4106
1013.8551
1005.1366
995.50408
984.25012
982.95007
979.89683
981.76113
992.84514
1004.0869
1013.0167
1018.623
1022.3368
1021.6703
1024.5693
1022.0012
1023.7293
1022.4919
1016.1594
1015.6498
1017.9528
1017.4223
1016.3988
1019.0194
1017.6546
1017.1916
1015.6802
1013.7058
1004.9958
993.21049
982.05034
967.28752
969.13857
979.62083
991.49578
1004.2914
1013.2974
1015.3396
1016.8503
1017.6349
1019.7116
1016.555
1017.3745
1017.7769
1015.5428
1022.3839
1022.7908
1024.2603
1025.4308
1026.3016
1020.7989
1018.9808
1017.4527
1014.1767
1009.2379
1009.023
1010.3104
1010.1255
1006.473
1002.0977
1001.0912
1005.6671
1011.2007
1009.9777
1008.5098
1009.0196
1013.1371
1017.3476
1018.6958
1020.0649
1026.4064
1025.7575
1024.5432
1023.0271
1022.6018
1020.4767
1021.5781
1023.8329
1024.4411
1023.8605
1020.1265
1019.4305
1018.4841
1014.1355
1004.8483
1003.2029
1004.3974
1006.241
1003.4367
1001.4615
1001.1711
1002.8638
1005.4052
1003.2163
1002.5668
1005.1706
1011.8732
1018.0951
1018.8998
1019.4832
1023.1527
1024.5209
1023.7939
1021.7229
1020.4326
1021.9631
1021.1035
1025.4669
1024.668
1023.9535
1020.6563
1020.6639
1021.8566
1014.5123
1003.7726
1003.245
1003.9964
1003.3164
999.596
999.27344
999.80291
1000.007
1003.8753
1004.0967
1004.3044
1004.7333
1011.4519
1020.9262
1021.1016
1019.9722
1023.3091
1024.7141
1025.5998
1021.288
1021.8805
1019.5148
1019.4904
1024.1948
1024.9002
1024.4482
1021.4366
1021.7833
1021.9585
1014.59
999.23119
995.09162
994.62501
992.03904
987.92298
985.29923
995.69328
995.33218
997.9155
999.5345
999.07812
1001.2728
1010.8509
1019.2023
1021.7371
1020.8995
1023.8511
1024.7868
1024.3936
1019.6058
1019.4295
1017.2156
1016.7308
1018.3604
1021.2476
1022.6247
1019.8387
1018.9415
1017.6565
1014.6021
1004.6612
999.03797
994.3769
986.64312
976.88167
969.96375
968.87262
978.73346
989.48309
993.41385
1000.4082
1005.4552
1014.25
1017.2051
1018.9872
1019.3929
1022.199
1021.1735
1018.4996
1016.7568
1017.0193
1026.3061
1027.8581
1025.236
1022.6449
1023.5224
1021.4219
1022.4519
1022.1647
1019.6628
1017.6062
1016.7517
1013.9147
1006.9832
1007.8258
1007.8712
1008.2701
1007.8923
1012.6457
1016.1275
1016.908
1017.3747
1019.5856
1022.2076
1022.3102
1021.5591
1024.0954
1023.0308
1025.6146
1028.2414
1026.5951
1022.8951
1024.2646
1024.2694
1021.5023
1019.2617
1019.9556
1021.5436
1022.3116
1018.2197
1013.2825
1009.587
1005.7421
1001.5057
1004.6287
1005.0071
1005.2591
1004.593
1007.577
1010.3034
1010.4684
1012.7613
1016.9888
1021.9858
1021.2024
1019.7763
1019.203
1021.6412
1024.3872
1024.3981
1022.9282
1025.3011
1025.3615
1025.0375
1022.6264
1020.16
1021.2305
1023.7083
1021.2825
1017.669
1014.5773
1010.5232
1007.2199
1001.0058
1000.8484
1004.3546
1005.2225
1001.5324
1003.0713
1009.3541
1011.3364
1014.5901
1017.0517
1021.2592
1023.4694
1020.805
1020.0345
1022.6623
1025.1
1025.3259
1025.2778
1023.0656
1021.7645
1020.7791
1023.2416
1021.4466
1022.1207
1022.5148
1019.8276
1014.9938
1014.0564
1010.9555
1002.8527
992.23243
990.87375
992.21094
998.01602
996.09517
998.74064
1006.0496
1011.9287
1012.9481
1014.3185
1019.3628
1022.0987
1021.7717
1021.1986
1023.2452
1020.7234
1021.698
1022.9964
1021.0673
1018.563
1015.8953
1017.1598
1019.4021
1017.0396
1016.3572
1017.2656
1013.049
1010.4028
1008.3678
1002.4822
995.17468
992.99658
991.28564
991.09467
993.81817
996.81027
1002.9901
1008.5626
1009.8688
1012.6263
1016.8338
1015.6268
1016.9866
1019.3149
1017.6822
1015.6345
1018.3181
1020.963
1025.2261
1022.5343
1020.5099
1018.3826
1017.1607
1017.2211
1018.987
1020.0201
1020.9914
1021.3583
1011.86
1008.416
1006.462
1005.3232
1005.7616
1006.0128
1004.9896
1007.5232
1009.4165
1013.7136
1022.0275
1021.1331
1020.036
1018.7383
1017.2541
1017.339
1018.628
1020.8066
1022.8569
1025.5697
1024.1596
1022.3623
1020.8587
1019.817
1015.6715
1016.101
1018.5281
1020.6992
1020.4683
1018.2174
1008.6042
1006.7613
1005.8165
1003.2526
1003.807
1003.836
1002.8439
1007.1446
1008.3222
1011.1237
1019.1022
1020.1773
1020.4814
1017.8605
1015.7572
1015.5498
1019.9139
1020.9585
1022.4753
1024.2875
1024.8187
1023.147
1024.7518
1022.5576
1018.5203
1017.133
1018.6256
1021.3673
1020.6754
1018.7959
1009.8949
1009.926
1005.8233
1002.5643
1002.3772
1001.8545
1002.2839
1007.445
1011.4112
1012.387
1019.5586
1020.4297
1020.8844
1017.8666
1016.8286
1018.6451
1022.5874
1024.8008
1023.2111
1024.9093
1025.4779
1024.2949
1024.346
1024.7291
1017.9449
1016.1111
1017.0843
1020.8639
1020.4203
1019.1719
1011.7551
1010.5231
1007.4702
1002.5828
1001.4102
1000.8225
1003.1175
1009.7965
1012.0406
1013.4783
1019.8435
1020.4038
1020.6923
1016.3738
1015.9865
1018.1888
1025.0036
1024.4175
1024.3409
1025.5464
1022.624
1021.1413
1020.7217
1019.9098
1017.7867
1014.6662
1014.1536
1015.0112
1015.9051
1017.0949
1010.6491
1009.2976
1007.0232
1004.4153
1001.3828
1000.2402
1003.1119
1006.3667
1009.2225
1010.6082
1017.0078
1015.5628
1014.5035
1013.6545
1014.7091
1017.8474
1020.0612
1020.5711
1021.1057
1022.6073
1023.3007
1021.4714
1019.9594
1016.3506
1014.3343
1014.1954
1015.8917
1017.6974
1019.1485
1016.7483
1009.4226
1007.9687
1007.0293
1005.9938
1003.3194
1003.7964
1006.3031
1007.2618
1008.1737
1010.2063
1018.4484
1019.192
1017.659
1015.7683
1014.0809
1014.4556
1016.5108
1020.1622
1021.7216
1023.6052
1023.9057
1023.2355
1021.5739
1016.1803
1013.6609
1012.7016
1014.6036
1018.1462
1018.5826
1016.5718
1008.4491
1007.8757
1007.7299
1005.1715
1002.4006
1002.4159
1006.1617
1007.9195
1008.128
1009.2378
1018.6506
1018.4769
1018.0467
1014.2021
1012.4186
1013.6988
1016.2773
1021.7344
1023.3061
1024.0044
1024.6668
1025.7153
1023.1843
1016.3764
1013.3866
1012.1698
1014.3284
1018.9967
1018.2254
1016.1544
1008.8949
1009.3595
1009.03
1005.0049
1001.9164
1001.7734
1005.9733
1009.1559
1009.2501
1009.8833
1017.9056
1018.6306
1018.8867
1013.6211
1011.8227
1013.467
1016.515
1023.3991
1025.7555
1024.74
1025.5264
1026.4245
1020.6241
1015.0729
1011.7623
1010.3033
1012.4003
1016.876
1016.7723
1015.8593
1009.4924
1010.0522
1010.0722
1004.5824
1001.3056
1001.041
1006.786
1009.9511
1010.0196
1010.4809
1016.4676
1016.7978
1016.6996
1011.3929
1009.7771
1011.899
1015.1921
1020.9538
1026.4544
1025.5833
1016.4885
1017.6955
1016.1145
1015.3957
1011.6733
1008.9433
1008.738
1009.5788
1010.2473
1010.9572
1007.0365
1005.6351
1004.9054
1003.1894
1000.8328
1000.3665
1002.1521
1003.9881
1005.2356
1008.1244
1010.2566
1009.3242
1008.4046
1007.7732
1008.3375
1012.0101
1015.4138
1015.9809
1017.5131
1016.3989
)
;

boundaryField
{
    minX
    {
        type            zeroGradient;
    }
    maxX
    {
        type            zeroGradient;
    }
    minY
    {
        type            fixedValue;
        value           uniform 1073;
    }
    minZ
    {
        type            zeroGradient;
    }
    maxZ
    {
        type            zeroGradient;
    }
    bottomWater_to_rightSolid
    {
        type            compressible::turbulentTemperatureCoupledBaffleMixed;
        refValue        nonuniform List<scalar> 
130
(
573.3461
576.29563
579.27801
582.10629
584.66827
586.92035
588.85153
590.47388
591.80789
592.85254
593.61224
594.10994
594.34874
570.51016
574.15957
577.74404
581.06962
583.99885
586.51199
588.6188
590.35727
591.76079
592.84432
593.62822
594.14235
594.40066
564.58253
569.84356
574.74185
579.03537
582.68099
585.70166
588.13854
590.08751
591.61293
592.75205
593.56165
594.09976
594.37337
555.52473
563.83884
570.86825
576.58303
581.16606
584.77987
587.60399
589.78799
591.45635
592.6743
593.52082
594.0597
594.32585
544.6461
558.03656
567.61895
574.71338
580.06625
584.12193
587.20988
589.55381
591.31329
592.58538
593.47911
594.03674
594.29846
544.62685
558.02265
567.61103
574.71004
580.06496
584.12204
587.21092
589.55583
591.31616
592.58717
593.47952
594.03708
594.29882
555.49567
563.8185
570.85159
576.57189
581.16028
584.77732
587.60279
589.78814
591.45647
592.67432
593.52092
594.0596
594.32566
564.55479
569.82224
574.72556
579.02561
582.67576
585.69904
588.13832
590.0872
591.61217
592.7499
593.56027
594.09909
594.37282
570.49987
574.15033
577.73695
581.06734
583.99914
586.51363
588.6206
590.35767
591.76018
592.84287
593.62733
594.14176
594.40028
573.34534
576.29604
579.27836
582.11255
584.67739
586.92938
588.85809
590.47712
591.80802
592.85292
593.61345
594.11152
594.35073
)
;
        refGradient     uniform 0;
        valueFraction   uniform 0.99248593;
        value           nonuniform List<scalar> 
130
(
576.57724
579.51536
582.50461
585.31908
587.85318
590.08104
591.99515
593.61204
594.96787
596.02769
596.78493
597.29081
597.51905
573.78982
577.43209
581.00075
584.34352
587.24099
589.72729
591.81209
593.54735
594.96348
596.05661
596.83711
597.35149
597.61901
567.85215
573.10599
578.00761
582.27371
585.91238
588.94301
591.35038
593.29606
594.8268
595.94821
596.73415
597.28736
597.57909
558.79096
567.06717
574.10012
579.80807
584.42075
588.02903
590.84706
593.01582
594.69363
595.89383
596.71294
597.23558
597.50206
547.85242
561.21328
570.80606
577.93835
583.32047
587.36094
590.43696
592.7682
594.52772
595.76862
596.66431
597.22015
597.46302
547.81663
561.19068
570.7963
577.93784
583.3203
587.36227
590.43929
592.77248
594.53517
595.77292
596.66491
597.22111
597.46412
558.75671
567.04662
574.07938
579.79452
584.41457
588.02666
590.84431
593.01629
594.69317
595.89415
596.7143
597.23583
597.50186
567.80291
573.07721
577.98553
582.26307
585.90648
588.93869
591.35061
593.295
594.82603
595.94294
596.73182
597.28675
597.57831
573.77513
577.41959
580.98966
584.34311
587.24202
589.72967
591.81442
593.54629
594.96186
596.05305
596.83549
597.35006
597.61793
576.58123
579.51912
582.50079
585.32962
587.86816
590.09635
592.00587
593.61699
594.96542
596.02808
596.78717
597.29301
597.522
)
;
        Tnbr            T;
        thicknessLayers List<scalar> 0();
        kappaLayers     List<scalar> 0();
        kappaMethod     fluidThermo;
        kappa           none;
        alphaAni        none;
        alpha           none;
        field           T;
    }
    bottomWater_to_leftSolid
    {
        type            compressible::turbulentTemperatureCoupledBaffleMixed;
        refValue        nonuniform List<scalar> 
130
(
596.48958
596.47381
596.42284
596.34226
596.22966
596.11003
595.99531
595.8809
595.75902
595.62757
595.47974
595.36735
595.30471
596.57641
596.54947
596.49985
596.42451
596.32246
596.20007
596.07649
595.94581
595.7994
595.63783
595.46033
595.31992
595.23533
596.59666
596.5682
596.52209
596.46895
596.39281
596.27188
596.12857
595.95681
595.74586
595.51953
595.29524
595.09836
594.96731
596.57757
596.56846
596.55171
596.51674
596.44261
596.31124
596.14088
595.92608
595.66191
595.35321
595.05687
594.81917
594.63501
596.56154
596.56514
596.54693
596.49799
596.42313
596.29068
596.11083
595.8778
595.59052
595.24593
594.88941
594.57185
594.32266
596.56146
596.56519
596.54714
596.49698
596.42131
596.28921
596.10927
595.8761
595.58785
595.24027
594.88207
594.56008
594.33116
596.57771
596.56878
596.55209
596.51679
596.44215
596.31012
596.13956
595.92509
595.66059
595.35158
595.05956
594.81056
594.64104
596.59716
596.56877
596.52318
596.47085
596.39353
596.27153
596.12662
595.95662
595.74627
595.52286
595.3048
595.10947
594.97921
596.57718
596.55035
596.50101
596.42646
596.32371
596.19996
596.07447
595.94387
595.79993
595.64317
595.46715
595.32829
595.24416
596.48941
596.47377
596.42284
596.34285
596.23013
596.10758
595.99048
595.87551
595.7555
595.62715
595.48551
595.3727
595.30934
)
;
        refGradient     uniform 0;
        valueFraction   uniform 0.99248593;
        value           nonuniform List<scalar> 
130
(
599.64556
599.63875
599.57682
599.49071
599.34971
599.21464
599.10032
598.99237
598.87435
598.75064
598.56616
598.44851
598.38237
599.7773
599.73939
599.68707
599.60447
599.48821
599.34367
599.22014
599.09725
598.95655
598.7982
598.57863
598.42613
598.32488
599.78608
599.73932
599.67301
599.62746
599.57116
599.43347
599.29021
599.12157
598.88299
598.63794
598.39004
598.14702
597.96758
599.73847
599.72555
599.72115
599.70841
599.64499
599.49452
599.31845
599.095
598.81083
598.43456
598.07993
597.84303
597.56534
599.71096
599.73168
599.70872
599.65462
599.60113
599.4577
599.27608
599.03338
598.73401
598.3333
597.89271
597.50948
597.09822
599.71057
599.73154
599.70985
599.65218
599.59676
599.45542
599.27334
599.03057
598.72962
598.3191
597.8753
597.47186
597.13361
599.73846
599.72597
599.72166
599.70831
599.64458
599.4926
599.31659
599.09405
598.80856
598.42714
598.09513
597.81304
597.58655
599.78672
599.7397
599.67441
599.63202
599.57211
599.43327
599.28437
599.12243
598.88195
598.64037
598.40866
598.17064
597.98646
599.77859
599.74082
599.68871
599.60857
599.49063
599.34438
599.21603
599.09285
598.9567
598.81005
598.58697
598.43901
598.33845
599.64528
599.63888
599.57645
599.49165
599.3518
599.20969
599.0919
598.98408
598.87
598.74796
598.578
598.45547
598.38709
)
;
        Tnbr            T;
        thicknessLayers List<scalar> 0();
        kappaLayers     List<scalar> 0();
        kappaMethod     fluidThermo;
        kappa           none;
        alphaAni        none;
        alpha           none;
        field           T;
    }
    bottomWater_to_heater
    {
        type            compressible::turbulentTemperatureCoupledBaffleMixed;
        refValue        nonuniform List<scalar> 
92
(
566.04724
566.84558
568.41273
570.63457
561.35464
562.33828
564.28996
567.09317
551.19453
552.55238
555.33401
559.46616
336.08638
332.98367
333.01935
336.17404
392.32567
388.29681
388.44374
392.6722
436.41192
432.61681
433.01581
437.36846
470.116
466.98698
467.98853
472.58607
534.30439
494.39284
536.04426
492.58538
540.03773
494.88074
546.60682
500.60022
336.08638
336.17404
392.32567
392.6722
436.41192
437.36846
470.116
472.58607
494.39284
500.60022
336.08776
336.08776
332.98414
333.02026
336.17581
336.17581
392.32778
392.32778
388.29889
388.44536
392.67402
392.67402
436.41775
436.41775
432.62049
433.01602
437.3684
437.3684
470.13303
470.13303
466.9923
467.98176
472.57685
472.57685
494.41195
494.41195
492.58703
494.85822
500.56871
500.56871
534.30263
536.03559
539.99281
546.56337
551.19624
552.55119
555.32302
559.4448
561.35635
562.33866
564.28725
567.08587
566.04917
566.847
568.41209
570.63302
)
;
        refGradient     uniform 0;
        valueFraction   nonuniform List<scalar> 
92
(
0.99248593
0.99248593
0.99248593
0.99248593
0.99248593
0.99248593
0.99248593
0.99248593
0.99248593
0.99248593
0.99248593
0.99248593
0.99248593
0.99248593
0.99248593
0.99248593
0.99248593
0.99248593
0.99248593
0.99248593
0.99248593
0.99248593
0.99248593
0.99248593
0.99248593
0.99248593
0.99248593
0.99248593
0.99248593
0.99248593
0.99248593
0.99248593
0.99248593
0.99248593
0.99248593
0.99248593
0.99248593
0.99248593
0.99248593
0.99248593
0.99248593
0.99248593
0.99248593
0.99248593
0.99248593
0.99248593
0.99248593
0.99248593
0.99248593
0.99248593
0.99248593
0.99248593
0.99248593
0.99248593
0.99248593
0.99248593
0.99248593
0.99248593
0.99248593
0.99248593
0.99248593
0.99248593
0.99248593
0.99248593
0.99248593
0.99248593
0.99248593
0.99248593
0.99248593
0.99248593
0.99248593
0.99248593
0.99248593
0.99248593
0.99248593
0.99248593
0.99248593
0.99248593
0.99248593
0.99248593
0.99248593
0.99248593
0.99248593
0.99248593
0.99248593
0.99248593
0.99248593
0.99248593
0.99248593
0.99248593
0.99248593
0.99248593
)
;
        value           nonuniform List<scalar> 
92
(
569.33281
570.10625
571.65786
573.87424
564.68238
565.63594
567.56522
570.37207
554.51147
555.84362
558.6075
562.73861
341.12289
338.0131
338.03834
341.19748
396.91465
392.90151
393.04545
397.25193
440.63521
436.86954
437.27317
441.59233
473.96885
470.87593
471.9627
476.52216
537.62828
498.01663
539.30184
496.16951
543.33615
498.51848
549.89358
504.23268
341.03313
341.12339
396.82911
397.15943
440.55729
441.48785
473.96954
476.39487
497.91928
504.13751
341.03626
341.12511
338.0119
338.04022
341.12401
341.20646
396.83016
396.91967
392.90621
393.04942
397.15969
397.25902
440.56089
440.64944
436.87832
437.27488
441.48788
441.59606
473.98648
474.02355
470.88675
471.94689
476.38902
476.50471
497.96519
498.03747
496.17439
498.42
504.08954
504.16154
537.62841
539.29647
543.21544
549.8106
554.51611
555.84803
558.59765
562.70884
564.68566
565.6378
567.56317
570.36234
569.33389
570.10804
571.65788
573.87552
)
;
        Tnbr            T;
        thicknessLayers List<scalar> 0();
        kappaLayers     List<scalar> 0();
        kappaMethod     fluidThermo;
        kappa           none;
        alphaAni        none;
        alpha           none;
        field           T;
    }
}


// ************************************************************************* //
