/*--------------------------------*- C++ -*----------------------------------*\
| =========                 |                                                 |
| \\      /  F ield         | OpenFOAM: The Open Source CFD Toolbox           |
|  \\    /   O peration     | Version:  v2012                                 |
|   \\  /    A nd           | Website:  www.openfoam.com                      |
|    \\/     M anipulation  |                                                 |
\*---------------------------------------------------------------------------*/
FoamFile
{
    version     2.0;
    format      ascii;
    class       volVectorField;
    location    "100/bottomWater";
    object      U;
}
// * * * * * * * * * * * * * * * * * * * * * * * * * * * * * * * * * * * * * //

dimensions      [0 1 -1 0 0 0 0];


internalField   nonuniform List<vector> 
1460
(
(-0.0019653116 -0.013977191 0.0016807336)
(-0.0036973929 -0.012442201 0.0017114783)
(-0.0032514008 -0.010884659 0.0018813988)
(-0.0017832822 -0.011460947 0.0022633145)
(-0.0001565145 -0.011536323 0.0020595348)
(0.0016327413 -0.011160818 0.0019879059)
(0.0017731697 -0.012772751 0.00132446)
(0.0024119132 -0.011631472 0.0010937782)
(0.0021624512 -0.012766559 0.00047075347)
(-0.00066366158 -0.015845053 -7.5120097e-05)
(-0.0023906513 -0.014735525 -0.00030218701)
(-0.0041851427 -0.014601815 -9.3763129e-05)
(-0.0022428773 -0.012752503 0.00021428407)
(-0.0011195256 -0.011783268 0.0011462123)
(-0.00063282936 -0.011797336 0.0019469458)
(0.0010009198 -0.010977101 0.0015743366)
(0.0015213535 -0.012137442 0.0010687441)
(0.003873355 -0.012972237 0.0001999653)
(0.0039033735 -0.013738318 0.00032287393)
(0.0019725568 -0.015720846 3.3503791e-05)
(-0.00014145876 -0.014490124 0.00021041412)
(-0.0030286051 -0.012201938 0.0005167585)
(-0.0025390561 -0.011382509 0.0012422838)
(-0.0015874768 -0.011929692 0.0017128873)
(-0.0013138113 -0.01104913 0.0021518881)
(0.00029622836 -0.011286096 0.0021218599)
(0.0017215644 -0.011301218 0.0021998168)
(0.0032627428 -0.010754546 0.0017325524)
(0.0037530934 -0.012769607 0.0015371175)
(0.001819045 -0.013900825 0.0015119603)
(-0.0042466377 0.015159016 0.0015307084)
(-0.0048208568 0.010104976 0.00088386675)
(-0.003386087 9.9050496e-05 0.00043920827)
(-0.0021764389 -0.00015515672 0.0016910734)
(-0.00069212049 -0.0014803135 0.00099511515)
(0.0002118771 0.0014596833 0.0014642127)
(0.0021336088 0.0086133103 0.0024263479)
(0.0021985488 0.0057107499 0.0010475535)
(0.0056643589 0.013734545 0.0015927019)
(0.0011362148 0.016971586 0.001004649)
(-0.007052318 0.016400385 -0.0002006683)
(-0.0077613889 0.013805467 -0.0002395149)
(-0.0030733049 0.0042398478 -0.00027624328)
(-0.0019664282 0.0061608792 0.0015603498)
(-0.00024536228 -3.1608305e-05 0.00049982464)
(7.8508875e-07 0.0017308086 0.0008107506)
(0.0018875855 0.0022492393 0.00027983226)
(0.0047365082 0.0074923876 -0.00047474831)
(0.0071481143 0.014308755 -0.0007800206)
(0.0036609664 0.016768266 -0.00036040298)
(-0.0048644225 0.015905545 0.0011382529)
(-0.0062953604 0.012767494 0.0010006338)
(-0.0018997131 0.003188055 0.00079232304)
(-0.0013978985 0.0061785053 0.0024848616)
(0.00028067546 0.00071084284 0.0012266982)
(0.00049506137 -0.00097432304 0.00099174105)
(0.0021012808 9.9409403e-05 0.0015914459)
(0.0031181159 -8.5311708e-05 0.00013394177)
(0.0051380168 0.011167357 0.00082150366)
(0.0039831166 0.015229478 0.0014970312)
(-0.00089448082 0.0010280562 -0.00015044584)
(0.0036039896 -0.012280338 -0.0023502114)
(-0.00014138274 -0.012782087 -0.0022872914)
(-0.0014062528 -0.012187087 -0.00037482213)
(-0.0011475371 -0.01298316 -0.0015599962)
(-0.00095694401 -0.01257722 -0.0011412863)
(0.00053356666 -0.012869561 0.0014851339)
(-0.0025044187 -0.01327061 -0.00066097114)
(-0.0033099705 -0.0068162256 0.0006536161)
(0.00021338648 0.0055249115 0.00030970421)
(-0.003387017 0.0043986004 -0.00038982017)
(0.0043510001 -0.014052342 -0.0011501197)
(0.00060334102 -0.014373391 -0.00072133929)
(-0.0014700153 -0.011171485 0.0011057046)
(0.00010700464 -0.012893 -0.0018052505)
(0.00077486504 -0.012207359 -0.0016275312)
(0.0012169031 -0.013191408 -0.0014154782)
(-0.0041968318 -0.012561751 -0.00076607008)
(-0.00045244302 -0.0030300046 -0.0009635716)
(0.0018247349 0.0058396753 0.00014003876)
(-0.00065781869 0.003563101 0.00056452533)
(0.0044472937 -0.010963158 -0.00055313178)
(0.0020167066 -0.013529177 -0.00058502273)
(-0.0014082817 -0.012250033 0.00099015017)
(0.00097196451 -0.012706993 -0.0015097749)
(0.00087704045 -0.012666192 -0.0014732737)
(0.0014828519 -0.011936176 -0.00050728558)
(-0.00046109229 -0.012983602 -0.0025730882)
(-0.0040057832 -0.012228886 -0.0021513501)
(0.00099640679 0.001398461 -0.0001064479)
(0.0018842645 0.0066184498 3.2764987e-05)
(0.0038149039 0.0092733808 -0.0010986978)
(-0.0013006212 0.0059835616 0.0017294093)
(-0.00045858695 -0.0020607066 -0.00015061498)
(-0.0013107772 -0.0040302545 -5.1172425e-05)
(-0.0015142836 -0.003005838 -0.00050405225)
(-0.00037773985 0.0054836387 0.00019229477)
(-0.0033515205 0.009719714 0.00045210859)
(-0.0054570598 0.0080683149 -0.00045773753)
(-0.002041294 0.0085138652 0.00027224571)
(0.0010893977 0.0071202499 -0.00028509613)
(0.0043269201 0.0094910112 -0.00074346223)
(-0.00040947339 0.01028215 -0.0008499262)
(-0.00022976995 0.0014732107 -0.00043869397)
(7.3011111e-05 -0.0046673523 -0.00033074186)
(-0.0014706493 -0.003420076 -0.00067403817)
(0.0015159247 0.0088616376 0.00070922179)
(-0.0032722068 0.0086707712 0.00010463324)
(-0.0025430915 0.0062305068 0.00041516049)
(0.00058524292 0.009069287 0.00015809843)
(0.0029994446 0.0072615283 0.00059914737)
(0.0053527767 0.0088680309 -1.4342944e-06)
(0.0014804199 0.0095655807 0.0010937559)
(0.0003997169 0.0026954802 0.00053521967)
(0.0011572802 -0.0033588486 -4.7631464e-05)
(0.00094285666 -0.003466767 -2.2676078e-05)
(0.00029068824 -0.001266403 -0.00025361919)
(0.0010076463 0.0072615055 0.0019447707)
(-0.0041136855 0.0093688547 -0.0011236807)
(-0.0018943445 0.006585583 0.00010800029)
(0.0010292432 -0.0044954914 -0.0021679758)
(0.0031942749 -0.0055321596 -0.0017369299)
(0.004517278 -0.0077568474 -0.0025362905)
(0.0035447019 -0.0080873309 -0.0034808991)
(-0.00030292618 -0.0086486433 -0.0025684638)
(-0.0049770912 -0.0091969111 -0.0021034435)
(-0.0067145669 -0.0087185905 -0.0010950393)
(-0.0056733912 -0.0063318238 -0.00047324864)
(-0.0043996248 -0.0037310034 -0.00032257598)
(-0.0022277067 0.00085821429 -0.00053318983)
(0.0018477409 0.00034592388 -0.00011842336)
(0.003592871 -0.0056688829 -0.00060385067)
(0.0056036685 -0.006132692 -0.00084576246)
(0.006219346 -0.0080290639 -0.0013124794)
(0.0029310112 -0.0085572436 -0.001297071)
(-0.0050464125 -0.0092948508 -0.0015810357)
(-0.0053411002 -0.0095124364 -0.0016256344)
(-0.0036878557 -0.0069016684 -0.0013351696)
(-0.003363654 -0.0036237204 -0.00067781461)
(-0.00043954479 0.0032150402 0.00069910842)
(0.0033889582 -1.8286084e-05 0.00052560726)
(0.0046831681 -0.004477868 0.00041178458)
(0.0058369702 -0.0077131983 5.4312679e-06)
(0.0060253582 -0.0091408801 -0.00089897917)
(0.0032369241 -0.0090586765 -0.0020856562)
(-0.0012046625 -0.0082373834 -0.0030445987)
(-0.0038565537 -0.0079838711 -0.0037043484)
(-0.0046420388 -0.0082252525 -0.0024674265)
(-0.0030864329 -0.0056382109 -0.0017732201)
(-0.0010284436 -0.0045193013 -0.0021352106)
(-0.00068396017 -0.014584962 0.00171223)
(-0.001908451 -0.014352768 0.0021725032)
(-0.0022936054 -0.014059526 0.003187872)
(-0.0015755359 -0.012728358 0.0035356194)
(-0.00043943139 -0.01451405 0.0035394112)
(-0.00083289042 -0.012825297 0.0030131333)
(0.00089477303 -0.010814938 0.0013170425)
(0.0026601648 -0.013539917 0.0017744182)
(0.0018510909 -0.014276638 0.0011614988)
(0.00079095032 -0.017086859 0.0015702481)
(-0.0010586563 -0.015357185 0.00020657395)
(-0.0033673115 -0.014250615 0.00011186482)
(-0.0015805428 -0.012049856 0.00027045821)
(0.001341292 -0.010407166 0.0023615771)
(0.0013131554 -0.014359842 0.0037885857)
(-0.00046991278 -0.01442821 0.0034223892)
(-0.0010865316 -0.01172363 0.0026396498)
(0.0016944275 -0.01067513 -0.00021170762)
(0.0026932987 -0.012146723 0.00045630082)
(-0.00025583673 -0.015721936 0.0015580536)
(-0.0013307651 -0.015200597 0.0017012708)
(-0.0028288038 -0.0137296 0.0013741307)
(-0.0024922176 -0.01208797 0.0020258413)
(-0.00020821715 -0.011240768 0.002025622)
(0.0005048598 -0.014194644 0.003194438)
(0.00013323266 -0.014405059 0.0035131669)
(0.001331385 -0.012583224 0.0034709791)
(0.0022455043 -0.013988068 0.0031477463)
(0.0018722713 -0.014216107 0.0019806536)
(0.00059007457 -0.01430386 0.0015408663)
(-0.0012455013 0.016366154 0.00034426145)
(-0.0037663166 0.01612452 0.0034001944)
(-0.0043371445 0.014245098 0.0053029645)
(-0.0017331691 0.0083600282 0.003556851)
(-0.0010348674 0.013646325 0.0064230917)
(-0.0020184913 0.010425174 0.0037234794)
(0.0014372792 0.0022912861 0.0010723551)
(0.0040099324 0.010855589 0.00087743426)
(0.0052333145 0.015874285 -0.00016884153)
(0.0017333952 0.017912453 -0.0010503557)
(-0.0058480789 0.016546946 -0.0012815185)
(-0.0071311657 0.012078497 -0.0012480394)
(-0.0023849708 1.3077697e-05 -0.00082443657)
(-0.001519303 0.0025642453 0.0012835646)
(0.0029985856 0.014026729 0.0056077617)
(-0.0024684286 0.014767984 0.0057451339)
(0.0014083256 0.0042727745 0.0005586732)
(0.00072171289 -0.0004655625 -0.0024600156)
(0.0054785596 0.012863632 -0.0020268595)
(0.0012221564 0.016976539 -0.0013477392)
(-0.0042560251 0.0167682 -0.0012194073)
(-0.0055082618 0.014738434 -0.00078521133)
(-0.0027783309 0.0068713162 0.00021023216)
(-0.00020362101 0.0053748501 0.0016850729)
(0.0027125615 0.014094715 0.0057574905)
(0.00046547763 0.014480202 0.0069365159)
(0.0014834364 0.0082329288 0.0034741266)
(0.0042437382 0.014271674 0.0051884205)
(0.0035809269 0.016078495 0.0028668732)
(0.00095601045 0.016148984 -6.2646944e-05)
(0.00095949192 0.0034894202 -0.0012311027)
(-0.00093419721 0.0019338793 -0.00027604243)
(0.0029801024 -0.011446693 -0.0042350099)
(-0.0010940805 -0.014619307 -0.0041542056)
(-0.0023869754 -0.013195826 -0.0031797771)
(0.001800107 -0.013101988 -0.0023929823)
(0.0021983711 -0.013549726 -0.0013095332)
(-0.0022815696 -0.013652663 -0.003710718)
(0.00019738185 0.0017131546 -0.0012569044)
(0.0011206026 0.0075419699 -0.00066538441)
(-0.0013042671 0.0040847858 -0.0017896584)
(0.0044238732 -0.012858902 -0.0039516041)
(-0.00036613953 -0.013866245 -0.0027880252)
(-0.0053225759 -0.012659404 -0.0013446094)
(-0.0023111912 -0.013373407 -0.0019368211)
(0.0022141094 -0.011232591 -0.0014094725)
(0.0045665027 -0.013931806 -0.0039919805)
(-0.0028365351 -0.013759895 -0.0045205496)
(-0.00392818 -0.0082858393 -0.0029355163)
(-0.00079217463 0.0049378423 -0.00092305295)
(-0.0021718871 0.0046102423 -0.0011299831)
(0.00056641758 -0.0049041704 -0.0022587603)
(-5.0069099e-05 -0.01394174 -0.0033830675)
(-0.0030089109 -0.012732431 -0.0016470593)
(-0.0013316067 -0.012930334 -0.0031892792)
(0.0029582491 -0.012028793 -0.0034553304)
(0.00087687536 -0.014402416 -0.0041837375)
(-0.0026680951 -0.011197986 -0.0043057717)
(0.00087982151 0.0024485031 -0.00026931649)
(-0.0010443722 0.0030510841 -0.0015282575)
(0.0015674623 0.008216941 0.0010211604)
(0.0027045512 0.0071206972 0.0011775979)
(0.0050040171 0.010364536 0.00020243101)
(0.00049633976 0.011350307 -0.00053714247)
(-0.00070651856 0.0018104164 -0.00076117759)
(-0.0013487323 -0.0017129118 -0.0012261063)
(-0.00018949356 0.0046731295 0.00083816519)
(-0.0035167569 0.0088233963 0.00019605335)
(-0.003540269 0.0066498693 -0.00063888048)
(-0.00021498813 0.010249015 0.00016771307)
(0.0022940571 0.0073323468 -0.0012770675)
(0.0040931516 0.0094066467 -0.0022226203)
(0.00016132093 0.0096387923 -0.0012138509)
(-0.0017243646 0.004684568 0.00030276019)
(0.00031770337 -0.0022704518 -7.3830927e-05)
(-0.0019366337 -0.0012198694 -0.001006009)
(0.0013396687 0.01016222 -9.8760613e-05)
(-0.0034449169 0.0091123827 -0.00035481171)
(-0.0037880518 0.0085739132 -0.0012949312)
(-0.0020112701 0.0079662974 -0.00011793815)
(0.00085827064 0.0080220556 0.00013420324)
(0.0038078542 0.0070333607 -0.0012267653)
(0.0017717022 0.0084854232 0.00031671954)
(0.0012075057 0.0012761022 -0.00027337204)
(0.00044073349 -0.00036320616 -0.0019046554)
(0.0012834418 0.0050064426 -0.0010390286)
(-0.0016005791 0.011618711 -0.00063803903)
(-0.005132689 0.010251438 0.00012981125)
(-0.0027042436 0.007157011 0.0010612154)
(-0.0014897611 0.0079699477 0.00090922673)
(0.00175147 0.0011297374 -0.0020501432)
(0.0020907258 -0.0016097929 -0.00057894598)
(0.0030842277 -0.0038534292 -0.00058955332)
(0.0031139395 -0.0054934266 -0.0020690471)
(0.0037869136 -0.0074735574 -0.0031828732)
(-0.0016523586 -0.0096201905 -0.0044079915)
(-0.0049282625 -0.0087808813 -0.0026815745)
(-0.0044124868 -0.0054212143 -0.0012757893)
(-0.0039462599 -0.00069272572 0.0005707186)
(-0.0010354496 0.0044718681 0.00053278811)
(0.0028426276 0.00073693085 -0.00013732963)
(0.0039313476 -0.0043303115 -0.0010065406)
(0.0052657489 -0.0043085006 -0.00099636616)
(0.0061488526 -0.0073550746 -0.0015752182)
(0.0032701321 -0.0090884793 -0.0013215452)
(-0.0055936885 -0.0085887543 -0.0020668169)
(-0.0048985072 -0.0066816735 -0.0017379911)
(-0.003643175 -0.0048405147 -0.001287465)
(-0.0027014238 -0.0041665314 4.826155e-05)
(-0.0015589868 0.0010887128 0.0011170065)
(0.0022150464 0.0012099075 0.00042573904)
(0.003532963 -0.003840793 0.00013027375)
(0.0039888445 -0.0077033514 -0.0018684417)
(0.003629442 -0.0096581041 -0.0033745108)
(-0.0013657633 -0.0087215003 -0.0043991721)
(-0.0039960216 -0.0068293781 -0.0033966508)
(-0.0030154718 -0.0044327719 -0.0022640929)
(-0.0028371273 -0.0043885175 -0.000595595)
(-0.0020546723 -0.0014288178 -0.00046248241)
(-0.001601596 0.00094804836 -0.0020063691)
(0.00034819732 -0.01808207 -0.00033899637)
(-0.00023409878 -0.017525298 -0.0020641932)
(9.9269629e-05 -0.016165428 3.1595851e-05)
(-0.00037999435 -0.014600978 0.0019867086)
(0.00022698087 -0.014698079 0.00051404685)
(-0.00050227175 -0.014871133 0.00087032863)
(0.00048914158 -0.01691561 0.0021142511)
(0.00080641712 -0.017829925 0.00048150252)
(0.00037083526 -0.016162754 -0.0015873014)
(0.00085713392 -0.014403628 -0.00075272497)
(0.0010773552 -0.015243244 0.00084598563)
(-0.00108307 -0.017374674 0.0022032576)
(0.0012301542 -0.010379673 0.0024526916)
(0.0022101018 -0.011244013 0.0029056312)
(0.00086994551 -0.014430369 0.0031187625)
(0.0006429555 -0.014416506 0.002915976)
(-4.0008775e-05 -0.01329642 0.0030869719)
(1.9080249e-05 -0.013879859 0.0027268688)
(-0.0015849041 -0.013936961 0.00073842993)
(-0.0019536344 -0.013701622 0.00016905559)
(-0.0018264138 -0.013932733 -0.0015873558)
(-0.0011200773 -0.015844618 -0.0014041844)
(-0.00082274528 -0.016673711 0.0002563023)
(-0.00052657413 -0.016113256 0.0010168875)
(-0.00020193932 -0.014574397 -0.00018617175)
(-0.00059516374 -0.01490157 -0.00052055421)
(0.00017175375 -0.014452624 0.0015745443)
(-0.00027725979 -0.01572105 -0.00058661419)
(0.00021917193 -0.016802306 -0.0022923505)
(-0.00046705836 -0.017683898 -0.00076306875)
(0.00044871137 0.018544213 -0.0045079348)
(0.0023686698 0.017536038 -0.0048524997)
(0.0014108828 0.017167995 -0.00092966852)
(-0.00050115261 0.015653418 0.0043769772)
(-0.0020905152 0.016177118 0.0049391368)
(-0.0031005289 0.016178122 0.0043817057)
(-0.0011172273 0.015946067 0.0041183738)
(0.00045162809 0.018888959 -0.00014237679)
(0.0020873368 0.016714218 -0.0046035876)
(0.0024341388 0.015013914 -0.0052407249)
(-0.00077298899 0.016744119 -0.0029332315)
(-0.004048295 0.01672789 -0.00044181658)
(-0.0017015046 0.0034212272 -0.00024155402)
(0.0020475495 0.012907855 0.0042657759)
(0.0026912184 0.015752575 0.0051415529)
(-0.00087292064 0.016093301 0.0052277772)
(-0.0007297017 0.014520389 0.0049094761)
(0.0013879553 0.014983154 0.0047863293)
(0.00096285697 0.015753146 0.00059070765)
(-0.0027773152 0.015277714 -0.0038490125)
(-0.0028174823 0.014846849 -0.0049429659)
(-0.0017981949 0.015995442 -0.0041874587)
(5.4989389e-05 0.017543976 5.2475781e-05)
(0.0026019968 0.017108103 0.0029128349)
(0.0033502222 0.016452154 0.003853848)
(0.0012167074 0.016278393 0.0046545587)
(-0.00016578548 0.015583802 0.0035038075)
(-0.0018432254 0.016756414 -0.0015679062)
(-0.0023737663 0.016901226 -0.0049860608)
(-0.00038229316 0.018145814 -0.0045156456)
(-0.00037519172 -0.014573536 0.00066587227)
(0.00084086345 -0.011339304 -0.001319871)
(0.0017553001 -0.00050469401 -0.00049570203)
(0.00071240438 0.00044134181 0.0017488301)
(-0.00048619062 0.0015941819 0.002771286)
(0.00057611089 -0.0089351277 0.00070096024)
(0.00069379519 -0.017014218 -0.0011423731)
(-0.00083202871 -0.016268017 0.00068880793)
(-0.0018291429 -0.014705215 0.00063102778)
(0.0018336723 -0.0033255339 0.00070127063)
(-0.00096034034 0.0026328843 -0.0013625775)
(0.0026617279 -0.011080699 -0.0020768603)
(-0.0020729262 -0.012968023 -0.0042997982)
(-0.005458976 -0.011642971 -0.0029967496)
(-0.00068852573 -0.0040061501 0.00090742311)
(0.00063840242 -0.0011502105 0.0019574574)
(0.0024516169 -0.013002549 -0.0041190151)
(-0.00080376527 -0.014016715 -0.0052210092)
(0.0003387375 -0.0015075028 -0.00012946081)
(-0.00051178049 0.00014628031 -0.00090525465)
(8.9254324e-05 -0.0095934505 0.00089089682)
(0.00096439874 -0.015733309 0.00072142952)
(0.00010545189 -0.017076977 -0.0005913129)
(-0.0014404035 -0.014755928 0.0011845456)
(0.0006556285 0.00020277154 0.0027750633)
(3.2574196e-05 0.0022733868 0.0024016287)
(-0.00050733168 0.00056382982 0.0013484861)
(-0.001826134 -0.0013101628 -0.00073110624)
(-0.00037134491 -0.012357341 -0.00076596629)
(0.00024935382 -0.014818134 0.00077331685)
(-0.0032739225 0.012614957 0.0016507735)
(-0.0056608139 0.010142447 0.00058315277)
(-0.0028562122 0.0037615554 4.2039275e-05)
(0.0007752488 0.0075767657 0.00010556591)
(0.0025729 0.0075283945 0.00043838889)
(0.0046231756 0.0092676251 -0.00069745102)
(0.0042263637 0.011888265 -0.00020090038)
(-0.00061754717 0.012276498 -0.00011348253)
(-0.0041628407 0.0082722595 0.0010562007)
(-0.0029125881 0.007060689 0.0013609279)
(0.00074303033 0.0073129198 0.00068881508)
(0.0012774938 0.010995386 -0.003316666)
(-0.0035232488 0.0092885055 -0.0034411619)
(-0.0044288326 0.0079876686 -0.003245436)
(-0.0022063818 0.0019305548 -0.0015000367)
(0.0017497648 0.0051364927 -0.00087162193)
(0.0040193812 0.010064611 -0.00304481)
(-0.0018087194 0.010781503 -0.0031208841)
(-0.0012222647 0.0073580031 -0.0019833545)
(0.0016653265 0.0070502441 0.0013541316)
(0.0038455081 0.0089918495 0.00066342919)
(0.0039269735 0.0099838208 0.00015813729)
(-0.00011484311 0.011876327 0.00040996652)
(-0.0051138623 0.010345022 0.0019106106)
(-0.0030521206 0.0068334545 0.00051880202)
(-0.00086143891 0.0078497669 0.00024509434)
(0.00021369881 0.00744274 -0.00012608892)
(0.0032532619 0.0036844701 -0.00017331704)
(0.0057741991 0.0097613468 0.00046283069)
(0.0035070658 0.012405591 0.0014451772)
(9.2818741e-05 0.0013157967 0.0019836839)
(0.0038189847 -0.0069234507 0.0027469554)
(0.0015585619 -0.0093079972 0.0017814243)
(-0.0021738362 -0.0047014251 -0.00032187146)
(0.00078715614 -0.00049528295 -0.0027218828)
(0.0010957943 -0.0071995528 -0.0040309741)
(-0.0012658109 -0.0084207515 -0.0021408602)
(0.0010639005 -0.0018023499 0.00016490456)
(0.0021700454 -0.0097666087 0.0026433319)
(-0.0022401061 -0.0048400711 0.0037857154)
(0.00041425889 8.0707173e-05 0.0022486096)
(0.0015997943 -0.0012438569 0.00055768878)
(0.0024359326 -0.002801878 -0.0002360862)
(0.0042373605 -0.0076555004 -0.00052797687)
(0.00086397978 -0.0094032317 -0.0010185899)
(-0.0043162743 -0.0072700078 -0.0020054851)
(-0.0022974931 -0.0039900666 -0.0017176723)
(-0.0011622225 -0.0024869855 -0.0011845899)
(0.00069797138 -0.0041696167 0.0012583217)
(-0.00038776362 -0.0020211952 0.002706751)
(0.0019756921 -0.0084473457 0.0028414017)
(-0.0029187079 -0.010513283 0.0018252961)
(-0.0005823907 -0.0011055056 -0.00011437728)
(0.00063021838 -0.0089531426 -0.0034339501)
(-0.0020486749 -0.0037152658 -0.003411829)
(-0.00076656613 0.0012487649 -0.0024387342)
(0.002229651 -0.0028413413 -1.394066e-05)
(-0.00064292526 -0.0093026082 0.0015801235)
(-0.0039907044 -0.0078808687 0.0028442856)
(6.115039e-05 0.0011806771 0.0018926904)
(-0.00072153532 -0.014968361 -0.0018649141)
(0.00037448285 -0.0099537081 0.00041765633)
(0.0025053285 -0.013156159 -0.0013966283)
(0.0020326883 -0.014052556 -0.00097120328)
(0.0011448165 -0.015996078 -0.0015766162)
(-0.00080877851 -0.015412443 -0.0018927242)
(-0.001929136 -0.014124758 -0.0014271567)
(-0.0020719726 -0.012159451 -0.0019670463)
(-0.00024039687 -0.010306643 -0.0018818954)
(0.0020167287 -0.010433704 -0.0025633395)
(0.0036146373 -0.0123811 -0.0023864071)
(0.0033444934 -0.013572628 -0.0014031528)
(0.0023984554 -0.013972113 -6.2785711e-06)
(0.0015974933 -0.01448815 -0.00028187057)
(0.00073902782 -0.015177191 0.00052655321)
(0.00073344193 -0.015157055 0.00015012951)
(-0.00045512579 -0.014380284 -0.00035412957)
(-0.00098129287 -0.014675736 -0.0013089842)
(-0.0024045442 -0.012708488 -0.0022520252)
(-0.0033630245 -0.011550562 -0.0029676377)
(-0.0022490376 -0.010407441 -0.0029499382)
(-0.00042972734 -0.010480681 -0.0022524171)
(0.0017949259 -0.011817048 -0.0022457502)
(0.0020772516 -0.014692839 -0.0023899126)
(0.0010147428 -0.015242898 -0.0024179048)
(-0.0013294454 -0.01592958 -0.0020322232)
(-0.0022137465 -0.013642492 -0.0014481122)
(-0.0025709954 -0.012393378 -0.0016879849)
(-0.00036552346 -0.0099641083 0.00016234269)
(0.00076088274 -0.014510206 -0.002144985)
(-0.0012406139 0.014759688 -0.0046890153)
(0.0013325193 -0.00025545746 -4.2713529e-05)
(0.0038187555 0.010807981 -0.0022375636)
(0.0043594507 0.015327413 -0.0018273291)
(0.0017906633 0.01709779 -0.00087303197)
(-0.0039989802 0.016937544 0.00028089793)
(-0.0052573512 0.015344651 -3.1345448e-05)
(-0.0036882987 0.0086529675 -0.00087345807)
(-0.00062599668 0.0012595641 -0.001282211)
(0.00077621071 0.0024481962 -0.0027883431)
(0.0036486021 0.012171341 -0.0047496013)
(0.0039168824 0.015475661 -0.0030406086)
(0.0022148166 0.016149539 1.8072028e-05)
(0.0014473452 0.016045136 0.0014429208)
(0.0021074968 0.016332169 0.0027746951)
(0.00015944115 0.016379066 0.0027335373)
(-0.0007044987 0.015987125 0.0018508466)
(-0.0017117244 0.016453183 -0.00080836946)
(-0.0036774408 0.014805318 -0.0036397849)
(-0.0039948762 0.011978595 -0.0047158029)
(-0.0010103668 0.0032719096 -0.0027602317)
(0.00031569415 0.0020773797 -0.0015321243)
(0.0027704414 0.0065734123 -0.0010081543)
(0.0059642775 0.015226208 -0.0012956834)
(0.0053534832 0.016825095 -0.0012697405)
(-0.00093065471 0.017021414 -0.0012072766)
(-0.0043882853 0.01485068 -0.0021338365)
(-0.003453873 0.0096214407 -0.0018653949)
(-0.0014061695 -0.00044106437 0.0001370988)
(0.0012705046 0.014265752 -0.0044839043)
(0.0021168138 -0.014448931 0.0018836297)
(0.0010788793 -0.013058891 0.0014888933)
(-0.0017322201 -0.012554307 0.0040563498)
(-0.00074979474 -7.5220115e-05 0.00050718456)
(0.00067960651 0.0055722837 -0.00025358045)
(-0.00025607749 0.0053006272 0.00015355722)
(0.0015814248 -0.002861353 0.0015727433)
(0.0015411898 -0.013175531 0.0030200609)
(0.00024751544 -0.012643673 0.00161569)
(-0.0019820804 -0.013116573 0.000896811)
(-0.0048276566 -0.012712613 0.00060412976)
(-0.0021552644 -0.0048334066 -0.0009106598)
(-0.0022436351 -0.0035341205 -0.0014141504)
(-0.002710364 -0.0048307524 -0.00054427478)
(-0.00024103842 -0.00088002168 0.00080799971)
(0.0015010058 0.0010373654 0.0010599565)
(0.0023528328 -0.00074180212 0.00056018201)
(0.001748508 0.0010301789 -0.00016598749)
(0.0017464654 -0.0021170384 -0.00078911334)
(0.0045039996 -0.011836138 0.001410841)
(0.0026248262 -0.013028847 0.00077517326)
(0.00050093984 -0.012182027 0.0012128204)
(-0.00091118833 -0.013247674 0.0023005095)
(-0.0033292458 -0.011251172 0.0024768733)
(0.0013097403 0.0051364981 -0.00057661145)
(-0.00048281658 0.006220845 -0.00016152862)
(0.0010100237 -6.6779711e-05 0.00022641801)
(0.0016301628 -0.012280094 0.003727072)
(-0.0014007784 -0.012893239 0.0013999341)
(-0.0020889516 -0.014162588 0.0018980189)
(-0.0010204027 0.0063153067 -0.0019553574)
(-0.0019593635 -3.0277912e-05 0.00048721498)
(-0.0027044526 0.0090032861 0.0025807474)
(-0.0031461352 0.0071942297 0.0017925364)
(-0.00023764375 0.0096213563 -0.00069769065)
(0.0017086344 0.0089482015 -0.0013496897)
(0.0046417689 0.0068918067 5.9806751e-05)
(0.0018849326 0.007973936 -0.0012016807)
(0.00034674084 -0.0005949949 0.00051046396)
(0.00029947387 0.0045978428 -0.0013696644)
(-0.0030636309 0.008678427 -0.0018463201)
(-0.0046728901 0.0071912615 -0.0032795852)
(-0.0037159445 0.0075406955 -0.0032262289)
(-0.0035100425 0.0069096054 -0.0021265554)
(-0.0020138178 0.0062055954 -0.00074880924)
(0.0023379463 0.0084937898 -0.00011567903)
(0.0027716436 0.0076948252 -0.0015113224)
(0.0025179492 0.007141986 -0.0018930709)
(0.0045963437 0.0064524065 -0.0011605356)
(0.0044490779 0.0082185601 -0.0013726083)
(0.0028948817 0.0042413728 -0.0016142098)
(0.0007590272 0.00029158478 -0.00026146974)
(0.00200804 0.0070931055 -0.0015700129)
(-0.0051029641 0.010245341 -0.00010743235)
(-0.0021871307 0.0085436926 -0.00061240948)
(0.00024397561 0.0097706864 -0.00026116127)
(0.0032797933 0.0071197832 0.0017188595)
(0.0026155982 0.0085753642 0.0024069199)
(0.0019134832 -8.1355933e-05 0.00052240644)
(0.00076366598 0.0055816304 -0.0016396582)
(0.0015122824 -0.0075043953 0.0051223514)
(-0.0027429589 -0.010353163 0.00044923354)
(-0.0045209925 -0.0086960117 0.00067969502)
(-0.0033615835 -0.00073917308 0.0014419142)
(-0.0010589761 0.0041513161 -0.00050194756)
(0.0025285569 0.0031673051 -0.00053916348)
(0.0041943378 -0.00093092094 0.00032022568)
(0.0049895669 -0.0046915277 0.0023501057)
(0.0042170718 -0.0081230203 0.0034093213)
(-0.0020287682 -0.0081668833 0.0047904298)
(-3.018684e-05 -0.0026784152 0.0025031685)
(0.00090113296 -0.0071422386 0.0046363382)
(-0.0010751428 -0.0041398136 0.0013477452)
(0.0015982327 -0.0091331818 0.0015988547)
(-0.0023590692 -0.0077338267 0.00029218356)
(-0.0010307889 -0.0020731109 -0.00021791813)
(0.00079422563 -0.0011782891 -0.00037362791)
(0.0021997259 -0.0014007277 0.0015870988)
(0.0020902824 -0.0061842768 0.0027155075)
(0.0012475548 -0.0064107168 0.003679411)
(0.0018216564 -0.009350988 0.0041451414)
(-0.0046143468 -0.0080552118 0.0031650328)
(-0.0051408973 -0.0039121036 0.0021383642)
(-0.004415132 1.172591e-05 0.00025633345)
(-0.0024630528 0.0025671841 1.2440226e-05)
(0.00088577651 0.0040620301 -9.93594e-05)
(0.0035367094 -0.00080104108 0.0017411777)
(0.0047176165 -0.008401822 0.00083193997)
(0.0029544226 -0.010174027 0.00060856934)
(-0.0010417285 -0.0075440443 0.0047764364)
(0.0021446096 -0.011014984 -0.0011416591)
(0.0010035381 -0.017737385 0.0005678264)
(0.0019550446 -0.012820946 -0.0011205189)
(0.0034492447 -0.013203685 -0.00072961303)
(0.0021181406 -0.01499523 -0.00051903466)
(-0.001425372 -0.015164158 -0.00044401162)
(-0.0029741184 -0.013442892 -0.00039862073)
(-0.0028923872 -0.010982158 -0.00060049992)
(-0.00082698069 -0.011435209 -0.00024369476)
(0.001676521 -0.011398007 -0.0011408389)
(0.003004317 -0.01055944 -0.0018327099)
(0.0035143733 -0.012736333 -0.0015427237)
(0.0013725398 -0.01392138 -0.0012690041)
(-0.0014274274 -0.013614965 -0.0009033513)
(-0.0034523326 -0.012441667 -0.0017397168)
(-0.0030575395 -0.010348113 -0.0020656953)
(-0.0015540348 -0.011406847 -0.0014771363)
(0.00060354554 -0.01147885 -0.00047290583)
(0.0025098172 -0.011318951 -0.00065868128)
(0.0028082552 -0.012123571 -0.00077381792)
(0.0019817447 -0.014350892 -0.00092521576)
(-0.0019393242 -0.014956376 -0.00094971941)
(-0.0032641279 -0.01295103 -0.00090425232)
(-0.0018228775 -0.01282899 -0.0013047689)
(-0.00097271823 -0.017864758 0.00039353992)
(-0.0021276461 -0.01092915 -0.0012650262)
(0.00057161213 0.00077563246 -0.00045839665)
(0.0018888937 0.017893685 -0.00034759545)
(0.0021214534 0.0030942118 -0.00098332837)
(0.005231839 0.011167628 -0.0010700479)
(0.0041316729 0.016035559 -0.0012618083)
(-0.0055280015 0.01634758 -0.0015268628)
(-0.0063153849 0.012715476 -0.0013460296)
(-0.0035550128 0.002614988 -0.00088222375)
(-0.0014684215 0.0013237242 -0.00033164233)
(0.0018035578 0.00039801193 -0.0011768147)
(0.0024314673 0.00075372546 -0.0017786307)
(0.0042658798 0.011055139 -0.0017430255)
(0.003189507 0.01546783 -0.0014504309)
(-0.0028572799 0.015147788 -0.0017098956)
(-0.0038328864 0.010615988 -0.0016894661)
(-0.0023978901 0.00035149295 -0.0015773691)
(-0.0011547553 0.0001851825 -0.0011231175)
(0.0012029814 0.0016004245 -0.00014317929)
(0.0038146954 0.0034448072 -0.00067872213)
(0.0048998495 0.009004358 -0.00051975221)
(0.0060494512 0.015082924 -0.0010248607)
(-0.0032246122 0.01601272 -0.00087490821)
(-0.0051698679 0.010552281 -0.00081283299)
(-0.0018874867 0.0031431939 -0.00094172866)
(-0.0017833736 0.017969369 -0.00018821515)
(-0.00075904632 0.0006173704 -0.0003950461)
(-0.0014973484 -0.012078245 0.0019104819)
(0.001826451 -0.015491081 -0.002463785)
(-0.00035236666 -0.014691519 0.0011659)
(-0.0038482854 -0.012458787 0.0018176387)
(0.003233244 0.0019193213 0.00040531102)
(-0.0017905462 0.002678031 -0.00061446808)
(0.0046641787 -0.012744389 0.00073244234)
(0.00089095366 -0.012825512 0.00020734176)
(-5.1365872e-05 -0.012086978 0.00084787773)
(0.00061342537 -0.01247775 0.00063162964)
(-0.0012388321 -0.012632898 -0.00011154342)
(-0.0034230805 -0.012847879 0.00020095711)
(0.0020049363 -0.00072126262 -0.00059257573)
(-0.0010692131 -0.0024501717 -0.00072470941)
(0.003140125 -0.012791073 0.00045858549)
(0.0011011502 -0.012544762 0.0004631136)
(0.0003281143 -0.012490564 0.00090941266)
(8.6012744e-05 -0.011990526 0.0010322162)
(0.00067914909 -0.012201525 0.00019910993)
(-0.0038855793 -0.01269926 0.0011843481)
(0.0011092546 -0.00031104846 -0.00035337571)
(-0.0029058745 0.0025542611 0.00066320442)
(0.0034980498 -0.01231922 0.0015474608)
(0.000120562 -0.014468916 0.0008112953)
(-0.0019484612 -0.014685297 -0.0022597808)
(0.0014827248 -0.012001738 0.0018759657)
(-0.00016860918 -0.0023438842 0.0010989272)
(-0.00079132898 0.012387348 0.0024523121)
(-0.0036511522 0.0096449169 0.0010334905)
(-0.0031044032 0.004326774 0.0020865264)
(0.00036741224 0.0072303241 0.00037722701)
(0.0024180077 0.0073941769 -0.00042256924)