/*--------------------------------*- C++ -*----------------------------------*\
| =========                 |                                                 |
| \\      /  F ield         | OpenFOAM: The Open Source CFD Toolbox           |
|  \\    /   O peration     | Version:  v2012                                 |
|   \\  /    A nd           | Website:  www.openfoam.com                      |
|    \\/     M anipulation  |                                                 |
\*---------------------------------------------------------------------------*/
FoamFile
{
    version     2.0;
    format      ascii;
    class       volScalarField;
    location    "340/rightSolid";
    object      T;
}
// * * * * * * * * * * * * * * * * * * * * * * * * * * * * * * * * * * * * * //

dimensions      [0 0 0 1 0 0 0];


internalField   nonuniform List<scalar> 
130
(
741.19493
748.91881
756.98736
764.9757
772.59232
779.63165
785.96856
791.52518
796.24441
800.07392
802.95937
804.89005
805.85973
735.55195
744.56583
753.75529
762.65498
770.95909
778.49693
785.18579
790.97952
795.84368
799.76153
802.70806
804.67898
805.66859
724.18402
736.16532
747.77981
758.50148
768.11762
776.56615
783.87146
790.06482
795.17135
799.23679
802.27985
804.31537
805.33764
707.14769
724.75566
740.28627
753.599
764.90144
774.44808
782.44926
789.06772
794.43587
798.65519
801.80038
803.90453
804.9615
687.0135
713.87471
734.05558
749.85724
762.56577
772.94143
781.42333
788.32911
793.87071
798.19624
801.4085
803.5494
804.61775
686.77494
713.63378
733.82277
749.63196
762.34744
772.71942
781.19336
788.0861
793.61382
797.92764
801.13042
803.26633
804.32585
706.44633
724.0752
739.63009
752.96591
764.28739
773.8499
781.82382
788.39751
793.71793
797.90021
801.016
803.07992
804.10626
723.13834
735.16256
746.80776
757.55465
767.19057
775.65492
782.92832
789.04483
794.06912
798.06208
801.03205
803.00192
803.98347
734.35721
743.41365
752.63946
761.56463
769.8863
777.42741
784.07244
789.76729
794.51336
798.30547
801.14319
803.03092
803.97434
739.95058
747.72631
755.82946
763.85339
771.48828
778.50833
784.78077
790.22855
794.80668
798.48225
801.24273
803.08443
804.00673
)
;

boundaryField
{
    maxX
    {
        type            zeroGradient;
    }
    minZ
    {
        type            zeroGradient;
    }
    maxZ
    {
        type            zeroGradient;
    }
    rightSolid_to_bottomWater
    {
        type            compressible::turbulentTemperatureCoupledBaffleMixed;
        refValue        nonuniform List<scalar> 
130
(
953.36237
955.36839
957.44547
955.55959
954.34582
952.59655
951.63372
952.72439
956.4646
961.60197
962.97166
963.94927
964.98363
953.09785
955.39124
954.44855
954.78004
953.56323
952.10139
952.31625
954.79243
957.41898
961.23926
963.10696
964.52623
965.52006
950.74007
952.17733
952.433
952.36578
953.32025
952.46773
953.87736
957.00839
957.35983
959.78697
961.33989
963.75722
965.22718
947.01487
948.93388
948.85889
948.54963
949.07601
951.36839
953.79034
954.3531
954.45554
954.10076
955.92464
959.91842
962.63175
941.1662
945.09664
945.12447
945.3054
946.36859
951.69369
951.80269
952.21924
952.3841
952.52907
955.45217
959.70533
961.08312
934.54092
939.82906
941.04421
941.28983
943.66678
947.55633
948.35638
948.99538
949.42146
949.85473
952.71097
958.98764
959.3804
931.57188
938.07537
939.6857
940.65338
942.05258
949.58106
950.01244
950.13997
949.53212
950.17493
954.81084
956.81331
957.09927
934.97611
938.77517
939.66322
940.85663
942.81852
947.13118
950.04051
950.03341
949.62729
953.84719
954.3936
954.88844
954.70269
940.39522
942.30963
944.02092
945.23724
945.76723
948.22643
951.0587
950.89037
952.64368
953.48201
953.87768
953.77567
953.69
944.5552
947.14656
948.8792
950.574
952.4873
951.30721
950.83162
951.41553
952.80386
953.20826
953.32436
953.39794
953.58746
)
;
        refGradient     uniform 0;
        valueFraction   nonuniform List<scalar> 
130
(
0.0075140686
0.0075140686
0.0075140686
0.0075140686
0.0075140686
0.0075140686
0.0075140686
0.0075140686
0.0075140686
0.0075140686
0.0075140686
0.0075140686
0.0075140686
0.0075140686
0.0075140686
0.0075140686
0.0075140686
0.0075140686
0.0075140686
0.0075140686
0.0075140686
0.0075140686
0.0075140686
0.0075140686
0.0075140686
0.0075140686
0.0075140686
0.0075140686
0.0075140686
0.0075140686
0.0075140686
0.0075140686
0.0075140686
0.0075140686
0.0075140686
0.0075140686
0.0075140686
0.0075140686
0.0075140686
0.0075140686
0.0075140686
0.0075140686
0.0075140686
0.0075140686
0.0075140686
0.0075140686
0.0075140686
0.0075140686
0.0075140686
0.0075140686
0.0075140686
0.0075140686
0.0075140686
0.0075140686
0.0075140686
0.0075140686
0.0075140686
0.0075140686
0.0075140686
0.0075140686
0.0075140686
0.0075140686
0.0075140686
0.0075140686
0.0075140686
0.0075140686
0.0075140686
0.0075140686
0.0075140686
0.0075140686
0.0075140686
0.0075140686
0.0075140686
0.0075140686
0.0075140686
0.0075140686
0.0075140686
0.0075140686
0.0075140686
0.0075140686
0.0075140686
0.0075140686
0.0075140686
0.0075140686
0.0075140686
0.0075140686
0.0075140686
0.0075140686
0.0075140686
0.0075140686
0.0075140686
0.0075140686
0.0075140686
0.0075140686
0.0075140686
0.0075140686
0.0075140686
0.0075140686
0.0075140686
0.0075140686
0.0075140686
0.0075140686
0.0075140686
0.0075140686
0.0075140686
0.0075140686
0.0075140686
0.0075140686
0.0075140686
0.0075140686
0.0075140686
0.0075140686
0.0075140686
0.0075140686
0.0075140686
0.0075140686
0.0075140686
0.0075140686
0.0075140686
0.0075140686
0.0075140686
0.0075140686
0.0075140686
0.0075140686
0.0075140686
0.0075140686
0.0075140686
0.0075140686
0.0075140686
0.0075140686
)
;
        value           nonuniform List<scalar> 
130
(
742.78625
750.46712
758.49062
766.40473
773.95498
780.92827
787.21034
792.7334
797.44528
801.28463
804.15869
806.08219
807.05233
737.18374
746.14707
755.26039
764.09566
772.32821
779.7984
786.43861
792.20741
797.05474
800.97186
803.91028
805.87705
806.86668
725.88372
737.78569
749.31477
759.9553
769.50631
777.88491
785.14592
791.31625
796.38704
800.44014
803.47198
805.51036
806.53599
708.94758
726.43754
741.85078
755.06106
766.28245
775.77452
783.73376
790.3067
795.63525
799.82018
802.95542
805.07375
806.14316
688.92098
715.6097
735.63899
751.32318
763.94412
774.28174
782.70066
789.55762
795.05878
799.35285
802.56292
804.71967
805.79033
688.6346
715.33115
735.37742
751.06955
763.70725
774.0304
782.44657
789.29224
794.78156
799.06618
802.26632
804.4333
805.4878
708.13589
725.68092
741.13087
754.37363
765.62045
775.16757
783.08471
789.60988
794.88569
799.04133
802.16852
804.23193
805.25269
724.72791
736.69018
748.2544
758.92937
768.5075
776.94059
784.18109
790.2515
795.23492
799.22955
802.18128
804.14005
805.11281
735.90316
744.9058
754.075
762.9421
771.20512
778.708
785.32427
790.97496
795.69847
799.46835
802.28769
804.16045
805.09613
741.48564
749.22228
757.27743
765.25368
772.84548
779.80385
786.02549
791.43664
795.99076
799.64172
802.38232
804.21071
805.1275
)
;
        Tnbr            T;
        thicknessLayers List<scalar> 0();
        kappaLayers     List<scalar> 0();
        kappaMethod     solidThermo;
        kappa           none;
        alphaAni        none;
        alpha           none;
        field           T;
    }
    rightSolid_to_topAir
    {
        type            compressible::turbulentTemperatureCoupledBaffleMixed;
        refValue        nonuniform List<scalar> 
130
(
484.59938
478.73451
473.45564
469.06674
465.67393
463.28589
461.87796
461.42009
461.90209
463.38394
466.09594
470.61214
477.69042
434.39783
429.11115
425.64175
423.43925
422.11451
421.49674
421.56553
422.34602
423.88185
426.30814
430.07119
436.29981
445.77355
439.5662
430.61061
423.15396
417.17394
412.64763
409.61228
408.09957
408.04779
409.27849
411.62469
415.1904
421.08152
433.12392
487.23396
487.85525
487.55559
485.95303
483.18304
479.72582
476.0769
472.53887
469.46154
468.09407
471.13712
479.68741
489.97499
492.04913
496.31745
500.7578
505.04277
508.87478
512.01757
514.32821
515.79364
516.60199
517.33061
519.07287
523.22537
531.41315
492.38609
496.85137
501.5693
506.24191
510.56331
514.2429
517.04557
518.87374
519.90575
520.74618
522.4903
526.63234
535.02355
489.36815
490.96553
491.9059
491.69961
490.1484
487.34616
483.53371
479.18168
475.29324
473.5849
476.20254
483.24751
493.60895
441.15116
432.64673
425.47925
419.56816
414.80008
411.18098
408.82857
407.86667
408.30788
410.10952
413.35553
419.05455
429.9664
433.47164
428.21951
424.95247
423.06579
422.07517
421.69736
421.82318
422.45743
423.69209
425.7417
429.07151
434.77889
444.4367
484.07137
478.25832
473.06763
468.81698
465.5966
463.37427
462.07778
461.64768
462.07586
463.44954
466.02462
470.39074
477.42635
)
;
        refGradient     uniform 0;
        valueFraction   nonuniform List<scalar> 
130
(
0.00032132529
0.00032132529
0.00032132529
0.00032132529
0.00032132529
0.00032132529
0.00032132529
0.00032132529
0.00032132529
0.00032132529
0.00032132529
0.00032132529
0.00032132529
0.00032132529
0.00032132529
0.00032132529
0.00032132529
0.00032132529
0.00032132529
0.00032132529
0.00032132529
0.00032132529
0.00032132529
0.00032132529
0.00032132529
0.00032132529
0.00032132529
0.00032132529
0.00032132529
0.00032132529
0.00032132529
0.00032132529
0.00032132529
0.00032132529
0.00032132529
0.00032132529
0.00032132529
0.00032132529
0.00032132529
0.00032132529
0.00032132529
0.00032132529
0.00032132529
0.00032132529
0.00032132529
0.00032132529
0.00032132529
0.00032132529
0.00032132529
0.00032132529
0.00032132529
0.00032132529
0.00032132529
0.00032132529
0.00032132529
0.00032132529
0.00032132529
0.00032132529
0.00032132529
0.00032132529
0.00032132529
0.00032132529
0.00032132529
0.00032132529
0.00032132529
0.00032132529
0.00032132529
0.00032132529
0.00032132529
0.00032132529
0.00032132529
0.00032132529
0.00032132529
0.00032132529
0.00032132529
0.00032132529
0.00032132529
0.00032132529
0.00032132529
0.00032132529
0.00032132529
0.00032132529
0.00032132529
0.00032132529
0.00032132529
0.00032132529
0.00032132529
0.00032132529
0.00032132529
0.00032132529
0.00032132529
0.00032132529
0.00032132529
0.00032132529
0.00032132529
0.00032132529
0.00032132529
0.00032132529
0.00032132529
0.00032132529
0.00032132529
0.00032132529
0.00032132529
0.00032132529
0.00032132529
0.00032132529
0.00032132529
0.00032132529
0.00032132529
0.00032132529
0.00032132529
0.00032132529
0.00032132529
0.00032132529
0.00032132529
0.00032132529
0.00032132529
0.00032132529
0.00032132529
0.00032132529
0.00032132529
0.00032132529
0.00032132529
0.00032132529
0.00032132529
0.00032132529
0.00032132529
0.00032132529
0.00032132529
0.00032132529
)
;
        value           nonuniform List<scalar> 
130
(
741.10954
748.82901
756.89324
764.87757
772.49063
779.52693
785.86136
791.41605
796.13392
799.96269
802.84808
804.77957
805.75119
735.4523
744.46153
753.64691
762.543
770.84399
778.37919
785.06592
790.85804
795.72111
799.63849
802.58527
804.55755
805.54988
724.08989
736.06436
747.67266
758.38889
768.00044
776.44524
783.74771
789.93905
795.04432
799.10919
802.15239
804.18914
805.21494
707.07452
724.67691
740.20232
753.51017
764.80801
774.35041
782.34783
788.963
794.32841
798.54591
801.69105
803.79725
804.85718
686.94859
713.80235
733.97802
749.77588
762.48148
772.85472
781.33457
788.23855
793.77858
798.10292
801.31468
803.4562
804.52683
686.7104
713.56183
733.7457
749.5512
762.26388
772.63359
781.1056
787.99663
793.52284
797.8355
801.03777
803.17429
804.23615
706.37452
723.99799
739.54802
752.87937
764.1966
773.75503
781.72506
788.29516
793.61255
797.7929
800.9085
802.97398
804.0033
723.04552
735.063
746.70201
757.4434
767.07457
775.53497
782.80517
788.91931
793.94206
797.93428
800.90432
802.87537
803.86009
734.25828
743.30999
752.53164
761.45319
769.77176
777.31028
783.9531
789.64622
794.39109
798.1826
801.02045
802.9094
803.8556
739.86599
747.63722
755.73597
763.75583
771.38713
778.40415
784.67406
790.11987
794.69662
798.37142
801.13183
802.97432
803.89858
)
;
        Tnbr            T;
        thicknessLayers List<scalar> 0();
        kappaLayers     List<scalar> 0();
        kappaMethod     solidThermo;
        kappa           none;
        alphaAni        none;
        alpha           none;
        field           T;
    }
    rightSolid_to_heater
    {
        type            compressible::turbulentTemperatureCoupledBaffleMixed;
        refValue        nonuniform List<scalar> 10(734.31648 727.37452 712.88299 688.88324 649.08027 648.8784 688.19603 711.78957 726.11959 732.99222);
        refGradient     uniform 0;
        valueFraction   nonuniform List<scalar> 10(0.50000003 0.50000003 0.50000003 0.50000003 0.50000003 0.50000003 0.50000003 0.50000003 0.50000003 0.50000003);
        value           nonuniform List<scalar> 10(737.75424 731.46179 718.53217 698.01421 668.04575 667.82563 697.32015 717.46285 730.23727 736.47022);
        Tnbr            T;
        thicknessLayers List<scalar> 0();
        kappaLayers     List<scalar> 0();
        kappaMethod     solidThermo;
        kappa           none;
        alphaAni        none;
        alpha           none;
        field           T;
    }
}


// ************************************************************************* //
