/*--------------------------------*- C++ -*----------------------------------*\
| =========                 |                                                 |
| \\      /  F ield         | OpenFOAM: The Open Source CFD Toolbox           |
|  \\    /   O peration     | Version:  v2012                                 |
|   \\  /    A nd           | Website:  www.openfoam.com                      |
|    \\/     M anipulation  |                                                 |
\*---------------------------------------------------------------------------*/
FoamFile
{
    version     2.0;
    format      ascii;
    class       surfaceScalarField;
    location    "50/topAir";
    object      phi;
}
// * * * * * * * * * * * * * * * * * * * * * * * * * * * * * * * * * * * * * //

dimensions      [1 0 -1 0 0 0 0];
oriented        oriented;


internalField   nonuniform List<scalar> 
3140
(
9.2742341e-06
-8.3417058e-08
7.8390245e-08
9.2740136e-06
-9.5795364e-08
9.6449385e-08
9.2926003e-06
-1.139667e-07
9.5977597e-08
9.3089736e-06
-1.055753e-07
8.9937986e-08
9.3148616e-06
-8.4080797e-08
7.9048364e-08
9.3123049e-06
-5.9751266e-08
6.3269272e-08
9.3057206e-06
-3.4844922e-08
4.2485635e-08
9.3013556e-06
-1.185934e-08
1.7367359e-08
9.3044176e-06
1.6521837e-08
-1.8362275e-08
9.3247632e-06
5.3935326e-08
-7.2990815e-08
9.3682576e-06
9.9447811e-08
-1.4159295e-07
9.438823e-06
1.6298889e-07
-2.3215498e-07
9.5348134e-06
2.5674862e-07
-3.5129928e-07
9.656195e-06
3.8555751e-07
-5.0548244e-07
9.790381e-06
5.6550484e-07
-6.9822723e-07
9.9190861e-06
8.0184756e-07
-9.2909401e-07
1.0022736e-05
1.0899453e-06
-1.1921543e-06
1.0087185e-05
1.412391e-06
-1.4754292e-06
1.0108738e-05
1.7420298e-06
-1.7622096e-06
1.0093795e-05
2.0507453e-06
-2.0344707e-06
1.0054367e-05
2.3175154e-06
-2.2767917e-06
1.0003564e-05
2.5307394e-06
-2.478671e-06
9.95256e-06
2.6867057e-06
-2.6344547e-06
9.9061301e-06
2.7888113e-06
-2.7411435e-06
9.8553251e-06
2.8466557e-06
-2.7946114e-06
9.7668186e-06
2.8763726e-06
-2.7866159e-06
9.5626368e-06
2.9074063e-06
-2.7019536e-06
9.0758879e-06
3.0007297e-06
-2.5126789e-06
7.9650148e-06
3.2853497e-06
-2.1731335e-06
4.1369722e-06
-1.6241981e-06
9.2080476e-06
-1.0497816e-07
8.2482875e-08
9.1734021e-06
-1.6809005e-07
1.0695544e-07
9.135487e-06
-1.9092271e-07
1.1489992e-07
9.1080203e-06
-1.9857034e-07
1.2050737e-07
9.0949434e-06
-1.9524812e-07
1.2430899e-07
9.0939001e-06
-1.8421724e-07
1.2559548e-07
9.1038262e-06
-1.6919248e-07
1.2453096e-07
9.1243875e-06
-1.5343957e-07
1.2115326e-07
9.160986e-06
-1.3520865e-07
1.1529377e-07
9.2199994e-06
-1.1005201e-07
1.0517433e-07
9.3065995e-06
-7.4210135e-08
8.7310535e-08
9.4290348e-06
-1.7452675e-08
5.8332347e-08
9.5965519e-06
7.355947e-08
1.6099992e-08
9.8116101e-06
2.2376879e-07
-5.2718748e-08
1.0075232e-05
4.5595434e-07
-1.5337613e-07
1.0369654e-05
7.9747785e-07
-2.89208e-07
1.0658814e-05
1.2635206e-06
-4.617571e-07
1.0903096e-05
1.8323519e-06
-6.631679e-07
1.1075227e-05
2.4475553e-06
-8.7652995e-07
1.1168323e-05
3.0408556e-06
-1.0820678e-06
1.1191766e-05
3.5600899e-06
-1.2648933e-06
1.1163515e-05
3.9794363e-06
-1.419355e-06
1.1103043e-05
4.2930478e-06
-1.5448189e-06
1.1020194e-05
4.5060494e-06
-1.6333783e-06
1.0904066e-05
4.6329815e-06
-1.6692185e-06
1.0715259e-05
4.6952258e-06
-1.6290879e-06
1.036517e-05
4.7356459e-06
-1.4771994e-06
9.6866504e-06
4.8420344e-06
-1.1618271e-06
8.4411723e-06
5.1741636e-06
-6.4234523e-07
5.928567e-06
1.7767951e-07
9.2411401e-06
-1.6065174e-07
8.3489326e-08
9.1649279e-06
-2.0070203e-07
1.0882437e-07
9.0637448e-06
-2.0766693e-07
1.1792818e-07
8.949894e-06
-2.0966365e-07
1.2494584e-07
8.8306501e-06
-2.069248e-07
1.3092372e-07
8.7099173e-06
-1.9917951e-07
1.3570002e-07
8.5893471e-06
-1.8869648e-07
1.4008148e-07
8.4682041e-06
-1.7743307e-07
1.4514661e-07
8.3465224e-06
-1.6584826e-07
1.5233466e-07
8.2265222e-06
-1.5324237e-07
1.6320852e-07
8.1128136e-06
-1.3942361e-07
1.7894535e-07
8.0211298e-06
-1.257074e-07
1.9996965e-07
7.9751051e-06
-1.0510667e-07
2.2474128e-07
8.0031735e-06
-5.5673072e-08
2.5147059e-07
8.1320941e-06
4.9355366e-08
2.7786827e-07
8.3928034e-06
2.3784414e-07
2.9926999e-07
8.7667184e-06
5.823296e-07
3.078323e-07
9.1937109e-06
1.100315e-06
3.0583006e-07
9.5999679e-06
1.7347619e-06
3.0752049e-07
9.9384486e-06
2.3717984e-06
3.3169831e-07
1.0190548e-05
2.9203674e-06
3.8881712e-07
1.0354874e-05
3.3429279e-06
4.7339586e-07
1.0436714e-05
3.6368915e-06
5.7551293e-07
1.0441716e-05
3.8138295e-06
6.883779e-07
1.0351544e-05
3.8864303e-06
8.3783753e-07
1.0135881e-05
3.8782868e-06
1.0336757e-06
9.7344016e-06
3.8283855e-06
1.3097786e-06
9.042208e-06
3.8142813e-06
1.7209628e-06
7.834963e-06
4.0229714e-06
2.3594472e-06
4.8756149e-06
3.2889961e-06
9.0267475e-06
8.1548128e-08
8.7202096e-06
1.0583569e-07
8.3986767e-06
1.1386583e-07
8.0697587e-06
1.1925428e-07
7.7394876e-06
1.2334624e-07
7.4142156e-06
1.260926e-07
7.0971528e-06
1.283667e-07
6.7883283e-06
1.3139201e-07
6.4859228e-06
1.3655832e-07
6.1870657e-06
1.456163e-07
5.8868256e-06
1.6081903e-07
5.5758222e-06
1.8529949e-07
5.2466368e-06
2.2408452e-07
4.9072061e-06
2.8376778e-07
4.5846659e-06
3.7192166e-07
4.3205376e-06
5.0205397e-07
4.2023239e-06
7.007736e-07
4.308974e-06
9.9415956e-07
4.656252e-06
1.3882805e-06
5.1736302e-06
1.8554514e-06
5.7556245e-06
2.3395424e-06
6.3156962e-06
2.7840868e-06
6.7953685e-06
3.1584617e-06
7.1497494e-06
3.4606721e-06
7.3456436e-06
3.6917241e-06
7.3495126e-06
3.8755631e-06
7.1248929e-06
4.0541087e-06
6.6690201e-06
4.2712192e-06
6.1464984e-06
4.5465263e-06
4.7343013e-06
9.3935593e-06
-8.1695864e-08
3.5733865e-08
9.5236317e-06
-9.4264212e-08
6.1072359e-08
9.6660162e-06
-1.1705306e-07
7.1237745e-08
9.8008531e-06
-1.1792691e-07
7.3753346e-08
9.9176063e-06
-1.0910788e-07
7.2242285e-08
1.0016355e-05
-1.0184552e-07
6.7303468e-08
1.0099448e-05
-9.82956e-08
5.8712061e-08
1.0170968e-05
-9.9195441e-08
4.6141476e-08
1.0232487e-05
-1.0654469e-07
2.7827103e-08
1.0284422e-05
-1.2294796e-07
-7.6088876e-10
1.0324422e-05
-1.5082588e-07
-2.9505735e-08
1.0354696e-05
-1.9176632e-07
-6.9369647e-08
1.0375661e-05
-2.4917842e-07
-1.2177669e-07
1.0395892e-05
-3.3367725e-07
-1.907425e-07
1.0417006e-05
-4.386025e-07
-2.7947626e-07
1.0442548e-05
-5.6353936e-07
-3.8987635e-07
1.0476722e-05
-7.0220854e-07
-5.229512e-07
1.0522981e-05
-8.4172119e-07
-6.7885203e-07
1.0582203e-05
-9.631824e-07
-8.5717851e-07
1.0651819e-05
-1.0467007e-06
-1.0563442e-06
1.0727311e-05
-1.079553e-06
-1.2717024e-06
1.0804837e-05
-1.0638584e-06
-1.4913089e-06
1.088423e-05
-1.0137808e-06
-1.6990289e-06
1.0971917e-05
-9.4643694e-07
-1.8813427e-06
1.1072415e-05
-8.6836035e-07
-2.025677e-06
1.1178179e-05
-7.7152547e-07
-2.1197513e-06
1.1254955e-05
-6.2653309e-07
-2.1510529e-06
1.1220176e-05
-3.6696659e-07
-2.1097337e-06
1.0904872e-05
1.4273572e-07
-1.9992952e-06
1.878199e-06
-1.8063897e-06
9.3375052e-06
-1.0558905e-07
3.7840221e-08
9.4524248e-06
-1.6999565e-07
6.7782248e-08
9.5623907e-06
-1.9529571e-07
8.3204778e-08
9.6813472e-06
-2.0803627e-07
9.170413e-08
9.812138e-06
-2.1268487e-07
9.7156817e-08
9.9493597e-06
-2.1341149e-07
1.0002059e-07
1.0089608e-05
-2.1419733e-07
1.0028531e-07
1.0231878e-05
-2.1813618e-07
9.7946656e-08
1.0376181e-05
-2.2796595e-07
9.2554855e-08
1.052251e-05
-2.4695768e-07
8.3019087e-08
1.0670654e-05
-2.7897152e-07
6.7494667e-08
1.0821628e-05
-3.2819553e-07
4.3987561e-08
1.0978206e-05
-3.9964142e-07
1.0197847e-08
1.1132279e-05
-5.0014902e-07
-4.0098224e-08
1.1284714e-05
-6.3296332e-07
-1.1122464e-07
1.1437314e-05
-7.9521239e-07
-2.0990909e-07
1.1592683e-05
-9.7677763e-07
-3.4233327e-07
1.1754637e-05
-1.1543216e-06
-5.1230098e-07
1.1924459e-05
-1.2908368e-06
-7.1847054e-07
1.2098679e-05
-1.3501556e-06
-9.5258938e-07
1.2266448e-05
-1.3119954e-06
-1.1999517e-06
1.2417994e-05
-1.1937617e-06
-1.4407019e-06
1.2549684e-05
-1.0335954e-06
-1.6563726e-06
1.2677004e-05
-8.7371281e-07
-1.8330782e-06
1.2820444e-05
-7.1887466e-07
-1.9617756e-06
1.3023638e-05
-5.736389e-07
-2.0297762e-06
1.337495e-05
-4.2882741e-07
-2.0257995e-06
1.4049634e-05
-2.6102338e-07
-1.9420155e-06
1.5344607e-05
-5.4339552e-09
-1.7886515e-06
5.0202346e-07
-1.558703e-06
9.3713595e-06
-1.6278255e-07
3.8279098e-08
9.4448959e-06
-2.0350991e-07
6.8802494e-08
9.4935384e-06
-2.1122824e-07
8.5218941e-08
9.5306939e-06
-2.1537934e-07
9.5135124e-08
9.5625913e-06
-2.1616027e-07
1.0250455e-07
9.5902608e-06
-2.1338578e-07
1.0800927e-07
9.6137226e-06
-2.095756e-07
1.1200435e-07
9.632664e-06
-2.0699349e-07
1.150713e-07
9.646467e-06
-2.0719948e-07
1.1777655e-07
9.6541417e-06
-2.119575e-07
1.20548e-07
9.6543874e-06
-2.2379284e-07
1.2353871e-07
9.6462324e-06
-2.4646228e-07
1.2641262e-07
9.6287647e-06
-2.8535348e-07
1.2794627e-07
9.6014539e-06
-3.4741111e-07
1.2607405e-07
9.5686446e-06
-4.4019655e-07
1.1794929e-07
9.542233e-06
-5.6932599e-07
9.984662e-08
9.5389035e-06
-7.338865e-07
6.8342105e-08
9.574227e-06
-9.0827468e-07
2.4565473e-08
9.6708823e-06
-1.0291868e-06
-5.0620236e-08
9.841235e-06
-1.0302691e-06
-1.5828911e-07
1.0060315e-05
-8.9714546e-07
-2.4476254e-07
1.0298575e-05
-6.6761455e-07
-2.9057604e-07
1.0512898e-05
-3.9084991e-07
-2.8107243e-07
1.0630133e-05
-1.0005694e-07
-2.0200118e-07
1.0662733e-05
1.1395625e-07
-2.7001114e-08
1.0652628e-05
2.6267614e-07
2.081359e-07
1.0615899e-05
3.6579727e-07
5.5261824e-07
1.055315e-05
4.3402282e-07
1.0894543e-06
1.0510726e-05
5.0528325e-07
1.8919873e-06
6.1153936e-07
3.0596634e-06
9.1505553e-06
3.7157585e-08
8.9865301e-06
6.6350818e-08
8.8075071e-06
8.1660426e-08
8.6208649e-06
9.0517064e-08
8.4312447e-06
9.680617e-08
8.2426662e-06
1.0128536e-07
8.0570432e-06
1.0441432e-07
7.8744973e-06
1.0694488e-07
7.6941446e-06
1.0971239e-07
7.5142299e-06
1.1357475e-07
7.3317355e-06
1.1952229e-07
7.1417125e-06
1.288627e-07
6.9369419e-06
1.4350494e-07
6.7072301e-06
1.6607327e-07
6.4391822e-06
1.9978109e-07
6.1218888e-06
2.5004016e-07
5.7596912e-06
3.2914053e-07
5.3857565e-06
4.5997919e-07
5.0713193e-06
6.738999e-07
4.8999825e-06
9.9717938e-07
4.908699e-06
1.4346214e-06
5.0630645e-06
1.9632392e-06
5.2951863e-06
2.5367148e-06
5.5546028e-06
3.1024411e-06
5.75241e-06
3.6090364e-06
5.828324e-06
4.0634289e-06
5.7478432e-06
4.5014415e-06
5.5004306e-06
4.953672e-06
5.1106702e-06
5.4425579e-06
5.9512221e-06
9.3679318e-06
-8.2249171e-08
1.9258455e-08
9.4887297e-06
-9.3924841e-08
3.4631014e-08
9.6320242e-06
-1.1501404e-07
4.3550023e-08
9.771402e-06
-1.128023e-07
4.7905078e-08
9.8949144e-06
-1.0007253e-07
4.9644366e-08
1.0001901e-05
-8.8334079e-08
4.9592749e-08
1.009332e-05
-7.9713354e-08
4.803544e-08
1.0170453e-05
-7.5066487e-08
4.5182275e-08
1.0233709e-05
-7.5409779e-08
4.1155625e-08
1.0279995e-05
-8.1913554e-08
3.6100987e-08
1.031458e-05
-9.369569e-08
3.0890936e-08
1.0334261e-05
-1.1229382e-07
2.4571921e-08
1.0335027e-05
-1.3821911e-07
1.7038141e-08
1.0326511e-05
-1.8618778e-07
5.3246466e-09
1.030608e-05
-2.4930536e-07
-8.3881869e-09
1.0274076e-05
-3.3387582e-07
-2.2668353e-08
1.0235555e-05
-4.4509333e-07
-3.8051391e-08
1.0199449e-05
-5.8817599e-07
-5.3346574e-08
1.0179534e-05
-7.6640685e-07
-6.9714126e-08
1.0191689e-05
-9.7649587e-07
-9.0956395e-08
1.0247618e-05
-1.2037642e-06
-1.2290716e-07
1.0350509e-05
-1.4215982e-06
-1.716991e-07
1.04959e-05
-1.6021286e-06
-2.4140202e-07
1.0677163e-05
-1.7297282e-06
-3.3196108e-07
1.0892111e-05
-1.800405e-06
-4.3924983e-07
1.1137108e-05
-1.8054882e-06
-5.5822176e-07
1.1387082e-05
-1.7126615e-06
-6.8725524e-07
1.1526059e-05
-1.413302e-06
-8.3420988e-07
1.1240428e-05
-6.6027002e-07
-1.0520617e-06
1.2947352e-06
-1.4629792e-06
9.3094989e-06
-1.0518972e-07
2.0251266e-08
9.4146221e-06
-1.6905296e-07
3.7802124e-08
9.5266771e-06
-1.9307736e-07
4.9241357e-08
9.6532981e-06
-2.0374809e-07
5.6072987e-08
9.7958259e-06
-2.0559301e-07
6.0211366e-08
9.947919e-06
-2.0266202e-07
6.2336783e-08
1.0104838e-05
-1.9873281e-07
6.2487965e-08
1.0263818e-05
-1.965474e-07
6.057068e-08
1.0422815e-05
-1.9805878e-07
5.6350698e-08
1.0579799e-05
-2.0510527e-07
4.93937e-08
1.0734137e-05
-2.1949912e-07
3.9147159e-08
1.0884865e-05
-2.4343204e-07
2.4605018e-08
1.103329e-05
-2.8040661e-07
4.1845048e-09
1.116759e-05
-3.3766879e-07
-2.267909e-08
1.1287599e-05
-4.2127514e-07
-5.9016753e-08
1.1389458e-05
-5.3700745e-07
-1.0838621e-07
1.1470616e-05
-6.9306812e-07
-1.7527298e-07
1.1532689e-05
-8.9675284e-07
-2.6556604e-07
1.1580741e-05
-1.1458228e-06
-3.86894e-07
1.1622428e-05
-1.4235504e-06
-5.4702544e-07
1.1665915e-05
-1.696941e-06
-7.5006659e-07
1.1713699e-05
-1.9187187e-06
-9.911488e-07
1.1765733e-05
-2.0583759e-06
-1.2519022e-06
1.1829474e-05
-2.1217748e-06
-1.5044644e-06
1.1929535e-05
-2.1353344e-06
-1.7265474e-06
1.210248e-05
-2.0990482e-06
-1.9087537e-06
1.2435571e-05
-2.0126605e-06
-2.0584395e-06
1.3157767e-05
-1.8495501e-06
-2.2274631e-06
1.4742637e-05
-1.5065612e-06
-2.5266417e-06
-7.7620969e-07
-2.7909258e-06
9.3440116e-06
-1.623893e-07
2.0422823e-08
9.4082946e-06
-2.027267e-07
3.8193458e-08
9.4598659e-06
-2.095402e-07
5.0111289e-08
9.506173e-06
-2.1260578e-07
5.7687444e-08
9.5523758e-06
-2.1211572e-07
6.2827334e-08
9.5992125e-06
-2.0774089e-07
6.6255905e-08
9.6462649e-06
-2.0189407e-07
6.8119696e-08
9.6929561e-06
-1.9667316e-07
6.8514601e-08
9.7384876e-06
-1.9330891e-07
6.7506469e-08
9.781722e-06
-1.9281846e-07
6.5041295e-08
9.8213101e-06
-1.9643223e-07
6.0901281e-08
9.8555554e-06
-2.0586388e-07
5.4620254e-08
9.8817602e-06
-2.2390334e-07
4.5262794e-08
9.8935013e-06
-2.5490962e-07
3.160187e-08
9.8830239e-06
-3.0453885e-07
1.172169e-08
9.843278e-06
-3.7917737e-07
-1.820358e-08
9.7685711e-06
-4.8858221e-07
-6.140124e-08
9.6671567e-06
-6.4397794e-07
-1.2675806e-07
9.5482373e-06
-8.531009e-07
-2.2437827e-07
9.4224403e-06
-1.0947156e-06
-3.6125648e-07
9.3189534e-06
-1.3036617e-06
-5.3442401e-07
9.2485845e-06
-1.4100642e-06
-7.2863596e-07
9.2090019e-06
-1.3886862e-06
-9.1085137e-07
9.1958618e-06
-1.2734223e-06
-1.0368024e-06
9.2405559e-06
-1.1326037e-06
-1.0739577e-06
9.3582139e-06
-1.0185237e-06
-9.8952988e-07
9.610408e-06
-9.5681929e-07
-7.5484807e-07
1.0142327e-05
-9.6348636e-07
-3.2790347e-07
1.1285967e-05
-1.1105257e-06
3.5299721e-07
-1.7205274e-06
1.1670705e-06
9.1238237e-06
1.9891881e-08
8.9504111e-06
3.7036609e-08
8.7741868e-06
4.8344369e-08
8.5967783e-06
5.531965e-08
8.4216026e-06
5.9866109e-08
8.2523739e-06
6.2773311e-08
8.0906064e-06
6.4287992e-08
7.9362399e-06
6.463871e-08
7.7885645e-06
6.4079659e-08
7.6465028e-06
6.2819116e-08
7.5085735e-06
6.1021102e-08
7.3726136e-06
5.8960913e-08
7.2352131e-06
5.70051e-08
7.0906062e-06
5.5774476e-08
6.9295789e-06
5.6274503e-08
6.7401056e-06
6.0342915e-08
6.5089256e-06
7.1750239e-08
6.2273684e-06
9.7587401e-08
5.8968959e-06
1.5135444e-07
5.5427636e-06
2.5681358e-07
5.2230399e-06
4.5114667e-07
5.0067723e-06
7.7022265e-07
4.9316898e-06
1.2241727e-06
4.974814e-06
1.7871194e-06
5.0566658e-06
2.3958264e-06
5.1021231e-06
3.0006485e-06
5.0531348e-06
3.5947448e-06
4.8339086e-06
4.2104795e-06
4.2423788e-06
4.92457e-06
5.8562099e-06
9.3624883e-06
-8.2202504e-08
8.1800079e-09
9.4756478e-06
-9.3428891e-08
1.533249e-08
9.6132819e-06
-1.136929e-07
2.0202262e-08
9.7487255e-06
-1.0988925e-07
2.3079047e-08
9.8693617e-06
-9.4771747e-08
2.4623775e-08
9.9741681e-06
-7.9563437e-08
2.5294694e-08
1.0063811e-05
-6.5900378e-08
2.532713e-08
1.0139181e-05
-5.395018e-08
2.4877221e-08
1.0201009e-05
-4.3564631e-08
2.4079967e-08
1.0249726e-05
-3.4413191e-08
2.3049975e-08
1.0285793e-05
-2.5854689e-08
2.1991909e-08
1.0307457e-05
-1.7092706e-08
2.1371011e-08
1.0311408e-05
-7.5471015e-09
2.205531e-08
1.0305789e-05
-8.0645612e-09
2.0448194e-08
1.0292229e-05
-1.0322014e-08
1.6951724e-08
1.0272168e-05
-1.4827045e-08
1.3695212e-08
1.0246359e-05
-2.3693112e-08
1.2942131e-08
1.0216654e-05
-3.9403478e-08
1.7267333e-08
1.0186135e-05
-6.6466435e-08
2.878373e-08
1.0160258e-05
-1.1206116e-07
4.8484497e-08
1.0148499e-05
-1.8497341e-07
7.5298809e-08
1.0164391e-05
-2.9111914e-07
1.0494792e-07
1.022138e-05
-4.2606163e-07
1.2902179e-07
1.0324766e-05
-5.7021507e-07
1.3615942e-07
1.0464235e-05
-6.9435339e-07
1.1689278e-07
1.0605397e-05
-7.6742996e-07
6.9299834e-08
1.0651931e-05
-7.3312894e-07
6.1455533e-10
1.0378704e-05
-4.3382648e-07
-1.2579859e-07
9.1622003e-06
5.4267615e-07
-3.7677964e-07
3.2728848e-06
-8.4764423e-07
9.3034468e-06
-1.0498836e-07
8.5597034e-09
9.3997075e-06
-1.6856419e-07
1.6691765e-08
9.5045854e-06
-1.9199661e-07
2.2695503e-08
9.6257252e-06
-2.0154932e-07
2.6637418e-08
9.7637365e-06
-2.0160309e-07
2.9093647e-08
9.9120519e-06
-1.9589897e-07
3.0438679e-08
1.0065736e-05
-1.8777189e-07
3.0777883e-08
1.0221723e-05
-1.793546e-07
3.0112688e-08
1.0377925e-05
-1.7166832e-07
2.8399909e-08
1.0532832e-05
-1.6529787e-07
2.5541585e-08
1.0685625e-05
-1.6069597e-07
2.1389014e-08
1.0836049e-05
-1.5836451e-07
1.5670466e-08
1.0984024e-05
-1.5900929e-07
7.91342e-09
1.1121799e-05
-1.6652116e-07
-1.7351277e-09
1.1249437e-05
-1.8404964e-07
-1.2642758e-08
1.1366264e-05
-2.1137587e-07
-2.8363179e-08
1.147082e-05
-2.5283891e-07
-5.0367601e-08
1.1561778e-05
-3.1465979e-07
-8.0942234e-08
1.16373e-05
-4.0565543e-07
-1.2289746e-07
1.1696352e-05
-5.3724213e-07
-1.8057122e-07
1.1741511e-05
-7.1920474e-07
-2.6068316e-07
1.1780134e-05
-9.4817937e-07
-3.7241467e-07
1.1822096e-05
-1.1947972e-06
-5.2483332e-07
1.1875494e-05
-1.4068647e-06
-7.2089556e-07
1.1942535e-05
-1.5409641e-06
-9.4661741e-07
1.2029911e-05
-1.5856867e-06
-1.1774715e-06
1.2152325e-05
-1.5157282e-06
-1.3978112e-06
1.2344661e-05
-1.214801e-06
-1.6383213e-06
1.2690201e-05
-3.8095215e-07
-1.9478096e-06
1.6334579e-06
-2.2259301e-06
9.3381781e-06
-1.6239481e-07
8.6069716e-09
9.3938059e-06
-2.0279864e-07
1.6800329e-08
9.4383865e-06
-2.094345e-07
2.2969413e-08
9.4793732e-06
-2.1202822e-07
2.7181283e-08
9.5213572e-06
-2.1075301e-07
2.9996168e-08
9.5650906e-06
-2.0515298e-07
3.1781047e-08
9.6102478e-06
-1.9745114e-07
3.264824e-08
9.6562775e-06
-1.8948656e-07
3.2625747e-08
9.7025152e-06
-1.8210021e-07
3.1712266e-08
9.7481533e-06
-1.7572404e-07
2.9844074e-08
9.7923093e-06
-1.7078274e-07
2.6850195e-08
9.8340972e-06
-1.6786627e-07
2.2356155e-08
9.872757e-06
-1.6797096e-07
1.5590708e-08
9.9045662e-06
-1.7327679e-07
6.5788638e-09
9.9241969e-06
-1.8647035e-07
-5.4534833e-09
9.92669e-06
-2.1022169e-07
-2.1811392e-08
9.9060868e-06
-2.4990983e-07
-4.3683766e-08
9.852693e-06
-3.1402179e-07
-7.3955448e-08
9.7547831e-06
-4.1533784e-07
-1.1673682e-07
9.6044758e-06
-5.6998107e-07
-1.781588e-07
9.4092841e-06
-7.9032074e-07
-2.6805779e-07
9.1939851e-06
-1.0642231e-06
-3.9720656e-07
8.9920148e-06
-1.3345027e-06
-5.6901599e-07
8.8273182e-06
-1.5189215e-06
-7.5976724e-07
8.7122675e-06
-1.5804444e-06
-9.1900537e-07
8.6781575e-06
-1.5552003e-06
-9.853527e-07
8.831841e-06
-1.5051016e-06
-9.1848491e-07
9.4901757e-06
-1.4828506e-06
-7.1741434e-07
1.1518893e-05
-1.5375043e-06
-5.1832909e-07
-1.6578344e-06
-6.5961148e-07
9.118077e-06
8.3673517e-09
8.9360886e-06
1.6226194e-08
8.7529577e-06
2.2040658e-08
8.5703718e-06
2.5877303e-08
8.3911829e-06
2.8301905e-08
8.2190938e-06
2.9709525e-08
8.0556767e-06
3.0254187e-08
7.9008158e-06
3.0013584e-08
7.7537462e-06
2.9049887e-08
7.613459e-06
2.7383404e-08
7.4787323e-06
2.4966794e-08
7.3481492e-06
2.1680127e-08
7.2198401e-06
1.7346285e-08
7.090401e-06
1.1940706e-08
6.9543919e-06
5.8183345e-09
6.8047411e-06
-2.2182721e-10
6.63501e-06
-8.4206506e-09
6.4331508e-06
-1.4565167e-08
6.1860716e-06
-1.688864e-08
5.8836396e-06
-1.0702309e-08
5.5309355e-06
1.3621491e-08
5.1540837e-06
8.3095998e-08
4.8097561e-06
2.3452942e-07
4.5706648e-06
5.0818247e-07
4.4701332e-06
9.1708637e-07
4.4794413e-06
1.4374328e-06
4.5425943e-06
2.0277732e-06
4.596639e-06
2.6747915e-06
4.5135188e-06
3.4712951e-06
4.5180016e-06
9.3597099e-06
-8.2322503e-08
1.1857746e-13
9.4690142e-06
-9.3539437e-08
2.2814571e-14
9.6035045e-06
-1.1369403e-07
-2.152694e-14
9.7369036e-06
-1.0959118e-07
-6.1441835e-14
9.8562924e-06
-9.392058e-08
-9.7027768e-14
9.960424e-06
-7.7891124e-08
-1.2735763e-13
1.0049872e-05
-6.3085425e-08
-1.5996477e-13
1.0125469e-05
-4.9603114e-08
-1.9109147e-13
1.0187973e-05
-3.7234026e-08
-2.2225511e-13
1.0237897e-05
-2.5617748e-08
-2.320585e-13
1.0275445e-05
-1.4237424e-08
-2.1379819e-13
1.0301085e-05
-2.8942562e-09
-1.4788194e-13
1.0304827e-05
1.9739572e-08
-5.9927813e-14
1.0303987e-05
2.2721386e-08
8.8534435e-14
1.0296824e-05
2.5556997e-08
3.5251255e-13
1.0283463e-05
2.8508327e-08
7.0692275e-13
1.026553e-05
3.2343048e-08
1.1788351e-12
1.024307e-05
4.1216539e-08
1.8598348e-12
1.0218219e-05
5.5150606e-08
2.771513e-12
1.0193999e-05
7.4249491e-08
4.0940459e-12
1.0173622e-05
9.7248532e-08
5.8360772e-12
1.0160343e-05
1.1982668e-07
8.3464258e-12
1.0157686e-05
1.3329933e-07
1.1837218e-11
1.0169477e-05
1.2600924e-07
1.6880817e-11
1.0195757e-05
9.2272439e-08
2.4125082e-11
1.0207807e-05
5.8931238e-08
3.3646169e-11
1.0056047e-05
1.5408348e-07
4.1657773e-11
9.3284739e-06
6.0349543e-07
4.4705834e-11
7.0715882e-06
1.8818576e-06
3.6942258e-11
4.9733778e-06
1.890405e-11
9.3001591e-06
-1.0495264e-07
1.3093594e-13
9.3918042e-06
-1.6847778e-07
3.8577701e-14
9.4925721e-06
-1.917381e-07
2.1193599e-15
9.6105882e-06
-2.0092554e-07
-4.1473992e-14
9.7461954e-06
-2.0037164e-07
-8.1654884e-14
9.8925779e-06
-1.9375279e-07
-1.2900814e-13
1.0044672e-05
-1.8429854e-07
-1.7768722e-13
1.0199322e-05
-1.740152e-07
-2.2646377e-13
1.0354398e-05
-1.6376121e-07
-2.8443939e-13
1.050843e-05
-1.5393607e-07
-3.5732924e-13
1.0660604e-05
-1.4482708e-07
-4.4592792e-13
1.081021e-05
-1.3660829e-07
-5.5761286e-13
1.0962674e-05
-1.2456069e-07
-6.606025e-13
1.1100694e-05
-1.1675361e-07
-7.2201949e-13
1.1228885e-05
-1.1496719e-07
-8.2639872e-13
1.1345811e-05
-1.1644093e-07
-9.2632552e-13
1.1450423e-05
-1.2226707e-07
-1.0133937e-12
1.1544091e-05
-1.3299099e-07
-1.0905021e-12
1.1627034e-05
-1.5025201e-07
-1.1108368e-12
1.1699462e-05
-1.7827527e-07
-1.1059881e-12
1.176103e-05
-2.2449332e-07
-1.0214936e-12
1.1810527e-05
-3.0155753e-07
-9.5289026e-13
1.1846772e-05
-4.2726134e-07
-1.0028485e-12
1.1869974e-05
-6.1763302e-07
-1.4013944e-12
1.1879735e-05
-8.6376407e-07
-2.8130912e-12
1.185791e-05
-1.0965078e-06
-6.6213855e-12
1.1743247e-05
-1.128898e-06
-1.2738241e-11
1.1369508e-05
-6.6078418e-07
-2.5802049e-11
1.0330502e-05
9.7382384e-07
-4.3406611e-11
4.7294029e-06
-7.2248024e-11
9.3349739e-06
-1.6236391e-07
1.3606811e-13
9.3860542e-06
-2.0275763e-07
4.3376016e-14
9.4265468e-06
-2.0926042e-07
2.2403669e-15
9.4643899e-06
-2.1158565e-07
-3.7637961e-14
9.5039321e-06
-2.0991461e-07
-7.7888356e-14
9.5457223e-06
-2.0375728e-07
-1.2115209e-13
9.5893593e-06
-1.9528064e-07
-1.664017e-13
9.6342351e-06
-1.8625614e-07
-2.1411893e-13
9.6796297e-06
-1.7743159e-07
-2.7027918e-13
9.7246584e-06
-1.691055e-07
-3.4138285e-13
9.7681962e-06
-1.6149586e-07
-4.2839825e-13
9.8087085e-06
-1.5474145e-07
-5.4854e-13
9.8484863e-06
-1.4872038e-07
-7.1731106e-13
9.8828845e-06
-1.4454032e-07
-9.3425431e-13
9.907141e-06
-1.4463902e-07
-1.2228373e-12
9.9178501e-06
-1.4891714e-07
-1.5801344e-12
9.910228e-06
-1.5827823e-07
-2.0423385e-12
9.8790471e-06
-1.7570801e-07
-2.6414398e-12
9.8176817e-06
-2.055589e-07
-3.4426758e-12
9.7167649e-06
-2.5544563e-07
-4.4902934e-12
9.5628826e-06
-3.3859098e-07
-5.9597428e-12
9.3414588e-06
-4.7725697e-07
-7.9810061e-12
9.0448556e-06
-6.9958297e-07
-1.0852419e-11
8.6883708e-06
-1.0207921e-06
-1.4905532e-11
8.3115446e-06
-1.4057146e-06
-2.0641068e-11
7.9875627e-06
-1.7574298e-06
-2.9390388e-11
7.9192242e-06
-1.9783014e-06
-4.3411193e-11
8.5677064e-06
-2.0256671e-06
-6.5894736e-11
1.0567324e-05
-1.5429456e-06
-7.2011819e-11
2.128392e-07
-1.2801222e-10
9.1149506e-06
1.4431856e-13
8.928419e-06
5.6026746e-14
8.7411991e-06
1.9817366e-14
8.5554906e-06
-9.3837115e-15
8.373878e-06
-3.7262412e-14
8.1998303e-06
-6.8752497e-14
8.0348043e-06
-1.0014509e-13
7.8785623e-06
-1.3269147e-13
7.7301816e-06
-1.6946714e-13
7.588461e-06
-2.2006759e-13
7.451934e-06
-2.8288807e-13
7.3188754e-06
-3.6551675e-13
7.1875049e-06
-4.8213988e-13
7.05491e-06
-6.4552888e-13
6.9160954e-06
-8.7456133e-13
6.766964e-06
-1.1951485e-12
6.6002748e-06
-1.6347341e-12
6.4100137e-06
-2.2328233e-12
6.1875814e-06
-3.0702221e-12
5.921453e-06
-4.2493972e-12
5.59651e-06
-5.9097457e-12
5.2023936e-06
-8.3422382e-12
4.7374462e-06
-1.1884933e-11
4.2251229e-06
-1.7025357e-11
3.7371475e-06
-2.519598e-11
3.418282e-06
-3.9254177e-11
3.469248e-06
-6.2668196e-11
4.1199772e-06
-9.7432582e-11
6.0498616e-06
-1.3211536e-10
1.2710025e-11
9.3597099e-06
-8.2322497e-08
-8.1797558e-09
9.4690142e-06
-9.3539439e-08
-1.533243e-08
9.6035044e-06
-1.1369403e-07
-2.0202301e-08
9.7369035e-06
-1.0959117e-07
-2.3079174e-08
9.8562924e-06
-9.392056e-08
-2.4623978e-08
9.960424e-06
-7.7891105e-08
-2.5294966e-08
1.0049872e-05
-6.3085407e-08
-2.5327471e-08
1.0125469e-05
-4.9603095e-08
-2.4877626e-08
1.0187973e-05
-3.7234011e-08
-2.4080435e-08
1.0237898e-05
-2.5617715e-08
-2.3050513e-08
1.0275445e-05
-1.4237302e-08
-2.1992541e-08
1.0301085e-05
-2.8939259e-09
-2.1371794e-08
1.0304827e-05
1.974024e-08
-2.2056294e-08
1.0303988e-05
2.2722361e-08
-2.0449357e-08
1.0296825e-05
2.5558328e-08
-1.6952854e-08
1.0283465e-05
2.8510203e-08
-1.3696373e-08
1.0265533e-05
3.234566e-08
-1.2943363e-08
1.0243074e-05
4.1220265e-08
-1.7268719e-08
1.0218225e-05
5.5155988e-08
-2.8785502e-08
1.0194008e-05
7.4257193e-08
-4.8486875e-08
1.0173636e-05
9.725962e-08
-7.5302168e-08
1.0160362e-05
1.1984242e-07
-1.0495276e-07
1.0157714e-05
1.3332175e-07
-1.2902873e-07
1.0169516e-05
1.2604106e-07
-1.3616909e-07
1.0195809e-05
9.2320205e-08
-1.1690516e-07
1.0207856e-05
5.9014798e-08
-6.9312954e-08
1.0056079e-05
1.5419255e-07
-6.2337268e-10
9.3284623e-06
6.036425e-07
1.2578436e-07
7.0714997e-06
1.8820159e-06
3.7677219e-07
4.9734726e-06
8.476416e-07
9.3001591e-06
-1.0495264e-07
-8.5594291e-09
9.3918042e-06
-1.6847777e-07
-1.6691675e-08
9.4925721e-06
-1.917381e-07
-2.2695498e-08
9.6105882e-06
-2.0092553e-07
-2.6637494e-08
9.7461954e-06
-2.0037163e-07
-2.9093807e-08
9.8925779e-06
-1.9375278e-07
-3.0438919e-08
1.0044672e-05
-1.8429852e-07
-3.0778211e-08
1.0199322e-05
-1.7401517e-07
-3.0113111e-08
1.0354398e-05
-1.6376119e-07
-2.8400437e-08
1.0508429e-05
-1.5393604e-07
-2.5542227e-08
1.0660604e-05
-1.4482701e-07
-2.1389791e-08
1.081021e-05
-1.3660813e-07
-1.5671406e-08
1.0962674e-05
-1.2456029e-07
-7.9146056e-09
1.1100694e-05
-1.1675291e-07
1.7339883e-09
1.1228885e-05
-1.1496604e-07
1.2641145e-08
1.1345811e-05
-1.164391e-07
2.8361153e-08
1.1450424e-05
-1.2226433e-07
5.0365118e-08
1.1544092e-05
-1.3298691e-07
8.0939166e-08
1.1627036e-05
-1.5024603e-07
1.2289375e-07
1.1699466e-05
-1.7826655e-07
1.8056672e-07
1.1761035e-05
-2.2448073e-07
2.6067775e-07
1.1810535e-05
-3.0153957e-07
3.7240813e-07
1.1846783e-05
-4.2723585e-07
5.2482529e-07
1.1869988e-05
-6.17597e-07
7.208856e-07
1.1879752e-05
-8.6371145e-07
9.4660516e-07
1.185793e-05
-1.0964243e-06
1.1774551e-06
1.1743248e-05
-1.128771e-06
1.3977887e-06
1.1369451e-05
-6.6060609e-07
1.6382971e-06
1.0330232e-05
9.7414408e-07
1.9477761e-06
4.7297618e-06
2.2259165e-06
9.3349739e-06
-1.623639e-07
-8.6066953e-09
9.3860542e-06
-2.0275763e-07
-1.6800246e-08
9.4265468e-06
-2.0926042e-07
-2.2969409e-08
9.4643899e-06
-2.1158565e-07
-2.7181359e-08
9.5039321e-06
-2.0991461e-07
-2.999632e-08
9.5457223e-06
-2.0375728e-07
-3.1781274e-08
9.5893593e-06
-1.9528063e-07
-3.2648545e-08
9.6342351e-06
-1.8625613e-07
-3.2626136e-08
9.6796296e-06
-1.7743157e-07
-3.1712755e-08
9.7246583e-06
-1.6910548e-07
-2.9844667e-08
9.768196e-06
-1.6149582e-07
-2.6850915e-08
9.8087081e-06
-1.5474137e-07
-2.2357014e-08
9.8484858e-06
-1.4872023e-07
-1.559173e-08
9.8828838e-06
-1.4454006e-07
-6.5800867e-09
9.90714e-06
-1.4463859e-07
5.4519327e-09
9.9178488e-06
-1.489165e-07
2.1809664e-08
9.9102265e-06
-1.5827724e-07
4.3681716e-08
9.8790454e-06
-1.7570649e-07
7.3953006e-08
9.8176796e-06
-2.0555656e-07
1.1673396e-07
9.7167622e-06
-2.5544207e-07
1.7815555e-07
9.5628791e-06
-3.3858549e-07
2.6805384e-07
9.3414535e-06
-4.7724873e-07
3.9720206e-07
9.044847e-06
-6.9957078e-07
5.6901094e-07
8.6883565e-06
-1.020774e-06
7.5976104e-07
8.311521e-06
-1.4056866e-06
9.189979e-07
7.987526e-06
-1.7573832e-06
9.8534404e-07
7.9191612e-06
-1.9782249e-06
9.1847493e-07
8.5675729e-06
-2.0255422e-06
7.1740626e-07
1.0566983e-05
-1.5426214e-06
5.1838887e-07
2.1334277e-07
6.5974386e-07
9.1149506e-06
-8.3670692e-09
8.928419e-06
-1.6226096e-08
8.7411991e-06
-2.2040619e-08
8.5554906e-06
-2.5877318e-08
8.373878e-06
-2.8301974e-08
8.1998303e-06
-2.9709645e-08
8.0348042e-06
-3.0254359e-08
7.8785623e-06
-3.0013812e-08
7.7301816e-06
-2.9050177e-08
7.5884609e-06
-2.7383758e-08
7.4519337e-06
-2.4967225e-08
7.318875e-06
-2.1680642e-08
7.1875043e-06
-1.7346896e-08
7.0549091e-06
-1.1941424e-08
6.916094e-06
-5.8191743e-09
6.766962e-06
2.2068326e-10
6.6002721e-06
8.4191179e-09
6.4100099e-06
1.4563383e-08
6.187576e-06
1.6886427e-08
5.9214455e-06
1.0699395e-08
5.5964989e-06
-1.3624202e-08
5.2023767e-06
-8.3098576e-08
4.7374203e-06
-2.34532e-07
4.2250842e-06
-5.0818564e-07
3.7370929e-06
-9.1709277e-07
3.4182088e-06
-1.437446e-06
3.4691513e-06
-2.0277983e-06
4.1198526e-06
-2.6748335e-06
6.049851e-06
-3.4713488e-06
-4.5178597e-06
9.3624883e-06
-8.2202497e-08
-1.9258187e-08
9.4756478e-06
-9.34289e-08
-3.4630953e-08
9.6132819e-06
-1.1369293e-07
-4.3550044e-08
9.7487255e-06
-1.0988927e-07
-4.7905168e-08
9.8693617e-06
-9.4771775e-08
-4.9644528e-08
9.9741681e-06
-7.9563465e-08
-4.9592975e-08
1.0063811e-05
-6.5900403e-08
-4.8035726e-08
1.0139181e-05
-5.3950223e-08
-4.5182605e-08
1.0201009e-05
-4.3564672e-08
-4.1156019e-08
1.0249726e-05
-3.4413239e-08
-3.6101421e-08
1.0285793e-05
-2.5854706e-08
-3.089147e-08
1.0307456e-05
-1.7092706e-08
-2.4572577e-08
1.0311408e-05
-7.5470048e-09
-1.7039031e-08
1.0305789e-05
-8.0643389e-09
-5.3262484e-09
1.0292229e-05
-1.032165e-08
8.3869639e-09
1.0272168e-05
-1.4826443e-08
2.2666608e-08
1.0246359e-05
-2.3692131e-08
3.8049108e-08
1.0216654e-05
-3.9402095e-08
5.3343632e-08
1.0186135e-05
-6.6464564e-08
6.9710326e-08
1.0160259e-05
-1.1205891e-07
9.0951388e-08
1.01485e-05
-1.8497071e-07
1.2290062e-07
1.0164393e-05
-2.9111613e-07
1.716904e-07
1.0221383e-05
-4.2605812e-07
2.413906e-07
1.0324769e-05
-5.702103e-07
3.319461e-07
1.0464238e-05
-6.9434536e-07
4.3923028e-07
1.0605396e-05
-7.6741425e-07
5.581965e-07
1.0651925e-05
-7.3310058e-07
6.8722368e-07