/*--------------------------------*- C++ -*----------------------------------*\
| =========                 |                                                 |
| \\      /  F ield         | OpenFOAM: The Open Source CFD Toolbox           |
|  \\    /   O peration     | Version:  v2012                                 |
|   \\  /    A nd           | Website:  www.openfoam.com                      |
|    \\/     M anipulation  |                                                 |
\*---------------------------------------------------------------------------*/
FoamFile
{
    version     2.0;
    format      ascii;
    class       volScalarField;
    location    "50/topAir";
    object      T;
}
// * * * * * * * * * * * * * * * * * * * * * * * * * * * * * * * * * * * * * //

dimensions      [0 0 0 1 0 0 0];


internalField   nonuniform List<scalar> 
1200
(
307.10301
313.88693
320.14636
325.95719
331.40331
336.5456
341.43204
346.09238
350.50467
354.62438
358.45545
361.99395
365.21854
367.80273
370.0403
371.88149
373.27155
374.1692
374.56632
374.50645
374.08202
373.41336
372.62255
371.81829
371.09753
370.56206
370.34655
370.6751
371.8798
374.12222
300.15485
300.45261
300.86815
301.38539
301.99147
302.67616
303.43125
304.25157
305.20758
306.39959
307.87469
309.73596
312.08159
314.96015
318.43495
322.47237
326.89091
331.38218
335.59894
339.26194
342.22079
344.44923
346.01166
347.04713
347.75597
348.39118
349.28823
350.96551
354.30447
360.36362
300.00346
300.01333
300.03178
300.06068
300.10163
300.15604
300.22515
300.31014
300.41391
300.5417
300.69995
300.90044
301.24776
301.90803
303.10823
305.11728
308.16842
312.2775
317.16997
322.38268
327.44288
331.99685
335.84967
338.95364
341.38255
343.30164
344.96
346.74084
349.32766
353.78857
300.00008
300.00041
300.00118
300.0027
300.0053
300.00941
300.01551
300.02418
300.0361
300.05221
300.07375
300.10265
300.14515
300.21646
300.37448
300.82402
301.98983
304.41358
308.2748
313.13829
318.3395
323.36515
327.91902
331.86917
335.19673
337.9708
340.33946
342.55919
345.1231
348.8472
307.10748
313.81949
319.937
325.54205
330.71619
335.5116
339.96307
344.09234
347.90651
351.3968
354.53687
357.29086
359.59933
361.03062
361.9302
362.28286
362.11686
361.51887
360.6288
359.61341
358.61971
357.73494
356.98932
356.38959
355.96588
355.80587
356.10486
357.29139
359.90921
363.02598
300.15477
300.44703
300.84702
301.3354
301.89644
302.51688
303.18514
303.89042
304.62325
305.37418
306.13026
306.87326
307.57569
308.2117
308.76811
309.2323
309.60527
309.90994
310.1957
310.5262
310.95116
311.47983
312.0906
312.75731
313.48205
314.27475
315.14889
316.1227
317.61998
323.65339
300.00345
300.01306
300.03057
300.0573
300.09425
300.1421
300.20131
300.27212
300.3546
300.44874
300.55435
300.67112
300.80146
300.95297
301.14159
301.3934
301.74469
302.25256
303.01697
304.15838
305.73318
307.66982
309.82734
312.08732
314.65952
317.57709
320.87648
324.68501
329.27307
334.63019
300.00008
300.0004
300.00112
300.00249
300.00477
300.00826
300.01327
300.02016
300.02931
300.04112
300.05606
300.07474
300.09825
300.12921
300.17633
300.273
300.52796
301.21317
302.77684
305.59932
309.63401
314.38949
319.27922
323.88895
327.86778
331.21139
334.14666
336.92633
339.87669
343.34427
307.1103
313.83973
319.97636
325.60051
330.79593
335.61805
340.1058
344.28571
348.17349
351.77248
355.08243
358.09123
360.76764
362.52573
363.88774
364.79807
365.18677
364.97366
364.08358
362.50136
360.33729
357.84977
355.37786
353.21914
351.56185
350.52812
350.28624
351.3353
354.9388
360.95781
300.15487
300.44827
300.85009
301.34036
301.90296
302.52445
303.19345
303.89969
304.63337
305.3844
306.14194
306.89354
307.62363
308.30259
308.90832
309.41591
309.79873
310.03305
310.11071
310.05681
309.94383
309.8843
309.98168
310.28652
310.80327
311.54222
312.53256
313.87613
316.11703
322.67918
300.00345
300.01311
300.03071
300.05755
300.09454
300.14228
300.20111
300.27114
300.35227
300.44416
300.54616
300.65729
300.77611
300.90042
301.02741
301.15375
301.27555
301.39112
301.51628
301.71581
302.1208
302.88015
304.04904
305.55697
307.30036
309.36465
311.87077
315.04115
319.15148
324.42743
300.00008
300.0004
300.00113
300.0025
300.00478
300.00824
300.01317
300.01989
300.02871
300.03993
300.05386
300.07079
300.09103
300.11494
300.14336
300.17925
300.23461
300.35362
300.66996
301.48351
303.2372
306.26442
310.47171
315.33943
320.2003
324.65949
328.65603
332.32177
335.93149
339.77711
307.11026
313.84378
319.99029
325.63045
330.85025
335.70847
340.24926
344.50763
348.51334
352.2919
355.86574
359.25563
362.46082
364.6614
366.74757
368.7498
370.69258
372.57489
374.31228
375.76617
376.76068
377.11651
376.72844
375.65525
374.14086
372.56137
371.49312
372.29468
375.69484
380.12984
300.15488
300.44861
300.85146
301.34369
301.90947
302.53587
303.21235
303.93004
304.68138
305.45977
306.25932
307.07455
307.90029
308.71292
309.50415
310.26563
310.98578
311.64853
312.23095
312.70322
313.03593
313.22207
313.30991
313.41048
313.64008
314.07161
314.83004
316.35012
321.59555
336.15746
300.00345
300.01313
300.03079
300.05776
300.09498
300.1431
300.20252
300.27346
300.35598
300.44997
300.55523
300.67141
300.79798
300.93375
301.07717
301.22615
301.37773
301.52779
301.67127
301.80531
301.9424
302.14514
302.56576
303.40485
304.77136
306.64494
308.96763
311.68751
314.9737
320.55725
300.00008
300.0004
300.00113
300.00251
300.00481
300.0083
300.01328
300.02008
300.029
300.04037
300.0545
300.07171
300.0923
300.11654
300.1447
300.1771
300.21446
300.25923
300.32166
300.44135
300.74831
301.5604
303.38266
306.61103
311.09469
316.20388
321.3302
326.18013
330.79918
335.36297
307.11015
313.84564
319.99668
325.64315
330.87102
335.74002
340.29543
344.57394
348.60655
352.42065
356.04201
359.49025
362.71214
364.48686
366.1849
367.88764
369.71005
371.80443
374.02843
376.28927
378.52289
380.6792
382.7152
384.60409
386.3506
387.99966
389.63662
391.27811
393.20079
395.95831
300.15488
300.44877
300.8521
301.34526
301.91249
302.54103
303.22057
303.94267
304.70035
305.48782
306.30032
307.13606
308.08118
309.02458
309.9623
310.89422
311.8251
312.7807
313.7805
314.83608
315.94007
317.04406
318.03259
318.72341
318.96384
318.91158
319.61639
323.39116
334.00805
353.7584
300.00345
300.01314
300.03082
300.05786
300.09521
300.14353
300.20327
300.27468
300.35787
300.45286
300.55958
300.67799
300.80972
300.95396
301.1097
301.2759
301.45152
301.63559
301.82674
302.02242
302.21791
302.40634
302.58839
302.81703
303.29352
304.39539
306.43961
309.38605
314.29004
326.56255
300.00008
300.0004
300.00113
300.00252
300.00482
300.00833
300.01335
300.02019
300.02918
300.04066
300.05495
300.0724
300.09337
300.11826
300.1474
300.18117
300.21994
300.2642
300.3147
300.3733
300.44633
300.56308
300.8413
301.63053
303.57152
307.22534
312.41452
318.18694
323.7251
328.53149
307.11015
313.84564
319.99668
325.64316
330.87102
335.74002
340.29543
344.57394
348.60655
352.42065
356.04202
359.49027
362.71216
364.48689
366.18493
367.88767
369.71008
371.80446
374.02846
376.28931
378.52293
380.67923
382.71523
384.60413
386.35063
387.99969
389.63666
391.27819
393.20092
395.95851
300.15488
300.44877
300.8521
301.34526
301.91249
302.54103
303.22057
303.94267
304.70035
305.48782
306.30032
307.13606
308.08119
309.02459
309.96231
310.89424
311.82514
312.78076
313.78058
314.8362
315.94025
317.04432
318.03295
318.72393
318.96458
318.91272
319.61801
323.39341
334.01056
353.76066
300.00345
300.01314
300.03082
300.05786
300.09521
300.14353
300.20327
300.27468
300.35787
300.45286
300.55958
300.67799
300.80972
300.95396
301.1097
301.2759
301.45152
301.6356
301.82674
302.02243
302.21792
302.40636
302.58842
302.81707
303.29357
304.39545
306.43968
309.38612
314.29071
326.5645
300.00008
300.0004
300.00113
300.00252
300.00482
300.00833
300.01335
300.02019
300.02918
300.04066
300.05495
300.0724
300.09337
300.11826
300.1474
300.18117
300.21994
300.2642
300.31471
300.3733
300.44633
300.56308
300.8413
301.63054
303.57155
307.22543
312.41467
318.18715
323.72535
328.53153
307.11026
313.84378
319.99029
325.63045
330.85025
335.70847
340.24926
344.50763
348.51334
352.2919
355.86575
359.25564
362.46083
364.66142
366.74759
368.74983
370.69262
372.57494
374.31234
375.76624
376.76075
377.1166
376.72853
375.65536
374.141
372.56158
371.49345
372.29516
375.69528
380.13026
300.15488
300.44861
300.85146
301.34369
301.90947
302.53587
303.21235
303.93004
304.68138
305.45977
306.25932
307.07455
307.90029
308.71292
309.50415
310.26563
310.98578
311.64854
312.23095
312.70323
313.03595
313.22209
313.30995
313.41054
313.64018
314.07179
314.83035
316.35063
321.59655
336.15875
300.00345
300.01313
300.03079
300.05776
300.09498
300.1431
300.20252
300.27346
300.35598
300.44997
300.55523
300.67141
300.79798
300.93376
301.07717
301.22615
301.37773
301.52779
301.67127
301.80531
301.9424
302.14514
302.56576
303.40485
304.77138
306.64495
308.96764
311.68749
314.97364
320.55753
300.00008
300.0004
300.00113
300.00251
300.00481
300.0083
300.01328
300.02008
300.029
300.04037
300.0545
300.07171
300.0923
300.11654
300.1447
300.1771
300.21446
300.25923
300.32166
300.44135
300.74831
301.56039
303.38266
306.61103
311.0947
316.2039
321.33023
326.18016
330.7992
335.36296
307.1103
313.83973
319.97636
325.60051
330.79593
335.61805
340.1058
344.28571
348.17349
351.77248
355.08244
358.09124
360.76765
362.52574
363.88775
364.79808
365.18679
364.97368
364.0836
362.50136
360.33727
357.84973
355.37779
353.21903
351.5617
350.52793
350.28602
351.33504
354.93854
360.95763
300.15487
300.44827
300.85009
301.34036
301.90296
302.52445
303.19345
303.89969
304.63337
305.3844
306.14194
306.89354
307.62363
308.3026
308.90832
309.41591
309.79873
310.03306
310.11072
310.05681
309.94383
309.8843
309.98168
310.28652
310.80328
311.54224
312.53262
313.87624
316.11726
322.67952
300.00345
300.01311
300.03071
300.05755
300.09454
300.14228
300.20111
300.27114
300.35227
300.44416
300.54616
300.65729
300.77611
300.90042
301.02741
301.15375
301.27555
301.39112
301.51628
301.71581
302.1208
302.88015
304.04904
305.55697
307.30036
309.36466
311.87077
315.04112
319.15143
324.42735
300.00008
300.0004
300.00113
300.0025
300.00478
300.00824
300.01317
300.01989
300.02871
300.03993
300.05386
300.07079
300.09103
300.11494
300.14336
300.17925
300.23461
300.35361
300.66996
301.4835
303.23719
306.26441
310.47171
315.33942
320.20031
324.6595
328.65603
332.32177
335.93148
339.77708
307.10748
313.81949
319.937
325.54205
330.71619
335.5116
339.96308
344.09234
347.90652
351.3968
354.53688
357.29086
359.59934
361.03062
361.9302
362.28287
362.11687
361.51888
360.62881
359.61341
358.6197
357.73492
356.98929
356.38953
355.96581
355.80577
356.10473
357.29122
359.90905
363.02583
300.15477
300.44703
300.84702
301.3354
301.89644
302.51688
303.18514
303.89042
304.62325
305.37418
306.13026
306.87327
307.57569
308.2117
308.76811
309.2323
309.60527
309.90994
310.1957
310.5262
310.95116
311.47983
312.09059
312.75731
313.48205
314.27475
315.14891
316.12273
317.61999
323.65334
300.00345
300.01306
300.03057
300.0573
300.09425
300.1421
300.20131
300.27212
300.3546
300.44874
300.55435
300.67112
300.80146
300.95297
301.14159
301.3934
301.74468
302.25256
303.01696
304.15838
305.73317
307.66982
309.82734
312.08732
314.65953
317.57709
320.87648
324.68499
329.27304
334.63016
300.00008
300.0004
300.00112
300.00249
300.00477
300.00826
300.01327
300.02016
300.02931
300.04112
300.05606
300.07474
300.09825
300.12921
300.17633
300.273
300.52796
301.21317
302.77683
305.59931
309.63399
314.38948
319.27921
323.88894
327.86779
331.21139
334.14667
336.92634
339.87669
343.34426
307.10301
313.88693
320.14635
325.95718
331.40331
336.5456
341.43204
346.09238
350.50467
354.62438
358.45546
361.99395
365.21854
367.80272
370.04029
371.88148
373.27154
374.16919
374.56631
374.50644
374.08201
373.41335
372.62253
371.81827
371.0975
370.56203
370.34651
370.67505
371.87975
374.12218
300.15485
300.45261
300.86815
301.38539
301.99147
302.67616
303.43125
304.25156
305.20758
306.39959
307.87468
309.73595
312.08158
314.96014
318.43494
322.47234
326.89089
331.38215
335.59892
339.26192
342.22077
344.44922
346.01165
347.04713
347.75597
348.39118
349.28822
350.96548
354.30442
360.36356
300.00346
300.01333
300.03178
300.06068
300.10163
300.15604
300.22515
300.31014
300.41391
300.5417
300.69995
300.90044
301.24776
301.90802
303.10822
305.11727
308.1684
312.27747
317.16994
322.38265
327.44285
331.99683
335.84965
338.95363
341.38254
343.30163
344.95999
346.74082
349.32764
353.78852
300.00008
300.00041
300.00118
300.0027
300.0053
300.00941
300.01551
300.02418
300.0361
300.05221
300.07375
300.10265
300.14515
300.21646
300.37448
300.82402
301.98982
304.41356
308.27478
313.13826
318.33947
323.36513
327.919
331.86915
335.19672
337.97079
340.33945
342.55917
345.12308
348.84716
)
;

boundaryField
{
    maxY
    {
        type            zeroGradient;
    }
    minX
    {
        type            fixedValue;
        value           uniform 300;
    }
    maxX
    {
        type            inletOutlet;
        inletValue      uniform 300;
        value           nonuniform List<scalar> 
40
(
374.10355
360.34956
353.77585
348.83521
363.00901
323.647
334.62097
343.33331
360.93975
322.67003
324.41995
339.76652
380.10808
336.14417
320.54734
335.35204
395.93082
353.74127
326.54648
328.51884
395.93102
353.74353
326.54841
328.51888
380.10851
336.14545
320.54761
335.35203
360.93957
322.67037
324.41988
339.76649
363.00886
323.64695
334.62093
343.3333
374.10351
360.34951
353.77581
348.83517
)
;
    }
    minZ
    {
        type            zeroGradient;
    }
    maxZ
    {
        type            zeroGradient;
    }
    topAir_to_rightSolid
    {
        type            compressible::turbulentTemperatureCoupledBaffleMixed;
        refValue        nonuniform List<scalar> 
130
(
465.76289
466.70881
467.62163
468.42852
469.10944
469.68157
470.17963
470.58203
470.87683
471.04138
471.13264
471.15313
471.13592
464.59801
465.86181
467.03792
468.04441
468.87338
469.54292
470.10742
470.55966
470.89472
471.11107
471.2365
471.27514
471.26128
462.01778
464.04216
465.80078
467.23539
468.35629
469.23569
469.94772
470.491
470.87981
471.12684
471.25866
471.31615
471.31924
457.7589
461.30915
464.08735
466.16196
467.70528
468.87739
469.76606
470.40277
470.82942
471.08697
471.23321
471.30244
471.31945
452.4303
458.52213
462.55262
465.29367
467.23726
468.63346
469.63736
470.34138
470.8048
471.08925
471.24716
471.31264
471.32571
452.43041
458.52227
462.5527
465.29369
467.23727
468.63347
469.63737
470.34139
470.80482
471.08926
471.24717
471.31265
471.32572
457.75904
461.30921
464.08738
466.16196
467.70527
468.8774
469.76608
470.40279
470.82945
471.08701
471.23326
471.30249
471.31951
462.01787
464.04218
465.80077
467.23535
468.35624
469.23567
469.94774
470.49104
470.87986
471.12691
471.25874
471.31625
471.31936
464.59803
465.8618
467.03789
468.04437
468.87334
469.5429
470.10744
470.55971
470.89479
471.11117
471.23663
471.27531
471.26148
465.76284
466.70876
467.62155
468.42844
469.10938
469.68154
470.17964
470.58207
470.87691
471.04149
471.13281
471.15338
471.13628
)
;
        refGradient     uniform 0;
        valueFraction   uniform 0.99967867;
        value           nonuniform List<scalar> 
130
(
465.73345
466.6792
467.5917
468.3982
469.07868
469.65038
470.14802
470.55006
470.84459
471.00902
471.10035
471.12122
471.10474
464.56488
465.82799
467.0034
468.00925
468.83766
469.50675
470.07087
470.52284
470.85774
471.07412
471.19989
471.23935
471.22649
461.98659
464.01003
465.76759
467.20104
468.32078
469.1991
469.91021
470.45279
470.84114
471.08801
471.22012
471.27875
471.28378
457.73152
461.28119
464.05897
466.13323
467.67616
468.84778
469.73581
470.37184
470.79784
471.05496
471.20142
471.27171
471.29014
452.40438
458.49497
462.5249
465.26579
467.20944
468.60585
469.61003
470.31439
470.77819
471.06307
471.22146
471.28753
471.30148
452.40449
458.49511
462.52497
465.26581
467.20944
468.60586
469.61004
470.3144
470.7782
471.06308
471.22147
471.28754
471.3015
457.73166
461.28125
464.05899
466.13323
467.67615
468.84778
469.73583
470.37186
470.79787
471.055
471.20146
471.27177
471.2902
461.98668
464.01006
465.76757
467.201
468.32073
469.19908
469.91022
470.45282
470.84119
471.08808
471.2202
471.27885
471.28389
464.56491
465.82798
467.00336
468.0092
468.83762
469.50673
470.07089
470.52288
470.85781
471.07421
471.20001
471.23952
471.2267
465.73341
466.67915
467.59163
468.39812
469.07862
469.65035
470.14803
470.5501
470.84467
471.00913
471.10052
471.12147
471.10511
)
;
        Tnbr            T;
        thicknessLayers List<scalar> 0();
        kappaLayers     List<scalar> 0();
        kappaMethod     fluidThermo;
        kappa           none;
        alphaAni        none;
        alpha           none;
        field           T;
    }
    topAir_to_heater
    {
        type            compressible::turbulentTemperatureCoupledBaffleMixed;
        refValue        nonuniform List<scalar> 
40
(
463.39623
463.63821
464.13793
464.8602
461.39483
461.71523
462.38782
463.37497
456.84623
457.32608
458.37866
459.99441
448.73391
449.34276
450.97722
453.84726
436.12265
436.17004
438.17418
443.13024
436.12273
436.17011
438.17426
443.13033
448.73401
449.34287
450.97739
453.84741
456.84618
457.32607
458.37885
459.99456
461.39467
461.71514
462.38789
463.37506
463.39593
463.63805
464.13795
464.86028
)
;
        refGradient     uniform 0;
        valueFraction   uniform 0.99967867;
        value           nonuniform List<scalar> 
40
(
463.36551
463.60813
464.10828
464.83076
461.36257
461.68316
462.35565
463.34243
456.81591
457.29605
458.34859
459.96394
448.70689
449.31622
450.9508
453.82053
436.09963
436.14755
438.15159
443.10664
436.0997
436.14762
438.15167
443.10674
448.70699
449.31632
450.95097
453.82068
456.81587
457.29604
458.34877
459.96409
461.36241
461.68307
462.35572
463.34252
463.36521
463.60797
464.1083
464.83085
)
;
        Tnbr            T;
        thicknessLayers List<scalar> 0();
        kappaLayers     List<scalar> 0();
        kappaMethod     fluidThermo;
        kappa           none;
        alphaAni        none;
        alpha           none;
        field           T;
    }
    topAir_to_leftSolid
    {
        type            compressible::turbulentTemperatureCoupledBaffleMixed;
        refValue        nonuniform List<scalar> 
130
(
471.11338
471.17542
471.24391
471.28915
471.31588
471.27777
471.2106
471.14062
471.10217
471.06888
471.02188
470.96333
470.9264
471.25059
471.31199
471.3679
471.3883
471.37834
471.32415
471.24538
471.16839
471.12282
471.07429
471.01449
470.93969
470.88416
471.31665
471.36548
471.41144
471.44079
471.42567
471.35959
471.25765
471.14181
471.05772
470.98097
470.88562
470.78273
470.68549
471.31094
471.34953
471.39252
471.42357
471.42559
471.36832
471.25105
471.08882
470.92876
470.78846
470.64182
470.46403
470.27625
471.30884
471.3535
471.40568
471.43589
471.43022
471.36885
471.23989
471.05867
470.84506
470.61611
470.39307
470.1322
469.84314
471.30884
471.3535
471.40568
471.43589
471.43022
471.36886
471.23989
471.05866
470.84506
470.61616
470.39322
470.13244
469.84333
471.31093
471.34952
471.39252
471.42357
471.4256
471.36833
471.25106
471.08882
470.92877
470.7885
470.64188
470.46411
470.27639
471.31665
471.36547
471.41143
471.44079
471.42568
471.3596
471.25766
471.14183
471.05774
470.981
470.88566
470.78277
470.68557
471.25059
471.31199
471.3679
471.3883
471.37834
471.32416
471.2454
471.1684
471.12283
471.0743
471.01451
470.93971
470.88419
471.11337
471.17541
471.2439
471.28915
471.31589
471.27778
471.21062
471.14064
471.1022
471.0689
471.02191
470.96334
470.92641
)
;
        refGradient     uniform 0;
        valueFraction   uniform 0.99967867;
        value           nonuniform List<scalar> 
130
(
471.06068
471.12488
471.19535
471.24245
471.27092
471.23447
471.1689
471.10043
471.06341
471.03145
470.98571
470.92831
470.89243
471.19785
471.26139
471.31924
471.34143
471.33314
471.2805
471.2032
471.12755
471.08323
471.03583
470.97706
470.90317
470.8484
471.26389
471.31486
471.36278
471.39393
471.38048
471.31597
471.21551
471.10105
471.01823
470.94266
470.84841
470.74651
470.65016
471.25818
471.29892
471.34387
471.37672
471.38042
471.32473
471.20895
471.04814
470.88942
470.75038
470.60493
470.42829
470.2416
471.25608
471.30288
471.35702
471.38904
471.38505
471.32527
471.19781
471.01802
470.80577
470.57813
470.35632
470.09664
469.80871
471.25608
471.30288
471.35703
471.38904
471.38506
471.32528
471.19781
471.01801
470.80577
470.57818
470.35648
470.09689
469.8089
471.25817
471.29891
471.34387
471.37672
471.38043
471.32474
471.20896
471.04814
470.88943
470.75042
470.605
470.42837
470.24174
471.26388
471.31486
471.36277
471.39393
471.38049
471.31598
471.21552
471.10106
471.01825
470.94269
470.84845
470.74656
470.65024
471.19785
471.26138
471.31924
471.34144
471.33314
471.28052
471.20321
471.12756
471.08324
471.03584
470.97707
470.90318
470.84843
471.06067
471.12487
471.19535
471.24245
471.27093
471.23448
471.16892
471.10046
471.06344
471.03148
470.98573
470.92832
470.89244
)
;
        Tnbr            T;
        thicknessLayers List<scalar> 0();
        kappaLayers     List<scalar> 0();
        kappaMethod     fluidThermo;
        kappa           none;
        alphaAni        none;
        alpha           none;
        field           T;
    }
}


// ************************************************************************* //
