/*--------------------------------*- C++ -*----------------------------------*\
| =========                 |                                                 |
| \\      /  F ield         | OpenFOAM: The Open Source CFD Toolbox           |
|  \\    /   O peration     | Version:  v2012                                 |
|   \\  /    A nd           | Website:  www.openfoam.com                      |
|    \\/     M anipulation  |                                                 |
\*---------------------------------------------------------------------------*/
FoamFile
{
    version     2.0;
    format      ascii;
    class       volScalarField;
    location    "760/leftSolid";
    object      T;
}
// * * * * * * * * * * * * * * * * * * * * * * * * * * * * * * * * * * * * * //

dimensions      [0 0 0 1 0 0 0];


internalField   nonuniform List<scalar> 
130
(
929.33842
929.31893
929.27849
929.21514
929.11871
928.98139
928.79075
928.54566
928.24474
927.92726
927.64387
927.4064
927.23759
929.25979
929.24565
929.20936
929.14446
929.04235
928.89365
928.69419
928.4411
928.13893
927.815
927.49513
927.21871
927.03155
929.14359
929.12799
929.08574
929.00881
928.88948
928.71289
928.49838
928.23962
927.92731
927.58737
927.24259
926.90943
926.65047
928.993
928.97393
928.92299
928.82936
928.6903
928.50532
928.27459
927.99506
927.66215
927.2862
926.88701
926.47163
926.20738
928.8338
928.81052
928.75221
928.64703
928.49256
928.28613
928.02428
927.70722
927.33024
926.88911
926.48394
926.15676
925.94786
928.68713
928.65727
928.58747
928.46966
928.29616
928.05942
927.74999
927.37887
926.98191
926.59224
926.235
925.93672
925.73514
928.57071
928.53395
928.45427
928.32216
928.12608
927.85318
927.51253
927.15972
926.80481
926.45286
926.12521
925.84643
925.67037
928.47135
928.43278
928.34904
928.20977
928.00187
927.70841
927.37629
927.04636
926.71494
926.38691
926.07329
925.79106
925.61198
928.39748
928.36142
928.28029
928.14531
927.94382
927.66966
927.3403
927.0149
926.69912
926.39321
926.1068
925.84439
925.65772
928.35766
928.32555
928.25085
928.1219
927.9242
927.66046
927.35365
927.035
926.71762
926.40762
926.12782
925.88736
925.7274
)
;

boundaryField
{
    minX
    {
        type            zeroGradient;
    }
    minZ
    {
        type            zeroGradient;
    }
    maxZ
    {
        type            zeroGradient;
    }
    leftSolid_to_bottomWater
    {
        type            compressible::turbulentTemperatureCoupledBaffleMixed;
        refValue        nonuniform List<scalar> 
130
(
968.79424
967.74364
967.00024
967.38252
967.72367
968.54484
967.80671
966.77342
961.64588
957.30342
958.13795
957.55667
949.77623
966.48476
966.61561
966.85541
967.39958
968.12942
968.28015
967.63805
965.76997
962.29963
959.77706
955.59516
953.13361
947.13606
966.34551
966.53346
966.55194
966.67872
967.4797
963.72741
963.20036
963.40617
959.81828
957.58744
957.15836
952.98961
933.82912
965.61809
965.81371
965.72313
964.64736
963.65687
963.01079
962.68642
962.62581
961.45615
960.12682
957.5907
933.57389
919.60352
965.23091
965.35999
965.49128
964.60584
963.79772
963.07144
962.33399
962.34251
960.65279
945.58764
938.66529
936.19463
929.76185
965.29767
965.17963
964.74323
964.22817
963.73311
963.22979
959.33261
952.23276
945.81037
943.10558
940.59174
936.89594
926.62757
966.63923
965.89157
965.40914
965.00836
964.53215
961.69477
953.30017
951.19016
950.09507
947.39475
944.86226
940.49666
935.14077
966.35247
965.68433
965.26351
964.85835
964.43322
956.84161
952.09179
952.13283
950.56641
948.32934
945.50772
937.9127
931.298
965.44399
965.15696
964.75647
964.76068
964.18359
961.56472
953.85409
952.07061
951.60842
950.83445
950.97212
945.86785
934.14812
964.67011
964.74893
965.03321
965.47123
963.92139
960.78901
958.03137
955.88433
953.55279
949.91995
948.69195
945.26618
938.70638
)
;
        refGradient     uniform 0;
        valueFraction   nonuniform List<scalar> 
130
(
0.0075140686
0.0075140686
0.0075140686
0.0075140686
0.0075140686
0.0075140686
0.0075140686
0.0075140686
0.0075140686
0.0075140686
0.0075140686
0.0075140686
0.0075140686
0.0075140686
0.0075140686
0.0075140686
0.0075140686
0.0075140686
0.0075140686
0.0075140686
0.0075140686
0.0075140686
0.0075140686
0.0075140686
0.0075140686
0.0075140686
0.0075140686
0.0075140686
0.0075140686
0.0075140686
0.0075140686
0.0075140686
0.0075140686
0.0075140686
0.0075140686
0.0075140686
0.0075140686
0.0075140686
0.0075140686
0.0075140686
0.0075140686
0.0075140686
0.0075140686
0.0075140686
0.0075140686
0.0075140686
0.0075140686
0.0075140686
0.0075140686
0.0075140686
0.0075140686
0.0075140686
0.0075140686
0.0075140686
0.0075140686
0.0075140686
0.0075140686
0.0075140686
0.0075140686
0.0075140686
0.0075140686
0.0075140686
0.0075140686
0.0075140686
0.0075140686
0.0075140686
0.0075140686
0.0075140686
0.0075140686
0.0075140686
0.0075140686
0.0075140686
0.0075140686
0.0075140686
0.0075140686
0.0075140686
0.0075140686
0.0075140686
0.0075140686
0.0075140686
0.0075140686
0.0075140686
0.0075140686
0.0075140686
0.0075140686
0.0075140686
0.0075140686
0.0075140686
0.0075140686
0.0075140686
0.0075140686
0.0075140686
0.0075140686
0.0075140686
0.0075140686
0.0075140686
0.0075140686
0.0075140686
0.0075140686
0.0075140686
0.0075140686
0.0075140686
0.0075140686
0.0075140686
0.0075140686
0.0075140686
0.0075140686
0.0075140686
0.0075140686
0.0075140686
0.0075140686
0.0075140686
0.0075140686
0.0075140686
0.0075140686
0.0075140686
0.0075140686
0.0075140686
0.0075140686
0.0075140686
0.0075140686
0.0075140686
0.0075140686
0.0075140686
0.0075140686
0.0075140686
0.0075140686
0.0075140686
0.0075140686
0.0075140686
)
;
        value           nonuniform List<scalar> 
130
(
929.6343
929.60706
929.56132
929.50131
929.40815
929.27802
929.08329
928.83232
928.49516
928.14736
927.87228
927.63218
927.40612
929.53891
929.52585
929.49163
929.43129
929.33543
929.18898
928.98622
928.72103
928.39507
928.0546
927.70565
927.4127
927.18183
929.42254
929.40846
929.36666
929.29126
929.17883
928.97539
928.75855
928.50332
928.16644
927.81228
927.46683
927.10474
926.70369
929.2676
929.25014
929.19891
929.09792
928.95246
928.76403
928.53262
928.25475
927.91558
927.53244
927.11711
926.52438
926.15721
929.10666
929.08454
929.02766
928.91664
928.75728
928.54698
928.28158
927.96699
927.58014
927.02909
926.57493
926.23166
925.97604
928.96158
928.93106
928.85851
928.73775
928.56186
928.32316
927.98686
927.56515
927.12288
926.71581
926.34236
926.01852
925.74132
928.85609
928.814
928.7313
928.59719
928.39903
928.10688
927.70573
927.33971
926.97927
926.6097
926.26548
925.95595
925.74097
928.75532
928.71203
928.62577
928.48451
928.275
927.92674
927.56142
927.23429
926.89363
926.55128
926.2188
925.88156
925.65413
928.6752
928.63726
928.55373
928.41981
928.21553
927.92377
927.53896
927.20262
926.88576
926.57634
926.2931
925.99427
925.72095
928.62987
928.5986
928.5266
928.40194
928.1941
927.90883
927.58359
927.2512
926.91874
926.58379
926.29686
926.03244
925.82442
)
;
        Tnbr            T;
        thicknessLayers List<scalar> 0();
        kappaLayers     List<scalar> 0();
        kappaMethod     solidThermo;
        kappa           none;
        alphaAni        none;
        alpha           none;
        field           T;
    }
    leftSolid_to_heater
    {
        type            compressible::turbulentTemperatureCoupledBaffleMixed;
        refValue        nonuniform List<scalar> 10(729.94068 720.52005 700.75436 668.83088 622.4335 622.57651 669.33244 701.20179 720.79264 730.133);
        refGradient     uniform 0;
        valueFraction   nonuniform List<scalar> 10(2.08329e-05 2.08329e-05 2.08329e-05 2.08329e-05 2.08329e-05 2.08329e-05 2.08329e-05 2.08329e-05 2.08329e-05 2.08329e-05);
        value           nonuniform List<scalar> 10(927.23265 927.02645 926.64503 926.20147 925.94106 925.72829 925.66446 925.60673 925.65288 925.72282);
        Tnbr            T;
        thicknessLayers List<scalar> 1(0.001);
        kappaLayers     List<scalar> 1(0.0005);
        kappaMethod     solidThermo;
        kappa           none;
        alphaAni        none;
        alpha           none;
        field           T;
    }
    leftSolid_to_topAir
    {
        type            compressible::turbulentTemperatureCoupledBaffleMixed;
        refValue        nonuniform List<scalar> 
130
(
325.57646
349.22126
370.62189
390.3988
409.06608
426.92507
444.07078
460.33497
475.41811
489.27102
501.75262
512.60218
521.24782
325.56676
348.95341
369.8518
388.88163
406.51886
423.00444
438.3913
452.60109
465.40158
476.41513
485.107
490.83669
492.76424
325.55874
348.98329
369.93844
389.04177
406.77692
423.39935
439.01853
453.6522
467.20963
479.46564
489.99836
498.09293
502.46682
325.55239
348.98644
369.97453
389.14086
406.98861
423.80914
439.76216
454.93113
469.33669
482.89504
495.32167
505.92855
513.37629
325.54513
348.97729
369.96942
389.14486
407.00755
423.85027
439.83307
455.03836
469.46747
482.98519
495.17132
505.0869
511.4669
325.53925
348.9657
369.95203
389.12122
406.97664
423.81046
439.78302
454.97552
469.39121
482.89884
495.08019
504.99825
511.40453
325.53553
348.9535
369.92581
389.07577
406.90546
423.70489
439.63219
454.77226
469.14803
482.67747
495.07527
505.64922
513.07621
325.53182
348.93075
369.8606
388.93708
406.64184
423.22819
438.80453
453.39061
466.89703
479.10165
489.58514
497.6326
501.97149
325.5323
348.88673
369.75404
388.75175
406.35383
422.79968
438.14127
452.30321
465.05863
476.03409
484.70396
490.43282
492.37491
325.5372
349.14512
370.51006
390.2498
408.8758
426.6878
443.78249
459.99819
475.03508
488.84738
501.29812
512.13156
520.78219
)
;
        refGradient     uniform 0;
        valueFraction   nonuniform List<scalar> 
130
(
0.00032132529
0.00032132529
0.00032132529
0.00032132529
0.00032132529
0.00032132529
0.00032132529
0.00032132529
0.00032132529
0.00032132529
0.00032132529
0.00032132529
0.00032132529
0.00032132529
0.00032132529
0.00032132529
0.00032132529
0.00032132529
0.00032132529
0.00032132529
0.00032132529
0.00032132529
0.00032132529
0.00032132529
0.00032132529
0.00032132529
0.00032132529
0.00032132529
0.00032132529
0.00032132529
0.00032132529
0.00032132529
0.00032132529
0.00032132529
0.00032132529
0.00032132529
0.00032132529
0.00032132529
0.00032132529
0.00032132529
0.00032132529
0.00032132529
0.00032132529
0.00032132529
0.00032132529
0.00032132529
0.00032132529
0.00032132529
0.00032132529
0.00032132529
0.00032132529
0.00032132529
0.00032132529
0.00032132529
0.00032132529
0.00032132529
0.00032132529
0.00032132529
0.00032132529
0.00032132529
0.00032132529
0.00032132529
0.00032132529
0.00032132529
0.00032132529
0.00032132529
0.00032132529
0.00032132529
0.00032132529
0.00032132529
0.00032132529
0.00032132529
0.00032132529
0.00032132529
0.00032132529
0.00032132529
0.00032132529
0.00032132529
0.00032132529
0.00032132529
0.00032132529
0.00032132529
0.00032132529
0.00032132529
0.00032132529
0.00032132529
0.00032132529
0.00032132529
0.00032132529
0.00032132529
0.00032132529
0.00032132529
0.00032132529
0.00032132529
0.00032132529
0.00032132529
0.00032132529
0.00032132529
0.00032132529
0.00032132529
0.00032132529
0.00032132529
0.00032132529
0.00032132529
0.00032132529
0.00032132529
0.00032132529
0.00032132529
0.00032132529
0.00032132529
0.00032132529
0.00032132529
0.00032132529
0.00032132529
0.00032132529
0.00032132529
0.00032132529
0.00032132529
0.00032132529
0.00032132529
0.00032132529
0.00032132529
0.00032132529
0.00032132529
0.00032132529
0.00032132529
0.00032132529
0.00032132529
0.00032132529
0.00032132529
)
;
        value           nonuniform List<scalar> 
130
(
929.14382
929.13193
929.09836
929.04137
928.95096
928.81941
928.63436
928.39462
928.09867
927.78567
927.50629
927.27233
927.1063
929.06521
929.05859
929.02901
928.97024
928.87382
928.73046
928.53604
928.28763
927.98969
927.66938
927.35235
927.07774
926.89122
928.94905
928.94097
928.90547
928.8347
928.72109
928.54991
928.34051
928.08657
927.77876
927.44287
927.10153
926.77098
926.51344
928.79849
928.78696
928.74278
928.65536
928.52207
928.34258
928.11708
927.84252
927.51437
927.14287
926.74772
926.33588
926.07417
928.63932
928.62359
928.57205
928.47308
928.32443
928.12351
927.86691
927.55485
927.18263
926.74595
926.3448
926.02094
925.8142
928.49268
928.47036
928.40733
928.29574
928.12806
927.89686
927.59275
927.22659
926.83437
926.44915
926.09593
925.80091
925.60148
928.37627
928.34705
928.27415
928.14825
927.95799
927.69059
927.35519
927.00735
926.6572
926.30974
925.98617
925.71084
925.53723
928.27694
928.24591
928.16893
928.03585
927.83372
927.54572
927.21871
926.89359
926.56665
926.24267
925.93251
925.6529
925.47527
928.20311
928.17457
928.10018
927.97136
927.77562
927.50685
927.18254
926.86181
926.55025
926.24797
925.96442
925.7039
925.51793
928.16331
928.1388
928.071
927.94845
927.75683
927.49892
927.19769
926.88435
926.57196
926.26652
925.9908
925.75387
925.59677
)
;
        Tnbr            T;
        thicknessLayers List<scalar> 0();
        kappaLayers     List<scalar> 0();
        kappaMethod     solidThermo;
        kappa           none;
        alphaAni        none;
        alpha           none;
        field           T;
    }
}


// ************************************************************************* //
