/*--------------------------------*- C++ -*----------------------------------*\
| =========                 |                                                 |
| \\      /  F ield         | OpenFOAM: The Open Source CFD Toolbox           |
|  \\    /   O peration     | Version:  v2012                                 |
|   \\  /    A nd           | Website:  www.openfoam.com                      |
|    \\/     M anipulation  |                                                 |
\*---------------------------------------------------------------------------*/
FoamFile
{
    version     2.0;
    format      ascii;
    class       surfaceScalarField;
    location    "120/topAir";
    object      phi;
}
// * * * * * * * * * * * * * * * * * * * * * * * * * * * * * * * * * * * * * //

dimensions      [1 0 -1 0 0 0 0];
oriented        oriented;


internalField   nonuniform List<scalar> 
3140
(
9.3900957e-06
-1.9692522e-07
7.5943584e-08
9.4964618e-06
-1.9666211e-07
9.0544755e-08
9.6132476e-06
-2.0194758e-07
8.5495219e-08
9.7139385e-06
-1.7367496e-07
7.3383681e-08
9.7901324e-06
-1.3195012e-07
5.62111e-08
9.846684e-06
-8.9225449e-08
3.3175799e-08
9.8899405e-06
-4.9318974e-08
6.6049181e-09
9.9469533e-06
-1.4917705e-08
-4.1519133e-08
1.0024093e-05
2.9155229e-08
-1.0569373e-07
1.0132352e-05
8.6884143e-08
-1.9452302e-07
1.0280956e-05
1.7062691e-07
-3.18595e-07
1.0464015e-05
3.0649045e-07
-4.8890332e-07
1.0655314e-05
5.2490578e-07
-7.1555553e-07
1.0835125e-05
8.274004e-07
-1.0065773e-06
1.0963665e-05
1.2249905e-06
-1.3529188e-06
1.1019173e-05
1.6784628e-06
-1.7333888e-06
1.1005277e-05
2.131491e-06
-2.1170474e-06
1.09468e-05
2.5313139e-06
-2.4723269e-06
1.0876975e-05
2.8467751e-06
-2.7764776e-06
1.0825244e-05
3.0706683e-06
-3.018507e-06
1.0810206e-05
3.2113561e-06
-3.1959302e-06
1.0837767e-05
3.2847487e-06
-3.3119708e-06
1.090412e-05
3.3071588e-06
-3.3732295e-06
1.09982e-05
3.2918346e-06
-3.3857015e-06
1.109702e-05
3.2517605e-06
-3.3504445e-06
1.1153264e-05
3.204532e-06
-3.2607234e-06
1.1071641e-05
3.1821069e-06
-3.1005113e-06
1.0660869e-05
3.2520741e-06
-2.8413769e-06
9.5318943e-06
3.5636176e-06
-2.4346886e-06
4.4907804e-06
-1.7987009e-06
9.1554379e-06
-1.6497174e-07
8.1578357e-08
9.1084019e-06
-2.5594596e-07
1.0632909e-07
9.0726046e-06
-2.8032042e-07
1.1418793e-07
9.0633338e-06
-2.835377e-07
1.1916139e-07
9.082194e-06
-2.7210006e-07
1.213289e-07
9.1244857e-06
-2.5105816e-07
1.1959257e-07
9.1893862e-06
-2.2764296e-07
1.1348847e-07
9.2810957e-06
-2.0842446e-07
1.0187658e-07
9.416166e-06
-1.8769953e-07
8.189574e-08
9.6108327e-06
-1.5594284e-07
4.8307296e-08
9.8784334e-06
-9.6093041e-08
-6.9875225e-10
1.0250959e-05
3.0430452e-08
-9.6243035e-08
1.0713277e-05
2.9630701e-07
-2.3344336e-07
1.120729e-05
7.6237295e-07
-4.2865139e-07
1.16641e-05
1.4525958e-06
-6.8403475e-07
1.2000089e-05
2.3248282e-06
-9.8195008e-07
1.2185594e-05
3.2331897e-06
-1.2868057e-06
1.2249553e-05
4.0342993e-06
-1.5665738e-06
1.2243401e-05
4.6615716e-06
-1.8083118e-06
1.2214743e-05
5.1092342e-06
-2.009611e-06
1.2195559e-05
5.3975889e-06
-2.1667742e-06
1.2197165e-05
5.5549388e-06
-2.2715417e-06
1.2217228e-05
5.6090475e-06
-2.3217339e-06
1.2245905e-05
5.5817893e-06
-2.3184816e-06
1.2259609e-05
5.4930764e-06
-2.2549739e-06
1.221045e-05
5.3643159e-06
-2.1107203e-06
1.2000216e-05
5.2401295e-06
-1.8480696e-06
1.144125e-05
5.2172352e-06
-1.4066941e-06
1.0240308e-05
5.4863214e-06
-7.2240204e-07
6.2723797e-06
2.2073889e-07
9.2059866e-06
-1.851351e-07
8.313476e-08
9.0811619e-06
-2.4041659e-07
1.0929531e-07
8.9334542e-06
-2.5175826e-07
1.1914584e-07
8.776219e-06
-2.5324886e-07
1.2694729e-07
8.6185586e-06
-2.4831119e-07
1.3387329e-07
8.4655319e-06
-2.3779967e-07
1.3977116e-07
8.3176369e-06
-2.252445e-07
1.4550073e-07
8.170716e-06
-2.1398034e-07
1.5248297e-07
8.0253723e-06
-2.0558981e-07
1.6324237e-07
7.8904694e-06
-2.0122311e-07
1.8019456e-07
7.7957089e-06
-2.051958e-07
2.0387775e-07
7.8152043e-06
-2.1856345e-07
2.2952095e-07
8.0508766e-06
-1.8349814e-07
2.4418384e-07
8.5309559e-06
4.4496788e-08
2.3792234e-07
9.2495637e-06
5.2543372e-07
2.0878355e-07
9.9645518e-06
1.4521495e-06
1.5802277e-07
1.0538213e-05
2.5340985e-06
1.2583314e-07
1.0969786e-05
3.4467996e-06
1.5635805e-07
1.1284648e-05
4.1049884e-06
2.421511e-07
1.1513848e-05
4.5322488e-06
3.4820982e-07
1.1684336e-05
4.772023e-06
4.5550933e-07
1.180949e-05
4.8631357e-06
5.6710747e-07
1.1890078e-05
4.835574e-06
6.9338852e-07
1.1922715e-05
4.7213498e-06
8.2836218e-07
1.1884472e-05
4.5486639e-06
9.8328155e-07
1.1747079e-05
4.3472332e-06
1.1551737e-06
1.1450586e-05
4.1538263e-06
1.3835688e-06
1.0897807e-05
4.0453262e-06
1.7255357e-06
9.8983231e-06
4.2162144e-06
2.2705201e-06
5.099747e-06
3.1563479e-06
9.002612e-06
8.1202557e-08
8.6559831e-06
1.0621204e-07
8.2893057e-06
1.149189e-07
7.9150208e-06
1.2103584e-07
7.540669e-06
1.2604047e-07
7.1728691e-06
1.3000014e-07
6.8135932e-06
1.3403157e-07
6.4596789e-06
1.3993426e-07
6.1038218e-06
1.5026801e-07
5.7337175e-06
1.6888214e-07
5.3266413e-06
2.0188212e-07
4.8481507e-06
2.5992977e-07
4.3033382e-06
3.6132038e-07
3.8185347e-06
5.2932712e-07
3.5525621e-06
7.9151328e-07
3.7922623e-06
1.212726e-06
4.5192729e-06
1.8074873e-06
5.4691812e-06
2.4973338e-06
6.4341528e-06
3.1404638e-06
7.3157662e-06
3.6510778e-06
8.0702135e-06
4.0180237e-06
8.6763725e-06
4.2574514e-06
9.1429752e-06
4.3694914e-06
9.4699959e-06
4.3949085e-06
9.6480191e-06
4.3712887e-06
9.6590865e-06
4.3368916e-06
9.485731e-06
4.3279938e-06
9.1547794e-06
4.3771875e-06
8.8829953e-06
4.489031e-06
4.5143738e-06
9.5061996e-06
-1.9578731e-07
3.4645263e-08
9.7361794e-06
-1.9630977e-07
5.7120181e-08
9.9674783e-06
-2.0977073e-07
6.4293293e-08
1.0173307e-05
-1.9581569e-07
6.376045e-08
1.0343323e-05
-1.7228925e-07
5.8927215e-08
1.0480492e-05
-1.5318236e-07
4.9673945e-08
1.0594329e-05
-1.4188354e-07
3.5172326e-08
1.0683738e-05
-1.4244131e-07
1.2059144e-08
1.0752799e-05
-1.5761654e-07
-1.6574516e-08
1.0803646e-05
-1.9225971e-07
-5.2536435e-08
1.0841137e-05
-2.523078e-07
-1.0319976e-07
1.0865155e-05
-3.3936272e-07
-1.7298217e-07
1.0874932e-05
-4.5726739e-07
-2.6749771e-07
1.0895862e-05
-6.3139748e-07
-3.9557745e-07
1.0934253e-05
-8.2902865e-07
-5.6178707e-07
1.1000156e-05
-1.030847e-06
-7.6798889e-07
1.1095882e-05
-1.1993447e-06
-1.0130035e-06
1.1213013e-05
-1.2991833e-06
-1.2898754e-06
1.1341832e-05
-1.32353e-06
-1.5813949e-06
1.1478666e-05
-1.2932074e-06
-1.8618022e-06
1.1621912e-05
-1.2357973e-06
-2.1030946e-06
1.1771012e-05
-1.1709399e-06
-2.2899156e-06
1.1928367e-05
-1.1085441e-06
-2.4219231e-06
1.2099458e-05
-1.0536128e-06
-2.5032003e-06
1.2286355e-05
-1.0034446e-06
-2.5341051e-06
1.247772e-05
-9.4232232e-07
-2.510215e-06
1.2630601e-05
-8.2738774e-07
-2.4267846e-06
1.2649118e-05
-5.8172469e-07
-2.2793205e-06
1.2381551e-05
-9.089243e-08
-2.0777848e-06
1.7582134e-06
-1.8201417e-06
9.283276e-06
-1.6604782e-07
3.7532546e-08
9.3855579e-06
-2.5906046e-07
6.6806782e-08
9.4960626e-06
-2.8743133e-07
8.1360955e-08
9.6293057e-06
-2.9842441e-07
8.8553453e-08
9.7857198e-06
-2.993596e-07
9.2022251e-08
9.9565067e-06
-2.9612375e-07
9.1795425e-08
1.0136764e-05
-2.9579321e-07
8.7200752e-08
1.0323641e-05
-3.0441225e-07
7.7042022e-08
1.0516639e-05
-3.2805344e-07
5.9418028e-08
1.0715186e-05
-3.7369907e-07
3.1291823e-08
1.0924777e-05
-4.5036033e-07
-1.213607e-08
1.1138345e-05
-5.6979699e-07
-7.927036e-08
1.1366087e-05
-7.4015915e-07
-1.7818563e-07
1.1597135e-05
-9.706391e-07
-3.2035284e-07
1.1852447e-05
-1.2491629e-06
-5.1911601e-07
1.2137494e-05
-1.5141318e-06
-7.836254e-07
1.243847e-05
-1.678404e-06
-1.1086415e-06
1.272946e-05
-1.6889732e-06
-1.467698e-06
1.2991622e-05
-1.5748341e-06
-1.8190962e-06
1.3218374e-05
-1.4077416e-06
-2.1217495e-06
1.3409459e-05
-1.2482257e-06
-2.3453301e-06
1.35678e-05
-1.1119212e-06
-2.4887671e-06
1.3692145e-05
-9.8057599e-07
-2.5738708e-06
1.379673e-05
-8.6574041e-07
-2.6107099e-06
1.3904736e-05
-7.7571129e-07
-2.5904235e-06
1.4072391e-05
-7.2698944e-07
-2.4933354e-06
1.442168e-05
-7.077208e-07
-2.3165349e-06
1.5199322e-05
-6.942701e-07
-2.0711555e-06
1.6828591e-05
-6.8401164e-07
-1.7578127e-06
-2.6741815e-07
-1.499291e-06
9.3353149e-06
-1.8741876e-07
3.8148758e-08
9.3609323e-06
-2.4371517e-07
6.8332601e-08
9.3645442e-06
-2.5639761e-07
8.4500429e-08
9.3601416e-06
-2.6108282e-07
9.4009125e-08
9.3553334e-06
-2.6132384e-07
1.0064735e-07
9.3521247e-06
-2.5805534e-07
1.0491409e-07
9.3499839e-06
-2.5503577e-07
1.0688789e-07
9.3474287e-06
-2.5610639e-07
1.0673762e-07
9.3430617e-06
-2.6501482e-07
1.045777e-07
9.3360712e-06
-2.8673441e-07
1.0022903e-07
9.3271353e-06
-3.2991685e-07
9.2380583e-08
9.3193867e-06
-4.0952554e-07
7.7010209e-08
9.3219785e-06
-5.4615076e-07
4.7597429e-08
9.3478538e-06
-7.5838645e-07
-1.9102344e-10
9.4549786e-06
-1.0369735e-06
-1.1051748e-07
9.6770843e-06
-1.3070745e-06
-2.7113021e-07
1.0005855e-05
-1.4043247e-06
-4.7701108e-07
1.0394197e-05
-1.2352318e-06
-6.8572278e-07
1.0795717e-05
-8.9350384e-07
-8.4066716e-07
1.1158034e-05
-5.1905613e-07
-9.0265126e-07
1.1396141e-05
-1.7620383e-07
-8.5427969e-07
1.1541739e-05
2.1509223e-08
-7.1146769e-07
1.1621216e-05
1.5474918e-07
-5.2085403e-07
1.1667324e-05
2.1889648e-07
-3.0174448e-07
1.1697034e-05
2.3086825e-07
-5.2306796e-08
1.172386e-05
1.9261358e-07
2.0957881e-07
1.1778051e-05
1.1549462e-07
5.0689807e-07
1.1888353e-05
2.2350925e-08
8.991274e-07
1.2135031e-05
-4.123401e-08
1.3813903e-06
-6.1434355e-08
1.9221896e-06
9.1256602e-06
3.7073275e-08
8.9221722e-06
6.598454e-08
8.6995445e-06
8.1148802e-08
8.4697241e-06
8.9773202e-08
8.238844e-06
9.5596555e-08
8.0115318e-06
9.9256901e-08
7.7894556e-06
1.010721e-07
7.5716187e-06
1.0166498e-07
7.3550059e-06
1.018665e-07
7.134302e-06
1.0285238e-07
6.8997666e-06
1.065019e-07
6.6341578e-06
1.1601466e-07
6.3124287e-06
1.3690142e-07
5.9066702e-06
1.7670536e-07
5.4108722e-06
2.5036362e-07
4.9116232e-06
4.0499789e-07
4.6037141e-06
7.1130261e-07
4.6540663e-06
1.2121016e-06
5.0316644e-06
1.8697593e-06
5.58007e-06
2.5840136e-06
6.1738833e-06
3.2484095e-06
6.6787973e-06
3.7745707e-06
7.0922732e-06
4.1113425e-06
7.4097154e-06
4.2969417e-06
7.6255639e-06
4.3868807e-06
7.7262003e-06
4.4294421e-06
7.709591e-06
4.4606588e-06
7.6082213e-06
4.5014168e-06
7.486001e-06
4.5703604e-06
4.7231318e-06
9.4820259e-06
-1.9681506e-07
1.8548579e-08
9.7031815e-06
-1.9613508e-07
3.2347081e-08
9.9350043e-06
-2.0681857e-07
3.9619031e-08
1.0145046e-05
-1.8834911e-07
4.24626e-08
1.0321543e-05
-1.5989987e-07
4.2776898e-08
1.0465783e-05
-1.3544772e-07
4.1373059e-08
1.0581457e-05
-1.1857419e-07
3.8599946e-08
1.0669616e-05
-1.1027339e-07
3.4731904e-08
1.0733741e-05
-1.1048789e-07
3.0372902e-08
1.0776517e-05
-1.2028395e-07
2.5578049e-08
1.0796284e-05
-1.4229596e-07
1.9953676e-08
1.0789056e-05
-1.7846471e-07
1.3348546e-08
1.0747195e-05
-2.3005455e-07
5.062721e-09
1.0694995e-05
-3.3836062e-07
-4.3907129e-09
1.063338e-05
-4.797463e-07
-1.9833009e-08
1.058037e-05
-6.7126903e-07
-4.31573e-08
1.0567575e-05
-9.1958553e-07
-8.0116378e-08
1.0624387e-05
-1.2068253e-06
-1.3940059e-07
1.0759622e-05
-1.4869997e-06
-2.2922885e-07
1.0959622e-05
-1.7155189e-06
-3.4596518e-07
1.1189019e-05
-1.8692268e-06
-4.6304845e-07
1.1415123e-05
-1.9602173e-06
-5.5570581e-07
1.1629459e-05
-2.0194508e-06
-6.168466e-07
1.1843234e-05
-2.0684711e-06
-6.4869131e-07
1.2069523e-05
-2.1069538e-06
-6.5378667e-07
1.2310182e-05
-2.1147708e-06
-6.3661029e-07
1.2552449e-05
-2.0558786e-06
-6.1383017e-07
1.2731036e-05
-1.8369597e-06
-6.2173059e-07
1.2568977e-05
-1.2005159e-06
-7.160895e-07
3.263761e-07
-1.0215907e-06
9.2554684e-06
-1.6561378e-07
1.9832473e-08
9.3472881e-06
-2.5788267e-07
3.6743854e-08
9.4589195e-06
-2.8440129e-07
4.7329538e-08
9.598527e-06
-2.9232517e-07
5.2948816e-08
9.7643641e-06
-2.8900867e-07
5.5331385e-08
9.9459272e-06
-2.8006275e-07
5.4896068e-08
1.013536e-05
-2.7207204e-07
5.1325991e-08
1.0327503e-05
-2.6933804e-07
4.4036637e-08
1.0519259e-05
-2.7494446e-07
3.2203438e-08
1.0708347e-05
-2.9233268e-07
1.4348519e-08
1.0892214e-05
-3.2663197e-07
-1.1558986e-08
1.106779e-05
-3.852513e-07
-4.7942586e-08
1.1237398e-05
-4.7783006e-07
-9.9894405e-08
1.1377575e-05
-6.2424024e-07
-1.7452274e-07
1.1497377e-05
-8.3751164e-07
-2.8102766e-07
1.1605259e-05
-1.1292321e-06
-4.3342591e-07
1.1719824e-05
-1.4933927e-06
-6.4929471e-07
1.1859127e-05
-1.8718883e-06
-9.4185312e-07
1.202226e-05
-2.1687466e-06
-1.3004368e-06
1.2185639e-05
-2.3383589e-06
-1.6622783e-06
1.2294231e-05
-2.3902798e-06
-1.9328555e-06
1.2311696e-05
-2.3777958e-06
-2.0885911e-06
1.2247989e-05
-2.3664519e-06
-2.1630191e-06
1.2142578e-05
-2.3868222e-06
-2.18669e-06
1.2044901e-05
-2.4272041e-06
-2.1720726e-06
1.2007098e-05
-2.4477658e-06
-2.1218628e-06
1.2137081e-05
-2.4508961e-06
-2.0504621e-06
1.2741823e-05
-2.4813158e-06
-2.0299336e-06
1.4612786e-05
-2.5440243e-06
-2.2829559e-06
-2.3534858e-06
-2.7351594e-06
9.3084106e-06
-1.8698784e-07
2.0070191e-08
9.3243981e-06
-2.4284449e-07
3.7306799e-08
9.3303111e-06
-2.5443692e-07
4.862337e-08
9.3343249e-06
-2.5765493e-07
5.5325913e-08
9.3428913e-06
-2.560097e-07
5.9083536e-08
9.3575929e-06
-2.5019058e-07
6.0343004e-08
9.3771168e-06
-2.4359653e-07
5.8892305e-08
9.3994548e-06
-2.3927296e-07
5.4339883e-08
9.4224051e-06
-2.3941568e-07
4.610541e-08
9.4434426e-06
-2.4636812e-07
3.3235787e-08
9.459088e-06
-2.6390782e-07
1.4021535e-08
9.4640958e-06
-2.9835397e-07
-1.4882267e-08
9.4519551e-06
-3.5969642e-07
-5.8381148e-08
9.4158163e-06
-4.6410069e-07
-1.2417609e-07
9.3336437e-06
-6.4101436e-07
-2.2482586e-07
9.2215977e-06
-9.115123e-07
-3.7678689e-07
9.1215703e-06
-1.2694739e-06
-6.0088178e-07
9.0804013e-06
-1.6119939e-06
-9.0441316e-07
9.1048648e-06
-1.7739315e-06
-1.2598745e-06
9.1492312e-06
-1.7177104e-06
-1.5674656e-06
9.0964989e-06
-1.5227286e-06
-1.6686973e-06
8.8751e-06
-1.2843006e-06
-1.5829539e-06
8.5430076e-06
-1.097934e-06
-1.4564818e-06
8.2105238e-06
-1.0142109e-06
-1.340898e-06
8.0053398e-06
-1.0451028e-06
-1.2280725e-06
8.0023747e-06
-1.1679899e-06
-1.0659998e-06
8.2144109e-06
-1.3701475e-06
-7.8447205e-07
8.757683e-06
-1.6394284e-06
-4.8415677e-07
1.0223761e-05
-2.0102846e-06
-6.1610875e-07
-2.5876053e-06
-1.3735025e-06
9.099452e-06
1.9583054e-08
8.8863553e-06
3.6236495e-08
8.6660478e-06
4.7019093e-08
8.4449088e-06
5.3257126e-08
8.2278585e-06
5.6636972e-08
8.0192144e-06
5.7710339e-08
7.8202656e-06
5.6424516e-08
7.6300382e-06
5.2619623e-08
7.4464296e-06
4.6059936e-08
7.2665365e-06
3.6378098e-08
7.0858675e-06
2.3264125e-08
6.8970794e-06
6.4504415e-09
6.6899694e-06
-1.5682964e-08
6.4451059e-06
-4.2528947e-08
6.1267306e-06
-7.227106e-08
5.7170436e-06
-9.6817683e-08
5.2441597e-06
-8.5262453e-08
4.8181284e-06
2.6210707e-08
4.6136914e-06
3.0038632e-07
4.7174365e-06
7.6273696e-07
4.9736512e-06
1.4697085e-06
5.1894875e-06
2.2748047e-06
5.3741698e-06
2.829191e-06
5.5621466e-06
3.0952407e-06
5.7437478e-06
3.1606185e-06
5.8936817e-06
3.1118742e-06
5.9845786e-06
2.9998477e-06
6.0366601e-06
2.8099705e-06
6.2210971e-06
2.3755254e-06
9.8699966e-07
9.4767294e-06
-1.9687938e-07
7.8128217e-09
9.6907112e-06
-1.9565338e-07
1.4266194e-08
9.9173481e-06
-2.0505059e-07
1.8362817e-08
1.0123872e-05
-1.8419235e-07
2.0525931e-08
1.0297828e-05
-1.521612e-07
2.1430108e-08
1.0440325e-05
-1.2215797e-07
2.152656e-08
1.0555216e-05
-9.6815751e-08
2.1055397e-08
1.0645983e-05
-7.5662441e-08
2.0190028e-08
1.0715531e-05
-5.769849e-08
1.9113412e-08
1.0765636e-05
-4.2032667e-08
1.8119955e-08
1.0796356e-05
-2.7815711e-08
1.7685738e-08
1.0805705e-05
-1.4240205e-08
1.8894586e-08
1.0784482e-05
3.0317022e-09
2.3931058e-08
1.0757698e-05
-5.0508609e-09
2.8112504e-08
1.0723769e-05
-1.5929327e-08
3.0684114e-08
1.0685302e-05
-3.8133783e-08
3.4085025e-08
1.0652068e-05
-8.5972886e-08
3.9689318e-08
1.0644755e-05
-1.789884e-07
4.7405819e-08
1.0700761e-05
-3.4153893e-07
5.661979e-08
1.0858002e-05
-5.7468695e-07
7.1594764e-08
1.107752e-05
-7.9080361e-07
1.0820606e-07
1.1312688e-05
-9.4893871e-07
1.5788133e-07
1.1545022e-05
-1.0663845e-06
2.1679021e-07
1.1769328e-05
-1.1625017e-06
2.8874502e-07
1.1970073e-05
-1.2399724e-06
3.842545e-07
1.2112481e-05
-1.2843469e-06
5.0368114e-07
1.2142002e-05
-1.251983e-06
6.0656249e-07
1.1910723e-05
-9.9192012e-07
5.9903723e-07
1.1028252e-05
-1.6105756e-07
3.2402321e-07
2.6139666e-06
-3.2190209e-07
9.2490304e-06
-1.6536774e-07
8.2600958e-09
9.3313081e-06
-2.5723946e-07
1.6061331e-08
9.4348522e-06
-2.828535e-07
2.1605671e-08
9.5677899e-06
-2.8904648e-07
2.4892159e-08
9.7274393e-06
-2.8285691e-07
2.6415382e-08
9.9029924e-06
-2.6920734e-07
2.6441421e-08
1.0086426e-05
-2.5378229e-07
2.4920792e-08
1.0272739e-05
-2.3950822e-07
2.1642716e-08
1.0458663e-05
-2.2762121e-07
1.6288972e-08
1.0641682e-05
-2.1900092e-07
8.3977777e-09
1.0820046e-05
-2.1476417e-07
-2.860763e-09
1.099265e-05
-2.1672105e-07
-1.7940083e-08
1.1159942e-05
-2.2590709e-07
-3.8106817e-08
1.130164e-05
-2.5724982e-07
-6.3868807e-08
1.1424535e-05
-3.1912045e-07
-1.0057492e-07
1.1528569e-05
-4.2118192e-07
-1.5426534e-07
1.1615484e-05
-5.8874946e-07
-2.3332207e-07
1.1700048e-05
-8.5652825e-07
-3.4886004e-07
1.1819239e-05
-1.2532489e-06
-5.080589e-07
1.1997056e-05
-1.7285106e-06
-6.8647423e-07
1.2102206e-05
-2.0098846e-06
-8.1905764e-07
1.2088257e-05
-2.0947688e-06
-9.2882074e-07
1.1972935e-05
-2.08315e-06
-1.0308027e-06
1.1781916e-05
-2.0545577e-06
-1.1033382e-06
1.1524193e-05
-2.0409534e-06
-1.112853e-06
1.1210177e-05
-2.0457046e-06
-1.0454338e-06
1.0948788e-05
-2.0646918e-06
-9.7448478e-07
1.1038616e-05
-2.0495287e-06
-1.0588933e-06
1.1536449e-05
-1.3514341e-06
-1.5853679e-06
1.2114229e-06
-2.4002208e-06
9.3022924e-06
-1.869485e-07
8.3165983e-09
9.3089723e-06
-2.4280855e-07
1.6195864e-08
9.3068575e-06
-2.5408235e-07
2.1967217e-08
9.3040871e-06
-2.5654913e-07
2.5599915e-08
9.3064118e-06
-2.5362605e-07
2.7529555e-08
9.3153173e-06
-2.4573008e-07
2.7962936e-08
9.3294615e-06
-2.358359e-07
2.6805568e-08
9.3468509e-06
-2.2635746e-07
2.3805143e-08
9.3652815e-06
-2.1851392e-07
1.857469e-08
9.3821844e-06
-2.1317937e-07
1.0520399e-08
9.3941813e-06
-2.1166522e-07
-1.0630681e-09
9.3981406e-06
-2.1634906e-07
-1.9199856e-08
9.391022e-06
-2.3084255e-07
-4.6310851e-08
9.3586825e-06
-2.6392421e-07
-8.5143337e-08
9.2839606e-06
-3.2864637e-07
-1.4055755e-07
9.1493918e-06
-4.4254361e-07
-2.2083635e-07
8.9374389e-06
-6.3997219e-07
-3.3769166e-07
8.6589385e-06
-9.756515e-07
-5.067939e-07
8.3813905e-06
-1.4989359e-06
-7.3665447e-07
8.1656127e-06
-2.1266447e-06
-9.5312821e-07
7.7466149e-06
-2.2971078e-06
-9.6166152e-07
7.1604219e-06
-2.1456519e-06
-9.4484503e-07
6.4845128e-06
-1.8809749e-06
-9.8161912e-07
5.7977098e-06
-1.7133645e-06
-9.9411426e-07
5.1539105e-06
-1.6925279e-06
-9.3138193e-07
4.5834272e-06
-1.7977114e-06
-7.4174481e-07
4.1797867e-06
-2.0207197e-06
-4.2262986e-07
4.3458e-06
-2.3476459e-06
-3.4985817e-07
6.005593e-06
-2.3975289e-06
-1.2250049e-06
-2.2791057e-07
-2.9397143e-06
9.0934909e-06
8.0932649e-09
8.871265e-06
1.5653606e-08
8.643105e-06
2.1096503e-08
8.4154127e-06
2.4400062e-08
8.1924204e-06
2.6003036e-08
7.9782587e-06
2.614189e-08
7.7740816e-06
2.4765791e-08
7.5786671e-06
2.1676873e-08
7.3896389e-06
1.6574711e-08
7.2037678e-06
9.0706081e-09
7.0163014e-06
-9.3347108e-10
6.8237117e-06
-1.7307236e-08
6.6166022e-06
-3.9413632e-08
6.3802379e-06
-7.008587e-08
6.0908562e-06
-1.1153169e-07
5.7182586e-06
-1.6675839e-07
5.235102e-06
-2.420716e-07
4.6411679e-06
-3.5552988e-07
3.9721721e-06
-5.2957166e-07
3.3634929e-06
-7.5392363e-07
2.9905262e-06
-4.5264135e-07
2.7065996e-06
4.1466768e-07
2.6205684e-06
1.0356733e-06
2.6742682e-06
1.3293673e-06
2.7713557e-06
1.3719455e-06
2.8171521e-06
1.2690673e-06
2.7330061e-06
1.0636961e-06
2.5963901e-06
5.9898384e-07
2.9671495e-06
-3.9035651e-07
-2.7610553e-06
9.4740182e-06
-1.970906e-07
-4.0932598e-13
9.6844017e-06
-1.9587422e-07
4.6071184e-12
9.9082065e-06
-2.0512709e-07
1.5360296e-11
1.0112975e-05
-1.8387701e-07
3.01991e-11
1.0285971e-05
-1.5116509e-07
4.7147961e-11
1.042812e-05
-1.2019135e-07
6.3793818e-11
1.0543201e-05
-9.3570288e-08
7.6863617e-11
1.0634675e-05
-7.0802926e-08
8.3925899e-11
1.0705182e-05
-5.0884527e-08
8.4014582e-11
1.0756753e-05
-3.2906898e-08
7.3977159e-11
1.0791362e-05
-1.6331414e-08
4.9076643e-11
1.0810561e-05
3.4333516e-10
1.2396748e-11
1.0796139e-05
3.9109562e-08
-7.722815e-11
1.0784667e-05
4.0530033e-08
-2.7322904e-10
1.0767498e-05
4.9128373e-08
-6.0983861e-10
1.0743217e-05
6.0189636e-08
-1.1635125e-09
1.0720696e-05
6.4833912e-08
-1.968265e-09
1.0729288e-05
4.2171603e-08
-2.7197602e-09
1.0829967e-05
-4.2645408e-08
-1.1417567e-09
1.1060723e-05
-1.6227119e-07
3.3361168e-09
1.1329771e-05
-1.6951013e-07
9.2908486e-09
1.1590181e-05
-1.1575607e-07
1.4306229e-08
1.1867129e-05
-7.7610398e-08
1.8828312e-08
1.2180231e-05
-4.7878679e-08
2.4834803e-08
1.2498354e-05
3.4007496e-08
3.4136423e-08
1.2663876e-05
2.9769921e-07
4.2966051e-08
1.2442553e-05
7.8043918e-07
5.0345048e-08
1.1417005e-05
1.5748419e-06
5.3067147e-08
8.8074153e-06
2.8920794e-06
4.5020038e-08
5.3677066e-06
2.8874067e-08
9.2454836e-06
-1.6534182e-07
-2.6527959e-12
9.3228475e-06
-2.5716774e-07
6.4765111e-14
9.421897e-06
-2.8256182e-07
8.3609437e-12
9.551193e-06
-2.8827277e-07
1.8883949e-11
9.7077452e-06
-2.8129287e-07
2.8755998e-11
9.8804257e-06
-2.6641591e-07
3.4881299e-11
1.0060991e-05
-2.4918807e-07
3.5180854e-11
1.0244231e-05
-2.3235388e-07
2.814202e-11
1.0426622e-05
-2.1691203e-07
1.3579171e-11
1.0605687e-05
-2.0346453e-07
-8.3454984e-12
1.0779643e-05
-1.9297353e-07
-5.9987098e-11
1.0948696e-05
-1.8637103e-07
-1.4751874e-10
1.1118934e-05
-1.687866e-07
-2.9694223e-10
1.1258989e-05
-1.6268359e-07
-5.4945292e-10
1.1380623e-05
-1.7197888e-07
-9.5281982e-10
1.148562e-05
-1.9747453e-07
-1.5126517e-09
1.1581225e-05
-2.6221565e-07
-1.9984933e-09
1.1694531e-05
-4.1946354e-07
-1.2887452e-09
1.1896976e-05
-7.5703903e-07
2.9556633e-09
1.2254327e-05
-1.2210395e-06
1.4389777e-08
1.2450012e-05
-1.2068982e-06
2.25604e-08
1.2506291e-05
-1.1249168e-06
2.4272037e-08
1.2494747e-05
-1.1198583e-06
2.3328333e-08
1.2469519e-05
-1.1483176e-06
2.2689279e-08
1.2501413e-05
-1.1345412e-06
2.296583e-08
1.2589931e-05
-8.6428433e-07
2.634164e-08
1.2535546e-05
-1.7005106e-07
2.7543289e-08
1.1635517e-05
1.3802834e-06
2.9357046e-08
9.2877176e-06
3.6280736e-06
1.5243013e-08
6.6063954e-06
-1.0113492e-08
9.2988435e-06
-1.8690794e-07
-2.8364853e-12
9.3006222e-06
-2.4275058e-07
-7.8197263e-16
9.2938843e-06
-2.5386518e-07
8.6432903e-12
9.287193e-06
-2.5600028e-07
1.9607546e-11
9.2859714e-06
-2.5256921e-07
2.918457e-11
9.2914137e-06
-2.4392578e-07
3.3237245e-11
9.3019559e-06
-2.3295002e-07
2.9162377e-11
9.3153274e-06
-2.2193077e-07
1.5951209e-11
9.3289071e-06
-2.11904e-07
-5.8626946e-12
9.3394623e-06
-2.0343155e-07
-5.8529362e-11
9.3427411e-06
-1.9715738e-07
-1.4655093e-10
9.3311323e-06
-1.9365321e-07
-2.9459913e-10
9.3094561e-06
-1.9285055e-07
-5.537479e-10
9.2611548e-06
-1.9850923e-07
-9.9663703e-10
9.1701728e-06
-2.1980023e-07
-1.7332163e-09
9.0203739e-06
-2.656064e-07
-2.887788e-09
8.7876622e-06
-3.627852e-07
-4.4096435e-09
8.4484667e-06
-5.8198069e-07
-5.133114e-09
8.0599049e-06
-1.1041776e-06
-9.7237087e-10
7.8865568e-06
-2.0167765e-06
1.8008212e-08
6.9341226e-06
-1.2396231e-06
2.5137522e-08
5.8772839e-06
-1.0302053e-06
1.8439034e-08
4.7972371e-06
-1.0336361e-06
1.2855354e-08
3.7840769e-06
-1.1458401e-06
1.6884995e-08
2.9968786e-06
-1.3071305e-06
2.8679831e-08
2.7657382e-06
-1.4191819e-06
4.5146112e-08
3.4350269e-06
-1.3198769e-06
6.0808797e-08
4.4640608e-06
-5.1690164e-08
5.2246505e-08
4.7860815e-06
2.0529403e-06
2.4598956e-08
5.2387418e-06
-9.1666883e-09
9.0901379e-06
-2.9294639e-12
8.8630409e-06
-2.5456521e-13
8.6302636e-06
8.3140966e-12
8.398644e-06
1.914705e-11
8.1720494e-06
2.8348016e-11
7.9542341e-06
3.1293103e-11
7.7460246e-06
2.5385327e-11
7.5457608e-06
1.0170552e-11
7.3504504e-06
-1.8396861e-11
7.1561746e-06
-8.4332915e-11
6.9582825e-06
-1.9752047e-10
6.7477195e-06
-3.9570573e-10
6.5162229e-06
-7.6515772e-10
6.2490905e-06
-1.4594739e-09
5.9205256e-06
-2.7627048e-09
5.4933937e-06
-5.2271605e-09
4.8984754e-06
-9.9297445e-09
3.9798532e-06
-1.8846084e-08
2.3810262e-06
-3.4236338e-08
-3.4898965e-07
-2.9972521e-08
-2.010331e-06
-2.4306179e-08
-2.6060455e-06
-1.6370053e-08
-2.6246321e-06
2.2873055e-08
-2.5061923e-06
6.6513889e-08
-2.5493057e-06
1.0836356e-07
-2.8310809e-06
1.3117639e-07
-3.2242309e-06
1.3739598e-07
-2.8023104e-06
1.3373433e-07
-1.2571177e-06
1.4433249e-07
6.0993009e-08
9.4740188e-06
-1.9708952e-07
-7.815276e-09
9.6844036e-06
-1.9586943e-07
-1.4262911e-08
9.9082101e-06
-2.0511582e-07
-1.8344779e-08
1.0112979e-05
-1.8385674e-07
-2.0486256e-08
1.0285976e-05
-1.5113598e-07
-2.1364503e-08
1.0428122e-05
-1.2015188e-07
-2.1435709e-08
1.0543199e-05
-9.3521219e-08
-2.0945126e-08
1.063466e-05
-7.0743085e-08
-2.0067747e-08
1.0705133e-05
-5.0809553e-08
-1.898438e-08
1.0756636e-05
-3.2821117e-08
-1.7988711e-08
1.0791132e-05
-1.6249688e-08
-1.7555372e-08
1.0810122e-05
4.508146e-10
-1.8765941e-08
1.0795265e-05
3.92386e-08
-2.3779016e-08
1.0783019e-05
4.0616092e-08
-2.7970601e-08
1.0764619e-05
4.9002581e-08
-3.0545364e-08
1.0738768e-05
5.9234763e-08
-3.3884542e-08
1.071575e-05
6.0986356e-08
-3.9279788e-08
1.0733314e-05
2.6910295e-08
-4.6554968e-08
1.084703e-05
-5.889423e-08
-5.5732475e-08
1.1085627e-05
-1.6311286e-07
-7.1996769e-08
1.135347e-05
-1.4953572e-07
-1.0856255e-07
1.1613219e-05
-8.893321e-08
-1.5567917e-07
1.1895553e-05
-5.1499065e-08
-2.1090644e-07
1.2215752e-05
-1.5745215e-08
-2.785551e-07
1.2531951e-05
8.6762506e-08
-3.6683504e-07
1.2693689e-05
3.5884578e-07
-4.7493178e-07
1.245797e-05
8.5462929e-07
-5.6530859e-07
1.1399114e-05
1.665524e-06
-5.497678e-07
8.7448287e-06
2.98478e-06
-2.8136396e-07
5.4379561e-06
3.6319717e-07
9.2454813e-06
-1.6534122e-07
-8.2626545e-09
9.3228425e-06
-2.5716571e-07
-1.6055655e-08
9.42189e-06
-2.8255681e-07
-2.1580728e-08
9.5511857e-06
-2.8826335e-07
-2.4843157e-08
9.7077373e-06
-2.8127783e-07
-2.6343062e-08
9.8804143e-06
-2.6639439e-07
-2.6350126e-08
1.0060967e-05
-2.4916039e-07
-2.4816107e-08
1.0244177e-05
-2.3232132e-07
-2.152938e-08
1.0426513e-05
-2.1687548e-07
-1.6168173e-08
1.0605476e-05
-2.0342484e-07
-8.2656627e-09
1.0779255e-05
-1.9294705e-07
2.9733031e-09
1.0947958e-05
-1.8635386e-07
1.80885e-08
1.1117581e-05
-1.6882355e-07
3.8303077e-08
1.1256606e-05
-1.6293326e-07
6.4148479e-08
1.1376696e-05
-1.7291245e-07
1.0103956e-07
1.1479963e-05
-2.0050272e-07
1.5507699e-07
1.157568e-05
-2.7145961e-07
2.3465311e-07
1.1695945e-05
-4.4603997e-07
3.5058355e-07
1.1929814e-05
-7.9956123e-07
5.0873556e-07
1.2293076e-05
-1.1947987e-06
6.8215681e-07
1.2493749e-05
-1.1448489e-06
8.1695539e-07
1.2561651e-05
-1.06634e-06
9.3381029e-07
1.2561261e-05
-1.071494e-06
1.0438791e-06
1.2555037e-05
-1.1134534e-06
1.1268147e-06
1.2609069e-05
-1.0931249e-06
1.1476969e-06
1.2710737e-05
-8.1561966e-07
1.0979211e-06
1.2653486e-05
-1.146501e-07
1.0523554e-06
1.1671387e-05
1.5185108e-06
1.1542692e-06
9.2153762e-06
3.7766108e-06
1.6711093e-06
6.7655483e-06
2.4350577e-06
9.2988419e-06
-1.8690768e-07
-8.3203141e-09
9.3006183e-06
-2.4274985e-07
-1.619229e-08
9.2938783e-06
-2.5386348e-07
-2.19445e-08
9.2871847e-06
-2.5599704e-07
-2.5552155e-08
9.2859591e-06
-2.5256407e-07
-2.7457402e-08
9.2913917e-06
-2.4391876e-07
-2.7872328e-08
9.3019107e-06
-2.329418e-07
-2.6704495e-08
9.3152345e-06
-2.2192297e-07
-2.3700649e-08
9.3287305e-06
-2.1189828e-07
-1.8471975e-08
9.3391182e-06
-2.0343364e-07
-1.0428085e-08
9.3420887e-06
-1.9718074e-07
1.1281374e-09
9.3298785e-06
-1.9372121e-07
1.9297167e-08
9.3071039e-06
-1.9303246e-07
4.6447129e-08
9.2568072e-06
-1.9899991e-07
8.5386974e-08
9.1622687e-06
-2.2114243e-07
1.4105702e-07
9.0064531e-06
-2.6938325e-07
2.2182739e-07
8.7649651e-06
-3.7385149e-07
3.3947152e-07
8.4212157e-06
-6.1584319e-07
5.0836425e-07
8.078048e-06
-1.1888135e-06
7.3144283e-07
7.8874611e-06
-1.915269e-06
9.3094081e-07
6.9394237e-06
-1.118899e-06
9.4871694e-07
5.9053373e-06
-9.606806e-07
9.4786296e-07
4.8299395e-06
-9.8313464e-07
1.0002992e-06
3.8139479e-06
-1.1133834e-06
1.0326664e-06
3.0398115e-06
-1.2937911e-06
1.0031141e-06
2.8296511e-06
-1.4294797e-06
8.6940343e-07
3.5703417e-06
-1.3656667e-06
5.7364275e-07
4.6748689e-06
-5.4734212e-08
5.2110019e-07
4.9349397e-06
2.1742714e-06
1.366679e-06
5.381938e-06
2.9799959e-06
9.0901367e-06
-8.0976362e-09
8.8630379e-06
-1.5651664e-08
8.630259e-06
-2.1076529e-08
8.3986372e-06
-2.435624e-08
8.1720378e-06
-2.5936444e-08
7.9542095e-06
-2.6059258e-08
7.745969e-06
-2.4675849e-08
7.5456437e-06
-2.1587284e-08
7.3502208e-06
-1.6493253e-08
7.1557157e-06
-9.0120924e-09
6.9573957e-06
9.4292709e-10
6.7459486e-06
1.7331977e-08
6.5126938e-06
3.9459574e-08
6.2420343e-06
7.0203372e-08
5.9062536e-06
1.1187994e-07
5.4639766e-06
1.6767231e-07
4.8358333e-06
2.4437126e-07
3.8393543e-06
3.6184028e-07
2.0738167e-06
5.4325167e-07
-6.3091305e-07
7.6956807e-07
-2.1945504e-06
4.253811e-07
-2.751442e-06
-4.1763433e-07
-2.721778e-06
-9.8889696e-07
-2.5368047e-06
-1.2318858e-06
-2.4804056e-06
-1.2428226e-06
-2.6463005e-06
-1.1339374e-06
-2.9365259e-06
-9.3823483e-07
-2.3359365e-06
-5.157046e-07
-3.6961649e-07
3.5313434e-07
2.482086e-06
9.4767308e-06
-1.9688164e-07
-1.8550117e-08
9.690716e-06
-1.9565644e-07
-3.2343879e-08
9.9173573e-06
-2.0504978e-07
-3.9605851e-08
1.0123882e-05
-1.8418065e-07
-4.2434731e-08
1.0297834e-05
-1.521365e-07
-4.2730803e-08
1.0440324e-05
-1.2211888e-07
-4.1312551e-08
1.0555212e-05
-9.6761828e-08
-3.8538173e-08
1.0645981e-05
-7.5589034e-08
-3.4682289e-08
1.0715534e-05
-5.7597017e-08
-3.0346191e-08
1.0765637e-05
-4.1911453e-08
-2.5562087e-08
1.0796351e-05
-2.7687631e-08
-1.9942039e-08
1.08057e-05
-1.4131257e-08
-1.3324564e-08
1.0784471e-05
3.1678591e-09
-5.0391098e-09
1.0757704e-05
-4.9802067e-09
4.4480322e-09
1.0723858e-05
-1.6011776e-08
1.9971568e-08
1.0685701e-05
-3.8567791e-08
4.3484175e-08
1.0653457e-05
-8.7263099e-08
8.0830494e-08
1.064903e-05
-1.8234445e-07
1.4071854e-07
1.0711165e-05
-3.4840706e-07
2.308163e-07
1.0872481e-05
-5.7953337e-07
3.462385e-07
1.1093598e-05
-7.9057977e-07
4.6071855e-07
1.1331751e-05
-9.4510413e-07
5.5092347e-07
1.1570717e-05
-1.060734e-06
6.1031485e-07
1.1806197e-05
-1.1555076e-06
6.4063638e-07
1.2021539e-05
-1.2268054e-06
6.4344805e-07
1.2177527e-05
-1.2553357e-06
6.2286007e-07
1.2206614e-05
-1.1924962e-06