/*--------------------------------*- C++ -*----------------------------------*\
| =========                 |                                                 |
| \\      /  F ield         | OpenFOAM: The Open Source CFD Toolbox           |
|  \\    /   O peration     | Version:  v2012                                 |
|   \\  /    A nd           | Website:  www.openfoam.com                      |
|    \\/     M anipulation  |                                                 |
\*---------------------------------------------------------------------------*/
FoamFile
{
    version     2.0;
    format      ascii;
    class       volScalarField;
    location    "120/topAir";
    object      rho;
}
// * * * * * * * * * * * * * * * * * * * * * * * * * * * * * * * * * * * * * //

dimensions      [1 -3 0 0 0 0 0];


internalField   nonuniform List<scalar> 
1200
(
1.1075919
1.0637042
1.0267129
0.99483041
0.96672838
0.94152279
0.9186285
0.89771798
0.87884953
0.86206475
0.84720935
0.83421803
0.82318948
0.81699845
0.81272083
0.81053169
0.81041633
0.81207438
0.81497953
0.81853517
0.82220844
0.82559469
0.82842863
0.83056271
0.83190307
0.83232247
0.83155241
0.82904332
0.82376336
0.81518318
1.1574651
1.1552735
1.1522623
1.1485693
1.1443011
1.1395393
1.1343541
1.1287946
1.1220306
1.1132031
1.1015425
1.0858907
1.0658441
1.0422334
1.0165429
0.99138431
0.96920387
0.95145536
0.93851695
0.92996543
0.92489959
0.92220395
0.92082559
0.91991417
0.91875311
0.91660255
0.91247215
0.90470966
0.89036364
0.86717138
1.158594
1.1585209
1.1583848
1.1581723
1.1578719
1.1574735
1.1569683
1.1563483
1.1555846
1.154626
1.1533933
1.1514685
1.1462152
1.1344386
1.114254
1.0865642
1.0552358
1.0247202
0.99811303
0.97672678
0.96056907
0.94890695
0.94071309
0.93495714
0.93070849
0.92711756
0.92329332
0.91800693
0.90900779
0.89311219
1.1586181
1.1586157
1.1586099
1.1585986
1.158579
1.158548
1.1585016
1.1584354
1.1583432
1.1582165
1.1580413
1.1577772
1.1572325
1.155573
1.1480199
1.1275914
1.0966749
1.0640871
1.0346696
1.0098695
0.98980226
0.97402944
0.96187639
0.95259493
0.94544977
0.939744
0.93477988
0.9296897
0.92295053
0.91200054
1.107597
1.0641709
1.0279709
0.99714698
0.97036444
0.94678382
0.92586904
0.90731143
0.89095632
0.87680627
0.86498828
0.85565645
0.84907776
0.84889817
0.85132754
0.85587146
0.86161503
0.86748254
0.87270744
0.87699513
0.8803392
0.88281459
0.88450501
0.88549836
0.88580263
0.88521576
0.88311779
0.87819307
0.86798164
0.85583072
1.1574665
1.1553162
1.1524192
1.1489353
1.1449915
1.1406925
1.1361328
1.1314095
1.1266191
1.1218849
1.1173887
1.1132628
1.1096897
1.1069397
1.105041
1.1037453
1.1025007
1.1007466
1.0983011
1.0953066
1.0919305
1.088154
1.0838431
1.0789045
1.0732363
1.0667304
1.0593279
1.0510577
1.0416396
1.0136432
1.1585941
1.1585229
1.1583939
1.1581976
1.1579274
1.1575787
1.1571491
1.1566388
1.1560499
1.1553877
1.1546617
1.153875
1.1529548
1.1517552
1.1500798
1.1474756
1.142872
1.135459
1.1258842
1.1154551
1.1050426
1.0940554
1.0815122
1.0678263
1.0532756
1.0384515
1.023257
1.0071675
0.98897559
0.96722425
1.1586181
1.1586158
1.1586104
1.1586001
1.1585831
1.1585569
1.1585191
1.1584669
1.1583976
1.1583078
1.1581932
1.1580458
1.1578342
1.1573983
1.1557701
1.1496817
1.1343225
1.1089179
1.0789937
1.0504977
1.0260427
1.0061764
0.99105342
0.97909722
0.96927869
0.9608133
0.95309833
0.94562215
0.93788202
0.92881151
1.1075997
1.064085
1.027785
0.99685113
0.96993636
0.9461884
0.92505604
0.90617692
0.88930613
0.87429883
0.86110914
0.8497549
0.84041311
0.83775328
0.837505
0.84008497
0.84581756
0.8544476
0.86481821
0.87530307
0.88456773
0.89204424
0.89779806
0.90210329
0.90510299
0.90665424
0.90627058
0.90266765
0.89242318
0.87164059
1.1574664
1.1553086
1.1523988
1.1489
1.1449402
1.1406223
1.136035
1.1312614
1.126385
1.1214972
1.1167068
1.11215
1.1080006
1.1046274
1.1022493
1.1010432
1.1009929
1.1016326
1.1020888
1.1016723
1.0999985
1.0969421
1.0924808
1.0865539
1.0790414
1.0698489
1.0590799
1.0467759
1.0321249
1.0082948
1.1585941
1.1585226
1.1583929
1.1581958
1.1579251
1.1575768
1.1571488
1.1566416
1.1560577
1.1554028
1.1546867
1.1539254
1.1531424
1.1523765
1.1516719
1.1510183
1.1501152
1.1479429
1.1431419
1.1353474
1.125006
1.1131185
1.1002515
1.0863407
1.0710935
1.0544516
1.0373102
1.0203403
1.0028405
0.9835931
1.1586181
1.1586158
1.1586103
1.1586001
1.158583
1.158557
1.1585198
1.1584689
1.1584021
1.1583169
1.158211
1.1580824
1.1579275
1.1577336
1.1574177
1.1565251
1.1533245
1.1438687
1.1247274
1.097712
1.0687615
1.0425816
1.0209761
1.0037103
0.98989178
0.97851103
0.96870029
0.95975725
0.9510759
0.94203322
1.107602
1.0640599
1.027697
0.99666416
0.96960414
0.94564049
0.92418139
0.90480102
0.88717688
0.87105448
0.85622403
0.84250143
0.82985809
0.82366701
0.81797549
0.81279852
0.80838921
0.80534802
0.80485884
0.80793597
0.81374777
0.82076877
0.82797264
0.83479838
0.84082408
0.84553355
0.84803154
0.84599376
0.83403409
0.81823153
1.1574663
1.1553061
1.1523881
1.1488731
1.1448858
1.1405228
1.1358621
1.1309689
1.1258987
1.1207009
1.1154231
1.1101138
1.1047332
1.0997585
1.0952078
1.0912409
1.0881212
1.0862496
1.0860712
1.0873576
1.0880026
1.0866143
1.0828489
1.076844
1.0686769
1.0581059
1.0449394
1.0283889
1.0049733
0.94397982
1.1585941
1.1585225
1.1583923
1.1581942
1.1579214
1.1575694
1.1571355
1.1566182
1.1560177
1.1553352
1.1545735
1.1537375
1.1528339
1.1518856
1.1509242
1.1499946
1.1491589
1.1484609
1.1475871
1.1445247
1.1347293
1.1199609
1.102126
1.0825618
1.0617354
1.0405387
1.0204198
1.0015752
0.98114235
0.94977003
1.1586181
1.1586158
1.1586103
1.1586
1.1585828
1.1585565
1.1585188
1.1584671
1.158399
1.1583117
1.1582026
1.1580689
1.1579079
1.1577165
1.1574898
1.1572114
1.1568168
1.1560029
1.1527576
1.1410417
1.1114624
1.0803411
1.0501988
1.0259767
1.0075056
0.99305844
0.98110871
0.97054533
0.95958825
0.93437585
1.1076005
1.0640458
1.0276594
0.99659524
0.96949512
0.94547961
0.92395165
0.9044787
0.8867308
0.87044579
0.85541165
0.84144986
0.82884713
0.82452206
0.82025949
0.8157946
0.8107359
0.80444706
0.7983864
0.79429741
0.7904036
0.78590265
0.78129368
0.77688352
0.77268803
0.76949803
0.76697699
0.76409819
0.75859896
0.74878676
1.1574662
1.1553047
1.1523831
1.1488611
1.1448625
1.1404826
1.135797
1.1308669
1.1257427
1.1204668
1.1150766
1.1095688
1.1028066
1.0963292
1.089953
1.0836802
1.0778986
1.0738132
1.0728787
1.0739604
1.0734062
1.0711713
1.0675019
1.062176
1.0537262
1.0371158
1.010411
0.97100492
0.91668312
0.84690591
1.1585941
1.1585224
1.158392
1.1581933
1.1579195
1.1575658
1.157129
1.1566074
1.1560002
1.1553074
1.15453
1.1536679
1.1526962
1.1516291
1.1504815
1.1492774
1.1480768
1.1470308
1.1462878
1.1430181
1.1282296
1.1128073
1.0953381
1.0740964
1.0491439
1.023555
1.0032492
0.98955904
0.95298621
0.88984896
1.1586181
1.1586158
1.1586103
1.1585999
1.1585826
1.1585562
1.1585182
1.1584661
1.1583972
1.1583087
1.1581976
1.1580609
1.1578941
1.1576928
1.1574515
1.1571631
1.1568142
1.1563384
1.1548381
1.1388977
1.0604904
1.0396075
1.024038
1.0068383
0.99006816
0.97492154
0.96226741
0.95196684
0.94069606
0.89592772
1.1076002
1.0640451
1.0276581
0.9965932
0.96949242
0.94547635
0.92394812
0.90447479
0.88672579
0.87044035
0.85540733
0.84144848
0.8288479
0.82452427
0.82026264
0.81579857
0.81074186
0.80446641
0.79868746
0.79458146
0.79031634
0.78536577
0.78035992
0.7754944
0.77136129
0.76815098
0.76551628
0.76245322
0.75680629
0.74714688
1.1574662
1.1553047
1.152383
1.1488609
1.1448623
1.1404823
1.1357965
1.1308663
1.1257419
1.1204657
1.1150753
1.1095646
1.1027994
1.0963221
1.0899565
1.0837304
1.0781125
1.074558
1.0737424
1.074426
1.0734749
1.0709976
1.067216
1.0618449
1.0520311
1.0343257
1.0066229
0.96664053
0.91236956
0.84330327
1.1585941
1.1585224
1.158392
1.1581933
1.1579195
1.1575658
1.157129
1.1566074
1.1560001
1.1553073
1.1545298
1.1536676
1.1526959
1.1516287
1.1504819
1.1492812
1.1480937
1.1470857
1.1462914
1.141335
1.127142
1.1122079
1.0951042
1.0740991
1.0492907
1.0239505
1.0038226
0.98876776
0.95136116
0.8880347
1.1586181
1.1586158
1.1586103
1.1585999
1.1585826
1.1585562
1.1585182
1.1584661
1.1583972
1.1583087
1.1581976
1.1580609
1.157894
1.1576926
1.1574511
1.1571621
1.1568108
1.1563035
1.1542269
1.1299553
1.0563053
1.0372793
1.0223456
1.0059665
0.99023224
0.97623403
0.96473619
0.9555908
0.94550295
0.89858823
1.1076018
1.0640594
1.0276955
0.99666111
0.96959953
0.94563491
0.92417559
0.90479488
0.88716952
0.87104721
0.85621795
0.84249735
0.82985737
0.82367035
0.81798528
0.81282073
0.80843868
0.80545937
0.80508527
0.80821659
0.81397176
0.82087303
0.82793914
0.83462106
0.84043854
0.84477822
0.84664011
0.8436027
0.83041777
0.81483551
1.1574663
1.155306
1.152388
1.148873
1.1448856
1.1405224
1.1358616
1.1309682
1.1258978
1.1206998
1.1154218
1.1101124
1.1047282
1.0997547
1.0952068
1.0912472
1.0881484
1.0863358
1.0862452
1.0874946
1.0880147
1.0864925
1.0826196
1.0765311
1.0681934
1.0574318
1.0441315
1.0275662
1.0038171
0.9406923
1.1585941
1.1585225
1.1583923
1.1581942
1.1579214
1.1575694
1.1571354
1.1566182
1.1560176
1.1553351
1.1545734
1.1537374
1.1528336
1.1518853
1.1509241
1.1499955
1.149163
1.1484758
1.1475938
1.144134
1.1341517
1.1193387
1.1015164
1.0819609
1.061156
1.0400858
1.0204377
1.002517
0.98295156
0.95138234
1.1586181
1.1586158
1.1586103
1.1586
1.1585828
1.1585565
1.1585188
1.1584671
1.158399
1.1583117
1.1582026
1.1580689
1.1579078
1.1577164
1.1574896
1.1572109
1.1568163
1.1560172
1.1527018
1.1397313
1.1103001
1.0793401
1.0494392
1.0255571
1.0074301
0.99328616
0.98161455
0.97136942
0.96117372
0.94082122
1.1076002
1.0640871
1.027788
0.99685288
0.96993579
0.94618774
0.92505891
0.9061835
0.88931424
0.87431025
0.86112507
0.849777
0.84044227
0.83779434
0.83756196
0.84016138
0.84591636
0.85457266
0.86498084
0.8755083
0.88481063
0.89231919
0.8980973
0.90241331
0.90539965
0.90690239
0.90641829
0.90261268
0.89193585
0.87087637
1.1574664
1.1553087
1.1523989
1.1489002
1.1449405
1.1406226
1.1360355
1.1312625
1.1263867
1.1214996
1.1167104
1.1121553
1.108008
1.1046377
1.1022637
1.1010629
1.1010201
1.1016731
1.1021525
1.1017425
1.1000427
1.0969346
1.0924066
1.086405
1.078808
1.0695464
1.0587621
1.0465277
1.0319627
1.0071175
1.1585941
1.1585226
1.1583929
1.1581959
1.1579252
1.1575768
1.1571489
1.1566417
1.1560578
1.1554029
1.154687
1.1539258
1.153143
1.1523775
1.1516733
1.1510204
1.1501179
1.1479453
1.1431354
1.1352665
1.1248336
1.1128668
1.099927
1.0859442
1.0706604
1.0540993
1.0371762
1.0205354
1.0035168
0.98472763
1.1586181
1.1586158
1.1586103
1.1586001
1.158583
1.158557
1.1585198
1.1584689
1.1584021
1.1583169
1.158211
1.1580824
1.1579275
1.1577336
1.1574175
1.1565249
1.1533283
1.1438807
1.124764
1.0977585
1.0688196
1.0426144
1.0209996
1.0037478
0.98995471
0.97860637
0.96883429
0.95993124
0.95123916
0.94214618
1.1075951
1.0641677
1.0279669
0.99714218
0.97035913
0.94677999
0.92586841
0.90731418
0.89096242
0.87681516
0.86500074
0.85567404
0.84910029
0.84893182
0.85137268
0.85592807
0.8616848
0.8675718
0.87282408
0.87714242
0.88051552
0.88302403
0.88475525
0.88579241
0.88612963
0.88554893
0.8834172
0.87840072
0.8680164
0.85573869
1.1574665
1.1553161
1.152419
1.1489349
1.1449911
1.1406921
1.1361325
1.1314096
1.1266197
1.1218863
1.117391
1.1132663
1.1096946
1.1069462
1.1050496
1.1037569
1.1025182
1.1007755
1.0983457
1.0953615
1.0919836
1.0881975
1.0838686
1.0789026
1.0731971
1.0666521
1.0592258
1.0509714
1.0416182
1.0135997
1.1585941
1.1585229
1.1583939
1.1581976
1.1579274
1.1575787
1.1571491
1.1566388
1.1560499
1.1553877
1.1546618
1.1538751
1.1529546
1.1517548
1.1500806
1.147481
1.142891
1.135503
1.1259476
1.1155007
1.1050468
1.0940792
1.0815796
1.0679598
1.0534666
1.0386405
1.0234173
1.0072799
0.98912559
0.96736489
1.1586181
1.1586158
1.1586104
1.1586001
1.1585831
1.1585569
1.1585191
1.1584669
1.1583976
1.1583077
1.1581932
1.1580458
1.1578339
1.1573972
1.155764
1.1496637
1.1342961
1.1089078
1.0790226
1.0505659
1.0261354
1.0062304
0.99108403
0.97911361
0.96928929
0.96084111
0.95317016
0.94575213
0.93796011
0.9288081
1.107588
1.0636975
1.0267039
0.99481914
0.96671592
0.94151114
0.91861866
0.89771067
0.8788459
0.86206272
0.84720867
0.83422004
0.82319562
0.81701773
0.81275396
0.81057936
0.81047877
0.81215126
0.81507033
0.81863908
0.82232364
0.82572092
0.82856781
0.83071627
0.83206821
0.83248926
0.83170406
0.82915736
0.82381355
0.81516073
1.157465
1.1552732
1.1522618
1.1485686
1.1443
1.139538
1.1343525
1.1287928
1.1220232
1.113189
1.1015187
1.0858563
1.0657985
1.042183
1.0164985
0.99135902
0.96920891
0.95149748
0.93859544
0.93006961
0.92501463
0.92232158
0.92094363
0.92003012
0.91885892
0.91668523
0.91251975
0.90472243
0.89037072
0.86714967
1.158594
1.1585209
1.1583848
1.1581723
1.1578719
1.1574734
1.1569682
1.1563482
1.1555843
1.1546254
1.153392
1.1514615
1.1461964
1.1344022
1.1142012
1.0865086
1.0551976
1.0247168
0.99815185
0.97680355
0.96067155
0.94902353
0.94083627
0.93508197
0.93082934
0.92722632
0.92338037
0.9180635
0.90903124
0.89308482
1.1586181
1.1586157
1.1586099
1.1585986
1.158579
1.158548
1.1585016
1.1584354
1.1583432
1.1582165
1.1580411
1.1577768
1.157231
1.1555647
1.1479877
1.1275331
1.096626
1.0640749
1.0347015
1.0099412
0.98990225
0.97414494
0.9619985
0.9527184
0.94557045
0.93985689
0.93487839
0.92976564
0.92299217
0.91198473
)
;

boundaryField
{
    maxY
    {
        type            calculated;
        value           nonuniform List<scalar> 
300
(
1.1586176
1.1586176
1.1586176
1.1586176
1.1586176
1.1586176
1.1586176
1.1586176
1.1586176
1.1586176
1.1586152
1.1586153
1.1586153
1.1586153
1.1586152
1.1586152
1.1586153
1.1586153
1.1586153
1.1586152
1.1586094
1.1586099
1.1586098
1.1586098
1.1586098
1.1586098
1.1586098
1.1586098
1.1586099
1.1586094
1.1585981
1.1585996
1.1585995
1.1585994
1.1585994
1.1585994
1.1585994
1.1585995
1.1585996
1.1585981
1.1585785
1.1585825
1.1585825
1.1585822
1.1585821
1.1585821
1.1585822
1.1585825
1.1585825
1.1585785
1.1585475
1.1585563
1.1585565
1.158556
1.1585557
1.1585557
1.158556
1.1585565
1.1585563
1.1585475
1.1585011
1.1585185
1.1585193
1.1585183
1.1585177
1.1585177
1.1585183
1.1585193
1.1585185
1.1585011
1.1584348
1.1584664
1.1584684
1.1584666
1.1584656
1.1584656
1.1584666
1.1584684
1.1584664
1.1584348
1.1583427
1.1583971
1.1584016
1.1583985
1.1583966
1.1583966
1.1583985
1.1584016
1.1583971
1.1583427
1.158216
1.1583072
1.1583163
1.1583112
1.1583081
1.1583081
1.1583112
1.1583163
1.1583072
1.158216
1.1580407
1.1581927
1.1582105
1.1582021
1.1581971
1.1581971
1.1582021
1.1582105
1.1581927
1.1580406
1.1577767
1.1580453
1.1580818
1.1580684
1.1580604
1.1580603
1.1580684
1.1580818
1.1580452
1.1577762
1.157232
1.1578336
1.1579269
1.1579074
1.1578936
1.1578935
1.1579073
1.1579269
1.1578334
1.1572305
1.1555724
1.1573978
1.1577331
1.157716
1.1576922
1.157692
1.1577159
1.1577331
1.1573966
1.1555642
1.1480193
1.1557696
1.1574172
1.1574893
1.157451
1.1574505
1.157489
1.157417
1.1557635
1.1479872
1.1275909
1.1496812
1.1565246
1.1572109
1.1571625
1.1571615
1.1572104
1.1565244
1.1496631
1.1275326
1.0966744
1.134322
1.153324
1.1568162
1.1568136
1.1568103
1.1568157
1.1533277
1.1342956
1.0966255
1.0640867
1.1089174
1.1438682
1.1560023
1.1563379
1.156303
1.1560167
1.1438801
1.1089073
1.0640744
1.0346691
1.0789933
1.1247269
1.1527571
1.1548376
1.1542264
1.1527013
1.1247635
1.0790221
1.0347011
1.0098691
1.0504973
1.0977115
1.1410412
1.1388972
1.1299548
1.1397308
1.0977581
1.0505655
1.0099408
0.98980187
1.0260423
1.068761
1.1114619
1.0604899
1.0563049
1.1102996
1.0688192
1.026135
0.98990186
0.97402906
1.006176
1.0425811
1.0803406
1.0396071
1.0372789
1.0793396
1.042614
1.00623
0.97414457
0.96187603
0.99105304
1.0209757
1.0501984
1.0240375
1.0223452
1.0494387
1.0209991
0.99108364
0.96199813
0.95259457
0.97909685
1.0037099
1.0259763
1.0068379
1.0059661
1.0255566
1.0037474
0.97911323
0.95271805
0.94544942
0.96927832
0.98989139
1.0075052
0.99006777
0.99023186
1.0074297
0.98995432
0.96928892
0.9455701
0.93974365
0.96081294
0.97851066
0.99305805
0.97492117
0.97623366
0.99328578
0.97860599
0.96084075
0.93985654
0.93477954
0.95309797
0.96869992
0.98110833
0.96226705
0.96473583
0.98161417
0.96883392
0.95316981
0.93487804
0.92968936
0.9456218
0.95975689
0.97054496
0.95196649
0.95559045
0.97136905
0.95993087
0.94575178
0.9297653
0.9229502
0.93788167
0.95107555
0.95958789
0.94069571
0.9455026
0.96117336
0.9512388
0.93795976
0.92299183
0.91200021
0.92881118
0.94203287
0.93437551
0.8959274
0.89858791
0.94082087
0.94214584
0.92880776
0.9119844
)
;
    }
    minX
    {
        type            calculated;
        value           nonuniform List<scalar> 
40
(
1.1586219
1.1586208
1.1586198
1.1586187
1.1586219
1.1586208
1.1586198
1.1586187
1.1586219
1.1586208
1.1586198
1.1586187
1.1586219
1.1586208
1.1586198
1.1586187
1.1586219
1.1586208
1.1586198
1.1586187
1.1586219
1.1586208
1.1586198
1.1586187
1.1586219
1.1586208
1.1586198
1.1586187
1.1586219
1.1586208
1.1586198
1.1586187
1.1586219
1.1586208
1.1586198
1.1586187
1.1586219
1.1586208
1.1586198
1.1586187
)
;
    }
    maxX
    {
        type            calculated;
        value           nonuniform List<scalar> 
40
(
0.81518778
0.86717442
0.89314477
0.91203444
0.85581258
1.0135822
0.96722184
0.9288209
0.87164847
1.0083183
0.98369724
0.94202706
0.81822931
0.94395958
0.95017785
0.93496977
0.74882515
0.84640499
0.88976038
0.89642276
0.74721554
0.84289959
0.88821485
0.89994151
0.81492055
0.94069039
0.95196735
0.94145047
0.87089108
1.0071334
0.98483797
0.94213603
0.85571327
1.0135286
0.96734569
0.92881469
0.81516241
0.86714439
0.89310955
0.91201408
)
;
    }
    minZ
    {
        type            calculated;
        value           nonuniform List<scalar> 
120
(
1.1075919
1.1574651
1.158594
1.1586181
1.0637042
1.1552735
1.1585209
1.1586157
1.0267129
1.1522623
1.1583848
1.1586099
0.99483041
1.1485693
1.1581723
1.1585986
0.96672838
1.1443011
1.1578719
1.158579
0.94152279
1.1395393
1.1574735
1.158548
0.9186285
1.1343541
1.1569683
1.1585016
0.89771798
1.1287946
1.1563483
1.1584354
0.87884953
1.1220306
1.1555846
1.1583432
0.86206475
1.1132031
1.154626
1.1582165
0.84720935
1.1015425
1.1533933
1.1580413
0.83421803
1.0858907
1.1514685
1.1577772
0.82318948
1.0658441
1.1462152
1.1572325
0.81699845
1.0422334
1.1344386
1.155573
0.81272083
1.0165429
1.114254
1.1480199
0.81053169
0.99138431
1.0865642
1.1275914
0.81041633
0.96920387
1.0552358
1.0966749
0.81207438
0.95145536
1.0247202
1.0640871
0.81497953
0.93851695
0.99811303
1.0346696
0.81853517
0.92996543
0.97672678
1.0098695
0.82220844
0.92489959
0.96056907
0.98980226
0.82559469
0.92220395
0.94890695
0.97402944
0.82842863
0.92082559
0.94071309
0.96187639
0.83056271
0.91991417
0.93495714
0.95259493
0.83190307
0.91875311
0.93070849
0.94544977
0.83232247
0.91660255
0.92711756
0.939744
0.83155241
0.91247215
0.92329332
0.93477988
0.82904332
0.90470966
0.91800693
0.9296897
0.82376336
0.89036364
0.90900779
0.92295053
0.81518318
0.86717138
0.89311219
0.91200054
)
;
    }
    maxZ
    {
        type            calculated;
        value           nonuniform List<scalar> 
120
(
1.107588
1.157465
1.158594
1.1586181
1.0636975
1.1552732
1.1585209
1.1586157
1.0267039
1.1522618
1.1583848
1.1586099
0.99481914
1.1485686
1.1581723
1.1585986
0.96671592
1.1443
1.1578719
1.158579
0.94151114
1.139538
1.1574734
1.158548
0.91861866
1.1343525
1.1569682
1.1585016
0.89771067
1.1287928
1.1563482
1.1584354
0.8788459
1.1220232
1.1555843
1.1583432
0.86206272
1.113189
1.1546254
1.1582165
0.84720867
1.1015187
1.153392
1.1580411
0.83422004
1.0858563
1.1514615
1.1577768
0.82319562
1.0657985
1.1461964
1.157231
0.81701773
1.042183
1.1344022
1.1555647
0.81275396
1.0164985
1.1142012
1.1479877
0.81057936
0.99135902
1.0865086
1.1275331
0.81047877
0.96920891
1.0551976
1.096626
0.81215126
0.95149748
1.0247168
1.0640749
0.81507033
0.93859544
0.99815185
1.0347015
0.81863908
0.93006961
0.97680355
1.0099412
0.82232364
0.92501463
0.96067155
0.98990225
0.82572092
0.92232158
0.94902353
0.97414494
0.82856781
0.92094363
0.94083627
0.9619985
0.83071627
0.92003012
0.93508197
0.9527184
0.83206821
0.91885892
0.93082934
0.94557045
0.83248926
0.91668523
0.92722632
0.93985689
0.83170406
0.91251975
0.92338037
0.93487839
0.82915736
0.90472243
0.9180635
0.92976564
0.82381355
0.89037072
0.90903124
0.92299217
0.81516073
0.86714967
0.89308482
0.91198473
)
;
    }
    topAir_to_rightSolid
    {
        type            calculated;
        value           nonuniform List<scalar> 
130
(
0.57518467
0.57161929
0.56802446
0.56460721
0.5615124
0.55878741
0.55645647
0.55450037
0.55288716
0.55160338
0.55065689
0.55003252
0.54972436
0.5784235
0.57406717
0.56980204
0.56586098
0.56236478
0.55934736
0.55680931
0.55471089
0.55301018
0.55169122
0.55072625
0.55008674
0.54976704
0.58513116
0.57894569
0.57320126
0.56814932
0.56385434
0.56027919
0.5573644
0.55502952
0.55319219
0.55181067
0.55082562
0.55018327
0.549858
0.59560848
0.5857254
0.57748949
0.57080862
0.56546148
0.56124596
0.55793807
0.55535686
0.55337232
0.55190665
0.55087728
0.55022498
0.549908
0.60870697
0.5924156
0.58105568
0.57277023
0.56658966
0.56190605
0.55832179
0.55557162
0.5534856
0.55196237
0.55089883
0.55023059
0.54990967
0.60871059
0.59241407
0.58105177
0.57277181
0.56659433
0.56191527
0.55832778
0.55557304
0.5534843
0.55195977
0.5508949
0.55022725
0.54990668
0.59564905
0.5857553
0.57750905
0.57081109
0.56546446
0.56124992
0.55794285
0.55536181
0.55337616
0.5519089
0.55087691
0.55022048
0.54989963
0.58519657
0.57900561
0.57325251
0.56817671
0.56387441
0.56029432
0.55737735
0.55504398
0.55320756
0.55182272
0.55082938
0.55017571
0.54984348
0.57853929
0.57417342
0.56988173
0.56590797
0.56239611
0.55937307
0.5568313
0.5547306
0.55302526
0.55169813
0.55072547
0.5500844
0.54976425
0.57532564
0.57173302
0.56811477
0.56467529
0.56156382
0.55882786
0.55648726
0.55452573
0.55290583
0.55161708
0.55066733
0.55003991
0.54973009
)
;
    }
    topAir_to_heater
    {
        type            calculated;
        value           nonuniform List<scalar> 
40
(
0.58423363
0.58321334
0.58123562
0.57848329
0.58961589
0.58836623
0.58593875
0.58252669
0.60141174
0.59967787
0.5962246
0.59121371
0.62217855
0.61981794
0.61467656
0.60645599
0.65615475
0.65408653
0.64753138
0.63411136
0.65618612
0.65411198
0.64755103
0.63412414
0.62224897
0.61988577
0.61473882
0.60650868
0.60147673
0.59975994
0.59630777
0.59128825
0.58970985
0.58847364
0.58604914
0.58263317
0.58435775
0.58334978
0.58138409
0.57863707
)
;
    }
    topAir_to_leftSolid
    {
        type            calculated;
        value           nonuniform List<scalar> 
130
(
0.54616527
0.54619292
0.54626044
0.54636523
0.54649733
0.54662138
0.54675269
0.5469068
0.54709216
0.54731306
0.54751221
0.54766573
0.54775345
0.54613981
0.54616736
0.54622933
0.54632826
0.54645677
0.54658563
0.54672735
0.5469005
0.54711117
0.54735909
0.54758501
0.54776037
0.54786138
0.54614492
0.54616076
0.54621398
0.54629952
0.54641635
0.54655663
0.54672224
0.54692634
0.54718717
0.54747038
0.54774932
0.54794315
0.5480462
0.54616282
0.54616556
0.54619069
0.5462479
0.54634219
0.5464851
0.54667476
0.5469161
0.54721288
0.54754812
0.54789765
0.54815452
0.54829255
0.54614969
0.54614549
0.54616073
0.54621114
0.54630015
0.5464454
0.54664114
0.54689038
0.54719593
0.54755162
0.54794155
0.54831891
0.54852026
0.5461475
0.54614288
0.54615627
0.5462056
0.54629509
0.54644157
0.5466412
0.5468912
0.54719191
0.54755565
0.54796266
0.54835086
0.54855061
0.5461615
0.54616284
0.54618304
0.54623416
0.54632719
0.54647444
0.54667159
0.54691432
0.54720567
0.54755682
0.54792014
0.54818449
0.5483221
0.5461476
0.54617113
0.54621857
0.54628746
0.54639158
0.54654521
0.54673952
0.54694435
0.5471845
0.54748083
0.54776681
0.54797085
0.54806978
0.54612831
0.54615759
0.54622056
0.54631776
0.54644741
0.54659154
0.54674753
0.5469223
0.54712665
0.54736256
0.5475898
0.54777685
0.54787245
0.54614216
0.5461718
0.54624042
0.54634497
0.54648496
0.54662657
0.54676906
0.54692628
0.54710763
0.54730866
0.54750102
0.54766208
0.54775672
)
;
    }
}


// ************************************************************************* //
