/*--------------------------------*- C++ -*----------------------------------*\
| =========                 |                                                 |
| \\      /  F ield         | OpenFOAM: The Open Source CFD Toolbox           |
|  \\    /   O peration     | Version:  v2012                                 |
|   \\  /    A nd           | Website:  www.openfoam.com                      |
|    \\/     M anipulation  |                                                 |
\*---------------------------------------------------------------------------*/
FoamFile
{
    version     2.0;
    format      ascii;
    class       volScalarField;
    location    "120/topAir";
    object      T;
}
// * * * * * * * * * * * * * * * * * * * * * * * * * * * * * * * * * * * * * //

dimensions      [0 0 0 1 0 0 0];


internalField   nonuniform List<scalar> 
1200
(
313.82187
326.76993
338.54307
349.39276
359.54933
369.17485
378.37551
387.18899
395.50174
403.20233
410.27228
416.66146
422.24361
425.44327
427.68251
428.83762
428.89866
428.02295
426.49718
424.64451
422.74738
421.01344
419.5732
418.49513
417.82085
417.61031
417.99703
419.2621
421.94938
426.3906
300.29955
300.86925
301.65548
302.6254
303.75419
305.02347
306.41778
307.92693
309.7832
312.23973
315.54501
320.09321
326.11359
333.50133
341.92973
350.60695
358.63066
365.32057
370.35688
373.7625
375.80966
376.90817
377.47235
377.84633
378.32383
379.21146
380.928
384.19639
390.38677
400.82756
300.00668
300.02562
300.06086
300.11591
300.19377
300.29711
300.42823
300.5893
300.78796
301.03769
301.35942
301.86318
303.24667
306.39465
311.94496
319.89451
329.39172
339.2008
348.24305
355.86812
361.85417
366.30138
369.49196
371.76669
373.46379
374.9103
376.46316
378.63104
382.37948
389.18507
300.00016
300.00078
300.00229
300.00522
300.01028
300.01832
300.03033
300.04749
300.07135
300.10417
300.1496
300.21806
300.35936
300.79072
302.76969
308.25494
316.945
326.65149
335.93879
344.18868
351.16677
356.85335
361.36209
364.88297
367.64055
369.87273
371.83692
373.87279
376.60272
381.12443
313.82043
326.62663
338.12879
348.58105
358.20206
367.12344
375.41652
383.09506
390.12745
396.42339
401.83956
406.22204
409.36946
409.45606
408.28762
406.11998
403.41275
400.68413
398.28523
396.33798
394.83244
393.72534
392.97287
392.53202
392.39719
392.65733
393.59013
395.79729
400.45367
406.13924
300.29918
300.8581
301.61443
302.52901
303.57104
304.71511
305.93804
307.21524
308.52151
309.82344
311.07012
312.223
313.22831
314.00647
314.54601
314.91525
315.27074
315.77314
316.47624
317.34147
318.32266
319.4274
320.6979
322.16584
323.86736
325.84259
328.11955
330.70132
333.69137
342.90777
300.00665
300.02508
300.0585
300.10935
300.17938
300.26981
300.38128
300.51382
300.66689
300.83923
301.02838
301.23362
301.47403
301.78803
302.22765
302.91357
304.13373
306.11929
308.72261
311.60906
314.54525
317.70412
321.38879
325.50791
330.00471
334.71557
339.68582
345.11228
351.46053
359.36432
300.00016
300.00076
300.00216
300.00481
300.00923
300.01602
300.02581
300.03931
300.05727
300.08054
300.11022
300.14842
300.20329
300.31632
300.73941
302.33204
306.42574
313.44577
322.13868
330.87708
338.76331
345.45198
350.7234
355.00625
358.60237
361.76189
364.69022
367.5735
370.60701
374.22625
313.81966
326.65301
338.18993
348.6845
358.36015
367.35447
375.74646
383.57468
390.85137
397.56031
403.64978
409.04325
413.59006
414.90318
415.02618
413.75159
410.94736
406.79674
401.91856
397.10416
392.94502
389.65162
387.1544
385.30673
384.02974
383.37267
383.53496
385.06581
389.48612
398.77266
300.29923
300.86009
301.61977
302.5383
303.58463
304.73388
305.96439
307.25546
308.58564
309.93055
311.26007
312.53539
313.70583
314.6638
315.34266
315.68809
315.70251
315.51919
315.38858
315.50781
315.98791
316.86832
318.16231
319.89779
322.12498
324.89279
328.19638
332.05404
336.76754
344.7267
300.00666
300.02517
300.05876
300.10981
300.17997
300.27031
300.38135
300.51308
300.66487
300.8353
301.02186
301.22046
301.42499
301.62531
301.80986
301.98123
302.21837
302.79025
304.06192
306.14939
308.96361
312.26317
315.91496
319.9603
324.51499
329.63665
335.08385
340.65685
346.60136
353.38382
300.00016
300.00076
300.00217
300.00483
300.00925
300.01598
300.02562
300.03879
300.05611
300.07818
300.1056
300.13895
300.17909
300.22935
300.31131
300.54308
301.37711
303.86846
309.03988
316.64556
325.22282
333.38938
340.44444
346.30075
351.13498
355.21892
358.81649
362.15995
365.46572
368.97387
313.81899
326.66069
338.2189
348.74992
358.48294
367.56731
376.10207
384.15797
391.78942
399.04107
405.95276
412.56489
418.85053
421.99882
424.9351
427.64165
429.97419
431.59787
431.86019
430.21538
427.14277
423.48892
419.8043
416.37175
413.38785
411.08535
409.87444
410.86171
416.75328
424.80206
300.29924
300.86075
301.62257
302.54538
303.59906
304.76045
306.01095
307.33494
308.71894
310.15075
311.6183
313.10867
314.63365
316.05688
317.37013
318.52385
319.43706
319.98745
320.04
319.66139
319.47188
319.88002
320.99236
322.78231
325.24911
328.49849
332.63765
337.991
345.86608
368.21356
300.00666
300.0252
300.0589
300.11024
300.18094
300.27221
300.38483
300.51917
300.67528
300.8529
301.05138
301.26951
301.50565
301.75386
302.00593
302.25005
302.46986
302.6537
302.88414
303.69455
306.31615
310.3554
315.37764
321.07721
327.37527
334.0442
340.63032
347.03926
354.26654
365.96849
300.00016
300.00077
300.00218
300.00486
300.00931
300.01611
300.02588
300.03926
300.05691
300.07952
300.10778
300.14242
300.18417
300.23379
300.2926
300.36484
300.46731
300.67886
301.52534
304.62131
312.72819
321.73694
330.97127
338.7851
344.99624
350.01529
354.27842
358.13438
362.22375
371.9977
313.81943
326.66503
338.23127
348.77404
358.52325
367.62986
376.19558
384.29487
391.98652
399.32012
406.3383
413.08048
419.36142
421.56119
423.75188
426.07109
428.72962
432.08125
435.36124
437.60244
439.75822
442.27676
444.8858
447.4113
449.84061
451.70544
453.19019
454.89761
458.19526
464.19952
300.29926
300.86109
301.62388
302.54855
303.60523
304.77119
306.02851
307.36266
308.76172
310.21558
311.71513
313.26245
315.18333
317.0455
318.9002
320.74614
322.46653
323.69339
323.97534
323.64902
323.81612
324.49171
325.60713
327.23975
329.86386
335.14694
344.00476
357.96543
379.17814
410.41891
300.00666
300.02522
300.05898
300.11046
300.18143
300.27315
300.38649
300.52197
300.67983
300.86013
301.06272
301.2877
301.54166
301.82108
302.12214
302.43868
302.75496
303.03104
303.22744
304.09487
308.08084
312.3505
317.33209
323.60776
331.30434
339.58695
346.46019
351.25333
364.73342
390.61228
300.00016
300.00077
300.00219
300.00487
300.00935
300.01619
300.02603
300.03953
300.05738
300.0803
300.10907
300.14451
300.18774
300.23995
300.30253
300.37739
300.46798
300.59161
300.98212
305.19477
327.75935
334.34313
339.42651
345.22489
351.07244
356.52679
361.21524
365.1237
369.49838
387.96175
313.81953
326.66525
338.2317
348.77475
358.52424
367.63113
376.19702
384.29653
391.98874
399.32261
406.34035
413.08115
419.36103
421.56006
423.75025
426.06902
428.72647
432.07086
435.19713
437.446
439.80677
442.5791
445.41815
448.21273
450.61434
452.49756
454.05493
455.87903
459.2806
465.21837
300.29926
300.8611
301.6239
302.54858
303.60529
304.77127
306.02862
307.36281
308.76193
310.21586
311.71549
313.26365
315.18537
317.04754
318.89918
320.73127
322.40258
323.46904
323.71473
323.50876
323.79538
324.54434
325.69435
327.34178
330.39536
336.05102
345.29931
359.58165
380.97084
412.17224
300.00666
300.02522
300.05898
300.11046
300.18143
300.27315
300.3865
300.52198
300.67984
300.86015
301.06276
301.28776
301.54176
301.82118
302.12205
302.43767
302.7505
303.01654
303.22651
304.5433
308.37811
312.51885
317.39986
323.60695
331.25798
339.45577
346.26231
351.53443
365.35643
391.41031
300.00016
300.00077
300.00219
300.00487
300.00935
300.01619
300.02603
300.03953
300.05738
300.08031
300.10908
300.14452
300.18776
300.24
300.30265
300.37765
300.46886
300.60069
301.14151
307.61008
329.05791
335.09358
339.98838
345.52408
351.01426
356.04746
360.29088
363.73901
367.61987
386.81309
313.81905
326.66086
338.21938
348.75098
358.48464
367.56948
376.10443
384.16058
391.79268
399.04441
405.95565
412.56689
418.8509
421.9971
424.93002
427.62996
429.94788
431.53821
431.73872
430.06601
427.02523
423.43513
419.82128
416.46021
413.57749
411.45291
410.54805
412.02623
418.56816
426.57253
300.29924
300.86076
301.62258
302.54541
303.59912
304.76055
306.01109
307.33512
308.71919
310.15107
311.61866
313.10906
314.63507
316.05796
317.37043
318.522
319.42909
319.96207
319.98875
319.6211
319.46832
319.9159
321.06033
322.87613
325.39633
328.70792
332.89505
338.26161
346.26444
369.50039
300.00666
300.0252
300.05891
300.11024
300.18094
300.27222
300.38483
300.51918
300.67529
300.85292
301.05141
301.26955
301.50572
301.75393
302.00595
302.24983
302.46878
302.64976
302.88238
303.79826
306.47215
310.52793
315.5522
321.25552
327.55403
334.18967
340.62433
346.71322
353.61448
365.34828
300.00016
300.00077
300.00218
300.00486
300.00931
300.01611
300.02588
300.03926
300.05691
300.07952
300.10779
300.14243
300.18418
300.23382
300.29266
300.36496
300.46744
300.67512
301.53992
304.97155
313.05556
322.03531
331.21084
338.92374
345.02208
349.93505
354.09586
357.83055
361.62626
369.44921
313.81952
326.65234
338.18895
348.68389
358.36036
367.35472
375.74529
383.5719
390.84781
397.55512
403.64231
409.03262
413.57571
414.88285
414.99795
413.71397
410.89937
406.7372
401.84299
397.01107
392.83715
389.53155
387.02541
385.17436
383.90391
383.26777
383.47246
385.08925
389.69892
399.12259
300.29922
300.86007
301.61973
302.53824
303.58457
304.73379
305.96424
307.25518
308.58519
309.92988
311.25907
312.53392
313.70374
314.66084
315.33855
315.68245
315.69471
315.50758
315.37035
315.48771
315.9752
316.8705
318.18392
319.94166
322.19467
324.98466
328.29489
332.13281
336.82049
345.1297
300.00666
300.02517
300.05875
300.10981
300.17997
300.2703
300.38134
300.51306
300.66483
300.83525
301.02179
301.22035
301.42483
301.62506
301.80948
301.9807
302.21765
302.78962
304.06364
306.1712
309.01095
312.33379
316.00817
320.07715
324.64626
329.74684
335.12716
340.5917
346.36777
352.97667
300.00016
300.00076
300.00217
300.00483
300.00925
300.01598
300.02562
300.03879
300.05611
300.07818
300.1056
300.13894
300.17909
300.22936
300.31136
300.54313
301.37614
303.86528
309.02981
316.63213
325.20513
333.37887
340.43661
346.28781
351.11266
355.18432
358.76686
362.09431
365.403
368.92963
313.82097
326.6276
338.13009
348.58273
358.20402
367.12492
375.41677
383.0939
390.12478
396.41937
401.83377
406.21369
409.3586
409.43983
408.26598
406.09312
403.38009
400.64291
398.232
396.27143
394.75338
393.63195
392.86172
392.40172
392.25238
392.50959
393.45673
395.70373
400.43764
406.18291
300.29919
300.85814
301.61449
302.5291
303.57115
304.71523
305.93812
307.21522
308.52135
309.82306
311.06948
312.22202
313.22694
314.00463
314.54357
314.91196
315.26574
315.76485
316.46341
317.32557
318.30717
319.41462
320.69036
322.16643
323.87918
325.86651
328.15116
330.72847
333.69824
342.9225
300.00665
300.02509
300.0585
300.10935
300.17939
300.26981
300.38128
300.51382
300.66689
300.83921
301.02835
301.2336
301.47408
301.78813
302.22745
302.91214
304.12867
306.10744
308.70523
311.59632
314.54405
317.69721
321.36875
325.46721
329.94488
334.65468
339.63261
345.07378
351.40723
359.31207
300.00016
300.00076
300.00216
300.00481
300.00923
300.01602
300.02581
300.03931
300.05727
300.08054
300.11022
300.14843
300.20334
300.31663
300.74099
302.33679
306.43287
313.44863
322.13007
330.8556
338.73269
345.43343
350.71257
355.00031
358.59845
361.75142
364.66274
367.52298
370.57615
374.22763
313.82297
326.772
338.54605
349.39672
359.55396
369.17942
378.37956
387.19215
395.50337
403.20328
410.27261
416.66046
422.24046
425.43323
427.66508
428.8124
428.86561
427.98243
426.44966
424.5906
422.68815
420.94908
419.50272
418.41777
417.73792
417.52664
417.92082
419.20443
421.92367
426.40234
300.29957
300.86931
301.65561
302.6256
303.75449
305.02385
306.4182
307.9274
309.78525
312.24368
315.55184
320.10335
326.12754
333.51748
341.94465
350.61589
358.62879
365.3044
370.32591
373.72064
375.76293
376.8601
377.42397
377.79871
378.28026
379.17726
380.90813
384.19097
390.38367
400.8376
300.00668
300.02562
300.06086
300.11592
300.19378
300.29713
300.42826
300.58933
300.78804
301.03784
301.35975
301.86499
303.25162
306.40448
311.95975
319.91087
329.40363
339.20195
348.2295
355.84015
361.81557
366.25638
369.44358
371.71706
373.4153
374.86632
376.42767
378.60771
382.36961
389.197
300.00016
300.00078
300.00229
300.00522
300.01028
300.01832
300.03033
300.04749
300.07136
300.10419
300.14963
300.21817
300.35976
300.79287
302.77818
308.27089
316.95915
326.65524
335.92841
344.16425
351.13129
356.81103
361.31623
364.83568
367.59363
369.8283
371.79774
373.84225
376.58573
381.13103
)
;

boundaryField
{
    maxY
    {
        type            zeroGradient;
    }
    minX
    {
        type            fixedValue;
        value           uniform 300;
    }
    maxX
    {
        type            inletOutlet;
        inletValue      uniform 300;
        value           nonuniform List<scalar> 
40
(
426.38821
400.82617
389.17089
381.11025
406.14786
342.92838
359.3652
374.22247
398.76906
344.71862
353.34638
368.97628
424.80324
368.22144
365.8114
371.76138
464.17576
410.66182
390.65118
387.74751
465.17567
412.36966
391.33093
386.23142
426.52803
369.50112
365.12375
369.20226
399.11586
345.12419
352.9371
368.9336
406.19499
342.9465
359.31919
374.22497
426.40149
400.84005
389.18623
381.11876
)
;
    }
    minZ
    {
        type            zeroGradient;
    }
    maxZ
    {
        type            zeroGradient;
    }
    topAir_to_rightSolid
    {
        type            compressible::turbulentTemperatureCoupledBaffleMixed;
        refValue        nonuniform List<scalar> 
130
(
604.36099
608.13192
611.98204
615.68746
619.08216
622.1023
624.70913
626.91359
628.74324
630.20674
631.28978
632.00568
632.35862
600.98499
605.54732
610.08159
614.33199
618.15241
621.48798
624.32156
626.68381
628.6114
630.11424
631.21782
631.95028
632.31602
594.09214
600.44241
606.46267
611.85776
616.5204
620.45602
623.702
626.32669
628.40753
629.98106
631.10739
631.84292
632.21377
583.63122
593.48121
601.94768
608.99562
614.7569
619.37653
623.05057
625.94798
628.194
629.863
631.03987
631.78623
632.1479
571.06918
586.77628
598.25005
606.90542
613.52649
618.64069
622.61228
625.69423
628.05234
629.78547
631.00103
631.76649
632.13334
571.06578
586.77785
598.25412
606.90372
613.52133
618.63038
622.60534
625.69239
628.05356
629.78816
631.00522
631.76997
632.13645
583.59147
593.45094
601.92734
608.99302
614.75367
619.37215
623.0452
625.94234
628.18952
629.86021
631.03992
631.79082
632.15697
594.02574
600.38027
606.40847
611.8283
616.4985
620.43931
623.68755
626.31041
628.3901
629.96732
631.10306
631.85154
632.23036
600.86469
605.43526
609.99628
614.28101
618.118
621.45945
624.29693
626.66159
628.5943
630.10639
631.21874
631.95298
632.31921
604.21288
608.01094
611.88475
615.61323
619.02548
622.05728
624.67458
626.88493
628.72204
630.1911
631.27783
631.99719
632.35202
)
;
        refGradient     uniform 0;
        valueFraction   uniform 0.99967867;
        value           nonuniform List<scalar> 
130
(
604.30432
608.07356
611.92184
615.62546
619.01851
622.03722
624.64286
626.8464
628.6754
630.13855
631.22165
631.93819
632.29243
600.92062
605.48072
610.01291
614.26146
618.0803
621.41455
624.24708
626.60853
628.53558
630.03824
631.14218
631.87591
632.24335
594.03196
600.37861
606.3954
611.78741
616.4475
620.38105
623.62539
626.24883
628.3288
629.90187
631.02833
631.76505
632.13876
583.58236
593.42927
601.8925
608.93718
614.69544
619.3124
622.98417
625.87968
628.12424
629.79232
630.96913
631.71715
632.08127
571.02452
586.72762
598.19843
606.85171
613.47146
618.58485
622.55598
625.63772
627.99566
629.7287
630.94443
631.71069
632.07937
571.02112
586.72914
598.20245
606.85002
613.4664
618.57471
622.5493
625.63612
627.99714
629.73167
630.94893
631.71452
632.0828
583.54261
593.39898
601.87212
608.93455
614.6922
619.30804
622.97882
625.87411
628.11988
629.78975
630.96955
631.72231
632.0909
593.96556
600.31647
606.34119
611.75793
616.42557
620.3643
623.61091
626.23252
628.31134
629.88812
631.02402
631.77373
632.15545
600.80035
605.36868
609.9276
614.21047
618.04587
621.38599
624.22242
626.58627
628.51844
630.03036
631.14307
631.8786
632.24655
604.15625
607.9526
611.82457
615.55124
618.96183
621.99219
624.60831
626.81773
628.65418
630.1229
631.20969
631.92969
632.28585
)
;
        Tnbr            T;
        thicknessLayers List<scalar> 0();
        kappaLayers     List<scalar> 0();
        kappaMethod     fluidThermo;
        kappa           none;
        alphaAni        none;
        alpha           none;
        field           T;
    }
    topAir_to_heater
    {
        type            compressible::turbulentTemperatureCoupledBaffleMixed;
        refValue        nonuniform List<scalar> 
40
(
594.99902
596.03943
598.06761
600.91375
589.57153
590.8244
593.27336
596.74999
578.00358
579.67512
583.03372
587.9773
558.70449
560.83191
565.52318
573.19001
529.76745
531.4423
536.82287
548.18596
529.74212
531.42161
536.80658
548.17492
558.64124
560.77053
565.46589
573.14021
577.94112
579.59579
582.95239
587.90318
589.47758
590.71655
593.16159
596.64092
594.87261
595.9
597.91486
600.75402
)
;
        refGradient     uniform 0;
        valueFraction   uniform 0.99967867;
        value           nonuniform List<scalar> 
40
(
594.94453
595.98533
598.01323
600.85847
589.51365
590.76574
593.21322
596.68786
577.95117
579.62221
582.97932
587.92041
558.66056
560.78824
565.47887
573.14399
529.73268
531.40769
536.78728
548.14758
529.70736
531.38701
536.77099
548.13653
558.59733
560.72688
565.4216
573.0942
577.88872
579.5429
582.89801
587.8463
589.41973
590.65792
593.10148
596.57882
594.81816
595.84594
597.86052
600.69878
)
;
        Tnbr            T;
        thicknessLayers List<scalar> 0();
        kappaLayers     List<scalar> 0();
        kappaMethod     fluidThermo;
        kappa           none;
        alphaAni        none;
        alpha           none;
        field           T;
    }
    topAir_to_leftSolid
    {
        type            compressible::turbulentTemperatureCoupledBaffleMixed;
        refValue        nonuniform List<scalar> 
130
(
636.51675
636.48034
636.39786
636.27227
636.11516
635.96767
635.81193
635.62989
635.4118
635.1528
634.91944
634.73936
634.63588
636.54643
636.51017
636.43424
636.31559
636.16282
636.00993
635.84236
635.63853
635.39146
635.10157
634.83774
634.63304
634.51499
636.54047
636.51786
636.45211
636.34904
636.20983
636.04361
635.8482
635.60834
635.30296
634.97207
634.64668
634.42039
634.2996
636.5196
636.51227
636.47924
636.40917
636.29618
636.12681
635.90332
635.62006
635.2728
634.88142
634.47409
634.17457
634.01286
636.53491
636.53566
636.51415
636.452
636.34513
636.17302
635.94241
635.64991
635.29241
634.87728
634.42313
633.98424
633.74944
636.53746
636.5387
636.51935
636.45845
636.35102
636.17747
635.94233
635.64895
635.29708
634.8726
634.39868
633.94729
633.71437
636.52114
636.51544
636.48815
636.42517
636.31365
636.13923
635.90701
635.62212
635.28116
634.87134
634.44804
634.1399
633.97868
636.53735
636.50577
636.44676
636.36309
636.23868
636.0569
635.8281
635.58741
635.30605
634.95996
634.62642
634.38832
634.27232
636.55983
636.52156
636.44446
636.32782
636.17371
636.00305
635.81888
635.61319
635.37347
635.09754
634.83219
634.61395
634.50217
636.54369
636.50496
636.42118
636.29586
636.12956
635.96163
635.79288
635.60724
635.39383
635.15791
634.93242
634.7436
634.6321
)
;
        refGradient     uniform 0;
        valueFraction   uniform 0.99967867;
        value           nonuniform List<scalar> 
130
(
636.41306
636.38082
636.30215
636.18008
636.02629
635.88194
635.7292
635.55006
635.33471
635.07827
634.84725
634.66928
634.56763
636.44273
636.4106
636.33839
636.22313
636.0735
635.92353
635.75867
635.55738
635.31264
635.02487
634.76287
634.55964
634.44264
636.43677
636.41829
636.35627
636.2566
636.12055
635.95727
635.76462
635.52735
635.22441
634.89578
634.57246
634.34797
634.22868
636.41591
636.4127
636.3834
636.31673
636.20691
636.04051
635.81984
635.53926
635.19456
634.80564
634.40066
634.10336
633.94372
636.43121
636.43609
636.41831
636.35956
636.25586
636.08673
635.85894
635.56915
635.21423
634.80159
634.34984
633.91326
633.68055
636.43376
636.43913
636.42351
636.36601
636.26175
636.09118
635.85887
635.56819
635.2189
634.79691
634.32539
633.87632
633.64549
636.41745
636.41587
636.39231
636.33273
636.22437
636.05293
635.82353
635.54132
635.20292
634.79556
634.37461
634.0687
633.90955
636.43365
636.40621
636.35092
636.27065
636.14939
635.97056
635.74453
635.50642
635.2275
634.88367
634.5522
634.3159
634.2014
636.45612
636.42199
636.3486
636.23536
636.08439
635.91665
635.73521
635.53205
635.29466
635.02084
634.75731
634.54056
634.42983
636.43999
636.40544
636.32546
636.20367
636.04069
635.87591
635.71017
635.52742
635.31675
635.08337
634.86023
634.67352
634.56385
)
;
        Tnbr            T;
        thicknessLayers List<scalar> 0();
        kappaLayers     List<scalar> 0();
        kappaMethod     fluidThermo;
        kappa           none;
        alphaAni        none;
        alpha           none;
        field           T;
    }
}


// ************************************************************************* //
