/*--------------------------------*- C++ -*----------------------------------*\
| =========                 |                                                 |
| \\      /  F ield         | OpenFOAM: The Open Source CFD Toolbox           |
|  \\    /   O peration     | Version:  v2012                                 |
|   \\  /    A nd           | Website:  www.openfoam.com                      |
|    \\/     M anipulation  |                                                 |
\*---------------------------------------------------------------------------*/
FoamFile
{
    version     2.0;
    format      ascii;
    class       volVectorField;
    location    "120/topAir";
    object      U;
}
// * * * * * * * * * * * * * * * * * * * * * * * * * * * * * * * * * * * * * //

dimensions      [0 1 -1 0 0 0 0];


internalField   nonuniform List<vector> 
1200
(
(0.10159872 -0.0015037611 0.00085314711)
(0.10962392 -0.0017136383 0.0012793422)
(0.11651747 -0.0017443995 0.0013893235)
(0.12173636 -0.0015230437 0.0013303803)
(0.12621655 -0.0010814129 0.0011332405)
(0.1303878 -0.00052964972 0.00077500348)
(0.13430136 6.4512251e-05 0.00022028702)
(0.13810356 0.00068283146 -0.00054891708)
(0.14197441 0.0013104164 -0.0016415678)
(0.14604779 0.0020098974 -0.0032182457)
(0.15048046 0.0029300689 -0.0054865462)
(0.15531184 0.0042627288 -0.00868954)
(0.16017985 0.0062681869 -0.013074677)
(0.164493 0.0089729684 -0.018818547)
(0.16778876 0.012538785 -0.025889348)
(0.16969534 0.016729946 -0.03397766)
(0.17004975 0.021019181 -0.042515421)
(0.16910215 0.024842056 -0.050806214)
(0.16743011 0.027827251 -0.05822282)
(0.16568361 0.029848813 -0.064351596)
(0.16437108 0.03096852 -0.069017644)
(0.16376406 0.031359859 -0.072243591)
(0.1639146 0.031225132 -0.074171922)
(0.16472501 0.030739599 -0.074963886)
(0.16596512 0.030071568 -0.074707881)
(0.16717196 0.029442076 -0.073358687)
(0.1674145 0.029256816 -0.070693977)
(0.164861 0.030404696 -0.06623747)
(0.15658317 0.034913733 -0.059087116)
(0.11350881 0.048961844 -0.046978183)
(0.098813239 -0.0025452438 0.00085069037)
(0.098607711 -0.0033222108 0.0012908439)
(0.09859586 -0.0035765593 0.0014862096)
(0.098678799 -0.0034217326 0.0015970417)
(0.099050545 -0.0029777136 0.0016609736)
(0.099783396 -0.002407404 0.0016752295)
(0.10083939 -0.0018163782 0.0016331946)
(0.10219911 -0.0012599392 0.0015231863)
(0.1040522 -0.00069754134 0.0013079254)
(0.1066802 4.7026352e-05 0.00089456585)
(0.11036507 0.0013112677 0.00012882867)
(0.11568212 0.0036471394 -0.0011703077)
(0.12276303 0.0077622618 -0.0032756517)
(0.13139388 0.013966764 -0.006519619)
(0.14073077 0.022377326 -0.01114186)
(0.1494488 0.032466106 -0.017062725)
(0.15631272 0.042969647 -0.023794018)
(0.16083352 0.052518588 -0.030634069)
(0.16331343 0.060279022 -0.036971242)
(0.16444447 0.06599267 -0.042414223)
(0.16492592 0.069777565 -0.046756282)
(0.16524942 0.071959866 -0.049923271)
(0.1656491 0.072920838 -0.051918736)
(0.16617668 0.072982074 -0.052774318)
(0.16673892 0.07244659 -0.052463248)
(0.16702057 0.071688563 -0.050813531)
(0.16630812 0.071441525 -0.047358129)
(0.16317334 0.073259848 -0.041005219)
(0.1563745 0.080304437 -0.029495749)
(0.12327593 0.0972019 -0.0084258004)
(0.098972831 -0.0023875385 0.00087201068)
(0.098539046 -0.0034902387 0.0013293347)
(0.097374366 -0.0038631402 0.0015400761)
(0.095687762 -0.0039600908 0.0016710414)
(0.093910238 -0.0039267246 0.0017743301)
(0.092224286 -0.0038235325 0.0018624023)
(0.090639112 -0.0037073164 0.0019480219)
(0.08910669 -0.0036456506 0.0020516226)
(0.087593249 -0.0036085497 0.0022098354)
(0.086141297 -0.0035218261 0.0024673379)
(0.084924166 -0.003299157 0.0028538527)
(0.084336902 -0.0026426495 0.0033283343)
(0.085730739 -0.00050173343 0.0036297533)
(0.090742541 0.0048420105 0.0033717582)
(0.099306133 0.014883396 0.0022625117)
(0.11048684 0.029219665 0.00010130347)
(0.12183979 0.045422199 -0.0026074065)
(0.13173318 0.060666343 -0.0051089121)
(0.13978904 0.07324843 -0.0070973262)
(0.14615495 0.082606301 -0.0086683143)
(0.15108967 0.088838625 -0.010027552)
(0.15483283 0.092342877 -0.011383596)
(0.15753821 0.093602306 -0.012651295)
(0.15928927 0.093125987 -0.013554327)
(0.16004688 0.09139605 -0.013801114)
(0.15961073 0.088904326 -0.012998442)
(0.15756227 0.086380441 -0.010541467)
(0.15303824 0.085345289 -0.0054399373)
(0.14608283 0.089239136 0.004001997)
(0.11576425 0.10428954 0.021172439)
(0.096956149 -0.001399064 0.00083954423)
(0.095035728 -0.0020469829 0.0012601442)
(0.091742201 -0.0022478669 0.0014327734)
(0.087608595 -0.0022886045 0.0015231537)
(0.083391933 -0.0022527022 0.0015862283)
(0.079334527 -0.0021582418 0.0016356266)
(0.075420255 -0.0020277394 0.0016862458)
(0.071592074 -0.0018881106 0.0017625978)
(0.067786364 -0.001751172 0.0019017747)
(0.063905162 -0.0016394167 0.0021610138)
(0.059770631 -0.001653742 0.0026319964)
(0.055080005 -0.002035478 0.0034742625)
(0.0495298 -0.002704372 0.0049664293)
(0.042900927 -0.0025240834 0.0074849799)
(0.037852255 0.0021709215 0.01110596)
(0.038985651 0.014009333 0.015627754)
(0.047314974 0.029790681 0.020390136)
(0.059314718 0.044429548 0.025193973)
(0.072528933 0.056012864 0.029834319)
(0.085574094 0.064400338 0.033993193)
(0.097532711 0.069896016 0.037416437)
(0.10780067 0.072869369 0.040013207)
(0.11611619 0.073663281 0.041719905)
(0.12244958 0.072699826 0.042650487)
(0.12674423 0.070427865 0.04313027)
(0.12884295 0.067355437 0.043620999)
(0.12853532 0.064117494 0.044673578)
(0.12579858 0.061903821 0.04688216)
(0.12393363 0.063673139 0.050577219)
(0.12624131 0.075982006 0.054429051)
(0.10285887 -0.0014945934 0.00104166)
(0.11174899 -0.0017026911 0.0015135909)
(0.11990802 -0.0017850738 0.0016129875)
(0.12652923 -0.0016829616 0.0015258497)
(0.13229323 -0.0014403667 0.0012945011)
(0.13754162 -0.0011723687 0.00090303278)
(0.14233463 -0.00095346715 0.00032267629)
(0.14664484 -0.00084038562 -0.00047904192)
(0.1504445 -0.0008695488 -0.001621511)
(0.15371679 -0.0010855745 -0.0032642301)
(0.15644241 -0.0015536859 -0.005591433)
(0.15858486 -0.0023199651 -0.0088187701)
(0.15993765 -0.0034273205 -0.013149602)
(0.16036919 -0.0051213294 -0.018685899)
(0.16026875 -0.0072093675 -0.025304575)
(0.1601082 -0.0094688219 -0.032608655)
(0.16019488 -0.01155283 -0.040033788)
(0.16065693 -0.013137871 -0.047014265)
(0.16147457 -0.014148007 -0.053126471)
(0.16259116 -0.014740892 -0.058131367)
(0.16397548 -0.015121511 -0.061925851)
(0.16559966 -0.015412297 -0.064535913)
(0.16744955 -0.015630529 -0.066092317)
(0.16956353 -0.015773464 -0.066714577)
(0.17201439 -0.015797385 -0.066409535)
(0.17481287 -0.01554202 -0.0650493)
(0.17777041 -0.014491646 -0.062418921)
(0.1803626 -0.011186218 -0.058236196)
(0.1814019 -0.0019198747 -0.052264052)
(0.16174495 0.023443193 -0.042800119)
(0.1001185 -0.002545082 0.0010949843)
(0.10087633 -0.003344167 0.0016858172)
(0.10228109 -0.003690427 0.0019430491)
(0.10398663 -0.0037151075 0.0020734967)
(0.1059349 -0.0035491834 0.0021347981)
(0.108126 -0.0033599562 0.0021259144)
(0.11050379 -0.0032551738 0.0020369342)
(0.11300687 -0.0033220726 0.0018468975)
(0.11560239 -0.0036311272 0.0015124299)
(0.118278 -0.0042736801 0.00094476016)
(0.12105398 -0.00537635 1.6199074e-05)
(0.12388168 -0.0070262801 -0.0013970853)
(0.12676822 -0.0093013644 -0.0034893772)
(0.12967239 -0.012440024 -0.0064413923)
(0.13260986 -0.016137547 -0.010319554)
(0.13575046 -0.019822593 -0.014969625)
(0.1391906 -0.022590075 -0.019978739)
(0.14282531 -0.023684265 -0.024890851)
(0.14638826 -0.023080251 -0.029385243)
(0.14965594 -0.021346114 -0.033208905)
(0.1525512 -0.019198992 -0.036108585)
(0.15508688 -0.017231573 -0.038006483)
(0.15730798 -0.015634264 -0.039059977)
(0.15930865 -0.014474898 -0.039345049)
(0.1613189 -0.01377501 -0.038669112)
(0.16378836 -0.013442184 -0.036566028)
(0.16771266 -0.013046971 -0.032435224)
(0.17518452 -0.011593567 -0.025357162)
(0.19206903 -0.0069144033 -0.013461858)
(0.24185804 0.008971541 0.00051215563)
(0.10028344 -0.0024134412 0.0011113261)
(0.10081812 -0.0035372098 0.0017203338)
(0.10109788 -0.0039420015 0.0020087876)
(0.10110674 -0.0040990595 0.0021857275)
(0.10103468 -0.0041587729 0.0023195759)
(0.10099716 -0.0041854137 0.0024230165)
(0.10100608 -0.0042357165 0.0025062505)
(0.1010352 -0.0043688184 0.0025852316)
(0.10105998 -0.0046478255 0.0026858287)
(0.10106665 -0.0051555111 0.0028317544)
(0.1010542 -0.0060096677 0.0030198964)
(0.10103883 -0.0073930104 0.0031790503)
(0.10109817 -0.009491028 0.0031857306)
(0.10137106 -0.012505787 0.0030071323)
(0.10218208 -0.016399519 0.0027646327)
(0.10395435 -0.020736638 0.0026938657)
(0.10708012 -0.024317396 0.0034096401)
(0.11172941 -0.02601695 0.0051539086)
(0.11736801 -0.025951099 0.0075520075)
(0.12304506 -0.025003064 0.010342788)
(0.12793769 -0.023934586 0.013497848)
(0.13153025 -0.022505736 0.017374427)
(0.13409415 -0.020460371 0.022054926)
(0.13636723 -0.018318999 0.027000452)
(0.1388066 -0.016271604 0.032319065)
(0.14109514 -0.014856745 0.037579234)
(0.14363274 -0.014083952 0.043259384)
(0.14699715 -0.013686774 0.05003902)
(0.15294683 -0.01306797 0.059422283)
(0.16611847 -0.011343369 0.073843489)
(0.098209901 -0.0014253542 0.0010843383)
(0.097199396 -0.0021002801 0.0016737259)
(0.095278752 -0.0023299385 0.0019465317)
(0.092757786 -0.0024081516 0.0021049291)
(0.09015203 -0.0024204782 0.0022173713)
(0.087641309 -0.0023881942 0.0022990678)
(0.085222033 -0.0023368697 0.0023649253)
(0.082862118 -0.0022974337 0.0024387231)
(0.080533516 -0.0023024166 0.0025541731)
(0.078196769 -0.0023968222 0.0027605475)
(0.075779533 -0.0026604659 0.0031341884)
(0.073148135 -0.0032424726 0.0038035633)
(0.070083577 -0.0043677498 0.0049831402)
(0.066241984 -0.006249251 0.0069588415)
(0.061331682 -0.0085576924 0.010347741)
(0.055738583 -0.0096673142 0.016854267)
(0.051467952 -0.0068616561 0.027985131)
(0.051113962 0.00074685083 0.042797878)
(0.055438943 0.010633448 0.058130286)
(0.062922082 0.019741847 0.071575252)
(0.0716542 0.026755289 0.082423017)
(0.079988035 0.03168191 0.090479823)
(0.087255455 0.033864597 0.095281458)
(0.092999075 0.033866487 0.097866406)
(0.097354805 0.032292635 0.099075461)
(0.10027683 0.029710087 0.099682014)
(0.10164782 0.026528168 0.10036467)
(0.10136123 0.02319677 0.10167686)
(0.10035117 0.020499734 0.10386089)
(0.097808222 0.018945016 0.10575506)
(0.1027362 -0.0015066961 0.00039563046)
(0.1114283 -0.001712034 0.00066934056)
(0.11950613 -0.0017737607 0.00081515825)
(0.1261633 -0.0016319102 0.00088165865)
(0.1320211 -0.0013332188 0.00089832251)
(0.13738702 -0.0010005604 0.00087668044)
(0.14227794 -0.00071449663 0.00082186059)
(0.14665386 -0.00051084559 0.00071953432)
(0.15050419 -0.0003988331 0.00056107079)
(0.15384247 -0.00038780449 0.00033735024)
(0.15664899 -0.00049930154 3.9802932e-05)
(0.15883754 -0.00075314582 -0.00035799993)
(0.1601006 -0.0011659157 -0.00089732527)
(0.16014577 -0.0020881322 -0.0017174946)
(0.15925725 -0.0034631032 -0.0029902799)
(0.15780656 -0.0054264744 -0.0048852259)
(0.15615935 -0.0081137875 -0.0076258929)
(0.15482146 -0.011448317 -0.011407366)
(0.15431083 -0.015011633 -0.016159851)
(0.15488436 -0.01824762 -0.021381775)
(0.15639007 -0.020781696 -0.026253916)
(0.15838125 -0.022635825 -0.030205166)
(0.16049052 -0.024071361 -0.033104267)
(0.162675 -0.025287403 -0.035030832)
(0.16511676 -0.026283918 -0.036074832)
(0.16799862 -0.026871628 -0.036306082)
(0.17136376 -0.026667639 -0.035876642)
(0.17505953 -0.024530975 -0.035062163)
(0.17880469 -0.016526587 -0.034543618)
(0.16780207 0.008708305 -0.035079196)
(0.099996851 -0.0025485781 0.0004008812)
(0.10053562 -0.0033341074 0.00069961402)
(0.10184366 -0.0036454873 0.00087498098)
(0.10358935 -0.0036122331 0.00097318237)
(0.10564151 -0.0033681239 0.0010203284)
(0.10795476 -0.0030867023 0.0010167841)
(0.11044977 -0.0028761446 0.00095284458)
(0.11304293 -0.0027869037 0.00081090176)
(0.11567598 -0.0028412519 0.00056523376)
(0.11831215 -0.0030695145 0.00017801605)
(0.12091702 -0.0035262835 -0.00040235721)
(0.12344599 -0.0042807966 -0.0012726342)
(0.12586761 -0.005412878 -0.0025583124)
(0.12803995 -0.0073556323 -0.0044411197)
(0.12982579 -0.010074325 -0.0071648991)
(0.13125034 -0.013706847 -0.011021149)
(0.13245601 -0.018242387 -0.016225597)
(0.13371027 -0.023176541 -0.022643271)
(0.13529882 -0.027572139 -0.029604558)
(0.13724317 -0.030760214 -0.036057307)
(0.13916666 -0.032533684 -0.040935612)
(0.14045308 -0.033291775 -0.044066374)
(0.14079838 -0.033746844 -0.045892657)
(0.14047981 -0.034354137 -0.04677175)
(0.14007574 -0.035100389 -0.046777579)
(0.14031481 -0.035617423 -0.045782007)
(0.14207416 -0.0355629 -0.043997251)
(0.14752346 -0.034373523 -0.042110121)
(0.16350423 -0.028934264 -0.041950702)
(0.21806792 -0.010973479 -0.046141058)
(0.10016523 -0.0024069087 0.00040655174)
(0.10049095 -0.0035234343 0.00071200043)
(0.10068467 -0.0039097255 0.00090160238)
(0.10074913 -0.0040381822 0.0010214474)
(0.10080994 -0.0040597083 0.0010977621)
(0.10094866 -0.0040347137 0.0011334427)
(0.10117153 -0.0040108453 0.0011244863)
(0.1014505 -0.0040271587 0.0010645687)
(0.10175571 -0.0041187282 0.00094237624)
(0.10206091 -0.0043309128 0.0007350439)
(0.1023358 -0.004733048 0.00039772832)
(0.10253511 -0.0054273366 -0.00015441335)
(0.10259786 -0.0065566435 -0.0010620758)
(0.10245546 -0.0083635967 -0.0025404681)
(0.10194597 -0.01108628 -0.0048759375)
(0.10099151 -0.014982523 -0.0085455255)
(0.099811909 -0.020053114 -0.013767102)
(0.098943302 -0.025522382 -0.019829943)
(0.099036097 -0.030065237 -0.025383704)
(0.10013885 -0.033089585 -0.029292438)
(0.10134461 -0.034520142 -0.030816786)
(0.10130262 -0.034848948 -0.03075456)
(0.099439853 -0.034954616 -0.030250556)
(0.096625491 -0.035474707 -0.029479863)
(0.094249234 -0.036574504 -0.027726422)
(0.094204248 -0.037815846 -0.023234697)
(0.097007932 -0.039280312 -0.015942809)
(0.10366666 -0.041480922 -0.0066869278)
(0.11690879 -0.045222243 0.0036530482)
(0.16435389 -0.050073715 0.011019549)
(0.09809438 -0.0014194575 0.00039677275)
(0.096877969 -0.0020880147 0.00069025885)
(0.094873273 -0.0023087297 0.00086908275)
(0.092409415 -0.0023765448 0.00097929842)
(0.089940024 -0.0023764594 0.0010482703)
(0.087611935 -0.0023277322 0.0010813619)
(0.085418151 -0.0022531642 0.0010781494)
(0.083329673 -0.0021783454 0.001038437)
(0.081323728 -0.0021258925 0.00096124771)
(0.079375625 -0.0021198267 0.00084374127)
(0.07744847 -0.0021946374 0.00068109729)
(0.075482397 -0.0024080174 0.00046764188)
(0.073386509 -0.0028580434 0.00020691795)
(0.071011935 -0.0037151276 -9.8173737e-05)
(0.068083543 -0.0052693522 -0.00041189623)
(0.06427459 -0.0078098446 -0.00038835872)
(0.059521678 -0.011154254 0.001249398)
(0.054610955 -0.013652745 0.0069901687)
(0.051577359 -0.012657946 0.018378813)
(0.052308739 -0.0076491631 0.033972443)
(0.05625493 -0.00060266177 0.050362315)
(0.060946681 0.0063291114 0.064184221)
(0.064920457 0.011480069 0.073433653)
(0.068322071 0.014216385 0.078727966)
(0.071548298 0.014522768 0.081324508)
(0.074509398 0.012652175 0.082350261)
(0.07686375 0.0089567562 0.082620002)
(0.078426971 0.003896256 0.082579637)
(0.080282301 -0.0026730765 0.082791084)
(0.094086334 -0.012554937 0.082005589)
(0.10271067 -0.0015061894 0.00022055455)
(0.11133144 -0.001706918 0.00040745267)
(0.11933322 -0.0017577224 0.00053910929)
(0.1259387 -0.0015948806 0.00062186092)
(0.13177214 -0.001259631 0.00066840407)
(0.13713853 -0.00086850033 0.00068701753)
(0.14206059 -0.00049231213 0.00068228669)
(0.14652721 -0.00015135777 0.00065864613)
(0.15056202 0.00015739708 0.00063068507)
(0.15419956 0.00044554726 0.0006148422)
(0.15745801 0.00073240793 0.000625826)
(0.16031906 0.0010515779 0.00069504221)
(0.16248222 0.0014567827 0.00088565493)
(0.16367546 0.00159685 0.0011421292)
(0.16426251 0.0017116722 0.0014273239)
(0.16465033 0.0017891168 0.0018051199)
(0.1649461 0.0017150362 0.0023040738)
(0.16519167 0.0013203822 0.002818965)
(0.16557024 0.00036348858 0.0031106143)
(0.16649156 -0.0012798594 0.0030373771)
(0.1682154 -0.0031576138 0.0029391577)
(0.1703898 -0.0050112477 0.0031126896)
(0.17256901 -0.0068696902 0.003585513)
(0.17462479 -0.0087438514 0.0043913042)
(0.17655215 -0.010523986 0.0056564704)
(0.17815338 -0.011988358 0.0073899505)
(0.17897954 -0.012663579 0.0089073404)
(0.17826539 -0.010858582 0.0085950662)
(0.17528705 -0.0019053396 0.0041713453)
(0.12934126 0.026985049 -0.0094202192)
(0.099971179 -0.0025479039 0.00022468695)
(0.10042594 -0.0033272394 0.0004256498)
(0.10163037 -0.0036221222 0.00057129895)
(0.10328905 -0.0035564616 0.00066313755)
(0.10527245 -0.0032564368 0.00071131802)
(0.10752423 -0.0028856364 0.00071978845)
(0.10995975 -0.0025367919 0.00068615192)
(0.11249712 -0.0022363127 0.00060443224)
(0.11508217 -0.0019830644 0.00046634265)
(0.11768106 -0.0017702889 0.00025882584)
(0.12026886 -0.0015905526 -3.8624947e-05)
(0.12282599 -0.001433439 -0.00045535885)
(0.12535182 -0.0012679747 -0.0010275235)
(0.12770519 -0.0015255499 -0.001808872)
(0.12977775 -0.0020218034 -0.0029117619)
(0.13156566 -0.0028821449 -0.0045005761)
(0.13306386 -0.0043999647 -0.0068143576)
(0.13429106 -0.006973433 -0.01015281)
(0.135426 -0.011007133 -0.014642519)
(0.1367553 -0.016233465 -0.019605943)
(0.13835378 -0.020469592 -0.023477358)
(0.13934281 -0.023098419 -0.025980197)
(0.1391973 -0.024621963 -0.02754622)
(0.13813355 -0.02561383 -0.028361498)
(0.13646434 -0.026330944 -0.028328845)
(0.13437545 -0.026709463 -0.027485018)
(0.13241818 -0.026252899 -0.026693815)
(0.13228189 -0.023074477 -0.028618277)
(0.14287797 -0.0076066647 -0.04027882)
(0.162349 0.036141071 -0.057346506)
(0.10014065 -0.0024037643 0.00022666779)
(0.10038591 -0.0035168946 0.0004292604)
(0.10047859 -0.0038949025 0.00057988203)
(0.10045567 -0.0040074267 0.00067959093)
(0.10044568 -0.0040030009 0.00073755956)
(0.10052139 -0.0039368696 0.00075734329)
(0.10068483 -0.003847915 0.00073674174)
(0.10090803 -0.0037618086 0.0006702632)
(0.10116208 -0.0036949109 0.00054923856)
(0.10142085 -0.0036636833 0.00035965585)
(0.10165406 -0.003691726 7.8358015e-05)
(0.10182639 -0.0038183028 -0.00033169324)
(0.10190688 -0.0040907568 -0.00093377692)
(0.10181288 -0.0046605142 -0.0017926466)
(0.10137943 -0.0056461709 -0.0030413188)
(0.10041431 -0.0072777946 -0.0048785033)
(0.09872067 -0.009954733 -0.0076499793)
(0.096205454 -0.014249055 -0.011808129)
(0.093202598 -0.020694728 -0.017288572)
(0.090043604 -0.028702557 -0.022138766)
(0.087162601 -0.033423505 -0.023106323)
(0.083465359 -0.034802707 -0.021195513)
(0.077820872 -0.034536598 -0.019044658)
(0.071079071 -0.034286911 -0.017322634)
(0.064254287 -0.034777343 -0.015378719)
(0.058230859 -0.036109284 -0.012435016)
(0.053192961 -0.038508845 -0.0072687633)
(0.052145688 -0.04160658 -0.0052794879)
(0.061431197 -0.034963166 -0.021746961)
(0.11198441 0.0032273747 -0.061820446)
(0.098070131 -0.0014208525 0.0002210321)
(0.096775244 -0.0020912406 0.00041604246)
(0.094672181 -0.0023116229 0.00055900951)
(0.092123122 -0.0023759857 0.00065123243)
(0.089585487 -0.0023685859 0.00070215983)
(0.087197539 -0.0023067273 0.0007163946)
(0.084947042 -0.0022101838 0.00069323875)
(0.082802921 -0.0021001289 0.00062919271)
(0.080740228 -0.0019925894 0.00051827582)
(0.078731013 -0.0019005404 0.00035092444)
(0.076735039 -0.0018389425 0.00011273878)
(0.074705413 -0.0018301501 -0.00021442949)
(0.072577811 -0.0019073291 -0.00065616415)
(0.070231879 -0.0021521442 -0.0012434137)
(0.067466963 -0.0026895565 -0.0020108395)
(0.063996464 -0.0037318899 -0.0029924219)
(0.059505576 -0.0056729015 -0.0042994891)
(0.053799043 -0.0091915268 -0.0061561377)
(0.04706062 -0.014998765 -0.0079848474)
(0.039634 -0.021968404 -0.0077824339)
(0.033343448 -0.022023736 0.0005776648)
(0.033178699 -0.017165872 0.018597124)
(0.031969766 -0.010701775 0.03372218)
(0.032289897 -0.006468638 0.042150381)
(0.033827811 -0.0053693131 0.0453807)
(0.035332478 -0.0069350701 0.04561893)
(0.035671168 -0.010686678 0.044139896)
(0.034940275 -0.01658416 0.03953298)
(0.029674174 -0.023652091 0.022433696)
(0.075415065 -0.0013124868 -0.035245807)
(0.10269672 -0.0015080615 6.4200327e-05)
(0.11128211 -0.0017098013 0.00011786677)
(0.11924399 -0.0017604244 0.00015413511)
(0.12581965 -0.0015954202 0.00017470541)
(0.13163738 -0.0012549571 0.0001842668)
(0.13700048 -0.00085520344 0.00018673281)
(0.14193034 -0.00046700965 0.00018475388)
(0.14641672 -0.00011075378 0.00018048855)
(0.15048381 0.00021630064 0.00017620803)
(0.15416801 0.00052620049 0.0001733717)
(0.15750218 0.00083789764 0.00017423036)
(0.16050461 0.0011778347 0.00018956862)
(0.16271871 0.0016521743 0.00024530371)
(0.16384164 0.0018001296 0.00028265873)
(0.16436796 0.0019701643 0.00025995192)
(0.16484126 0.0022187929 0.00019081117)
(0.16548739 0.0025308189 0.00010254105)
(0.16656438 0.0028641087 4.7431535e-05)
(0.16852114 0.0029680854 0.00014734136)
(0.1718711 0.0028794907 0.00057290675)
(0.1767318 0.0036350562 0.0015660585)
(0.18217854 0.0049361919 0.0030852632)
(0.18765881 0.0062542039 0.0049355401)
(0.19341639 0.0075750098 0.0070945132)
(0.19956361 0.0092381242 0.0097040278)
(0.20460985 0.011704537 0.012703223)
(0.20561487 0.01539912 0.015543808)
(0.19796955 0.022154996 0.016717671)
(0.17684344 0.036222098 0.013296773)
(0.071268823 0.070877314 0.0011238326)
(0.099956024 -0.0025493163 6.4542067e-05)
(0.1003673 -0.0033285972 0.00012100775)
(0.10151677 -0.00362082 0.00015930427)
(0.10312745 -0.0035486135 0.00017947308)
(0.10507378 -0.0032366021 0.00018525621)
(0.10729478 -0.0028473814 0.0001790897)
(0.10970127 -0.0024726696 0.00016116998)
(0.11220899 -0.002137257 0.00013020027)
(0.11476215 -0.0018380484 8.3694408e-05)
(0.11732649 -0.0015654855 1.7625553e-05)
(0.11987811 -0.001310723 -7.3052764e-05)
(0.12240617 -0.0010603559 -0.000194694)
(0.12507399 -0.00060415174 -0.00035241986)
(0.12761373 -0.00051376418 -0.00054612089)
(0.12989623 -0.00046075829 -0.00081464752)
(0.13195934 -0.00045723352 -0.0012129727)
(0.13384389 -0.00070228685 -0.0018146164)
(0.13560254 -0.001657143 -0.0027146199)
(0.13754492 -0.0042342846 -0.0039888829)
(0.14007457 -0.0080858598 -0.0054615521)
(0.14366773 -0.0087159786 -0.0065752606)
(0.14606629 -0.0083056658 -0.0077063172)
(0.14683625 -0.0081985522 -0.0091420216)
(0.14697616 -0.0081841379 -0.010641162)
(0.14746781 -0.0073109539 -0.011608209)
(0.15005602 -0.003284252 -0.011320685)
(0.15634327 0.0074921876 -0.010135647)
(0.15815537 0.025492264 -0.0095591443)
(0.15262638 0.054349963 -0.013125999)
(0.090764314 0.10419779 -0.025265157)
(0.10012572 -0.0024029695 6.4808286e-05)
(0.10032845 -0.0035154797 0.00012134)
(0.10036622 -0.0038909691 0.00016052519)
(0.10029327 -0.0039980573 0.0001821279)
(0.10024212 -0.0039847279 0.00018939907)
(0.10028105 -0.0039052406 0.000184249)
(0.10040747 -0.0037967671 0.00016633597)
(0.10059037 -0.0036824069 0.00013374273)
(0.10079751 -0.0035749355 8.3073757e-05)
(0.10099727 -0.0034859401 8.7256399e-06)
(0.10115057 -0.003433453 -9.8608092e-05)
(0.1011964 -0.0034394961 -0.00025437074)
(0.10111251 -0.0034004182 -0.00049488388)
(0.10085011 -0.0034839759 -0.00084973229)
(0.10024692 -0.0037412646 -0.0013666055)
(0.099123423 -0.0043100879 -0.0021237451)
(0.097296374 -0.0055549996 -0.003239898)
(0.094633583 -0.0083205272 -0.0048839133)
(0.09140474 -0.014269314 -0.0072448164)
(0.085943991 -0.023562068 -0.010172123)
(0.081753361 -0.022404973 -0.011282587)
(0.073490582 -0.020310942 -0.012063221)
(0.061739974 -0.019925702 -0.013466431)
(0.049779737 -0.021044594 -0.014844776)
(0.039537656 -0.022583664 -0.015356423)
(0.033930374 -0.022155042 -0.014619253)
(0.028118967 -0.015953867 -0.011917677)
(0.051206277 0.0052982479 -0.011889913)
(0.071175133 0.046369379 -0.021245038)
(0.049332913 0.10525953 -0.039976114)
(0.098055396 -0.0014203832 6.3201762e-05)
(0.096718751 -0.0020901749 0.00011751268)
(0.094561593 -0.0023089794 0.00015439419)
(0.091962525 -0.0023705413 0.00017361796)
(0.089383195 -0.0023591059 0.00017838781)
(0.086957195 -0.0022915536 0.00017073287)
(0.084666628 -0.0021869196 0.00015044215)
(0.082475786 -0.0020653926 0.00011563333)
(0.080354418 -0.0019415752 6.2845167e-05)
(0.078267812 -0.0018260133 -1.3564062e-05)
(0.076171038 -0.0017279316 -0.00012186669)
(0.073994482 -0.0016537612 -0.00027131408)
(0.071644612 -0.0015994491 -0.00048948094)
(0.069000795 -0.0016242951 -0.00080926402)
(0.065860384 -0.0017989875 -0.0012672947)
(0.061900966 -0.0022403422 -0.0019163507)
(0.056598106 -0.0032367738 -0.0028553815)
(0.048924559 -0.0055861297 -0.0043751185)
(0.037167262 -0.011591832 -0.0074222414)
(0.016148968 -0.023328588 -0.013488544)
(-0.024541127 -0.010935256 -0.012390491)
(-0.028881526 -0.0092855016 -0.00099415675)
(-0.031369702 -0.0100283 0.0070396874)
(-0.030926992 -0.011123516 0.01002661)
(-0.030958326 -0.012826445 0.0088066)
(-0.034222421 -0.014159108 0.0043286725)
(-0.041548253 -0.012571926 -0.0033311025)
(-0.048457774 0.00072491247 -0.015666107)
(-0.033592722 0.03764289 -0.033520259)
(0.012714966 0.09441692 -0.057320496)
(0.10269674 -0.0015080517 -6.4224881e-05)
(0.1112822 -0.0017097606 -0.00011774171)
(0.11924417 -0.0017603237 -0.0001536418)
(0.12581995 -0.0015952287 -0.00017365753)
(0.13163781 -0.001254648 -0.00018253842)
(0.137001 -0.00085475205 -0.00018430234)
(0.1419309 -0.0004664103 -0.00018172341)
(0.14641728 -0.00010998281 -0.00017703272)
(0.15048422 0.00021731673 -0.00017250624)
(0.15416782 0.00052746843 -0.00016969411)
(0.15750059 0.00083932774 -0.00017114313)
(0.16050021 0.0011794539 -0.00018800227)
(0.16270924 0.0016539978 -0.00024666541)
(0.16382304 0.0018020265 -0.00028943031)
(0.16433414 0.001971314 -0.00027622933)
(0.16478536 0.0022158166 -0.00022273295)
(0.16541213 0.0025121342 -0.00015730052)
(0.16653476 0.0027912167 -0.00012489081)
(0.16860365 0.0028215416 -0.00019250588)
(0.17213998 0.0028320614 -0.00049128453)
(0.17715539 0.0037485597 -0.0012901145)
(0.18269178 0.0051692491 -0.0026046345)
(0.18828921 0.0065692641 -0.0042453321)
(0.19426032 0.0079439639 -0.0061528994)
(0.20047235 0.0096842058 -0.0083691312)
(0.20550779 0.012324348 -0.010922604)
(0.2064138 0.016271198 -0.013325366)
(0.19845905 0.023414983 -0.014209302)
(0.17678606 0.037768103 -0.01088914)
(0.069609354 0.07231213 0.00063532814)
(0.099956014 -0.0025493038 -6.4615224e-05)
(0.10036727 -0.0033285474 -0.00012097613)
(0.10151671 -0.003620697 -0.00015899168)
(0.10312738 -0.003548379 -0.0001788049)
(0.10507371 -0.0032362273 -0.00018425204)
(0.10729471 -0.0028468431 -0.00017785152)
(0.10970113 -0.0024719696 -0.00015985931)
(0.11220865 -0.002136383 -0.0001290326)
(0.11476138 -0.0018369403 -8.2940149e-05)
(0.11732492 -0.0015641591 -1.761001e-05)
(0.11987506 -0.0013093795 7.1841975e-05)
(0.12240064 -0.0010588942 0.00019140043)
(0.1250636 -0.00060280168 0.00034558444)
(0.12759439 -0.000513727 0.00053338251)
(0.12986154 -0.00046617048 0.0007925125)
(0.13190089 -0.0004815117 0.0011777279)
(0.13375597 -0.00078667035 0.0017673734)
(0.13548332 -0.001919601 0.0026799864)
(0.13755171 -0.004672839 0.0040416195)
(0.14039257 -0.0080173027 0.0057542669)
(0.14420464 -0.0082043533 0.0071038105)
(0.14669568 -0.007635729 0.0083620252)
(0.14758831 -0.0075092694 0.0098509772)
(0.14788078 -0.0075537453 0.011411345)
(0.14882849 -0.0065268974 0.012467086)
(0.15186289 -0.0022291261 0.012395659)
(0.15859743 0.0089091753 0.011427037)
(0.15992748 0.027242115 0.011003345)
(0.15333173 0.056492077 0.014186054)
(0.088363987 0.10668619 0.025402307)
(0.10012571 -0.0024029647 -6.4888316e-05)
(0.10032842 -0.0035154642 -0.0001213178)
(0.10036617 -0.0038909329 -0.00016021279)
(0.10029319 -0.0039979901 -0.00018144383)
(0.10024201 -0.0039846261 -0.00018838425)
(0.10028088 -0.0039051064 -0.00018305768)
(0.10040714 -0.0037966132 -0.00016520394)
(0.10058968 -0.0036822586 -0.00013297346)
(0.10079615 -0.0035748261 -8.3056575e-05)
(0.10099463 -0.0034859409 -9.9754608e-06)
(0.10114551 -0.0034337751 9.5251932e-05)
(0.10118674 -0.0034402697 0.00024743308)
(0.10109425 -0.0034024255 0.00048180859)
(0.10081627 -0.0034897709 0.00082630122)
(0.10018546 -0.0037582189 0.0013260189)
(0.099015915 -0.004359468 0.0020560956)
(0.097125498 -0.005698391 0.0031349723)
(0.094412157 -0.0087282008 0.0047492713)
(0.091203641 -0.015084607 0.0071676928)
(0.085843947 -0.022986548 0.010437604)
(0.082250362 -0.021302064 0.011765845)
(0.073784675 -0.019259064 0.012543331)
(0.062055891 -0.019098799 0.013961451)
(0.050104231 -0.020504183 0.015577882)
(0.039890291 -0.022052688 0.016646897)
(0.034511303 -0.021539793 0.016699945)
(0.029052191 -0.015086235 0.014827207)
(0.053944482 0.0078988245 0.014696309)
(0.074055983 0.049929368 0.02298423)
(0.051133239 0.10858849 0.040250731)
(0.098055389 -0.0014203816 -6.3285996e-05)
(0.096718728 -0.0020901702 -0.00011750293)
(0.094561552 -0.0023089686 -0.0001541002)
(0.091962464 -0.0023705209 -0.00017295606)
(0.0893831 -0.0023590735 -0.00017740599)
(0.086957014 -0.0022915086 -0.00016960273)
(0.084666231 -0.0021868654 -0.00014942469)
(0.082474925 -0.0020653396 -0.00011506677)
(0.080352668 -0.0019415357 -6.3174253e-05)
(0.078264325 -0.0018260256 1.1691658e-05)
(0.076164226 -0.0017280885 0.00011730917)
(0.073981062 -0.0016542408 0.00026197565)
(0.071617919 -0.0016008191 0.00047143413)
(0.068947638 -0.0016282933 0.0007750407)
(0.065753877 -0.0018107139 0.0012030999)
(0.061684591 -0.0022751234 0.0017960457)
(0.05614777 -0.0033444811 0.0026289861)
(0.047964076 -0.0059447895 0.0039515965)
(0.035646704 -0.012569947 0.0066767189)
(0.011097129 -0.022094827 0.012924673)
(-0.026483825 -0.0093292868 0.011455635)
(-0.030977578 -0.0086836828 0.00058701133)
(-0.032926049 -0.0097778175 -0.0059843355)
(-0.031884682 -0.011209215 -0.0072978236)
(-0.030875928 -0.013253186 -0.0047487905)
(-0.032549008 -0.015247654 0.00034236259)
(-0.038208245 -0.014782545 0.0080473363)
(-0.043715694 -0.0023908439 0.019952374)
(-0.027230982 0.036641882 0.03732254)
(0.029650226 0.094665288 0.060865385)
(0.10271069 -0.001506207 -0.00022059358)
(0.11133154 -0.0017069443 -0.00040745903)
(0.11933348 -0.0017577224 -0.00053898527)
(0.12593919 -0.0015947897 -0.0006215075)
(0.13177285 -0.0012593908 -0.00066772779)
(0.13713937 -0.00086807165 -0.00068602587)
(0.14206147 -0.00049166912 -0.0006811475)
(0.14652819 -0.00015043243 -0.00065761325)
(0.1505632 0.00015873809 -0.00063007435)