/*--------------------------------*- C++ -*----------------------------------*\
| =========                 |                                                 |
| \\      /  F ield         | OpenFOAM: The Open Source CFD Toolbox           |
|  \\    /   O peration     | Version:  v2012                                 |
|   \\  /    A nd           | Website:  www.openfoam.com                      |
|    \\/     M anipulation  |                                                 |
\*---------------------------------------------------------------------------*/
FoamFile
{
    version     2.0;
    format      ascii;
    class       volScalarField;
    location    "350/rightSolid";
    object      T;
}
// * * * * * * * * * * * * * * * * * * * * * * * * * * * * * * * * * * * * * //

dimensions      [0 0 0 1 0 0 0];


internalField   nonuniform List<scalar> 
130
(
743.33922
751.07745
759.1614
767.16754
774.80124
781.84888
788.18082
793.72236
798.4321
802.24449
805.12532
807.05679
808.02644
737.63654
746.67597
755.8948
764.81559
773.13951
780.68879
787.3714
793.1538
798.01772
801.92782
804.87377
806.84637
807.83531
726.13176
738.1712
749.83882
760.6059
770.25572
778.72066
786.02213
792.2141
797.33672
801.41115
804.46215
806.50221
807.52547
708.94924
726.6392
742.24526
755.62293
766.97575
776.55618
784.57218
791.21202
796.61114
800.85614
804.0117
806.11778
807.17318
688.61845
715.60122
735.87797
751.75874
764.5342
774.96462
783.4917
790.43971
796.02436
800.38459
803.61611
805.76601
806.83709
688.27914
715.25609
735.55009
751.45644
764.26466
774.70144
783.23257
790.17662
795.75212
800.1063
803.33812
805.48867
806.55483
707.9813
725.69499
741.34642
754.78331
766.20609
775.83325
783.86783
790.49761
795.86639
800.08428
803.22553
805.31428
806.35084
724.72826
736.83286
748.56974
759.41011
769.13424
777.65116
784.97819
791.15094
796.22986
800.25543
803.25089
805.24088
806.23452
735.96277
745.10501
754.41805
763.42948
771.82821
779.41235
786.10648
791.86979
796.67593
800.50693
803.37096
805.27762
806.23159
741.58353
749.43656
757.61584
765.71597
773.42092
780.49679
786.82776
792.34372
796.97524
800.68944
803.47639
805.33611
806.2682
)
;

boundaryField
{
    maxX
    {
        type            zeroGradient;
    }
    minZ
    {
        type            zeroGradient;
    }
    maxZ
    {
        type            zeroGradient;
    }
    rightSolid_to_bottomWater
    {
        type            compressible::turbulentTemperatureCoupledBaffleMixed;
        refValue        nonuniform List<scalar> 
130
(
955.70471
957.24463
958.06327
956.05617
955.57684
954.2983
953.11171
952.232
956.40477
958.94366
960.53132
961.67018
962.21558
956.41071
957.13025
957.29711
955.93689
954.99705
954.22059
952.78619
952.9323
956.60908
958.43383
960.4178
962.05351
962.51872
952.26143
953.44964
954.1368
954.46038
955.54171
954.10364
952.5102
953.46008
956.10333
957.65245
959.54679
962.10048
963.40393
949.86643
950.55039
950.79153
950.90374
951.29104
953.07796
952.34745
952.97163
954.84332
955.91247
956.80762
959.73789
961.4933
941.90086
944.19246
943.95693
943.79557
944.39986
949.21244
949.04065
949.51073
951.21241
952.35775
954.7743
958.4498
959.42931
931.9171
935.77146
937.52715
938.73204
944.45473
946.039
946.32671
946.50257
947.39681
948.69327
952.56668
957.66975
957.82403
928.55457
933.21346
935.08583
937.46669
943.7676
948.18847
948.59588
948.83864
948.36975
948.82483
952.64381
956.41018
956.3126
933.93185
937.44559
938.8396
940.51419
945.37958
946.12422
948.01381
947.4819
949.01824
951.83427
952.51045
953.28751
953.67744
938.22651
940.74665
942.29092
943.9638
946.6743
945.01887
945.09671
947.84298
951.29505
951.90536
952.16178
952.39683
952.62178
943.45897
944.3253
945.03869
946.53758
948.84609
947.26601
946.40601
949.7064
951.14312
951.74019
951.87076
952.11288
952.54008
)
;
        refGradient     uniform 0;
        valueFraction   nonuniform List<scalar> 
130
(
0.0075140686
0.0075140686
0.0075140686
0.0075140686
0.0075140686
0.0075140686
0.0075140686
0.0075140686
0.0075140686
0.0075140686
0.0075140686
0.0075140686
0.0075140686
0.0075140686
0.0075140686
0.0075140686
0.0075140686
0.0075140686
0.0075140686
0.0075140686
0.0075140686
0.0075140686
0.0075140686
0.0075140686
0.0075140686
0.0075140686
0.0075140686
0.0075140686
0.0075140686
0.0075140686
0.0075140686
0.0075140686
0.0075140686
0.0075140686
0.0075140686
0.0075140686
0.0075140686
0.0075140686
0.0075140686
0.0075140686
0.0075140686
0.0075140686
0.0075140686
0.0075140686
0.0075140686
0.0075140686
0.0075140686
0.0075140686
0.0075140686
0.0075140686
0.0075140686
0.0075140686
0.0075140686
0.0075140686
0.0075140686
0.0075140686
0.0075140686
0.0075140686
0.0075140686
0.0075140686
0.0075140686
0.0075140686
0.0075140686
0.0075140686
0.0075140686
0.0075140686
0.0075140686
0.0075140686
0.0075140686
0.0075140686
0.0075140686
0.0075140686
0.0075140686
0.0075140686
0.0075140686
0.0075140686
0.0075140686
0.0075140686
0.0075140686
0.0075140686
0.0075140686
0.0075140686
0.0075140686
0.0075140686
0.0075140686
0.0075140686
0.0075140686
0.0075140686
0.0075140686
0.0075140686
0.0075140686
0.0075140686
0.0075140686
0.0075140686
0.0075140686
0.0075140686
0.0075140686
0.0075140686
0.0075140686
0.0075140686
0.0075140686
0.0075140686
0.0075140686
0.0075140686
0.0075140686
0.0075140686
0.0075140686
0.0075140686
0.0075140686
0.0075140686
0.0075140686
0.0075140686
0.0075140686
0.0075140686
0.0075140686
0.0075140686
0.0075140686
0.0075140686
0.0075140686
0.0075140686
0.0075140686
0.0075140686
0.0075140686
0.0075140686
0.0075140686
0.0075140686
0.0075140686
0.0075140686
0.0075140686
0.0075140686
)
;
        value           nonuniform List<scalar> 
130
(
744.9328
752.62446
760.65383
768.58471
776.15743
783.1425
789.41795
794.91125
799.61699
803.41983
806.29096
808.21649
809.18295
739.27835
748.25524
757.40602
766.24955
774.50384
781.99055
788.61218
794.35224
799.20726
803.10171
806.04044
808.01051
808.99552
727.82895
739.78681
751.37187
762.06045
771.64586
780.03638
787.27101
793.4236
798.52759
802.58304
805.62534
807.66927
808.69463
710.75771
728.31982
743.81035
757.08829
768.35867
777.88053
785.8308
792.4254
797.798
802.01911
805.15767
807.26994
808.3306
690.52005
717.31716
737.43967
753.19982
765.88377
776.27194
784.73363
791.63293
797.18835
801.5244
804.74976
806.91113
807.98152
690.10838
716.91145
737.06603
752.86181
765.61669
775.98691
784.45606
791.34921
796.8895
801.22066
804.45727
806.63
807.6893
709.6372
727.25272
742.80051
756.15421
767.5384
777.12639
785.10362
791.68535
797.01023
801.19981
804.34611
806.44745
807.47547
726.29869
738.33867
749.99774
760.76914
770.45667
778.91514
786.20128
792.3236
797.37585
801.39229
804.37028
806.35113
807.34023
737.48103
746.57344
755.82804
764.78424
773.14016
780.6548
787.29918
793.03976
797.83567
801.64243
804.48683
806.38091
807.32938
743.09889
750.89936
759.02247
767.07293
774.73726
781.74801
788.02487
793.52412
798.13158
801.82232
804.58927
806.43681
807.36509
)
;
        Tnbr            T;
        thicknessLayers List<scalar> 0();
        kappaLayers     List<scalar> 0();
        kappaMethod     solidThermo;
        kappa           none;
        alphaAni        none;
        alpha           none;
        field           T;
    }
    rightSolid_to_topAir
    {
        type            compressible::turbulentTemperatureCoupledBaffleMixed;
        refValue        nonuniform List<scalar> 
130
(
486.21324
480.35349
475.08123
470.71091
467.33773
464.94258
463.47401
462.89257
463.19509
464.45644
466.91541
471.12782
477.87762
436.34715
430.96626
427.45972
425.27944
423.98279
423.32103
423.22738
423.73816
424.93299
426.98661
430.34104
435.99902
445.02586
441.94944
432.66456
425.02075
418.9315
414.21428
410.78223
408.67015
407.9343
408.53883
410.3744
413.46632
418.63351
428.73777
489.26349
489.88472
489.99208
489.14835
487.1689
484.15744
480.42223
476.35468
472.70947
471.02116
473.61887
480.78581
491.12335
492.83785
497.30977
501.9955
506.60482
510.84911
514.44767
517.16493
518.88587
519.75296
520.34129
521.74496
525.41802
533.19196
494.3624
498.61466
503.09356
507.46908
511.43723
514.763
517.30225
519.02702
520.11084
521.1248
523.10543
527.36534
535.75786
489.71442
491.01903
491.27116
490.06436
487.53086
484.24032
480.72911
477.29354
474.45132
473.82597
477.52671
484.0974
494.41548
440.44344
432.23473
425.2324
419.42067
414.84833
411.65941
409.97279
409.77091
410.89768
413.204
416.75641
422.65174
433.90262
432.80935
427.65921
424.41567
422.45671
421.35276
420.91847
421.13703
422.04631
423.70271
426.24141
430.05559
436.20877
445.87737
484.38729
478.4217
473.10722
468.74023
465.41233
463.11659
461.81663
461.47467
462.07441
463.66741
466.46022
470.99305
478.05243
)
;
        refGradient     uniform 0;
        valueFraction   nonuniform List<scalar> 
130
(
0.00032132529
0.00032132529
0.00032132529
0.00032132529
0.00032132529
0.00032132529
0.00032132529
0.00032132529
0.00032132529
0.00032132529
0.00032132529
0.00032132529
0.00032132529
0.00032132529
0.00032132529
0.00032132529
0.00032132529
0.00032132529
0.00032132529
0.00032132529
0.00032132529
0.00032132529
0.00032132529
0.00032132529
0.00032132529
0.00032132529
0.00032132529
0.00032132529
0.00032132529
0.00032132529
0.00032132529
0.00032132529
0.00032132529
0.00032132529
0.00032132529
0.00032132529
0.00032132529
0.00032132529
0.00032132529
0.00032132529
0.00032132529
0.00032132529
0.00032132529
0.00032132529
0.00032132529
0.00032132529
0.00032132529
0.00032132529
0.00032132529
0.00032132529
0.00032132529
0.00032132529
0.00032132529
0.00032132529
0.00032132529
0.00032132529
0.00032132529
0.00032132529
0.00032132529
0.00032132529
0.00032132529
0.00032132529
0.00032132529
0.00032132529
0.00032132529
0.00032132529
0.00032132529
0.00032132529
0.00032132529
0.00032132529
0.00032132529
0.00032132529
0.00032132529
0.00032132529
0.00032132529
0.00032132529
0.00032132529
0.00032132529
0.00032132529
0.00032132529
0.00032132529
0.00032132529
0.00032132529
0.00032132529
0.00032132529
0.00032132529
0.00032132529
0.00032132529
0.00032132529
0.00032132529
0.00032132529
0.00032132529
0.00032132529
0.00032132529
0.00032132529
0.00032132529
0.00032132529
0.00032132529
0.00032132529
0.00032132529
0.00032132529
0.00032132529
0.00032132529
0.00032132529
0.00032132529
0.00032132529
0.00032132529
0.00032132529
0.00032132529
0.00032132529
0.00032132529
0.00032132529
0.00032132529
0.00032132529
0.00032132529
0.00032132529
0.00032132529
0.00032132529
0.00032132529
0.00032132529
0.00032132529
0.00032132529
0.00032132529
0.00032132529
0.00032132529
0.00032132529
0.00032132529
0.00032132529
0.00032132529
0.00032132529
)
;
        value           nonuniform List<scalar> 
130
(
743.25444
750.9883
759.06797
767.07011
774.70026
781.74486
788.07429
793.61388
798.32224
802.13383
805.01454
806.94675
807.91826
737.53764
746.57241
755.78712
764.70433
773.02514
780.57177
787.25222
793.03294
797.8957
801.80522
804.75131
806.72509
807.71662
726.03847
738.07101
749.73237
760.49401
770.13918
778.6003
785.89874
792.08849
797.20966
801.28336
804.33437
806.37544
807.40162
708.87684
726.56124
742.16225
755.5353
766.88379
776.46016
784.47238
791.10874
796.50494
800.74801
803.90337
806.01107
807.06946
688.55395
715.52936
735.80099
751.67805
764.45071
774.8789
783.40409
790.35039
795.93347
800.29246
803.52336
805.67376
806.74699
688.21534
715.18486
735.47365
751.37619
764.18148
774.61593
783.14509
790.08743
795.66144
800.01451
803.24589
805.39712
806.46562
707.90965
725.618
741.26437
754.69644
766.11464
775.73759
783.76842
790.39491
795.76101
799.97731
803.1187
805.20887
806.2484
724.63536
736.73336
748.46413
759.29905
769.0185
777.5316
784.8557
791.02636
796.10395
800.12893
803.12453
805.11575
806.11268
735.86378
745.00136
754.3103
763.31812
771.71373
779.29522
785.98723
791.74892
796.55399
800.38454
803.24884
805.15683
806.11358
741.49933
749.34786
757.52273
765.61878
773.32012
780.3929
786.72134
792.23535
796.86552
800.579
803.36592
805.22647
806.16051
)
;
        Tnbr            T;
        thicknessLayers List<scalar> 0();
        kappaLayers     List<scalar> 0();
        kappaMethod     solidThermo;
        kappa           none;
        alphaAni        none;
        alpha           none;
        field           T;
    }
    rightSolid_to_heater
    {
        type            compressible::turbulentTemperatureCoupledBaffleMixed;
        refValue        nonuniform List<scalar> 10(736.45581 729.43468 714.76735 690.59482 650.50343 650.22733 689.67037 713.31944 727.64781 734.53983);
        refGradient     uniform 0;
        valueFraction   nonuniform List<scalar> 10(0.50000003 0.50000003 0.50000003 0.50000003 0.50000003 0.50000003 0.50000003 0.50000003 0.50000003 0.50000003);
        value           nonuniform List<scalar> 10(739.89643 733.53456 720.44857 699.77112 669.56014 669.25249 698.82508 719.02307 731.8045 738.0609);
        Tnbr            T;
        thicknessLayers List<scalar> 0();
        kappaLayers     List<scalar> 0();
        kappaMethod     solidThermo;
        kappa           none;
        alphaAni        none;
        alpha           none;
        field           T;
    }
}


// ************************************************************************* //
