/*--------------------------------*- C++ -*----------------------------------*\
| =========                 |                                                 |
| \\      /  F ield         | OpenFOAM: The Open Source CFD Toolbox           |
|  \\    /   O peration     | Version:  v2012                                 |
|   \\  /    A nd           | Website:  www.openfoam.com                      |
|    \\/     M anipulation  |                                                 |
\*---------------------------------------------------------------------------*/
FoamFile
{
    version     2.0;
    format      ascii;
    class       volScalarField;
    location    "220/leftSolid";
    object      T;
}
// * * * * * * * * * * * * * * * * * * * * * * * * * * * * * * * * * * * * * //

dimensions      [0 0 0 1 0 0 0];


internalField   nonuniform List<scalar> 
130
(
774.96871
774.93271
774.85082
774.72057
774.54479
774.33144
774.08744
773.81387
773.5151
773.2272
772.97155
772.77792
772.66993
775.05197
775.01966
774.94407
774.82106
774.64849
774.43229
774.18496
773.90115
773.57802
773.24571
772.94613
772.72256
772.59975
775.15567
775.12246
775.04806
774.92607
774.74867
774.52195
774.24675
773.92263
773.57124
773.21944
772.86332
772.61762
772.47636
775.24096
775.19728
775.11081
774.96914
774.77535
774.53357
774.23875
773.88744
773.5001
773.1349
772.80341
772.55207
772.3787
775.25041
775.1977
775.09298
774.93886
774.73283
774.47812
774.172
773.80938
773.40865
773.0491
772.73261
772.46776
772.28472
775.17396
775.11936
775.0246
774.87424
774.66046
774.3937
774.07142
773.68671
773.3
772.96501
772.68266
772.45891
772.31683
775.07777
775.0292
774.9454
774.79162
774.57843
774.3214
774.01417
773.65344
773.32324
773.04068
772.80324
772.63153
772.53475
774.92683
774.89657
774.81672
774.68517
774.50087
774.27833
774.01412
773.71605
773.42601
773.17796
772.97505
772.83179
772.75521
774.78529
774.75819
774.68654
774.57241
774.42217
774.24663
774.03238
773.78898
773.53659
773.29528
773.0872
772.93733
772.85819
774.68577
774.66455
774.60323
774.50591
774.37771
774.22244
774.04489
773.84652
773.61392
773.39034
773.18632
773.02438
772.92823
)
;

boundaryField
{
    minX
    {
        type            zeroGradient;
    }
    minZ
    {
        type            zeroGradient;
    }
    maxZ
    {
        type            zeroGradient;
    }
    leftSolid_to_bottomWater
    {
        type            compressible::turbulentTemperatureCoupledBaffleMixed;
        refValue        nonuniform List<scalar> 
130
(
985.50075
985.70418
985.14141
984.05877
982.59703
981.3736
980.84567
980.23066
976.87729
976.02504
974.32804
972.61674
970.79718
988.15815
988.70654
988.68331
988.65879
987.83961
986.27179
987.15044
987.95696
984.23265
978.82076
974.82349
971.61705
969.40909
990.27103
990.63624
991.03809
991.97582
991.15213
990.41864
989.16129
985.5204
982.68969
982.45768
967.67187
967.72034
964.79296
994.16737
993.18942
993.77182
992.20557
990.63815
989.9771
988.8279
985.04197
978.08186
976.00998
972.05102
973.91187
963.42104
996.34942
995.16518
992.63537
990.94877
989.11211
988.02538
987.38033
984.53815
974.64039
972.40759
969.39533
963.94725
951.58046
992.68313
989.83609
990.38427
990.65815
988.14979
986.47451
984.86217
975.73618
967.54529
965.2229
963.15801
959.65183
953.56573
992.86669
989.95875
993.07124
990.31101
986.36004
985.24642
983.77335
973.33051
971.24993
971.07037
968.38078
967.72415
966.70772
988.14194
989.78819
988.9962
988.49937
985.9324
985.1691
983.5999
979.2612
975.19428
975.30159
974.72894
975.09195
975.54253
986.23309
986.9555
986.0223
984.7807
983.33701
984.99649
983.91039
981.88694
980.03297
976.78612
973.38439
971.95818
971.98654
983.02048
984.21726
983.33167
982.40718
981.80195
981.9145
983.00199
985.83085
981.85639
980.96749
978.38796
975.08142
971.38261
)
;
        refGradient     uniform 0;
        valueFraction   nonuniform List<scalar> 
130
(
0.0075140686
0.0075140686
0.0075140686
0.0075140686
0.0075140686
0.0075140686
0.0075140686
0.0075140686
0.0075140686
0.0075140686
0.0075140686
0.0075140686
0.0075140686
0.0075140686
0.0075140686
0.0075140686
0.0075140686
0.0075140686
0.0075140686
0.0075140686
0.0075140686
0.0075140686
0.0075140686
0.0075140686
0.0075140686
0.0075140686
0.0075140686
0.0075140686
0.0075140686
0.0075140686
0.0075140686
0.0075140686
0.0075140686
0.0075140686
0.0075140686
0.0075140686
0.0075140686
0.0075140686
0.0075140686
0.0075140686
0.0075140686
0.0075140686
0.0075140686
0.0075140686
0.0075140686
0.0075140686
0.0075140686
0.0075140686
0.0075140686
0.0075140686
0.0075140686
0.0075140686
0.0075140686
0.0075140686
0.0075140686
0.0075140686
0.0075140686
0.0075140686
0.0075140686
0.0075140686
0.0075140686
0.0075140686
0.0075140686
0.0075140686
0.0075140686
0.0075140686
0.0075140686
0.0075140686
0.0075140686
0.0075140686
0.0075140686
0.0075140686
0.0075140686
0.0075140686
0.0075140686
0.0075140686
0.0075140686
0.0075140686
0.0075140686
0.0075140686
0.0075140686
0.0075140686
0.0075140686
0.0075140686
0.0075140686
0.0075140686
0.0075140686
0.0075140686
0.0075140686
0.0075140686
0.0075140686
0.0075140686
0.0075140686
0.0075140686
0.0075140686
0.0075140686
0.0075140686
0.0075140686
0.0075140686
0.0075140686
0.0075140686
0.0075140686
0.0075140686
0.0075140686
0.0075140686
0.0075140686
0.0075140686
0.0075140686
0.0075140686
0.0075140686
0.0075140686
0.0075140686
0.0075140686
0.0075140686
0.0075140686
0.0075140686
0.0075140686
0.0075140686
0.0075140686
0.0075140686
0.0075140686
0.0075140686
0.0075140686
0.0075140686
0.0075140686
0.0075140686
0.0075140686
0.0075140686
0.0075140686
0.0075140686
)
;
        value           nonuniform List<scalar> 
130
(
776.53832
776.5041
776.41858
776.28116
776.0957
775.87475
775.6286
775.35246
775.03074
774.73859
774.47211
774.26709
774.14625
776.6409
776.61295
776.53774
776.41546
776.23802
776.01166
775.77278
775.49717
775.14849
774.77799
774.45061
774.20464
774.06617
776.75968
776.72946
776.65864
776.54462
776.36236
776.13184
775.84926
775.50023
775.1302
774.77927
774.3147
774.07116
773.90897
776.87358
776.82288
776.74144
776.58908
776.38498
776.14007
775.83885
775.46176
775.025
774.64693
774.28812
774.05253
773.80166
776.8993
776.83809
776.71516
776.54956
776.33131
776.07039
775.76175
775.38053
774.90846
774.53486
774.19816
773.89433
773.61979
776.79594
776.72038
776.63046
776.48328
776.25229
775.97495
775.64298
775.19262
774.74729
774.39739
774.10167
773.85326
773.66654
776.70189
776.63185
776.57206
776.39868
776.15744
775.89396
775.57795
775.14146
774.79813
774.51637
774.26053
774.0852
773.98151
776.51659
776.49893
776.41373
776.27944
776.07725
775.85064
775.5766
775.24816
774.92976
774.68437
774.47871
774.33926
774.26661
776.36177
776.34031
776.26217
776.13957
775.97962
775.81787
775.59707
775.34029
775.07586
774.81197
774.5799
774.42044
774.34211
776.23887
776.2268
776.1593
776.05579
775.92404
775.77075
775.60268
775.42703
775.16631
774.93773
774.71586
774.53029
774.40707
)
;
        Tnbr            T;
        thicknessLayers List<scalar> 0();
        kappaLayers     List<scalar> 0();
        kappaMethod     solidThermo;
        kappa           none;
        alphaAni        none;
        alpha           none;
        field           T;
    }
    leftSolid_to_heater
    {
        type            compressible::turbulentTemperatureCoupledBaffleMixed;
        refValue        nonuniform List<scalar> 10(682.58444 674.66567 657.92698 630.59787 590.55647 590.66462 630.98049 658.36517 675.05322 682.94433);
        refGradient     uniform 0;
        valueFraction   nonuniform List<scalar> 10(2.08329e-05 2.08329e-05 2.08329e-05 2.08329e-05 2.08329e-05 2.08329e-05 2.08329e-05 2.08329e-05 2.08329e-05 2.08329e-05);
        value           nonuniform List<scalar> 10(772.65554 772.5852 772.46141 772.36311 772.26867 772.30074 772.51944 772.74038 772.84371 772.9139);
        Tnbr            T;
        thicknessLayers List<scalar> 1(0.001);
        kappaLayers     List<scalar> 1(0.0005);
        kappaMethod     solidThermo;
        kappa           none;
        alphaAni        none;
        alpha           none;
        field           T;
    }
    leftSolid_to_topAir
    {
        type            compressible::turbulentTemperatureCoupledBaffleMixed;
        refValue        nonuniform List<scalar> 
130
(
319.39224
337.40159
353.7102
368.74121
382.85773
396.29831
409.19476
421.54936
433.06631
443.69213
453.36669
461.96764
469.22449
319.39142
337.20901
353.14254
367.6177
380.97379
393.40091
404.97803
415.69337
425.44187
434.01887
441.16473
446.56287
449.85355
319.39402
337.25016
353.23588
367.77635
381.21731
393.75884
405.5012
416.48736
426.71328
436.11406
444.548
451.81324
457.54135
319.39758
337.26857
353.28584
367.87858
381.40483
394.08782
406.06472
417.42861
428.24707
438.5692
448.43224
457.84232
466.65889
319.39753
337.27223
353.29715
367.90151
381.44435
394.15122
406.16249
417.57526
428.46413
438.88795
448.87697
458.43498
467.31434
319.39443
337.26611
353.28849
367.89036
381.43016
394.13307
406.139
417.54425
428.42379
438.83728
448.81974
458.38641
467.27094
319.39097
337.25571
353.26728
367.85395
381.37314
394.04792
406.01509
417.36746
428.17553
438.48627
448.32942
457.70827
466.44197
319.38475
337.23265
353.21066
367.7434
381.17645
393.71003
405.44421
416.42039
426.63598
436.027
444.45755
451.71552
457.42372
319.38062
337.18868
353.11384
367.58154
380.93123
393.35339
404.92687
415.64076
425.38906
433.9666
441.11425
446.51382
449.80284
319.38078
337.38038
353.68107
368.70615
382.81913
396.25891
409.15766
421.51785
433.04479
443.68129
453.36618
461.97565
469.23743
)
;
        refGradient     uniform 0;
        valueFraction   nonuniform List<scalar> 
130
(
0.00032132529
0.00032132529
0.00032132529
0.00032132529
0.00032132529
0.00032132529
0.00032132529
0.00032132529
0.00032132529
0.00032132529
0.00032132529
0.00032132529
0.00032132529
0.00032132529
0.00032132529
0.00032132529
0.00032132529
0.00032132529
0.00032132529
0.00032132529
0.00032132529
0.00032132529
0.00032132529
0.00032132529
0.00032132529
0.00032132529
0.00032132529
0.00032132529
0.00032132529
0.00032132529
0.00032132529
0.00032132529
0.00032132529
0.00032132529
0.00032132529
0.00032132529
0.00032132529
0.00032132529
0.00032132529
0.00032132529
0.00032132529
0.00032132529
0.00032132529
0.00032132529
0.00032132529
0.00032132529
0.00032132529
0.00032132529
0.00032132529
0.00032132529
0.00032132529
0.00032132529
0.00032132529
0.00032132529
0.00032132529
0.00032132529
0.00032132529
0.00032132529
0.00032132529
0.00032132529
0.00032132529
0.00032132529
0.00032132529
0.00032132529
0.00032132529
0.00032132529
0.00032132529
0.00032132529
0.00032132529
0.00032132529
0.00032132529
0.00032132529
0.00032132529
0.00032132529
0.00032132529
0.00032132529
0.00032132529
0.00032132529
0.00032132529
0.00032132529
0.00032132529
0.00032132529
0.00032132529
0.00032132529
0.00032132529
0.00032132529
0.00032132529
0.00032132529
0.00032132529
0.00032132529
0.00032132529
0.00032132529
0.00032132529
0.00032132529
0.00032132529
0.00032132529
0.00032132529
0.00032132529
0.00032132529
0.00032132529
0.00032132529
0.00032132529
0.00032132529
0.00032132529
0.00032132529
0.00032132529
0.00032132529
0.00032132529
0.00032132529
0.00032132529
0.00032132529
0.00032132529
0.00032132529
0.00032132529
0.00032132529
0.00032132529
0.00032132529
0.00032132529
0.00032132529
0.00032132529
0.00032132529
0.00032132529
0.00032132529
0.00032132529
0.00032132529
0.00032132529
0.00032132529
0.00032132529
0.00032132529
0.00032132529
)
;
        value           nonuniform List<scalar> 
130
(
774.80989
774.77967
774.70303
774.57763
774.40643
774.19746
773.95767
773.68815
773.39318
773.10878
772.85632
772.66553
772.55992
774.8931
774.86652
774.79606
774.67773
774.5095
774.29735
774.05382
773.77355
773.45366
773.12419
772.82699
772.60524
772.48354
774.99675
774.96928
774.90005
774.78277
774.60975
774.38713
774.1158
773.79533
773.44732
773.09863
772.74531
772.50197
772.3626
775.08199
775.04407
774.96278
774.82585
774.63648
774.39888
774.10802
773.7605
773.37673
773.01492
772.68665
772.43829
772.26783
775.09138
775.04443
774.94491
774.79556
774.59398
774.34348
774.04135
773.68255
773.28547
772.92941
772.61627
772.35454
772.17446
775.01502
774.9662
774.87663
774.73101
774.52167
774.25908
773.94077
773.55988
773.17682
772.8453
772.56627
772.34567
772.20651
774.91889
774.8761
774.79746
774.64841
774.43966
774.18677
773.88347
773.5265
773.1999
772.92077
772.6866
772.51798
772.42404
774.76801
774.7435
774.66881
774.54197
774.36206
774.14361
773.88324
773.58878
773.30213
773.05718
772.85706
772.71619
772.64144
774.62652
774.60515
774.53863
774.42918
774.28329
774.1118
773.90134
773.66145
773.41227
773.1738
772.96809
772.82001
772.74195
774.52703
774.51161
774.45556
774.36312
774.23953
774.0886
773.91523
773.72087
773.49204
773.27194
773.0711
772.91198
772.8182
)
;
        Tnbr            T;
        thicknessLayers List<scalar> 0();
        kappaLayers     List<scalar> 0();
        kappaMethod     solidThermo;
        kappa           none;
        alphaAni        none;
        alpha           none;
        field           T;
    }
}


// ************************************************************************* //
