/*--------------------------------*- C++ -*----------------------------------*\
| =========                 |                                                 |
| \\      /  F ield         | OpenFOAM: The Open Source CFD Toolbox           |
|  \\    /   O peration     | Version:  v2012                                 |
|   \\  /    A nd           | Website:  www.openfoam.com                      |
|    \\/     M anipulation  |                                                 |
\*---------------------------------------------------------------------------*/
FoamFile
{
    version     2.0;
    format      ascii;
    class       volScalarField;
    location    "200/topAir";
    object      rho;
}
// * * * * * * * * * * * * * * * * * * * * * * * * * * * * * * * * * * * * * //

dimensions      [1 -3 0 0 0 0 0];


internalField   nonuniform List<scalar> 
1200
(
1.0911981
1.0351941
0.98920628
0.95030608
0.9164798
0.88646024
0.85946262
0.83510103
0.81355489
0.79462959
0.77813043
0.76399566
0.75240526
0.7480897
0.74621634
0.74694113
0.75006919
0.7549965
0.76085414
0.76680276
0.77225118
0.77687476
0.78052221
0.78311816
0.78459856
0.78486282
0.78369487
0.78062639
0.77469883
0.76495481
1.1570765
1.1541638
1.1501855
1.1453326
1.1397493
1.1335464
1.1268245
1.1196552
1.1102995
1.0979437
1.0813564
1.0589879
1.0306107
0.99910731
0.96766976
0.93983846
0.91768119
0.90144848
0.89025046
0.88298523
0.87869426
0.87646016
0.87539949
0.87469855
0.87360218
0.87134367
0.86696087
0.85892782
0.84458958
0.82162908
1.1585855
1.1584881
1.1583071
1.1580248
1.157626
1.1570975
1.1564285
1.1556093
1.1545863
1.153286
1.1515599
1.1477345
1.1368347
1.1146974
1.0820511
1.0442046
1.0068258
0.97422969
0.94782421
0.92743848
0.91233217
0.90154606
0.89404581
0.88882833
0.88497527
0.88164834
0.87799169
0.87288492
0.86434921
0.84947931
1.1586181
1.1586149
1.1586071
1.1585919
1.1585657
1.158524
1.1584615
1.1583721
1.158247
1.1580728
1.1578237
1.1573768
1.1561498
1.1501685
1.1286271
1.0919477
1.0526276
1.0173784
0.9876189
0.96313785
0.94343876
0.92797493
0.91610071
0.9070854
0.90018747
0.89470413
0.88995977
0.88516572
0.87902432
0.86936823
1.0911987
1.0357616
0.99073597
0.9531048
0.92085106
0.89276057
0.86810102
0.8464569
0.82766814
0.81178843
0.79895788
0.78943999
0.78359817
0.78729937
0.79412266
0.80314485
0.81311465
0.82269702
0.83082539
0.83709905
0.84172491
0.84509312
0.84746619
0.84889881
0.84929134
0.84842936
0.84584406
0.84050624
0.83024395
0.81512173
1.1570783
1.1542197
1.1503915
1.1458133
1.1406568
1.1350637
1.1291665
1.1231088
1.1170381
1.1111685
1.105703
1.1009
1.0970341
1.0945039
1.0932306
1.0925859
1.0917241
1.0898083
1.0863617
1.0815542
1.0758121
1.0693269
1.0621013
1.0540522
1.0450609
1.0350542
1.0240218
1.012052
0.9989654
0.97384236
1.1585857
1.1584908
1.1583192
1.1580585
1.1577001
1.1572384
1.1566711
1.1560002
1.1552316
1.1543778
1.1534586
1.1524604
1.1512696
1.1497903
1.1478303
1.1437245
1.1359764
1.1236198
1.1072419
1.0893969
1.0723886
1.055955
1.0396596
1.0237883
1.0083722
0.99350916
0.97813709
0.96167734
0.94374164
0.9236036
1.1586181
1.158615
1.1586078
1.1585941
1.1585712
1.158536
1.1584852
1.1584153
1.1583222
1.1582018
1.1580476
1.1578403
1.1574762
1.1562299
1.150737
1.1347688
1.1060029
1.0706427
1.036329
1.0061586
0.9808631
0.96094087
0.94584568
0.9338069
0.92374645
0.91493802
0.90754095
0.90104619
0.89458019
0.88723384
1.0911872
1.0356331
0.99047497
0.95269825
0.92027164
0.89196327
0.86700914
0.84490973
0.82532868
0.80810138
0.7932042
0.78074252
0.77106854
0.77145542
0.77536914
0.78355357
0.7963655
0.81243358
0.82908506
0.84413934
0.85657089
0.86620722
0.87320816
0.87774283
0.87996368
0.88003864
0.87774596
0.87241752
0.86100145
0.83642192
1.1570777
1.1542087
1.150362
1.145761
1.140577
1.134947
1.128991
1.1228241
1.1165659
1.1103558
1.1043716
1.0988405
1.0940554
1.0906698
1.089098
1.0896501
1.091927
1.0939197
1.093608
1.0904832
1.084909
1.0773672
1.0680244
1.0568198
1.0437555
1.0290562
1.0129715
0.99551137
0.97590123
0.94994136
1.1585856
1.1584904
1.1583178
1.1580559
1.1576964
1.1572342
1.1566672
1.1559967
1.1552277
1.1543708
1.1534445
1.1524799
1.1515281
1.1506668
1.1499696
1.1492547
1.1468726
1.139161
1.1259989
1.1101784
1.0935033
1.0766485
1.0589123
1.0395565
1.0187968
0.99779371
0.97778884
0.95842161
0.94102187
0.92193498
1.1586181
1.158615
1.1586077
1.1585939
1.1585711
1.1585361
1.158486
1.1584174
1.1583272
1.1582122
1.1580695
1.1578959
1.1576853
1.1574002
1.1567906
1.1545558
1.1454705
1.1218714
1.0894459
1.0538925
1.0199402
0.99231169
0.97134267
0.95530668
0.94252331
0.93181546
0.92269786
0.91462616
0.90726355
0.89568191
1.091174
1.0355764
0.99033806
0.95244111
0.91983474
0.89124865
0.86585938
0.84308765
0.82250014
0.80377453
0.7866651
0.77099294
0.75681222
0.75208726
0.74881804
0.74787626
0.74969371
0.75263917
0.75502373
0.75704745
0.75937607
0.76226454
0.7656907
0.76931962
0.7726244
0.77507982
0.77555615
0.76995918
0.7567695
0.74258805
1.1570772
1.1542041
1.1503455
1.1457211
1.140497
1.1347997
1.1287314
1.122378
1.1158145
1.109114
1.1023596
1.0956539
1.0890251
1.0834341
1.0793459
1.0775732
1.0777848
1.0773625
1.0751532
1.0716929
1.0667731
1.0602136
1.0517487
1.0410496
1.0279684
1.0125465
0.99449399
0.97402658
0.94055895
0.87228855
1.1585856
1.1584902
1.1583169
1.1580534
1.1576908
1.157223
1.1566463
1.1559592
1.1551621
1.1542577
1.1532532
1.152163
1.1510145
1.1498908
1.1489399
1.1481581
1.1442416
1.132182
1.1177537
1.1051074
1.0897083
1.0718859
1.050694
1.0263944
1.000974
0.9768143
0.95352964
0.93048296
0.91446103
0.88089569
1.1586181
1.158615
1.1586076
1.1585938
1.1585707
1.1585353
1.1584844
1.1584144
1.1583218
1.1582026
1.1580531
1.1578689
1.1576453
1.1573734
1.1569751
1.1552466
1.1380328
1.0927805
1.0509384
1.0510881
1.0254841
1.0008012
0.98151503
0.96596673
0.95278215
0.94079397
0.92783971
0.9041148
0.88728617
0.86263579
1.0911764
1.0355688
0.9903101
0.95238538
0.91974316
0.89110971
0.86565709
0.84280079
0.82210104
0.80322225
0.78592008
0.77002438
0.75579777
0.75283097
0.75130572
0.75196668
0.75284777
0.74993723
0.74360431
0.73668496
0.73004535
0.72392189
0.71851744
0.71399663
0.71044643
0.70779409
0.70558853
0.70265659
0.69710056
0.68650198
1.1570772
1.1542027
1.1503396
1.1457066
1.1404687
1.1347503
1.1286507
1.1222512
1.1156204
1.1088214
1.1019211
1.0948391
1.0867134
1.0809958
1.0770227
1.0755865
1.074098
1.0705987
1.0659051
1.05846
1.0496056
1.0407012
1.0311068
1.0185886
1.0008054
0.97639016
0.94395756
0.90200532
0.84905769
0.78395961
1.1585856
1.1584901
1.1583165
1.1580523
1.1576883
1.1572181
1.1566375
1.1559441
1.1551371
1.1542176
1.1531892
1.1520577
1.1508237
1.149619
1.1486343
1.147426
1.1361975
1.1228587
1.1136256
1.1050125
1.0932729
1.0756073
1.0505012
1.0199709
0.98915419
0.9639701
0.94848991
0.93072881
0.8929103
0.83260382
1.1586181
1.158615
1.1586076
1.1585937
1.1585705
1.1585349
1.1584835
1.1584128
1.1583188
1.1581975
1.1580443
1.1578537
1.1576181
1.1573218
1.1567714
1.1524583
1.0945477
1.018738
1.00395
0.99712101
0.99084711
0.97914721
0.96608386
0.95290198
0.93994996
0.92736602
0.91558243
0.90593443
0.885718
0.8450785
1.091182
1.0355793
0.99032477
0.95240361
0.91976468
0.89113535
0.86568778
0.84283582
0.82214017
0.8032636
0.78595793
0.77005204
0.75582137
0.75301604
0.75185685
0.75294841
0.75364792
0.75018413
0.74339994
0.73631714
0.72942656
0.72297649
0.71719582
0.71228733
0.70836208
0.7053213
0.7026489
0.69914485
0.69305904
0.68209149
1.1570774
1.1542031
1.1503405
1.1457081
1.140471
1.1347538
1.1286557
1.122258
1.1156295
1.1088335
1.1019379
1.0948946
1.087019
1.0814324
1.0776909
1.0764198
1.0744799
1.0706769
1.0658097
1.0571351
1.046503
1.0346916
1.0207032
1.0022993
0.97742425
0.94613339
0.90956608
0.86783526
0.82030079
0.76410413
1.1585856
1.1584901
1.1583166
1.1580523
1.1576884
1.1572183
1.1566378
1.1559446
1.1551379
1.1542187
1.1531911
1.1520627
1.1508428
1.1496657
1.148721
1.1472789
1.1352831
1.123461
1.1153886
1.1075489
1.0968195
1.0806734
1.0574143
1.0286633
0.99843437
0.97258064
0.9512501
0.92062204
0.87500602
0.81286162
1.1586181
1.158615
1.1586076
1.1585937
1.1585705
1.1585349
1.1584835
1.1584128
1.1583189
1.1581976
1.1580443
1.1578536
1.1576179
1.1573166
1.156673
1.1510684
1.0852228
1.0205417
1.0084802
1.0030211
0.99579834
0.98334365
0.96969918
0.95574956
0.94155775
0.9272096
0.91259746
0.90474164
0.87289639
0.82680815
1.0911876
1.0356004
0.99037022
0.95247964
0.91987945
0.89130019
0.86591708
0.8431495
0.82256784
0.80385186
0.78675233
0.77108847
0.75690498
0.75229435
0.7492846
0.74878479
0.75076683
0.75314978
0.75441773
0.75511691
0.75608169
0.75765188
0.7598632
0.76242196
0.76503847
0.76744614
0.76745712
0.76062409
0.74813823
0.73426089
1.1570775
1.1542051
1.1503474
1.1457244
1.140502
1.1348071
1.1287419
1.1223925
1.1158343
1.1091408
1.1023957
1.0957077
1.0892505
1.0837457
1.0798367
1.0783112
1.0782991
1.0772209
1.0744856
1.0706442
1.0655285
1.0588968
1.0503755
1.0395162
1.026039
1.0098066
0.99063005
0.96951699
0.92838386
0.85809499
1.1585856
1.1584902
1.158317
1.1580535
1.157691
1.1572235
1.1566471
1.1559605
1.155164
1.1542605
1.1532573
1.1521698
1.1510311
1.149927
1.1490118
1.1481524
1.1429809
1.1302628
1.1173161
1.1057043
1.0919102
1.0758174
1.0562051
1.032912
1.0071707
0.9799559
0.94975214
0.92575107
0.90992997
0.86956079
1.1586181
1.158615
1.1586076
1.1585938
1.1585707
1.1585353
1.1584844
1.1584145
1.1583219
1.1582028
1.1580534
1.1578693
1.1576458
1.157372
1.1569314
1.1545898
1.1321565
1.0855492
1.0454414
1.0486373
1.0236259
0.99940143
0.98018225
0.96443767
0.95071836
0.93725382
0.91426149
0.89200729
0.87381104
0.85054411
1.0912012
1.035658
0.99050863
0.95273822
0.92031659
0.89201104
0.86705513
0.84494681
0.82535576
0.80811754
0.79321348
0.78074901
0.77107531
0.77146606
0.77542973
0.7837641
0.79674089
0.81276143
0.82911703
0.84376518
0.85585498
0.86538017
0.8726688
0.87800845
0.88120144
0.88179358
0.87974661
0.87454331
0.86384125
0.83900096
1.157078
1.1542097
1.1503641
1.1457644
1.1405824
1.1349547
1.1290014
1.1228374
1.1165822
1.1103761
1.1043972
1.0988738
1.0941064
1.0907563
1.0892633
1.0899597
1.0922865
1.0940679
1.0934507
1.0900739
1.0843948
1.0769211
1.0677697
1.0567565
1.0436913
1.0285937
1.0116127
0.99315
0.97162005
0.94300111
1.1585856
1.1584904
1.1583179
1.158056
1.1576967
1.1572347
1.1566681
1.155998
1.1552296
1.1543734
1.153448
1.152485
1.1515366
1.1506832
1.1500044
1.149293
1.1465493
1.1382012
1.124885
1.1093049
1.0932854
1.0773795
1.0605993
1.0418222
1.0208547
0.99854815
0.97625613
0.95556003
0.93710074
0.9150795
1.1586181
1.158615
1.1586077
1.1585939
1.1585711
1.1585361
1.158486
1.1584175
1.1583274
1.1582125
1.1580698
1.1578963
1.157686
1.1574029
1.1568024
1.1545175
1.1443761
1.1194768
1.0873906
1.0519616
1.0180134
0.99064218
0.96991324
0.95398306
0.94116773
0.93028412
0.92082504
0.91265882
0.90479187
0.88951123
1.0912091
1.035779
0.99075796
0.95312846
0.92087188
0.89277317
0.8681019
0.84644547
0.82764108
0.81174061
0.79888379
0.7893336
0.78345471
0.78711448
0.79393781
0.80304832
0.81319763
0.82293931
0.83108685
0.8372336
0.84165332
0.84480533
0.84704165
0.84850845
0.8491108
0.84854394
0.84629774
0.84132361
0.83153046
0.81622023
1.1570785
1.1542205
1.1503929
1.1458157
1.1406603
1.1350684
1.1291728
1.1231169
1.117048
1.1111779
1.1057099
1.1009028
1.0970335
1.0945102
1.0932768
1.0927157
1.0919371
1.0899895
1.0863672
1.0813326
1.0753892
1.0687467
1.0614272
1.0533284
1.0442765
1.0341117
1.0227639
1.0103443
0.99658612
0.97225927
1.1585857
1.1584908
1.1583193
1.1580587
1.1577004
1.1572388
1.1566719
1.1560014
1.1552332
1.15438
1.1534612
1.1524626
1.151274
1.1498104
1.1478921
1.1438115
1.1359658
1.1232009
1.106168
1.0878191
1.0705565
1.0537356
1.037151
1.0210659
1.0054685
0.99054093
0.97514586
0.95863827
0.94083586
0.92112184
1.1586181
1.158615
1.1586078
1.1585941
1.1585712
1.1585361
1.1584853
1.1584154
1.1583224
1.158202
1.158048
1.1578408
1.1574776
1.1562393
1.1508104
1.135056
1.106554
1.07129
1.0368647
1.0063994
0.98077238
0.96087956
0.94574597
0.93359134
0.92337665
0.91431509
0.90666614
0.90003897
0.8935295
0.88625014
1.091203
1.0352018
0.98921448
0.95031149
0.91647711
0.88644334
0.85942646
0.83504232
0.81348244
0.79454153
0.77802579
0.76387471
0.75226896
0.74793321
0.74604917
0.74678365
0.74994745
0.75491898
0.76079508
0.76671606
0.77209327
0.77661696
0.78016509
0.78270047
0.78418204
0.78449929
0.78341395
0.780437
0.77461111
0.76487332
1.1570766
1.1541641
1.1501861
1.1453337
1.1397508
1.1335481
1.1268263
1.1196559
1.1102622
1.0978528
1.0811878
1.0587662
1.0303756
0.99891985
0.96758503
0.93987515
0.91779101
0.90151253
0.89014192
0.88264399
0.87812753
0.87570539
0.87451137
0.87374018
0.87263272
0.87039996
0.86605491
0.85809633
0.84396027
0.82124236
1.1585855
1.1584881
1.1583072
1.1580249
1.1576262
1.1570978
1.156429
1.1556101
1.1545865
1.1532844
1.1515537
1.1476777
1.1367254
1.1146073
1.082079
1.0444545
1.0072541
0.97472548
0.94823452
0.92764173
0.91227738
0.90123426
0.89351101
0.88812109
0.88414903
0.88074878
0.87705244
0.87194361
0.86348785
0.84881006
1.1586181
1.1586149
1.1586071
1.158592
1.1585657
1.158524
1.1584616
1.1583722
1.1582471
1.158073
1.1578237
1.1573755
1.156147
1.1501672
1.1287647
1.0924167
1.0533516
1.0181991
0.98836892
0.9636717
0.94368392
0.92792744
0.91579352
0.90656459
0.89950111
0.89389443
0.88906129
0.88421121
0.87806243
0.86849408
)
;

boundaryField
{
    maxY
    {
        type            calculated;
        value           nonuniform List<scalar> 
300
(
1.1586176
1.1586176
1.1586176
1.1586176
1.1586176
1.1586176
1.1586176
1.1586176
1.1586176
1.1586176
1.1586143
1.1586145
1.1586144
1.1586144
1.1586144
1.1586144
1.1586144
1.1586144
1.1586145
1.1586143
1.1586066
1.1586072
1.1586072
1.1586071
1.1586071
1.1586071
1.1586071
1.1586072
1.1586072
1.1586066
1.1585914
1.1585935
1.1585934
1.1585933
1.1585932
1.1585932
1.1585933
1.1585934
1.1585935
1.1585914
1.1585652
1.1585706
1.1585705
1.1585702
1.15857
1.15857
1.1585702
1.1585705
1.1585707
1.1585652
1.1585235
1.1585355
1.1585356
1.1585348
1.1585343
1.1585344
1.1585348
1.1585356
1.1585355
1.1585235
1.158461
1.1584847
1.1584854
1.1584838
1.158483
1.158483
1.1584839
1.1584855
1.1584848
1.1584611
1.1583716
1.1584147
1.1584169
1.1584139
1.1584122
1.1584123
1.158414
1.158417
1.1584149
1.1583717
1.1582464
1.1583217
1.1583267
1.1583212
1.1583183
1.1583183
1.1583214
1.1583269
1.1583219
1.1582466
1.1580723
1.1582012
1.1582117
1.1582021
1.158197
1.158197
1.1582023
1.1582119
1.1582015
1.1580725
1.1578232
1.1580471
1.1580689
1.1580525
1.1580438
1.1580438
1.1580528
1.1580693
1.1580475
1.1578232
1.1573763
1.1578397
1.1578954
1.1578684
1.1578532
1.1578531
1.1578687
1.1578958
1.1578403
1.157375
1.1561492
1.1574756
1.1576848
1.1576447
1.1576176
1.1576174
1.1576453
1.1576855
1.157477
1.1561465
1.1501679
1.1562294
1.1573997
1.1573729
1.1573213
1.1573161
1.1573715
1.1574024
1.1562388
1.1501667
1.1286266
1.1507365
1.1567901
1.1569746
1.1567708
1.1566725
1.1569308
1.1568018
1.1508099
1.1287642
1.0919472
1.1347683
1.1545553
1.1552461
1.1524578
1.1510679
1.1545893
1.154517
1.1350555
1.0924162
1.0526272
1.1060025
1.1454699
1.1380322
1.0945472
1.0852223
1.132156
1.1443756
1.1065535
1.0533511
1.017378
1.0706423
1.1218709
1.09278
1.0187376
1.0205413
1.0855487
1.1194763
1.0712895
1.0181987
0.98761852
1.0363285
1.0894454
1.050938
1.0039496
1.0084798
1.045441
1.0873902
1.0368642
0.98836854
0.96313749
1.0061582
1.0538921
1.0510876
0.99712062
1.0030208
1.0486368
1.0519612
1.006399
0.96367134
0.94343841
0.98086272
1.0199398
1.0254837
0.99084673
0.99579795
1.0236255
1.018013
0.980772
0.94368357
0.9279746
0.96094051
0.9923113
1.0008008
0.97914683
0.98334327
0.99940103
0.99064179
0.9608792
0.92792711
0.91610038
0.94584533
0.9713423
0.98151465
0.96608349
0.96969881
0.98018188
0.96991287
0.94574561
0.91579319
0.90708507
0.93380656
0.95530632
0.96596636
0.95290163
0.95574921
0.96443731
0.9539827
0.933591
0.90656426
0.90018715
0.92374612
0.94252296
0.9527818
0.93994961
0.9415574
0.95071801
0.94116739
0.92337631
0.8995008
0.89470381
0.91493769
0.93181512
0.94079362
0.92736569
0.92720926
0.93725348
0.93028378
0.91431476
0.89389412
0.88995946
0.90754063
0.92269752
0.92783937
0.9155821
0.91259713
0.91426116
0.92082471
0.90666582
0.88906098
0.88516541
0.90104587
0.91462584
0.90411448
0.9059341
0.90474132
0.89200698
0.91265849
0.90003865
0.8842109
0.87902402
0.89457988
0.90726323
0.88728586
0.88571769
0.8728961
0.87381074
0.90479155
0.89352919
0.87806213
0.86936793
0.88723353
0.89568159
0.86263549
0.84507822
0.82680788
0.85054383
0.88951092
0.88624983
0.86849379
)
;
    }
    minX
    {
        type            calculated;
        value           nonuniform List<scalar> 
40
(
1.158622
1.158621
1.15862
1.1586189
1.158622
1.158621
1.15862
1.1586189
1.158622
1.158621
1.15862
1.1586189
1.158622
1.158621
1.15862
1.1586189
1.158622
1.158621
1.15862
1.1586189
1.158622
1.158621
1.15862
1.1586189
1.158622
1.158621
1.15862
1.1586189
1.158622
1.158621
1.15862
1.1586189
1.158622
1.158621
1.15862
1.1586189
1.158622
1.158621
1.15862
1.1586189
)
;
    }
    maxX
    {
        type            calculated;
        value           nonuniform List<scalar> 
40
(
0.76497438
0.82165569
0.84950933
0.86939227
0.81513537
0.97385857
0.92363939
0.88725702
0.8364228
0.94992716
0.92185566
0.89579844
0.74256619
0.87223008
0.88111736
0.86305203
0.68649052
0.78357166
0.83266153
0.84577364
0.68201048
0.76354506
0.8129083
0.8278722
0.73410469
0.85782117
0.86987164
0.85102222
0.83885857
0.9429815
0.91510939
0.88972802
0.81618719
0.97223636
0.92115456
0.88625426
0.76487092
0.82123254
0.84880746
0.86849347
)
;
    }
    minZ
    {
        type            calculated;
        value           nonuniform List<scalar> 
120
(
1.0911981
1.1570765
1.1585855
1.1586181
1.0351941
1.1541638
1.1584881
1.1586149
0.98920628
1.1501855
1.1583071
1.1586071
0.95030608
1.1453326
1.1580248
1.1585919
0.9164798
1.1397493
1.157626
1.1585657
0.88646024
1.1335464
1.1570975
1.158524
0.85946262
1.1268245
1.1564285
1.1584615
0.83510103
1.1196552
1.1556093
1.1583721
0.81355489
1.1102995
1.1545863
1.158247
0.79462959
1.0979437
1.153286
1.1580728
0.77813043
1.0813564
1.1515599
1.1578237
0.76399566
1.0589879
1.1477345
1.1573768
0.75240526
1.0306107
1.1368347
1.1561498
0.7480897
0.99910731
1.1146974
1.1501685
0.74621634
0.96766976
1.0820511
1.1286271
0.74694113
0.93983846
1.0442046
1.0919477
0.75006919
0.91768119
1.0068258
1.0526276
0.7549965
0.90144848
0.97422969
1.0173784
0.76085414
0.89025046
0.94782421
0.9876189
0.76680276
0.88298523
0.92743848
0.96313785
0.77225118
0.87869426
0.91233217
0.94343876
0.77687476
0.87646016
0.90154606
0.92797493
0.78052221
0.87539949
0.89404581
0.91610071
0.78311816
0.87469855
0.88882833
0.9070854
0.78459856
0.87360218
0.88497527
0.90018747
0.78486282
0.87134367
0.88164834
0.89470413
0.78369487
0.86696087
0.87799169
0.88995977
0.78062639
0.85892782
0.87288492
0.88516572
0.77469883
0.84458958
0.86434921
0.87902432
0.76495481
0.82162908
0.84947931
0.86936823
)
;
    }
    maxZ
    {
        type            calculated;
        value           nonuniform List<scalar> 
120
(
1.091203
1.1570766
1.1585855
1.1586181
1.0352018
1.1541641
1.1584881
1.1586149
0.98921448
1.1501861
1.1583072
1.1586071
0.95031149
1.1453337
1.1580249
1.158592
0.91647711
1.1397508
1.1576262
1.1585657
0.88644334
1.1335481
1.1570978
1.158524
0.85942646
1.1268263
1.156429
1.1584616
0.83504232
1.1196559
1.1556101
1.1583722
0.81348244
1.1102622
1.1545865
1.1582471
0.79454153
1.0978528
1.1532844
1.158073
0.77802579
1.0811878
1.1515537
1.1578237
0.76387471
1.0587662
1.1476777
1.1573755
0.75226896
1.0303756
1.1367254
1.156147
0.74793321
0.99891985
1.1146073
1.1501672
0.74604917
0.96758503
1.082079
1.1287647
0.74678365
0.93987515
1.0444545
1.0924167
0.74994745
0.91779101
1.0072541
1.0533516
0.75491898
0.90151253
0.97472548
1.0181991
0.76079508
0.89014192
0.94823452
0.98836892
0.76671606
0.88264399
0.92764173
0.9636717
0.77209327
0.87812753
0.91227738
0.94368392
0.77661696
0.87570539
0.90123426
0.92792744
0.78016509
0.87451137
0.89351101
0.91579352
0.78270047
0.87374018
0.88812109
0.90656459
0.78418204
0.87263272
0.88414903
0.89950111
0.78449929
0.87039996
0.88074878
0.89389443
0.78341395
0.86605491
0.87705244
0.88906129
0.780437
0.85809633
0.87194361
0.88421121
0.77461111
0.84396027
0.86348785
0.87806243
0.76487332
0.82124236
0.84881006
0.86849408
)
;
    }
    topAir_to_rightSolid
    {
        type            calculated;
        value           nonuniform List<scalar> 
130
(
0.50707614
0.50252493
0.49790359
0.49344731
0.48933253
0.48563818
0.48239834
0.47963144
0.47734527
0.4755298
0.47417403
0.47326925
0.47281346
0.51059969
0.50518238
0.49982398
0.4947855
0.49024861
0.48625441
0.48280578
0.47989983
0.47752427
0.47565081
0.47425962
0.47333586
0.47286946
0.51784744
0.51039412
0.50343038
0.4972312
0.49187483
0.4873121
0.48349194
0.48034712
0.47781891
0.47584275
0.47438707
0.4734301
0.47294741
0.52911667
0.51764666
0.508016
0.50012639
0.49369878
0.48845553
0.48421008
0.48080032
0.47810328
0.47602161
0.47450434
0.47350925
0.47301588
0.54310924
0.52473918
0.51186882
0.50233562
0.49500966
0.48924196
0.48468803
0.48108756
0.47826973
0.4761184
0.47456343
0.47354905
0.47304588
0.54298742
0.52464672
0.51180147
0.50229392
0.49499593
0.48926231
0.48470695
0.4810807
0.47823755
0.47607913
0.4745248
0.47351417
0.47301253
0.52888637
0.51745578
0.5078708
0.50003096
0.49364542
0.48844007
0.48419251
0.48074844
0.47802076
0.47593227
0.47441888
0.47343197
0.47294208
0.51753979
0.51014325
0.5032337
0.49709299
0.49177567
0.48724153
0.48341602
0.48025139
0.47770056
0.47571937
0.47427098
0.47332136
0.47284694
0.51028639
0.50492995
0.49961932
0.49464431
0.49013802
0.48615286
0.482694
0.4797754
0.47738901
0.47550636
0.47411365
0.47319427
0.47274187
0.5067788
0.50228677
0.49771544
0.49330815
0.48921479
0.48551672
0.48225679
0.47948108
0.47719702
0.47537875
0.47402025
0.47312068
0.47267689
)
;
    }
    topAir_to_heater
    {
        type            calculated;
        value           nonuniform List<scalar> 
40
(
0.5184716
0.51720378
0.51473115
0.51125939
0.52441328
0.52288879
0.51989701
0.51567505
0.53740002
0.5353202
0.53115663
0.52513561
0.56008758
0.55723424
0.55118191
0.54163091
0.59705328
0.59426428
0.58661186
0.57152826
0.59696286
0.59416768
0.58650536
0.57141316
0.55977617
0.55692787
0.5508691
0.54134563
0.53688563
0.53481979
0.53070323
0.52475815
0.52383147
0.52234567
0.51942379
0.51528202
0.51787795
0.51665913
0.51427198
0.51088587
)
;
    }
    topAir_to_leftSolid
    {
        type            calculated;
        value           nonuniform List<scalar> 
130
(
0.46128705
0.46131137
0.46137176
0.4614655
0.46158568
0.46172639
0.4618839
0.46205647
0.46224439
0.46243846
0.46260429
0.46272277
0.46278542
0.4612305
0.46125397
0.46131321
0.46140832
0.46153284
0.46168205
0.46185111
0.46202736
0.46221959
0.46243154
0.46260895
0.46273851
0.46280891
0.46115912
0.4611818
0.46124037
0.46133693
0.46146308
0.46161772
0.4618031
0.46200679
0.46220826
0.46241087
0.46260022
0.46274947
0.46283392
0.46110305
0.46113213
0.4611988
0.46130071
0.46143206
0.46159366
0.46178557
0.46199882
0.46220146
0.46240078
0.46259869
0.46275239
0.4628526
0.46110783
0.46113602
0.46120288
0.46130408
0.46143629
0.46159946
0.46179308
0.46200446
0.46220176
0.46239104
0.46257487
0.46271721
0.46281088
0.46113206
0.46116285
0.46122895
0.46132667
0.46145437
0.46161697
0.46180935
0.46200559
0.46219441
0.46237571
0.4625411
0.46267173
0.46275836
0.46116276
0.46119099
0.46125313
0.46134505
0.46146868
0.4616221
0.46179065
0.46196113
0.46213385
0.46230599
0.4624657
0.46259095
0.46266643
0.46122116
0.46124441
0.46130036
0.46138361
0.46149446
0.46161976
0.46175153
0.46189201
0.46204106
0.46219591
0.46234606
0.4624654
0.46252402
0.46127768
0.46129773
0.46135058
0.4614292
0.46151925
0.46161686
0.46172646
0.46184843
0.46198322
0.46213184
0.46225737
0.46234978
0.46239856
0.46130987
0.46133197
0.46138436
0.46145935
0.46154135
0.46162996
0.46172799
0.46183862
0.46196192
0.46209699
0.46220954
0.46228894
0.46233059
)
;
    }
}


// ************************************************************************* //
