/*--------------------------------*- C++ -*----------------------------------*\
| =========                 |                                                 |
| \\      /  F ield         | OpenFOAM: The Open Source CFD Toolbox           |
|  \\    /   O peration     | Version:  v2012                                 |
|   \\  /    A nd           | Website:  www.openfoam.com                      |
|    \\/     M anipulation  |                                                 |
\*---------------------------------------------------------------------------*/
FoamFile
{
    version     2.0;
    format      ascii;
    class       volScalarField;
    location    "200/topAir";
    object      T;
}
// * * * * * * * * * * * * * * * * * * * * * * * * * * * * * * * * * * * * * //

dimensions      [0 0 0 1 0 0 0];


internalField   nonuniform List<scalar> 
1200
(
318.53666
335.76951
351.37929
365.76277
379.26268
392.10622
404.42314
416.22098
427.24414
437.41959
446.69446
454.95879
461.96718
464.63215
465.79859
465.3466
463.40592
460.38161
456.83723
453.29322
450.09512
447.41637
445.32555
443.84934
443.01187
442.8627
443.5227
445.26609
448.67302
454.38823
300.40045
301.15857
302.20022
303.48066
304.96732
306.63616
308.46533
310.44048
313.05635
316.57935
321.43545
328.22499
337.26243
347.89684
359.19927
369.83618
378.76581
385.58638
390.43647
393.64899
395.57131
396.57962
397.06013
397.37831
397.87702
398.9083
400.92492
404.67454
411.54453
423.04518
300.00891
300.03414
300.08102
300.15417
300.25758
300.39472
300.56851
300.78158
301.04807
301.3875
301.83926
302.84528
305.74893
311.82094
321.22879
332.87153
345.22952
356.78031
366.71987
374.78063
380.98621
385.54433
388.7787
391.06086
392.76348
394.24559
395.88754
398.20366
402.13604
409.17532
300.00022
300.00105
300.00305
300.00698
300.01377
300.02458
300.04076
300.06392
300.09634
300.14146
300.20604
300.32195
300.6407
302.20414
307.97212
318.31715
330.20765
341.64839
351.94315
360.88885
368.42425
374.5637
379.41869
383.18965
386.12594
388.49238
390.56342
392.67872
395.42221
399.81417
318.53649
335.58553
350.83676
364.68874
377.46233
389.33908
400.39876
410.63706
419.95885
428.17382
435.04991
440.29509
443.57753
441.49221
437.6988
432.78187
427.47542
422.49639
418.3629
415.22746
412.94549
411.29964
410.14792
409.45574
409.26649
409.68229
410.93446
413.54418
418.65582
426.42275
300.4
301.14396
302.14609
303.35334
304.72469
306.22626
307.82555
309.48586
311.1678
312.81151
314.35774
315.7292
316.84182
317.57426
317.94416
318.13175
318.38288
318.94257
319.95446
321.37663
323.09197
325.05143
327.2628
329.76188
332.59903
335.81451
339.43245
343.44699
347.94618
356.92242
300.00888
300.03344
300.07788
300.14544
300.23836
300.35815
300.50546
300.67986
300.87991
301.10244
301.3424
301.6034
301.91537
302.30381
302.82001
303.90708
305.97991
309.34481
313.92053
319.06272
324.12311
329.16739
334.32669
339.5096
344.70006
349.85681
355.35503
361.43717
368.30624
376.3367
300.00022
300.00102
300.00289
300.00644
300.01236
300.02147
300.03461
300.05274
300.07684
300.10805
300.14801
300.20174
300.29618
300.61985
302.05483
306.30528
314.27192
324.65141
335.40091
345.45813
354.36717
361.71391
367.48668
372.22438
376.27825
379.90081
382.99726
385.75792
388.54617
391.76336
318.53985
335.62717
350.92921
364.84437
377.69999
389.6871
400.90301
411.389
421.14926
430.12741
438.20564
445.19997
450.78553
450.55946
448.28524
443.60277
436.46609
427.83378
419.24109
411.76439
405.78838
401.27409
398.05687
396.00039
395.00095
394.9673
395.99895
398.41757
403.7002
415.56354
300.40015
301.14685
302.15384
303.3672
304.74601
306.25773
307.8734
309.56433
311.29942
313.04047
314.73671
316.32097
317.70446
318.69067
319.1506
318.98889
318.32373
317.74386
317.83442
318.74518
320.38287
322.62561
325.44785
328.89831
333.01499
337.77184
343.13525
349.15343
356.16945
365.90278
300.00889
300.03356
300.07826
300.14613
300.23934
300.35925
300.50647
300.68078
300.88092
301.10427
301.34609
301.59832
301.8476
302.07354
302.25666
302.44469
303.07288
305.12453
308.6912
313.09019
317.86456
322.8407
328.2481
334.35986
341.173
348.35452
355.48161
362.66498
369.37074
377.01784
300.00022
300.00102
300.00291
300.00647
300.01239
300.02144
300.03442
300.05218
300.07555
300.10534
300.14234
300.18732
300.24193
300.31588
300.47414
301.05575
303.44359
309.82665
319.04812
329.81132
340.79024
350.27873
357.84044
363.84723
368.78207
373.01989
376.70588
380.03036
383.11438
388.06825
318.5437
335.64553
350.97772
364.94287
377.87938
389.99956
401.43536
412.27809
422.59757
432.44286
441.84819
450.82974
459.27713
462.16252
464.18024
464.76476
463.63805
461.82359
460.36502
459.13438
457.72644
455.99196
453.95157
451.81025
449.8777
448.45249
448.17705
451.43492
459.30294
468.07441
300.40027
301.14804
302.15819
303.37777
304.7674
306.29749
307.94421
309.68738
311.50905
313.39096
315.31116
317.24097
319.17197
320.81903
322.03419
322.56397
322.50064
322.62704
323.29
324.33383
325.8296
327.84549
330.48411
333.88058
338.12929
343.27928
349.51064
356.85496
369.55282
398.47617
300.00889
300.03361
300.07849
300.14678
300.24079
300.36215
300.5119
300.69052
300.89802
301.13378
301.39607
301.68126
301.98228
302.27739
302.52756
302.73357
303.76974
307.0054
310.96829
314.52687
318.97158
324.27515
330.81561
338.64756
347.24773
355.83627
364.5256
373.55435
380.09925
394.58242
300.00022
300.00102
300.00292
300.0065
300.01249
300.02165
300.03484
300.05296
300.07696
300.10782
300.14658
300.19433
300.25232
300.32284
300.42623
300.87573
305.42678
318.07457
330.73838
330.6913
338.9479
347.30743
354.13181
359.83196
364.81131
369.45997
374.61828
384.44866
391.74027
402.93452
318.543
335.648
350.98763
364.96422
377.91701
390.06036
401.52917
412.41842
422.80273
432.7402
442.26704
451.39681
459.89358
461.70595
462.64328
462.23662
461.69564
463.48749
467.43478
471.82518
476.11632
480.14365
483.75513
486.8181
489.25079
491.08417
492.61921
494.67474
498.6174
506.31533
300.40026
301.1484
302.15972
303.3816
304.77497
306.31082
307.96623
309.72238
311.56324
313.47367
315.43665
317.47706
319.85093
321.54269
322.72884
323.15976
323.60761
324.66532
326.09495
328.38867
331.15892
333.99238
337.10016
341.24301
347.3065
355.99113
368.2223
385.34831
409.37882
443.37264
300.00889
300.03363
300.07858
300.14706
300.24144
300.36343
300.51421
300.69447
300.90452
301.14425
301.4128
301.70884
302.03234
302.34886
302.60805
302.92671
305.92038
309.55449
312.12104
314.55389
317.93156
323.15322
330.87631
340.78027
351.39716
360.57754
366.46248
373.45568
389.27311
417.46864
300.00022
300.00102
300.00292
300.00652
300.01254
300.02176
300.03507
300.05339
300.07772
300.10915
300.14886
300.19827
300.25936
300.33623
300.47915
301.60369
317.56102
341.1924
346.2181
348.58926
350.79649
354.98819
359.78833
364.76543
369.79171
374.80963
379.63345
383.67647
392.43386
411.30588
318.54138
335.6446
350.98243
364.95724
377.90816
390.04914
401.51493
412.40128
422.7826
432.71792
442.24575
451.3806
459.87922
461.59248
462.30414
461.63393
461.20545
463.33495
467.56328
472.06087
476.52022
480.77151
484.64657
487.98633
490.69041
492.80586
494.68015
497.15944
501.52504
509.58923
300.40023
301.14829
302.15949
303.3812
304.77435
306.30989
307.96487
309.72048
311.56068
313.47023
315.43183
317.46095
319.76102
321.41287
322.52873
322.90961
323.4926
324.64161
326.12415
328.80022
332.14073
335.93222
340.53608
346.78887
355.6145
367.37551
382.14511
400.52098
423.73023
454.89382
300.00889
300.03363
300.07857
300.14704
300.24141
300.36338
300.51412
300.69433
300.90433
301.14396
301.4123
301.70753
302.02735
302.33658
302.58522
302.96556
306.1668
309.38855
311.62768
313.83351
316.90353
321.6383
328.71312
337.90061
348.13101
357.38524
365.39913
377.55556
397.23838
427.60784
300.00022
300.00102
300.00292
300.00652
300.01253
300.02176
300.03506
300.05338
300.07771
300.10914
300.14886
300.19828
300.25941
300.33757
300.50469
301.96786
320.2897
340.58939
344.66288
346.53873
349.05228
353.47326
358.44693
363.67864
369.16026
374.87286
380.87517
384.1823
398.19816
420.39472
318.53974
335.63775
350.96632
364.9281
377.86101
389.977
401.40861
412.24785
422.56279
432.40126
441.7992
450.77389
459.22084
462.03529
463.89121
464.20085
462.97534
461.51049
460.73482
460.30821
459.72084
458.76808
457.43299
455.8978
454.33857
452.91319
452.9067
456.97535
464.60193
473.38278
300.40018
301.14778
302.15768
303.3769
304.76605
306.29549
307.94135
309.68338
311.5035
313.38338
315.30084
317.22538
319.10592
320.72681
321.88784
322.34321
322.3468
322.66946
323.49087
324.65152
326.2102
328.25318
330.91618
334.3731
338.76514
344.2107
350.8739
358.51483
374.39925
405.06729
300.00889
300.0336
300.07847
300.14674
300.24072
300.36202
300.51169
300.6902
300.89753
301.13306
301.395
301.67949
301.97793
302.26787
302.50863
302.73506
304.1048
307.5267
311.09008
314.35708
318.32833
323.09011
329.08945
336.51072
345.11128
354.69552
365.97545
375.46374
381.99199
399.72589
300.00022
300.00102
300.00292
300.0065
300.01248
300.02164
300.03483
300.05294
300.07692
300.10777
300.14651
300.19423
300.25218
300.3232
300.43759
301.04689
307.01203
320.1934
332.47744
331.46417
339.56318
347.79387
354.61333
360.40245
365.60323
370.85547
380.18195
389.66691
397.78135
408.66281
318.53577
335.6191
350.91728
364.82906
377.68154
389.66623
400.88175
411.37094
421.13544
430.11881
438.20051
445.19627
450.78157
450.55325
448.25021
443.48361
436.26044
427.6612
419.22492
411.94698
406.12782
401.65758
398.30289
395.88059
394.44613
394.18124
395.0984
397.44912
402.37307
414.28612
300.40006
301.14658
302.1533
303.36628
304.74459
306.25567
307.87056
309.56066
311.29485
313.03475
314.72943
316.31138
317.68966
318.6654
319.10218
318.89828
318.21897
317.70081
317.88015
318.86485
320.53478
322.75925
325.52547
328.91801
333.03547
337.92372
343.59614
349.9836
357.73881
368.59573
300.00889
300.03355
300.07824
300.14609
300.23925
300.3591
300.50624
300.68044
300.88043
301.1036
301.34517
301.59698
301.84536
302.06923
302.24752
302.43461
303.15833
305.38185
308.99689
313.33671
317.92794
322.62166
327.72598
333.63269
340.48525
348.09133
356.03972
363.75104
370.91631
379.84234
300.00022
300.00102
300.0029
300.00646
300.01239
300.02143
300.03441
300.05215
300.0755
300.10528
300.14225
300.18721
300.24175
300.31519
300.47109
301.06573
303.73378
310.48939
319.65116
330.41668
341.43528
350.86905
358.36781
364.35206
369.31323
373.63392
377.47204
380.84957
384.16097
390.76035
318.53345
335.57989
350.82897
364.67969
377.45379
389.33358
400.39835
410.6426
419.97258
428.19905
435.09025
440.35443
443.65876
441.59591
437.80071
432.83389
427.4318
422.372
418.23128
415.16073
412.98061
411.43976
410.35349
409.64411
409.35351
409.62697
410.71417
413.14241
418.00809
425.84886
300.39993
301.14377
302.14572
303.35272
304.72376
306.22497
307.82384
309.48362
311.16506
312.80887
314.35577
315.72842
316.84201
317.57246
317.93071
318.09397
318.32077
318.88956
319.95284
321.44249
323.21901
325.22789
327.47064
329.98848
332.84886
336.12058
339.84991
344.02747
348.77688
357.50358
300.00888
300.03343
300.07787
300.1454
300.2383
300.35804
300.50527
300.67956
300.87949
301.10189
301.34173
301.60283
301.9142
302.29852
302.8037
303.88396
305.98277
309.46017
314.22528
319.5255
324.6778
329.86068
335.13534
340.41481
345.69551
350.90518
356.44508
362.583
369.44376
377.35065
300.00022
300.00102
300.00289
300.00643
300.01236
300.02146
300.0346
300.05271
300.07679
300.10797
300.1479
300.2016
300.29582
300.61742
302.03557
306.22776
314.11541
324.45526
335.22762
345.37548
354.39995
361.73699
367.52543
372.31032
376.42895
380.15965
383.36681
386.18962
389.00306
392.1982
318.53525
335.76701
351.37637
365.76069
379.26379
392.1137
404.44016
416.25024
427.28219
437.46808
446.75453
455.03082
462.05088
464.72936
465.90296
465.44473
463.48115
460.42888
456.87269
453.34448
450.18717
447.56489
445.52939
444.0862
443.24718
443.06792
443.68174
445.37415
448.72383
454.43664
300.40042
301.15848
302.20005
303.48038
304.96693
306.63568
308.46483
310.44028
313.06684
316.60556
321.48557
328.2937
337.33938
347.96213
359.23072
369.82174
378.72049
385.55898
390.48408
393.80118
395.82661
396.92143
397.46337
397.81418
398.31904
399.34081
401.34433
405.06667
411.8514
423.24439
300.00891
300.03414
300.08101
300.15415
300.25753
300.39464
300.56837
300.78138
301.04804
301.38793
301.84087
302.86028
305.77833
311.84613
321.22052
332.79188
345.08271
356.59884
366.56119
374.69851
381.00909
385.67772
389.0114
391.37227
393.13052
394.64825
396.3115
398.63354
402.53719
409.49795
300.00022
300.00105
300.00305
300.00698
300.01377
300.02457
300.04074
300.06389
300.0963
300.14142
300.20603
300.3223
300.64141
302.20448
307.93457
318.18049
329.9807
341.37303
351.67608
360.68893
368.32854
374.58287
379.54596
383.40979
386.42057
388.84428
390.95813
393.10262
395.85538
400.21659
)
;

boundaryField
{
    maxY
    {
        type            zeroGradient;
    }
    minX
    {
        type            fixedValue;
        value           uniform 300;
    }
    maxX
    {
        type            inletOutlet;
        inletValue      uniform 300;
        value           nonuniform List<scalar> 
40
(
454.37663
423.0315
409.16088
399.80311
426.41563
356.91644
376.3221
391.75312
415.5631
365.90821
377.05026
388.01775
468.08823
398.50288
394.48315
402.74018
506.32384
443.59218
417.43973
410.96783
509.64981
455.22693
427.58331
419.85439
473.48355
405.19659
399.58305
408.43323
414.35644
368.60336
379.82991
390.66512
425.86611
357.51197
377.33723
392.19638
454.43809
423.24947
409.49921
400.21686
)
;
    }
    minZ
    {
        type            zeroGradient;
    }
    maxZ
    {
        type            zeroGradient;
    }
    topAir_to_rightSolid
    {
        type            compressible::turbulentTemperatureCoupledBaffleMixed;
        refValue        nonuniform List<scalar> 
130
(
685.54457
691.7558
698.17889
704.48642
710.4125
715.81851
720.62746
724.78569
728.25767
731.03831
733.12836
734.5291
735.2355
680.82497
688.12856
695.50812
702.59268
709.09642
714.92253
720.0303
724.39116
727.99532
730.86281
733.00624
734.43538
735.15739
671.29259
681.10028
690.52593
699.13855
706.75483
713.37444
719.01261
723.72111
727.5511
730.57276
732.81415
734.29397
735.03969
656.98139
671.54253
684.27642
695.07381
704.12564
711.68618
717.92804
723.02112
727.10103
730.28139
732.61592
734.1533
734.91638
640.05069
662.4615
679.12069
692.01037
702.25282
710.53236
717.2087
722.57668
726.83421
730.1186
732.51078
734.07896
734.8575
640.19436
662.57822
679.21
692.06769
702.2721
710.5025
717.1803
722.5865
726.88256
730.17815
732.56961
734.1321
734.90824
657.26764
671.79018
684.47172
695.20584
704.20087
711.70759
717.95278
723.09772
727.22511
730.41694
732.74609
734.27144
735.02936
671.69178
681.43531
690.7958
699.33287
706.89724
713.47771
719.1256
723.86558
727.73163
730.76256
732.99387
734.46311
735.19629
681.2431
688.47268
695.79311
702.79326
709.25639
715.07183
720.19701
724.57904
728.20165
731.08494
733.23209
734.65539
735.35602
685.94687
692.08386
698.44286
704.68516
710.58346
715.99756
720.83893
725.01296
728.48389
731.2706
733.3662
734.75979
735.44795
)
;
        refGradient     uniform 0;
        valueFraction   uniform 0.99967867;
        value           nonuniform List<scalar> 
130
(
685.47221
691.68031
698.1002
704.40468
710.32799
715.73159
720.53852
724.69515
728.16596
730.94592
733.03586
734.43725
735.14525
680.74196
688.04187
695.41806
702.4996
709.00072
714.82459
719.93051
724.2899
727.89304
730.76001
732.90359
734.33391
735.05818
671.21437
681.01614
690.43636
699.0443
706.65667
713.27312
718.90881
723.61548
727.44423
730.46525
732.7067
734.18774
734.93703
656.91869
671.47467
684.20408
694.99755
704.04591
711.60336
717.84254
722.93335
727.0115
730.19074
732.52558
734.06499
734.83064
639.99395
662.39882
679.05408
691.941
702.18144
710.45949
717.13466
722.5017
726.75845
730.04228
732.43435
734.00329
734.78406
640.13753
662.51556
679.14344
691.99843
702.20092
710.42993
717.10666
722.51199
726.80735
730.10249
732.49398
734.05736
734.83586
657.20474
671.72236
684.39969
695.13018
704.12202
711.62589
717.86859
723.01137
727.13699
730.32781
732.65753
734.18481
734.94532
671.61336
681.35105
690.7062
699.23866
706.79916
713.37643
719.02173
723.75973
727.62445
730.65471
732.88606
734.35642
735.0932
681.15991
688.38584
695.70293
702.70014
709.16069
714.97391
720.09721
724.47775
728.09929
730.982
733.12924
734.55364
735.25657
685.8744
692.00827
698.3641
704.60338
710.49894
715.91065
720.75
724.92242
728.39218
731.17819
733.27366
734.66788
735.35765
)
;
        Tnbr            T;
        thicknessLayers List<scalar> 0();
        kappaLayers     List<scalar> 0();
        kappaMethod     fluidThermo;
        kappa           none;
        alphaAni        none;
        alpha           none;
        field           T;
    }
    topAir_to_heater
    {
        type            compressible::turbulentTemperatureCoupledBaffleMixed;
        refValue        nonuniform List<scalar> 
40
(
670.47245
672.11595
675.34546
679.9331
662.88167
664.81595
668.64405
674.12125
646.85622
649.37066
654.46351
661.97128
620.64431
623.82244
630.67386
641.798
582.20895
584.94176
592.57446
608.21758
582.2972
585.037
592.68229
608.3403
620.9897
624.16579
631.03225
642.13651
647.47611
649.9784
655.0228
662.4476
663.61806
665.50731
669.25334
674.63555
671.24116
672.82461
675.94855
680.4303
)
;
        refGradient     uniform 0;
        valueFraction   uniform 0.99967867;
        value           nonuniform List<scalar> 
40
(
670.4063
672.04965
675.27798
679.86352
662.81053
664.74297
668.56826
674.04199
646.79314
649.30605
654.39576
661.89882
620.59338
623.77114
630.62055
641.74075
582.17023
584.90246
592.53258
608.1705
582.25841
584.99756
592.64017
608.29302
620.93862
624.11429
630.97864
642.07894
647.41283
649.91357
654.95483
662.37492
663.54671
665.43414
669.17736
674.55611
671.1748
672.75812
675.88091
680.36059
)
;
        Tnbr            T;
        thicknessLayers List<scalar> 0();
        kappaLayers     List<scalar> 0();
        kappaMethod     fluidThermo;
        kappa           none;
        alphaAni        none;
        alpha           none;
        field           T;
    }
    topAir_to_leftSolid
    {
        type            compressible::turbulentTemperatureCoupledBaffleMixed;
        refValue        nonuniform List<scalar> 
130
(
753.65491
753.6096
753.5059
753.34818
753.14763
752.91392
752.65314
752.36818
752.0587
751.73974
751.46722
751.27209
751.1681
753.74732
753.70346
753.60173
753.44189
753.23445
752.98715
752.7079
752.4174
752.10142
751.75398
751.4634
751.25127
751.1359
753.86401
753.82141
753.72073
753.55844
753.34826
753.09198
752.78599
752.45066
752.11946
751.78695
751.47657
751.2319
751.09299
753.95568
753.90262
753.78865
753.6176
753.39885
753.13115
752.81441
752.46336
752.13007
751.80263
751.47788
751.22534
751.05993
753.94787
753.89625
753.78199
753.61208
753.39194
753.12165
752.80213
752.45412
752.12951
751.81837
751.51645
751.28228
751.12745
753.90826
753.85239
753.73938
753.57518
753.36241
753.0931
752.77562
752.45228
752.14148
751.8433
751.57134
751.35615
751.21273
753.85805
753.80638
753.69986
753.54516
753.33906
753.08475
752.80614
752.52477
752.24013
751.95681
751.69404
751.48759
751.36223
753.76259
753.71908
753.6227
753.4822
753.29703
753.08866
752.8701
752.63768
752.39169
752.13666
751.88976
751.69343
751.59634
753.67023
753.63195
753.54068
753.40779
753.25664
753.0935
752.91113
752.70895
752.48629
752.24159
752.03504
751.883
751.80258
753.61763
753.57595
753.48533
753.35822
753.21998
753.07122
752.90733
752.72313
752.51862
752.29533
752.10911
751.97723
751.90719
)
;
        refGradient     uniform 0;
        valueFraction   uniform 0.99967867;
        value           nonuniform List<scalar> 
130
(
753.5151
753.47534
753.37668
753.22364
753.0275
752.79799
752.54125
752.26017
751.95433
751.63874
751.36929
751.17688
751.07517
753.60748
753.56911
753.47232
753.31697
753.11371
752.8703
752.59469
752.30757
751.99469
751.65
751.36173
751.15135
751.03707
753.72413
753.68703
753.5913
753.43354
753.22755
752.97521
752.67292
752.34106
752.01311
751.68359
751.3759
751.13356
750.99649
753.81577
753.76822
753.65922
753.4927
753.27819
753.01446
752.7015
752.35404
752.02419
751.70001
751.37839
751.12881
750.96617
753.80796
753.76186
753.65256
753.4872
753.27129
753.00499
752.68926
752.34486
752.02369
751.71584
751.41708
751.18591
751.03386
753.76837
753.71801
753.60996
753.4503
753.24177
752.97644
752.66275
752.34301
752.03564
751.74075
751.47195
751.25976
751.11911
753.71818
753.67201
753.57045
753.42028
753.21841
752.96807
752.69322
752.41543
752.1342
751.85413
751.59446
751.39096
751.26836
753.62274
753.58473
753.4933
753.35731
753.17634
752.97188
752.75699
752.52802
752.28525
752.03319
751.78896
751.59494
751.49968
753.53041
753.49762
753.41128
753.28288
753.13589
752.97662
752.79786
752.59903
752.37944
752.13746
751.9332
751.7829
751.70357
753.47782
753.4417
753.35612
753.23367
753.09982
752.95524
752.79535
752.61501
752.41411
752.19416
752.01099
751.88181
751.81405
)
;
        Tnbr            T;
        thicknessLayers List<scalar> 0();
        kappaLayers     List<scalar> 0();
        kappaMethod     fluidThermo;
        kappa           none;
        alphaAni        none;
        alpha           none;
        field           T;
    }
}


// ************************************************************************* //
