/*--------------------------------*- C++ -*----------------------------------*\
| =========                 |                                                 |
| \\      /  F ield         | OpenFOAM: The Open Source CFD Toolbox           |
|  \\    /   O peration     | Version:  v2012                                 |
|   \\  /    A nd           | Website:  www.openfoam.com                      |
|    \\/     M anipulation  |                                                 |
\*---------------------------------------------------------------------------*/
FoamFile
{
    version     2.0;
    format      ascii;
    class       volScalarField;
    location    "530/bottomWater";
    object      p;
}
// * * * * * * * * * * * * * * * * * * * * * * * * * * * * * * * * * * * * * //

dimensions      [1 -1 -2 0 0 0 0];


internalField   nonuniform List<scalar> 
1460
(
353.48206
353.47666
353.49446
353.45893
353.46962
353.46875
353.47095
353.45905
353.47266
353.48043
353.47916
353.46641
353.46051
353.46057
353.45935
353.46678
353.46019
353.45883
353.46785
353.47167
353.47214
353.47754
353.47289
353.47609
353.47303
353.47071
353.4638
353.46244
353.46481
353.46632
274.39881
274.40636
274.449
274.42987
274.40493
274.40525
274.41171
274.41999
274.44669
274.48028
274.43888
274.38974
274.40956
274.40351
274.41857
274.45982
274.41513
274.43066
274.46236
274.47353
274.46097
274.40531
274.42864
274.44488
274.45235
274.42883
274.42431
274.40022
274.39844
274.4061
196.29989
196.26499
196.23047
196.26226
196.26198
196.31119
196.31063
196.29834
196.26218
196.24004
196.25789
196.25847
196.30977
196.28492
196.30647
196.2601
196.29713
196.28089
196.24834
196.27986
196.27332
196.30794
196.29366
196.26143
196.28801
196.28632
196.28734
196.29166
196.31586
196.33902
117.69429
117.62783
117.66163
117.63386
117.68249
117.71204
117.69535
117.68078
117.67085
117.67604
117.65497
117.68794
117.67993
117.68727
117.63074
117.65235
117.66953
117.64098
117.64392
117.67909
117.6939
117.68787
117.65342
117.66673
117.65363
117.63148
117.62326
117.65295
117.6681
117.67726
39.275034
39.270294
39.260925
39.238315
39.228401
39.249645
39.239948
39.242452
39.237495
39.24974
39.251454
39.245256
39.252831
39.25314
39.27879
39.267362
39.244309
39.263774
39.23303
39.220322
39.227241
39.232306
39.237589
39.232334
39.229583
39.255834
39.258016
39.243482
39.256711
39.260714
353.48554
353.47995
353.49514
353.47292
353.46958
353.46106
353.46785
353.46935
353.47234
353.4704
353.47328
353.47681
353.47711
353.44968
353.45644
353.45807
353.46282
353.45781
353.45334
353.45183
353.45054
353.48045
353.48644
353.47705
353.47879
353.47259
353.48437
353.47614
353.45911
353.46629
274.39444
274.39934
274.47263
274.46779
274.42578
274.40229
274.40616
274.39282
274.3931
274.39056
274.38462
274.41628
274.45979
274.42424
274.4144
274.40271
274.39952
274.40347
274.42116
274.42378
274.41246
274.45642
274.45596
274.40645
274.39475
274.41074
274.46629
274.46658
274.41012
274.41142
196.29027
196.24396
196.23609
196.24224
196.26012
196.29314
196.29002
196.31611
196.32712
196.3139
196.26368
196.24625
196.24013
196.25783
196.28142
196.30051
196.31215
196.30369
196.28689
196.28938
196.28223
196.24106
196.24648
196.29958
196.27523
196.30215
196.25094
196.22995
196.25233
196.28608
117.68913
117.6109
117.65012
117.6256
117.65516
117.66763
117.65631
117.67422
117.6757
117.68473
117.67839
117.662
117.65421
117.64604
117.65112
117.68431
117.67871
117.6657
117.62194
117.65509
117.64769
117.6421
117.63683
117.64708
117.68598
117.64587
117.66395
117.64683
117.64017
117.67335
39.272569
39.264198
39.251557
39.225443
39.216287
39.232425
39.245398
39.249771
39.263944
39.259559
39.248605
39.235555
39.259098
39.257995
39.247273
39.254719
39.269727
39.26439
39.255571
39.245323
39.227551
39.241085
39.256606
39.241176
39.247719
39.223219
39.233333
39.242395
39.24931
39.247936
353.47651
353.47428
353.48271
353.46517
353.479
353.46932
353.46892
353.46896
353.47714
353.47337
353.47372
353.47675
353.48136
353.45576
353.45304
353.45519
353.45631
353.45538
353.45802
353.4548
353.45246
353.45261
353.45549
353.45938
353.45963
353.47465
353.4729
353.47966
353.47448
353.47281
274.398
274.42035
274.46528
274.47861
274.47786
274.45332
274.42317
274.40048
274.38963
274.39202
274.40916
274.46997
274.48189
274.41795
274.41674
274.40709
274.41945
274.42329
274.41743
274.41097
274.40498
274.41304
274.42922
274.40862
274.42127
274.4586
274.48048
274.47226
274.43448
274.41352
196.28039
196.24494
196.25006
196.2665
196.26306
196.2604
196.24757
196.28203
196.30916
196.26468
196.24023
196.23239
196.23001
196.25575
196.30393
196.30731
196.30925
196.32401
196.30965
196.32513
196.30231
196.29647
196.30163
196.29328
196.27487
196.25563
196.2745
196.26837
196.25292
196.28557
117.67703
117.6075
117.65377
117.64862
117.68921
117.65735
117.64152
117.65336
117.67959
117.66411
117.6249
117.65142
117.64828
117.65333
117.64913
117.6394
117.59099
117.61099
117.62355
117.67792
117.67089
117.6237
117.60604
117.66793
117.61275
117.63741
117.65217
117.6815
117.66285
117.6649
39.25529
39.250409
39.227605
39.214351
39.231751
39.231119
39.257011
39.25984
39.279561
39.261387
39.252855
39.242424
39.244935
39.223793
39.224164
39.235152
39.271696
39.307774
39.257275
39.2429
39.241396
39.256025
39.293516
39.259833
39.261354
39.241095
39.228164
39.228198
39.233232
39.243011
353.47787
353.48251
353.48081
353.46893
353.46468
353.4649
353.47318
353.4693
353.46946
353.47128
353.46357
353.46002
353.45692
353.47181
353.45595
353.45394
353.47587
353.46539
353.45878
353.46806
353.4609
353.46561
353.46634
353.46991
353.46706
353.47005
353.46834
353.45914
353.46068
353.46124
274.39806
274.42276
274.47016
274.47396
274.46409
274.47347
274.46263
274.43544
274.4023
274.46355
274.45932
274.46
274.42635
274.46572
274.43279
274.42459
274.46821
274.46017
274.43059
274.4285
274.41354
274.40325
274.39872
274.38913
274.39015
274.44171
274.44956
274.41375
274.41396
274.40363
196.27284
196.22634
196.2559
196.25549
196.27018
196.27567
196.23241
196.27888
196.2599
196.23912
196.25434
196.27489
196.32063
196.26262
196.33324
196.30915
196.26192
196.2927
196.29585
196.29919
196.2978
196.29413
196.30237
196.32066
196.28554
196.26697
196.25073
196.28981
196.28781
196.31159
117.67575
117.62309
117.67728
117.68489
117.68662
117.65123
117.6508
117.62213
117.66199
117.61439
117.64679
117.65688
117.67414
117.6925
117.69163
117.65605
117.63823
117.62873
117.64781
117.62251
117.65397
117.6653
117.67855
117.67419
117.65223
117.6328
117.63229
117.65928
117.6681
117.6751
39.244675
39.239608
39.222386
39.221525
39.226278
39.21304
39.249003
39.263939
39.259207
39.251389
39.232809
39.226195
39.226525
39.226609
39.232507
39.222634
39.238472
39.246905
39.241007
39.268349
39.247706
39.257017
39.264107
39.268895
39.25775
39.26108
39.247202
39.23255
39.239672
39.25046
353.45917
353.45323
353.46577
353.4346
353.45277
353.44656
353.45316
353.45597
353.45967
353.46353
353.4678
353.46613
353.46408
353.44702
353.45436
353.43755
353.4577
353.45898
353.45897
353.46682
353.46849
353.46451
353.46356
353.4657
353.45704
353.46166
274.40645
274.4253
274.4599
274.42947
274.44434
274.44072
274.41962
274.41578
274.44077
274.47499
274.48303
274.46209
274.41984
274.42003
274.41833
274.41779
274.44358
274.43926
274.39848
274.39237
274.39162
274.38607
274.39534
274.42525
274.41465
274.40257
196.2762
196.25127
196.2489
196.29283
196.28278
196.27733
196.28243
196.28625
196.2505
196.2503
196.26862
196.25963
196.29075
196.3072
196.29644
196.27401
196.23279
196.25735
196.28471
196.31311
196.31658
196.28775
196.28236
196.28134
196.29163
196.30125
117.67645
117.61582
117.66404
117.64496
117.64842
117.62703
117.6491
117.67226
117.64515
117.66475
117.6786
117.68255
117.70095
117.69056
117.69009
117.65813
117.65717
117.64963
117.65652
117.67997
117.68516
117.67466
117.65773
117.62476
117.65881
117.6724
39.247886
39.248255
39.237352
39.21818
39.257561
39.251513
39.239309
39.231955
39.243851
39.226051
39.231542
39.234089
39.237012
39.235463
39.227789
39.232886
39.248444
39.267299
39.262776
39.265067
39.255401
39.247072
39.241586
39.251906
39.229574
39.245745
353.46775
353.46443
353.47083
353.44269
353.45333
353.44215
353.45152
353.4452
353.43905
353.44678
353.45499
353.45301
353.45055
353.44765
353.4479
353.45843
353.4766
353.48312
353.46634
353.47167
353.46691
353.46618
353.47254
353.48241
353.47981
353.47189
274.40514
274.42121
274.44322
274.42526
274.41599
274.41098
274.41128
274.40878
274.41957
274.44158
274.47142
274.45351
274.42743
274.44091
274.43642
274.45339
274.5002
274.46452
274.40676
274.39952
274.40909
274.41899
274.43392
274.46402
274.44908
274.42984
196.29082
196.27007
196.24262
196.28651
196.28696
196.29549
196.3039
196.28972
196.25875
196.25614
196.25777
196.24861
196.28446
196.31669
196.29591
196.24447
196.22471
196.22822
196.24465
196.26695
196.27119
196.25856
196.25035
196.25877
196.25584
196.27072
117.68745
117.62652
117.66026
117.64757
117.68401
117.6601
117.67447
117.66809
117.64027
117.66402
117.65936
117.64865
117.66037
117.69285
117.68333
117.66342
117.65349
117.65925
117.6388
117.67854
117.6416
117.6401
117.62495
117.66189
117.65038
117.62906
39.261753
39.267902
39.255695
39.230369
39.258258
39.245222
39.264895
39.255579
39.264028
39.237768
39.243857
39.242306
39.248068
39.234896
39.222635
39.215396
39.238528
39.245232
39.242478
39.23742
39.227401
39.238832
39.236948
39.21909
39.22006
39.243189
353.45675
353.45187
353.45489
353.44066
353.45279
353.44135
353.45158
353.44292
353.4478
353.4415
353.44474
353.44879
353.45436
353.44677
353.45709
353.46469
353.4715
353.47383
353.47394
353.48078
353.48053
353.48075
353.48065
353.47173
353.47138
353.48129
353.48617
353.49107
353.49182
353.48848
274.40826
274.42208
274.43036
274.41808
274.41278
274.43139
274.40709
274.41428
274.41586
274.43104
274.42962
274.42916
274.41784
274.42803
274.45704
274.47669
274.49379
274.47978
274.48294
274.48289
274.42654
274.39624
274.39452
274.40895
274.42629
274.46387
274.47093
274.47265
274.44409
274.40711
196.30096
196.29168
196.26493
196.30285
196.32246
196.32055
196.32867
196.32054
196.31147
196.30217
196.2983
196.3044
196.28953
196.26699
196.23957
196.2591
196.26074
196.25528
196.24972
196.2343
196.23646
196.26665
196.2944
196.2821
196.23585
196.24722
196.25385
196.27744
196.24529
196.29604
117.68778
117.63229
117.65779
117.65321
117.67307
117.6077
117.65657
117.66885
117.66532
117.63739
117.62412
117.64711
117.6724
117.64407
117.65959
117.66733
117.69754
117.68473
117.6629
117.65338
117.6448
117.65009
117.68083
117.66254
117.65616
117.67288
117.68317
117.66666
117.63739
117.65551
39.257968
39.271919
39.266494
39.235027
39.25835
39.284347
39.261646
39.253025
39.230028
39.246052
39.271212
39.264581
39.24939
39.247223
39.238522
39.220553
39.233751
39.222861
39.226974
39.246961
39.253052
39.256779
39.266353
39.252313
39.241222
39.222975
39.227196
39.229561
39.233907
39.242987
353.46604
353.45744
353.47129
353.43476
353.45783
353.44611
353.46292
353.43708
353.4453
353.44016
353.44383
353.44564
353.4477
353.44815
353.45253
353.45973
353.46779
353.4681
353.47495
353.47429
353.47583
353.47978
353.46821
353.46345
353.4817
353.48156
353.48048
353.48883
353.48484
353.48542
274.41221
274.45595
274.47025
274.43087
274.42488
274.45026
274.44522
274.43339
274.4336
274.42381
274.40972
274.41192
274.41481
274.41196
274.40905
274.44026
274.45998
274.4741
274.45141
274.39775
274.38195
274.39796
274.39767
274.40538
274.47081
274.47601
274.45785
274.44479
274.40332
274.39089
196.28501
196.25591
196.23702
196.26878
196.27432
196.30808
196.26478
196.30121
196.27727
196.29644
196.29414
196.3092
196.29086
196.28881
196.25432
196.2563
196.24844
196.26073
196.23473
196.24276
196.2649
196.29951
196.27923
196.25255
196.22817
196.27438
196.27262
196.26223
196.26879
196.30717
117.68582
117.63641
117.66102
117.6504
117.69162
117.63571
117.66515
117.66214
117.65354
117.66223
117.68009
117.68066
117.67864
117.6618
117.68004
117.64664
117.67038
117.66731
117.65352
117.63625
117.67013
117.68535
117.67467
117.64607
117.64422
117.6707
117.65119
117.61965
117.60258
117.65858
39.255272
39.25402
39.24886
39.226534
39.23581
39.25125
39.24077
39.247626
39.261936
39.254827
39.263624
39.26073
39.251961
39.243668
39.234248
39.240979
39.23239
39.223795
39.239833
39.250677
39.261302
39.279836
39.257785
39.259108
39.24412
39.233634
39.231934
39.236158
39.255434
39.26328
353.46821
353.46782
353.47169
353.45238
353.44929
353.444
353.46145
353.44481
353.47366
353.45587
353.44731
353.4548
353.44917
353.45975
353.45573
353.46515
353.45908
353.46711
353.45831
353.47008
353.46838
353.46932
353.47121
353.46979
353.47452
353.4843
353.48502
353.48564
353.48365
353.48792
274.41734
274.45272
274.49899
274.45698
274.427
274.42954
274.4252
274.43212
274.46616
274.4528
274.42548
274.41729
274.4442
274.44281
274.43609
274.40666
274.40564
274.42584
274.4038
274.3903
274.38775
274.42029
274.39213
274.39208
274.42518
274.45993
274.44607
274.40422
274.37394
274.38885
196.28299
196.23981
196.24876
196.25975
196.28967
196.30237
196.30345
196.28518
196.23589
196.25625
196.28502
196.26947
196.25802
196.25909
196.27808
196.26593
196.29359
196.25225
196.27044
196.28161
196.31949
196.30614
196.32192
196.28499
196.25665
196.26368
196.24464
196.26718
196.27485
196.35216
117.67926
117.64309
117.66407
117.66834
117.67778
117.65667
117.66411
117.62576
117.64051
117.65353
117.65986
117.68487
117.6315
117.66662
117.65285
117.67169
117.67594
117.66649
117.65882
117.67167
117.67907
117.61458
117.67263
117.66011
117.66018
117.66433
117.63423
117.62139
117.65509
117.68701
39.241456
39.232839
39.23386
39.216256
39.225226
39.221708
39.237282
39.264258
39.247188
39.231531
39.228157
39.23794
39.236648
39.231653
39.235258
39.240088
39.257983
39.234702
39.250149
39.245395
39.261186
39.283756
39.25673
39.243631
39.240163
39.226813
39.235615
39.256023
39.267121
39.285984
353.46066
353.45674
353.46939
353.45096
353.46032
353.44876
353.45624
353.44495
353.46095
353.44941
353.44609
353.45309
353.46289
353.4594
353.46382
353.46757
353.47254
353.46961
353.47241
353.47177
353.46465
353.49034
353.4758
353.47926
353.475
353.48863
353.47897
353.48655
353.47877
353.48326
274.4236
274.42973
274.46876
274.48051
274.47933
274.46159
274.42642
274.41447
274.41486
274.41864
274.42523
274.45779
274.50429
274.48676
274.47717
274.45923
274.43833
274.39151
274.39868
274.39942
274.41484
274.43355
274.42182
274.40021
274.41898
274.45673
274.46708
274.44782
274.39402
274.39374
196.2998
196.29303
196.27827
196.27664
196.27151
196.25858
196.29833
196.31465
196.32211
196.29155
196.26129
196.22966
196.22239
196.26315
196.25741
196.2571
196.26426
196.26075
196.31219
196.29471
196.32133
196.26388
196.32861
196.28527
196.28564
196.27196
196.26698
196.24404
196.26846
196.31252
117.68125
117.65734
117.68679
117.67203
117.65972
117.63872
117.65078
117.66974
117.66902
117.67528
117.65177
117.66609
117.65108
117.6807
117.67647
117.65172
117.63931
117.6593
117.67665
117.69669
117.65794
117.66343
117.63201
117.66986
117.63702
117.68107
117.65575
117.63357
117.63367
117.68068
39.2398
39.225183
39.231002
39.224196
39.231122
39.257518
39.264575
39.259215
39.257932
39.250023
39.253257
39.248912
39.238405
39.220747
39.226602
39.221126
39.255317
39.239055
39.255592
39.257242
39.248845
39.254821
39.280606
39.246784
39.239728
39.230263
39.223603
39.250646
39.266703
39.272041
)
;

boundaryField
{
    minX
    {
        type            calculated;
        value           nonuniform List<scalar> 
50
(
353.48206
274.39881
196.29989
117.69429
39.275034
353.48554
274.39444
196.29027
117.68913
39.272569
353.47651
274.398
196.28039
117.67703
39.25529
353.47787
274.39806
196.27284
117.67575
39.244675
353.45917
274.40645
196.2762
117.67645
39.247886
353.46775
274.40514
196.29082
117.68745
39.261753
353.45675
274.40826
196.30096
117.68778
39.257968
353.46604
274.41221
196.28501
117.68582
39.255272
353.46821
274.41734
196.28299
117.67926
39.241456
353.46066
274.4236
196.2998
117.68125
39.2398
)
;
    }
    maxX
    {
        type            calculated;
        value           nonuniform List<scalar> 
50
(
353.46632
274.4061
196.33902
117.67726
39.260714
353.46629
274.41142
196.28608
117.67335
39.247936
353.47281
274.41352
196.28557
117.6649
39.243011
353.46124
274.40363
196.31159
117.6751
39.25046
353.46166
274.40257
196.30125
117.6724
39.245745
353.47189
274.42984
196.27072
117.62906
39.243189
353.48848
274.40711
196.29604
117.65551
39.242987
353.48542
274.39089
196.30717
117.65858
39.26328
353.48792
274.38885
196.35216
117.68701
39.285984
353.48326
274.39374
196.31252
117.68068
39.272041
)
;
    }
    minY
    {
        type            calculated;
        value           nonuniform List<scalar> 
292
(
392.4
392.4
392.4
392.4
392.4
392.4
392.4
392.4
392.4
392.4
392.4
392.4
392.4
392.4
392.4
392.4
392.4
392.4
392.4
392.4
392.4
392.4
392.4
392.4
392.4
392.4
392.4
392.4
392.4
392.4
392.4
392.4
392.4
392.4
392.4
392.4
392.4
392.4
392.4
392.4
392.4
392.4
392.4
392.4
392.4
392.4
392.4
392.4
392.4
392.4
392.4
392.4
392.4
392.4
392.4
392.4
392.4
392.4
392.4
392.4
392.4
392.4
392.4
392.4
392.4
392.4
392.4
392.4
392.4
392.4
392.4
392.4
392.4
392.4
392.4
392.4
392.4
392.4
392.4
392.4
392.4
392.4
392.4
392.4
392.4
392.4
392.4
392.4
392.4
392.4
392.4
392.4
392.4
392.4
392.4
392.4
392.4
392.4
392.4
392.4
392.4
392.4
392.4
392.4
392.4
392.4
392.4
392.4
392.4
392.4
392.4
392.4
392.4
392.4
392.4
392.4
392.4
392.4
392.4
392.4
392.4
392.4
392.4
392.4
392.4
392.4
392.4
392.4
392.4
392.4
392.4
392.4
392.4
392.4
392.4
392.4
392.4
392.4
392.4
392.4
392.4
392.4
392.4
392.4
392.4
392.4
392.4
392.4
392.4
392.4
392.4
392.4
392.4
392.4
392.4
392.4
392.4
392.4
392.4
392.4
392.4
392.4
392.4
392.4
392.4
392.4
392.4
392.4
392.4
392.4
392.4
392.4
392.4
392.4
392.4
392.4
392.4
392.4
392.4
392.4
392.4
392.4
392.4
392.4
392.4
392.4
392.4
392.4
392.4
392.4
392.4
392.4
392.4
392.4
392.4
392.4
392.4
392.4
392.4
392.4
392.4
392.4
392.4
392.4
392.4
392.4
392.4
392.4
392.4
392.4
392.4
392.4
392.4
392.4
392.4
392.4
392.4
392.4
392.4
392.4
392.4
392.4
392.4
392.4
392.4
392.4
392.4
392.4
392.4
392.4
392.4
392.4
392.4
392.4
392.4
392.4
392.4
392.4
392.4
392.4
392.4
392.4
392.4
392.4
392.4
392.4
392.4
392.4
392.4
392.4
392.4
392.4
392.4
392.4
392.4
392.4
392.4
392.4
392.4
392.4
392.4
392.4
392.4
392.4
392.4
392.4
392.4
392.4
392.4
392.4
392.4
392.4
392.4
392.4
392.4
392.4
392.4
392.4
392.4
392.4
392.4
392.4
392.4
392.4
392.4
392.4
392.4
392.4
392.4
392.4
392.4
392.4
)
;
    }
    minZ
    {
        type            calculated;
        value           nonuniform List<scalar> 
150
(
353.48206
274.39881
196.29989
117.69429
39.275034
353.47666
274.40636
196.26499
117.62783
39.270294
353.49446
274.449
196.23047
117.66163
39.260925
353.45893
274.42987
196.26226
117.63386
39.238315
353.46962
274.40493
196.26198
117.68249
39.228401
353.46875
274.40525
196.31119
117.71204
39.249645
353.47095
274.41171
196.31063
117.69535
39.239948
353.45905
274.41999
196.29834
117.68078
39.242452
353.47266
274.44669
196.26218
117.67085
39.237495
353.48043
274.48028
196.24004
117.67604
39.24974
353.47916
274.43888
196.25789
117.65497
39.251454
353.46641
274.38974
196.25847
117.68794
39.245256
353.46051
274.40956
196.30977
117.67993
39.252831
353.46057
274.40351
196.28492
117.68727
39.25314
353.45935
274.41857
196.30647
117.63074
39.27879
353.46678
274.45982
196.2601
117.65235
39.267362
353.46019
274.41513
196.29713
117.66953
39.244309
353.45883
274.43066
196.28089
117.64098
39.263774
353.46785
274.46236
196.24834
117.64392
39.23303
353.47167
274.47353
196.27986
117.67909
39.220322
353.47214
274.46097
196.27332
117.6939
39.227241
353.47754
274.40531
196.30794
117.68787
39.232306
353.47289
274.42864
196.29366
117.65342
39.237589
353.47609
274.44488
196.26143
117.66673
39.232334
353.47303
274.45235
196.28801
117.65363
39.229583
353.47071
274.42883
196.28632
117.63148
39.255834
353.4638
274.42431
196.28734
117.62326
39.258016
353.46244
274.40022
196.29166
117.65295
39.243482
353.46481
274.39844
196.31586
117.6681
39.256711
353.46632
274.4061
196.33902
117.67726
39.260714
)
;
    }
    maxZ
    {
        type            calculated;
        value           nonuniform List<scalar> 
150
(
353.46066
274.4236
196.2998
117.68125
39.2398
353.45674
274.42973
196.29303
117.65734
39.225183
353.46939
274.46876
196.27827
117.68679
39.231002
353.45096
274.48051
196.27664
117.67203
39.224196
353.46032
274.47933
196.27151
117.65972
39.231122
353.44876
274.46159
196.25858
117.63872
39.257518
353.45624
274.42642
196.29833
117.65078
39.264575
353.44495
274.41447
196.31465
117.66974
39.259215
353.46095
274.41486
196.32211
117.66902
39.257932
353.44941
274.41864
196.29155
117.67528
39.250023
353.44609
274.42523
196.26129
117.65177
39.253257
353.45309
274.45779
196.22966
117.66609
39.248912
353.46289
274.50429
196.22239
117.65108
39.238405
353.4594
274.48676
196.26315
117.6807
39.220747
353.46382
274.47717
196.25741
117.67647
39.226602
353.46757
274.45923
196.2571
117.65172
39.221126
353.47254
274.43833
196.26426
117.63931
39.255317
353.46961
274.39151
196.26075
117.6593
39.239055
353.47241
274.39868
196.31219
117.67665
39.255592
353.47177
274.39942
196.29471
117.69669
39.257242
353.46465
274.41484
196.32133
117.65794
39.248845
353.49034
274.43355
196.26388
117.66343
39.254821
353.4758
274.42182
196.32861
117.63201
39.280606
353.47926
274.40021
196.28527
117.66986
39.246784
353.475
274.41898
196.28564
117.63702
39.239728
353.48863
274.45673
196.27196
117.68107
39.230263
353.47897
274.46708
196.26698
117.65575
39.223603
353.48655
274.44782
196.24404
117.63357
39.250646
353.47877
274.39402
196.26846
117.63367
39.266703
353.48326
274.39374
196.31252
117.68068
39.272041
)
;
    }
    bottomWater_to_rightSolid
    {
        type            calculated;
        value           nonuniform List<scalar> 
130
(
0.023774227
-0.0069696559
-0.019677597
-0.012758823
-0.0076937261
-0.0024111534
-0.0076660386
-0.010417162
0.015834395
0.018016431
0.0034821887
0.01671105
0.020714301
0.024390274
0.015571214
0.0053233318
-0.0124494
0.0010849623
0.016606397
0.0011763417
0.0077192129
-0.016780521
-0.0066665641
0.0023951788
0.009309879
0.0079358637
0.067774297
0.017274588
0.002900096
0.001396058
0.016025415
0.053515878
0.019832975
0.021354258
0.0010953501
-0.011835858
-0.011802323
-0.0067682743
0.0030108012
0.0069048487
0.0010074585
0.028349008
0.0077061098
0.017016762
0.024107086
0.028894891
0.017749746
0.021080227
0.0072023076
-0.0074504298
-0.00032797001
0.010459636
-0.0045368018
-0.012210872
-0.0071137636
0.0084442925
0.027299138
0.022775725
0.025067272
0.015401045
0.0070716059
0.001585784
0.0119055
-0.010425541
0.0057449152
-0.0051040357
-0.01736463
-0.024603966
-0.0014715119
0.005232228
0.0024776462
-0.0025795333
-0.012598656
-0.0011676963
-0.0030522624
-0.020910175
-0.019940061
0.0031885981
-0.017138883
-0.013026493
0.0069612157
0.013051588
0.016778746
0.026352519
0.012312735
0.0012216445
-0.017024686
-0.012803695
-0.010439091
-0.0060932063
0.0029869818
-0.016204599
-0.00016657604
0.010676871
0.021302426
0.039836056
0.01778489
0.019108227
0.0041204954
-0.0063655843
-0.0080661249
-0.0038421491
0.015433808
0.023280372
-0.0052984086
0.010149496
0.0053949694
0.021186306
0.043756243
0.016729637
0.0036306921
0.0001630793
-0.013187029
-0.0043845825
0.01602339
0.027120932
0.045983749
-0.00094488363
0.015592074
0.017241612
0.0088449809
0.014821323
0.040605974
0.0067839076
-0.00027186313
-0.0097368309
-0.016397155
0.010646127
0.026702742
0.032040737
)
;
    }
    bottomWater_to_leftSolid
    {
        type            calculated;
        value           nonuniform List<scalar> 
130
(
0.035033949
0.030293789
0.020925393
-0.0016850519
-0.011598518
0.0096452777
-5.1675169e-05
0.0024517849
-0.0025051505
0.0097401641
0.011453944
0.0052562828
0.012831372
0.032568824
0.024197952
0.011557192
-0.014557191
-0.023713197
-0.0075751196
0.0053978837
0.0097712938
0.023944326
0.019558843
0.0086048014
-0.0044445617
0.019098379
0.015290302
0.01040863
-0.012394849
-0.025648974
-0.0082489209
-0.0088811278
0.017011075
0.019840155
0.039561031
0.021387202
0.012854626
0.0024240004
0.0049347777
0.0046749242
-0.00039214849
-0.017614484
-0.018474662
-0.013721912
-0.026960426
0.0090032547
0.023938722
0.019206684
0.011388726
-0.007190806
-0.013805043
-0.013475239
0.0078856258
0.0082551522
-0.0026478504
-0.021820072
0.017560991
0.011512999
-0.00069147325
-0.0080445577
0.0038508244
-0.013949039
-0.0084580933
-0.0059110091
-0.0029878478
0.021752706
0.02790186
0.015694618
-0.0096311251
0.018258093
0.0052223274
0.024895149
0.015578651
0.024027756
-0.0022316234
0.003856995
0.0023058452
0.0080681918
0.017968317
0.031919032
0.026494097
-0.0049728933
0.018349841
0.044347163
0.021646269
0.013024819
-0.0099715792
0.0060515287
0.031212455
0.024580817
0.0093896331
0.015271923
0.01402038
0.0088595228
-0.013466444
-0.0041896182
0.011250445
0.00076955068
0.0076263624
0.021936064
0.014826793
0.023623858
0.020730292
0.011961461
0.0014561304
-0.0071608487
-0.0061401188
-0.023743909
-0.014773504
-0.018292224
-0.0027176139
0.024257632
0.0071882744
-0.0084687717
-0.011843068
-0.0020600573
-0.0033522121
-0.00020017172
-0.014817187
-0.0089976394
-0.015803772
-0.0088778794
0.017518266
0.024574927
0.01921514
0.017932271
0.010022759
0.013257399
0.0089116125
-0.0015948465
)
;
    }
    bottomWater_to_heater
    {
        type            calculated;
        value           nonuniform List<scalar> 
92
(
0.013139558
0.038789664
0.02736226
0.0043094158
0.017994588
0.0072732901
0.014718936
0.029726703
-0.016206731
-0.015835573
-0.0048476507
0.031695977
353.47181
353.45595
353.45394
353.47587
274.46572
274.43279
274.42459
274.46821
196.26262
196.33324
196.30915
196.26192
117.6925
117.69163
117.65605
117.63823
-0.013391001
39.226609
-0.0074927811
39.232507
-0.017365705
39.222634
-0.001527792
39.238472
353.46408
353.44702
274.41984
274.42003
196.29075
196.3072
117.70095
117.69056
39.237012
39.235463
353.45055
353.44677
353.45709
353.46469
353.44765
353.4715
274.42743
274.42803
274.45704
274.47669
274.44091
274.49379
196.28446
196.26699
196.23957
196.2591
196.31669
196.26074
117.66037
117.64407
117.65959
117.66733
117.69285
117.69754
39.248068
39.247223
39.238522
39.220553
39.234896
39.233751
0.0072227287
-0.0014783618
-0.019446521
-0.0062492621
0.0036684962
-0.0057519055
0.00097921506
-0.0076099528
-0.0083466946
-0.0047422249
8.8273467e-05
0.017983077
-0.019252994
-0.013398418
-0.018874392
0.015317426
)
;
    }
}


// ************************************************************************* //
