/*--------------------------------*- C++ -*----------------------------------*\
| =========                 |                                                 |
| \\      /  F ield         | OpenFOAM: The Open Source CFD Toolbox           |
|  \\    /   O peration     | Version:  v2012                                 |
|   \\  /    A nd           | Website:  www.openfoam.com                      |
|    \\/     M anipulation  |                                                 |
\*---------------------------------------------------------------------------*/
FoamFile
{
    version     2.0;
    format      ascii;
    class       volScalarField;
    location    "530/bottomWater";
    object      p_rgh;
}
// * * * * * * * * * * * * * * * * * * * * * * * * * * * * * * * * * * * * * //

dimensions      [1 -1 -2 0 0 0 0];


internalField   nonuniform List<scalar> 
1460
(
0.32206274
0.31666163
0.33446148
0.29892808
0.30961654
0.30874551
0.31094652
0.29904992
0.31265667
0.32043471
0.3191611
0.30640867
0.30051071
0.30057139
0.29935306
0.30678244
0.30018501
0.2988323
0.30784812
0.31166938
0.31214427
0.31753757
0.31289279
0.31608584
0.31302702
0.31071293
0.30379542
0.30244245
0.30480944
0.30632052
-0.28119216
-0.27364463
-0.23100161
-0.2501327
-0.27507082
-0.27475472
-0.26828839
-0.26000781
-0.23330972
-0.19971696
-0.24111873
-0.29026273
-0.27044046
-0.27648757
-0.26143334
-0.22017536
-0.26487296
-0.2493432
-0.2176392
-0.2064654
-0.21902956
-0.27468918
-0.25135826
-0.2351174
-0.2276547
-0.25116664
-0.25569086
-0.27978017
-0.28156026
-0.27389524
0.099888325
0.064985972
0.030473709
0.062257207
0.061978659
0.11119444
0.11062783
0.098335491
0.062183107
0.040041122
0.057893328
0.058472077
0.10977337
0.084921612
0.10647007
0.060104108
0.097126248
0.080893201
0.048339455
0.079856235
0.07332176
0.10793747
0.093657411
0.061433929
0.088005739
0.086320543
0.087341766
0.091662305
0.11586224
0.1390156
-0.025707571
-0.092166258
-0.058373332
-0.086142663
-0.037513064
-0.0079639068
-0.024647868
-0.039221753
-0.049151713
-0.043963718
-0.065026797
-0.032061788
-0.040067905
-0.032726474
-0.089255758
-0.06765394
-0.050469204
-0.079022747
-0.076077322
-0.040909188
-0.026099922
-0.032127796
-0.066581685
-0.053265915
-0.066369012
-0.088522716
-0.096744854
-0.067053329
-0.051899279
-0.042743716
0.035033949
0.030293789
0.020925393
-0.0016850519
-0.011598518
0.0096452777
-5.167517e-05
0.0024517849
-0.0025051505
0.0097401641
0.011453944
0.0052562828
0.012831372
0.013139558
0.038789664
0.02736226
0.0043094158
0.023774227
-0.0069696559
-0.019677597
-0.012758823
-0.0076937261
-0.0024111534
-0.0076660386
-0.010417162
0.015834395
0.018016431
0.0034821887
0.01671105
0.020714301
0.3255417
0.31995457
0.33513926
0.31291939
0.30957709
0.30105983
0.307854
0.30934732
0.31233715
0.31039619
0.31327711
0.31681249
0.31710994
0.28968355
0.2964382
0.29806813
0.30281994
0.29781464
0.2933376
0.29182784
0.29054344
0.32045072
0.32644326
0.31704529
0.31879195
0.3125941
0.3243674
0.31613793
0.29911202
0.30628958
-0.28555516
-0.28065528
-0.20737299
-0.21220626
-0.25421823
-0.27770931
-0.27384017
-0.28718361
-0.28690484
-0.28944277
-0.29538368
-0.26372461
-0.22020821
-0.25575575
-0.26559535
-0.27729169
-0.28048019
-0.27653374
-0.25883543
-0.25621623
-0.26754009
-0.22357512
-0.22404162
-0.27355165
-0.28525235
-0.26926084
-0.21370503
-0.21342464
-0.26987573
-0.26858264
0.090268264
0.043956522
0.03608975
0.042237239
0.060120934
0.093143164
0.090020663
0.11611294
0.12711794
0.11389781
0.063682238
0.046248819
0.040127121
0.057834137
0.081422061
0.10050961
0.11214666
0.10368762
0.086890761
0.089379762
0.082231577
0.041060848
0.046476122
0.099575731
0.075233738
0.10215405
0.050940318
0.029954625
0.052326797
0.086078349
-0.030872623
-0.10909544
-0.069880661
-0.094401647
-0.064841701
-0.052365503
-0.063690746
-0.045775955
-0.044301973
-0.035266342
-0.041608999
-0.057996551
-0.065790683
-0.07395908
-0.068881468
-0.03569465
-0.041290531
-0.054299794
-0.098058149
-0.064913032
-0.072309118
-0.077898273
-0.083169703
-0.072919061
-0.034022704
-0.074129388
-0.056052976
-0.073169149
-0.079829123
-0.046645319
0.032568824
0.024197952
0.011557192
-0.014557191
-0.023713197
-0.0075751196
0.0053978837
0.0097712938
0.023944326
0.019558843
0.0086048014
-0.0044445617
0.019098379
0.017994588
0.0072732901
0.014718936
0.029726703
0.024390274
0.015571214
0.0053233318
-0.0124494
0.0010849623
0.016606397
0.0011763417
0.0077192129
-0.016780521
-0.0066665641
0.0023951788
0.009309879
0.0079358637
0.31650607
0.31427794
0.32270914
0.30517499
0.31900073
0.30931711
0.30891604
0.30896009
0.31713985
0.31337495
0.31372223
0.31675302
0.32136094
0.29576205
0.29304244
0.29519434
0.29631465
0.29537957
0.29802397
0.29479558
0.29245876
0.29260648
0.29548788
0.29937919
0.29962896
0.31465441
0.31289923
0.31966157
0.31448181
0.31280989
-0.28200235
-0.25965346
-0.21471748
-0.20139455
-0.20214097
-0.22668167
-0.25682865
-0.2795194
-0.2903737
-0.28797973
-0.2708374
-0.21003071
-0.19811211
-0.26205053
-0.26326439
-0.27291326
-0.26054524
-0.25671032
-0.26256699
-0.26902933
-0.27502485
-0.26696124
-0.25078001
-0.27137599
-0.25873015
-0.22139839
-0.19951806
-0.2077395
-0.24551975
-0.26647825
0.080388125
0.044939325
0.050058929
0.066495076
0.063055577
0.060400093
0.047566923
0.082032073
0.10915836
0.064676226
0.040226129
0.032389145
0.030006315
0.055751717
0.10392998
0.10730858
0.10925082
0.12400616
0.10964542
0.12512845
0.1023104
0.096470369
0.10163199
0.093284623
0.074870353
0.05563339
0.074499296
0.068367904
0.052922887
0.085571266
-0.042965542
-0.11250034
-0.066232956
-0.071381998
-0.030786191
-0.062651242
-0.078481365
-0.066637505
-0.040412216
-0.05589421
-0.095099047
-0.068575223
-0.071719707
-0.066668843
-0.070868278
-0.080597841
-0.12900544
-0.10900658
-0.096445509
-0.042079329
-0.049112674
-0.096303091
-0.11396257
-0.052073315
-0.10725469
-0.082586231
-0.067834538
-0.038499354
-0.057147708
-0.055097091
0.015290302
0.01040863
-0.012394849
-0.025648974
-0.0082489209
-0.0088811278
0.017011075
0.019840155
0.039561031
0.021387202
0.012854626
0.0024240004
0.0049347777
-0.016206731
-0.015835573
-0.0048476507
0.031695977
0.067774297
0.017274588
0.002900096
0.001396058
0.016025415
0.053515878
0.019832975
0.021354258
0.0010953501
-0.011835858
-0.011802323
-0.0067682743
0.0030108012
0.31786572
0.3225103
0.32081142
0.30892814
0.30468224
0.30489849
0.3131796
0.30929984
0.30946354
0.311283
0.30357261
0.30002077
0.29691729
0.31180773
0.29594722
0.29394333
0.31587287
0.30539283
0.29877593
0.3080554
0.30090451
0.3056092
0.30633795
0.30991176
0.30705642
0.31004622
0.3083396
0.29914216
0.30067941
0.301236
-0.2819384
-0.25724391
-0.20983627
-0.2060384
-0.21591313
-0.20653382
-0.21737391
-0.24455689
-0.27770342
-0.21644693
-0.22068225
-0.21999885
-0.25364741
-0.21427858
-0.24720809
-0.25541353
-0.21178741
-0.21982969
-0.24941053
-0.25149925
-0.26646448
-0.27674758
-0.28128338
-0.29086622
-0.28984531
-0.23828613
-0.23044174
-0.26624664
-0.26603805
-0.27636594
0.072835859
0.026337128
0.055899547
0.055488096
0.070176071
0.075670577
0.032411631
0.078880801
0.059901452
0.039117637
0.054340706
0.074890652
0.12063187
0.062623207
0.13323559
0.10915471
0.061918563
0.092697499
0.095845749
0.099185391
0.097795134
0.094132409
0.10236826
0.12065797
0.08554401
0.066969992
0.050729367
0.089814517
0.087808505
0.1115871
-0.04425192
-0.096906687
-0.042718945
-0.035105503
-0.033382807
-0.068770699
-0.06920282
-0.097869389
-0.058007619
-0.10560811
-0.07321225
-0.063118983
-0.045863138
-0.027496577
-0.028366103
-0.06395387
-0.081767636
-0.091274672
-0.07218786
-0.09749323
-0.066028605
-0.054702063
-0.041454851
-0.045805194
-0.067765703
-0.087204626
-0.087711737
-0.060715574
-0.051904034
-0.044900011
0.0046749242
-0.00039214849
-0.017614484
-0.018474662
-0.013721912
-0.026960426
0.0090032547
0.023938722
0.019206684
0.011388726
-0.007190806
-0.013805043
-0.013475239
-0.013391001
-0.0074927811
-0.017365705
-0.001527792
0.0069048487
0.0010074585
0.028349008
0.0077061098
0.017016762
0.024107086
0.028894891
0.017749746
0.021080227
0.0072023076
-0.0074504298
-0.00032797001
0.010459636
0.29916845
0.29323347
0.30577375
0.27460175
0.29277299
0.286564
0.29315676
0.29596658
0.29967271
0.30352799
0.30779835
0.30612523
0.30407853
0.28701888
0.2943608
0.27755467
0.29769713
0.29898271
0.29897096
0.30682456
0.30849028
0.30450628
0.30356387
0.30569613
0.29704424
0.30166357
-0.27354535
-0.25470093
-0.22010065
-0.25052812
-0.23566141
-0.23928155
-0.26037759
-0.2642213
-0.23923475
-0.2050073
-0.1969739
-0.21791463
-0.26016055
-0.25996897
-0.2616722
-0.26220883
-0.2364181
-0.2407386
-0.28151503
-0.28762633
-0.28837713
-0.29393357
-0.2846625
-0.25475322
-0.2653545
-0.27742582
0.076204013
0.051265628
0.048902308
0.092832861
0.082777931
0.077328831
0.082430391
0.086251505
0.05049678
0.050303469
0.0686181
0.059630004
0.090754392
0.10720222
0.096444493
0.074007952
0.032794662
0.057347312
0.08471301
0.11310559
0.11658294
0.087753735
0.082363856
0.081339904
0.091629022
0.10125463
-0.043551297
-0.10418438
-0.055964304
-0.075035001
-0.071577535
-0.092972339
-0.070900458
-0.047735972
-0.074846909
-0.055246114
-0.041401352
-0.037450037
-0.019048419
-0.029439623
-0.029912283
-0.061865084
-0.062827914
-0.070369925
-0.063479776
-0.040026234
-0.03484355
-0.045337909
-0.062265499
-0.095237997
-0.061191639
-0.047603329
0.0078856258
0.0082551522
-0.0026478504
-0.021820072
0.017560991
0.011512999
-0.00069147325
-0.0080445577
0.0038508244
-0.013949039
-0.0084580933
-0.0059110091
-0.0029878478
-0.0045368018
-0.012210872
-0.0071137636
0.0084442925
0.027299138
0.022775725
0.025067272
0.015401045
0.0070716059
0.001585784
0.0119055
-0.010425541
0.0057449152
0.30775434
0.30442544
0.31082797
0.28268988
0.29332971
0.28215113
0.29152435
0.28519726
0.27904996
0.28678397
0.29498592
0.29301484
0.29054598
0.28765487
0.28789788
0.29842894
0.3165999
0.3231182
0.30633617
0.31166875
0.30690965
0.30617676
0.31253851
0.32241441
0.31981037
0.31189066
-0.27486273
-0.25878808
-0.23678399
-0.25474102
-0.26401296
-0.26901933
-0.26872107
-0.27121914
-0.26043251
-0.23841863
-0.20858436
-0.22648878
-0.2525736
-0.23909021
-0.24357897
-0.2266101
-0.17979822
-0.21548189
-0.27323686
-0.28047927
-0.27091024
-0.26100849
-0.24607546
-0.21597978
-0.23091788
-0.25016251
0.090822287
0.070065978
0.042615529
0.086510517
0.086959495
0.095489528
0.10389813
0.089717436
0.058753463
0.056139493
0.057769325
0.048612473
0.08446303
0.11668816
0.095905639
0.044466157
0.02471012
0.028216102
0.044650382
0.066946273
0.07119478
0.0585637
0.050354653
0.058774718
0.055843661
0.070716266
-0.032550616
-0.093481812
-0.059741902
-0.072428498
-0.035989979
-0.059897877
-0.045533356
-0.051908668
-0.079725567
-0.055975887
-0.060635525
-0.07135291
-0.059634305
-0.02715094
-0.036672684
-0.056580202
-0.066511229
-0.060747725
-0.081200355
-0.041461205
-0.078401851
-0.07989697
-0.095048899
-0.058112926
-0.06961712
-0.090939442
0.021752706
0.02790186
0.015694618
-0.0096311251
0.018258093
0.0052223274
0.024895149
0.015578651
0.024027756
-0.0022316234
0.003856995
0.0023058452
0.0080681918
-0.0051040357
-0.01736463
-0.024603966
-0.0014715119
0.005232228
0.0024776462
-0.0025795333
-0.012598656
-0.0011676963
-0.0030522624
-0.020910175
-0.019940061
0.0031885981
0.2967506
0.29187023
0.29489092
0.28066274
0.29279069
0.28134667
0.29158069
0.28291867
0.28779696
0.28149998
0.28473677
0.28879474
0.29436037
0.28676659
0.29708827
0.30469166
0.3114972
0.31382839
0.31394077
0.32078126
0.32052589
0.32074786
0.32064788
0.31172958
0.31138147
0.32128566
0.32617186
0.33106884
0.33181843
0.32848408
-0.27173676
-0.25791507
-0.24963956
-0.26192122
-0.26721518
-0.2486062
-0.27291433
-0.26572243
-0.26414069
-0.24896253
-0.25038147
-0.25084067
-0.26215765
-0.25196646
-0.22296216
-0.20331092
-0.18621354
-0.20021549
-0.19706392
-0.19711101
-0.2534599
-0.28376461
-0.2854806
-0.27104635
-0.2537123
-0.21612977
-0.20907345
-0.20735295
-0.23590885
-0.27289339
0.10096244
0.091680931
0.064934289
0.10284949
0.12246015
0.12055419
0.12867288
0.12054216
0.11147286
0.1021736
0.098300998
0.10440208
0.089533488
0.066986228
0.03956749
0.059104909
0.060737364
0.055281319
0.04971571
0.034300436
0.036462874
0.066647766
0.094397561
0.082100347
0.035846955
0.047220212
0.053847619
0.077437487
0.045291123
0.096039932
-0.032218324
-0.087708439
-0.062210112
-0.066786121
-0.046932606
-0.11230153
-0.063427985
-0.051148434
-0.054682227
-0.082607367
-0.095884943
-0.072893899
-0.047602661
-0.075925935
-0.060405821
-0.052674385
-0.022461508
-0.03527179
-0.057096785
-0.066617163
-0.07519726
-0.069914968
-0.039171221
-0.057457616
-0.063835998
-0.047118492
-0.036833222
-0.053337991
-0.082606142
-0.064487181
0.017968317
0.031919032
0.026494097
-0.0049728933
0.018349841
0.044347163
0.021646269
0.013024819
-0.0099715792
0.0060515287
0.031212455
0.024580817
0.0093896331
0.0072227287
-0.0014783618
-0.019446521
-0.0062492621
-0.017138883
-0.013026493
0.0069612157
0.013051588
0.016778746
0.026352519
0.012312735
0.0012216445
-0.017024686
-0.012803695
-0.010439091
-0.0060932063
0.0029869818
0.30603535
0.29743888
0.31129405
0.27476393
0.29783229
0.28611145
0.30291619
0.27707513
0.28530428
0.28015586
0.28383242
0.28564126
0.28770392
0.28814518
0.29253085
0.29973132
0.30779441
0.30809669
0.31495449
0.31429032
0.31582538
0.31977786
0.3082082
0.30344938
0.32169634
0.32155743
0.32048178
0.32883163
0.32483739
0.32541982
-0.26778698
-0.22404893
-0.20975268
-0.24912766
-0.25512006
-0.22974218
-0.23477886
-0.24660647
-0.24639761
-0.25619439
-0.27027602
-0.26807617
-0.26518944
-0.26804178
-0.2709467
-0.23973768
-0.22002235
-0.20590081
-0.22859035
-0.28224593
-0.2980461
-0.28204465
-0.28232533
-0.27462413
-0.20919351
-0.20398779
-0.22215159
-0.23520514
-0.27668374
-0.28911039
0.085010547
0.055909093
0.0370248
0.068776913
0.07432464
0.10808463
0.064780185
0.10120599
0.077272466
0.096435121
0.094138696
0.10919717
0.090859715
0.08881212
0.054315533
0.056296305
0.048436488
0.060732796
0.034729188
0.042758674
0.064900981
0.099505186
0.079229163
0.052548842
0.028171747
0.074382994
0.072619846
0.062228712
0.068792353
0.10716983
-0.034184912
-0.083586594
-0.058978012
-0.06959699
-0.028380354
-0.084291581
-0.05484622
-0.057864835
-0.066460734
-0.05776569
-0.039911531
-0.039340977
-0.041358397
-0.058197541
-0.039962746
-0.073363672
-0.049621704
-0.052689319
-0.066483954
-0.083751078
-0.04986874
-0.034652462
-0.045328446
-0.07393315
-0.075779244
-0.049303169
-0.068808381
-0.10035492
-0.11742071
-0.061415821
0.015271923
0.01402038
0.0088595228
-0.013466444
-0.0041896182
0.011250445
0.00076955068
0.0076263624
0.021936064
0.014826793
0.023623858
0.020730292
0.011961461
0.0036684962
-0.0057519055
0.00097921506
-0.0076099528
-0.016204599
-0.00016657604
0.010676871
0.021302426
0.039836056
0.01778489
0.019108227
0.0041204954
-0.0063655843
-0.0080661249
-0.0038421491
0.015433808
0.023280372
0.30820711
0.30781612
0.31169411
0.29238233
0.28928674
0.28399884
0.30145041
0.28480676
0.31365844
0.29586785
0.28730756
0.29479744
0.28917002
0.29974843
0.29573066
0.30515499
0.29907594
0.30711049
0.29831172
0.31007811
0.30837783
0.3093193
0.31121438
0.3097935
0.31451554
0.32429781
0.32502267
0.32563808
0.32364787
0.32791938
-0.26265736
-0.2272796
-0.181007
-0.22301738
-0.25300465
-0.25045613
-0.25480287
-0.24787647
-0.21384064
-0.22720017
-0.25451787
-0.26270756
-0.23579998
-0.23718711
-0.24390697
-0.2733355
-0.27436391
-0.25416153
-0.27619756
-0.28969841
-0.29225012
-0.25971005
-0.28787432
-0.28792191
-0.25482184
-0.2200734
-0.23393166
-0.27578257
-0.30605665
-0.29114553
0.082986861
0.039808088
0.048762883
0.059746294
0.089667177
0.10236997
0.10345165
0.085177259
0.035888545
0.056248333
0.085018583
0.06947138
0.058020472
0.059090692
0.078084204
0.065929845
0.093589886
0.052252642
0.07043895
0.081610629
0.11949123
0.10614158
0.12191818
0.084993901
0.056654226
0.063675596
0.044636421
0.067184012
0.074847177
0.15216222
-0.040737484
-0.076913954
-0.055930168
-0.051659634
-0.042220812
-0.063330956
-0.055886667
-0.094240581
-0.079493403
-0.066469886
-0.060140815
-0.035132897
-0.088500247
-0.053375621
-0.067148126
-0.048313252
-0.04406285
-0.05351014
-0.061177913
-0.048333413
-0.040934918
-0.10541524
-0.047366491
-0.059894672
-0.059820544
-0.055668562
-0.085774046
-0.098609361
-0.064911396
-0.032989555
0.0014561304
-0.0071608487
-0.0061401188
-0.023743909
-0.014773504
-0.018292224
-0.0027176139
0.024257632
0.0071882744
-0.0084687717
-0.011843068
-0.0020600573
-0.0033522121
-0.0083466946
-0.0047422249
8.8273467e-05
0.017983077
-0.0052984086
0.010149496
0.0053949694
0.021186306
0.043756243
0.016729637
0.0036306921
0.0001630793
-0.013187029
-0.0043845825
0.01602339
0.027120932
0.045983749
0.30065955
0.29673575
0.30938665
0.29095779
0.30032399
0.28875627
0.2962412
0.28495364
0.30094986
0.28941213
0.28609326
0.29309309
0.302888
0.29939869
0.30382201
0.30756596
0.31254337
0.3096095
0.31241236
0.31177407
0.30464819
0.33034205
0.31580032
0.31926305
0.3150006
0.32863147
0.3189732
0.32655352
0.31877081
0.32325598
-0.25640123
-0.25027389
-0.21123787
-0.19948902
-0.20067166
-0.21840722
-0.25357918
-0.26553212
-0.26513778
-0.26135949
-0.25477366
-0.22220705
-0.17570583
-0.1932377
-0.20282818
-0.22077394
-0.24167363
-0.28848503
-0.28132286
-0.28057669
-0.26515861
-0.24644501
-0.25817825
-0.27979189
-0.26101524
-0.22327109
-0.21291654
-0.23217742
-0.28597559
-0.28626122
0.099804103
0.093033336
0.078270045
0.076639121
0.071510005
0.05857681
0.098333627
0.11465332
0.12211423
0.091547174
0.061294384
0.029662817
0.022394213
0.063153393
0.057405777
0.057098113
0.064259268
0.060749064
0.11219397
0.094712599
0.12133024
0.063876546
0.12860925
0.085269242
0.085641875
0.071957346
0.066984163
0.04403868
0.068461106
0.11251715
-0.038752822
-0.062660131
-0.033214706
-0.047973774
-0.060283879
-0.081277285
-0.069215326
-0.050259965
-0.050975996
-0.044715845
-0.068225318
-0.053906422
-0.068919291
-0.039297404
-0.043530658
-0.068282729
-0.080691703
-0.060699304
-0.043346533
-0.023313794
-0.062062934
-0.056565543
-0.087986947
-0.050138813
-0.082980064
-0.03893312
-0.064254015
-0.086429209
-0.086326152
-0.039323363
-0.00020017172
-0.014817187
-0.0089976394
-0.015803772
-0.0088778794
0.017518266
0.024574927
0.01921514
0.017932271
0.010022759
0.013257399
0.0089116125
-0.0015948465
-0.019252994
-0.013398418
-0.018874392
0.015317426
-0.00094488363
0.015592074
0.017241612
0.0088449809
0.014821323
0.040605974
0.0067839076
-0.00027186313
-0.0097368309
-0.016397155
0.010646127
0.026702742
0.032040737
)
;

boundaryField
{
    minX
    {
        type            fixedFluxPressure;
        gradient        uniform 0;
        value           nonuniform List<scalar> 
50
(
0.32206274
-0.28119216
0.099888325
-0.025707571
0.035033949
0.3255417
-0.28555516
0.090268264
-0.030872623
0.032568824
0.31650607
-0.28200235
0.080388125
-0.042965542
0.015290302
0.31786572
-0.2819384
0.072835859
-0.04425192
0.0046749242
0.29916845
-0.27354535
0.076204013
-0.043551297
0.0078856258
0.30775434
-0.27486273
0.090822287
-0.032550616
0.021752706
0.2967506
-0.27173676
0.10096244
-0.032218324
0.017968317
0.30603535
-0.26778698
0.085010547
-0.034184912
0.015271923
0.30820711
-0.26265736
0.082986861
-0.040737484
0.0014561304
0.30065955
-0.25640123
0.099804103
-0.038752822
-0.00020017172
)
;
    }
    maxX
    {
        type            fixedFluxPressure;
        gradient        uniform 0;
        value           nonuniform List<scalar> 
50
(
0.30632052
-0.27389524
0.1390156
-0.042743716
0.020714301
0.30628958
-0.26858264
0.086078349
-0.046645319
0.0079358637
0.31280989
-0.26647825
0.085571266
-0.055097091
0.0030108012
0.301236
-0.27636594
0.1115871
-0.044900011
0.010459636
0.30166357
-0.27742582
0.10125463
-0.047603329
0.0057449152
0.31189066
-0.25016251
0.070716266
-0.090939442
0.0031885981
0.32848408
-0.27289339
0.096039932
-0.064487181
0.0029869818
0.32541982
-0.28911039
0.10716983
-0.061415821
0.023280372
0.32791938
-0.29114553
0.15216222
-0.032989555
0.045983749
0.32325598
-0.28626122
0.11251715
-0.039323363
0.032040737
)
;
    }
    minY
    {
        type            fixedValue;
        value           uniform 0;
    }
    minZ
    {
        type            fixedFluxPressure;
        gradient        uniform 0;
        value           nonuniform List<scalar> 
150
(
0.32206274
-0.28119216
0.099888325
-0.025707571
0.035033949
0.31666163
-0.27364463
0.064985972
-0.092166258
0.030293789
0.33446148
-0.23100161
0.030473709
-0.058373332
0.020925393
0.29892808
-0.2501327
0.062257207
-0.086142663
-0.0016850519
0.30961654
-0.27507082
0.061978659
-0.037513064
-0.011598518
0.30874551
-0.27475472
0.11119444
-0.0079639068
0.0096452777
0.31094652
-0.26828839
0.11062783
-0.024647868
-5.167517e-05
0.29904992
-0.26000781
0.098335491
-0.039221753
0.0024517849
0.31265667
-0.23330972
0.062183107
-0.049151713
-0.0025051505
0.32043471
-0.19971696
0.040041122
-0.043963718
0.0097401641
0.3191611
-0.24111873
0.057893328
-0.065026797
0.011453944
0.30640867
-0.29026273
0.058472077
-0.032061788
0.0052562828
0.30051071
-0.27044046
0.10977337
-0.040067905
0.012831372
0.30057139
-0.27648757
0.084921612
-0.032726474
0.013139558
0.29935306
-0.26143334
0.10647007
-0.089255758
0.038789664
0.30678244
-0.22017536
0.060104108
-0.06765394
0.02736226
0.30018501
-0.26487296
0.097126248
-0.050469204
0.0043094158
0.2988323
-0.2493432
0.080893201
-0.079022747
0.023774227
0.30784812
-0.2176392
0.048339455
-0.076077322
-0.0069696559
0.31166938
-0.2064654
0.079856235
-0.040909188
-0.019677597
0.31214427
-0.21902956
0.07332176
-0.026099922
-0.012758823
0.31753757
-0.27468918
0.10793747
-0.032127796
-0.0076937261
0.31289279
-0.25135826
0.093657411
-0.066581685
-0.0024111534
0.31608584
-0.2351174
0.061433929
-0.053265915
-0.0076660386
0.31302702
-0.2276547
0.088005739
-0.066369012
-0.010417162
0.31071293
-0.25116664
0.086320543
-0.088522716
0.015834395
0.30379542
-0.25569086
0.087341766
-0.096744854
0.018016431
0.30244245
-0.27978017
0.091662305
-0.067053329
0.0034821887
0.30480944
-0.28156026
0.11586224
-0.051899279
0.01671105
0.30632052
-0.27389524
0.1390156
-0.042743716
0.020714301
)
;
    }
    maxZ
    {
        type            fixedFluxPressure;
        gradient        uniform 0;
        value           nonuniform List<scalar> 
150
(
0.30065955
-0.25640123
0.099804103
-0.038752822
-0.00020017172
0.29673575
-0.25027389
0.093033336
-0.062660131
-0.014817187
0.30938665
-0.21123787
0.078270045
-0.033214706
-0.0089976394
0.29095779
-0.19948902
0.076639121
-0.047973774
-0.015803772
0.30032399
-0.20067166
0.071510005
-0.060283879
-0.0088778794
0.28875627
-0.21840722
0.05857681
-0.081277285
0.017518266
0.2962412
-0.25357918
0.098333627
-0.069215326
0.024574927
0.28495364
-0.26553212
0.11465332
-0.050259965
0.01921514
0.30094986
-0.26513778
0.12211423
-0.050975996
0.017932271
0.28941213
-0.26135949
0.091547174
-0.044715845
0.010022759
0.28609326
-0.25477366
0.061294384
-0.068225318
0.013257399
0.29309309
-0.22220705
0.029662817
-0.053906422
0.0089116125
0.302888
-0.17570583
0.022394213
-0.068919291
-0.0015948465
0.29939869
-0.1932377
0.063153393
-0.039297404
-0.019252994
0.30382201
-0.20282818
0.057405777
-0.043530658
-0.013398418
0.30756596
-0.22077394
0.057098113
-0.068282729
-0.018874392
0.31254337
-0.24167363
0.064259268
-0.080691703
0.015317426
0.3096095
-0.28848503
0.060749064
-0.060699304
-0.00094488363
0.31241236
-0.28132286
0.11219397
-0.043346533
0.015592074
0.31177407
-0.28057669
0.094712599
-0.023313794
0.017241612
0.30464819
-0.26515861
0.12133024
-0.062062934
0.0088449809
0.33034205
-0.24644501
0.063876546
-0.056565543
0.014821323
0.31580032
-0.25817825
0.12860925
-0.087986947
0.040605974
0.31926305
-0.27979189
0.085269242
-0.050138813
0.0067839076
0.3150006
-0.26101524
0.085641875
-0.082980064
-0.00027186313
0.32863147
-0.22327109
0.071957346
-0.03893312
-0.0097368309
0.3189732
-0.21291654
0.066984163
-0.064254015
-0.016397155
0.32655352
-0.23217742
0.04403868
-0.086429209
0.010646127
0.31877081
-0.28597559
0.068461106
-0.086326152
0.026702742
0.32325598
-0.28626122
0.11251715
-0.039323363
0.032040737
)
;
    }
    bottomWater_to_rightSolid
    {
        type            fixedFluxPressure;
        gradient        uniform 0;
        value           nonuniform List<scalar> 
130
(
0.023774227
-0.0069696559
-0.019677597
-0.012758823
-0.0076937261
-0.0024111534
-0.0076660386
-0.010417162
0.015834395
0.018016431
0.0034821887
0.01671105
0.020714301
0.024390274
0.015571214
0.0053233318
-0.0124494
0.0010849623
0.016606397
0.0011763417
0.0077192129
-0.016780521
-0.0066665641
0.0023951788
0.009309879
0.0079358637
0.067774297
0.017274588
0.002900096
0.001396058
0.016025415
0.053515878
0.019832975
0.021354258
0.0010953501
-0.011835858
-0.011802323
-0.0067682743
0.0030108012
0.0069048487
0.0010074585
0.028349008
0.0077061098
0.017016762
0.024107086
0.028894891
0.017749746
0.021080227
0.0072023076
-0.0074504298
-0.00032797001
0.010459636
-0.0045368018
-0.012210872
-0.0071137636
0.0084442925
0.027299138
0.022775725
0.025067272
0.015401045
0.0070716059
0.001585784
0.0119055
-0.010425541
0.0057449152
-0.0051040357
-0.01736463
-0.024603966
-0.0014715119
0.005232228
0.0024776462
-0.0025795333
-0.012598656
-0.0011676963
-0.0030522624
-0.020910175
-0.019940061
0.0031885981
-0.017138883
-0.013026493
0.0069612157
0.013051588
0.016778746
0.026352519
0.012312735
0.0012216445
-0.017024686
-0.012803695
-0.010439091
-0.0060932063
0.0029869818
-0.016204599
-0.00016657604
0.010676871
0.021302426
0.039836056
0.01778489
0.019108227
0.0041204954
-0.0063655843
-0.0080661249
-0.0038421491
0.015433808
0.023280372
-0.0052984086
0.010149496
0.0053949694
0.021186306
0.043756243
0.016729637
0.0036306921
0.0001630793
-0.013187029
-0.0043845825
0.01602339
0.027120932
0.045983749
-0.00094488363
0.015592074
0.017241612
0.0088449809
0.014821323
0.040605974
0.0067839076
-0.00027186313
-0.0097368309
-0.016397155
0.010646127
0.026702742
0.032040737
)
;
    }
    bottomWater_to_leftSolid
    {
        type            fixedFluxPressure;
        gradient        uniform 0;
        value           nonuniform List<scalar> 
130
(
0.035033949
0.030293789
0.020925393
-0.0016850519
-0.011598518
0.0096452777
-5.167517e-05
0.0024517849
-0.0025051505
0.0097401641
0.011453944
0.0052562828
0.012831372
0.032568824
0.024197952
0.011557192
-0.014557191
-0.023713197
-0.0075751196
0.0053978837
0.0097712938
0.023944326
0.019558843
0.0086048014
-0.0044445617
0.019098379
0.015290302
0.01040863
-0.012394849
-0.025648974
-0.0082489209
-0.0088811278
0.017011075
0.019840155
0.039561031
0.021387202
0.012854626
0.0024240004
0.0049347777
0.0046749242
-0.00039214849
-0.017614484
-0.018474662
-0.013721912
-0.026960426
0.0090032547
0.023938722
0.019206684
0.011388726
-0.007190806
-0.013805043
-0.013475239
0.0078856258
0.0082551522
-0.0026478504
-0.021820072
0.017560991
0.011512999
-0.00069147325
-0.0080445577
0.0038508244
-0.013949039
-0.0084580933
-0.0059110091
-0.0029878478
0.021752706
0.02790186
0.015694618
-0.0096311251
0.018258093
0.0052223274
0.024895149
0.015578651
0.024027756
-0.0022316234
0.003856995
0.0023058452
0.0080681918
0.017968317
0.031919032
0.026494097
-0.0049728933
0.018349841
0.044347163
0.021646269
0.013024819
-0.0099715792
0.0060515287
0.031212455
0.024580817
0.0093896331
0.015271923
0.01402038
0.0088595228
-0.013466444
-0.0041896182
0.011250445
0.00076955068
0.0076263624
0.021936064
0.014826793
0.023623858
0.020730292
0.011961461
0.0014561304
-0.0071608487
-0.0061401188
-0.023743909
-0.014773504
-0.018292224
-0.0027176139
0.024257632
0.0071882744
-0.0084687717
-0.011843068
-0.0020600573
-0.0033522121
-0.00020017172
-0.014817187
-0.0089976394
-0.015803772
-0.0088778794
0.017518266
0.024574927
0.01921514
0.017932271
0.010022759
0.013257399
0.0089116125
-0.0015948465
)
;
    }
    bottomWater_to_heater
    {
        type            fixedFluxPressure;
        gradient        uniform 0;
        value           nonuniform List<scalar> 
92
(
0.013139558
0.038789664
0.02736226
0.0043094158
0.017994588
0.0072732901
0.014718936
0.029726703
-0.016206731
-0.015835573
-0.0048476507
0.031695977
0.31180773
0.29594722
0.29394333
0.31587287
-0.21427858
-0.24720809
-0.25541353
-0.21178741
0.062623207
0.13323559
0.10915471
0.061918563
-0.027496577
-0.028366103
-0.06395387
-0.081767636
-0.013391001
-0.013391001
-0.0074927811
-0.0074927811
-0.017365705
-0.017365705
-0.001527792
-0.001527792
0.30407853
0.28701888
-0.26016055
-0.25996897
0.090754392
0.10720222
-0.019048419
-0.029439623
-0.0029878478
-0.0045368018
0.29054598
0.28676659
0.29708827
0.30469166
0.28765487
0.3114972
-0.2525736
-0.25196646
-0.22296216
-0.20331092
-0.23909021
-0.18621354
0.08446303
0.066986228
0.03956749
0.059104909
0.11668816
0.060737364
-0.059634305
-0.075925935
-0.060405821
-0.052674385
-0.02715094
-0.022461508
0.0080681918
0.0072227287
-0.0014783618
-0.019446521
-0.0051040357
-0.0062492621
0.0072227287
-0.0014783618
-0.019446521
-0.0062492621
0.0036684962
-0.0057519055
0.00097921506
-0.0076099528
-0.0083466946
-0.0047422249
8.8273467e-05
0.017983077
-0.019252994
-0.013398418
-0.018874392
0.015317426
)
;
    }
}


// ************************************************************************* //
