/*--------------------------------*- C++ -*----------------------------------*\
| =========                 |                                                 |
| \\      /  F ield         | OpenFOAM: The Open Source CFD Toolbox           |
|  \\    /   O peration     | Version:  v2012                                 |
|   \\  /    A nd           | Website:  www.openfoam.com                      |
|    \\/     M anipulation  |                                                 |
\*---------------------------------------------------------------------------*/
FoamFile
{
    version     2.0;
    format      ascii;
    class       volScalarField;
    location    "530/bottomWater";
    object      T;
}
// * * * * * * * * * * * * * * * * * * * * * * * * * * * * * * * * * * * * * //

dimensions      [0 0 0 1 0 0 0];


internalField   nonuniform List<scalar> 
1460
(
968.56752
968.64822
967.77524
969.49736
969.91418
970.73812
965.38934
961.37702
959.31661
956.30679
954.78769
952.98556
951.02462
949.67751
942.91731
934.50365
936.09998
931.42631
928.6501
925.75838
926.49862
929.27058
930.01899
926.72068
928.88877
930.8914
932.76875
934.15355
935.57337
938.26582
969.10571
969.09506
968.95878
968.75614
968.7978
968.95237
962.98811
960.75537
959.79127
956.75413
954.81644
952.96072
949.83843
939.58105
935.45094
933.31453
932.09143
929.0588
928.57801
925.30995
924.02313
925.64352
926.77075
925.87213
927.8904
928.98205
930.30694
931.74349
932.90417
934.78322
969.19805
969.20375
968.89103
968.77226
968.89723
968.69876
963.13314
961.32798
960.28424
956.67028
951.65034
952.93701
949.34751
939.25712
935.56916
933.29633
931.79791
930.53405
929.08506
925.53004
923.92095
925.88046
925.68547
925.7549
928.14681
930.13399
931.58438
932.03281
933.2375
935.46234
969.26382
969.28667
968.53295
968.44773
968.58476
968.58586
963.38328
960.59487
958.72101
955.45994
952.11916
952.43428
949.15561
940.31809
937.16344
931.52577
931.48426
930.83495
928.83232
925.73768
923.69105
924.40129
924.41679
925.74461
928.18706
930.84824
933.2612
933.2407
934.25078
936.39812
968.7982
968.71382
968.40349
968.14942
967.83193
966.96742
961.60962
959.37528
958.20979
954.42354
951.63666
950.89827
945.57843
937.44072
935.8248
932.63742
930.18262
928.91409
927.67341
926.01358
923.63093
924.00548
925.31472
926.5354
928.92325
931.16155
932.62307
933.2195
934.45083
936.22973
968.24383
968.67112
968.40104
968.54026
968.57826
969.43397
969.91278
969.58175
964.8537
956.52513
945.79178
944.22348
939.55439
938.9471
937.87993
938.14119
934.78674
933.83827
931.94994
929.84002
928.73178
925.62196
927.07309
927.66518
930.77136
931.69443
930.64001
931.92913
932.9442
934.20643
969.64905
969.76046
969.6194
968.05658
967.7036
967.90397
968.35726
968.1356
963.53096
950.6487
945.96709
944.62945
939.88976
933.59782
933.04356
932.80414
928.67312
928.77391
928.49318
926.46798
925.64817
925.46192
927.25375
927.18261
930.03079
930.93571
931.27014
932.75989
932.16026
932.58334
969.76185
969.94814
969.7616
968.1038
967.93795
967.47774
966.65531
968.00765
964.49509
954.25992
948.12573
949.56473
939.92377
931.28813
930.32484
931.20929
928.72301
928.49183
926.46219
925.59928
924.92209
925.34819
927.32285
928.46732
930.2202
930.22837
931.28052
932.99073
933.10358
932.71266
969.83171
969.90719
969.66613
968.36729
968.25031
967.10608
964.45285
966.57645
965.44396
957.33302
950.79581
951.26255
945.95809
933.53884
931.26197
931.10496
928.91087
928.5627
927.9898
925.4401
924.09362
925.42984
928.59327
929.59895
930.30811
930.15598
932.39654
933.56802
933.63263
933.24983
969.37708
969.2037
969.00642
968.64748
968.29855
966.57817
963.4856
964.85568
964.48933
960.06243
957.96576
953.08255
943.86141
934.38478
932.82868
928.11818
927.86272
927.19591
926.38048
924.12382
923.28835
924.86809
926.53406
927.56472
926.90941
929.52117
931.96167
932.61773
933.32492
933.85764
969.90373
969.73432
969.2861
968.72753
967.22663
967.56665
968.46217
969.70125
954.9263
948.91695
947.35673
946.17256
936.58985
932.86312
930.99553
929.42085
926.06562
928.79123
929.6902
933.31837
932.48415
931.09918
932.2747
931.5054
930.97824
929.31772
928.77833
929.69365
930.15562
931.12431
970.3621
970.33724
969.89604
968.00072
967.02458
966.81729
967.05196
967.63838
958.76888
950.4376
949.27378
948.04196
937.46828
930.71214
927.80627
924.08335
921.91924
920.33651
922.81769
925.95688
927.82647
927.06044
929.22905
929.71567
929.71172
929.45041
928.52674
930.10366
930.80647
931.06126
970.43754
971.18158
970.53159
968.28277
966.99527
966.66587
967.07828
967.88383
959.42523
950.99561
950.74464
950.33075
937.59787
930.51222
926.14429
923.99768
925.61029
922.83175
921.85977
925.08842
926.96268
925.97368
926.32725
929.29999
929.80696
929.66437
928.54761
930.19308
931.26821
931.79628
970.49545
970.75252
970.39077
968.67818
967.0047
965.88969
965.51851
965.94627
960.03362
953.49742
952.3975
951.86946
947.36092
937.80129
929.21406
925.02989
925.95367
921.61001
921.58611
923.39741
925.65762
925.66399
926.11926
929.51332
930.03046
929.10242
928.17603
930.0635
931.18834
932.00288
969.79724
969.68831
969.33098
968.91277
966.9377
964.68758
964.30573
963.55668
960.3661
955.71964
954.58001
953.62106
948.12223
939.93081
929.0816
924.94516
924.61068
921.72102
921.38328
920.8901
922.78467
924.40828
925.4198
927.45562
928.22423
927.89427
927.96985
929.71651
931.11579
931.19308
970.42547
970.26632
969.79043
967.94213
967.22862
967.08315
966.61907
967.97053
954.39972
951.31938
951.57106
948.64358
941.87371
924.52917
922.27961
916.8253
917.14885
919.0305
922.92951
925.77562
925.86492
927.54463
929.77638
931.61718
932.94299
931.07736
930.86603
933.25981
935.09275
936.18999
971.03117
971.06112
970.13715
967.35831
964.34345
965.31975
965.45152
965.65969
957.53744
953.14679
951.17962
948.76914
938.37534
928.41632
922.52548
916.5503
919.04383
915.95681
919.9015
921.42019
922.19431
924.11896
927.25482
930.30361
930.2969
929.57857
928.90439
931.15343
932.89429
933.98138
971.1284
972.30954
970.73821
967.57944
964.26301
965.07193
965.3929
963.34209
957.43785
953.95394
951.64431
949.55734
945.67135
930.58194
921.30651
918.51587
919.84667
913.9332
919.367
921.18197
922.63411
923.34798
926.27835
930.17898
930.62779
930.14288
929.13702
929.41843
931.55866
933.80578
971.22834
971.54046
971.16339
967.83242
963.59282
963.88629
964.9084
963.19404
957.5752
956.19795
953.94287
952.4668
949.24485
936.45899
923.02455
920.49307
919.31597
915.16842
917.31533
922.05204
923.42618
923.2233
926.14438
929.9251
930.46913
930.55387
928.9834
928.53714
930.41138
933.52189
970.72451
970.91288
971.07334
968.05403
963.29596
962.51554
962.03875
961.69608
958.17352
956.52879
955.63232
953.75295
950.38863
939.56351
922.51669
920.54003
920.60817
919.54798
919.83054
920.74593
921.91987
923.04987
925.20588
928.83251
928.83207
929.06256
928.41842
927.65702
928.73617
931.18772
973.6291
973.78545
972.08155
972.99261
969.75882
969.88641
969.06474
962.12705
955.32785
954.08315
951.13553
942.82805
926.40524
914.33133
930.37893
928.75058
922.83327
925.13766
927.85854
930.75147
933.73906
933.15583
932.86046
932.31565
932.52767
931.59742
972.27672
971.6531
970.83801
969.40481
967.13077
966.61735
966.7104
960.72571
956.69283
955.40345
950.16893
940.63051
935.1465
913.87988
925.76204
924.61908
920.23041
921.4539
923.21581
926.22407
931.00216
930.7198
930.58725
930.85534
931.24066
931.11062
972.40623
973.3225
970.75883
968.78295
968.21318
967.247
966.68663
961.92293
959.10709
956.56578
949.50039
936.76735
931.75704
910.52448
922.11597
920.58779
920.52893
922.98606
924.36507
927.22325
931.27834
930.86551
930.61735
929.53932
929.78022
931.45642
972.53556
972.81556
971.36345
968.4168
967.62766
965.39806
965.59041
961.23845
959.51593
957.42867
951.69495
936.24432
931.12046
911.40853
917.53897
918.92471
919.24072
923.58411
926.08958
928.15756
931.21286
930.93446
930.74737
929.77684
929.60105
931.97302
972.09833
972.46921
972.13062
968.71062
965.71103
965.52794
964.03843
961.12322
959.13618
957.7844
953.65572
936.43985
926.63034
916.26347
919.36975
920.23017
921.00102
922.69449
924.45454
927.63917
928.12865
928.46941
928.68303
928.19612
928.18411
930.6601
975.36814
975.31387
972.42913
975.67448
974.29452
973.72788
971.5259
960.69522
955.46219
952.78215
949.82534
943.35323
926.50258
920.03288
928.16869
925.61241
922.2885
923.49751
926.04132
928.6534
931.1227
930.12224
929.01085
927.6893
928.18707
928.16064
973.35197
972.10391
970.90062
972.33995
971.27279
970.1249
968.23463
956.56873
952.96262
951.55011
948.28517
939.00135
928.8677
916.85058
925.14266
921.20312
922.09441
924.21092
924.70279
927.02267
929.84855
929.08041
928.6207
928.19579
928.68508
928.60164
973.57205
974.01291
970.90921
970.63706
970.08073
969.59831
968.12793
958.55602
954.62113
952.74756
948.10741
936.43955
924.73031
910.85881
918.78931
921.40686
922.42783
925.32136
926.28756
927.77286
930.13775
930.05051
929.58262
928.22307
928.8389
929.93006
973.73909
973.98293
968.90166
968.87241
968.35747
969.14975
967.73364
960.43462
958.32678
955.12506
948.9164
946.09616
928.80647
914.3655
923.25742
925.42426
927.21758
927.16687
927.51905
928.50566
928.29863
929.00611
928.7463
927.49303
928.38519
930.44888
973.16204
973.54708
972.3211
969.72929
966.65246
967.47829
966.19587
960.77364
958.45153
954.43626
945.62578
936.62303
928.55179
916.96581
923.33083
924.042
924.15523
923.93836
924.39522
925.56424
926.01502
927.01578
927.35
927.13315
928.22007
929.25068
979.3607
977.57662
973.79336
976.71779
973.56042
972.65183
966.5979
957.84916
952.38336
948.05825
942.24194
934.65375
926.88987
924.20339
923.46837
923.84003
923.82009
923.70821
925.46093
927.48515
927.12771
927.29195
928.4398
929.60233
929.07205
928.24283
927.5434
926.93364
926.53536
925.78417
975.24768
973.07459
970.60073
972.14469
968.06809
965.43806
960.19459
952.9007
949.38488
946.21254
942.52743
933.87418
926.07335
923.44344
924.92251
926.54938
927.07056
923.24114
925.01183
928.22065
927.18298
926.45387
927.49986
929.6713
929.61531
928.9985
928.09737
928.40915
928.78186
928.51599
975.26031
975.13213
970.85361
969.80931
966.45883
962.16109
959.67243
952.30167
948.96997
945.77374
942.88788
934.10009
926.19322
923.09856
926.11053
928.19331
928.93797
923.24636
925.26436
929.24334
929.25178
927.38876
927.73944
929.1618
929.74167
929.03431
928.0076
928.39543
929.033
928.94888
975.24932
975.10023
969.28604
968.83803
965.93468
962.12043
957.50073
953.36691
951.197
950.04308
945.65512
935.07709
927.61933
925.74747
929.86825
926.56547
928.7674
928.59208
929.64088
930.83046
929.68545
928.5243
928.13711
929.06897
929.1584
928.07315
927.48485
928.30986
929.00936
929.3153
974.55595
974.74098
972.27276
967.78193
963.43944
961.92909
958.4388
957.40024
951.66694
947.06938
945.04892
939.01723
930.44511
925.13292
923.13862
925.06202
929.10143
928.19536
927.90363
928.26669
927.99573
927.90604
927.67194
927.46926
927.08592
926.86185
926.99312
928.4015
928.58773
928.7279
976.57479
973.51066
969.88883
973.46857
971.9105
967.96901
959.39838
960.74455
961.27077
962.29853
958.79041
958.69872
954.50823
947.98955
940.83399
936.38023
935.76832
935.16085
934.23425
932.64001
929.77673
929.26287
929.76222
929.39113
928.66223
927.85077
928.39986
927.31887
926.51045
926.31708
972.54815
970.94096
968.48309
969.28161
967.29966
961.48609
955.86999
955.46385
958.3404
959.18975
953.61797
952.09156
951.00878
941.50364
936.63603
935.89419
938.70513
934.38428
934.57145
932.82969
930.8267
929.27249
929.47638
929.6891
929.63088
928.56845
929.37795
929.336
929.10206
928.67326
972.92625
973.67535
967.97096
965.70642
965.67578
958.22723
955.65461
952.74872
951.35346
957.18255
953.4091
951.27733
948.94398
942.32671
937.54222
945.4535
941.22389
935.09921
935.71516
933.06829
930.95173
929.41748
929.43954
929.60542
929.64098
928.49445
929.37935
929.42077
929.35
928.87948
973.37422
973.79653
967.11091
964.81634
962.23041
957.13292
955.5702
954.2512
954.06186
954.58621
953.00353
950.68013
947.4873
944.47045
939.26254
943.6448
938.92137
933.29647
933.56652
932.39425
930.87797
929.57881
929.57035
929.59352
929.63178
928.22107
929.10597
929.51192
929.52565
929.12044
973.41527
973.63028
970.50311
968.40167
961.4436
959.3349
956.44494
955.66395
954.59954
953.02135
952.3025
950.08542
947.61487
944.66758
941.59086
940.37215
938.98236
931.09455
929.3203
929.49393
929.43085
929.11134
928.56931
928.36655
928.02893
927.62165
929.01292
929.14459
929.15456
928.98059
976.14833
973.00499
970.41796
970.59897
972.74598
975.41146
963.61928
964.20794
958.98527
962.2035
966.14555
967.88926
962.71095
958.30907
954.77195
950.08035
940.35561
938.42871
938.33827
934.75496
931.18946
929.16072
928.44642
928.35039
928.25674
928.13888
929.2938
928.04967
927.55342
927.47456
972.41998
971.00453
968.71649
966.4932
968.28922
970.37085
958.27921
958.25486
957.40033
960.18395
962.99164
963.94151
959.40458
953.38223
950.51793
949.28504
941.34827
939.1873
937.87563
935.90213
932.87782
929.26259
928.97373
929.07429
929.14725
928.99994
930.71769
930.37141
929.74339
929.3653
972.96375
973.37943
968.41905
966.03847
965.47138
969.60247
958.10658
956.40354
957.09512
960.69043
960.38676
963.08441
956.72496
951.21925
945.50351
948.85684
942.5686
940.41092
939.58369
935.33902
932.873
929.88215
929.08825
929.13513
929.08684
928.96746
930.70047
930.3614
929.91489
929.58586
973.48901
973.7156
968.64048
966.41809
962.77801
963.36468
958.48152
959.67626
964.47252
963.69005
961.64266
963.22492
958.36775
953.17995
944.84685
948.75576
943.46594
938.06478
936.79905
934.46655
933.05839
930.57227
929.26201
929.17059
928.62142
928.78252
930.68449
930.54197
930.20062
929.88335
973.21551
973.17727
970.56119
968.27082
962.141
962.00767
962.46763
961.64741
964.91966
965.13288
962.45874
957.41322
954.65639
949.96961
942.13011
944.72606
941.47796
935.47657
931.48299
929.22111
930.52484
929.62047
928.23782
927.64523
927.09192
928.85112
930.05308
930.14176
929.99528
929.90066
977.98612
975.50508
972.38225
972.04706
969.82902
971.00623
970.48977
972.08399
971.19285
971.96477
968.37726
965.56698
963.1246
961.56709
954.34937
951.46301
950.68885
948.7992
943.27285
932.44664
929.97856
927.7091
927.38499
927.15221
928.16401
928.51018
929.94017
929.80117
929.58577
929.0255
972.95368
970.74929
969.65281
967.29269
966.15012
966.16879
965.01724
964.90676
964.5658
966.39178
965.85907
964.3544
961.6315
958.95755
952.33052
948.70143
947.53544
946.94513
944.604
933.5193
929.31008
928.93105
929.04238
928.99808
929.62688
929.84413
931.12563
931.49077
931.22474
930.8333
973.33582
972.86535
970.13556
966.81252
965.59356
965.58289
963.22737
963.89215
964.96489
966.09788
965.11695
965.15457
961.50003
958.47206
949.92295
946.17995
945.43972
946.89841
944.6403
933.67737
929.3259
928.93972
929.08958
928.9248
929.06161
929.41107
931.03892
931.31097
931.16738
930.91048
973.80932
972.74805
968.81719
966.20175
964.59995
964.14712
963.00248
964.28836
965.62177
966.3732
965.96353
965.27338
962.09728
959.77369
949.17299
944.99809
944.70142
945.0512
942.83872
933.8326
928.97445
928.3304
929.16465
928.85948
928.60828
929.12607
930.72323
931.64807
931.32596
931.09604
973.05422
972.78586
968.85787
965.61392
964.53922
964.43855
964.03078
964.85944
966.00186
966.43467
966.34743
965.50532
963.6925
960.06013
945.50204
940.30718
941.11849
939.41506
938.20268
930.2825
927.68319
927.85542
928.13025
927.85822
926.98623
928.6399
930.04604
930.29577
930.44699
930.45038
)
;

boundaryField
{
    minX
    {
        type            zeroGradient;
    }
    maxX
    {
        type            zeroGradient;
    }
    minY
    {
        type            fixedValue;
        value           uniform 1073;
    }
    minZ
    {
        type            zeroGradient;
    }
    maxZ
    {
        type            zeroGradient;
    }
    bottomWater_to_rightSolid
    {
        type            compressible::turbulentTemperatureCoupledBaffleMixed;
        refValue        nonuniform List<scalar> 
130
(
753.21522
761.15723
769.46898
777.73625
785.65016
792.97276
799.54225
805.26476
810.07987
813.95086
816.86139
818.81124
819.79428
747.3671
756.66311
766.15995
775.38454
784.01928
791.85703
798.7797
804.73031
809.70038
813.67407
816.64803
818.63118
819.6252
735.63628
748.03182
760.06933
771.20671
781.20133
789.97623
797.53457
803.90159
809.12608
813.25763
816.33637
818.38129
819.40206
718.17765
736.40565
752.51788
766.34829
778.08908
787.99311
796.27819
803.10273
808.61403
812.91727
816.09367
818.1997
819.25642
697.61321
725.43839
746.37123
762.77093
775.95391
786.69726
795.48517
802.61918
808.32356
812.74689
815.99261
818.13476
819.20901
697.78478
725.6201
746.54584
762.92725
776.08281
786.79628
795.55504
802.67274
808.3694
812.78906
816.03444
818.17592
819.24355
718.70656
736.91449
752.99189
766.77117
778.45049
788.2843
796.49964
803.27804
808.76133
813.05368
816.22726
818.32181
819.36466
736.39707
748.75229
760.73964
771.8065
781.71738
790.40393
797.87791
804.17971
809.36006
813.46546
816.51778
818.54083
819.54967
748.22862
757.48524
766.92551
776.08184
784.62302
792.35812
799.18669
805.05965
809.96555
813.89172
816.83017
818.78598
819.76396
754.11357
762.04202
770.2802
778.46599
786.28838
793.51053
799.97828
805.60242
810.3424
814.1605
817.0307
818.94708
819.90654
)
;
        refGradient     uniform 0;
        valueFraction   uniform 0.99248593;
        value           nonuniform List<scalar> 
130
(
754.53543
762.40844
770.64525
778.83248
786.68977
793.9672
800.49648
806.19394
810.98969
814.84257
817.73571
819.68017
820.66923
748.71836
757.93838
767.34687
776.49589
785.07763
792.86901
799.74739
805.64836
810.60074
814.56288
817.51943
819.493
820.48355
737.03463
749.33445
761.27779
772.34569
782.2774
790.99397
798.51082
804.83576
810.01851
814.11959
817.18834
819.22837
820.24206
719.69086
737.78394
753.78195
767.51727
779.17832
789.02414
797.27421
804.04747
809.51909
813.78515
816.93195
819.03028
820.09745
699.25621
726.89562
747.67763
763.95987
777.05651
787.73237
796.47821
803.56222
809.22634
813.61805
816.83569
818.9617
820.04649
699.43173
727.10572
747.87958
764.13876
777.19384
787.83024
796.53195
803.59954
809.26095
813.64988
816.86924
819.00281
820.07015
720.28069
738.34959
754.30893
767.98264
779.57354
789.3317
797.48378
804.20837
809.64877
813.90985
817.07018
819.15038
820.18644
737.8601
750.10909
762.00767
772.99091
782.82493
791.44213
798.85843
805.11034
810.2487
814.33373
817.3641
819.37202
820.37198
749.63573
758.79269
768.14501
777.24232
785.71254
793.37914
800.15196
805.97663
810.85885
814.76461
817.68164
819.62166
820.59158
755.50594
763.36571
771.48252
779.58721
787.35213
794.52207
800.93919
806.51452
811.23128
815.03129
817.8818
819.78493
820.7372
)
;
        Tnbr            T;
        thicknessLayers List<scalar> 0();
        kappaLayers     List<scalar> 0();
        kappaMethod     fluidThermo;
        kappa           none;
        alphaAni        none;
        alpha           none;
        field           T;
    }
    bottomWater_to_leftSolid
    {
        type            compressible::turbulentTemperatureCoupledBaffleMixed;
        refValue        nonuniform List<scalar> 
130
(
912.16568
912.12611
912.03799
911.89604
911.69586
911.4348
911.11767
910.79245
910.47056
910.15261
909.86951
909.64939
909.50429
912.20904
912.16769
912.07687
911.9313
911.72942
911.47238
911.17487
910.87107
910.55528
910.23086
909.93463
909.68618
909.51774
912.2887
912.24388
912.14511
911.98771
911.7728
911.51639
911.23318
910.9269
910.59937
910.27078
909.9823
909.7487
909.59343
912.40657
912.35779
912.24804
912.06626
911.83031
911.57113
911.28765
910.98211
910.65749
910.34144
910.05249
909.80811
909.65211
912.55339
912.50032
912.38008
912.18721
911.94895
911.68708
911.39348
911.07417
910.74887
910.42584
910.10259
909.78617
909.58714
912.70927
912.65174
912.52219
912.3247
912.08241
911.81911
911.52082
911.19226
910.86405
910.53711
910.21531
909.93404
909.75411
912.8574
912.79546
912.65642
912.45
912.19991
911.93094
911.63759
911.33906
911.0298
910.73611
910.47342
910.24319
910.08814
912.96485
912.90518
912.77173
912.5837
912.34329
912.09484
911.83866
911.58945
911.34609
911.11449
910.90685
910.7325
910.6245
913.0437
912.98945
912.87049
912.70559
912.50127
912.30248
912.10651
911.91199
911.73119
911.54909
911.37066
911.21553
911.12144
913.08427
913.03275
912.91945
912.76982
912.60486
912.43716
912.26849
912.10545
911.94837
911.79424
911.65046
911.53107
911.4564
)
;
        refGradient     uniform 0;
        valueFraction   uniform 0.99248593;
        value           nonuniform List<scalar> 
130
(
912.59122
912.55132
912.46152
912.31873
912.11767
911.85207
911.49703
911.15746
910.82925
910.48528
910.18335
909.95939
909.77541
912.6386
912.59626
912.50464
912.35747
912.15448
911.88645
911.5679
911.27668
910.96057
910.60542
910.2955
910.01222
909.77577
912.72082
912.67552
912.57481
912.41544
912.18728
911.91593
911.63198
911.32238
910.97337
910.61226
910.31739
910.07833
909.88286
912.84477
912.79778
912.69005
912.48694
912.21701
911.95392
911.66897
911.36315
911.01453
910.68848
910.39497
910.13829
909.95813
913.00081
912.95093
912.82905
912.61189
912.3529
912.09163
911.78902
911.45019
911.11244
910.78168
910.42988
909.98656
909.71525
913.16351
913.1093
912.97152
912.756
912.49244
912.23732
911.93159
911.56474
911.22155
910.86693
910.48149
910.13473
909.89557
913.32102
913.26093
913.10438
912.86576
912.58493
912.30665
911.98922
911.68513
911.33515
911.00918
910.73332
910.45949
910.2412
913.4191
913.36149
913.20549
913.00316
912.71227
912.44982
912.17382
911.92063
911.6711
911.4294
911.21792
911.02818
910.90249
913.49585
913.44172
913.30394
913.12315
912.87432
912.67602
912.48502
912.28581
912.1309
911.95178
911.7546
911.56277
911.44864
913.53489
913.48175
913.3398
913.16695
912.99516
912.82796
912.6575
912.50189
912.35459
912.20485
912.06149
911.93667
911.84894
)
;
        Tnbr            T;
        thicknessLayers List<scalar> 0();
        kappaLayers     List<scalar> 0();
        kappaMethod     fluidThermo;
        kappa           none;
        alphaAni        none;
        alpha           none;
        field           T;
    }
    bottomWater_to_heater
    {
        type            compressible::turbulentTemperatureCoupledBaffleMixed;
        refValue        nonuniform List<scalar> 
92
(
734.17897
736.27536
740.35377
746.14219
724.753
727.21372
732.03185
738.93546
705.00039
708.15694
714.53874
723.95592
345.62395
342.93868
342.96779
345.66138
422.63997
419.31326
419.51577
423.06189
488.5175
485.72556
486.41294
490.11931
544.56056
542.85674
544.74445
549.20925
672.92015
590.84997
676.8805
591.07518
685.45781
595.69207
699.31131
603.27045
345.62395
345.66138
422.63997
423.06189
488.5175
490.11931
544.56056
549.20925
590.84997
603.27045
345.64445
345.64445
342.9615
343.00306
345.72013
345.72013
422.66119
422.66119
419.36012
419.58195
423.14435
423.14435
488.56265
488.56265
485.78581
486.48775
490.19845
490.19845
544.62978
544.62978
542.92823
544.82299
549.30294
549.30294
590.92419
590.92419
591.15476
595.78244
603.37162
603.37162
673.38995
677.38439
685.98226
699.844
705.7519
708.92911
715.32689
724.73633
725.62272
728.05717
732.88927
739.79186
735.10041
737.12069
741.17162
746.98366
)
;
        refGradient     uniform 0;
        valueFraction   nonuniform List<scalar> 
92
(
0.99248593
0.99248593
0.99248593
0.99248593
0.99248593
0.99248593
0.99248593
0.99248593
0.99248593
0.99248593
0.99248593
0.99248593
0.99248593
0.99248593
0.99248593
0.99248593
0.99248593
0.99248593
0.99248593
0.99248593
0.99248593
0.99248593
0.99248593
0.99248593
0.99248593
0.99248593
0.99248593
0.99248593
0.99248593
0.99248593
0.99248593
0.99248593
0.99248593
0.99248593
0.99248593
0.99248593
0.99248593
0.99248593
0.99248593
0.99248593
0.99248593
0.99248593
0.99248593
0.99248593
0.99248593
0.99248593
0.99248593
0.99248593
0.99248593
0.99248593
0.99248593
0.99248593
0.99248593
0.99248593
0.99248593
0.99248593
0.99248593
0.99248593
0.99248593
0.99248593
0.99248593
0.99248593
0.99248593
0.99248593
0.99248593
0.99248593
0.99248593
0.99248593
0.99248593
0.99248593
0.99248593
0.99248593
0.99248593
0.99248593
0.99248593
0.99248593
0.99248593
0.99248593
0.99248593
0.99248593
0.99248593
0.99248593
0.99248593
0.99248593
0.99248593
0.99248593
0.99248593
0.99248593
0.99248593
0.99248593
0.99248593
0.99248593
)
;
        value           nonuniform List<scalar> 
92
(
735.70629
737.77479
741.7986
747.52509
726.32825
728.75875
733.50524
740.35508
706.76564
709.81699
716.11975
725.4637
349.97378
347.29188
347.27981
349.95559
426.44027
423.09437
423.25054
426.78876
491.83906
488.99852
489.65979
493.34832
547.50508
545.71331
547.56784
551.99025
674.92352
593.47002
678.72621
593.56564
687.22423
598.13299
700.97419
605.65498
349.98784
349.93435
426.491
426.74995
491.84797
493.27829
547.46511
551.93087
593.37309
605.62236
350.00897
349.99182
347.32345
347.36749
350.03554
350.06399
426.46475
426.4241
423.15892
423.39132
426.85412
426.93085
491.83998
491.8278
489.09442
489.80673
493.3593
493.49515
547.51677
547.49336
545.83575
547.69142
552.04602
552.15426
593.46136
593.43547
593.64933
598.25668
605.728
605.81921
675.28158
679.23102
687.77873
701.56668
707.54715
710.67731
717.01788
726.34624
727.3085
729.66572
734.48104
741.30736
736.79082
738.6865
742.66794
748.44242
)
;
        Tnbr            T;
        thicknessLayers List<scalar> 0();
        kappaLayers     List<scalar> 0();
        kappaMethod     fluidThermo;
        kappa           none;
        alphaAni        none;
        alpha           none;
        field           T;
    }
}


// ************************************************************************* //
