/*--------------------------------*- C++ -*----------------------------------*\
| =========                 |                                                 |
| \\      /  F ield         | OpenFOAM: The Open Source CFD Toolbox           |
|  \\    /   O peration     | Version:  v2012                                 |
|   \\  /    A nd           | Website:  www.openfoam.com                      |
|    \\/     M anipulation  |                                                 |
\*---------------------------------------------------------------------------*/
FoamFile
{
    version     2.0;
    format      ascii;
    class       volScalarField;
    location    "90/bottomWater";
    object      p;
}
// * * * * * * * * * * * * * * * * * * * * * * * * * * * * * * * * * * * * * //

dimensions      [1 -1 -2 0 0 0 0];


internalField   nonuniform List<scalar> 
1460
(
353.40473
353.39762
353.41021
353.41333
353.41571
353.41392
353.41142
353.40972
353.39867
353.40635
353.41037
353.40553
353.41077
353.41126
353.41589
353.41457
353.40099
353.4077
353.4041
353.40805
353.40568
353.39839
353.40957
353.41084
353.41308
353.41405
353.41105
353.40771
353.39498
353.40244
274.47517
274.47502
274.50964
274.52122
274.5264
274.53052
274.52172
274.50116
274.46499
274.45845
274.45434
274.44534
274.48439
274.48936
274.51585
274.51247
274.48749
274.49149
274.46594
274.45618
274.45688
274.46362
274.50056
274.52274
274.53107
274.52616
274.52151
274.51008
274.477
274.477
196.26898
196.24898
196.23034
196.25767
196.25061
196.2555
196.25855
196.23223
196.25065
196.27225
196.29957
196.26995
196.25647
196.2544
196.2513
196.25127
196.26295
196.26613
196.26534
196.29429
196.27285
196.24694
196.23287
196.25707
196.25436
196.24946
196.25622
196.22955
196.24819
196.26791
117.69487
117.66394
117.6742
117.68788
117.70579
117.69959
117.67853
117.66337
117.65709
117.68894
117.6952
117.67636
117.65345
117.66509
117.69078
117.69399
117.65299
117.66218
117.64745
117.69047
117.69356
117.65556
117.66319
117.67882
117.70129
117.70457
117.68711
117.67338
117.66321
117.69411
39.245355
39.247711
39.245235
39.229484
39.23805
39.229623
39.223833
39.24679
39.256563
39.253531
39.260823
39.242407
39.258847
39.230367
39.232875
39.233084
39.231399
39.270111
39.263225
39.258948
39.255448
39.255279
39.24433
39.223794
39.230789
39.237559
39.229029
39.245277
39.246851
39.244392
353.40611
353.40567
353.40393
353.40431
353.40716
353.41721
353.4156
353.41282
353.40972
353.41784
353.40884
353.40698
353.42124
353.41941
353.40721
353.40888
353.4156
353.42083
353.4091
353.40977
353.41926
353.40948
353.41307
353.41529
353.4156
353.40587
353.40301
353.40267
353.40428
353.40453
274.45843
274.45565
274.46739
274.47153
274.46463
274.50206
274.5004
274.46386
274.44795
274.45211
274.45668
274.46287
274.52715
274.52163
274.47822
274.47699
274.5175
274.52424
274.46969
274.45653
274.45039
274.447
274.46857
274.50213
274.50064
274.46555
274.47243
274.46815
274.4578
274.45982
196.28554
196.27274
196.25881
196.26554
196.25643
196.22554
196.22216
196.23815
196.25484
196.28958
196.26067
196.22886
196.23019
196.22174
196.2801
196.27333
196.23366
196.23009
196.23157
196.26252
196.29161
196.24491
196.24075
196.22002
196.22757
196.25563
196.2644
196.25815
196.27146
196.28336
117.68906
117.68387
117.66237
117.67006
117.67021
117.67081
117.66339
117.65465
117.67888
117.69362
117.68013
117.66557
117.67535
117.66658
117.6922
117.69705
117.66606
117.68029
117.6621
117.68098
117.69327
117.67847
117.64662
117.66353
117.67039
117.67013
117.66967
117.66337
117.68317
117.68877
39.252474
39.250157
39.246596
39.237187
39.232375
39.232205
39.239629
39.246357
39.253637
39.268369
39.257296
39.250002
39.247257
39.235127
39.228669
39.231811
39.233094
39.247388
39.249482
39.257433
39.269071
39.254118
39.248503
39.239572
39.230757
39.232832
39.236642
39.24526
39.248833
39.251145
353.40275
353.40088
353.40471
353.40538
353.40731
353.40741
353.40864
353.41172
353.4046
353.40716
353.40908
353.40038
353.40979
353.40308
353.3975
353.39815
353.40115
353.39855
353.40053
353.40756
353.40425
353.40475
353.41116
353.4075
353.40747
353.40659
353.40434
353.40349
353.39984
353.40126
274.48229
274.4708
274.46368
274.45765
274.45003
274.45526
274.47654
274.47763
274.46901
274.44914
274.45509
274.46158
274.48191
274.48925
274.46629
274.46381
274.4871
274.47504
274.46352
274.45615
274.44815
274.46973
274.47771
274.4741
274.45428
274.45034
274.45925
274.46615
274.47788
274.48506
196.29204
196.28538
196.29187
196.28688
196.28998
196.27753
196.27415
196.27316
196.27458
196.27928
196.29539
196.26679
196.25107
196.2321
196.2759
196.27512
196.23927
196.27068
196.27126
196.30311
196.2689
196.27113
196.27082
196.27005
196.27904
196.28855
196.28619
196.28919
196.27989
196.28977
117.63837
117.64466
117.67739
117.68899
117.68437
117.67196
117.65701
117.652
117.64855
117.68133
117.69373
117.66886
117.65727
117.65373
117.67057
117.68112
117.65349
117.66149
117.67621
117.69549
117.68354
117.65402
117.65424
117.66063
117.67473
117.68584
117.68777
117.67476
117.64268
117.63707
39.271608
39.246523
39.239543
39.251195
39.250988
39.255694
39.266465
39.280978
39.267687
39.263509
39.266474
39.254903
39.26204
39.240319
39.233846
39.24095
39.24576
39.269693
39.25503
39.26991
39.262127
39.268451
39.279969
39.260298
39.254521
39.251172
39.250784
39.2387
39.243908
39.26908
353.40262
353.41571
353.4123
353.40849
353.41433
353.41531
353.40986
353.41401
353.41045
353.40823
353.40427
353.40268
353.40338
353.39849
353.40197
353.40309
353.39871
353.40459
353.40308
353.40314
353.40784
353.41138
353.41319
353.40976
353.41431
353.41346
353.40728
353.41105
353.41414
353.40163
274.48218
274.49668
274.48942
274.46007
274.45627
274.45381
274.47257
274.49147
274.49751
274.47414
274.4609
274.46294
274.47079
274.46978
274.4642
274.46248
274.47084
274.46635
274.4634
274.45989
274.4755
274.50192
274.4931
274.47191
274.45543
274.45739
274.46129
274.49026
274.49806
274.48389
196.2742
196.24769
196.23736
196.25194
196.28795
196.27257
196.2398
196.23945
196.2397
196.24354
196.25366
196.27076
196.28408
196.27317
196.30466
196.30646
196.27359
196.28768
196.2718
196.24931
196.23759
196.23548
196.23995
196.23853
196.27277
196.28659
196.25079
196.2362
196.2486
196.27399
117.67193
117.67365
117.65534
117.65876
117.68878
117.69018
117.64215
117.67062
117.6681
117.64983
117.65221
117.67216
117.6671
117.66552
117.69466
117.70022
117.66286
117.68009
117.67825
117.65771
117.65485
117.67066
117.67218
117.64364
117.6899
117.68854
117.6571
117.65464
117.67341
117.67206
39.243626
39.232
39.24802
39.24889
39.262825
39.261823
39.255892
39.239653
39.241406
39.254535
39.244059
39.239361
39.242476
39.231389
39.231076
39.233346
39.238054
39.247987
39.240766
39.244947
39.252035
39.242507
39.238989
39.255197
39.260951
39.262797
39.248886
39.248049
39.231245
39.24307
353.41384
353.40682
353.41599
353.41176
353.41479
353.41444
353.4118
353.41557
353.4115
353.41304
353.40567
353.39375
353.40234
353.40181
353.39412
353.40513
353.4116
353.41155
353.41496
353.41215
353.41412
353.41436
353.41072
353.41448
353.40461
353.41209
274.52292
274.48569
274.51911
274.48796
274.45649
274.46195
274.4896
274.51931
274.52842
274.53289
274.49721
274.47081
274.47356
274.4739
274.47144
274.49836
274.53132
274.5288
274.51973
274.49022
274.4622
274.45712
274.48878
274.51939
274.48262
274.52353
196.25986
196.27696
196.25357
196.24407
196.26813
196.27162
196.23036
196.25211
196.25662
196.2433
196.24098
196.26384
196.2759
196.27603
196.26359
196.24181
196.24356
196.25623
196.25249
196.22852
196.27135
196.2672
196.2438
196.25335
196.27945
196.26144
117.69016
117.66931
117.66657
117.65754
117.68232
117.68961
117.64749
117.69251
117.68686
117.67107
117.67857
117.67834
117.69575
117.69334
117.67963
117.67978
117.6743
117.68938
117.69313
117.64857
117.68942
117.68241
117.65704
117.66657
117.66987
117.69079
39.234809
39.234227
39.257271
39.251637
39.252303
39.249823
39.244524
39.232849
39.233064
39.237179
39.23161
39.231268
39.236048
39.238563
39.233108
39.234255
39.236703
39.234254
39.23317
39.244282
39.249921
39.252456
39.251563
39.257015
39.233787
39.234822
353.41357
353.40673
353.41582
353.41175
353.41463
353.41444
353.41185
353.41546
353.41126
353.41256
353.40531
353.39346
353.40194
353.40239
353.39436
353.40558
353.41242
353.41166
353.4152
353.41199
353.41399
353.41437
353.4113
353.41548
353.40645
353.41296
274.52326
274.48646
274.51935
274.48822
274.45663
274.46175
274.48964
274.51928
274.52853
274.53288
274.49757
274.47141
274.47409
274.4735
274.4713
274.49782
274.53308
274.52863
274.51963
274.48999
274.46241
274.45686
274.48738
274.52057
274.49307
274.52495
196.25933
196.27639
196.25358
196.24391
196.26818
196.27153
196.23015
196.25218
196.25669
196.24365
196.24154
196.26393
196.27584
196.27589
196.26359
196.24125
196.24092
196.25652
196.25222
196.2289
196.27148
196.26711
196.24386
196.25192
196.27244
196.25638
117.68942
117.66963
117.66605
117.65799
117.68224
117.68969
117.6474
117.69279
117.68693
117.67142
117.67852
117.67859
117.69531
117.69604
117.68073
117.68119
117.67425
117.68843
117.69342
117.64809
117.68957
117.68262
117.65631
117.6658
117.66766
117.68884
39.23471
39.233917
39.25722
39.251549
39.251979
39.249625
39.244349
39.232779
39.233175
39.237148
39.232006
39.231869
39.237232
39.238853
39.233529
39.233841
39.238035
39.234288
39.233441
39.244382
39.250071
39.252621
39.251306
39.256245
39.233131
39.234081
353.40309
353.41575
353.41208
353.40821
353.41402
353.41509
353.40972
353.41366
353.41032
353.40762
353.40352
353.40216
353.40289
353.39733
353.40186
353.40256
353.39831
353.40382
353.40297
353.40396
353.40865
353.41159
353.41356
353.41006
353.41456
353.41384
353.40764
353.41121
353.41458
353.40181
274.48249
274.49686
274.48942
274.46054
274.45668
274.45397
274.4725
274.4917
274.49868
274.47497
274.4615
274.4641
274.47046
274.46901
274.46407
274.46402
274.47238
274.46954
274.46431
274.46027
274.47621
274.50084
274.49257
274.47203
274.45482
274.45684
274.46068
274.48964
274.49733
274.48301
196.27366
196.24762
196.23664
196.25162
196.28701
196.27295
196.23912
196.23953
196.23887
196.24251
196.25317
196.27124
196.28532
196.27088
196.30629
196.30781
196.27252
196.28662
196.27163
196.25077
196.23866
196.23707
196.23963
196.23868
196.27252
196.28769
196.25127
196.23671
196.24541
196.27229
117.67099
117.67329
117.6557
117.65777
117.6886
117.69002
117.64244
117.67015
117.66901
117.65113
117.65365
117.67483
117.67351
117.66869
117.69907
117.69986
117.66273
117.67476
117.67704
117.65643
117.65379
117.67003
117.67139
117.64303
117.68995
117.68887
117.6585
117.65618
117.67317
117.67142
39.243278
39.230591
39.246603
39.248363
39.262181
39.261608
39.255865
39.239528
39.241558
39.254617
39.244489
39.240713
39.246143
39.236776
39.234039
39.234041
39.236455
39.247626
39.241034
39.244822
39.2529
39.242166
39.239317
39.25539
39.261114
39.263069
39.248231
39.245747
39.23116
39.243316
353.40253
353.40083
353.40456
353.40526
353.4072
353.40747
353.4083
353.41189
353.40426
353.40589
353.40843
353.39925
353.40158
353.40102
353.39747
353.39799
353.4003
353.40053
353.39968
353.40943
353.40565
353.40641
353.41216
353.40818
353.40758
353.40673
353.40451
353.40336
353.39885
353.40105
274.48237
274.47225
274.46398
274.45798
274.44997
274.45473
274.47652
274.47839
274.47253
274.45006
274.45616
274.46451
274.48885
274.48979
274.46761
274.46661
274.48932
274.48361
274.46431
274.45552
274.44765
274.46998
274.47741
274.475
274.45459
274.45015
274.45849
274.46408
274.46896
274.48235
196.2918
196.28423
196.29167
196.28678
196.28995
196.27728
196.27344
196.27234
196.27242
196.27634
196.29803
196.26964
196.25926
196.23713
196.27829
196.27957
196.23917
196.26542
196.26928
196.30175
196.26936
196.27077
196.27113
196.27123
196.27835
196.28914
196.28692
196.29109
196.28553
196.29103
117.63749
117.6436
117.67641
117.68859
117.68476
117.67229
117.6565
117.65191
117.6478
117.68206
117.69467
117.67145
117.65973
117.65417
117.67522
117.6758
117.65289
117.66079
117.67391
117.69608
117.68472
117.65185
117.65325
117.65881
117.67374
117.68571
117.68877
117.67731
117.64554
117.63902
39.270369
39.24455
39.238646
39.250764
39.250635
39.254996
39.265706
39.28133
39.267465
39.26353
39.267904
39.255632
39.265432
39.242559
39.237486
39.240401
39.243779
39.267959
39.255167
39.269534
39.26298
39.268097
39.280992
39.26222
39.254638
39.251541
39.251474
39.240107
39.24803
39.271722
353.40594
353.40553
353.40378
353.40409
353.40696
353.41668
353.41563
353.41269
353.40926
353.4179
353.40878
353.40827
353.42062
353.41743
353.40757
353.40858
353.41527
353.42048
353.40875
353.40972
353.41943
353.40993
353.41358
353.41578
353.41589
353.40621
353.40323
353.40278
353.40431
353.40475
274.45826
274.45593
274.46698
274.47139
274.46463
274.50143
274.50141
274.46531
274.44808
274.45216
274.45731
274.46544
274.52936
274.51834
274.47885
274.47826
274.51625
274.52793
274.46961
274.45691
274.45099
274.44676
274.46731
274.50199
274.50078
274.46543
274.4723
274.46802
274.4566
274.45921
196.28468
196.27251
196.25865
196.2652
196.25629
196.22651
196.22091
196.23835
196.25169
196.29026
196.26149
196.23073
196.2311
196.2288
196.28135
196.27811
196.23266
196.23095
196.2319
196.26188
196.29204
196.24619
196.24038
196.22009
196.22776
196.25605
196.26493
196.25864
196.27235
196.28447
117.68917
117.68344
117.66267
117.66953
117.67001
117.67034
117.66305
117.65191
117.67895
117.69384
117.68029
117.6665
117.67688
117.66827
117.69544
117.69739
117.66695
117.67858
117.66464
117.68042
117.69429
117.67941
117.64838
117.66339
117.67076
117.67054
117.6702
117.66366
117.68439
117.69005
39.251917
39.249493
39.245846
39.236922
39.232048
39.23128
39.23971
39.247443
39.253916
39.268942
39.25773
39.250638
39.248044
39.234064
39.230381
39.231578
39.232836
39.247382
39.250179
39.257812
39.269704
39.25451
39.248859
39.239963
39.230659
39.233267
39.237391
39.246722
39.250639
39.252954
353.40432
353.39713
353.40968
353.41277
353.41532
353.41374
353.41133
353.40949
353.39835
353.40558
353.40904
353.40445
353.40932
353.40638
353.41488
353.41416
353.40155
353.40818
353.40409
353.40875
353.40645
353.39943
353.41037
353.41164
353.41361
353.41468
353.41182
353.40849
353.39582
353.40312
274.47528
274.47522
274.50947
274.52106
274.52622
274.53069
274.52215
274.50106
274.46498
274.45838
274.45546
274.45076
274.48631
274.48485
274.51437
274.51337
274.48734
274.48979
274.46003
274.45626
274.45691
274.46313
274.50029
274.52262
274.53112
274.5264
274.52156
274.51014
274.47652
274.47654
196.26869
196.24865
196.23006
196.25712
196.25022
196.25504
196.25834
196.23203
196.24996
196.27297
196.29893
196.27276
196.26095
196.26286
196.25307
196.25314
196.26327
196.26421
196.26851
196.29673
196.27329
196.24773
196.23183
196.25805
196.25424
196.24987
196.25696
196.23008
196.24866
196.26847
117.69447
117.6634
117.67363
117.68733
117.70526
117.70015
117.67806
117.66255
117.65666
117.69044
117.69387
117.66939
117.65659
117.66104
117.69085
117.69276
117.65433
117.66016
117.65699
117.6923
117.69347
117.6564
117.66266
117.67843
117.70149
117.70537
117.68792
117.67436
117.66424
117.69516
39.245023
39.247342
39.245215
39.229193
39.237676
39.229865
39.22323
39.246603
39.256093
39.253737
39.261189
39.247025
39.264951
39.232909
39.234768
39.234799
39.232225
39.269061
39.256312
39.260398
39.255307
39.255745
39.245648
39.223082
39.230719
39.238211
39.229654
39.245807
39.247965
39.245694
)
;

boundaryField
{
    minX
    {
        type            calculated;
        value           nonuniform List<scalar> 
50
(
353.40473
274.47517
196.26898
117.69487
39.245355
353.40611
274.45843
196.28554
117.68906
39.252474
353.40275
274.48229
196.29204
117.63837
39.271608
353.40262
274.48218
196.2742
117.67193
39.243626
353.41384
274.52292
196.25986
117.69016
39.234809
353.41357
274.52326
196.25933
117.68942
39.23471
353.40309
274.48249
196.27366
117.67099
39.243278
353.40253
274.48237
196.2918
117.63749
39.270369
353.40594
274.45826
196.28468
117.68917
39.251917
353.40432
274.47528
196.26869
117.69447
39.245023
)
;
    }
    maxX
    {
        type            calculated;
        value           nonuniform List<scalar> 
50
(
353.40244
274.477
196.26791
117.69411
39.244392
353.40453
274.45982
196.28336
117.68877
39.251145
353.40126
274.48506
196.28977
117.63707
39.26908
353.40163
274.48389
196.27399
117.67206
39.24307
353.41209
274.52353
196.26144
117.69079
39.234822
353.41296
274.52495
196.25638
117.68884
39.234081
353.40181
274.48301
196.27229
117.67142
39.243316
353.40105
274.48235
196.29103
117.63902
39.271722
353.40475
274.45921
196.28447
117.69005
39.252954
353.40312
274.47654
196.26847
117.69516
39.245694
)
;
    }
    minY
    {
        type            calculated;
        value           nonuniform List<scalar> 
292
(
392.4
392.4
392.4
392.4
392.4
392.4
392.4
392.4
392.4
392.4
392.4
392.4
392.4
392.4
392.4
392.4
392.4
392.4
392.4
392.4
392.4
392.4
392.4
392.4
392.4
392.4
392.4
392.4
392.4
392.4
392.4
392.4
392.4
392.4
392.4
392.4
392.4
392.4
392.4
392.4
392.4
392.4
392.4
392.4
392.4
392.4
392.4
392.4
392.4
392.4
392.4
392.4
392.4
392.4
392.4
392.4
392.4
392.4
392.4
392.4
392.4
392.4
392.4
392.4
392.4
392.4
392.4
392.4
392.4
392.4
392.4
392.4
392.4
392.4
392.4
392.4
392.4
392.4
392.4
392.4
392.4
392.4
392.4
392.4
392.4
392.4
392.4
392.4
392.4
392.4
392.4
392.4
392.4
392.4
392.4
392.4
392.4
392.4
392.4
392.4
392.4
392.4
392.4
392.4
392.4
392.4
392.4
392.4
392.4
392.4
392.4
392.4
392.4
392.4
392.4
392.4
392.4
392.4
392.4
392.4
392.4
392.4
392.4
392.4
392.4
392.4
392.4
392.4
392.4
392.4
392.4
392.4
392.4
392.4
392.4
392.4
392.4
392.4
392.4
392.4
392.4
392.4
392.4
392.4
392.4
392.4
392.4
392.4
392.4
392.4
392.4
392.4
392.4
392.4
392.4
392.4
392.4
392.4
392.4
392.4
392.4
392.4
392.4
392.4
392.4
392.4
392.4
392.4
392.4
392.4
392.4
392.4
392.4
392.4
392.4
392.4
392.4
392.4
392.4
392.4
392.4
392.4
392.4
392.4
392.4
392.4
392.4
392.4
392.4
392.4
392.4
392.4
392.4
392.4
392.4
392.4
392.4
392.4
392.4
392.4
392.4
392.4
392.4
392.4
392.4
392.4
392.4
392.4
392.4
392.4
392.4
392.4
392.4
392.4
392.4
392.4
392.4
392.4
392.4
392.4
392.4
392.4
392.4
392.4
392.4
392.4
392.4
392.4
392.4
392.4
392.4
392.4
392.4
392.4
392.4
392.4
392.4
392.4
392.4
392.4
392.4
392.4
392.4
392.4
392.4
392.4
392.4
392.4
392.4
392.4
392.4
392.4
392.4
392.4
392.4
392.4
392.4
392.4
392.4
392.4
392.4
392.4
392.4
392.4
392.4
392.4
392.4
392.4
392.4
392.4
392.4
392.4
392.4
392.4
392.4
392.4
392.4
392.4
392.4
392.4
392.4
392.4
392.4
392.4
392.4
392.4
392.4
392.4
392.4
392.4
392.4
392.4
)
;
    }
    minZ
    {
        type            calculated;
        value           nonuniform List<scalar> 
150
(
353.40473
274.47517
196.26898
117.69487
39.245355
353.39762
274.47502
196.24898
117.66394
39.247711
353.41021
274.50964
196.23034
117.6742
39.245235
353.41333
274.52122
196.25767
117.68788
39.229484
353.41571
274.5264
196.25061
117.70579
39.23805
353.41392
274.53052
196.2555
117.69959
39.229623
353.41142
274.52172
196.25855
117.67853
39.223833
353.40972
274.50116
196.23223
117.66337
39.24679
353.39867
274.46499
196.25065
117.65709
39.256563
353.40635
274.45845
196.27225
117.68894
39.253531
353.41037
274.45434
196.29957
117.6952
39.260823
353.40553
274.44534
196.26995
117.67636
39.242407
353.41077
274.48439
196.25647
117.65345
39.258847
353.41126
274.48936
196.2544
117.66509
39.230367
353.41589
274.51585
196.2513
117.69078
39.232875
353.41457
274.51247
196.25127
117.69399
39.233084
353.40099
274.48749
196.26295
117.65299
39.231399
353.4077
274.49149
196.26613
117.66218
39.270111
353.4041
274.46594
196.26534
117.64745
39.263225
353.40805
274.45618
196.29429
117.69047
39.258948
353.40568
274.45688
196.27285
117.69356
39.255448
353.39839
274.46362
196.24694
117.65556
39.255279
353.40957
274.50056
196.23287
117.66319
39.24433
353.41084
274.52274
196.25707
117.67882
39.223794
353.41308
274.53107
196.25436
117.70129
39.230789
353.41405
274.52616
196.24946
117.70457
39.237559
353.41105
274.52151
196.25622
117.68711
39.229029
353.40771
274.51008
196.22955
117.67338
39.245277
353.39498
274.477
196.24819
117.66321
39.246851
353.40244
274.477
196.26791
117.69411
39.244392
)
;
    }
    maxZ
    {
        type            calculated;
        value           nonuniform List<scalar> 
150
(
353.40432
274.47528
196.26869
117.69447
39.245023
353.39713
274.47522
196.24865
117.6634
39.247342
353.40968
274.50947
196.23006
117.67363
39.245215
353.41277
274.52106
196.25712
117.68733
39.229193
353.41532
274.52622
196.25022
117.70526
39.237676
353.41374
274.53069
196.25504
117.70015
39.229865
353.41133
274.52215
196.25834
117.67806
39.22323
353.40949
274.50106
196.23203
117.66255
39.246603
353.39835
274.46498
196.24996
117.65666
39.256093
353.40558
274.45838
196.27297
117.69044
39.253737
353.40904
274.45546
196.29893
117.69387
39.261189
353.40445
274.45076
196.27276
117.66939
39.247025
353.40932
274.48631
196.26095
117.65659
39.264951
353.40638
274.48485
196.26286
117.66104
39.232909
353.41488
274.51437
196.25307
117.69085
39.234768
353.41416
274.51337
196.25314
117.69276
39.234799
353.40155
274.48734
196.26327
117.65433
39.232225
353.40818
274.48979
196.26421
117.66016
39.269061
353.40409
274.46003
196.26851
117.65699
39.256312
353.40875
274.45626
196.29673
117.6923
39.260398
353.40645
274.45691
196.27329
117.69347
39.255307
353.39943
274.46313
196.24773
117.6564
39.255745
353.41037
274.50029
196.23183
117.66266
39.245648
353.41164
274.52262
196.25805
117.67843
39.223082
353.41361
274.53112
196.25424
117.70149
39.230719
353.41468
274.5264
196.24987
117.70537
39.238211
353.41182
274.52156
196.25696
117.68792
39.229654
353.40849
274.51014
196.23008
117.67436
39.245807
353.39582
274.47652
196.24866
117.66424
39.247965
353.40312
274.47654
196.26847
117.69516
39.245694
)
;
    }
    bottomWater_to_rightSolid
    {
        type            calculated;
        value           nonuniform List<scalar> 
130
(
0.030111003
0.023225358
0.018947891
0.015448488
0.01527883
0.0043295303
-0.016205938
-0.0092106219
-0.0024414462
-0.010970558
0.0052772203
0.006851178
0.0043917969
0.0073875005
0.0094822923
0.017433407
0.029070799
0.014117838
0.0085030148
-0.00042795498
-0.0092432319
-0.007168
-0.0033578532
0.0052596729
0.0088330236
0.011145431
0.029692946
0.015029845
0.029910116
0.022126906
0.028451044
0.039969098
0.020298283
0.01452091
0.011171525
0.010783656
-0.0012996454
0.0039080758
0.02908032
0.0079867342
0.00076633606
0.0049467441
0.012035056
0.0025073162
-0.001010996
0.015197007
0.020950748
0.022796795
0.0088860616
0.008048656
-0.0087550619
0.0030696371
-0.0014369982
-0.0068921029
-0.0057446145
-0.0032970152
-0.0057464029
-0.0068297988
0.0042822197
0.0099207034
0.012456234
0.011562961
0.017015067
-0.006213393
-0.0051776883
-0.0011466429
-0.0064707909
-0.0061589553
-0.0019650695
-0.0057119749
-0.0065590066
0.0043824889
0.010070637
0.01262065
0.011305898
0.016244649
-0.0068685562
-0.0059189881
0.0076261022
0.0010342705
0.0048221706
0.012899626
0.0021663148
-0.00068326073
0.015390209
0.021113708
0.023069055
0.0082314559
0.005747365
-0.0088402597
0.0033159423
0.027958503
0.015166623
0.029533772
0.022979614
0.028096994
0.040992379
0.02222003
0.014637706
0.011540536
0.011474239
0.00010666715
0.0080301646
0.031721622
0.0073817882
0.010178854
0.017812034
0.029704167
0.014509989
0.0088591516
-3.7255093e-05
-0.0093409309
-0.0067329838
-0.002608672
0.0067218438
0.01063874
0.01295402
0.029061492
0.016312104
0.020397846
0.015307384
0.015745449
0.0056475488
-0.016917649
-0.0092812724
-0.0017889546
-0.010345691
0.0058072747
0.007965092
0.0056935711
)
;
    }
    bottomWater_to_leftSolid
    {
        type            calculated;
        value           nonuniform List<scalar> 
130
(
0.0053552826
0.0077106139
0.0052348815
-0.010515927
-0.0019504587
-0.010376699
-0.016166762
0.0067900446
0.016562636
0.013530627
0.020823015
0.0024074413
0.018846581
0.012474302
0.01015689
0.0065963581
-0.0028127421
-0.0076253319
-0.0077949761
-0.00037139531
0.006357479
0.013637038
0.028369101
0.017295807
0.010002253
0.0072565387
0.031608075
0.0065233846
-0.00045652401
0.011194747
0.010988097
0.01569411
0.026465133
0.040977756
0.027686856
0.0235089
0.026473874
0.014903454
0.022040426
0.0036256658
-0.0080000413
0.0080200748
0.0088904815
0.022825122
0.021822846
0.01589208
-0.00034663206
0.0014058164
0.01453531
0.0040593424
-0.00063903382
0.0024761125
-0.005190509
-0.0057725511
0.017270922
0.011637168
0.012303495
0.0098228488
0.0045235555
-0.0071510682
-0.0069364921
-0.0028211375
-0.008390331
-0.0087322759
-0.0039524416
-0.0052895363
-0.0060833058
0.017219595
0.011549156
0.011978921
0.0096248491
0.0043487494
-0.0072209532
-0.0068251713
-0.0028524215
-0.0079936084
-0.008130993
-0.0027681682
0.0032777603
-0.0094085659
0.0066026916
0.0083631626
0.022181159
0.021608448
0.015865428
-0.00047152104
0.0015577856
0.014616723
0.0044891478
0.000713187
0.0061428171
0.03036856
0.0045498134
-0.0013535911
0.01076362
0.010634675
0.014996153
0.025706302
0.041329931
0.027464653
0.023530259
0.027904243
0.015632394
0.025432323
0.011917169
0.0094932741
0.005846005
-0.0030778069
-0.007951917
-0.0087199673
-0.00029031282
0.0074428147
0.013916126
0.028941693
0.017730414
0.010638405
0.0080442103
0.0050230664
0.0073416795
0.0052147425
-0.010807089
-0.0023237358
-0.010135323
-0.016769851
0.0066032986
0.016092597
0.013737241
0.021188886
0.0070254676
0.024951465
)
;
    }
    bottomWater_to_heater
    {
        type            calculated;
        value           nonuniform List<scalar> 
92
(
-0.009632786
-0.0071252056
-0.0069159659
-0.0086007087
-0.004872541
-0.011331499
-0.0081885747
-0.0069056667
0.00031911671
-0.0061540638
0.00094990664
0.0057597461
353.39849
353.40197
353.40309
353.39871
274.46978
274.4642
274.46248
274.47084
196.27317
196.30466
196.30646
196.27359
117.66552
117.69466
117.70022
117.66286
-0.0086105647
39.231389
-0.0089236575
39.231076
-0.0066539415
39.233346
-0.0019455075
39.238054
353.40234
353.40181
274.47356
274.4739
196.2759
196.27603
117.69575
117.69334
39.236048
39.238563
353.40194
353.39733
353.40186
353.40256
353.40239
353.39831
274.47409
274.46901
274.46407
274.46402
274.4735
274.47238
196.27584
196.27088
196.30629
196.30781
196.27589
196.27252
117.69531
117.66869
117.69907
117.69986
117.69604
117.66273
39.237232
39.236776
39.234039
39.234041
39.238853
39.236455
-0.0032243503
-0.0059613176
-0.0059592265
-0.0035450254
0.0025589363
-0.002514047
0.0004012072
0.003778891
-0.0059363975
-0.0096187188
-0.0084219269
-0.0071644062
-0.0070914282
-0.0052321203
-0.0052007151
-0.0077746972
)
;
    }
}


// ************************************************************************* //
