/*--------------------------------*- C++ -*----------------------------------*\
| =========                 |                                                 |
| \\      /  F ield         | OpenFOAM: The Open Source CFD Toolbox           |
|  \\    /   O peration     | Version:  v2012                                 |
|   \\  /    A nd           | Website:  www.openfoam.com                      |
|    \\/     M anipulation  |                                                 |
\*---------------------------------------------------------------------------*/
FoamFile
{
    version     2.0;
    format      ascii;
    class       surfaceScalarField;
    location    "90/bottomWater";
    object      phi;
}
// * * * * * * * * * * * * * * * * * * * * * * * * * * * * * * * * * * * * * //

dimensions      [1 0 -1 0 0 0 0];
oriented        oriented;


internalField   nonuniform List<scalar> 
3858
(
-0.00017409762
0.00014190802
3.3001906e-05
-0.00030351383
8.4608049e-05
4.7764981e-05
-0.00021647808
-0.00020227147
0.00011504288
-0.00013140061
-0.00023342733
0.00014721325
-6.5044064e-06
-0.00027133209
0.00014448147
0.0001205415
-0.00022160443
9.2966797e-05
0.0002137767
-0.00018057986
8.6590941e-05
0.00027356463
-0.00013187643
7.1879292e-05
0.00016064775
7.3627978e-05
4.1906757e-05
1.0976654e-05
0.00014136746
8.6292408e-06
-0.00012639976
0.00012333643
1.32345e-05
-0.00022423879
0.0001087499
-1.0217102e-05
-0.00021954206
2.8826845e-05
-3.4201504e-05
-0.00018591099
-4.2765675e-05
8.2754831e-06
2.0606112e-05
-0.00030072574
9.2253039e-05
0.00022274088
-0.00028930898
8.5591544e-05
0.00019371481
4.3183069e-05
-1.2238286e-05
0.00018757832
4.4701481e-05
-3.8458407e-05
0.00010294923
0.00010438274
-1.8729676e-05
-3.3996409e-05
0.00013433762
2.4269897e-06
-0.00018067708
0.00013653597
1.0690894e-05
-0.00029109336
7.738116e-05
3.5760898e-05
-0.00021585746
-0.00014725013
7.1879964e-05
-0.00011188404
-0.00019371724
8.9154028e-05
1.6745376e-05
-0.00022464722
9.46608e-05
0.00013797337
-0.00026472224
0.00014199208
0.00021986055
-0.00022581034
0.00014339571
0.00030360235
-0.00019448228
0.00011120976
0.00017048911
9.3358943e-05
4.3421483e-05
0.0001427559
2.9155871e-05
-0.00030817767
0.00043241707
1.7668613e-05
-0.00030998149
-1.1976865e-05
9.8388741e-05
-0.00015474122
-0.00051396789
0.00015645615
-0.00011212386
-0.00049703209
0.0002209874
-2.3930266e-05
-0.00056051875
0.00020099306
0.00010926716
-0.00045426131
9.9459453e-05
0.00022720579
-0.00040035166
0.00010183317
0.00037009404
-0.00040294796
0.00012818329
0.00036416765
-2.0488821e-05
0.00010004319
4.6638801e-05
0.00039682689
6.2069436e-05
-0.00035393377
0.00057619335
-5.2284341e-05
-0.00052608487
0.00039461537
-0.00011371437
-0.0003600871
2.9799087e-06
-0.00014015083
-0.0002216938
-0.00013276317
-4.8395808e-05
-1.2996762e-05
-0.00062208616
0.00011266338
0.00018990189
-0.00061625951
0.00012405188
0.00028668787
1.7617635e-05
-7.1220546e-05
0.00043229204
2.3102408e-05
-0.0001240051
0.00042839097
0.00017536367
-6.707986e-05
2.2230534e-05
0.00057665832
-3.616027e-05
-0.00038475467
0.00048015432
6.3366849e-05
-0.00039115739
-1.0625556e-05
9.4409426e-05
-0.00023037216
-0.00042853648
0.00012050112
-0.00010657948
-0.0004211359
0.00010362598
2.5362138e-05
-0.00046044142
0.00010385259
0.00010855944
-0.00055162079
0.00020370125
0.0001490132
-0.00048588024
0.00021961615
0.00030208394
-0.00050293054
0.00015537752
0.00030359733
-5.3821127e-06
9.7227679e-05
0.0004305059
1.5847336e-05
0.00016786946
0.00032039727
-5.5849659e-05
0.0002734658
-5.3404407e-05
-6.4168798e-05
5.8956696e-06
-0.00011710084
-0.00012929692
-4.6397133e-05
-0.00034286325
-0.00010187604
-2.7177029e-05
-0.00046503245
-0.00011470641
-1.0764456e-05
-0.0004190605
-5.1613387e-05
-6.2444601e-05
-0.00033754512
-1.112639e-05
-0.00030375492
-0.00013439555
-2.7242093e-05
-0.0002497066
-7.094655e-05
-3.5905758e-06
-0.0001737987
0.0003013505
1.9568496e-05
-0.00013994708
0.00051913135
2.3210389e-05
-3.4153871e-05
0.00024680106
4.202111e-05
1.8265094e-05
-0.00011293655
6.3497499e-05
1.4852335e-05
-0.00022395045
9.4600045e-05
-2.7836818e-05
-0.00048663157
-9.2765436e-05
-9.0224719e-05
-0.00048176996
-7.2101651e-05
2.1594651e-05
-0.00016370853
6.9506789e-05
6.9259112e-05
-9.2625525e-05
6.8063467e-05
0.0001143521
2.2828789e-05
0.00010744189
0.00017026826
0.00049942638
2.1315775e-05
0.00023300116
0.0003799863
3.7435116e-05
0.00029025743
-6.919621e-05
1.3143759e-06
5.4423412e-05
-0.00015984133
-3.2861129e-05
-1.1847232e-06
-0.00035276421
-1.2763553e-05
1.7709877e-05
-0.00042141152
-5.7924495e-05
4.2022401e-05
-0.00045962381
-0.0001163095
-1.15201e-05
-0.00033439303
-9.7944693e-05
-0.00027779695
-0.00011249034
-0.00012416334
-0.00016901372
-5.133677e-05
-6.2828561e-05
0.00031841854
-5.6926347e-05
0.00029877541
-2.2111366e-05
4.3733222e-05
0.00011470853
0.00013753529
-6.8728127e-06
-5.7758999e-05
6.1045023e-05
-5.6783436e-06
-6.7565627e-05
-0.00029887943
-3.4177198e-05
-5.9778943e-05
-0.00042417258
-4.8646556e-05
-5.4646745e-05
-0.00041037069
-1.3822013e-05
-7.1249419e-05
-0.00033953631
1.8593864e-05
-0.00021314156
1.2241623e-05
-4.745017e-06
-0.00039622151
0.00014009213
-2.795872e-05
-0.00022205857
0.00010798998
1.9197601e-05
8.4250242e-05
0.00016939706
4.342548e-05
0.00025318463
4.7604902e-05
3.0261782e-05
3.0769085e-05
0.00019626993
-8.6790936e-05
-4.833833e-05
-0.00011415303
-3.0690012e-05
-1.9648821e-05
-0.00046751766
-4.7803419e-05
3.0667008e-05
-0.0004621761
-6.9909696e-05
4.7708144e-05
-9.7995749e-05
-8.275392e-05
-0.00013529477
0.00022562672
-0.00013524934
-0.00020093319
0.00018717858
-9.8711377e-05
0.00011935608
0.00014550403
3.3633075e-05
0.00036334801
9.51803e-05
4.0814069e-05
0.00019310887
0.00014289605
-4.185313e-05
5.6309022e-05
-2.069174e-05
-2.3497413e-06
4.3863136e-05
-0.00035128572
1.0967402e-05
5.6018529e-05
-0.00040761707
-2.5949834e-05
6.4354076e-05
-0.00041751246
-5.044688e-05
5.0006123e-05
-0.00028674145
-3.330361e-05
-0.00012289184
6.9926607e-05
-9.5189613e-06
-0.00030088762
0.00013603796
-9.3789424e-06
-2.4006831e-05
4.1537762e-05
5.5296241e-05
-7.7407607e-05
0.00022561692
-3.278539e-05
0.00030723768
-2.0575737e-05
0.00010594643
-9.7588185e-05
-0.00014088287
-0.00017734329
-0.0003403332
-0.00021092036
-0.00049609064
-0.00018377888
-0.0003884738
-9.5375202e-05
-0.00020983765
-3.8544006e-05
-6.2845387e-05
-3.9002277e-05
0.00010853956
-1.9878743e-06
0.00018021031
-2.4065841e-05
0.00039902242
-2.2542183e-05
0.00035085505
-6.598566e-05
-4.5883664e-05
-7.0778954e-05
-0.00041600671
-9.205305e-05
-0.00044438978
-6.9612687e-05
-0.00020472014
-1.404293e-05
-3.2335414e-05
1.4793851e-05
0.00011698187
-3.8132696e-06
0.00022717271
-1.5010537e-05
0.00040952644
-3.9457689e-05
0.00049296023
-0.00010412553
0.00032631589
-0.00018464137
0.00012486481
-0.00020616598
-0.00011671525
-0.00017593239
-0.0003075321
-9.5924579e-05
-0.00022034104
-1.7264447e-05
-5.3257638e-05
-3.1045422e-05
-7.7264466e-05
-0.00010857138
0.00015998534
-1.8011906e-05
-0.00018454312
0.00015463113
-3.0190158e-05
-0.0002114408
0.00011474638
2.8491795e-05
-0.00020325846
7.314546e-05
6.7129872e-05
-0.00011778584
1.0753926e-05
4.8555545e-05
8.6457419e-05
-0.00018078785
6.7132854e-05
0.00019936018
-0.00012431986
9.6110204e-05
0.00019442883
8.4019143e-05
-8.3936025e-06
9.5525694e-05
0.00016038211
-1.9971903e-05
-3.5557058e-05
0.0001222201
1.4661562e-05
-0.00021913678
0.00013588543
6.0718133e-05
-0.00025843291
-5.5447247e-05
8.4980506e-05
-5.2475217e-05
-0.0003265782
8.318166e-05
0.00011499258
-0.00024340509
8.1197061e-05
2.3577921e-05
3.1498091e-05
0.00015234585
-8.9441866e-05
4.5232275e-05
0.00015308926
2.4917513e-05
-0.00020124463
7.2550307e-05
0.00022291526
-0.00034015115
0.00010053455
0.00019578337
-7.8837542e-05
8.7099245e-05
2.0121363e-05
0.00013181575
4.5743247e-05
-9.9826497e-05
0.00011985129
7.5539716e-06
-0.0002006599
0.00016631684
-3.003772e-05
-0.00019980425
7.6056652e-05
-6.2869478e-06
-7.7450275e-05
-0.00012661696
9.1595543e-05
0.00012349407
-0.0001669955
5.8741127e-05
0.00020509297
2.1121551e-05
3.9926103e-05
0.00021204729
7.6892744e-05
6.1138023e-05
0.00018513117
0.00011659849
2.3156754e-05
0.00010833592
0.00015466958
-3.3375932e-05
0.00016112249
-2.280049e-05
-0.00012112932
0.00048017553
-0.00018139226
-0.00025441424
0.00047216413
-8.5859336e-05
-0.00021415205
0.00017764148
5.3298855e-05
-0.00015698244
1.5358709e-05
0.00022160454
-6.8589847e-05
-0.00010374759
0.00022710198
0.00013370748
-0.00046685635
0.00018323062
0.00033598381
-0.00037768944
0.00015292643
0.00041210938
0.00016891675
-3.2839881e-05
0.00022952248
0.00055285602
-0.00010984381
-0.00012313431
0.00064448724
-0.00010754091
-0.00033122085
0.00032775058
-3.6062953e-05
-0.00028146281
-0.00022319934
4.2796817e-06
-9.1660805e-05
-0.00065287656
-3.6544728e-06
0.00015232704
-0.00053587444
8.5686551e-08
4.3077627e-05
6.4476095e-05
0.00018893479
-0.00011913338
0.0001231594
0.00020833576
7.5896828e-05
-0.00046715327
-3.421151e-07
0.00023338838
-0.00068990991
6.8262106e-05
0.00030178359
-0.00028078663
6.6474008e-05
9.5865351e-05
0.00033621405
-3.4640332e-05
-0.00026834805
0.00065756165
-0.00011013012
-0.00045347474
0.00056527094
-0.00011941799
-0.00034213547
0.00010667313
-2.1454624e-05
-0.00012592593
-0.00038588366
0.00014668314
7.0651433e-05
-0.00043909862
0.00017937836
0.00015671002
-8.8954695e-05
0.00022771892
0.00021225977
2.825599e-05
0.00021270316
0.00024649548
0.0001897808
4.7959507e-05
0.00011643671
0.00047037796
-8.8421931e-05
0.00047791949
-0.00018451295
1.1800801e-05
0.00041424592
-1.7208464e-06
-3.8382462e-05
0.0003920335
6.6145088e-05
2.9866478e-05
6.340097e-05
-8.3305348e-05
0.00019894838
-0.00024486577
-1.0733472e-05
0.00032594011
-0.00028748816
-5.7957566e-05
8.9502668e-05
-0.00016696421
-0.00011506809
-0.00012681034
-0.00012132831
-5.1174516e-05
-1.8384592e-05
3.0803536e-05
2.4453803e-06
4.5516063e-05
0.0004777212
7.6435992e-06
0.00012647494
0.00062873495
-4.5638079e-05
0.00024539198
0.00025684291
-2.4798977e-05
0.00021842126
-7.842256e-05
-7.5784936e-05
-9.8308335e-05
-0.00010534254
-0.00016730693
-0.00036269921
-9.6889513e-05
-7.9994008e-05
1.5665038e-06
-0.00035026791
-4.2287141e-05
0.00033938077
-0.00027289217
-1.3864359e-05
0.00012561069
-9.8541612e-05
-8.533479e-05
-0.00019169986
-0.00011322812
-0.00019130778
-0.00023668491
-8.4789551e-05
-4.3570146e-05
-0.00011766464
0.00027210558
-3.3596026e-05
-5.0644631e-05
0.00064752556
-1.9548812e-05
-2.8385875e-06
0.00048246703
3.6312234e-05
9.9922271e-05
-1.7252718e-05
-1.1696144e-05
-0.00012602982
-0.00012311247
-4.9582651e-05
-0.00032765273
-0.00018210039
-0.00011329981
-0.00019986567
-0.00027492144
-5.8129798e-05
-2.961161e-05
-0.00022801231
-1.1930447e-05
3.9805769e-05
7.3788658e-05
-7.7588566e-05
-8.7268884e-06
0.00039056829
6.5513781e-05
0.00041065612
1.6101441e-06
0.00010697529
0.0002302494
0.00012075446
0.00019463584
0.00020508486
9.2415287e-05
0.00015979888
6.4758459e-05
2.7801121e-05
6.5199511e-05
-0.00021620086
3.1757264e-05
1.8943672e-05
-0.00023772266
-5.215622e-05
-1.5731198e-05
-0.00010331734
-4.2794022e-05
-0.00017320174
7.371812e-06
4.7364293e-05
-0.00024131033
5.7963057e-05
3.6204062e-05
-6.6814532e-05
0.00020589015
6.9376547e-05
0.00016848001
0.00037923988
3.3398145e-05
0.00028487509
0.00016274274
2.1130582e-05
0.00023902593
5.003856e-05
-5.2350168e-05
6.2872509e-05
6.281045e-05
-7.87905e-05
-3.5390819e-05
-2.9361302e-06
-2.6380067e-05
6.9490766e-06
-0.00040874801
-3.1663214e-05
8.0121209e-05
-0.00036078764
-5.5186359e-05
-9.0874859e-06
-3.4041969e-05
-5.8044873e-05
-0.00020663476
4.6997165e-05
-9.7927354e-05
-0.00029515691
1.7355044e-05
-0.00011233383
-0.00016886115
0.00016735354
1.2089358e-05
7.9240039e-05
0.00038777037
5.2468051e-05
0.00025452779
0.0002033604
6.1965743e-05
0.00014107673
8.4226755e-05
9.6218512e-06
-1.2090409e-05
2.9524177e-06
3.8069653e-05
-2.4790802e-05
-0.0001348308
-6.0519029e-05
-7.458845e-05
-0.00022025805
-5.5312605e-05
-0.00016147577
-0.0002053951
3.0966521e-05
-0.00018757684
6.0003191e-05
3.0367589e-05
-0.00010470548
0.0002064744
9.184361e-05
0.00022813816
0.00011935025
0.00011758829
3.5253497e-05
0.00021041971
7.9468046e-05
0.0002467904
7.8120287e-06
4.0534438e-05
-0.00010753309
-0.00017409374
-0.00020043777
-0.00027032552
-0.00021800592
-0.00030144401
-0.00014528857
-0.00028530447
-5.3551668e-05
-0.00014284367
2.4885343e-05
0.00015829979
3.909415e-05
0.00029718917
2.1865491e-05
0.00033144263
-8.2807365e-06
0.00041533488
-4.3623981e-05
0.00040376527
-5.7352187e-05
-8.4457097e-06
-6.7315986e-05
-0.00037297469
-8.8311712e-05
-0.00039574163
-8.088772e-05
-0.00031829145
-4.4495956e-05
-0.00029998431
1.3841752e-05
-0.00015608974
1.9645693e-05
0.00014722813
6.9441959e-05
0.00027998718
3.1143654e-05
0.00031791871
-5.783031e-05
0.00027472906
-0.0001384993
0.0001513113
-0.00021757901
-4.7208408e-05
-0.00019767073
-0.00024382448
-0.00010470359
-0.00020959067
8.5049488e-06
-0.00011583552
8.1673843e-05
3.5038178e-05
-1.5625266e-05
9.2365322e-05
-9.3544387e-05
-6.4257436e-05
9.2881538e-05
-7.2695059e-05
-7.0388794e-05
0.00011137962
-7.5970687e-05
-8.4838446e-05
0.00013831077
-5.6059683e-05
-6.4731555e-05
0.00012128864
-9.2691758e-05
-2.1093079e-05
9.5102936e-05
-7.1579997e-05
9.2624576e-06
9.1551427e-05
-2.6177723e-05
6.1014415e-05
3.7558963e-05
-9.8947404e-05
5.9787185e-05
9.6413918e-05
-0.00011434098
2.5927073e-05
0.00012423086
-7.5633444e-05
-3.5415414e-05
0.00012581736
-4.2494704e-06
-0.00013369995
0.00013717841
4.8126921e-05
-7.0945854e-05
-6.9489214e-05
8.9428998e-05
8.1191576e-05
-0.00015664723
8.7061101e-05
3.1220906e-05
0.0001128227
9.2337669e-05
-3.551078e-05
0.00012617686
9.628724e-05
6.7787546e-05
-0.00011819888
8.9228339e-05
7.101531e-05
1.297053e-05
8.6772484e-05
-2.0504482e-05
0.00013603886
4.4501352e-05
-7.3183082e-05
0.00012286666
-2.4492406e-05
-0.00011186687
0.00013836712
-9.1147338e-05
-8.3368714e-05
5.579144e-05
-0.00011350755
-4.7786707e-06
7.2411242e-06
-9.3229955e-05
2.284697e-05
0.00010019984
-3.629067e-05
6.5447305e-05
9.6633301e-05
-8.0475644e-05
8.3550735e-05
0.00012342965
-0.0001012641
6.8472607e-05
0.00013849026
-6.1324855e-05
6.2693789e-05
0.00011141633
-8.1367181e-05
1.3821085e-05
9.4586428e-05
-7.70568e-05
9.2033298e-05
-9.9395211e-05
0.00011802844
1.4746715e-05
-0.0002218021
0.0001853464
5.8232604e-05
-0.00011852836
0.00011021394
0.00033629667
-9.6485747e-05
-3.4736992e-05
0.00048395254
2.0913706e-05
-0.0001422971
0.00039835801
5.7592705e-05
-0.00016099843
0.00022208186
7.4953027e-05
-1.8502134e-05
5.5423663e-05
4.65579e-05
0.00017412873
-8.157559e-05
-0.00010633619
0.00029461178
4.2075049e-05
-0.00017598798
6.8239059e-05
0.00049430673
-0.00025124406
-0.00021147514
0.00052991765
-0.00016044905
-0.00025400624
0.00023489521
-5.0906012e-05
-0.00013910775
-0.00025568214
6.7639965e-05
0.00010521833
-0.00046759618
6.6708555e-05
7.5654171e-05
0.0001833781
0.00014794355
-5.7680058e-05
0.00030530968
0.00016253717
0.00017632154
-0.00041175438
5.9211787e-05
0.00025539868
-8.2278849e-05
8.4434339e-05
0.00014909048
0.00032807443
-1.9253367e-05
-0.00011783413
0.00051984065
-0.00016468971
-0.00030645817
0.00046563515
-0.00024877411
-0.00015390761
-3.8635279e-05
-0.00017754183
4.5893394e-05
-0.00011342576
-0.00010058875
0.00016020952
0.00010727821
2.5288645e-05
0.00013003447
0.00024514722
6.1039492e-05
1.8062082e-05
0.00041128928
5.1831681e-05
-0.00012345367
0.00047968697
1.3022195e-05
-0.00019127464
0.0003256351
-9.8438282e-05
-0.00011987848
5.3581192e-05
-0.00011881285
6.070131e-06
-0.00021842826
-2.8103797e-05
-7.720929e-05
0.00011833896
8.7881487e-06
-6.3636494e-05
0.00015112224
9.5833769e-05
6.2121916e-05
0.00010382378
7.8203914e-06
0.00040569321
0.00015553923
-3.5601517e-06
0.00031513952
3.6641468e-05
3.8677153e-05
0.00011966768
-5.4891222e-05
1.7285603e-05
-4.910488e-05
7.4745578e-05
-1.9968961e-05
-0.0001178943
7.6018663e-05
3.5624667e-05
-6.291706e-05
5.7042089e-05
2.177026e-05
0.00041861939
4.3903669e-05
3.3637856e-05
0.00049627926
-3.0281746e-06
0.0001604876
0.00014848326
-0.00011622272
-2.3531156e-05
-6.0680672e-05
-0.00017828964
-0.0003077213
-0.00011026246
-0.00015313759
-9.7287575e-06
-0.00015195637
-4.9452186e-06
0.00021705215
4.8910215e-05
1.57542e-05
-6.430558e-05
-8.086618e-05
-0.00013486527
-0.000125859
-6.3538178e-05
-0.00014849504
4.1302688e-06
0.00023019876
-7.5683754e-05
-8.3399001e-06
0.00049539454
3.3202484e-06
1.6136094e-05
0.00038565633
3.5954011e-05
3.5540316e-05
-0.00011921533
9.7488052e-05
-3.4261456e-05
-0.00012286041
6.7540276e-05
-4.6795407e-05
-4.2935841e-06
7.4523089e-05
-4.1561483e-06
0.0001421389
-5.2930752e-05
-1.5564667e-05
0.00033001184
3.4556172e-05
-9.973444e-05
0.0004013535
0.00015057282
-6.0842828e-06
5.2084904e-05
0.00010231149
3.1582133e-05
-6.6102745e-05
0.00014753131
-8.5147935e-05
0.00012441035
-0.00031342719
0.00033119391
2.5778446e-05
-0.00036664326
1.8326454e-05
6.3668404e-05
-0.00013610168
-0.00026731375
0.0001266952
3.6605262e-05
8.6057304e-05
0.00017868623
0.00014927955
0.00015485734
-4.5483239e-06
0.00027139459
7.6238459e-05
-0.00012147984
0.00014803455
0.0001383736
-1.6754154e-05
-0.00016446965
0.00023381923
-3.0052677e-06
-0.00029042717
0.00012701588
5.4011408e-06
-6.1970336e-05
0.00018349018
4.0070533e-05
0.00016647928
0.00028659476
2.3654708e-06
0.00021260291
0.00015599647
-0.000105987
-2.0955658e-05
0.00022782511
-0.00013373771
-0.00015010351
5.9352577e-05
-6.6847248e-05
9.0872225e-06
-0.00029609711
-4.6713202e-05
0.00019883074
-0.0001526101
-4.3409566e-05
2.0394551e-05
0.00010953076
-7.0005626e-05
-0.0002222263
0.00020949151
-0.0001283362
-0.00012936245
0.00012091094
-9.5909867e-05
8.1579613e-05
0.00028473963
1.1802195e-05
0.00030483791
0.00015969175
5.5174317e-05
0.00011671464
0.00012681489
4.0587983e-06
-0.00022112207
0.00024503837
-2.0440214e-05
-0.00026597363
9.1608129e-05
-1.2980499e-05
-0.00012948279
6.3868326e-05
-0.00011873929
-1.8620412e-05
0.00016828921
-4.4523454e-06
0.00014409834
9.4295103e-05
0.00017530617
0.00036647593
-0.00026623824
0.00012631317
0.00031713221
1.045365e-05
6.4630949e-05
0.0003272214
2.4113137e-05
0.00016001447
0.00020643295
0.00012042533
0.00013738364
-0.00013420338
-4.8730248e-06
-0.00013837429
-1.730487e-05
-0.00010016097
-8.379376e-05
-0.00012833475
-0.00011359368
-0.00012492927
-1.0320449e-05
-7.2808583e-05
0.00012814689
-8.8749033e-05
0.00016784168
2.6729715e-05
0.00010710559
0.00020038009
0.00013480988
0.00024338598
0.00010470985
0.00037791136
4.9675751e-05
0.00033731227
4.259948e-05
-5.0966935e-05
2.4866106e-05
-0.00032869143
3.6802679e-05
-0.00032826568
2.8217287e-05
-0.00020094155
3.767141e-05
-0.00016320073
9.7011866e-05
-6.5421093e-06
0.0001477267
9.413607e-05
0.00012845552
7.4718558e-05
0.00017737605
0.00014262249
0.00011930411
0.00011651256
-2.078123e-05
7.876379e-05
-0.00011596191
0.00013213763
-8.2755345e-05
0.00013776148
-1.6032318e-05
-0.00011418678
-5.7850154e-06
-0.0001583394
0.00013628012
0.00020392019
-4.1966241e-05
5.3724059e-05
-0.00010398527
0.00011646103
-0.00023505988
1.8827523e-06
0.00019247922
-9.5985739e-05
-5.7070665e-05
0.00011337257
0.00010514354
-8.2126416e-05
-3.9282452e-06
0.00012035463
-9.747189e-05
-9.7431066e-05
0.00012995176
-0.00011003492
-0.00012357634
0.00010549786
-0.00010602083
2.3339693e-05
-0.00015675387
-9.0680452e-05
0.00015222941
-0.00015319877
-9.0604894e-05
0.00021023346
-1.1207358e-05
-0.00012236889
0.00019620623
0.00010410279
-9.3163466e-05
0.0001204545
0.00015004494
-2.4647032e-05
8.1806588e-05
0.00012649593
2.7940015e-06
3.3586857e-05
0.00013774446
4.0490318e-06
0.00012331341
-2.0304869e-05
0.00012176713
-7.2146368e-05
0.00014345727
-0.00011199233
0.00012909138
-1.6041541e-06
-0.00018720864
0.00015094658
-2.9830678e-05
-0.0002251289
0.00011412667
-9.9193521e-05
-0.000173449
-1.9565362e-05
-0.00012303497
-1.5369191e-05
-0.00019240271
-7.9966192e-05
0.00013630511
-0.0001608364
-8.5420464e-05
0.00010740932
9.9369184e-05
-0.00010720102
1.0808143e-05
0.00012778061
-0.00011336389
-0.00011074646
0.00012042794
-0.00010161133
-0.000191038
0.00010456168
-8.5296284e-05
-0.00011637852
-9.6994137e-05
-5.97545e-05
3.7960239e-05
-0.00023090703
-2.1245492e-06
4.5973589e-05
-0.00010582899
1.3652397e-05
-4.7943613e-05
-0.00013378682
0.00020162204
-0.00058063374
3.9075866e-05
0.0003608508
-0.00030005612
-5.1644119e-05
0.00034444573
0.00022580044
-8.3338126e-05
-1.7383724e-05
0.00060424466
-6.446787e-05
-0.00037257689
0.00064626125
-8.6163292e-05
-0.00022300056
8.484169e-05
-8.236226e-05
3.2293469e-05
-0.0004511568
-6.722728e-05
0.00021490326
-0.00043685284
-7.4943698e-05
0.00025100867
-0.0001085514
-0.00019000542
0.00018052806
0.00018669467
-0.00017256032
2.3599067e-05
0.00036962623
-0.00011355831
-1.1279638e-05
0.00020435739
2.4657213e-05
0.00012734767
6.5825707e-05
4.3412469e-05
0.00035519216
-7.1204839e-05
0.0003989216
3.1499402e-05
9.9964809e-05
-4.7171347e-05
0.00030898746
-1.6790991e-05
-0.00019686781
0.00039760696
-0.00011621728
-0.00026637415
0.00019096544
-0.00017202215
-0.0002132095
-0.00013466095
-0.00018684318
-1.267114e-05
-0.00050563328
-6.4849621e-05
0.00024501057
-0.0004541143
-6.4992564e-05
0.0003789532
7.9362161e-05
-8.8646967e-05
1.9960638e-05
0.00063825055
-9.0437876e-05
-0.00034665952
0.00060367884
-6.4799057e-05
-0.00036294116
0.00021572461
-8.1859094e-05
-0.00020343108
-0.00030468199
-5.0260486e-05
-1.7582321e-05
-0.00057201307
3.6444431e-05
-6.0737384e-05
-0.0001292996
0.00021108838
-0.00023961611
9.8923076e-05
7.0465979e-05
-0.00029282349
3.9343869e-06
-0.00010327664
-0.00010269248
8.0202756e-05
5.1137136e-06
0.00014253343
0.00013041588
4.9746091e-05
0.00059531017
9.4357581e-07
9.3919473e-05
0.00060917076
-6.1974114e-05
0.00016662451
-1.4388708e-05
0.00010127094
8.5299956e-05
-0.00033121991
3.7406335e-05
-0.00010623289
-0.00025210942
6.3831518e-05
-0.00020404659
-8.3061381e-05
0.00011622736
-0.00015365974
8.7024244e-05
4.6255414e-05
-0.00014217221
0.00026899474
-2.7078772e-05
-0.00017942185
0.00010249681
-3.9179407e-05
-0.00022406061
-4.2673128e-05
7.7685207e-07
0.00012540948
0.00021832739
0.00019712527
0.00016635376
1.7073167e-05
0.00014443951
0.00020022209
-1.781542e-05
0.00017833363
0.00030363254
-1.5603467e-05
0.00023006958
9.1356089e-05
5.1193651e-05
0.00012658749
-8.9676028e-05
9.4451171e-05
-8.0363402e-05
-0.00025630974
5.5115391e-05
-0.00016672857
-0.00033546319
3.5254338e-05
-9.3634982e-05
-1.8739415e-05
9.9531076e-05
-4.611565e-05
0.00060190626
-6.410579e-05
-2.3958865e-06
0.00059483647
-3.2120455e-07
0.00010163854
0.00013365546
0.00012860756
-7.5185326e-05
-0.00010496922
7.9422601e-05
-0.00020537442
-0.00029787529
3.582653e-06
-0.0002400343
9.8332861e-05
-7.7142565e-05
-0.00013258497
-4.1101329e-06
-9.6125045e-05
-0.00028101658
7.0843979e-05
-0.00019242605
9.5114451e-06
0.00011079228
-0.00016136691
0.00015151316
0.00013864735
5.2299257e-05
0.00035737194
1.9723741e-05
0.00026923203
0.00033138497
-6.0626821e-05
0.00017743779
9.2480724e-05
-3.1829348e-05
0.0001515369
-0.00030990424
1.5799489e-06
9.7841542e-06
-0.00013055545
2.5599926e-05
-0.00027795952
0.00024871545
-3.9626166e-06
-0.00033555687
0.00015600527
-9.0182067e-06
-0.00021036485
7.3638161e-05
-3.582243e-05
-0.0002734119
0.00014526294
-0.00011345679
-0.00033706439
-4.5867889e-05
-2.6978401e-05
-0.00023138971
0.00030444987
-0.00017771258
0.00020129294
5.0224466e-05
0.00018408717
0.00017531048
-8.6218824e-05
0.00033365116
7.3847992e-05
-1.5689316e-05
0.0002958379
0.00013003903
1.0932514e-05
3.4223336e-05
0.00020958378
1.7529052e-05
-0.00011104418
-0.00013334628
2.6362848e-05
-0.00016121922
-0.00030841611
2.6877344e-06
-0.00025918146
8.6489405e-05
-2.0247077e-05
-4.5535656e-05
0.00032975674
-6.0235563e-05
0.00016909073
0.00035641659
1.9341163e-05
0.00019003084
0.00015254741
0.00013547413
9.4268987e-05
9.8516489e-06
0.00010725418
7.7542156e-05
-0.00028806865
7.1551168e-05
-0.00013103766
-7.3413377e-06
-0.00010292294
0.00017677092
-0.00031214241
6.5586531e-05
-0.00031409163
6.5876321e-06
-0.00022459497
4.4711631e-05
1.5823799e-05
3.3159407e-05
0.00024499113
-1.1376047e-05
0.00028494859
4.2202817e-05
-2.667634e-05
0.00012986759
-0.00020436626
0.00021497615
-4.8709173e-05
0.00020016397
4.6524154e-05
0.00019558183
5.7104648e-05
0.00016776752
0.00014144562
0.00011059772
0.00013817721
-6.8346393e-05
-0.00020925629
-0.00013081454
-1.8895815e-05
0.00010106316
-1.0299124e-05
0.00016226316
6.1887732e-05
0.00020557887
0.00020375704
0.00019616999
3.0195382e-05
0.00021759142
-0.0002809578
0.00012204119
-0.00024511469
2.9865058e-05
-1.681653e-05
-1.4503321e-05
0.00022588095
3.0963768e-05
0.00031848259
4.391348e-05
0.00031628285
6.266389e-06
0.0001014757
6.3018641e-05
0.00017435824
0.00015495845
-0.00025999234
-4.2797115e-07
0.00011141931
4.4372368e-05
1.2314889e-06
0.00018947276
-0.00013845257
1.2288925e-06
0.00018324836
-7.7608533e-05
7.7983149e-07
2.5267261e-06
7.972749e-05
1.6079876e-06
-0.00018800079
7.7986638e-05
6.99295e-07
-0.00021592126
-7.9310031e-05
3.3016605e-07
-7.0911797e-05
-0.00023793838
3.8438526e-07
6.7231533e-05
-0.00023011653
4.3666278e-07
0.00019374837
-0.00025218549
2.1376565e-06
0.00027814945
-0.00017907631
2.4340956e-06
0.00013744428
0.00011717539
2.823327e-06
0.00013985042
1.7690339e-06
-0.00013800064
0.0001406619
-2.7420766e-06
-0.00027218227
0.00011153251
-3.3474703e-06
-0.00019356009
-0.00017357684
-3.1764042e-06
-7.9510904e-05
-0.00023481206
-3.0529841e-06
6.6303408e-05
-0.0002270308
2.9805539e-07
0.00021602518
-0.00023706079
2.0583863e-07
0.00019210987
-8.4292331e-05
4.3544268e-08
3.4363775e-06
7.4052358e-05
-4.5868078e-07
-0.00017857521
7.9749195e-05
-1.1495137e-06
-0.00018681865
-7.73237e-05
-3.8039784e-07
-0.00010993513
-0.00013764523
-6.901991e-07
-0.00015454005
4.4213956e-05
-9.6052002e-07
-0.00026105152
-3.2171248e-07
0.00015811562
-0.00055113795
-7.5682092e-07
0.00018007834
6.1127995e-05
3.5751561e-07
0.00035548048
-0.00036526301
-2.3581548e-07
0.0004634923
-0.00026731389
-1.6445897e-06
2.7916512e-05
0.00045256112
-1.7257146e-06
-0.00040505408
0.00042499131
-1.9738022e-07
-0.00032173824
-0.00024483255
-1.5558553e-07
-0.00012061246
-0.00050570237
-5.8906913e-07
4.2483066e-05
-0.00046715232
-1.0034331e-06
0.0001037463
-0.00050383462
3.8046911e-07
0.00021860105
-0.00046623318
-2.581978e-07
0.00021926905
3.5411355e-06
-5.9205134e-07
0.00038072343
3.0532467e-06
-0.00022327872
0.00035128153
-4.1319092e-06
-0.00021692386
-1.060235e-05
-4.3728507e-07
-0.00010244474
-0.00046009237
1.4251548e-08
-4.2469433e-05
-0.0004800897
-1.5408489e-06
0.00012893613
-0.00046429447
1.0084915e-06
0.00032997281
-0.00050469854
1.6084988e-06
0.00041380561
-0.00025752891
7.5680896e-07
-2.1794533e-05
0.00041858774
6.2688426e-07
-0.00046430217
0.00045560321
1.8545684e-06
-0.00035776134
-0.00026787172
2.1481058e-06
-0.00018204344
-0.00036431633
6.9271872e-07
-0.00016071028
5.8836256e-05
4.8897942e-07
-0.0005515066
4.4521771e-07
8.0672304e-06
-0.00046071457
4.3246589e-07
0.00023906608
-0.00016377663
-2.159836e-06
4.4888635e-05
-9.0218868e-05
-6.6394398e-07
1.5094854e-05
-0.00010703004
-7.4184543e-08
0.00010397634
0.00036564929
-1.0260884e-06
0.00012862758
0.00033897457
-6.0861384e-07
6.0504751e-05
-7.6196122e-05
7.5734973e-07
-2.570143e-06
-0.00040484381
-3.7732397e-07
8.0292662e-06
-0.00041315149
-7.6871512e-07
-0.00020695811
-0.00017265936
3.9479341e-08
-0.0003727208
-0.00025349619
-7.1888343e-07
-0.00016579958
-0.00023047374
1.4894277e-08
0.00017352463
2.2198076e-06
0.00016410078
0.00016952932
-1.6399e-07
0.00036654686
-0.00022841665
-2.3524943e-07
0.00020854031
-0.00025150293
6.1075615e-07
4.3598164e-06
-0.00018678258
5.324538e-06
2.0529254e-05
-0.00042483439
-5.1413188e-07
-4.5783534e-05
-0.00040472584
1.5944186e-06
-0.0001214359
-8.1641981e-05
-7.0348608e-07
-0.00010056898
0.00033307601
5.390315e-07
-1.4991414e-05
0.00036893746
7.6699079e-07
-4.4163333e-05
-0.00010739588
-2.6963455e-06
-0.00023802478
-9.0141333e-05
-8.9092638e-07
-5.9438158e-06
-0.00017000018
3.3815143e-07
-0.0004590045
-1.1304568e-07
3.4536507e-07
-0.0004663834
1.2133286e-06
2.6278908e-05
-0.00011916678
3.0059212e-07
-0.00011559379
0.00015982143
2.6246813e-06
-0.00015797909
7.2925847e-05
1.0767576e-06
8.7293415e-05
0.00014071972
-6.1918905e-07
0.00020585775
0.00016036507
-5.8165679e-07
5.9402417e-05
3.9080929e-05
-6.5106286e-07
3.7092016e-05
-0.00038087075
-8.270522e-08
6.8441253e-05
-0.00041626092
-2.6398711e-06
-3.4982539e-05
-6.7457299e-05
-5.7408823e-06
-0.00014548948
-0.00014857454
-3.432916e-06
-0.00018538673
-0.00022476227
-1.6366454e-06
-0.00012658207
1.2631823e-06
0.00017290531
-9.0175591e-05
5.8077199e-07
0.00014251188
-0.00021341181
-3.0073729e-07
5.1071372e-05
-0.00015110514
1.9752184e-06
-3.9662842e-05
-9.5558822e-05
1.7039498e-05
-1.5673495e-05
-0.00042469872
2.2378202e-06
-4.5703867e-05
-0.00037251249
5.0476204e-07
-0.00019397159
4.3120544e-05
3.2581168e-06
-8.4408359e-05
0.00016297418
3.0305007e-07
0.0001598164
0.00014398069
7.318771e-08
0.0001155984
7.3676273e-05
-1.3800053e-06
-2.3978956e-05
0.0001576254
-9.3516485e-07
1.9200802e-06
-0.00012406336
-2.846513e-07
-0.00046397418
-4.5155312e-07
-0.00028955871
-5.3761162e-08
-0.00034584777
2.7088001e-06
-0.00018057311
1.1344104e-06
-6.3664833e-05
7.2919327e-07
0.00010878574
1.4285491e-06
0.000257036
7.3876732e-07
0.00033779103
5.2871807e-07
8.6422266e-05
3.6560161e-07
-0.00011411694
-7.4555947e-07
1.6637371e-05
1.9523621e-06
6.7558147e-05
-3.9134822e-06
1.3676727e-05
-3.1133223e-06
-2.3076274e-06
1.5067554e-05
-4.1799925e-06
-3.5824124e-05
-2.5697616e-07
1.1776683e-05
6.8729172e-06
0.0001212651
-8.8772564e-06
-8.3754331e-05
-2.0878715e-06
-0.000332764
-1.4616281e-06
-0.00025900126
-7.7714354e-07
-0.00010991234
-6.1805285e-07
6.6196965e-05
-1.1648399e-06
0.00018439523
-6.0849517e-07
0.00034880318
-5.1613673e-07
0.00028869101
-9.3253011e-07
-9.2492403e-07
0.00015544782
-0.00026132313
0.00010404747
0.00011096736
4.4610276e-05
1.3053383e-06
0.00018792483
-0.00013634871
5.856218e-05
0.0001830011
-7.884287e-05
8.3622993e-05
3.810748e-06
7.9635115e-05
9.9293558e-05
-0.00018620946
7.7465298e-05
0.00011144994
-0.00021472652
-7.9413407e-05
0.00010736725
-6.9291982e-05
-0.00023819166
9.1305073e-05
6.8921479e-05
-0.00022872531
9.0079276e-05
0.00019401193
-0.00024938391
0.00012539972