/*--------------------------------*- C++ -*----------------------------------*\
| =========                 |                                                 |
| \\      /  F ield         | OpenFOAM: The Open Source CFD Toolbox           |
|  \\    /   O peration     | Version:  v2012                                 |
|   \\  /    A nd           | Website:  www.openfoam.com                      |
|    \\/     M anipulation  |                                                 |
\*---------------------------------------------------------------------------*/
FoamFile
{
    version     2.0;
    format      ascii;
    class       volScalarField;
    location    "90/bottomWater";
    object      T;
}
// * * * * * * * * * * * * * * * * * * * * * * * * * * * * * * * * * * * * * //

dimensions      [0 0 0 1 0 0 0];


internalField   nonuniform List<scalar> 
1460
(
1029.3882
1027.2684
1025.6072
1021.9881
1020.2493
1019.8086
1019.6807
1020.9228
1023.1237
1025.1732
1018.6264
1012.0309
1009.4172
1007.2019
1005.5889
1005.5558
1007.4018
1009.8123
1012.5046
1019.088
1025.5672
1023.1206
1020.5344
1019.2877
1019.6383
1020.3069
1022.1102
1025.6885
1027.4187
1029.6049
1028.9728
1028.1519
1027.6874
1021.2302
1018.7708
1017.4816
1017.3193
1018.8602
1019.799
1021.6884
1013.5839
1009.5227
1007.7502
1006.0583
1005.1188
1004.9443
1005.5289
1007.9381
1009.8221
1012.7334
1021.2315
1019.58
1018.6634
1016.9417
1017.3429
1018.7786
1021.3316
1027.7391
1028.1801
1029.0504
1029.4806
1029.7684
1029.1971
1021.1018
1018.1994
1016.6611
1016.7185
1019.9408
1020.4702
1019.4611
1013.5787
1010.6044
1012.0335
1008.6628
1004.9476
1004.7787
1007.6153
1011.1462
1012.0137
1013.1887
1019.6428
1020.7752
1019.8266
1016.2998
1016.5645
1018.2332
1021.2355
1029.2401
1029.7844
1029.5369
1028.277
1028.5542
1027.6287
1019.1645
1016.1183
1014.7643
1015.2994
1019.3356
1019.5659
1017.8007
1014.4446
1014.3041
1014.9218
1008.3134
1004.802
1004.2224
1006.8485
1013.3728
1016.5342
1014.1313
1018.5888
1020.1396
1018.7221
1014.8476
1014.6148
1016.1046
1019.2158
1027.8475
1028.5148
1028.2416
1011.8987
1020.9624
1020.1172
1018.1119
1014.8226
1013.5423
1013.909
1014.2819
1014.9892
1013.5481
1010.4747
1010.2695
1010.6444
1008.0853
1004.8419
1004.3991
1007.5246
1010.2509
1012.1555
1009.9879
1012.6048
1014.753
1014.1649
1013.6821
1013.1845
1014.7629
1018.122
1020.2136
1020.9124
1011.874
1031.9086
1029.1848
1026.5967
1024.8083
1024.1892
1024.5103
1024.1884
1024.9212
1026.1438
1024.9668
1015.0291
1012.7767
1010.66
1005.5101
1007.2145
1007.2359
1005.3104
1011.3968
1013.5969
1015.4957
1026.164
1026.277
1024.8499
1024.0475
1024.4128
1024.2487
1024.9359
1026.7448
1029.3946
1032.1006
1029.6574
1028.2167
1025.8877
1022.8947
1022.2547
1024.7332
1024.3905
1023.5355
1023.8488
1021.9344
1014.6359
1013.6099
1010.9149
1005.1415
1005.6801
1005.5469
1004.5344
1011.1161
1014.3994
1015.3828
1022.6049
1023.8976
1023.5274
1024.3072
1024.5633
1022.2186
1022.9549
1025.9525
1028.3108
1029.7099
1030.1901
1028.8082
1027.9143
1025.0128
1023.9929
1025.5245
1025.7139
1024.0033
1024.206
1022.228
1017.0247
1015.7629
1011.5166
1004.9733
1003.6949
1003.5513
1004.2262
1011.4235
1016.0559
1017.3722
1022.7275
1024.2586
1024.0623
1025.7916
1025.3985
1024.0538
1025.0121
1027.8321
1028.8632
1030.2239
1030.4767
1029.6836
1029.6588
1024.2343
1021.672
1025.1942
1025.8253
1024.9344
1024.3999
1022.4555
1019.2814
1018.0018
1014.4629
1008.5175
1003.2528
1001.9691
1003.267
1014.1044
1017.5624
1019.3868
1022.7815
1024.4526
1025.0377
1026.0024
1024.5946
1021.774
1024.2771
1029.5908
1029.7169
1030.495
1026.4809
1025.8846
1022.8882
1019.8329
1017.9184
1016.5766
1016.9386
1018.1345
1019.8205
1020.1355
1016.7076
1013.4391
1010.1199
1006.7449
1003.4382
1002.1391
1005.5019
1009.1784
1012.6223
1016.4892
1020.3099
1019.8216
1018.301
1016.5521
1016.1295
1017.7932
1019.7542
1022.7853
1025.8698
1026.4049
1030.7836
1032.7281
1031.8079
1029.8566
1029.1355
1027.1992
1026.5482
1024.7779
1024.2766
1023.8941
1018.1563
1013.0289
1009.0583
1003.5875
1008.0365
1009.2871
1005.9767
1012.03
1015.5463
1021.3352
1023.7826
1024.2752
1024.8648
1026.4639
1027.1245
1029.3191
1030.0762
1032.0228
1032.771
1030.7346
1027.2762
1029.868
1030.6627
1027.5401
1025.7842
1026.3922
1025.9851
1025.0725
1023.8182
1021.3361
1013.5419
1009.0743
1005.0917
1000.3504
1005.342
1006.5199
1003.218
1006.8439
1010.9371
1015.8993
1021.2761
1023.6498
1025.2384
1025.887
1026.2979
1025.7973
1027.7869
1030.6904
1029.8047
1027.2346
1030.0925
1029.9354
1031.5984
1028.8174
1026.648
1027.1362
1027.3243
1026.6481
1024.9888
1021.9655
1014.0159
1010.3561
1006.8976
999.91322
1002.4674
1006.3064
1003.0229
1008.5247
1011.3599
1016.0574
1021.7933
1024.7912
1026.7387
1027.065
1026.9639
1026.6659
1028.99
1031.5832
1029.8994
1030.1933
1028.4022
1026.282
1024.537
1029.1042
1027.8325
1027.487
1027.8961
1026.1439
1023.2417
1021.7304
1014.4806
1010.7299
1003.8066
996.24235
998.72802
998.27863
995.26389
1005.6689
1011.8569
1016.2036
1021.5788
1022.9953
1026.4972
1027.7265
1027.2781
1027.7412
1029.2157
1024.4854
1026.2254
1028.3029
1026.0731
1022.9053
1019.0599
1021.8069
1022.906
1019.8784
1019.9291
1021.1691
1018.0438
1018.3728
1012.6008
1009.8115
1005.6789
1002.7146
1000.2008
999.11573
1001.4587
1005.9234
1009.8864
1013.2583
1017.9816
1017.9482
1021.3841
1018.8897
1019.2632
1022.9716
1021.9161
1019.0212
1022.7637
1025.96
1027.1033
1028.9463
1029.7089
1029.8543
1029.2211
1024.4022
1023.2573
1022.4517
1021.2457
1018.5334
1016.6943
1016.844
1014.662
1005.9251
1003.4623
1004.0775
1006.5485
1015.5367
1017.1585
1016.6423
1018.4524
1020.9258
1022.1978
1023.0337
1024.2768
1029.1929
1029.8417
1029.6707
1028.8874
1027.0508
1024.7396
1027.7479
1029.6087
1029.7779
1029.3119
1024.4014
1023.5938
1022.8243
1020.947
1016.292
1012.2199
1012.6401
1010.1129
1000.7659
1001.5748
1002.5845
1001.821
1010.0582
1012.5282
1012.0862
1015.7825
1020.4029
1022.3442
1023.1341
1024.0435
1029.2863
1029.7552
1029.5381
1027.662
1024.7104
1026.4256
1027.1534
1030.3735
1030.0884
1029.5303
1025.0634
1025.88
1022.9571
1020.7187
1014.8192
1012.1403
1009.8521
1003.3022
996.28229
999.84821
1001.0687
999.07309
1005.8478
1010.6821
1012.3274
1014.6454
1020.1621
1022.4302
1025.5872
1024.7382
1029.5063
1030.1287
1030.2939
1027.07
1026.5022
1024.288
1024.8804
1028.7429
1030.1585
1029.9137
1025.7219
1025.8752
1020.0727
1019.3173
1010.6454
1005.8914
1002.2084
990.14699
984.80049
984.77961
989.66742
987.50066
994.50839
1004.9596
1007.9177
1011.4651
1018.2512
1019.4486
1025.4573
1025.393
1029.8814
1030.1739
1028.7146
1024.716
1024.2173
1021.7817
1021.3576
1023.3307
1025.9596
1027.3054
1022.8596
1019.6332
1016.6249
1012.3869
1011.0583
1007.0968
1004.602
996.37388
985.56736
976.09253
982.94675
988.78762
995.78641
1004.3175
1008.0422
1011.2903
1012.3917
1016.2739
1019.2228
1022.5434
1027.2404
1025.9177
1023.2825
1021.2782
1021.6818
1022.5373
1024.6176
1025.8123
1026.766
1027.0204
1022.8468
1021.2563
1019.3538
1017.4989
1012.4377
1008.7386
1010.9519
998.97658
998.98011
1010.8301
1008.4634
1012.0581
1016.8322
1018.8333
1020.8854
1022.6328
1027.0319
1026.7608
1025.8025
1024.6269
1022.5089
1021.3304
1023.6465
1025.8077
1027.6158
1027.6141
1023.407
1022.458
1018.8944
1015.3815
1009.3908
1001.7841
1005.7863
998.56163
997.71433
1005.0099
1001.1056
1008.4558
1014.425
1018.1204
1021.9676
1022.949
1027.5486
1027.5435
1025.7145
1023.5124
1021.2436
1020.8849
1023.5517
1026.4254
1029.6871
1027.793
1024.7485
1026.0994
1019.3348
1014.2466
1007.9125
999.18307
995.02354
993.73873
992.84577
993.88784
998.49023
1006.839
1013.229
1018.5563
1025.8462
1024.3779
1027.7132
1029.6618
1026.3559
1023.4408
1020.7994
1019.214
1022.5005
1028.2858
1029.3042
1027.9676
1025.8311
1026.5679
1017.7599
1011.964
1010.6716
1001.3591
994.56513
982.97289
980.8507
993.07088
1000.7889
1009.3783
1011.1793
1017.2702
1026.3511
1025.5407
1027.881
1029.2256
1028.2493
1022.3611
1019.0974
1018.6997
1019.8615
1022.1365
1022.1808
1022.6112
1021.3209
1019.0413
1016.2028
1010.1146
1008.459
1004.9298
1002.4604
981.93039
976.35548
1000.9573
1004.7261
1007.9678
1009.7336
1015.9052
1018.8803
1021.1656
1022.5432
1022.0763
1022.0167
1019.7446
1018.5845
1022.5248
1024.6016
1025.7954
1026.7649
1027.0303
1022.9058
1021.2373
1019.3189
1017.4896
1012.4448
1008.782
1011.037
999.21249
998.68658
1010.6553
1008.3248
1011.9141
1016.8674
1018.8658
1020.8951
1022.5818
1027.0255
1026.7661
1025.8221
1024.6479
1022.5358
1021.319
1023.581
1025.757
1027.6083
1027.611
1023.3646
1022.3874
1018.7947
1015.2984
1009.2724
1001.705
1005.7324
998.3546
997.77454
1005.1137
1001.1751
1008.4822
1014.4908
1018.2323
1022.0244
1022.9809
1027.5453
1027.537
1025.7516
1023.5318
1021.2789
1020.8863
1023.4738
1026.3807
1029.6798
1027.7935
1024.7098
1026.082
1019.2162
1014.1352
1007.7494
999.06936
994.7672
993.54628
992.98286
994.16242
998.6058
1006.8948
1013.2847
1018.6907
1025.8723
1024.4101
1027.712
1029.693
1026.4134
1023.4914
1020.8355
1019.1998
1022.3863
1028.3127
1029.2986
1027.9792
1025.795
1026.5461
1017.6732
1011.8719
1010.3644
1001.2461
994.26588
982.47576
981.78443
993.55493
1000.8687
1009.6584
1011.1246
1017.3295
1026.3751
1025.5787
1027.8757
1029.2321
1028.2709
1022.4121
1019.1276
1018.7038
1019.8328
1022.1322
1022.141
1022.5069
1021.2711
1018.9803
1016.1495
1010.0571
1008.402
1005.026
1002.3738
980.13017
977.58512
1001.27
1004.4782
1007.8868
1009.5899
1015.9347
1018.9005
1021.2113
1022.6193
1022.1068
1022.0334
1019.7659
1018.6107
1027.0414
1028.875
1029.6621
1029.8284
1029.2378
1024.4722
1023.2596
1022.4379
1021.2761
1018.5693
1016.6927
1016.9249
1014.7647
1006.2772
1003.7869
1003.9028
1006.2562
1015.5052
1017.0637
1016.5967
1018.3421
1020.9328
1022.179
1023.0178
1024.2186
1029.174
1029.8589
1029.6942
1028.9344
1027.09
1024.7586
1027.666
1029.5523
1029.7622
1029.3536
1024.4035
1023.5664
1022.7701
1020.9272
1016.29
1012.2795
1012.6797
1010.3151
1001.1698
1001.9601
1002.2907
1001.3942
1010.3822
1012.487
1012.0125
1015.7918
1020.4956
1022.3772
1023.1797
1024.0615
1029.2251
1029.7434
1029.5472
1027.7004
1024.7241
1026.6098
1027.0611
1030.2984
1030.1165
1029.5618
1025.0806
1025.8644
1022.8898
1020.6938
1014.8577
1012.265
1010.1557
1004.1198
996.97392
1000.3164
1000.7416
997.88497
1004.8924
1010.3571
1012.1325
1014.5603
1020.3009
1022.4924
1025.6174
1024.7405
1029.4538
1030.0908
1030.3356
1027.1102
1026.5098
1024.3062
1024.6655
1028.7179
1030.1921
1029.9421
1025.7272
1025.8681
1020.005
1019.2499
1010.6557
1006.4039
1002.863
991.4165
986.13263
986.66113
988.44766
986.77085
992.39891
1003.8857
1007.1506
1010.8921
1018.4256
1019.5583
1025.5446
1025.4152
1029.8342
1030.1399
1028.7276
1024.772
1024.2551
1021.8011
1021.343
1023.3006
1025.969
1027.2893
1022.8483
1019.6235
1016.6205
1012.401
1011.0772
1007.4022
1004.6652
995.93836
985.88943
976.82442
980.23311
987.30052
994.98505
1004.1495
1007.5583
1010.9341
1012.1784
1016.3251
1019.3166
1022.5834
1027.2377
1025.9079
1023.2779
1021.2712
1021.6923
1030.716
1032.7038
1031.8791
1029.9308
1029.2063
1027.234
1026.5764
1024.8495
1024.3345
1023.8776
1019.0861
1013.7211
1009.9192
1004.3762
1008.5554
1009.0549
1005.2529
1010.9441
1014.5076
1020.3476
1023.7289
1024.1661
1024.7382
1026.4585
1027.0931
1029.2225
1029.984
1031.9371
1032.7769
1030.7726
1027.2596
1029.802
1030.644
1027.6139
1025.8135
1026.3949
1026.0219
1025.1774
1023.857
1021.4067
1014.2264
1009.6406
1005.6249
1001.0871
1005.7671
1006.2295
1002.1616
1006.2298
1010.2729
1015.1058
1021.2206
1023.6207
1025.1445
1025.8738
1026.2768
1025.7525
1027.6603
1030.6596
1029.8268
1027.2512
1030.188
1029.9047
1031.564
1028.8863
1026.6828
1027.1444
1027.394
1026.6757
1025.0306
1021.9987
1014.5825
1010.6661
1007.438
1000.664
1003.5033
1005.1947
1001.8506
1007.8815
1010.9457
1015.3468
1021.7249
1024.7879
1026.6226
1027.1122
1026.9656
1026.6145
1028.8957
1031.5724
1029.9058
1030.1663
1028.2952
1026.2118
1024.4801
1029.1643
1027.824
1027.5018
1027.8953
1026.204
1023.2222
1021.7239
1014.9362
1011.0041
1004.1652
996.36645
998.87064
998.32449
995.77504
1004.6916
1011.3331
1015.5595
1021.4698
1022.9144
1026.3428
1027.7167
1027.287
1027.7307
1029.1569
1024.5248
1026.2457
1028.3158
1026.0187
1022.9017
1019.1279
1021.8057
1022.8844
1019.8406
1020.0014
1021.2847
1018.0709
1018.3676
1012.8027
1009.8826
1005.7628
1002.6312
1000.1743
999.57311
1001.8982
1005.5779
1009.6777
1012.8816
1017.925
1017.8448
1021.2843
1019.1559
1019.3122
1022.9113
1021.9105
1019.02
1022.7712
1025.9757
1031.95
1029.2411
1026.6375
1024.8512
1024.2214
1024.5052
1024.2128
1024.9953
1026.2631
1025.3985
1015.2768
1013.1631
1010.9717
1005.65
1007.3806
1007.3188
1005.5509
1011.2511
1013.4695
1015.419
1025.8584
1026.2556
1024.8854
1024.0447
1024.3882
1024.1846
1024.8568
1026.6733
1029.3125
1032.0332
1029.6669
1028.2383
1025.9041
1022.9173
1022.2639
1024.6849
1024.4457
1023.6063
1023.9358
1022.1805
1014.919
1013.8717
1010.904
1005.098
1005.7638
1005.6006
1004.7823
1010.9157
1014.1365
1015.1665
1022.3661
1023.8838
1023.5175
1024.2907
1024.5445
1022.1841
1022.8865
1025.9041
1028.2597
1029.6869
1030.1987
1028.8133
1027.8929
1025.0565
1024.0034
1025.4726
1025.7544
1024.0416
1024.2896
1022.4184
1017.222
1015.8524
1011.3254
1004.9062
1003.7985
1003.6856
1004.51
1011.1605
1015.8749
1017.2625
1022.5367
1024.2396
1023.9493
1025.6881
1025.3519
1024.0068
1024.9904
1027.8673
1028.8248
1030.2053
1030.4938
1029.6915
1029.626
1024.3096
1021.6794
1024.9207
1025.9219
1025.0191
1024.4756
1022.6052
1019.4268
1017.923
1014.2279
1006.7685
1003.0334
1002.4184
1004.7693
1013.9484
1017.5636
1019.3929
1022.6537
1024.4211
1024.9817
1025.9681
1024.4773
1021.7156
1024.2525
1029.6205
1029.6919
1030.4856
1026.4715
1025.8966
1022.9551
1019.879
1017.932
1016.6034
1017.048
1018.2524
1019.8672
1020.2584
1016.7692
1013.3708
1010.0292
1006.5874
1003.2326
1002.576
1005.8867
1009.375
1012.8047
1016.5199
1020.2147
1019.7652
1018.2254
1016.6488
1016.1829
1017.7882
1019.7375
1022.766
1025.8552
1026.4319
1029.4448
1027.3012
1025.6222
1022.0203
1020.2743
1019.7927
1019.6301
1020.9335
1023.2413
1025.3578
1019.0425
1012.3788
1009.7449
1007.5205
1005.7474
1005.6096
1007.4555
1009.7933
1012.4766
1019.1401
1025.4875
1023.161
1020.6307
1019.2948
1019.5763
1020.221
1022.0123
1025.6286
1027.3484
1029.5237
1028.998
1028.1602
1027.7035
1021.2589
1018.7887
1017.4867
1017.2769
1018.8429
1019.812
1021.7135
1013.4923
1009.7016
1007.8286
1005.8461
1005.26
1005.0328
1005.5998
1007.8389
1009.7466
1012.8676
1021.486
1019.6057
1018.6462
1016.9539
1017.2822
1018.7028
1021.2299
1027.6938
1028.1502
1029.0085
1029.5055
1029.7886
1029.2242
1021.1458
1018.2302
1016.6849
1016.6741
1019.9824
1020.6703
1019.6368
1013.5928
1010.9889
1011.5968
1008.492
1005.1405
1004.9078
1007.9544
1011.2035
1011.555
1013.2785
1019.7447
1020.7875
1019.8842
1016.335
1016.5072
1018.1509
1021.1211
1029.2044
1029.7674
1029.504
1028.3302
1028.5927
1027.7109
1019.2
1016.1567
1014.8072
1015.2464
1019.2982
1019.8656
1018.1346
1014.4995
1015.1907
1014.7123
1007.9612
1004.8575
1004.4767
1007.3041
1013.9319
1016.1526
1014.2568
1018.4993
1020.0854
1018.9815
1014.8742
1014.5914
1016.0308
1019.1332
1027.7191
1028.5414
1028.2899
1011.9861
1020.9221
1020.1773
1018.1518
1014.8657
1013.5611
1013.9659
1014.3231
1015.0067
1013.3005
1010.4814
1011.1982
1010.8505
1008.1885
1004.9964
1004.6647
1007.7931
1010.483
1011.8726
1010.1491
1012.7744
1014.8077
1014.1525
1013.7034
1013.2126
1014.699
1018.049
1020.099
1020.8807
1011.8805
)
;

boundaryField
{
    minX
    {
        type            zeroGradient;
    }
    maxX
    {
        type            zeroGradient;
    }
    minY
    {
        type            fixedValue;
        value           uniform 1073;
    }
    minZ
    {
        type            zeroGradient;
    }
    maxZ
    {
        type            zeroGradient;
    }
    bottomWater_to_rightSolid
    {
        type            compressible::turbulentTemperatureCoupledBaffleMixed;
        refValue        nonuniform List<scalar> 
130
(
555.56601
558.11809
560.662
563.07806
565.25191
567.13046
568.71773
570.03228
571.10172
571.93908
572.54352
572.91667
573.05873
552.99321
556.18186
559.29271
562.14663
564.63367
566.73776
568.48038
569.90217
571.04025
571.91611
572.5553
572.97387
573.17269
547.69266
552.34008
556.62528
560.35332
563.46305
566.01088
568.04593
569.66545
570.92938
571.86058
572.51597
572.95747
573.1822
539.51719
546.97501
553.18259
558.15815
562.07747
565.15475
567.55037
569.40191
570.80423
571.80873
572.4945
572.92643
573.14075
529.63331
541.77749
550.29906
556.49
561.08987
564.57333
567.21119
569.20143
570.6773
571.73276
572.45079
572.88911
573.09819
529.63659
541.77848
550.29817
556.48919
561.08917
564.5733
567.21138
569.20172
570.67763
571.73295
572.45092
572.88922
573.09832
539.50869
546.97049
553.17851
558.15526
562.07578
565.15445
567.55074
569.40221
570.80433
571.80871
572.49442
572.92632
573.14068
547.68939
552.33713
556.62231
560.35165
563.46186
566.01031
568.04659
569.66567
570.92913
571.86031
572.51565
572.95719
573.18199
552.99512
556.18318
559.29329
562.14662
564.63348
566.73759
568.48068
569.90217
571.03977
571.91536
572.55448
572.97327
573.17238
555.56941
558.12007
560.66424
563.0799
565.25295
567.13093
568.71797
570.0321
571.10083
571.93784
572.54217
572.91577
573.05822
)
;
        refGradient     uniform 0;
        valueFraction   uniform 0.99248593;
        value           nonuniform List<scalar> 
130
(
558.98254
561.52983
564.03836
566.45599
568.62962
570.4896
572.06129
573.36222
574.43549
575.29179
575.90742
576.28303
576.356
556.421
559.61155
562.72812
565.58934
568.054
570.13082
571.84726
573.25521
574.39722
575.28122
575.93837
576.37702
576.57835
551.13592
555.77818
560.05649
563.79206
566.87817
569.43261
571.43358
573.04381
574.32611
575.24237
575.87107
576.33741
576.58447
542.9458
550.41162
556.60051
561.56311
565.46124
568.54444
570.94421
572.80686
574.23396
575.22096
575.8818
576.29543
576.51117
532.99018
545.22799
553.71375
559.88255
564.46105
567.96468
570.6051
572.59757
574.07268
575.11675
575.82887
576.24685
576.44565
533.00272
545.2313
553.71102
559.88113
564.45928
567.96487
570.60544
572.5982
574.07358
575.11716
575.82913
576.24713
576.44597
542.93138
550.40588
556.59284
561.55757
565.45795
568.54451
570.94527
572.80747
574.23404
575.22087
575.88168
576.29527
576.51118
551.13009
555.77368
560.05072
563.78998
566.87622
569.43129
571.43622
573.04439
574.32541
575.24206
575.87075
576.33719
576.58438
556.42436
559.61423
562.72894
565.58861
568.05339
570.13008
571.84828
573.25561
574.39672
575.28035
575.9374
576.37631
576.57824
558.98767
561.52973
564.04179
566.45908
568.63106
570.48997
572.06169
573.36225
574.43413
575.29002
575.90522
576.28189
576.35553
)
;
        Tnbr            T;
        thicknessLayers List<scalar> 0();
        kappaLayers     List<scalar> 0();
        kappaMethod     fluidThermo;
        kappa           none;
        alphaAni        none;
        alpha           none;
        field           T;
    }
    bottomWater_to_leftSolid
    {
        type            compressible::turbulentTemperatureCoupledBaffleMixed;
        refValue        nonuniform List<scalar> 
130
(
574.43375
574.46978
574.45345
574.39469
574.30759
574.2141
574.12182
574.02497
573.9185
573.79251
573.6597
573.55931
573.50247
574.58085
574.56719
574.52131
574.45354
574.36913
574.27107
574.16919
574.06162
573.9426
573.80481
573.64927
573.5154
573.43279
574.62819
574.60069
574.55639
574.51479
574.44437
574.33105
574.20305
574.06347
573.89698
573.72345
573.53147
573.37131
573.26799
574.60618
574.60003
574.59039
574.56291
574.49203
574.35754
574.18738
573.99454
573.78309
573.57124
573.35349
573.16308
573.02219
574.5699
574.5756
574.57506
574.54367
574.46952
574.34028
574.16274
573.94837
573.70583
573.4684
573.22698
573
572.7937
574.57
574.57548
574.57487
574.54331
574.46893
574.33975
574.16214
573.94771
573.70504
573.46741
573.22567
572.99613
572.78376
574.60671
574.60022
574.59034
574.56273
574.49161
574.35705
574.18685
573.99393
573.78233
573.5703
573.35262
573.1598
573.01545
574.62865
574.60118
574.55694
574.51491
574.44413
574.33072
574.20307
574.06353
573.89668
573.72284
573.53092
573.36965
573.26548
574.58123
574.56765
574.52197
574.45395
574.36916
574.27097
574.16925
574.06159
573.94225
573.80438
573.6485
573.51401
573.43076
574.43448
574.47011
574.45396
574.39506
574.30772
574.21396
574.12161
574.02456
573.91777
573.79133
573.66004
573.56238
573.50322
)
;
        refGradient     uniform 0;
        valueFraction   uniform 0.99248593;
        value           nonuniform List<scalar> 
130
(
577.72087
577.82484
577.80228
577.72888
577.61773
577.51531
577.42648
577.33317
577.23286
577.09699
576.94203
576.84095
576.78725
577.9765
577.95847
577.89037
577.80017
577.70204
577.59464
577.49624
577.39841
577.29297
577.15861
576.97847
576.82099
576.71406
578.02045
577.96934
577.89646
577.87582
577.8142
577.67895
577.55222
577.42309
577.23441
577.06466
576.83073
576.65083
576.51726
577.96634
577.95705
577.9623
577.95477
577.89454
577.72764
577.53442
577.32043
577.07887
576.85868
576.61278
576.40507
576.20352
577.90717
577.92154
577.93809
577.90732
577.83692
577.69897
577.50563
577.27152
576.98509
576.73707
576.47096
576.22712
575.86816
577.90729
577.92121
577.93786
577.90667
577.83555
577.69807
577.50457
577.27045
576.98387
576.73565
576.47037
576.22262
575.84479
577.96702
577.95713
577.96203
577.95466
577.894
577.72707
577.53383
577.31979
577.07822
576.85788
576.61419
576.40228
576.19354
578.0205
577.9698
577.89751
577.87594
577.81379
577.67835
577.55279
577.42401
577.23431
577.06403
576.83169
576.64972
576.51539
577.9768
577.95902
577.89153
577.80093
577.70217
577.59474
577.49711
577.39927
577.29298
577.15911
576.97816
576.81909
576.71135
577.72224
577.82486
577.80323
577.72954
577.61818
577.5153
577.4267
577.33308
577.23227
577.09396
576.94244
576.85097
576.78951
)
;
        Tnbr            T;
        thicknessLayers List<scalar> 0();
        kappaLayers     List<scalar> 0();
        kappaMethod     fluidThermo;
        kappa           none;
        alphaAni        none;
        alpha           none;
        field           T;
    }
    bottomWater_to_heater
    {
        type            compressible::turbulentTemperatureCoupledBaffleMixed;
        refValue        nonuniform List<scalar> 
92
(
549.22393
549.90791
551.2647
553.20142
544.97332
545.82865
547.5353
549.99401
535.81592
537.01076
539.4746
543.14542
335.01912
331.88693
331.92251
335.10314
389.06374
384.96808
385.10419
389.38746
430.92082
427.02933
427.38494
431.78246
462.42885
459.15415
460.03086
464.60489
520.40954
484.69176
521.94486
482.61179
525.53439
484.66464
531.46952
490.21599
335.01912
335.10314
389.06374
389.38746
430.92082
431.78246
462.42885
464.60489
484.69176
490.21599
335.02092
335.02092
331.88765
331.92171
335.10066
335.10066
389.06452
389.06452
384.96889
385.10297
389.38501
389.38501
430.92178
430.92178
427.0305
427.38366
431.77974
431.77974
462.42877
462.42877
459.15675
460.02954
464.60716
464.60716
484.68565
484.68565
482.61145
484.6601
490.21759
490.21759
520.41723
521.94739
525.52045
531.45547
535.8186
537.01239
539.47478
543.14433
544.97332
545.8293
547.53826
549.99707
549.2246
549.90954
551.26784
553.20523
)
;
        refGradient     uniform 0;
        valueFraction   nonuniform List<scalar> 
92
(
0.99248593
0.99248593
0.99248593
0.99248593
0.99248593
0.99248593
0.99248593
0.99248593
0.99248593
0.99248593
0.99248593
0.99248593
0.99248593
0.99248593
0.99248593
0.99248593
0.99248593
0.99248593
0.99248593
0.99248593
0.99248593
0.99248593
0.99248593
0.99248593
0.99248593
0.99248593
0.99248593
0.99248593
0.99248593
0.99248593
0.99248593
0.99248593
0.99248593
0.99248593
0.99248593
0.99248593
0.99248593
0.99248593
0.99248593
0.99248593
0.99248593
0.99248593
0.99248593
0.99248593
0.99248593
0.99248593
0.99248593
0.99248593
0.99248593
0.99248593
0.99248593
0.99248593
0.99248593
0.99248593
0.99248593
0.99248593
0.99248593
0.99248593
0.99248593
0.99248593
0.99248593
0.99248593
0.99248593
0.99248593
0.99248593
0.99248593
0.99248593
0.99248593
0.99248593
0.99248593
0.99248593
0.99248593
0.99248593
0.99248593
0.99248593
0.99248593
0.99248593
0.99248593
0.99248593
0.99248593
0.99248593
0.99248593
0.99248593
0.99248593
0.99248593
0.99248593
0.99248593
0.99248593
0.99248593
0.99248593
0.99248593
0.99248593
)
;
        value           nonuniform List<scalar> 
92
(
552.67188
553.32633
554.66958
556.61524
548.44309
549.26716
550.95125
553.41672
539.32432
540.49128
542.92845
546.58929
340.0604
336.93325
336.97318
340.14845
393.66016
389.60137
389.74404
393.98936
435.16904
431.33359
431.69569
436.04516
466.35416
463.10391
464.01054
468.53395
523.90467
488.45529
525.35722
486.31971
528.97143
488.40878
534.90598
493.96244
340.00821
340.09164
393.64358
393.95853
435.14989
435.99838
466.34026
468.48402
488.42822
493.86904
340.01177
340.06482
336.9364
336.97108
340.08695
340.14379
393.64281
393.66397
389.60506
389.74062
393.95654
393.98373
435.14941
435.17516
431.33827
431.69196
435.9967
436.0335
466.33643
466.36405
463.1206
464.00013
468.49328
468.53079
488.40865
488.45173
486.32492
488.38383
493.87991
493.95279
523.91482
525.36529
528.93715
534.88081
539.32635
540.49269
542.93206
546.59152
548.4419
549.26627
550.95746
553.42264
552.67331
553.3291
554.67469
556.62104
)
;
        Tnbr            T;
        thicknessLayers List<scalar> 0();
        kappaLayers     List<scalar> 0();
        kappaMethod     fluidThermo;
        kappa           none;
        alphaAni        none;
        alpha           none;
        field           T;
    }
}


// ************************************************************************* //
