/*--------------------------------*- C++ -*----------------------------------*\
| =========                 |                                                 |
| \\      /  F ield         | OpenFOAM: The Open Source CFD Toolbox           |
|  \\    /   O peration     | Version:  v2012                                 |
|   \\  /    A nd           | Website:  www.openfoam.com                      |
|    \\/     M anipulation  |                                                 |
\*---------------------------------------------------------------------------*/
FoamFile
{
    version     2.0;
    format      ascii;
    class       volVectorField;
    location    "90/bottomWater";
    object      U;
}
// * * * * * * * * * * * * * * * * * * * * * * * * * * * * * * * * * * * * * //

dimensions      [0 1 -1 0 0 0 0];


internalField   nonuniform List<vector> 
1460
(
(-0.0010255716 -0.013667225 0.00076239276)
(-0.0036839384 -0.011893293 0.00086422856)
(-0.0034315277 -0.010372376 0.0015223162)
(-0.0021823478 -0.010970388 0.0022805898)
(-0.0010120425 -0.011226008 0.002363881)
(0.00082388367 -0.011698931 0.001618731)
(0.0021407039 -0.011339603 0.0013452442)
(0.0034016257 -0.011395256 0.0013267279)
(0.0030069238 -0.012968177 0.00080006248)
(0.0013144856 -0.014285242 -6.1747614e-05)
(-0.00099623936 -0.016578699 -0.00012654058)
(-0.002420169 -0.017022943 -0.00092730639)
(-0.0028950018 -0.017944518 -0.0012234798)
(-0.0028243561 -0.014281862 -0.00058326326)
(-0.0015944203 -0.010849026 0.00053769609)
(0.0021679695 -0.01060071 0.00057371729)
(0.0029599289 -0.014287272 -0.00068855193)
(0.0022852046 -0.017874393 -0.0014976756)
(0.0021072864 -0.017944054 -0.0012387763)
(0.00066537549 -0.016680849 -0.00045595957)
(-0.0015576741 -0.015067232 -0.00019738492)
(-0.0032927319 -0.013147285 0.00074754382)
(-0.0035333756 -0.010957829 0.0012967196)
(-0.0020831571 -0.011218538 0.0013450364)
(-0.00065162865 -0.011651602 0.0016454772)
(0.0011048327 -0.011150907 0.0023286204)
(0.0022487053 -0.010889077 0.0022322884)
(0.0034549085 -0.010292111 0.0014856452)
(0.0036584626 -0.011773306 0.00079187574)
(0.00096365961 -0.013554192 0.00070546423)
(-0.0032110716 0.015265971 0.002008765)
(-0.0050103116 0.01240481 0.001352022)
(-0.0020687614 0.0012747529 -5.8249179e-05)
(-0.0020369102 0.00070525659 0.0013306802)
(-0.00088474142 -0.00041835218 0.0015834992)
(0.00037473847 0.0018843095 0.0019195124)
(0.0022857707 0.0030474199 0.001596559)
(0.0034536251 0.0049630465 0.0017904534)
(0.005174352 0.01327167 0.0022528836)
(0.0044006204 0.015827164 0.0017577986)
(-0.0031484759 0.017714443 -0.0017700678)
(-0.0063545035 0.01789983 -0.0033165728)
(-0.0057844533 0.017156989 -0.0037989802)
(-0.0039377715 0.011358242 -0.0020058388)
(-0.0010568983 -0.0018957573 -0.00038738798)
(0.00067801949 -0.0017374969 -8.3388368e-05)
(0.0035612966 0.013967469 -0.0025280784)
(0.004275774 0.017585028 -0.0035198951)
(0.0058564357 0.018781753 -0.002611235)
(0.0049032442 0.018051812 -0.0016657392)
(-0.0042979721 0.016509618 0.0018512271)
(-0.0057554504 0.013514078 0.0023244613)
(-0.0033906466 0.0039247569 0.0015267303)
(-0.0023186919 0.0024379758 0.0015409656)
(-0.00032377911 0.0017313219 0.0019022137)
(0.00086074916 -0.00024519707 0.001560212)
(0.001987206 0.0009162308 0.0013276776)
(0.0019566914 0.0014968583 -2.1639621e-05)
(0.0049517932 0.012458024 0.001409499)
(0.0031367499 0.015183402 0.0020543301)
(-0.00096046867 0.0013964535 0.00050665418)
(0.0048554832 -0.011704447 -0.0018652859)
(0.0014155609 -0.013093895 -0.0028013538)
(-0.0011485157 -0.011988839 -0.0013734436)
(-0.00025711774 -0.012675893 -0.0013910742)
(-0.00031947703 -0.012108063 0.00019017598)
(0.00014486055 -0.011755839 0.00031491484)
(-0.0020694398 -0.013770988 -0.00090514426)
(-0.0049646084 -0.012785154 -0.00067906394)
(-0.00126065 -0.00028874211 0.00052510543)
(-0.0025582152 0.0040794071 0.00027933691)
(-0.0014614441 -0.0023793789 0.00085158124)
(0.00062108334 -0.015990474 0.0028365684)
(-8.5995042e-05 -0.013319848 0.0025410085)
(0.00040979176 -0.012750878 -0.002026964)
(-0.0011820999 -0.012740748 -0.0016171865)
(-0.00085105301 -0.012356944 0.0019983986)
(0.0013325011 -0.01581763 0.0034342239)
(0.00013928309 -0.011080028 0.0032926981)
(0.0032221454 0.0037231862 0.00047967987)
(0.00059780377 0.0018741629 0.0008689901)
(0.004924648 -0.012737554 -0.00010173779)
(0.0019082266 -0.013395994 -0.00080272261)
(-0.00022871652 -0.011705365 0.00031178354)
(0.00016934713 -0.012134306 7.3852809e-05)
(0.00019052609 -0.012614986 -0.0014354421)
(0.0010910051 -0.011914889 -0.0013898982)
(-0.0015439683 -0.013030572 -0.0027873859)
(-0.0048327442 -0.01156995 -0.0017953131)
(0.00090486594 0.0013963204 0.00057455686)
(0.0022601126 0.0060925254 0.00061904419)
(0.0044405072 0.0091839748 -0.0010618015)
(-0.0012217016 0.0084026118 -0.00041610113)
(-0.00023777833 -0.00030844792 -0.00041388927)
(-0.0012243872 -0.0033613131 -0.00086368591)
(-0.00038698558 -0.0025296049 -0.001667619)
(-0.0011530554 -0.00043627363 -0.0017493872)
(-0.00070744075 0.0083988048 -0.0015880405)
(-0.0050183623 0.0095567231 -0.0016785351)
(-0.0040944836 0.0071771046 6.6909355e-05)
(-0.0013635168 0.0085210012 0.00099729935)
(0.0032462443 0.0077526745 0.0012608667)
(0.0025933439 0.011202168 -0.0014284003)
(-0.0016935386 0.0047633789 -0.0010782149)
(0.00070922697 -0.0041430949 -0.0011752914)
(-0.0010901146 -0.0039748725 -0.0014101509)
(0.0015662372 0.0057692198 -0.0018129528)
(-4.9020038e-05 0.011759847 -0.0025982064)
(-0.0038929987 0.011101174 -0.0012603979)
(-0.00038814954 0.0083463825 0.00090814316)
(0.0033250077 0.0071438551 0.00039103226)
(0.0048475749 0.0095798179 -0.0018112093)
(0.00042255653 0.0071403218 -0.0014025771)
(0.0010162533 -0.00097091117 -0.001821061)
(0.00025715762 -0.0025554223 -0.0015736445)
(0.001188986 -0.0032502808 -0.00086878783)
(0.00021453223 -9.9461657e-05 -0.00041142376)
(0.001023722 0.0085008787 -0.00058158371)
(-0.0044573285 0.0091316989 -0.0010772401)
(-0.0022944573 0.0060479844 0.00061582689)
(-0.00085494892 -0.0064346725 -0.0018753809)
(0.0023424958 -0.0040898538 -0.0012047096)
(0.0035141226 -0.0060024992 -0.0010149558)
(0.0036196421 -0.0076177867 -0.0016904707)
(-0.0006242683 -0.0083873224 -0.0029071387)
(-0.0031564069 -0.0087824896 -0.0036287857)
(-0.0057919257 -0.0085868713 -0.0028587742)
(-0.0059315779 -0.007753564 -0.0015536334)
(-0.0036737881 -0.0043013583 -0.0011773674)
(-0.0019308055 -0.0031619645 -0.0013700079)
(0.00061498961 -0.0024190201 0.00041363973)
(0.001663531 -0.0057814578 0.0003002544)
(0.0034802441 -0.0040227419 9.9293751e-05)
(0.0055991611 -0.0073702496 -0.00073071231)
(0.0037117746 -0.0086665686 -0.0011019205)
(-0.0048548873 -0.0087364398 -0.0013749098)
(-0.0061979519 -0.0078607533 -0.00077834789)
(-0.0039206048 -0.0036022207 7.3602625e-05)
(-0.0017120281 -0.0041379436 0.0005333743)
(0.00088514822 -0.003018956 0.00040198637)
(0.00198144 -0.003577483 -0.001115784)
(0.0039929901 -0.0042325329 -0.0012552999)
(0.0060461563 -0.0073928646 -0.0018176034)
(0.0056639284 -0.0083975435 -0.0029837119)
(0.0029386555 -0.0086997154 -0.0035940286)
(0.00039401929 -0.0082962575 -0.0028816976)
(-0.0036689662 -0.0074818165 -0.0016664618)
(-0.0034575503 -0.0057923122 -0.00097560743)
(-0.0022924034 -0.0040880698 -0.0011915527)
(0.00086267161 -0.0064345019 -0.0018621514)
(-0.00057513421 -0.014182139 0.00054923338)
(-0.0020927541 -0.01432692 0.0010919443)
(-0.0026367954 -0.014067106 0.0026054862)
(-0.0026616756 -0.01395389 0.0029814863)
(-0.002576351 -0.013057324 0.0028041694)
(-0.00011822975 -0.011005588 0.0020691795)
(0.0021197314 -0.011803127 0.0020847929)
(0.0028341599 -0.014353475 0.0014861753)
(0.0017937625 -0.014596749 0.00095191129)
(0.00087129136 -0.016587246 0.00047874489)
(-0.0019197465 -0.012653375 0.00058964017)
(-0.0037619337 -0.01062705 0.00060011325)
(-0.0022430562 -0.011964627 0.00013217115)
(0.00085054578 -0.011729622 0.00098283259)
(0.0017429723 -0.01552935 0.0027920611)
(-0.0010765779 -0.015776332 0.0026036926)
(-0.0010306177 -0.011546741 0.00035530799)
(0.0017585448 -0.011749832 0.00028616033)
(0.0034016487 -0.01044275 0.00063585621)
(0.0016151648 -0.012697755 0.00056723886)
(-0.00098211661 -0.016784145 0.00071466976)
(-0.0018180147 -0.014475418 0.00075862186)
(-0.0029291673 -0.014325368 0.0015196497)
(-0.0020456318 -0.011787475 0.0021902789)
(0.00024559235 -0.010963352 0.0020866903)
(0.0025987913 -0.012943763 0.0027485189)
(0.0026810341 -0.013854909 0.0029018982)
(0.002646492 -0.013960412 0.0025223025)
(0.0020911361 -0.01424124 0.0010042378)
(0.00056997742 -0.014060416 0.00046575646)
(-0.00050570618 0.016099705 -0.0015160594)
(-0.0027473504 0.016143783 0.0019644605)
(-0.0032566141 0.015113513 0.0053579395)
(-0.0019663943 0.01423393 0.0062672771)
(-0.0024474802 0.011679582 0.0051957567)
(0.0011369967 0.0026584406 0.001673795)
(0.0020771599 0.0056524457 0.0020137449)
(0.0056465181 0.014804836 0.0024730895)
(0.0047606264 0.016523594 0.0011210704)
(0.0012803481 0.017684256 0.00045326168)
(-0.0044259866 0.014081819 -0.00010716287)
(-0.0045494016 0.0072792061 -0.00063948274)
(-0.0014895045 -0.0016521853 -0.00076452557)
(-0.0010970007 0.0010987265 0.0005591663)
(0.0043248467 0.014787413 0.0041813052)
(-0.0032575112 0.015443308 0.004304778)
(0.00078433308 0.0024645097 0.00028446289)
(0.001344204 -0.0023605099 -0.00051739341)
(0.0036956108 0.0060939716 0.00023710014)
(0.0043490154 0.014036291 0.00031044247)
(-0.0018520228 0.017825271 0.00040355713)
(-0.0052027194 0.016536387 0.00084988938)
(-0.0058795292 0.014642121 0.0025150609)
(-0.0020481903 0.0055528743 0.0021724092)
(-0.0010559901 0.0031402577 0.001816185)
(0.002432212 0.011885949 0.0053262755)
(0.0019646841 0.01420498 0.0062229053)
(0.0031865998 0.015049211 0.0052797664)
(0.0026508681 0.016069534 0.0018599653)
(0.00046571813 0.016012604 -0.0016239155)
(0.00049246272 0.0023764159 -0.0024041485)
(-0.00026092626 0.0020017743 -0.00029446035)
(-0.00085229573 -0.0073579668 -0.0017712638)
(0.0017774845 -0.012653508 -0.0025560783)
(0.0033539236 -0.012939483 -0.0031507234)
(0.0041614617 -0.013181291 -0.0025281366)
(-0.001784849 -0.013831554 -0.00093588245)
(-0.0011401324 -0.0074073136 -0.00024726834)
(0.00058511126 0.0042866582 0.00051175159)
(0.00087610672 0.0063649031 0.00036623268)
(0.0018348937 -0.00095610172 0.00031634691)
(0.0038271356 -0.011365191 0.00033678601)
(0.0021258615 -0.01403884 -0.00081827266)
(-0.0050391361 -0.013593857 0.00056108974)
(-0.0029026741 -0.011380171 -0.0010650162)
(0.0029010001 -0.0097380988 -0.00080634638)
(0.0048048022 -0.013021944 0.00025318193)
(-0.001349514 -0.014327168 -0.0013478419)
(-0.0037814151 -0.011610666 0.00016354751)
(-0.0017047967 -0.00060239454 6.5687631e-05)
(-0.00075364576 0.0066849354 0.00078285745)
(-0.00092413215 0.0046329198 0.00011598936)
(0.00092420554 -0.0095773645 -0.00054540831)
(0.0012187701 -0.013968683 -0.0010073456)
(-0.0042786298 -0.01291171 -0.0026571708)
(-0.0033463342 -0.012841983 -0.0031620661)
(-0.0017811305 -0.012244691 -0.0023897749)
(0.00086755194 -0.006857462 -0.0015876888)
(0.00028228181 0.0019987964 -0.00031228769)
(-0.00044934938 0.002367219 -0.0025197064)
(0.00098601765 0.0074362606 0.001238094)
(0.0018573592 0.0072673265 0.00093180055)
(0.0025235037 0.0082183894 0.00012116989)
(0.0018708531 0.0033186117 -0.0010977262)
(-0.00035799355 0.0022332834 -0.0013025852)
(0.00090045717 0.0067949028 0.00099539926)
(-0.0013504601 0.0089717261 0.0023367938)
(-0.0033795068 0.0076224553 0.00136307)
(-0.0021487325 0.0073850892 0.00087543138)
(0.00065937797 0.0093041062 0.00075887788)
(0.0032158621 0.0066630631 0.00040525137)
(0.0034903436 0.0079609455 -0.00026340549)
(0.0030094074 0.0097938074 -0.0014361091)
(-0.0017514877 0.0096494922 4.9222728e-05)
(0.0011053286 -0.0013904039 -0.00044255767)
(-0.00087590519 -0.000395545 -0.0010218646)
(0.002444346 0.0089673678 -0.00099051943)
(-0.0025251625 0.0098248519 -0.0020224743)
(-0.003272988 0.0079617575 -0.002238432)
(-0.0035285351 0.0067043016 0.0001787587)
(-0.00040922962 0.0094836414 0.0012351858)
(0.0022507865 0.0072423383 0.00053161735)
(0.0034509036 0.0084919708 0.0012584276)
(0.00056336543 0.009058971 0.0021406384)
(-0.00089321067 0.0060012205 0.00037876279)
(0.00020214822 0.0025613105 -0.0013697098)
(-0.0019609202 0.0034891439 -0.0010612789)
(-0.0024486351 0.0079558858 0.00012980853)
(-0.001791916 0.0072414131 0.00087553984)
(-0.00097463685 0.0073671793 0.0011598613)
(0.00094428007 0.00062205895 -0.0011238824)
(0.0019819227 -3.5445497e-05 6.096061e-05)
(0.0034128426 -0.0055919896 0.00031648921)
(0.002511843 -0.0086673503 -0.0019410366)
(-0.0015104714 -0.0082373954 -0.0040979825)
(-0.0028482878 -0.0092143201 -0.0045514284)
(-0.0037167006 -0.008543246 -0.0039211541)
(-0.0039179773 -0.0052358498 -0.0023208251)
(-0.0034022993 -0.0001202048 -0.00041435955)
(0.00018974308 0.0035906237 0.00010158029)
(0.0034140996 -0.00078144371 -0.00052096551)
(0.0039799031 -0.0059024287 -0.0011252203)
(0.0046216572 -0.007339041 -0.0010997001)
(0.0054142332 -0.0095639042 -0.0016538428)
(0.0045122393 -0.0096427642 -0.0017033589)
(-0.0046703667 -0.009332532 -0.0022353553)
(-0.0049675326 -0.0095652708 -0.0019039182)
(-0.0044608388 -0.0079397937 -0.00076784669)
(-0.0038619838 -0.0071020118 -9.8432574e-05)
(-0.0035173431 -0.00067246098 -0.00058781948)
(-3.0466092e-05 0.0036937342 0.00067521244)
(0.0033339549 -8.17904e-05 -0.00035876496)
(0.003931626 -0.0051394563 -0.0023293505)
(0.0039724387 -0.0087804303 -0.0037461016)
(0.0026756614 -0.0092734739 -0.0044504196)
(0.001246692 -0.008079743 -0.0040568138)
(-0.0024747145 -0.0085437808 -0.001909326)
(-0.0033846964 -0.0055060535 0.00038312191)
(-0.0019670884 2.9960634e-05 0.0001122327)
(-0.00092658302 0.00061076074 -0.0011243249)
(0.00025427091 -0.016744929 -0.001288947)
(-0.00070392318 -0.015103999 -0.0023929151)
(-0.00077541326 -0.015309841 -0.0015492781)
(-0.0010763519 -0.015021411 -0.00034927414)
(-0.0009639836 -0.015090008 -0.00093683218)
(-0.00072246141 -0.015331479 0.00020688671)
(0.00017677542 -0.016954417 0.0012970608)
(0.00011241834 -0.016940294 -0.0018446077)
(0.0012297564 -0.015137576 -0.0018240507)
(0.00039293607 -0.015303316 -5.0814931e-05)
(0.00034390215 -0.015245256 0.0017918644)
(-0.0013914596 -0.012806946 0.0023750122)
(-0.0016941577 -0.011753143 0.0026676523)
(-4.0131539e-05 -0.0093238187 0.0017721883)
(0.0019174461 -0.014204383 0.0026769181)
(-0.0010812128 -0.014853652 0.0028494637)
(0.00028356306 -0.0094852618 0.0020743453)
(0.0012704674 -0.013678938 0.0030597246)
(0.00049882701 -0.0136274 0.0023878219)
(-0.00091598123 -0.015180966 0.0011090868)
(-0.0010839343 -0.014374799 -0.00053538819)
(-0.001771225 -0.01521479 -0.0020355387)
(-0.00012067708 -0.017146446 -0.0017969832)
(-4.353981e-05 -0.016463801 0.0010124976)
(0.00066929071 -0.01529889 -8.9863662e-05)
(0.00096214055 -0.015029336 -0.0011967859)
(0.0010524056 -0.014943481 -0.00050152243)
(0.00075058972 -0.015155577 -0.0016852835)
(0.00068768489 -0.014893178 -0.0024385971)
(-0.0002855408 -0.01664136 -0.0014003917)
(0.0002744845 0.017366685 -0.0047312093)
(0.0024612151 0.015722994 -0.0049521648)
(0.0022752531 0.016252643 -0.0032499973)
(0.00053982527 0.016490109 0.0023477087)
(-0.0015231981 0.016192108 0.003693817)
(-0.0021269195 0.015952651 0.0046533871)
(-0.0015040551 0.017544848 0.00343863)
(0.00096655795 0.016362687 -0.0034852069)
(0.0034872849 0.015818372 -0.0049454035)
(0.0033464756 0.01647354 -0.0047227813)
(-0.0014311381 0.016439172 -0.0013397835)
(-0.0041480775 0.014295409 0.00074895883)
(-0.0016534361 0.0080139778 0.00048480497)
(-0.0018736055 0.0018939676 -0.0006179655)
(0.0041375485 0.015213607 0.0031679491)
(-0.0023358525 0.016121881 0.0037224853)
(0.0012110725 0.0035672661 -0.00035701354)
(0.0027846817 0.012415911 0.0025956546)
(0.0034911151 0.015089503 0.0020958109)
(0.00035390214 0.016317192 -0.0016655628)
(-0.0035996226 0.01584567 -0.0047825706)
(-0.0034948866 0.015197578 -0.0050426593)
(-0.00041604746 0.015663779 -0.0031720405)
(0.0016305173 0.017216534 0.0029815915)
(0.0020072262 0.015945166 0.0043716213)
(0.0013248841 0.016177289 0.0035621181)
(-0.00078639491 0.016423035 0.0020606992)
(-0.0023918831 0.016109683 -0.0033621857)
(-0.0024706165 0.015562593 -0.0049260712)
(-0.00032584443 0.017267733 -0.0047271579)
(0.00023514105 -0.015721671 0.002367444)
(-0.0010675643 -0.012534403 0.0030414294)
(0.0013664552 -0.002710147 -0.00088856682)
(0.00080807895 0.0021156494 0.0023007633)
(-0.00053930726 -0.00044765778 0.001295909)
(0.00039871063 -0.006479402 -0.0011171115)
(0.00065025323 -0.014492507 -0.00047189498)
(-0.00021227981 -0.017134097 0.000430303)
(-0.00032838381 -0.013360289 -9.8052461e-05)
(0.0011555628 0.002492178 -0.0020589913)
(-0.00042489631 0.0037813914 -0.00091935328)
(0.0010315865 -0.0044305284 -0.0026863481)
(0.0032657894 -0.012885857 -0.0050540892)
(-0.0040649115 -0.012305218 -0.0034004477)
(-0.0026825225 -0.0072068238 -0.00080068179)
(0.0023882838 -0.0037516894 0.00014363928)
(0.0022511154 -0.01245965 -0.0033355036)
(-0.0034302392 -0.013219743 -0.0051211407)
(-0.00018538644 -0.0019323016 -0.0014227895)
(0.00040543402 0.0035971378 -0.00092398331)
(-0.00077385072 0.0020906011 -0.0016462851)
(0.0013121085 -0.015195927 0.0015544181)
(-0.00044200787 -0.017096953 0.00027092908)
(-0.0005134964 -0.012080852 -0.00035743033)
(-0.00054705396 -0.0056355335 -0.0009348409)
(0.00048141871 2.5592057e-06 0.0012973593)
(-0.00095849801 0.002027736 0.002099016)
(-0.0013250534 -0.002958838 -0.00088155476)
(0.0010971753 -0.012505298 0.0030140749)
(-0.00015901344 -0.015898396 0.0026045507)
(-0.0031229072 0.012088241 0.0026331924)
(-0.0050905511 0.0094691885 0.0019602707)
(-0.003420411 0.0035060732 0.0011473138)
(-6.2762929e-05 0.0074631119 0.0025688007)
(0.00088745416 0.0075289097 -0.00035728894)
(0.0027197363 0.0085890543 -0.0024774347)
(0.0037999801 0.012049864 -0.0004146441)
(2.7244963e-05 0.012065078 -0.0001375488)
(-0.0045301089 0.010341953 0.0012801351)
(-0.0020764906 0.0073852463 0.00050935295)
(0.00069269532 0.0081836178 0.00061279784)
(0.0029944652 0.0072819717 -0.0015666514)
(0.0024830095 0.010060369 -0.0019065705)
(-0.0030927574 0.0077419582 -0.0012131591)
(-0.00032972712 0.0010295734 -0.00099477102)
(0.00065026805 0.0043156952 -0.0013365768)
(0.0036757138 0.0089217994 -0.001468095)
(-0.0030349192 0.010227434 -0.0021011104)
(-0.0024597448 0.0068755349 -0.0018127582)
(-0.00042216806 0.0082886704 0.00043900678)
(0.0022960779 0.0069798771 0.00083779406)
(0.0047146017 0.010099575 0.0013991218)
(-0.0015270508 0.011866707 -0.00083727436)
(-0.0039215112 0.011332211 -0.00054649606)
(-0.0025058975 0.0082955597 -0.0024488861)
(-0.00060028049 0.0074898188 -0.00038995853)
(0.00018703107 0.0074344906 0.002497155)
(0.0034748548 0.0035454938 0.0012246153)
(0.0050667837 0.0093803731 0.0019954587)
(0.0032140069 0.011968968 0.002655934)
(7.9320694e-05 -0.0002130096 0.0026908617)
(0.0034847367 -0.0084986273 0.0030145621)
(-0.00052822534 -0.010243889 -9.5916763e-05)
(-0.0024887783 -0.0041693307 -0.0018403939)
(-0.0012188406 -0.0018943081 -0.0030324452)
(-0.001281914 -0.0055484522 -0.0031788691)
(-0.0018793453 -0.0067691422 -0.0010984439)
(-0.00091414498 -0.0034911724 0.00072698084)
(-0.0011849579 -0.0053950718 0.0015499062)
(-0.00098292434 -0.00074838122 0.0012396387)
(0.0017816462 0.0017615178 0.0015072661)
(0.0028060117 -0.0015423649 0.00087992265)
(0.0038318823 -0.0018684263 -0.00026337285)
(0.0049739123 -0.0053230783 -0.00035462281)
(0.0034968055 -0.0085847012 -0.00064941767)
(-0.0046227752 -0.0079674095 -0.00082559755)
(-0.0040061098 -0.0047405251 -0.00087727891)
(-0.0034986782 -0.0025863369 -0.00056369167)
(-0.0021404226 -0.00234464 0.00074305397)
(-0.0014520351 0.0016274505 0.0014957176)
(0.0012029653 -0.0011773304 0.0017560959)
(0.0013052962 -0.0051904625 0.0017501921)
(0.0008427019 -0.0029467352 0.00056741723)
(0.002296351 -0.0077035171 -0.0011221321)
(0.00081151985 -0.005700759 -0.0032463297)
(0.0010995752 -0.0014247415 -0.0029779378)
(0.0024311021 -0.003857301 -0.0017667485)
(0.00067844631 -0.01024466 -0.00013541195)
(-0.0035294955 -0.0087385624 0.0030325432)
(7.4884383e-06 -0.0002335873 0.0026759994)
(-0.0011383589 -0.013646255 -0.0023604625)
(0.00028068333 -0.010021147 -3.2903532e-05)
(0.0024052849 -0.011158313 -0.0011526283)
(0.0021849885 -0.013107213 -0.0017060938)
(0.00086061786 -0.015904552 -0.0023585062)
(-0.00094533066 -0.016283002 -0.0026592222)
(-0.0016998107 -0.014121198 -0.0022050073)
(-0.001146758 -0.010193464 -0.001756379)
(0.0016527304 -0.01065603 -0.0022521668)
(0.0022487703 -0.013998522 -0.0026741769)
(0.0028776642 -0.013910412 -0.0019884599)
(0.0020270386 -0.014419408 -0.0003976905)
(0.0011333497 -0.015401974 0.00088800275)
(0.00073672255 -0.013533668 0.0016191763)
(0.00020452174 -0.01471615 0.001002601)
(-8.4155122e-05 -0.015110213 0.00099444808)
(-0.00052078575 -0.013575248 0.0014188702)
(-0.0010921866 -0.015563965 0.00049575981)
(-0.001870808 -0.014200446 -0.00055049145)
(-0.0029124074 -0.013208916 -0.0021037566)
(-0.0025537052 -0.013261561 -0.0026781843)
(-0.0017286454 -0.010394328 -0.0019994459)
(0.0013837779 -0.010166556 -0.001613871)
(0.0018024292 -0.01387182 -0.0022744192)
(0.0010821485 -0.016184753 -0.0027055895)
(-0.00082135828 -0.01582842 -0.0024238954)
(-0.0021618593 -0.012994233 -0.0017685796)
(-0.0023875945 -0.011064613 -0.0012105135)
(-0.00030293494 -0.010005127 -0.00013798728)
(0.0010734172 -0.013649499 -0.0024532989)
(-0.0014701 0.013605078 -0.0042128434)
(0.0019315823 -0.00039166802 0.00088049157)
(0.0031343186 0.0061207351 -0.00012511027)
(0.0052398854 0.013944673 -0.0016332847)
(0.0038013878 0.01698583 -0.001335985)
(-0.0043334415 0.017558908 -0.0015802162)
(-0.0045731959 0.014992304 -0.0017240654)
(-0.00074827977 0.0027364861 -0.00069815719)
(0.0016778516 0.0033670325 -0.0015961456)
(0.003226724 0.012002647 -0.004884255)
(0.0029512121 0.014740633 -0.0049665651)
(0.0017463468 0.016165909 -0.0027519763)
(-0.0010546614 0.016664082 0.0020566172)
(0.00072988371 0.015042689 0.0029917487)
(0.0022858289 0.015889818 0.0025152503)
(-0.001282601 0.016245145 0.0025552246)
(-0.00028336097 0.015202809 0.0025336537)
(0.00095507745 0.016862289 0.0008044818)
(-0.0020862936 0.015964434 -0.0028471957)
(-0.0031362967 0.014237735 -0.004850353)
(-0.0033490809 0.011027856 -0.0046180378)
(-0.0014776514 0.0016244751 -0.0013907187)
(0.0010685075 0.0025584781 -0.00071802111)
(0.004747887 0.014626202 -0.001974213)
(0.0044079914 0.017424005 -0.0018224532)
(-0.0038145426 0.016917292 -0.0014190815)
(-0.005274061 0.013827069 -0.001630588)
(-0.0031595852 0.0059922712 -0.00010043841)
(-0.0019259073 -0.00024406252 0.00083174684)
(0.0013507467 0.013385141 -0.0040879308)
(0.0023950933 -0.013780639 0.0017761527)
(0.0023913052 -0.013006089 0.0019272039)
(-0.00074159287 -0.012166198 0.0040974363)
(-0.0017635843 -0.0044428215 0.0029468821)
(0.0019959504 0.0057012628 -5.4247905e-05)
(-0.00096504442 0.0064356753 -0.0012467266)
(0.0029549922 -0.010800962 0.0027797465)
(0.0015847346 -0.012705341 0.0019200638)
(0.0004606562 -0.012995512 0.0018232514)
(-0.0031011673 -0.013407882 0.0034315744)
(-0.0020707717 -0.0066449934 0.00072138548)
(-0.0015828252 -0.0015587329 -0.0019366396)
(-0.001695395 -0.0078587154 -0.0011679574)
(-0.0033659367 -0.011562206 -0.0018153307)
(-0.0015701938 -0.0016552873 0.00070963373)
(0.0015996065 -0.00048497768 0.00061381264)
(0.0031511851 -0.010352064 -0.0012478016)
(0.0016049652 -0.0043079388 -0.00033137577)
(0.0017149816 -0.00040104839 -0.0016595048)
(0.002470385 -0.0060062388 0.00092952147)
(0.0033804037 -0.013037264 0.0027781381)
(-0.00021146485 -0.013125235 0.0015303004)
(-0.0016385591 -0.012614737 0.0018123734)
(-0.0029608891 -0.010655958 0.0026772645)
(0.0010007182 0.0062950653 -0.0013542756)
(-0.0019636255 0.005735792 -0.00012909573)
(0.0018188907 -0.0046945957 0.0029607799)
(0.00062111056 -0.012165375 0.004042304)
(-0.0023594283 -0.012931122 0.0018483383)
(-0.0023067771 -0.013791438 0.0017653605)
(-0.00068719695 0.0045930358 -0.0013915226)
(-0.0010312875 0.0022854508 0.00085530553)
(-0.0017017953 0.0078473972 0.0031209043)
(-0.003271006 0.007179064 0.0035309676)
(-0.00027469807 0.0090260865 0.00019932107)
(0.0017478123 0.0088415442 -0.0017536336)
(0.0040248924 0.0097892099 -0.00033107216)
(0.0011443695 0.00071216948 6.3026569e-05)
(0.0023927585 0.0036091758 -0.00098722335)
(-0.0022526175 0.0097380185 0.00070783304)
(-0.0046491686 0.0080231335 -0.00062257248)
(-0.003144987 0.0075292915 -0.0024629032)
(-0.0024905476 0.0095597524 -0.0029277815)
(-0.0047819156 0.0094203169 -0.0010345242)
(-0.0029502375 0.0039281698 -0.0004524438)
(0.0023985735 0.0045583955 -3.1379575e-05)
(0.0043061448 0.010261668 -0.00091043375)
(0.00136474 0.0084420683 -0.0023328691)
(0.0031833468 0.0073155338 -0.0019386463)
(0.0046144496 0.0075155006 -0.00019479568)
(0.0027719943 0.0091659185 0.00090937271)
(-0.0017378299 0.0036503713 -0.0011789175)
(-0.0008219552 0.00049269674 0.00013436835)
(-0.0039009904 0.0095218968 -5.7187328e-05)
(-0.0016498886 0.0087807649 -0.0017335191)
(0.00037009085 0.0089900676 0.00019995836)
(0.0033389598 0.0072111383 0.0034741454)
(0.0016213035 0.007767897 0.0030525958)
(0.0010569888 0.0020438664 0.00085999934)
(0.00067306517 0.0045970534 -0.0014822286)
(-0.0003938958 -0.0076326164 0.0044491372)
(-0.0025133479 -0.0095745892 0.0018288615)
(-0.0047146916 -0.0073025891 -4.1293212e-05)
(-0.0035977764 -0.001586056 0.001087398)
(-0.001616079 0.0031814375 6.9758072e-05)
(0.0019451994 0.0024510981 -0.001106937)
(0.0043441378 -0.006108074 0.00060612765)
(0.0023315304 -0.0087505538 0.0034522627)
(-0.002924289 -0.0066648072 0.0042319885)
(-0.0017508656 -0.00085523595 0.0028253744)
(0.00033210829 -0.0022479493 0.0031614839)
(0.0007812859 -0.0046434716 0.0027670945)
(0.0008364195 -0.0041858035 0.0018689367)
(0.0023919226 -0.010253671 0.001789241)
(0.0012174588 -0.009840631 0.0014971439)
(-0.0029033774 -0.0090077494 0.0020465159)
(-0.0024209429 -0.0081571397 0.0017852886)
(-0.0005657874 -0.0021248927 0.0017295405)
(-3.4841873e-05 -0.0044446704 0.0026293604)
(-0.00017083682 -0.0026498128 0.0035889208)
(0.0019015845 -0.0016332084 0.003070151)
(0.0028481593 -0.0068032689 0.0043764245)
(-0.0022054029 -0.0085064131 0.0033085881)
(-0.004357498 -0.0060599453 0.0002341551)
(-0.0019544262 0.002458675 -0.0011449291)
(0.0016089395 0.0031845701 5.0234582e-05)
(0.0036315815 -0.0015760472 0.0010653189)
(0.0047898264 -0.0072182683 -3.3626262e-05)
(0.0025347953 -0.0095343277 0.0017795333)
(0.00033769916 -0.0075998562 0.0043875914)
(0.0021499857 -0.010845927 -0.0012850915)
(0.0014075137 -0.016016592 6.1078305e-05)
(0.0016843701 -0.013678074 -0.0010104824)
(0.002727897 -0.012956593 -0.0012928899)
(0.0020782863 -0.015391335 -0.0014137154)
(-0.0020241243 -0.015160523 -0.0016314318)
(-0.0028789065 -0.011775143 -0.0016834141)
(-0.002240533 -0.011269989 -0.0016048684)
(0.0003052395 -0.011529353 -0.0012093794)
(0.0015401637 -0.011804662 -0.0017445613)
(0.0031611042 -0.010140319 -0.0013702913)
(0.0033706587 -0.011564593 -0.00064562377)
(0.00040082537 -0.01412099 -0.00078721062)
(-0.00046381437 -0.013927853 -0.00058064906)
(-0.0033055779 -0.011586455 -0.00070010897)
(-0.0030981522 -0.010140559 -0.0014828385)
(-0.0016394402 -0.011697481 -0.0018346342)
(-0.00049599567 -0.011565799 -0.0011090446)
(0.0022865672 -0.011254606 -0.0015437194)
(0.0028714177 -0.011693175 -0.001658784)
(0.0021057315 -0.015127155 -0.0016870733)
(-0.0020062187 -0.01536592 -0.0014942089)
(-0.0026842709 -0.012900901 -0.0013357448)
(-0.0016632389 -0.013605689 -0.0010585646)
(-0.0013923271 -0.015872919 7.828145e-06)
(-0.0021517013 -0.010814819 -0.001270612)
(0.0012583399 -0.00040186071 -0.0002581731)
(0.0020049131 0.015685557 0.00036240524)
(0.0033259752 0.0069840423 -0.0015984777)
(0.0048075603 0.008681423 -0.0011542721)
(0.0061561845 0.015730379 -0.0011701523)
(-0.0053507193 0.015477629 -0.0014639521)
(-0.0043541889 0.0074386992 -0.0010794821)
(-0.0032942992 0.00082469615 -0.001551858)
(6.267853e-05 0.001402714 -0.00095601952)
(0.0012051876 0.00089894236 -0.0015657388)
(0.0010157484 0.0018787473 -0.00097150336)
(0.0041253549 0.012688728 -0.0013113871)
(0.0017859192 0.015672877 -0.0010104361)
(-0.0019739704 0.015498001 -0.0013271161)
(-0.0040403958 0.012599127 -0.0012991409)
(-0.0010299678 0.0020927739 -0.0010357444)
(-0.001192314 0.0014279079 -0.001758048)
(-5.4695108e-05 0.001554676 -0.00085199031)
(0.0034844217 0.00084532939 -0.0014667588)
(0.0043732213 0.0071485988 -0.0010528442)
(0.0055336306 0.015378974 -0.0014169173)
(-0.0061705698 0.015707875 -0.0011120625)
(-0.0048202357 0.008634756 -0.0011029477)
(-0.0033630776 0.0069454348 -0.0015691202)
(-0.0020300012 0.015534172 0.00031517595)
(-0.0012853405 -0.00046369117 -0.00022484899)
(-0.0012415853 -0.01232284 0.0017832425)
(0.0015614621 -0.012437589 -0.0016658069)
(0.0038145734 -0.014771837 -0.00064828693)
(-0.0028494839 -0.013876742 0.0022004289)
(0.0033827589 0.0017469476 5.5701222e-05)
(-0.00052530553 0.0010304779 -0.0010103356)
(0.0031125891 -0.012123454 0.0012181498)
(-0.0012253488 -0.012366139 -0.00027000124)
(0.0011677019 -0.011927313 0.00091663332)
(-0.0010492828 -0.012479777 0.0012471291)
(-0.0043718149 -0.012312404 0.0011420677)
(-0.0043847501 -0.011483321 0.00080682179)
(0.00030418988 -0.00073239838 -0.00053248097)
(-0.00033793383 -0.0015708038 -0.00048014587)
(0.0043390313 -0.011821588 0.00098876492)
(0.0042931642 -0.012369452 0.0012222496)
(0.0011533567 -0.012371906 0.0011036144)
(-0.00098520344 -0.012014081 0.00087917947)
(0.0015408599 -0.012363694 -0.00025541016)
(-0.0030265204 -0.012160625 0.0012226004)
(0.00061944673 0.00090803923 -0.0009812611)
(-0.0034073267 0.0018645362 8.7715902e-05)
(0.0028801645 -0.013849097 0.0021274824)
(-0.0038368571 -0.014717099 -0.00062184408)
(-0.0015027356 -0.012477382 -0.0015906412)
(0.0012349408 -0.012280596 0.0017713981)
(-0.00067192601 -0.0038100467 0.0012559357)
(0.0006335957 0.0058507102 0.0015278242)
(0.00016163309 0.010908818 0.0013976596)
(-0.0034137363 0.0093753728 0.0019715211)
(-5.9992422e-05 0.0068166941 0.00044376616)
(0.0025178562 0.006870277 -0.00068856541)
(0.0017322477 0.00876654 -0.00071307011)