/*--------------------------------*- C++ -*----------------------------------*\
| =========                 |                                                 |
| \\      /  F ield         | OpenFOAM: The Open Source CFD Toolbox           |
|  \\    /   O peration     | Version:  v2012                                 |
|   \\  /    A nd           | Website:  www.openfoam.com                      |
|    \\/     M anipulation  |                                                 |
\*---------------------------------------------------------------------------*/
FoamFile
{
    version     2.0;
    format      ascii;
    class       volScalarField;
    location    "9";
    object      p;
}
// * * * * * * * * * * * * * * * * * * * * * * * * * * * * * * * * * * * * * //

dimensions      [0 2 -2 0 0 0 0];


internalField   nonuniform List<scalar> 
64000
(
2.2985e-21
4.60899e-22
-1.86326e-21
-2.89626e-21
-5.45103e-21
-3.09403e-21
-1.41591e-22
-1.66118e-22
-1.3404e-21
-1.63878e-21
-2.19723e-21
-2.03074e-21
-1.86657e-21
-4.06366e-21
-2.06279e-21
-3.26134e-21
-1.43497e-21
-7.24004e-23
1.58831e-21
2.3256e-21
-5.55951e-22
-4.20493e-21
-8.49159e-22
1.01838e-21
-4.10011e-21
-1.58526e-21
-4.59712e-22
-7.68798e-22
-2.36476e-22
-2.27221e-21
-1.9909e-21
-4.45694e-22
-8.55715e-22
-6.79018e-22
-2.6257e-22
-1.0537e-21
-4.11639e-22
1.75359e-21
1.31607e-21
1.43544e-21
-8.72639e-22
-2.29276e-21
-6.36538e-21
-4.07026e-21
-8.60681e-21
-7.40918e-21
-3.24163e-21
-1.05114e-21
-1.91893e-21
-4.71243e-21
-3.82147e-21
-5.19952e-21
-1.75352e-21
-1.30023e-21
-2.86162e-21
-4.62449e-21
-2.11213e-21
9.42556e-22
3.21702e-22
3.91303e-22
1.72768e-21
-1.03114e-21
-2.2663e-21
-5.83666e-21
-5.36584e-21
-2.80128e-22
4.51904e-22
-1.75073e-21
-5.14351e-22
1.16055e-21
2.10952e-21
1.58392e-23
-6.24905e-22
-6.39947e-22
-2.12983e-21
-8.91331e-22
1.43468e-21
1.23635e-21
7.31373e-22
1.22722e-21
-2.52333e-21
-1.78399e-21
-8.49956e-21
-6.35138e-21
-5.64606e-21
-7.65277e-21
-3.82109e-21
-3.59387e-21
-1.95583e-21
-2.42498e-21
-4.75557e-21
-5.97112e-21
-1.7508e-21
-1.95473e-21
-1.74502e-21
-6.91266e-22
-5.10487e-21
-2.03513e-21
-1.88701e-21
-5.17503e-22
5.09069e-22
7.49821e-22
-1.56588e-21
-5.26863e-21
-6.61019e-22
-6.40533e-22
-1.50481e-21
-2.3825e-21
3.26629e-22
1.38515e-21
9.54763e-22
-3.36773e-22
6.50124e-22
4.82143e-23
-2.12267e-22
1.56035e-21
5.16007e-23
-4.7155e-22
-4.49645e-22
4.32569e-22
-5.02948e-21
-6.77052e-21
-6.32552e-21
-9.18024e-21
-6.76625e-21
-7.14928e-21
-4.74287e-21
-3.80008e-21
-4.83391e-21
-4.04798e-21
-3.12808e-21
-5.70462e-21
-4.89117e-21
-1.33295e-21
-2.06161e-21
-3.87248e-21
-3.49615e-21
-3.03227e-21
-1.53652e-21
5.2683e-22
1.03339e-21
2.14282e-21
-1.98829e-21
-6.01118e-21
-1.46176e-21
-1.16843e-21
-6.43442e-22
2.83608e-22
-9.34497e-23
3.29173e-22
1.5817e-21
1.05703e-22
-2.00763e-21
1.51116e-21
1.962e-21
1.29403e-22
-3.46273e-22
-8.77348e-22
-1.4028e-21
-6.40308e-23
-1.24168e-20
-9.29317e-21
-8.09193e-21
-7.85824e-21
-6.66784e-21
-5.87461e-21
-4.46199e-21
-3.59824e-21
-5.58837e-21
-5.1488e-21
-4.48463e-21
-5.46705e-21
-1.90655e-21
-3.19389e-22
-5.12567e-21
-7.90363e-21
-4.4006e-21
-7.31993e-22
4.35191e-22
1.94107e-22
2.32766e-21
-8.70131e-22
-5.63309e-21
-4.83944e-21
-1.47968e-21
-3.93369e-22
2.0622e-22
-1.31671e-21
-1.03298e-21
1.48951e-21
3.06663e-21
4.72122e-22
-5.66372e-22
9.82623e-22
-6.38017e-22
-1.48348e-22
-2.72287e-22
3.1004e-24
-1.56487e-21
7.11594e-22
-7.61336e-21
-7.52385e-21
-6.45897e-21
-7.76956e-21
-6.80813e-21
-5.92786e-21
-4.76852e-21
-6.04271e-21
-5.6629e-21
-3.97715e-21
-3.31169e-21
-4.73033e-21
-4.21018e-21
-1.72527e-21
-3.81824e-21
-6.94407e-21
-3.90815e-21
5.8718e-23
6.70965e-22
1.10969e-21
1.63645e-21
-3.35528e-22
-7.65288e-21
-5.15087e-21
-2.35711e-21
-2.23294e-22
-1.61747e-21
-1.09123e-21
6.99485e-22
1.06566e-21
1.03941e-21
-1.26234e-22
6.49231e-22
9.63296e-22
-1.26208e-21
5.16266e-23
-6.71214e-22
-2.40145e-21
-1.11984e-21
8.29804e-22
-8.6419e-21
-8.6377e-21
-6.6711e-21
-8.12504e-21
-7.20371e-21
-6.42542e-21
-4.71629e-21
-5.60613e-21
-6.82574e-21
-3.45175e-21
-3.1029e-21
-4.58413e-21
-3.37547e-21
-3.57785e-21
-4.11311e-21
-3.85395e-21
-1.74322e-21
1.21278e-21
3.37229e-21
1.17799e-21
1.74411e-22
-1.48757e-21
-7.61245e-21
-5.9771e-21
-4.15306e-21
-1.42196e-21
-7.10908e-22
6.86401e-23
8.45645e-22
2.9225e-22
-1.13929e-21
-1.6582e-22
1.03296e-21
7.40561e-22
-3.02198e-22
2.15237e-23
4.76871e-22
-3.29909e-21
-3.63287e-21
-2.98778e-22
-7.30765e-21
-8.09604e-21
-8.5311e-21
-6.90343e-21
-7.12319e-21
-5.27308e-21
-4.48938e-21
-7.25673e-21
-5.40294e-21
-4.39065e-21
-5.76745e-21
-5.06375e-21
-3.6081e-21
-3.85036e-21
-3.52838e-21
-4.22064e-21
-1.82309e-21
1.78753e-21
2.70097e-21
3.84071e-21
-4.64079e-22
-4.5079e-21
-7.2868e-21
-4.56058e-21
-3.43183e-21
-1.52216e-21
-3.73191e-22
1.15467e-21
1.7342e-21
-5.41084e-22
-3.48152e-21
-1.22561e-21
1.76187e-22
-3.47257e-22
1.26771e-22
3.14888e-22
-9.60595e-22
-4.09413e-21
-1.94148e-21
2.57397e-22
-1.54163e-20
-1.01916e-20
-7.12971e-21
-8.65163e-21
-6.27043e-21
-4.9319e-21
-5.38125e-21
-5.28035e-21
-4.09562e-21
-7.91959e-21
-6.70123e-21
-7.14425e-21
-1.08745e-21
-3.0183e-21
-2.43214e-21
-5.23767e-21
-4.56708e-21
3.15147e-21
2.06536e-21
2.29192e-21
4.6948e-22
-6.68212e-21
-7.43815e-21
-4.89099e-21
-6.47386e-22
-2.62862e-21
8.1122e-22
1.85525e-21
9.45749e-22
-5.78087e-22
1.69475e-22
-1.37262e-21
-3.64417e-21
-3.2275e-22
1.7125e-22
1.24253e-21
-2.84808e-22
-3.43769e-21
1.69591e-22
1.36556e-21
-7.48686e-21
-8.58934e-21
-8.66885e-21
-8.61495e-21
-8.53931e-21
-6.01231e-21
-3.9716e-21
-6.15644e-21
-4.74151e-21
-3.94912e-21
-5.40034e-21
-5.68961e-21
-3.72786e-21
-2.05274e-21
-4.82968e-21
-4.18009e-21
-3.66133e-21
-1.33738e-22
2.55844e-21
3.78933e-21
2.21053e-21
-5.74287e-21
-7.68616e-21
-3.2399e-21
-2.54188e-21
-1.50729e-21
2.23646e-22
2.51215e-21
-2.36301e-21
-2.65744e-22
-2.87511e-22
-4.76822e-22
-6.47219e-22
-2.47621e-21
-6.1838e-22
2.75066e-22
-9.35168e-22
-1.02867e-21
4.31121e-22
6.73283e-22
-6.5158e-21
-9.53952e-21
-8.15196e-21
-1.08613e-20
-7.98868e-21
-7.28356e-21
-7.44279e-21
-5.26211e-21
-4.3507e-21
-6.0137e-21
-5.20195e-21
-4.18624e-21
-3.2847e-21
-2.20722e-21
-3.88473e-21
-4.26651e-21
-1.43166e-21
4.47978e-22
4.3791e-21
2.31767e-21
-2.70367e-21
-8.37117e-21
-4.62516e-21
-3.90907e-21
-3.77405e-21
-2.33338e-21
-2.4584e-23
1.3161e-21
-1.15591e-21
1.34614e-22
-2.18294e-22
-1.36884e-21
1.19997e-21
3.95232e-22
-1.64068e-21
-1.77686e-21
-5.94297e-23
2.35577e-21
1.50003e-21
1.34006e-21
-7.82819e-21
-1.16266e-20
-1.05295e-20
-9.46332e-21
-6.61018e-21
-8.37164e-21
-8.65939e-21
-6.05679e-21
-3.93677e-21
-4.91387e-21
-6.02466e-21
-4.41338e-21
-4.97277e-21
-3.91716e-21
-2.39643e-21
-2.50749e-21
-2.46432e-21
4.32218e-22
1.46277e-21
3.94453e-21
-3.5796e-21
-5.59393e-21
-5.47689e-21
-6.76705e-21
-2.3002e-21
-2.83999e-22
3.88372e-22
-1.13241e-21
-1.71547e-21
2.34981e-21
6.40252e-22
-1.93297e-21
2.52464e-22
1.1437e-21
-2.74347e-21
-7.00874e-22
2.65868e-21
1.93466e-21
1.25844e-21
-7.28984e-22
-1.2179e-20
-1.31147e-20
-1.19101e-20
-8.43077e-21
-8.21421e-21
-8.09856e-21
-9.09263e-21
-5.88961e-21
-4.51008e-21
-4.96038e-21
-5.81326e-21
-3.59363e-21
-3.8519e-21
-5.00619e-21
-2.7362e-21
-1.74251e-21
-4.62114e-23
-1.38861e-22
-5.41101e-23
-1.49622e-22
-1.39717e-21
-3.22968e-21
-3.39315e-21
-4.28384e-21
-3.3531e-21
1.02065e-21
6.00752e-22
-2.32716e-21
-1.76898e-21
1.00103e-22
-1.17699e-21
-4.47205e-22
7.94682e-22
4.03457e-22
-1.24917e-21
-1.6645e-23
7.53354e-22
-7.95993e-22
-8.67648e-22
-8.94818e-22
-1.17364e-20
-1.38295e-20
-1.28237e-20
-9.4813e-21
-7.85935e-21
-7.07296e-21
-7.27078e-21
-4.36138e-21
-8.05813e-21
-1.05861e-20
-5.32686e-21
-1.36351e-21
-4.38421e-21
-7.78006e-21
-1.76147e-21
-1.23789e-21
1.21207e-21
3.86944e-22
9.19359e-22
1.29144e-21
-3.2118e-21
-5.27068e-21
-5.1972e-21
-6.8677e-21
4.5671e-23
1.82982e-21
3.41167e-22
-2.33798e-21
-3.32239e-21
-4.28418e-22
5.77542e-22
1.60383e-21
7.90199e-22
-4.55259e-23
-3.33453e-21
9.34702e-22
1.23341e-22
-9.44236e-22
-2.23865e-21
-3.17625e-22
-8.75171e-21
-1.58393e-20
-1.47564e-20
-7.50071e-21
-5.27428e-21
-7.19936e-21
-8.73309e-21
-8.3959e-21
-7.17828e-21
-7.1799e-21
-4.73639e-21
-4.97418e-21
-4.39229e-21
-3.09572e-21
-1.05825e-21
-1.63148e-21
-2.18101e-22
-7.06188e-22
-3.19452e-21
9.35581e-22
-4.64745e-21
-2.52505e-21
-3.82276e-21
-6.0658e-21
1.29356e-21
2.05107e-22
-7.79617e-22
-1.38573e-21
-3.80247e-21
-1.69703e-21
-9.7257e-22
2.30198e-21
1.41074e-21
4.03156e-22
-5.41968e-22
-2.99457e-21
8.01851e-22
-7.56362e-22
-2.5255e-21
1.58113e-21
-1.01764e-20
-1.39995e-20
-1.26524e-20
-8.60381e-21
-9.42579e-21
-6.59602e-21
-7.47491e-21
-9.08652e-21
-6.68436e-21
-4.07358e-21
-7.14692e-21
-5.54804e-21
-3.36625e-21
-1.81973e-21
-1.56533e-21
-2.65955e-21
-1.09285e-21
-4.91283e-22
7.07305e-22
-4.30761e-22
-4.37577e-21
-6.16567e-21
-4.22318e-21
-1.37532e-21
-1.19303e-22
-8.54886e-22
-1.49448e-21
-1.13438e-21
-1.46676e-21
-1.96819e-21
-3.23963e-21
1.79617e-21
1.68102e-21
7.82097e-22
1.17489e-21
-1.38094e-21
-1.23002e-21
-3.57467e-21
-2.73492e-21
4.14756e-22
-9.16317e-21
-1.12972e-20
-1.43289e-20
-8.70378e-21
-5.51044e-21
-7.54276e-21
-1.0709e-20
-1.04698e-20
-4.3418e-21
-5.28058e-21
-8.15385e-21
-3.50248e-21
-2.94575e-22
-2.18998e-21
-1.55504e-21
-1.21031e-21
-1.7685e-21
-3.16744e-22
-1.96198e-21
-2.27689e-21
-5.87969e-21
-4.38517e-21
-3.064e-21
-5.83726e-22
-3.3158e-22
5.99557e-22
-1.01698e-21
3.45995e-22
5.52682e-23
-4.02467e-21
-4.7801e-21
1.43714e-22
2.72054e-21
1.85158e-21
-1.80979e-22
6.59882e-23
-1.73748e-21
-4.12235e-21
-2.16071e-21
-1.68785e-21
-7.01098e-21
-1.08499e-20
-1.66422e-20
-9.15295e-21
-5.74324e-21
-6.00484e-21
-9.8425e-21
-9.88013e-21
-5.56247e-21
-4.89936e-21
-6.84811e-21
-3.91369e-21
7.00083e-22
-2.50831e-21
-2.95632e-21
-1.4388e-21
-1.5375e-21
-1.28845e-21
4.06514e-22
-2.5143e-21
-6.98774e-21
-7.74237e-21
-1.1473e-21
-1.96384e-22
1.92451e-21
-1.49071e-21
1.34779e-22
1.0652e-21
-2.06793e-21
-1.43749e-21
-1.49057e-21
-8.87454e-22
3.35695e-22
-1.3677e-22
-1.23702e-21
-1.24027e-21
-9.18474e-22
-1.78636e-21
-1.27944e-21
-1.04086e-21
-6.186e-21
-8.43155e-21
-1.13534e-20
-9.77964e-21
-9.80772e-21
-8.19637e-21
-7.98586e-21
-6.07804e-21
-4.69329e-21
-5.85146e-21
-5.65591e-21
-4.61507e-21
1.89537e-22
-1.45764e-21
-3.59211e-21
-1.33589e-21
-2.72497e-21
-4.70239e-21
-4.56142e-21
-5.20064e-21
-3.1032e-21
-1.39318e-21
-1.63356e-21
-4.4384e-22
1.61146e-21
8.80767e-23
9.57877e-22
2.55825e-21
5.90442e-22
-1.81927e-21
-4.00106e-21
-1.55564e-21
-1.71092e-22
-5.12846e-22
-1.44941e-21
-7.0589e-22
-6.66037e-24
-1.04923e-21
-2.21206e-21
-2.02504e-21
-4.86064e-21
-7.67571e-21
-1.26138e-20
-9.93596e-21
-8.69829e-21
-6.67687e-21
-7.01612e-21
-7.51527e-21
-5.17809e-21
-4.4413e-21
-5.25644e-21
-3.69372e-21
-3.96797e-21
-2.90922e-21
-2.04778e-21
-1.29665e-21
-1.13625e-21
-2.52208e-21
-6.99768e-21
-4.50396e-21
-2.53768e-21
-3.26668e-21
-2.10788e-21
6.63171e-22
2.2817e-21
1.52098e-21
-2.84896e-21
5.95037e-22
1.49647e-21
-1.33425e-21
-1.43774e-21
-4.87238e-22
1.18811e-21
-6.77337e-22
-3.472e-21
-7.98608e-22
-1.83875e-21
-5.04671e-22
-1.29784e-21
-2.37676e-21
-6.54034e-21
-8.81683e-21
-1.14828e-20
-8.00988e-21
-9.39283e-21
-7.21597e-21
-6.81505e-21
-3.77145e-21
-2.68112e-21
-7.57371e-21
-1.00896e-20
-5.81298e-21
-1.92934e-21
-2.50768e-21
-2.22983e-21
-1.04715e-21
-2.11542e-21
-4.81233e-22
-5.027e-21
-2.6172e-21
-1.79885e-21
-3.62305e-21
-1.24979e-22
-1.5482e-21
-1.53271e-21
2.21932e-21
6.81177e-22
2.53452e-22
-9.22723e-22
-1.77113e-21
-7.01704e-22
-3.35172e-23
3.84181e-22
2.13423e-21
-1.1975e-21
-4.07816e-21
-2.29947e-21
-6.48248e-22
-7.77955e-22
-2.46446e-21
-1.11596e-20
-1.11014e-20
-8.80671e-21
-7.14804e-21
-9.61365e-21
-6.7647e-21
-6.42254e-21
-5.74377e-21
-4.25027e-21
-7.39386e-21
-8.83041e-21
-6.61099e-21
-1.78525e-21
-6.43595e-21
-1.79436e-21
1.28851e-21
9.85336e-22
-2.08022e-21
-2.82021e-21
-1.59142e-21
-4.02171e-21
-2.43808e-21
-4.65855e-23
-1.92604e-21
-2.45353e-22
1.61137e-21
2.05792e-21
-2.83537e-21
-1.45561e-21
-1.39963e-21
-1.98046e-21
2.79755e-21
4.59021e-22
-1.75656e-22
-1.06385e-21
-5.88946e-21
-7.07816e-22
1.35726e-21
1.35698e-21
-3.69591e-22
-1.27081e-20
-9.52624e-21
-8.85519e-21
-6.24064e-21
-6.72597e-21
-1.05982e-20
-5.71467e-21
-3.47118e-21
-7.51798e-21
-1.11728e-20
-8.53343e-21
-5.89785e-21
-2.97438e-21
-1.85075e-21
-2.5214e-22
-2.12731e-23
1.55925e-21
7.18777e-22
7.90178e-22
-3.56749e-21
-3.05107e-21
-1.45667e-21
-2.94341e-21
-5.75293e-21
-2.45544e-21
-2.17313e-23
8.82092e-22
-1.33668e-22
-9.23447e-22
-6.35019e-22
-2.93914e-21
-1.91122e-22
8.7486e-22
4.50823e-22
2.01644e-21
-2.753e-21
1.94536e-22
4.07582e-21
-1.11477e-21
-1.92019e-21
-8.8517e-21
-9.28067e-21
-1.03284e-20
-7.00463e-21
-5.23366e-21
-7.95948e-21
-7.78751e-21
-9.99598e-21
-5.13219e-21
-6.53563e-21
-8.07299e-21
-6.75302e-21
-1.36422e-22
-2.79574e-21
-2.86953e-21
2.5978e-22
7.63335e-22
-5.65228e-22
-2.21518e-22
9.67129e-23
-2.1913e-21
-1.60145e-21
-1.98144e-21
-3.25611e-21
-3.92238e-21
-1.7982e-21
5.92274e-22
1.5982e-21
1.30207e-21
-3.45112e-21
-1.8406e-21
-1.85854e-22
-1.42879e-21
-1.15152e-21
-3.92637e-22
3.56495e-23
2.49039e-21
2.70339e-21
-2.35869e-22
-1.60896e-21
-2.49527e-21
-7.31836e-21
-8.98602e-21
-8.79748e-21
-6.46127e-21
-6.2878e-21
-6.85687e-21
-8.58025e-21
-4.29961e-21
-6.55207e-21
-1.00738e-20
-7.44438e-21
-3.14183e-21
-2.78483e-21
-2.58926e-21
6.59969e-22
6.65578e-22
-5.61712e-22
1.12707e-21
2.73096e-21
1.68629e-22
-2.82515e-21
-2.31443e-22
-4.9279e-21
-5.12636e-21
-1.93555e-21
-1.30846e-21
6.61865e-22
-1.98163e-21
-1.46785e-21
-5.24042e-22
2.34281e-22
-2.39321e-21
-9.81864e-22
-2.12256e-21
-2.27468e-22
3.00287e-21
1.00501e-21
-7.55567e-23
5.97379e-22
-5.06867e-21
-6.94197e-21
-8.31016e-21
-7.62158e-21
-6.39677e-21
-4.24489e-21
-5.86754e-21
-8.35685e-21
-4.06376e-21
-3.40905e-21
-1.03627e-20
-8.38601e-21
-4.3733e-21
-4.40605e-21
4.80251e-22
4.49466e-22
2.92089e-23
-3.96853e-22
1.95954e-21
2.85516e-21
2.2805e-21
-1.72496e-21
-4.32152e-21
-5.89015e-21
-3.20475e-21
-2.93991e-21
5.75539e-22
-1.36607e-21
-5.42388e-21
6.86074e-22
1.10006e-21
-2.11489e-21
-3.70701e-21
-4.46349e-22
1.9683e-21
1.18788e-22
9.84175e-22
-1.93623e-21
1.07545e-21
1.81061e-21
-7.78396e-22
-4.34191e-21
-7.51569e-21
-9.96395e-21
-5.1328e-21
-6.61257e-21
-5.71637e-21
-5.4599e-21
-3.89473e-21
-5.90151e-21
-6.35911e-21
-5.31505e-21
-3.00029e-21
-4.76883e-21
-5.17988e-21
-3.39161e-22
-6.68294e-22
7.02207e-23
6.27516e-21
6.18168e-21
-1.35237e-21
-5.81815e-21
-3.2111e-21
-2.71108e-21
-3.28238e-21
-3.0162e-21
1.64243e-21
-3.16861e-22
-4.89644e-21
-2.38645e-21
1.56745e-21
-3.65177e-22
-7.62484e-22
-1.17475e-21
8.60587e-22
1.88825e-22
-9.19113e-22
-2.84453e-21
-7.67512e-22
1.32908e-21
-2.42839e-21
-6.74166e-21
-7.53247e-21
-8.45637e-21
-3.65002e-21
-5.11951e-21
-3.90854e-21
-6.52215e-21
-4.98445e-21
-5.77677e-21
-5.71782e-21
-4.22443e-21
-1.4301e-21
-2.76282e-21
-5.09468e-21
-1.8113e-21
-1.08611e-21
8.42746e-22
5.00209e-21
4.75309e-21
-2.96339e-21
-3.8168e-21
-2.56311e-21
-4.74468e-21
-2.07536e-21
-2.51543e-22
-3.01798e-22
-1.88327e-21
-3.61746e-21
-2.31617e-21
1.00795e-21
-2.13132e-22
-1.10648e-21
-2.76594e-22
3.92537e-23
-1.28404e-21
-1.57636e-21
-1.7082e-21
-8.18466e-22
4.83006e-22
-3.48939e-21
-8.1528e-21
-7.92378e-21
-6.01797e-21
-6.09713e-21
-6.03976e-21
-5.73741e-21
-3.49098e-21
-3.40839e-21
-5.27974e-21
-6.3317e-21
-2.18724e-21
-1.38726e-21
-1.72532e-21
-3.857e-21
-1.75199e-21
4.23327e-22
2.90709e-21
1.96527e-21
1.30063e-21
-3.93862e-21
-5.69077e-21
-2.43377e-21
-1.9086e-21
-1.3691e-21
-1.06626e-21
-1.28798e-21
-3.52209e-21
-3.09682e-21
-1.28661e-21
3.42595e-21
-1.04374e-22
-5.86643e-22
6.98391e-22
-6.52337e-22
-3.30931e-21
-1.437e-21
-1.13829e-21
-6.69641e-22
-1.0618e-22
-4.37871e-21
-6.73929e-21
-6.33144e-21
-7.80897e-21
-8.04193e-21
-5.30979e-21
-4.36565e-21
-2.59936e-21
-2.25804e-21
-4.00556e-21
-8.10669e-21
-2.86916e-21
5.63094e-22
-3.85863e-23
-3.62105e-21
-5.78941e-21
-2.37334e-21
1.47322e-21
5.7694e-21
4.12327e-21
-2.93294e-21
-4.38081e-21
-2.63849e-21
-2.39101e-21
-3.46435e-21
-3.36104e-21
-1.09265e-21
2.92001e-21
-9.52073e-22
1.05236e-22
9.3654e-22
-1.83577e-21
-1.143e-21
-4.01843e-22
-1.4572e-21
-4.02524e-21
-7.31207e-22
-2.61921e-21
5.27628e-22
7.25319e-22
-7.08805e-21
-6.49575e-21
-4.46164e-21
-6.73273e-21
-8.02171e-21
-6.17771e-21
-2.63056e-21
-3.00332e-21
-3.01659e-21
-1.21708e-21
-3.70549e-21
-2.18066e-21
-2.96235e-21
3.10678e-22
3.70594e-22
-7.1825e-21
-4.72889e-21
1.39898e-21
3.42165e-21
2.71559e-21
1.88591e-21
-2.14354e-21
-3.84046e-21
-2.03885e-21
-3.22068e-21
-1.9097e-21
-2.35583e-21
5.00328e-22
-1.8717e-22
-4.73276e-23
-1.84532e-21
-8.72031e-22
3.07536e-22
-9.32674e-23
-2.26835e-21
-3.46272e-21
-2.65322e-21
-2.3076e-21
-8.84645e-22
-5.60776e-22
-1.14534e-20
-9.09105e-21
-5.26943e-21
-5.6569e-21
-5.00821e-21
-4.29969e-21
-3.18527e-21
-4.58884e-21
-3.76845e-21
1.0796e-21
1.2872e-21
-5.29667e-21
-2.46652e-21
-1.91296e-22
-1.46654e-21
-4.57948e-21
-1.70305e-21
2.19962e-21
1.06138e-21
3.08804e-22
2.53776e-21
-6.06426e-22
-6.57387e-21
-4.12166e-21
-1.53076e-21
-7.39823e-22
-6.97283e-22
4.20789e-23
1.51123e-21
1.64659e-21
-4.88215e-21
-1.38343e-21
1.68123e-21
-9.03399e-22
-4.25255e-21
-4.35502e-21
-2.60561e-21
-1.38473e-21
1.77322e-21
1.00681e-21
-8.28e-21
-5.47853e-21
-4.07737e-21
-4.95673e-21
-6.86867e-21
-3.20583e-21
-8.10866e-22
-5.68482e-21
-3.30534e-21
-1.1529e-21
-1.61521e-22
-8.61309e-22
-4.06277e-21
-7.59291e-22
1.11307e-21
-3.7904e-21
-1.46401e-21
-1.09861e-21
1.61769e-21
1.70249e-22
2.15027e-21
-7.84095e-22
-4.25393e-21
-2.88471e-21
-5.03398e-21
-3.57761e-21
1.22227e-21
4.96987e-23
5.17724e-22
-6.02014e-22
-1.10404e-21
-4.14164e-22
1.7985e-21
-7.89682e-22
-2.03792e-21
-1.95732e-21
-2.10217e-21
-5.00201e-21
-1.57829e-21
-6.43684e-22
-7.90862e-21
-4.44766e-21
-3.13268e-21
-5.27323e-21
-5.16999e-21
-2.24696e-21
-9.4303e-22
-1.67723e-21
-3.66103e-21
-2.73084e-21
-1.30739e-21
-2.42237e-21
-5.68189e-21
-3.97485e-22
3.92099e-22
-1.20799e-21
-1.86338e-21
-8.36327e-22
-5.72543e-23
1.97638e-21
3.02105e-21
-3.0195e-21
-1.29487e-21
-4.83912e-21
-4.05122e-21
-1.443e-21
-1.04191e-21
-1.2911e-21
-1.61327e-22
-3.4631e-22
-8.43135e-22
1.40199e-21
2.2409e-21
-6.28066e-23
-6.77074e-22
-3.41613e-21
-2.2337e-21
6.36928e-22
-1.64068e-21
-3.11723e-21
-8.51794e-21
-3.93964e-21
-1.77103e-21
-3.42603e-21
-3.31023e-21
-5.66561e-21
-3.50102e-21
-2.12571e-21
-4.62398e-21
-3.52623e-21
-8.22364e-22
-2.70395e-21
-5.6002e-22
3.82059e-21
-3.50013e-22
-4.88213e-21
-5.03157e-21
-4.74647e-22
2.53766e-21
2.60226e-21
2.31607e-21
-3.86269e-21
-3.55454e-21
-2.67433e-21
-2.27174e-21
-7.6658e-22
-1.8042e-21
-4.34089e-21
-7.56943e-22
-6.36053e-22
1.08472e-21
7.38386e-22
8.77765e-22
-7.44049e-22
-1.73473e-21
-2.69596e-21
9.75975e-23
1.04499e-21
-3.43877e-22
-1.38934e-21
-4.44405e-21
-3.10816e-21
-2.59274e-21
-3.55347e-21
-2.86745e-21
-6.20248e-21
-3.71762e-21
-1.22917e-21
-2.45249e-21
-2.6118e-21
-3.64303e-21
-9.62907e-22
-6.89597e-22
5.29086e-22
1.31989e-21
-3.74411e-21
-3.50371e-21
9.22041e-22
3.20034e-21
1.85557e-21
1.88773e-21
-5.73804e-21
-3.78992e-21
-1.7346e-21
3.14394e-22
-2.0886e-24
-4.63046e-22
-1.42071e-21
-2.35463e-21
-1.53795e-21
1.06834e-21
6.39604e-22
-5.40042e-22
1.13172e-22
6.18117e-22
-1.6323e-21
5.19245e-22
1.06819e-21
-1.2702e-21
-2.74299e-21
-3.74152e-21
-2.77635e-21
5.75589e-23
-5.40804e-21
-2.07505e-21
-6.89173e-21
-3.41494e-21
-2.3833e-21
-1.75241e-21
-1.94005e-21
-4.08319e-21
-2.15326e-21
4.14457e-22
6.59795e-22
-2.19023e-21
-8.76222e-22
-1.51817e-21
1.98595e-21
3.76879e-21
1.51366e-21
1.81792e-21
-4.66213e-21
-2.2078e-21
-1.88758e-21
-2.21504e-21
-2.05495e-21
-8.35077e-22
5.29355e-22
7.91219e-22
-1.44074e-21
2.20823e-22
-3.13791e-22
9.69563e-22
2.36681e-22
-2.06933e-22
-7.97488e-22
2.30831e-21
1.7457e-21
-3.04929e-21
-2.5092e-21
-4.16767e-21
-2.84075e-21
-1.73676e-21
-1.76035e-21
-3.78091e-21
-6.97865e-21
-3.14329e-21
-2.15292e-21
-1.5882e-21
-2.33219e-21
-1.65506e-21
-2.60063e-21
8.94857e-22
2.34732e-22
-1.5183e-21
9.41857e-22
1.61764e-21
3.18041e-22
2.88265e-21
4.3086e-21
2.10423e-22
-2.50304e-21
-3.64568e-21
-5.30783e-21
-7.22868e-22
1.12628e-21
-2.01983e-21
-3.63739e-22
8.29468e-22
-1.54607e-21
-1.4208e-21
-7.90696e-22
-5.84847e-23
1.25121e-21
-1.95481e-22
-4.90547e-22
-6.29107e-23
1.87955e-21
-1.41564e-21
-2.20142e-21
-2.02361e-21
-5.94295e-23
-1.76517e-21
-4.42538e-21
-4.15816e-21
-4.65535e-21
-2.22898e-21
-1.2119e-21
-2.28104e-23
-2.75906e-21
-9.06269e-22
1.76504e-21
9.10781e-22
-2.68936e-22
-1.66302e-21
-4.57535e-22
-5.64299e-22
1.28027e-21
1.12095e-21
7.64275e-22
1.76566e-21
-2.948e-22
-3.25929e-21
-4.34801e-21
-3.50732e-21
1.0998e-21
1.81461e-21
2.24856e-21
-3.57848e-21
-4.22406e-21
6.58489e-23
-1.93042e-21
-6.98653e-22
1.08631e-21
3.41524e-22
-1.45285e-21
-1.4842e-21
4.89751e-22
-4.51909e-22
-5.0442e-24
-5.38853e-21
-1.46945e-21
-1.41252e-21
1.07871e-21
1.34237e-21
-1.50217e-21
-4.41798e-21
-2.56546e-21
-4.82441e-22
-2.30726e-21
-2.50732e-21
2.15507e-21
1.23497e-21
-5.04371e-22
-9.66745e-22
-1.67328e-21
-8.49705e-22
-5.51872e-22
1.12056e-21
8.89368e-22
7.87485e-22
-9.3097e-22
-1.80067e-21
-1.13982e-21
-1.34006e-21
2.76944e-22
7.61237e-22
1.10612e-21
-1.38477e-21
-5.939e-22
-8.72166e-22
-8.45687e-22
-1.11202e-21
-1.57017e-21
-3.72984e-22
-1.57505e-21
-3.28093e-21
-1.4629e-21
4.63499e-22
1.09298e-21
-2.97455e-23
-1.31875e-21
-8.6909e-21
-4.77433e-21
-2.39749e-21
-5.75594e-21
-2.78771e-21
2.84941e-22
-3.31538e-21
-5.60832e-21
-3.50351e-21
-4.47262e-21
-3.37528e-21
-2.31096e-21
-3.21675e-21
-3.50548e-21
-1.49307e-21
-9.61591e-22
1.44986e-21
1.0003e-21
-1.10432e-21
-1.92022e-21
-1.5811e-21
-8.10085e-22
-2.098e-21
-1.10118e-21
-1.02023e-21
-1.90647e-21
-2.93642e-21
-3.70709e-21
-4.84567e-21
2.02334e-22
-3.79999e-21
1.95637e-22
-2.43837e-23
-6.12817e-23
2.69373e-21
5.73491e-22
-8.61841e-22
9.38975e-22
-3.71658e-21
-5.45515e-21
-1.01066e-20
-8.55967e-21
-4.44554e-21
-5.80735e-21
-5.07622e-21
-2.98496e-21
-4.99077e-21
-5.96603e-21
-6.73788e-21
-4.53058e-21
-6.27799e-21
-4.5062e-21
-4.80771e-21
-1.55762e-21
7.74766e-22
-3.58095e-21
-6.34141e-22
6.37998e-23
-6.1596e-22
-1.61973e-21
-1.84295e-21
-2.61919e-21
-1.77793e-21
-6.19452e-22
1.40952e-21
2.256e-22
-2.56397e-21
-1.32812e-21
-1.16475e-21
-1.00671e-21
-4.34134e-21
-6.59446e-22
-1.17504e-21
3.30316e-22
1.96277e-21
1.08236e-21
-1.20187e-21
4.44387e-22
-7.04617e-21
-6.42657e-21
-8.63249e-21
-7.83119e-21
-6.79236e-21
-5.17542e-21
-5.05598e-21
-8.70289e-21
-5.42014e-21
-2.84689e-21
-5.6532e-21
-6.85746e-21
-4.05622e-21
-3.33617e-21
-3.9521e-21
-3.64813e-21
-2.62666e-21
-2.26129e-21
-7.86223e-22
-4.94148e-22
-1.86894e-21
-2.26835e-21
-7.02851e-22
-1.40456e-21
-1.04653e-21
1.58023e-21
1.21457e-21
-4.66688e-21
-2.34841e-21
-1.74997e-21
-1.06238e-21
-2.61133e-21
-1.85215e-21
9.64602e-23
-3.03143e-21
8.28987e-22
1.40543e-21
1.80578e-21
-3.56993e-22
8.55259e-23
-1.11417e-20
-1.03329e-20
-8.66667e-21
-8.51065e-21
-8.55727e-21
-8.41001e-21
-6.93071e-21
-5.09928e-21
-8.01486e-21
-4.21489e-21
-3.65088e-21
-6.6798e-21
-4.66341e-21
-2.51804e-21
-4.5344e-21
-4.74601e-21
-3.39123e-21
-3.85821e-21
-9.77344e-22
-4.08952e-22
-1.90765e-21
-2.50392e-21
-3.21187e-21
-2.96389e-21
-6.94596e-22
1.08844e-21
-3.08299e-23
7.98387e-22
-2.48405e-21
-3.79198e-21
5.36095e-22
-2.03518e-21
-2.57269e-21
1.02779e-21
4.96915e-22
-1.49463e-23
-8.95671e-22
-4.52376e-22
-7.70598e-22
6.25528e-23
-1.28739e-20
-1.20415e-20
-1.01473e-20
-8.58506e-21
-1.07209e-20
-8.70943e-21
-5.34767e-21
-5.69631e-21
-5.9461e-21
-6.55834e-21
-6.85089e-21
-6.71425e-21
-2.24862e-21
-3.4039e-21
-5.83343e-21
-6.87158e-21
-5.81553e-21
-3.34689e-21
-2.5279e-22
-2.0734e-22
-5.53643e-22
-2.23833e-21
-2.94463e-21
-3.13091e-21
-3.9605e-22
1.68572e-21
-9.88668e-22
-1.86793e-21
-2.53976e-21
-1.74639e-21
1.03743e-21
-4.65803e-22
-7.45532e-22
1.0295e-21
2.75781e-22
-5.27472e-22
-4.43352e-22
-1.92185e-21
-1.88742e-21
-3.43585e-22
-1.2075e-20
-1.25229e-20
-9.27171e-21
-9.2507e-21
-1.09924e-20
-8.4202e-21
-5.85534e-21
-8.29869e-21
-7.38406e-21
-7.30427e-21
-5.80227e-21
-7.01556e-21
-3.80564e-21
-3.73435e-21
-6.27173e-21
-5.94937e-21
-5.37214e-21
-2.41001e-21
-1.44174e-21
3.78964e-22
-9.25314e-22
-2.76303e-21
-4.15047e-21
-3.58846e-21
-1.76924e-21
5.0411e-22
8.6883e-22
-1.3158e-21
-3.00553e-21
-1.80823e-21
-1.3666e-21
-7.53975e-23
1.53153e-21
2.60918e-21
-4.56241e-22
-1.42202e-21
-1.22854e-21
-2.07211e-21
-1.41091e-21
6.22511e-22
-1.40845e-20
-1.54952e-20
-1.0989e-20
-1.11097e-20
-1.06141e-20
-5.78265e-21
-7.01345e-21
-6.74257e-21
-8.47753e-21
-9.93116e-21
-7.45819e-21
-5.02329e-21
-5.19204e-22
-3.34473e-21
-7.73507e-21
-7.02584e-21
-2.60882e-21
-6.32068e-22
2.53143e-22
-4.74955e-22
-1.83657e-21
-1.03053e-21
-4.69e-21
-6.17381e-21
-2.88513e-21
-1.06657e-21
-5.44417e-22
-1.41014e-21
4.80362e-22
2.60883e-22
6.62675e-22
-1.8832e-21
8.38812e-22
1.18771e-21
-9.25242e-22
-1.13889e-22
-4.53011e-23
-2.77373e-21
-3.01327e-21
1.74328e-21
-1.23502e-20
-1.43039e-20
-1.25845e-20
-1.24349e-20
-1.05694e-20
-6.1037e-21
-7.55056e-21
-7.70733e-21
-8.08512e-21
-6.87144e-21
-8.51953e-21
-7.71756e-21
-2.26623e-21
-1.6762e-21
-5.61578e-21
-5.62325e-21
-1.50084e-21
-7.73815e-22
-5.47104e-23
-2.16253e-22
-1.81327e-21
-4.45153e-21
-5.72624e-21
-2.61645e-21
-3.34603e-21
-4.53183e-22
-8.25891e-23
-2.89968e-22
-5.15283e-22
-1.05498e-21
-2.78717e-21
-1.73558e-21
-8.3079e-22
-4.55668e-22
-5.81925e-22
2.56188e-22
7.34548e-22
-1.15549e-21
-1.95854e-21
1.40969e-22
-1.35715e-20
-1.44343e-20
-1.43692e-20
-1.25132e-20
-1.0817e-20
-6.08376e-21
-9.24175e-21
-7.22222e-21
-7.60249e-21
-9.48283e-21
-7.61635e-21
-8.38036e-21
-3.74407e-21
-3.06566e-21
-2.66081e-21
-4.67607e-21
-4.73117e-21
-1.14353e-21
8.8749e-22
-7.87918e-22
2.3004e-22
-4.17785e-21
-5.00583e-21
-6.19262e-21
-2.41525e-21
-3.12567e-22
-1.78499e-21
-9.81595e-22
3.73978e-21
7.71718e-23
-1.82157e-21
-3.0162e-21
-3.64216e-21
2.51997e-22
-2.27617e-23
1.85967e-21
1.90053e-21
-2.57576e-21
-1.31453e-21
-1.58795e-21
-1.6043e-20
-1.31934e-20
-1.22168e-20
-1.45963e-20
-1.17567e-20
-8.48379e-21
-1.00176e-20
-9.63972e-21
-5.81278e-21
-7.21114e-21
-8.02676e-21
-7.71413e-21
-4.76421e-21
-2.07391e-21
-6.1025e-21
-4.35282e-21
-3.59165e-21
-1.04647e-21
1.17137e-21
2.0394e-21
-1.49485e-21
-5.53076e-21
-5.08542e-21
-6.46045e-21
-2.53045e-21
-1.4436e-21
1.95682e-23
-6.90205e-22
6.44079e-22
1.38883e-22
-5.73664e-23
1.33067e-22
-2.05837e-21
-3.03314e-21
4.08195e-22
1.16549e-21
1.12704e-21
-6.67125e-22
9.27433e-22
4.88657e-23
-1.57125e-20
-1.73328e-20
-1.57214e-20
-1.40185e-20
-1.09126e-20
-7.76194e-21
-1.10512e-20
-9.54967e-21
-8.28943e-21
-6.61231e-21
-7.93421e-21
-6.96614e-21
-5.31653e-21
-2.57345e-21
-6.36508e-21
-5.25718e-21
-9.6275e-22
-4.67553e-22
1.03074e-21
2.00655e-21
-4.92817e-21
-4.76305e-21
-4.55719e-21
-6.56623e-21
-4.27774e-21
-1.30893e-21
1.79457e-22
-1.96774e-21
-3.49562e-23
6.80544e-22
2.38003e-22
-1.56022e-22
4.69118e-22
-1.78127e-21
4.33846e-22
7.21332e-22
2.87841e-22
1.02253e-22
-2.7884e-22
-6.41141e-22
-1.84355e-20
-2.0756e-20
-1.40535e-20
-1.41983e-20
-1.13414e-20
-9.10569e-21
-1.09974e-20
-7.8618e-21
-7.61672e-21
-7.30478e-21
-7.93593e-21
-7.43494e-21
-5.89506e-21
-4.70417e-21
-5.80642e-21
-4.24278e-21
-3.0063e-21
-1.45181e-21
1.07718e-21
1.69549e-21
-1.73324e-21
-4.5894e-21
-5.82157e-21
-3.86241e-21
-4.78853e-21
-2.23266e-21
-2.48076e-21
-1.17864e-21
4.07525e-22
4.23898e-22
2.2669e-21
-7.41963e-22
-2.37173e-21
-1.93263e-21
-1.13794e-21
7.62354e-22
3.24911e-21
7.43409e-22
-1.27476e-21
-5.28036e-22
-1.95369e-20
-1.91296e-20
-1.45654e-20
-1.45965e-20
-1.35806e-20
-1.10553e-20
-6.83991e-21
-6.84815e-21
-8.10444e-21
-7.96824e-21
-7.31335e-21
-6.61732e-21
-5.76452e-21
-4.56143e-21
-5.82435e-21
-3.18567e-21
-2.43954e-21
-2.17029e-21
-2.6587e-21
4.89584e-22
-2.3318e-21
-1.30331e-21
-4.17549e-21
-3.84606e-21
-3.52579e-21
-1.71934e-21
-3.98099e-21
-2.32122e-21
-7.15242e-22
2.22867e-21
6.43067e-22
7.63596e-23
-2.37636e-21
-2.63567e-21
-2.6165e-21
2.38037e-22
2.38848e-21
2.0126e-22
-2.13997e-21
1.64615e-21
-2.24602e-20
-2.11486e-20
-1.65329e-20
-1.51028e-20
-1.25209e-20
-1.052e-20
-8.66723e-21
-6.55039e-21
-9.12474e-21
-9.10004e-21
-8.73711e-21
-5.87661e-21
-6.96509e-21
-6.57023e-21
-4.51106e-21
-3.49202e-21
-5.75345e-22
-1.33094e-21
-1.26944e-21
-3.32457e-22
-4.11585e-21
-3.98276e-21
-3.46845e-21
-6.22062e-21
-3.74813e-21
-1.59618e-21
-1.19256e-21
-1.20162e-21
-1.90835e-21
2.81766e-22
7.4749e-22
1.46616e-21
-1.07185e-21
-1.14968e-21
-2.57183e-21
1.31267e-23
2.07547e-21
-1.23283e-21
-2.71712e-21
9.38216e-22
-2.42018e-20
-2.02864e-20
-1.65039e-20
-1.23368e-20
-1.20617e-20
-1.02631e-20
-1.10266e-20
-8.18423e-21
-9.26617e-21
-8.84734e-21
-8.09928e-21
-6.32265e-21
-7.869e-21
-5.87597e-21
-4.80546e-21
-2.0682e-21
3.57441e-22
-3.3215e-22
-3.1399e-21
-3.18726e-21
-5.15511e-21
-5.54903e-21
-5.06503e-21
-4.51928e-21
-2.01116e-21
-1.42823e-21
-8.21025e-22
2.18953e-22
-1.97555e-21
-1.80781e-21
-3.25792e-21
1.20299e-21
2.22738e-21
8.41667e-22
-3.54385e-21
-4.80873e-21
7.49789e-23
1.24736e-21
-1.05485e-21
9.76363e-22
-2.0149e-20
-1.81365e-20
-1.73234e-20
-1.5553e-20
-1.31186e-20
-1.25575e-20
-1.14993e-20
-1.00577e-20
-8.84088e-21
-8.20947e-21
-9.3073e-21
-9.02815e-21
-1.0141e-20
-3.44363e-21
-9.72463e-22
-1.88937e-21
-5.39801e-22
-1.80829e-21
-1.92334e-21
-3.54579e-21
-5.67621e-21
-5.912e-21
-5.90907e-21
-4.64792e-21
-4.14609e-22
-1.86018e-21
-1.62555e-22
1.69672e-21
-1.67677e-21
-1.36354e-21
-3.58933e-21
2.13022e-21
3.27867e-21
5.93439e-23
-1.967e-21
-5.36881e-21
-2.07736e-21
-5.32773e-22
-1.80085e-21
-5.22694e-22
-1.78828e-20
-1.80255e-20
-1.66572e-20
-1.35832e-20
-1.37941e-20
-1.20153e-20
-1.19878e-20
-1.11891e-20
-9.60348e-21
-8.38086e-21
-9.29103e-21
-8.36102e-21
-8.82931e-21
-5.45785e-21
-1.56021e-21
5.46657e-22
-2.14754e-21
-1.99112e-21
-5.17656e-21
-3.54293e-21
-6.21857e-21
-3.67196e-21
-2.31292e-21
-4.57339e-21
5.064e-24
-2.36446e-21
4.89522e-22
2.42053e-21
-2.63678e-21
-1.73123e-21
-2.99504e-21
-3.8696e-22
2.83242e-21
4.58581e-22
-1.7263e-21
-2.9705e-21
-9.74023e-22
-1.89287e-21
-1.10153e-21
-1.80417e-22
-1.66978e-20
-1.78575e-20
-2.04291e-20
-1.52401e-20
-1.21668e-20
-1.25967e-20
-1.26097e-20
-9.027e-21
-9.15919e-21
-1.14698e-20
-9.58471e-21
-6.96347e-21
-7.30748e-21
-5.5054e-21
-2.27737e-21
-2.00082e-21
-2.95478e-21
-1.81956e-21
-6.21775e-22