/*--------------------------------*- C++ -*----------------------------------*\
| =========                 |                                                 |
| \\      /  F ield         | OpenFOAM: The Open Source CFD Toolbox           |
|  \\    /   O peration     | Version:  v2012                                 |
|   \\  /    A nd           | Website:  www.openfoam.com                      |
|    \\/     M anipulation  |                                                 |
\*---------------------------------------------------------------------------*/
FoamFile
{
    version     2.0;
    format      ascii;
    class       surfaceScalarField;
    location    "9";
    object      phi;
}
// * * * * * * * * * * * * * * * * * * * * * * * * * * * * * * * * * * * * * //

dimensions      [0 3 -1 0 0 0 0];
oriented        oriented;


internalField   nonuniform List<scalar> 
187200
(
1.875e-06
1.81762e-22
1.74932e-22
1.875e-06
1.70175e-22
1.69959e-22
1.875e-06
2.90365e-22
3.06465e-22
1.875e-06
1.27642e-22
1.48142e-22
1.875e-06
1.67278e-22
-8.73864e-24
1.875e-06
1.9666e-22
1.02512e-22
1.875e-06
1.83715e-22
1.22395e-22
1.875e-06
1.28222e-22
1.04328e-22
1.875e-06
9.97533e-23
1.57634e-22
1.875e-06
1.44064e-22
1.9345e-22
1.875e-06
1.52224e-22
7.91826e-23
1.875e-06
1.39901e-22
1.14506e-22
1.875e-06
5.32614e-23
9.8099e-23
1.875e-06
-1.11943e-23
1.95525e-23
1.875e-06
4.41452e-23
1.1988e-22
1.875e-06
7.06338e-23
6.72779e-23
1.875e-06
3.96439e-23
2.60558e-23
1.875e-06
3.43189e-23
4.57306e-23
1.875e-06
1.29733e-22
-1.04941e-22
1.875e-06
7.65787e-23
-1.79787e-22
1.875e-06
-1.53965e-22
-1.67279e-22
1.875e-06
-1.00255e-22
-7.42943e-23
1.875e-06
-1.13511e-24
4.7456e-23
1.875e-06
1.80075e-22
6.91878e-23
1.875e-06
1.05977e-22
-1.90087e-23
1.875e-06
2.96002e-23
3.31975e-23
1.875e-06
-3.54185e-23
6.62291e-23
1.875e-06
2.83478e-23
7.83579e-23
1.875e-06
-1.92546e-24
9.31861e-23
1.875e-06
-1.20894e-22
1.01717e-22
1.875e-06
-1.79967e-22
2.04679e-22
1.875e-06
-5.81342e-23
3.21353e-23
1.875e-06
-4.06502e-23
9.60416e-23
1.875e-06
-3.61085e-23
2.70221e-23
1.875e-06
3.39595e-25
-1.29871e-22
1.875e-06
-6.33872e-23
-2.13448e-22
1.875e-06
-2.25802e-22
-2.80566e-22
1.875e-06
-4.38825e-24
-7.57617e-25
1.875e-06
7.55556e-23
1.09668e-22
3.3093e-23
3.54864e-23
1.875e-06
1.63832e-22
1.816e-22
1.875e-06
1.28627e-22
2.98436e-22
1.875e-06
1.66596e-22
3.12279e-22
1.875e-06
1.88144e-22
3.64765e-22
1.875e-06
1.77268e-23
1.2927e-22
1.875e-06
5.80421e-23
9.05737e-23
1.875e-06
8.66617e-23
2.036e-22
1.875e-06
1.92596e-22
1.80749e-22
1.875e-06
8.67499e-23
2.78652e-22
1.875e-06
8.04854e-24
2.24145e-22
1.875e-06
8.89047e-23
2.19276e-22
1.875e-06
1.30083e-22
1.09938e-22
1.875e-06
4.84826e-23
2.48639e-22
1.875e-06
5.78107e-23
2.13511e-22
1.875e-06
-2.35587e-23
2.07454e-22
1.875e-06
-6.87911e-23
1.87435e-23
1.875e-06
1.3293e-22
-3.69793e-23
1.875e-06
1.69215e-22
2.03363e-22
1.875e-06
1.43608e-22
-5.16597e-23
1.875e-06
7.43414e-23
-1.27975e-22
1.875e-06
-2.85515e-24
-2.08246e-24
1.875e-06
-1.69398e-22
-2.11363e-23
1.875e-06
-6.1255e-23
2.03724e-23
1.875e-06
1.57033e-23
3.23787e-23
1.875e-06
-8.73453e-23
-2.54961e-23
1.875e-06
-2.95076e-23
5.482e-24
1.875e-06
7.14856e-23
2.08637e-23
1.875e-06
2.51278e-23
-8.92503e-24
1.875e-06
-2.76834e-23
9.37472e-23
1.875e-06
-1.5767e-23
1.57135e-22
1.875e-06
-3.20678e-24
2.1686e-22
1.875e-06
-1.93722e-23
1.52739e-22
1.875e-06
-7.48369e-23
1.63362e-22
1.875e-06
-1.39925e-22
-4.52876e-24
1.875e-06
-1.45019e-22
-1.13796e-22
1.875e-06
-1.96665e-22
-2.48852e-22
1.875e-06
-1.27824e-23
-1.7246e-22
1.875e-06
5.42421e-23
-3.50022e-23
1.875e-06
9.08653e-23
1.08838e-22
1.05909e-22
2.27534e-23
1.875e-06
1.24504e-22
2.32257e-22
1.875e-06
2.48386e-22
3.55744e-22
1.875e-06
6.30911e-23
2.94193e-22
1.875e-06
1.90996e-22
3.18378e-22
1.875e-06
1.39404e-22
2.76518e-22
1.875e-06
4.13743e-23
1.15229e-22
1.875e-06
1.13027e-22
2.1469e-22
1.875e-06
1.03974e-22
3.52069e-22
1.875e-06
1.70508e-22
3.44344e-22
1.875e-06
1.38419e-22
1.96511e-22
1.875e-06
2.29178e-23
1.73385e-22
1.875e-06
2.838e-23
1.81415e-22
1.875e-06
1.3142e-22
2.18571e-22
1.875e-06
1.46857e-23
1.96066e-22
1.875e-06
6.45822e-23
2.56491e-22
1.875e-06
1.32217e-22
1.94603e-22
1.875e-06
3.58682e-23
2.86468e-23
1.875e-06
7.70495e-23
4.35665e-23
1.875e-06
7.79938e-24
-1.07143e-22
1.875e-06
-8.29633e-23
-1.33316e-22
1.875e-06
-9.12993e-23
2.69883e-23
1.875e-06
-1.37095e-22
1.25028e-22
1.875e-06
1.68826e-23
3.46649e-23
1.875e-06
3.79889e-23
-8.8647e-24
1.875e-06
1.06268e-23
4.17614e-23
1.875e-06
2.21871e-23
-5.3931e-23
1.875e-06
-2.36717e-23
-2.04058e-23
1.875e-06
-8.39821e-23
1.30886e-22
1.875e-06
4.92877e-24
1.925e-22
1.875e-06
2.46806e-24
2.43739e-22
1.875e-06
-7.07367e-23
2.02839e-22
1.875e-06
-4.0095e-23
2.05239e-22
1.875e-06
5.28259e-23
1.69078e-22
1.875e-06
-1.14189e-22
4.90667e-23
1.875e-06
-1.51698e-22
4.54475e-24
1.875e-06
-1.09182e-23
-1.46176e-22
1.875e-06
-2.83421e-23
-1.60396e-22
1.875e-06
4.81655e-23
-1.60025e-22
1.875e-06
8.21118e-23
-4.04269e-23
9.76921e-23
-7.39791e-24
1.875e-06
2.94871e-22
3.00177e-22
1.875e-06
1.90022e-22
3.61691e-22
1.875e-06
1.40587e-22
3.75649e-22
1.875e-06
8.57558e-23
2.70154e-22
1.875e-06
3.9383e-23
3.29187e-22
1.875e-06
1.02048e-23
3.02078e-22
1.875e-06
3.13423e-23
2.67149e-22
1.875e-06
1.67159e-23
3.07477e-22
1.875e-06
7.54506e-23
3.55774e-22
1.875e-06
1.33735e-22
2.44447e-22
1.875e-06
7.49474e-23
1.55523e-22
1.875e-06
5.65134e-23
1.55864e-22
1.875e-06
-5.35231e-23
1.77368e-22
1.875e-06
-4.99201e-24
2.61574e-22
1.875e-06
1.31134e-22
2.62327e-22
1.875e-06
1.72331e-22
1.54875e-22
1.875e-06
6.59811e-23
5.89087e-23
1.875e-06
-7.18269e-23
4.83281e-23
1.875e-06
-1.32468e-22
-1.00258e-22
1.875e-06
-9.89057e-23
-1.13201e-22
1.875e-06
-1.11672e-22
7.1167e-23
1.875e-06
7.16267e-23
2.30518e-22
1.875e-06
1.44177e-22
9.73488e-23
1.875e-06
6.31711e-23
5.26455e-24
1.875e-06
-4.65927e-25
3.49998e-23
1.875e-06
-2.6307e-23
-2.57766e-23
1.875e-06
-2.46643e-23
2.14988e-23
1.875e-06
3.48559e-23
5.23407e-23
1.875e-06
1.13616e-23
1.46519e-22
1.875e-06
-6.44571e-23
2.16797e-22
1.875e-06
-8.83172e-23
1.35992e-22
1.875e-06
-2.1581e-23
2.27655e-22
1.875e-06
-6.41015e-23
6.72236e-23
1.875e-06
-4.86203e-23
1.08273e-23
1.875e-06
-2.67077e-23
-7.71197e-23
1.875e-06
-4.22183e-23
-1.63367e-22
1.875e-06
4.5155e-24
-3.57996e-23
1.875e-06
6.46839e-23
-4.58781e-23
1.875e-06
8.6945e-23
-6.18119e-23
2.60593e-23
-6.23125e-23
1.875e-06
-5.82717e-23
1.72092e-22
1.875e-06
2.38662e-24
3.85815e-22
1.875e-06
-2.58883e-23
3.95854e-22
1.875e-06
1.58396e-23
2.78369e-22
1.875e-06
5.97524e-23
3.95346e-22
1.875e-06
3.66057e-23
4.11808e-22
1.875e-06
3.3956e-23
3.23487e-22
1.875e-06
2.10849e-22
4.40203e-22
1.875e-06
8.79586e-23
3.45252e-22
1.875e-06
-3.55846e-24
2.63894e-22
1.875e-06
2.75476e-23
2.79636e-22
1.875e-06
-2.52549e-23
1.87296e-22
1.875e-06
1.25517e-22
2.21631e-22
1.875e-06
8.93188e-23
2.92468e-22
1.875e-06
2.01366e-23
2.03453e-22
1.875e-06
-1.1442e-23
1.17586e-22
1.875e-06
-2.23506e-23
1.17937e-22
1.875e-06
-8.80107e-23
5.47284e-23
1.875e-06
-1.20559e-22
7.57736e-25
1.875e-06
-9.74407e-23
-6.83835e-23
1.875e-06
8.94811e-25
8.44982e-23
1.875e-06
5.63055e-23
9.93387e-23
1.875e-06
6.85657e-23
-2.58199e-23
1.875e-06
4.85371e-23
1.32308e-23
1.875e-06
5.5514e-23
4.03329e-23
1.875e-06
4.00087e-23
-4.92952e-23
1.875e-06
6.03786e-23
7.41238e-23
1.875e-06
-1.68135e-23
1.12973e-22
1.875e-06
-1.22267e-22
1.30506e-22
1.875e-06
-2.39061e-23
2.14276e-22
1.875e-06
1.24653e-22
1.15828e-22
1.875e-06
2.67016e-23
1.04151e-22
1.875e-06
-7.86301e-23
3.86334e-23
1.875e-06
-4.30434e-23
-4.26705e-23
1.875e-06
-1.58074e-23
-1.50511e-22
1.875e-06
-3.33648e-23
-1.03369e-22
1.875e-06
6.49959e-23
-3.74727e-23
1.875e-06
7.72984e-23
-2.28434e-23
1.875e-06
3.51241e-23
-1.54619e-23
4.30272e-23
-3.24899e-23
1.875e-06
-8.51271e-24
2.78577e-22
1.875e-06
4.47458e-23
4.72204e-22
1.875e-06
7.17726e-23
4.55883e-22
1.875e-06
5.29477e-23
4.30735e-22
1.875e-06
8.56581e-23
4.2442e-22
1.875e-06
7.12033e-23
3.94301e-22
1.875e-06
4.27867e-23
4.2911e-22
1.875e-06
2.93602e-23
4.46521e-22
1.875e-06
7.84796e-23
3.91009e-22
1.875e-06
1.30725e-23
3.41499e-22
1.875e-06
1.33027e-23
2.71339e-22
1.875e-06
4.48405e-23
2.78329e-22
1.875e-06
1.77934e-23
2.09003e-22
1.875e-06
9.392e-23
2.51659e-22
1.875e-06
3.30851e-23
2.51227e-22
1.875e-06
-6.4515e-23
1.78852e-22
1.875e-06
-8.01314e-23
1.84417e-22
1.875e-06
-1.28431e-22
5.3775e-23
1.875e-06
-2.36123e-22
5.83461e-23
1.875e-06
-1.17954e-22
-1.83417e-23
1.875e-06
5.8783e-23
5.56915e-23
1.875e-06
1.39264e-22
8.57987e-23
1.875e-06
1.11628e-22
8.25914e-24
1.875e-06
3.62094e-23
3.42646e-23
1.875e-06
6.31374e-23
7.09384e-23
1.875e-06
-2.06106e-24
6.59857e-24
1.875e-06
-4.80031e-23
-2.88407e-24
1.875e-06
-5.37866e-23
3.76649e-23
1.875e-06
-7.70958e-23
1.91055e-22
1.875e-06
4.35065e-23
2.56372e-22
1.875e-06
7.02961e-23
1.35912e-22
1.875e-06
4.74028e-23
3.75111e-23
1.875e-06
4.88767e-24
-4.16812e-23
1.875e-06
3.11202e-23
-7.94691e-23
1.875e-06
9.08573e-25
-1.41711e-22
1.875e-06
-5.54251e-24
-7.0076e-23
1.875e-06
-9.95242e-23
-1.11063e-22
1.875e-06
5.04786e-23
-8.82997e-23
1.875e-06
1.04684e-22
-3.89411e-23
8.53272e-23
-1.01458e-22
1.875e-06
-1.0763e-23
3.53531e-22
1.875e-06
4.64674e-23
5.79171e-22
1.875e-06
1.08973e-22
5.48797e-22
1.875e-06
5.19684e-23
5.25451e-22
1.875e-06
8.90008e-23
4.97664e-22
1.875e-06
2.85747e-23
3.60824e-22
1.875e-06
4.79038e-23
4.40285e-22
1.875e-06
3.26532e-23
3.72341e-22
1.875e-06
-7.99181e-24
4.04522e-22
1.875e-06
1.04445e-22
4.82233e-22
1.875e-06
1.42741e-22
3.58308e-22
1.875e-06
4.34857e-23
2.16262e-22
1.875e-06
2.72184e-23
9.63738e-23
1.875e-06
2.77895e-23
2.09931e-22
1.875e-06
-1.26166e-24
3.07937e-22
1.875e-06
1.62413e-23
2.55236e-22
1.875e-06
-4.85186e-24
1.35605e-22
1.875e-06
-1.98069e-23
1.12794e-22
1.875e-06
-3.47029e-23
1.1158e-22
1.875e-06
-1.39303e-22
5.32829e-23
1.875e-06
4.19306e-23
9.91801e-23
1.875e-06
1.50952e-22
-3.29369e-24
1.875e-06
6.23497e-23
-3.31797e-23
1.875e-06
-5.97717e-23
1.19182e-22
1.875e-06
-1.24226e-23
9.57149e-23
1.875e-06
2.66812e-23
9.62947e-23
1.875e-06
-4.16278e-23
-1.48544e-23
1.875e-06
-1.89746e-22
1.57741e-23
1.875e-06
-1.20133e-22
7.52449e-23
1.875e-06
-1.41057e-23
6.61888e-23
1.875e-06
1.08067e-22
4.30724e-23
1.875e-06
8.04854e-23
1.12528e-22
1.875e-06
1.27793e-22
-6.05529e-23
1.875e-06
1.09276e-22
-3.79541e-23
1.875e-06
5.80626e-23
-5.7279e-23
1.875e-06
1.24441e-23
-1.60519e-22
1.875e-06
6.12991e-23
-1.08194e-22
1.875e-06
-1.49688e-23
-1.51445e-22
1.875e-06
-7.51408e-23
-1.04781e-22
-4.28178e-23
-2.19263e-22
1.875e-06
2.12822e-22
3.40287e-22
1.875e-06
1.17701e-22
5.43151e-22
1.875e-06
5.8465e-23
5.73035e-22
1.875e-06
1.52171e-22
6.48343e-22
1.875e-06
7.98e-23
5.83857e-22
1.875e-06
1.02652e-22
4.12888e-22
1.875e-06
1.09449e-22
4.51009e-22
1.875e-06
5.33891e-24
4.2473e-22
1.875e-06
-4.6288e-23
4.50067e-22
1.875e-06
9.54922e-23
3.75274e-22
1.875e-06
7.48764e-23
2.92626e-22
1.875e-06
8.11367e-23
2.97935e-22
1.875e-06
-2.15431e-23
1.12939e-22
1.875e-06
4.42308e-23
1.65532e-22
1.875e-06
-6.61689e-23
2.55604e-22
1.875e-06
6.4247e-24
1.73115e-22
1.875e-06
1.33274e-22
6.95346e-23
1.875e-06
-2.25287e-23
1.3612e-22
1.875e-06
1.22818e-23
1.86093e-22
1.875e-06
3.6414e-23
1.97832e-22
1.875e-06
3.05493e-24
7.40128e-23
1.875e-06
9.13312e-23
2.80572e-23
1.875e-06
6.97927e-23
1.50198e-23
1.875e-06
1.45427e-23
7.13966e-23
1.875e-06
-9.53193e-23
1.24946e-22
1.875e-06
2.724e-23
7.00642e-23
1.875e-06
-8.70899e-23
7.39803e-24
1.875e-06
-1.21116e-22
5.54043e-23
1.875e-06
-4.40866e-23
1.19673e-22
1.875e-06
-2.18089e-23
8.38129e-23
1.875e-06
-1.17024e-22
1.65936e-23
1.875e-06
8.35027e-24
4.99572e-23
1.875e-06
2.20437e-22
-4.87117e-24
1.875e-06
1.67213e-22
2.56997e-23
1.875e-06
5.78928e-23
-1.38987e-22
1.875e-06
-2.19907e-23
-1.71331e-22
1.875e-06
5.0738e-23
-2.08861e-22
1.875e-06
-7.10317e-23
-1.55499e-22
1.875e-06
-1.3554e-22
-9.61448e-23
-1.19056e-22
-1.26782e-22
1.875e-06
-1.8018e-22
1.38883e-22
1.875e-06
5.55124e-23
4.59246e-22
1.875e-06
1.63002e-22
6.82687e-22
1.875e-06
1.25311e-22
6.04673e-22
1.875e-06
1.56521e-22
5.56767e-22
1.875e-06
9.10618e-23
4.6719e-22
1.875e-06
3.61147e-23
5.2261e-22
1.875e-06
8.73438e-23
5.05393e-22
1.875e-06
5.79727e-23
5.09048e-22
1.875e-06
-7.89563e-23
4.05212e-22
1.875e-06
-1.04315e-23
2.76791e-22
1.875e-06
-4.36242e-23
2.15678e-22
1.875e-06
7.78785e-23
2.62717e-22
1.875e-06
-7.00777e-23
1.76467e-22
1.875e-06
1.06412e-22
2.23931e-22
1.875e-06
1.96727e-23
1.72751e-22
1.875e-06
-4.58379e-23
1.02081e-22
1.875e-06
1.05608e-22
1.92205e-22
1.875e-06
5.36078e-23
1.43436e-22
1.875e-06
-1.04907e-23
1.49468e-22
1.875e-06
-1.30764e-23
7.49671e-23
1.875e-06
2.57313e-23
-1.23021e-24
1.875e-06
-1.83369e-23
-9.1724e-24
1.875e-06
2.23906e-23
2.20758e-22
1.875e-06
6.70429e-23
1.99776e-22
1.875e-06
-5.36301e-23
1.82404e-23
1.875e-06
-6.53572e-23
2.03626e-23
1.875e-06
-6.6119e-24
8.43231e-23
1.875e-06
7.74549e-23
-5.49272e-23
1.875e-06
-1.58215e-23
2.6809e-23
1.875e-06
-1.25116e-23
4.05415e-23
1.875e-06
-6.32653e-23
7.3903e-23
1.875e-06
-1.378e-22
-1.3874e-23
1.875e-06
1.19506e-22
-5.80856e-23
1.875e-06
1.36199e-22
-1.49827e-22
1.875e-06
1.48815e-22
-2.31639e-22
1.875e-06
-4.3637e-23
-2.97245e-22
1.875e-06
-8.77453e-23
-6.6702e-23
1.875e-06
-9.9571e-23
-1.20564e-23
-4.976e-23
4.27997e-23
1.875e-06
-1.39967e-23
4.2188e-22
1.875e-06
9.09436e-23
5.03299e-22
1.875e-06
7.67852e-23
5.78337e-22
1.875e-06
2.00603e-22
6.85279e-22
1.875e-06
7.22759e-23
5.88712e-22
1.875e-06
1.3363e-22
5.84908e-22
1.875e-06
2.1204e-22
6.40837e-22
1.875e-06
8.8753e-23
5.21979e-22
1.875e-06
1.27683e-23
4.19961e-22
1.875e-06
4.15974e-23
3.97332e-22
1.875e-06
-3.5209e-23
3.25276e-22
1.875e-06
-2.10258e-23
3.15799e-22
1.875e-06
-4.63824e-23
2.78033e-22
1.875e-06
3.22815e-23
2.53927e-22
1.875e-06
3.74302e-24
2.48061e-22
1.875e-06
8.01336e-24
1.8117e-22
1.875e-06
-7.32662e-23
8.86055e-23
1.875e-06
-4.19732e-24
1.00552e-22
1.875e-06
-2.34368e-23
1.25189e-22
1.875e-06
1.09252e-22
1.48169e-22
1.875e-06
2.04794e-22
2.16865e-22
1.875e-06
1.16786e-22
7.24984e-23
1.875e-06
-5.22465e-23
3.74007e-23
1.875e-06
1.29311e-24
2.12606e-22
1.875e-06
4.37662e-23
1.77051e-22
1.875e-06
6.85138e-24
8.75541e-23
1.875e-06
-2.49899e-23
-4.57078e-24
1.875e-06
5.60647e-23
4.91061e-23
1.875e-06
-2.5121e-24
-6.68306e-23
1.875e-06
-7.33117e-23
-8.81728e-24
1.875e-06
-2.63879e-23
-6.71641e-23
1.875e-06
-2.34267e-23
-7.29123e-23
1.875e-06
-1.27351e-22
-3.34556e-24
1.875e-06
-1.41738e-22
-2.78574e-23
1.875e-06
7.57649e-23
-1.88586e-22
1.875e-06
1.45826e-22
-3.07459e-22
1.875e-06
-9.05063e-24
-2.50029e-22
1.875e-06
-1.92816e-22
-1.37305e-22
1.875e-06
-1.33905e-22
-5.08768e-23
-7.64675e-23
-3.25385e-23
1.875e-06
9.53916e-23
4.61317e-22
1.875e-06
1.5805e-22
6.67316e-22
1.875e-06
2.10896e-22
7.93918e-22
1.875e-06
5.33382e-23
6.24848e-22
1.875e-06
4.2044e-23
5.71937e-22
1.875e-06
1.13477e-22
5.4718e-22
1.875e-06
9.5579e-23
5.46569e-22
1.875e-06
4.51117e-23
4.94522e-22
1.875e-06
1.75931e-23
4.62492e-22
1.875e-06
-6.85678e-24
3.25743e-22
1.875e-06
2.14623e-23
3.55815e-22
1.875e-06
5.93616e-24
3.76978e-22
1.875e-06
5.50693e-23
3.22691e-22
1.875e-06
9.75436e-23
2.70215e-22
1.875e-06
-1.19038e-23
2.64891e-22
1.875e-06
-6.87759e-23
2.29652e-22
1.875e-06
-1.16286e-23
1.47882e-22
1.875e-06
-2.24487e-25
1.22893e-22
1.875e-06
1.20182e-22
1.4676e-22
1.875e-06
5.13906e-23
6.5745e-23
1.875e-06
1.02792e-22
1.38423e-22
1.875e-06
-6.8895e-23
2.70268e-23
1.875e-06
1.67287e-23
7.5427e-23
1.875e-06
5.77249e-23
2.08592e-22
1.875e-06
-6.18499e-23
1.44195e-22
1.875e-06
-1.55419e-22
2.61874e-23
1.875e-06
-4.97639e-23
-4.02559e-23
1.875e-06
1.13097e-22
3.90002e-23
1.875e-06
1.00926e-22
-9.10084e-23
1.875e-06
-1.50663e-22
-1.89548e-23
1.875e-06
-1.01387e-22
-6.03992e-23
1.875e-06
3.73161e-23
-6.4783e-23
1.875e-06
-5.03956e-23
-6.35207e-23
1.875e-06
-4.2018e-23
-1.92105e-23
1.875e-06
4.53967e-23
-2.53041e-22
1.875e-06
-4.13607e-23
-3.17775e-22
1.875e-06
-5.63207e-23
-1.87006e-22
1.875e-06
5.04769e-24
-2.9378e-23
1.875e-06
-2.44463e-23
1.81949e-23
-2.40289e-23
4.80616e-23
1.875e-06
2.10085e-22
5.27731e-22
1.875e-06
1.93782e-22
7.18595e-22
1.875e-06
1.64884e-22
6.82724e-22
1.875e-06
4.13125e-23
6.9627e-22
1.875e-06
8.21716e-23
6.71016e-22
1.875e-06
4.98932e-23
5.43568e-22
1.875e-06
1.03185e-22
5.27024e-22
1.875e-06
2.33943e-23
4.47815e-22
1.875e-06
2.30815e-23
4.47667e-22
1.875e-06
3.79466e-23
3.46526e-22
1.875e-06
1.71574e-23
3.41191e-22
1.875e-06
-1.40202e-23
3.5769e-22
1.875e-06
-7.22595e-24
2.91181e-22
1.875e-06
7.70646e-23
2.6005e-22
1.875e-06
1.18993e-23
3.09487e-22
1.875e-06
-5.48051e-23
2.62658e-22
1.875e-06
-1.07394e-22
2.13827e-22
1.875e-06
1.05433e-23
1.69719e-22
1.875e-06
7.67877e-23
4.37645e-23
1.875e-06
1.91956e-22
6.92365e-23
1.875e-06
-1.93015e-23
2.70564e-23
1.875e-06
-3.77377e-23
1.20338e-22
1.875e-06
-5.4198e-23
1.24333e-22
1.875e-06
-1.03215e-22
7.52719e-23
1.875e-06
-1.98983e-23
1.71941e-22
1.875e-06
-5.19654e-23
1.33211e-22
1.875e-06
-5.74072e-23
9.00308e-23
1.875e-06
7.08084e-23
-2.59985e-23
1.875e-06
5.17421e-24
-1.63564e-22
1.875e-06
1.29139e-22
2.2175e-23
1.875e-06
6.87704e-23
-4.8961e-23
1.875e-06
-1.53269e-22
-1.48004e-22
1.875e-06
-3.87568e-23
4.67754e-23
1.875e-06
-2.17353e-23
1.38296e-23
1.875e-06
-5.81033e-23
-2.20464e-22
1.875e-06
1.4182e-23
-2.3935e-22
1.875e-06
7.59955e-23
-2.2691e-22
1.875e-06
7.79312e-23
-5.97422e-23
1.875e-06
1.06005e-22
5.76593e-23
3.76765e-23
-3.34174e-24
1.875e-06
1.28355e-23
4.52773e-22
1.875e-06
9.26347e-23
6.6669e-22
1.875e-06
1.02385e-22
6.24861e-22
1.875e-06
7.39677e-23
7.46626e-22
1.875e-06
6.9134e-24
7.3692e-22
1.875e-06
-1.07733e-23
5.95452e-22
1.875e-06
-6.97158e-23
3.89361e-22
1.875e-06
7.97373e-24
4.56192e-22
1.875e-06
1.91165e-22
4.89456e-22
1.875e-06
2.21268e-22
3.75934e-22
1.875e-06
3.68635e-23
2.86113e-22
1.875e-06
-4.96855e-23
3.22984e-22
1.875e-06
3.93117e-23
3.20682e-22
1.875e-06
6.47666e-23
2.2008e-22
1.875e-06
-3.01379e-23
3.43932e-22
1.875e-06
-5.37086e-23
2.68924e-22
1.875e-06
-9.30459e-23
2.76185e-22
1.875e-06
-3.74798e-23
1.39968e-22
1.875e-06
-1.15608e-23
1.06267e-22
1.875e-06
2.52198e-23
4.22496e-23
1.875e-06
9.92211e-23
1.32289e-22
1.875e-06
8.15484e-23
9.71791e-23
1.875e-06
4.68198e-23
1.44878e-22
1.875e-06
4.84462e-23
1.41191e-22
1.875e-06
-1.56724e-22
1.16104e-22
1.875e-06
-1.03773e-22
1.72043e-22
1.875e-06
-8.50582e-24
1.914e-22
1.875e-06
6.70991e-24
-3.16273e-23
1.875e-06
1.48472e-22
-8.70054e-23
1.875e-06
1.02653e-22
-1.38726e-22
1.875e-06
-3.28238e-23
-1.69613e-22
1.875e-06
-1.54971e-22
-1.19453e-22
1.875e-06
-1.45976e-22
4.07116e-23
1.875e-06
-9.56651e-23
1.31971e-23
1.875e-06
2.43162e-23
-9.01796e-23
1.875e-06
-6.44521e-24
-1.61593e-22
1.875e-06
1.05513e-22
-1.69665e-22
1.875e-06
1.21051e-22
-1.75868e-22
1.875e-06
1.30061e-22
-4.59102e-23
-4.92634e-23
-6.79178e-23
1.875e-06
-6.09726e-23
6.32136e-22
1.875e-06
5.98656e-23
7.15725e-22
1.875e-06
9.85766e-23
6.68918e-22
1.875e-06
-4.82142e-23
7.86994e-22
1.875e-06
-6.02676e-23
7.21658e-22
1.875e-06
-1.51428e-23
6.50099e-22
1.875e-06
6.60176e-23
5.31123e-22
1.875e-06
1.59965e-22
5.20545e-22
1.875e-06
4.4935e-23
3.76425e-22
1.875e-06
-4.37444e-23
2.37314e-22
1.875e-06
-1.30056e-23
3.84117e-22
1.875e-06
1.93758e-22
4.25518e-22
1.875e-06
4.00853e-23
3.16749e-22
1.875e-06
-1.66486e-22
2.21911e-22
1.875e-06
-1.13472e-22
3.35021e-22
1.875e-06
-5.93096e-23
2.44831e-22
1.875e-06
1.61847e-23
2.3579e-22
1.875e-06
1.23111e-23
1.30782e-22
1.875e-06
1.03241e-22
1.29826e-22
1.875e-06
7.79434e-23
1.30198e-22
1.875e-06
1.42146e-22
1.46616e-22
1.875e-06
-4.50805e-23
1.48924e-22
1.875e-06
-2.69195e-23
1.06473e-22
1.875e-06
-5.32736e-23
1.17729e-22
1.875e-06
-1.08757e-22
2.13711e-22
1.875e-06
2.53602e-23
2.02742e-22
1.875e-06
5.31505e-23
8.78696e-23
1.875e-06
-2.43052e-23
-6.65034e-23
1.875e-06
5.14684e-23
-1.51066e-22
1.875e-06
1.79378e-22
-7.89688e-23
1.875e-06
8.22469e-23
-1.39678e-22
1.875e-06
-9.50011e-23
-1.11185e-22
1.875e-06
-1.24389e-22
-5.68767e-23
1.875e-06
-1.23064e-22
-4.13793e-23
1.875e-06
-1.38598e-22
-7.68102e-23
1.875e-06
1.39224e-22
-7.55341e-23
1.875e-06
5.78381e-23
-2.00477e-22
1.875e-06
8.77009e-23
-1.60312e-22
1.875e-06
3.94756e-23
-1.50245e-22
-8.31783e-23
-1.09556e-22
1.875e-06
-3.70072e-23
7.47151e-22
1.875e-06
-1.07877e-22
6.88141e-22
1.875e-06
-5.38427e-23
6.60557e-22
1.875e-06
5.21117e-23
7.80165e-22
1.875e-06
1.31799e-22
7.77231e-22
1.875e-06
1.90728e-24
6.6631e-22
1.875e-06
-2.44709e-23
5.87385e-22
1.875e-06
6.39305e-23
4.47778e-22
1.875e-06
2.88561e-23
4.03914e-22
1.875e-06
-1.22858e-22
3.49213e-22
1.875e-06
9.19664e-23
4.64481e-22
1.875e-06
-4.01573e-24
2.86566e-22
1.875e-06
-8.80573e-23
3.44876e-22
1.875e-06
-4.85441e-23
3.87469e-22
1.875e-06
-4.59095e-24
3.56852e-22
1.875e-06
-1.67883e-23
2.13965e-22
1.875e-06
-1.02471e-23
9.51998e-23
1.875e-06
-7.38057e-24
5.04909e-23
1.875e-06
-5.68884e-23
7.45234e-23
1.875e-06
1.1984e-22
2.00465e-22
1.875e-06
6.83526e-23
1.54216e-22
1.875e-06
1.55771e-22
3.43516e-22
1.875e-06
-2.10216e-23
2.46077e-22
1.875e-06
-1.48005e-22
1.45335e-22
1.875e-06
-4.25404e-23
2.31966e-22
1.875e-06
1.51361e-24
1.45794e-22
1.875e-06
3.8704e-23
1.09612e-23
1.875e-06
-9.40288e-24
-8.53647e-23
1.875e-06
-9.1366e-23
-1.23314e-22
1.875e-06
8.24043e-23
-1.43444e-22
1.875e-06
1.53826e-22
-3.58437e-23
1.875e-06
3.34238e-23
-1.16615e-22
1.875e-06
-5.3325e-23
-1.93731e-22
1.875e-06
-1.29097e-22
-1.44165e-22
1.875e-06
-1.37085e-22
1.04856e-22
1.875e-06
-3.46005e-23
-5.17057e-24
1.875e-06
1.14998e-22
-7.76245e-23
1.875e-06
1.29216e-22
-2.03797e-22
1.875e-06
1.94747e-23
-2.32923e-22
1.00211e-22
-1.99897e-22
1.875e-06
-9.23758e-23
5.83395e-22
1.875e-06
-1.35465e-22
6.65768e-22
1.875e-06
4.94179e-24
7.87961e-22
1.875e-06
1.42813e-23
8.42115e-22
1.875e-06
-1.0594e-22
7.10402e-22
1.875e-06
3.62292e-23
7.5944e-22
1.875e-06
1.02644e-22
6.50418e-22
1.875e-06
5.48895e-23
4.83864e-22
1.875e-06
-7.9128e-23
4.46973e-22
1.875e-06
5.58305e-23
4.53421e-22
1.875e-06
3.96654e-23
4.37916e-22
1.875e-06
-7.3876e-23
4.11023e-22
1.875e-06
-1.39923e-22
5.47003e-22
1.875e-06
-5.03533e-23
3.6956e-22
1.875e-06
-1.5025e-23
2.08535e-22
1.875e-06
-6.92673e-23
1.51057e-22
1.875e-06
-9.92051e-24
5.81686e-23
1.875e-06
-1.57243e-23
7.17289e-23
1.875e-06
8.53468e-23
1.5013e-22
1.875e-06
1.32936e-22
2.04295e-22
1.875e-06
1.17666e-22
1.52691e-22
1.875e-06
3.8272e-23
2.19728e-22
1.875e-06
-2.61574e-23
2.94116e-22
1.875e-06
-1.1666e-22
3.0277e-22
1.875e-06
-1.26272e-23
1.49688e-22
1.875e-06
-3.50525e-23
1.42105e-22
1.875e-06
-3.33062e-23
-4.49219e-23
1.875e-06
-1.1606e-22
-1.34429e-22
1.875e-06
-9.81078e-23
-2.87087e-23
1.875e-06
1.97212e-23
-1.78895e-22
1.875e-06
8.42475e-23
-1.42501e-22
1.875e-06
1.39306e-22
-2.21757e-22
1.875e-06
-7.70842e-24
-2.7699e-22
1.875e-06
-6.46256e-23
-1.0076e-22
1.875e-06
6.43245e-23
1.25233e-22
1.875e-06
-6.82241e-23
1.07917e-22
1.875e-06
-1.38522e-24
-9.36538e-25
1.875e-06
8.04248e-23
-2.08853e-22
1.875e-06
5.1346e-23
-2.09973e-22
9.53295e-23
-1.62874e-22
1.875e-06
-8.36788e-23
5.15997e-22
1.875e-06
-6.43324e-23
7.68233e-22
1.875e-06
1.0018e-23
7.99716e-22
1.875e-06
-2.25105e-23
8.17555e-22
1.875e-06
-2.91533e-23
8.38164e-22
1.875e-06
-2.43689e-24
7.31711e-22
1.875e-06
-5.43077e-23
5.73673e-22
1.875e-06
-1.20221e-23
4.62002e-22
1.875e-06
1.03687e-23
5.82298e-22
1.875e-06
-8.72192e-24
4.85636e-22
1.875e-06
-3.47764e-23
4.27141e-22
1.875e-06
-3.1415e-23
4.89556e-22
1.875e-06
-4.65309e-23
6.19867e-22
1.875e-06
-2.5563e-23
4.32789e-22
1.875e-06
-8.6831e-24
2.05973e-22
1.875e-06
-1.11338e-23
9.21886e-23
1.875e-06
1.29246e-23
9.81555e-23
1.875e-06
7.90507e-23
1.29486e-22
1.875e-06
4.7725e-23
1.88722e-22
1.875e-06
1.06644e-22
6.99056e-23
1.875e-06
6.67712e-23
1.60813e-22
1.875e-06
6.80494e-23
1.73136e-22
1.875e-06
-7.06378e-23
1.53422e-22
1.875e-06
-3.78706e-23
2.66543e-22
1.875e-06
-7.50704e-23
1.30809e-22
1.875e-06
2.88292e-23
2.06795e-22
1.875e-06
-5.92134e-23
-1.96552e-23
1.875e-06
-1.5123e-22
-5.02644e-23
1.875e-06
-2.86438e-23
1.28623e-22
1.875e-06
-1.01841e-22
-1.24973e-22
1.875e-06
-1.02052e-22
-2.30932e-22
1.875e-06
5.75481e-23
-1.83829e-22
1.875e-06
8.05414e-23
-2.03084e-22
1.875e-06
1.30334e-22
-9.21269e-23
1.875e-06
1.05408e-22
6.23614e-24
1.875e-06
9.03249e-23
-1.57383e-23
1.875e-06
-8.31311e-24
-4.42383e-23
1.875e-06
-1.30118e-22
-1.82425e-22
1.875e-06
-9.16877e-23
-2.08918e-22
-2.62158e-23
-1.849e-22
1.875e-06
-2.35169e-23
5.84038e-22
1.875e-06
-1.60937e-22
7.91813e-22
1.875e-06
-2.04204e-22
8.45506e-22
1.875e-06
2.2068e-23
8.81003e-22
1.875e-06
1.47143e-22
8.60152e-22
1.875e-06
1.13933e-23
7.19572e-22
1.875e-06
-3.00465e-23
6.79169e-22
1.875e-06
-1.72877e-22
4.31843e-22
1.875e-06
-8.09887e-23
5.17803e-22
1.875e-06
-4.16004e-24
5.98472e-22
1.875e-06
-4.25235e-23
4.64082e-22
1.875e-06
2.45797e-23
4.83829e-22
1.875e-06
3.43991e-23
5.91038e-22
1.875e-06
-1.31455e-23
4.31194e-22
1.875e-06
2.54151e-23
2.31965e-22
1.875e-06
-1.50756e-23
1.73826e-22
1.875e-06
3.90053e-23
1.23538e-22
1.875e-06
1.0586e-22
9.26365e-23
1.875e-06
2.44943e-22
6.95422e-23
1.875e-06
1.58004e-22
1.67467e-23
1.875e-06
-9.12676e-23
5.16812e-23
1.875e-06
-2.26385e-22
1.89896e-22
1.875e-06
-1.69663e-23
2.5196e-22
1.875e-06
-2.78145e-24
1.73481e-22
1.875e-06
1.82677e-25
1.61093e-22
1.875e-06
-8.72019e-23
4.47576e-23
1.875e-06
-4.52933e-23
8.62617e-23
1.875e-06
-4.19237e-23
7.6133e-23
1.875e-06
-1.41834e-22
2.65158e-24
1.875e-06
-3.33349e-23
-1.46684e-23
1.875e-06
1.87301e-23
-7.78635e-23
1.875e-06
-3.04469e-23
-2.09534e-22
1.875e-06
4.72869e-23
-2.30083e-22
1.875e-06
9.51355e-23
-1.62407e-22
1.875e-06
2.90609e-23
-7.25118e-23
1.875e-06
7.07848e-23
-8.12977e-23
1.875e-06
4.20974e-24
-3.57992e-23
1.875e-06
-8.68563e-23
-1.36703e-22
1.875e-06
5.35488e-25
-2.08919e-22
7.64002e-23
-1.60107e-22
1.875e-06
-4.02641e-23
5.89677e-22
1.875e-06
-6.55803e-23
8.67099e-22
1.875e-06
-2.10704e-23
9.01268e-22
1.875e-06
-1.78679e-23
8.92361e-22
1.875e-06
-3.87213e-23
7.44856e-22
1.875e-06
-5.2821e-23
7.14945e-22
1.875e-06
-8.84284e-23
6.59422e-22
1.875e-06
-8.22856e-23
5.58011e-22
1.875e-06
-8.19823e-24
6.04017e-22
1.875e-06
-4.90845e-23
6.31557e-22
1.875e-06
1.13588e-23
4.51121e-22
1.875e-06
4.90422e-23
4.7831e-22
1.875e-06
1.71694e-22
6.02235e-22
1.875e-06
5.0712e-23
4.16753e-22
1.875e-06
3.5378e-25
2.01736e-22
1.875e-06
1.02222e-23
2.24878e-22
1.875e-06
-9.51334e-23
1.50625e-22
1.875e-06
-7.54726e-23
-5.31512e-23
1.875e-06
6.35803e-23
-1.53466e-22
1.875e-06
-3.73219e-23
-1.1196e-22
1.875e-06
-4.35501e-23
7.43645e-23
1.875e-06
4.58903e-23
3.58176e-22
1.875e-06
-1.35796e-23
3.05438e-22
1.875e-06
-4.17697e-23
2.17564e-22
1.875e-06
2.28822e-23
8.60814e-23
1.875e-06
1.86637e-23
3.46872e-23
1.875e-06
6.78457e-23
1.35543e-22
1.875e-06
9.94743e-23
1.29293e-22
1.875e-06
-2.7091e-23
1.43424e-22
1.875e-06
1.68991e-23
2.68087e-23
1.875e-06
-1.68514e-22
-9.80551e-23
1.875e-06
-1.02892e-22
-1.52142e-22
1.875e-06
-1.10434e-22
-2.59152e-22
1.875e-06
-2.06237e-23
-1.91551e-22
1.875e-06
6.38365e-23
-8.51595e-23
1.875e-06
7.89581e-23
-8.00884e-23
1.875e-06
1.28904e-22
-4.74887e-23
1.875e-06
-1.1713e-25
-1.92071e-22
1.875e-06
-6.01059e-23
-3.99576e-22
-2.93649e-24
-3.03428e-22
1.875e-06
7.03021e-23
6.59228e-22
1.875e-06
1.03284e-22
8.671e-22
1.875e-06
-7.12126e-23
7.82228e-22
1.875e-06
-1.53977e-22
8.29012e-22
1.875e-06
-2.33359e-23
7.63154e-22
1.875e-06
-2.10229e-23
7.84867e-22
1.875e-06
-2.91419e-23
6.42092e-22
1.875e-06
-1.40843e-22
5.19779e-22
1.875e-06
-1.16205e-22
5.44416e-22
1.875e-06
1.18787e-22
6.88474e-22
1.875e-06
-1.18992e-22
4.71161e-22
1.875e-06
4.60851e-22
5.34346e-22
1.875e-06
2.8843e-23
5.13029e-22
1.875e-06
8.29636e-24
4.18578e-22
1.875e-06
-1.39404e-23
2.93256e-22
1.875e-06
-3.52562e-23
2.18031e-22
1.875e-06
-4.18544e-23
5.40315e-23
1.875e-06
-1.2576e-22
-1.13025e-22
1.875e-06
-1.08647e-22
-1.31888e-22
1.875e-06
-1.18882e-22
-7.2203e-23
1.875e-06
-4.78907e-23
6.46467e-23
1.875e-06
1.6931e-24
2.87897e-22
1.875e-06
-1.02998e-22
3.89301e-22
1.875e-06
9.72718e-23
1.15887e-22
1.875e-06
1.62449e-22
1.16362e-22
1.875e-06
-8.5324e-24
4.3243e-23
1.875e-06
-6.13628e-23
1.02771e-22
1.875e-06
4.35144e-23
3.64329e-23
1.875e-06
-4.74355e-23
1.07157e-22
1.875e-06
1.42156e-22
-3.51212e-23
1.875e-06
-7.83189e-24
3.58885e-23
1.875e-06
-5.55296e-23
-8.09514e-23
1.875e-06
3.74187e-23
-2.22997e-22
1.875e-06
-1.96553e-22
-2.2006e-22
1.875e-06
2.41343e-23
-1.20549e-22
1.875e-06
1.13762e-22
-1.08826e-22
1.875e-06
2.0652e-23
-1.96118e-22
1.875e-06
3.6385e-23
-3.08035e-22
1.875e-06
-6.77768e-23
-3.5885e-22
-6.81921e-23
-3.26979e-22
1.875e-06
1.61888e-22
6.15262e-22
1.875e-06
7.62349e-23
7.49805e-22
1.875e-06
-1.12152e-22
7.90003e-22
1.875e-06
-1.10576e-22
8.43297e-22
1.875e-06
-4.83959e-23
7.99858e-22
1.875e-06
-2.15776e-23
8.18268e-22
1.875e-06
-3.4513e-23
5.91233e-22
1.875e-06
5.84002e-23
4.77991e-22
1.875e-06
7.93057e-23
5.99699e-22
1.875e-06
3.94748e-23
6.95446e-22
1.875e-06
-4.11339e-24
5.15648e-22
1.875e-06
5.97673e-23
5.88728e-22
1.875e-06
4.73721e-23
5.51289e-22
1.875e-06
1.38724e-22
4.01979e-22
1.875e-06
-2.82332e-23
2.95158e-22
1.875e-06
-1.00682e-22
2.32028e-22
1.875e-06
-1.96317e-22
1.47521e-23
1.875e-06
-5.71523e-23
-1.06792e-22
1.875e-06
-1.37795e-22
-4.08249e-23
1.875e-06
-1.29723e-22
-1.04544e-23
1.875e-06
-2.34143e-23
7.69587e-23
1.875e-06
-1.10477e-22
1.34226e-22
1.875e-06
3.33925e-23
3.70253e-22
1.875e-06
8.91362e-23
2.22617e-22
1.875e-06
6.32504e-23
6.35198e-24
1.875e-06
7.47054e-23
1.35418e-22
1.875e-06
-1.60274e-23
1.3613e-22
1.875e-06
9.20351e-23
-7.6295e-23
1.875e-06
3.2901e-23
-1.4702e-23
1.875e-06
1.49653e-23
-1.90191e-24
1.875e-06
1.0176e-22
3.55114e-23
1.875e-06
-5.18418e-23
-1.08917e-22
1.875e-06
5.86247e-23
-2.84812e-22
1.875e-06
8.91088e-23
-8.31218e-23
1.875e-06
-2.62568e-23
-9.63827e-23
1.875e-06
4.42648e-23
-2.03264e-22
1.875e-06
-6.40891e-23
-1.95636e-22
1.875e-06
-1.43479e-22
-2.86612e-22
1.875e-06
-1.52114e-22
-4.2533e-22
-1.32827e-22
-3.41384e-22
1.875e-06
2.41997e-23
4.9888e-22
1.875e-06
-7.23448e-23
7.37026e-22
1.875e-06
-3.0208e-23
8.07336e-22
1.875e-06
-1.02856e-22
8.37045e-22
1.875e-06
-1.24476e-22
7.07631e-22
1.875e-06
6.77073e-23
7.45841e-22
1.875e-06
-2.90179e-23
6.33151e-22
1.875e-06
-4.77597e-23
4.9785e-22
1.875e-06
9.54869e-23
6.45905e-22