/*--------------------------------*- C++ -*----------------------------------*\
| =========                 |                                                 |
| \\      /  F ield         | OpenFOAM: The Open Source CFD Toolbox           |
|  \\    /   O peration     | Version:  v2012                                 |
|   \\  /    A nd           | Website:  www.openfoam.com                      |
|    \\/     M anipulation  |                                                 |
\*---------------------------------------------------------------------------*/
FoamFile
{
    version     2.0;
    format      ascii;
    class       volVectorField;
    location    "9";
    object      U;
}
// * * * * * * * * * * * * * * * * * * * * * * * * * * * * * * * * * * * * * //

dimensions      [0 1 -1 0 0 0 0];


internalField   nonuniform List<vector> 
64000
(
(0.003 1.67244e-19 2.60637e-20)
(0.003 1.70066e-19 1.13669e-19)
(0.003 1.90857e-19 2.39909e-19)
(0.003 1.62714e-19 2.71704e-19)
(0.003 3.24391e-19 2.2309e-19)
(0.003 3.26498e-19 1.73295e-19)
(0.003 1.77373e-19 1.16011e-19)
(0.003 6.87734e-20 9.74598e-20)
(0.003 1.45324e-19 1.6341e-19)
(0.003 2.50329e-19 1.36261e-19)
(0.003 2.00095e-19 1.11435e-19)
(0.003 1.5881e-19 2.00893e-19)
(0.003 1.18156e-19 1.52608e-19)
(0.003 1.22175e-19 1.30183e-19)
(0.003 1.29249e-19 1.8479e-19)
(0.003 1.43152e-19 1.51481e-19)
(0.003 5.07857e-20 8.18983e-20)
(0.003 -3.06775e-20 5.61732e-20)
(0.003 1.07974e-20 -2.51468e-19)
(0.003 -6.24035e-20 -4.14514e-19)
(0.003 -2.51202e-19 -2.91682e-19)
(0.003 -7.54199e-20 -7.78347e-21)
(0.003 7.46615e-20 6.2548e-20)
(0.003 2.62332e-19 4.49526e-20)
(0.003 2.93222e-19 8.67415e-20)
(0.003 1.12878e-19 1.03612e-19)
(0.003 -2.0873e-20 1.01567e-19)
(0.003 5.03856e-20 9.73185e-20)
(0.003 6.02772e-20 1.04377e-19)
(0.003 -9.04132e-20 1.87125e-19)
(0.003 -2.02039e-19 2.65861e-19)
(0.003 -8.95619e-20 8.5002e-20)
(0.003 2.61716e-20 1.57248e-19)
(0.003 -3.32882e-20 1.2427e-20)
(0.003 -4.4184e-20 -2.3362e-19)
(0.003 -2.98396e-20 -2.84937e-19)
(0.003 -1.72763e-19 -3.39206e-19)
(0.003 -1.11439e-19 -1.39771e-19)
(0.003 -8.85462e-20 1.08314e-19)
(0.003 -1.09862e-19 8.99895e-20)
(0.003 2.13031e-19 1.3107e-19)
(0.003 3.01497e-19 3.50498e-19)
(0.003 3.53535e-19 5.02719e-19)
(0.003 2.36743e-19 4.66516e-19)
(0.003 1.34904e-19 3.75272e-19)
(0.003 2.20558e-19 3.29522e-19)
(0.003 2.48383e-19 2.65859e-19)
(0.003 2.75299e-19 2.10274e-19)
(0.003 2.01359e-19 3.20254e-19)
(0.003 1.30336e-19 3.60645e-19)
(0.003 1.79238e-19 2.95588e-19)
(0.003 2.00995e-19 2.9919e-19)
(0.003 7.74896e-20 2.97249e-19)
(0.003 2.13003e-20 2.40885e-19)
(0.003 -3.64491e-21 2.57351e-19)
(0.003 1.42306e-20 1.87652e-19)
(0.003 1.21741e-19 7.47223e-20)
(0.003 2.11168e-19 1.42135e-19)
(0.003 2.7194e-19 -7.92617e-20)
(0.003 1.35584e-19 -2.6946e-19)
(0.003 -9.53808e-20 -1.67179e-19)
(0.003 -2.77828e-19 2.92968e-20)
(0.003 -7.57469e-20 4.27913e-20)
(0.003 1.69797e-19 1.61999e-19)
(0.003 2.56596e-20 1.54651e-19)
(0.003 -3.91902e-20 4.48563e-20)
(0.003 5.47822e-21 2.47813e-20)
(0.003 4.74125e-20 1.24239e-19)
(0.003 -5.74104e-21 1.68607e-19)
(0.003 -1.16504e-19 1.1625e-19)
(0.003 -1.99843e-19 9.97023e-20)
(0.003 -9.54863e-20 1.3598e-19)
(0.003 -1.2507e-19 1.56392e-19)
(0.003 -1.81008e-19 2.85631e-21)
(0.003 -1.15321e-19 -1.26887e-19)
(0.003 -1.79092e-19 -2.23429e-19)
(0.003 -1.31779e-19 -3.05951e-19)
(0.003 5.64389e-20 -2.40599e-19)
(0.003 1.51735e-19 1.0034e-20)
(0.003 1.12459e-19 5.75331e-20)
(0.003 2.52012e-19 2.50071e-19)
(0.003 3.0405e-19 3.42706e-19)
(0.003 2.24691e-19 5.41022e-19)
(0.003 2.40615e-19 5.35791e-19)
(0.003 4.92573e-20 3.89226e-19)
(0.003 3.61916e-20 3.52772e-19)
(0.003 1.81246e-19 3.42154e-19)
(0.003 2.79491e-19 4.37968e-19)
(0.003 2.27954e-19 3.99382e-19)
(0.003 9.70772e-20 2.76045e-19)
(0.003 4.75706e-20 3.52122e-19)
(0.003 1.12866e-19 3.99577e-19)
(0.003 1.99744e-19 2.38235e-19)
(0.003 1.15957e-19 2.40178e-19)
(0.003 4.24501e-20 2.66315e-19)
(0.003 2.20261e-20 2.18926e-19)
(0.003 1.19002e-19 1.91902e-19)
(0.003 2.20708e-19 1.25253e-19)
(0.003 1.50924e-19 -4.94977e-20)
(0.003 -3.39365e-21 -2.30651e-19)
(0.003 -1.03389e-19 -4.38823e-20)
(0.003 -2.4972e-19 9.32319e-20)
(0.003 -9.25364e-20 1.24505e-19)
(0.003 3.70983e-20 1.83562e-19)
(0.003 -5.58364e-20 1.22821e-19)
(0.003 -9.73215e-21 1.57112e-20)
(0.003 3.42575e-20 9.22034e-21)
(0.003 -5.69749e-20 2.08953e-19)
(0.003 -5.4966e-20 1.59581e-19)
(0.003 -3.66258e-20 1.36711e-19)
(0.003 -4.19568e-20 1.76127e-19)
(0.003 -8.05374e-22 1.94824e-19)
(0.003 -2.09838e-20 1.23377e-19)
(0.003 -2.01269e-19 -4.57683e-20)
(0.003 -3.12508e-19 -9.09081e-20)
(0.003 -2.2643e-19 -1.6794e-19)
(0.003 -5.27837e-20 -2.83042e-19)
(0.003 6.88231e-20 -3.00418e-19)
(0.003 2.11206e-19 -9.74964e-20)
(0.003 2.13684e-19 -2.63239e-20)
(0.003 3.52091e-19 3.41989e-19)
(0.003 3.59491e-19 5.4353e-19)
(0.003 1.68138e-19 5.38424e-19)
(0.003 1.75551e-19 5.46557e-19)
(0.003 8.10603e-20 5.09776e-19)
(0.003 3.40427e-20 4.76448e-19)
(0.003 1.04191e-19 4.22085e-19)
(0.003 1.01459e-19 4.29886e-19)
(0.003 1.83534e-19 5.16308e-19)
(0.003 2.41655e-19 4.00767e-19)
(0.003 1.11366e-19 3.03886e-19)
(0.003 7.68048e-20 3.93812e-19)
(0.003 8.74456e-20 3.82307e-19)
(0.003 1.317e-20 3.01135e-19)
(0.003 1.71112e-19 3.03696e-19)
(0.003 2.94393e-19 2.64145e-19)
(0.003 1.5635e-19 2.00942e-19)
(0.003 7.16517e-21 1.48575e-19)
(0.003 -1.03386e-19 -1.2735e-19)
(0.003 -1.78579e-19 -3.03684e-19)
(0.003 -1.89336e-19 -4.51215e-21)
(0.003 -4.59449e-20 2.0738e-19)
(0.003 1.26147e-19 2.19845e-19)
(0.003 4.67065e-20 2.61167e-19)
(0.003 -2.84504e-20 1.8409e-19)
(0.003 -2.39712e-20 5.66377e-20)
(0.003 -1.87586e-20 6.40072e-21)
(0.003 -1.26866e-20 4.47271e-20)
(0.003 -8.06881e-21 1.49303e-19)
(0.003 -5.35144e-20 1.32477e-19)
(0.003 -8.40962e-20 6.71233e-20)
(0.003 -6.10764e-20 1.49332e-19)
(0.003 -2.17229e-20 1.09954e-19)
(0.003 -7.96635e-20 -4.99717e-20)
(0.003 -1.11843e-19 -1.74359e-19)
(0.003 -3.21136e-20 -2.33403e-19)
(0.003 -3.11967e-20 -1.46705e-19)
(0.003 2.89829e-20 -1.23139e-19)
(0.003 1.08495e-19 -8.88249e-20)
(0.003 1.12037e-19 -6.83915e-20)
(0.003 7.72101e-20 4.26583e-19)
(0.003 8.02284e-20 6.86348e-19)
(0.003 3.06244e-20 6.17345e-19)
(0.003 1.08015e-20 5.32088e-19)
(0.003 9.59609e-20 5.63391e-19)
(0.003 3.44167e-20 5.26891e-19)
(0.003 2.30074e-20 4.84942e-19)
(0.003 8.50262e-20 4.9184e-19)
(0.003 8.32743e-20 5.03714e-19)
(0.003 1.35699e-19 4.95267e-19)
(0.003 1.25497e-19 4.89866e-19)
(0.003 5.25147e-20 4.11345e-19)
(0.003 1.49995e-20 3.04414e-19)
(0.003 5.03181e-20 2.85705e-19)
(0.003 1.35323e-19 3.85427e-19)
(0.003 2.5526e-19 4.41604e-19)
(0.003 1.12305e-19 2.52747e-19)
(0.003 -1.42577e-19 8.49033e-20)
(0.003 -2.92611e-19 -1.21994e-19)
(0.003 -2.45799e-19 -2.2239e-19)
(0.003 -1.17694e-19 -1.46483e-19)
(0.003 1.03577e-19 1.18195e-19)
(0.003 2.39218e-19 2.63319e-19)
(0.003 3.19746e-20 2.39911e-19)
(0.003 -1.95999e-20 1.6817e-19)
(0.003 -4.61535e-21 -1.04942e-20)
(0.003 7.45378e-21 7.28836e-21)
(0.003 4.87941e-20 1.56856e-19)
(0.003 -1.99816e-20 1.25934e-19)
(0.003 -6.0105e-20 3.62061e-20)
(0.003 -1.27608e-20 4.93522e-21)
(0.003 -2.94396e-20 1.15301e-19)
(0.003 -8.29753e-20 5.38145e-20)
(0.003 -5.76417e-20 -1.69714e-19)
(0.003 9.20689e-22 -2.59344e-19)
(0.003 -1.68449e-20 -1.67251e-19)
(0.003 3.72079e-20 -9.98005e-20)
(0.003 1.05112e-19 -8.10941e-20)
(0.003 5.77439e-20 3.25896e-20)
(0.003 2.65406e-20 -3.12705e-20)
(0.003 -7.03358e-20 5.14722e-19)
(0.003 1.64373e-20 6.82162e-19)
(0.003 7.02163e-20 6.21094e-19)
(0.003 1.14967e-19 6.31146e-19)
(0.003 1.23221e-19 6.20188e-19)
(0.003 8.67211e-20 5.54063e-19)
(0.003 3.75681e-20 4.89387e-19)
(0.003 1.18852e-19 5.55333e-19)
(0.003 1.26621e-19 5.60634e-19)
(0.003 4.17191e-20 4.76692e-19)
(0.003 3.51789e-20 4.22232e-19)
(0.003 1.63817e-20 4.8016e-19)
(0.003 9.48462e-20 3.91683e-19)
(0.003 1.39665e-19 3.04169e-19)
(0.003 4.3858e-20 4.40195e-19)
(0.003 -1.16612e-19 4.76223e-19)
(0.003 -1.2622e-19 2.79884e-19)
(0.003 -1.36409e-19 8.41438e-20)
(0.003 -2.73643e-19 -5.74756e-20)
(0.003 -1.60461e-19 -1.55855e-19)
(0.003 -2.6706e-21 -8.04194e-20)
(0.003 1.39427e-19 1.07684e-19)
(0.003 1.31556e-19 2.46982e-19)
(0.003 6.10072e-20 2.33414e-19)
(0.003 1.31376e-19 9.65107e-20)
(0.003 7.8262e-20 1.96839e-20)
(0.003 6.23917e-20 2.68402e-20)
(0.003 -7.87512e-20 3.09214e-20)
(0.003 -2.08752e-19 1.03764e-19)
(0.003 -4.05485e-20 1.75398e-19)
(0.003 1.31773e-19 1.60138e-19)
(0.003 9.85587e-20 8.27946e-20)
(0.003 -7.76648e-20 -5.32461e-20)
(0.003 -6.93784e-20 -2.26653e-19)
(0.003 -4.25717e-20 -2.66062e-19)
(0.003 -7.72263e-20 -2.38755e-19)
(0.003 -4.99918e-20 -1.48722e-19)
(0.003 1.14877e-19 1.03199e-20)
(0.003 1.58039e-19 2.72632e-20)
(0.003 1.40643e-19 -7.71957e-20)
(0.003 5.25875e-20 5.95694e-19)
(0.003 1.3428e-19 8.27347e-19)
(0.003 2.00435e-19 7.28616e-19)
(0.003 2.08369e-19 7.35894e-19)
(0.003 1.76727e-19 7.12423e-19)
(0.003 4.81578e-20 5.55379e-19)
(0.003 4.66839e-20 4.69958e-19)
(0.003 9.83941e-20 5.58571e-19)
(0.003 4.11891e-20 5.948e-19)
(0.003 3.08937e-20 5.66948e-19)
(0.003 9.67642e-20 5.41118e-19)
(0.003 8.79768e-20 4.32583e-19)
(0.003 1.06632e-19 3.01387e-19)
(0.003 1.6536e-19 3.00697e-19)
(0.003 3.60812e-20 4.48966e-19)
(0.003 -1.27418e-19 4.4353e-19)
(0.003 -1.49773e-19 2.18952e-19)
(0.003 -1.5314e-19 1.02511e-19)
(0.003 -1.66079e-19 -4.85363e-20)
(0.003 -1.00478e-19 -8.91956e-20)
(0.003 1.16294e-19 5.36233e-20)
(0.003 2.1889e-19 9.75974e-20)
(0.003 5.52916e-20 1.55719e-19)
(0.003 -1.66312e-20 2.8252e-19)
(0.003 3.51745e-20 2.48678e-19)
(0.003 1.05432e-20 5.85474e-20)
(0.003 -1.58861e-19 -1.02555e-19)
(0.003 -2.24981e-19 -1.45489e-20)
(0.003 -1.45416e-19 6.66098e-20)
(0.003 4.3178e-20 8.42531e-20)
(0.003 1.72457e-19 1.42118e-19)
(0.003 1.21309e-19 5.33061e-20)
(0.003 1.27136e-19 -1.68216e-19)
(0.003 1.36251e-19 -1.79541e-19)
(0.003 3.28802e-20 -2.17533e-19)
(0.003 -1.47434e-20 -3.23772e-19)
(0.003 -2.29335e-20 -2.43348e-19)
(0.003 4.13454e-20 2.36896e-21)
(0.003 4.34013e-20 3.92948e-21)
(0.003 5.76135e-20 -1.98353e-19)
(0.003 2.49282e-19 4.8951e-19)
(0.003 2.34008e-19 7.64559e-19)
(0.003 2.05348e-19 8.35938e-19)
(0.003 2.25979e-19 8.64019e-19)
(0.003 1.64803e-19 7.87875e-19)
(0.003 8.49715e-20 5.97456e-19)
(0.003 1.07471e-19 5.5502e-19)
(0.003 5.10207e-20 6.08194e-19)
(0.003 -4.7788e-20 5.83089e-19)
(0.003 1.00783e-19 5.03448e-19)
(0.003 1.9323e-19 5.70091e-19)
(0.003 1.35353e-19 5.06591e-19)
(0.003 1.66947e-20 3.439e-19)
(0.003 8.96408e-21 3.1471e-19)
(0.003 -1.5667e-20 3.78124e-19)
(0.003 2.9356e-20 3.43846e-19)
(0.003 3.45996e-20 1.25532e-19)
(0.003 -4.92065e-20 4.67367e-20)
(0.003 -9.12932e-21 3.68661e-20)
(0.003 -6.76169e-20 3.82166e-20)
(0.003 9.62318e-20 4.42713e-20)
(0.003 1.95593e-19 1.22676e-19)
(0.003 4.44188e-20 2.53769e-19)
(0.003 -7.60367e-20 2.62271e-19)
(0.003 -1.11399e-19 2.42527e-19)
(0.003 -2.66611e-20 5.18513e-20)
(0.003 -1.27472e-19 -6.71386e-20)
(0.003 -1.89897e-19 1.71435e-20)
(0.003 -1.5323e-19 -3.29663e-21)
(0.003 5.38164e-21 5.44076e-20)
(0.003 2.34083e-20 1.35443e-19)
(0.003 6.45963e-20 6.92158e-20)
(0.003 3.00891e-19 -7.05098e-20)
(0.003 3.06263e-19 -1.60143e-19)
(0.003 1.79082e-19 -2.53708e-19)
(0.003 2.61874e-20 -2.84569e-19)
(0.003 2.18502e-20 -3.273e-19)
(0.003 -4.89139e-20 -5.40218e-20)
(0.003 -1.50675e-19 1.12932e-20)
(0.003 -1.32138e-19 -1.6761e-19)
(0.003 7.75566e-20 5.09952e-19)
(0.003 1.74901e-19 9.12088e-19)
(0.003 1.9255e-19 9.82133e-19)
(0.003 1.9256e-19 9.31474e-19)
(0.003 1.91854e-19 7.39223e-19)
(0.003 2.28858e-19 6.33428e-19)
(0.003 1.3157e-19 6.64574e-19)
(0.003 5.68892e-21 6.16047e-19)
(0.003 -6.57386e-21 5.24114e-19)
(0.003 2.03084e-20 5.84725e-19)
(0.003 3.97612e-20 6.02909e-19)
(0.003 3.41231e-20 5.4192e-19)
(0.003 -3.21586e-20 3.85034e-19)
(0.003 -7.20401e-20 3.45853e-19)
(0.003 5.68359e-21 3.05538e-19)
(0.003 9.00951e-20 2.99077e-19)
(0.003 1.13205e-19 1.98325e-19)
(0.003 5.59407e-20 7.19372e-20)
(0.003 7.24982e-20 5.58134e-20)
(0.003 3.9793e-21 1.66499e-20)
(0.003 -1.41818e-20 3.9942e-20)
(0.003 8.31621e-20 1.79031e-19)
(0.003 4.23279e-20 2.6048e-19)
(0.003 1.39308e-20 3.23785e-19)
(0.003 -1.82294e-20 2.1736e-19)
(0.003 -5.17017e-20 3.20387e-20)
(0.003 -1.0604e-19 -4.77608e-20)
(0.003 -1.38354e-19 1.68428e-20)
(0.003 3.87554e-20 -1.27445e-19)
(0.003 1.53081e-20 -5.47642e-20)
(0.003 -1.52047e-19 2.51742e-20)
(0.003 -4.37677e-20 7.51346e-20)
(0.003 9.96825e-20 5.84805e-20)
(0.003 1.94678e-19 -1.5716e-19)
(0.003 1.86639e-19 -2.63732e-19)
(0.003 1.44078e-19 -3.2988e-19)
(0.003 6.39058e-20 -2.56512e-19)
(0.003 -8.73376e-20 -1.85572e-20)
(0.003 -2.13639e-19 3.31019e-20)
(0.003 -1.96538e-19 -1.99602e-20)
(0.003 -1.58529e-19 6.42618e-19)
(0.003 6.00067e-20 8.69025e-19)
(0.003 2.39448e-19 9.83933e-19)
(0.003 2.4378e-19 1.01271e-18)
(0.003 1.79721e-19 9.12607e-19)
(0.003 1.9463e-19 7.20859e-19)
(0.003 2.53137e-19 7.00238e-19)
(0.003 1.22791e-19 6.782e-19)
(0.003 4.83205e-20 5.31321e-19)
(0.003 -3.3793e-20 4.48908e-19)
(0.003 -7.32221e-20 5.34427e-19)
(0.003 -7.35996e-20 5.4428e-19)
(0.003 8.6094e-21 4.1218e-19)
(0.003 -1.76643e-20 3.56421e-19)
(0.003 6.74644e-20 4.19978e-19)
(0.003 -2.25764e-20 3.51456e-19)
(0.003 -7.94421e-20 1.59919e-19)
(0.003 8.6581e-20 2.0356e-20)
(0.003 4.75854e-20 -3.41959e-21)
(0.003 7.08968e-20 1.83285e-20)
(0.003 1.39267e-19 1.15293e-19)
(0.003 1.18539e-19 1.8805e-19)
(0.003 8.64795e-21 2.83821e-19)
(0.003 1.69087e-20 3.32777e-19)
(0.003 8.19277e-20 2.4376e-19)
(0.003 2.20113e-20 6.21362e-20)
(0.003 -6.48026e-20 -7.65987e-20)
(0.003 -4.43034e-20 -9.69997e-20)
(0.003 1.68867e-20 -5.51993e-20)
(0.003 -8.89491e-20 -1.53889e-20)
(0.003 -7.60902e-20 -1.66931e-20)
(0.003 -3.75767e-20 -5.77458e-20)
(0.003 -1.32074e-19 -3.70424e-20)
(0.003 -3.86252e-20 -9.16667e-20)
(0.003 1.79062e-19 -2.2664e-19)
(0.003 2.3644e-19 -2.85517e-19)
(0.003 3.24496e-20 -2.79162e-19)
(0.003 -1.88808e-19 -1.24431e-19)
(0.003 -2.31007e-19 2.61594e-20)
(0.003 -1.77632e-19 2.98129e-20)
(0.003 1.00958e-19 6.74211e-19)
(0.003 2.14334e-19 1.017e-18)
(0.003 2.15799e-19 1.1178e-18)
(0.003 1.97326e-19 1.09372e-18)
(0.003 9.08371e-20 8.62613e-19)
(0.003 1.68576e-19 7.40669e-19)
(0.003 2.62498e-19 7.94205e-19)
(0.003 1.46434e-19 7.11747e-19)
(0.003 4.71376e-20 5.71038e-19)
(0.003 3.79738e-20 4.93713e-19)
(0.003 1.18976e-20 4.95434e-19)
(0.003 -4.5165e-20 5.32927e-19)
(0.003 6.55214e-20 4.48562e-19)
(0.003 1.37913e-19 2.88703e-19)
(0.003 -7.00454e-21 4.09298e-19)
(0.003 -6.13395e-20 4.05041e-19)
(0.003 -6.01671e-20 2.39019e-19)
(0.003 6.69567e-21 1.3664e-19)
(0.003 2.77089e-20 -2.01725e-20)
(0.003 9.40566e-20 -1.42254e-19)
(0.003 2.34846e-19 6.67291e-20)
(0.003 1.3226e-19 2.72481e-19)
(0.003 -1.60842e-20 2.68586e-19)
(0.003 1.93817e-20 3.26381e-19)
(0.003 -3.90562e-21 2.72714e-19)
(0.003 -3.71375e-20 4.4984e-21)
(0.003 -6.10774e-21 -7.55946e-20)
(0.003 7.16518e-20 -2.32604e-20)
(0.003 -3.52007e-20 -1.38274e-19)
(0.003 -1.90094e-19 -1.92731e-20)
(0.003 -1.28296e-19 7.08427e-20)
(0.003 5.91454e-22 -8.59871e-20)
(0.003 -9.30955e-20 -2.41356e-19)
(0.003 -1.48581e-19 -2.02643e-19)
(0.003 4.28948e-20 -2.76199e-19)
(0.003 1.10914e-19 -2.5368e-19)
(0.003 -3.85045e-20 -2.17832e-19)
(0.003 -2.49265e-19 -1.18531e-19)
(0.003 -1.26507e-19 3.66708e-20)
(0.003 6.18854e-20 5.35157e-20)
(0.003 1.87986e-19 7.76051e-19)
(0.003 2.68295e-19 1.18062e-18)
(0.003 2.52948e-19 1.16263e-18)
(0.003 8.93198e-20 1.0322e-18)
(0.003 1.11867e-19 9.06111e-19)
(0.003 1.51492e-19 8.48166e-19)
(0.003 1.03587e-19 8.39774e-19)
(0.003 5.27625e-20 6.76371e-19)
(0.003 3.63971e-20 5.19215e-19)
(0.003 3.3611e-20 5.30171e-19)
(0.003 1.62284e-20 6.03418e-19)
(0.003 2.25331e-20 5.21708e-19)
(0.003 5.97095e-20 4.6587e-19)
(0.003 1.35108e-19 3.57555e-19)
(0.003 2.38547e-20 3.72633e-19)
(0.003 -1.11272e-19 3.69201e-19)
(0.003 -8.37119e-20 2.69839e-19)
(0.003 4.79381e-20 1.55697e-19)
(0.003 2.01861e-19 4.24571e-20)
(0.003 2.14464e-19 -9.82469e-20)
(0.003 3.84148e-20 7.72073e-20)
(0.003 -1.52195e-19 2.19213e-19)
(0.003 -6.80996e-20 2.89917e-19)
(0.003 -8.00337e-21 3.32325e-19)
(0.003 -9.84706e-20 2.4937e-19)
(0.003 -1.70592e-19 3.84674e-20)
(0.003 -6.96709e-20 1.08592e-20)
(0.003 9.32872e-20 -2.09966e-20)
(0.003 7.31672e-20 -2.50163e-19)
(0.003 -1.98393e-20 -1.33022e-19)
(0.003 -4.72522e-20 -7.16301e-20)
(0.003 -1.59821e-19 -1.63082e-19)
(0.003 -1.41489e-19 -9.10049e-20)
(0.003 -4.82281e-20 -1.38538e-19)
(0.003 -2.66067e-20 -9.52215e-20)
(0.003 -8.6847e-21 -1.49622e-19)
(0.003 1.14093e-20 -3.80536e-19)
(0.003 5.50165e-20 -1.58452e-19)
(0.003 1.29715e-19 6.86812e-20)
(0.003 6.48544e-20 1.17034e-20)
(0.003 1.74702e-19 8.32156e-19)
(0.003 2.05208e-19 1.16424e-18)
(0.003 1.71573e-19 1.1326e-18)
(0.003 8.69204e-20 1.06438e-18)
(0.003 1.2532e-19 1.03085e-18)
(0.003 8.59144e-20 9.06529e-19)
(0.003 -2.76652e-20 7.68616e-19)
(0.003 -3.16456e-20 6.58031e-19)
(0.003 1.64682e-19 6.02644e-19)
(0.003 2.1825e-19 5.55284e-19)
(0.003 6.45451e-20 5.60539e-19)
(0.003 -5.81764e-20 4.87963e-19)
(0.003 4.51216e-21 4.70448e-19)
(0.003 1.40967e-19 4.36609e-19)
(0.003 1.43875e-20 3.78204e-19)
(0.003 -6.99246e-20 2.91363e-19)
(0.003 -1.16081e-19 2.05446e-19)
(0.003 -7.31656e-20 1.60323e-19)
(0.003 8.25756e-21 1.62286e-19)
(0.003 1.07233e-19 9.9749e-20)
(0.003 8.01434e-20 9.26933e-20)
(0.003 1.77437e-20 1.6798e-19)
(0.003 -1.16759e-20 2.25732e-19)
(0.003 -5.62918e-20 2.89879e-19)
(0.003 -1.13946e-19 2.2104e-19)
(0.003 -1.57687e-19 1.0676e-19)
(0.003 -6.17216e-20 1.14411e-19)
(0.003 9.21847e-20 1.7903e-20)
(0.003 1.75913e-19 -1.64292e-19)
(0.003 1.81989e-19 -2.20881e-19)
(0.003 3.83785e-20 -1.85551e-19)
(0.003 -3.24068e-19 -1.8925e-19)
(0.003 -2.66194e-19 -1.27748e-19)
(0.003 -9.79088e-20 -5.94169e-20)
(0.003 2.00199e-21 3.56999e-20)
(0.003 7.15517e-21 -1.03608e-19)
(0.003 1.03951e-19 -3.06764e-19)
(0.003 2.2399e-19 -2.067e-19)
(0.003 1.75834e-19 8.96535e-20)
(0.003 -7.48916e-20 4.91074e-20)
(0.003 6.46444e-21 8.89694e-19)
(0.003 1.3977e-19 1.24756e-18)
(0.003 1.66712e-19 1.23906e-18)
(0.003 4.79991e-20 1.07698e-18)
(0.003 -7.43341e-20 1.01998e-18)
(0.003 -6.67833e-20 9.64017e-19)
(0.003 2.50073e-20 7.75137e-19)
(0.003 1.48766e-19 5.75488e-19)
(0.003 1.51267e-19 5.97714e-19)
(0.003 8.88437e-20 6.95298e-19)
(0.003 8.67864e-20 5.9441e-19)
(0.003 9.85637e-20 4.59109e-19)
(0.003 3.64015e-21 5.20482e-19)
(0.003 -7.34179e-20 5.11074e-19)
(0.003 -1.00158e-19 3.4904e-19)
(0.003 -6.15682e-20 2.40173e-19)
(0.003 -7.87296e-20 1.25867e-19)
(0.003 -3.89621e-20 1.52993e-19)
(0.003 2.81878e-20 8.38313e-20)
(0.003 5.26741e-20 1.97416e-20)
(0.003 1.47952e-19 1.88461e-19)
(0.003 1.00692e-19 2.64091e-19)
(0.003 6.35078e-20 2.96921e-19)
(0.003 -2.56865e-21 4.03458e-19)
(0.003 -1.66557e-19 2.71864e-19)
(0.003 -7.3208e-20 1.00396e-19)
(0.003 3.00856e-20 5.11707e-20)
(0.003 5.31728e-20 -6.07706e-21)
(0.003 2.17258e-19 -1.82198e-19)
(0.003 2.18787e-19 -2.11069e-19)
(0.003 3.07241e-20 -2.16259e-19)
(0.003 -1.56312e-19 -2.76403e-19)
(0.003 -2.20215e-19 -2.05376e-19)
(0.003 -1.7983e-19 -1.00067e-19)
(0.003 -9.40932e-20 5.57196e-20)
(0.003 1.08182e-19 -7.39145e-20)
(0.003 1.37342e-19 -2.88479e-19)
(0.003 8.05393e-20 -1.93599e-19)
(0.003 1.26538e-20 -6.76538e-20)
(0.003 -1.82999e-19 -1.5241e-19)
(0.003 -1.12606e-19 8.72618e-19)
(0.003 -6.45051e-20 1.28822e-18)
(0.003 8.50718e-21 1.28582e-18)
(0.003 1.0504e-20 1.03139e-18)
(0.003 4.6252e-20 9.54945e-19)
(0.003 -1.98681e-21 9.49001e-19)
(0.003 4.53926e-20 8.64215e-19)
(0.003 1.55084e-19 7.01321e-19)
(0.003 3.56352e-20 6.02809e-19)
(0.003 -1.19164e-19 6.2437e-19)
(0.003 2.59201e-20 6.07951e-19)
(0.003 1.23387e-19 5.17758e-19)
(0.003 -2.69571e-20 5.43181e-19)
(0.003 -2.1371e-19 4.55025e-19)
(0.003 -1.59928e-19 2.82242e-19)
(0.003 -1.12051e-19 2.17691e-19)
(0.003 -2.09851e-20 9.61707e-20)
(0.003 1.37046e-20 7.03379e-20)
(0.003 9.27903e-21 1.15876e-19)
(0.003 1.6936e-19 1.29318e-19)
(0.003 1.99641e-19 3.11691e-19)
(0.003 1.00637e-19 3.32713e-19)
(0.003 -8.98778e-21 3.61186e-19)
(0.003 -1.58507e-19 3.85142e-19)
(0.003 -1.03655e-19 2.38717e-19)
(0.003 2.94437e-20 1.57106e-19)
(0.003 7.12932e-20 -3.40955e-21)
(0.003 2.66704e-20 -1.19456e-20)
(0.003 4.26003e-21 -7.71471e-20)
(0.003 1.67355e-19 -2.36909e-19)
(0.003 1.96757e-19 -1.54419e-19)
(0.003 1.76943e-20 -3.41122e-19)
(0.003 -1.40958e-19 -3.63265e-19)
(0.003 -2.34571e-19 -1.65829e-19)
(0.003 -1.90372e-19 1.76576e-19)
(0.003 2.17154e-20 1.25598e-19)
(0.003 1.5316e-19 -1.68087e-19)
(0.003 2.20729e-19 -2.76661e-19)
(0.003 1.24351e-19 -2.66599e-19)
(0.003 6.57634e-20 -3.4533e-19)
(0.003 -1.11157e-19 8.20321e-19)
(0.003 -1.98393e-19 1.21113e-18)
(0.003 -6.20131e-20 1.28073e-18)
(0.003 -1.3386e-20 1.12277e-18)
(0.003 1.69209e-20 1.04947e-18)
(0.003 1.55446e-20 9.95231e-19)
(0.003 5.81873e-20 8.8577e-19)
(0.003 9.87412e-20 7.47618e-19)
(0.003 -4.59905e-20 6.06134e-19)
(0.003 -3.90351e-20 5.5516e-19)
(0.003 4.4456e-20 6.25637e-19)
(0.003 -8.75496e-20 6.22658e-19)
(0.003 -1.46324e-19 6.45424e-19)
(0.003 -1.26536e-19 4.11733e-19)
(0.003 -7.3691e-20 2.37734e-19)
(0.003 -9.00002e-20 2.00724e-19)
(0.003 -4.0853e-20 5.77559e-20)
(0.003 -6.34211e-20 3.13132e-20)
(0.003 9.64182e-21 1.15147e-19)
(0.003 2.18151e-19 1.54977e-19)
(0.003 1.67691e-19 2.55271e-19)
(0.003 1.26291e-19 4.21306e-19)
(0.003 -4.29019e-20 4.50625e-19)
(0.003 -1.67093e-19 3.14865e-19)
(0.003 -4.43069e-20 1.49889e-19)
(0.003 -2.2146e-20 1.79022e-19)
(0.003 1.44396e-20 2.27156e-20)
(0.003 -6.10239e-20 -6.6739e-20)
(0.003 -1.04405e-19 -1.49816e-20)
(0.003 8.06846e-20 -1.6837e-19)
(0.003 1.96094e-19 -1.77252e-19)
(0.003 1.076e-19 -4.00342e-19)
(0.003 -6.8902e-20 -4.90354e-19)
(0.003 -1.4408e-19 -2.71121e-19)
(0.003 -1.10063e-19 1.27233e-19)
(0.003 -9.85778e-20 2.22082e-19)
(0.003 8.56549e-20 4.01486e-20)
(0.003 1.59512e-19 -1.86591e-19)
(0.003 8.84503e-20 -3.6359e-19)
(0.003 1.68224e-19 -3.93244e-19)
(0.003 -1.58991e-19 7.38167e-19)
(0.003 -1.79175e-19 1.13586e-18)
(0.003 1.63422e-20 1.26304e-18)
(0.003 1.78623e-20 1.15582e-18)
(0.003 -5.84628e-20 1.03148e-18)
(0.003 -6.82716e-21 9.81141e-19)
(0.003 4.19864e-20 9.63156e-19)
(0.003 1.5939e-20 8.08361e-19)
(0.003 -3.51029e-20 6.0959e-19)
(0.003 1.12722e-20 5.84918e-19)
(0.003 -3.88267e-20 6.84783e-19)
(0.003 -1.17555e-19 6.06898e-19)
(0.003 -2.09115e-19 5.57696e-19)
(0.003 -7.45169e-20 4.70105e-19)
(0.003 -2.08809e-20 1.92875e-19)
(0.003 -9.61219e-20 9.78587e-20)
(0.003 -1.27322e-20 7.70206e-20)
(0.003 4.41083e-20 9.54614e-20)
(0.003 1.22595e-19 1.92641e-19)
(0.003 1.98866e-19 1.87133e-19)
(0.003 1.87035e-19 3.27699e-19)
(0.003 1.09139e-19 3.19208e-19)
(0.003 -9.40909e-20 3.18433e-19)
(0.003 -1.42731e-19 2.48758e-19)
(0.003 -4.86177e-20 1.56032e-19)
(0.003 -1.35608e-20 2.09318e-19)
(0.003 -8.31275e-20 4.12925e-20)
(0.003 -1.74428e-19 -3.45935e-20)
(0.003 -1.40952e-19 6.81485e-20)
(0.003 -7.22489e-20 -5.0881e-20)
(0.003 1.0396e-20 -1.50004e-19)
(0.003 1.30255e-19 -3.09544e-19)
(0.003 5.25827e-20 -4.55419e-19)
(0.003 5.5232e-20 -3.17777e-19)
(0.003 1.60635e-19 -1.88231e-20)
(0.003 3.48832e-20 6.71633e-20)
(0.003 -6.10556e-20 3.12381e-20)
(0.003 -1.01906e-19 -1.11597e-19)
(0.003 -1.02128e-19 -3.67542e-19)
(0.003 2.27503e-20 -3.89214e-19)
(0.003 -1.29494e-19 6.53744e-19)
(0.003 -1.82998e-19 1.20624e-18)
(0.003 -1.49401e-19 1.42755e-18)
(0.003 1.49719e-21 1.20179e-18)
(0.003 1.1647e-19 1.03842e-18)
(0.003 2.78557e-20 9.63993e-19)
(0.003 -8.89702e-20 9.35143e-19)
(0.003 -1.70488e-19 7.58565e-19)
(0.003 -8.90804e-20 6.4412e-19)
(0.003 -6.69634e-21 6.23851e-19)
(0.003 -2.94146e-20 6.63458e-19)
(0.003 1.26331e-20 5.93177e-19)
(0.003 -3.89147e-20 4.819e-19)
(0.003 -6.07227e-20 4.43943e-19)
(0.003 -1.35226e-20 2.61836e-19)
(0.003 -1.34696e-20 1.90853e-19)
(0.003 1.36814e-20 1.67418e-19)
(0.003 1.63648e-19 7.55281e-20)
(0.003 2.78815e-19 3.89917e-20)
(0.003 2.07059e-19 1.06722e-19)
(0.003 -8.92808e-21 3.12565e-19)
(0.003 -8.8193e-20 5.04693e-19)
(0.003 -7.91619e-21 3.74419e-19)
(0.003 3.14453e-20 2.12573e-19)
(0.003 -8.19394e-20 1.185e-19)
(0.003 -6.80443e-20 1.79514e-19)
(0.003 -4.97959e-20 1.20668e-19)
(0.003 -1.77417e-19 1.35423e-20)
(0.003 -1.06751e-19 5.95846e-20)
(0.003 -6.72016e-20 3.78188e-20)
(0.003 -6.0731e-20 -1.05977e-19)
(0.003 1.10116e-20 -3.33642e-19)
(0.003 7.14392e-20 -3.96875e-19)
(0.003 1.23065e-19 -3.07261e-19)
(0.003 1.46676e-19 -1.68624e-19)
(0.003 1.24689e-19 -5.71109e-20)
(0.003 -3.79443e-20 -1.04581e-20)
(0.003 -1.53116e-19 -1.86709e-19)
(0.003 -6.93742e-20 -4.00369e-19)
(0.003 7.60698e-21 -3.61173e-19)
(0.003 -8.22706e-20 6.58903e-19)
(0.003 -1.92975e-19 1.11763e-18)
(0.003 -2.01656e-19 1.2937e-18)
(0.003 -2.64766e-20 1.23583e-18)
(0.003 6.78084e-20 1.10853e-18)
(0.003 1.33534e-20 1.00922e-18)
(0.003 -1.03918e-19 9.14922e-19)
(0.003 -1.67869e-19 7.2739e-19)
(0.003 -8.24913e-20 6.85328e-19)
(0.003 -7.7842e-20 6.99851e-19)
(0.003 -4.60685e-20 6.28219e-19)
(0.003 5.9405e-20 5.6488e-19)
(0.003 1.22497e-19 4.98498e-19)
(0.003 7.17236e-20 3.99117e-19)
(0.003 1.08538e-20 2.70903e-19)
(0.003 8.98866e-21 2.35349e-19)
(0.003 -1.29624e-20 2.29642e-19)
(0.003 3.68998e-20 8.19791e-20)
(0.003 2.35298e-19 5.89506e-20)
(0.003 1.09591e-19 1.01212e-19)
(0.003 -7.60392e-20 2.10837e-19)
(0.003 -1.16632e-19 4.00947e-19)
(0.003 -2.53544e-20 4.55857e-19)
(0.003 -2.48498e-20 2.94349e-19)
(0.003 1.86968e-20 9.46042e-20)
(0.003 -3.04301e-20 1.22098e-19)
(0.003 4.61013e-20 1.25192e-19)
(0.003 2.45991e-20 5.78236e-20)
(0.003 -1.56538e-19 5.68919e-20)
(0.003 -5.32504e-20 6.78381e-20)
(0.003 -9.90568e-20 7.59813e-20)
(0.003 -1.06289e-19 -1.68858e-19)
(0.003 -2.52848e-20 -4.78447e-19)
(0.003 9.22736e-20 -3.16838e-19)
(0.003 1.52723e-19 -6.18292e-20)
(0.003 9.42526e-20 -1.2247e-19)
(0.003 1.1024e-19 -8.70134e-20)
(0.003 -5.08178e-20 -2.53065e-19)
(0.003 -6.10031e-20 -5.1439e-19)
(0.003 8.80131e-20 -4.13904e-19)
(0.003 3.96833e-20 6.86146e-19)
(0.003 4.0831e-20 1.09253e-18)
(0.003 -3.07999e-20 1.22855e-18)
(0.003 -1.0735e-19 1.19756e-18)
(0.003 -9.83846e-20 1.11747e-18)
(0.003 -6.05885e-20 1.01199e-18)
(0.003 -1.02483e-19 8.51773e-19)
(0.003 -1.7489e-19 7.53016e-19)
(0.003 -1.18271e-19 7.17513e-19)
(0.003 4.10919e-20 6.87114e-19)
(0.003 1.39614e-19 6.38855e-19)
(0.003 1.8107e-19 6.0513e-19)
(0.003 2.42939e-19 5.51143e-19)
(0.003 1.41197e-19 4.66223e-19)
(0.003 1.84173e-20 2.93939e-19)
(0.003 -3.88753e-20 2.37844e-19)
(0.003 -1.54209e-19 7.4093e-20)
(0.003 -1.58981e-19 -4.32947e-20)
(0.003 -9.12336e-21 7.30115e-20)
(0.003 -1.03939e-19 1.20556e-19)
(0.003 -9.4352e-20 1.87135e-19)
(0.003 -9.63775e-21 4.03252e-19)
(0.003 -5.42761e-20 4.63496e-19)
(0.003 4.19861e-20 2.26978e-19)
(0.003 1.67178e-19 1.086e-19)
(0.003 3.43742e-20 1.10219e-19)
(0.003 4.54493e-20 2.23359e-19)
(0.003 1.31183e-19 9.04679e-20)
(0.003 6.51191e-20 4.03757e-20)
(0.003 -5.75452e-21 4.72163e-20)
(0.003 -1.17735e-19 1.11533e-19)
(0.003 -1.82553e-19 -1.13937e-19)
(0.003 -1.17772e-19 -4.45802e-19)
(0.003 -2.23218e-20 -3.19083e-19)
(0.003 4.76289e-20 -1.02865e-19)
(0.003 1.76574e-19 -1.12495e-19)
(0.003 2.38009e-19 -1.79187e-19)
(0.003 9.13255e-20 -3.51976e-19)
(0.003 -2.99069e-20 -4.99358e-19)
(0.003 -7.18773e-20 -4.57791e-19)
(0.003 1.88751e-19 6.75278e-19)
(0.003 1.44381e-19 1.04544e-18)
(0.003 -9.92529e-20 1.20021e-18)
(0.003 -1.8564e-19 1.16463e-18)
(0.003 -6.79584e-20 1.13218e-18)
(0.003 -4.37909e-20 1.02288e-18)
(0.003 -6.52224e-20 8.16908e-19)
(0.003 -1.33533e-19 5.90099e-19)
(0.003 -8.13086e-20 6.20491e-19)
(0.003 1.58774e-19 8.38491e-19)
(0.003 2.46236e-19 8.49504e-19)
(0.003 1.94658e-19 7.4273e-19)
(0.003 9.94548e-20 5.89674e-19)
(0.003 1.18442e-19 4.38321e-19)
(0.003 -1.29106e-20 3.21941e-19)
(0.003 -1.11568e-19 2.04716e-19)
(0.003 -1.2686e-19 3.9753e-20)
(0.003 -1.67998e-19 -6.39557e-20)
(0.003 -2.4398e-19 5.56785e-20)
(0.003 -1.76819e-19 9.82478e-20)
(0.003 -5.29518e-20 1.55377e-19)
(0.003 -6.62596e-20 3.15564e-19)
(0.003 -2.67324e-20 3.9684e-19)
(0.003 1.30199e-19 3.07625e-19)
(0.003 1.78722e-19 1.55135e-19)
(0.003 7.79923e-20 1.39358e-19)
(0.003 -8.8709e-20 1.46738e-19)
(0.003 1.04479e-19 6.13032e-20)
(0.003 1.59206e-19 4.59121e-20)
(0.003 4.04434e-20 -1.55161e-20)
(0.003 5.68316e-20 3.98452e-20)
(0.003 -4.16917e-20 -1.37721e-19)
(0.003 2.99492e-20 -4.40207e-19)
(0.003 1.75867e-20 -2.77881e-19)
(0.003 -2.43555e-20 -1.92065e-19)
(0.003 1.40782e-19 -7.16214e-20)
(0.003 5.14947e-20 -1.98673e-20)
(0.003 -1.00855e-19 -2.7475e-19)
(0.003 -1.35411e-19 -5.89395e-19)
(0.003 -1.47634e-19 -5.31105e-19)
(0.003 1.7133e-19 7.10251e-19)
(0.003 4.30726e-20 1.07926e-18)
(0.003 -1.04629e-19 1.12123e-18)
(0.003 -1.63918e-19 1.04184e-18)
(0.003 -1.79312e-19 1.07327e-18)
(0.003 -2.21437e-20 9.52901e-19)
(0.003 -2.49669e-20 8.23799e-19)
(0.003 5.96564e-20 6.85873e-19)
(0.003 1.96804e-19 6.72596e-19)
(0.003 1.56225e-19 8.17028e-19)
(0.003 9.47024e-20 8.56226e-19)
(0.003 6.6795e-20 7.09649e-19)
(0.003 1.17803e-20 5.73651e-19)
(0.003 -5.74443e-20 4.7427e-19)
(0.003 -1.12387e-19 3.24702e-19)
(0.003 -8.52995e-20 1.76156e-19)
(0.003 -1.62681e-19 -5.86586e-20)
(0.003 -1.83995e-19 -7.77059e-20)
(0.003 -3.44798e-19 -9.45341e-21)
(0.003 -1.93404e-19 3.93905e-20)
(0.003 -7.42882e-20 2.21097e-19)
(0.003 -1.21499e-19 3.50942e-19)
(0.003 6.57136e-20 3.38897e-19)
(0.003 2.43491e-19 2.88242e-19)
(0.003 1.81541e-19 1.36005e-19)
(0.003 1.43725e-19 1.46076e-19)
(0.003 1.35025e-20 8.76916e-20)
(0.003 4.93257e-20 3.67784e-20)
(0.003 8.77057e-20 6.74426e-20)
(0.003 4.30869e-20 -1.86249e-20)
(0.003 1.90075e-19 -1.00379e-19)
(0.003 2.19172e-19 -1.40334e-19)
(0.003 1.89689e-19 -2.78081e-19)
(0.003 5.00948e-20 -2.53965e-19)
(0.003 -1.1662e-19 -1.35427e-19)
(0.003 -7.09214e-20 -9.16762e-20)
(0.003 -2.05339e-19 -1.06203e-19)
(0.003 -3.02526e-19 -2.88958e-19)
(0.003 -1.78483e-19 -3.69363e-19)
(0.003 -6.00831e-20 -2.01596e-19)
(0.003 -9.56325e-20 6.87001e-19)
(0.003 -1.53031e-19 1.0726e-18)
(0.003 -9.31779e-20 1.13385e-18)
(0.003 -8.41731e-20 9.72266e-19)
(0.003 -1.72127e-19 9.31678e-19)
(0.003 -3.3093e-20 1.01075e-18)
(0.003 6.31808e-20 7.92346e-19)
(0.003 2.11333e-19 5.5276e-19)
(0.003 1.35776e-19 6.46378e-19)
(0.003 -2.39354e-20 8.64272e-19)
(0.003 -3.59705e-20 8.75733e-19)
(0.003 -3.47429e-20 8.07396e-19)
(0.003 -5.79251e-20 6.46379e-19)
(0.003 -1.24629e-19 3.73431e-19)
(0.003 -3.63527e-20 1.68463e-19)
(0.003 -1.1017e-20 1.25924e-19)
(0.003 -5.5754e-20 -5.97155e-20)