/*--------------------------------*- C++ -*----------------------------------*\
| =========                 |                                                 |
| \\      /  F ield         | OpenFOAM: The Open Source CFD Toolbox           |
|  \\    /   O peration     | Version:  v2012                                 |
|   \\  /    A nd           | Website:  www.openfoam.com                      |
|    \\/     M anipulation  |                                                 |
\*---------------------------------------------------------------------------*/
FoamFile
{
    version     2.0;
    format      ascii;
    class       volScalarField;
    location    "27";
    object      p;
}
// * * * * * * * * * * * * * * * * * * * * * * * * * * * * * * * * * * * * * //

dimensions      [0 2 -2 0 0 0 0];


internalField   nonuniform List<scalar> 
64000
(
2.26785e-22
-2.86441e-21
-2.07694e-21
-4.5247e-21
-7.60046e-21
-2.44555e-21
-3.90122e-21
-3.31928e-21
-4.87233e-21
-3.92785e-21
-4.34551e-21
-6.33086e-21
-3.67448e-21
-5.97715e-21
-3.56247e-21
-4.85159e-21
-7.69106e-22
-5.0778e-22
-1.16456e-21
-1.04267e-21
-1.32579e-21
-2.33713e-21
-1.91448e-21
6.95832e-22
-4.95696e-21
-1.33796e-21
1.24061e-21
-3.7276e-21
-4.24006e-21
-1.85407e-21
-9.10389e-22
-5.71456e-22
-1.27992e-21
-1.15998e-21
-1.20054e-21
-4.68579e-21
-1.67436e-21
7.60511e-23
4.80451e-22
5.62603e-22
-6.31655e-21
-8.75763e-21
-8.57375e-21
-6.83819e-21
-9.65025e-21
-1.14969e-20
-7.77352e-21
-2.99207e-21
-3.90748e-21
-9.49624e-21
-7.83906e-21
-9.56535e-21
-4.06563e-21
-4.44602e-21
-6.12109e-21
-5.71832e-21
-3.6931e-21
2.0897e-21
-2.4159e-21
-1.69501e-21
1.59497e-21
-3.34164e-21
-5.25636e-21
-7.18365e-21
-5.49296e-21
-2.14093e-21
-2.19207e-21
-4.49208e-21
-3.9613e-21
-1.9411e-21
1.81377e-21
6.05071e-22
-3.85736e-21
-2.84455e-21
-1.61678e-21
-1.23418e-21
-1.39572e-21
3.96226e-23
1.37377e-21
1.49496e-21
-5.13586e-21
-7.58583e-21
-1.19124e-20
-9.69512e-21
-8.43597e-21
-1.14622e-20
-9.78327e-21
-7.55843e-21
-8.35104e-21
-9.15161e-21
-6.36193e-21
-7.44277e-21
-6.34614e-21
-4.20809e-21
-3.68055e-21
-1.54258e-21
-7.29208e-21
-2.8774e-21
-1.12354e-21
-2.68291e-22
-2.81349e-21
-5.10898e-21
-5.38514e-21
-5.11513e-21
-3.27129e-21
-3.72588e-21
-4.81582e-21
-4.66311e-21
-1.32269e-21
-2.35114e-21
-1.44832e-21
-6.10253e-22
-4.4626e-21
4.41249e-22
-1.64346e-21
-3.94347e-21
1.67397e-21
1.96561e-21
7.04329e-22
1.25619e-21
-8.46932e-21
-8.46373e-21
-9.66846e-21
-1.34102e-20
-1.20999e-20
-1.25405e-20
-1.02063e-20
-6.80868e-21
-8.9986e-21
-9.2575e-21
-7.53847e-21
-8.19295e-21
-7.4942e-21
-3.54342e-21
-4.32769e-21
-3.16409e-21
-4.23897e-21
-3.92975e-21
1.13462e-21
-2.08871e-21
-3.75223e-21
-7.78504e-21
-6.26951e-21
-5.4087e-21
-5.2986e-21
-3.8649e-21
-3.14619e-21
-1.4353e-21
-1.8391e-21
-3.22274e-21
5.13387e-23
-1.81399e-21
-3.01979e-21
-5.99427e-22
-2.16005e-21
-2.81725e-21
1.12271e-21
-1.07523e-21
6.83302e-22
2.78989e-22
-1.46277e-20
-9.29438e-21
-1.03819e-20
-1.11916e-20
-1.21683e-20
-1.38863e-20
-1.04209e-20
-4.43449e-21
-7.98287e-21
-1.07536e-20
-7.89468e-21
-7.58776e-21
-5.81026e-21
-1.59227e-21
-7.43715e-21
-1.15401e-20
-3.86941e-21
-4.29014e-22
-2.09449e-21
-2.62951e-21
-2.16374e-21
-6.86897e-21
-8.86729e-21
-5.41503e-21
-3.92866e-21
-3.52824e-21
-1.7835e-21
-2.52214e-21
-4.94821e-21
-9.83782e-22
9.72975e-22
4.41435e-22
2.88862e-22
-4.29896e-22
-4.12266e-21
-1.87211e-21
3.46195e-22
-7.36688e-23
1.26021e-22
-1.99615e-21
-1.08689e-20
-1.00065e-20
-9.39512e-21
-1.28713e-20
-1.25845e-20
-1.1315e-20
-8.19779e-21
-1.11539e-20
-1.09145e-20
-9.69472e-21
-6.59117e-21
-7.65289e-21
-7.40395e-21
-2.17623e-21
-6.17229e-21
-9.41874e-21
-5.35187e-21
-1.07973e-21
-7.75453e-22
-3.87736e-21
-2.26941e-22
-5.18198e-21
-1.01583e-20
-6.22505e-21
-4.07362e-21
-2.99821e-21
-3.87434e-21
-1.60377e-21
-2.28403e-21
-3.02795e-21
-2.37078e-21
-1.76812e-21
-4.96825e-22
2.27487e-22
-1.30182e-21
-1.85515e-21
-1.39391e-21
-1.03127e-21
-5.39616e-22
5.05889e-22
-1.17411e-20
-1.2476e-20
-9.27226e-21
-1.13983e-20
-1.26322e-20
-1.19297e-20
-8.68464e-21
-1.05683e-20
-1.17573e-20
-9.43044e-21
-7.26392e-21
-8.73839e-21
-6.62686e-21
-5.30947e-21
-6.16509e-21
-7.51268e-21
-4.54779e-21
5.17434e-22
1.91036e-21
-3.14115e-21
-4.21383e-21
-6.45619e-21
-1.19373e-20
-9.00904e-21
-2.09808e-21
-3.39168e-21
-2.67905e-21
-1.25355e-21
-6.94819e-22
-6.26603e-22
-4.05672e-21
-3.28563e-21
-7.06673e-22
-2.16383e-22
-6.29099e-22
-3.85345e-21
-2.48891e-21
-7.65735e-24
-1.77748e-22
-8.07676e-22
-1.33638e-20
-1.31108e-20
-1.14244e-20
-1.03015e-20
-1.2624e-20
-9.69713e-21
-8.43082e-21
-1.5756e-20
-1.3253e-20
-1.06393e-20
-8.26987e-21
-7.26615e-21
-6.9267e-21
-7.31085e-21
-5.59046e-21
-8.58212e-21
-3.60956e-21
-1.11019e-21
-1.61473e-21
-3.03753e-21
-3.31376e-21
-6.44131e-21
-7.31367e-21
-7.05942e-21
-4.22215e-21
-5.06971e-21
-2.12999e-21
1.00775e-22
-5.63312e-22
-2.35911e-21
-3.5641e-21
-3.09125e-21
7.39843e-23
-1.95524e-21
-4.23898e-21
-6.58852e-21
-1.79166e-21
5.56023e-22
3.75965e-22
-8.75046e-22
-1.8339e-20
-1.38626e-20
-1.17038e-20
-1.14785e-20
-1.20745e-20
-1.28863e-20
-1.13964e-20
-1.11798e-20
-1.26221e-20
-1.35318e-20
-6.65184e-21
-7.70676e-21
-7.16316e-21
-9.32916e-21
-7.86538e-21
-8.64047e-21
-4.01517e-21
2.13565e-21
-5.23841e-21
-5.88116e-21
-7.20859e-22
-5.66201e-21
-7.08354e-21
-8.88956e-21
-2.06278e-21
-3.48272e-21
-5.18804e-21
-2.39262e-21
6.17101e-22
-2.62507e-21
-1.32875e-21
-1.10201e-21
-2.39063e-22
-1.93376e-21
-5.69825e-21
-3.50973e-21
-3.00655e-21
4.20562e-22
1.26239e-21
-1.11934e-21
-8.86077e-21
-1.19463e-20
-1.30034e-20
-1.11781e-20
-1.27527e-20
-1.35813e-20
-1.11745e-20
-1.06798e-20
-1.19549e-20
-1.24005e-20
-8.55671e-21
-7.56191e-21
-6.95271e-21
-9.41233e-21
-8.65481e-21
-5.52405e-21
-5.2839e-21
-2.05617e-21
7.27756e-22
-2.18315e-21
-4.3546e-21
-4.65332e-21
-9.59556e-21
-7.97838e-21
-5.40073e-21
-3.01509e-21
-3.10027e-21
-1.10922e-21
-1.15002e-21
-8.82667e-22
-1.24768e-21
1.52626e-22
-1.2065e-21
-1.97954e-21
-4.74406e-21
-5.09395e-21
-2.79284e-21
-3.59003e-22
4.65239e-22
-1.04285e-21
-8.95287e-21
-1.29142e-20
-1.28377e-20
-1.49222e-20
-1.13576e-20
-1.31817e-20
-1.56885e-20
-8.59682e-21
-1.24239e-20
-1.41824e-20
-8.76776e-21
-4.74854e-21
-5.52409e-21
-8.95102e-21
-8.80048e-21
-8.38259e-21
-5.13011e-21
-8.11327e-22
2.76784e-21
-1.32211e-21
-6.88905e-21
-1.04154e-20
-8.70015e-21
-7.36456e-21
-6.10351e-21
-2.51837e-21
4.46075e-22
-8.03634e-22
-1.25654e-21
-1.50848e-21
-3.06445e-21
1.71504e-21
-3.68513e-21
-1.58542e-21
-2.03617e-21
-5.1248e-21
-2.28449e-21
-2.38803e-21
-8.00356e-22
-6.42927e-23
-1.05552e-20
-1.38541e-20
-1.40374e-20
-1.23587e-20
-1.30608e-20
-1.75146e-20
-1.26912e-20
-1.20629e-20
-8.65027e-21
-1.13399e-20
-1.26181e-20
-8.464e-21
-4.9183e-21
-9.02192e-21
-8.87048e-21
-1.06613e-20
-5.11765e-21
1.52893e-21
-1.50765e-22
-1.3636e-21
-6.34658e-21
-9.87991e-21
-8.24943e-21
-7.74587e-21
-7.34486e-21
-3.86691e-22
-6.14367e-22
-1.13244e-21
-2.16068e-21
-7.84585e-22
2.52555e-22
-4.76549e-22
-1.47067e-21
-2.32945e-21
1.54148e-21
-4.37157e-21
-2.86718e-21
-1.74558e-21
-8.23148e-22
-6.289e-22
-1.52272e-20
-1.45297e-20
-1.38607e-20
-1.29763e-20
-1.42258e-20
-1.43701e-20
-1.42021e-20
-1.42315e-20
-1.29781e-20
-1.17608e-20
-1.1435e-20
-6.16397e-21
-6.79263e-21
-9.82353e-21
-7.38692e-21
-6.80516e-21
-4.42201e-21
-9.18253e-22
-1.19065e-21
-3.68343e-21
-5.85206e-21
-6.51987e-21
-7.41758e-21
-6.02238e-21
-3.75802e-21
-6.73298e-22
-4.29181e-22
-2.20071e-21
-1.1902e-21
-4.27689e-22
-4.14234e-21
-1.60412e-21
1.40159e-21
-3.81802e-21
-1.30171e-21
-2.53209e-21
-2.70221e-21
-3.21376e-21
-1.28071e-21
-1.50425e-21
-1.85388e-20
-1.78078e-20
-1.48465e-20
-1.44891e-20
-1.18527e-20
-1.18843e-20
-1.46584e-20
-1.35744e-20
-1.07244e-20
-1.37495e-20
-9.63659e-21
-5.98536e-21
-8.8566e-21
-1.36791e-20
-9.03139e-21
-6.52311e-21
-3.40966e-21
4.85175e-22
-1.99286e-21
-3.50334e-21
-6.7922e-21
-8.03986e-21
-8.56256e-21
-8.10362e-21
-1.69248e-21
-4.13122e-22
7.60046e-22
-1.02219e-21
-1.07535e-21
2.64388e-21
-2.33468e-21
-5.2068e-21
-1.56777e-21
-1.46702e-21
-1.24195e-21
-2.57049e-21
-2.9148e-21
-3.24823e-21
-8.36101e-22
-2.47869e-21
-1.24511e-20
-1.95209e-20
-1.80814e-20
-1.23856e-20
-9.91867e-21
-1.2914e-20
-1.83668e-20
-1.84e-20
-1.22888e-20
-8.88746e-21
-7.13233e-21
-9.53975e-21
-9.40451e-21
-1.28178e-20
-6.08816e-21
-6.74638e-21
-4.65262e-21
-3.89961e-21
-4.7999e-21
-5.66619e-22
-8.61433e-21
-5.39777e-21
-5.6722e-21
-9.34815e-21
-1.28598e-21
-1.38989e-21
-1.7588e-21
-1.82968e-21
6.84728e-23
4.97428e-22
5.529e-23
-1.91952e-21
-2.63163e-21
-1.09613e-21
-1.91762e-21
-2.78602e-21
-2.23727e-21
-2.60406e-21
-2.75152e-21
-1.09257e-22
-1.37929e-20
-1.4338e-20
-1.74801e-20
-1.36043e-20
-1.41809e-20
-1.2432e-20
-1.6514e-20
-1.66004e-20
-1.11278e-20
-8.48804e-21
-1.21493e-20
-1.02453e-20
-8.14853e-21
-9.45703e-21
-9.45287e-21
-8.42744e-21
-4.78159e-21
-5.78016e-21
-3.46887e-21
-1.03262e-21
-9.21104e-21
-7.35306e-21
-4.64823e-21
-4.46465e-21
-1.45897e-21
-3.78852e-21
-5.12882e-21
-2.48372e-21
9.34575e-22
1.13833e-21
-4.31522e-22
-1.70524e-21
-2.36813e-21
-2.06535e-21
-3.24954e-21
-1.77186e-21
-2.41568e-21
-1.80881e-21
-8.40792e-22
-7.32845e-22
-1.47532e-20
-1.34612e-20
-1.59922e-20
-1.14795e-20
-1.18143e-20
-1.35901e-20
-1.66736e-20
-1.83469e-20
-9.97886e-21
-1.07939e-20
-1.25694e-20
-1.26054e-20
-4.93424e-21
-8.34616e-21
-8.3163e-21
-7.73278e-21
-7.47202e-21
-5.12294e-21
-4.61777e-21
-4.42571e-21
-8.53945e-21
-5.78998e-21
-4.44409e-21
-2.47263e-21
-1.93706e-21
-2.56753e-21
-3.90759e-21
-4.33577e-21
3.15989e-23
-1.51844e-21
5.29804e-22
-3.43069e-21
-1.96204e-21
-7.88763e-22
-5.79474e-22
-2.04241e-21
-3.39809e-21
-3.48368e-21
8.41904e-22
-2.11403e-21
-1.09823e-20
-1.42544e-20
-1.85229e-20
-1.15722e-20
-9.22978e-21
-1.36713e-20
-1.73224e-20
-1.59964e-20
-1.25568e-20
-1.17215e-20
-1.1855e-20
-1.08745e-20
-7.33391e-21
-6.4922e-21
-7.30828e-21
-1.07234e-20
-8.19698e-21
-7.39428e-22
-4.2761e-21
-6.19896e-21
-1.03697e-20
-7.86364e-21
-1.75965e-21
-1.79059e-21
9.44239e-22
-4.89628e-21
-4.17555e-21
-2.15882e-21
-2.03287e-21
-1.11985e-21
-1.13787e-21
-6.30272e-22
-3.96889e-22
-2.6048e-22
4.08116e-23
-2.56441e-21
-3.46139e-21
-3.78077e-21
-4.63343e-22
-5.22599e-22
-9.26625e-21
-1.08621e-20
-1.40973e-20
-1.36421e-20
-1.26324e-20
-1.33589e-20
-1.45587e-20
-1.36658e-20
-1.31295e-20
-1.34341e-20
-1.0776e-20
-1.06952e-20
-8.04271e-21
-6.05455e-21
-7.72556e-21
-8.58566e-21
-7.73823e-21
-8.99479e-21
-1.09717e-20
-5.7401e-21
-7.44134e-21
-1.4633e-21
-2.60227e-21
-2.20775e-21
-2.17785e-22
-1.76141e-21
-3.17018e-21
-6.12873e-22
-7.39078e-22
-1.32666e-21
-4.63508e-21
-6.22577e-22
-7.019e-23
-9.11808e-22
1.20254e-22
-1.34468e-21
-2.93627e-21
-2.22381e-21
-3.00481e-21
-2.29735e-21
-8.85018e-21
-1.03851e-20
-1.6557e-20
-1.49011e-20
-1.28939e-20
-1.08113e-20
-1.11194e-20
-1.67269e-20
-1.44238e-20
-1.38634e-20
-9.82914e-21
-9.60147e-21
-8.49996e-21
-7.86238e-21
-9.84744e-21
-9.12345e-21
-5.9456e-21
-5.32789e-21
-1.11433e-20
-6.0506e-21
-6.78414e-21
-5.14504e-21
-3.08102e-21
-2.46422e-21
4.22829e-22
1.32939e-21
-6.68749e-21
-3.00235e-21
-6.14989e-22
-5.59003e-22
-3.08836e-21
-2.65739e-22
-1.33052e-21
-1.30957e-21
-4.33922e-22
3.41298e-23
-2.62445e-21
-1.76621e-21
-3.10087e-21
-2.30983e-21
-1.1136e-20
-1.31818e-20
-1.51405e-20
-1.32657e-20
-1.17061e-20
-1.08402e-20
-1.14178e-20
-1.20301e-20
-1.45403e-20
-1.42194e-20
-1.54988e-20
-1.0968e-20
-7.88408e-21
-9.11708e-21
-1.06506e-20
-5.23839e-21
-7.79466e-21
-4.13373e-21
-6.63466e-21
-6.49676e-21
-5.62308e-21
-3.28314e-21
-2.572e-21
-5.36034e-21
-4.52892e-21
4.17172e-22
-2.48014e-21
-2.19955e-21
-1.8603e-21
-6.11611e-22
-2.33963e-21
-4.58643e-22
-4.53806e-21
6.2853e-22
7.12222e-22
-1.74937e-21
-2.17727e-21
-1.86516e-21
-6.96807e-22
-2.32028e-21
-1.66776e-20
-1.50678e-20
-1.35831e-20
-1.28825e-20
-1.2298e-20
-1.16012e-20
-1.19761e-20
-9.40311e-21
-1.24661e-20
-1.4014e-20
-1.44948e-20
-1.30254e-20
-1.11673e-20
-1.10476e-20
-8.92258e-21
-5.8724e-21
-5.00841e-21
-3.53344e-21
-6.8631e-21
-6.74183e-21
-5.313e-21
-1.67134e-21
-4.26816e-21
-4.37412e-21
-1.69636e-21
-1.28372e-21
-4.21615e-21
-3.77362e-21
-2.10011e-21
-9.66363e-22
-1.90571e-21
4.36183e-22
-1.0155e-21
-2.37556e-22
-2.01901e-21
-5.719e-21
-8.52781e-22
-2.29659e-21
1.00733e-21
7.08187e-22
-1.73165e-20
-1.87641e-20
-1.31801e-20
-1.27212e-20
-1.29418e-20
-1.44841e-20
-1.11038e-20
-9.23161e-21
-1.45221e-20
-1.21643e-20
-1.2785e-20
-1.32392e-20
-1.09634e-20
-7.40123e-21
-7.30316e-21
-6.673e-21
-5.23854e-21
-4.56789e-22
-1.051e-21
-5.73382e-21
-6.99047e-21
-5.57816e-21
-6.69773e-21
-4.86087e-21
-2.46979e-21
-2.43528e-21
-2.25732e-21
-2.78079e-21
-1.77057e-21
-1.11759e-21
-3.51217e-21
-9.69636e-22
1.15526e-21
2.90464e-22
-4.16604e-21
-4.0548e-21
-1.76053e-21
-6.25717e-22
-1.00425e-21
-4.31801e-22
-1.21081e-20
-1.47692e-20
-1.65932e-20
-1.19732e-20
-1.26017e-20
-1.38447e-20
-1.29743e-20
-1.33174e-20
-1.07019e-20
-1.28559e-20
-1.452e-20
-1.40937e-20
-7.11068e-21
-1.04402e-20
-1.09418e-20
-4.60747e-21
-2.06547e-22
-1.9419e-21
-3.7816e-21
-3.80809e-21
-5.19574e-21
-5.80291e-21
-6.78971e-21
-5.49285e-21
-5.18969e-21
-1.09839e-21
-8.93739e-22
-4.46028e-21
4.91552e-22
-2.08345e-21
-4.1709e-21
-6.67244e-22
1.63775e-22
-3.34391e-21
-4.74201e-21
-3.41588e-21
-2.02835e-21
-2.49979e-22
-2.26154e-21
-2.76806e-21
-1.0583e-20
-1.50171e-20
-1.48217e-20
-1.34994e-20
-1.10104e-20
-1.40875e-20
-1.2864e-20
-1.23815e-20
-9.65895e-21
-1.39952e-20
-1.65614e-20
-1.35357e-20
-6.30068e-21
-8.36892e-21
-9.65934e-21
-3.36673e-21
-2.80815e-21
-6.60941e-21
-3.0982e-21
-2.55319e-22
-4.20295e-21
-5.33099e-21
-3.36467e-21
-4.27427e-21
-6.17472e-21
-5.07393e-21
-2.00152e-21
-1.66756e-21
-2.05482e-21
-2.81779e-21
-1.176e-21
-2.02433e-21
-3.92185e-21
1.33432e-22
-5.67186e-21
-3.11971e-21
-1.48753e-21
-1.44862e-21
-2.23117e-21
-1.61231e-21
-1.37054e-20
-1.66946e-20
-1.60073e-20
-1.1863e-20
-9.52737e-21
-1.2487e-20
-1.26856e-20
-1.46971e-20
-8.93854e-21
-1.12498e-20
-1.7603e-20
-1.32668e-20
-7.11205e-21
-1.09815e-20
-4.38839e-21
-4.60899e-21
-5.72259e-21
-1.99769e-21
-8.35375e-23
-3.3922e-21
-2.94225e-21
-3.25641e-21
-9.32523e-21
-8.76011e-21
-6.06947e-21
-6.3125e-21
4.39291e-22
-4.73672e-21
-4.96954e-21
-4.36276e-22
-5.68792e-22
-1.94748e-21
-2.0359e-21
-1.16898e-21
-2.39311e-21
-2.15808e-21
-1.8702e-21
-3.1428e-21
-6.72058e-22
4.68734e-23
-8.0311e-21
-1.33643e-20
-1.48272e-20
-1.73069e-20
-1.3586e-20
-1.40511e-20
-1.16353e-20
-8.01457e-21
-9.92655e-21
-1.22351e-20
-1.64362e-20
-1.31817e-20
-7.89114e-21
-9.16401e-21
-5.08274e-21
-8.92532e-21
-5.59197e-21
-2.95384e-21
1.78931e-21
-1.93777e-22
-1.81985e-21
-6.67322e-21
-6.79966e-21
-7.13861e-21
-7.93661e-21
-4.8197e-21
2.38414e-22
-5.78812e-22
-6.03262e-21
-1.56956e-21
1.59473e-21
-1.52055e-21
-2.32497e-21
-2.58866e-21
-6.82736e-21
-8.83178e-22
-1.29713e-21
-4.26096e-21
-3.76739e-21
-2.08819e-21
-9.24521e-21
-1.3709e-20
-1.44108e-20
-1.54034e-20
-1.24031e-20
-1.25076e-20
-1.13805e-20
-1.08581e-20
-1.05418e-20
-1.16154e-20
-1.35021e-20
-9.32694e-21
-8.63287e-21
-8.00488e-21
-9.24172e-21
-5.45247e-21
-5.26234e-21
-2.91551e-21
-1.3229e-21
-9.97049e-22
-2.77478e-21
-4.06198e-22
-4.72387e-21
-8.28424e-21
-7.96869e-21
-3.89159e-21
-9.06556e-22
-2.37336e-21
-3.66667e-21
-2.26198e-21
-1.13187e-21
-1.95977e-21
-4.13287e-21
-5.49377e-21
-4.62632e-21
-2.26853e-21
-2.7332e-21
-2.52227e-21
-1.03697e-21
-3.16419e-22
-1.25819e-20
-1.79826e-20
-1.46759e-20
-1.05768e-20
-1.68299e-20
-1.31393e-20
-1.06041e-20
-8.5989e-21
-9.47862e-21
-1.20979e-20
-1.34655e-20
-5.80284e-21
-8.13782e-21
-9.84009e-21
-7.44166e-21
-7.47712e-21
-7.18046e-21
4.11219e-22
-2.84418e-22
-8.20802e-23
-4.91461e-21
-4.37449e-21
-4.30749e-21
-5.1626e-21
-6.33073e-21
-4.20833e-21
-1.24828e-21
-3.36582e-21
-1.86018e-21
-3.89623e-21
-1.62792e-21
-1.1875e-21
-4.21903e-21
-2.94522e-21
-4.52341e-21
-3.83406e-21
-3.24123e-21
-3.81727e-21
-9.75241e-22
7.7335e-22
-1.14613e-20
-1.54991e-20
-1.6385e-20
-1.26457e-20
-1.23534e-20
-1.51023e-20
-1.05876e-20
-5.39516e-21
-8.86088e-21
-1.49824e-20
-1.08958e-20
-8.77277e-21
-5.61371e-21
-9.83907e-21
-9.52763e-21
-8.26125e-21
-5.80543e-21
-3.4437e-21
-1.07444e-22
3.45064e-21
-2.24847e-21
-6.62039e-21
-7.12676e-21
-5.64212e-21
-8.22696e-21
-5.59122e-21
-2.94194e-22
2.48281e-21
-2.30488e-21
-2.58279e-21
-2.2017e-21
-2.73724e-21
-5.02315e-21
-2.22691e-21
-3.45172e-21
-5.71006e-21
-3.30868e-21
5.1249e-22
3.34483e-22
4.68146e-22
-1.26683e-20
-1.27866e-20
-1.21905e-20
-1.39337e-20
-1.30988e-20
-1.31831e-20
-9.9025e-21
-9.76018e-21
-9.35557e-21
-1.08816e-20
-9.1669e-21
-7.82913e-21
-8.04151e-21
-9.51252e-21
-7.89861e-21
-9.03122e-21
-5.30992e-21
-3.19604e-21
-2.66437e-22
1.047e-23
-4.21793e-22
-8.28482e-21
-8.06073e-21
-6.80214e-21
-5.29414e-21
-3.66991e-21
-4.24693e-22
-8.91181e-22
-3.80462e-21
-3.01626e-21
-2.37336e-21
-2.00341e-21
-8.02045e-22
-1.29204e-21
-2.39811e-21
-6.86222e-21
-3.37798e-21
-1.25608e-21
-1.14029e-21
-4.27262e-22
-1.633e-20
-1.46132e-20
-1.12411e-20
-1.2135e-20
-1.41153e-20
-1.38026e-20
-9.92847e-21
-8.84922e-21
-9.91615e-21
-8.37121e-21
-5.99403e-21
-9.05025e-21
-1.15907e-20
-1.08194e-20
-6.03234e-21
-7.55838e-21
-4.92768e-21
-1.78976e-21
1.36706e-21
-3.15939e-21
-3.35875e-22
-4.1707e-21
-1.18849e-20
-6.73862e-21
-6.33451e-21
-6.12354e-21
7.17497e-23
1.22332e-21
-2.08034e-21
-4.0498e-21
-2.75641e-21
-3.01188e-21
1.68168e-21
-8.18017e-22
-3.99124e-21
-4.57877e-21
-2.58481e-21
5.21867e-22
-1.92194e-21
-1.66302e-21
-1.0663e-20
-1.02844e-20
-1.18133e-20
-9.07889e-21
-1.69204e-20
-1.46683e-20
-1.04443e-20
-9.94654e-21
-9.01776e-21
-7.90457e-21
-8.69427e-21
-6.66166e-21
-1.04793e-20
-7.66365e-21
-4.43645e-21
-7.13379e-21
-6.3167e-21
-2.30494e-21
1.88075e-21
-1.47065e-21
-2.08446e-21
-4.43457e-21
-9.2124e-21
-6.64662e-21
-8.07196e-21
-6.51622e-21
1.34835e-21
1.01527e-21
-2.1101e-21
-3.89059e-21
-2.6915e-21
-2.44601e-21
9.45258e-22
8.65169e-22
-3.21887e-21
-4.35627e-21
-2.7068e-21
-5.82737e-22
-1.08867e-21
-6.65016e-22
-1.12903e-20
-1.05675e-20
-1.1811e-20
-1.35119e-20
-1.41625e-20
-1.06818e-20
-1.12836e-20
-8.45519e-21
-1.04454e-20
-6.38616e-21
-6.67636e-21
-1.17627e-20
-9.09814e-21
-6.39608e-21
-6.31112e-21
-6.73552e-21
-6.00669e-21
-1.63839e-21
5.49018e-22
-7.72182e-22
-2.66236e-22
-6.35272e-21
-7.08668e-21
-6.78277e-21
-4.62992e-21
-4.63078e-21
-2.62208e-21
-2.56387e-21
-9.70774e-22
-2.67981e-21
-2.44554e-21
-9.11272e-22
-9.48351e-22
-9.77169e-22
-1.30064e-21
-1.49561e-21
-1.7936e-21
1.69683e-21
-1.68344e-21
-2.2464e-21
-1.17901e-20
-9.48544e-21
-9.59775e-21
-9.66995e-21
-1.30701e-20
-1.44789e-20
-1.24152e-20
-1.25264e-20
-1.08048e-20
-7.17154e-21
-2.41888e-21
-1.00456e-20
-3.80814e-21
-4.59925e-21
-6.03354e-21
-7.29318e-21
-6.81032e-21
-8.17611e-22
3.03264e-21
-7.7432e-22
-1.64201e-21
-8.43113e-21
-5.37657e-21
-5.29325e-21
-4.51825e-21
-3.32154e-21
-5.40347e-21
-6.88242e-21
-1.39715e-21
-2.66393e-21
-2.49428e-21
-2.59667e-21
-3.13683e-21
-2.09958e-21
-1.00184e-21
1.22227e-21
-1.52638e-21
1.20521e-21
1.36387e-21
-4.71953e-22
-7.95468e-21
-9.75493e-21
-1.07655e-20
-8.9336e-21
-8.61657e-21
-1.73594e-20
-1.06709e-20
-1.12368e-20
-1.07611e-20
-8.9994e-21
-8.16662e-21
-4.6048e-21
-5.99076e-21
-4.70797e-21
-5.42742e-21
-5.5811e-21
-6.96684e-21
-2.24538e-21
-1.78547e-23
-3.97866e-22
-2.11019e-21
-3.81412e-21
-6.27106e-21
-7.35093e-21
-4.0119e-21
-1.3759e-21
-1.77294e-21
-1.90999e-21
-4.26238e-21
-2.3248e-21
-3.73212e-21
-3.01445e-21
-5.5927e-22
-2.6221e-21
-3.82607e-21
4.41826e-23
-1.65496e-22
1.89008e-21
4.35332e-22
-1.39319e-21
-6.78427e-21
-8.95328e-21
-1.09385e-20
-9.96273e-21
-9.82173e-21
-1.22445e-20
-1.10542e-20
-9.70395e-21
-9.81679e-21
-8.46397e-21
-7.79454e-21
-5.61759e-21
-6.59367e-21
-4.32682e-21
-5.92333e-21
-6.27301e-21
-4.63239e-21
-4.70475e-22
2.81596e-21
-2.65762e-21
-2.48938e-21
-4.75492e-21
-4.74679e-21
-5.9124e-21
-5.41601e-21
-4.19551e-21
-2.22998e-21
-9.60024e-22
-1.19947e-21
-1.80332e-21
-5.66002e-21
-2.10367e-21
-2.6443e-21
-2.51061e-21
-3.55116e-21
-5.32278e-22
1.58426e-21
8.45415e-23
-3.25102e-22
7.46978e-23
-5.16495e-21
-8.63299e-21
-1.18479e-20
-7.17676e-21
-7.21148e-21
-1.05169e-20
-9.88764e-21
-8.37057e-21
-9.0874e-21
-8.38353e-21
-4.70069e-21
-7.92233e-21
-7.56102e-21
-6.73596e-21
-2.09183e-21
-1.86679e-21
-1.80282e-21
-3.7762e-21
-7.42036e-22
-1.37303e-21
-2.01629e-21
-3.76776e-21
-4.07851e-21
-6.2099e-21
-2.52434e-21
-9.09511e-22
-3.31822e-21
-1.67605e-21
2.25737e-22
-2.86782e-21
-6.79654e-21
-4.81245e-21
-3.80515e-21
-1.65327e-21
-4.49405e-21
-3.22589e-21
1.40953e-21
2.19955e-21
4.62708e-22
-9.86349e-22
-6.49631e-21
-8.23439e-21
-1.06314e-20
-6.39529e-21
-8.05306e-21
-9.20289e-21
-7.91533e-21
-4.38239e-21
-9.16909e-21
-9.01298e-21
-5.54756e-21
-5.83206e-21
-6.05392e-21
-5.7651e-21
-5.26261e-21
-2.51298e-21
-2.96848e-21
1.70843e-22
-4.47646e-22
-7.34457e-23
1.05132e-21
-3.01168e-21
-3.5978e-21
-7.64966e-21
-7.76608e-21
-2.8424e-22
-3.41143e-22
3.13539e-22
-1.64403e-21
-4.17583e-21
-1.83358e-21
-4.80637e-21
-3.2589e-21
-1.67696e-21
-1.89427e-21
-5.08518e-21
-1.55524e-21
-4.83314e-22
2.13294e-21
-6.61772e-22
-6.07545e-21
-6.78669e-21
-6.4896e-21
-2.445e-21
-1.47201e-21
-4.7093e-21
-7.76095e-21
-4.44705e-21
-6.67951e-21
-6.11868e-21
-2.25721e-21
-2.21343e-21
-5.44635e-21
-3.86304e-21
-3.07816e-21
-1.47273e-21
-2.34131e-22
1.44197e-21
1.13659e-21
2.0994e-21
-5.76079e-22
-5.45753e-21
-3.70945e-21
-2.92573e-21
-3.40216e-21
-4.7466e-22
-7.37449e-22
-4.18799e-22
-1.73922e-22
6.45797e-22
-1.32806e-21
-1.065e-21
-2.69297e-21
-2.9643e-21
-4.7955e-22
-6.38918e-21
-4.04085e-21
-2.15562e-21
7.80331e-22
4.65369e-22
-4.25272e-21
-7.53238e-21
-1.13455e-20
-7.87888e-21
-7.41307e-21
-9.4706e-21
-5.25405e-21
-2.30775e-21
-1.11107e-20
-9.40459e-21
-5.28365e-21
-8.49101e-21
-6.42365e-21
-3.03138e-21
-4.83149e-21
-7.49278e-21
-4.13253e-21
1.40736e-22
-8.49566e-22
-2.34446e-21
-3.28349e-21
-3.88554e-21
-4.30952e-21
-2.39517e-21
-3.35665e-21
-2.66854e-21
-2.63396e-21
-4.24554e-21
-6.3278e-21
-4.50502e-21
-3.49387e-21
3.081e-23
-1.71976e-21
-2.00909e-21
-2.46106e-21
-4.27187e-21
-1.33262e-21
-1.66163e-21
-4.79074e-22
1.34709e-21
-5.84192e-21
-1.00015e-20
-1.518e-20
-1.29166e-20
-1.01561e-20
-1.31554e-20
-1.12342e-20
-4.65602e-21
-9.25077e-21
-1.48765e-20
-1.33571e-20
-1.04837e-20
-9.48052e-21
-7.34042e-21
-7.44364e-21
-6.65809e-21
-6.13127e-21
-3.97283e-21
-4.07603e-21
-3.07664e-21
-2.02125e-21
-3.62012e-21
-4.66443e-21
-5.69929e-21
-4.55913e-21
-3.49482e-21
-1.21572e-21
-2.83418e-21
-8.54528e-21
-3.44361e-21
-3.4503e-22
1.43505e-21
-3.83457e-21
-2.18794e-21
-5.81175e-21
-1.38968e-21
-2.56207e-22
-9.66414e-24
6.32364e-22
7.49343e-22
-9.66416e-21
-1.08062e-20
-1.34129e-20
-1.42285e-20
-1.3059e-20
-1.25303e-20
-1.23938e-20
-1.06822e-20
-1.33202e-20
-1.52691e-20
-1.06752e-20
-8.22346e-21
-6.34859e-21
-6.85151e-21
-8.93911e-21
-7.25357e-21
-8.69209e-21
-6.30768e-21
-7.12926e-22
-3.28167e-21
-4.79158e-21
-3.72343e-21
-1.10588e-21
-4.12745e-21
-5.79666e-21
-3.32435e-21
-3.46579e-21
-4.79189e-21
-3.16775e-21
-3.54112e-21
-5.32822e-21
-2.357e-21
-1.88303e-21
1.11035e-22
-6.10319e-21
-3.78779e-21
1.67369e-21
9.79031e-22
9.04252e-22
1.40773e-21
-1.53376e-20
-1.44746e-20
-1.35854e-20
-1.77248e-20
-1.49971e-20
-1.36921e-20
-1.39445e-20
-1.11042e-20
-1.26078e-20
-1.25974e-20
-1.11622e-20
-1.20792e-20
-9.51557e-21
-5.20925e-21
-7.48952e-21
-7.68962e-21
-7.47315e-21
-5.66337e-21
-3.12691e-21
-1.91947e-21
-5.31938e-21
-5.55593e-21
-4.74015e-21
-4.77268e-21
-4.26649e-21
-4.06809e-21
-2.63904e-21
-8.27407e-22
-2.94005e-21
-6.11207e-21
-4.8418e-21
-1.13964e-21
-2.46171e-21
-3.94529e-21
-3.18964e-21
-1.34507e-21
1.02885e-21
1.55601e-21
-4.52027e-22
-6.86855e-22
-1.55418e-20
-1.51845e-20
-1.39035e-20
-1.44084e-20
-1.91279e-20
-1.77399e-20
-1.36029e-20
-9.46884e-21
-9.82649e-21
-1.34637e-20
-1.18174e-20
-1.2011e-20
-7.71254e-21
-6.71111e-21
-9.34239e-21
-1.02398e-20
-9.10895e-21
-5.15354e-21
-4.50014e-21
-1.66135e-21
-4.1021e-21
-4.98599e-21
-6.67342e-21
-4.5688e-21
-6.31066e-21
-3.65175e-21
-3.01456e-21
-3.58895e-21
-2.92093e-21
-3.40904e-21
-2.99511e-21
-3.87124e-21
-2.47009e-22
-1.12304e-21
-3.14595e-21
-1.37147e-21
9.46624e-22
7.7414e-22
-1.2355e-21
-5.47262e-22
-1.40417e-20
-1.49155e-20
-1.37213e-20
-1.46357e-20
-1.92757e-20
-1.86979e-20
-1.18747e-20
-1.34971e-20
-1.41136e-20
-1.25869e-20
-1.10699e-20
-1.20069e-20
-1.00106e-20
-6.59328e-21
-1.04456e-20
-1.02245e-20
-8.91287e-21
-5.5734e-21
-3.21844e-21
-1.86442e-21
-3.81303e-21
-7.02181e-21
-7.01324e-21
-4.88043e-21
-5.60823e-21
-4.27859e-21
-2.98629e-21
-3.13571e-21
-4.18466e-21
-3.76418e-21
-4.05094e-21
-1.98929e-21
2.77909e-21
-1.90797e-21
-2.77851e-21
-2.22884e-21
1.80348e-22
7.98836e-22
8.71198e-22
-4.85764e-22
-1.6785e-20
-1.8489e-20
-1.555e-20
-1.61016e-20
-1.75729e-20
-1.69016e-20
-1.5767e-20
-1.44741e-20
-1.53874e-20
-1.32633e-20
-1.31568e-20
-1.19183e-20
-1.03982e-20
-6.68079e-21
-1.08035e-20
-8.81174e-21
-6.09134e-21
-4.18585e-21
-2.53108e-21
-2.44049e-21
-4.20177e-21
-7.3466e-21
-7.01497e-21
-5.65291e-21
-4.48874e-21
-4.77049e-21
-3.70912e-21
-2.96803e-21
7.59677e-23
-1.8797e-21
-4.73046e-21
-2.80569e-21
3.64376e-22
1.11533e-21
-3.53886e-21
-3.77807e-21
1.93918e-22
1.09624e-21
-1.76922e-21
-2.93035e-21
-1.62821e-20
-1.81887e-20
-1.63234e-20
-1.66141e-20
-1.8761e-20
-1.54345e-20
-1.65243e-20
-1.75652e-20
-1.69875e-20
-1.53639e-20
-1.28629e-20
-1.16681e-20
-8.0471e-21
-6.04745e-21
-1.22172e-20
-1.04532e-20
-6.64761e-21
-4.36744e-21
-1.20963e-21
-4.37029e-21
-3.53026e-21
-7.25019e-21
-8.55223e-21
-3.63713e-21
-7.25017e-21
-4.13488e-21
-3.43583e-22
-1.43166e-21
-8.70791e-22
-3.04201e-21
-6.24116e-21
-2.75661e-21
-1.31195e-21
-2.92252e-21
-1.95465e-21
-7.61712e-22
7.03304e-22
4.69781e-22
-1.78506e-21
-8.00138e-22
-1.83746e-20
-1.97538e-20
-2.01859e-20
-1.71669e-20
-1.78756e-20
-1.64357e-20
-1.74757e-20
-1.673e-20
-1.63293e-20
-1.53283e-20
-1.50027e-20
-1.25644e-20
-6.43939e-21
-1.01625e-20
-9.52245e-21
-9.86357e-21
-9.84977e-21
-3.77573e-21
-3.93185e-21
-4.4594e-21
-4.05066e-22
-8.92587e-21
-8.19811e-21
-6.61185e-21
-5.14468e-21
-3.07077e-21
-2.76241e-21
-2.02705e-21
1.75516e-21
-2.0648e-21
-3.40573e-21
-3.77415e-21
-2.29703e-21
-4.7698e-22
-1.64302e-21
1.5132e-22
-6.17432e-22
-3.31728e-22
7.87948e-22
-1.3272e-21
-1.87393e-20
-1.83495e-20
-1.80089e-20
-1.99714e-20
-1.95762e-20
-1.80313e-20
-2.05629e-20
-1.62094e-20
-1.2714e-20
-1.40082e-20
-1.34788e-20
-1.41202e-20
-1.06638e-20
-1.18863e-20
-1.07821e-20
-7.11846e-21
-6.24949e-21
-5.53497e-21
-7.22e-22
-1.48959e-21
-5.05007e-21
-9.35324e-21
-8.79856e-21
-8.21978e-21
-5.34454e-21
-3.95963e-21
-2.65766e-21
-2.0044e-21
-1.17511e-21
-2.42834e-21
-9.066e-22
-1.42573e-21
-2.51372e-21
-1.65493e-22
-1.72533e-21
-1.21877e-21
1.23079e-21
-9.69434e-22
9.07549e-22
-6.53288e-22
-1.84012e-20
-2.21337e-20
-2.1162e-20
-2.03241e-20
-1.96058e-20
-1.79692e-20
-1.79298e-20
-1.67904e-20
-1.5205e-20
-1.51058e-20
-1.32448e-20
-1.20451e-20
-1.1189e-20
-1.03999e-20
-1.09491e-20
-9.75162e-21
-5.49374e-21
-3.59377e-21
-2.55515e-22
-4.05146e-21
-8.19365e-21
-8.15376e-21
-1.02839e-20
-1.18122e-20
-3.4074e-21
-1.72902e-21
-2.73199e-21
-2.73104e-21
-1.06693e-21
-2.42161e-21
-2.21695e-21
-9.57516e-22
-5.12304e-22
-1.02398e-21
-2.056e-21
-4.38346e-22
-6.9967e-22
-2.01553e-21
-2.8463e-21
-2.66274e-21
-2.12821e-20
-2.26435e-20
-1.94271e-20
-1.8616e-20
-1.76459e-20
-1.9611e-20
-1.8752e-20
-1.69118e-20
-1.38531e-20
-1.6385e-20
-1.37279e-20
-1.21433e-20
-1.2874e-20
-9.25075e-21
-1.11692e-20
-1.06791e-20
-8.33618e-21
-3.01499e-21
-2.78372e-22
-4.49948e-21
-7.17147e-21
-7.79133e-21
-8.98846e-21
-1.14639e-20
-2.94337e-21
-3.61123e-21
-4.51169e-21
-2.78873e-21
1.04456e-21
-2.97322e-21
-2.88986e-21
-1.22072e-21
-1.04595e-21
-8.56952e-22
-9.1643e-22
-1.27019e-21
1.32346e-22
-2.34326e-21
-3.38709e-21
-7.53628e-22
-2.37419e-20
-2.33086e-20
-1.92971e-20
-2.0402e-20
-1.86956e-20
-2.04326e-20
-1.83314e-20
-1.74818e-20
-1.67392e-20
-1.45686e-20
-1.17761e-20
-1.24254e-20
-1.32298e-20
-9.73461e-21
-1.10772e-20
-8.06797e-21
-4.82726e-21
-3.06379e-21
-5.64462e-21
-6.6576e-21
-6.80542e-21
-5.38774e-21
-9.36765e-21
-8.24323e-21
-3.34435e-21
-1.99235e-21
-1.81536e-21
-2.05092e-21
-1.98359e-21
-1.81277e-21
-4.05703e-21
-2.44286e-21
-5.60844e-22
-1.85225e-21
-5.47364e-21
6.58151e-22
1.75534e-21
-4.01134e-21
-2.17387e-21
7.31188e-22
-2.59225e-20
-2.47996e-20
-2.06711e-20
-2.08928e-20
-1.87381e-20
-1.89432e-20
-2.00774e-20
-1.62197e-20
-1.66785e-20
-1.63745e-20
-1.29506e-20
-9.84635e-21
-1.27706e-20
-1.20856e-20
-1.37739e-20
-7.88016e-21
-8.29985e-21
-4.57468e-21
-4.13751e-21
-1.93326e-21
-7.47509e-21
-8.25666e-21
-8.28092e-21
-7.07168e-21
-3.11959e-21
-1.44019e-21
-2.29606e-21
-1.59137e-21
-5.25548e-22
-9.78411e-22
-3.90661e-21
-1.73662e-21
-2.58076e-21
-3.28826e-21
-3.87758e-21
2.0032e-22
2.48628e-21
-1.38126e-21
-1.53728e-21
-2.31452e-22
-2.69873e-20
-2.43665e-20
-2.1e-20
-1.92353e-20
-1.76628e-20
-1.71753e-20
-2.10041e-20
-1.81357e-20
-1.66744e-20
-1.41624e-20
-1.20852e-20
-1.22181e-20
-1.43305e-20
-1.20386e-20
-1.14103e-20
-9.77869e-21
-3.41639e-21
-5.32344e-21
-7.26594e-21
-4.30417e-21
-6.81414e-21
-9.666e-21
-8.61737e-21
-5.91346e-21
-2.33466e-21
-3.44632e-21
-2.11456e-21
-7.07226e-22
-1.60373e-21
-6.06864e-22
-4.35584e-21
-2.43698e-21
-1.6957e-21
-8.79657e-22
-3.24383e-21
-2.70517e-21
1.39097e-21
3.7824e-22
-1.14306e-21
-1.14567e-21
-2.45223e-20
-2.48229e-20
-2.29416e-20
-2.00415e-20
-1.92084e-20
-1.97767e-20
-1.97144e-20
-1.82018e-20
-1.61445e-20
-1.25631e-20
-1.37732e-20
-1.51437e-20
-1.53716e-20
-1.18202e-20
-1.08432e-20
-7.34846e-21
-5.08048e-21
-6.47587e-21
-6.90813e-21
-4.65486e-21
-6.47277e-21
-1.01906e-20
-8.9962e-21
-4.95471e-21
-1.23311e-21
-5.28332e-21
-3.25576e-21
-2.08149e-21
-2.41924e-21
-1.02087e-21
-1.55402e-21
-1.93946e-21
-7.73158e-22
-2.94006e-22
-3.90868e-21
-9.93098e-22
4.2441e-22
-1.42107e-21
-3.09835e-22
-1.65329e-21
-2.21039e-20
-2.2067e-20
-2.24081e-20
-1.84857e-20
-2.28285e-20
-1.97057e-20
-2.04667e-20
-1.94417e-20
-1.75721e-20
-1.13494e-20
-1.28102e-20
-1.4935e-20
-1.40462e-20
-1.28781e-20
-1.0094e-20
-6.05368e-21
-4.3688e-21
-7.44192e-21
-1.13095e-20
-7.16871e-21
-9.27852e-21
-7.07544e-21
-4.5679e-21
-4.3828e-21
-9.18463e-22
-5.0364e-21
-3.56585e-21
-3.73049e-21
-3.35304e-21
-1.10616e-21
-7.90541e-22
-1.38689e-21
-9.96442e-22