/*--------------------------------*- C++ -*----------------------------------*\
| =========                 |                                                 |
| \\      /  F ield         | OpenFOAM: The Open Source CFD Toolbox           |
|  \\    /   O peration     | Version:  v2012                                 |
|   \\  /    A nd           | Website:  www.openfoam.com                      |
|    \\/     M anipulation  |                                                 |
\*---------------------------------------------------------------------------*/
FoamFile
{
    version     2.0;
    format      ascii;
    class       surfaceScalarField;
    location    "27";
    object      phi;
}
// * * * * * * * * * * * * * * * * * * * * * * * * * * * * * * * * * * * * * //

dimensions      [0 3 -1 0 0 0 0];
oriented        oriented;


internalField   nonuniform List<scalar> 
187200
(
1.875e-06
2.78273e-22
2.13623e-22
1.875e-06
3.15463e-22
3.08065e-22
1.875e-06
3.4699e-22
4.39474e-22
1.875e-06
2.89404e-22
3.14253e-22
1.875e-06
3.1082e-22
2.10434e-22
1.875e-06
4.60016e-22
3.2737e-22
1.875e-06
3.56267e-22
2.36327e-22
1.875e-06
2.05835e-22
2.14507e-22
1.875e-06
1.82347e-22
3.89975e-22
1.875e-06
3.73194e-22
3.83243e-22
1.875e-06
3.06562e-22
2.53848e-22
1.875e-06
2.73679e-22
2.17451e-22
1.875e-06
1.86758e-22
2.27372e-22
1.875e-06
1.29977e-22
8.92256e-23
1.875e-06
1.524e-22
1.91961e-22
1.875e-06
1.14118e-22
2.16179e-22
1.875e-06
1.52953e-22
1.92111e-22
1.875e-06
4.10261e-23
9.65302e-23
1.875e-06
8.8756e-23
6.08782e-23
1.875e-06
6.05584e-23
9.75105e-23
1.875e-06
3.43684e-24
1.24868e-22
1.875e-06
1.34701e-22
1.31417e-22
1.875e-06
1.82089e-22
1.37085e-22
1.875e-06
2.81794e-22
1.07753e-22
1.875e-06
1.24577e-22
3.54938e-23
1.875e-06
1.40024e-22
9.8909e-23
1.875e-06
1.65441e-22
2.05357e-22
1.875e-06
8.73128e-23
1.18921e-22
1.875e-06
2.28712e-23
1.2834e-22
1.875e-06
1.3185e-23
1.63763e-22
1.875e-06
-5.8052e-23
1.53397e-22
1.875e-06
-1.32707e-24
4.85379e-23
1.875e-06
9.16791e-23
5.30924e-23
1.875e-06
6.41856e-23
6.08713e-23
1.875e-06
2.95334e-23
6.37053e-23
1.875e-06
-6.97008e-23
5.65349e-23
1.875e-06
-9.22767e-23
2.11449e-24
1.875e-06
-1.07098e-22
2.81553e-23
1.875e-06
-9.89351e-23
1.15106e-22
-9.98001e-23
6.84693e-23
1.875e-06
2.85721e-23
1.60739e-22
1.875e-06
1.58226e-22
4.90263e-22
1.875e-06
3.02108e-22
6.73322e-22
1.875e-06
3.21068e-22
6.61191e-22
1.875e-06
2.45307e-22
5.08657e-22
1.875e-06
3.01752e-22
5.23811e-22
1.875e-06
3.75412e-22
5.75266e-22
1.875e-06
3.69625e-22
5.57855e-22
1.875e-06
3.92053e-22
6.9209e-22
1.875e-06
2.13001e-22
6.71917e-22
1.875e-06
1.92324e-22
6.33309e-22
1.875e-06
1.4424e-22
5.0173e-22
1.875e-06
2.25029e-22
5.39792e-22
1.875e-06
1.31163e-22
4.42452e-22
1.875e-06
4.2662e-23
4.14111e-22
1.875e-06
2.65671e-23
3.86181e-22
1.875e-06
2.45084e-22
3.86579e-22
1.875e-06
2.63432e-22
4.45733e-22
1.875e-06
6.22066e-23
3.00042e-22
1.875e-06
3.96034e-23
1.94214e-22
1.875e-06
2.19814e-22
2.27916e-22
1.875e-06
1.77147e-22
1.65681e-22
1.875e-06
7.57438e-23
6.65196e-23
1.875e-06
5.69485e-23
9.89669e-23
1.875e-06
7.45365e-23
1.27576e-22
1.875e-06
9.62924e-23
1.38677e-22
1.875e-06
1.50378e-22
6.25075e-23
1.875e-06
2.83263e-23
1.42507e-22
1.875e-06
-6.92467e-23
3.18341e-22
1.875e-06
1.31722e-24
2.38718e-22
1.875e-06
9.98203e-23
1.88352e-22
1.875e-06
8.3014e-23
6.02152e-23
1.875e-06
4.7895e-23
6.20387e-23
1.875e-06
-7.30517e-23
5.76469e-23
1.875e-06
-1.1728e-23
1.68744e-22
1.875e-06
5.28821e-23
1.83737e-23
1.875e-06
-1.47379e-22
-1.7247e-24
1.875e-06
-1.39961e-22
9.29397e-25
1.875e-06
-1.74762e-23
3.70288e-23
1.25137e-23
1.14548e-22
1.875e-06
1.74608e-22
3.37315e-22
1.875e-06
1.73677e-22
5.42071e-22
1.875e-06
1.28171e-22
6.55442e-22
1.875e-06
2.8505e-22
7.54777e-22
1.875e-06
3.10835e-22
7.10843e-22
1.875e-06
2.60922e-22
6.21539e-22
1.875e-06
2.54456e-22
6.9254e-22
1.875e-06
2.73627e-22
7.24627e-22
1.875e-06
2.53003e-22
7.88827e-22
1.875e-06
2.29414e-22
7.95661e-22
1.875e-06
2.42029e-22
7.30149e-22
1.875e-06
1.95975e-22
5.93597e-22
1.875e-06
1.7189e-22
5.36118e-22
1.875e-06
9.43686e-23
5.09633e-22
1.875e-06
1.46339e-22
5.63062e-22
1.875e-06
1.96745e-22
5.22984e-22
1.875e-06
6.30759e-23
3.97748e-22
1.875e-06
1.40935e-22
4.80076e-22
1.875e-06
4.43017e-23
3.01558e-22
1.875e-06
1.33804e-22
3.34174e-22
1.875e-06
1.05129e-22
2.58883e-22
1.875e-06
1.42228e-22
1.39404e-22
1.875e-06
1.63438e-22
1.26968e-23
1.875e-06
1.60505e-22
1.09731e-22
1.875e-06
1.36274e-22
2.20993e-22
1.875e-06
5.72712e-23
1.70476e-22
1.875e-06
1.7124e-23
1.44611e-22
1.875e-06
-3.81582e-23
1.53169e-22
1.875e-06
1.11308e-23
2.43053e-22
1.875e-06
-2.6695e-24
2.43565e-22
1.875e-06
-1.70637e-23
2.75513e-22
1.875e-06
5.61154e-23
1.80973e-22
1.875e-06
-8.04632e-23
6.05691e-23
1.875e-06
-1.8432e-24
2.03512e-23
1.875e-06
3.40681e-24
1.44319e-22
1.875e-06
-6.63593e-23
-1.02877e-24
1.875e-06
-2.20081e-23
2.31107e-23
1.875e-06
4.57249e-23
8.19573e-23
1.875e-06
5.82534e-23
3.88564e-23
5.86566e-23
1.9931e-23
1.875e-06
2.15315e-22
4.02377e-22
1.875e-06
1.69892e-22
6.83492e-22
1.875e-06
1.40151e-22
7.52955e-22
1.875e-06
1.04934e-22
8.06681e-22
1.875e-06
1.71449e-22
7.39813e-22
1.875e-06
2.1518e-22
7.31028e-22
1.875e-06
1.71286e-22
7.54185e-22
1.875e-06
1.70233e-22
8.07948e-22
1.875e-06
2.02491e-22
8.03617e-22
1.875e-06
2.46706e-22
8.03173e-22
1.875e-06
1.81492e-22
8.12023e-22
1.875e-06
1.62863e-22
7.70378e-22
1.875e-06
1.25891e-22
6.50007e-22
1.875e-06
1.20843e-22
5.45274e-22
1.875e-06
2.69523e-22
5.71146e-22
1.875e-06
3.87178e-22
5.20329e-22
1.875e-06
1.17219e-22
4.73263e-22
1.875e-06
-2.70459e-23
4.19786e-22
1.875e-06
1.22339e-22
4.3856e-22
1.875e-06
6.7767e-23
2.49536e-22
1.875e-06
-1.75721e-23
2.6971e-22
1.875e-06
3.80534e-23
1.52715e-22
1.875e-06
1.83809e-22
7.54264e-23
1.875e-06
1.2749e-22
1.26517e-22
1.875e-06
5.04538e-23
1.83086e-22
1.875e-06
9.06251e-23
2.45126e-22
1.875e-06
1.4493e-23
1.43225e-22
1.875e-06
2.23575e-23
1.03733e-22
1.875e-06
6.17948e-23
1.9133e-22
1.875e-06
-2.52904e-23
2.85889e-22
1.875e-06
-1.45438e-23
2.85187e-22
1.875e-06
-8.42335e-23
1.07947e-22
1.875e-06
-1.03756e-22
1.52518e-22
1.875e-06
-6.69474e-23
1.65494e-22
1.875e-06
1.99879e-23
5.65532e-23
1.875e-06
-6.58861e-23
-4.02017e-23
1.875e-06
7.97602e-23
3.28103e-23
1.875e-06
5.24407e-23
2.21791e-23
1.875e-06
-1.10511e-23
3.61202e-23
1.17562e-22
6.61779e-23
1.875e-06
-6.0669e-23
2.76488e-22
1.875e-06
8.46069e-23
7.25166e-22
1.875e-06
6.1508e-23
7.68624e-22
1.875e-06
1.16018e-22
8.05242e-22
1.875e-06
1.54473e-22
9.10424e-22
1.875e-06
8.4002e-23
8.72058e-22
1.875e-06
9.88157e-23
8.49529e-22
1.875e-06
3.6704e-22
8.63341e-22
1.875e-06
3.34158e-22
8.2009e-22
1.875e-06
1.96981e-22
8.45114e-22
1.875e-06
1.30484e-22
8.42583e-22
1.875e-06
1.57906e-22
7.76775e-22
1.875e-06
2.01397e-22
6.72516e-22
1.875e-06
1.76087e-22
6.43354e-22
1.875e-06
1.57951e-22
5.46888e-22
1.875e-06
1.31468e-22
4.20914e-22
1.875e-06
1.409e-22
5.53411e-22
1.875e-06
3.19235e-23
4.77263e-22
1.875e-06
-2.4881e-23
3.92605e-22
1.875e-06
4.38484e-23
2.49624e-22
1.875e-06
-3.05393e-23
2.75597e-22
1.875e-06
5.91507e-23
1.44482e-22
1.875e-06
1.79137e-22
1.25427e-22
1.875e-06
1.15461e-22
1.4809e-22
1.875e-06
1.14904e-22
3.14392e-22
1.875e-06
7.51437e-23
2.56633e-22
1.875e-06
1.05448e-22
1.68543e-22
1.875e-06
-1.10784e-23
1.70872e-22
1.875e-06
-8.62645e-23
1.57335e-22
1.875e-06
2.30407e-23
2.5446e-22
1.875e-06
7.40881e-23
2.58989e-22
1.875e-06
1.0216e-22
2.68111e-22
1.875e-06
6.94957e-24
1.68156e-22
1.875e-06
-7.20151e-23
1.30593e-22
1.875e-06
-9.77032e-23
-1.12406e-23
1.875e-06
3.06094e-23
1.42761e-23
1.875e-06
3.48502e-23
-3.57313e-23
1.875e-06
6.26724e-23
-7.02479e-24
1.875e-06
8.20255e-23
7.43854e-23
-2.59314e-23
2.8217e-23
1.875e-06
7.68552e-23
3.82496e-22
1.875e-06
1.81567e-22
7.1533e-22
1.875e-06
7.85472e-23
7.8299e-22
1.875e-06
3.81203e-23
7.95271e-22
1.875e-06
9.7e-23
9.73044e-22
1.875e-06
1.33498e-22
9.94361e-22
1.875e-06
1.63386e-22
9.45345e-22
1.875e-06
2.2536e-22
9.43098e-22
1.875e-06
2.86876e-22
8.87074e-22
1.875e-06
2.19266e-22
8.33782e-22
1.875e-06
1.87483e-22
8.5857e-22
1.875e-06
1.81541e-22
8.25745e-22
1.875e-06
1.36021e-22
7.08413e-22
1.875e-06
2.35158e-22
6.92334e-22
1.875e-06
1.56004e-22
6.59794e-22
1.875e-06
7.4648e-23
5.13569e-22
1.875e-06
5.01375e-23
4.72993e-22
1.875e-06
-3.12291e-23
4.65221e-22
1.875e-06
-5.23547e-23
3.7864e-22
1.875e-06
2.1742e-23
2.26156e-22
1.875e-06
1.66193e-22
3.28833e-22
1.875e-06
1.13162e-22
2.2792e-22
1.875e-06
1.42337e-22
1.2496e-22
1.875e-06
1.59098e-22
1.85053e-22
1.875e-06
2.40841e-23
2.70516e-22
1.875e-06
4.24713e-23
2.19909e-22
1.875e-06
1.35908e-23
1.53613e-22
1.875e-06
7.52512e-24
2.37723e-22
1.875e-06
-9.14089e-23
2.08409e-22
1.875e-06
-9.90508e-23
2.0141e-22
1.875e-06
7.12641e-23
2.18062e-22
1.875e-06
5.3794e-23
1.82107e-22
1.875e-06
1.63296e-23
8.677e-23
1.875e-06
2.11995e-23
1.62064e-22
1.875e-06
2.42973e-23
9.02419e-23
1.875e-06
1.27576e-22
1.68513e-23
1.875e-06
1.51365e-22
-9.36412e-23
1.875e-06
-1.26889e-23
-1.08987e-22
1.875e-06
-2.18974e-23
-2.73951e-23
3.11278e-23
9.33685e-23
1.875e-06
8.19027e-23
4.03408e-22
1.875e-06
9.85591e-23
6.33037e-22
1.875e-06
1.67747e-22
8.61184e-22
1.875e-06
1.0409e-22
9.65477e-22
1.875e-06
8.31833e-23
9.77052e-22
1.875e-06
7.57501e-23
9.87991e-22
1.875e-06
1.72581e-22
1.05189e-21
1.875e-06
3.35659e-22
1.01913e-21
1.875e-06
2.57162e-22
9.76779e-22
1.875e-06
2.21909e-22
9.10045e-22
1.875e-06
1.95141e-22
9.36348e-22
1.875e-06
1.02197e-22
8.05837e-22
1.875e-06
1.19089e-22
7.64355e-22
1.875e-06
2.18019e-22
6.20296e-22
1.875e-06
1.34013e-22
6.86333e-22
1.875e-06
1.26066e-22
5.25151e-22
1.875e-06
4.43729e-23
4.14219e-22
1.875e-06
9.65412e-23
4.31434e-22
1.875e-06
1.43104e-22
3.83855e-22
1.875e-06
1.07073e-22
2.54124e-22
1.875e-06
5.82452e-23
2.89812e-22
1.875e-06
3.61912e-23
3.00523e-22
1.875e-06
-3.24985e-23
1.15851e-22
1.875e-06
3.64706e-23
1.53847e-22
1.875e-06
1.30064e-22
3.10817e-22
1.875e-06
8.06796e-23
2.15624e-22
1.875e-06
1.21315e-23
1.70446e-22
1.875e-06
-3.97791e-23
1.94115e-22
1.875e-06
-3.27292e-23
1.06247e-22
1.875e-06
5.33384e-25
1.60154e-22
1.875e-06
-5.61131e-24
1.57799e-22
1.875e-06
9.1587e-24
1.88499e-22
1.875e-06
9.73361e-24
5.30779e-23
1.875e-06
1.04691e-22
9.12332e-23
1.875e-06
1.52888e-22
8.44534e-23
1.875e-06
1.26546e-22
-3.97075e-23
1.875e-06
2.55837e-23
-1.89725e-22
1.875e-06
-1.90159e-23
-8.84756e-23
1.875e-06
-3.43735e-23
1.05865e-22
1.59047e-24
1.01058e-22
1.875e-06
1.28577e-22
2.93565e-22
1.875e-06
5.83509e-23
6.48461e-22
1.875e-06
9.94493e-23
8.4916e-22
1.875e-06
1.50426e-22
1.00017e-21
1.875e-06
1.36345e-22
1.10817e-21
1.875e-06
2.3556e-22
1.06516e-21
1.875e-06
2.45342e-22
1.14426e-21
1.875e-06
2.95166e-23
1.01657e-21
1.875e-06
9.1053e-23
9.97114e-22
1.875e-06
2.39114e-22
9.52307e-22
1.875e-06
1.02097e-22
9.17166e-22
1.875e-06
1.02539e-22
8.13897e-22
1.875e-06
1.62473e-22
6.80945e-22
1.875e-06
2.23386e-22
5.81071e-22
1.875e-06
1.79203e-22
7.11073e-22
1.875e-06
1.04506e-22
5.21383e-22
1.875e-06
8.56127e-23
4.66004e-22
1.875e-06
2.25415e-23
3.99596e-22
1.875e-06
1.71144e-22
2.30572e-22
1.875e-06
1.09974e-22
2.92053e-22
1.875e-06
2.27226e-23
2.83872e-22
1.875e-06
5.99485e-23
3.04554e-22
1.875e-06
5.24899e-23
2.94194e-22
1.875e-06
1.02021e-22
1.46449e-22
1.875e-06
9.5277e-24
3.71009e-22
1.875e-06
1.38317e-23
1.98879e-22
1.875e-06
7.42335e-23
9.61639e-23
1.875e-06
5.78862e-23
1.46401e-22
1.875e-06
-3.39327e-23
1.02785e-22
1.875e-06
-1.1184e-23
1.58516e-22
1.875e-06
-1.48487e-22
1.76822e-22
1.875e-06
-1.02899e-22
1.60403e-22
1.875e-06
3.42609e-23
1.43544e-22
1.875e-06
4.80734e-23
1.18998e-22
1.875e-06
8.48536e-23
-8.44622e-23
1.875e-06
-6.2345e-23
-2.62022e-22
1.875e-06
2.60012e-23
-2.95213e-22
1.875e-06
7.13091e-23
-3.43255e-23
1.875e-06
-1.40015e-23
1.24453e-22
-3.22429e-25
1.76167e-23
1.875e-06
-2.31759e-22
2.33118e-22
1.875e-06
-3.00831e-23
6.95539e-22
1.875e-06
1.51514e-22
1.00772e-21
1.875e-06
1.06578e-22
1.03036e-21
1.875e-06
1.28829e-22
1.10579e-21
1.875e-06
1.68869e-22
1.03048e-21
1.875e-06
1.70785e-22
1.12979e-21
1.875e-06
1.36266e-22
1.12701e-21
1.875e-06
1.01761e-22
1.05217e-21
1.875e-06
8.78914e-23
8.76288e-22
1.875e-06
1.72499e-22
1.01543e-21
1.875e-06
9.81893e-23
8.5395e-22
1.875e-06
3.6097e-23
5.60358e-22
1.875e-06
9.63603e-23
5.90464e-22
1.875e-06
1.65468e-22
6.1705e-22
1.875e-06
4.81449e-23
5.13564e-22
1.875e-06
1.1656e-22
5.52407e-22
1.875e-06
1.71532e-22
4.79135e-22
1.875e-06
-1.1537e-22
2.59983e-22
1.875e-06
-1.14285e-22
2.03814e-22
1.875e-06
1.7165e-22
2.55015e-22
1.875e-06
1.05701e-22
3.39215e-22
1.875e-06
1.50296e-22
3.31454e-22
1.875e-06
9.11203e-23
1.77097e-22
1.875e-06
1.42744e-22
4.05182e-22
1.875e-06
-2.42076e-24
2.56138e-22
1.875e-06
-8.95984e-23
8.9815e-23
1.875e-06
-8.68374e-23
7.25795e-23
1.875e-06
4.75421e-23
4.41547e-23
1.875e-06
-4.30573e-23
1.00466e-22
1.875e-06
-4.47642e-23
1.72932e-22
1.875e-06
-1.01064e-22
2.13482e-22
1.875e-06
-2.3424e-23
1.51068e-22
1.875e-06
2.48836e-23
4.40511e-23
1.875e-06
-3.38961e-23
-1.85831e-22
1.875e-06
7.51737e-23
-3.42269e-22
1.875e-06
2.38579e-23
-2.74943e-22
1.875e-06
6.7315e-23
-7.23344e-23
1.875e-06
1.14661e-22
6.77315e-23
6.1684e-23
2.33036e-24
1.875e-06
1.74405e-23
5.30897e-22
1.875e-06
7.57471e-23
7.76665e-22
1.875e-06
8.72657e-23
9.2237e-22
1.875e-06
2.28802e-22
1.18224e-21
1.875e-06
1.20059e-22
1.20946e-21
1.875e-06
1.26232e-22
1.10312e-21
1.875e-06
2.37506e-22
1.2058e-21
1.875e-06
7.28304e-23
1.12766e-21
1.875e-06
9.42769e-23
9.00221e-22
1.875e-06
1.15451e-22
8.03511e-22
1.875e-06
1.32739e-22
9.06731e-22
1.875e-06
3.61172e-23
9.59477e-22
1.875e-06
4.4433e-23
7.9456e-22
1.875e-06
7.38892e-23
6.86982e-22
1.875e-06
8.77742e-23
6.29342e-22
1.875e-06
1.77601e-22
4.8679e-22
1.875e-06
1.00232e-22
4.18327e-22
1.875e-06
2.06301e-23
4.23236e-22
1.875e-06
-3.85634e-23
3.70664e-22
1.875e-06
3.2563e-23
3.13122e-22
1.875e-06
1.59324e-22
3.04906e-22
1.875e-06
2.20481e-22
3.04756e-22
1.875e-06
7.53391e-23
2.20818e-22
1.875e-06
1.17027e-23
3.16214e-22
1.875e-06
3.35508e-23
3.08251e-22
1.875e-06
5.7679e-23
2.93902e-22
1.875e-06
-1.48521e-22
1.43442e-22
1.875e-06
-3.24491e-23
1.23402e-22
1.875e-06
-2.76013e-23
4.73102e-23
1.875e-06
-2.4901e-23
1.10749e-22
1.875e-06
2.04948e-23
1.13274e-22
1.875e-06
-5.07738e-23
2.06005e-22
1.875e-06
3.12993e-23
1.39286e-22
1.875e-06
-4.60422e-23
-3.83951e-23
1.875e-06
-1.06983e-22
-1.19382e-22
1.875e-06
-5.14353e-23
-3.32301e-22
1.875e-06
-4.2536e-23
-4.09709e-22
1.875e-06
1.58856e-22
-1.64411e-22
1.875e-06
1.971e-22
1.144e-23
8.90267e-23
-2.15956e-23
1.875e-06
1.0298e-22
5.72222e-22
1.875e-06
1.33036e-22
9.12763e-22
1.875e-06
1.30529e-22
1.05926e-21
1.875e-06
7.40836e-23
1.12041e-21
1.875e-06
1.81689e-22
1.24603e-21
1.875e-06
2.30953e-22
1.12855e-21
1.875e-06
5.27e-23
1.03375e-21
1.875e-06
1.90382e-22
1.1344e-21
1.875e-06
3.50266e-23
9.64543e-22
1.875e-06
-5.72196e-24
8.23637e-22
1.875e-06
1.69329e-22
8.77371e-22
1.875e-06
2.30888e-22
9.67024e-22
1.875e-06
9.92888e-23
8.86719e-22
1.875e-06
9.03744e-23
6.62598e-22
1.875e-06
9.04903e-23
6.9103e-22
1.875e-06
1.467e-22
4.76657e-22
1.875e-06
6.15633e-23
4.29002e-22
1.875e-06
-1.22023e-24
4.3652e-22
1.875e-06
1.30858e-22
4.11496e-22
1.875e-06
1.03822e-22
4.24248e-22
1.875e-06
6.85078e-23
3.39955e-22
1.875e-06
6.51364e-23
2.34484e-22
1.875e-06
6.35524e-24
3.10785e-22
1.875e-06
1.9331e-23
3.76099e-22
1.875e-06
3.4214e-25
2.04945e-22
1.875e-06
-1.31526e-22
1.20735e-22
1.875e-06
-8.99304e-24
2.56459e-22
1.875e-06
-1.07984e-23
1.43004e-22
1.875e-06
6.80151e-24
7.99007e-23
1.875e-06
-5.41276e-23
1.41179e-22
1.875e-06
-1.02515e-22
1.35743e-22
1.875e-06
2.56383e-23
2.09176e-22
1.875e-06
-6.84232e-23
2.36652e-23
1.875e-06
-4.10425e-23
2.98024e-24
1.875e-06
-2.38309e-22
-7.40804e-23
1.875e-06
-9.90276e-23
-3.53968e-22
1.875e-06
9.44873e-23
-3.10563e-22
1.875e-06
7.26877e-23
-2.21459e-22
1.875e-06
1.70156e-22
-1.51621e-23
1.59341e-22
2.28964e-23
1.875e-06
1.66079e-22
6.16347e-22
1.875e-06
1.35933e-22
9.05515e-22
1.875e-06
9.05385e-23
9.96e-22
1.875e-06
9.8184e-23
1.12629e-21
1.875e-06
7.7957e-23
1.15571e-21
1.875e-06
-4.70567e-23
1.06281e-21
1.875e-06
9.57852e-23
1.07866e-21
1.875e-06
1.40254e-22
1.0505e-21
1.875e-06
1.38579e-22
9.81123e-22
1.875e-06
9.66481e-23
9.48835e-22
1.875e-06
7.32197e-23
8.08057e-22
1.875e-06
5.84659e-24
8.44947e-22
1.875e-06
1.45035e-22
9.36229e-22
1.875e-06
1.50849e-22
6.4522e-22
1.875e-06
7.09354e-23
6.75773e-22
1.875e-06
-8.21505e-23
4.95016e-22
1.875e-06
-1.01656e-24
5.15974e-22
1.875e-06
1.12232e-22
5.14961e-22
1.875e-06
1.33176e-22
3.56744e-22
1.875e-06
1.60281e-22
4.5254e-22
1.875e-06
7.29029e-23
3.55869e-22
1.875e-06
-4.57553e-23
2.31476e-22
1.875e-06
-4.8857e-23
2.80385e-22
1.875e-06
-3.85938e-23
3.34574e-22
1.875e-06
-1.40186e-22
1.10787e-22
1.875e-06
-7.46088e-23
2.35098e-22
1.875e-06
-5.20546e-23
2.14685e-22
1.875e-06
-1.19424e-23
1.86621e-22
1.875e-06
-5.32443e-23
1.82444e-23
1.875e-06
-7.53685e-23
1.5808e-22
1.875e-06
6.32582e-23
2.11815e-22
1.875e-06
1.05694e-23
1.9578e-22
1.875e-06
-7.96915e-23
1.36526e-22
1.875e-06
3.21822e-24
-8.36711e-24
1.875e-06
4.19496e-23
3.90198e-23
1.875e-06
-1.01881e-22
-2.24625e-22
1.875e-06
-3.35603e-23
-4.19982e-22
1.875e-06
1.48526e-22
-1.61012e-22
1.875e-06
1.61715e-22
-4.92487e-23
1.57921e-22
-2.10061e-22
1.875e-06
1.53734e-22
5.90182e-22
1.875e-06
1.99929e-22
9.61973e-22
1.875e-06
1.75115e-22
1.0433e-21
1.875e-06
1.17433e-22
1.17151e-21
1.875e-06
-6.4152e-23
1.12723e-21
1.875e-06
-9.47449e-23
1.15083e-21
1.875e-06
9.26166e-23
1.07995e-21
1.875e-06
1.66327e-22
1.02961e-21
1.875e-06
9.58301e-23
9.98602e-22
1.875e-06
1.00131e-22
8.40481e-22
1.875e-06
-3.50083e-23
7.38934e-22
1.875e-06
5.90461e-23
9.05916e-22
1.875e-06
1.61415e-22
9.07228e-22
1.875e-06
2.11097e-22
7.14245e-22
1.875e-06
1.26081e-22
6.8361e-22
1.875e-06
1.54422e-23
5.40631e-22
1.875e-06
8.0699e-24
4.43158e-22
1.875e-06
4.14755e-23
4.32827e-22
1.875e-06
1.16446e-22
5.1686e-22
1.875e-06
9.57004e-23
4.99537e-22
1.875e-06
8.83023e-23
3.80861e-22
1.875e-06
8.60508e-23
2.76134e-22
1.875e-06
3.1319e-23
3.62454e-22
1.875e-06
1.5398e-23
2.54866e-22
1.875e-06
-1.10735e-22
1.54586e-22
1.875e-06
-6.87184e-23
1.53933e-22
1.875e-06
-1.0398e-22
1.33721e-22
1.875e-06
-5.67673e-23
9.60551e-23
1.875e-06
-1.39773e-23
1.29652e-22
1.875e-06
-1.79497e-22
1.96482e-22
1.875e-06
-1.17089e-22
1.879e-22
1.875e-06
5.02103e-23
1.6301e-22
1.875e-06
4.81861e-23
2.07259e-22
1.875e-06
-6.06865e-23
8.99287e-24
1.875e-06
-2.20843e-23
7.08547e-23
1.875e-06
-4.00723e-23
-2.08939e-22
1.875e-06
5.24628e-24
-4.51202e-22
1.875e-06
-8.32834e-24
-2.18287e-22
1.875e-06
4.7863e-23
-1.66783e-22
4.56991e-23
-2.57252e-22
1.875e-06
-1.37322e-22
5.30457e-22
1.875e-06
8.69868e-23
9.1836e-22
1.875e-06
1.40831e-22
1.01572e-21
1.875e-06
-5.92288e-23
1.14328e-21
1.875e-06
-4.58223e-23
1.23533e-21
1.875e-06
5.32882e-23
1.22591e-21
1.875e-06
1.40266e-22
1.16178e-21
1.875e-06
1.94226e-22
9.40979e-22
1.875e-06
1.38818e-22
1.00121e-21
1.875e-06
-8.09054e-23
8.52242e-22
1.875e-06
-2.76289e-23
8.48727e-22
1.875e-06
1.65989e-22
8.45258e-22
1.875e-06
1.36961e-22
8.26548e-22
1.875e-06
6.18343e-23
7.20311e-22
1.875e-06
-1.46231e-23
7.41849e-22
1.875e-06
2.97472e-23
5.76572e-22
1.875e-06
7.1565e-23
5.77104e-22
1.875e-06
2.0636e-22
5.26092e-22
1.875e-06
2.12583e-22
4.73421e-22
1.875e-06
-1.63721e-23
3.15532e-22
1.875e-06
1.28631e-22
3.75358e-22
1.875e-06
4.38852e-24
3.39786e-22
1.875e-06
-8.17534e-23
3.45207e-22
1.875e-06
-7.14058e-23
1.56117e-22
1.875e-06
-8.27205e-23
1.88224e-22
1.875e-06
3.56305e-24
8.09999e-23
1.875e-06
1.49588e-22
1.63979e-22
1.875e-06
5.04591e-23
1.15162e-22
1.875e-06
-9.50032e-23
2.78959e-23
1.875e-06
7.50556e-25
2.16475e-22
1.875e-06
-1.34589e-22
2.16271e-22
1.875e-06
-1.47325e-22
7.1569e-23
1.875e-06
-2.70601e-23
2.20252e-22
1.875e-06
-3.75236e-23
9.84215e-23
1.875e-06
8.31005e-24
1.00427e-23
1.875e-06
-2.42857e-23
-2.60301e-22
1.875e-06
-7.17304e-23
-4.77974e-22
1.875e-06
-2.10125e-23
-2.9892e-22
1.875e-06
3.73933e-23
-2.3268e-22
-8.00373e-23
-2.71804e-22
1.875e-06
-3.85076e-23
6.62533e-22
1.875e-06
-2.19522e-22
8.85476e-22
1.875e-06
-8.1185e-23
9.73145e-22
1.875e-06
4.2993e-23
1.21461e-21
1.875e-06
1.10195e-22
1.22294e-21
1.875e-06
1.95692e-23
1.12449e-21
1.875e-06
-1.39856e-23
1.06215e-21
1.875e-06
-3.2719e-23
9.34848e-22
1.875e-06
3.06877e-23
9.83868e-22
1.875e-06
3.33535e-23
9.41674e-22
1.875e-06
1.80875e-22
9.26411e-22
1.875e-06
1.07295e-22
8.41898e-22
1.875e-06
6.0188e-23
9.03806e-22
1.875e-06
-4.02244e-23
7.26101e-22
1.875e-06
8.31474e-23
7.55728e-22
1.875e-06
6.6616e-23
6.21677e-22
1.875e-06
6.76885e-23
3.87136e-22
1.875e-06
1.45409e-22
4.07322e-22
1.875e-06
5.9955e-23
4.63867e-22
1.875e-06
1.05229e-22
4.79191e-22
1.875e-06
8.54448e-23
3.18459e-22
1.875e-06
7.91688e-23
4.35337e-22
1.875e-06
-7.76211e-23
3.74453e-22
1.875e-06
-2.32344e-22
2.04224e-22
1.875e-06
-1.14189e-22
1.92831e-22
1.875e-06
2.67662e-23
1.0599e-22
1.875e-06
1.38182e-22
1.08455e-23
1.875e-06
2.10226e-23
-8.289e-24
1.875e-06
4.20343e-23
1.09583e-22
1.875e-06
-2.01683e-23
1.27278e-22
1.875e-06
-1.33761e-23
2.50343e-22
1.875e-06
-4.69286e-23
1.70972e-22
1.875e-06
-5.51049e-23
1.06577e-22
1.875e-06
-3.73746e-23
3.45077e-23
1.875e-06
8.93766e-24
-7.62913e-24
1.875e-06
-6.5595e-23
-1.42443e-22
1.875e-06
-5.83896e-23
-3.55778e-22
1.875e-06
-8.49714e-23
-3.04978e-22
1.875e-06
-1.88843e-22
-2.9153e-22
-8.26732e-23
-2.04289e-22
1.875e-06
-5.14568e-23
6.55956e-22
1.875e-06
-1.22311e-22
1.01848e-21
1.875e-06
-1.07173e-22
1.09073e-21
1.875e-06
-1.02395e-22
1.21306e-21
1.875e-06
-5.81939e-23
1.18868e-21
1.875e-06
3.24151e-23
1.21102e-21
1.875e-06
6.31399e-25
1.08384e-21
1.875e-06
8.41828e-23
1.02562e-21
1.875e-06
1.87879e-24
9.99149e-22
1.875e-06
9.69717e-23
9.29437e-22
1.875e-06
1.28462e-22
8.63579e-22
1.875e-06
1.0019e-22
9.31238e-22
1.875e-06
-4.73599e-23
9.68799e-22
1.875e-06
-2.87858e-23
8.2411e-22
1.875e-06
-3.00052e-23
6.87379e-22
1.875e-06
2.81247e-23
5.21244e-22
1.875e-06
1.38291e-22
4.03986e-22
1.875e-06
6.1519e-23
3.88643e-22
1.875e-06
9.40421e-23
4.99386e-22
1.875e-06
1.86876e-22
4.32413e-22
1.875e-06
5.66991e-23
2.66514e-22
1.875e-06
-4.09528e-23
4.2563e-22
1.875e-06
-7.53624e-23
4.25912e-22
1.875e-06
-1.84216e-22
2.73294e-22
1.875e-06
-1.17643e-22
1.84969e-22
1.875e-06
-6.14593e-23
1.29467e-22
1.875e-06
7.47804e-24
-4.46168e-23
1.875e-06
1.36904e-22
-1.00269e-23
1.875e-06
1.64469e-23
9.83499e-23
1.875e-06
6.06638e-23
1.37764e-22
1.875e-06
-2.53537e-23
1.46567e-22
1.875e-06
3.80978e-23
9.90259e-23
1.875e-06
-6.78702e-23
3.66064e-23
1.875e-06
-1.38051e-22
-2.22695e-23
1.875e-06
-1.88396e-22
-7.0403e-23
1.875e-06
-9.58519e-23
-1.86881e-22
1.875e-06
2.4117e-23
-2.68221e-22
1.875e-06
6.84614e-23
-1.88052e-22
1.875e-06
-1.0656e-22
-2.05205e-22
-5.7887e-23
-2.35523e-22
1.875e-06
-1.60205e-22
5.56536e-22
1.875e-06
-8.30584e-23
9.79945e-22
1.875e-06
-2.74796e-23
1.1308e-21
1.875e-06
-4.73227e-23
1.23358e-21
1.875e-06
-5.04941e-23
1.34937e-21
1.875e-06
-1.63797e-23
1.21652e-21
1.875e-06
-3.43371e-23
1.11394e-21
1.875e-06
-1.09735e-22
1.01877e-21
1.875e-06
7.47179e-23
1.11768e-21
1.875e-06
1.64777e-22
8.54879e-22
1.875e-06
4.08562e-23
7.74912e-22
1.875e-06
2.42611e-23
9.19966e-22
1.875e-06
4.70022e-23
1.01618e-21
1.875e-06
-6.62521e-23
9.20232e-22
1.875e-06
8.94551e-24
6.96624e-22
1.875e-06
1.04305e-22
4.52372e-22
1.875e-06
6.76184e-23
3.26111e-22
1.875e-06
-3.72117e-23
4.64616e-22
1.875e-06
8.76677e-23
5.86597e-22
1.875e-06
1.45854e-22
4.37871e-22
1.875e-06
1.0669e-22
3.82209e-22
1.875e-06
-3.92035e-23
3.87474e-22
1.875e-06
-1.19594e-22
2.83749e-22
1.875e-06
-9.4531e-23
2.54405e-22
1.875e-06
-1.15427e-22
1.79165e-22
1.875e-06
-2.04192e-23
2.09144e-22
1.875e-06
-2.98468e-23
3.93757e-23
1.875e-06
-8.77779e-23
-2.81126e-23
1.875e-06
3.17308e-23
1.23506e-22
1.875e-06
5.55373e-23
9.28908e-23
1.875e-06
9.98512e-23
9.7855e-23
1.875e-06
-7.1126e-23
-3.23266e-24
1.875e-06
-1.13385e-22
3.24297e-23
1.875e-06
-8.75392e-23
8.2016e-23
1.875e-06
-8.07247e-23
5.02141e-23
1.875e-06
-2.54721e-23
-1.29544e-22
1.875e-06
-5.04227e-23
-3.24696e-22
1.875e-06
-6.16984e-23
-2.43001e-22
1.875e-06
-2.86552e-23
-2.06975e-22
-9.08681e-23
-3.59284e-22
1.875e-06
-8.51511e-23
5.94083e-22
1.875e-06
-1.7524e-22
1.00347e-21
1.875e-06
-1.67377e-22
1.0742e-21
1.875e-06
3.42969e-23
1.2009e-21
1.875e-06
5.18238e-23
1.364e-21
1.875e-06
-4.86344e-23
1.23964e-21
1.875e-06
-1.3311e-22
1.11422e-21
1.875e-06
-1.1297e-22
1.02202e-21
1.875e-06
1.54668e-23
1.04737e-21
1.875e-06
5.82408e-23
9.69304e-22
1.875e-06
5.34669e-24
9.76122e-22
1.875e-06
7.5637e-23
9.53722e-22
1.875e-06
5.294e-23
9.17894e-22
1.875e-06
4.50744e-24
9.30714e-22
1.875e-06
6.79735e-23
7.46744e-22
1.875e-06
-1.79985e-23
5.06697e-22
1.875e-06
-1.7579e-23
4.35407e-22
1.875e-06
2.65047e-22
5.41842e-22
1.875e-06
2.37111e-22
4.51823e-22
1.875e-06
7.45284e-23
3.3294e-22
1.875e-06
-1.14973e-22
2.66412e-22
1.875e-06
-1.96171e-22
4.30211e-22
1.875e-06
-2.12546e-23
4.01403e-22
1.875e-06
-4.73831e-24
2.91349e-22
1.875e-06
-5.48239e-24
2.83511e-22
1.875e-06
-1.28087e-22
1.50326e-22
1.875e-06
-6.224e-23
1.52413e-22
1.875e-06
-5.09086e-23
1.30084e-22
1.875e-06
-5.6142e-23
4.55567e-23
1.875e-06
3.17178e-23
4.55061e-23
1.875e-06
1.06438e-22
2.63717e-23
1.875e-06
-2.75722e-23
-2.09908e-23
1.875e-06
-2.95987e-23
1.8413e-23
1.875e-06
1.61786e-23
3.21823e-23
1.875e-06
-3.90335e-23
5.55746e-23
1.875e-06
-9.02575e-23
-1.28931e-23
1.875e-06
-3.52104e-23
-1.32317e-22
1.875e-06
-1.66806e-22
-3.26826e-22
1.875e-06
2.40333e-23
-2.76894e-22
1.1724e-22
-3.02492e-22
1.875e-06
1.09183e-23
6.46619e-22
1.875e-06
-2.06266e-23
1.02485e-21
1.875e-06
1.56557e-23
1.14302e-21
1.875e-06
-1.32447e-25
1.24479e-21
1.875e-06
-1.25285e-23
1.21196e-21
1.875e-06
-1.25867e-22
1.24945e-21
1.875e-06
-1.81481e-22
1.17918e-21
1.875e-06
-3.21229e-23
1.16431e-21
1.875e-06
3.78535e-24
1.1036e-21
1.875e-06
3.68078e-23
9.79531e-22
1.875e-06
3.33708e-23
9.75727e-22
1.875e-06
2.81971e-23
9.57584e-22
1.875e-06
1.0311e-22
9.81463e-22
1.875e-06
1.1618e-22
9.65069e-22
1.875e-06
5.77884e-23
7.13654e-22
1.875e-06
4.16286e-23
6.20816e-22
1.875e-06
-1.32549e-23
5.26489e-22
1.875e-06
-1.25415e-22
3.5582e-22
1.875e-06
-1.7395e-24
2.45e-22
1.875e-06
-8.28857e-24
3.44213e-22
1.875e-06
-8.65746e-23
3.58253e-22
1.875e-06
3.61011e-23
5.24008e-22
1.875e-06
-1.57896e-23
4.64657e-22
1.875e-06
3.29726e-23
3.21265e-22
1.875e-06
1.04379e-23
2.71386e-22
1.875e-06
-8.32158e-23
1.91553e-22
1.875e-06
5.69724e-23
2.14518e-22
1.875e-06
5.99583e-23
1.65709e-22
1.875e-06
2.83269e-24
3.91565e-23
1.875e-06
-7.31716e-24
3.54133e-23
1.875e-06
-5.45788e-23
-1.32532e-22
1.875e-06
-2.09353e-23
-1.10086e-22
1.875e-06
3.02714e-23
-2.87426e-23
1.875e-06
3.16224e-23
1.12327e-22
1.875e-06
-1.58474e-23
2.30433e-23
1.875e-06
-7.45777e-23
4.22138e-23
1.875e-06
-8.34489e-23
-7.70915e-23
1.875e-06
-5.27121e-23
-1.70076e-22
1.875e-06
6.36496e-24
-2.3574e-22
4.1117e-23
-2.44331e-22
1.875e-06
1.07494e-22
7.53174e-22
1.875e-06
1.40355e-22
1.10614e-21
1.875e-06
-8.54585e-24
1.01517e-21
1.875e-06
-8.17132e-23
1.0751e-21
1.875e-06
-9.01916e-23
1.24426e-21
1.875e-06
-6.28395e-23
1.20723e-21
1.875e-06
-7.2732e-23
1.21099e-21
1.875e-06
-2.13906e-22
1.1083e-21
1.875e-06
-7.80673e-23
1.06058e-21
1.875e-06
1.79719e-23
1.14854e-21
1.875e-06
-1.77232e-22
1.00002e-21
1.875e-06
4.63861e-22
9.92808e-22
1.875e-06
3.02949e-23
9.6264e-22
1.875e-06
8.44126e-23
8.90959e-22
1.875e-06
6.66596e-23
8.338e-22
1.875e-06
-1.02192e-22
6.57313e-22
1.875e-06
-1.19966e-24
4.62892e-22
1.875e-06
-1.18612e-22
3.22879e-22
1.875e-06
-2.12199e-22
3.70095e-22
1.875e-06
-7.10796e-23
3.89872e-22
1.875e-06
-8.02967e-23
3.55945e-22
1.875e-06
-1.14746e-22
4.43255e-22
1.875e-06
-1.86938e-23
5.55919e-22
1.875e-06
6.34764e-23
2.38312e-22
1.875e-06
1.93333e-22
2.71353e-22
1.875e-06
9.08076e-23
2.81283e-22
1.875e-06
-9.26316e-23
8.53683e-23
1.875e-06
3.0442e-24
-2.90179e-23
1.875e-06
-9.81626e-23
1.00718e-22
1.875e-06
1.93696e-22
2.25369e-23
1.875e-06
-3.41467e-23
6.01791e-24
1.875e-06
-2.45472e-23
-7.37203e-23
1.875e-06
2.04706e-22
-1.17669e-22
1.875e-06
-8.25049e-23
3.58235e-23
1.875e-06
-2.86573e-23
7.28738e-23
1.875e-06
4.05033e-23
5.42123e-23
1.875e-06
-5.03614e-23
-4.89004e-23
1.875e-06
-5.81062e-24
-1.00884e-22
1.875e-06
-1.34911e-22
-2.00391e-22
-7.6034e-23
-1.91085e-22
1.875e-06
2.13784e-22
6.82898e-22
1.875e-06
1.29687e-22
9.62794e-22
1.875e-06
-1.02957e-23
9.85178e-22
1.875e-06
-3.81309e-23
1.14197e-21
1.875e-06
5.90688e-25
1.20525e-21
1.875e-06
5.66661e-23
1.25852e-21
1.875e-06
-1.83322e-23
1.22111e-21
1.875e-06
-1.69619e-22
1.15418e-21
1.875e-06
-1.84829e-22
1.07661e-21
1.875e-06
-5.56893e-23
1.18567e-21
1.875e-06
-1.0037e-23
1.05445e-21
1.875e-06
5.7547e-23
1.01828e-21
1.875e-06
1.76205e-22
9.71649e-22
1.875e-06
9.89528e-24
8.36738e-22
1.875e-06
-1.0316e-22
7.66655e-22
1.875e-06
-4.19732e-23
7.00548e-22
1.875e-06
-9.54565e-23
4.64427e-22
1.875e-06
-1.11134e-22
3.78517e-22
1.875e-06
-1.25499e-22
4.77641e-22
1.875e-06
-1.07593e-22
3.28667e-22
1.875e-06
-1.14557e-22
3.77285e-22
1.875e-06
-3.35592e-23
4.43732e-22
1.875e-06
4.88165e-23
4.79575e-22
1.875e-06
9.17255e-24
3.07732e-22
1.875e-06
-9.85676e-24
1.35524e-22
1.875e-06
1.13556e-22
2.37311e-22
1.875e-06
6.76337e-23
2.45529e-23
1.875e-06
8.09703e-23
1.43864e-23
1.875e-06
6.43957e-23
7.46487e-23
1.875e-06
3.1472e-23
-4.66206e-24
1.875e-06
-2.18571e-23
-5.11528e-23
1.875e-06
1.70313e-23
-6.21634e-23
1.875e-06
-1.25737e-22
-1.68981e-22
1.875e-06
-2.87428e-23
9.74876e-23
1.875e-06
1.68519e-22
1.22354e-22
1.875e-06
2.23943e-22
2.01976e-23
1.875e-06
-2.55539e-23
-1.08143e-22
1.875e-06
-2.91486e-24
-5.52626e-23
1.875e-06
-1.05939e-22
-1.51161e-22
-1.46191e-22
-1.37356e-22
1.875e-06
5.29175e-23
5.75417e-22
1.875e-06
1.23881e-22
9.48926e-22
1.875e-06
4.97417e-24
1.06955e-21
1.875e-06
-3.53306e-25
1.1076e-21
1.875e-06
1.72422e-23
1.09906e-21
1.875e-06
8.722e-23
1.19149e-21
1.875e-06
1.18628e-23
1.17671e-21
1.875e-06
-1.55166e-23
1.21472e-21
1.875e-06
-3.37293e-23
1.17003e-21
1.875e-06
-7.85954e-23
1.29398e-21
1.875e-06
-1.04912e-22
1.145e-21
1.875e-06
-7.6517e-23
9.62774e-22
1.875e-06
-1.25679e-22
8.23628e-22
1.875e-06
-1.18042e-22
8.39838e-22
1.875e-06
-1.03488e-22
7.9212e-22
1.875e-06
-4.00818e-23
7.39749e-22
1.875e-06