/*--------------------------------*- C++ -*----------------------------------*\
| =========                 |                                                 |
| \\      /  F ield         | OpenFOAM: The Open Source CFD Toolbox           |
|  \\    /   O peration     | Version:  v2012                                 |
|   \\  /    A nd           | Website:  www.openfoam.com                      |
|    \\/     M anipulation  |                                                 |
\*---------------------------------------------------------------------------*/
FoamFile
{
    version     2.0;
    format      ascii;
    class       volVectorField;
    location    "27";
    object      U;
}
// * * * * * * * * * * * * * * * * * * * * * * * * * * * * * * * * * * * * * //

dimensions      [0 1 -1 0 0 0 0];


internalField   nonuniform List<vector> 
64000
(
(0.003 2.23015e-19 2.19884e-19)
(0.003 3.99233e-19 3.72104e-19)
(0.003 4.17263e-19 4.55736e-19)
(0.003 4.22767e-19 5.07204e-19)
(0.003 5.31405e-19 4.89126e-19)
(0.003 5.29892e-19 4.05847e-19)
(0.003 4.58039e-19 3.56583e-19)
(0.003 2.70386e-19 3.35081e-19)
(0.003 3.15659e-19 4.69572e-19)
(0.003 4.97749e-19 4.14809e-19)
(0.003 4.71865e-19 3.47606e-19)
(0.003 4.37859e-19 4.6232e-19)
(0.003 3.62153e-19 3.84519e-19)
(0.003 3.47854e-19 2.6188e-19)
(0.003 2.94312e-19 3.2164e-19)
(0.003 2.501e-19 3.44117e-19)
(0.003 1.94188e-19 2.29113e-19)
(0.003 6.03524e-20 1.14433e-19)
(0.003 8.22491e-20 7.14251e-20)
(0.003 1.11484e-19 1.40646e-19)
(0.003 3.09066e-20 1.50934e-19)
(0.003 1.53364e-19 1.93643e-19)
(0.003 2.52782e-19 1.74524e-19)
(0.003 2.93312e-19 9.39763e-20)
(0.003 3.33347e-19 1.64569e-19)
(0.003 2.0307e-19 1.55256e-19)
(0.003 2.91637e-20 1.85018e-19)
(0.003 1.43295e-19 2.09016e-19)
(0.003 2.42821e-19 2.76634e-19)
(0.003 6.33393e-20 2.57183e-19)
(0.003 -6.32923e-20 2.32415e-19)
(0.003 -1.08277e-20 8.22074e-20)
(0.003 1.24878e-19 8.5332e-20)
(0.003 9.67695e-20 9.2671e-20)
(0.003 8.59681e-20 1.1486e-19)
(0.003 7.78746e-20 1.54063e-19)
(0.003 -7.11953e-21 8.04894e-20)
(0.003 -1.05914e-19 1.0273e-19)
(0.003 -1.99745e-19 1.62505e-19)
(0.003 -1.95204e-19 9.16522e-20)
(0.003 2.50251e-19 3.35322e-19)
(0.003 3.81994e-19 7.17918e-19)
(0.003 5.64288e-19 9.36707e-19)
(0.003 5.3963e-19 9.5615e-19)
(0.003 4.72372e-19 9.05375e-19)
(0.003 6.46136e-19 9.32805e-19)
(0.003 6.16583e-19 8.62005e-19)
(0.003 5.45449e-19 6.62465e-19)
(0.003 5.21823e-19 7.92057e-19)
(0.003 4.98365e-19 1.02557e-18)
(0.003 4.37537e-19 9.495e-19)
(0.003 3.72714e-19 8.6218e-19)
(0.003 3.01369e-19 7.31049e-19)
(0.003 2.06691e-19 6.16405e-19)
(0.003 1.72675e-19 5.76499e-19)
(0.003 1.31394e-19 5.16055e-19)
(0.003 3.28094e-19 5.0882e-19)
(0.003 2.88999e-19 4.13097e-19)
(0.003 1.56789e-19 2.97636e-19)
(0.003 4.4361e-20 2.3296e-19)
(0.003 1.77692e-19 2.17157e-19)
(0.003 2.74515e-19 2.94538e-19)
(0.003 2.22384e-19 2.81616e-19)
(0.003 2.9251e-19 3.43581e-19)
(0.003 1.56517e-19 3.59123e-19)
(0.003 1.72444e-19 2.46227e-19)
(0.003 2.515e-19 1.5055e-19)
(0.003 1.00523e-19 2.34154e-19)
(0.003 -6.15615e-20 4.02418e-19)
(0.003 1.43466e-20 3.0748e-19)
(0.003 4.33464e-20 1.27147e-19)
(0.003 8.48623e-20 6.26e-20)
(0.003 1.26278e-19 1.91467e-19)
(0.003 1.06716e-20 1.76436e-19)
(0.003 -8.70617e-21 2.3079e-19)
(0.003 -7.2694e-20 1.55746e-19)
(0.003 -2.02915e-19 1.70095e-20)
(0.003 -1.6132e-19 -2.85752e-20)
(0.003 -8.2668e-20 -1.07423e-20)
(0.003 -5.33057e-20 4.71902e-20)
(0.003 1.83263e-19 4.59869e-19)
(0.003 2.32641e-19 8.06144e-19)
(0.003 3.41095e-19 1.07696e-18)
(0.003 4.85005e-19 1.15489e-18)
(0.003 4.60498e-19 1.07091e-18)
(0.003 4.9371e-19 1.0507e-18)
(0.003 5.12217e-19 1.05288e-18)
(0.003 5.22274e-19 9.79749e-19)
(0.003 5.20679e-19 1.08708e-18)
(0.003 3.95699e-19 1.16225e-18)
(0.003 3.42361e-19 1.02473e-18)
(0.003 2.72858e-19 9.06013e-19)
(0.003 3.16847e-19 7.54848e-19)
(0.003 2.03146e-19 6.81154e-19)
(0.003 1.41258e-19 6.61607e-19)
(0.003 9.47224e-20 5.87314e-19)
(0.003 1.91407e-19 6.64836e-19)
(0.003 3.05569e-19 5.65583e-19)
(0.003 1.04814e-19 3.23135e-19)
(0.003 1.56072e-19 2.49277e-19)
(0.003 2.6077e-19 3.40001e-19)
(0.003 2.19688e-19 3.2806e-19)
(0.003 2.09056e-19 2.89811e-19)
(0.003 1.41638e-19 3.64366e-19)
(0.003 1.07307e-19 3.19104e-19)
(0.003 1.66706e-19 2.97208e-19)
(0.003 1.47152e-19 2.63558e-19)
(0.003 -4.56201e-20 2.64878e-19)
(0.003 -8.65858e-20 2.62453e-19)
(0.003 -3.19729e-22 3.09252e-19)
(0.003 7.51409e-20 3.20672e-19)
(0.003 1.35633e-19 2.06461e-19)
(0.003 1.47814e-20 1.81297e-19)
(0.003 -6.44218e-20 9.64291e-20)
(0.003 -2.14663e-20 2.54235e-19)
(0.003 -4.67481e-20 1.73501e-19)
(0.003 -2.18244e-19 -8.40578e-20)
(0.003 -1.40484e-19 -8.00425e-20)
(0.003 3.93953e-20 3.83305e-21)
(0.003 6.14648e-20 4.73038e-20)
(0.003 3.5059e-19 6.28642e-19)
(0.003 3.02435e-19 1.02575e-18)
(0.003 2.06343e-19 1.14904e-18)
(0.003 3.03757e-19 1.29964e-18)
(0.003 4.24697e-19 1.26008e-18)
(0.003 3.96686e-19 1.26073e-18)
(0.003 3.78894e-19 1.21465e-18)
(0.003 3.4303e-19 1.05811e-18)
(0.003 3.08666e-19 1.08539e-18)
(0.003 3.59077e-19 1.17058e-18)
(0.003 3.47449e-19 1.14789e-18)
(0.003 2.93151e-19 1.09935e-18)
(0.003 2.51235e-19 9.11504e-19)
(0.003 1.69811e-19 6.94411e-19)
(0.003 3.24612e-19 6.94323e-19)
(0.003 4.82365e-19 6.51549e-19)
(0.003 1.86612e-19 6.44757e-19)
(0.003 6.53373e-20 5.98412e-19)
(0.003 1.26396e-19 3.82067e-19)
(0.003 1.75647e-19 2.99418e-19)
(0.003 8.92178e-20 3.83139e-19)
(0.003 1.72638e-19 4.05871e-19)
(0.003 2.70023e-19 3.62451e-19)
(0.003 1.64389e-19 4.01241e-19)
(0.003 1.25757e-19 3.80636e-19)
(0.003 1.05131e-19 3.14737e-19)
(0.003 2.94735e-20 2.1498e-19)
(0.003 -1.32104e-20 1.58449e-19)
(0.003 3.80829e-20 2.40699e-19)
(0.003 -5.8092e-20 3.25483e-19)
(0.003 -8.20085e-20 3.1059e-19)
(0.003 -4.1112e-20 2.05876e-19)
(0.003 -1.46256e-19 2.16913e-19)
(0.003 -9.40435e-20 2.05826e-19)
(0.003 -4.30148e-20 2.14567e-19)
(0.003 -1.2189e-19 1.06851e-19)
(0.003 1.15709e-21 -1.07762e-19)
(0.003 8.48892e-20 -6.46395e-20)
(0.003 1.7054e-19 5.79855e-20)
(0.003 2.01146e-19 1.67853e-19)
(0.003 1.40395e-19 6.26652e-19)
(0.003 2.41744e-19 1.10056e-18)
(0.003 1.72709e-19 1.2095e-18)
(0.003 1.74925e-19 1.30219e-18)
(0.003 2.36838e-19 1.41156e-18)
(0.003 2.16178e-19 1.43796e-18)
(0.003 2.21127e-19 1.33863e-18)
(0.003 4.13452e-19 1.07424e-18)
(0.003 4.36582e-19 1.06574e-18)
(0.003 3.57288e-19 1.25749e-18)
(0.003 2.50701e-19 1.24497e-18)
(0.003 2.27809e-19 1.0749e-18)
(0.003 2.51106e-19 9.09561e-19)
(0.003 1.91412e-19 7.53324e-19)
(0.003 3.17939e-19 8.29961e-19)
(0.003 4.75821e-19 8.93033e-19)
(0.003 2.44846e-19 7.12991e-19)
(0.003 5.69303e-20 5.01961e-19)
(0.003 8.2771e-20 4.38917e-19)
(0.003 9.55769e-20 3.29451e-19)
(0.003 -5.99928e-20 3.12363e-19)
(0.003 5.44905e-20 4.05448e-19)
(0.003 2.85136e-19 5.06698e-19)
(0.003 2.18684e-19 4.46421e-19)
(0.003 1.25064e-19 4.15841e-19)
(0.003 9.1211e-20 3.54576e-19)
(0.003 8.61717e-20 2.3961e-19)
(0.003 6.3726e-20 2.47035e-19)
(0.003 4.85722e-20 2.79901e-19)
(0.003 1.07765e-20 2.07567e-19)
(0.003 2.75393e-20 1.88971e-19)
(0.003 -2.12992e-20 2.32261e-19)
(0.003 -1.7192e-19 1.18596e-19)
(0.003 -1.58837e-19 1.10222e-19)
(0.003 -7.06884e-20 2.03459e-19)
(0.003 -1.62995e-20 1.15291e-19)
(0.003 1.03018e-19 -5.7695e-20)
(0.003 6.72934e-20 -4.14957e-20)
(0.003 2.96246e-20 8.92416e-20)
(0.003 5.92596e-20 1.38639e-19)
(0.003 -8.03047e-21 6.52138e-19)
(0.003 1.38477e-19 1.08778e-18)
(0.003 1.20741e-19 1.18645e-18)
(0.003 1.47801e-19 1.33905e-18)
(0.003 1.86583e-19 1.49285e-18)
(0.003 1.87272e-19 1.43277e-18)
(0.003 2.13425e-19 1.35467e-18)
(0.003 4.79621e-19 1.38293e-18)
(0.003 5.33643e-19 1.27803e-18)
(0.003 3.23735e-19 1.16846e-18)
(0.003 2.16189e-19 1.14137e-18)
(0.003 2.59636e-19 1.15171e-18)
(0.003 2.86597e-19 1.00119e-18)
(0.003 3.33908e-19 7.7704e-19)
(0.003 2.4948e-19 9.02254e-19)
(0.003 1.60423e-19 9.41276e-19)
(0.003 1.19495e-19 7.45834e-19)
(0.003 -3.14918e-20 5.49867e-19)
(0.003 -6.77485e-20 4.26043e-19)
(0.003 2.38833e-20 3.2525e-19)
(0.003 1.26089e-19 3.10559e-19)
(0.003 1.81302e-19 4.33502e-19)
(0.003 2.74858e-19 5.28316e-19)
(0.003 2.77426e-19 4.54285e-19)
(0.003 1.41415e-19 3.66554e-19)
(0.003 1.13012e-19 3.48875e-19)
(0.003 1.38852e-19 3.55821e-19)
(0.003 7.36794e-21 2.48869e-19)
(0.003 -1.84564e-19 2.07867e-19)
(0.003 -8.30269e-20 3.02507e-19)
(0.003 1.44511e-19 2.93666e-19)
(0.003 1.39556e-19 1.74947e-19)
(0.003 1.80838e-20 1.44099e-20)
(0.003 -5.9035e-21 1.05217e-19)
(0.003 -3.48061e-20 1.61077e-19)
(0.003 1.42048e-19 8.18699e-20)
(0.003 1.86535e-19 -1.36826e-20)
(0.003 2.66783e-20 -3.95963e-20)
(0.003 9.21527e-21 5.79918e-20)
(0.003 3.70774e-20 1.02738e-19)
(0.003 8.44544e-20 8.04062e-19)
(0.003 1.91349e-19 1.22616e-18)
(0.003 1.92756e-19 1.28458e-18)
(0.003 8.27476e-20 1.35309e-18)
(0.003 1.53143e-19 1.46074e-18)
(0.003 1.69631e-19 1.52643e-18)
(0.003 2.63834e-19 1.4534e-18)
(0.003 4.85337e-19 1.3939e-18)
(0.003 4.51947e-19 1.3922e-18)
(0.003 3.64398e-19 1.30685e-18)
(0.003 3.47081e-19 1.2225e-18)
(0.003 2.28742e-19 1.14641e-18)
(0.003 1.81872e-19 1.01293e-18)
(0.003 3.45282e-19 8.75994e-19)
(0.003 2.30633e-19 9.50422e-19)
(0.003 1.5399e-19 8.7257e-19)
(0.003 8.71814e-20 6.35842e-19)
(0.003 4.67447e-20 4.62049e-19)
(0.003 6.50074e-20 3.44823e-19)
(0.003 8.36845e-20 3.38352e-19)
(0.003 1.90464e-19 3.78091e-19)
(0.003 1.82112e-19 5.36826e-19)
(0.003 1.2731e-19 6.01998e-19)
(0.003 1.70406e-19 5.1674e-19)
(0.003 1.2391e-19 4.00794e-19)
(0.003 1.19177e-19 3.80142e-19)
(0.003 3.60224e-21 3.29476e-19)
(0.003 -5.21664e-20 2.23369e-19)
(0.003 -8.76137e-20 1.15506e-19)
(0.003 -4.56299e-20 1.48962e-19)
(0.003 1.01236e-19 2.66181e-19)
(0.003 6.27968e-20 1.97393e-19)
(0.003 3.39666e-20 6.04309e-20)
(0.003 1.49151e-19 7.26696e-20)
(0.003 1.89681e-19 1.21121e-19)
(0.003 2.28933e-19 9.0176e-20)
(0.003 1.33263e-19 -1.14971e-19)
(0.003 -6.10403e-20 -1.13076e-19)
(0.003 -7.54925e-20 1.27861e-19)
(0.003 -3.47944e-21 1.81275e-19)
(0.003 2.19279e-19 7.12989e-19)
(0.003 1.9681e-19 1.19555e-18)
(0.003 1.69835e-19 1.33899e-18)
(0.003 1.73856e-19 1.43047e-18)
(0.003 1.97036e-19 1.54635e-18)
(0.003 2.28474e-19 1.49747e-18)
(0.003 3.33047e-19 1.49338e-18)
(0.003 3.01692e-19 1.5851e-18)
(0.003 3.13089e-19 1.52716e-18)
(0.003 3.93134e-19 1.44172e-18)
(0.003 2.47321e-19 1.28031e-18)
(0.003 1.66843e-19 1.08614e-18)
(0.003 1.89482e-19 9.18569e-19)
(0.003 3.27328e-19 8.76894e-19)
(0.003 2.60399e-19 9.58449e-19)
(0.003 1.76461e-19 9.05851e-19)
(0.003 8.68836e-20 6.58816e-19)
(0.003 1.28742e-19 4.37861e-19)
(0.003 3.00946e-19 3.05865e-19)
(0.003 2.35808e-19 3.41898e-19)
(0.003 1.42371e-19 3.95265e-19)
(0.003 4.97817e-20 5.60961e-19)
(0.003 -3.74723e-20 5.99347e-19)
(0.003 9.2207e-20 5.08771e-19)
(0.003 9.14673e-20 5.02692e-19)
(0.003 6.97878e-20 4.1716e-19)
(0.003 7.42215e-20 2.41237e-19)
(0.003 3.02426e-20 1.45114e-19)
(0.003 -3.31725e-20 1.11186e-19)
(0.003 5.40982e-21 2.00034e-19)
(0.003 -7.67472e-20 3.18529e-19)
(0.003 -6.31003e-20 2.41987e-19)
(0.003 4.83525e-20 1.53933e-19)
(0.003 1.15658e-19 1.91983e-19)
(0.003 2.63643e-19 1.41853e-19)
(0.003 9.98454e-20 -1.00837e-19)
(0.003 -1.88059e-20 -4.29876e-19)
(0.003 6.98427e-21 -1.24514e-19)
(0.003 -8.60759e-20 1.83751e-19)
(0.003 -5.52196e-20 1.318e-19)
(0.003 -9.09435e-20 7.42221e-19)
(0.003 -7.20117e-21 1.35467e-18)
(0.003 1.4609e-19 1.46603e-18)
(0.003 1.64677e-19 1.50923e-18)
(0.003 1.94718e-19 1.59053e-18)
(0.003 3.77233e-19 1.58862e-18)
(0.003 3.69519e-19 1.60694e-18)
(0.003 1.18374e-19 1.57932e-18)
(0.003 1.09321e-19 1.53958e-18)
(0.003 2.24464e-19 1.47815e-18)
(0.003 2.06225e-19 1.33076e-18)
(0.003 1.36121e-19 1.11974e-18)
(0.003 1.43757e-19 8.95931e-19)
(0.003 2.85458e-19 9.22353e-19)
(0.003 2.9577e-19 9.59721e-19)
(0.003 1.23601e-19 8.93681e-19)
(0.003 1.81978e-19 7.0778e-19)
(0.003 1.49623e-19 4.22477e-19)
(0.003 4.20627e-20 4.22093e-19)
(0.003 8.06335e-20 4.19485e-19)
(0.003 1.61917e-19 3.45993e-19)
(0.003 1.27727e-19 5.89943e-19)
(0.003 1.59805e-19 6.72133e-19)
(0.003 1.60323e-19 6.15802e-19)
(0.003 1.05577e-19 4.66266e-19)
(0.003 -3.84332e-21 3.33687e-19)
(0.003 -7.47765e-21 2.61417e-19)
(0.003 4.22592e-20 1.79469e-19)
(0.003 2.08047e-20 5.2537e-20)
(0.003 -5.87981e-20 1.40744e-19)
(0.003 -1.6346e-19 2.71964e-19)
(0.003 -1.52326e-19 2.93847e-19)
(0.003 3.2295e-20 2.00422e-19)
(0.003 7.62223e-20 1.26959e-19)
(0.003 4.77646e-20 -5.08889e-20)
(0.003 -3.55511e-20 -3.48336e-19)
(0.003 3.0049e-20 -3.19797e-19)
(0.003 7.90557e-20 -1.30321e-19)
(0.003 5.79233e-20 8.93848e-20)
(0.003 4.24909e-20 1.15624e-19)
(0.003 -2.22193e-19 8.53634e-19)
(0.003 -2.52481e-21 1.28507e-18)
(0.003 2.18499e-19 1.46744e-18)
(0.003 3.27449e-19 1.6404e-18)
(0.003 1.93825e-19 1.74615e-18)
(0.003 1.96533e-19 1.70251e-18)
(0.003 3.11236e-19 1.69236e-18)
(0.003 1.6178e-19 1.58234e-18)
(0.003 1.40887e-19 1.38349e-18)
(0.003 1.38066e-19 1.35919e-18)
(0.003 2.12838e-19 1.32371e-18)
(0.003 1.00617e-19 1.17266e-18)
(0.003 9.51649e-20 1.03341e-18)
(0.003 1.81112e-19 1.04851e-18)
(0.003 2.40901e-19 9.72938e-19)
(0.003 1.79531e-19 8.17589e-19)
(0.003 1.61297e-19 6.62762e-19)
(0.003 1.31267e-19 5.09791e-19)
(0.003 -1.41272e-19 2.97505e-19)
(0.003 -8.46118e-20 3.09229e-19)
(0.003 1.82638e-19 4.69366e-19)
(0.003 2.76378e-19 6.42574e-19)
(0.003 2.34131e-19 7.32658e-19)
(0.003 1.4744e-19 7.01769e-19)
(0.003 1.90792e-19 5.30278e-19)
(0.003 1.46816e-20 3.2761e-19)
(0.003 -2.00664e-19 2.10885e-19)
(0.003 -1.22432e-19 1.59217e-19)
(0.003 6.40036e-21 1.2326e-19)
(0.003 -2.37716e-20 1.70301e-19)
(0.003 -2.55701e-20 2.02645e-19)
(0.003 -9.71799e-20 2.4689e-19)
(0.003 -6.35307e-21 2.48421e-19)
(0.003 -1.78335e-20 1.21102e-19)
(0.003 -1.11863e-19 -1.8378e-20)
(0.003 -3.1721e-20 -2.95877e-19)
(0.003 4.59894e-20 -4.95258e-19)
(0.003 2.34755e-19 -3.22891e-19)
(0.003 2.90165e-19 -2.39317e-20)
(0.003 1.35531e-19 5.3883e-20)
(0.003 1.30909e-19 8.71937e-19)
(0.003 2.23144e-19 1.45387e-18)
(0.003 2.48764e-19 1.65781e-18)
(0.003 2.43163e-19 1.71659e-18)
(0.003 1.87369e-19 1.72105e-18)
(0.003 2.41984e-19 1.6876e-18)
(0.003 1.94664e-19 1.67155e-18)
(0.003 1.73018e-19 1.54901e-18)
(0.003 9.76462e-20 1.44624e-18)
(0.003 1.21527e-19 1.35564e-18)
(0.003 2.72142e-19 1.25946e-18)
(0.003 2.07977e-19 1.19574e-18)
(0.003 1.50973e-19 1.04885e-18)
(0.003 1.14789e-19 9.6384e-19)
(0.003 1.4748e-19 1.01059e-18)
(0.003 2.72629e-19 9.40798e-19)
(0.003 1.44813e-19 6.42369e-19)
(0.003 3.30443e-21 4.09943e-19)
(0.003 6.31829e-21 2.79546e-19)
(0.003 3.1283e-20 3.79776e-19)
(0.003 1.79534e-19 5.54054e-19)
(0.003 2.7561e-19 7.1231e-19)
(0.003 1.04141e-19 7.95279e-19)
(0.003 2.90022e-20 7.92151e-19)
(0.003 6.47514e-20 4.89881e-19)
(0.003 -6.17489e-20 1.98686e-19)
(0.003 -1.53361e-19 1.68591e-19)
(0.003 -8.42004e-20 1.69456e-19)
(0.003 1.165e-21 9.02317e-20)
(0.003 -5.34645e-20 2.40772e-19)
(0.003 -9.31168e-20 3.40056e-19)
(0.003 -4.08079e-20 2.33702e-19)
(0.003 1.80872e-20 1.66275e-19)
(0.003 -6.38313e-20 4.72342e-20)
(0.003 -3.32481e-19 -1.31364e-20)
(0.003 -1.50984e-19 -2.2106e-19)
(0.003 7.54811e-20 -4.41902e-19)
(0.003 2.11925e-19 -2.73584e-19)
(0.003 3.45074e-19 -1.36236e-19)
(0.003 2.68191e-19 -1.34567e-19)
(0.003 2.75709e-19 9.7201e-19)
(0.003 2.7447e-19 1.52539e-18)
(0.003 2.06418e-19 1.64006e-18)
(0.003 1.4795e-19 1.63426e-18)
(0.003 2.06168e-19 1.69023e-18)
(0.003 1.68247e-19 1.75115e-18)
(0.003 1.24173e-19 1.63693e-18)
(0.003 2.7915e-19 1.54883e-18)
(0.003 1.82162e-19 1.36053e-18)
(0.003 9.79782e-20 1.37294e-18)
(0.003 1.75201e-19 1.32017e-18)
(0.003 1.92463e-19 1.19964e-18)
(0.003 2.16145e-19 1.11974e-18)
(0.003 1.89219e-19 9.72686e-19)
(0.003 9.07952e-20 9.70628e-19)
(0.003 2.05755e-20 9.46047e-19)
(0.003 1.7892e-20 7.42376e-19)
(0.003 1.03802e-19 4.50409e-19)
(0.003 2.81343e-19 3.46473e-19)
(0.003 2.34042e-19 4.46636e-19)
(0.003 1.1285e-19 5.35322e-19)
(0.003 -4.45728e-20 6.40525e-19)
(0.003 -9.44427e-20 6.94631e-19)
(0.003 -6.29782e-20 7.49357e-19)
(0.003 -1.1605e-19 5.53913e-19)
(0.003 -1.34128e-19 2.82002e-19)
(0.003 -6.17682e-20 1.94465e-19)
(0.003 -3.03556e-20 1.84998e-19)
(0.003 -4.22265e-20 5.59083e-20)
(0.003 -1.15488e-19 2.14566e-19)
(0.003 -2.93659e-20 3.20804e-19)
(0.003 1.05047e-20 2.79018e-19)
(0.003 -1.40722e-19 2.05243e-19)
(0.003 -5.35287e-20 2.73788e-20)
(0.003 -9.15613e-20 5.05594e-20)
(0.003 -9.92019e-20 -5.8746e-20)
(0.003 1.70626e-20 -5.57594e-19)
(0.003 2.02654e-19 -2.80762e-19)
(0.003 2.53812e-19 -1.57177e-19)
(0.003 1.91893e-19 -2.83877e-19)
(0.003 2.82204e-19 1.02331e-18)
(0.003 3.15087e-19 1.56658e-18)
(0.003 2.03443e-19 1.64448e-18)
(0.003 1.94168e-19 1.68941e-18)
(0.003 7.41629e-20 1.72443e-18)
(0.003 -7.05935e-20 1.70623e-18)
(0.003 1.26619e-19 1.64487e-18)
(0.003 2.03407e-19 1.60822e-18)
(0.003 2.03614e-19 1.45912e-18)
(0.003 1.7233e-19 1.35089e-18)
(0.003 2.60574e-20 1.27396e-18)
(0.003 8.28762e-20 1.17506e-18)
(0.003 2.38188e-19 1.1189e-18)
(0.003 2.99743e-19 1.04754e-18)
(0.003 1.27297e-19 9.89312e-19)
(0.003 -4.96452e-20 8.62184e-19)
(0.003 -1.85451e-22 6.30814e-19)
(0.003 1.09451e-19 4.50926e-19)
(0.003 2.14106e-19 5.32259e-19)
(0.003 2.07574e-19 5.52659e-19)
(0.003 1.20819e-19 5.46344e-19)
(0.003 2.85735e-20 6.07846e-19)
(0.003 2.52828e-20 6.70758e-19)
(0.003 -2.48014e-20 6.20971e-19)
(0.003 -2.3525e-19 4.6228e-19)
(0.003 -1.18067e-19 2.15906e-19)
(0.003 -6.82991e-20 1.31638e-19)
(0.003 -5.89934e-20 1.69012e-19)
(0.003 -1.32839e-19 1.29399e-19)
(0.003 -2.26219e-19 1.90039e-19)
(0.003 -3.23951e-20 3.31106e-19)
(0.003 5.87167e-20 2.84683e-19)
(0.003 -6.09767e-20 1.35834e-19)
(0.003 -2.22679e-20 1.64522e-19)
(0.003 1.69819e-20 2.36296e-19)
(0.003 -6.19684e-20 -1.236e-19)
(0.003 3.76994e-20 -5.79894e-19)
(0.003 1.70289e-19 -3.02748e-19)
(0.003 1.59315e-19 -2.56005e-19)
(0.003 1.29397e-19 -3.67597e-19)
(0.003 9.8517e-21 1.1003e-18)
(0.003 1.80972e-19 1.65001e-18)
(0.003 2.1928e-19 1.64584e-18)
(0.003 4.28961e-20 1.68851e-18)
(0.003 -1.19268e-19 1.70001e-18)
(0.003 -6.59781e-20 1.69863e-18)
(0.003 1.79097e-19 1.66564e-18)
(0.003 2.43391e-19 1.54213e-18)
(0.003 1.48166e-19 1.44924e-18)
(0.003 -1.8777e-21 1.40965e-18)
(0.003 -5.58237e-20 1.28491e-18)
(0.003 1.69615e-19 1.12957e-18)
(0.003 2.48048e-19 1.1663e-18)
(0.003 2.1307e-19 1.14092e-18)
(0.003 9.7391e-20 1.05795e-18)
(0.003 4.50769e-20 8.57816e-19)
(0.003 6.58242e-20 6.96903e-19)
(0.003 2.17803e-19 5.2645e-19)
(0.003 2.22806e-19 4.77403e-19)
(0.003 9.06797e-20 4.6723e-19)
(0.003 1.7114e-19 5.68737e-19)
(0.003 7.79845e-20 6.94071e-19)
(0.003 -5.38692e-20 6.74414e-19)
(0.003 -4.84154e-20 5.6853e-19)
(0.003 -1.33566e-19 4.23641e-19)
(0.003 -3.85146e-20 9.5239e-20)
(0.003 2.45207e-20 5.38681e-20)
(0.003 -1.62215e-20 2.05787e-19)
(0.003 -7.07858e-20 3.30469e-20)
(0.003 -1.55217e-19 8.13966e-20)
(0.003 -2.52596e-19 4.13562e-19)
(0.003 -1.16172e-19 3.4001e-19)
(0.003 2.18895e-20 2.28348e-19)
(0.003 -8.9805e-20 1.88532e-19)
(0.003 -6.53399e-20 1.08166e-19)
(0.003 -2.67576e-20 -1.85734e-19)
(0.003 -2.09831e-21 -5.78631e-19)
(0.003 3.22126e-20 -3.76999e-19)
(0.003 4.03431e-20 -3.89627e-19)
(0.003 -2.44041e-20 -4.56692e-19)
(0.003 -2.11237e-19 1.0976e-18)
(0.003 -1.90189e-19 1.61408e-18)
(0.003 2.96153e-20 1.73576e-18)
(0.003 1.20806e-20 1.65516e-18)
(0.003 3.80646e-20 1.6079e-18)
(0.003 2.23085e-20 1.66581e-18)
(0.003 1.17646e-19 1.7314e-18)
(0.003 2.14038e-19 1.62992e-18)
(0.003 7.39342e-20 1.47631e-18)
(0.003 -9.9207e-20 1.37193e-18)
(0.003 1.13227e-19 1.26615e-18)
(0.003 2.61584e-19 1.19995e-18)
(0.003 1.62547e-19 1.24247e-18)
(0.003 1.71561e-21 1.15013e-18)
(0.003 2.39635e-20 9.62825e-19)
(0.003 4.61537e-20 8.7815e-19)
(0.003 1.31376e-19 6.274e-19)
(0.003 3.6059e-19 5.70077e-19)
(0.003 2.2579e-19 6.2972e-19)
(0.003 6.98594e-20 4.56703e-19)
(0.003 1.92833e-19 5.87106e-19)
(0.003 6.15342e-20 6.86824e-19)
(0.003 -1.6925e-19 6.79633e-19)
(0.003 -2.5787e-19 5.91824e-19)
(0.003 -1.89075e-19 3.65736e-19)
(0.003 2.60739e-20 1.66157e-19)
(0.003 2.30817e-19 2.52507e-20)
(0.003 1.35635e-19 1.44276e-19)
(0.003 -1.71386e-20 1.46743e-19)
(0.003 -4.21088e-20 8.84091e-20)
(0.003 -1.12103e-19 2.60112e-19)
(0.003 -1.39816e-19 2.92475e-19)
(0.003 -7.90102e-20 2.18314e-19)
(0.003 -8.0755e-20 7.1383e-20)
(0.003 -5.90773e-20 4.94264e-20)
(0.003 -1.21294e-19 -1.0221e-19)
(0.003 -9.77034e-20 -4.08678e-19)
(0.003 -4.27613e-20 -3.97093e-19)
(0.003 -9.58598e-20 -4.13883e-19)
(0.003 -1.25491e-19 -5.19146e-19)
(0.003 -7.24162e-20 1.05926e-18)
(0.003 -2.62284e-19 1.63952e-18)
(0.003 -1.89968e-19 1.80877e-18)
(0.003 -1.03965e-19 1.70544e-18)
(0.003 4.86894e-20 1.69512e-18)
(0.003 6.42641e-20 1.72654e-18)
(0.003 -1.14962e-21 1.71448e-18)
(0.003 4.91253e-20 1.63381e-18)
(0.003 1.20123e-20 1.48464e-18)
(0.003 5.45587e-20 1.27862e-18)
(0.003 2.07976e-19 1.29158e-18)
(0.003 2.10292e-19 1.31681e-18)
(0.003 2.49631e-20 1.27507e-18)
(0.003 -4.42118e-20 1.17735e-18)
(0.003 5.14189e-20 1.05392e-18)
(0.003 9.72115e-20 8.4692e-19)
(0.003 1.60514e-19 6.07963e-19)
(0.003 1.23078e-19 5.88252e-19)
(0.003 1.32753e-19 6.07727e-19)
(0.003 1.99925e-19 4.65334e-19)
(0.003 8.57214e-20 5.78606e-19)
(0.003 1.94413e-20 7.57239e-19)
(0.003 -1.41991e-19 6.71017e-19)
(0.003 -3.29113e-19 4.57733e-19)
(0.003 -1.84233e-19 2.15992e-19)
(0.003 -2.71635e-20 2.65752e-19)
(0.003 1.32351e-19 1.85332e-19)
(0.003 1.24913e-19 8.20363e-20)
(0.003 7.56832e-20 1.37944e-19)
(0.003 8.24182e-20 1.17509e-19)
(0.003 1.7223e-20 2.17049e-19)
(0.003 -7.85026e-21 2.4179e-19)
(0.003 -8.05048e-20 1.53749e-19)
(0.003 -1.25919e-19 7.44688e-20)
(0.003 -1.23329e-19 1.89106e-20)
(0.003 -1.58754e-19 -1.47968e-19)
(0.003 -1.18212e-19 -2.95613e-19)
(0.003 -1.74292e-19 -3.26709e-19)
(0.003 -2.5001e-19 -4.07654e-19)
(0.003 -1.36693e-19 -4.80996e-19)
(0.003 -1.48458e-19 9.74129e-19)
(0.003 -1.26354e-19 1.55477e-18)
(0.003 -2.45587e-20 1.76714e-18)
(0.003 -1.18185e-19 1.72904e-18)
(0.003 -1.4673e-19 1.77184e-18)
(0.003 -2.00928e-20 1.74736e-18)
(0.003 -3.41796e-20 1.75118e-18)
(0.003 -6.45902e-21 1.71838e-18)
(0.003 8.85205e-20 1.53497e-18)
(0.003 1.8614e-19 1.33808e-18)
(0.003 1.31668e-19 1.31452e-18)
(0.003 1.19317e-19 1.34723e-18)
(0.003 -3.68546e-22 1.26861e-18)
(0.003 -6.8375e-20 1.21041e-18)
(0.003 -5.53638e-20 9.92415e-19)
(0.003 1.13323e-19 7.51229e-19)
(0.003 1.64858e-19 5.85945e-19)
(0.003 -6.46872e-20 6.48355e-19)
(0.003 7.2911e-20 7.22102e-19)
(0.003 2.42828e-19 6.02727e-19)
(0.003 1.13438e-19 6.69812e-19)
(0.003 -2.20534e-20 6.08859e-19)
(0.003 -1.59078e-19 5.06908e-19)
(0.003 -2.64461e-19 3.46564e-19)
(0.003 -1.71973e-19 1.95925e-19)
(0.003 -5.61197e-20 3.04387e-19)
(0.003 -5.58724e-20 2.49491e-19)
(0.003 -2.15115e-20 2.38827e-19)
(0.003 6.02913e-20 1.7827e-19)
(0.003 1.27583e-19 1.30079e-19)
(0.003 9.12072e-20 1.21829e-19)
(0.003 2.0503e-21 1.71037e-19)
(0.003 -1.46792e-19 1.39504e-19)
(0.003 -2.09792e-19 1.6328e-19)
(0.003 -1.95525e-19 1.20883e-19)
(0.003 -5.50577e-20 -1.49873e-19)
(0.003 -1.62151e-20 -4.25087e-19)
(0.003 -1.17887e-19 -2.91245e-19)
(0.003 -1.87418e-19 -5.21322e-19)
(0.003 -1.16142e-19 -6.2167e-19)
(0.003 -1.84835e-19 9.15757e-19)
(0.003 -2.01601e-19 1.59524e-18)
(0.003 -1.56882e-19 1.88675e-18)
(0.003 1.62895e-22 1.78573e-18)
(0.003 2.64512e-20 1.71332e-18)
(0.003 -2.69273e-20 1.73732e-18)
(0.003 -1.37426e-19 1.75428e-18)
(0.003 -2.11474e-19 1.6643e-18)
(0.003 4.24544e-20 1.56611e-18)
(0.003 2.12085e-19 1.43942e-18)
(0.003 9.5785e-20 1.35521e-18)
(0.003 3.52157e-20 1.34035e-18)
(0.003 7.20395e-20 1.22668e-18)
(0.003 -1.03924e-20 1.14676e-18)
(0.003 1.75563e-21 1.05261e-18)
(0.003 4.32248e-20 8.93899e-19)
(0.003 8.04178e-20 6.89745e-19)
(0.003 2.10842e-19 5.39935e-19)
(0.003 2.8594e-19 5.89909e-19)
(0.003 1.36708e-19 5.66683e-19)
(0.003 -6.54805e-20 6.71108e-19)
(0.003 -1.98563e-19 7.51317e-19)
(0.003 -1.31473e-19 5.24296e-19)
(0.003 -6.05399e-20 3.46452e-19)
(0.003 -1.1324e-19 2.28875e-19)
(0.003 -1.49245e-19 2.97792e-19)
(0.003 -6.7602e-20 3.74365e-19)
(0.003 -9.16986e-20 2.76707e-19)
(0.003 -2.942e-20 1.99445e-19)
(0.003 4.36954e-20 1.27373e-19)
(0.003 1.31128e-19 1.06034e-19)
(0.003 -6.83078e-20 6.38146e-20)
(0.003 -1.2751e-19 4.46185e-20)
(0.003 -5.40385e-20 1.29503e-19)
(0.003 -9.29083e-20 9.12271e-20)
(0.003 -1.21204e-19 3.19966e-20)
(0.003 -1.29683e-19 -1.6687e-19)
(0.003 -1.38704e-19 -4.0068e-19)
(0.003 6.34109e-20 -4.85896e-19)
(0.003 9.54035e-20 -5.18433e-19)
(0.003 -8.82374e-20 9.2138e-19)
(0.003 -1.96752e-19 1.53098e-18)
(0.003 -1.95431e-19 1.73502e-18)
(0.003 5.89489e-20 1.81224e-18)
(0.003 1.05939e-19 1.77406e-18)
(0.003 -1.18815e-19 1.73779e-18)
(0.003 -2.56956e-19 1.73379e-18)
(0.003 -1.39535e-19 1.7052e-18)
(0.003 6.2216e-20 1.62334e-18)
(0.003 9.79535e-20 1.51336e-18)
(0.003 2.67835e-20 1.3653e-18)
(0.003 4.4728e-20 1.33212e-18)
(0.003 5.77038e-20 1.27661e-18)
(0.003 8.50859e-20 1.16115e-18)
(0.003 1.59179e-19 1.03808e-18)
(0.003 3.84277e-20 9.05995e-19)
(0.003 -1.48773e-20 7.8254e-19)
(0.003 1.28515e-19 7.09847e-19)
(0.003 2.27259e-19 6.65071e-19)
(0.003 5.85188e-20 5.59209e-19)
(0.003 -1.54491e-19 6.28986e-19)
(0.003 -1.85708e-19 6.00657e-19)
(0.003 -4.16583e-20 5.72859e-19)
(0.003 -1.18063e-20 4.11275e-19)
(0.003 -1.07405e-20 2.61491e-19)
(0.003 -1.36989e-19 2.80534e-19)
(0.003 -2.58013e-21 3.32263e-19)
(0.003 1.71924e-20 2.21125e-19)
(0.003 -5.68317e-20 1.17791e-19)
(0.003 1.35394e-20 1.00768e-19)
(0.003 4.41052e-20 1.0997e-19)
(0.003 -3.67322e-20 -8.72875e-21)
(0.003 2.68894e-20 3.91646e-20)
(0.003 4.43071e-20 1.44831e-19)
(0.003 -3.34243e-20 3.54528e-20)
(0.003 -1.69479e-19 2.75842e-20)
(0.003 -1.55967e-19 2.38607e-20)
(0.003 -1.32662e-19 -1.16309e-19)
(0.003 7.21471e-20 -2.9116e-19)
(0.003 1.63924e-19 -2.9471e-19)
(0.003 7.60482e-20 9.9865e-19)
(0.003 9.81024e-20 1.55023e-18)
(0.003 4.88942e-20 1.6806e-18)
(0.003 -6.07698e-20 1.74312e-18)
(0.003 -5.89239e-20 1.78883e-18)
(0.003 -1.34594e-19 1.68627e-18)
(0.003 -2.59221e-19 1.63882e-18)
(0.003 -2.47882e-19 1.70167e-18)
(0.003 -8.67684e-20 1.69149e-18)
(0.003 1.12301e-19 1.57641e-18)
(0.003 2.00433e-19 1.3743e-18)
(0.003 1.20272e-19 1.35455e-18)
(0.003 1.23109e-19 1.2523e-18)
(0.003 1.15681e-19 1.2107e-18)
(0.003 1.12704e-19 1.15041e-18)
(0.003 -2.10085e-20 9.74312e-19)
(0.003 -8.65391e-20 7.33209e-19)
(0.003 -2.18036e-19 5.6334e-19)
(0.003 -1.64883e-19 7.11174e-19)
(0.003 -1.86937e-20 6.04417e-19)
(0.003 -8.30576e-20 5.6783e-19)
(0.003 -5.02954e-20 6.59821e-19)
(0.003 -1.5567e-20 6.77883e-19)
(0.003 6.07454e-20 4.15173e-19)
(0.003 1.56509e-19 2.13132e-19)
(0.003 1.67584e-20 2.27232e-19)
(0.003 1.37198e-20 3.31135e-19)
(0.003 8.30988e-20 1.95965e-19)
(0.003 7.47444e-20 1.14894e-19)
(0.003 -1.56643e-20 5.91215e-20)
(0.003 -8.03496e-20 1.60608e-19)
(0.003 -2.73479e-20 6.39875e-20)
(0.003 6.85155e-20 -7.60487e-22)
(0.003 -1.38424e-20 9.3974e-20)
(0.003 -1.71278e-20 9.55327e-20)
(0.003 1.84872e-21 3.23261e-20)
(0.003 -3.40736e-20 1.07345e-20)
(0.003 -7.12786e-20 -1.02625e-19)
(0.003 -1.11989e-19 -2.62584e-19)
(0.003 -4.34677e-20 -3.07402e-19)
(0.003 2.51953e-19 9.5549e-19)
(0.003 2.19802e-19 1.50791e-18)
(0.003 -5.10134e-22 1.6653e-18)
(0.003 -1.22793e-19 1.71715e-18)
(0.003 -8.83192e-20 1.70667e-18)
(0.003 3.16602e-20 1.72045e-18)
(0.003 -5.16523e-20 1.67903e-18)
(0.003 -3.03589e-19 1.57166e-18)
(0.003 -2.65735e-19 1.59219e-18)
(0.003 -3.70594e-20 1.68715e-18)
(0.003 2.24361e-19 1.63e-18)
(0.003 1.42228e-19 1.50469e-18)
(0.003 1.35132e-19 1.30963e-18)
(0.003 1.50733e-19 1.23476e-18)
(0.003 2.91411e-20 1.13454e-18)
(0.003 -9.65805e-20 8.96192e-19)
(0.003 -9.71275e-20 7.31378e-19)
(0.003 -1.74633e-19 5.83445e-19)
(0.003 -2.75499e-19 6.82209e-19)
(0.003 -1.29398e-19 5.89382e-19)
(0.003 -1.35882e-19 5.42008e-19)
(0.003 -1.57849e-19 5.5568e-19)
(0.003 -1.64797e-20 6.17679e-19)
(0.003 9.97827e-20 5.48867e-19)
(0.003 1.91145e-19 3.62726e-19)
(0.003 1.75011e-19 2.21207e-19)
(0.003 -1.92669e-20 2.05621e-19)
(0.003 7.04552e-20 1.86267e-19)
(0.003 1.24134e-19 1.09137e-19)
(0.003 3.17588e-20 1.34505e-20)
(0.003 -6.14861e-20 7.31085e-20)
(0.003 -6.03025e-20 1.16687e-20)
(0.003 -1.59864e-20 -2.73566e-20)
(0.003 -3.8614e-20 8.48677e-20)
(0.003 1.09284e-19 1.75623e-19)
(0.003 2.37217e-19 9.04759e-20)
(0.003 2.38674e-20 -1.69633e-20)
(0.003 -7.63635e-20 -1.41066e-19)
(0.003 -2.05905e-19 -2.46012e-19)
(0.003 -2.64566e-19 -1.36205e-19)
(0.003 2.25738e-19 9.65326e-19)
(0.003 2.13794e-19 1.51152e-18)
(0.003 -4.40059e-20 1.67071e-18)
(0.003 -4.06356e-20 1.65457e-18)
(0.003 8.67043e-21 1.67654e-18)
(0.003 7.47597e-20 1.66454e-18)
(0.003 3.35231e-20 1.63799e-18)
(0.003 -1.16176e-19 1.55361e-18)
(0.003 -1.77709e-19 1.58335e-18)
(0.003 -1.66176e-19 1.75852e-18)
(0.003 -1.00955e-19 1.73158e-18)
(0.003 4.7167e-20 1.55532e-18)
(0.003 7.93932e-20 1.3717e-18)
(0.003 -7.54809e-20 1.24344e-18)
(0.003 -1.42089e-19 1.10488e-18)
(0.003 -6.85982e-20 9.54117e-19)
(0.003 -1.7267e-19 7.63301e-19)
(0.003 -2.30941e-19 5.93089e-19)
(0.003 -3.20003e-19 5.92758e-19)
(0.003 -1.94021e-19 5.89305e-19)
(0.003 -8.58071e-20 5.32343e-19)
(0.003 -2.21246e-21 5.22845e-19)
(0.003 1.23048e-19 6.60528e-19)
(0.003 1.03932e-19 4.93546e-19)
(0.003 6.52402e-20 2.956e-19)
(0.003 1.57856e-19 2.78843e-19)
(0.003 5.84941e-20 2.23363e-19)
(0.003 7.35819e-20 2.34774e-19)
(0.003 8.14492e-20 1.27763e-19)
(0.003 2.72034e-20 -7.86273e-20)
(0.003 8.89212e-20 -9.90625e-20)
(0.003 1.17424e-19 -8.63964e-20)
(0.003 -5.49554e-20 -8.41951e-21)
(0.003 -7.82815e-21 5.98916e-20)
(0.003 1.84079e-19 2.03201e-19)
(0.003 1.72008e-19 1.13909e-19)
(0.003 7.80984e-20 -1.80946e-19)
(0.003 -1.81028e-20 -2.12378e-19)
(0.003 -8.83779e-21 -1.52831e-19)
(0.003 -2.51306e-20 -1.25651e-20)
(0.003 -1.28796e-19 9.99922e-19)
(0.003 -5.22651e-20 1.58877e-18)
(0.003 4.5903e-20 1.64399e-18)
(0.003 -1.27869e-20 1.61481e-18)
(0.003 -1.9107e-20 1.6305e-18)
(0.003 6.78945e-20 1.72412e-18)
(0.003 7.50007e-20 1.63972e-18)
(0.003 1.10259e-19 1.47572e-18)
(0.003 -6.34187e-20 1.56065e-18)
(0.003 -1.70146e-19 1.69397e-18)
(0.003 -1.54238e-19 1.67325e-18)
(0.003 -8.89244e-20 1.62802e-18)
(0.003 -2.03624e-19 1.46684e-18)
(0.003 -1.6891e-19 1.15434e-18)
(0.003 -1.37734e-19 9.56209e-19)
(0.003 -1.85768e-19 8.81319e-19)
(0.003 -2.40215e-19 8.05915e-19)
(0.003 -1.38156e-19 6.32721e-19)
(0.003 -1.86511e-19 5.38944e-19)
(0.003 -2.52228e-19 5.90902e-19)
(0.003 -1.46347e-19 5.29226e-19)
(0.003 1.91263e-20 6.00804e-19)
(0.003 7.21915e-20 6.91043e-19)
(0.003 1.06357e-19 5.10998e-19)