/*--------------------------------*- C++ -*----------------------------------*\
| =========                 |                                                 |
| \\      /  F ield         | OpenFOAM: The Open Source CFD Toolbox           |
|  \\    /   O peration     | Version:  v2012                                 |
|   \\  /    A nd           | Website:  www.openfoam.com                      |
|    \\/     M anipulation  |                                                 |
\*---------------------------------------------------------------------------*/
FoamFile
{
    version     2.0;
    format      ascii;
    class       volScalarField;
    location    "740/leftSolid";
    object      T;
}
// * * * * * * * * * * * * * * * * * * * * * * * * * * * * * * * * * * * * * //

dimensions      [0 0 0 1 0 0 0];


internalField   nonuniform List<scalar> 
130
(
928.20273
928.18512
928.1479
928.08323
927.98662
927.85785
927.69009
927.47949
927.23503
926.95888
926.65626
926.33676
926.09263
928.14333
928.12945
928.09455
928.02878
927.93314
927.80524
927.62717
927.40067
927.13976
926.84436
926.51719
926.16853
925.90751
928.06663
928.05118
928.01208
927.94047
927.84396
927.71872
927.52162
927.27098
926.97866
926.64871
926.29604
925.98028
925.76847
927.94357
927.92758
927.88573
927.81533
927.71656
927.57324
927.35695
927.07879
926.74089
926.34234
925.92691
925.58175
925.35731
927.80313
927.77992
927.72986
927.6473
927.53031
927.36388
927.12277
926.81073
926.42265
925.945
925.49301
925.12347
924.88085
927.6685
927.6392
927.57638
927.4739
927.32937
927.13498
926.8624
926.51405
926.08728
925.63709
925.21956
924.81434
924.57674
927.56892
927.53418
927.45759
927.33305
927.15386
926.90948
926.59255
926.21941
925.82391
925.44424
925.08569
924.75658
924.5687
927.51585
927.47592
927.38982
927.2505
927.05159
926.77801
926.44455
926.1021
925.76188
925.43694
925.12906
924.84196
924.67363
927.48706
927.44754
927.35954
927.21815
927.01511
926.74413
926.43754
926.12496
925.81133
925.51298
925.2362
924.98927
924.82155
927.46751
927.43067
927.34773
927.21067
927.00692
926.74319
926.45536
926.16088
925.8559
925.57505
925.32124
925.10389
924.94829
)
;

boundaryField
{
    minX
    {
        type            zeroGradient;
    }
    minZ
    {
        type            zeroGradient;
    }
    maxZ
    {
        type            zeroGradient;
    }
    leftSolid_to_bottomWater
    {
        type            compressible::turbulentTemperatureCoupledBaffleMixed;
        refValue        nonuniform List<scalar> 
130
(
968.98629
968.09907
967.78085
967.26806
966.26793
965.95025
965.84368
964.7975
964.36449
963.71586
962.97219
954.95657
940.90844
967.27083
967.31172
967.53223
966.72178
966.19428
966.96926
966.19949
964.34079
963.97133
963.2473
961.13165
947.3519
929.12744
968.36445
968.5506
968.73306
966.83255
966.46711
970.17018
967.17443
965.35685
964.61231
963.38396
957.63743
952.38247
944.45954
966.62933
967.03198
966.92589
966.99847
968.47466
970.06951
968.26805
967.54288
966.80721
961.70836
950.65792
944.40339
935.30329
965.6238
965.14802
965.35674
965.46068
966.80496
968.26226
967.38717
967.1462
966.53442
948.63942
939.74154
936.47478
926.17831
964.07132
963.62254
963.7114
963.69005
964.41007
967.2261
966.95342
965.9952
956.16014
947.54742
947.46352
927.19896
919.18153
963.37557
963.14878
962.85187
962.62666
962.41866
961.41812
958.16889
951.5122
945.64302
944.63524
942.59776
931.49705
928.72494
964.24929
963.71481
963.32997
962.71663
962.53422
958.28228
951.40156
949.81621
948.92752
948.65856
947.55385
936.85277
932.96884
964.90132
964.67526
963.94917
963.57486
962.86246
958.14812
955.12652
954.30088
952.51868
951.38439
950.08593
945.22526
937.07118
964.03322
963.89153
963.87051
964.38003
962.59051
958.68968
956.77272
956.79308
952.72534
952.23782
951.66178
950.31721
943.27006
)
;
        refGradient     uniform 0;
        valueFraction   nonuniform List<scalar> 
130
(
0.0075140686
0.0075140686
0.0075140686
0.0075140686
0.0075140686
0.0075140686
0.0075140686
0.0075140686
0.0075140686
0.0075140686
0.0075140686
0.0075140686
0.0075140686
0.0075140686
0.0075140686
0.0075140686
0.0075140686
0.0075140686
0.0075140686
0.0075140686
0.0075140686
0.0075140686
0.0075140686
0.0075140686
0.0075140686
0.0075140686
0.0075140686
0.0075140686
0.0075140686
0.0075140686
0.0075140686
0.0075140686
0.0075140686
0.0075140686
0.0075140686
0.0075140686
0.0075140686
0.0075140686
0.0075140686
0.0075140686
0.0075140686
0.0075140686
0.0075140686
0.0075140686
0.0075140686
0.0075140686
0.0075140686
0.0075140686
0.0075140686
0.0075140686
0.0075140686
0.0075140686
0.0075140686
0.0075140686
0.0075140686
0.0075140686
0.0075140686
0.0075140686
0.0075140686
0.0075140686
0.0075140686
0.0075140686
0.0075140686
0.0075140686
0.0075140686
0.0075140686
0.0075140686
0.0075140686
0.0075140686
0.0075140686
0.0075140686
0.0075140686
0.0075140686
0.0075140686
0.0075140686
0.0075140686
0.0075140686
0.0075140686
0.0075140686
0.0075140686
0.0075140686
0.0075140686
0.0075140686
0.0075140686
0.0075140686
0.0075140686
0.0075140686
0.0075140686
0.0075140686
0.0075140686
0.0075140686
0.0075140686
0.0075140686
0.0075140686
0.0075140686
0.0075140686
0.0075140686
0.0075140686
0.0075140686
0.0075140686
0.0075140686
0.0075140686
0.0075140686
0.0075140686
0.0075140686
0.0075140686
0.0075140686
0.0075140686
0.0075140686
0.0075140686
0.0075140686
0.0075140686
0.0075140686
0.0075140686
0.0075140686
0.0075140686
0.0075140686
0.0075140686
0.0075140686
0.0075140686
0.0075140686
0.0075140686
0.0075140686
0.0075140686
0.0075140686
0.0075140686
0.0075140686
0.0075140686
0.0075140686
0.0075140686
)
;
        value           nonuniform List<scalar> 
130
(
928.50854
928.48439
928.44506
928.37703
928.27364
928.14345
927.97615
927.75926
927.51339
927.23445
926.92851
926.55116
926.20324
928.43667
928.42319
928.39022
928.31886
928.21997
928.09886
927.91635
927.67758
927.41586
927.11727
926.77669
926.32711
925.93107
928.36877
928.35481
928.31736
928.23201
928.13347
928.03703
927.81892
927.55651
927.26079
926.92411
926.53096
926.17813
925.90842
928.23363
928.22077
928.17842
928.10907
928.02213
927.8919
927.6637
927.38217
927.04128
926.60743
926.11213
925.72259
925.43145
928.08672
928.0601
928.01195
927.93077
927.82474
927.67052
927.42464
927.11313
926.72338
926.11494
925.59945
925.20807
924.88983
927.94148
927.90902
927.84731
927.74541
927.60734
927.43557
927.16297
926.81001
926.31258
925.80108
925.38606
924.8316
924.53555
927.83746
927.80126
927.72301
927.59768
927.41826
927.16819
926.82919
926.40884
925.97222
925.58785
925.21672
924.80673
924.59944
927.79138
927.74773
927.65937
927.51647
927.31769
927.01424
926.63153
926.27972
925.93537
925.61088
925.29706
924.93175
924.73553
927.7677
927.72678
927.63398
927.49084
927.28398
926.97964
926.65262
926.33618
926.01153
925.7069
925.42246
925.14086
924.91312
927.74179
927.70417
927.62169
927.48948
927.27382
926.98274
926.68267
926.39057
926.05732
925.77492
925.51868
925.29283
925.08539
)
;
        Tnbr            T;
        thicknessLayers List<scalar> 0();
        kappaLayers     List<scalar> 0();
        kappaMethod     solidThermo;
        kappa           none;
        alphaAni        none;
        alpha           none;
        field           T;
    }
    leftSolid_to_heater
    {
        type            compressible::turbulentTemperatureCoupledBaffleMixed;
        refValue        nonuniform List<scalar> 10(730.57406 721.04655 701.29611 669.34527 622.82026 622.9258 669.80517 701.85572 721.52776 730.88065);
        refGradient     uniform 0;
        valueFraction   nonuniform List<scalar> 10(2.08329e-05 2.08329e-05 2.08329e-05 2.08329e-05 2.08329e-05 2.08329e-05 2.08329e-05 2.08329e-05 2.08329e-05 2.08329e-05);
        value           nonuniform List<scalar> 10(926.08783 925.9026 925.76329 925.35138 924.87378 924.5698 924.56289 924.66856 924.81683 924.94367);
        Tnbr            T;
        thicknessLayers List<scalar> 1(0.001);
        kappaLayers     List<scalar> 1(0.0005);
        kappaMethod     solidThermo;
        kappa           none;
        alphaAni        none;
        alpha           none;
        field           T;
    }
    leftSolid_to_topAir
    {
        type            compressible::turbulentTemperatureCoupledBaffleMixed;
        refValue        nonuniform List<scalar> 
130
(
325.53482
349.13443
370.49515
390.2339
408.86046
426.6762
443.77914
460.00484
475.05141
488.87235
501.33006
512.16852
520.82552
325.52591
348.87083
369.73231
388.72854
406.33415
422.7912
438.14813
452.33122
465.11532
476.124
484.83033
490.59967
492.58894
325.51925
348.90194
369.82054
388.89034
406.59246
423.1834
438.77547
453.3808
466.91261
479.15154
489.68173
497.79502
502.22876
325.51403
348.90756
369.86088
388.99657
406.81584
423.61065
439.54096
454.69301
469.0852
482.63571
495.06364
505.6883
513.2129
325.50743
348.89964
369.85744
389.00265
406.83712
423.65429
439.61361
454.797
469.20703
482.70999
494.88948
504.81517
511.27727
325.50199
348.889
369.84157
388.98107
406.80889
423.61823
439.56847
454.74182
469.14583
482.65743
494.87439
504.88319
511.35932
325.49882
348.87792
369.81687
388.93705
406.73814
423.51083
439.41399
454.53187
468.88068
482.38338
494.76988
505.37273
512.85011
325.49694
348.85879
369.75731
388.80659
406.48645
423.05149
438.60766
453.17691
466.67307
478.87063
489.35307
497.41627
501.78758
325.49923
348.81915
369.65682
388.62896
406.20839
422.63706
437.97114
452.13126
464.8879
475.86587
484.53428
490.2597
492.21472
325.50495
349.07704
370.41184
390.12482
408.72466
426.51289
443.59378
459.81078
474.84878
488.66119
501.10815
511.93171
520.56599
)
;
        refGradient     uniform 0;
        valueFraction   nonuniform List<scalar> 
130
(
0.00032132529
0.00032132529
0.00032132529
0.00032132529
0.00032132529
0.00032132529
0.00032132529
0.00032132529
0.00032132529
0.00032132529
0.00032132529
0.00032132529
0.00032132529
0.00032132529
0.00032132529
0.00032132529
0.00032132529
0.00032132529
0.00032132529
0.00032132529
0.00032132529
0.00032132529
0.00032132529
0.00032132529
0.00032132529
0.00032132529
0.00032132529
0.00032132529
0.00032132529
0.00032132529
0.00032132529
0.00032132529
0.00032132529
0.00032132529
0.00032132529
0.00032132529
0.00032132529
0.00032132529
0.00032132529
0.00032132529
0.00032132529
0.00032132529
0.00032132529
0.00032132529
0.00032132529
0.00032132529
0.00032132529
0.00032132529
0.00032132529
0.00032132529
0.00032132529
0.00032132529
0.00032132529
0.00032132529
0.00032132529
0.00032132529
0.00032132529
0.00032132529
0.00032132529
0.00032132529
0.00032132529
0.00032132529
0.00032132529
0.00032132529
0.00032132529
0.00032132529
0.00032132529
0.00032132529
0.00032132529
0.00032132529
0.00032132529
0.00032132529
0.00032132529
0.00032132529
0.00032132529
0.00032132529
0.00032132529
0.00032132529
0.00032132529
0.00032132529
0.00032132529
0.00032132529
0.00032132529
0.00032132529
0.00032132529
0.00032132529
0.00032132529
0.00032132529
0.00032132529
0.00032132529
0.00032132529
0.00032132529
0.00032132529
0.00032132529
0.00032132529
0.00032132529
0.00032132529
0.00032132529
0.00032132529
0.00032132529
0.00032132529
0.00032132529
0.00032132529
0.00032132529
0.00032132529
0.00032132529
0.00032132529
0.00032132529
0.00032132529
0.00032132529
0.00032132529
0.00032132529
0.00032132529
0.00032132529
0.00032132529
0.00032132529
0.00032132529
0.00032132529
0.00032132529
0.00032132529
0.00032132529
0.00032132529
0.00032132529
0.00032132529
0.00032132529
0.00032132529
0.00032132529
0.00032132529
0.00032132529
0.00032132529
)
;
        value           nonuniform List<scalar> 
130
(
928.00843
927.99841
927.96806
927.90976
927.81918
927.69617
927.53396
927.32864
927.0891
926.81748
926.51896
926.20302
925.96168
927.94902
927.94264
927.91446
927.85482
927.76487
927.6423
927.46923
927.24736
926.99064
926.6989
926.37466
926.02797
925.76763
927.87236
927.86439
927.83202
927.76656
927.67576
927.55592
927.36392
927.11805
926.83017
926.50428
926.15516
925.84215
925.63187
927.74936
927.74088
927.70576
927.6415
927.54849
927.41064
927.19954
926.92633
926.59316
926.19911
925.78785
925.44624
925.22428
927.609
927.5933
927.54996
927.47355
927.36231
927.20135
926.96544
926.65837
926.27506
925.80199
925.35402
924.98771
924.74717
927.47445
927.45267
927.39657
927.30024
927.16145
926.97252
926.70514
926.36175
925.93978
925.4941
925.08063
924.67874
924.44331
927.37494
927.34771
927.27787
927.15948
926.98605
926.74713
926.43538
926.06721
925.67646
925.30127
924.94686
924.62132
924.43591
927.32192
927.2895
927.21013
927.07695
926.8838
926.61565
926.28725
925.94957
925.61379
925.2929
924.98853
924.70415
924.53732
927.29313
927.26112
927.17984
927.04458
926.84727
926.58168
926.28009
925.97215
925.66273
925.36802
925.09412
924.84911
924.68206
927.2736
927.24436
927.1683
927.0376
926.83991
926.58196
926.29971
926.01054
925.7105
925.43418
925.18445
924.97061
924.81777
)
;
        Tnbr            T;
        thicknessLayers List<scalar> 0();
        kappaLayers     List<scalar> 0();
        kappaMethod     solidThermo;
        kappa           none;
        alphaAni        none;
        alpha           none;
        field           T;
    }
}


// ************************************************************************* //
