/*--------------------------------*- C++ -*----------------------------------*\
| =========                 |                                                 |
| \\      /  F ield         | OpenFOAM: The Open Source CFD Toolbox           |
|  \\    /   O peration     | Version:  v2012                                 |
|   \\  /    A nd           | Website:  www.openfoam.com                      |
|    \\/     M anipulation  |                                                 |
\*---------------------------------------------------------------------------*/
FoamFile
{
    version     2.0;
    format      ascii;
    class       volScalarField;
    location    "610/bottomWater";
    object      p;
}
// * * * * * * * * * * * * * * * * * * * * * * * * * * * * * * * * * * * * * //

dimensions      [1 -1 -2 0 0 0 0];


internalField   nonuniform List<scalar> 
1460
(
353.44397
353.46569
353.46785
353.4727
353.46533
353.46375
353.47158
353.46371
353.45572
353.46026
353.46261
353.47165
353.4749
353.46056
353.46617
353.44578
353.45636
353.44881
353.46805
353.45445
353.44777
353.4499
353.45032
353.44818
353.45499
353.45447
353.44672
353.47306
353.46939
353.46854
274.45156
274.45691
274.43022
274.4026
274.40995
274.42191
274.46776
274.45384
274.43692
274.40697
274.39759
274.45658
274.49258
274.49217
274.46816
274.43275
274.41859
274.4393
274.46468
274.45024
274.43604
274.43589
274.43468
274.41118
274.41175
274.41057
274.42432
274.48179
274.45765
274.42782
196.27702
196.2594
196.25275
196.29366
196.29834
196.27082
196.26272
196.27042
196.29224
196.31236
196.28653
196.24695
196.27301
196.2727
196.2669
196.29443
196.28927
196.28226
196.25763
196.28761
196.28169
196.29429
196.27564
196.29957
196.32238
196.28874
196.27332
196.24043
196.2714
196.28903
117.67104
117.66904
117.61672
117.68349
117.68072
117.62232
117.65198
117.65996
117.6409
117.68019
117.67203
117.64773
117.67597
117.68255
117.68356
117.66383
117.69401
117.63739
117.67409
117.65762
117.65024
117.65112
117.64515
117.68136
117.67744
117.67269
117.63132
117.64635
117.65332
117.66224
39.249347
39.237303
39.262221
39.270731
39.271788
39.268341
39.252437
39.238906
39.272136
39.256237
39.250201
39.237558
39.228871
39.223427
39.222564
39.223436
39.232571
39.247584
39.245516
39.232366
39.253479
39.268569
39.253525
39.249269
39.261875
39.25018
39.253344
39.245487
39.225309
39.242022
353.45125
353.44237
353.47119
353.46254
353.45978
353.46005
353.45318
353.45579
353.45743
353.45655
353.45608
353.46907
353.46493
353.46356
353.46773
353.44631
353.4528
353.45294
353.45198
353.45477
353.44542
353.45175
353.47226
353.44731
353.45781
353.45859
353.44908
353.46925
353.46793
353.47118
274.42527
274.42945
274.45107
274.41056
274.40597
274.40336
274.42156
274.41347
274.45255
274.40782
274.42189
274.46519
274.4881
274.50393
274.48159
274.43085
274.42548
274.44211
274.42428
274.41459
274.42328
274.45466
274.47474
274.40876
274.40757
274.41234
274.42284
274.44719
274.42664
274.40405
196.29514
196.2749
196.24079
196.28611
196.30445
196.31361
196.2928
196.30572
196.29908
196.29069
196.2686
196.26187
196.27487
196.26064
196.24358
196.25374
196.29172
196.29896
196.30241
196.30098
196.29526
196.2493
196.22777
196.25446
196.28569
196.29142
196.28742
196.26972
196.26787
196.29647
117.68316
117.64816
117.65091
117.64666
117.67038
117.66509
117.61874
117.67574
117.62702
117.67481
117.62982
117.66984
117.67707
117.6494
117.64164
117.62266
117.6502
117.62105
117.62503
117.66359
117.66602
117.65355
117.65544
117.65927
117.68409
117.66997
117.64802
117.66409
117.62811
117.6679
39.237106
39.243292
39.264494
39.271621
39.267053
39.253884
39.25972
39.229284
39.261501
39.227298
39.233296
39.214732
39.217617
39.217738
39.229512
39.241868
39.245636
39.287349
39.264575
39.247546
39.234261
39.259799
39.250526
39.235162
39.247661
39.235171
39.238688
39.22073
39.234381
39.239462
353.45088
353.45264
353.43594
353.47224
353.46056
353.46625
353.4627
353.45019
353.45363
353.46242
353.45933
353.46618
353.46719
353.45839
353.45103
353.45339
353.45632
353.46206
353.46014
353.46175
353.44656
353.46683
353.48086
353.45303
353.45758
353.45561
353.45786
353.44942
353.46644
353.46177
274.42391
274.4231
274.42541
274.45599
274.40717
274.42259
274.44293
274.41561
274.40762
274.40094
274.39786
274.43199
274.46253
274.46413
274.42903
274.41673
274.4254
274.43945
274.4039
274.41128
274.41783
274.47622
274.49233
274.41504
274.4157
274.41608
274.41464
274.41416
274.4222
274.3997
196.32703
196.28754
196.27327
196.24314
196.3064
196.31486
196.29657
196.30334
196.27826
196.31676
196.2828
196.2517
196.25886
196.24129
196.26534
196.27049
196.33368
196.26205
196.31453
196.29063
196.26616
196.2571
196.24024
196.26528
196.27963
196.3185
196.30576
196.29829
196.27785
196.31214
117.69204
117.66624
117.63159
117.64423
117.64765
117.62917
117.65646
117.65872
117.6711
117.67696
117.67458
117.6445
117.66416
117.64784
117.63872
117.66934
117.63845
117.64701
117.68623
117.68317
117.65186
117.66672
117.65924
117.65071
117.66
117.66519
117.66658
117.62979
117.62013
117.65863
39.241325
39.229834
39.242402
39.262642
39.257575
39.242511
39.225064
39.232154
39.238202
39.260896
39.250962
39.252838
39.226128
39.240145
39.261495
39.245395
39.281145
39.243743
39.269182
39.256898
39.256107
39.237758
39.258946
39.257763
39.233886
39.232587
39.226223
39.237121
39.25191
39.246905
353.45265
353.45105
353.4431
353.45742
353.44924
353.44572
353.44846
353.47603
353.46058
353.45955
353.45947
353.47138
353.44062
353.45102
353.45032
353.4548
353.45032
353.45973
353.45085
353.46562
353.44265
353.46914
353.46342
353.46323
353.45067
353.46979
353.44462
353.47938
353.47323
353.47752
274.42138
274.41764
274.42791
274.46795
274.4697
274.44718
274.45182
274.48051
274.45685
274.42518
274.40746
274.469
274.4289
274.43059
274.41621
274.41171
274.4282
274.42114
274.40748
274.40707
274.41872
274.45811
274.45283
274.40965
274.43083
274.43809
274.42875
274.46181
274.43482
274.39491
196.32016
196.28746
196.2688
196.25469
196.26925
196.31736
196.28473
196.239
196.25293
196.26144
196.29546
196.22335
196.29921
196.25759
196.30772
196.30994
196.34094
196.29856
196.32025
196.31098
196.26597
196.23999
196.24371
196.2679
196.30395
196.28209
196.27605
196.23763
196.25597
196.29062
117.71292
117.69407
117.66663
117.65989
117.67305
117.667
117.65486
117.65755
117.65701
117.65615
117.67057
117.6471
117.66894
117.65268
117.66206
117.66401
117.62842
117.62671
117.66479
117.69363
117.64453
117.66927
117.65992
117.6755
117.66083
117.67252
117.62603
117.63877
117.61611
117.66972
39.242542
39.233301
39.227378
39.228042
39.229592
39.210809
39.25285
39.235162
39.230405
39.235099
39.245541
39.246331
39.23372
39.24696
39.255711
39.26187
39.312132
39.2836
39.255564
39.26209
39.252558
39.240839
39.248193
39.228423
39.230634
39.222799
39.218544
39.245872
39.259316
39.256478
353.45446
353.44777
353.44374
353.4643
353.45744
353.47062
353.46289
353.47621
353.46786
353.45673
353.45742
353.45933
353.45158
353.46501
353.45609
353.46742
353.44769
353.47462
353.47299
353.47364
353.4704
353.46824
353.4683
353.49678
353.48217
353.48446
274.41965
274.41068
274.42641
274.4757
274.48281
274.47403
274.46041
274.49994
274.46319
274.4053
274.40644
274.43957
274.43079
274.46431
274.4277
274.40884
274.4395
274.43514
274.3981
274.41233
274.4368
274.44949
274.45637
274.47777
274.40789
274.39758
196.31117
196.26184
196.24732
196.24298
196.26488
196.25837
196.26567
196.2412
196.23866
196.26569
196.29747
196.26635
196.29734
196.23833
196.2592
196.25862
196.27305
196.25869
196.29095
196.29731
196.26596
196.29505
196.25356
196.24473
196.26055
196.29587
117.68053
117.65888
117.64681
117.66149
117.67855
117.68463
117.6595
117.65047
117.64805
117.64944
117.66785
117.63454
117.67237
117.66148
117.64797
117.69031
117.63427
117.67283
117.69273
117.66172
117.67814
117.65553
117.61995
117.63064
117.58267
117.67244
39.257279
39.247564
39.241655
39.226807
39.220071
39.221675
39.219345
39.244561
39.247143
39.242024
39.253584
39.255463
39.24538
39.22685
39.23521
39.240555
39.240487
39.215405
39.228376
39.225272
39.223786
39.215488
39.219493
39.254302
39.261875
39.269221
353.45996
353.45203
353.46464
353.46924
353.45547
353.4498
353.45033
353.45433
353.45576
353.45681
353.45948
353.45412
353.4567
353.47747
353.46529
353.46498
353.47729
353.47466
353.47248
353.46809
353.47333
353.48088
353.47742
353.49615
353.48058
353.48419
274.42
274.41617
274.47285
274.50859
274.45456
274.42811
274.43257
274.43303
274.42376
274.39628
274.40512
274.41552
274.44462
274.47059
274.41874
274.42192
274.43719
274.4157
274.39241
274.41571
274.4504
274.46952
274.46043
274.41932
274.38604
274.39177
196.29232
196.24705
196.23423
196.23727
196.2529
196.29474
196.29043
196.29375
196.2804
196.294
196.31782
196.27705
196.26698
196.27741
196.29398
196.30983
196.26782
196.30272
196.2733
196.27138
196.24918
196.25945
196.26054
196.24086
196.26059
196.31618
117.68218
117.6382
117.65469
117.65559
117.66653
117.65818
117.63488
117.63529
117.6355
117.66222
117.68123
117.64873
117.66847
117.67982
117.66539
117.66728
117.65624
117.62866
117.68218
117.62103
117.65117
117.67198
117.65235
117.62418
117.62663
117.67506
39.263008
39.256115
39.248005
39.240832
39.233681
39.225331
39.237148
39.273445
39.271779
39.252483
39.27226
39.260248
39.255598
39.223602
39.219873
39.227496
39.228799
39.250504
39.255628
39.251778
39.233127
39.226866
39.227218
39.241553
39.250992
39.268716
353.4598
353.45061
353.4741
353.45542
353.44955
353.45738
353.45036
353.46861
353.45523
353.45986
353.46472
353.46186
353.45984
353.4644
353.47789
353.4708
353.48027
353.47081
353.47313
353.47879
353.46831
353.47935
353.47417
353.46921
353.48639
353.47433
353.48347
353.48817
353.48249
353.48601
274.41998
274.42461
274.4877
274.45543
274.41756
274.41488
274.41666
274.45435
274.42353
274.39942
274.40157
274.40539
274.41125
274.433
274.48183
274.46985
274.47825
274.4333
274.45884
274.44851
274.40786
274.39411
274.38888
274.40474
274.45943
274.46905
274.47157
274.4466
274.40599
274.39182
196.28226
196.24263
196.23303
196.24486
196.27279
196.29026
196.30169
196.25741
196.27666
196.2856
196.31603
196.28604
196.26546
196.2454
196.22519
196.26583
196.2703
196.28475
196.26946
196.24222
196.25772
196.28331
196.2828
196.25537
196.24019
196.27824
196.25808
196.24412
196.2432
196.28592
117.68423
117.63488
117.66512
117.65893
117.67243
117.70767
117.66996
117.65415
117.64783
117.67552
117.68981
117.6783
117.65452
117.64543
117.63832
117.6705
117.67617
117.64424
117.6345
117.6475
117.61288
117.6736
117.675
117.62309
117.63722
117.65036
117.662
117.64015
117.58826
117.67041
39.262067
39.259009
39.255722
39.240341
39.228758
39.249051
39.230515
39.260486
39.268479
39.260972
39.280342
39.264065
39.252335
39.251904
39.245512
39.226182
39.233025
39.235867
39.261068
39.254334
39.256525
39.256995
39.264435
39.263144
39.250041
39.23478
39.223999
39.231405
39.249693
39.259486
353.45407
353.45035
353.46074
353.4502
353.46051
353.44483
353.46395
353.46237
353.45522
353.45897
353.45851
353.45647
353.46021
353.46214
353.46256
353.46399
353.47177
353.48739
353.46693
353.47659
353.47519
353.47806
353.47621
353.47256
353.47667
353.48829
353.48818
353.49201
353.48616
353.48944
274.41595
274.43238
274.45424
274.4115
274.41096
274.45236
274.45554
274.43963
274.41275
274.40322
274.4173
274.42118
274.40166
274.40329
274.42999
274.42015
274.45003
274.45823
274.4131
274.39629
274.38762
274.38791
274.3884
274.38374
274.40219
274.4589
274.46338
274.43742
274.39619
274.38695
196.28226
196.26083
196.237
196.28189
196.30308
196.3066
196.2704
196.25703
196.29052
196.29909
196.30083
196.29143
196.29316
196.28928
196.26041
196.30611
196.26415
196.23088
196.27618
196.28507
196.30449
196.33013
196.32752
196.27849
196.25944
196.23021
196.26654
196.2468
196.25516
196.30368
117.68385
117.64904
117.66205
117.6708
117.71191
117.6794
117.67253
117.64582
117.66316
117.6706
117.63307
117.62771
117.66262
117.67058
117.63475
117.66853
117.65732
117.65232
117.64819
117.66248
117.68003
117.68834
117.68367
117.66199
117.63708
117.6503
117.65593
117.65108
117.60634
117.67829
39.256126
39.26078
39.246833
39.2299
39.245619
39.232962
39.221294
39.247949
39.24916
39.256733
39.288726
39.274086
39.243375
39.238216
39.245588
39.223446
39.23482
39.248712
39.253363
39.255244
39.264709
39.275056
39.275362
39.263516
39.256602
39.250247
39.22344
39.246845
39.259885
39.270125
353.46718
353.47126
353.47176
353.45528
353.4541
353.45454
353.45491
353.45853
353.4558
353.45009
353.46532
353.46982
353.4679
353.46376
353.46289
353.4653
353.46923
353.46791
353.46525
353.46632
353.46345
353.47502
353.47479
353.48122
353.47724
353.47562
353.46764
353.49511
353.48627
353.48968
274.42245
274.46386
274.46296
274.41927
274.41263
274.41634
274.41578
274.40682
274.41415
274.41468
274.45301
274.47752
274.45063
274.42751
274.41351
274.39571
274.39563
274.39174
274.39257
274.40468
274.40712
274.41905
274.39198
274.384
274.38162
274.41606
274.40266
274.43433
274.4045
274.38669
196.27728
196.22493
196.25701
196.30747
196.29886
196.32247
196.32443
196.31334
196.29372
196.26832
196.2466
196.24506
196.26097
196.29235
196.26855
196.30034
196.30998
196.31676
196.29798
196.31603
196.29044
196.2668
196.31269
196.3176
196.29426
196.26204
196.29885
196.2538
196.25814
196.28596
117.65861
117.64285
117.67278
117.66866
117.66152
117.64452
117.62619
117.66272
117.67844
117.65606
117.65485
117.65283
117.66863
117.66211
117.64877
117.66472
117.65218
117.64964
117.66947
117.65231
117.63805
117.63486
117.64775
117.67512
117.65109
117.61313
117.63944
117.64254
117.58307
117.66956
39.235298
39.231081
39.224859
39.225612
39.232536
39.247338
39.273758
39.253598
39.249519
39.235222
39.243043
39.230558
39.222747
39.225935
39.231867
39.243963
39.262677
39.27211
39.256428
39.23862
39.253016
39.269747
39.261732
39.279489
39.254009
39.25778
39.228806
39.238032
39.251393
39.257674
353.45525
353.45355
353.45388
353.46612
353.45517
353.46621
353.45417
353.45911
353.45377
353.4543
353.46165
353.46422
353.47011
353.46665
353.47036
353.46685
353.47076
353.47424
353.46582
353.48021
353.47995
353.48301
353.47809
353.47796
353.4778
353.48028
353.48432
353.49259
353.49171
353.49072
274.4155
274.43538
274.44041
274.46511
274.46545
274.47356
274.42575
274.41567
274.42054
274.44189
274.48431
274.49248
274.48974
274.4671
274.46189
274.4216
274.39873
274.40346
274.42486
274.45012
274.46615
274.46913
274.43827
274.3946
274.41877
274.44679
274.47072
274.46506
274.42902
274.39813
196.30592
196.26033
196.28773
196.261
196.26944
196.25621
196.29717
196.30177
196.28158
196.25828
196.26018
196.27318
196.26913
196.2722
196.25347
196.26242
196.28421
196.29306
196.27381
196.26899
196.2684
196.26451
196.28325
196.26706
196.28374
196.23254
196.26675
196.263
196.23787
196.27892
117.67533
117.62637
117.6632
117.66381
117.65584
117.65171
117.65574
117.66928
117.66204
117.6463
117.65928
117.67336
117.69069
117.64992
117.63541
117.62656
117.67426
117.68658
117.61529
117.6662
117.67342
117.67726
117.6523
117.67665
117.63185
117.63478
117.66862
117.68343
117.61711
117.65812
39.258787
39.259623
39.241705
39.223223
39.238416
39.259316
39.255999
39.263194
39.256458
39.255603
39.244648
39.229791
39.235104
39.221959
39.239667
39.260201
39.260743
39.273565
39.265835
39.244426
39.24279
39.249749
39.246444
39.248603
39.255317
39.243591
39.222831
39.229893
39.23016
39.236301
)
;

boundaryField
{
    minX
    {
        type            calculated;
        value           nonuniform List<scalar> 
50
(
353.44397
274.45156
196.27702
117.67104
39.249347
353.45125
274.42527
196.29514
117.68316
39.237106
353.45088
274.42391
196.32703
117.69204
39.241325
353.45265
274.42138
196.32016
117.71292
39.242542
353.45446
274.41965
196.31117
117.68053
39.257279
353.45996
274.42
196.29232
117.68218
39.263008
353.4598
274.41998
196.28226
117.68423
39.262067
353.45407
274.41595
196.28226
117.68385
39.256126
353.46718
274.42245
196.27728
117.65861
39.235298
353.45525
274.4155
196.30592
117.67533
39.258787
)
;
    }
    maxX
    {
        type            calculated;
        value           nonuniform List<scalar> 
50
(
353.46854
274.42782
196.28903
117.66224
39.242022
353.47118
274.40405
196.29647
117.6679
39.239462
353.46177
274.3997
196.31214
117.65863
39.246905
353.47752
274.39491
196.29062
117.66972
39.256478
353.48446
274.39758
196.29587
117.67244
39.269221
353.48419
274.39177
196.31618
117.67506
39.268716
353.48601
274.39182
196.28592
117.67041
39.259486
353.48944
274.38695
196.30368
117.67829
39.270125
353.48968
274.38669
196.28596
117.66956
39.257674
353.49072
274.39813
196.27892
117.65812
39.236301
)
;
    }
    minY
    {
        type            calculated;
        value           nonuniform List<scalar> 
292
(
392.4
392.4
392.4
392.4
392.4
392.4
392.4
392.4
392.4
392.4
392.4
392.4
392.4
392.4
392.4
392.4
392.4
392.4
392.4
392.4
392.4
392.4
392.4
392.4
392.4
392.4
392.4
392.4
392.4
392.4
392.4
392.4
392.4
392.4
392.4
392.4
392.4
392.4
392.4
392.4
392.4
392.4
392.4
392.4
392.4
392.4
392.4
392.4
392.4
392.4
392.4
392.4
392.4
392.4
392.4
392.4
392.4
392.4
392.4
392.4
392.4
392.4
392.4
392.4
392.4
392.4
392.4
392.4
392.4
392.4
392.4
392.4
392.4
392.4
392.4
392.4
392.4
392.4
392.4
392.4
392.4
392.4
392.4
392.4
392.4
392.4
392.4
392.4
392.4
392.4
392.4
392.4
392.4
392.4
392.4
392.4
392.4
392.4
392.4
392.4
392.4
392.4
392.4
392.4
392.4
392.4
392.4
392.4
392.4
392.4
392.4
392.4
392.4
392.4
392.4
392.4
392.4
392.4
392.4
392.4
392.4
392.4
392.4
392.4
392.4
392.4
392.4
392.4
392.4
392.4
392.4
392.4
392.4
392.4
392.4
392.4
392.4
392.4
392.4
392.4
392.4
392.4
392.4
392.4
392.4
392.4
392.4
392.4
392.4
392.4
392.4
392.4
392.4
392.4
392.4
392.4
392.4
392.4
392.4
392.4
392.4
392.4
392.4
392.4
392.4
392.4
392.4
392.4
392.4
392.4
392.4
392.4
392.4
392.4
392.4
392.4
392.4
392.4
392.4
392.4
392.4
392.4
392.4
392.4
392.4
392.4
392.4
392.4
392.4
392.4
392.4
392.4
392.4
392.4
392.4
392.4
392.4
392.4
392.4
392.4
392.4
392.4
392.4
392.4
392.4
392.4
392.4
392.4
392.4
392.4
392.4
392.4
392.4
392.4
392.4
392.4
392.4
392.4
392.4
392.4
392.4
392.4
392.4
392.4
392.4
392.4
392.4
392.4
392.4
392.4
392.4
392.4
392.4
392.4
392.4
392.4
392.4
392.4
392.4
392.4
392.4
392.4
392.4
392.4
392.4
392.4
392.4
392.4
392.4
392.4
392.4
392.4
392.4
392.4
392.4
392.4
392.4
392.4
392.4
392.4
392.4
392.4
392.4
392.4
392.4
392.4
392.4
392.4
392.4
392.4
392.4
392.4
392.4
392.4
392.4
392.4
392.4
392.4
392.4
392.4
392.4
392.4
392.4
392.4
392.4
392.4
392.4
392.4
392.4
392.4
392.4
392.4
)
;
    }
    minZ
    {
        type            calculated;
        value           nonuniform List<scalar> 
150
(
353.44397
274.45156
196.27702
117.67104
39.249347
353.46569
274.45691
196.2594
117.66904
39.237303
353.46785
274.43022
196.25275
117.61672
39.262221
353.4727
274.4026
196.29366
117.68349
39.270731
353.46533
274.40995
196.29834
117.68072
39.271788
353.46375
274.42191
196.27082
117.62232
39.268341
353.47158
274.46776
196.26272
117.65198
39.252437
353.46371
274.45384
196.27042
117.65996
39.238906
353.45572
274.43692
196.29224
117.6409
39.272136
353.46026
274.40697
196.31236
117.68019
39.256237
353.46261
274.39759
196.28653
117.67203
39.250201
353.47165
274.45658
196.24695
117.64773
39.237558
353.4749
274.49258
196.27301
117.67597
39.228871
353.46056
274.49217
196.2727
117.68255
39.223427
353.46617
274.46816
196.2669
117.68356
39.222564
353.44578
274.43275
196.29443
117.66383
39.223436
353.45636
274.41859
196.28927
117.69401
39.232571
353.44881
274.4393
196.28226
117.63739
39.247584
353.46805
274.46468
196.25763
117.67409
39.245516
353.45445
274.45024
196.28761
117.65762
39.232366
353.44777
274.43604
196.28169
117.65024
39.253479
353.4499
274.43589
196.29429
117.65112
39.268569
353.45032
274.43468
196.27564
117.64515
39.253525
353.44818
274.41118
196.29957
117.68136
39.249269
353.45499
274.41175
196.32238
117.67744
39.261875
353.45447
274.41057
196.28874
117.67269
39.25018
353.44672
274.42432
196.27332
117.63132
39.253344
353.47306
274.48179
196.24043
117.64635
39.245487
353.46939
274.45765
196.2714
117.65332
39.225309
353.46854
274.42782
196.28903
117.66224
39.242022
)
;
    }
    maxZ
    {
        type            calculated;
        value           nonuniform List<scalar> 
150
(
353.45525
274.4155
196.30592
117.67533
39.258787
353.45355
274.43538
196.26033
117.62637
39.259623
353.45388
274.44041
196.28773
117.6632
39.241705
353.46612
274.46511
196.261
117.66381
39.223223
353.45517
274.46545
196.26944
117.65584
39.238416
353.46621
274.47356
196.25621
117.65171
39.259316
353.45417
274.42575
196.29717
117.65574
39.255999
353.45911
274.41567
196.30177
117.66928
39.263194
353.45377
274.42054
196.28158
117.66204
39.256458
353.4543
274.44189
196.25828
117.6463
39.255603
353.46165
274.48431
196.26018
117.65928
39.244648
353.46422
274.49248
196.27318
117.67336
39.229791
353.47011
274.48974
196.26913
117.69069
39.235104
353.46665
274.4671
196.2722
117.64992
39.221959
353.47036
274.46189
196.25347
117.63541
39.239667
353.46685
274.4216
196.26242
117.62656
39.260201
353.47076
274.39873
196.28421
117.67426
39.260743
353.47424
274.40346
196.29306
117.68658
39.273565
353.46582
274.42486
196.27381
117.61529
39.265835
353.48021
274.45012
196.26899
117.6662
39.244426
353.47995
274.46615
196.2684
117.67342
39.24279
353.48301
274.46913
196.26451
117.67726
39.249749
353.47809
274.43827
196.28325
117.6523
39.246444
353.47796
274.3946
196.26706
117.67665
39.248603
353.4778
274.41877
196.28374
117.63185
39.255317
353.48028
274.44679
196.23254
117.63478
39.243591
353.48432
274.47072
196.26675
117.66862
39.222831
353.49259
274.46506
196.263
117.68343
39.229893
353.49171
274.42902
196.23787
117.61711
39.23016
353.49072
274.39813
196.27892
117.65812
39.236301
)
;
    }
    bottomWater_to_rightSolid
    {
        type            calculated;
        value           nonuniform List<scalar> 
130
(
0.0075839428
0.0055161569
-0.0076335517
0.013479204
0.028569101
0.013525372
0.009269388
0.021874622
0.010179683
0.013343722
0.0054871563
-0.014690757
0.0020220052
0.047348845
0.024574632
0.0075462672
-0.005738853
0.01979908
0.010525737
-0.004838279
0.0076609282
-0.0048288471
-0.0013122531
-0.019269963
-0.0056192434
-0.00053794444
0.0037425656
0.029181802
0.016898368
0.016107037
-0.0022423198
0.018945838
0.017762935
-0.0061144303
-0.007412809
-0.013776577
-0.0028786483
0.011909889
0.0069049244
0.043599955
0.015563866
0.02209037
0.012558029
0.00083852662
0.0081928751
-0.01157747
-0.0093657105
-0.017201314
-0.021456277
0.005871602
0.019315574
0.016477884
-0.013149743
-0.0047898492
0.00055488738
0.00048683406
-0.02459525
-0.011624312
-0.014728108
-0.016213858
-0.024512289
-0.020506576
0.014301848
0.021875215
0.029220978
-0.016398285
-0.02012684
-0.012503904
-0.011200941
0.010503929
0.015627854
0.011777628
-0.0068731146
-0.013133987
-0.012781678
0.0015532638
0.010991938
0.028716168
-0.0041332938
0.021067977
0.014333926
0.016524676
0.016994918
0.024434842
0.02314433
0.01004146
-0.0052201214
-0.016000837
-0.008595329
0.0096932755
0.019485808
0.0087119084
0.013362695
0.015244067
0.024708517
0.035055691
0.035361521
0.023516444
0.016602368
0.010246961
-0.016559962
0.0068446552
0.019885151
0.030125448
0.032109707
0.016428075
-0.0013801025
0.013015592
0.029746665
0.021732376
0.039488691
0.014008631
0.017779524
-0.011194068
-0.0019679956
0.01139339
0.017674062
0.033564825
0.025834544
0.0044260165
0.0027897226
0.0097493143
0.0064441532
0.0086032154
0.015317375
0.0035909671
-0.017169163
-0.010106802
-0.0098403606
-0.0036991269
)
;
    }
    bottomWater_to_leftSolid
    {
        type            calculated;
        value           nonuniform List<scalar> 
130
(
0.0093466111
-0.0026969173
0.022221081
0.030730592
0.031788444
0.028341165
0.012437008
-0.0010943086
0.032136352
0.016236901
0.010201195
-0.0024423114
-0.011129013
-0.0028939996
0.0032918167
0.024494494
0.031620736
0.027053422
0.013884422
0.019719854
-0.010715563
0.021501414
-0.012701813
-0.0067035607
-0.025267596
-0.022382889
0.0013246682
-0.010166431
0.0024021289
0.022642262
0.017574773
0.0025105873
-0.014936193
-0.0078461746
-0.0017984051
0.020896116
0.010961997
0.012837592
-0.013871947
0.0025416246
-0.0066985187
-0.012621617
-0.011957738
-0.010407657
-0.029190577
0.012849829
-0.0048382267
-0.0095950542
-0.00490149
0.005541333
0.0063309768
-0.0062801567
0.017278681
0.0075640104
0.0016547272
-0.013192518
-0.019928997
-0.018325419
-0.020655494
0.0045607605
0.007142912
0.0020242847
0.013583657
0.015463295
0.0053797151
0.023007832
0.016114655
0.0080053646
0.00083153357
-0.0063186556
-0.014669452
-0.0028520385
0.033444968
0.031779349
0.012482938
0.032260461
0.020248214
0.015598483
0.022067149
0.019008658
0.015721723
0.00034148039
-0.011241742
0.0090511399
-0.0094850845
0.020486193
0.028478887
0.02097176
0.040342009
0.024065438
0.012335227
0.016125616
0.020780106
0.0068331038
-0.010099753
0.0056188541
-0.0070378899
-0.018706474
0.0079490874
0.0091604094
0.016732613
0.048725781
0.03408595
0.0033753065
-0.0047023971
-0.0089194844
-0.015140593
-0.014387577
-0.0074636893
0.0073379596
0.033757898
0.013597565
0.0095186842
-0.0047776338
0.0030425038
-0.0094419406
-0.017252697
0.018786726
0.019623329
0.0017051979
-0.016776561
-0.0015836012
0.019315839
0.015998567
0.023193544
0.016457759
0.015602989
0.0046479685
-0.010208776
-0.0048958282
)
;
    }
    bottomWater_to_heater
    {
        type            calculated;
        value           nonuniform List<scalar> 
92
(
-0.016572825
-0.017435977
-0.016564234
-0.0074288716
-0.022262145
-0.010488109
0.0018677398
0.0056361288
0.00014506018
0.021494887
0.005394607
0.041144824
353.45102
353.45032
353.4548
353.45032
274.43059
274.41621
274.41171
274.4282
196.25759
196.30772
196.30994
196.34094
117.65268
117.66206
117.66401
117.62842
0.0069599783
39.24696
0.01571114
39.255711
0.021870456
39.26187
0.072132351
39.312132
353.45158
353.46501
274.43079
274.46431
196.29734
196.23833
117.67237
117.66148
39.24538
39.22685
353.4567
353.4644
353.47789
353.4708
353.47747
353.48027
274.44462
274.433
274.48183
274.46985
274.47059
274.47825
196.26698
196.2454
196.22519
196.26583
196.27741
196.2703
117.66847
117.64543
117.63832
117.6705
117.67982
117.67617
39.255598
39.251904
39.245512
39.226182
39.223602
39.233025
0.011904262
0.005512463
-0.01381845
-0.0069751557
-0.0017840905
0.0055878408
-0.016554137
-0.0051796743
-0.014064668
-0.0081333611
0.0039628555
0.022677168
-0.018040525
-0.00033264452
0.020200904
0.020742824
)
;
    }
}


// ************************************************************************* //
