/*--------------------------------*- C++ -*----------------------------------*\
| =========                 |                                                 |
| \\      /  F ield         | OpenFOAM: The Open Source CFD Toolbox           |
|  \\    /   O peration     | Version:  v2012                                 |
|   \\  /    A nd           | Website:  www.openfoam.com                      |
|    \\/     M anipulation  |                                                 |
\*---------------------------------------------------------------------------*/
FoamFile
{
    version     2.0;
    format      ascii;
    class       volScalarField;
    location    "610/bottomWater";
    object      p_rgh;
}
// * * * * * * * * * * * * * * * * * * * * * * * * * * * * * * * * * * * * * //

dimensions      [1 -1 -2 0 0 0 0];


internalField   nonuniform List<scalar> 
1460
(
0.28396584
0.30569318
0.30785284
0.31270256
0.30533124
0.30374779
0.31157665
0.30371451
0.29571934
0.30026075
0.30260883
0.31165194
0.31489648
0.30056377
0.30617203
0.28577764
0.29635971
0.28880887
0.30805208
0.2944517
0.28776952
0.289903
0.29031863
0.2881786
0.29498632
0.29446783
0.28672204
0.31305615
0.30938871
0.30853844
-0.22843646
-0.22309077
-0.24977781
-0.27740192
-0.27004743
-0.2580909
-0.21223605
-0.22616297
-0.24307585
-0.27303313
-0.28240744
-0.22341753
-0.1874167
-0.18783428
-0.21184307
-0.24725027
-0.2614098
-0.24069633
-0.21531512
-0.22976242
-0.24395538
-0.24411167
-0.24531822
-0.26881895
-0.26824867
-0.2694316
-0.25568128
-0.19820954
-0.22235283
-0.25218093
0.077022639
0.059396495
0.052745312
0.093656195
0.09834149
0.070816938
0.062715557
0.070419523
0.092237238
0.11235537
0.086525019
0.046948288
0.073011508
0.072701834
0.066900018
0.094433768
0.089266527
0.082255044
0.057626465
0.087605228
0.081690833
0.094287725
0.075639356
0.099571946
0.1223842
0.088737787
0.073324952
0.040430272
0.071403729
0.089030164
-0.048957984
-0.050958733
-0.10327528
-0.036510568
-0.039276892
-0.09768034
-0.068015168
-0.060037861
-0.079099802
-0.039813469
-0.04796791
-0.072265488
-0.044032911
-0.037447761
-0.036435543
-0.056167853
-0.025988071
-0.082612923
-0.045906092
-0.062381711
-0.069762761
-0.06887619
-0.074850538
-0.038642102
-0.042564387
-0.047310341
-0.088681171
-0.073645192
-0.06668
-0.057764387
0.0093466111
-0.0026969173
0.022221081
0.030730592
0.031788444
0.028341165
0.012437008
-0.0010943086
0.032136352
0.016236901
0.010201195
-0.0024423114
-0.011129013
-0.016572825
-0.017435977
-0.016564234
-0.0074288716
0.0075839428
0.0055161569
-0.0076335517
0.013479204
0.028569101
0.013525372
0.009269388
0.021874622
0.010179683
0.013343722
0.0054871563
-0.014690757
0.0020220052
0.29125357
0.2823701
0.31119472
0.30253872
0.29977843
0.30005049
0.29318181
0.29578896
0.29743477
0.29654844
0.29607884
0.30906838
0.30492571
0.30355789
0.30772747
0.28631009
0.29280454
0.29293768
0.29197805
0.29477247
0.28542039
0.29174554
0.31226198
0.28730928
0.29781245
0.29858607
0.28908466
0.30924646
0.30793183
0.31118295
-0.25472628
-0.25054941
-0.22893046
-0.26943724
-0.27403006
-0.27663526
-0.25843569
-0.2665314
-0.2274499
-0.27217735
-0.2581129
-0.21480813
-0.19189737
-0.1760703
-0.19841474
-0.24914934
-0.25451979
-0.23789051
-0.25571644
-0.26540851
-0.25672045
-0.22533679
-0.20526496
-0.27123646
-0.27242762
-0.26765768
-0.25715622
-0.23280856
-0.25335705
-0.27595013
0.095142398
0.074897851
0.040792519
0.086111099
0.10444767
0.11360518
0.092801622
0.1057158
0.099080568
0.090685426
0.068598215
0.061873022
0.074868277
0.06063726
0.043582719
0.053736169
0.091723021
0.098956713
0.10240747
0.1009843
0.095259971
0.049303739
0.027772109
0.054458862
0.085689178
0.091421567
0.087419993
0.06972455
0.067873193
0.096466422
-0.036838192
-0.071839274
-0.069092707
-0.073342101
-0.049617244
-0.054905569
-0.1012564
-0.04425931
-0.092978796
-0.045187672
-0.090178435
-0.050162548
-0.042933319
-0.070602566
-0.078355553
-0.09733933
-0.069803797
-0.098951393
-0.094967577
-0.056408851
-0.05397997
-0.066447602
-0.064564038
-0.060730421
-0.03591025
-0.050025081
-0.071979676
-0.055905496
-0.091888602
-0.0521039
-0.0028939996
0.0032918167
0.024494494
0.031620736
0.027053422
0.013884422
0.019719854
-0.010715563
0.021501414
-0.012701813
-0.0067035607
-0.025267596
-0.022382889
-0.022262145
-0.010488109
0.0018677398
0.0056361288
0.047348845
0.024574632
0.0075462672
-0.005738853
0.01979908
0.010525737
-0.004838279
0.0076609282
-0.0048288471
-0.0013122531
-0.019269963
-0.0056192434
-0.00053794444
0.29088092
0.29263918
0.27594439
0.31223954
0.30055938
0.30625402
0.30270492
0.29018829
0.29362928
0.30241746
0.2993281
0.306176
0.30719379
0.29839435
0.29102808
0.29339283
0.29631927
0.30205671
0.30014486
0.30174748
0.28656396
0.30682902
0.32086334
0.29302948
0.29757569
0.29560741
0.2978648
0.2894191
0.30644324
0.30177386
-0.25608703
-0.25689756
-0.25459431
-0.22400995
-0.27283153
-0.25741128
-0.23706801
-0.26439162
-0.27238224
-0.27906227
-0.28213765
-0.24801028
-0.21747025
-0.21587309
-0.25097444
-0.26326834
-0.25460112
-0.24054597
-0.2760977
-0.26871964
-0.26216558
-0.20378067
-0.18767468
-0.26496393
-0.26430347
-0.26392113
-0.26535601
-0.26584475
-0.25779576
-0.28029742
0.12703366
0.087541882
0.073272456
0.04314014
0.10640449
0.11485706
0.096572128
0.10334164
0.078257405
0.11676215
0.082804892
0.051700973
0.058860966
0.041290767
0.065338673
0.070492205
0.13367781
0.06205182
0.11452862
0.090632666
0.066164458
0.05710173
0.040243422
0.065282985
0.079627753
0.11850128
0.10576408
0.09828777
0.077850933
0.11213997
-0.027958744
-0.053757879
-0.088406995
-0.075767741
-0.072349623
-0.090825636
-0.063544135
-0.061276757
-0.048899508
-0.043039275
-0.045423253
-0.075501269
-0.055835616
-0.072157
-0.081280649
-0.050659592
-0.081554977
-0.072986043
-0.033767422
-0.036833505
-0.068136708
-0.05327981
-0.060756851
-0.069291905
-0.060004171
-0.054813402
-0.053422148
-0.09021247
-0.099872189
-0.061367519
0.0013246682
-0.010166431
0.0024021289
0.022642262
0.017574773
0.0025105873
-0.014936193
-0.0078461746
-0.0017984051
0.020896116
0.010961997
0.012837592
-0.013871947
0.00014506018
0.021494887
0.005394607
0.041144824
0.0037425656
0.029181802
0.016898368
0.016107037
-0.0022423198
0.018945838
0.017762935
-0.0061144303
-0.007412809
-0.013776577
-0.0028786483
0.011909889
0.0069049244
0.29265348
0.29105228
0.28309856
0.29741709
0.28923719
0.28571533
0.28846026
0.31603274
0.30057959
0.29954613
0.29946848
0.31138052
0.28062458
0.29102373
0.29031956
0.29480298
0.29031735
0.29973306
0.29085466
0.30562291
0.28265256
0.30913913
0.30341777
0.30322678
0.29066919
0.30979412
0.28462345
0.3193771
0.31323291
0.31752307
-0.25861897
-0.26235694
-0.25208912
-0.21204625
-0.21030465
-0.23281599
-0.22818473
-0.19949124
-0.22315103
-0.25482457
-0.27253936
-0.21100014
-0.25109523
-0.24941207
-0.26379219
-0.26828818
-0.25180431
-0.25886132
-0.27252117
-0.27293163
-0.26127884
-0.22189229
-0.22716946
-0.27035175
-0.24917123
-0.24190967
-0.25125052
-0.21818741
-0.2451796
-0.28509204
0.12015963
0.087458058
0.068798183
0.054689025
0.069253827
0.11735602
0.084727055
0.038999539
0.052928515
0.061438453
0.095458061
0.023347347
0.099211318
0.057592011
0.10772064
0.10994108
0.14093834
0.098555675
0.12025091
0.11098264
0.065973606
0.039986765
0.043707567
0.067895114
0.10394772
0.082087658
0.076049532
0.037631917
0.055967002
0.090621179
-0.0070768296
-0.025931951
-0.053374872
-0.06010597
-0.04695342
-0.052999304
-0.065144369
-0.062449089
-0.062988862
-0.063847302
-0.049431044
-0.07290183
-0.05106286
-0.067318579
-0.057941587
-0.055994577
-0.091575472
-0.093293918
-0.05520795
-0.026367519
-0.075465169
-0.050734337
-0.06007768
-0.044498363
-0.059169577
-0.047478282
-0.093970013
-0.081233667
-0.10388875
-0.050284673
0.0025416246
-0.0066985187
-0.012621617
-0.011957738
-0.010407657
-0.029190577
0.012849829
-0.0048382267
-0.0095950542
-0.00490149
0.005541333
0.0063309768
-0.0062801567
0.0069599783
0.01571114
0.021870456
0.072132351
0.043599955
0.015563866
0.02209037
0.012558029
0.00083852662
0.0081928751
-0.01157747
-0.0093657105
-0.017201314
-0.021456277
0.005871602
0.019315574
0.016477884
0.29445554
0.28777494
0.28373895
0.30429864
0.29743578
0.31061702
0.30289235
0.31621316
0.30786263
0.29672515
0.29741709
0.29932555
0.2915816
0.30501427
0.29609285
0.30741982
0.28768717
0.3146206
0.31299104
0.31363778
0.31039628
0.3082413
0.3082999
0.33677975
0.32217349
0.32446144
-0.26035044
-0.2693213
-0.25359435
-0.20430012
-0.1971859
-0.20597407
-0.21958817
-0.18006214
-0.21681065
-0.27469783
-0.27356258
-0.24042772
-0.24921189
-0.21569441
-0.25229548
-0.2711555
-0.24049742
-0.2448633
-0.28189622
-0.26766851
-0.24320495
-0.23050742
-0.22363006
-0.20223395
-0.27210639
-0.28242207
0.11116872
0.061839336
0.047320024
0.042977359
0.064875022
0.058365167
0.065670015
0.04119659
0.038659017
0.065689091
0.097466289
0.066351163
0.09733951
0.038328563
0.059195985
0.058619917
0.07305171
0.05869027
0.090947826
0.09730601
0.065964581
0.095052466
0.053555891
0.044733583
0.060554924
0.095867465
-0.039473957
-0.061118745
-0.07318513
-0.058506563
-0.041448956
-0.035371147
-0.060502051
-0.069526364
-0.071954443
-0.070556177
-0.052151565
-0.085456005
-0.047631943
-0.058521052
-0.072029845
-0.029687595
-0.085729875
-0.047173134
-0.027268182
-0.058280973
-0.041857216
-0.064466263
-0.10005403
-0.089357323
-0.1373349
-0.047558059
0.017278681
0.0075640104
0.0016547272
-0.013192518
-0.019928997
-0.018325419
-0.020655494
0.0045607605
0.007142912
0.0020242847
0.013583657
0.015463295
0.0053797151
-0.013149743
-0.0047898492
0.00055488738
0.00048683406
-0.02459525
-0.011624312
-0.014728108
-0.016213858
-0.024512289
-0.020506576
0.014301848
0.021875215
0.029220978
0.29996487
0.29203436
0.30464332
0.30923626
0.29547437
0.28979782
0.29033301
0.29433268
0.29576019
0.29680723
0.29948254
0.29412138
0.29669786
0.31747321
0.30528892
0.30497787
0.31728973
0.3146553
0.31248126
0.30808633
0.31333131
0.32088284
0.31741628
0.33615231
0.32057681
0.32419277
-0.25999758
-0.2638333
-0.20715061
-0.17141297
-0.22544367
-0.25189369
-0.24742795
-0.24696775
-0.25624058
-0.28372214
-0.27487932
-0.26447681
-0.23537871
-0.20940869
-0.26126404
-0.25808152
-0.24281049
-0.26430406
-0.28759492
-0.2642947
-0.22959642
-0.21047571
-0.21956509
-0.26067695
-0.29396079
-0.28822915
0.092318145
0.047045509
0.034228056
0.037273094
0.052902649
0.094743304
0.090433775
0.093749916
0.080399483
0.094004074
0.11781583
0.077054957
0.066975318
0.077414837
0.093975535
0.10983474
0.067816591
0.10272493
0.073298293
0.071382011
0.04918221
0.05944882
0.060535131
0.040862801
0.060586742
0.11618207
-0.037817828
-0.081798395
-0.06530741
-0.064413226
-0.053465555
-0.061821448
-0.085115311
-0.084711976
-0.08450078
-0.057782923
-0.038773206
-0.071267169
-0.051529324
-0.040176403
-0.054606186
-0.052722003
-0.063761341
-0.091343141
-0.03781871
-0.098974945
-0.068827313
-0.048020229
-0.06765415
-0.095821353
-0.093367322
-0.044935126
0.023007832
0.016114655
0.0080053646
0.00083153357
-0.0063186556
-0.014669452
-0.0028520385
0.033444968
0.031779349
0.012482938
0.032260461
0.020248214
0.015598483
-0.016398285
-0.02012684
-0.012503904
-0.011200941
0.010503929
0.015627854
0.011777628
-0.0068731146
-0.013133987
-0.012781678
0.0015532638
0.010991938
0.028716168
0.29980383
0.2906103
0.31410483
0.29542241
0.28955067
0.29738289
0.29035998
0.30861025
0.29522955
0.29985652
0.30472208
0.30186275
0.29984429
0.30440379
0.31789275
0.31080454
0.32026866
0.31080507
0.31313296
0.31878885
0.3083086
0.31934987
0.31417451
0.30921363
0.3263918
0.31433108
0.32347372
0.32816621
0.32248969
0.32601105
-0.26002263
-0.25538909
-0.19229903
-0.22456722
-0.26243797
-0.26512198
-0.26334478
-0.22564606
-0.25647109
-0.28058257
-0.27843487
-0.27460833
-0.26875195
-0.24699936
-0.19816955
-0.21015353
-0.20175119
-0.24670079
-0.22115614
-0.23149056
-0.27213829
-0.28588818
-0.29112265
-0.2752572
-0.22056544
-0.21094778
-0.20843289
-0.23339769
-0.27401459
-0.28818117
0.082259838
0.042632155
0.033025533
0.044856681
0.072791953
0.090264989
0.10169096
0.057408651
0.076658097
0.08559654
0.11602883
0.086042361
0.06545716
0.045401413
0.025186081
0.065825405
0.070298588
0.084754454
0.069457995
0.042217803
0.057717045
0.083307179
0.082798705
0.055365772
0.040185772
0.078239451
0.058077541
0.044124237
0.043196983
0.085915602
-0.03576667
-0.085115618
-0.054881585
-0.061065404
-0.047574962
-0.0123299
-0.050036718
-0.065847952
-0.07217065
-0.044482535
-0.030192971
-0.041703432
-0.065481704
-0.074568024
-0.081675142
-0.049498993
-0.043826835
-0.075764895
-0.085503275
-0.072495315
-0.10711722
-0.046400794
-0.045003715
-0.096914209
-0.082775626
-0.069644359
-0.05800001
-0.07984569
-0.13173649
-0.04959086
0.022067149
0.019008658
0.015721723
0.00034148039
-0.011241742
0.0090511399
-0.0094850845
0.020486193
0.028478887
0.02097176
0.040342009
0.024065438
0.012335227
0.011904262
0.005512463
-0.01381845
-0.0069751557
-0.0041332938
0.021067977
0.014333926
0.016524676
0.016994918
0.024434842
0.02314433
0.01004146
-0.0052201214
-0.016000837
-0.008595329
0.0096932755
0.019485808
0.29406557
0.29034707
0.30073974
0.29020083
0.30051326
0.28482571
0.30394985
0.30236703
0.29522048
0.29897208
0.29850505
0.29646941
0.30020918
0.30214247
0.3025555
0.30399001
0.31177189
0.32738861
0.30693484
0.31658995
0.3151872
0.31805913
0.31620669
0.31256384
0.3166676
0.32829494
0.32818439
0.33200576
0.32616251
0.32944064
-0.26405269
-0.24761728
-0.22575618
-0.26849943
-0.26903939
-0.22763587
-0.22446218
-0.24037339
-0.26724779
-0.27677831
-0.26270196
-0.25882266
-0.27834498
-0.27671345
-0.25001253
-0.25984572
-0.22997045
-0.22176742
-0.26689988
-0.28371354
-0.29238392
-0.29209078
-0.29160194
-0.29625879
-0.27781043
-0.22110452
-0.21661975
-0.24258496
-0.28380507
-0.29305376
0.082259466
0.060826066
0.036997527
0.081892624
0.10307714
0.10659944
0.07040051
0.057033473
0.090521077
0.099092725
0.1008328
0.091429777
0.093158154
0.089276866
0.060409652
0.10610966
0.064150129
0.030876373
0.076183801
0.085068814
0.10448506
0.13013281
0.12752099
0.078490686
0.059435006
0.030212606
0.066538477
0.046800587
0.055157643
0.10368433
-0.036154808
-0.070963471
-0.057949495
-0.049196997
-0.0080922832
-0.040595382
-0.047474476
-0.074182174
-0.056840783
-0.049395132
-0.086932255
-0.092291105
-0.057380036
-0.049423642
-0.085245313
-0.051473195
-0.062684836
-0.067677272
-0.071806496
-0.057524762
-0.039971861
-0.031662811
-0.036333152
-0.058007237
-0.082915606
-0.069697295
-0.064067297
-0.068923363
-0.1136616
-0.041711169
0.016125616
0.020780106
0.0068331038
-0.010099753
0.0056188541
-0.0070378899
-0.018706474
0.0079490874
0.0091604094
0.016732613
0.048725781
0.03408595
0.0033753065
-0.0017840905
0.0055878408
-0.016554137
-0.0051796743
0.0087119084
0.013362695
0.015244067
0.024708517
0.035055691
0.035361521
0.023516444
0.016602368
0.010246961
-0.016559962
0.0068446552
0.019885151
0.030125448
0.30717689
0.3112553
0.31176459
0.29527661
0.2940977
0.29454451
0.29491141
0.2985289
0.295804
0.29008948
0.30532166
0.30982086
0.30790496
0.30375897
0.3028875
0.30529729
0.30923218
0.30790981
0.30524617
0.30631893
0.30345392
0.31502319
0.3147876
0.32122387
0.31724057
0.31561999
0.30763713
0.33511036
0.32627381
0.32968078
-0.2575467
-0.21614198
-0.21704236
-0.26072566
-0.26736752
-0.26365955
-0.26422038
-0.27318076
-0.26584558
-0.26531731
-0.22699181
-0.2024793
-0.22937256
-0.25248648
-0.26648597
-0.28429372
-0.2843661
-0.28826149
-0.2874259
-0.27532126
-0.27287998
-0.26095111
-0.28801551
-0.29600433
-0.29838164
-0.26394328
-0.27733617
-0.24567293
-0.27549747
-0.29331474
0.077280286
0.024926097
0.057007431
0.10747066
0.098863624
0.12246805
0.12443408
0.11334046
0.093723125
0.068324786
0.046597501
0.04505686
0.06096502
0.092346767
0.068545325
0.10034497
0.10997825
0.1167581
0.097975742
0.11603124
0.090436669
0.066799181
0.11269108
0.11759672
0.094256292
0.06204022
0.098851313
0.053802235
0.058137079
0.085957721
-0.061387422
-0.077148
-0.047223044
-0.051344824
-0.058483791
-0.075482974
-0.093810361
-0.057278118
-0.0415615
-0.063943549
-0.065149024
-0.067170942
-0.051369736
-0.05789272
-0.071230025
-0.055283918
-0.067817899
-0.070357161
-0.050530223
-0.067694271
-0.08195259
-0.08514451
-0.072253138
-0.044882729
-0.068914813
-0.10687042
-0.080558003
-0.077459969
-0.13692973
-0.050436716
-0.0047023971
-0.0089194844
-0.015140593
-0.014387577
-0.0074636893
0.0073379596
0.033757898
0.013597565
0.0095186842
-0.0047776338
0.0030425038
-0.0094419406
-0.017252697
-0.014064668
-0.0081333611
0.0039628555
0.022677168
0.032109707
0.016428075
-0.0013801025
0.013015592
0.029746665
0.021732376
0.039488691
0.014008631
0.017779524
-0.011194068
-0.0019679956
0.01139339
0.017674062
0.29524845
0.29355489
0.29387836
0.30611894
0.29516728
0.30621435
0.29416983
0.29910707
0.29376968
0.29430495
0.30164759
0.30422482
0.3101088
0.30665014
0.31035747
0.30684565
0.31076355
0.31424151
0.30582122
0.32021141
0.31995055
0.32300978
0.31809208
0.31796388
0.31779964
0.32028137
0.32432111
0.33259472
0.33171399
0.33071825
-0.26449822
-0.24462425
-0.23958795
-0.21489073
-0.21454931
-0.2064367
-0.25424937
-0.26433376
-0.25945918
-0.23811155
-0.19568624
-0.18752263
-0.19025885
-0.21290302
-0.21811005
-0.25840183
-0.28126785
-0.27654419
-0.25514413
-0.22987806
-0.2138522
-0.21086933
-0.2417301
-0.28540107
-0.26123209
-0.23321005
-0.20927956
-0.21493922
-0.25098118
-0.28187095
0.10591845
0.060326083
0.087734278
0.060997488
0.069439378
0.056205777
0.097171404
0.10176989
0.081584085
0.058276979
0.060178688
0.073177653
0.06912717
0.072196075
0.053468929
0.062420778
0.08420986
0.093064712
0.073808922
0.068993194
0.068403526
0.064508948
0.083251782
0.067061211
0.083743744
0.03253535
0.066751166
0.062995008
0.037869997
0.078922917
-0.044665956
-0.093628142
-0.056800474
-0.056192007
-0.064158277
-0.068285183
-0.064260013
-0.050718642
-0.057960119
-0.07370473
-0.060718063
-0.046637285
-0.029307938
-0.070076194
-0.084593573
-0.0934408
-0.045741874
-0.033424805
-0.10470611
-0.053802511
-0.046579874
-0.04274372
-0.067699383
-0.043353015
-0.088153181
-0.085218027
-0.051379677
-0.036570771
-0.10288863
-0.061882078
0.018786726
0.019623329
0.0017051979
-0.016776561
-0.0015836012
0.019315839
0.015998567
0.023193544
0.016457759
0.015602989
0.0046479685
-0.010208776
-0.0048958282
-0.018040525
-0.00033264452
0.020200904
0.020742824
0.033564825
0.025834544
0.0044260165
0.0027897226
0.0097493143
0.0064441532
0.0086032154
0.015317375
0.0035909671
-0.017169163
-0.010106802
-0.0098403606
-0.0036991269
)
;

boundaryField
{
    minX
    {
        type            fixedFluxPressure;
        gradient        uniform 0;
        value           nonuniform List<scalar> 
50
(
0.28396584
-0.22843646
0.077022639
-0.048957984
0.0093466111
0.29125357
-0.25472628
0.095142398
-0.036838192
-0.0028939996
0.29088092
-0.25608703
0.12703366
-0.027958744
0.0013246682
0.29265348
-0.25861897
0.12015963
-0.0070768296
0.0025416246
0.29445554
-0.26035044
0.11116872
-0.039473957
0.017278681
0.29996487
-0.25999758
0.092318145
-0.037817828
0.023007832
0.29980383
-0.26002263
0.082259838
-0.03576667
0.022067149
0.29406557
-0.26405269
0.082259466
-0.036154808
0.016125616
0.30717689
-0.2575467
0.077280286
-0.061387422
-0.0047023971
0.29524845
-0.26449822
0.10591845
-0.044665956
0.018786726
)
;
    }
    maxX
    {
        type            fixedFluxPressure;
        gradient        uniform 0;
        value           nonuniform List<scalar> 
50
(
0.30853844
-0.25218093
0.089030164
-0.057764387
0.0020220052
0.31118295
-0.27595013
0.096466422
-0.0521039
-0.00053794444
0.30177386
-0.28029742
0.11213997
-0.061367519
0.0069049244
0.31752307
-0.28509204
0.090621179
-0.050284673
0.016477884
0.32446144
-0.28242207
0.095867465
-0.047558059
0.029220978
0.32419277
-0.28822915
0.11618207
-0.044935126
0.028716168
0.32601105
-0.28818117
0.085915602
-0.04959086
0.019485808
0.32944064
-0.29305376
0.10368433
-0.041711169
0.030125448
0.32968078
-0.29331474
0.085957721
-0.050436716
0.017674062
0.33071825
-0.28187095
0.078922917
-0.061882078
-0.0036991269
)
;
    }
    minY
    {
        type            fixedValue;
        value           uniform 0;
    }
    minZ
    {
        type            fixedFluxPressure;
        gradient        uniform 0;
        value           nonuniform List<scalar> 
150
(
0.28396584
-0.22843646
0.077022639
-0.048957984
0.0093466111
0.30569318
-0.22309077
0.059396495
-0.050958733
-0.0026969173
0.30785284
-0.24977781
0.052745312
-0.10327528
0.022221081
0.31270256
-0.27740192
0.093656195
-0.036510568
0.030730592
0.30533124
-0.27004743
0.09834149
-0.039276892
0.031788444
0.30374779
-0.2580909
0.070816938
-0.09768034
0.028341165
0.31157665
-0.21223605
0.062715557
-0.068015168
0.012437008
0.30371451
-0.22616297
0.070419523
-0.060037861
-0.0010943086
0.29571934
-0.24307585
0.092237238
-0.079099802
0.032136352
0.30026075
-0.27303313
0.11235537
-0.039813469
0.016236901
0.30260883
-0.28240744
0.086525019
-0.04796791
0.010201195
0.31165194
-0.22341753
0.046948288
-0.072265488
-0.0024423114
0.31489648
-0.1874167
0.073011508
-0.044032911
-0.011129013
0.30056377
-0.18783428
0.072701834
-0.037447761
-0.016572825
0.30617203
-0.21184307
0.066900018
-0.036435543
-0.017435977
0.28577764
-0.24725027
0.094433768
-0.056167853
-0.016564234
0.29635971
-0.2614098
0.089266527
-0.025988071
-0.0074288716
0.28880887
-0.24069633
0.082255044
-0.082612923
0.0075839428
0.30805208
-0.21531512
0.057626465
-0.045906092
0.0055161569
0.2944517
-0.22976242
0.087605228
-0.062381711
-0.0076335517
0.28776952
-0.24395538
0.081690833
-0.069762761
0.013479204
0.289903
-0.24411167
0.094287725
-0.06887619
0.028569101
0.29031863
-0.24531822
0.075639356
-0.074850538
0.013525372
0.2881786
-0.26881895
0.099571946
-0.038642102
0.009269388
0.29498632
-0.26824867
0.1223842
-0.042564387
0.021874622
0.29446783
-0.2694316
0.088737787
-0.047310341
0.010179683
0.28672204
-0.25568128
0.073324952
-0.088681171
0.013343722
0.31305615
-0.19820954
0.040430272
-0.073645192
0.0054871563
0.30938871
-0.22235283
0.071403729
-0.06668
-0.014690757
0.30853844
-0.25218093
0.089030164
-0.057764387
0.0020220052
)
;
    }
    maxZ
    {
        type            fixedFluxPressure;
        gradient        uniform 0;
        value           nonuniform List<scalar> 
150
(
0.29524845
-0.26449822
0.10591845
-0.044665956
0.018786726
0.29355489
-0.24462425
0.060326083
-0.093628142
0.019623329
0.29387836
-0.23958795
0.087734278
-0.056800474
0.0017051979
0.30611894
-0.21489073
0.060997488
-0.056192007
-0.016776561
0.29516728
-0.21454931
0.069439378
-0.064158277
-0.0015836012
0.30621435
-0.2064367
0.056205777
-0.068285183
0.019315839
0.29416983
-0.25424937
0.097171404
-0.064260013
0.015998567
0.29910707
-0.26433376
0.10176989
-0.050718642
0.023193544
0.29376968
-0.25945918
0.081584085
-0.057960119
0.016457759
0.29430495
-0.23811155
0.058276979
-0.07370473
0.015602989
0.30164759
-0.19568624
0.060178688
-0.060718063
0.0046479685
0.30422482
-0.18752263
0.073177653
-0.046637285
-0.010208776
0.3101088
-0.19025885
0.06912717
-0.029307938
-0.0048958282
0.30665014
-0.21290302
0.072196075
-0.070076194
-0.018040525
0.31035747
-0.21811005
0.053468929
-0.084593573
-0.00033264452
0.30684565
-0.25840183
0.062420778
-0.0934408
0.020200904
0.31076355
-0.28126785
0.08420986
-0.045741874
0.020742824
0.31424151
-0.27654419
0.093064712
-0.033424805
0.033564825
0.30582122
-0.25514413
0.073808922
-0.10470611
0.025834544
0.32021141
-0.22987806
0.068993194
-0.053802511
0.0044260165
0.31995055
-0.2138522
0.068403526
-0.046579874
0.0027897226
0.32300978
-0.21086933
0.064508948
-0.04274372
0.0097493143
0.31809208
-0.2417301
0.083251782
-0.067699383
0.0064441532
0.31796388
-0.28540107
0.067061211
-0.043353015
0.0086032154
0.31779964
-0.26123209
0.083743744
-0.088153181
0.015317375
0.32028137
-0.23321005
0.03253535
-0.085218027
0.0035909671
0.32432111
-0.20927956
0.066751166
-0.051379677
-0.017169163
0.33259472
-0.21493922
0.062995008
-0.036570771
-0.010106802
0.33171399
-0.25098118
0.037869997
-0.10288863
-0.0098403606
0.33071825
-0.28187095
0.078922917
-0.061882078
-0.0036991269
)
;
    }
    bottomWater_to_rightSolid
    {
        type            fixedFluxPressure;
        gradient        uniform 0;
        value           nonuniform List<scalar> 
130
(
0.0075839428
0.0055161569
-0.0076335517
0.013479204
0.028569101
0.013525372
0.009269388
0.021874622
0.010179683
0.013343722
0.0054871563
-0.014690757
0.0020220052
0.047348845
0.024574632
0.0075462672
-0.005738853
0.01979908
0.010525737
-0.004838279
0.0076609282
-0.0048288471
-0.0013122531
-0.019269963
-0.0056192434
-0.00053794444
0.0037425656
0.029181802
0.016898368
0.016107037
-0.0022423198
0.018945838
0.017762935
-0.0061144303
-0.007412809
-0.013776577
-0.0028786483
0.011909889
0.0069049244
0.043599955
0.015563866
0.02209037
0.012558029
0.00083852662
0.0081928751
-0.01157747
-0.0093657105
-0.017201314
-0.021456277
0.005871602
0.019315574
0.016477884
-0.013149743
-0.0047898492
0.00055488738
0.00048683406
-0.02459525
-0.011624312
-0.014728108
-0.016213858
-0.024512289
-0.020506576
0.014301848
0.021875215
0.029220978
-0.016398285
-0.02012684
-0.012503904
-0.011200941
0.010503929
0.015627854
0.011777628
-0.0068731146
-0.013133987
-0.012781678
0.0015532638
0.010991938
0.028716168
-0.0041332938
0.021067977
0.014333926
0.016524676
0.016994918
0.024434842
0.02314433
0.01004146
-0.0052201214
-0.016000837
-0.008595329
0.0096932755
0.019485808
0.0087119084
0.013362695
0.015244067
0.024708517
0.035055691
0.035361521
0.023516444
0.016602368
0.010246961
-0.016559962
0.0068446552
0.019885151
0.030125448
0.032109707
0.016428075
-0.0013801025
0.013015592
0.029746665
0.021732376
0.039488691
0.014008631
0.017779524
-0.011194068
-0.0019679956
0.01139339
0.017674062
0.033564825
0.025834544
0.0044260165
0.0027897226
0.0097493143
0.0064441532
0.0086032154
0.015317375
0.0035909671
-0.017169163
-0.010106802
-0.0098403606
-0.0036991269
)
;
    }
    bottomWater_to_leftSolid
    {
        type            fixedFluxPressure;
        gradient        uniform 0;
        value           nonuniform List<scalar> 
130
(
0.0093466111
-0.0026969173
0.022221081
0.030730592
0.031788444
0.028341165
0.012437008
-0.0010943086
0.032136352
0.016236901
0.010201195
-0.0024423114
-0.011129013
-0.0028939996
0.0032918167
0.024494494
0.031620736
0.027053422
0.013884422
0.019719854
-0.010715563
0.021501414
-0.012701813
-0.0067035607
-0.025267596
-0.022382889
0.0013246682
-0.010166431
0.0024021289
0.022642262
0.017574773
0.0025105873
-0.014936193
-0.0078461746
-0.0017984051
0.020896116
0.010961997
0.012837592
-0.013871947
0.0025416246
-0.0066985187
-0.012621617
-0.011957738
-0.010407657
-0.029190577
0.012849829
-0.0048382267
-0.0095950542
-0.00490149
0.005541333
0.0063309768
-0.0062801567
0.017278681
0.0075640104
0.0016547272
-0.013192518
-0.019928997
-0.018325419
-0.020655494
0.0045607605
0.007142912
0.0020242847
0.013583657
0.015463295
0.0053797151
0.023007832
0.016114655
0.0080053646
0.00083153357
-0.0063186556
-0.014669452
-0.0028520385
0.033444968
0.031779349
0.012482938
0.032260461
0.020248214
0.015598483
0.022067149
0.019008658
0.015721723
0.00034148039
-0.011241742
0.0090511399
-0.0094850845
0.020486193
0.028478887
0.02097176
0.040342009
0.024065438
0.012335227
0.016125616
0.020780106
0.0068331038
-0.010099753
0.0056188541
-0.0070378899
-0.018706474
0.0079490874
0.0091604094
0.016732613
0.048725781
0.03408595
0.0033753065
-0.0047023971
-0.0089194844
-0.015140593
-0.014387577
-0.0074636893
0.0073379596
0.033757898
0.013597565
0.0095186842
-0.0047776338
0.0030425038
-0.0094419406
-0.017252697
0.018786726
0.019623329
0.0017051979
-0.016776561
-0.0015836012
0.019315839
0.015998567
0.023193544
0.016457759
0.015602989
0.0046479685
-0.010208776
-0.0048958282
)
;
    }
    bottomWater_to_heater
    {
        type            fixedFluxPressure;
        gradient        uniform 0;
        value           nonuniform List<scalar> 
92
(
-0.016572825
-0.017435977
-0.016564234
-0.0074288716
-0.022262145
-0.010488109
0.0018677398
0.0056361288
0.00014506018
0.021494887
0.005394607
0.041144824
0.29102373
0.29031956
0.29480298
0.29031735
-0.24941207
-0.26379219
-0.26828818
-0.25180431
0.057592011
0.10772064
0.10994108
0.14093834
-0.067318579
-0.057941587
-0.055994577
-0.091575472
0.0069599783
0.0069599783
0.01571114
0.01571114
0.021870456
0.021870456
0.072132351
0.072132351
0.2915816
0.30501427
-0.24921189
-0.21569441
0.09733951
0.038328563
-0.047631943
-0.058521052
0.0053797151
-0.013149743
0.29669786
0.30440379
0.31789275
0.31080454
0.31747321
0.32026866
-0.23537871
-0.24699936
-0.19816955
-0.21015353
-0.20940869
-0.20175119
0.066975318
0.045401413
0.025186081
0.065825405
0.077414837
0.070298588
-0.051529324
-0.074568024
-0.081675142
-0.049498993
-0.040176403
-0.043826835
0.015598483
0.011904262
0.005512463
-0.01381845
-0.016398285
-0.0069751557
0.011904262
0.005512463
-0.01381845
-0.0069751557
-0.0017840905
0.0055878408
-0.016554137
-0.0051796743
-0.014064668
-0.0081333611
0.0039628555
0.022677168
-0.018040525
-0.00033264452
0.020200904
0.020742824
)
;
    }
}


// ************************************************************************* //
