/*--------------------------------*- C++ -*----------------------------------*\
| =========                 |                                                 |
| \\      /  F ield         | OpenFOAM: The Open Source CFD Toolbox           |
|  \\    /   O peration     | Version:  v2012                                 |
|   \\  /    A nd           | Website:  www.openfoam.com                      |
|    \\/     M anipulation  |                                                 |
\*---------------------------------------------------------------------------*/
FoamFile
{
    version     2.0;
    format      ascii;
    class       volVectorField;
    location    "610/bottomWater";
    object      U;
}
// * * * * * * * * * * * * * * * * * * * * * * * * * * * * * * * * * * * * * //

dimensions      [0 1 -1 0 0 0 0];


internalField   nonuniform List<vector> 
1460
(
(-0.0035594214 -0.014660292 0.00068015555)
(-0.00056523861 -0.010641178 0.0015387681)
(0.00086789795 -0.015713516 -0.0013782183)
(0.00080995651 -0.018627984 0.00068421246)
(-0.0010623275 -0.016482232 0.0015657529)
(-0.0033306774 -0.014085501 0.0015601937)
(-0.0023612142 -0.011291993 0.0016652501)
(-0.00052767475 -0.010714104 0.0014138129)
(0.00034945468 -0.013661874 0.00090067842)
(-0.0019750399 -0.017912173 0.0015370816)
(-0.0042075153 -0.016862229 0.00062788749)
(-0.0041913058 -0.015370268 -0.00016068152)
(-0.0018285752 -0.013110245 1.6219126e-05)
(0.00087014213 -0.012394813 0.00024397651)
(0.0023008078 -0.011297506 0.00063741604)
(0.0032503007 -0.013721821 0.0011323206)
(-0.00073227921 -0.017150795 0.0014362278)
(-0.002786534 -0.01653489 0.00034175785)
(-0.00058740854 -0.011264381 0.0005598012)
(0.0033407569 -0.011828941 0.00047692099)
(0.0030516872 -0.014244775 0.00068605181)
(0.0006364422 -0.016725986 -0.00011417439)
(0.00069924947 -0.016416521 -0.0027145105)
(-3.9434889e-05 -0.014521674 -0.00079608657)
(-0.0017483574 -0.015660248 -0.0011839787)
(-0.0016923323 -0.01457814 -0.0011665244)
(-0.0039344299 -0.013423068 -0.00092166)
(-0.0014292138 -0.011971929 -0.0012838265)
(0.0022632932 -0.011891207 0.00089613177)
(0.0010472488 -0.016706612 0.0007955535)
(-0.0024015056 0.016418404 0.0030597575)
(0.0024144846 -0.0026683351 -9.5634933e-05)
(0.0051144128 0.012511637 -0.0014114569)
(0.0050899459 0.018969213 -0.002066405)
(-0.0050623075 0.017859537 0.0007303606)
(-0.0061292195 0.013306619 0.00066211756)
(-0.0022042449 0.00047500698 -0.00024338296)
(-0.0011522579 0.0012758543 0.00031615833)
(0.0027083398 0.012272332 -0.0019244807)
(-0.0003383514 0.018953158 -0.0013348013)
(-0.0085659321 0.017192726 -0.0024178701)
(-0.0069949592 0.010257261 -0.0021150106)
(-0.0034393101 0.0025414751 -0.0013418394)
(0.00010488759 0.0030352941 0.00037787318)
(0.0006620948 0.0017029369 0.00027770159)
(0.0058343036 0.014161432 0.00066163855)
(-0.00056084592 0.01860106 -0.00028791985)
(-0.0051739 0.01658323 -0.0012163572)
(-6.3192256e-05 -0.0023070696 -0.00094883222)
(0.0015472673 0.0066169054 0.00032476752)
(0.0032441616 0.015883426 0.00076681481)
(0.00095065174 0.018414745 -0.0011307262)
(0.0027745844 0.017955013 -0.00378541)
(0.003439184 0.017013076 -0.0020302915)
(-0.0020513824 0.017428767 -0.0013340003)
(-0.0048712649 0.016683365 -0.0016736454)
(-0.0060161749 0.013648306 -0.0016426799)
(0.0014073064 -0.0009024259 -0.0020736706)
(0.0025381017 0.0044499771 0.0013572234)
(0.0047328397 0.016890031 0.002455388)
(0.002528451 -0.016475918 -0.0027876549)
(0.0014953651 -0.014425992 -0.0011697089)
(-0.0048128846 -0.013631338 0.00060109624)
(0.0014144282 0.0059048214 -0.001523797)
(-0.0030127125 0.0053262032 2.3510892e-05)
(0.0040611547 -0.014159856 -0.0038285751)
(-5.9928997e-05 -0.01456059 -0.0023952059)
(-0.003255904 -0.013330446 -0.0020597752)
(-0.0044925711 -0.012962783 -0.0019940103)
(-0.0011508144 0.0031922672 -0.00054634901)
(-0.0028097911 0.0012776456 -0.0014996492)
(0.0021001744 -0.0153956 -0.0020771982)
(-0.0017810947 -0.013842618 -0.0017074616)
(-0.0014082946 -0.012971333 0.0010607843)
(-0.003901491 -0.013191898 0.00084172986)
(-0.0032827513 -0.010954674 0.0019138968)
(0.00011672606 0.0029774333 -0.00072932017)
(0.0039868022 -0.012991528 -0.0021988455)
(0.00051608627 -0.014282568 -0.0023620944)
(-0.0022956294 -0.013086026 -0.0020913417)
(0.0014307453 -0.0093891857 -0.00092354856)
(0.00100296 -0.010407579 0.0028709399)
(-0.0012218378 -0.013917329 0.0035099338)
(-0.00085972262 0.00082277281 0.00042509045)
(-0.0011738158 0.0031813545 4.1143607e-05)
(-0.00060848004 6.0870841e-05 -0.0021524212)
(0.0054147096 -0.014004564 -0.0034376594)
(0.0035039253 -0.014857145 -0.0038457038)
(-0.0024019767 -0.013077243 0.00098205316)
(0.0016346667 -0.0075735541 0.0014118798)
(-0.00076002294 0.010873631 -0.0021455039)
(8.5412352e-05 0.0019482475 5.0668627e-05)
(-0.0037162322 0.011170818 -0.0018272325)
(-0.0024292021 0.0091318001 0.00012227922)
(0.00099748277 0.0089681698 0.00038786661)
(0.0040218066 0.01154639 -0.002638146)
(-0.0028782221 0.0064273474 0.0020121458)
(-0.0012253153 0.0011153268 0.00038245884)
(-0.0044020451 0.010917322 0.00056234521)
(-0.0030115901 0.0088091997 -0.00019560413)
(1.0489282e-05 0.0079146222 0.00091459546)
(3.6778147e-05 0.0079651428 -0.0031141921)
(-0.0027771891 0.0045238401 -0.00094068351)
(-0.00062424322 -0.0025173963 0.00022081041)
(-0.0025015821 -0.0015726668 -0.0011855441)
(-0.003434297 0.0030417233 -0.00021722016)
(0.0010942734 0.0064166492 0.00085014831)
(0.003906839 0.012748874 0.0022275487)
(-0.00074012799 0.0051021209 0.0026525975)
(5.4902016e-05 0.00010418638 -0.0016995657)
(0.0016889352 0.0092582919 -0.00131593)
(-0.00080722861 0.011608132 0.00078714538)
(-0.0054957811 0.012081735 0.0007896333)
(-0.0031369218 0.0083748153 0.0014183833)
(-0.00050651866 0.009207703 -0.00021520109)
(0.0031012084 0.007833087 -0.0016486255)
(0.004828753 0.01053625 -0.0024561196)
(0.00065168902 0.0096198513 -0.0026909037)
(0.0014251419 -0.001846712 0.0009106307)
(-0.0010627213 0.0094166818 0.00057555369)
(0.0010489647 -0.011673387 0.0010979578)
(-0.0050242344 -0.0091654934 -0.0009981869)
(-0.0054232761 -0.0048441951 -0.00056696759)
(-0.0026734808 0.0012390112 0.00019457015)
(0.00090840906 0.0014054075 0.00069154816)
(0.0038711606 -0.0022975018 -0.00012925182)
(0.0057875371 -0.0084349341 -0.00015909059)
(-0.00022520582 -0.010233098 0.0011969443)
(-0.0043823227 -0.0057230712 0.0017840277)
(-0.0011528277 0.0013045903 0.0021830535)
(0.0010690757 0.0011318268 0.0025594769)
(0.002841862 -0.0044241095 0.0022022161)
(0.0036802255 -0.0078384148 0.0024181306)
(0.00033723399 -0.0099071489 -0.0012002693)
(-0.0036068094 -0.0099852117 -0.0045109486)
(-0.004442095 -0.010483271 -0.0045475737)
(-0.004321956 -0.0088531895 -0.0040909016)
(-0.0013462148 -0.0089586972 -0.0035106517)
(0.001126833 -0.0095237851 -0.0038794064)
(-0.0014594151 -0.010072466 -0.0016187767)
(-0.0043599049 -0.0064385071 0.0014447188)
(-0.001051851 -0.00063500747 0.0013126303)
(0.0001531217 -0.0095002825 0.0010999578)
(-0.0010409164 -0.0068226446 0.0013677416)
(-0.00022579176 0.00080773592 0.0010780647)
(0.0028736206 -0.00082423729 0.00055005266)
(0.0038489738 -0.003200392 6.2965136e-05)
(0.0055723641 -0.007721614 0.001124139)
(0.0033925514 -0.010534508 0.00016577691)
(-0.004143969 -0.0068367462 0.00053440211)
(-0.00067195111 -0.014790267 0.00095653683)
(-0.0032246091 -0.012598824 0.0024889908)
(-0.0013319574 -0.010808336 0.0016154183)
(0.0019567234 -0.015405823 -0.0013058259)
(0.00080562024 -0.018067068 -0.00057952362)
(-0.00031172653 -0.018208139 -0.000103862)
(-0.0017391051 -0.01696911 0.0021410025)
(-0.0022757874 -0.017627884 0.0024738792)
(-0.0024071991 -0.019775885 0.0012846812)
(-0.0034661356 -0.016331024 0.00033876844)
(-0.0044581484 -0.014826408 0.00029129641)
(-0.0033560041 -0.012196595 0.00024861474)
(-0.0014639654 -0.012860877 0.0006021706)
(0.0011713957 -0.013196263 0.0023582184)
(0.0030844416 -0.012104909 0.0026250284)
(0.0042176017 -0.013854902 0.0017526183)
(0.0016299343 -0.016902849 0.0014365388)
(0.0010722857 -0.019355218 -0.0013535912)
(9.267562e-05 -0.018068531 0.00092384061)
(-0.00067664102 -0.016619785 -0.0016268339)
(-0.0028640064 -0.013668181 -0.0016081953)
(-0.0036503413 -0.0119431 -0.0020616425)
(-9.5368844e-05 -0.012019984 -0.0011547184)
(0.0033405156 -0.0133406 -0.0020454618)
(-8.193361e-05 -0.016029246 -0.002159432)
(-0.00013253829 -0.016129486 -0.0022058792)
(-0.0029472547 -0.013851823 -0.00040444772)
(-0.0016544745 -0.010595262 0.0022880637)
(0.0017941281 -0.014844544 0.0015530688)
(0.00013781802 -0.016721518 0.0015865051)
(-0.0020608728 0.016841234 0.0034029655)
(-0.0026622558 0.013637921 0.0028899545)
(0.00099968323 -0.0028173842 -0.00073498925)
(0.0047943023 0.013446411 -0.004275266)
(0.0010471487 0.01936236 -0.0030410866)
(-0.0043676043 0.019582077 0.0011239697)
(-0.0039004537 0.018175292 0.0038581603)
(-0.0037077918 0.018477249 0.0047022846)
(-0.0015663437 0.020975681 0.003589181)
(-0.0038016516 0.017910782 0.00036513705)
(-0.0070795817 0.014056386 -3.3717735e-05)
(-0.0040271667 0.003596045 -0.00016873936)
(-0.0027505786 0.0035180589 -0.00035887383)
(0.0015189996 0.0026679346 0.0027515609)
(0.0012043884 0.0013328999 0.0019198607)
(0.0060165601 0.014458943 0.0023763803)
(0.0028908893 0.018452536 0.0012929572)
(0.0020737112 0.020600072 0.00019007255)
(0.0038056427 0.019116327 0.003501005)
(0.00080055054 0.018129522 0.0026390761)
(-0.0045226835 0.015234804 0.00064543552)
(-0.00076743798 0.0068470175 0.00046200432)
(-0.00084834002 -0.0031783162 0.0013538696)
(0.006400039 0.013903496 -0.00024356605)
(0.0034197696 0.017895851 -0.001603951)
(-0.0021980629 0.018169069 -0.0025993856)
(-0.0041530025 0.015768793 -0.0010607345)
(0.0015086628 0.0014845203 0.00043424688)
(0.0035516274 0.012205903 0.0026274432)
(0.0043835544 0.0178375 0.0031302693)
(5.4742536e-05 -0.0012827608 0.00012403748)
(0.0063634555 -0.013351726 -0.0015771024)
(7.4564205e-05 -0.015254625 -0.00099815259)
(-0.0063607865 -0.009931782 0.00055854962)
(-0.0017127519 0.0043184876 -0.0025716598)
(-0.0028877132 -0.00039328392 -0.00098804391)
(-0.0022134304 -0.015013748 -0.00077451953)
(-0.0022728675 -0.0094317951 0.0011644015)
(0.0020007315 -0.017428372 -0.001450861)
(-0.0016042043 -0.0017352951 4.0911056e-05)
(0.003850785 -0.014250585 -1.052453e-05)
(0.00088157739 -0.013910542 -0.0012696347)
(9.5354447e-05 -0.013425993 -0.0025275051)
(0.0016891906 -0.013226122 0.0015608602)
(-0.0039338345 -0.014924487 5.581958e-05)
(-0.0056034327 -0.01429539 0.00011668698)
(-0.001464921 -0.0062065857 -0.0027130089)
(0.00025970063 -0.018341176 0.0026748196)
(0.0014115505 -0.012739837 -0.0030502358)
(0.0016406411 -0.00071373337 0.0011553389)
(0.0027546324 -0.0071384023 0.0017037774)
(0.0057045257 -0.01401807 0.0037267752)
(-0.0031761544 -0.015878826 0.0035396857)
(-0.0061460687 -0.013485399 0.0018630147)
(-0.00039468863 0.0019765019 -0.00055198839)
(-0.0021221545 0.0016264 -0.0035362271)
(0.0024567937 -0.011383844 -0.0036535952)
(0.0019627482 -0.013808969 -0.0024152068)
(-0.0036390504 -0.014386242 0.0018468702)
(0.0017850072 0.00091451464 0.001555062)
(0.0014089994 0.0023622884 3.5211611e-05)
(0.0047725212 0.0095408359 0.00037966681)
(-0.00064477688 0.010774566 0.00041981199)
(-0.0046752522 0.010427201 0.0019700067)
(-0.0027062031 0.0090008811 -0.00071717692)
(0.0018245731 0.0087116639 -0.00079751975)
(-0.0023139742 0.012377795 0.00065319244)
(-0.00047249452 0.0028195417 0.0016829213)
(-0.0012336931 0.015957537 -0.0024609737)
(-0.0012696739 0.0090435817 -0.00055060687)
(0.0024889399 0.0078295647 -0.00056861948)
(0.00023472615 -0.0014751608 -0.0020681511)
(-0.00081499876 -0.00340438 -0.0032714339)
(0.0020793728 0.0056594116 0.00032522628)
(0.0013809255 0.009982341 0.00394826)
(-0.0019314595 0.012037807 -0.000347477)
(0.00030376477 0.0091109508 0.0036739344)
(0.0002140595 0.014148117 -0.00049527427)
(-0.0050911294 0.012230871 -0.0010792207)
(-0.0023464248 0.0075976379 -0.000622481)
(0.00024187891 0.0011381 0.00078668959)
(0.00062582368 0.01113064 0.0003475462)
(-0.004194761 0.011832614 0.0011574804)
(-0.0045521117 0.011514827 0.0023373885)
(-0.0016359135 0.0081190694 0.00033980808)
(0.0011971175 0.0083507945 -0.0026927466)
(0.0027349591 0.0060766712 -0.0020014364)
(0.0004971152 -0.0018316355 0.00049607718)
(-0.0014552418 0.0084219477 0.0034747348)
(-0.0020403261 0.0083692815 0.0016179316)
(-0.0031171052 -0.0093476103 0.0023936594)
(-0.0046353982 -0.006849198 0.0020033824)
(-0.0041686878 -0.0032660128 0.0021229335)
(-0.0030473869 -0.0022314906 0.0019774113)
(-9.5023699e-05 0.00052775348 0.0010291262)
(0.0020787828 -0.00040849786 0.001601076)
(0.0035245025 -0.0071127057 0.0027739874)
(0.0017253237 -0.010435944 0.0024494965)
(-0.0019119591 -0.012095338 0.0030394434)
(0.0031280648 -0.0058667025 0.0010218888)
(0.0030979383 -0.0094905692 0.00053066725)
(0.0039347789 -0.010530627 -0.0024125978)
(-0.0023155094 -0.011074082 -0.0041025037)
(-0.0048059362 -0.010013942 -0.0049556757)
(-0.0040879643 -0.0080531558 -0.0048683661)
(-0.0042117595 -0.0088314388 -0.0044799947)
(-0.0041082766 -0.0070713612 -0.0041249112)
(-0.0017238496 -0.0045186561 -0.00099066555)
(-0.00069537941 -0.0015602919 -0.0023876326)
(0.003810855 -0.0066357002 -0.0034079499)
(-0.0011816597 -0.010350099 0.00013661001)
(-0.0019007438 -0.0063111832 0.0028915707)
(0.00023189251 -0.0079103564 0.0012196005)
(0.00089511372 -0.012082322 0.0007704937)
(0.00068194395 -0.0035600117 0.0027794945)
(0.0024684103 -0.0034011177 0.0016104466)
(0.0039957716 -0.0094853722 0.0028382652)
(-0.0015080585 -0.01072341 -6.425642e-05)
(-0.0042766442 -0.009110328 -0.0017382398)
(-0.0023681856 -0.0014547237 0.00032663566)
(-0.00042015808 -0.016346013 -0.00025601308)
(-0.0011599672 -0.014964141 0.00066496656)
(-0.0036682004 -0.012199127 0.0012920524)
(-0.0015872789 -0.011695598 -0.0014649441)
(0.00070384182 -0.020572768 0.00028597182)
(-0.0014572937 -0.020843726 0.0001422961)
(0.00060415043 -0.012518845 0.0013040017)
(0.0021957057 -0.015171974 -0.001812597)
(0.0010363781 -0.014899099 -0.0017966355)
(-0.0003936899 -0.016190899 -0.00086289844)
(-0.0024918195 -0.015573037 0.00071817829)
(-0.0027081629 -0.015231009 0.0011585718)
(-0.00090481709 -0.011095598 0.0017799496)
(0.002667603 -0.01176109 0.0027718732)
(0.0032313392 -0.013817738 0.0034565546)
(0.0024933231 -0.015477131 0.0019316122)
(-0.0010408803 -0.019825699 0.00051808038)
(0.00017990468 -0.01308574 -0.0015909409)
(0.00032502393 -0.017844984 -0.0004620164)
(-0.00055631799 -0.016658036 -0.00061799976)
(-0.0038147953 -0.013152332 0.00071347032)
(-0.0030218055 -0.012094868 0.00046182477)
(0.001124539 -0.013402146 -0.0010400887)
(0.0040686427 -0.015240656 -0.0024939679)
(0.0010916302 -0.016479507 -0.0023369367)
(0.00037947428 -0.01560565 -0.0038890484)
(-0.00082756802 -0.015987401 -0.0028617249)
(-0.001879985 -0.014372183 -0.0020172568)
(-0.00068488741 -0.015474196 -0.00042405379)
(0.00098472506 -0.01529393 -0.001352731)
(-0.0015475875 0.017686223 0.0017149466)
(-0.0028943355 0.017028867 0.0019365777)
(-0.0043124584 0.013934524 0.0012792906)
(0.0016943468 -4.6553722e-06 -0.0023669217)
(0.00030198623 0.019061228 -0.0057520661)
(-0.003964053 0.019860949 -0.0038714142)
(-0.001566744 0.006863412 0.00023345857)
(0.00453181 0.015783489 -0.0044011162)
(0.0039807808 0.017143739 -0.0027718624)
(0.00057168127 0.018003312 -0.001594869)
(-0.0060967286 0.017178659 0.00060302505)
(-0.0053065354 0.012710089 -2.0407177e-05)
(-0.0016639024 4.2135527e-05 -0.00028804681)
(0.0021043186 0.0043159033 0.0015897801)
(0.0047919416 0.013689449 0.0043140679)
(0.0043415318 0.017470298 0.0037899831)
(-0.0033281277 0.02046611 -0.00049636438)
(0.0019023095 0.0089352048 -0.00082490543)
(0.0033998523 0.018449248 0.00072741487)
(-0.0047364382 0.018163409 0.0019286827)
(-0.0067654931 0.013940098 0.0021847354)
(4.9332957e-05 0.00010888274 0.0026231072)
(-0.0002995954 -0.0034139274 -0.0014166558)
(0.0066985237 0.01431813 -0.0016199656)
(0.0023769577 0.018240729 -0.002978049)
(0.001018886 0.017007435 -0.004210439)
(-0.0010039728 0.017891124 -0.0041175617)
(-0.00077833897 0.016536157 -0.0020420916)
(0.0018798791 0.012693166 0.0019692957)
(0.0038001008 0.016825087 0.0018309077)
(0.0023970298 -0.0032286069 -0.00036159785)
(0.0035836163 -0.0046324055 5.8037437e-05)
(0.0072026554 -0.013315354 -0.0016182645)
(0.00069278416 -0.014990243 -0.00018595203)
(-0.0053301006 -0.0078719237 -0.00083535929)
(-0.0011405924 -0.01093124 0.00015930635)
(-0.0016874711 -0.014258465 0.0019171173)
(-0.0015419085 -0.014723625 0.0048873802)
(0.0019679619 -0.00053605009 0.000290622)
(0.0003656148 0.0036250654 4.6146072e-06)
(-0.00024394551 0.00050759796 -0.00060781899)
(0.0038761358 -0.014897267 0.0026784489)
(0.00064478854 -0.014023232 -0.0028350856)
(-0.00035624934 -0.013998288 -0.0030727712)
(-0.0038950512 -0.013342695 -0.0045273559)
(-0.0012285976 0.00071749161 7.5385481e-05)
(-4.7848804e-05 -0.011629339 -0.0042250754)
(-0.00095927491 -0.015320691 -0.0018568583)
(0.0012785153 0.0038175349 -0.00027105485)
(-0.0010347666 0.004920153 0.0013801662)
(0.0042782873 -0.012176514 0.0033055963)
(0.0051674922 -0.014014499 0.0031919798)
(-0.0033201142 -0.015534116 -0.0021124008)
(-0.0056797239 -0.01442437 -0.0027091427)
(-0.002687597 -0.0034570361 -0.0028646113)
(-0.0015656979 -0.0068237562 -0.0014900175)
(0.00083851151 -0.0040351409 -0.0018320443)
(0.0046249712 -0.013280771 0.0016328481)
(-0.0013267114 -0.017030191 0.0024578884)
(0.0008975217 -0.00018754696 0.0019079753)
(0.0017036166 0.0038559055 0.00018245679)
(0.0047050802 0.0054289694 -0.00079069611)
(0.0058311585 0.010037139 -0.001279966)
(0.0011756895 0.011062007 -0.0015626756)
(-0.0027202384 0.010621094 -9.8081353e-06)
(-0.0036938304 0.010435428 0.00052421551)
(-0.0025674027 -1.5416247e-05 0.00068777177)
(-0.0038691373 0.0030967482 0.0010695699)
(-0.0019872562 0.0059458141 -0.00024361997)
(0.0001167754 0.009396267 0.0011755243)
(0.0025005812 0.0077519534 -0.0018917515)
(0.00379681 0.01031144 0.00054862364)
(0.00037159717 0.00016451682 -0.0029189789)
(0.0033105775 0.0070905535 -0.0026546008)
(-0.0025238151 0.011356959 -0.0016532041)
(-0.00067383414 0.0074363692 -0.0017387869)
(-0.00025676323 0.012241412 0.0012025396)
(-0.0047008402 0.0059333731 -0.0020536466)
(-0.0016876028 0.0088521275 -0.0020992081)
(0.0011172331 0.00909175 -7.8619231e-05)
(0.0032698197 0.007589108 0.0016247726)
(0.0013413511 0.0058543048 0.00096397165)
(0.0020606905 0.010572632 -0.0001454575)
(-0.0024466929 0.011808698 -0.0010542506)
(-0.0030835429 0.0078633875 0.00086610642)
(0.0016736118 0.0022953796 0.0018591948)
(-0.00043121713 -0.00050361897 0.0007853058)
(0.0049608324 0.0090109727 0.0026196663)
(-0.0032889299 0.012109579 0.0028201018)
(-0.0026296873 0.0085089245 0.0014336198)
(-0.0019621888 -0.010377802 0.0027822657)
(-0.0035059564 -0.0091259713 0.0035952055)
(-0.003283632 -0.0060771172 0.0036461795)
(-0.0014191504 -0.0020034689 0.0027244457)
(-5.8692006e-05 -0.00029057725 0.0030159556)
(0.0030272472 -0.0070529241 0.0046984519)
(0.0013312832 -0.011379016 0.0027178111)
(-0.0041973011 -0.011290167 8.1754815e-05)
(-0.0042717729 -0.0076411962 0.0018666618)
(-0.0016516341 -0.0002118963 3.2208226e-05)
(0.0020725664 -0.0017794336 -0.0027722798)
(0.0042977866 -0.0099152089 -0.0044132416)
(0.00027599126 -0.010698798 -0.0043596633)
(-0.005560436 -0.0071567122 -0.0037373673)
(-0.0028575998 -0.0008843701 -0.0030010314)
(-0.0027255574 -0.0013485691 -0.0032177563)
(0.00042155823 -0.0015585374 -0.0035030788)
(0.001273166 -0.010158047 -0.0015941997)
(-0.0029229637 -0.0023786284 -0.00077726933)
(0.0022586178 0.0030643234 -0.00088498554)
(0.0036477805 -0.0083499125 -0.0015560706)
(-0.00079068198 -0.010880179 0.0025751471)
(-0.00052346081 -0.0053219883 0.0011773963)
(0.0014491512 -0.0022399522 0.00069791955)
(0.0035061409 -0.0071301587 0.0025213659)
(0.0024985568 -0.009980712 0.0022882139)
(-0.0042836507 -0.010525855 -0.00064348172)
(-0.00537156 -0.0083636754 -0.0021918329)
(-0.0035584884 -0.0032043801 -0.00086935341)
(-0.0010292816 -0.0036989326 -0.0017946343)
(-0.00041495238 -0.016720688 -0.0010588502)
(-0.0020300992 -0.01584156 -0.00010382399)
(-0.0035942488 -0.013765548 -0.00048785758)
(-0.0025328766 -0.011514789 0.00032897479)
(-0.0016273951 -0.010782538 -0.00065485683)
(0.0016371864 -0.015421568 -0.0013624824)
(-0.0025900736 -0.018380299 -0.0001591317)
(0.00066245406 -0.012780492 -0.00044819014)
(0.0035074177 -0.01160328 -0.0011624641)
(0.0033119675 -0.01462598 -0.00088328415)
(-0.00096987956 -0.01657125 -0.00098800834)
(0.0010273052 -0.012303282 -0.0011767246)
(0.0030843024 -0.013825086 0.0010461955)
(0.0016125041 -0.014927141 0.0020412373)
(0.0018738755 -0.014820667 0.0022639403)
(0.0018583444 -0.015686024 0.0016034816)
(-7.8203044e-05 -0.019441734 0.0013478558)
(0.0010665784 -0.017855048 -0.0012249326)
(-0.00011806581 -0.016511255 -0.0015447694)
(0.00046898379 -0.017453592 -0.0015547568)
(-0.0024137884 -0.012460074 -0.00021368806)
(-0.00073979126 -0.011016524 0.00037094864)
(0.0025819293 -0.013312213 0.0020341204)
(0.002554746 -0.016846751 -0.0012542197)
(-0.0015427828 -0.015369706 -0.0034094214)
(0.0005168303 -0.013415437 -0.0033021822)
(-0.0016167873 -0.014227386 -0.004177581)
(-0.00066304583 -0.012071173 -0.0026163766)
(0.0025377462 -0.015701622 -0.0018781182)
(0.0011495541 -0.017109799 -0.0027480722)
(-0.0025372553 0.018226941 0.00089339228)
(-0.0049546028 0.017728081 0.00097510444)
(-0.0060643592 0.014799511 0.00020115101)
(-0.0016323839 0.0039746726 0.00017847416)
(-0.0024364779 0.0027030892 -0.0015656449)
(0.00012238432 0.014627445 -0.0029020522)
(-0.0034805909 0.019205846 -0.001479397)
(0.0021579886 -0.0027354161 0.0017055647)
(0.002543477 0.0040465861 0.00032571935)
(0.0064700752 0.015401909 -0.00014310778)
(-0.0014676925 0.017153172 -0.0011950851)
(-0.0024133983 0.0025685136 -0.0022604039)
(0.0044987167 0.014839297 0.00098297892)
(0.0039658841 0.01688249 0.00267126)
(0.0045485374 0.016747073 0.0033084007)
(0.0027625231 0.017642912 0.0030393015)
(-0.001691294 0.020239112 0.0013168212)
(0.002509325 0.017480988 -0.002742101)
(0.0033231188 0.018121469 -0.0034917039)
(-0.0032332119 0.018762784 -0.0018174293)
(-0.0055630759 0.014754132 -0.001424796)
(0.0025434201 0.00049653134 0.001055156)
(0.0032346008 0.0081456267 0.0027672998)
(0.0029558349 0.018172485 0.00079535591)
(-0.0041327106 0.016662531 -0.0026147061)
(0.0011842689 0.0091886253 -0.00096884224)
(-0.0012570186 0.015950203 -0.005111478)
(0.0032386315 0.00079094668 0.0011442667)
(0.004913671 0.012030223 0.0024754441)
(0.0056998738 0.018083351 0.0015499435)
(0.00037172551 0.0003303272 0.0015690037)
(0.0014593872 -0.0037564996 0.002330348)
(0.0045059031 -0.011694075 0.0026916867)
(0.0026900343 -0.014008012 0.0019495389)
(-0.004510219 -0.013663951 0.0022938858)
(-0.0024015383 -0.014053479 0.0014278725)
(0.005079322 -0.016823799 0.0021450161)
(0.0023768729 -0.015932599 0.0049798967)
(-0.0032471304 -0.012683825 0.0035774103)
(-0.0018583929 -0.0077701486 0.0030200595)
(0.0010935416 0.0016961327 -0.0017319682)
(-0.0011451347 -0.015675632 -0.0026563927)
(-0.0036003946 -0.014640892 -0.0040250667)
(0.0020406582 -0.0071872315 0.00021172876)
(-0.00030199358 -0.00074953743 0.00044456132)
(0.00048200408 0.0051761211 0.0010649102)
(0.00090589343 -0.014465774 -2.6033883e-05)
(-0.00022059028 -0.018231859 -0.00020527075)
(0.0019487574 0.0016276925 -0.00052709842)
(0.00053050701 0.0047488978 -0.00086154315)
(0.0053398851 -0.0093606927 -0.0012416346)
(0.0054207688 -0.014167248 -0.0008456389)
(-0.0025468288 -0.014010931 -0.0037976376)
(-0.00211775 -0.0015732326 -0.00077165744)
(0.00034527301 -0.012732709 0.001499418)
(0.0017869308 -0.014470716 0.0021948445)
(0.0048377254 -0.014196316 0.0039629407)
(0.0037430705 -0.015817539 0.0045119465)
(-0.0057171557 -0.015192056 0.0030240988)
(0.0027770194 0.0036547982 0.0020490672)
(0.0021347227 0.0083177613 0.0018443592)
(0.0048442058 0.0063129693 0.001613103)
(0.0047767963 0.0046250223 0.0014294773)
(0.002387624 0.0064348915 0.0011439153)
(-0.0010368471 0.0025156096 0.00034511368)
(-0.001599333 -0.001570555 -0.0015300189)
(0.0012568219 0.013760953 0.00033507144)
(-0.0026206992 0.0099953841 0.0027618088)
(-0.0027746494 0.0065677123 0.002442148)
(-0.0026593832 0.0093613351 0.0029651055)
(0.0017831385 0.0084455223 -0.0011863245)
(0.001891468 0.010191027 -0.0009484899)
(-0.00051917053 0.0024408554 -0.0031873471)
(0.00075835838 0.0078642739 -0.0013294987)
(-0.0013237089 0.0081182997 -0.0013219998)
(0.0024303616 0.0096620817 0.00096933072)
(0.0048367349 0.014056387 0.0011873696)
(-0.0051547534 0.011886334 -0.0011412846)
(-0.0030169618 0.009103682 0.0010250844)
(0.0017486254 0.0094282897 -0.0011733124)
(0.0046087804 0.010141571 8.4928137e-06)
(0.0024705513 0.0083709704 0.00016018255)
(0.00012456029 0.010840624 -0.0031146711)
(-0.0016719292 0.0074715332 -0.0011719006)
(0.0024647109 0.0019411082 0.0012873697)
(5.8297879e-05 -0.0020870003 0.0013101167)
(0.0026321893 0.0071085032 0.0029552684)
(0.0021045541 0.010794267 0.0020988653)
(-0.0048585869 0.011439007 0.002792545)
(-0.001533394 0.0082438271 0.0010164916)
(0.00011796504 -0.0083036166 3.8941078e-05)
(0.0013866463 -0.00981823 -0.0002773787)
(-0.00084124278 -0.010408684 0.0029454048)
(-0.0008063307 -0.007905007 0.0052545561)
(0.00012669432 -0.007148532 0.004752222)
(-0.0037777393 -0.010889381 0.0016073753)
(-0.0048005404 -0.011940404 -0.00072266035)
(-0.0014969519 -0.0099245132 -0.0021710912)
(-0.002129825 -0.011258293 -0.0021118755)
(-0.002520253 -0.0093217304 -2.2693972e-05)
(4.0720685e-05 -0.0015054331 -0.0018256919)
(0.0027037872 -0.0082388551 -0.0022082594)
(0.00035927654 -0.010655621 -0.0030598055)
(-0.0049471139 -0.0079661097 -0.00099628654)
(-0.003419735 -0.0017782781 -0.00058873281)
(-0.0032915405 0.0010356891 -0.00061148687)
(0.0024086909 0.00056927378 -0.00078323833)
(0.0028998304 -0.0028464779 -0.00015965111)
(0.0027297405 -0.0046821546 0.0018552792)
(0.0024455394 -0.00057257137 0.0010337886)
(0.0045733282 -0.0042742975 0.0015873831)
(0.0022463944 -0.010241262 0.0034752792)
(0.0018401813 -0.0064253524 0.0023980726)
(0.0033662155 -0.0068056295 0.003543889)
(0.003617764 -0.010278232 0.0033640412)
(-0.0036934263 -0.010373852 0.00083701181)
(-0.0064247265 -0.0086605851 -0.00036502903)
(-0.0047883582 -0.0042189305 -0.00060577806)
(-0.0040082891 -0.0044802246 -0.00036619531)
(-0.0010583079 -0.00032951947 -0.0013411604)
(-0.00057930281 -0.015553771 -0.0016638727)
(-0.0030336337 -0.01381698 -0.0010061259)
(-0.0046139947 -0.013218259 -0.0009159583)
(-0.0031197331 -0.011863408 0.00070339715)
(-0.0013585188 -0.011509467 0.0013883403)
(0.0011901208 -0.011864677 0.00093187097)
(0.0011091864 -0.012942527 0.00014361547)
(0.0025167988 -0.013347095 0.0014859327)
(0.0046654696 -0.012749742 0.001364617)
(0.0046154876 -0.013965393 0.0015471898)
(0.0019809404 -0.015903284 0.0010338815)
(0.0011371973 -0.01343549 0.002065689)
(0.0018384482 -0.014936173 -0.0010736308)
(0.0021639073 -0.011821034 -0.0035773081)
(0.0019140987 -0.016204724 -0.0039995462)
(0.00082308065 -0.017580169 -0.0027411565)
(-0.0024454321 -0.013162627 -0.0025096179)
(-0.001965833 -0.010667277 0.00084006235)
(0.0014012735 -0.018971241 -0.0010609014)
(-0.0015596176 -0.018418132 -0.0018671789)
(-0.0014033859 -0.011829805 -0.0023728135)
(-0.000488187 -0.013950435 -0.0025631273)
(-0.001027285 -0.012534745 -0.0042014124)
(0.0015541221 -0.013743919 -0.00019079072)
(0.0033394884 -0.017044242 -0.00048907288)
(0.001195529 -0.018021767 -0.00086061775)
(-0.0034307251 0.017394748 -0.00038235671)
(-0.0061125189 0.016458348 -0.0002865703)
(-0.0069064261 0.013524472 -0.00040450841)
(-0.0022611239 0.0026485138 0.0017346628)
(-0.00079874783 0.0012165694 0.0023660023)
(0.0022363986 0.0013713187 0.00018406559)
(0.00067090098 0.0077376533 0.00014224784)
(0.0032295016 0.0025878208 -0.00034775837)
(0.0047502961 0.0046222601 -0.00072064501)
(0.007860951 0.014449105 0.0008710975)
(0.0009457323 0.017452266 0.00097031831)
(-0.0026165136 0.010429885 0.00099376399)
(0.0018503243 0.0169044 -0.0023782182)
(0.00028706927 0.004189415 -0.002882262)
(0.0054858505 0.017207937 -0.0037720411)
(0.00092661134 0.019612462 -0.0039798614)
(-0.0040164194 0.01557141 -0.0027279579)
(0.0024934341 0.0023819984 0.0016834263)
(0.0018625326 0.018433843 0.0038735733)
(-0.0053745347 0.018514117 7.5039236e-05)
(-0.0022400545 0.005609303 0.00080358656)
(-0.0013352158 0.0099277468 -0.001734544)
(0.0018900029 0.006063782 -0.0016140226)
(0.0033366612 0.0023100355 0.0012534206)
(0.0081090135 0.015917179 0.002571979)
(0.0064527014 0.019207028 0.0016304215)
(0.00010152404 0.0035807102 0.0010927331)
(0.00094192946 -0.0017722152 0.0024800439)
(0.0044260425 -0.01366559 0.0045195838)
(0.0018308788 -0.014177918 0.0038578623)
(-0.00068662693 -0.013430405 0.0018819507)
(0.0009301614 -0.013915033 -0.0011739302)
(0.0020340079 -0.013437845 -0.0016325926)
(0.0035954834 -0.015483699 -0.0031946322)
(-0.0028832961 -0.01540148 -0.0033232115)
(4.3488665e-05 -0.0049384851 -0.0015736483)
(0.00074487131 0.0013104718 -0.00046996754)
(-4.1888946e-06 -0.014848766 -0.0032597408)
(-0.0040775734 -0.011296884 0.00022999273)
(-0.003025462 -0.01498375 -0.00051031757)
(-0.0018982442 -0.014377334 7.7401754e-05)
(0.0002135119 0.0042409867 -0.0032971057)
(0.0024372063 -0.014647942 -0.0015020805)
(-0.00048486338 -0.01389751 -0.00038397259)
(-0.0012809909 -0.001836022 0.0017581664)
(0.0001173129 -0.0096313055 0.00015070753)
(0.00088571252 -0.014613964 0.0028729479)
(0.0011956655 -0.013978574 0.0010185137)
(0.0049504952 -0.014499863 0.00070889651)
(2.8475368e-05 -0.016082537 0.0011000859)
(-0.0055066644 -0.013469006 0.00091900449)
(0.0036966883 0.0070147839 0.00057074237)
(0.0018155297 0.0088664365 0.0024825277)
(0.0042608397 0.0070211024 0.0043630455)
(0.0042453311 0.0086471938 0.0041062293)
(0.0014805995 0.0056931847 0.0024181455)
(0.0016763822 -0.0010019758 0.00072770539)
(0.0012007801 -0.0036596906 -0.001597175)
(0.00080462218 0.0019930169 -0.0011774389)
(0.001375608 0.010339822 0.0011389975)
(-0.0030041238 0.0097356903 0.0011579507)
(-0.0024298817 0.0075064329 -0.00092235632)
(0.0020998389 0.0082601164 -0.0010976872)