/*--------------------------------*- C++ -*----------------------------------*\
| =========                 |                                                 |
| \\      /  F ield         | OpenFOAM: The Open Source CFD Toolbox           |
|  \\    /   O peration     | Version:  v2012                                 |
|   \\  /    A nd           | Website:  www.openfoam.com                      |
|    \\/     M anipulation  |                                                 |
\*---------------------------------------------------------------------------*/
FoamFile
{
    version     2.0;
    format      ascii;
    class       volScalarField;
    location    "110/leftSolid";
    object      T;
}
// * * * * * * * * * * * * * * * * * * * * * * * * * * * * * * * * * * * * * //

dimensions      [0 0 0 1 0 0 0];


internalField   nonuniform List<scalar> 
130
(
617.20476
617.17188
617.10157
616.99685
616.86051
616.72325
616.58964
616.44784
616.28274
616.09286
615.90036
615.74185
615.64835
617.23968
617.20497
617.1404
617.0415
616.92256
616.78473
616.64279
616.48377
616.28851
616.05749
615.82318
615.62557
615.5006
617.23777
617.20695
617.14847
617.07103
616.98176
616.84264
616.68068
616.48745
616.23071
615.94034
615.62742
615.35799
615.19829
617.20421
617.19274
617.17201
617.12926
617.04463
616.90344
616.71616
616.48104
616.18295
615.82819
615.41994
615.06222
614.86647
617.17141
617.17472
617.17255
617.14405
617.06381
616.91592
616.71741
616.46604
616.15063
615.76829
615.31884
614.85202
614.55472
617.1667
617.16944
617.16703
617.13931
617.06038
616.91287
616.71517
616.46447
616.14942
615.76602
615.31164
614.84429
614.56922
617.19948
617.18793
617.16738
617.12678
617.04387
616.9006
616.71356
616.4798
616.18589
615.83715
615.43263
615.07591
614.86401
617.23541
617.20418
617.14659
617.07179
616.98606
616.84642
616.67744
616.48577
616.23765
615.96344
615.66182
615.40793
615.25257
617.2445
617.2095
617.14436
617.04619
616.93044
616.78936
616.64335
616.48763
616.30367
616.09112
615.85649
615.66485
615.54087
617.21205
617.17877
617.10841
617.00613
616.87432
616.73346
616.60018
616.46436
616.30803
616.1288
615.93295
615.77366
615.67986
)
;

boundaryField
{
    minX
    {
        type            zeroGradient;
    }
    minZ
    {
        type            zeroGradient;
    }
    maxZ
    {
        type            zeroGradient;
    }
    leftSolid_to_bottomWater
    {
        type            compressible::turbulentTemperatureCoupledBaffleMixed;
        refValue        nonuniform List<scalar> 
130
(
1014.9286
1014.726
1013.2546
1011.5704
1006.7579
1005.7088
1006.4081
1007.3964
1007.2252
1004.7738
1001.7601
999.34339
996.88361
1017.738
1016.3582
1015.911
1012.6485
1010.8603
1008.9067
1009.882
1011.2647
1010.9939
1006.6927
1003.0573
999.91994
994.30895
1016.8483
1015.2905
1012.2954
1010.1324
1013.8503
1010.3988
1010.5502
1012.6303
1007.287
1004.6453
997.29852
990.61954
986.02486
1013.3333
1012.9233
1014.3616
1016.4124
1017.0089
1015.3608
1013.8997
1012.9954
1009.8815
1006.39
992.24183
982.29969
983.26074
1011.1802
1012.8063
1015.2919
1017.4368
1018.026
1015.2064
1013.8282
1012.9837
1011.1736
1008.5508
1000.2658
975.23576
959.16244
1010.6121
1012.1358
1014.5041
1016.9213
1017.7329
1014.8424
1013.6082
1012.8796
1011.1246
1008.4057
998.39584
970.45176
960.64918
1013.0168
1012.6436
1014.0443
1016.5508
1017.5099
1015.0078
1013.9328
1012.9205
1009.8666
1006.4194
991.17598
980.56384
976.30277
1016.4538
1014.7055
1011.8663
1010.249
1014.6031
1011.2842
1009.4683
1011.7511
1006.4999
1005.2647
997.17793
992.97798
988.94417
1018.042
1016.6429
1015.9192
1012.392
1011.6194
1008.7592
1008.9884
1010.3602
1010.4034
1009.1645
1002.7809
1000.3194
994.28636
1015.3129
1014.9865
1013.2998
1011.7701
1008.1855
1005.8529
1006.6395
1008.1768
1008.1961
1006.9975
1002.3614
999.44302
996.64767
)
;
        refGradient     uniform 0;
        valueFraction   nonuniform List<scalar> 
130
(
0.0075140686
0.0075140686
0.0075140686
0.0075140686
0.0075140686
0.0075140686
0.0075140686
0.0075140686
0.0075140686
0.0075140686
0.0075140686
0.0075140686
0.0075140686
0.0075140686
0.0075140686
0.0075140686
0.0075140686
0.0075140686
0.0075140686
0.0075140686
0.0075140686
0.0075140686
0.0075140686
0.0075140686
0.0075140686
0.0075140686
0.0075140686
0.0075140686
0.0075140686
0.0075140686
0.0075140686
0.0075140686
0.0075140686
0.0075140686
0.0075140686
0.0075140686
0.0075140686
0.0075140686
0.0075140686
0.0075140686
0.0075140686
0.0075140686
0.0075140686
0.0075140686
0.0075140686
0.0075140686
0.0075140686
0.0075140686
0.0075140686
0.0075140686
0.0075140686
0.0075140686
0.0075140686
0.0075140686
0.0075140686
0.0075140686
0.0075140686
0.0075140686
0.0075140686
0.0075140686
0.0075140686
0.0075140686
0.0075140686
0.0075140686
0.0075140686
0.0075140686
0.0075140686
0.0075140686
0.0075140686
0.0075140686
0.0075140686
0.0075140686
0.0075140686
0.0075140686
0.0075140686
0.0075140686
0.0075140686
0.0075140686
0.0075140686
0.0075140686
0.0075140686
0.0075140686
0.0075140686
0.0075140686
0.0075140686
0.0075140686
0.0075140686
0.0075140686
0.0075140686
0.0075140686
0.0075140686
0.0075140686
0.0075140686
0.0075140686
0.0075140686
0.0075140686
0.0075140686
0.0075140686
0.0075140686
0.0075140686
0.0075140686
0.0075140686
0.0075140686
0.0075140686
0.0075140686
0.0075140686
0.0075140686
0.0075140686
0.0075140686
0.0075140686
0.0075140686
0.0075140686
0.0075140686
0.0075140686
0.0075140686
0.0075140686
0.0075140686
0.0075140686
0.0075140686
0.0075140686
0.0075140686
0.0075140686
0.0075140686
0.0075140686
0.0075140686
0.0075140686
0.0075140686
0.0075140686
0.0075140686
0.0075140686
)
;
        value           nonuniform List<scalar> 
130
(
620.16192
620.12777
620.04697
619.93044
619.75901
619.6149
619.48757
619.35432
619.18926
618.98252
618.76889
618.59346
618.48225
620.21772
620.17291
620.1055
619.98288
619.85145
619.69999
619.56647
619.41909
619.22335
618.96187
618.70207
618.48243
618.31629
620.20917
620.16688
620.08635
619.99327
619.93266
619.76868
619.6091
619.43303
619.13815
618.83021
618.46453
618.14699
617.95394
620.14946
620.13499
620.12523
620.09823
620.01875
619.86626
619.66946
619.42936
619.11019
618.73193
618.22054
617.79075
617.60357
620.1007
620.11615
620.13266
620.12052
620.04537
619.87743
619.6701
619.41431
619.08773
618.68863
618.1804
617.52915
617.11318
620.09177
620.10589
620.12127
620.11194
620.03975
619.87167
619.66622
619.41197
619.08616
618.68527
618.1592
617.48562
617.13895
620.14242
620.12813
620.11826
620.0968
620.02174
619.86078
619.66711
619.42756
619.11298
618.74106
618.22522
617.79153
617.54904
620.20387
620.15975
620.08128
619.99489
619.94256
619.77909
619.59777
619.42474
619.13912
618.8578
618.49783
618.21433
618.02979
620.22479
620.17955
620.10949
619.98561
619.86496
619.70348
619.5603
619.4161
619.23394
619.01379
618.73302
618.52441
618.35608
620.17202
620.13656
620.05409
619.94113
619.7834
619.62609
619.49975
619.37654
619.2216
619.03483
618.80568
618.62575
618.51175
)
;
        Tnbr            T;
        thicknessLayers List<scalar> 0();
        kappaLayers     List<scalar> 0();
        kappaMethod     solidThermo;
        kappa           none;
        alphaAni        none;
        alpha           none;
        field           T;
    }
    leftSolid_to_heater
    {
        type            compressible::turbulentTemperatureCoupledBaffleMixed;
        refValue        nonuniform List<scalar> 10(581.1919 576.0299 565.08864 547.03558 519.84831 519.81595 546.91234 565.00695 575.99388 581.1773);
        refGradient     uniform 0;
        valueFraction   nonuniform List<scalar> 10(2.08329e-05 2.08329e-05 2.08329e-05 2.08329e-05 2.08329e-05 2.08329e-05 2.08329e-05 2.08329e-05 2.08329e-05 2.08329e-05);
        value           nonuniform List<scalar> 10(615.61667 615.46884 615.16624 614.83378 614.52156 614.53628 614.83151 615.22056 615.5091 615.64818);
        Tnbr            T;
        thicknessLayers List<scalar> 1(0.001);
        kappaLayers     List<scalar> 1(0.0005);
        kappaMethod     solidThermo;
        kappa           none;
        alphaAni        none;
        alpha           none;
        field           T;
    }
    leftSolid_to_topAir
    {
        type            compressible::turbulentTemperatureCoupledBaffleMixed;
        refValue        nonuniform List<scalar> 
130
(
313.0406
325.2766
336.41381
346.68084
356.28973
365.39081
374.08532
382.41381
390.28014
397.5743
404.28136
410.35807
415.69389
313.03958
325.14135
336.02222
345.91382
355.01861
363.45812
371.30036
378.56355
385.22382
391.20243
396.37539
400.59764
403.68793
313.03909
325.1666
336.08009
346.01141
355.16788
363.67679
371.61362
379.01698
385.89868
392.24816
398.02023
403.14891
407.50383
313.03792
325.17304
336.10661
346.07229
355.28158
363.8732
371.94061
379.55137
386.75727
393.60087
400.11989
406.35245
412.27785
313.03641
325.1736
336.1134
346.08886
355.31172
363.92193
372.01529
379.66252
386.91945
393.83325
400.44523
406.79298
412.71412
313.03622
325.1732
336.11277
346.08801
355.31066
363.92062
372.01369
379.66054
386.91698
393.83008
400.44106
406.78753
412.70998
313.03773
325.17266
336.10605
346.07162
355.28085
363.87228
371.93945
379.54991
386.75553
393.59901
400.11822
406.35108
412.27645
313.03899
325.1664
336.07985
346.01123
355.16794
363.67708
371.61388
379.01723
385.89895
392.24889
398.02146
403.15082
407.50611
313.03977
325.14172
336.02276
345.91462
355.01983
363.45968
371.30207
378.56559
385.2268
391.20693
396.38101
400.60396
403.69409
313.04088
325.27716
336.41467
346.68216
356.2918
365.39357
374.08891
382.41855
390.28647
397.58255
404.29123
410.36929
415.70603
)
;
        refGradient     uniform 0;
        valueFraction   nonuniform List<scalar> 
130
(
0.00032132529
0.00032132529
0.00032132529
0.00032132529
0.00032132529
0.00032132529
0.00032132529
0.00032132529
0.00032132529
0.00032132529
0.00032132529
0.00032132529
0.00032132529
0.00032132529
0.00032132529
0.00032132529
0.00032132529
0.00032132529
0.00032132529
0.00032132529
0.00032132529
0.00032132529
0.00032132529
0.00032132529
0.00032132529
0.00032132529
0.00032132529
0.00032132529
0.00032132529
0.00032132529
0.00032132529
0.00032132529
0.00032132529
0.00032132529
0.00032132529
0.00032132529
0.00032132529
0.00032132529
0.00032132529
0.00032132529
0.00032132529
0.00032132529
0.00032132529
0.00032132529
0.00032132529
0.00032132529
0.00032132529
0.00032132529
0.00032132529
0.00032132529
0.00032132529
0.00032132529
0.00032132529
0.00032132529
0.00032132529
0.00032132529
0.00032132529
0.00032132529
0.00032132529
0.00032132529
0.00032132529
0.00032132529
0.00032132529
0.00032132529
0.00032132529
0.00032132529
0.00032132529
0.00032132529
0.00032132529
0.00032132529
0.00032132529
0.00032132529
0.00032132529
0.00032132529
0.00032132529
0.00032132529
0.00032132529
0.00032132529
0.00032132529
0.00032132529
0.00032132529
0.00032132529
0.00032132529
0.00032132529
0.00032132529
0.00032132529
0.00032132529
0.00032132529
0.00032132529
0.00032132529
0.00032132529
0.00032132529
0.00032132529
0.00032132529
0.00032132529
0.00032132529
0.00032132529
0.00032132529
0.00032132529
0.00032132529
0.00032132529
0.00032132529
0.00032132529
0.00032132529
0.00032132529
0.00032132529
0.00032132529
0.00032132529
0.00032132529
0.00032132529
0.00032132529
0.00032132529
0.00032132529
0.00032132529
0.00032132529
0.00032132529
0.00032132529
0.00032132529
0.00032132529
0.00032132529
0.00032132529
0.00032132529
0.00032132529
0.00032132529
0.00032132529
0.00032132529
0.00032132529
0.00032132529
0.00032132529
0.00032132529
)
;
        value           nonuniform List<scalar> 
130
(
617.07544
617.0465
616.97983
616.8785
616.74534
616.61105
616.4803
616.34128
616.17885
615.9915
615.80129
615.64484
615.55315
617.11038
617.07957
617.01855
616.92292
616.807
616.67193
616.53258
616.376
616.18303
615.95413
615.72162
615.52549
615.40161
617.10849
617.08158
617.02665
616.95246
616.8662
616.7299
616.57057
616.37985
616.12549
615.83735
615.52648
615.25883
615.10056
617.07496
617.06738
617.05018
617.01067
616.92905
616.7907
616.60611
616.37357
616.07797
615.72559
615.31967
614.96402
614.7701
617.04213
617.04929
617.05062
617.02537
616.94818
616.80313
616.60732
616.35854
616.04562
615.6657
615.21861
614.75413
614.45869
617.03744
617.04403
617.04512
617.02063
616.94474
616.80008
616.60508
616.35697
616.04441
615.66341
615.21141
614.74648
614.4734
617.07025
617.06259
617.04556
617.00818
616.92828
616.78785
616.6035
616.37232
616.08089
615.73456
615.33245
614.97794
614.76784
617.10615
617.07884
617.02479
616.95321
616.87048
616.73368
616.56734
616.37816
616.13242
615.86045
615.56094
615.30882
615.15486
617.11519
617.0841
617.02251
616.92761
616.81486
616.67656
616.53313
616.37984
616.19817
615.98772
615.7549
615.56476
615.44187
617.0827
617.05338
616.98666
616.88775
616.7591
616.62123
616.49081
616.35775
616.20408
616.02737
615.83379
615.67661
615.58465
)
;
        Tnbr            T;
        thicknessLayers List<scalar> 0();
        kappaLayers     List<scalar> 0();
        kappaMethod     solidThermo;
        kappa           none;
        alphaAni        none;
        alpha           none;
        field           T;
    }
}


// ************************************************************************* //
