/*--------------------------------*- C++ -*----------------------------------*\
| =========                 |                                                 |
| \\      /  F ield         | OpenFOAM: The Open Source CFD Toolbox           |
|  \\    /   O peration     | Version:  v2012                                 |
|   \\  /    A nd           | Website:  www.openfoam.com                      |
|    \\/     M anipulation  |                                                 |
\*---------------------------------------------------------------------------*/
FoamFile
{
    version     2.0;
    format      ascii;
    class       volScalarField;
    location    "30/topAir";
    object      p_rgh;
}
// * * * * * * * * * * * * * * * * * * * * * * * * * * * * * * * * * * * * * //

dimensions      [1 -1 -2 0 0 0 0];


internalField   nonuniform List<scalar> 
1200
(
100000.03
100000.03
100000.02
100000.02
100000.02
100000.02
100000.02
100000.01
100000.01
100000.01
100000.01
100000.01
100000.01
100000
100000
100000
100000
100000
99999.999
99999.998
99999.997
99999.997
99999.996
99999.996
99999.996
99999.995
99999.995
99999.996
99999.996
99999.997
100000.03
100000.03
100000.03
100000.03
100000.03
100000.03
100000.03
100000.03
100000.03
100000.03
100000.03
100000.03
100000.02
100000.02
100000.02
100000.02
100000.02
100000.01
100000.01
100000.01
100000.01
100000.01
100000
100000
100000
100000
100000
99999.999
99999.998
99999.997
100000.03
100000.03
100000.03
100000.03
100000.03
100000.03
100000.03
100000.03
100000.03
100000.03
100000.03
100000.03
100000.03
100000.03
100000.03
100000.03
100000.03
100000.02
100000.02
100000.02
100000.02
100000.01
100000.01
100000.01
100000
100000
100000
100000
99999.999
99999.997
100000.03
100000.03
100000.03
100000.03
100000.03
100000.03
100000.03
100000.03
100000.03
100000.03
100000.03
100000.03
100000.03
100000.03
100000.03
100000.03
100000.03
100000.03
100000.03
100000.03
100000.02
100000.02
100000.02
100000.01
100000.01
100000.01
100000.01
100000.01
100000
100000
100000.03
100000.03
100000.02
100000.02
100000.02
100000.02
100000.02
100000.01
100000.01
100000.01
100000.01
100000.01
100000.01
100000.01
100000.01
100000.01
100000
100000
100000
100000
100000
100000
100000
100000
100000
100000
100000
100000
99999.999
99999.998
100000.03
100000.03
100000.03
100000.03
100000.03
100000.03
100000.03
100000.03
100000.03
100000.03
100000.03
100000.03
100000.03
100000.03
100000.02
100000.02
100000.02
100000.02
100000.02
100000.02
100000.02
100000.02
100000.02
100000.02
100000.02
100000.02
100000.01
100000.01
100000.01
100000.01
100000.03
100000.03
100000.03
100000.03
100000.03
100000.03
100000.03
100000.03
100000.03
100000.03
100000.03
100000.03
100000.03
100000.03
100000.03
100000.03
100000.03
100000.03
100000.03
100000.03
100000.03
100000.02
100000.02
100000.02
100000.02
100000.02
100000.01
100000.01
100000.01
100000
100000.03
100000.03
100000.03
100000.03
100000.03
100000.03
100000.03
100000.03
100000.03
100000.03
100000.03
100000.03
100000.03
100000.03
100000.03
100000.03
100000.03
100000.03
100000.03
100000.03
100000.03
100000.03
100000.02
100000.02
100000.01
100000.01
100000.01
100000
100000
99999.999
100000.03
100000.03
100000.02
100000.02
100000.02
100000.02
100000.02
100000.01
100000.01
100000.01
100000.01
100000.01
100000.01
100000.01
100000.01
100000.01
100000
100000
100000
100000
100000
100000
100000
100000
100000
100000
100000
100000
100000
99999.999
100000.03
100000.03
100000.03
100000.03
100000.03
100000.03
100000.03
100000.03
100000.03
100000.03
100000.03
100000.03
100000.03
100000.03
100000.02
100000.02
100000.02
100000.02
100000.02
100000.02
100000.02
100000.02
100000.02
100000.02
100000.02
100000.02
100000.02
100000.02
100000.01
100000.01
100000.03
100000.03
100000.03
100000.03
100000.03
100000.03
100000.03
100000.03
100000.03
100000.03
100000.03
100000.03
100000.03
100000.03
100000.03
100000.03
100000.03
100000.03
100000.03
100000.03
100000.03
100000.03
100000.03
100000.03
100000.02
100000.02
100000.02
100000.02
100000.01
100000.01
100000.03
100000.03
100000.03
100000.03
100000.03
100000.03
100000.03
100000.03
100000.03
100000.03
100000.03
100000.03
100000.03
100000.03
100000.03
100000.03
100000.03
100000.03
100000.03
100000.03
100000.03
100000.03
100000.03
100000.03
100000.02
100000.02
100000.01
100000.01
100000
99999.998
100000.03
100000.03
100000.02
100000.02
100000.02
100000.02
100000.02
100000.01
100000.01
100000.01
100000.01
100000.01
100000.01
100000.01
100000.01
100000
100000
100000
100000
100000
100000
99999.999
99999.999
99999.998
99999.998
99999.998
99999.997
99999.997
99999.996
99999.996
100000.03
100000.03
100000.03
100000.03
100000.03
100000.03
100000.03
100000.03
100000.03
100000.03
100000.03
100000.03
100000.03
100000.03
100000.02
100000.02
100000.02
100000.02
100000.02
100000.02
100000.02
100000.02
100000.02
100000.02
100000.02
100000.02
100000.02
100000.02
100000.01
100000
100000.03
100000.03
100000.03
100000.03
100000.03
100000.03
100000.03
100000.03
100000.03
100000.03
100000.03
100000.03
100000.03
100000.03
100000.03
100000.03
100000.03
100000.03
100000.03
100000.03
100000.03
100000.03
100000.03
100000.03
100000.03
100000.03
100000.02
100000.02
100000.02
100000.01
100000.03
100000.03
100000.03
100000.03
100000.03
100000.03
100000.03
100000.03
100000.03
100000.03
100000.03
100000.03
100000.03
100000.03
100000.03
100000.03
100000.03
100000.03
100000.03
100000.03
100000.03
100000.03
100000.03
100000.03
100000.03
100000.02
100000.02
100000.02
100000.01
100000
100000.03
100000.03
100000.02
100000.02
100000.02
100000.02
100000.02
100000.01
100000.01
100000.01
100000.01
100000.01
100000.01
100000.01
100000.01
100000
100000
100000
100000
100000
100000
99999.999
99999.998
99999.997
99999.996
99999.995
99999.995
99999.994
99999.994
99999.994
100000.03
100000.03
100000.03
100000.03
100000.03
100000.03
100000.03
100000.03
100000.03
100000.03
100000.03
100000.03
100000.03
100000.03
100000.02
100000.02
100000.02
100000.02
100000.02
100000.02
100000.02
100000.02
100000.02
100000.02
100000.02
100000.02
100000.01
100000.01
100000.01
100000
100000.03
100000.03
100000.03
100000.03
100000.03
100000.03
100000.03
100000.03
100000.03
100000.03
100000.03
100000.03
100000.03
100000.03
100000.03
100000.03
100000.03
100000.03
100000.03
100000.03
100000.03
100000.03
100000.03
100000.03
100000.03
100000.03
100000.03
100000.02
100000.02
100000.01
100000.03
100000.03
100000.03
100000.03
100000.03
100000.03
100000.03
100000.03
100000.03
100000.03
100000.03
100000.03
100000.03
100000.03
100000.03
100000.03
100000.03
100000.03
100000.03
100000.03
100000.03
100000.03
100000.03
100000.03
100000.03
100000.03
100000.03
100000.02
100000.02
100000.01
100000.03
100000.03
100000.02
100000.02
100000.02
100000.02
100000.02
100000.01
100000.01
100000.01
100000.01
100000.01
100000.01
100000.01
100000.01
100000
100000
100000
100000
100000
100000
99999.999
99999.998
99999.997
99999.996
99999.995
99999.995
99999.994
99999.994
99999.994
100000.03
100000.03
100000.03
100000.03
100000.03
100000.03
100000.03
100000.03
100000.03
100000.03
100000.03
100000.03
100000.03
100000.03
100000.02
100000.02
100000.02
100000.02
100000.02
100000.02
100000.02
100000.02
100000.02
100000.02
100000.02
100000.02
100000.01
100000.01
100000.01
100000
100000.03
100000.03
100000.03
100000.03
100000.03
100000.03
100000.03
100000.03
100000.03
100000.03
100000.03
100000.03
100000.03
100000.03
100000.03
100000.03
100000.03
100000.03
100000.03
100000.03
100000.03
100000.03
100000.03
100000.03
100000.03
100000.03
100000.03
100000.02
100000.02
100000.01
100000.03
100000.03
100000.03
100000.03
100000.03
100000.03
100000.03
100000.03
100000.03
100000.03
100000.03
100000.03
100000.03
100000.03
100000.03
100000.03
100000.03
100000.03
100000.03
100000.03
100000.03
100000.03
100000.03
100000.03
100000.03
100000.03
100000.03
100000.02
100000.02
100000.01
100000.03
100000.03
100000.02
100000.02
100000.02
100000.02
100000.02
100000.01
100000.01
100000.01
100000.01
100000.01
100000.01
100000.01
100000.01
100000
100000
100000
100000
100000
100000
99999.999
99999.999
99999.998
99999.998
99999.998
99999.997
99999.997
99999.996
99999.996
100000.03
100000.03
100000.03
100000.03
100000.03
100000.03
100000.03
100000.03
100000.03
100000.03
100000.03
100000.03
100000.03
100000.03
100000.02
100000.02
100000.02
100000.02
100000.02
100000.02
100000.02
100000.02
100000.02
100000.02
100000.02
100000.02
100000.02
100000.02
100000.01
100000
100000.03
100000.03
100000.03
100000.03
100000.03
100000.03
100000.03
100000.03
100000.03
100000.03
100000.03
100000.03
100000.03
100000.03
100000.03
100000.03
100000.03
100000.03
100000.03
100000.03
100000.03
100000.03
100000.03
100000.03
100000.03
100000.03
100000.02
100000.02
100000.02
100000.01
100000.03
100000.03
100000.03
100000.03
100000.03
100000.03
100000.03
100000.03
100000.03
100000.03
100000.03
100000.03
100000.03
100000.03
100000.03
100000.03
100000.03
100000.03
100000.03
100000.03
100000.03
100000.03
100000.03
100000.03
100000.03
100000.02
100000.02
100000.02
100000.01
100000
100000.03
100000.03
100000.02
100000.02
100000.02
100000.02
100000.02
100000.01
100000.01
100000.01
100000.01
100000.01
100000.01
100000.01
100000.01
100000.01
100000
100000
100000
100000
100000
100000
100000
100000
100000
100000
100000
100000
100000
99999.999
100000.03
100000.03
100000.03
100000.03
100000.03
100000.03
100000.03
100000.03
100000.03
100000.03
100000.03
100000.03
100000.03
100000.03
100000.02
100000.02
100000.02
100000.02
100000.02
100000.02
100000.02
100000.02
100000.02
100000.02
100000.02
100000.02
100000.02
100000.02
100000.01
100000.01
100000.03
100000.03
100000.03
100000.03
100000.03
100000.03
100000.03
100000.03
100000.03
100000.03
100000.03
100000.03
100000.03
100000.03
100000.03
100000.03
100000.03
100000.03
100000.03
100000.03
100000.03
100000.03
100000.03
100000.03
100000.02
100000.02
100000.02
100000.02
100000.01
100000.01
100000.03
100000.03
100000.03
100000.03
100000.03
100000.03
100000.03
100000.03
100000.03
100000.03
100000.03
100000.03
100000.03
100000.03
100000.03
100000.03
100000.03
100000.03
100000.03
100000.03
100000.03
100000.03
100000.03
100000.03
100000.02
100000.02
100000.01
100000.01
100000
99999.998
100000.03
100000.03
100000.02
100000.02
100000.02
100000.02
100000.02
100000.01
100000.01
100000.01
100000.01
100000.01
100000.01
100000.01
100000.01
100000.01
100000
100000
100000
100000
100000
100000
100000
100000
100000
100000
100000
100000
99999.999
99999.998
100000.03
100000.03
100000.03
100000.03
100000.03
100000.03
100000.03
100000.03
100000.03
100000.03
100000.03
100000.03
100000.03
100000.03
100000.02
100000.02
100000.02
100000.02
100000.02
100000.02
100000.02
100000.02
100000.02
100000.02
100000.02
100000.02
100000.01
100000.01
100000.01
100000.01
100000.03
100000.03
100000.03
100000.03
100000.03
100000.03
100000.03
100000.03
100000.03
100000.03
100000.03
100000.03
100000.03
100000.03
100000.03
100000.03
100000.03
100000.03
100000.03
100000.03
100000.03
100000.02
100000.02
100000.02
100000.02
100000.02
100000.01
100000.01
100000.01
100000
100000.03
100000.03
100000.03
100000.03
100000.03
100000.03
100000.03
100000.03
100000.03
100000.03
100000.03
100000.03
100000.03
100000.03
100000.03
100000.03
100000.03
100000.03
100000.03
100000.03
100000.03
100000.03
100000.02
100000.02
100000.01
100000.01
100000.01
100000
100000
99999.999
100000.03
100000.03
100000.02
100000.02
100000.02
100000.02
100000.02
100000.01
100000.01
100000.01
100000.01
100000.01
100000.01
100000
100000
100000
100000
100000
99999.999
99999.998
99999.997
99999.997
99999.996
99999.996
99999.996
99999.995
99999.995
99999.996
99999.996
99999.997
100000.03
100000.03
100000.03
100000.03
100000.03
100000.03
100000.03
100000.03
100000.03
100000.03
100000.03
100000.03
100000.02
100000.02
100000.02
100000.02
100000.02
100000.01
100000.01
100000.01
100000.01
100000.01
100000
100000
100000
100000
100000
99999.999
99999.998
99999.997
100000.03
100000.03
100000.03
100000.03
100000.03
100000.03
100000.03
100000.03
100000.03
100000.03
100000.03
100000.03
100000.03
100000.03
100000.03
100000.03
100000.03
100000.02
100000.02
100000.02
100000.02
100000.01
100000.01
100000.01
100000
100000
100000
100000
99999.999
99999.997
100000.03
100000.03
100000.03
100000.03
100000.03
100000.03
100000.03
100000.03
100000.03
100000.03
100000.03
100000.03
100000.03
100000.03
100000.03
100000.03
100000.03
100000.03
100000.03
100000.03
100000.02
100000.02
100000.02
100000.01
100000.01
100000.01
100000.01
100000.01
100000
100000
)
;

boundaryField
{
    maxY
    {
        type            fixedFluxPressure;
        gradient        nonuniform List<scalar> 
300
(
-5.1674971e-05
-5.1674971e-05
-5.1674971e-05
-5.1674971e-05
-5.1674971e-05
-5.1674971e-05
-5.1674971e-05
-5.1674971e-05
-5.1674971e-05
-5.1674971e-05
-5.1674899e-05
-5.1674902e-05
-5.1674902e-05
-5.1674901e-05
-5.1674901e-05
-5.1674901e-05
-5.1674901e-05
-5.1674902e-05
-5.1674902e-05
-5.1674899e-05
-5.1674727e-05
-5.1674741e-05
-5.167474e-05
-5.1674739e-05
-5.1674739e-05
-5.1674739e-05
-5.1674739e-05
-5.167474e-05
-5.1674741e-05
-5.1674727e-05
-5.1674393e-05
-5.1674439e-05
-5.1674436e-05
-5.1674434e-05
-5.1674432e-05
-5.1674432e-05
-5.1674434e-05
-5.1674436e-05
-5.1674439e-05
-5.1674393e-05
-5.167382e-05
-5.1673936e-05
-5.1673935e-05
-5.1673929e-05
-5.1673925e-05
-5.1673925e-05
-5.1673929e-05
-5.1673935e-05
-5.1673936e-05
-5.167382e-05
-5.1672918e-05
-5.167317e-05
-5.1673175e-05
-5.1673162e-05
-5.1673155e-05
-5.1673155e-05
-5.1673162e-05
-5.1673175e-05
-5.167317e-05
-5.1672918e-05
-5.1671583e-05
-5.1672069e-05
-5.1672092e-05
-5.167207e-05
-5.1672057e-05
-5.1672057e-05
-5.167207e-05
-5.1672092e-05
-5.167207e-05
-5.1671583e-05
-5.1669693e-05
-5.1670561e-05
-5.167062e-05
-5.1670585e-05
-5.1670563e-05
-5.1670563e-05
-5.1670585e-05
-5.167062e-05
-5.1670561e-05
-5.1669693e-05
-5.1667093e-05
-5.1668562e-05
-5.1668694e-05
-5.166864e-05
-5.1668604e-05
-5.1668604e-05
-5.166864e-05
-5.1668694e-05
-5.1668562e-05
-5.1667093e-05
-5.1663598e-05
-5.1665987e-05
-5.1666246e-05
-5.1666169e-05
-5.1666114e-05
-5.1666114e-05
-5.1666169e-05
-5.1666246e-05
-5.1665987e-05
-5.1663598e-05
-5.1658971e-05
-5.1662739e-05
-5.1663213e-05
-5.1663105e-05
-5.1663023e-05
-5.1663023e-05
-5.1663105e-05
-5.1663213e-05
-5.1662739e-05
-5.1658971e-05
-5.1652889e-05
-5.1658703e-05
-5.1659529e-05
-5.1659387e-05
-5.1659262e-05
-5.1659262e-05
-5.1659387e-05
-5.1659529e-05
-5.1658703e-05
-5.1652889e-05
-5.1644518e-05
-5.1653712e-05
-5.1655132e-05
-5.1654951e-05
-5.1654755e-05
-5.1654755e-05
-5.1654951e-05
-5.1655132e-05
-5.1653712e-05
-5.1644518e-05
-5.1632289e-05
-5.1647479e-05
-5.1649956e-05
-5.1649744e-05
-5.1649433e-05
-5.1649433e-05
-5.1649744e-05
-5.1649956e-05
-5.1647479e-05
-5.1632289e-05
-5.1612269e-05
-5.1639384e-05
-5.1643912e-05
-5.1643713e-05
-5.1643232e-05
-5.1643232e-05
-5.1643713e-05
-5.1643912e-05
-5.1639384e-05
-5.1612269e-05
-5.1570829e-05
-5.1627685e-05
-5.1636831e-05
-5.163681e-05
-5.1636094e-05
-5.1636094e-05
-5.163681e-05
-5.1636831e-05
-5.1627685e-05
-5.157083e-05
-5.1482454e-05
-5.1607796e-05
-5.1628258e-05
-5.1628981e-05
-5.1627965e-05
-5.1627965e-05
-5.1628981e-05
-5.1628258e-05
-5.1607796e-05
-5.1482455e-05
-5.1301065e-05
-5.1568132e-05
-5.1616867e-05
-5.1620131e-05
-5.161879e-05
-5.161879e-05
-5.1620131e-05
-5.1616867e-05
-5.1568132e-05
-5.1301067e-05
-5.0961429e-05
-5.1482476e-05
-5.1598749e-05
-5.1610004e-05
-5.1608509e-05
-5.1608509e-05
-5.1610004e-05
-5.1598749e-05
-5.1482477e-05
-5.0961434e-05
-5.0406651e-05
-5.1302356e-05
-5.1563285e-05
-5.159778e-05
-5.1597043e-05
-5.1597043e-05
-5.159778e-05
-5.1563285e-05
-5.1302359e-05
-5.0406659e-05
-4.9632766e-05
-5.0962475e-05
-5.1485496e-05
-5.1580789e-05
-5.1584236e-05
-5.1584236e-05
-5.1580789e-05
-5.1485497e-05
-5.0962479e-05
-4.9632777e-05
-4.8702906e-05
-5.0410705e-05
-5.1317635e-05
-5.1550978e-05
-5.1569638e-05
-5.1569638e-05
-5.1550978e-05
-5.1317637e-05
-5.0410711e-05
-4.8702919e-05
-4.7711885e-05
-4.9645954e-05
-5.0990599e-05
-5.1486778e-05
-5.1551678e-05
-5.1551678e-05
-5.1486779e-05
-5.0990602e-05
-4.9645961e-05
-4.7711898e-05
-4.6742044e-05
-4.8725289e-05
-5.0437318e-05
-5.1339591e-05
-5.1524709e-05
-5.1524709e-05
-5.1339592e-05
-5.0437323e-05
-4.8725296e-05
-4.6742057e-05
-4.5843036e-05
-4.7730932e-05
-4.9631976e-05
-5.1024055e-05
-5.146993e-05
-5.1469929e-05
-5.1024056e-05
-4.9631981e-05
-4.7730938e-05
-4.5843046e-05
-4.5031e-05
-4.6730755e-05
-4.8612729e-05
-5.0435946e-05
-5.1334583e-05
-5.1334582e-05
-5.0435947e-05
-4.8612732e-05
-4.6730757e-05
-4.5031009e-05
-4.4291812e-05
-4.5759955e-05
-4.7463018e-05
-4.9512065e-05
-5.1008098e-05
-5.1008095e-05
-4.9512063e-05
-4.7463017e-05
-4.5759954e-05
-4.4291818e-05
-4.3576844e-05
-4.4845017e-05
-4.6277684e-05
-4.8293065e-05
-5.034511e-05
-5.03451e-05
-4.8293057e-05
-4.6277678e-05
-4.4845011e-05
-4.3576846e-05
-4.2782922e-05
-4.3934885e-05
-4.5091268e-05
-4.6887784e-05
-4.9271415e-05
-4.9271392e-05
-4.6887767e-05
-4.5091255e-05
-4.3934874e-05
-4.2782921e-05
-4.1815859e-05
-4.2980312e-05
-4.3913179e-05
-4.5432982e-05
-4.7945212e-05
-4.7945174e-05
-4.5432956e-05
-4.3913159e-05
-4.2980297e-05
-4.1815854e-05
)
;
        value           nonuniform List<scalar> 
300
(
100000.03
100000.03
100000.03
100000.03
100000.03
100000.03
100000.03
100000.03
100000.03
100000.03
100000.03
100000.03
100000.03
100000.03
100000.03
100000.03
100000.03
100000.03
100000.03
100000.03
100000.03
100000.03
100000.03
100000.03
100000.03
100000.03
100000.03
100000.03
100000.03
100000.03
100000.03
100000.03
100000.03
100000.03
100000.03
100000.03
100000.03
100000.03
100000.03
100000.03
100000.03
100000.03
100000.03
100000.03
100000.03
100000.03
100000.03
100000.03
100000.03
100000.03
100000.03
100000.03
100000.03
100000.03
100000.03
100000.03
100000.03
100000.03
100000.03
100000.03
100000.03
100000.03
100000.03
100000.03
100000.03
100000.03
100000.03
100000.03
100000.03
100000.03
100000.03
100000.03
100000.03
100000.03
100000.03
100000.03
100000.03
100000.03
100000.03
100000.03
100000.03
100000.03
100000.03
100000.03
100000.03
100000.03
100000.03
100000.03
100000.03
100000.03
100000.03
100000.03
100000.03
100000.03
100000.03
100000.03
100000.03
100000.03
100000.03
100000.03
100000.03
100000.03
100000.03
100000.03
100000.03
100000.03
100000.03
100000.03
100000.03
100000.03
100000.03
100000.03
100000.03
100000.03
100000.03
100000.03
100000.03
100000.03
100000.03
100000.03
100000.03
100000.03
100000.03
100000.03
100000.03
100000.03
100000.03
100000.03
100000.03
100000.03
100000.03
100000.03
100000.03
100000.03
100000.03
100000.03
100000.03
100000.03
100000.03
100000.03
100000.03
100000.03
100000.03
100000.03
100000.03
100000.03
100000.03
100000.03
100000.03
100000.03
100000.03
100000.03
100000.03
100000.03
100000.03
100000.03
100000.03
100000.03
100000.03
100000.03
100000.03
100000.03
100000.03
100000.03
100000.03
100000.03
100000.03
100000.03
100000.03
100000.03
100000.03
100000.03
100000.03
100000.03
100000.03
100000.03
100000.03
100000.03
100000.03
100000.03
100000.03
100000.03
100000.03
100000.03
100000.03
100000.03
100000.03
100000.03
100000.03
100000.03
100000.03
100000.03
100000.03
100000.03
100000.03
100000.03
100000.03
100000.03
100000.03
100000.03
100000.02
100000.03
100000.03
100000.03
100000.03
100000.03
100000.03
100000.03
100000.03
100000.02
100000.02
100000.03
100000.03
100000.03
100000.03
100000.03
100000.03
100000.03
100000.03
100000.02
100000.02
100000.02
100000.03
100000.03
100000.03
100000.03
100000.03
100000.03
100000.02
100000.02
100000.01
100000.02
100000.03
100000.03
100000.03
100000.03
100000.03
100000.03
100000.02
100000.01
100000.01
100000.01
100000.02
100000.03
100000.03
100000.03
100000.03
100000.02
100000.01
100000.01
100000.01
100000.01
100000.02
100000.02
100000.03
100000.03
100000.02
100000.02
100000.01
100000.01
100000.01
100000.01
100000.01
100000.02
100000.03
100000.03
100000.02
100000.01
100000.01
100000.01
100000.01
100000
100000.01
100000.02
100000.02
100000.02
100000.02
100000.01
100000
100000.01
100000
100000
100000
100000.01
100000.02
100000.02
100000.01
100000
100000
100000
100000
99999.999
99999.998
100000
100000.01
100000.01
100000
99999.998
99999.999
100000
)
;
    }
    minX
    {
        type            fixedFluxPressure;
        gradient        nonuniform List<scalar> 
40
(
0.61105109
0.022589531
0.00070732036
2.2283693e-05
0.61108844
0.022565839
0.00070491996
2.2077011e-05
0.61120453
0.022574802
0.00070542268
2.2106804e-05
0.61131556
0.022580745
0.00070569223
2.2122583e-05
0.6111559
0.022575754
0.00070558815
2.2123133e-05
0.6111559
0.022575754
0.00070558815
2.2123133e-05
0.61131556
0.022580745
0.00070569224
2.2122583e-05
0.61120454
0.022574802
0.00070542268
2.2106804e-05
0.61108845
0.022565839
0.00070491998
2.2077011e-05
0.61105111
0.022589531
0.00070732035
2.2283692e-05
)
;
        value           nonuniform List<scalar> 
40
(
100000.03
100000.03
100000.03
100000.03
100000.03
100000.03
100000.03
100000.03
100000.03
100000.03
100000.03
100000.03
100000.03
100000.03
100000.03
100000.03
100000.03
100000.03
100000.03
100000.03
100000.03
100000.03
100000.03
100000.03
100000.03
100000.03
100000.03
100000.03
100000.03
100000.03
100000.03
100000.03
100000.03
100000.03
100000.03
100000.03
100000.03
100000.03
100000.03
100000.03
)
;
    }
    maxX
    {
        type            fixedValue;
        value           uniform 100000;
    }
    minZ
    {
        type            fixedFluxPressure;
        gradient        uniform 0;
        value           nonuniform List<scalar> 
120
(
100000.03
100000.03
100000.03
100000.03
100000.03
100000.03
100000.03
100000.03
100000.02
100000.03
100000.03
100000.03
100000.02
100000.03
100000.03
100000.03
100000.02
100000.03
100000.03
100000.03
100000.02
100000.03
100000.03
100000.03
100000.02
100000.03
100000.03
100000.03
100000.01
100000.03
100000.03
100000.03
100000.01
100000.03
100000.03
100000.03
100000.01
100000.03
100000.03
100000.03
100000.01
100000.03
100000.03
100000.03
100000.01
100000.03
100000.03
100000.03
100000.01
100000.02
100000.03
100000.03
100000
100000.02
100000.03
100000.03
100000
100000.02
100000.03
100000.03
100000
100000.02
100000.03
100000.03
100000
100000.02
100000.03
100000.03
100000
100000.01
100000.02
100000.03
99999.999
100000.01
100000.02
100000.03
99999.998
100000.01
100000.02
100000.03
99999.997
100000.01
100000.02
100000.02
99999.997
100000.01
100000.01
100000.02
99999.996
100000
100000.01
100000.02
99999.996
100000
100000.01
100000.01
99999.996
100000
100000
100000.01
99999.995
100000
100000
100000.01
99999.995
100000
100000
100000.01
99999.996
99999.999
100000
100000.01
99999.996
99999.998
99999.999
100000
99999.997
99999.997
99999.997
100000
)
;
    }
    maxZ
    {
        type            fixedFluxPressure;
        gradient        uniform 0;
        value           nonuniform List<scalar> 
120
(
100000.03
100000.03
100000.03
100000.03
100000.03
100000.03
100000.03
100000.03
100000.02
100000.03
100000.03
100000.03
100000.02
100000.03
100000.03
100000.03
100000.02
100000.03
100000.03
100000.03
100000.02
100000.03
100000.03
100000.03
100000.02
100000.03
100000.03
100000.03
100000.01
100000.03
100000.03
100000.03
100000.01
100000.03
100000.03
100000.03
100000.01
100000.03
100000.03
100000.03
100000.01
100000.03
100000.03
100000.03
100000.01
100000.03
100000.03
100000.03
100000.01
100000.02
100000.03
100000.03
100000
100000.02
100000.03
100000.03
100000
100000.02
100000.03
100000.03
100000
100000.02
100000.03
100000.03
100000
100000.02
100000.03
100000.03
100000
100000.01
100000.02
100000.03
99999.999
100000.01
100000.02
100000.03
99999.998
100000.01
100000.02
100000.03
99999.997
100000.01
100000.02
100000.02
99999.997
100000.01
100000.01
100000.02
99999.996
100000
100000.01
100000.02
99999.996
100000
100000.01
100000.01
99999.996
100000
100000
100000.01
99999.995
100000
100000
100000.01
99999.995
100000
100000
100000.01
99999.996
99999.999
100000
100000.01
99999.996
99999.998
99999.999
100000
99999.997
99999.997
99999.997
100000
)
;
    }
    topAir_to_rightSolid
    {
        type            fixedFluxPressure;
        gradient        nonuniform List<scalar> 
130
(
-2.7263148
-2.7005091
-2.688509
-2.689447
-2.7025308
-2.7257084
-2.7566571
-2.7903506
-2.8210625
-2.8415543
-2.8421857
-2.8072286
-2.7303729
-3.0950767
-3.1267174
-3.1687376
-3.2167273
-3.2667924
-3.3157343
-3.3623554
-3.4036428
-3.4342781
-3.445192
-3.4189092
-3.3284343
-3.222662
-2.9568856
-2.9894057
-3.0380508
-3.1016207
-3.1818371
-3.2780948
-3.3863411
-3.4983718
-3.5990658
-3.6702854
-3.6861342
-3.5997205
-3.3925358
-2.6901058
-2.689855
-2.6802873
-2.6651188
-2.6519042
-2.6485112
-2.6625098
-2.6964077
-2.7434209
-2.7837719
-2.7743672
-2.6929706
-2.584281
-2.6067066
-2.6492233
-2.6458038
-2.6169195
-2.5749301
-2.5280783
-2.4817696
-2.4375642
-2.3950906
-2.3523932
-2.3037988
-2.2387735
-2.1531564
-2.606707
-2.6492229
-2.6458031
-2.6169189
-2.5749296
-2.5280778
-2.4817692
-2.4375639
-2.3950905
-2.3523933
-2.3037993
-2.2387737
-2.1531564
-2.6901057
-2.6898543
-2.6802863
-2.6651179
-2.6519034
-2.6485103
-2.6625088
-2.696407
-2.7434207
-2.7837725
-2.7743687
-2.6929726
-2.5842834
-2.9568849
-2.9894048
-3.0380502
-3.1016202
-3.1818368
-3.2780948
-3.3863415
-3.498373
-3.599068
-3.6702892
-3.6861396
-3.5997276
-3.3925433
-3.0950754
-3.1267163
-3.168737
-3.2167271
-3.2667925
-3.3157347
-3.3623561
-3.403644
-3.43428
-3.445195
-3.4189138
-3.3284404
-3.2226695
-2.7263116
-2.7005081
-2.6885091
-2.6894474
-2.7025313
-2.7257088
-2.7566576
-2.7903512
-2.8210637
-2.8415566
-2.8421899
-2.8072361
-2.7303859
)
;
        value           nonuniform List<scalar> 
130
(
99999.989
99999.988
99999.987
99999.986
99999.986
99999.985
99999.985
99999.984
99999.984
99999.984
99999.984
99999.985
99999.986
99999.992
99999.991
99999.99
99999.99
99999.989
99999.989
99999.988
99999.988
99999.987
99999.987
99999.986
99999.985
99999.985
99999.992
99999.991
99999.991
99999.99
99999.99
99999.99
99999.99
99999.989
99999.989
99999.988
99999.988
99999.987
99999.985
99999.992
99999.991
99999.99
99999.989
99999.989
99999.988
99999.988
99999.987
99999.987
99999.986
99999.986
99999.985
99999.985
99999.992
99999.991
99999.99
99999.989
99999.989
99999.988
99999.987
99999.986
99999.986
99999.985
99999.985
99999.985
99999.986
99999.992
99999.991
99999.99
99999.989
99999.989
99999.988
99999.987
99999.986
99999.986
99999.985
99999.985
99999.985
99999.986
99999.992
99999.991
99999.99
99999.989
99999.989
99999.988
99999.988
99999.987
99999.987
99999.986
99999.986
99999.985
99999.985
99999.992
99999.991
99999.991
99999.99
99999.99
99999.99
99999.99
99999.989
99999.989
99999.988
99999.988
99999.987
99999.985
99999.992
99999.991
99999.99
99999.99
99999.989
99999.989
99999.988
99999.988
99999.987
99999.987
99999.986
99999.985
99999.985
99999.989
99999.988
99999.987
99999.986
99999.986
99999.985
99999.985
99999.984
99999.984
99999.984
99999.984
99999.985
99999.986
)
;
    }
    topAir_to_heater
    {
        type            fixedFluxPressure;
        gradient        nonuniform List<scalar> 
40
(
-2.9934076
-2.9009371
-2.8252591
-2.7667015
-3.1704205
-3.1158931
-3.0855419
-3.0790942
-3.0462386
-2.9857162
-2.9504529
-2.9414284
-2.8218746
-2.745308
-2.6978394
-2.6827216
-2.5491656
-2.455318
-2.4274435
-2.4828015
-2.549168
-2.4553205
-2.427446
-2.4828037
-2.8218767
-2.7453092
-2.6978401
-2.6827216
-3.0462381
-2.9857155
-2.9504523
-2.9414276
-3.1704158
-3.1158899
-3.0855402
-3.0790934
-2.9933952
-2.9009318
-2.8252586
-2.7667047
)
;
        value           nonuniform List<scalar> 
40
(
99999.993
99999.992
99999.991
99999.99
99999.994
99999.993
99999.993
99999.992
99999.995
99999.994
99999.993
99999.993
99999.995
99999.994
99999.994
99999.993
99999.996
99999.996
99999.995
99999.994
99999.996
99999.996
99999.995
99999.994
99999.995
99999.994
99999.994
99999.993
99999.995
99999.994
99999.993
99999.993
99999.994
99999.993
99999.993
99999.992
99999.993
99999.992
99999.991
99999.99
)
;
    }
    topAir_to_leftSolid
    {
        type            fixedFluxPressure;
        gradient        nonuniform List<scalar> 
130
(
-5.7166203
-5.4000244
-5.1131821
-4.8504577
-4.6082278
-4.3831194
-4.1735837
-3.979402
-3.8019301
-3.6388013
-3.4887602
-3.3503531
-3.2235791
-5.7176567
-5.4046005
-5.1243814
-4.8710486
-4.6399358
-4.4282883
-4.2345478
-4.0584666
-3.8993897
-3.7550598
-3.6247585
-3.5083799
-3.4065596
-5.7182765
-5.4042999
-5.1228546
-4.8689468
-4.6368108
-4.4236148
-4.2285268
-4.0517845
-3.8906096
-3.7428674
-3.6074059
-3.4832554
-3.3732507
-5.7188992
-5.4044842
-5.1220974
-4.8668862
-4.6329628
-4.4179098
-4.2200141
-4.0391446
-3.8736329
-3.7203904
-3.5774001
-3.4431851
-3.3193471
-5.7177531
-5.4033511
-5.121219
-4.8659452
-4.6322131
-4.4165601
-4.2172673
-4.0340713
-3.8664703
-3.7118223
-3.5674204
-3.4318245
-3.305725
-5.7177531
-5.4033511
-5.121219
-4.8659452
-4.6322132
-4.4165601
-4.2172674
-4.0340712
-3.8664701
-3.711822
-3.5674201
-3.4318245
-3.305725
-5.7188992
-5.4044842
-5.1220974
-4.8668862
-4.6329628
-4.4179098
-4.220014
-4.0391445
-3.8736328
-3.7203902
-3.5773997
-3.4431846
-3.3193468
-5.7182766
-5.4042999
-5.1228546
-4.8689468
-4.6368108
-4.4236148
-4.2285268
-4.0517845
-3.8906096
-3.7428673
-3.6074056
-3.483255
-3.3732502
-5.7176568
-5.4046006
-5.1243814
-4.8710486
-4.6399358
-4.4282882
-4.2345477
-4.0584665
-3.8993896
-3.7550596
-3.6247582
-3.5083795
-3.4065591
-5.7166205
-5.4000245
-5.1131822
-4.8504577
-4.6082279
-4.3831195
-4.1735839
-3.9794022
-3.8019303
-3.6388015
-3.4887604
-3.3503532
-3.2235793
)
;
        value           nonuniform List<scalar> 
130
(
100000.01
100000.01
100000
100000
100000
100000
100000
99999.998
99999.997
99999.996
99999.995
99999.994
99999.993
100000.01
100000.01
100000
100000
100000
100000
100000
99999.999
99999.998
99999.997
99999.996
99999.995
99999.994
100000.01
100000.01
100000
100000
100000
100000
100000
99999.999
99999.998
99999.997
99999.996
99999.995
99999.994
100000.01
100000.01
100000
100000
100000
100000
100000
99999.999
99999.998
99999.997
99999.996
99999.995
99999.994
100000.01
100000.01
100000
100000
100000
100000
100000