/*--------------------------------*- C++ -*----------------------------------*\
| =========                 |                                                 |
| \\      /  F ield         | OpenFOAM: The Open Source CFD Toolbox           |
|  \\    /   O peration     | Version:  v2012                                 |
|   \\  /    A nd           | Website:  www.openfoam.com                      |
|    \\/     M anipulation  |                                                 |
\*---------------------------------------------------------------------------*/
FoamFile
{
    version     2.0;
    format      ascii;
    class       volVectorField;
    location    "30/topAir";
    object      U;
}
// * * * * * * * * * * * * * * * * * * * * * * * * * * * * * * * * * * * * * //

dimensions      [0 1 -1 0 0 0 0];


internalField   nonuniform List<vector> 
1200
(
(0.098797498 -0.00010949748 0.00082470077)
(0.10120448 -0.00013047147 0.0012357045)
(0.10289205 -0.00022818044 0.0013729846)
(0.10368888 -0.00023318805 0.0013892824)
(0.1042098 -0.00012779537 0.0013317621)
(0.10469635 4.6364194e-05 0.0012030006)
(0.10515475 0.00025827118 0.00099585561)
(0.10558026 0.00048658735 0.00069470959)
(0.10596817 0.00071829933 0.00027128589)
(0.10635065 0.00097827489 -0.00028708828)
(0.10683149 0.0012933928 -0.00099646986)
(0.10747662 0.0016823013 -0.0019006476)
(0.10830795 0.0021718475 -0.0030658709)
(0.10935108 0.0027692329 -0.0045679195)
(0.11062835 0.0035504507 -0.0064830026)
(0.11211179 0.0045578173 -0.0088667833)
(0.11371164 0.0058313637 -0.011750923)
(0.11528442 0.0073773904 -0.015126231)
(0.1166682 0.0091518118 -0.018925141)
(0.11773034 0.011061073 -0.023015237)
(0.1184046 0.012978867 -0.027207871)
(0.11869898 0.014775542 -0.03128015)
(0.11866758 0.016348097 -0.034999867)
(0.11835402 0.017636664 -0.038140062)
(0.1177178 0.018636477 -0.040480544)
(0.1165302 0.019426684 -0.041781523)
(0.11419895 0.020244018 -0.041728713)
(0.10945235 0.021698662 -0.039843479)
(0.10039496 0.025149597 -0.035340961)
(0.063969708 0.034837502 -0.026437387)
(0.099120018 -0.00058660398 0.00084318623)
(0.099392538 -0.00089180104 0.001279678)
(0.099497994 -0.001122561 0.0014710068)
(0.099323214 -0.0011831506 0.0015785251)
(0.09914491 -0.001092475 0.0016487241)
(0.099096041 -0.00091228246 0.0016879831)
(0.099161897 -0.00068747435 0.0017004504)
(0.099309641 -0.0004411847 0.0016913714)
(0.099559402 -0.00016130853 0.0016618639)
(0.099938826 0.00018816857 0.0016009571)
(0.10047527 0.0006575897 0.001493025)
(0.10121923 0.0013049927 0.0013134751)
(0.10220044 0.0022065661 0.0010253909)
(0.10346845 0.00343021 0.00056991845)
(0.10506144 0.0051384598 -0.00014485505)
(0.10711392 0.0074107648 -0.0011966736)
(0.10964837 0.010364533 -0.002687245)
(0.11256526 0.014044895 -0.0046970018)
(0.11565645 0.018368065 -0.007247136)
(0.11864094 0.023110948 -0.010269202)
(0.12123501 0.02795213 -0.0135956)
(0.12322509 0.032557635 -0.016983476)
(0.12449028 0.036671919 -0.02015376)
(0.12496479 0.040163949 -0.022811346)
(0.12455103 0.043044938 -0.02464823)
(0.12297752 0.045514228 -0.025302174)
(0.11960557 0.04807717 -0.024240443)
(0.11315402 0.051846415 -0.020546862)
(0.10262435 0.058789516 -0.012797798)
(0.067087785 0.070297 0.0021347241)
(0.099194838 -0.0016273808 0.0008531085)
(0.099410151 -0.0023653261 0.0012979215)
(0.099091132 -0.0026276102 0.0014965003)
(0.098223767 -0.0027232256 0.0016106869)
(0.097170634 -0.0027310859 0.0016907944)
(0.096108607 -0.0026771436 0.001748103)
(0.095053921 -0.0025875476 0.001793111)
(0.093988708 -0.0024763392 0.0018396224)
(0.092914717 -0.0023250253 0.0019030196)
(0.091847265 -0.0021261441 0.0019964091)
(0.090805 -0.0018638425 0.0021332427)
(0.089817698 -0.0015125088 0.002325217)
(0.088988701 -0.0010047844 0.0025722906)
(0.088429416 -0.00024827885 0.0028682237)
(0.088271051 0.000932104 0.0032004133)
(0.088568859 0.0027793545 0.0035378471)
(0.08959134 0.0055331697 0.0037776709)
(0.09151697 0.0094263599 0.0037861617)
(0.094384951 0.014570439 0.0034421093)
(0.098012075 0.020815177 0.0026979623)
(0.10200147 0.027711934 0.0016284049)
(0.10586668 0.034636211 0.00041869812)
(0.10915923 0.040992454 -0.00070078118)
(0.11150478 0.046370336 -0.0014793793)
(0.11255569 0.050602095 -0.0016628036)
(0.11190282 0.053785871 -0.00093208698)
(0.10898553 0.056384099 0.0011704803)
(0.10285978 0.059535657 0.0053716053)
(0.093557093 0.065632799 0.013077481)
(0.058303372 0.078153211 0.027117513)
(0.097107611 -0.0011697894 0.00082437203)
(0.095675111 -0.001658064 0.0012369626)
(0.093121987 -0.0017863845 0.0014020757)
(0.089804888 -0.0018070129 0.0014804837)
(0.086383044 -0.0017797729 0.0015247621)
(0.083081263 -0.0017124345 0.001546287)
(0.079897746 -0.0016155723 0.0015550545)
(0.076807306 -0.0014996838 0.0015645662)
(0.073804142 -0.001368317 0.0015894701)
(0.070886592 -0.0012252323 0.0016454217)
(0.068043316 -0.0010740186 0.0017502935)
(0.06524675 -0.00092561974 0.0019266425)
(0.062461732 -0.00078420526 0.0022061615)
(0.059663148 -0.00062896261 0.0026290588)
(0.056874074 -0.00037001206 0.0032398666)
(0.054295622 0.00017872326 0.0040935513)
(0.052044805 0.001177176 0.005305449)
(0.050427862 0.0028972027 0.0069960245)
(0.049880577 0.0056907002 0.0092263405)
(0.050802759 0.0097685428 0.011927845)
(0.053295821 0.014949335 0.014897542)
(0.057023989 0.020657096 0.017903579)
(0.061337085 0.026200841 0.020802132)
(0.065469203 0.03104708 0.023587435)
(0.068647384 0.034926286 0.026378783)
(0.070112334 0.037846548 0.02942063)
(0.069135707 0.040159297 0.033126919)
(0.065158262 0.042811356 0.038075359)
(0.061352028 0.048344052 0.04453999)
(0.054317526 0.061272812 0.051271988)
(0.10006161 -8.9490797e-05 0.0010562688)
(0.10336015 -9.6795867e-05 0.0015855737)
(0.10634593 -0.00020608687 0.0017685391)
(0.10862822 -0.00025365974 0.0018012926)
(0.11059854 -0.00023370837 0.001745483)
(0.11243372 -0.00019482945 0.0016057955)
(0.11413013 -0.00016836368 0.0013782597)
(0.11566761 -0.00016851746 0.0010529053)
(0.11706161 -0.00020306184 0.00060712845)
(0.11833309 -0.00028287399 2.587919e-05)
(0.11948116 -0.00042279795 -0.0007170188)
(0.12049185 -0.00063973528 -0.0016775425)
(0.12133381 -0.00093715581 -0.002907428)
(0.1220094 -0.0013629997 -0.0044666383)
(0.12256702 -0.001928694 -0.0064084298)
(0.12304962 -0.0026410081 -0.0087572781)
(0.12347773 -0.0035037588 -0.011513845)
(0.12387023 -0.0045008617 -0.014642826)
(0.12425315 -0.0055903385 -0.018065284)
(0.12466101 -0.0066998748 -0.021661997)
(0.12513259 -0.0077314021 -0.025286388)
(0.1257049 -0.0085859024 -0.028779516)
(0.12641289 -0.0091959617 -0.031980088)
(0.12727982 -0.0095349582 -0.034728475)
(0.12830276 -0.0095894049 -0.036838244)
(0.12942934 -0.0092712201 -0.038066961)
(0.1304684 -0.0082403076 -0.038103446)
(0.13093627 -0.0055470509 -0.0366004)
(0.12982183 0.00081650062 -0.03325858)
(0.11387662 0.017078755 -0.026633835)
(0.10044032 -0.00057342262 0.0011008437)
(0.10168925 -0.00088465304 0.0016969958)
(0.10321609 -0.0011552985 0.001964747)
(0.10468576 -0.0012958473 0.0021136513)
(0.10614242 -0.0013360779 0.0022098966)
(0.10765797 -0.0013443464 0.0022632252)
(0.10922009 -0.0013652831 0.0022790127)
(0.11079456 -0.0014223265 0.0022644478)
(0.11236757 -0.0015308739 0.0022233305)
(0.1139408 -0.0017123727 0.00214492)
(0.11551669 -0.0019956731 0.0020139828)
(0.1170966 -0.0024131867 0.001808768)
(0.11868569 -0.0029889088 0.0015006855)
(0.12027518 -0.0037992096 0.0010505764)
(0.12186376 -0.0048850731 0.00040204017)
(0.12339797 -0.0062435438 -0.00049192743)
(0.12485817 -0.0078676636 -0.001684819)
(0.1262408 -0.0097117163 -0.0032110177)
(0.1275561 -0.011672763 -0.0050668493)
(0.12883579 -0.013583046 -0.0071960369)
(0.13012718 -0.0152239 -0.0094882578)
(0.13147513 -0.016374538 -0.011786969)
(0.13292045 -0.016892624 -0.013902916)
(0.13449642 -0.016744608 -0.015617762)
(0.13624351 -0.01600064 -0.016642203)
(0.13830987 -0.014723174 -0.016561634)
(0.14113342 -0.012822159 -0.014747442)
(0.14560453 -0.0097720537 -0.010237768)
(0.15553155 -0.004109787 -0.00164742)
(0.17856808 0.011632565 0.010456758)
(0.10051587 -0.0016501545 0.0011083788)
(0.10170689 -0.0024018767 0.0017118925)
(0.10281453 -0.0026786209 0.0019921203)
(0.10360902 -0.0028020778 0.0021580009)
(0.10422557 -0.0028552207 0.0022788003)
(0.1047814 -0.0028660581 0.0023688907)
(0.10529577 -0.0028624013 0.0024402448)
(0.10575459 -0.0028679843 0.00250893)
(0.10615012 -0.002900829 0.0025917056)
(0.10648036 -0.0029798845 0.0027013711)
(0.10674062 -0.0031271201 0.0028492)
(0.10692164 -0.0033685495 0.0030426202)
(0.10701173 -0.0037345655 0.0032833884)
(0.1069945 -0.0042658103 0.0035734474)
(0.10685286 -0.0049936418 0.003920822)
(0.10658067 -0.0059553676 0.004333854)
(0.1062018 -0.007177234 0.0047855693)
(0.10577416 -0.0086635692 0.0052542618)
(0.10539398 -0.010372258 0.0057531618)
(0.10518719 -0.012181178 0.0063667495)
(0.1052883 -0.013858702 0.007248272)
(0.10580165 -0.015089728 0.0085829427)
(0.10679251 -0.015597462 0.01052473)
(0.10819925 -0.015265593 0.013172781)
(0.10982923 -0.014148996 0.016668837)
(0.11145768 -0.01237632 0.021256397)
(0.11289173 -0.010002695 0.027318233)
(0.11336018 -0.0064037691 0.036109842)
(0.11352068 -0.0006986312 0.049113324)
(0.11124552 0.0075608378 0.066028081)
(0.098370969 -0.0011947095 0.0010788052)
(0.097855561 -0.0017062676 0.0016615935)
(0.096658424 -0.0018568782 0.0019242213)
(0.09491869 -0.0019035377 0.0020689991)
(0.09306274 -0.0019062771 0.0021651447)
(0.09125367 -0.0018744485 0.0022278355)
(0.089494549 -0.0018212645 0.0022698564)
(0.087765832 -0.0017610995 0.0023083568)
(0.08606088 -0.001704824 0.0023612094)
(0.08437668 -0.0016617677 0.0024460765)
(0.082703893 -0.0016420644 0.0025818604)
(0.081023552 -0.0016593775 0.0027913078)
(0.079306292 -0.0017329043 0.0031052087)
(0.0775109 -0.0018874677 0.0035611806)
(0.075580522 -0.0021493788 0.0041990513)
(0.073447221 -0.0025453472 0.0050760691)
(0.07103768 -0.0031024709 0.0063276167)
(0.068314665 -0.0038094197 0.0081596957)
(0.065322 -0.0045462891 0.010859071)
(0.062238788 -0.0050183219 0.014758896)
(0.059400673 -0.0047845293 0.020095661)
(0.057208802 -0.003462164 0.026823656)
(0.055920488 -0.00098829621 0.034563822)
(0.055439732 0.0022623897 0.042787617)
(0.055293961 0.0057301085 0.05111535)
(0.054847549 0.0089521176 0.059494709)
(0.053448543 0.011847144 0.068196151)
(0.05083794 0.014574516 0.077200997)
(0.047779837 0.017937602 0.086843119)
(0.040526893 0.022385595 0.095620514)
(0.099938127 -9.5752429e-05 0.00040584044)
(0.1030267 -0.00010356859 0.00069548704)
(0.10592458 -0.00020555783 0.00086062081)
(0.10824237 -0.00023656025 0.00095117827)
(0.11029949 -0.0001912783 0.00099567649)
(0.11223581 -0.00011898518 0.001000976)
(0.11404048 -5.180656e-05 0.00097051715)
(0.11568787 -3.9518733e-06 0.00090876352)
(0.11717551 1.5699325e-05 0.00081965266)
(0.11850776 -2.0277907e-06 0.00070017286)
(0.11966872 -6.484803e-05 0.0005415511)
(0.12065443 -0.00016674855 0.00032861152)
(0.12144794 -0.00031085877 5.817391e-05)
(0.1220313 -0.00056156478 -0.00028678038)
(0.12244438 -0.00091169705 -0.00072479306)
(0.12271439 -0.0013775242 -0.0012608427)
(0.12283952 -0.0019852285 -0.0018887371)
(0.12282215 -0.0027665671 -0.0026063953)
(0.12268041 -0.0037615423 -0.0034258517)
(0.1224614 -0.0050148737 -0.0043791542)
(0.12225476 -0.0065696111 -0.0055212723)
(0.12219755 -0.0084435477 -0.0069232546)
(0.12245962 -0.010593262 -0.0086473689)
(0.12322322 -0.012880694 -0.010703622)
(0.12465107 -0.015056384 -0.012994225)
(0.12683283 -0.016754061 -0.01529773)
(0.12970569 -0.017406624 -0.01732699)
(0.13284772 -0.0158541 -0.018875558)
(0.13517908 -0.0092402882 -0.020153604)
(0.12367625 0.0097787098 -0.02220807)
(0.10031601 -0.00057275432 0.00041658252)
(0.10134798 -0.00087595768 0.00072765517)
(0.10278769 -0.0011305409 0.00091939012)
(0.10431271 -0.001244981 0.0010434693)
(0.10589589 -0.0012488803 0.0011301242)
(0.10757125 -0.0012109935 0.0011865674)
(0.10931848 -0.0011760419 0.001214137)
(0.11109884 -0.0011663708 0.0012142616)
(0.1128873 -0.0011972373 0.0011862746)
(0.11467024 -0.0012844508 0.0011242557)
(0.11643478 -0.0014433838 0.0010180325)
(0.11817267 -0.0016759823 0.00085451798)
(0.11988345 -0.0019984789 0.0006199147)
(0.12154212 -0.0024914908 0.00029682891)
(0.12311679 -0.0031615673 -0.00014110937)
(0.12457704 -0.0040446705 -0.00073693748)
(0.12588539 -0.0051829523 -0.0015352966)
(0.12700547 -0.0066228758 -0.0025880262)
(0.12790517 -0.0084139973 -0.0039534163)
(0.12856712 -0.010592584 -0.0056912694)
(0.12900424 -0.013173618 -0.0078480337)
(0.12928332 -0.016102502 -0.010425595)
(0.12953002 -0.019210522 -0.013337663)
(0.12992958 -0.02222541 -0.016374973)
(0.13073831 -0.02478409 -0.019203846)
(0.13231137 -0.026481812 -0.021431883)
(0.13528377 -0.026814192 -0.022727373)
(0.14109664 -0.024806898 -0.023039784)
(0.15420946 -0.018080198 -0.022926976)
(0.19132755 -0.001011247 -0.023114416)
(0.10039288 -0.0016460378 0.00041984955)
(0.10137174 -0.0023942212 0.00073446291)
(0.10239838 -0.0026607429 0.00093330317)
(0.10325721 -0.0027692948 0.0010683243)
(0.10401583 -0.0028037884 0.001170355)
(0.1047578 -0.0027915427 0.0012478788)
(0.10549925 -0.0027587194 0.0013046567)
(0.10622774 -0.0027269833 0.0013458186)
(0.10693419 -0.0027119145 0.0013762841)
(0.10761459 -0.0027270629 0.0013986762)
(0.10826372 -0.0027863613 0.0014131284)
(0.10887334 -0.0029043712 0.0014169888)
(0.10943248 -0.0031035752 0.0014045409)
(0.10992058 -0.00342156 0.0013670145)
(0.11030322 -0.0038889859 0.0012896479)
(0.11053626 -0.0045506228 0.0011459963)
(0.11056624 -0.005459724 0.00089191722)
(0.11033322 -0.0066814893 0.00046049251)
(0.10979033 -0.0082872866 -0.00024273976)
(0.1089083 -0.010336475 -0.0013287865)
(0.10771673 -0.012860844 -0.0028595603)
(0.10635831 -0.01580886 -0.004752356)
(0.10503457 -0.018995765 -0.0066903221)
(0.10402267 -0.022095671 -0.008109095)
(0.10365793 -0.024721961 -0.0083016198)
(0.10426195 -0.026552019 -0.0065086002)
(0.1062908 -0.027352911 -0.0017929104)
(0.11054601 -0.026980944 0.0073163349)
(0.11989985 -0.025683276 0.022428373)
(0.14294805 -0.025120733 0.045999471)
(0.098250627 -0.0011890564 0.00040896705)
(0.097524027 -0.0016943413 0.0007105166)
(0.096245003 -0.0018373349 0.00089623664)
(0.0945685 -0.001876717 0.0010173123)
(0.09285472 -0.0018724342 0.0011051215)
(0.09123231 -0.0018330375 0.0011692072)
(0.089700394 -0.0017712311 0.0012146237)
(0.088240649 -0.0017010603 0.001248227)
(0.08684556 -0.0016327903 0.0012774604)
(0.085512072 -0.0015739412 0.0013089334)
(0.084234719 -0.0015312338 0.0013486425)
(0.08300411 -0.0015118755 0.0014029831)
(0.081806913 -0.0015256201 0.0014800195)
(0.080623169 -0.0015872801 0.0015902216)
(0.079421172 -0.0017152309 0.0017465403)
(0.078154649 -0.0019340308 0.0019675462)
(0.076762089 -0.0022786637 0.0022861227)
(0.075168875 -0.0027962158 0.0027545272)
(0.073295257 -0.0035403949 0.0034604092)
(0.071071344 -0.0045579635 0.0045710257)
(0.068474791 -0.0058161824 0.0064045775)
(0.065581085 -0.0071367675 0.0094699483)
(0.06258443 -0.0081611482 0.014382733)
(0.059777168 -0.0084077354 0.021628892)
(0.057434152 -0.0075607001 0.031331281)
(0.055616441 -0.0056807544 0.043235496)
(0.053998435 -0.0031342165 0.056961996)
(0.051721025 -0.00055198222 0.072242549)
(0.048048424 0.0011124571 0.089698085)
(0.028945194 -0.0018586608 0.11009584)
(0.09991397 -9.3149378e-05 0.00022470667)
(0.10292979 -9.6043627e-05 0.00042009276)
(0.10574459 -0.00019072339 0.00056223048)
(0.10799919 -0.00021027114 0.00065608067)
(0.11001437 -0.00014709477 0.00071439915)
(0.11192222 -4.8523139e-05 0.0007457617)
(0.11370709 5.5054505e-05 0.00075495764)
(0.11534024 0.00015267688 0.00074492298)
(0.11681627 0.00024140858 0.00071759012)
(0.11814019 0.00032134122 0.00067432216)
(0.11931418 0.00039598564 0.00061907572)
(0.12033362 0.0004747444 0.00056996259)
(0.12115559 0.0005722027 0.00052819397)
(0.12175078 0.00060065394 0.00046865951)
(0.12217554 0.00060834318 0.0003796912)
(0.12250455 0.00060701124 0.00028081998)
(0.12277073 0.00059758477 0.0002190442)
(0.12297783 0.00058087864 0.00025616311)
(0.12312911 0.00054873085 0.00045504827)
(0.12323995 0.00048100506 0.00086824328)
(0.12334005 0.00034445027 0.0015287151)
(0.12347505 9.1574538e-05 0.0024324366)
(0.12371161 -0.00033390717 0.0035132657)
(0.12413849 -0.00097451803 0.0046218988)
(0.12483888 -0.0018001436 0.0055165069)
(0.12578887 -0.0025876598 0.0058922421)
(0.12663197 -0.0026969103 0.0054334831)
(0.12613703 -0.0006847113 0.003798365)
(0.12148489 0.0064303784 -0.00023403373)
(0.080057888 0.030206366 -0.0089120881)
(0.10029206 -0.0005708296 0.00023153217)
(0.10124719 -0.00086896922 0.0004399024)
(0.10259548 -0.0011140852 0.00059737541)
(0.10404912 -0.0012122774 0.00070788778)
(0.10558338 -0.0011902748 0.00078406096)
(0.10722342 -0.0011139884 0.00083392203)
(0.10894428 -0.0010248957 0.00086091618)
(0.11070554 -0.00093978953 0.00086674465)
(0.11248011 -0.00086469582 0.00085174706)
(0.11425355 -0.00080206611 0.00081450055)
(0.11601677 -0.00075155186 0.0007524917)
(0.11776573 -0.00070816444 0.00066328109)
(0.11949978 -0.0006653585 0.00054734609)
(0.12119326 -0.00071768424 0.00040876466)
(0.12281331 -0.00082220533 0.00023534427)
(0.1243546 -0.00097571559 5.315609e-06)
(0.12581517 -0.0011919436 -0.0003012702)
(0.12718592 -0.0014864881 -0.00070245097)
(0.12845898 -0.0018873759 -0.0012131789)
(0.12963111 -0.0024475168 -0.0018546801)
(0.13070226 -0.003235266 -0.0026615773)
(0.13167369 -0.0043373303 -0.0036919487)
(0.13255887 -0.005840686 -0.0050317458)
(0.13340913 -0.0077795506 -0.0067799782)
(0.13435098 -0.010021801 -0.009018756)
(0.135627 -0.012090572 -0.0117844)
(0.13764589 -0.012890234 -0.015146473)
(0.14126256 -0.010090727 -0.019544681)
(0.15053969 0.002164381 -0.025800473)
(0.16396996 0.03350832 -0.032683355)
(0.10036949 -0.0016441298 0.00023282625)
(0.10127339 -0.0023908209 0.00044237093)
(0.10221075 -0.0026533742 0.00060271221)
(0.10299996 -0.0027541889 0.00071804307)
(0.10371176 -0.0027766393 0.000800984)
(0.10442242 -0.0027468391 0.00085973679)
(0.10514556 -0.002688764 0.00089837829)
(0.10586965 -0.0026208804 0.00091981415)
(0.10658634 -0.002554056 0.00092626682)
(0.10729258 -0.002495172 0.00091865212)
(0.10798589 -0.0024500907 0.00089624926)
(0.10866323 -0.0024252714 0.0008563566)
(0.10932153 -0.0024313796 0.00079602995)
(0.10995039 -0.0024896043 0.00071495776)
(0.11052708 -0.0026069471 0.00061045843)
(0.11102744 -0.0027940813 0.00047477464)
(0.11142989 -0.0030746167 0.0002978186)
(0.11170593 -0.0034807754 6.8104099e-05)
(0.11180902 -0.0040554617 -0.00022835158)
(0.11168938 -0.0048725264 -0.00062301102)
(0.11129709 -0.0060242083 -0.0011643248)
(0.11057693 -0.0076247736 -0.0019352256)
(0.10951561 -0.0097880919 -0.0030371297)
(0.10822443 -0.012563541 -0.0044787501)
(0.10703556 -0.015818279 -0.0060601736)
(0.10658852 -0.019112605 -0.0072761378)
(0.10803647 -0.021671937 -0.0073793498)
(0.11375921 -0.022419695 -0.0055571585)
(0.12914869 -0.019820155 -0.00033000803)
(0.17991853 -0.012079394 0.0086853524)
(0.098227213 -0.0011908047 0.00022653678)
(0.097426402 -0.0016984628 0.00042783932)
(0.096058961 -0.0018423426 0.00057936132)
(0.094313383 -0.0018807391 0.00068513767)
(0.09255381 -0.0018736014 0.00075790158)
(0.090901875 -0.0018290086 0.00080644202)
(0.089353918 -0.001758924 0.0008356934)
(0.087892011 -0.0016765465 0.00084961659)
(0.086508675 -0.0015909148 0.00085183702)
(0.085200391 -0.0015076366 0.00084514936)
(0.083962146 -0.0014307044 0.00083135614)
(0.082786903 -0.0013635933 0.00081160107)
(0.081666141 -0.0013108282 0.00078715987)
(0.080587495 -0.0012801477 0.00076072147)
(0.079531066 -0.0012798089 0.00073666913)
(0.078471577 -0.0013187877 0.00072067841)
(0.077381795 -0.0014131115 0.00072313097)
(0.076229392 -0.0015910154 0.00076294253)
(0.074972815 -0.0018955109 0.00086949072)
(0.0735624 -0.0023828681 0.0010840088)
(0.071939052 -0.0031454637 0.0014696816)
(0.070038142 -0.0042977054 0.0021409801)
(0.067819172 -0.0059369526 0.0033495328)
(0.065330528 -0.008034811 0.0056333237)
(0.062799913 -0.010284014 0.0099061288)
(0.060704611 -0.012047684 0.017311299)
(0.059733042 -0.012629653 0.028802481)
(0.060430003 -0.011965431 0.044856901)
(0.063877611 -0.011428765 0.066633243)
(0.062099195 -0.01521634 0.097154194)
(0.099900459 -9.3980851e-05 6.6295409e-05)
(0.10287947 -9.7662932e-05 0.00012315235)
(0.10565008 -0.00019273176 0.0001627254)
(0.10786922 -0.00021154114 0.00018611021)
(0.10986168 -0.00014541442 0.00019797568)
(0.11175605 -4.1101705e-05 0.0002021204)
(0.11353324 7.1299824e-05 0.00020073857)
(0.11516322 0.00018117995 0.00019523406)
(0.11664098 0.00028642628 0.00018691879)
(0.11797362 0.00038810981 0.00017743251)
(0.11916956 0.0004890173 0.00016953799)
(0.12021793 0.00059676426 0.00016926474)
(0.12103348 0.00073981934 0.00017598363)
(0.12157552 0.00078737646 0.00016743934)
(0.12194586 0.00080448749 0.00013442556)
(0.12225116 0.00080914054 8.5501728e-05)
(0.12253972 0.0008173846 3.3623247e-05)
(0.12282353 0.00086053085 -1.317925e-06)
(0.12309404 0.0009534015 8.2303759e-07)
(0.12334913 0.0011094717 5.5203998e-05)
(0.12360934 0.0013425164 0.0001760982)
(0.12391375 0.001665228 0.00038201154)
(0.12430773 0.002089384 0.0006952158)
(0.12482043 0.0026313126 0.0011312267)
(0.12540776 0.003335695 0.001673787)
(0.12579885 0.0043547486 0.0022358135)
(0.12510911 0.0061623117 0.0026017594)
(0.12104548 0.01012443 0.0022925816)
(0.11044779 0.020014523 0.00025790185)
(0.044583665 0.047811013 -0.0042655059)
(0.10027848 -0.00057132848 6.8198306e-05)
(0.10119445 -0.00086938197 0.00012880108)
(0.10249333 -0.0011131762 0.00017263574)
(0.10390533 -0.0012078947 0.00020025129)
(0.10541052 -0.0011789783 0.00021610889)
(0.10703042 -0.0010914759 0.00022382455)
(0.10873642 -0.00098615799 0.00022525132)
(0.11048654 -0.0008789128 0.00022135659)
(0.1122531 -0.00077422946 0.0002126904)
(0.11402124 -0.00067276805 0.00019943832)
(0.11578079 -0.00057346775 0.00018135644)
(0.11753617 -0.00046136742 0.00015715818)
(0.1193065 -0.00030201498 0.00012967827)
(0.12105441 -0.00024304148 0.00010815208)
(0.12272462 -0.0002241094 8.8243806e-05)
(0.12430418 -0.00022868918 6.2191517e-05)
(0.12579404 -0.00024368089 1.7538702e-05)
(0.12720699 -0.0002425245 -5.7315658e-05)
(0.12855879 -0.00021879171 -0.00016807351)
(0.12986287 -0.00017113905 -0.00032104389)
(0.13113913 -0.0001005856 -0.00052694995)
(0.13241564 -1.3610605e-05 -0.00080192662)
(0.13372529 7.8922528e-05 -0.0011717082)
(0.13509635 0.00017835653 -0.0016817514)
(0.13652991 0.00036309828 -0.0024133285)
(0.13795218 0.001004997 -0.0034944966)
(0.13921045 0.0033750004 -0.005103557)
(0.1399678 0.010604826 -0.0074480709)
(0.14066074 0.028188672 -0.010524031)
(0.11853868 0.066119517 -0.014830407)
(0.10035606 -0.001643589 6.8420872e-05)
(0.10122152 -0.0023900644 0.00012917289)
(0.10211035 -0.0026513036 0.00017365734)
(0.10285858 -0.0027490025 0.00020250635)
(0.10354178 -0.0027662788 0.00022015586)
(0.10423294 -0.0027289302 0.00023017987)
(0.10494248 -0.0026603706 0.00023445682)
(0.10565773 -0.0025782813 0.00023404795)
(0.10636996 -0.0024924532 0.00022964919)
(0.10707544 -0.0024083863 0.00022149316)
(0.1077702 -0.0023297789 0.00020906343)
(0.10845248 -0.0022503284 0.00019048466)
(0.1091289 -0.0021642007 0.00016419808)
(0.10979721 -0.0021051535 0.00013177852)
(0.1104338 -0.0020743641 9.3462518e-05)
(0.11101427 -0.0020712277 4.6501214e-05)
(0.11152084 -0.0020981397 -1.4776811e-05)
(0.11193925 -0.0021597052 -9.9439527e-05)
(0.11225374 -0.0022719232 -0.00021753905)
(0.11244853 -0.0024578344 -0.00037758591)
(0.11250854 -0.0027518731 -0.0005977737)
(0.11241737 -0.0032078845 -0.00090435648)
(0.11216336 -0.003906625 -0.0013378567)
(0.11176177 -0.0049515585 -0.001960043)
(0.11132747 -0.0064247149 -0.0028463477)
(0.11128437 -0.0082229112 -0.0040018406)
(0.11277071 -0.0096116499 -0.0051630697)
(0.11840537 -0.0080710692 -0.0058693187)
(0.13651131 0.0038744894 -0.0075427547)
(0.17719937 0.035765018 -0.011664061)
(0.09821386 -0.0011905279 6.6583571e-05)
(0.09737496 -0.0016978155 0.00012489292)
(0.095959304 -0.0018405415 0.00016673891)
(0.094172669 -0.0018769278 0.00019269484)
(0.092384518 -0.0018670601 0.00020722472)
(0.090713302 -0.0018189232 0.00021409574)
(0.089151841 -0.0017442378 0.00021544089)
(0.087680641 -0.0016559231 0.00021259004)
(0.086291315 -0.0015626528 0.00020654782)
(0.084979167 -0.0014694489 0.00019793576)
(0.083737787 -0.0013791591 0.00018685133)
(0.082559319 -0.0012921881 0.00017283246)
(0.081436435 -0.001209865 0.0001552283)
(0.080359691 -0.0011409388 0.00013408719)
(0.079310816 -0.0010913384 0.00011027578)
(0.078265618 -0.0010628577 8.4257175e-05)
(0.077201824 -0.0010584455 5.6559715e-05)
(0.076099952 -0.0010838446 2.9122494e-05)
(0.07494192 -0.0011504324 7.8301234e-06)
(0.073710602 -0.0012756102 4.6519752e-06)
(0.072388677 -0.0014914037 3.769675e-05)
(0.070958335 -0.0018558224 0.00013325022)
(0.069410792 -0.0024715951 0.00033028486)
(0.067772669 -0.0035073262 0.00070335903)
(0.06617339 -0.0051947537 0.0014498868)
(0.065023949 -0.0077236048 0.0031232892)
(0.065434234 -0.010949968 0.0069694735)
(0.070165872 -0.013940931 0.014987325)
(0.086290014 -0.014467817 0.029744878)
(0.14324419 -0.010671524 0.050788548)
(0.099900459 -9.3980797e-05 -6.6288952e-05)
(0.10287947 -9.7662993e-05 -0.00012314951)
(0.10565008 -0.00019273183 -0.00016272377)
(0.10786922 -0.00021154121 -0.00018610984)
(0.10986168 -0.00014541443 -0.0001979764)
(0.11175605 -4.1101659e-05 -0.00020212218)
(0.11353324 7.1300045e-05 -0.00020074137)
(0.11516322 0.0001811803 -0.00019523786)
(0.11664098 0.00028642674 -0.00018692378)
(0.11797362 0.00038811035 -0.00017743866)
(0.11916956 0.00048901784 -0.00016954566)
(0.12021793 0.00059676491 -0.00016927389)
(0.12103348 0.00073981986 -0.00017599503)
(0.12157552 0.00078737763 -0.00016745241)
(0.12194587 0.00080448924 -0.00013444035)
(0.12225116 0.00080914346 -8.5517735e-05)
(0.12253973 0.00081738892 -3.3641008e-05)
(0.12282354 0.00086053709 1.2989048e-06)
(0.12309405 0.00095340908 -8.4385858e-07)
(0.12334914 0.0011094819 -5.5225724e-05)
(0.12360936 0.0013425297 -0.00017612248)
(0.12391377 0.0016652451 -0.00038203648)
(0.12430776 0.0020894079 -0.00069524465)
(0.12482046 0.0026313423 -0.0011312593)
(0.12540779 0.0033357344 -0.0016738258)
(0.12579889 0.0043547964 -0.0022358624)
(0.12510914 0.0061623702 -0.0026018182)
(0.12104549 0.010124501 -0.0022926553)
(0.11044777 0.020014607 -0.00025798856)
(0.044583585 0.047811053 0.0042654102)
(0.10027848 -0.00057132834 -6.8191695e-05)
(0.10119445 -0.00086938208 -0.00012879821)
(0.10249333 -0.0011131763 -0.00017263427)
(0.10390533 -0.0012078949 -0.0002002511)
(0.10541052 -0.0011789784 -0.00021610997)
(0.10703042 -0.0010914758 -0.00022382694)
(0.10873642 -0.0009861577 -0.00022525502)
(0.11048654 -0.00087891236 -0.0002213617)
(0.1122531 -0.00077422887 -0.00021269701)
(0.11402124 -0.00067276729 -0.00019944663)
(0.11578078 -0.00057346694 -0.0001813666)
(0.11753617 -0.00046136635 -0.00015717056)
(0.1193065 -0.00030201377 -0.00012969347)
(0.1210544 -0.00024303924 -0.00010817074)
(0.12272462 -0.00022410583 -8.8266866e-05)
(0.12430418 -0.00022868347 -6.2219767e-05)
(0.12579403 -0.00024367296 -1.7573449e-05)
(0.12720699 -0.00024251342 5.7273537e-05)
(0.12855879 -0.00021877687 0.00016802308)
(0.12986287 -0.00017111822 0.00032098371)
(0.13113913 -0.00010055698 0.00052687953)
(0.13241565 -1.357089e-05 0.00080184319)
(0.1337253 7.8976987e-05 0.0011716117)
(0.13509636 0.00017843086 0.0016816374)
(0.13652993 0.00036319747 0.0024131946)
(0.1379522 0.0010051272 0.0034943387)
(0.13921047 0.0033751664 0.0051033729)
(0.13996778 0.010605011 0.0074478686)
(0.14066063 0.028188855 0.010523817)
(0.11853827 0.066119651 0.014830189)
(0.10035606 -0.0016435888 -6.8414135e-05)
(0.10122152 -0.0023900645 -0.00012917013)
(0.10211035 -0.0026513037 -0.00017365594)
(0.10285858 -0.0027490026 -0.00020250631)
(0.10354178 -0.0027662788 -0.00022015704)
(0.10423294 -0.0027289302 -0.00023018231)
(0.10494248 -0.0026603706 -0.00023446042)
(0.10565773 -0.0025782812 -0.0002340529)
(0.10636996 -0.0024924531 -0.00022965556)
(0.10707544 -0.002408386 -0.00022150104)
(0.1077702 -0.0023297786 -0.00020907298)
(0.10845248 -0.0022503277 -0.00019049635)
(0.1091289 -0.0021641997 -0.00016421225)
(0.10979721 -0.0021051519 -0.00013179598)
(0.1104338 -0.0020743615 -9.3483951e-05)
(0.11101427 -0.0020712237 -4.6527823e-05)
(0.11152084 -0.0020981347 1.474385e-05)
(0.11193925 -0.0021596982 9.9399043e-05)
(0.11225373 -0.002271913 0.00021748985)
(0.11244852 -0.00245782 0.00037752629)
(0.11250854 -0.0027518529 0.0005977005)
(0.11241736 -0.0032078564 0.00090426775)
(0.11216335 -0.0039065868 0.0013377465)
(0.11176175 -0.0049515071 0.0019599062)
(0.11132744 -0.0064246492 0.0028461749)
(0.11128433 -0.0082228298 0.0040016202)
(0.11277063 -0.0096115533 0.0051627854)
(0.11840523 -0.0080709251 0.0058689484)
(0.1365111 0.003874718 0.0075423052)
(0.17719894 0.035765322 0.01166356)
(0.09821386 -0.0011905278 -6.6576593e-05)
(0.09737496 -0.0016978155 -0.00012488975)
(0.095959304 -0.0018405415 -0.0001667368)
(0.094172669 -0.0018769278 -0.00019269357)
(0.092384518 -0.0018670601 -0.00020722427)
(0.090713302 -0.001818923 -0.00021409601)
(0.089151841 -0.0017442377 -0.00021544186)
(0.087680641 -0.0016559229 -0.00021259172)
(0.086291314 -0.0015626526 -0.00020655039)
(0.084979167 -0.0014694486 -0.00019793901)
(0.083737786 -0.0013791586 -0.0001868556)
(0.082559318 -0.0012921876 -0.00017283761)
(0.081436434 -0.0012098644 -0.00015523468)
(0.080359689 -0.0011409379 -0.00013409483)
(0.079310814 -0.0010913372 -0.00011028511)
(0.078265615 -0.0010628562 -8.4268486e-05)
(0.07720182 -0.0010584435 -5.6573417e-05)
(0.076099947 -0.0010838417 -2.9139281e-05)
(0.074941913 -0.0011504289 -7.8507888e-06)
(0.073710592 -0.0012756057 -4.6781117e-06)
(0.072388663 -0.0014913978 -3.7730472e-05)
(0.070958314 -0.001855815 -0.00013329517)
(0.06941076 -0.0024715839 -0.00033034683)
(0.067772619 -0.0035073128 -0.00070344741)
(0.066173309 -0.0051947369 -0.0014500175)
(0.065023814 -0.0077235887 -0.0031234892)
(0.065434008 -0.010949956 -0.0069697977)
(0.070165496 -0.013940905 -0.014987892)
(0.086289427 -0.014467755 -0.029745894)
(0.14324301 -0.010671407 -0.050790061)
(0.099913969 -9.3149263e-05 -0.00022469981)