/*--------------------------------*- C++ -*----------------------------------*\
| =========                 |                                                 |
| \\      /  F ield         | OpenFOAM: The Open Source CFD Toolbox           |
|  \\    /   O peration     | Version:  v2012                                 |
|   \\  /    A nd           | Website:  www.openfoam.com                      |
|    \\/     M anipulation  |                                                 |
\*---------------------------------------------------------------------------*/
FoamFile
{
    version     2.0;
    format      ascii;
    class       volScalarField;
    location    "120/leftSolid";
    object      T;
}
// * * * * * * * * * * * * * * * * * * * * * * * * * * * * * * * * * * * * * //

dimensions      [0 0 0 1 0 0 0];


internalField   nonuniform List<scalar> 
130
(
636.54612
636.5097
636.42721
636.3016
636.14448
635.99696
635.84117
635.65907
635.44093
635.18189
634.94847
634.76834
634.66484
636.5758
636.53955
636.4636
636.34493
636.19211
636.03917
635.87154
635.66763
635.42051
635.13059
634.86676
634.66208
634.54404
636.56986
636.54726
636.4815
636.37839
636.23909
636.07283
635.87737
635.63743
635.33202
635.0011
634.67576
634.44951
634.32873
636.54902
636.54167
636.50861
636.43849
636.32546
636.15604
635.93251
635.64918
635.30187
634.91045
634.50316
634.20368
634.04199
636.56435
636.56508
636.54353
636.48133
636.37444
636.20229
635.97165
635.6791
635.32155
634.90638
634.45224
634.01342
633.77864
636.56692
636.56813
636.54874
636.48779
636.38034
636.20675
635.97155
635.67811
635.32621
634.9017
634.42779
633.97643
633.74355
636.55058
636.54485
636.51753
636.45451
636.34294
636.16847
635.93618
635.65123
635.31021
634.90032
634.47703
634.16892
634.00772
636.56673
636.53515
636.47612
636.3924
636.26793
636.08608
635.85721
635.61646
635.33504
634.98889
634.65537
634.41731
634.30135
636.58922
636.55094
636.47381
636.35713
636.20297
636.03224
635.848
635.64222
635.40243
635.12643
634.86106
634.64283
634.53107
636.57309
636.53435
636.45054
636.32518
636.15882
635.9908
635.82196
635.63622
635.42274
635.18677
634.96126
634.77242
634.66091
)
;

boundaryField
{
    minX
    {
        type            zeroGradient;
    }
    minZ
    {
        type            zeroGradient;
    }
    maxZ
    {
        type            zeroGradient;
    }
    leftSolid_to_bottomWater
    {
        type            compressible::turbulentTemperatureCoupledBaffleMixed;
        refValue        nonuniform List<scalar> 
130
(
1011.3397
1011.6012
1010.2918
1008.0043
1003.163
1004.217
1005.3132
1005.8256
1006.2501
1000.1028
997.53935
995.28125
992.88315
1014.1809
1013.3527
1012.7767
1010.7161
1005.8773
1006.5456
1008.0245
1007.8155
1007.8351
1000.7575
998.38906
995.42425
991.91714
1012.2013
1013.6193
1011.5172
1009.5835
1006.5161
1005.1096
1005.4182
1006.2853
1000.7635
997.56958
989.41933
991.21024
991.18908
1008.878
1010.2132
1011.2757
1011.8461
1012.9325
1011.564
1010.0049
1007.5562
1002.9592
997.44141
983.85475
983.73319
982.83428
1010.4935
1012.1955
1013.2536
1012.9454
1014.3156
1012.683
1011.8892
1010.5016
1007.787
1004.2051
997.29276
973.74389
967.88519
1010.9001
1012.442
1013.8291
1013.4086
1014.5514
1013.0955
1011.145
1009.3279
1009.3786
1005.0079
994.49744
968.67479
964.69666
1009.0803
1010.6213
1012.0556
1013.0414
1013.6809
1012.2617
1010.2261
1007.6852
1005.4221
996.42875
981.83592
981.67311
981.54561
1012.0874
1010.1954
1008.5327
1009.5204
1010.5496
1007.2695
1000.7236
1002.6114
1004.283
995.22967
987.79302
987.43318
990.17336
1014.6905
1013.7995
1012.4457
1010.1583
1006.1877
1004.9112
1005.4389
1005.6967
1005.0827
1000.5743
997.54064
991.08052
990.91353
1012.5119
1012.3867
1010.8666
1009.3289
1003.6537
1002.0836
1002.5449
1002.6974
1001.8461
999.28456
997.56289
994.24601
990.6909
)
;
        refGradient     uniform 0;
        valueFraction   nonuniform List<scalar> 
130
(
0.0075140686
0.0075140686
0.0075140686
0.0075140686
0.0075140686
0.0075140686
0.0075140686
0.0075140686
0.0075140686
0.0075140686
0.0075140686
0.0075140686
0.0075140686
0.0075140686
0.0075140686
0.0075140686
0.0075140686
0.0075140686
0.0075140686
0.0075140686
0.0075140686
0.0075140686
0.0075140686
0.0075140686
0.0075140686
0.0075140686
0.0075140686
0.0075140686
0.0075140686
0.0075140686
0.0075140686
0.0075140686
0.0075140686
0.0075140686
0.0075140686
0.0075140686
0.0075140686
0.0075140686
0.0075140686
0.0075140686
0.0075140686
0.0075140686
0.0075140686
0.0075140686
0.0075140686
0.0075140686
0.0075140686
0.0075140686
0.0075140686
0.0075140686
0.0075140686
0.0075140686
0.0075140686
0.0075140686
0.0075140686
0.0075140686
0.0075140686
0.0075140686
0.0075140686
0.0075140686
0.0075140686
0.0075140686
0.0075140686
0.0075140686
0.0075140686
0.0075140686
0.0075140686
0.0075140686
0.0075140686
0.0075140686
0.0075140686
0.0075140686
0.0075140686
0.0075140686
0.0075140686
0.0075140686
0.0075140686
0.0075140686
0.0075140686
0.0075140686
0.0075140686
0.0075140686
0.0075140686
0.0075140686
0.0075140686
0.0075140686
0.0075140686
0.0075140686
0.0075140686
0.0075140686
0.0075140686
0.0075140686
0.0075140686
0.0075140686
0.0075140686
0.0075140686
0.0075140686
0.0075140686
0.0075140686
0.0075140686
0.0075140686
0.0075140686
0.0075140686
0.0075140686
0.0075140686
0.0075140686
0.0075140686
0.0075140686
0.0075140686
0.0075140686
0.0075140686
0.0075140686
0.0075140686
0.0075140686
0.0075140686
0.0075140686
0.0075140686
0.0075140686
0.0075140686
0.0075140686
0.0075140686
0.0075140686
0.0075140686
0.0075140686
0.0075140686
0.0075140686
0.0075140686
0.0075140686
0.0075140686
0.0075140686
)
;
        value           nonuniform List<scalar> 
130
(
639.3332
639.29902
639.20732
639.06549
638.87319
638.73472
638.58838
638.41157
638.19831
637.89506
637.64419
637.44849
637.32778
639.384
639.3418
639.2621
639.12886
638.94088
638.79416
638.63896
638.43509
638.19002
637.84913
637.56949
637.34405
637.20054
639.36321
639.35142
639.27037
639.15355
638.99234
638.8168
638.62518
638.39363
638.04905
637.69665
637.31247
637.10133
636.9813
639.31753
639.32028
639.29549
639.23022
639.12625
638.94787
638.71435
638.41481
638.03562
637.60572
637.09936
636.80118
636.63393
639.34486
639.35839
639.345
639.281
639.18523
639.00214
638.7673
638.46658
638.09136
637.65243
637.14976
636.53722
636.26016
639.35045
639.36327
639.35449
639.29088
639.19285
639.00966
638.76163
638.4568
638.10796
637.65382
637.10448
636.46245
636.2014
639.32058
639.3265
639.31019
639.25509
639.14921
638.96544
638.71967
638.41783
638.06243
637.58811
637.05833
636.75129
636.59032
639.35925
639.3137
639.24264
639.16702
639.05128
638.84622
638.56995
638.34525
638.07857
637.66705
637.28014
637.04112
636.94658
639.40113
639.35646
639.26976
639.13681
638.95402
638.77505
638.59623
638.39402
638.15149
637.84376
637.5576
637.29246
637.18027
639.36874
639.32936
639.23478
639.09886
638.89117
638.7127
638.54868
638.36558
638.14738
637.89398
637.65725
637.44492
637.30755
)
;
        Tnbr            T;
        thicknessLayers List<scalar> 0();
        kappaLayers     List<scalar> 0();
        kappaMethod     solidThermo;
        kappa           none;
        alphaAni        none;
        alpha           none;
        field           T;
    }
    leftSolid_to_heater
    {
        type            compressible::turbulentTemperatureCoupledBaffleMixed;
        refValue        nonuniform List<scalar> 10(594.99985 589.57246 578.00475 558.70605 529.76962 529.74429 558.64281 577.94229 589.47852 594.87344);
        refGradient     uniform 0;
        valueFraction   nonuniform List<scalar> 10(2.08329e-05 2.08329e-05 2.08329e-05 2.08329e-05 2.08329e-05 2.08329e-05 2.08329e-05 2.08329e-05 2.08329e-05 2.08329e-05);
        value           nonuniform List<scalar> 10(634.63506 634.51406 634.29843 634.01129 633.74727 633.71221 633.97711 634.27114 634.50124 634.63127);
        Tnbr            T;
        thicknessLayers List<scalar> 1(0.001);
        kappaLayers     List<scalar> 1(0.0005);
        kappaMethod     solidThermo;
        kappa           none;
        alphaAni        none;
        alpha           none;
        field           T;
    }
    leftSolid_to_topAir
    {
        type            compressible::turbulentTemperatureCoupledBaffleMixed;
        refValue        nonuniform List<scalar> 
130
(
313.82187
326.76993
338.54307
349.39276
359.54933
369.17485
378.37551
387.18899
395.50174
403.20233
410.27228
416.66146
422.24361
313.82043
326.62663
338.12879
348.58105
358.20206
367.12344
375.41652
383.09506
390.12745
396.42339
401.83956
406.22204
409.36946
313.81966
326.65301
338.18993
348.6845
358.36015
367.35447
375.74646
383.57468
390.85137
397.56031
403.64978
409.04325
413.59006
313.81899
326.66069
338.2189
348.74992
358.48294
367.56731
376.10207
384.15797
391.78942
399.04107
405.95276
412.56489
418.85053
313.81943
326.66503
338.23127
348.77404
358.52325
367.62986
376.19558
384.29487
391.98652
399.32012
406.3383
413.08048
419.36142
313.81953
326.66525
338.2317
348.77475
358.52424
367.63113
376.19702
384.29653
391.98874
399.32261
406.34035
413.08115
419.36103
313.81905
326.66086
338.21938
348.75098
358.48464
367.56948
376.10443
384.16058
391.79268
399.04441
405.95565
412.56689
418.8509
313.81952
326.65234
338.18895
348.68389
358.36036
367.35472
375.74529
383.5719
390.84781
397.55512
403.64231
409.03262
413.57571
313.82097
326.6276
338.13009
348.58273
358.20402
367.12492
375.41677
383.0939
390.12478
396.41937
401.83377
406.21369
409.3586
313.82297
326.772
338.54605
349.39672
359.55396
369.17942
378.37956
387.19215
395.50337
403.20328
410.27261
416.66046
422.24046
)
;
        refGradient     uniform 0;
        valueFraction   nonuniform List<scalar> 
130
(
0.00032132529
0.00032132529
0.00032132529
0.00032132529
0.00032132529
0.00032132529
0.00032132529
0.00032132529
0.00032132529
0.00032132529
0.00032132529
0.00032132529
0.00032132529
0.00032132529
0.00032132529
0.00032132529
0.00032132529
0.00032132529
0.00032132529
0.00032132529
0.00032132529
0.00032132529
0.00032132529
0.00032132529
0.00032132529
0.00032132529
0.00032132529
0.00032132529
0.00032132529
0.00032132529
0.00032132529
0.00032132529
0.00032132529
0.00032132529
0.00032132529
0.00032132529
0.00032132529
0.00032132529
0.00032132529
0.00032132529
0.00032132529
0.00032132529
0.00032132529
0.00032132529
0.00032132529
0.00032132529
0.00032132529
0.00032132529
0.00032132529
0.00032132529
0.00032132529
0.00032132529
0.00032132529
0.00032132529
0.00032132529
0.00032132529
0.00032132529
0.00032132529
0.00032132529
0.00032132529
0.00032132529
0.00032132529
0.00032132529
0.00032132529
0.00032132529
0.00032132529
0.00032132529
0.00032132529
0.00032132529
0.00032132529
0.00032132529
0.00032132529
0.00032132529
0.00032132529
0.00032132529
0.00032132529
0.00032132529
0.00032132529
0.00032132529
0.00032132529
0.00032132529
0.00032132529
0.00032132529
0.00032132529
0.00032132529
0.00032132529
0.00032132529
0.00032132529
0.00032132529
0.00032132529
0.00032132529
0.00032132529
0.00032132529
0.00032132529
0.00032132529
0.00032132529
0.00032132529
0.00032132529
0.00032132529
0.00032132529
0.00032132529
0.00032132529
0.00032132529
0.00032132529
0.00032132529
0.00032132529
0.00032132529
0.00032132529
0.00032132529
0.00032132529
0.00032132529
0.00032132529
0.00032132529
0.00032132529
0.00032132529
0.00032132529
0.00032132529
0.00032132529
0.00032132529
0.00032132529
0.00032132529
0.00032132529
0.00032132529
0.00032132529
0.00032132529
0.00032132529
0.00032132529
0.00032132529
0.00032132529
0.00032132529
)
;
        value           nonuniform List<scalar> 
130
(
636.41306
636.38082
636.30215
636.18009
636.0263
635.88194
635.7292
635.55006
635.33472
635.07827
634.84726
634.66928
634.56763
636.44273
636.4106
636.33839
636.22313
636.07351
635.92353
635.75868
635.55738
635.31265
635.02487
634.76287
634.55965
634.44265
636.43677
636.41829
636.35627
636.25661
636.12055
635.95728
635.76462
635.52735
635.22441
634.89578
634.57246
634.34797
634.22869
636.41591
636.4127
636.3834
636.31673
636.20691
636.04051
635.81984
635.53926
635.19456
634.80564
634.40066
634.10336
633.94373
636.43121
636.43609
636.41831
636.35956
636.25586
636.08673
635.85894
635.56915
635.21423
634.80159
634.34984
633.91326
633.68055
636.43376
636.43913
636.42351
636.36601
636.26175
636.09118
635.85887
635.56819
635.2189
634.79691
634.3254
633.87632
633.6455
636.41745
636.41587
636.39231
636.33273
636.22437
636.05293
635.82353
635.54132
635.20292
634.79556
634.37462
634.0687
633.90955
636.43365
636.40621
636.35092
636.27065
636.14939
635.97056
635.74453
635.50643
635.2275
634.88367
634.5522
634.31591
634.2014
636.45612
636.42199
636.3486
636.23536
636.08439
635.91665
635.73521
635.53205
635.29467
635.02084
634.75732
634.54056
634.42983
636.43999
636.40544
636.32546
636.20367
636.04069
635.87591
635.71017
635.52742
635.31675
635.08338
634.86023
634.67352
634.56385
)
;
        Tnbr            T;
        thicknessLayers List<scalar> 0();
        kappaLayers     List<scalar> 0();
        kappaMethod     solidThermo;
        kappa           none;
        alphaAni        none;
        alpha           none;
        field           T;
    }
}


// ************************************************************************* //
