/*--------------------------------*- C++ -*----------------------------------*\
| =========                 |                                                 |
| \\      /  F ield         | OpenFOAM: The Open Source CFD Toolbox           |
|  \\    /   O peration     | Version:  v2012                                 |
|   \\  /    A nd           | Website:  www.openfoam.com                      |
|    \\/     M anipulation  |                                                 |
\*---------------------------------------------------------------------------*/
FoamFile
{
    version     2.0;
    format      ascii;
    class       volScalarField;
    location    "460/bottomWater";
    object      p;
}
// * * * * * * * * * * * * * * * * * * * * * * * * * * * * * * * * * * * * * //

dimensions      [1 -1 -2 0 0 0 0];


internalField   nonuniform List<scalar> 
1460
(
353.42484
353.42209
353.42809
353.42848
353.43399
353.41835
353.45289
353.46774
353.45705
353.46553
353.4564
353.45833
353.45847
353.46851
353.4758
353.48007
353.48084
353.47873
353.48642
353.49094
353.49667
353.49312
353.50226
353.49112
353.49045
353.49885
353.4786
353.50854
353.48998
353.49227
274.44513
274.44934
274.43739
274.43765
274.44947
274.43785
274.49061
274.4855
274.40264
274.40192
274.40837
274.40851
274.41642
274.38978
274.38847
274.38269
274.3946
274.40524
274.43904
274.46342
274.47284
274.46764
274.45751
274.38988
274.37706
274.37882
274.39698
274.43676
274.42706
274.39732
196.30944
196.28805
196.30706
196.31354
196.30564
196.26902
196.22475
196.23763
196.2467
196.2923
196.29819
196.30982
196.28668
196.30296
196.31703
196.33044
196.28619
196.26692
196.24469
196.27562
196.26264
196.28446
196.23736
196.25362
196.28765
196.29332
196.27622
196.26614
196.25502
196.28537
117.67717
117.65332
117.67667
117.70096
117.70395
117.67101
117.65869
117.65659
117.64678
117.67978
117.65727
117.65562
117.64431
117.64856
117.68971
117.67835
117.64596
117.629
117.63641
117.65296
117.68748
117.68064
117.65434
117.63745
117.6827
117.68484
117.62975
117.68055
117.63173
117.64334
39.265424
39.2768
39.242212
39.244718
39.238376
39.216998
39.245363
39.25438
39.258182
39.256104
39.248831
39.228702
39.264599
39.252098
39.23964
39.2419
39.257347
39.27684
39.252612
39.226195
39.237399
39.23005
39.243718
39.257575
39.262089
39.263728
39.246934
39.234374
39.236501
39.245699
353.42709
353.43754
353.42183
353.43076
353.43329
353.41785
353.46881
353.46641
353.47185
353.46735
353.46203
353.48011
353.47875
353.47483
353.47513
353.47881
353.48832
353.49033
353.48532
353.48531
353.49047
353.49327
353.49856
353.49217
353.4925
353.50292
353.47471
353.51119
353.49284
353.49782
274.4554
274.46948
274.44128
274.44306
274.44665
274.43957
274.47837
274.44134
274.39655
274.40592
274.41667
274.46901
274.46056
274.40567
274.39533
274.38279
274.37971
274.38148
274.37247
274.40877
274.44118
274.45286
274.43277
274.37965
274.37493
274.37763
274.38727
274.41812
274.39516
274.37465
196.27956
196.23221
196.26333
196.28036
196.28181
196.25019
196.2256
196.23226
196.27334
196.27853
196.24684
196.2387
196.24303
196.28158
196.28932
196.29353
196.31201
196.3242
196.26194
196.26372
196.24979
196.27508
196.23627
196.26269
196.30591
196.28421
196.2759
196.26212
196.27192
196.29811
117.66579
117.66105
117.65459
117.68041
117.68522
117.64501
117.66288
117.63742
117.67881
117.68104
117.6155
117.63764
117.64272
117.66142
117.65681
117.6401
117.67082
117.66713
117.65272
117.6165
117.65621
117.66022
117.6428
117.63095
117.67859
117.67709
117.63012
117.65427
117.59865
117.67639
39.253482
39.260351
39.239846
39.234091
39.224066
39.232221
39.248758
39.252376
39.260757
39.267771
39.258258
39.248984
39.229067
39.223775
39.239181
39.244584
39.262932
39.274965
39.26165
39.254031
39.242654
39.2295
39.252284
39.259313
39.27394
39.262888
39.247136
39.24585
39.25835
39.266178
353.44081
353.44615
353.44859
353.4222
353.4412
353.43737
353.46471
353.46171
353.46502
353.46736
353.45999
353.48097
353.48055
353.48201
353.48304
353.48385
353.48252
353.4887
353.48899
353.48395
353.48151
353.49115
353.49681
353.49723
353.49771
353.49285
353.49014
353.50449
353.48613
353.49214
274.44862
274.50446
274.49624
274.44738
274.46597
274.46517
274.45866
274.4101
274.40286
274.40407
274.41962
274.48862
274.50999
274.46826
274.44801
274.42389
274.39109
274.38178
274.38317
274.39647
274.42111
274.43668
274.40106
274.3721
274.37614
274.39189
274.42533
274.43808
274.39149
274.37886
196.28808
196.24534
196.23568
196.28325
196.2781
196.26028
196.24215
196.25988
196.30541
196.29067
196.26589
196.23315
196.24008
196.26436
196.26922
196.24867
196.26038
196.30091
196.32276
196.28312
196.2595
196.27143
196.254
196.29001
196.2903
196.25513
196.25254
196.261
196.25842
196.2968
117.68446
117.6615
117.6601
117.66853
117.68634
117.66199
117.6444
117.64281
117.67702
117.67013
117.6233
117.64276
117.62845
117.66609
117.66075
117.62944
117.61991
117.6748
117.68133
117.64282
117.62871
117.66239
117.64642
117.66664
117.67922
117.61608
117.64972
117.6676
117.60205
117.68327
39.247242
39.255503
39.246795
39.227783
39.227905
39.224289
39.247065
39.251275
39.271228
39.2608
39.266339
39.261985
39.244663
39.226074
39.23327
39.251627
39.270279
39.271022
39.277762
39.255464
39.251419
39.239284
39.250904
39.259539
39.269327
39.260365
39.249328
39.243361
39.260071
39.269344
353.43919
353.44465
353.44688
353.44499
353.45095
353.45237
353.45235
353.45527
353.45223
353.46405
353.46235
353.45782
353.46298
353.48004
353.48269
353.48254
353.49011
353.48586
353.48636
353.49061
353.48421
353.49936
353.49729
353.49802
353.49188
353.49908
353.49047
353.49989
353.49504
353.49395
274.46488
274.483
274.51406
274.48055
274.48143
274.45781
274.42476
274.41739
274.42457
274.45916
274.41495
274.44058
274.45889
274.48821
274.4846
274.46996
274.45632
274.41059
274.37801
274.4077
274.42253
274.43149
274.39353
274.37738
274.38486
274.42879
274.45501
274.4574
274.41683
274.39092
196.26397
196.24579
196.25158
196.24885
196.24997
196.24189
196.25777
196.27234
196.29745
196.23611
196.30834
196.25216
196.27443
196.26229
196.27003
196.26614
196.24874
196.25256
196.27004
196.29798
196.2668
196.26815
196.28254
196.289
196.25685
196.23356
196.25612
196.25942
196.2439
196.28026
117.66415
117.67005
117.67224
117.68052
117.67997
117.65478
117.63353
117.66691
117.65359
117.65734
117.67312
117.63025
117.6592
117.69348
117.68671
117.6405
117.64125
117.61725
117.67182
117.64222
117.65298
117.67009
117.63135
117.667
117.6394
117.63582
117.66603
117.67574
117.63608
117.65293
39.253433
39.239006
39.231219
39.223121
39.220472
39.222713
39.241048
39.250212
39.252173
39.244368
39.2488
39.246144
39.207504
39.226451
39.230865
39.220507
39.25602
39.25243
39.253233
39.242403
39.230932
39.22324
39.249212
39.257501
39.250566
39.243301
39.232659
39.227735
39.231186
39.239009
353.44047
353.43535
353.45298
353.43746
353.44627
353.43989
353.44887
353.4514
353.44871
353.45672
353.46966
353.45173
353.45009
353.46318
353.46593
353.48856
353.49537
353.49677
353.49595
353.49445
353.4974
353.49539
353.48776
353.49429
353.47797
353.48551
274.42921
274.43241
274.47144
274.4473
274.43704
274.42704
274.4164
274.41598
274.42121
274.44832
274.48646
274.44618
274.47346
274.41811
274.4046
274.44701
274.44996
274.39751
274.37761
274.38669
274.42904
274.45373
274.4582
274.44567
274.39727
274.38968
196.30184
196.27558
196.25144
196.2808
196.27613
196.27817
196.29092
196.28833
196.2998
196.26293
196.26804
196.27158
196.27303
196.30223
196.30424
196.26437
196.24322
196.25529
196.27344
196.27863
196.21973
196.26688
196.26673
196.24927
196.24787
196.28501
117.68195
117.64865
117.64193
117.6444
117.66166
117.65544
117.66976
117.7071
117.65862
117.65566
117.64521
117.62836
117.66086
117.66451
117.66979
117.65319
117.65008
117.6057
117.67766
117.66251
117.63583
117.67441
117.66616
117.65787
117.62927
117.6728
39.241868
39.246396
39.268471
39.256391
39.231873
39.251154
39.250192
39.247833
39.234734
39.231685
39.248846
39.249446
39.225736
39.235526
39.228733
39.219683
39.235278
39.249806
39.268723
39.248408
39.243484
39.232001
39.236808
39.236547
39.252403
39.255004
353.44236
353.44106
353.44018
353.44083
353.4414
353.45422
353.44863
353.44141
353.43553
353.43086
353.43347
353.43532
353.42718
353.45965
353.44456
353.48293
353.47887
353.48862
353.48584
353.48574
353.49069
353.48486
353.49314
353.4765
353.47626
353.48367
274.42898
274.421
274.41988
274.43163
274.44237
274.4833
274.45175
274.42186
274.41737
274.43986
274.43405
274.40817
274.43246
274.41175
274.40543
274.43396
274.41835
274.38192
274.37938
274.39868
274.43405
274.45744
274.46036
274.4027
274.38163
274.39273
196.32777
196.30522
196.28279
196.25852
196.28555
196.23685
196.26309
196.28671
196.28514
196.29759
196.29318
196.28579
196.28942
196.28171
196.26011
196.22516
196.24245
196.28724
196.28105
196.25229
196.25376
196.26698
196.21545
196.24506
196.25672
196.32172
117.68882
117.68658
117.67252
117.67232
117.66214
117.65288
117.65978
117.65291
117.66168
117.62237
117.61983
117.65488
117.6373
117.67442
117.64975
117.65378
117.64664
117.68709
117.68146
117.60286
117.66368
117.66105
117.63571
117.63141
117.65278
117.67539
39.263713
39.260896
39.249065
39.241343
39.226509
39.241517
39.251845
39.231211
39.241218
39.262569
39.279042
39.245135
39.239078
39.237846
39.24364
39.246225
39.239754
39.25456
39.269676
39.259397
39.240699
39.235001
39.250915
39.251775
39.250147
39.264126
353.44186
353.43608
353.43533
353.44358
353.45103
353.45149
353.45756
353.43961
353.44246
353.44776
353.45466
353.45475
353.4537
353.45031
353.44649
353.47867
353.46638
353.46764
353.46643
353.46376
353.46689
353.48084
353.48395
353.48771
353.48486
353.48634
353.47918
353.47779
353.48059
353.47985
274.43239
274.42333
274.43646
274.46587
274.4859
274.50929
274.48906
274.41984
274.41446
274.41219
274.41263
274.41621
274.42313
274.42742
274.43556
274.50543
274.46041
274.40214
274.39339
274.41044
274.40129
274.37586
274.38667
274.43694
274.44498
274.44021
274.41383
274.39921
274.37961
274.38836
196.30383
196.26446
196.24286
196.24712
196.24982
196.24658
196.22224
196.24289
196.27044
196.29374
196.31086
196.3292
196.30997
196.32828
196.27971
196.22822
196.24575
196.27382
196.30296
196.28798
196.29158
196.2951
196.2684
196.25084
196.26855
196.26052
196.25609
196.28288
196.30217
196.33265
117.68346
117.66854
117.63747
117.66618
117.68143
117.6636
117.65956
117.64934
117.66038
117.67547
117.67952
117.67203
117.65048
117.68762
117.65652
117.64445
117.64109
117.64148
117.66681
117.62406
117.65531
117.67181
117.65089
117.63006
117.67271
117.66207
117.63432
117.6511
117.67699
117.69163
39.256679
39.250303
39.246915
39.234952
39.223432
39.225186
39.244615
39.248108
39.251558
39.260522
39.266169
39.251396
39.238931
39.227457
39.212401
39.237817
39.246766
39.242824
39.254473
39.267952
39.245731
39.237744
39.244062
39.245929
39.227598
39.220974
39.249159
39.252175
39.253398
39.263641
353.43696
353.42614
353.44254
353.44399
353.44897
353.45215
353.44518
353.43771
353.44311
353.44204
353.44795
353.44878
353.44576
353.44209
353.45694
353.47573
353.46252
353.46692
353.46485
353.46078
353.45481
353.48115
353.48124
353.48118
353.48103
353.48184
353.48307
353.49231
353.48268
353.47932
274.43818
274.43488
274.47882
274.4992
274.49898
274.48699
274.44299
274.41891
274.41709
274.41677
274.414
274.40679
274.44548
274.4235
274.48495
274.47876
274.4008
274.40096
274.40093
274.40284
274.41971
274.44079
274.43185
274.38536
274.38876
274.39055
274.40403
274.45375
274.42749
274.40521
196.27078
196.24229
196.22108
196.24686
196.24829
196.23626
196.23801
196.26863
196.29553
196.31742
196.32263
196.30756
196.27832
196.29543
196.21872
196.22975
196.25118
196.29239
196.31363
196.27467
196.27314
196.24448
196.24712
196.26678
196.29852
196.28355
196.26464
196.23044
196.28154
196.31722
117.68996
117.6656
117.66627
117.68845
117.68944
117.66898
117.65465
117.66662
117.67608
117.68004
117.67181
117.65744
117.6228
117.66071
117.62829
117.64314
117.62195
117.66982
117.67812
117.66957
117.6394
117.65166
117.65403
117.65611
117.70267
117.69635
117.6362
117.65662
117.67766
117.68125
39.244195
39.243841
39.241414
39.231468
39.225125
39.228531
39.242659
39.245602
39.256435
39.265217
39.264618
39.251066
39.256716
39.218889
39.239879
39.24749
39.25045
39.25736
39.272478
39.256651
39.271221
39.266738
39.246791
39.228896
39.236071
39.237949
39.244832
39.245115
39.219235
39.233048
353.43755
353.42718
353.44921
353.44551
353.45271
353.44861
353.44936
353.4484
353.45185
353.44041
353.45998
353.46067
353.44211
353.44825
353.44677
353.44815
353.45337
353.45681
353.45826
353.45352
353.44691
353.48575
353.48642
353.48785
353.48225
353.48092
353.48348
353.48101
353.48242
353.46332
274.4376
274.43927
274.48413
274.49039
274.46631
274.43289
274.41373
274.41609
274.42457
274.42471
274.46981
274.47203
274.43001
274.42808
274.4306
274.42627
274.4072
274.40926
274.40374
274.41559
274.40957
274.48747
274.49588
274.43662
274.40016
274.38712
274.38214
274.40428
274.42407
274.42218
196.2668
196.23906
196.22689
196.25833
196.2531
196.24867
196.26591
196.30273
196.27745
196.2836
196.25004
196.23882
196.30175
196.30607
196.32403
196.30375
196.32455
196.3231
196.29556
196.27903
196.23853
196.22492
196.23157
196.25029
196.27368
196.27647
196.28845
196.28356
196.25857
196.29446
117.68446
117.65747
117.66542
117.68016
117.68354
117.6434
117.67305
117.67806
117.66971
117.65953
117.65397
117.64241
117.65135
117.64278
117.61821
117.61855
117.65431
117.685
117.65748
117.64989
117.63347
117.64749
117.63724
117.66287
117.65946
117.67136
117.68003
117.61385
117.65403
117.63668
39.246247
39.244106
39.23275
39.227141
39.226891
39.23883
39.247229
39.264399
39.251484
39.243005
39.248864
39.247344
39.23917
39.240268
39.276394
39.259196
39.233503
39.239271
39.247437
39.252895
39.238179
39.240558
39.229131
39.211316
39.23196
39.246477
39.264242
39.263737
39.245498
39.25682
353.4373
353.43325
353.43497
353.45368
353.44132
353.44572
353.45194
353.44488
353.46319
353.43026
353.44494
353.43345
353.44099
353.43331
353.44717
353.45328
353.45629
353.44244
353.46864
353.46258
353.45613
353.4588
353.47428
353.48239
353.485
353.48532
353.47481
353.47498
353.47096
353.47066
274.43574
274.42826
274.45156
274.48202
274.44191
274.42635
274.4214
274.43772
274.4605
274.44214
274.44004
274.43845
274.43768
274.43216
274.45714
274.44312
274.4208
274.42143
274.44444
274.41728
274.40531
274.42431
274.45328
274.47422
274.46601
274.44329
274.41375
274.39514
274.40651
274.41336
196.30232
196.26194
196.2533
196.23434
196.26496
196.27401
196.27997
196.294
196.23876
196.28726
196.30858
196.30776
196.32897
196.31812
196.27988
196.29805
196.30117
196.31005
196.24855
196.32244
196.27308
196.25938
196.25465
196.25686
196.27092
196.23789
196.26232
196.28384
196.31222
196.31697
117.68405
117.67228
117.65262
117.66489
117.67099
117.67736
117.68259
117.63165
117.65818
117.64381
117.67534
117.67109
117.68761
117.65468
117.63078
117.61173
117.65327
117.67303
117.66175
117.67306
117.69453
117.65442
117.67287
117.69938
117.68507
117.66128
117.65306
117.67231
117.63151
117.62774
39.258735
39.250382
39.250283
39.242738
39.231148
39.235787
39.247982
39.272376
39.278094
39.264844
39.242727
39.235931
39.23727
39.226708
39.231412
39.266192
39.240928
39.256778
39.252341
39.238472
39.223715
39.217465
39.213854
39.222913
39.226156
39.222929
39.257694
39.23539
39.249171
39.294234
)
;

boundaryField
{
    minX
    {
        type            calculated;
        value           nonuniform List<scalar> 
50
(
353.42484
274.44513
196.30944
117.67717
39.265424
353.42709
274.4554
196.27956
117.66579
39.253482
353.44081
274.44862
196.28808
117.68446
39.247242
353.43919
274.46488
196.26397
117.66415
39.253433
353.44047
274.42921
196.30184
117.68195
39.241868
353.44236
274.42898
196.32777
117.68882
39.263713
353.44186
274.43239
196.30383
117.68346
39.256679
353.43696
274.43818
196.27078
117.68996
39.244195
353.43755
274.4376
196.2668
117.68446
39.246247
353.4373
274.43574
196.30232
117.68405
39.258735
)
;
    }
    maxX
    {
        type            calculated;
        value           nonuniform List<scalar> 
50
(
353.49227
274.39732
196.28537
117.64334
39.245699
353.49782
274.37465
196.29811
117.67639
39.266178
353.49214
274.37886
196.2968
117.68327
39.269344
353.49395
274.39092
196.28026
117.65293
39.239009
353.48551
274.38968
196.28501
117.6728
39.255004
353.48367
274.39273
196.32172
117.67539
39.264126
353.47985
274.38836
196.33265
117.69163
39.263641
353.47932
274.40521
196.31722
117.68125
39.233048
353.46332
274.42218
196.29446
117.63668
39.25682
353.47066
274.41336
196.31697
117.62774
39.294234
)
;
    }
    minY
    {
        type            calculated;
        value           nonuniform List<scalar> 
292
(
392.4
392.4
392.4
392.4
392.4
392.4
392.4
392.4
392.4
392.4
392.4
392.4
392.4
392.4
392.4
392.4
392.4
392.4
392.4
392.4
392.4
392.4
392.4
392.4
392.4
392.4
392.4
392.4
392.4
392.4
392.4
392.4
392.4
392.4
392.4
392.4
392.4
392.4
392.4
392.4
392.4
392.4
392.4
392.4
392.4
392.4
392.4
392.4
392.4
392.4
392.4
392.4
392.4
392.4
392.4
392.4
392.4
392.4
392.4
392.4
392.4
392.4
392.4
392.4
392.4
392.4
392.4
392.4
392.4
392.4
392.4
392.4
392.4
392.4
392.4
392.4
392.4
392.4
392.4
392.4
392.4
392.4
392.4
392.4
392.4
392.4
392.4
392.4
392.4
392.4
392.4
392.4
392.4
392.4
392.4
392.4
392.4
392.4
392.4
392.4
392.4
392.4
392.4
392.4
392.4
392.4
392.4
392.4
392.4
392.4
392.4
392.4
392.4
392.4
392.4
392.4
392.4
392.4
392.4
392.4
392.4
392.4
392.4
392.4
392.4
392.4
392.4
392.4
392.4
392.4
392.4
392.4
392.4
392.4
392.4
392.4
392.4
392.4
392.4
392.4
392.4
392.4
392.4
392.4
392.4
392.4
392.4
392.4
392.4
392.4
392.4
392.4
392.4
392.4
392.4
392.4
392.4
392.4
392.4
392.4
392.4
392.4
392.4
392.4
392.4
392.4
392.4
392.4
392.4
392.4
392.4
392.4
392.4
392.4
392.4
392.4
392.4
392.4
392.4
392.4
392.4
392.4
392.4
392.4
392.4
392.4
392.4
392.4
392.4
392.4
392.4
392.4
392.4
392.4
392.4
392.4
392.4
392.4
392.4
392.4
392.4
392.4
392.4
392.4
392.4
392.4
392.4
392.4
392.4
392.4
392.4
392.4
392.4
392.4
392.4
392.4
392.4
392.4
392.4
392.4
392.4
392.4
392.4
392.4
392.4
392.4
392.4
392.4
392.4
392.4
392.4
392.4
392.4
392.4
392.4
392.4
392.4
392.4
392.4
392.4
392.4
392.4
392.4
392.4
392.4
392.4
392.4
392.4
392.4
392.4
392.4
392.4
392.4
392.4
392.4
392.4
392.4
392.4
392.4
392.4
392.4
392.4
392.4
392.4
392.4
392.4
392.4
392.4
392.4
392.4
392.4
392.4
392.4
392.4
392.4
392.4
392.4
392.4
392.4
392.4
392.4
392.4
392.4
392.4
392.4
392.4
392.4
392.4
392.4
392.4
392.4
392.4
)
;
    }
    minZ
    {
        type            calculated;
        value           nonuniform List<scalar> 
150
(
353.42484
274.44513
196.30944
117.67717
39.265424
353.42209
274.44934
196.28805
117.65332
39.2768
353.42809
274.43739
196.30706
117.67667
39.242212
353.42848
274.43765
196.31354
117.70096
39.244718
353.43399
274.44947
196.30564
117.70395
39.238376
353.41835
274.43785
196.26902
117.67101
39.216998
353.45289
274.49061
196.22475
117.65869
39.245363
353.46774
274.4855
196.23763
117.65659
39.25438
353.45705
274.40264
196.2467
117.64678
39.258182
353.46553
274.40192
196.2923
117.67978
39.256104
353.4564
274.40837
196.29819
117.65727
39.248831
353.45833
274.40851
196.30982
117.65562
39.228702
353.45847
274.41642
196.28668
117.64431
39.264599
353.46851
274.38978
196.30296
117.64856
39.252098
353.4758
274.38847
196.31703
117.68971
39.23964
353.48007
274.38269
196.33044
117.67835
39.2419
353.48084
274.3946
196.28619
117.64596
39.257347
353.47873
274.40524
196.26692
117.629
39.27684
353.48642
274.43904
196.24469
117.63641
39.252612
353.49094
274.46342
196.27562
117.65296
39.226195
353.49667
274.47284
196.26264
117.68748
39.237399
353.49312
274.46764
196.28446
117.68064
39.23005
353.50226
274.45751
196.23736
117.65434
39.243718
353.49112
274.38988
196.25362
117.63745
39.257575
353.49045
274.37706
196.28765
117.6827
39.262089
353.49885
274.37882
196.29332
117.68484
39.263728
353.4786
274.39698
196.27622
117.62975
39.246934
353.50854
274.43676
196.26614
117.68055
39.234374
353.48998
274.42706
196.25502
117.63173
39.236501
353.49227
274.39732
196.28537
117.64334
39.245699
)
;
    }
    maxZ
    {
        type            calculated;
        value           nonuniform List<scalar> 
150
(
353.4373
274.43574
196.30232
117.68405
39.258735
353.43325
274.42826
196.26194
117.67228
39.250382
353.43497
274.45156
196.2533
117.65262
39.250283
353.45368
274.48202
196.23434
117.66489
39.242738
353.44132
274.44191
196.26496
117.67099
39.231148
353.44572
274.42635
196.27401
117.67736
39.235787
353.45194
274.4214
196.27997
117.68259
39.247982
353.44488
274.43772
196.294
117.63165
39.272376
353.46319
274.4605
196.23876
117.65818
39.278094
353.43026
274.44214
196.28726
117.64381
39.264844
353.44494
274.44004
196.30858
117.67534
39.242727
353.43345
274.43845
196.30776
117.67109
39.235931
353.44099
274.43768
196.32897
117.68761
39.23727
353.43331
274.43216
196.31812
117.65468
39.226708
353.44717
274.45714
196.27988
117.63078
39.231412
353.45328
274.44312
196.29805
117.61173
39.266192
353.45629
274.4208
196.30117
117.65327
39.240928
353.44244
274.42143
196.31005
117.67303
39.256778
353.46864
274.44444
196.24855
117.66175
39.252341
353.46258
274.41728
196.32244
117.67306
39.238472
353.45613
274.40531
196.27308
117.69453
39.223715
353.4588
274.42431
196.25938
117.65442
39.217465
353.47428
274.45328
196.25465
117.67287
39.213854
353.48239
274.47422
196.25686
117.69938
39.222913
353.485
274.46601
196.27092
117.68507
39.226156
353.48532
274.44329
196.23789
117.66128
39.222929
353.47481
274.41375
196.26232
117.65306
39.257694
353.47498
274.39514
196.28384
117.67231
39.23539
353.47096
274.40651
196.31222
117.63151
39.249171
353.47066
274.41336
196.31697
117.62774
39.294234
)
;
    }
    bottomWater_to_rightSolid
    {
        type            calculated;
        value           nonuniform List<scalar> 
130
(
0.036840131
0.012611836
-0.013804783
-0.0026011337
-0.0099500368
0.0037179353
0.017574707
0.022088634
0.023727808
0.0069341913
-0.005625725
-0.0034987266
0.0056991089
0.034964648
0.021649529
0.014030773
0.0026542479
-0.010500465
0.012283799
0.019312734
0.033940463
0.022887576
0.0071362943
0.0058500231
0.018349591
0.026177804
0.031022003
0.037761854
0.015463635
0.011419314
-0.00071614576
0.010904151
0.01953918
0.02932745
0.020364542
0.0093281785
0.0033611238
0.020070528
0.029343995
0.012429698
0.013232929
0.0024029881
-0.0090679747
-0.016760173
0.0092117868
0.01750075
0.010566069
0.0033006014
-0.0073412822
-0.012264719
-0.0088137493
-0.00099147829
-0.0044735079
-0.011267347
-0.020317314
-0.0047218138
0.0098060005
0.028722985
0.008408222
0.0034837746
-0.0079993356
-0.0031922652
-0.0034528025
0.012402904
0.01500446
-0.0021540585
0.0036398402
0.0062245195
-0.00024598676
0.014559544
0.029675772
0.019396552
0.000698735
-0.0049992906
0.010914741
0.011774564
0.010146613
0.024125886
0.0028241668
0.014473256
0.027951717
0.0057309293
-0.0022557497
0.0040621192
0.0059291402
-0.012402245
-0.019026369
0.0091587866
0.012174754
0.013398245
0.023641299
0.017360158
0.032478374
0.016650501
0.031221477
0.026737907
0.0067912596
-0.011103827
-0.0039290429
-0.0020511619
0.0048319454
0.0051150622
-0.020765403
-0.0069515005
-0.0007291106
0.0074374394
0.01289519
-0.0018207479
0.00055802216
-0.010869484
-0.028684401
-0.0080396039
0.0064768558
0.024241799
0.023737035
0.0054982921
0.016820324
0.016778488
0.012340919
-0.0015281303
-0.016284742
-0.022535126
-0.026145545
-0.017086753
-0.013843862
-0.017071184
0.01769417
-0.0046101907
0.0091710237
0.054233912
)
;
    }
    bottomWater_to_leftSolid
    {
        type            calculated;
        value           nonuniform List<scalar> 
130
(
0.025424078
0.036799888
0.0022116209
0.0047180111
-0.0016240088
-0.023002124
0.0053632111
0.014379988
0.01818187
0.016103892
0.0088308169
-0.011298352
0.02459917
0.013482289
0.020351158
-0.00015356059
-0.0059085083
-0.015933766
-0.0077786755
0.0087577262
0.012376197
0.020756601
0.027771081
0.018258472
0.0089836205
-0.010932886
0.0072415816
0.015503193
0.006794596
-0.012217171
-0.012095092
-0.01571109
0.0070651263
0.011274638
0.031227543
0.020800315
0.026338984
0.021984717
0.0046633736
0.013432804
-0.00099418679
-0.0087811158
-0.016878626
-0.01952849
-0.017286903
0.0010476076
0.010211742
0.012172975
0.0043681647
0.0087997137
0.0061441088
-0.032496378
0.0018684974
0.0063960457
0.028471018
0.016390757
-0.0081268398
0.01115426
0.010191714
0.0078332858
-0.0052655771
-0.0083146124
0.0088463314
0.009445564
-0.014263933
0.023713138
0.020896287
0.0090648183
0.0013426635
-0.013491472
0.0015167806
0.011844774
-0.0087890473
0.0012184227
0.02256864
0.039041909
0.0051351532
-0.00092236768
0.016678666
0.010303048
0.0069147177
-0.0050482901
-0.016567813
-0.014813817
0.0046154735
0.0081082876
0.01155755
0.020521641
0.026169452
0.011395513
-0.001068651
0.0041945255
0.0038405936
0.0014135441
-0.0085323891
-0.014875174
-0.011469426
0.0026594143
0.0056024002
0.016434878
0.02521687
0.024618163
0.011065634
0.016715684
0.006246979
0.0041060483
-0.0072496354
-0.012859336
-0.013108524
-0.0011697678
0.0072289628
0.024399271
0.011484177
0.0030048633
0.0088640976
0.0073444274
-0.00082996852
0.018735293
0.010382152
0.010283321
0.002738252
-0.0088521559
-0.0042127352
0.007982306
0.032375505
0.038094285
0.024843543
0.0027266261
-0.0040687982
-0.0027301191
)
;
    }
    bottomWater_to_heater
    {
        type            calculated;
        value           nonuniform List<scalar> 
92
(
0.012097561
-0.00035967842
0.0019003385
0.01734724
-0.016224702
-0.00081857433
0.0045841228
0.022932116
-0.013925743
-0.0067300594
0.011626856
0.030279141
353.48004
353.48269
353.48254
353.49011
274.48821
274.4846
274.46996
274.45632
196.26229
196.27003
196.26614
196.24874
117.69348
117.68671
117.6405
117.64125
-0.013549414
39.226451
-0.0091349041
39.230865
-0.019492574
39.220507
0.016020232
39.25602
353.45009
353.46318
274.47346
274.41811
196.27303
196.30223
117.66086
117.66451
39.225736
39.235526
353.42718
353.45031
353.44649
353.47867
353.45965
353.46638
274.43246
274.42742
274.43556
274.50543
274.41175
274.46041
196.28942
196.32828
196.27971
196.22822
196.28171
196.24575
117.6373
117.68762
117.65652
117.64445
117.67442
117.64109
39.239078
39.227457
39.212401
39.237817
39.237846
39.246766
-0.012542658
-0.027598873
-0.0021830536
0.0067657813
-0.021111332
-0.00012079032
0.0074900848
0.010450218
0.00026779822
0.036394393
0.019196245
-0.0064967272
-0.01329202
-0.0085877925
0.026191588
0.0009282865
)
;
    }
}


// ************************************************************************* //
