/*--------------------------------*- C++ -*----------------------------------*\
| =========                 |                                                 |
| \\      /  F ield         | OpenFOAM: The Open Source CFD Toolbox           |
|  \\    /   O peration     | Version:  v2012                                 |
|   \\  /    A nd           | Website:  www.openfoam.com                      |
|    \\/     M anipulation  |                                                 |
\*---------------------------------------------------------------------------*/
FoamFile
{
    version     2.0;
    format      ascii;
    class       volScalarField;
    location    "460/bottomWater";
    object      T;
}
// * * * * * * * * * * * * * * * * * * * * * * * * * * * * * * * * * * * * * //

dimensions      [0 0 0 1 0 0 0];


internalField   nonuniform List<scalar> 
1460
(
980.92133
978.97461
978.48403
976.7731
973.22833
970.57895
967.0414
965.19065
968.50981
964.52491
958.4794
954.41319
953.02095
950.83077
946.17762
940.67467
936.25533
934.68115
933.75651
932.9904
932.17011
932.46839
931.74233
931.01786
929.3824
929.76078
933.10299
932.78566
933.05728
929.42572
975.61911
974.68841
972.60164
971.16182
968.71467
967.69772
965.5655
963.958
965.4504
964.33733
954.84216
952.52619
951.6739
951.37808
948.91434
941.60682
936.70583
935.48842
935.86091
934.58137
933.47577
933.48488
934.02813
934.01051
933.17239
933.88837
935.12699
935.24864
936.29058
934.85822
974.34742
971.49418
971.53627
970.46978
967.49038
965.79836
965.56528
963.44985
962.83022
961.76598
954.12382
952.77542
949.46869
948.29704
947.02064
942.13376
940.1074
938.73077
937.29155
934.99414
933.39724
933.00834
933.92583
933.95531
933.45014
934.18027
934.8544
935.00775
936.22318
935.44302
972.79051
968.61114
969.04998
967.36978
963.10256
963.23118
964.34574
963.51483
962.83668
961.82966
954.07483
955.5568
953.11249
945.35549
943.85785
939.29179
941.40466
938.32947
935.98983
934.69738
933.40799
932.50265
934.30657
934.13334
933.94675
934.50839
934.49567
934.73597
935.92098
935.96011
970.73992
967.80632
967.50856
965.65947
962.56653
962.65883
962.79078
962.5746
962.30187
961.73532
958.85398
955.23345
948.80944
945.55627
944.15503
938.26616
938.87698
936.49002
935.45044
934.89667
933.58357
931.94329
932.3329
932.92777
933.27403
934.08957
933.65934
934.31244
934.67432
934.86089
977.21562
972.8025
975.42302
976.82071
972.15187
969.78365
965.45312
966.38544
963.42235
955.22656
953.21383
951.7304
951.32337
952.34499
949.42987
945.46347
938.28066
934.52581
933.81916
933.40815
933.33755
932.2139
930.65351
928.91652
927.22919
930.46666
933.9603
932.66675
929.85079
926.03674
971.24677
969.65324
970.60408
971.79164
968.0648
967.38456
965.10492
964.74098
964.7747
953.83511
952.8071
952.43612
951.37516
952.20152
950.12124
947.87904
944.12578
936.19142
935.17367
935.24088
935.50544
933.99615
933.09313
932.70618
931.92979
934.29377
935.20893
935.68596
936.16809
934.30679
971.22939
969.8844
969.23399
969.3391
966.2847
965.50601
965.12432
964.31157
963.60824
954.23563
954.08463
952.92563
951.42923
950.7517
947.02487
946.28259
944.45195
937.37318
935.52571
935.54135
935.75406
933.65038
932.19134
932.80755
932.3193
934.52523
934.95916
935.41393
936.09059
934.62905
971.16346
968.44797
967.01373
965.79029
962.33718
963.2568
964.09215
963.47063
963.13854
954.7698
954.98046
955.62787
955.1585
952.85322
943.93324
944.52457
944.68625
938.0682
936.1668
935.71941
935.74626
932.77717
932.66263
932.83541
932.69698
934.62599
934.42804
935.02446
935.74016
934.90636
969.60607
967.97399
967.40561
966.12451
961.87412
962.04191
962.0795
961.5579
961.27648
955.41676
955.61362
955.81302
954.92691
951.22651
942.11358
942.40021
942.6106
937.51935
936.08641
935.40938
934.82844
932.40993
931.61661
932.10118
932.55415
933.45716
933.47099
934.84072
935.07857
934.65923
974.96633
972.21712
971.21035
975.46825
969.80843
969.18397
967.29942
968.18054
964.06992
958.04463
956.50411
953.9379
953.50509
951.1771
945.76599
942.57033
939.68825
937.95484
931.55317
930.97226
931.43888
930.91385
928.14802
924.10002
928.60012
932.5675
933.68655
934.08899
932.205
928.56243
970.34058
969.7225
968.66656
969.40467
965.79588
964.80022
965.37289
965.54813
963.5865
954.85216
953.537
952.99502
952.50172
953.31698
946.60377
944.54237
941.95323
939.43585
933.22209
931.42544
932.29864
932.9147
932.53267
931.60916
933.33427
934.64891
934.93737
936.45496
936.45613
935.01184
970.4
969.93871
968.52156
967.95251
964.71525
964.2981
965.78439
965.33934
963.21401
955.40077
952.55031
952.31848
952.10583
954.26119
944.46011
945.1816
943.45709
939.22613
933.29836
931.18336
931.56385
932.57972
930.85482
931.78721
933.34588
934.56286
934.60519
936.20137
936.88003
935.31249
970.49429
970.02487
968.39894
967.32551
964.36568
963.27299
965.43884
963.80579
962.98422
957.31578
956.54358
956.48512
956.085
955.31521
943.1751
943.58294
941.25922
939.31116
933.20231
931.96854
932.26695
932.55268
931.02492
932.01068
933.37033
934.16027
933.93701
935.61111
936.62335
935.64718
969.05862
968.83379
968.25829
967.64774
964.3976
962.08927
962.23266
961.69088
962.15237
958.13721
957.18699
956.85252
956.56906
954.95971
940.43724
939.90339
939.38842
938.1975
933.42211
932.76371
932.60196
932.15582
930.44275
931.28712
932.79664
933.17825
932.97706
935.21015
935.66256
935.4618
977.06792
974.79003
974.30452
973.20199
970.99326
971.28939
971.49863
969.28589
961.14889
955.5024
957.88142
952.80411
948.76711
945.28414
934.56473
932.9361
931.49785
932.33012
930.29738
925.65774
927.07484
927.26586
923.29602
928.62083
931.63817
932.23296
932.98192
934.24265
933.69561
930.83936
973.41014
972.50621
971.86903
970.29458
968.1114
967.64931
967.84468
966.18368
956.27301
956.0076
950.84989
949.97031
946.33634
947.92822
936.52829
934.91149
933.75356
931.69537
930.43328
926.44087
928.82647
929.57212
929.92543
932.37003
934.35855
934.41943
934.01664
935.98088
936.93447
935.85236
972.99204
973.03106
971.68863
969.68311
967.26834
967.04224
968.07226
965.44861
959.0836
957.24693
950.16855
946.95093
945.51793
948.79126
935.97464
935.3197
933.81659
923.79744
929.8419
927.30787
928.78968
929.18561
929.80656
932.45158
933.88252
934.18751
933.69044
935.75658
937.25309
936.31571
973.17922
971.83016
970.84551
969.76235
967.12708
965.86837
967.39317
964.00175
960.36344
958.49064
953.98956
952.79172
950.86201
949.71305
933.51955
932.14263
929.77463
922.00293
929.64535
929.27243
929.19345
928.89973
929.84727
932.49374
933.17465
933.67085
933.07655
935.16505
936.8798
936.82639
970.77281
970.14176
970.04179
969.82276
966.64625
963.97166
963.61166
961.38029
959.69509
958.20202
955.00561
954.31165
953.28768
950.0794
931.34344
930.81439
929.57946
927.64649
928.69255
928.18657
928.05621
928.52925
929.78208
931.52667
932.01589
932.31705
932.45768
934.86422
935.63551
935.83746
979.76905
978.17033
975.90571
978.75566
975.95664
975.46962
972.40131
965.5974
958.14086
954.06904
949.61692
946.68248
930.04355
922.93175
926.76905
923.66234
927.09812
925.1102
926.10368
931.31694
932.69009
933.59469
935.19726
935.2571
934.90483
932.62418
975.04707
973.77686
972.85437
972.15336
971.55033
971.94496
970.89488
961.40805
955.19083
954.40638
945.54469
938.66706
923.2377
916.77108
922.34717
924.14532
928.79877
929.13433
929.73036
934.85137
934.98679
935.09891
936.99482
937.5039
937.37414
936.27039
975.01906
974.83923
972.72043
970.28487
970.81665
971.43973
970.65929
960.74009
956.80677
955.40682
947.85912
937.56701
926.77125
910.60296
918.07379
924.33533
929.72158
930.49153
929.84414
934.99412
934.49224
934.40693
936.78823
937.59666
937.64187
936.52222
974.40377
974.66735
972.92356
969.54863
968.64279
970.03129
968.77534
959.59842
956.22054
952.45979
949.78756
937.45018
931.43732
913.87628
921.98881
929.54599
931.4131
930.65204
929.97991
934.33166
934.18044
933.51491
936.59844
937.08691
937.49688
936.86427
973.6181
973.27517
972.34375
970.75361
968.28337
967.04106
967.28311
959.51778
954.91485
949.51753
944.88263
939.32415
935.05129
916.11331
924.71756
929.9715
929.62215
929.65485
929.43384
932.1368
931.81519
932.61949
936.20567
936.30496
936.37751
936.29539
982.57734
980.5182
978.01766
975.69072
974.03985
971.00419
972.08011
971.94669
969.86717
966.39995
957.89073
949.86202
929.65686
917.94348
929.36263
925.25924
928.14721
927.07329
931.18794
934.53499
934.92405
935.55709
936.87608
936.54071
936.12236
933.7555
977.01007
974.68109
972.15165
969.92132
967.8772
968.43309
967.24752
968.59716
969.26287
963.49306
951.59029
937.47807
919.33106
917.9905
928.11719
925.05165
928.33458
928.99688
934.93271
935.78395
935.33783
936.36076
938.43958
938.25925
937.74052
936.66285
976.7954
974.71671
971.73664
969.98168
966.934
967.89028
964.92151
960.98503
969.14414
961.23662
944.38733
937.54511
924.25599
914.99071
919.15115
924.83211
931.36964
929.9758
934.75904
935.90241
934.54448
936.15251
938.42063
938.27962
937.898
936.84115
976.80588
975.21202
972.50503
970.88591
965.99242
965.18573
960.68646
954.75675
965.92457
962.69078
945.519
937.55376
928.96299
922.48911
927.42465
930.98229
932.2245
931.11411
934.44542
934.4553
933.63188
935.89651
938.21273
938.016
937.77345
937.08062
975.84962
975.02666
973.33794
972.29178
966.33556
964.5117
961.5879
952.13827
952.40943
954.68901
944.62514
939.41949
934.57642
926.08474
930.48713
931.84267
931.24437
931.17789
933.26042
933.08719
932.36571
935.48374
936.89495
936.93795
936.79347
936.69081
983.1518
977.8947
974.60689
971.70392
969.64983
970.37253
968.6454
971.54427
973.72671
973.78554
962.47569
948.08843
932.27041
927.68373
927.44617
925.35895
924.08021
924.53998
931.53863
931.01018
931.68621
931.96942
934.21168
935.02882
935.31744
936.14056
936.88677
937.27888
936.76205
934.91416
976.8847
973.24266
970.80427
968.90919
965.29696
968.06603
966.41363
966.44305
968.95726
968.40202
952.75774
934.20824
926.3699
924.88647
926.15466
927.96566
928.30975
925.45199
927.77904
928.807
930.60522
935.86412
936.45238
936.47917
935.76798
937.23462
938.05172
938.11256
937.894
937.19219
977.00696
974.05672
973.65708
970.27063
963.2811
967.19532
966.07971
965.69526
967.3273
963.24619
946.8008
932.59529
926.53478
924.15128
923.48841
928.16315
931.53888
924.58049
929.05549
933.49669
931.87347
936.06497
936.63514
936.48219
935.25524
937.08526
938.42326
938.33093
938.01216
937.46501
977.20697
975.56584
975.37951
971.11727
962.05794
963.44191
964.67652
962.59256
961.53531
957.66743
943.84955
932.12904
928.8315
926.38576
925.81636
923.24537
926.24401
928.6224
930.72737
935.08048
934.18052
935.79327
935.82113
935.71831
934.2897
936.41936
938.00021
937.99303
937.83888
937.76755
976.55702
975.56815
974.86646
973.65581
960.73715
956.90245
955.81412
954.84676
954.25005
951.87179
942.80421
934.74962
934.78301
928.52217
928.93312
928.27672
928.90685
931.29653
931.83786
934.36196
933.87793
932.72045
932.42379
933.27508
933.28846
935.76587
936.40895
936.41652
936.56738
936.91622
983.88138
979.68835
976.98288
975.37154
972.4531
973.10609
974.20876
976.40998
976.48458
976.14253
956.9427
948.82512
944.26924
943.18213
938.94721
940.99832
938.73217
938.6265
939.22481
937.28017
937.53412
936.92385
936.39571
936.28862
936.53092
936.55301
936.57944
936.61252
937.02771
936.05037
979.19078
976.73887
975.53531
973.67618
969.98718
971.04693
970.42034
971.53887
971.50425
969.79745
947.22529
942.14761
939.31557
937.39596
936.81045
942.52492
940.98607
940.15021
939.09873
936.48586
937.25524
937.18753
936.91102
936.57402
936.73432
937.63319
938.08671
938.15284
937.80571
938.29306
978.82136
977.13283
975.96952
973.82221
969.59174
971.09479
971.14631
970.70026
970.19261
965.13298
945.58441
939.4046
934.76406
933.86627
936.96109
944.52148
945.31854
941.46316
939.42889
937.46721
936.42347
936.686
936.82656
936.98885
937.06586
937.89305
938.29926
938.06646
937.26156
938.15512
978.03847
977.31644
976.85957
974.19652
968.37185
967.74384
968.66801
966.79607
965.91628
962.31001
945.12549
938.52118
937.30134
936.13628
937.00109
940.99613
941.67602
941.89813
939.60341
938.49239
939.10781
936.89431
935.6365
935.26291
935.44106
937.31258
937.54544
937.69494
936.324
937.072
975.05302
975.19112
974.82695
974.04742
966.55748
961.64592
959.44945
955.34047
954.55398
954.5978
944.35471
939.66673
938.76059
936.84845
937.51332
937.63866
938.24028
939.27016
938.50863
936.93159
937.37437
936.3882
934.69155
933.73789
933.15218
933.12583
935.93663
935.67932
935.83507
936.77931
984.85923
981.59927
978.87983
977.7829
977.19555
978.86226
980.87369
980.78278
967.18299
960.64443
953.54376
948.76896
953.89061
960.42161
958.36882
947.37791
945.2274
944.12991
943.13543
941.22455
939.71142
937.52713
935.58108
934.21946
933.89847
933.93127
934.89378
938.39836
939.59992
940.08629
980.35058
978.47986
977.7367
975.24551
973.74803
973.66593
974.48916
971.22137
959.52568
956.03014
952.52936
947.45227
949.98487
952.8232
954.36057
951.1369
948.7122
944.7831
941.71399
940.11932
939.27503
938.8206
936.37165
935.43367
935.27221
935.28373
937.83838
939.96677
939.9381
940.88417
979.99629
978.87053
978.04567
975.70648
973.39748
973.88866
974.63102
970.65012
960.38914
959.40387
954.12864
948.25005
947.08037
951.68933
951.80707
948.69684
948.89683
946.00306
943.23011
940.71456
939.92303
938.8956
936.26218
935.23926
935.52005
935.46838
937.81163
938.79005
939.7023
939.82581
979.38029
978.67283
977.68421
975.73058
973.10838
971.98885
974.2401
970.13324
963.56195
959.57272
953.44958
948.40327
944.40815
946.05487
944.63605
941.90073
942.52122
945.09464
944.10467
942.57017
940.53024
939.29186
937.09408
934.7424
934.63931
935.78004
937.59822
938.17874
937.93179
937.82322
977.57835
976.72054
976.00559
975.3332
972.19133
970.54382
971.40141
969.1409
964.15458
958.09021
947.94114
944.84482
942.39741
941.76975
943.7116
941.7676
940.21568
938.45758
940.33048
939.04176
937.49212
936.93621
935.77708
934.60241
933.78689
935.28378
937.08608
937.20321
937.153
937.7048
987.07781
983.3173
980.75282
977.62626
980.02859
981.81198
981.23997
971.17282
964.5215
969.20289
969.55578
967.16457
966.75078
961.72352
956.35507
960.44828
953.9331
946.88738
943.42183
941.04233
938.87076
937.01787
935.29412
934.18312
934.332
934.78068
935.45606
937.07418
939.42879
942.72665
981.29065
978.80208
977.18359
975.93669
975.07322
976.22577
973.45244
964.09484
963.94126
964.57166
962.33593
959.4568
959.11021
951.64835
949.46008
949.94696
951.05708
947.72843
944.33658
941.08035
937.35069
936.55361
935.94123
934.62638
934.92442
936.08753
936.01338
936.81891
940.85868
944.26541
981.02525
978.80947
978.42572
975.77714
973.19422
976.14013
973.92161
972.16353
964.19074
960.53971
961.5964
956.57835
950.80083
948.30836
948.05947
949.06571
950.71792
948.93138
945.46528
939.49842
937.3877
937.06993
936.493
934.69691
934.85573
936.63472
937.73432
938.25146
942.12035
942.95339
980.69919
979.32557
978.79464
975.42349
971.59062
968.66078
973.73814
972.50674
965.91705
956.97876
956.08788
951.82617
948.21812
945.58331
946.00786
948.40447
950.79596
948.24293
941.58434
938.27895
937.42958
937.07935
936.13382
934.55753
934.43417
935.43661
937.24188
938.41606
939.5517
939.02235
979.53147
978.31643
977.4372
976.05886
973.20542
965.58641
967.78078
968.5231
963.70213
959.56988
954.98304
950.69951
946.66475
943.6165
945.32627
947.00268
947.11352
944.68468
941.41606
939.50447
937.852
936.49893
935.37227
934.24994
934.21863
935.27356
936.45552
937.80118
938.48069
938.5997
)
;

boundaryField
{
    minX
    {
        type            zeroGradient;
    }
    maxX
    {
        type            zeroGradient;
    }
    minY
    {
        type            fixedValue;
        value           uniform 1073;
    }
    minZ
    {
        type            zeroGradient;
    }
    maxZ
    {
        type            zeroGradient;
    }
    bottomWater_to_rightSolid
    {
        type            compressible::turbulentTemperatureCoupledBaffleMixed;
        refValue        nonuniform List<scalar> 
130
(
753.32973
761.30883
769.65023
777.93024
785.83336
793.14353
799.70382
805.41346
810.21454
814.07187
816.97722
818.91789
819.88957
747.49357
756.80573
766.31933
775.54273
784.15385
791.97513
798.89863
804.8617
809.83625
813.81214
816.79601
818.78194
819.77297
735.69171
748.08102
760.11942
771.24876
781.23179
790.00212
797.57628
803.98052
809.24708
813.41654
816.52836
818.59002
819.61669
717.98965
736.22712
752.35501
766.20111
777.96152
787.89253
796.21655
803.10116
808.68062
813.05441
816.2942
818.43152
819.49386
697.1216
724.99458
745.99595
762.44777
775.67767
786.47264
795.32647
802.53832
808.33077
812.8466
816.15991
818.33725
819.41753
697.06923
724.95259
745.95003
762.40412
775.63793
786.4399
795.28826
802.50189
808.30394
812.81605
816.1267
818.30216
819.38203
717.66213
735.9766
752.16503
766.04411
777.8186
787.75547
796.08289
802.97503
808.57197
812.95452
816.1884
818.32291
819.38636
735.12923
747.63038
759.7455
770.93217
780.95361
789.74767
797.33096
803.74236
809.0268
813.22161
816.33864
818.40744
819.44341
746.79702
756.2185
765.80958
775.09364
783.75928
791.61367
798.55603
804.53928
809.54585
813.55851
816.56426
818.5676
819.57229
752.63271
760.68846
769.09109
777.42522
785.3748
792.7151
799.2988
805.03871
809.87953
813.78349
816.72737
818.69549
819.68145
)
;
        refGradient     uniform 0;
        valueFraction   uniform 0.99248593;
        value           nonuniform List<scalar> 
130
(
754.70599
762.61734
770.89191
779.09983
786.93126
794.18943
800.7049
806.37425
811.14538
814.97049
817.85893
819.78772
820.7535
748.92148
758.15291
767.58995
776.73967
785.26787
793.02445
799.89955
805.82123
810.76517
814.71131
817.68304
819.65584
820.63627
737.21339
749.47376
761.41675
772.46125
782.36588
791.05743
798.58101
804.94848
810.17834
814.31496
817.42018
819.46975
820.4872
719.56509
737.67331
753.67622
767.41731
779.0929
788.9587
797.23327
804.06985
809.60966
813.95165
817.18518
819.31224
820.36811
698.76706
726.49516
747.37839
763.70396
776.83469
787.54688
796.35451
803.50975
809.26471
813.77355
817.06271
819.22424
820.29578
698.79006
726.49702
747.34685
763.67282
776.80668
787.5431
796.3237
803.47772
809.25961
813.74842
817.0345
819.19253
820.26352
719.26734
737.44832
753.53409
767.30522
778.98254
788.84253
797.11378
803.95425
809.52774
813.88219
817.09183
819.21144
820.26951
736.66314
749.06466
761.0769
772.18283
782.12157
790.8368
798.35595
804.71478
809.95932
814.1437
817.23538
819.28982
820.32511
748.23721
757.60191
767.11123
776.31389
784.91025
792.69693
799.5783
805.51048
810.49066
814.48672
817.47077
819.45868
820.45997
754.0758
762.04646
770.37157
778.63063
786.51031
793.78701
800.31282
806.00939
810.82175
814.70525
817.63715
819.59558
820.57503
)
;
        Tnbr            T;
        thicknessLayers List<scalar> 0();
        kappaLayers     List<scalar> 0();
        kappaMethod     fluidThermo;
        kappa           none;
        alphaAni        none;
        alpha           none;
        field           T;
    }
    bottomWater_to_leftSolid
    {
        type            compressible::turbulentTemperatureCoupledBaffleMixed;
        refValue        nonuniform List<scalar> 
130
(
898.61928
898.57008
898.48712
898.36213
898.20298
898.04273
897.88188
897.71941
897.55667
897.39487
897.24128
897.11793
897.03165
898.63455
898.58866
898.5011
898.36671
898.18839
898.00715
897.82385
897.63786
897.45241
897.26301
897.11435
897.00732
896.94381
898.68084
898.63658
898.54213
898.39462
898.19402
897.97226
897.7492
897.52316
897.30461
897.09183
896.92077
896.80066
896.7346
898.77004
898.71965
898.61435
898.44847
898.22003
897.95806
897.68149
897.38841
897.10448
896.84447
896.62284
896.4658
896.37782
898.89408
898.83595
898.71149
898.51877
898.26265
897.96691
897.63667
897.25879
896.88969
896.54972
896.25731
896.03217
895.90066
899.02029
898.95361
898.81221
898.59491
898.29686
897.96362
897.58602
897.16197
896.77236
896.41788
896.07602
895.81484
895.663
899.13043
899.06229
898.91857
898.68587
898.34701
897.98527
897.60086
897.19543
896.79788
896.41539
896.05199
895.77295
895.62972
899.22128
899.16201
899.03059
898.81623
898.5067
898.15016
897.76382
897.34851
896.94106
896.55507
896.1901
895.92014
895.77882
899.3203
899.2617
899.13926
898.94611
898.67603
898.3541
898.00234
897.60954
897.19032
896.77864
896.40776
896.14291
895.99765
899.38592
899.32653
899.20611
899.01682
898.75147
898.41648
898.07758
897.71386
897.31766
896.93011
896.58511
896.3236
896.17436
)
;
        refGradient     uniform 0;
        valueFraction   uniform 0.99248593;
        value           nonuniform List<scalar> 
130
(
899.16119
899.09031
899.00574
898.86786
898.68664
898.52829
898.36964
898.20678
898.04322
897.87839
897.7042
897.55472
897.42081
899.16782
899.11004
899.01887
898.8759
898.66695
898.48833
898.30669
898.11817
897.93201
897.70005
897.55397
897.44923
897.37957
899.20968
899.16406
899.06601
898.91503
898.6915
898.45403
898.23371
898.00529
897.79185
897.55055
897.37363
897.25191
897.18422
899.31107
899.25633
899.15108
898.9848
898.73416
898.45406
898.17685
897.86916
897.57474
897.3055
897.06152
896.90049
896.8055
899.45557
899.39529
899.26476
899.06155
898.78877
898.48592
898.15996
897.72662
897.32561
896.94765
896.62267
896.3575
896.19485
899.59759
899.52524
899.37221
899.14866
898.80807
898.46377
898.06712
897.57499
897.19027
896.85557
896.44081
896.14251
895.95539
899.71223
899.63717
899.48926
899.24918
898.81575
898.42799
898.03823
897.62851
897.22951
896.83205
896.40324
896.06588
895.92393
899.79108
899.73331
899.60014
899.38151
899.01806
898.62728
898.22727
897.78408
897.37374
896.99096
896.55202
896.24883
896.10178
899.9083
899.84371
899.71682
899.52007
899.22843
898.89653
898.55387
898.147
897.69341
897.23917
896.79493
896.50887
896.34631
899.98811
899.92003
899.7939
899.59568
899.31095
898.92109
898.60116
898.24579
897.81638
897.40074
897.02384
896.73213
896.5537
)
;
        Tnbr            T;
        thicknessLayers List<scalar> 0();
        kappaLayers     List<scalar> 0();
        kappaMethod     fluidThermo;
        kappa           none;
        alphaAni        none;
        alpha           none;
        field           T;
    }
    bottomWater_to_heater
    {
        type            compressible::turbulentTemperatureCoupledBaffleMixed;
        refValue        nonuniform List<scalar> 
92
(
734.32613
736.39004
740.42102
746.20619
724.96454
727.36569
732.15401
739.04243
705.1804
708.27469
714.61421
724.0015
345.66407
342.95455
342.99924
345.73413
422.50728
419.22623
419.47142
423.05056
488.26182
485.4988
486.23069
489.96338
544.18516
542.489
544.41324
548.91314
672.88404
590.41185
676.78306
590.61462
685.31738
595.25026
699.13529
602.84589
345.66407
345.73413
422.50728
423.05056
488.26182
489.96338
544.18516
548.91314
590.41185
602.84589
345.59721
345.59721
342.90997
342.95942
345.68196
345.68196
422.36576
422.36576
419.1366
419.41011
423.00562
423.00562
488.10388
488.10388
485.39605
486.17071
489.94741
489.94741
544.02805
544.02805
542.39347
544.36073
548.927
548.927
590.25542
590.25542
590.51597
595.19431
602.85629
602.85629
672.10747
676.14139
684.78362
698.70511
704.10044
707.33329
713.80236
723.31448
723.79383
726.3128
731.21655
738.21969
733.16384
735.32254
739.49839
745.40577
)
;
        refGradient     uniform 0;
        valueFraction   nonuniform List<scalar> 
92
(
0.99248593
0.99248593
0.99248593
0.99248593
0.99248593
0.99248593
0.99248593
0.99248593
0.99248593
0.99248593
0.99248593
0.99248593
0.99248593
0.99248593
0.99248593
0.99248593
0.99248593
0.99248593
0.99248593
0.99248593
0.99248593
0.99248593
0.99248593
0.99248593
0.99248593
0.99248593
0.99248593
0.99248593
0.99248593
0.99248593
0.99248593
0.99248593
0.99248593
0.99248593
0.99248593
0.99248593
0.99248593
0.99248593
0.99248593
0.99248593
0.99248593
0.99248593
0.99248593
0.99248593
0.99248593
0.99248593
0.99248593
0.99248593
0.99248593
0.99248593
0.99248593
0.99248593
0.99248593
0.99248593
0.99248593
0.99248593
0.99248593
0.99248593
0.99248593
0.99248593
0.99248593
0.99248593
0.99248593
0.99248593
0.99248593
0.99248593
0.99248593
0.99248593
0.99248593
0.99248593
0.99248593
0.99248593
0.99248593
0.99248593
0.99248593
0.99248593
0.99248593
0.99248593
0.99248593
0.99248593
0.99248593
0.99248593
0.99248593
0.99248593
0.99248593
0.99248593
0.99248593
0.99248593
0.99248593
0.99248593
0.99248593
0.99248593
)
;
        value           nonuniform List<scalar> 
92
(
735.91343
737.95133
741.90767
747.6539
726.66484
728.97937
733.73384
740.57209
707.0573
710.01925
716.30706
725.61995
350.16973
347.40006
347.43215
350.13569
426.45539
423.11334
423.34452
426.88808
491.72232
488.88377
489.60521
493.29862
547.23239
545.42726
547.32664
551.77499
674.96697
593.11448
678.69583
593.17487
687.16206
597.77171
700.8669
605.30102
350.05516
350.07122
426.26984
426.76041
491.55683
493.12413
547.09501
551.6554
593.00151
605.19975
349.98595
349.97107
347.30223
347.3356
349.98193
350.02803
426.10001
426.14172
422.94636
423.23141
426.72493
426.80242
491.38119
491.38032
488.68784
489.49184
493.1412
493.26549
546.92046
546.90103
545.27446
547.2077
551.73395
551.76205
592.84267
592.79708
593.05879
597.69706
605.28504
605.30621
674.03409
678.04082
686.6132
700.43482
705.84927
709.06284
715.48425
724.92942
725.43172
727.94636
732.79862
739.73745
734.7452
736.90053
741.05761
746.92142
)
;
        Tnbr            T;
        thicknessLayers List<scalar> 0();
        kappaLayers     List<scalar> 0();
        kappaMethod     fluidThermo;
        kappa           none;
        alphaAni        none;
        alpha           none;
        field           T;
    }
}


// ************************************************************************* //
