/*--------------------------------*- C++ -*----------------------------------*\
| =========                 |                                                 |
| \\      /  F ield         | OpenFOAM: The Open Source CFD Toolbox           |
|  \\    /   O peration     | Version:  v2012                                 |
|   \\  /    A nd           | Website:  www.openfoam.com                      |
|    \\/     M anipulation  |                                                 |
\*---------------------------------------------------------------------------*/
FoamFile
{
    version     2.0;
    format      ascii;
    class       volVectorField;
    location    "460/bottomWater";
    object      U;
}
// * * * * * * * * * * * * * * * * * * * * * * * * * * * * * * * * * * * * * //

dimensions      [0 1 -1 0 0 0 0];


internalField   nonuniform List<vector> 
1460
(
(-0.00014616764 -0.014026339 -0.0013984195)
(-0.00098775544 -0.014719048 -0.0019841449)
(-0.0013486275 -0.014789336 -0.00050916098)
(-0.002353195 -0.015586234 -0.00055339022)
(-0.0021184612 -0.015260673 -0.00032601841)
(-0.0045429079 -0.011813602 -5.3256138e-05)
(-0.0032485213 -0.011630826 -5.241826e-05)
(0.00047985107 -0.011840561 0.00076958606)
(0.0013652812 -0.012469929 -0.0011232784)
(-0.00045721029 -0.016696749 -0.00095316787)
(-0.0010542982 -0.016024271 -0.0019731406)
(-0.0022056147 -0.0160565 -0.0033394437)
(-0.001831717 -0.016587116 -0.003042404)
(-0.0016453571 -0.017269304 -0.0021035252)
(-0.0017126626 -0.018609453 -0.0013657528)
(-0.0018823284 -0.018785873 -0.00048377327)
(-0.0029160117 -0.018655581 -1.2622728e-05)
(-0.0047235085 -0.01514435 0.00065776085)
(-0.004939702 -0.012804962 0.0016715939)
(-0.0037197691 -0.012534293 0.0017381916)
(-0.001905838 -0.013192388 0.00099973842)
(-0.00038588353 -0.013616581 0.00031345772)
(0.002318892 -0.013003488 0.00045096963)
(0.003557338 -0.015225404 0.00040313085)
(0.0012710221 -0.016874036 0.00019857167)
(0.00016681327 -0.018012708 0.00060475296)
(-0.0031896891 -0.014607378 0.001078016)
(-0.001007706 -0.011980505 0.00037189502)
(0.0029730943 -0.012007337 0.00075140397)
(0.0014983809 -0.016336133 0.00082335733)
(-0.0014613252 0.015815697 -0.0020769072)
(-0.00028877492 0.016696797 -0.0033741154)
(0.00035577464 0.016534047 -0.002828424)
(-0.0028774246 0.017217078 -0.0019169775)
(-0.0037528628 0.016774705 -0.0010696189)
(-0.0053982397 0.013934521 -0.00050253219)
(0.0024048656 0.0016134421 0.0011747531)
(0.00049880654 0.00015218925 0.00056207252)
(0.0071055132 0.013458266 0.0001319207)
(0.0029443248 0.018150817 -0.00055420857)
(-0.0030852553 0.017995739 -0.003413443)
(-0.0023829619 0.017147633 -0.0058224928)
(-8.1488131e-05 0.017669028 -0.0050596456)
(0.0024761522 0.018801367 -0.0030188541)
(0.0018841407 0.020004843 -0.0026123688)
(-0.0019499668 0.02024308 0.00067683722)
(-0.0043783454 0.020383583 0.0032743597)
(-0.0053187869 0.016041758 0.0028146637)
(-0.0031153045 0.0060938469 0.0023893502)
(-0.0030263476 0.0023499808 0.0020653605)
(-0.0016200975 0.0020535553 0.00066279457)
(0.0012915853 0.0047453182 0.00023310642)
(0.0033557095 0.0026169159 -8.224157e-05)
(0.007636813 0.01470017 0.00041032914)
(0.0062245613 0.018570318 0.00056151424)
(-0.003699803 0.019589651 0.00057692282)
(-0.0060641402 0.01517886 0.000889313)
(0.0004374017 -0.0020703456 0.00025516405)
(0.0021873349 0.0053666028 0.00054951523)
(0.0046204813 0.017173512 0.0019146012)
(0.00097864056 -0.0046162861 0.00045369868)
(-0.00089925899 -0.011994508 0.0038221325)
(-0.0022626622 0.00050862869 -7.588985e-05)
(-0.002326238 0.0007405822 -0.00012117284)
(0.001354658 -0.0045849019 0.00072172979)
(0.0053511668 -0.010439015 0.001210298)
(0.006172771 -0.01441074 0.00071052282)
(-0.0058888566 -0.014653217 -0.0013768126)
(-0.0050202948 -0.011054624 -0.0015913034)
(-0.001471352 0.0026496859 0.00018915653)
(-0.0032100313 -0.0010651917 0.00080133228)
(-0.00015386008 -0.011196044 0.003671796)
(-0.0015715634 -0.015713753 0.0039599427)
(-0.0025699881 -0.0073824154 0.00060204428)
(-0.0013870462 -0.00026737395 0.00019275849)
(0.00023377961 3.1157923e-05 0.0027052251)
(0.0035704683 -0.0099204948 0.001267356)
(0.0047923149 -0.016332088 -0.0013033554)
(0.0030669806 -0.01600387 -0.0016218946)
(-0.00069145784 -0.013549725 -6.2455844e-05)
(-0.0011225549 -0.014547496 -0.00077561303)
(4.201785e-05 -0.014107221 -0.00056405113)
(-0.0011920999 -0.015749568 -0.0013559386)
(-0.0057958355 -0.014912907 -0.0015938324)
(0.0027013528 0.0026702364 -0.00030079176)
(-0.0027894468 0.0060424098 0.00089204681)
(0.0042626452 -0.014081773 0.00066550104)
(0.001971496 -0.015164132 -0.0005193279)
(-0.0012756367 -0.013996602 -0.0014260963)
(-4.6062611e-05 -0.005955193 0.00034582828)
(0.0033487417 0.0084326165 0.0016707502)
(-0.0047186364 0.011027889 0.0015589789)
(-0.0054901143 0.0078553284 0.0016754385)
(-0.0034750875 0.0060663458 0.00158919)
(8.9280175e-05 0.0021258566 0.0010725382)
(3.2677317e-05 0.002099986 0.00066828777)
(-0.00022226642 0.011255913 -0.00059548108)
(-0.0027007988 0.010960211 -0.00032194381)
(-0.0039102205 0.009918358 -0.0021644057)
(-0.0016147924 0.0081403426 0.00032818376)
(0.00079053595 0.0079456747 0.0034880194)
(0.0015553473 0.0015805405 0.0012710798)
(0.0010046374 0.011493933 0.0010839904)
(-0.0050940607 0.010196841 -0.0007488561)
(-0.0034307787 0.0081231741 0.00083445842)
(0.0010003801 0.0025768456 0.00038868431)
(0.0036595817 0.011328397 -0.0031124136)
(0.000744077 0.012923685 -0.0038878618)
(-0.0012301474 0.0095522022 -0.0033185631)
(-0.00069501917 0.00013601345 -0.00067777514)
(-0.00052532345 -0.0050900458 -0.0013987589)
(-0.0019774792 -0.0019983574 -0.00091617104)
(0.0007214206 0.0087405695 0.00016988599)
(-0.0048070878 0.0099315366 -0.00069907721)
(-0.0015361595 0.0077590571 0.0001303955)
(0.00044510058 0.0092983472 0.0012458326)
(0.0028516568 0.0049675311 0.00057502892)
(-0.0009526754 -0.0034754871 -0.0012655865)
(0.0012658402 0.0040199813 -0.00030202819)
(-0.002887301 0.0086407542 -0.0027653615)
(0.00012746621 -0.0033222125 0.0023945767)
(-0.00045306497 -0.0011239848 0.0027625664)
(0.0020437382 -0.0026831196 0.0019123531)
(0.00074446184 -0.0078166988 0.0015625875)
(-0.003110657 -0.0094297237 -0.00083002003)
(-0.0063128266 -0.0091242418 -0.0018409919)
(-0.0061837268 -0.0081729159 -0.0011613191)
(-0.0039979397 -0.007713646 -0.0009658976)
(-0.0024158428 -0.0059726929 -0.0014356922)
(0.00044142121 -0.00035149349 -0.00073807021)
(0.0039929923 -0.0074543866 -0.00067171919)
(0.00018962569 -0.01189147 -0.00058664551)
(-0.0039635227 -0.0088176766 0.0023153078)
(-0.0019195401 0.0023047588 0.00047270529)
(0.0030746125 -0.0087879316 0.00088038978)
(-0.0043305425 -0.0096987942 -0.0020437102)
(-0.0026753031 -0.0044112869 -0.0023779696)
(0.0017414139 -0.0035157537 -0.0025205296)
(0.0052842047 -0.0079083833 -0.0025961086)
(0.0056834023 -0.0088506435 -0.0034317194)
(0.0023505577 -0.010129195 -0.0029777573)
(-0.0053103805 -0.010696827 -0.0020279157)
(-0.0060296328 -0.0096989148 -0.001827554)
(-0.0042479021 -0.005679956 -0.0012714334)
(-0.0017233192 -0.00082977112 -0.0010770988)
(0.0020000359 0.0016968647 0.00083228607)
(0.0048042915 -0.0082700101 1.0518271e-05)
(-0.0014556242 -0.0097545576 -0.0030024605)
(-0.0037517009 -0.0087878162 -0.0038563205)
(-0.0028528507 -0.0034382884 -0.0035477035)
(-0.0019530554 -0.014602992 -0.0023369623)
(7.4625979e-05 -0.010044043 -0.00097689718)
(0.0015673127 -0.012645046 -0.0033873446)
(-0.0011955638 -0.015116959 -0.0022932452)
(-0.00097012118 -0.014927839 -0.0026625604)
(-0.0039253766 -0.011973579 -0.0019694554)
(-0.0016753381 -0.01192235 0.00041250668)
(0.0021377695 -0.012963529 0.0019530157)
(-0.00012261045 -0.017182068 -0.00069906194)
(-0.002580797 -0.017053552 -0.0010677815)
(-0.0044954178 -0.014463339 -0.00066287245)
(-0.0031847673 -0.012107552 -0.00018541245)
(-0.00029366883 -0.01188043 -0.0012290256)
(0.0019602385 -0.014377212 -0.0036788015)
(0.0012891745 -0.01575426 -0.0036911688)
(0.00071819988 -0.015975904 -0.003280547)
(-0.00057198852 -0.018430132 -0.0019622079)
(-0.0015859471 -0.017889795 -0.00086824342)
(-0.0033870769 -0.015258535 0.0012034027)
(-0.0036727061 -0.015320593 0.0022811551)
(-0.0023661756 -0.012275849 0.002548728)
(0.00061304322 -0.012732527 0.0010236376)
(0.0027838385 -0.013106803 0.0010213444)
(0.003441976 -0.015247156 6.2964419e-05)
(0.00070390047 -0.017942906 -0.00099353103)
(0.00056897496 -0.017424586 -0.00076118153)
(-0.0028714841 -0.012447547 -0.0013425252)
(-0.00017939065 -0.011370631 0.00089554537)
(0.0030188803 -0.017927856 0.0014410613)
(0.00076751092 -0.018687104 0.0012217371)
(-0.0032716873 0.015322248 0.00037001392)
(-0.00041559967 0.00069840283 0.0023943085)
(0.0021370653 0.014109095 -0.0047887847)
(0.00059770429 0.017106908 -0.0035349934)
(-0.0014889339 0.016762036 -0.0036823986)
(-0.0040290272 0.014774542 -0.0033898626)
(0.0039029258 -0.0017047398 0.00108911)
(0.0052425428 0.008253398 0.0027310883)
(0.0063635352 0.017524803 0.0017871274)
(-0.0059520354 0.018439427 -0.00064904644)
(-0.0059070367 0.012633995 0.00088754675)
(-0.0021839319 -0.00091554833 0.0023527171)
(-0.00083125863 -0.00011018587 0.00044557475)
(0.004424993 0.011603921 -0.0041126853)
(0.0046528821 0.016303944 -0.0056933607)
(0.0047066721 0.017422053 -0.0053885168)
(0.0037290855 0.01975056 -0.0030786625)
(-0.0027951004 0.019257272 0.0025095994)
(-0.0059462676 0.016887231 0.004809077)
(-0.0058658261 0.014117601 0.0049862723)
(-0.0018222253 0.0039559538 0.0034477524)
(0.0022451333 0.0036256185 0.0018864081)
(0.0047864455 0.0060754892 0.00085216852)
(0.0078802653 0.015870321 0.0013045049)
(0.004355035 0.019466872 0.00021969494)
(-0.0040851611 0.019131401 -0.0026610831)
(-0.0046437264 0.01430612 -0.0024239992)
(0.0026170154 -0.0010552027 0.00084376252)
(0.0056719185 0.016206071 0.0026682763)
(0.0054224834 0.019922193 0.0028022917)
(0.0029980055 -0.0071607441 0.0021595235)
(-0.0011963225 -0.014334338 0.0051233026)
(-0.0054968856 -0.011563323 0.00441557)
(-0.001884161 -0.0054884444 0.0010512286)
(0.0013852756 -0.0043508598 0.00025891921)
(0.0063703058 -0.013336698 0.001445222)
(0.004381555 -0.015501609 -0.00019357385)
(-0.0051261091 -0.012265945 -0.002726232)
(0.0019007202 0.0040499139 -0.0008701839)
(-0.0038747776 0.0065031638 -0.00080778169)
(0.004615772 -0.014613161 0.0025737678)
(0.00024133846 -0.015088699 0.0060398103)
(-0.004387491 -0.014661918 0.0046753915)
(-0.003737221 -0.014518773 0.0027800903)
(-0.00054914709 -0.012111073 0.0023111314)
(0.0013258268 -0.0053206105 0.0026809957)
(0.0016569609 0.0043230919 -0.00035201241)
(0.00045331874 0.0067318396 0.0011851654)
(0.00012692319 0.00054078012 0.00052365347)
(0.0037408403 -0.014583119 0.0001676735)
(0.0013761383 -0.014621617 0.0015776478)
(0.0014705766 -0.014099622 0.00047229253)
(-0.00042442192 -0.015431374 -0.0032946875)
(-0.0018961558 -0.0080887427 -0.0021235815)
(0.0023143465 0.0063952433 -7.6688459e-05)
(-0.0013301038 0.0040705866 -0.00074293945)
(0.0043252815 -0.013416998 0.0015184445)
(0.0031555814 -0.015183941 0.0009726642)
(-0.005516448 -0.015696821 5.7658368e-05)
(0.0034301173 0.0061299749 0.0020324233)
(0.0029658422 0.0087350733 0.0015427348)
(-0.00097284351 0.009807694 0.0022901718)
(-0.0045867427 0.0086376428 0.00378652)
(-0.0019219643 0.0021418139 0.0035827914)
(-0.0009658758 0.00080970938 0.0012890055)
(0.0031739476 0.010280701 0.0014965657)
(-0.0014537075 0.010291162 -0.00074928937)
(-0.0035242549 0.0091436161 -0.0019095028)
(-0.0013852331 0.0080407241 -0.0018795715)
(0.00045298817 0.0093369576 -0.00026239066)
(0.0046217023 0.010690231 0.0030632056)
(-0.00041907765 0.010420007 0.0029032901)
(0.00064663742 0.0057228231 0.0029628085)
(0.00046955071 0.00031420446 0.0012997533)
(-0.0003932686 0.0051336916 0.0022144152)
(0.00015055571 0.0084866801 0.0041674731)
(-0.00039679064 0.0096343236 0.00067946548)
(0.0012645994 0.010882904 -0.00059642504)
(0.0035765405 0.0076076926 -0.0021185792)
(0.0035964636 0.010800039 -0.0014022704)
(0.00024114024 0.0034760791 0.0017429856)
(2.0915139e-05 -0.0017427448 -0.00060156851)
(-9.0196639e-05 0.0084495372 -0.0014243589)
(-0.0035442433 0.0087052577 -0.0029292688)
(-0.00034593055 0.010048877 -6.9550677e-05)
(0.0021922336 0.0080597857 0.0021037765)
(0.0042798138 0.0029273887 0.00017009848)
(0.0042350769 0.0037208031 0.00035848475)
(-0.0022258861 0.01116314 0.0015489818)
(-0.0013451712 0.0096041244 0.00030690163)
(-0.00038413013 -0.0075918844 0.0032539209)
(0.0012361823 -0.0035817275 0.0036538654)
(0.0032782262 -0.0064705532 0.0025693175)
(0.0027593225 -0.0092605148 0.0027445962)
(-0.0051479955 -0.0091257802 -0.00028430206)
(-0.0056946724 -0.0081818014 -0.0010213298)
(-0.0048180691 -0.0059500269 -0.00092798516)
(-0.00383325 -0.0061235181 -0.0010084337)
(-0.0024876401 0.00022934469 -0.0016350322)
(0.00080167061 0.0028825124 -0.00012573626)
(0.0042801727 -0.0035446379 0.00033854543)
(0.0054347224 -0.0064526381 -0.00042020371)
(0.0054234934 -0.010511735 0.0011201723)
(0.0020138933 -0.010387379 0.0026494806)
(-0.004135971 -0.0088277472 0.0015581063)
(-0.0039356641 -0.0029683278 0.00065305765)
(-0.0028605528 0.0019211141 0.0001976235)
(0.0012481144 0.0035527031 -0.00065701727)
(0.0039342797 -0.0010756537 -0.0021006116)
(0.0050935555 -0.003591427 -0.0025677647)
(0.0062978335 -0.0077021556 -0.0024847247)
(-0.0013302079 -0.010052981 -0.0019857109)
(-0.0054396573 -0.0081136594 -0.0017077774)
(-0.0036249647 -0.0024204908 -0.0015890597)
(-0.00046919176 0.0035619837 -0.00048223383)
(0.0037946596 -0.00062353475 0.00083871073)
(0.0035675785 -0.0097378591 -8.8541097e-05)
(-0.0045184673 -0.007247565 -0.0016062695)
(-0.0036654799 -0.0014565288 -0.00099051322)
(-0.0019058224 0.0030987713 -0.001266034)
(-0.0020374893 -0.016101937 -0.00091259071)
(-0.00192626 -0.01268746 -0.00014738086)
(0.0011863026 -0.011909245 -0.00173327)
(0.0013112177 -0.013253592 -0.0026695316)
(-0.0013540856 -0.012607788 -0.0023275236)
(0.000428757 -0.01050215 -0.0031448536)
(0.00028336583 -0.012319153 0.0013372416)
(0.0018452031 -0.014929648 0.0022186707)
(-0.0014334568 -0.018603218 0.0020788952)
(-0.0022020849 -0.018047326 0.0001558605)
(-0.0040465774 -0.016604608 0.00035738683)
(-0.0032355756 -0.013606186 0.00035065677)
(-0.0006330399 -0.014646054 -0.00057225083)
(0.0012568756 -0.01302259 -0.0028863188)
(0.0020864787 -0.012814255 -0.0028709674)
(0.003019798 -0.012880976 -0.0026288852)
(0.0027261199 -0.014931678 -0.0023631217)
(0.0014809388 -0.017850206 -0.0010607201)
(-0.0013785003 -0.018799305 -0.00059962307)
(-0.0023613018 -0.016554601 -0.00019741614)
(-0.0023331393 -0.013416269 0.00054249107)
(0.0014389769 -0.011729632 7.9863488e-05)
(0.0021406849 -0.014760086 0.00062893416)
(0.0020431952 -0.018524423 2.2567368e-05)
(-0.00037214576 -0.0184807 -0.00069023994)
(-0.0021192292 -0.01462657 -0.0014676575)
(-0.0027695769 -0.010995975 -0.0019284778)
(0.0014001964 -0.011995185 -8.273225e-05)
(0.0033236776 -0.016650744 -0.00013662941)
(0.00099940247 -0.018193176 0.00048867958)
(-0.0061394418 0.016057906 7.1695681e-05)
(-0.0008323477 0.0036137457 0.0014089108)
(-0.0010766353 0.00057983556 0.00060168846)
(0.003096851 0.014057546 -0.002160435)
(0.00020992947 0.0091948372 -0.0006725641)
(0.0034945851 0.0042377884 -0.00042961606)
(0.0053084402 0.0057955947 0.00037898394)
(0.0076581173 0.014957149 0.0017307841)
(0.003985855 0.019393331 -0.00025790265)
(-0.0049373415 0.018416662 -0.0040170901)
(-0.0070528978 0.016751248 -0.00208792)
(-0.0018491311 0.0019456839 -0.0017299153)
(-0.00064092835 0.0037369762 -0.0023577711)
(0.0029764034 0.0038658569 -0.0030660835)
(0.0036004566 0.0054450222 -0.0029559465)
(0.005333913 0.0076107528 -0.0024232824)
(0.0068334284 0.015240831 -0.0045609858)
(0.0062146919 0.01891017 -0.0042487923)
(-0.002666155 0.020098058 -0.0011340735)
(-0.0051594031 0.018027133 -0.00061043716)
(-0.001112487 0.010636835 -0.00025947574)
(0.0033969635 0.0027109916 0.00066978929)
(0.0061925443 0.011321307 0.00074377081)
(0.0066577795 0.019108795 0.00051885847)
(-0.0037574663 0.019865929 -0.0028703309)
(-0.0054622169 0.015394239 -0.0037105427)
(-0.0017128786 0.002767028 -0.0011097308)
(0.0012130107 -0.00090940357 -0.00096611942)
(0.0066382256 0.016393098 -0.0018185815)
(0.0056999755 0.019656528 -0.0016724233)
(-0.00062102109 -0.0030548436 0.0014194557)
(0.0040337625 -0.013809685 0.0023492329)
(-0.0051739959 -0.014294154 0.0040082245)
(-0.0022491385 -0.013238582 0.0041156695)
(0.0017498914 -0.013505855 0.0026312348)
(0.003661212 -0.013568624 0.00051451118)
(0.0013679133 -0.014527075 -0.0028399387)
(-0.0015996018 -0.0057671898 -0.0016953253)
(0.0019134868 0.0067729454 -0.0010904657)
(-0.0014869584 0.0035523861 -0.0018897873)
(0.0031258575 -0.012448114 -0.0056638307)
(0.0041656565 -0.015576215 -0.0033275314)
(-0.0022983717 -0.01489359 -0.0025753616)
(-0.00077300556 -0.013889036 0.0013200226)
(0.00023898997 -0.013895255 0.0024785034)
(0.0012003655 -0.01496345 0.0044108072)
(-0.0036658247 -0.01230711 0.0044723873)
(0.0022111125 0.0048254549 -0.00087327338)
(-0.0012817319 0.0078786324 -0.0012261753)
(0.0025290896 -0.0041616287 -0.002495896)
(0.0032143435 -0.014509326 -0.0022825403)
(0.0023913915 -0.014635883 -0.00036948067)
(-0.0016708674 -0.015138925 -0.0042607823)
(0.0034152414 0.0038768033 -0.0010489465)
(-0.00071864705 0.0065425026 -0.00084496653)
(0.0035505521 -0.011717792 0.0028799907)
(0.0019095478 -0.01428757 0.0023080939)
(-0.0009541826 -0.014888947 0.00060605988)
(-0.0052674302 -0.01500391 0.00097147464)
(0.0032343559 0.0065041013 -0.00089875627)
(0.002343707 0.0078292402 0.0017779462)
(0.0038744261 0.010390075 0.0013429155)
(-0.002332779 0.0094751441 0.00072953689)
(0.00068687633 0.00047758394 0.0031700793)
(-0.00018521979 -0.002900547 0.0013113215)
(0.0011765567 0.0014376193 -0.0013708238)
(-0.00024087435 0.0094615245 -0.0019339585)
(-0.0029071991 0.0079507812 -0.0034050955)
(0.00054403062 0.010294044 8.8209944e-05)
(0.0027917801 0.0085523881 -0.00030010017)
(0.0050531871 0.011497475 -0.0028606169)
(0.0034616409 0.012006544 -0.0014414148)
(-0.0014705255 0.011571954 -0.0018132062)
(0.0025658497 -0.0033092236 -7.1182753e-05)
(-0.0010439796 -0.0020772451 0.0011038976)
(0.0023464516 0.010266989 0.0020881912)
(-0.0051996383 0.011040336 0.0026594602)
(-0.001448187 0.0093194284 0.0012105754)
(0.00059887201 0.010987227 -0.001701235)
(0.00501597 0.0089164721 -0.0031936278)
(0.0015081965 0.010185155 -0.0017938198)
(0.0023427608 -2.6282726e-06 -0.00011994159)
(-0.001856846 0.0040274825 -0.0014787864)
(0.00072544763 0.00867697 -0.0022205624)
(0.0021094866 0.009427619 0.00039031917)
(0.004501844 0.010316538 0.0029605114)
(0.00097285962 0.0024653271 0.00065276517)
(0.0010010144 -0.000259502 0.00014574514)
(-0.0029568578 0.010214964 -0.0028772355)
(-0.0017368515 0.0096076815 -8.2058941e-06)
(-0.00065955608 -0.0076905903 0.002415802)
(0.0024357326 -0.0039152302 0.0035311601)
(0.0042814533 -0.0067849401 0.0031801645)
(0.0051756996 -0.0092719186 0.0034421911)
(-0.0004963628 -0.009517509 0.001108088)
(-0.0055511527 -0.0080281594 -0.00061986286)
(-0.0046383334 -0.0056005833 -0.00074255116)
(-0.0035554756 -0.0030824994 -0.00082513767)
(-0.00021955978 0.0033660091 0.00076363348)
(0.0022158665 -2.6181415e-05 0.0017363524)
(0.0034440158 -0.0045733173 0.00047315279)
(0.005085296 -0.0050149194 0.00039221993)
(0.0062608 -0.0080059727 0.0013731555)
(0.0059067849 -0.010206676 0.0017339992)
(-0.005529122 -0.0088971539 0.0028116574)
(-0.0050123448 -0.0051415433 0.0028862319)
(-0.0043952582 -0.0022373401 0.0023611642)
(-0.0012367463 0.0020414905 0.0022706392)
(0.0021024841 0.0032270052 -0.00043653085)
(0.0050496073 -0.00078244054 -0.00076375003)
(0.0054578329 -0.0051072597 -0.00012872264)
(0.0041796912 -0.0095582612 0.00067548294)
(-0.0044613003 -0.0084161737 -5.3130487e-06)
(-0.0013189097 0.0014715939 -0.0012066242)
(0.0016913944 0.0023223703 0.0016388863)
(0.0043470539 -0.0022262483 0.0026891074)
(0.0051699167 -0.0084234359 0.0028052836)
(-0.0042404005 -0.0083408479 0.0024540312)
(-0.0045411475 -0.0042737083 0.001544173)
(-0.0024468713 0.0032480169 0.001622062)
(-0.0019785109 -0.017195472 0.0018147738)
(-0.0019741279 -0.011925936 0.0019231121)
(-2.4171612e-05 -0.012638243 0.00035688826)
(0.0011322475 -0.011006612 -0.00020325316)
(0.0020452699 -0.011128024 0.00062727917)
(0.0031980252 -0.011566759 0.0010959018)
(0.0022686357 -0.014210644 0.0025273537)
(0.0011975438 -0.016624121 0.0028178841)
(-0.0024710333 -0.017015918 0.0015874514)
(-0.00063088208 -0.011237384 -0.0011165743)
(0.0009786882 -0.021107278 6.5683233e-05)
(-0.0032654566 -0.017311259 0.003192396)
(-0.003800809 -0.013097395 0.0016588625)
(-0.0017055764 -0.012788293 -0.00075911845)
(0.0011669932 -0.012907076 -0.00091239619)
(0.0022673743 -0.013168477 -0.0013804467)
(0.003306824 -0.012695839 -0.0016548905)
(0.0039407502 -0.016466447 0.00036389474)
(0.00079550217 -0.01785864 0.0014527523)
(-0.0021736275 -0.01794521 -0.0015380028)
(-0.0017446985 -0.013059848 -0.0014751821)
(0.00043485956 -0.011757343 0.0015807646)
(0.0014370432 -0.01970061 0.0015907074)
(-0.0010490515 -0.019077953 0.00015813639)
(-0.003081937 -0.015365746 -0.00089735353)
(-0.0028036001 -0.012898007 -0.0011102209)
(-0.0020499813 -0.012160895 0.00010024732)
(0.0019111051 -0.012539077 0.0015526945)
(0.0031583286 -0.012831403 0.0015234026)
(0.0020964922 -0.016481981 0.001888723)
(-0.0036035501 0.017969099 0.0022164049)
(-0.0012465841 0.0044099573 0.0016549658)
(0.00022386915 0.0026079424 0.0001685825)
(0.0025903034 0.0014940496 0.00051195804)
(0.0035198457 0.00075236482 0.00080008607)
(0.0053767701 0.0055826727 0.00068067684)
(0.0072032481 0.014526571 0.0024072114)
(0.0038307751 0.018388386 0.0014432686)
(-0.0051306856 0.01751998 -0.0024954067)
(0.0011792175 0.0026128274 -0.0026107961)
(-0.00051344774 0.020970313 -0.0028563)
(-0.0054742658 0.01808543 0.0028021953)
(-0.0032545107 0.007044298 0.00022705672)
(-4.5991296e-05 -0.0003807508 -0.00066829426)
(0.0013974674 0.001471674 -0.00073932029)
(0.0041898619 0.0050193204 -0.0016487755)
(0.0042636872 0.0032186761 -0.0012529317)
(0.0071795131 0.014285297 -0.0022907718)
(0.0039416017 0.019366399 -0.0021686698)
(-0.0040983034 0.018087156 -0.0046794808)
(0.00022769907 0.0089765556 -0.0026007389)
(0.0020997443 0.0018973662 0.0025207711)
(0.0068783849 0.018347434 0.0028577114)
(-0.001637685 0.020471927 -0.0017001763)
(-0.0065793078 0.01592068 -0.0039902414)
(-0.0040827244 0.0065431134 -0.0025693052)
(-0.0021859969 0.0014596521 -0.00035384968)
(0.0026756025 -0.00059394716 0.00096021165)
(0.0038334007 0.0070462683 -0.00012389606)
(0.0050964934 0.017353767 -0.00030049587)
(0.00096359957 -0.011696622 -0.00030276031)
(0.0031823785 -0.013756025 -0.0019264265)
(0.00014986421 -0.01328789 -0.0011422591)
(0.00091094839 -0.013495573 0.00097882729)
(0.0021004188 -0.013741558 -0.00030449044)
(0.00084394763 -0.013287909 -0.0022410099)
(0.0014373176 -0.0074126285 -0.0023685672)
(0.00091361633 0.00559881 -0.00029189782)
(0.0030112022 -0.0084545228 -0.00094501175)
(0.0016548959 -0.013645594 0.00011564685)
(-0.001558756 -0.0062019466 -0.0026908046)
(0.0018094199 -0.015373016 -0.0032539993)
(0.00040593322 -0.013500306 -0.0026535902)
(0.0014746967 -0.014108596 0.00025040881)
(0.00022306343 -0.013830015 0.0011877142)
(0.0029460571 -0.01317129 0.00096772444)
(0.00016336719 -0.015593578 0.0020239474)
(-0.0026157743 -0.016380241 -0.00066638034)
(0.0013281051 0.0049151251 -0.0013226564)
(0.00027523775 -0.0085994836 -0.0019824442)
(0.0023942381 -0.014413204 -0.0012003326)
(-7.2561138e-05 -0.01520233 0.0019149458)
(0.0012844925 -0.011256123 -0.00059600206)
(-1.4067165e-05 0.0070281303 -0.0011337314)
(0.0020278566 -0.0059557089 0.0018490497)
(0.0016309 -0.014686867 -5.4726248e-05)
(-0.00035956628 -0.01428361 0.0011787565)
(0.00049487341 -0.014834563 0.0014142692)
(-0.0029142306 -0.014066794 -0.0004307083)
(0.00094638299 -0.0030742442 0.00046810966)
(-0.00028709768 0.010949027 -0.00089957512)
(0.0018643568 0.0064055535 0.00080440427)
(0.00058805668 0.005435444 0.0012767845)
(0.0022295575 -0.0011824891 0.0005508524)
(0.0017313009 -0.0035705286 -0.00061213048)
(0.0016930469 0.0016930533 -0.0014784309)
(-0.0016891455 0.008388215 -0.0033743944)
(0.00013033523 0.0091078319 -0.0026395045)
(0.0034817522 0.010645452 -0.00064584399)
(0.0020308818 0.0062343495 0.0012474803)
(0.0029761224 0.010309811 -0.002149144)
(0.0013101388 0.013898045 2.4186597e-05)
(0.00045159335 0.0011876285 -0.0003398276)
(0.0013286912 -0.0046156548 0.00059332597)
(1.0822269e-07 -0.0039154866 0.0012009537)
(0.0018939376 0.0033128247 0.0011291487)
(0.0018794859 0.010046379 -0.00081010555)
(-0.0034593929 0.011272008 -0.0015967995)
(-0.00044710113 0.0082932254 -0.00072243545)
(0.0020345408 0.0091375453 -0.0032111182)
(0.00051360185 0.003345701 -0.0012994222)
(0.0011209656 -0.0033046062 0.001901007)
(-0.00036336375 0.0099619472 -0.0032549318)
(0.00014336051 0.010169593 -0.00089255917)
(0.0039918654 0.0083020411 0.0026853885)
(8.9837252e-05 0.0087578594 -0.0020590893)
(0.0010892765 -0.0025996987 0.0018475384)
(0.00027746504 -0.0046115922 0.0013589248)
(-0.00095861153 0.004815932 -0.0014002252)
(-0.0017450711 0.0078211611 0.001271408)
(0.0014643907 -0.0078906947 0.0011813015)
(0.0034338633 -0.0093209748 0.0018589422)
(0.0041201212 -0.0088232406 -9.4267923e-05)
(0.0045250107 -0.0089286236 -0.0017693395)
(-0.00015088278 -0.0094417033 -0.0025008114)
(-0.0045520056 -0.0071361463 -0.0029682045)
(-0.0034835155 -0.0035823519 -0.0018910993)
(-0.0010795174 -0.00039106014 -0.0013589453)
(0.0019202909 -0.006563548 0.0032250426)
(0.0019087679 -0.0096017129 0.0043656436)
(0.0024552505 -0.0087465277 0.0021227227)
(0.0059125718 -0.0085362295 0.0018954062)
(0.0067547788 -0.0098877015 0.0021196838)
(0.0035310545 -0.010184143 0.0021598668)
(-0.0046790144 -0.0096631956 0.0029094925)
(-0.0057115085 -0.0088217625 0.0033303508)
(-0.0041961064 -0.0066757802 0.0021595365)
(-0.0016898396 -0.0037073522 0.0023204992)
(0.0014902024 -0.00054722923 0.0025617489)
(0.003882995 -0.0067732051 0.0024368111)
(0.0046885741 -0.010314197 0.0019474702)
(-0.0009627087 -0.010339973 -0.00025461882)
(-0.0044914509 -0.0087746542 -0.00067238051)
(4.255101e-05 0.0020346282 0.00036952805)
(0.0028699445 -0.0026398823 0.003159641)
(0.0040341474 -0.0062963283 0.0035584934)
(0.0047782711 -0.0092806195 0.0033897376)
(-0.0020964165 -0.010074598 0.0011897681)
(-0.0038639636 -0.0088379434 0.001130399)
(-0.0025292013 -0.0029005835 0.0018165099)
(-0.00069236982 -0.015647617 0.0021245458)
(-0.0025796874 -0.013980676 0.0027819112)
(-0.00078270651 -0.01191013 0.0025867361)
(0.0013834525 -0.01749371 0.0023205394)
(0.00082148967 -0.0169527 0.0028760557)
(0.00068087705 -0.01496458 0.00073615451)
(-0.0001060212 -0.016187849 0.0024250208)
(-0.000232114 -0.016873649 0.0036103744)
(-0.0026301025 -0.014230775 0.0027721109)
(-0.0023278052 -0.010207232 0.001543266)
(0.00098296187 -0.014603139 0.002489988)
(-0.00081217988 -0.018413928 0.0045348034)
(-0.0021371636 -0.01139948 0.0027541321)
(-0.00075524266 -0.016509431 0.0032563493)
(-0.0037549475 -0.014708565 0.0028068342)
(-0.0022163362 -0.011561723 -6.9611473e-05)
(0.00097937796 -0.012182275 0.00016248105)
(0.00099743985 -0.017766637 0.0022867713)
(-0.00051731187 -0.019830229 0.0023636716)
(-0.0031781574 -0.017147676 0.00078933285)
(-0.0031728942 -0.01370305 -0.00055265252)
(-0.0019140717 -0.012625313 6.24173e-05)
(0.00014033591 -0.01296812 0.00055214506)
(0.0029328572 -0.01230845 0.0029167474)
(0.0036762913 -0.014203943 0.0035528748)
(0.0016356501 -0.016100451 0.0034155661)
(-0.0030758742 0.017269611 0.0048663288)
(-0.004089025 0.014336154 0.0052890012)
(-0.00073901164 0.0030946263 0.0019693271)
(0.0036209188 0.016617564 0.0050147898)
(0.0043395616 0.017568892 0.0051393666)
(0.004769135 0.01713778 0.0022005278)
(0.0042161534 0.018039156 0.00072094727)
(-0.0012757124 0.018679469 0.0005015848)
(-0.0045687146 0.01479709 -0.00033196651)
(-0.0005236781 -0.00052972642 -0.0024299917)
(0.00053366401 0.005617143 -0.0012483249)
(-0.0020187575 0.019241735 0.0034216588)
(-0.0014359213 0.0038067024 -0.001265919)
(-0.00034855991 0.018269519 0.00050187629)
(-0.0033851086 0.014994624 -0.0013903714)
(0.0012274911 -0.0011284 -0.00056304402)
(0.0022078299 6.126893e-05 -0.0004549322)
(0.0070067765 0.015896264 0.0023754412)
(0.0041656608 0.020970508 0.0019025463)
(-0.0073228342 0.017513622 -0.0025580429)
(-0.0047444835 0.0078569148 -0.0023035257)
(-0.0039591287 0.0025612667 -0.0016572427)
(0.00019854065 0.0045235197 0.00044051486)
(0.0032035403 0.0024576248 0.0021495536)
(0.0063823203 0.014300546 0.0031245455)
(0.0052082771 0.018010041 0.0026567128)
(0.00019063568 -0.00071004649 0.00062437496)
(0.0051208281 -0.012051122 -0.0033983341)
(-0.00013223734 -0.014729829 -0.0033478545)
(-0.0043908795 -0.016348886 -0.0012996692)
(0.0024785045 -0.0090836794 0.00039990779)
(0.0023179503 -0.0068668665 0.0013795435)
(0.0027734045 0.0020847359 0.000500057)
(-0.0016462301 0.0025997021 -0.00040264196)
(0.0043917066 -0.013153395 -0.00087323812)
(0.0037284788 -0.013877256 -0.0032393354)
(0.001248507 -0.015310539 -0.0016284325)
(-0.0019440279 -0.013203453 -0.0023990626)
(0.0011253625 -0.012822037 -0.0033355121)
(-0.00072535553 -0.011096463 -0.002661406)
(0.0041595439 -0.015477213 0.00013574883)
(0.0040303626 -0.014444647 0.00052092858)
(-0.00079333041 -0.015162615 -0.00060059157)
(-0.0044565058 -0.014939452 -0.0011366567)
(0.0027851606 0.0087257579 0.0017276364)
(-0.0024621757 0.0012190826 -0.00043554461)
(0.0016221232 -0.015416319 0.00042287287)
(-0.0031517042 -0.014547167 -0.00092737891)
(-0.00061168322 -0.014149193 0.00073267537)
(-0.0005847124 -0.014908062 0.00015153527)
(-0.0046969248 -0.014295525 -0.0020125914)
(0.0021534207 0.0022198688 0.00044997518)
(0.0017316515 0.0033115783 -0.003111074)
(0.0050893481 0.0096701422 -0.0036883424)
(0.0015948409 0.011119729 -0.0025694969)
(-0.0034355706 0.01082504 -0.00080735831)
(-0.0018401199 0.0057622769 2.6816698e-05)
(-0.001049974 0.0088593239 0.00049988738)
(-0.0013984126 0.0084564868 -0.0002753137)
(-0.00015335025 0.0079924884 0.00051660659)
(0.0040103568 0.0011817315 -0.00078587341)
(0.0016755843 0.00041855108 -0.00091037908)