/*--------------------------------*- C++ -*----------------------------------*\
| =========                 |                                                 |
| \\      /  F ield         | OpenFOAM: The Open Source CFD Toolbox           |
|  \\    /   O peration     | Version:  v2012                                 |
|   \\  /    A nd           | Website:  www.openfoam.com                      |
|    \\/     M anipulation  |                                                 |
\*---------------------------------------------------------------------------*/
FoamFile
{
    version     2.0;
    format      ascii;
    class       volScalarField;
    location    "2";
    object      p;
}
// * * * * * * * * * * * * * * * * * * * * * * * * * * * * * * * * * * * * * //

dimensions      [0 2 -2 0 0 0 0];


internalField   nonuniform List<scalar> 
64000
(
1.41971e-21
7.24583e-22
-1.26668e-21
-1.34636e-21
1.05691e-21
5.89851e-22
7.80201e-22
-4.13936e-22
-4.09371e-22
-1.03847e-21
-3.38143e-22
4.6155e-22
-6.72319e-22
-8.28012e-22
-5.70261e-22
7.6146e-22
-1.42874e-21
2.75982e-22
2.18205e-21
1.07103e-21
-1.12559e-21
-2.65757e-21
-1.37799e-21
-1.79612e-21
-2.91005e-22
4.68159e-22
6.81464e-23
7.67949e-22
4.71192e-22
-2.78012e-22
-1.12275e-21
-1.63877e-22
4.35302e-22
4.37488e-22
2.11251e-22
-7.26003e-22
4.89818e-22
7.57214e-22
5.81183e-22
7.30503e-23
9.00918e-22
1.40442e-22
1.43374e-22
-6.85157e-22
-7.0702e-22
-3.51514e-22
2.34683e-22
2.59726e-22
-1.18259e-21
-1.32597e-21
-5.95738e-23
-2.71035e-22
-6.60415e-22
-1.54136e-22
-1.93613e-21
-1.60022e-22
-3.39976e-22
4.35209e-22
2.59342e-21
1.23284e-21
-6.87414e-23
-2.32839e-21
-2.38737e-21
-2.90486e-21
-7.67172e-22
1.12399e-21
7.65202e-22
5.68319e-22
4.22272e-22
-8.25637e-22
6.97312e-22
5.55e-22
5.89442e-22
4.87691e-22
-3.79445e-22
-1.21284e-21
9.51064e-22
4.49722e-22
6.93241e-22
3.40125e-22
2.6343e-21
1.44357e-21
6.50436e-22
3.74316e-22
-1.88346e-21
-1.18801e-21
-9.5491e-22
-1.02968e-21
-1.31401e-21
-6.69812e-22
-4.20003e-22
-1.03805e-21
-4.35501e-22
-7.73509e-22
-1.29602e-21
-9.95781e-22
-3.3976e-22
3.74611e-22
1.23862e-21
2.06051e-21
-3.85683e-22
-2.74623e-21
-1.97018e-21
-1.22547e-21
-7.2319e-22
1.0555e-21
8.03436e-22
9.78656e-23
-4.63768e-22
7.21085e-22
1.17914e-21
7.14597e-22
1.59132e-21
2.68277e-22
-2.96712e-22
4.77648e-22
2.21529e-22
-7.14742e-22
-3.51425e-22
-8.83187e-23
2.18709e-22
-2.17281e-23
-5.84273e-22
-2.58809e-22
-8.30512e-22
-1.17887e-21
-1.57545e-21
-2.45569e-21
-2.28392e-21
-1.55347e-22
3.75571e-22
-1.39235e-21
2.49327e-23
-7.95691e-22
-1.82683e-21
-1.9678e-21
-6.57732e-24
8.99924e-22
1.49178e-21
8.60505e-22
-4.02785e-22
-1.08198e-21
-3.1162e-21
-1.79549e-21
-1.65452e-22
1.22776e-21
5.46948e-22
1.46173e-23
2.19623e-22
4.53458e-22
1.01562e-21
3.49218e-22
1.05708e-21
1.28279e-21
1.85462e-21
6.94118e-22
-5.89998e-22
-1.57935e-21
-1.12324e-21
-1.71018e-22
-3.61274e-22
-6.69716e-23
-3.87883e-23
-1.43795e-21
-1.40227e-21
-1.17292e-21
-1.81137e-21
-1.9104e-21
-1.71034e-21
-1.65529e-21
-2.58857e-21
-1.66651e-21
9.07753e-22
2.9495e-22
-1.8352e-21
-2.7152e-21
-2.03468e-21
4.12292e-22
2.44351e-21
1.3625e-21
-2.79674e-23
-1.70518e-21
-2.42593e-21
-8.00555e-22
3.14284e-22
4.51642e-22
1.81554e-22
-1.77493e-21
1.00416e-21
1.12639e-21
1.01146e-21
9.58344e-22
1.09707e-21
1.00002e-21
3.30321e-22
1.14256e-21
-2.91073e-22
-4.30101e-23
-1.08021e-21
2.76294e-22
-1.13201e-21
-4.04265e-23
-1.77258e-22
-9.85032e-22
-9.70008e-22
-1.9277e-21
-2.95411e-21
-1.95243e-21
-1.55166e-21
-1.73696e-22
-2.9094e-21
-2.89835e-21
-2.24804e-22
9.51856e-22
-1.03721e-21
-3.60793e-21
-2.55892e-21
6.57539e-22
2.71264e-21
2.05153e-21
1.35052e-21
-2.58984e-21
-3.8888e-21
-1.08522e-21
2.31124e-22
5.14729e-24
-1.64396e-22
-3.7944e-22
-3.40579e-23
1.78075e-22
1.57447e-21
1.47019e-21
1.44552e-21
9.36174e-22
2.51705e-22
9.972e-22
1.01911e-21
-1.03224e-21
-1.10892e-21
3.49092e-22
-2.42052e-21
-1.92591e-21
-4.76453e-22
-1.31833e-21
-2.61003e-21
-2.44563e-21
-2.3492e-21
-1.49544e-21
-1.75753e-21
-1.23516e-21
-2.36524e-21
-1.98972e-21
-1.02777e-21
-6.66597e-23
-3.98563e-22
-1.90651e-21
-1.35209e-21
7.13214e-22
2.78663e-21
2.27027e-21
7.02942e-22
-2.27981e-21
-3.44394e-21
-1.74242e-21
-3.80981e-22
-6.59045e-22
3.26429e-24
-5.94253e-22
3.14489e-22
-5.91304e-22
1.71418e-22
2.78721e-21
2.59109e-21
-3.17024e-22
1.29823e-21
1.04646e-21
2.19789e-22
-1.36606e-21
-1.78554e-21
5.27797e-23
-4.14991e-21
-3.41483e-21
-1.37514e-21
-9.9239e-22
-1.74234e-21
-1.33847e-21
-1.46378e-21
-2.49835e-21
-2.08185e-21
-2.27506e-21
-2.45746e-21
-2.39461e-21
-2.16244e-21
-1.67653e-21
-4.77374e-22
-1.35573e-21
-2.35496e-22
1.00757e-21
2.27897e-21
2.74861e-21
2.14403e-22
-1.46899e-21
-2.22811e-21
-2.97275e-21
-1.03441e-21
-3.35229e-22
3.40268e-22
-3.53512e-22
7.94582e-22
-1.54704e-22
-1.3623e-22
8.62036e-22
1.45834e-21
-2.12915e-22
1.10585e-21
2.47624e-21
-6.11874e-22
-1.22685e-21
-1.44794e-21
-1.4309e-22
-8.56801e-21
-5.40058e-21
-1.49204e-21
-1.80376e-21
-2.18481e-21
-9.28286e-22
-1.28434e-21
-2.06886e-21
-1.062e-21
-3.2733e-21
-2.62209e-21
-2.76806e-21
-2.70223e-21
-1.36227e-21
-1.59867e-21
-2.17003e-21
-9.65627e-22
1.80121e-21
2.15046e-21
2.03684e-21
9.36139e-22
-2.25859e-21
-2.76215e-21
-1.68262e-21
-1.03711e-21
-7.2871e-22
1.55849e-21
1.01128e-21
-1.77016e-22
-5.32697e-22
-1.85022e-22
-2.20589e-22
9.23677e-23
-8.44989e-22
5.16659e-22
3.34525e-21
6.7323e-22
-5.24426e-22
2.29669e-23
-2.76211e-23
-6.55404e-21
-4.98176e-21
-3.86067e-21
-1.86448e-21
-1.7093e-21
-2.17867e-21
-1.14028e-21
-1.29365e-21
-1.37893e-21
-2.15488e-21
-3.31714e-21
-3.0189e-21
-2.1908e-21
-1.24819e-21
-2.13763e-21
-1.91812e-21
-3.26412e-22
7.88083e-22
1.63331e-21
3.08098e-21
1.70276e-21
-2.15673e-21
-3.52808e-21
-1.39027e-21
-7.22829e-22
-1.15024e-22
1.1313e-21
1.67191e-21
-1.13473e-21
-1.64623e-21
-8.63124e-22
-6.66244e-22
-1.37537e-22
6.6008e-22
1.67375e-21
1.21537e-21
-3.62079e-22
4.58345e-22
1.28436e-21
3.49359e-22
-4.23553e-21
-5.40031e-21
-5.12755e-21
-3.19507e-21
-2.38075e-21
-2.18494e-21
-2.30833e-21
-8.90068e-22
-1.29838e-21
-2.37229e-21
-2.31327e-21
-2.14713e-21
-2.37545e-21
-8.25829e-22
-1.52556e-21
-1.82391e-21
7.53627e-22
1.40939e-21
2.71373e-21
2.38576e-21
-5.16767e-22
-3.2889e-21
-2.2576e-21
-1.2414e-21
-1.84868e-21
-1.12534e-21
7.84728e-22
2.01406e-21
-4.60287e-22
-1.88448e-21
-4.39484e-22
-1.24775e-21
-8.80163e-22
7.84279e-22
7.14641e-22
9.27046e-22
9.57316e-22
1.34056e-21
2.07869e-21
1.2143e-21
-3.52267e-21
-5.12728e-21
-5.38786e-21
-4.50432e-21
-1.99407e-21
-1.9737e-21
-3.20108e-21
-1.80429e-21
-5.92036e-22
-1.45759e-21
-1.72912e-21
-2.40482e-21
-2.20298e-21
-1.29612e-21
-1.62389e-21
-1.85919e-21
1.00001e-21
1.53399e-21
1.90942e-21
3.09059e-21
-3.2031e-22
-3.66447e-21
-3.36957e-21
-3.27485e-21
-3.04843e-22
-2.53379e-22
8.04213e-22
2.05724e-21
5.54432e-24
-1.99982e-21
-1.22587e-21
-1.1879e-21
2.98911e-23
9.8485e-22
-2.33628e-22
6.27249e-22
1.57432e-21
2.69875e-21
1.75779e-21
-7.83179e-22
-5.44374e-21
-5.51275e-21
-5.08094e-21
-4.63004e-21
-3.434e-21
-2.28772e-21
-2.28637e-21
-1.81705e-21
-1.34056e-21
-1.06676e-21
-1.03591e-21
-1.91982e-21
-1.82912e-21
-1.46849e-21
-2.54706e-21
-9.86095e-22
7.73451e-22
1.49799e-21
2.35457e-21
1.02067e-21
-1.07175e-22
-2.82258e-21
-2.00443e-21
-1.82597e-21
-1.86948e-21
-7.29821e-22
9.35126e-22
1.75551e-21
1.01826e-21
-1.35677e-21
-2.57827e-21
-3.78985e-22
3.89129e-22
1.32248e-21
-1.16564e-21
1.04095e-21
6.8908e-22
1.14518e-21
8.15736e-22
-2.80547e-22
-4.95762e-21
-5.59511e-21
-5.99747e-21
-5.36647e-21
-4.2967e-21
-2.29081e-21
-2.32297e-21
-1.21042e-21
-1.86138e-21
-2.26534e-21
-9.93898e-22
-1.31959e-21
-8.83547e-22
-1.24568e-21
-2.75308e-21
-1.9345e-22
9.17012e-22
1.73009e-21
3.34015e-21
2.27158e-21
-1.41328e-21
-3.82157e-21
-2.85412e-21
-2.27209e-21
-2.01278e-21
-2.04608e-21
1.9315e-22
1.47197e-21
7.07069e-22
-6.1873e-22
-1.11814e-21
8.34345e-22
-3.48379e-22
-4.37611e-22
-8.64115e-22
9.80804e-22
1.41181e-21
1.16709e-21
8.8683e-22
6.65429e-22
-4.415e-21
-5.19209e-21
-6.156e-21
-5.27573e-21
-3.58104e-21
-3.41052e-21
-2.52788e-21
-2.1331e-21
-1.98016e-21
-8.31266e-22
-1.18713e-21
-6.72016e-22
-5.06301e-22
-6.13615e-22
-2.28314e-21
-1.13495e-21
9.79108e-22
1.11201e-21
1.97045e-21
2.88252e-21
-1.51921e-21
-4.54828e-21
-2.72325e-21
-1.92937e-21
-8.76372e-23
-6.0526e-22
-5.42046e-23
4.82344e-22
-9.93183e-22
-1.20369e-21
-6.63449e-22
1.92852e-22
6.49153e-22
3.24989e-22
-1.04565e-21
4.35525e-22
1.33284e-21
2.04517e-21
1.26821e-21
1.35885e-21
-5.18484e-21
-6.64177e-21
-5.27266e-21
-4.33517e-21
-4.30554e-21
-2.8835e-21
-2.96881e-21
-3.0109e-21
-1.69063e-21
1.04652e-21
-1.12727e-21
-5.34934e-22
1.57701e-22
-1.65463e-22
-7.71635e-22
-7.4067e-22
-5.28167e-22
6.73477e-22
2.65443e-21
1.51114e-21
-2.11697e-21
-3.49185e-21
-1.62458e-21
-4.69573e-23
-8.48625e-22
-3.19938e-21
-1.266e-21
-9.99161e-22
2.6048e-22
3.87642e-22
-7.32299e-22
3.12406e-22
1.95348e-21
2.84424e-22
-2.29152e-21
8.02101e-22
9.39924e-22
1.33964e-21
1.68701e-21
4.89344e-22
-4.57556e-21
-5.89541e-21
-4.94772e-21
-3.35685e-21
-3.07259e-21
-2.87105e-21
-3.48644e-21
-2.90578e-21
-2.62315e-21
-5.36359e-23
2.4743e-22
-2.51131e-22
-1.08588e-21
3.52167e-22
-6.52292e-22
-4.51068e-22
-4.40761e-22
8.17645e-22
6.03365e-22
-2.72564e-22
-2.1724e-21
-1.20525e-21
3.46381e-22
-5.8319e-22
-1.46739e-21
-7.95356e-22
-9.0188e-22
-6.02422e-22
-2.1566e-22
-1.03644e-21
-8.55525e-22
3.57644e-22
1.30758e-21
4.16414e-22
-1.37686e-21
6.38531e-22
6.86673e-22
6.86955e-22
8.0363e-22
6.17359e-23
-4.36963e-21
-5.83038e-21
-4.4485e-21
-3.5711e-21
-2.75965e-21
-1.77598e-21
-2.8436e-21
-3.52676e-21
-2.01626e-21
-1.931e-21
4.12584e-22
9.95428e-22
-8.35628e-22
6.44575e-22
-1.11918e-21
-4.764e-22
-6.64079e-22
1.04681e-21
7.85218e-22
-8.35585e-22
-2.41222e-21
-2.26943e-21
1.6012e-21
3.55311e-22
-1.42156e-21
-1.28914e-21
-5.08931e-22
-9.99656e-22
-9.42605e-22
-1.50563e-21
-6.76977e-22
7.28797e-22
2.01165e-21
4.33133e-22
-1.38721e-21
-6.82823e-22
7.98684e-22
2.24175e-22
9.91273e-22
3.0047e-22
-3.08715e-21
-4.14372e-21
-4.03859e-21
-3.46044e-21
-3.00767e-21
-2.71143e-21
-2.49301e-21
-1.26277e-21
-1.62897e-21
-1.65656e-21
-6.80593e-22
3.17085e-22
8.54573e-22
1.6396e-21
-9.40572e-22
-2.01703e-21
3.54322e-22
-1.8286e-21
-2.65707e-21
-1.2048e-21
-9.10888e-22
4.04655e-22
1.02417e-22
-3.67281e-22
-5.72366e-22
-5.3947e-22
9.05528e-23
6.61343e-22
-5.86109e-22
-2.13032e-21
-1.61415e-21
1.37956e-21
2.10902e-21
4.70749e-22
-1.60862e-21
-1.98132e-22
9.58571e-22
1.96549e-22
1.01219e-21
6.35952e-22
-2.30577e-21
-3.74907e-21
-3.91562e-21
-2.77238e-21
-2.09705e-21
-3.14829e-21
-2.31657e-21
-1.78137e-21
-1.21105e-21
-5.72702e-22
-1.38571e-21
5.16026e-22
1.5337e-21
1.58036e-22
-9.02098e-22
-7.29288e-22
1.32159e-22
-1.03804e-22
-3.26887e-21
-2.00565e-21
-8.354e-22
-7.35857e-22
-3.92489e-22
-7.4585e-22
7.97626e-22
4.86124e-22
-1.78846e-21
1.03584e-22
1.85295e-22
-1.26644e-21
4.05994e-22
8.6821e-22
1.55751e-21
1.33348e-21
-2.27774e-21
2.95059e-23
3.61615e-23
9.40519e-22
9.87678e-22
2.74418e-22
-2.91176e-21
-3.73683e-21
-3.3024e-21
-1.79529e-21
8.76239e-23
-2.94626e-21
-2.18035e-21
-9.51414e-22
-4.26492e-22
-2.30243e-22
-3.36231e-21
-6.5764e-23
2.50567e-24
-8.38824e-22
-6.95081e-22
1.39032e-22
4.14902e-22
9.59757e-22
-2.23564e-21
-1.30224e-21
-1.67095e-21
-2.20992e-21
-5.26293e-24
-3.69318e-22
-1.00212e-21
3.33795e-22
-4.86963e-22
2.39234e-24
4.01803e-22
-1.60235e-21
4.81839e-22
8.12068e-22
5.96568e-22
1.63257e-21
7.15502e-22
-1.49872e-21
-6.75463e-22
6.77069e-22
1.06124e-21
5.01349e-22
-4.42215e-21
-4.41079e-21
-3.25003e-21
-8.38638e-22
-3.40219e-22
-1.67934e-21
-1.0579e-21
-1.38793e-21
-6.93683e-22
-1.20661e-23
-2.37519e-21
-1.1806e-21
-6.81026e-22
-7.84644e-22
4.73024e-22
2.00301e-21
6.92705e-22
-6.36174e-22
1.31871e-23
-8.44907e-22
-2.58907e-21
-3.74014e-21
-4.42589e-22
6.6489e-22
-1.31556e-21
-2.52642e-22
3.46681e-22
-7.07912e-22
-5.15251e-22
-6.48593e-22
-5.24114e-23
2.03091e-21
3.80575e-22
7.47765e-22
4.74528e-22
-1.59499e-21
-1.6961e-22
3.97904e-22
9.58021e-22
2.21977e-22
-2.81962e-21
-3.33604e-21
-2.65483e-21
-5.39006e-22
-1.19525e-21
-3.06791e-21
-1.50907e-21
-4.80488e-22
-1.9037e-21
-1.72115e-21
-6.45064e-22
-7.32634e-22
-5.09654e-22
2.22979e-22
1.95735e-21
1.23934e-21
8.8682e-22
8.96907e-22
2.19782e-21
-4.50677e-22
-2.82551e-21
-2.77782e-21
-2.73553e-21
-3.29234e-21
-1.8218e-21
-3.33725e-22
1.67459e-21
-6.9176e-23
-1.04835e-21
-1.39946e-21
-4.54456e-23
3.42431e-23
9.2522e-22
1.01708e-21
2.01623e-21
-2.45876e-22
-8.72915e-22
4.43956e-22
8.39425e-22
-6.07063e-22
-2.42652e-21
-2.58517e-21
-3.09346e-21
-1.33074e-21
-1.03278e-21
-2.45714e-21
-1.78137e-21
-1.1549e-21
-1.34185e-21
-7.06993e-22
3.07945e-22
-2.63335e-22
-4.82602e-23
5.52029e-22
1.12366e-21
9.99216e-22
8.64631e-22
3.94127e-22
2.14661e-21
9.34972e-22
-2.19276e-21
-3.08063e-21
-2.23384e-21
-2.53992e-21
-2.09298e-21
-3.20986e-22
4.008e-22
-4.6085e-22
5.9177e-24
-1.14522e-21
-7.86383e-22
9.20277e-22
7.42906e-22
-1.43654e-22
2.53861e-23
-4.60538e-22
3.97893e-22
1.57814e-21
1.00368e-21
-3.9127e-22
-4.5954e-22
-1.67686e-21
-3.36875e-21
-2.99801e-21
-1.50189e-21
-1.92894e-21
-1.85784e-21
-8.78516e-22
8.0685e-23
-3.11759e-22
-6.62989e-23
-1.63991e-23
-6.53414e-22
3.30025e-22
1.03061e-21
9.98336e-22
7.64085e-22
7.32231e-22
2.25177e-21
2.83029e-21
-9.29984e-22
-4.12001e-21
-2.18413e-21
-3.7711e-21
-2.60371e-21
-6.32872e-22
-9.9953e-22
-5.09103e-22
9.75239e-23
1.32483e-22
8.14043e-22
7.12838e-23
-8.02543e-22
-3.81408e-25
-6.86357e-22
-9.03215e-22
1.89824e-21
2.07356e-21
1.58836e-21
4.18051e-22
-1.30395e-21
-1.79399e-21
-1.53077e-21
-2.00944e-21
-2.41588e-21
-9.85338e-22
-1.38075e-21
-8.78966e-22
-1.44883e-22
2.73444e-22
4.43652e-22
2.63505e-22
-5.63986e-22
-1.7822e-21
7.79384e-23
1.44442e-21
1.25052e-21
8.56486e-22
2.51168e-21
2.10744e-21
-3.88641e-23
-2.26723e-21
-3.9739e-21
-4.46172e-21
-2.11145e-21
-1.4888e-21
-7.32836e-23
-3.14871e-22
4.17016e-22
4.67588e-23
-1.42399e-22
1.17834e-22
-1.54552e-22
-1.07976e-22
-5.74432e-22
5.21888e-22
1.63659e-21
1.20855e-21
1.75023e-21
1.53275e-21
6.25376e-22
-2.55972e-23
-1.39669e-21
-2.32946e-21
-7.54795e-22
-5.12205e-22
-8.33491e-22
-2.69648e-22
5.14884e-22
3.78875e-23
3.10563e-22
3.56361e-22
-7.76867e-22
-1.77151e-21
-2.28331e-21
-1.94128e-22
9.05118e-22
2.25284e-21
3.08089e-21
2.09111e-21
-4.89685e-22
-3.6975e-21
-3.3714e-21
-3.25702e-21
-2.07763e-21
-3.80964e-22
7.01871e-23
4.2428e-23
4.31836e-23
6.10471e-23
1.9807e-22
2.33827e-22
8.63769e-23
-7.38599e-22
-3.43508e-22
8.6665e-22
1.02162e-21
5.127e-22
2.12979e-21
2.01931e-21
-7.45361e-22
-1.06328e-21
-8.57372e-22
-1.41973e-21
-6.02609e-22
1.18025e-22
-7.78141e-22
-7.34036e-22
4.72672e-22
2.90733e-22
5.56219e-22
-1.96142e-22
-6.43769e-22
-1.67615e-21
-2.49437e-21
1.0164e-22
6.92414e-22
1.20461e-21
2.4444e-21
1.90264e-21
-2.97333e-22
-1.79875e-21
-1.80317e-21
-3.96309e-21
-2.55267e-21
-3.63715e-23
7.90992e-22
-2.24009e-21
6.03807e-22
3.65784e-22
1.93717e-22
2.41443e-22
1.83593e-22
-4.67713e-22
-1.91234e-22
-4.92048e-24
1.2199e-21
1.19514e-21
1.53035e-21
1.05817e-21
-9.82516e-22
-1.42439e-21
-3.05752e-22
-8.30916e-23
2.65586e-22
-5.84969e-22
-2.38861e-21
-2.4865e-21
3.23848e-22
1.05679e-21
1.04281e-21
4.61138e-22
-1.6538e-22
-1.91166e-21
-1.31361e-21
7.50283e-22
2.11051e-21
9.89707e-22
9.35027e-22
1.48079e-21
-5.79567e-22
-3.18643e-21
-2.26921e-21
-2.57599e-21
-1.2068e-21
-1.18248e-21
-3.94715e-22
-1.89527e-21
1.26144e-21
8.68079e-22
-1.68505e-22
-2.67277e-23
7.98054e-22
5.38343e-23
-1.04394e-21
5.5139e-22
1.22153e-21
1.32529e-21
1.01096e-21
7.59248e-22
9.34495e-22
-1.22001e-22
-5.9495e-23
-2.23431e-22
5.96003e-22
-4.44926e-22
-2.74078e-21
-2.36836e-21
-8.33296e-22
6.11994e-22
1.6972e-21
1.30459e-21
-1.46009e-22
-1.15301e-21
-2.63416e-22
-5.64806e-22
-6.45815e-22
-3.4667e-23
1.68172e-21
2.81975e-21
-9.88952e-23
-4.0818e-21
-2.6435e-21
-1.91946e-21
-1.63824e-21
-1.03408e-21
-2.58107e-22
1.11404e-21
7.97606e-22
6.57185e-22
-4.56426e-22
3.59814e-22
8.37314e-22
-2.25409e-22
-8.11769e-22
-2.58601e-22
6.81652e-22
1.36477e-21
1.69173e-21
9.96487e-22
5.54152e-22
-2.05671e-22
-1.18661e-22
-2.40924e-22
7.29079e-22
-2.20889e-21
-1.73599e-21
-1.60304e-21
-3.62673e-22
1.16074e-21
1.44774e-21
1.63248e-21
-3.95345e-22
-8.57656e-22
9.19067e-23
-2.39255e-21
-1.79154e-21
2.15189e-24
2.02413e-21
2.47317e-21
-3.31302e-24
-3.52208e-21
-2.90784e-21
-9.25201e-22
-3.39348e-23
-1.953e-21
-6.42047e-22
5.502e-22
7.8472e-22
7.01748e-22
-1.48478e-22
-1.10173e-22
5.49304e-22
-3.44162e-22
-4.0659e-22
7.04365e-22
1.09398e-22
1.89227e-21
1.51231e-21
1.17652e-21
-7.43389e-22
-5.18187e-22
-4.83743e-22
-8.41459e-22
-1.14338e-21
-1.37832e-21
-1.25377e-21
-7.56297e-22
-2.08781e-22
1.46225e-21
2.70218e-21
-1.11508e-21
7.20307e-22
1.38072e-21
-9.623e-22
-3.49838e-21
-1.39985e-21
1.31555e-21
5.59786e-22
1.14325e-21
1.49658e-21
-1.5032e-21
-3.99964e-21
-2.66823e-21
-1.25261e-21
-1.2519e-22
2.59869e-22
8.74502e-22
1.73593e-21
1.13467e-21
-1.61932e-21
-1.55293e-21
2.29599e-22
-2.845e-22
-1.34243e-22
3.11656e-22
-5.29125e-22
1.16568e-21
1.77555e-21
7.10107e-22
-1.30571e-21
-6.40397e-22
-2.47448e-22
-3.13973e-23
-1.3027e-21
-5.78603e-22
-4.44212e-22
-1.53906e-21
-2.15996e-22
1.45634e-21
9.18104e-22
1.23437e-21
3.02191e-22
1.32157e-21
-1.53127e-21
-1.69742e-21
-1.87104e-21
-5.40875e-22
1.97421e-21
1.54571e-21
6.54316e-22
-8.74481e-22
-2.31343e-21
-2.68615e-21
-3.88536e-21
-1.70104e-21
1.18925e-21
1.67752e-21
1.69201e-21
8.27342e-23
-1.24951e-22
6.83031e-23
3.01102e-22
2.58492e-22
3.43825e-22
9.51591e-22
-1.13298e-21
-2.24217e-21
-8.47503e-22
2.77091e-22
-1.89219e-21
-1.01137e-21
4.58844e-24
-9.25163e-22
-9.05991e-23
4.95153e-22
-8.20276e-22
-6.71332e-22
-7.66251e-22
9.40174e-22
7.80038e-22
1.44978e-21
2.13402e-21
5.25035e-22
-2.37479e-21
-3.0609e-21
-1.35624e-21
-2.30198e-21
9.37343e-22
2.58708e-21
2.37327e-21
-6.2671e-22
-2.68626e-21
-2.93058e-21
-2.55979e-21
-2.19516e-22
3.50392e-22
7.8534e-22
1.59277e-21
-1.74141e-22
2.62896e-22
1.35499e-21
6.57614e-22
1.09704e-21
8.14959e-22
-1.5132e-21
-1.23302e-21
-8.08202e-22
5.33881e-22
-7.15325e-22
-1.59889e-21
-4.57747e-22
7.33622e-22
-2.1998e-22
1.26584e-21
-7.12028e-22
-1.08139e-21
-7.97183e-22
-1.08739e-21
-1.02965e-21
1.4925e-22
-1.06892e-22
2.95929e-21
1.81302e-21
-1.20163e-21
-3.74702e-21
-3.7562e-21
-2.35786e-21
2.83633e-21
2.50243e-21
2.15318e-21
-1.05254e-21
-2.25101e-21
-1.51156e-21
9.75246e-23
1.95468e-22
-9.04239e-22
-1.33333e-21
9.87111e-22
5.58831e-22
3.61791e-22
1.64591e-21
1.25475e-21
-4.00293e-22
-4.34624e-22
-1.99482e-21
-5.68204e-22
9.55148e-22
3.30009e-22
1.15406e-22
-3.36423e-22
-4.28105e-22
6.0318e-22
1.49338e-21
2.3594e-21
-1.17347e-21
-1.44153e-21
-1.02048e-21
-1.28922e-21
-1.47503e-21
3.70264e-22
-7.70807e-22
1.28493e-21
1.59004e-21
-3.74442e-22
-3.27697e-21
-2.82923e-21
-7.70217e-22
1.96135e-21
2.65617e-21
7.46549e-22
-2.22492e-21
-1.78787e-21
-9.10116e-22
7.79812e-22
7.02673e-22
2.56334e-22
-5.30943e-22
-5.99198e-22
-2.19481e-22
2.20511e-22
1.14085e-21
5.44683e-22
5.1984e-22
1.65448e-21
-1.23449e-21
-3.00114e-22
3.35651e-22
-2.18087e-22
-1.13281e-21
-7.94543e-22
-1.25013e-21
-2.86839e-23
3.59817e-22
2.76705e-22
5.73138e-23
1.01638e-22
-2.42046e-21
-1.9734e-21
-4.34273e-22
-3.13092e-22
4.82942e-22
1.18374e-21
4.73355e-22
-3.69142e-22
-1.77311e-21
-2.49659e-21
-2.13718e-22
2.08539e-21
1.43559e-21
1.92232e-22
-1.12103e-21
-8.18448e-22
-1.14042e-21
4.40451e-22
1.17205e-21
2.74271e-22
-1.94168e-22
-6.29049e-24
-1.10534e-21
-4.31002e-23
-1.45101e-22
2.29894e-22
1.24736e-21
8.99594e-22
-5.06507e-22
-2.29173e-22
1.6528e-22
-8.8252e-22
3.52518e-22
-1.26138e-21
-9.11588e-22
-1.01446e-21
4.7543e-23
-8.10098e-22
-2.61887e-22
-6.77218e-22
-1.9529e-21
-1.04032e-21
-3.32499e-22
2.76207e-22
2.03744e-22
7.49301e-22
-2.93199e-24
-2.95315e-22
-1.81733e-22
-1.07105e-21
-8.18089e-23
1.84427e-21
2.75047e-21
1.90565e-22
-2.64276e-21
-1.0474e-21
-1.38753e-21
6.74038e-22
9.55243e-22
4.05286e-23
1.64537e-22
4.48428e-22
-8.13398e-22
-2.2102e-22
-3.12587e-22
-4.79254e-22
3.39292e-22
3.4818e-22
6.56387e-22
1.21647e-22
1.03996e-21
2.57793e-23
4.28884e-22
-9.49423e-22
-5.09874e-22
-1.6753e-21
-1.42993e-21
-1.36878e-21
-2.85907e-23
-8.01702e-22
-1.94098e-21
2.64745e-24
-8.78441e-22
4.82915e-23
1.51108e-21
1.04867e-21
-9.76048e-22
-6.00917e-22
6.25176e-22
5.73909e-22
1.04058e-21
-1.00238e-21
5.84268e-22
1.52963e-21
-3.44445e-22
-1.48956e-21
-2.02062e-22
-9.74902e-22
9.27548e-22
8.89125e-22
1.81201e-21
-2.87771e-22
-2.83616e-21
-2.09865e-21
-5.28612e-22
2.70174e-22
7.79579e-22
9.25505e-22
-1.16715e-22
-5.00968e-22
8.7706e-22
2.75107e-22
-4.69826e-22
-2.94256e-21
-1.05646e-21
-1.17561e-21
-5.85183e-22
-9.78952e-23
-5.6963e-22
-1.21948e-21
-9.29956e-22
9.35451e-22
-3.19848e-22
6.03348e-22
8.81197e-22
-4.32218e-22
-9.99363e-22
-6.03982e-22
8.86264e-22
6.51795e-22
2.697e-22
-3.28832e-23
3.49162e-22
5.68088e-22
-7.24533e-22
5.47331e-22
-1.87708e-22
-9.69057e-22
2.07083e-22
5.69612e-22
1.15072e-21
9.0717e-22
-6.22606e-22
-1.93865e-21
-7.71448e-22
-3.63898e-22
6.42522e-22
1.06309e-21
-1.28794e-21
-1.18999e-21
-5.1939e-22
-3.06767e-22
6.005e-22
4.07185e-22
-8.48218e-23
-6.39457e-22
-1.1548e-21
7.33411e-22
-6.35175e-22
-3.62681e-22
-6.82153e-22
2.02227e-22
9.11775e-22
-1.68617e-21
4.31396e-23
-1.73212e-21
-1.141e-21
-7.36471e-23
-9.9172e-22
-1.10442e-21
3.42147e-22
3.01313e-21
1.34924e-21
-2.11878e-21
-1.3871e-21
-1.63137e-21
-1.91145e-21
-1.41851e-21
1.01494e-22
3.78618e-22
9.02143e-22
1.84806e-22
-3.28822e-22
-2.63925e-22
5.21755e-22
5.47817e-22
1.49161e-21
5.05562e-22
-1.10566e-22
1.10531e-22
-4.78729e-23
-3.19393e-22
7.88652e-23
2.54475e-22
-3.76585e-22
-6.55611e-22
-2.5999e-21
1.34043e-21
-9.16349e-23
-8.78353e-22
-1.49476e-21
-1.24507e-21
-6.74428e-22
-1.66886e-21
-1.273e-21
-1.92188e-21
-2.97703e-21
-1.90307e-21
5.81566e-23
-6.35567e-22
-2.18603e-22
3.26473e-21
2.15279e-21
-8.63871e-22
-3.3709e-21
-2.91123e-21
-2.6227e-21
-6.5852e-22
1.68106e-21
2.0476e-21
1.16229e-21
-2.22992e-22
-8.79411e-22
1.08687e-21
1.51238e-21
5.61983e-22
1.86244e-21
-4.93847e-22
-7.99142e-22
6.10794e-22
1.50181e-21
4.37791e-22
-5.3512e-23
4.77796e-22
-1.9781e-22
5.24574e-22
4.78018e-23
-8.71316e-23
6.51646e-23
-2.03069e-21
-5.21663e-21
-2.80371e-21
-6.15397e-22
-1.14728e-21
-2.02606e-21
-1.54023e-21
-2.21938e-21
-2.28256e-21
-2.00257e-21
-1.06016e-21
1.72863e-22
2.66351e-21
3.38353e-21
-1.6442e-21
-3.63457e-21
-2.32969e-21
-1.68062e-21
-9.88039e-22
1.86488e-21
2.6266e-21
-5.91259e-22
-1.17572e-22
9.62772e-23
5.6746e-22
5.8272e-22
2.69345e-21
3.32064e-21
-1.13094e-21
1.25106e-22
1.21683e-21
3.69442e-22
-7.53923e-22
-2.13135e-22
-1.47925e-21
-1.45891e-21
9.78719e-23
-7.43021e-22
-1.22462e-21
-2.14808e-21
-2.75706e-21
-4.99623e-21
-4.19593e-21
-6.75051e-22
-1.13729e-22
-2.57701e-21
-1.40752e-21
-2.6712e-21
-2.32643e-21
-1.93234e-21
-4.34227e-22
2.22115e-22
1.04375e-21
1.84303e-21
-1.85454e-21
-3.16944e-21
-2.37846e-21
-1.68074e-21
-3.86419e-22
1.82349e-21
1.58392e-21
1.28266e-21
2.97743e-22
-3.61909e-22
2.03983e-22
1.35009e-21
3.10276e-21
2.01188e-21
1.43796e-21
1.22059e-21
3.84197e-22
-1.48417e-21
-7.187e-22
-3.51464e-22
-1.18067e-21
-1.59543e-21
-2.79683e-22
-1.89e-21
-1.6774e-21
-3.265e-21
-3.24072e-21
-3.41699e-21
-2.76216e-21
-2.54075e-21
-2.81204e-21
-3.97129e-21
-1.30595e-21
-1.51342e-21
-1.97528e-21
-2.68974e-21
-1.66188e-21
2.78995e-22
1.78269e-21
9.42095e-22
-7.70422e-22
-2.32614e-21
-2.42032e-21
-1.68316e-21
-1.45826e-22
1.04184e-21
8.44034e-22
-2.26174e-23
1.02313e-21
1.05808e-21
1.59944e-21
1.64782e-21
1.8605e-21
2.03666e-21
1.36807e-21
1.03935e-21
1.19514e-21
-3.98173e-22
-4.8214e-22
-6.36439e-22
-1.27751e-21
-8.16461e-22
-1.82401e-21
-2.06831e-21
-2.34705e-21
-3.99901e-21
-3.48974e-21
-3.68004e-21
-3.54012e-21
-3.58125e-21
-3.79703e-21
-4.7156e-21
-1.9258e-21
-5.13641e-22
-1.50066e-21
-2.25117e-21
-2.21358e-21
-6.50667e-23
2.11381e-21
1.37097e-21
-3.32863e-22
-2.93492e-21
-2.45583e-21
-1.83311e-21
-9.47798e-22
2.37547e-22
1.62856e-21
2.40277e-22
3.10427e-22
1.3289e-21
5.84294e-22
1.99408e-21
2.57642e-21
2.90099e-21
1.89143e-21
1.09408e-21
1.18968e-21
-1.9641e-21
-6.77303e-22
2.27256e-23
-4.98006e-21
-4.00718e-21
-1.92542e-21
-3.01945e-21
-4.86145e-21
-3.95718e-21
-4.08566e-21
-1.935e-21
-3.93313e-21
-4.80933e-21
-5.31087e-21
-3.34146e-21
-1.72022e-21
-1.61905e-22
-1.66244e-21
-1.90829e-21
-1.48098e-21
7.98654e-22
1.84975e-21
8.8587e-22
-3.2289e-22
-2.67292e-21
-1.70378e-21
-2.38539e-21
-2.03458e-21
-2.37502e-22
5.54227e-22
-5.23488e-22
2.37075e-21
1.64376e-21
-2.73178e-22
2.26589e-21
2.84866e-21
1.84745e-21
2.8144e-21
1.42856e-21
1.08865e-21
-1.43745e-21
-1.90504e-21
3.70515e-22
-7.93414e-21
-6.23533e-21
-3.59954e-21
-3.50215e-21
-3.7387e-21
-4.01841e-21
-3.77375e-21
-1.96949e-21
-4.8824e-21
-4.61228e-21
-4.96197e-21
-3.52371e-21
-3.62449e-21
-1.29667e-21
-1.83216e-21
-1.97485e-21
-3.03255e-22
1.74062e-21
2.92758e-21
-2.65848e-22
2.74686e-22
-2.43073e-21
-2.77278e-21
-2.24446e-21
-1.37757e-21
1.09978e-23
7.71077e-22
3.43807e-22
1.20027e-21
-6.02473e-22
-1.61674e-21
1.72458e-21
2.92697e-21
3.7722e-22
2.22555e-21
2.27253e-21
2.49078e-21
6.50635e-22
-1.92417e-21
-7.99699e-22
-9.55737e-21
-8.35961e-21
-5.19717e-21
-4.29961e-21
-4.69203e-21
-4.55926e-21
-4.81489e-21
-1.70698e-21
-2.80849e-21
-4.30418e-21
-4.12142e-21
-5.7595e-21
-3.47291e-21
-2.37828e-21
-2.35078e-21
-1.18808e-21
-6.98365e-22
6.70533e-22
1.26246e-21
-3.33138e-22
1.30056e-21
-1.38951e-21
-2.50316e-21
-3.42231e-21
-4.81275e-22
4.31956e-22
1.594e-21
7.60046e-22
9.95639e-22
-6.92976e-22
-2.03043e-21
-1.08605e-21
5.80434e-23
9.15644e-22
2.85042e-21
4.15647e-21
2.03641e-21
7.48384e-22
9.24218e-23
-2.0749e-22
-1.07629e-20
-8.62268e-21
-6.73411e-21
-4.4499e-21
-6.37312e-21
-5.31475e-21
-3.72246e-21
-3.15447e-21
-2.0439e-21
-2.81279e-21
-3.94554e-21
-4.67379e-21
-4.06514e-21
-2.68621e-21
-3.62252e-21
-1.81021e-21
-7.28814e-22
-1.0021e-22
1.16646e-21
1.79845e-21
3.46053e-22
-1.6053e-21
-2.35401e-21
-2.78643e-21
-4.01386e-23
9.41649e-22
3.14956e-21
-5.92615e-22
-1.47484e-21
-2.29041e-21
-1.95225e-21
-1.35823e-21
-2.19107e-22
2.24686e-21
4.22557e-21
2.19328e-21
1.63464e-21
4.27807e-22
7.37048e-22
2.21074e-22
-1.01582e-20
-1.1192e-20
-8.34071e-21
-6.75366e-21
-5.53442e-21
-3.76589e-21
-5.6983e-21
-4.22388e-21
-2.8477e-21
-2.48298e-21
-2.76855e-21
-2.85866e-21
-3.84115e-21
-2.25393e-21
-4.27656e-21
-2.12539e-21
3.30845e-23
-5.40468e-22
1.57696e-21
2.59741e-21
-1.13498e-21
-1.3537e-21
-2.18378e-21
-1.96005e-21
-1.70253e-21
2.89384e-22
1.92966e-21
5.20852e-22
-1.61113e-21
-2.72875e-21
-1.77159e-21
-1.29219e-21
-7.03191e-22
1.20335e-21
3.66418e-21
1.9632e-21
2.29207e-21
1.80567e-21
1.35962e-21
1.04976e-21
-9.11299e-21
-1.08393e-20
-9.40488e-21
-8.50284e-21
-5.86613e-21
-5.33993e-21
-4.52937e-21
-2.77734e-21
-1.85784e-21
-3.24811e-21
-1.96677e-21
-2.20229e-21
-2.34656e-21
-2.82206e-21
-5.28888e-21
-3.25748e-21
-6.9546e-22
7.9821e-22
1.89365e-21
2.43153e-21
-2.776e-22
-2.02533e-21
-3.13193e-21
-1.60788e-21
-2.10731e-21
-1.48903e-22
1.4129e-21
1.74546e-21
-6.44451e-22
-3.42898e-21
-1.27889e-21
-1.5802e-21
-1.99209e-21
6.30824e-22
1.73502e-21
2.24992e-21
3.39091e-21
3.05065e-21
1.48009e-21
-1.51702e-22
-1.03659e-20
-1.00951e-20
-1.00292e-20
-8.77715e-21
-7.02756e-21
-6.11356e-21
-3.87479e-21
-4.00552e-21
-2.73361e-21
-6.07785e-22
-3.97502e-22
-2.19576e-21
-3.19528e-21
-3.23093e-21
-4.10935e-21
-2.44068e-21
-1.99605e-23
9.66437e-22
1.11413e-21
1.89491e-21
-1.50195e-22
-2.6815e-21
-2.49375e-21
-1.52695e-21
-2.17954e-21
-7.52668e-22
5.68078e-22
7.921e-22
-4.13118e-22
-9.92241e-22
-1.76891e-21
-1.66284e-21
-6.14175e-22
4.17532e-22
1.47269e-22
2.29308e-21
2.30535e-21
1.55202e-21
1.14215e-21
1.09384e-21
-1.10982e-20
-1.18463e-20
-1.04948e-20
-8.47782e-21
-7.87424e-21
-5.92361e-21
-5.01171e-21
-3.07552e-21
-2.84457e-21
-2.10067e-21
-1.80015e-21
-1.8572e-21
-2.09601e-21
-2.89993e-21
-3.38334e-21
-2.00169e-21
1.18455e-21
1.30164e-21
1.9605e-21
2.98615e-21
-1.1571e-21
-4.20832e-21
-3.27252e-21
-2.23826e-21
-2.31354e-21
-2.21735e-21
-5.64849e-22
1.36109e-21
5.58249e-22
-7.15305e-22
-9.05269e-22
7.56226e-22
-9.78606e-22
-1.81566e-21
3.6257e-22
2.30217e-21
2.61597e-21
1.68424e-21
1.50215e-21
2.03957e-21
-1.26712e-20
-1.11062e-20
-9.44236e-21
-7.47259e-21
-6.78633e-21
-6.34237e-21
-5.3655e-21
-3.75111e-21
-3.83939e-21
-2.3548e-21
-2.06274e-21
-8.85893e-22
-1.14184e-21
-1.97131e-21
-2.68202e-21
-1.69907e-21
1.52335e-21
1.00944e-21
1.84128e-21
1.99476e-21
-8.97435e-22
-5.65891e-21
-3.03272e-21
-1.45609e-21
-9.32359e-22
-2.57449e-21
-1.2518e-21
5.63457e-22
-4.55724e-22
-1.13642e-21
-1.2433e-21
2.54949e-22
6.75344e-22
-1.3621e-22
-1.58585e-22
2.9777e-23
1.1151e-21
3.73185e-21
2.33936e-21
1.77488e-21
-1.03551e-20
-9.76702e-21
-9.77395e-21
-7.60768e-21
-7.4291e-21
-6.72436e-21
-5.65517e-21
-5.09216e-21
-3.21608e-21
-1.31266e-21
-2.09194e-21
-1.33491e-21
-1.27197e-21
-3.92614e-22
-7.7075e-22
-1.44599e-21
7.4937e-22
3.53859e-22
1.12221e-21
1.42569e-21
-1.5662e-21
-4.46657e-21
-1.90647e-21
-1.09123e-21
-1.75574e-21
-2.62847e-21
-1.05861e-21
-3.00836e-22
-3.70331e-22
-5.72848e-22
-9.45477e-22
6.07039e-22
1.44988e-21
1.20888e-21
-1.02721e-21
-8.5124e-22
1.45232e-21
2.89377e-21
2.42266e-21
1.39442e-21
-9.06749e-21
-9.09859e-21
-7.90937e-21
-7.07072e-21
-6.47625e-21
-5.72791e-21
-6.09756e-21
-6.21096e-21
-4.47029e-21
-8.79826e-22
-1.64411e-21
-1.05679e-21
-1.5045e-21
-7.63583e-22
-1.76915e-22
-2.92826e-22
4.31203e-22
-5.83043e-22
-1.53617e-22
-7.49947e-22
-2.6289e-21
-1.55467e-22
-1.79475e-22
-1.12156e-21
-2.36279e-21
-2.59182e-21
-6.18368e-22
3.58083e-22
-1.5331e-21
-1.19285e-21
-1.69301e-21
5.91759e-22
1.27001e-21
1.66723e-21
-1.3251e-22
6.5813e-22
1.06198e-21
2.56103e-21
1.96208e-21
1.27679e-21
-9.04389e-21
-1.04909e-20
-8.1762e-21
-6.86215e-21
-5.25812e-21
-5.32087e-21
-5.57938e-21
-4.73413e-21
-3.84595e-21
-3.69602e-21
-1.5125e-21
-7.26403e-23
-1.84704e-21
-9.30107e-22
-6.82772e-22
-1.6303e-22
-8.74839e-22
3.70101e-22
1.22105e-21
-1.72693e-21
-2.51151e-21
-1.04005e-21
1.01319e-21
-6.96675e-22
-3.97911e-21
-2.1511e-21
1.56952e-22
2.87202e-23
-2.52617e-21
-1.54998e-21
3.62981e-22
1.11815e-21
1.15914e-21
8.9092e-22
2.65242e-22
2.27611e-22
1.28877e-21
3.06312e-21
2.77134e-21
1.20696e-21
-9.10532e-21
-9.52748e-21
-8.1422e-21
-7.10801e-21
-4.15072e-21
-4.47676e-21
-5.78789e-21
-2.68425e-21
-3.59147e-21