/*--------------------------------*- C++ -*----------------------------------*\
| =========                 |                                                 |
| \\      /  F ield         | OpenFOAM: The Open Source CFD Toolbox           |
|  \\    /   O peration     | Version:  v2012                                 |
|   \\  /    A nd           | Website:  www.openfoam.com                      |
|    \\/     M anipulation  |                                                 |
\*---------------------------------------------------------------------------*/
FoamFile
{
    version     2.0;
    format      ascii;
    class       surfaceScalarField;
    location    "2";
    object      phi;
}
// * * * * * * * * * * * * * * * * * * * * * * * * * * * * * * * * * * * * * //

dimensions      [0 3 -1 0 0 0 0];
oriented        oriented;


internalField   nonuniform List<scalar> 
187200
(
1.875e-06
4.34597e-23
9.33289e-23
1.875e-06
7.42569e-23
7.8236e-23
1.875e-06
-1.05279e-22
-3.14623e-23
1.875e-06
-6.17637e-23
7.05053e-24
1.875e-06
6.4876e-23
1.5753e-24
1.875e-06
1.09933e-22
-5.17865e-24
1.875e-06
4.47533e-23
8.0883e-23
1.875e-06
2.38608e-23
6.06625e-23
1.875e-06
2.99339e-23
-1.21249e-23
1.875e-06
6.763e-24
-1.38061e-22
1.875e-06
1.64258e-23
3.87972e-23
1.875e-06
1.30035e-22
3.7723e-23
1.875e-06
-8.86896e-23
5.74006e-23
1.875e-06
-2.29696e-23
3.8838e-23
1.875e-06
8.96444e-23
3.77228e-24
1.875e-06
2.05482e-23
1.24008e-22
1.875e-06
-5.97768e-23
-5.22673e-25
1.875e-06
-7.00494e-24
1.78683e-23
1.875e-06
-3.55916e-23
-9.11957e-23
1.875e-06
-4.98133e-23
-7.96772e-23
1.875e-06
-9.25397e-23
2.55189e-23
1.875e-06
-1.68179e-23
-2.19115e-23
1.875e-06
7.25929e-23
2.79949e-23
1.875e-06
1.07025e-22
1.99022e-24
1.875e-06
2.93139e-23
2.72424e-23
1.875e-06
-5.41068e-23
4.16018e-23
1.875e-06
-9.96195e-23
-1.31602e-23
1.875e-06
-2.80297e-23
-5.58097e-23
1.875e-06
4.82605e-23
-1.38596e-23
1.875e-06
-7.10248e-26
-1.03533e-23
1.875e-06
-7.79652e-23
6.7464e-24
1.875e-06
-3.72648e-23
-9.37956e-24
1.875e-06
-7.05309e-23
-2.53206e-23
1.875e-06
-2.65838e-23
-8.6646e-23
1.875e-06
6.2154e-24
-5.57637e-23
1.875e-06
4.48908e-23
-4.71631e-23
1.875e-06
-2.86832e-24
9.31042e-24
1.875e-06
9.95013e-24
7.80516e-23
1.875e-06
-3.04241e-23
5.50002e-23
-5.5548e-23
6.98555e-24
1.875e-06
-1.08864e-22
5.00163e-23
1.875e-06
-7.10636e-23
2.35341e-23
1.875e-06
-4.32566e-23
8.16593e-23
1.875e-06
-8.08146e-23
1.0764e-22
1.875e-06
5.44286e-23
-8.04065e-23
1.875e-06
6.54031e-23
-6.07074e-23
1.875e-06
8.46363e-23
7.68872e-23
1.875e-06
1.11259e-22
9.94685e-23
1.875e-06
3.96299e-23
5.35375e-23
1.875e-06
-6.27097e-23
-1.54824e-23
1.875e-06
1.45156e-23
9.08989e-23
1.875e-06
1.13476e-23
4.34328e-23
1.875e-06
4.15319e-23
1.14064e-22
1.875e-06
3.78393e-23
1.8798e-22
1.875e-06
-2.62778e-23
2.62981e-23
1.875e-06
3.68783e-23
-1.30886e-23
1.875e-06
-3.42054e-24
2.94701e-23
1.875e-06
1.05034e-23
8.94855e-23
1.875e-06
5.21372e-23
-7.78569e-23
1.875e-06
-4.88344e-23
-1.22404e-22
1.875e-06
2.39247e-23
4.71036e-23
1.875e-06
6.55611e-23
6.68238e-23
1.875e-06
-3.26773e-23
3.01689e-23
1.875e-06
-1.13619e-22
-2.05501e-23
1.875e-06
1.42601e-23
-1.99066e-24
1.875e-06
-3.71331e-24
-6.21687e-23
1.875e-06
-2.31662e-23
-5.95663e-23
1.875e-06
6.93023e-24
-4.84417e-23
1.875e-06
2.42226e-23
1.44339e-23
1.875e-06
-7.68636e-23
1.3739e-23
1.875e-06
1.13239e-23
-4.0977e-23
1.875e-06
-1.17905e-23
-4.92847e-23
1.875e-06
-9.10115e-23
-1.13321e-23
1.875e-06
1.74942e-23
-9.10771e-23
1.875e-06
-2.94944e-23
1.23809e-23
1.875e-06
-9.25379e-23
-1.96008e-23
1.875e-06
3.02236e-23
-2.06578e-23
1.875e-06
6.96957e-23
-5.4978e-23
1.875e-06
4.72183e-23
-2.10113e-23
3.59105e-23
3.17014e-23
1.875e-06
1.5893e-22
1.60197e-22
1.875e-06
8.90555e-23
9.74384e-23
1.875e-06
8.71133e-23
4.67676e-23
1.875e-06
6.79417e-23
6.46558e-23
1.875e-06
-5.70486e-23
-6.56485e-23
1.875e-06
2.48635e-24
-9.35712e-23
1.875e-06
5.20981e-23
7.49594e-23
1.875e-06
7.14542e-23
2.41221e-22
1.875e-06
5.5733e-23
1.02097e-22
1.875e-06
2.85262e-23
4.95325e-23
1.875e-06
-8.29568e-24
5.18015e-23
1.875e-06
1.34772e-23
8.51459e-23
1.875e-06
-6.88055e-24
7.29242e-23
1.875e-06
-1.32658e-23
1.02742e-22
1.875e-06
6.49673e-24
7.39628e-23
1.875e-06
5.60331e-23
6.71461e-23
1.875e-06
-7.5775e-24
6.40875e-23
1.875e-06
-1.60055e-24
2.9908e-23
1.875e-06
-5.46048e-23
-7.71872e-23
1.875e-06
6.58488e-23
-1.06341e-22
1.875e-06
5.58016e-24
4.77738e-23
1.875e-06
-6.32854e-23
8.07941e-23
1.875e-06
4.89998e-23
2.54856e-23
1.875e-06
1.59043e-23
1.55671e-23
1.875e-06
-5.04351e-23
1.60195e-23
1.875e-06
3.27352e-25
-5.95393e-23
1.875e-06
3.19793e-23
-1.0612e-22
1.875e-06
6.36562e-24
3.70001e-23
1.875e-06
-4.8523e-23
-2.74302e-23
1.875e-06
1.75951e-23
2.55513e-23
1.875e-06
-4.19386e-24
2.91964e-25
1.875e-06
-1.80281e-23
-1.11812e-23
1.875e-06
4.33381e-23
-6.27377e-23
1.875e-06
-6.86453e-23
-2.31823e-22
1.875e-06
-1.05971e-22
4.53146e-23
1.875e-06
-5.83217e-23
2.27242e-23
1.875e-06
8.68516e-24
-4.17535e-23
1.875e-06
1.13853e-22
-5.05353e-23
1.875e-06
7.34058e-23
2.52815e-23
1.12706e-23
-5.79981e-24
1.875e-06
4.38802e-23
1.24743e-22
1.875e-06
2.28336e-23
9.45008e-23
1.875e-06
-3.18717e-23
-7.29092e-24
1.875e-06
5.55196e-23
3.19752e-23
1.875e-06
9.27545e-23
5.7337e-23
1.875e-06
1.31104e-23
5.72854e-23
1.875e-06
2.43917e-23
9.35703e-23
1.875e-06
-3.88413e-23
1.81569e-22
1.875e-06
-3.59427e-23
1.15107e-22
1.875e-06
1.12871e-22
8.72121e-23
1.875e-06
1.73649e-22
-5.75421e-24
1.875e-06
3.92825e-23
1.30003e-22
1.875e-06
-1.10553e-22
7.06021e-23
1.875e-06
-6.72746e-23
1.1665e-22
1.875e-06
1.37586e-23
8.37783e-23
1.875e-06
4.99208e-23
2.58881e-23
1.875e-06
1.52859e-22
2.99066e-23
1.875e-06
-4.73875e-24
3.79079e-23
1.875e-06
-4.77037e-23
7.11486e-23
1.875e-06
-2.37315e-24
-5.72823e-23
1.875e-06
-2.8835e-23
8.42195e-23
1.875e-06
-2.05307e-23
1.30472e-22
1.875e-06
-1.80875e-23
-2.83953e-23
1.875e-06
-5.57185e-23
-2.66389e-24
1.875e-06
-5.94258e-23
1.30927e-23
1.875e-06
6.09082e-23
-6.09867e-23
1.875e-06
6.96457e-23
-8.67426e-23
1.875e-06
1.19611e-22
-9.22021e-23
1.875e-06
-5.87838e-23
-6.43372e-24
1.875e-06
-3.67364e-23
2.53148e-23
1.875e-06
-4.0761e-23
2.60045e-23
1.875e-06
-2.34012e-23
-3.72062e-23
1.875e-06
-5.53595e-24
-1.25132e-22
1.875e-06
4.92912e-24
-1.01171e-22
1.875e-06
8.47566e-23
5.4093e-25
1.875e-06
-3.51811e-23
-4.01724e-23
1.875e-06
-6.48074e-24
-3.01952e-23
1.875e-06
-1.13883e-22
-8.37778e-24
1.875e-06
-1.6463e-23
-2.64722e-23
-2.19704e-23
-3.82723e-24
1.875e-06
4.51702e-23
9.12749e-23
1.875e-06
-2.53622e-24
1.20769e-22
1.875e-06
2.56799e-23
6.61831e-23
1.875e-06
-8.71221e-24
3.45599e-23
1.875e-06
1.29904e-23
2.90223e-23
1.875e-06
5.47183e-23
1.24726e-22
1.875e-06
4.73783e-23
1.13344e-22
1.875e-06
5.87226e-24
1.13166e-22
1.875e-06
-1.55889e-23
1.06097e-22
1.875e-06
-8.30684e-23
8.49142e-23
1.875e-06
2.73934e-23
3.31128e-23
1.875e-06
5.85394e-23
1.51195e-22
1.875e-06
6.8933e-23
1.85599e-22
1.875e-06
-3.76794e-23
1.35413e-22
1.875e-06
-3.91446e-23
3.66771e-23
1.875e-06
5.13954e-23
1.81422e-24
1.875e-06
2.37098e-23
-3.61534e-23
1.875e-06
-3.81393e-23
2.50928e-24
1.875e-06
-7.64784e-24
8.00742e-23
1.875e-06
-5.99309e-23
5.51826e-24
1.875e-06
-9.50999e-23
5.99964e-23
1.875e-06
3.77056e-23
7.5382e-23
1.875e-06
7.2009e-23
-1.7265e-23
1.875e-06
1.40409e-23
7.25643e-23
1.875e-06
2.25532e-23
4.10159e-23
1.875e-06
3.81286e-23
-2.43513e-23
1.875e-06
4.48693e-23
-7.57214e-23
1.875e-06
-6.68189e-23
-9.10582e-23
1.875e-06
6.37603e-23
3.07346e-24
1.875e-06
7.38757e-23
-3.69969e-23
1.875e-06
-3.78856e-23
-2.98263e-23
1.875e-06
-4.40888e-23
-6.78838e-23
1.875e-06
-4.26561e-23
-1.16489e-22
1.875e-06
-5.20184e-24
-1.09237e-22
1.875e-06
6.36076e-24
-1.12911e-22
1.875e-06
9.7532e-24
-9.80693e-24
1.875e-06
-3.68899e-23
-7.27038e-23
1.875e-06
5.33571e-23
8.65805e-25
1.875e-06
-7.52647e-24
-1.35995e-23
-1.42784e-23
5.34843e-23
1.875e-06
1.01508e-22
5.2839e-23
1.875e-06
1.20018e-22
6.00946e-23
1.875e-06
5.19178e-23
1.63986e-22
1.875e-06
5.20799e-23
9.31345e-23
1.875e-06
7.18045e-23
7.83174e-23
1.875e-06
1.92315e-23
1.08701e-22
1.875e-06
-2.87333e-23
8.95434e-23
1.875e-06
-5.05878e-24
1.46614e-22
1.875e-06
1.19072e-23
1.61244e-22
1.875e-06
6.77155e-23
2.2842e-22
1.875e-06
-4.64873e-23
3.8628e-23
1.875e-06
-3.11338e-23
1.50397e-22
1.875e-06
7.17875e-23
1.57361e-22
1.875e-06
5.95581e-23
9.40461e-23
1.875e-06
-3.00925e-24
4.11339e-23
1.875e-06
-8.99346e-23
-5.27519e-23
1.875e-06
-8.93937e-23
-2.37985e-23
1.875e-06
-1.9584e-24
7.47773e-23
1.875e-06
1.19976e-23
5.44885e-23
1.875e-06
-8.27136e-23
-1.70311e-23
1.875e-06
5.49106e-23
1.2517e-22
1.875e-06
8.08183e-24
7.37181e-23
1.875e-06
-4.06119e-23
-7.13322e-23
1.875e-06
2.54428e-23
2.71246e-23
1.875e-06
7.95728e-23
7.51024e-23
1.875e-06
1.21126e-23
-3.75185e-24
1.875e-06
-2.71883e-23
-1.18929e-22
1.875e-06
1.25276e-23
-3.66725e-23
1.875e-06
-3.34151e-24
-4.56221e-23
1.875e-06
3.54431e-23
-9.97742e-23
1.875e-06
1.27521e-22
8.65298e-23
1.875e-06
-8.46741e-23
-4.23676e-23
1.875e-06
-6.30903e-23
-1.14574e-22
1.875e-06
6.9231e-23
-1.59604e-22
1.875e-06
-2.32581e-23
-1.43218e-22
1.875e-06
-3.64645e-23
-6.0759e-23
1.875e-06
2.58883e-23
-3.90554e-23
1.875e-06
-3.09001e-24
1.69119e-23
1.875e-06
7.65697e-23
1.47528e-23
1.67561e-23
4.27259e-23
1.875e-06
8.43861e-23
1.78897e-22
1.875e-06
1.00512e-22
1.53914e-22
1.875e-06
8.88737e-23
1.27512e-22
1.875e-06
1.3756e-23
1.41581e-22
1.875e-06
-7.48575e-24
1.59651e-22
1.875e-06
-8.88614e-23
1.05214e-22
1.875e-06
-7.06476e-23
1.32419e-22
1.875e-06
5.57031e-23
8.31841e-23
1.875e-06
1.79171e-23
1.60415e-22
1.875e-06
6.47099e-23
2.78533e-22
1.875e-06
2.05838e-23
1.73483e-22
1.875e-06
1.06962e-23
1.02584e-22
1.875e-06
9.02588e-23
8.74263e-23
1.875e-06
1.17259e-22
2.7757e-23
1.875e-06
-5.94485e-24
5.40916e-23
1.875e-06
-4.77843e-23
9.67366e-24
1.875e-06
-4.14534e-23
3.57476e-23
1.875e-06
-2.11763e-23
8.85953e-24
1.875e-06
-2.11665e-24
1.81368e-23
1.875e-06
-2.4666e-23
7.39819e-23
1.875e-06
3.25901e-23
7.96833e-23
1.875e-06
-3.24986e-23
6.30042e-23
1.875e-06
-5.55581e-23
-8.92437e-23
1.875e-06
5.24754e-23
4.68554e-23
1.875e-06
1.0462e-23
1.20035e-22
1.875e-06
1.13611e-23
1.46682e-23
1.875e-06
-3.35157e-23
-5.11013e-23
1.875e-06
-1.69539e-23
-4.1088e-23
1.875e-06
-1.90056e-23
-1.31787e-22
1.875e-06
-2.57053e-23
-1.10811e-22
1.875e-06
2.11298e-23
-1.63597e-23
1.875e-06
1.51022e-22
1.55983e-23
1.875e-06
1.16711e-22
-4.04705e-23
1.875e-06
-1.47891e-23
-1.40615e-22
1.875e-06
-1.23221e-23
-1.52226e-22
1.875e-06
-9.89883e-23
-5.54717e-23
1.875e-06
2.43802e-23
-9.57681e-23
1.875e-06
1.27226e-23
2.46164e-23
1.875e-06
-3.91561e-23
-9.71483e-24
4.50661e-23
-3.13148e-23
1.875e-06
2.89133e-22
2.68174e-22
1.875e-06
1.64868e-22
2.04778e-22
1.875e-06
-1.28412e-24
1.89729e-22
1.875e-06
5.56621e-23
1.8264e-22
1.875e-06
3.05323e-23
9.83784e-23
1.875e-06
-1.34544e-23
2.02619e-22
1.875e-06
1.00452e-23
2.40131e-22
1.875e-06
-5.45495e-23
1.54549e-23
1.875e-06
-4.4059e-23
1.738e-22
1.875e-06
6.2191e-23
1.79365e-22
1.875e-06
2.08409e-23
1.5998e-22
1.875e-06
2.97365e-23
1.17863e-22
1.875e-06
1.88264e-23
9.99025e-23
1.875e-06
-7.80076e-24
1.25807e-23
1.875e-06
7.50929e-23
8.45355e-23
1.875e-06
6.60392e-23
5.51954e-23
1.875e-06
2.91612e-23
-1.06847e-23
1.875e-06
-7.46542e-23
-3.73532e-23
1.875e-06
2.47009e-23
-2.62373e-23
1.875e-06
5.13273e-23
1.5417e-22
1.875e-06
-8.66187e-23
-3.13845e-23
1.875e-06
4.05639e-23
7.35296e-23
1.875e-06
2.61058e-23
4.20959e-23
1.875e-06
-3.88173e-23
-1.18278e-23
1.875e-06
-2.89645e-24
4.62182e-23
1.875e-06
4.63816e-23
-1.33864e-23
1.875e-06
-1.06647e-22
-4.2194e-23
1.875e-06
-9.2011e-23
-5.55447e-23
1.875e-06
6.22044e-23
-9.55622e-24
1.875e-06
2.86353e-23
1.28107e-23
1.875e-06
-1.29062e-23
8.38232e-23
1.875e-06
7.28971e-23
-6.35302e-23
1.875e-06
7.4116e-23
-1.44159e-22
1.875e-06
4.84219e-23
-3.5366e-23
1.875e-06
5.57168e-23
-1.0192e-22
1.875e-06
-5.09087e-23
-3.92498e-23
1.875e-06
-8.01806e-23
-1.93027e-22
1.875e-06
-3.78577e-23
-7.83908e-23
1.875e-06
-8.8275e-23
1.44378e-23
-3.42046e-23
9.9815e-24
1.875e-06
-1.22837e-22
1.03522e-22
1.875e-06
-2.29504e-23
2.26574e-22
1.875e-06
1.87684e-22
3.18343e-22
1.875e-06
3.41425e-23
2.12453e-22
1.875e-06
1.49259e-23
1.62512e-22
1.875e-06
8.49309e-23
2.77464e-22
1.875e-06
-6.40029e-23
2.93802e-22
1.875e-06
-3.28903e-23
3.2066e-23
1.875e-06
3.95957e-24
1.23498e-22
1.875e-06
-6.41603e-23
6.71011e-23
1.875e-06
4.97852e-23
1.11658e-22
1.875e-06
3.31808e-23
1.75645e-22
1.875e-06
-3.57535e-23
1.15491e-22
1.875e-06
-1.73285e-23
1.33628e-22
1.875e-06
2.16568e-23
-1.92495e-23
1.875e-06
-1.46125e-23
-4.50911e-23
1.875e-06
-3.69926e-23
-1.55456e-23
1.875e-06
9.81679e-23
1.03339e-22
1.875e-06
4.37392e-23
7.35048e-23
1.875e-06
-5.11749e-23
1.42367e-22
1.875e-06
-7.45307e-23
-6.6802e-24
1.875e-06
-1.96038e-23
-4.6925e-23
1.875e-06
2.36e-23
2.26967e-24
1.875e-06
-6.61594e-24
8.03449e-23
1.875e-06
-4.23923e-24
1.37008e-23
1.875e-06
-4.73306e-23
-1.04511e-22
1.875e-06
1.71399e-23
-8.51991e-24
1.875e-06
-3.97477e-23
-8.05759e-24
1.875e-06
7.67286e-23
-1.07704e-22
1.875e-06
7.9815e-23
3.33065e-23
1.875e-06
9.49668e-24
1.34575e-22
1.875e-06
4.18106e-23
5.46216e-23
1.875e-06
2.93632e-23
-3.12393e-23
1.875e-06
-6.37599e-23
-3.89234e-23
1.875e-06
-4.80853e-23
-2.61573e-22
1.875e-06
1.13824e-22
-9.15855e-23
1.875e-06
3.00581e-23
-1.01409e-22
1.875e-06
-7.0624e-23
-7.18249e-23
1.875e-06
-1.09188e-22
-1.42976e-23
-6.80806e-23
5.72543e-24
1.875e-06
-1.09848e-22
2.76355e-22
1.875e-06
2.00238e-23
2.65125e-22
1.875e-06
8.52203e-23
2.20012e-22
1.875e-06
1.04245e-22
2.37641e-22
1.875e-06
3.76169e-24
2.77133e-22
1.875e-06
5.10878e-23
2.3409e-22
1.875e-06
1.20731e-22
2.94906e-22
1.875e-06
-2.58451e-23
1.41787e-22
1.875e-06
4.05222e-25
4.83196e-23
1.875e-06
7.05995e-25
4.52488e-23
1.875e-06
-9.11675e-23
5.50759e-23
1.875e-06
-5.83866e-23
1.1755e-22
1.875e-06
7.75425e-24
1.50767e-22
1.875e-06
-1.54161e-23
1.42598e-22
1.875e-06
-2.2184e-23
7.76963e-23
1.875e-06
-1.56273e-23
-2.36525e-25
1.875e-06
-9.92504e-23
2.1259e-23
1.875e-06
-2.28194e-23
5.77372e-23
1.875e-06
-6.15976e-23
4.97101e-23
1.875e-06
3.56422e-23
4.78254e-23
1.875e-06
1.72055e-22
8.8762e-23
1.875e-06
7.41957e-23
-1.67567e-23
1.875e-06
-6.9098e-23
-1.64342e-23
1.875e-06
-6.69765e-24
6.52653e-23
1.875e-06
3.31412e-23
-2.23141e-23
1.875e-06
6.2029e-23
-9.14753e-23
1.875e-06
3.39618e-23
-1.47955e-22
1.875e-06
-3.68504e-23
9.38759e-23
1.875e-06
-5.60646e-23
1.21215e-23
1.875e-06
5.49174e-24
4.96232e-23
1.875e-06
1.67441e-23
1.27853e-22
1.875e-06
5.65879e-23
6.34394e-23
1.875e-06
3.36097e-23
1.51137e-23
1.875e-06
-1.62693e-23
-1.16086e-22
1.875e-06
5.42839e-23
-2.3218e-22
1.875e-06
3.1544e-23
-1.5091e-22
1.875e-06
-4.47315e-23
-1.24599e-22
1.875e-06
-8.01479e-23
9.53774e-24
1.875e-06
-8.58178e-23
3.6818e-23
-7.29823e-23
-1.1585e-23
1.875e-06
-2.10459e-23
3.72326e-22
1.875e-06
1.41209e-24
3.95905e-22
1.875e-06
4.00864e-23
2.40637e-22
1.875e-06
8.45265e-23
2.58804e-22
1.875e-06
-4.58009e-23
2.79934e-22
1.875e-06
1.43121e-24
1.90227e-22
1.875e-06
5.62815e-23
2.42779e-22
1.875e-06
4.92372e-23
2.46668e-22
1.875e-06
-3.48665e-23
1.22827e-22
1.875e-06
-4.98714e-23
3.00776e-23
1.875e-06
-4.64511e-23
4.5973e-23
1.875e-06
8.20984e-24
5.68864e-23
1.875e-06
-1.02805e-23
1.02538e-22
1.875e-06
4.50938e-23
7.58152e-23
1.875e-06
-2.08378e-23
1.9725e-22
1.875e-06
-1.01614e-23
7.25232e-23
1.875e-06
2.08248e-23
6.38294e-23
1.875e-06
-4.32873e-23
1.09183e-22
1.875e-06
5.29366e-23
6.31095e-23
1.875e-06
-5.28685e-23
-3.67614e-23
1.875e-06
3.1133e-24
3.77588e-24
1.875e-06
1.80951e-23
-1.03177e-22
1.875e-06
8.42684e-23
4.92071e-23
1.875e-06
1.07212e-22
2.02686e-23
1.875e-06
-7.38641e-23
6.16838e-24
1.875e-06
-3.32142e-23
-8.34447e-23
1.875e-06
2.3923e-23
-1.19731e-22
1.875e-06
-2.91221e-23
8.57675e-23
1.875e-06
-4.77017e-23
1.24477e-22
1.875e-06
-3.20542e-24
7.04501e-23
1.875e-06
5.92821e-23
8.33746e-23
1.875e-06
8.57973e-25
2.02289e-23
1.875e-06
-7.05022e-23
6.63925e-24
1.875e-06
1.49971e-23
-6.63948e-23
1.875e-06
7.44917e-23
-2.59314e-22
1.875e-06
2.91519e-23
-6.51191e-23
1.875e-06
-2.57902e-23
-1.18012e-22
1.875e-06
-1.05903e-22
-6.92174e-23
1.875e-06
1.14874e-23
2.73885e-23
1.37731e-22
-3.34545e-23
1.875e-06
6.12063e-23
3.55114e-22
1.875e-06
7.45642e-24
3.69114e-22
1.875e-06
-9.96827e-24
2.69022e-22
1.875e-06
1.2736e-23
2.84645e-22
1.875e-06
9.11997e-23
3.56608e-22
1.875e-06
-9.21926e-24
2.61239e-22
1.875e-06
-3.25175e-23
1.46781e-22
1.875e-06
1.15927e-23
9.46431e-23
1.875e-06
3.78156e-23
1.40397e-22
1.875e-06
-1.78063e-23
1.04158e-22
1.875e-06
-3.39221e-23
4.90844e-23
1.875e-06
-2.72659e-23
1.46765e-23
1.875e-06
-4.29175e-23
-7.34138e-24
1.875e-06
1.14338e-23
1.24028e-22
1.875e-06
5.64374e-23
2.43807e-22
1.875e-06
-4.59586e-23
1.06033e-22
1.875e-06
-2.10552e-23
9.68704e-23
1.875e-06
9.92586e-24
5.98958e-23
1.875e-06
1.92462e-24
1.6393e-23
1.875e-06
1.05136e-22
-1.59959e-23
1.875e-06
2.00374e-23
-3.86544e-23
1.875e-06
-8.98044e-23
-9.81108e-23
1.875e-06
-4.53137e-23
2.91261e-23
1.875e-06
-7.78106e-23
-3.30389e-23
1.875e-06
1.02575e-22
1.01705e-22
1.875e-06
6.70184e-23
-5.36516e-23
1.875e-06
3.23177e-23
-7.33549e-23
1.875e-06
-2.99962e-24
3.65466e-23
1.875e-06
-1.06608e-22
7.67707e-23
1.875e-06
-5.73352e-23
1.06787e-22
1.875e-06
8.96583e-23
1.97527e-23
1.875e-06
-6.10067e-23
3.17651e-23
1.875e-06
-2.62217e-23
1.40849e-22
1.875e-06
-5.40725e-25
-2.92858e-23
1.875e-06
3.42027e-23
-1.727e-22
1.875e-06
3.1298e-23
-1.06093e-22
1.875e-06
1.15924e-23
-1.72744e-22
1.875e-06
8.70338e-23
-7.58326e-23
1.875e-06
7.54888e-23
7.95252e-24
-2.91992e-23
-4.89795e-23
1.875e-06
2.77577e-23
3.49983e-22
1.875e-06
2.43583e-23
3.37732e-22
1.875e-06
5.57609e-23
3.2211e-22
1.875e-06
5.38067e-23
3.2439e-22
1.875e-06
3.27334e-23
2.97121e-22
1.875e-06
1.05587e-23
2.81276e-22
1.875e-06
-2.82461e-24
1.51749e-22
1.875e-06
-2.75552e-23
1.71819e-22
1.875e-06
1.98679e-23
1.19144e-22
1.875e-06
6.01773e-23
-2.85856e-23
1.875e-06
1.61611e-23
-2.1402e-23
1.875e-06
-5.29396e-23
1.60938e-23
1.875e-06
-6.31025e-23
1.18995e-22
1.875e-06
-2.21736e-24
1.35563e-22
1.875e-06
2.63435e-23
1.05601e-22
1.875e-06
-6.49385e-23
1.08889e-22
1.875e-06
1.09604e-24
8.15037e-23
1.875e-06
-5.11376e-23
4.04823e-23
1.875e-06
-8.85222e-23
5.37445e-23
1.875e-06
-2.37857e-23
-4.451e-23
1.875e-06
5.56458e-23
-5.5197e-23
1.875e-06
1.06015e-22
3.1667e-23
1.875e-06
5.56443e-23
2.48898e-23
1.875e-06
-2.10407e-24
-2.18032e-24
1.875e-06
1.46345e-24
2.69046e-23
1.875e-06
6.13588e-23
-2.72318e-23
1.875e-06
2.18217e-23
1.70815e-24
1.875e-06
3.53799e-23
7.77295e-23
1.875e-06
3.23677e-23
8.50366e-23
1.875e-06
-1.04708e-23
3.49356e-23
1.875e-06
-8.72571e-23
-3.99462e-23
1.875e-06
-1.12569e-22
7.08854e-23
1.875e-06
6.03262e-23
9.59875e-23
1.875e-06
7.44215e-23
5.22423e-23
1.875e-06
-1.70462e-23
-8.95536e-23
1.875e-06
1.50117e-23
-1.489e-22
1.875e-06
-2.22386e-23
-9.88118e-23
1.875e-06
1.10296e-23
-4.11799e-23
1.875e-06
-1.19145e-23
-4.81696e-23
-6.91343e-23
-8.94104e-23
1.875e-06
-2.84832e-23
3.68185e-22
1.875e-06
-6.29237e-23
4.21113e-22
1.875e-06
1.24901e-23
3.11128e-22
1.875e-06
-1.41815e-23
2.5001e-22
1.875e-06
-2.02418e-23
3.16203e-22
1.875e-06
7.34362e-23
2.60531e-22
1.875e-06
3.58819e-23
1.99815e-22
1.875e-06
5.41284e-23
1.69511e-22
1.875e-06
-2.00214e-24
1.23038e-22
1.875e-06
-7.86402e-23
7.03339e-24
1.875e-06
-2.86727e-24
3.54705e-23
1.875e-06
-3.82042e-23
3.71622e-23
1.875e-06
-6.906e-23
6.28246e-23
1.875e-06
-5.45796e-23
1.26775e-22
1.875e-06
-2.29791e-23
4.08089e-23
1.875e-06
9.54731e-23
1.60143e-22
1.875e-06
-2.18888e-25
-6.86938e-24
1.875e-06
2.99834e-23
7.17219e-23
1.875e-06
6.70707e-23
8.6073e-23
1.875e-06
-3.69412e-23
-9.26446e-23
1.875e-06
-9.03942e-24
-6.11343e-23
1.875e-06
4.84431e-23
3.363e-23
1.875e-06
3.9413e-24
6.92258e-24
1.875e-06
9.64678e-24
4.9256e-23
1.875e-06
-1.29796e-22
7.00446e-23
1.875e-06
-8.08859e-23
5.36307e-24
1.875e-06
3.16028e-24
-3.95555e-24
1.875e-06
1.53702e-22
5.24588e-23
1.875e-06
9.94162e-23
6.5273e-24
1.875e-06
3.15997e-23
2.24465e-23
1.875e-06
-3.68607e-23
2.47372e-24
1.875e-06
3.08615e-23
2.6316e-23
1.875e-06
-4.57436e-23
1.19899e-23
1.875e-06
-5.94331e-23
9.84917e-23
1.875e-06
8.81209e-24
-8.52495e-23
1.875e-06
3.3544e-23
-1.20116e-22
1.875e-06
1.93232e-23
-1.33677e-22
1.875e-06
-4.74317e-23
-4.35747e-23
1.875e-06
-1.76986e-23
-8.71472e-23
-5.6663e-23
-1.70439e-22
1.875e-06
5.88735e-24
4.63637e-22
1.875e-06
9.64461e-23
4.42802e-22
1.875e-06
-6.66878e-23
2.47201e-22
1.875e-06
-5.86402e-23
2.04069e-22
1.875e-06
3.85086e-23
2.8431e-22
1.875e-06
-4.67804e-23
2.18134e-22
1.875e-06
2.61287e-23
1.85442e-22
1.875e-06
6.28574e-23
1.39114e-22
1.875e-06
-8.75819e-24
1.55238e-22
1.875e-06
-1.1418e-22
1.2336e-22
1.875e-06
1.50284e-23
8.35053e-23
1.875e-06
-3.16328e-23
3.24677e-23
1.875e-06
-7.78235e-23
6.8292e-23
1.875e-06
-1.99687e-23
1.0909e-22
1.875e-06
-1.16695e-22
-7.10476e-24
1.875e-06
-7.39673e-23
2.45981e-23
1.875e-06
1.67458e-22
-3.21764e-23
1.875e-06
7.87847e-23
4.11364e-23
1.875e-06
-7.14669e-23
4.18469e-23
1.875e-06
7.32366e-23
-2.96989e-23
1.875e-06
7.41977e-23
1.64499e-23
1.875e-06
-1.00029e-22
5.48882e-23
1.875e-06
-8.10153e-23
2.41151e-23
1.875e-06
-1.30891e-22
-2.75963e-23
1.875e-06
7.52177e-23
6.57187e-23
1.875e-06
1.25722e-22
1.36135e-22
1.875e-06
7.7768e-23
7.23795e-23
1.875e-06
1.21727e-22
-4.475e-23
1.875e-06
-4.36122e-23
-1.00676e-23
1.875e-06
-6.84267e-23
2.81602e-23
1.875e-06
6.38791e-24
4.01293e-23
1.875e-06
-4.28448e-23
6.91855e-25
1.875e-06
-9.00922e-23
-4.72904e-23
1.875e-06
4.76009e-24
3.63537e-23
1.875e-06
8.06045e-23
-4.92859e-23
1.875e-06
-4.44824e-24
5.35052e-24
1.875e-06
5.03058e-23
-1.44353e-23
1.875e-06
4.05126e-23
-1.39118e-22
1.875e-06
-3.20949e-23
-1.20723e-22
6.96851e-23
-1.02018e-22
1.875e-06
-7.69297e-23
3.48752e-22
1.875e-06
-3.77984e-23
2.69006e-22
1.875e-06
-2.47461e-23
3.27243e-22
1.875e-06
-7.93464e-23
2.65982e-22
1.875e-06
-9.10834e-23
2.521e-22
1.875e-06
9.54743e-25
2.84407e-22
1.875e-06
3.63887e-23
2.04554e-22
1.875e-06
8.66882e-24
1.36578e-22
1.875e-06
5.78947e-23
1.20713e-22
1.875e-06
5.5274e-23
1.46039e-22
1.875e-06
-1.19967e-22
8.21123e-23
1.875e-06
-2.86031e-23
8.64215e-23
1.875e-06
8.87678e-23
1.4332e-22
1.875e-06
-4.68947e-23
3.3421e-23
1.875e-06
-2.79459e-23
-4.69778e-24
1.875e-06
-1.98031e-23
4.79545e-23
1.875e-06
-1.39333e-23
-1.01396e-22
1.875e-06
8.51874e-24
3.05558e-23
1.875e-06
1.79799e-22
1.30673e-22
1.875e-06
1.43713e-22
-2.04689e-23
1.875e-06
8.8189e-24
-4.05974e-23
1.875e-06
-1.07969e-22
1.1511e-22
1.875e-06
-1.5939e-22
1.53001e-23
1.875e-06
-2.98546e-23
7.42328e-23
1.875e-06
4.66741e-23
6.11201e-23
1.875e-06
-1.09613e-22
-9.93705e-24
1.875e-06
-1.75309e-23
1.48358e-25
1.875e-06
-2.10147e-23
-7.45471e-23
1.875e-06
9.49422e-24
5.46063e-23
1.875e-06
7.0098e-23
6.16232e-23
1.875e-06
-1.44544e-23
1.5962e-23
1.875e-06
3.0248e-23
1.90914e-23
1.875e-06
4.01187e-23
-2.53529e-23
1.875e-06
-3.76502e-23
-6.94322e-23
1.875e-06
-2.82746e-23
-6.94028e-23
1.875e-06
-3.60662e-24
7.30897e-23
1.875e-06
1.87735e-23
-4.53334e-23
1.875e-06
2.32531e-23
-1.34583e-22
1.875e-06
9.11038e-23
-7.45383e-23
5.11789e-23
-1.42478e-22
1.875e-06
3.56012e-24
3.29868e-22
1.875e-06
1.27933e-23
2.58887e-22
1.875e-06
-4.13281e-23
2.27273e-22
1.875e-06
1.05264e-23
2.96488e-22
1.875e-06
-1.05914e-23
2.83078e-22
1.875e-06
-7.63468e-23
2.21047e-22
1.875e-06
-4.67749e-23
1.96875e-22
1.875e-06
1.68698e-23
2.06806e-22
1.875e-06
-4.09186e-24
9.94768e-23
1.875e-06
1.34814e-22
1.09409e-22
1.875e-06
-1.61645e-23
1.73546e-22
1.875e-06
-9.37003e-23
8.77819e-23
1.875e-06
1.38889e-23
5.31523e-23
1.875e-06
-7.39606e-23
9.25279e-23
1.875e-06
5.51567e-24
-2.43058e-23
1.875e-06
3.60076e-23
-2.06653e-23
1.875e-06
5.18473e-23
-7.53941e-23
1.875e-06
-5.54556e-23
7.04358e-23
1.875e-06
-1.56348e-23
8.19914e-23
1.875e-06
5.47586e-23
3.47947e-23
1.875e-06
3.83299e-23
4.5122e-23
1.875e-06
4.58331e-23
-4.56721e-23
1.875e-06
-1.05447e-22
6.24635e-24
1.875e-06
-5.70839e-23
6.08333e-23
1.875e-06
-2.35919e-23
5.73856e-23
1.875e-06
2.79907e-23
1.10592e-22
1.875e-06
-4.58171e-24
3.43613e-24
1.875e-06
1.35139e-23
-4.85615e-23
1.875e-06
3.34754e-23
8.2118e-23
1.875e-06
-5.49006e-24
3.93277e-24
1.875e-06
-6.67616e-24
4.68761e-23
1.875e-06
-1.50924e-23
-2.19957e-23
1.875e-06
-8.22241e-23
-3.40981e-23
1.875e-06
2.57348e-23
-2.97792e-23
1.875e-06
7.66315e-24
-9.26478e-23
1.875e-06
6.89954e-23
-2.33945e-23
1.875e-06
-1.11951e-23
-5.49154e-23
1.875e-06
3.59212e-23
-1.22002e-22
1.875e-06
2.2466e-23
-1.22099e-22
-2.4788e-23
-1.29592e-22
1.875e-06
-7.08627e-23
3.35676e-22
1.875e-06
-1.13572e-22
3.0565e-22
1.875e-06
-3.17981e-23
2.87743e-22
1.875e-06
-6.29013e-24
2.59411e-22
1.875e-06
1.04965e-23
1.86979e-22
1.875e-06
4.64746e-23
2.74158e-22
1.875e-06
-1.12636e-23
1.92296e-22
1.875e-06
-1.30358e-22
9.29141e-23
1.875e-06
-4.54062e-23
9.69577e-23
1.875e-06
-4.67584e-23
1.27714e-22
1.875e-06
4.53523e-23
1.702e-22
1.875e-06
8.71163e-23
1.27032e-22
1.875e-06
-1.236e-22
7.18113e-23
1.875e-06
-5.11756e-23
1.41722e-22
1.875e-06
3.45882e-23
3.65693e-23
1.875e-06
7.93019e-23
-3.13993e-23
1.875e-06
-1.20702e-22
-5.64814e-23
1.875e-06
1.89193e-22
5.35886e-23
1.875e-06
2.06636e-22
-8.88679e-24
1.875e-06
2.86712e-23
6.33508e-23
1.875e-06
-9.46775e-23
-8.717e-24
1.875e-06
-1.48762e-22
-5.42451e-23
1.875e-06
1.19717e-22
2.62881e-23
1.875e-06
2.03932e-23
1.06788e-22
1.875e-06
-4.95982e-23
1.68631e-22
1.875e-06
-6.10533e-23
5.5175e-23
1.875e-06
-4.96862e-23
-4.70933e-23
1.875e-06
-1.51173e-22
-4.26644e-23
1.875e-06
-1.67843e-23
7.31587e-23
1.875e-06
8.26033e-23
2.20298e-23
1.875e-06
5.91779e-23
-4.86364e-23
1.875e-06
-5.261e-23
-5.92252e-23
1.875e-06
-1.37629e-23
4.09553e-23
1.875e-06
-1.02581e-24
-1.09468e-23
1.875e-06
-1.44967e-23
-8.24573e-23
1.875e-06
-2.08148e-23
-8.4462e-23
1.875e-06
1.20736e-23
-4.87641e-23
1.875e-06
1.50811e-23
-1.85788e-22
1.875e-06
-1.61179e-23
-1.61106e-22
-5.15943e-23
-8.04046e-23
1.875e-06
-5.17935e-23
3.69458e-22
1.875e-06
-5.20766e-23
3.53254e-22
1.875e-06
-6.7722e-24
3.12393e-22
1.875e-06
-4.39818e-23
2.86318e-22
1.875e-06
-5.72239e-23
9.46083e-23
1.875e-06
1.19402e-23
1.54327e-22
1.875e-06
-1.42322e-23
2.14147e-22
1.875e-06
5.90293e-24
1.16394e-22
1.875e-06
-2.07176e-23
1.45658e-22
1.875e-06
-6.97829e-23
2.18149e-22
1.875e-06
1.99133e-23
1.15082e-22
1.875e-06
2.64576e-23
1.24931e-23
1.875e-06
-5.90664e-23
1.26213e-22
1.875e-06
1.0977e-22
1.45951e-22
1.875e-06
-1.57806e-23
-2.11669e-23
1.875e-06
-6.39938e-23
1.55978e-23
1.875e-06
-7.46844e-24
8.00726e-23
1.875e-06
-7.93306e-23
-1.71887e-22
1.875e-06
5.38977e-23
-1.03608e-22
1.875e-06
3.82434e-23
-4.81677e-25
1.875e-06
8.82134e-24
1.9628e-23
1.875e-06
9.31056e-23
1.18727e-22
1.875e-06
1.47803e-23
1.81341e-22
1.875e-06
4.14743e-23
1.34533e-22
1.875e-06
-7.18517e-23
8.58841e-23
1.875e-06
-1.10078e-22
-6.5521e-24
1.875e-06
1.25938e-22
-2.23203e-23
1.875e-06
2.10236e-23
7.55507e-23
1.875e-06
-2.88236e-23
4.54272e-23
1.875e-06
-3.99223e-23
-2.17715e-23
1.875e-06
-1.15949e-22
-6.81821e-23
1.875e-06
1.0747e-23
-8.29095e-23
1.875e-06
5.84423e-23
-8.62266e-23
1.875e-06
-6.12052e-23
-7.83359e-24
1.875e-06
1.96956e-23
3.92869e-23
1.875e-06
-1.26287e-23
-2.7164e-23
1.875e-06
5.44624e-23
-4.70678e-23
1.875e-06
-4.85445e-23
-1.24439e-22
1.875e-06
-2.16716e-24
-1.47176e-22
3.37692e-23
-2.9147e-23
1.875e-06
4.45906e-23
4.46105e-22
1.875e-06
-3.60849e-24
3.19572e-22
1.875e-06
-3.06648e-23
2.10952e-22
1.875e-06
-7.06272e-23
2.03633e-22
1.875e-06
-1.20974e-22
1.37514e-22
1.875e-06
-1.65807e-23
1.02743e-22
1.875e-06
-2.41075e-23
1.72986e-22
1.875e-06
-4.30657e-23
1.09909e-22
1.875e-06
-1.01327e-22
1.35031e-22
1.875e-06
-9.12172e-24
3.12823e-22
1.875e-06
-2.51022e-22
5.36913e-23
1.875e-06
3.80993e-22
4.34883e-23
1.875e-06
1.43027e-22
1.31604e-22
1.875e-06
1.28201e-22
8.08025e-23
1.875e-06
-2.38868e-23
1.08132e-22
1.875e-06
-7.66234e-23
8.92136e-23
1.875e-06
-2.26872e-23
-4.57739e-23
1.875e-06
-4.32761e-23
-1.89625e-22
1.875e-06
-9.44121e-23
-1.10806e-22
1.875e-06
-4.73321e-23
-3.42214e-23
1.875e-06
5.04566e-23
7.52398e-24
1.875e-06
9.02374e-23
1.3729e-22
1.875e-06
-1.35002e-23
1.89271e-22
1.875e-06
-1.22598e-23
3.38359e-24
1.875e-06
9.35573e-23
1.57394e-22
1.875e-06
3.14852e-23
1.13638e-22
1.875e-06
-8.49462e-23
-4.34258e-23
1.875e-06
1.42653e-23
7.1631e-23
1.875e-06
-1.62376e-22
4.73743e-23
1.875e-06
1.58879e-22
-1.14719e-22
1.875e-06
3.67598e-24
-2.31231e-24
1.875e-06
-2.13496e-23
-3.83222e-23
1.875e-06
1.36552e-22
-1.44205e-22
1.875e-06
-9.12474e-23
5.87789e-23
1.875e-06
-1.74891e-22
-9.78274e-24
1.875e-06
8.94019e-23
-1.6259e-23
1.875e-06
1.22328e-23
-1.19975e-22
1.875e-06
6.77207e-23
-8.09414e-23
1.875e-06
-2.00121e-23
-8.55447e-23
-1.81731e-23
5.53647e-24
1.875e-06
8.68402e-23
3.82592e-22
1.875e-06
5.30364e-23
2.84685e-22
1.875e-06
-2.19286e-23
1.55121e-22
1.875e-06
-7.38329e-23
1.75262e-22
1.875e-06
1.58623e-23
2.58334e-22
1.875e-06
-5.57355e-23
-1.21351e-23
1.875e-06
-7.67539e-23
2.54862e-23
1.875e-06
7.28517e-24
6.6249e-23
1.875e-06
9.92476e-24
1.68409e-22
1.875e-06
-4.17454e-23
3.08424e-22
1.875e-06
3.09806e-23
1.31895e-22
1.875e-06
5.67988e-23
1.98507e-22
1.875e-06
5.01038e-23
3.11519e-23
1.875e-06
-2.2224e-23
-5.63901e-24
1.875e-06
-9.50537e-23
1.45668e-22
1.875e-06
-1.73297e-22
6.54808e-23
1.875e-06
-4.88517e-23
-1.7561e-22
1.875e-06
7.96596e-23
-1.35525e-22
1.875e-06
-1.10197e-22
1.69096e-23
1.875e-06
-3.23342e-23
8.84515e-24
1.875e-06
3.302e-23
-6.00128e-23
1.875e-06
1.09485e-22
5.19731e-23
1.875e-06
2.87925e-23
2.15113e-22
1.875e-06
-1.3694e-23
8.09723e-23
1.875e-06
8.74099e-24
5.28568e-23
1.875e-06
9.27607e-23
2.29651e-22
1.875e-06
-6.43131e-23
9.02032e-23
1.875e-06
1.09802e-23
-6.89466e-24
1.875e-06
3.77605e-23
4.65616e-23
1.875e-06
-6.44364e-23
-9.89537e-23
1.875e-06
3.03356e-23
-9.11368e-23
1.875e-06
-7.45291e-23
-1.08063e-22
1.875e-06
4.12723e-23
-1.77538e-22
1.875e-06
5.38376e-23
7.33224e-23
1.875e-06
4.35668e-24
7.74626e-23
1.875e-06
-3.92763e-24
-5.56318e-23
1.875e-06
-1.70905e-23
-3.25717e-23
1.875e-06
-1.87676e-24
-8.2205e-23
1.875e-06
3.26501e-23
-1.83028e-22
3.62985e-23
-5.62008e-24
1.875e-06
-8.21728e-23
2.62546e-22
1.875e-06
-2.35128e-23
2.52379e-22
1.875e-06
-4.20365e-23
1.51896e-22
1.875e-06
-2.57423e-23
1.03286e-22
1.875e-06
4.33723e-23
1.52428e-22
1.875e-06
6.5797e-23
8.78658e-23