/*--------------------------------*- C++ -*----------------------------------*\
| =========                 |                                                 |
| \\      /  F ield         | OpenFOAM: The Open Source CFD Toolbox           |
|  \\    /   O peration     | Version:  v2012                                 |
|   \\  /    A nd           | Website:  www.openfoam.com                      |
|    \\/     M anipulation  |                                                 |
\*---------------------------------------------------------------------------*/
FoamFile
{
    version     2.0;
    format      ascii;
    class       volVectorField;
    location    "2";
    object      U;
}
// * * * * * * * * * * * * * * * * * * * * * * * * * * * * * * * * * * * * * //

dimensions      [0 1 -1 0 0 0 0];


internalField   nonuniform List<vector> 
64000
(
(0.003 -3.86406e-20 -1.65141e-20)
(0.003 -3.24838e-21 -2.46934e-20)
(0.003 -1.3951e-20 4.00637e-20)
(0.003 -7.70019e-21 6.4708e-20)
(0.003 -2.86467e-20 -8.61225e-20)
(0.003 -2.24781e-20 -7.64852e-20)
(0.003 -3.68068e-20 1.2076e-20)
(0.003 3.07186e-20 6.8045e-20)
(0.003 4.17691e-20 -9.6395e-22)
(0.003 8.75989e-20 -7.477e-20)
(0.003 5.78434e-20 -3.01219e-20)
(0.003 2.42171e-20 6.31363e-20)
(0.003 -1.81406e-20 5.49972e-20)
(0.003 8.23403e-20 1.95023e-20)
(0.003 3.78903e-20 3.76568e-20)
(0.003 -1.27877e-19 3.47166e-21)
(0.003 -2.14491e-20 3.53876e-20)
(0.003 -3.86563e-20 1.73849e-20)
(0.003 -7.54818e-20 -1.22005e-19)
(0.003 -1.36145e-19 -1.48541e-19)
(0.003 -4.92393e-20 -5.29424e-21)
(0.003 9.27031e-20 8.14013e-20)
(0.003 6.74428e-20 4.74615e-20)
(0.003 1.10689e-19 -8.33212e-21)
(0.003 7.77294e-20 -3.06952e-20)
(0.003 -8.91654e-20 2.44245e-20)
(0.003 -1.3328e-19 3.02669e-20)
(0.003 -6.47151e-20 -4.6243e-20)
(0.003 -2.34419e-20 -6.76475e-20)
(0.003 -3.4138e-20 1.30278e-20)
(0.003 9.32655e-21 6.45023e-20)
(0.003 -2.08827e-20 -5.41934e-21)
(0.003 -7.97757e-20 -3.03054e-20)
(0.003 -5.20466e-20 -1.49277e-20)
(0.003 1.54518e-21 -2.43924e-20)
(0.003 5.00856e-20 -2.1008e-20)
(0.003 -5.07621e-20 -7.58605e-20)
(0.003 -6.48768e-20 2.8975e-20)
(0.003 -9.69561e-20 2.82239e-20)
(0.003 -8.71701e-20 6.76047e-21)
(0.003 -4.45793e-20 -9.74975e-21)
(0.003 -3.48398e-20 1.07353e-21)
(0.003 -7.64347e-20 2.34209e-20)
(0.003 -4.91829e-20 1.29653e-20)
(0.003 5.86303e-20 -3.84833e-20)
(0.003 9.53266e-20 -3.00793e-20)
(0.003 1.92186e-20 3.74903e-20)
(0.003 1.99585e-20 4.25485e-20)
(0.003 2.45026e-20 4.32725e-20)
(0.003 -9.86599e-21 1.46754e-20)
(0.003 1.32137e-20 -1.04223e-20)
(0.003 7.23661e-20 2.48986e-20)
(0.003 -9.60753e-21 8.40352e-20)
(0.003 -2.51444e-20 1.07361e-19)
(0.003 3.04437e-20 7.86154e-20)
(0.003 2.8158e-20 -2.57193e-20)
(0.003 -4.80555e-21 1.53172e-20)
(0.003 1.56477e-20 4.22808e-20)
(0.003 2.12047e-20 -1.40748e-19)
(0.003 1.55636e-20 -1.49686e-19)
(0.003 -1.11424e-20 1.29069e-20)
(0.003 4.43043e-21 1.19439e-19)
(0.003 9.90651e-21 5.40339e-20)
(0.003 -1.54011e-20 3.82119e-20)
(0.003 -1.65758e-20 1.49399e-20)
(0.003 -2.46765e-20 -1.08815e-19)
(0.003 -6.6506e-20 -9.42323e-20)
(0.003 -2.71836e-20 -6.29824e-20)
(0.003 3.30844e-20 -4.27053e-20)
(0.003 -3.58317e-20 2.11473e-20)
(0.003 -4.79734e-20 -2.84829e-21)
(0.003 -2.1189e-20 -2.70693e-20)
(0.003 -8.21266e-20 -3.05753e-20)
(0.003 -1.56186e-20 -4.25026e-20)
(0.003 1.40895e-20 3.17619e-20)
(0.003 -3.08765e-20 1.25067e-20)
(0.003 1.37213e-22 -1.07366e-19)
(0.003 4.62087e-20 -3.91477e-20)
(0.003 9.29651e-21 -3.84238e-20)
(0.003 -2.7403e-21 -2.41732e-20)
(0.003 2.0061e-20 1.94424e-20)
(0.003 6.97418e-21 3.4652e-20)
(0.003 -5.58102e-21 -5.57391e-20)
(0.003 -1.4214e-20 -1.1158e-19)
(0.003 1.24938e-20 -3.7518e-20)
(0.003 4.14266e-20 -1.88874e-21)
(0.003 4.16041e-20 7.58767e-20)
(0.003 2.84152e-20 1.40757e-19)
(0.003 3.95535e-20 7.48206e-20)
(0.003 -2.44268e-20 3.38533e-20)
(0.003 -1.40947e-20 1.95135e-20)
(0.003 4.99281e-21 3.76567e-20)
(0.003 2.49716e-21 2.33773e-20)
(0.003 -4.27327e-20 7.56989e-20)
(0.003 3.11087e-20 9.02924e-20)
(0.003 7.83218e-20 4.92469e-20)
(0.003 -3.01194e-20 3.60662e-20)
(0.003 1.18305e-20 -2.53109e-21)
(0.003 4.04583e-20 -9.51201e-20)
(0.003 4.02008e-20 -1.2822e-19)
(0.003 -7.38703e-21 4.3712e-20)
(0.003 -4.03191e-20 1.15354e-19)
(0.003 -1.28447e-20 3.03166e-20)
(0.003 -3.35676e-21 2.26377e-20)
(0.003 -2.07412e-21 8.18837e-21)
(0.003 -3.05098e-21 -1.08077e-19)
(0.003 1.07693e-21 -9.93481e-20)
(0.003 1.41609e-20 1.50841e-20)
(0.003 -7.72173e-21 -2.32481e-20)
(0.003 -6.07255e-20 -1.35043e-20)
(0.003 -6.0571e-20 -1.48772e-21)
(0.003 -1.50622e-21 -3.73915e-20)
(0.003 5.11788e-20 -5.12126e-20)
(0.003 -3.6817e-20 -1.26589e-19)
(0.003 -1.00455e-19 -4.58759e-21)
(0.003 -6.28094e-20 7.13509e-21)
(0.003 5.32058e-20 -8.04196e-20)
(0.003 1.36374e-19 -2.87147e-20)
(0.003 1.01131e-19 5.12087e-21)
(0.003 2.00504e-20 -4.25141e-20)
(0.003 7.18325e-20 6.5243e-20)
(0.003 5.92616e-20 7.04761e-20)
(0.003 2.4665e-20 -2.83782e-20)
(0.003 3.46459e-20 -2.91515e-20)
(0.003 1.58636e-20 2.50788e-20)
(0.003 1.44194e-20 3.87425e-20)
(0.003 5.34658e-20 6.26677e-20)
(0.003 1.69412e-20 1.14757e-19)
(0.003 -2.87406e-20 1.02307e-19)
(0.003 1.0011e-20 3.93712e-20)
(0.003 4.307e-20 -2.64556e-20)
(0.003 2.87294e-20 5.14498e-20)
(0.003 -3.3151e-20 1.80855e-20)
(0.003 -2.78032e-20 6.0668e-20)
(0.003 -4.85014e-21 1.21417e-19)
(0.003 3.45258e-20 7.26401e-20)
(0.003 7.10217e-20 1.33036e-21)
(0.003 8.80184e-21 -1.68667e-20)
(0.003 -2.6966e-20 -4.25638e-20)
(0.003 7.94108e-21 -5.33289e-20)
(0.003 -1.12855e-20 7.888e-20)
(0.003 -2.64321e-20 8.26593e-20)
(0.003 1.03493e-20 3.92031e-20)
(0.003 -1.17956e-20 3.23032e-20)
(0.003 -3.62518e-20 -1.82417e-20)
(0.003 2.00175e-20 -5.41317e-20)
(0.003 6.04537e-20 -1.06609e-19)
(0.003 4.17176e-20 -1.1006e-19)
(0.003 -3.22014e-20 1.19847e-20)
(0.003 1.394e-20 -6.85995e-21)
(0.003 -3.3072e-20 -8.0291e-20)
(0.003 -4.55698e-20 -2.75184e-20)
(0.003 1.6736e-20 -4.2894e-20)
(0.003 2.21837e-20 -4.6964e-20)
(0.003 1.13917e-20 -3.62485e-20)
(0.003 -3.18513e-20 -7.52699e-20)
(0.003 -2.63975e-20 -4.76838e-20)
(0.003 -1.02735e-20 1.28028e-20)
(0.003 1.78671e-20 1.7582e-20)
(0.003 1.17795e-20 -2.03526e-21)
(0.003 2.80879e-20 5.44267e-20)
(0.003 -1.48423e-20 8.85578e-20)
(0.003 -3.65426e-21 1.98474e-20)
(0.003 -5.9462e-21 3.55923e-20)
(0.003 3.7925e-20 3.32567e-20)
(0.003 4.75963e-20 1.44935e-20)
(0.003 3.94356e-20 8.2215e-20)
(0.003 -5.42565e-21 8.57941e-20)
(0.003 -3.98576e-20 6.52343e-20)
(0.003 3.42717e-20 6.62509e-20)
(0.003 1.02284e-19 1.17951e-19)
(0.003 4.99076e-20 8.13148e-20)
(0.003 -3.37588e-20 1.30991e-20)
(0.003 -7.81245e-20 3.41533e-20)
(0.003 -4.31765e-20 9.33074e-20)
(0.003 4.41718e-20 8.09173e-20)
(0.003 7.74344e-20 -9.63953e-21)
(0.003 -2.63729e-20 -3.87844e-20)
(0.003 -8.50105e-20 -7.21768e-20)
(0.003 -5.51556e-20 -6.22773e-20)
(0.003 -3.93135e-20 3.09878e-20)
(0.003 3.77264e-20 7.03503e-20)
(0.003 4.85507e-20 6.00254e-20)
(0.003 -7.11106e-20 3.40481e-20)
(0.003 -7.39994e-20 -3.56943e-21)
(0.003 5.09256e-20 -2.89176e-21)
(0.003 6.65932e-20 -8.1596e-20)
(0.003 5.58534e-20 1.69527e-21)
(0.003 5.12894e-20 -2.94403e-20)
(0.003 8.35989e-21 -1.55205e-19)
(0.003 -1.98278e-20 -7.97717e-20)
(0.003 -3.52013e-20 -7.39576e-20)
(0.003 -8.42653e-20 -8.91717e-20)
(0.003 -2.28764e-20 -5.5795e-20)
(0.003 1.3101e-20 -5.90797e-20)
(0.003 -8.62251e-21 -3.59532e-20)
(0.003 -3.2982e-20 -5.19106e-20)
(0.003 -2.9308e-20 -5.35162e-21)
(0.003 2.25018e-20 7.23968e-20)
(0.003 4.27394e-21 2.40728e-20)
(0.003 8.47654e-20 1.69106e-20)
(0.003 9.36559e-20 2.69101e-20)
(0.003 2.51198e-20 4.87096e-20)
(0.003 2.8455e-20 6.65401e-20)
(0.003 1.96231e-20 4.27781e-20)
(0.003 -2.08554e-21 1.46165e-20)
(0.003 4.29015e-21 8.26759e-20)
(0.003 -2.26993e-21 1.0272e-19)
(0.003 -2.97532e-21 7.9227e-20)
(0.003 -2.66976e-21 -7.68836e-21)
(0.003 -1.99719e-20 7.65412e-20)
(0.003 1.34354e-20 1.78917e-19)
(0.003 7.20052e-20 5.52972e-20)
(0.003 1.28846e-20 -7.34938e-20)
(0.003 -5.79232e-20 4.01135e-20)
(0.003 -4.89732e-20 1.19942e-19)
(0.003 7.87883e-21 5.86359e-20)
(0.003 -1.50185e-20 2.36464e-20)
(0.003 -6.27455e-20 -5.4604e-20)
(0.003 -9.72631e-20 -1.04384e-19)
(0.003 1.2127e-20 -1.5454e-20)
(0.003 3.07125e-20 1.0065e-19)
(0.003 1.68414e-21 5.9095e-20)
(0.003 5.10935e-20 -3.92569e-20)
(0.003 5.14111e-20 -1.44868e-20)
(0.003 2.62092e-20 -3.06238e-20)
(0.003 4.54629e-20 -7.90707e-20)
(0.003 -3.25763e-20 -7.0985e-21)
(0.003 -2.22059e-21 -4.32471e-20)
(0.003 8.80696e-20 -5.76886e-20)
(0.003 6.33805e-20 4.58052e-20)
(0.003 -9.91511e-20 -5.57392e-20)
(0.003 -7.88779e-20 -1.0114e-19)
(0.003 1.84298e-20 -6.65718e-20)
(0.003 -3.39482e-20 -8.57176e-20)
(0.003 -5.55227e-20 -1.24721e-19)
(0.003 3.058e-20 -1.39242e-19)
(0.003 4.24246e-20 2.31098e-20)
(0.003 4.68874e-20 1.12312e-19)
(0.003 2.74182e-20 6.75375e-20)
(0.003 9.28732e-20 1.15033e-19)
(0.003 7.90002e-20 1.09794e-19)
(0.003 4.37151e-20 3.05528e-20)
(0.003 3.33959e-20 7.97537e-20)
(0.003 -1.20247e-20 8.85837e-20)
(0.003 -3.24828e-20 1.02661e-19)
(0.003 -1.0795e-21 9.26041e-20)
(0.003 1.90099e-20 3.62578e-20)
(0.003 1.29421e-20 8.61539e-20)
(0.003 4.66036e-20 1.56516e-19)
(0.003 1.16757e-20 1.35767e-19)
(0.003 -1.17667e-20 1.08723e-19)
(0.003 4.29592e-20 6.56853e-20)
(0.003 6.83617e-20 -2.38611e-20)
(0.003 2.3687e-20 -1.88957e-20)
(0.003 -3.84805e-20 3.85322e-20)
(0.003 -5.55818e-20 3.97923e-20)
(0.003 -2.76716e-20 1.54157e-20)
(0.003 -1.73826e-20 -6.3021e-20)
(0.003 -3.31417e-20 -9.14132e-20)
(0.003 1.18723e-20 -1.4514e-20)
(0.003 -9.86317e-21 9.02361e-20)
(0.003 -2.96535e-20 4.25875e-20)
(0.003 2.14425e-20 1.83917e-20)
(0.003 4.94808e-20 1.82471e-20)
(0.003 1.08624e-20 3.15261e-20)
(0.003 -2.34412e-20 1.07429e-21)
(0.003 3.8939e-22 -2.92719e-21)
(0.003 -2.38789e-20 -9.41959e-20)
(0.003 -1.35913e-20 -7.8782e-20)
(0.003 7.99004e-20 -5.76473e-20)
(0.003 4.31769e-20 -7.42575e-20)
(0.003 -4.91579e-21 -9.94015e-20)
(0.003 1.55375e-20 -5.45382e-20)
(0.003 2.78591e-20 -1.02997e-19)
(0.003 -2.83275e-20 -8.05848e-20)
(0.003 3.08249e-20 -1.16415e-19)
(0.003 1.41444e-20 1.48191e-20)
(0.003 -1.2155e-20 8.02676e-20)
(0.003 4.42278e-22 3.02381e-20)
(0.003 9.05944e-20 1.87315e-19)
(0.003 8.67005e-20 1.57037e-19)
(0.003 2.67797e-20 7.85127e-20)
(0.003 1.96296e-20 5.83815e-20)
(0.003 3.40014e-20 2.5874e-20)
(0.003 -5.47985e-20 1.05001e-19)
(0.003 -2.3648e-20 1.11401e-19)
(0.003 -5.99575e-21 3.09473e-20)
(0.003 -9.2464e-21 1.09463e-19)
(0.003 6.43627e-20 1.43706e-19)
(0.003 4.08187e-20 1.27971e-19)
(0.003 -2.0125e-21 1.37844e-19)
(0.003 6.17175e-20 1.10889e-19)
(0.003 8.75175e-20 4.70757e-20)
(0.003 4.68637e-20 4.2993e-20)
(0.003 -1.28235e-20 3.35537e-20)
(0.003 -4.73899e-20 -5.35697e-20)
(0.003 -1.54665e-20 -7.18092e-20)
(0.003 5.26326e-20 -7.53845e-20)
(0.003 -6.03991e-21 -2.98576e-20)
(0.003 -6.56571e-20 -3.61499e-20)
(0.003 -1.81546e-20 3.19064e-20)
(0.003 -9.19048e-21 6.50218e-20)
(0.003 8.33944e-21 7.66616e-20)
(0.003 6.33803e-22 2.80346e-20)
(0.003 1.46949e-20 -2.44412e-20)
(0.003 -6.27481e-20 -5.39719e-20)
(0.003 -1.76236e-20 -4.5924e-20)
(0.003 4.64443e-21 -4.40731e-20)
(0.003 -2.4898e-20 2.50631e-20)
(0.003 5.63762e-21 3.45342e-20)
(0.003 1.06539e-19 -9.75281e-20)
(0.003 1.34799e-19 -1.61487e-19)
(0.003 5.63475e-20 -2.3977e-20)
(0.003 5.04405e-21 -1.59209e-20)
(0.003 -7.14636e-20 -1.01893e-19)
(0.003 -4.46118e-20 -1.08231e-19)
(0.003 -2.06874e-20 3.38786e-21)
(0.003 -5.42222e-20 5.37501e-20)
(0.003 -1.23261e-20 -2.09931e-20)
(0.003 4.96894e-20 2.34688e-19)
(0.003 5.382e-20 2.14786e-19)
(0.003 7.56031e-20 1.4687e-19)
(0.003 2.62365e-20 1.02501e-19)
(0.003 2.86942e-20 8.00883e-20)
(0.003 6.94492e-20 1.00426e-19)
(0.003 -4.73061e-21 1.44153e-19)
(0.003 -3.61926e-20 8.00645e-20)
(0.003 -1.81223e-20 2.81696e-20)
(0.003 -1.50762e-20 9.44918e-20)
(0.003 -1.29419e-21 1.33147e-19)
(0.003 2.65367e-20 1.40215e-19)
(0.003 1.6816e-20 1.2785e-19)
(0.003 3.54165e-20 1.06287e-19)
(0.003 9.43286e-21 6.04388e-20)
(0.003 -9.10755e-21 1.35812e-20)
(0.003 2.67034e-20 -3.47471e-20)
(0.003 2.70997e-20 -3.62395e-21)
(0.003 -5.74183e-22 -2.99055e-22)
(0.003 -3.91561e-20 -3.21933e-20)
(0.003 -7.67176e-20 -6.60384e-20)
(0.003 1.51151e-20 1.80066e-20)
(0.003 2.15138e-20 6.69822e-20)
(0.003 3.82866e-21 6.02827e-20)
(0.003 2.62506e-20 2.10135e-20)
(0.003 -3.10042e-20 -9.95828e-20)
(0.003 -7.95283e-20 -9.12508e-20)
(0.003 -8.27731e-20 -5.88019e-20)
(0.003 2.64196e-20 -4.76927e-20)
(0.003 5.94762e-20 2.73717e-20)
(0.003 1.59533e-20 4.69248e-20)
(0.003 5.41843e-20 1.78991e-20)
(0.003 5.3881e-20 1.25105e-20)
(0.003 -1.05798e-20 1.0505e-20)
(0.003 -1.57045e-20 -1.95879e-19)
(0.003 2.1286e-20 -1.81446e-19)
(0.003 4.37969e-21 -8.66598e-20)
(0.003 -3.25132e-20 -2.51823e-20)
(0.003 -8.16736e-20 -2.88874e-20)
(0.003 -7.10722e-20 -3.35003e-20)
(0.003 -5.50913e-20 2.39906e-19)
(0.003 3.12677e-20 2.41258e-19)
(0.003 1.26879e-19 1.62889e-19)
(0.003 6.22247e-20 1.31111e-19)
(0.003 1.34888e-20 1.14153e-19)
(0.003 2.18973e-20 1.22298e-19)
(0.003 -9.35491e-21 1.45757e-19)
(0.003 2.21512e-20 5.30228e-20)
(0.003 4.66077e-20 3.50266e-20)
(0.003 7.25131e-21 8.62577e-20)
(0.003 -1.11441e-20 9.29843e-20)
(0.003 -1.70302e-20 1.21412e-19)
(0.003 -4.83322e-20 1.39339e-19)
(0.003 -7.45413e-20 1.2133e-19)
(0.003 1.55298e-20 8.90607e-20)
(0.003 4.28128e-20 1.53397e-20)
(0.003 -6.61749e-20 -2.52563e-20)
(0.003 -4.02125e-20 -1.42625e-20)
(0.003 -1.99942e-20 -5.14987e-20)
(0.003 -2.09486e-20 -8.12121e-20)
(0.003 -1.78607e-20 -6.12687e-20)
(0.003 -1.22146e-20 -5.7372e-21)
(0.003 7.25874e-21 1.01505e-19)
(0.003 -9.40197e-21 4.95296e-20)
(0.003 1.94159e-20 -1.43483e-20)
(0.003 9.86407e-20 -7.37766e-20)
(0.003 3.1555e-20 -1.10547e-19)
(0.003 -6.2645e-20 -4.41235e-20)
(0.003 2.23996e-21 1.28026e-20)
(0.003 4.05561e-20 5.04527e-20)
(0.003 -2.36474e-21 9.50241e-20)
(0.003 5.25535e-20 4.47589e-20)
(0.003 3.2006e-20 5.27308e-21)
(0.003 -6.37462e-20 -4.37392e-20)
(0.003 1.94613e-20 -1.58891e-19)
(0.003 5.65425e-20 -2.08101e-19)
(0.003 -4.32634e-21 -8.60205e-20)
(0.003 -8.28245e-20 -1.51394e-20)
(0.003 -1.42426e-19 -1.69758e-20)
(0.003 -8.66307e-20 -3.57308e-20)
(0.003 -4.17892e-20 2.13538e-19)
(0.003 2.87137e-20 2.77504e-19)
(0.003 7.09946e-20 2.02458e-19)
(0.003 6.60898e-20 9.52747e-20)
(0.003 -2.30724e-20 1.92413e-19)
(0.003 -9.35052e-21 2.27877e-19)
(0.003 3.62082e-20 1.02587e-19)
(0.003 3.3919e-20 1.01347e-19)
(0.003 -1.08381e-20 1.07933e-19)
(0.003 -2.64055e-20 4.70376e-20)
(0.003 -1.26621e-20 4.17286e-20)
(0.003 8.14137e-21 9.60949e-20)
(0.003 -1.00175e-20 6.74849e-20)
(0.003 -3.2338e-20 1.29014e-20)
(0.003 -1.23268e-20 1.2739e-19)
(0.003 -1.72193e-20 9.60529e-20)
(0.003 -3.51336e-20 2.37814e-21)
(0.003 -2.34927e-20 8.97019e-21)
(0.003 -2.71934e-20 -5.76658e-20)
(0.003 -3.19015e-21 -1.46202e-19)
(0.003 5.73127e-20 -7.9392e-20)
(0.003 2.993e-20 9.62685e-21)
(0.003 5.20816e-21 8.37935e-20)
(0.003 3.07626e-20 2.58875e-20)
(0.003 -2.12011e-20 2.19375e-20)
(0.003 1.60653e-20 -4.90528e-20)
(0.003 5.86254e-20 -9.52818e-20)
(0.003 -8.7363e-21 -2.29574e-20)
(0.003 1.02547e-20 3.41648e-20)
(0.003 1.15769e-20 1.16401e-19)
(0.003 2.7746e-20 9.73005e-20)
(0.003 1.18357e-20 5.3387e-20)
(0.003 -3.32973e-20 2.76933e-21)
(0.003 -5.38347e-21 -1.24942e-19)
(0.003 5.52334e-20 -1.56361e-19)
(0.003 3.23681e-20 -4.3398e-20)
(0.003 -5.26588e-20 -1.18597e-19)
(0.003 -9.50902e-20 -1.35396e-19)
(0.003 1.45825e-20 -1.03966e-19)
(0.003 6.23687e-20 -1.10005e-19)
(0.003 3.45195e-20 2.27845e-19)
(0.003 -2.20706e-21 2.68683e-19)
(0.003 6.82569e-21 2.32097e-19)
(0.003 4.68421e-20 1.51146e-19)
(0.003 2.08672e-20 1.95289e-19)
(0.003 3.90776e-20 1.90885e-19)
(0.003 2.75019e-20 9.23868e-20)
(0.003 -2.87538e-20 4.27891e-20)
(0.003 -1.43394e-20 6.66426e-20)
(0.003 -1.44827e-20 8.62559e-20)
(0.003 -6.80696e-20 7.34527e-20)
(0.003 -2.07276e-20 7.54318e-20)
(0.003 9.71062e-22 1.23951e-20)
(0.003 1.25983e-20 1.73632e-20)
(0.003 1.96675e-20 1.71629e-19)
(0.003 -2.06206e-20 7.7788e-20)
(0.003 -4.18027e-20 -3.27945e-20)
(0.003 -1.55953e-20 4.14358e-21)
(0.003 6.17717e-20 -4.23687e-20)
(0.003 2.76874e-20 -1.05566e-19)
(0.003 4.90085e-20 -1.17017e-19)
(0.003 -9.7171e-21 -2.33796e-20)
(0.003 -2.92093e-21 7.04561e-20)
(0.003 2.22482e-20 8.91743e-20)
(0.003 1.17287e-20 7.69603e-20)
(0.003 -2.97252e-20 -7.1271e-20)
(0.003 8.08932e-21 -8.12503e-20)
(0.003 -4.53691e-22 -2.80536e-20)
(0.003 -6.06935e-20 4.46999e-22)
(0.003 -1.26087e-20 1.22531e-19)
(0.003 6.45267e-20 1.036e-19)
(0.003 -1.21033e-20 4.85459e-20)
(0.003 -6.13254e-20 3.01702e-20)
(0.003 6.02372e-21 -1.208e-19)
(0.003 4.22985e-20 -5.55846e-20)
(0.003 3.76717e-20 -6.1242e-20)
(0.003 2.81725e-21 -2.11786e-19)
(0.003 -2.77515e-20 -1.39322e-19)
(0.003 4.03784e-20 -1.08204e-19)
(0.003 4.19797e-20 -6.80888e-20)
(0.003 4.39414e-20 2.45928e-19)
(0.003 2.3957e-20 2.60086e-19)
(0.003 1.34772e-20 2.16089e-19)
(0.003 4.88768e-20 2.15909e-19)
(0.003 9.83739e-20 1.87889e-19)
(0.003 1.18878e-20 1.53901e-19)
(0.003 -4.46451e-20 9.13684e-20)
(0.003 -1.02353e-20 7.01868e-20)
(0.003 1.75472e-20 6.80339e-20)
(0.003 5.57674e-23 2.19681e-20)
(0.003 -2.6913e-20 7.90222e-21)
(0.003 -5.21776e-20 4.17013e-20)
(0.003 -5.69188e-20 7.19178e-20)
(0.003 1.14357e-20 9.08239e-20)
(0.003 3.86762e-20 1.35173e-19)
(0.003 -2.95851e-20 6.79819e-20)
(0.003 -2.76936e-20 -2.95789e-20)
(0.003 -3.22952e-20 -1.86363e-20)
(0.003 -2.99798e-20 -8.00187e-20)
(0.003 3.45686e-20 -9.82245e-20)
(0.003 5.91421e-20 -7.94619e-20)
(0.003 2.25099e-20 6.64615e-20)
(0.003 -3.0286e-22 2.91214e-20)
(0.003 -1.06932e-20 1.55742e-20)
(0.003 5.94062e-20 7.02843e-20)
(0.003 3.60503e-20 2.07726e-20)
(0.003 -4.8688e-21 -5.19897e-20)
(0.003 8.80454e-21 -5.55979e-20)
(0.003 -8.84195e-21 -2.36831e-20)
(0.003 -2.66788e-20 7.42752e-20)
(0.003 -1.7705e-20 8.86953e-20)
(0.003 -9.77402e-20 5.13363e-20)
(0.003 3.29315e-20 6.59058e-20)
(0.003 8.3162e-20 -4.9477e-20)
(0.003 1.50757e-20 -2.95469e-20)
(0.003 3.28658e-20 -1.11894e-19)
(0.003 9.07501e-21 -1.03161e-19)
(0.003 5.4197e-20 -6.77622e-20)
(0.003 5.42024e-21 -3.59069e-20)
(0.003 -4.60985e-20 -2.81877e-20)
(0.003 4.30664e-21 2.57059e-19)
(0.003 1.70389e-20 3.06398e-19)
(0.003 5.293e-20 2.49958e-19)
(0.003 3.35119e-20 1.7348e-19)
(0.003 7.6447e-21 2.45051e-19)
(0.003 4.12689e-20 2.06105e-19)
(0.003 -6.07743e-21 8.78937e-20)
(0.003 6.83917e-21 7.09839e-20)
(0.003 2.40945e-20 8.16612e-20)
(0.003 -4.11719e-20 7.83874e-20)
(0.003 2.48236e-20 2.91492e-20)
(0.003 -2.11303e-20 -1.71125e-20)
(0.003 -9.12595e-20 -1.11738e-20)
(0.003 4.00959e-21 6.26528e-20)
(0.003 -1.29568e-20 7.63304e-20)
(0.003 -3.78667e-20 3.99812e-20)
(0.003 9.25619e-21 -4.12199e-20)
(0.003 1.2493e-20 2.94682e-21)
(0.003 -4.4222e-21 -9.29938e-20)
(0.003 9.68773e-22 -2.13838e-19)
(0.003 9.94973e-21 -4.39618e-20)
(0.003 6.19221e-20 1.13635e-19)
(0.003 4.24599e-20 5.23805e-20)
(0.003 -1.73386e-21 8.71805e-20)
(0.003 -5.99754e-20 1.56599e-19)
(0.003 -2.69981e-21 4.13016e-20)
(0.003 2.18807e-20 -6.30848e-20)
(0.003 6.77426e-20 2.08552e-20)
(0.003 5.01912e-20 -3.81459e-20)
(0.003 -4.67941e-22 1.87922e-20)
(0.003 -6.04325e-20 1.82942e-20)
(0.003 -5.36337e-21 -4.37256e-20)
(0.003 3.42386e-21 5.84628e-20)
(0.003 -2.68759e-20 3.62324e-20)
(0.003 1.23177e-20 -1.26264e-21)
(0.003 4.93172e-20 -8.03595e-20)
(0.003 9.31343e-21 -1.82425e-19)
(0.003 -1.23061e-20 -9.00232e-20)
(0.003 -4.41552e-20 -7.19065e-20)
(0.003 -9.30793e-20 -1.35265e-19)
(0.003 -9.32368e-21 2.50251e-19)
(0.003 1.44726e-20 3.15716e-19)
(0.003 -8.97175e-21 2.61344e-19)
(0.003 -1.30482e-20 1.72755e-19)
(0.003 1.61719e-20 1.90433e-19)
(0.003 1.5529e-20 2.11757e-19)
(0.003 6.17879e-20 1.18578e-19)
(0.003 2.40634e-20 8.39936e-20)
(0.003 -5.48549e-20 8.08944e-20)
(0.003 -7.25363e-20 5.81393e-20)
(0.003 -2.60415e-20 3.91641e-20)
(0.003 -4.85328e-20 -9.03382e-21)
(0.003 -3.87449e-20 2.3988e-20)
(0.003 -3.13337e-21 5.4549e-20)
(0.003 -6.44417e-20 3.86723e-20)
(0.003 -2.02365e-20 1.10666e-20)
(0.003 1.17075e-19 -7.53252e-20)
(0.003 6.16467e-20 -6.96808e-20)
(0.003 2.67673e-21 -5.93393e-20)
(0.003 5.89011e-20 -1.67441e-19)
(0.003 3.88162e-20 1.20408e-20)
(0.003 -1.73972e-20 1.26895e-19)
(0.003 -3.66271e-20 1.22788e-19)
(0.003 -8.72966e-20 5.9872e-20)
(0.003 -6.32984e-20 3.28132e-20)
(0.003 3.22368e-20 4.88977e-20)
(0.003 7.58897e-20 5.61647e-22)
(0.003 1.17238e-19 -4.58601e-20)
(0.003 -4.07598e-21 2.09668e-20)
(0.003 -3.67002e-20 6.29396e-20)
(0.003 1.44213e-20 4.83697e-20)
(0.003 8.08077e-21 -3.45356e-20)
(0.003 -3.21838e-20 -8.17587e-20)
(0.003 -2.28615e-20 -4.70143e-21)
(0.003 1.81154e-20 5.7189e-20)
(0.003 2.11657e-20 1.62147e-20)
(0.003 2.26234e-20 -6.89543e-20)
(0.003 8.67053e-21 -1.58286e-19)
(0.003 2.42023e-20 -1.92994e-19)
(0.003 4.11963e-20 -1.89914e-19)
(0.003 -3.44121e-20 2.19268e-19)
(0.003 -6.3672e-21 3.13858e-19)
(0.003 -3.04197e-20 2.76277e-19)
(0.003 -4.46434e-20 1.76297e-19)
(0.003 -4.06177e-21 2.01111e-19)
(0.003 -2.58979e-21 2.16729e-19)
(0.003 2.0258e-20 1.5638e-19)
(0.003 4.47805e-20 1.17016e-19)
(0.003 1.35159e-20 3.35754e-20)
(0.003 -5.15097e-20 -5.89174e-20)
(0.003 -6.70957e-20 5.06014e-20)
(0.003 -7.32225e-20 2.51213e-20)
(0.003 -1.0798e-20 2.32066e-20)
(0.003 -2.20926e-21 1.78893e-20)
(0.003 -3.80032e-20 1.69268e-20)
(0.003 -3.10108e-20 3.63808e-20)
(0.003 3.8539e-20 -5.24248e-20)
(0.003 4.75434e-20 -6.71718e-20)
(0.003 6.50108e-20 -6.43048e-20)
(0.003 9.82424e-20 -1.31308e-19)
(0.003 3.55199e-20 1.96813e-20)
(0.003 -6.60466e-20 1.72057e-19)
(0.003 -9.20153e-20 6.56421e-20)
(0.003 -7.1828e-20 2.84481e-20)
(0.003 4.30745e-20 4.4802e-20)
(0.003 9.66825e-21 7.79286e-20)
(0.003 2.71564e-20 1.49856e-20)
(0.003 2.2837e-20 -4.12351e-20)
(0.003 -1.23245e-20 9.70066e-21)
(0.003 1.47043e-20 6.05821e-20)
(0.003 -7.29449e-21 5.98397e-20)
(0.003 1.55773e-21 -3.33353e-20)
(0.003 1.81633e-21 -7.88026e-20)
(0.003 4.70198e-21 -4.62454e-20)
(0.003 7.95585e-21 1.96811e-20)
(0.003 -4.18351e-20 4.12792e-20)
(0.003 3.37344e-20 -3.24508e-20)
(0.003 4.74785e-20 -1.26499e-19)
(0.003 3.12407e-20 -1.63254e-19)
(0.003 4.65177e-20 -1.7862e-19)
(0.003 -2.75787e-20 2.19025e-19)
(0.003 -1.80181e-20 2.7005e-19)
(0.003 -4.05825e-20 2.23347e-19)
(0.003 -4.26691e-20 1.98018e-19)
(0.003 -4.9134e-20 1.78627e-19)
(0.003 -2.46048e-20 1.45622e-19)
(0.003 3.81928e-21 1.56922e-19)
(0.003 1.00357e-20 1.43494e-19)
(0.003 5.02847e-20 7.4482e-20)
(0.003 6.88964e-20 2.48856e-20)
(0.003 -7.24654e-20 9.12879e-20)
(0.003 -5.41733e-22 3.28557e-20)
(0.003 4.61308e-20 2.15902e-20)
(0.003 -6.96796e-20 6.97174e-21)
(0.003 1.54239e-20 -3.27094e-20)
(0.003 2.48155e-20 -6.04789e-21)
(0.003 -4.1776e-20 -4.99568e-20)
(0.003 -7.87973e-21 -5.95722e-20)
(0.003 8.48309e-20 1.2739e-20)
(0.003 7.59054e-20 4.88015e-21)
(0.003 2.2843e-20 7.88782e-20)
(0.003 -5.3849e-20 9.95782e-21)
(0.003 -1.47283e-19 -5.82155e-20)
(0.003 -4.3362e-20 9.8084e-21)
(0.003 4.71902e-20 4.60502e-20)
(0.003 -3.60237e-20 8.39979e-20)
(0.003 -4.18848e-20 1.11235e-20)
(0.003 -8.11338e-21 -1.57579e-20)
(0.003 2.21849e-20 3.5651e-20)
(0.003 5.10492e-20 5.19728e-20)
(0.003 3.58821e-20 7.40339e-20)
(0.003 9.98748e-21 -2.75211e-20)
(0.003 -4.37475e-20 -7.41556e-20)
(0.003 -2.79554e-20 7.7123e-21)
(0.003 -3.99781e-21 -1.51388e-20)
(0.003 5.67051e-20 -8.20484e-20)
(0.003 1.69604e-20 -3.07889e-20)
(0.003 7.30082e-21 -6.33611e-20)
(0.003 2.5536e-20 -1.65838e-19)
(0.003 7.66209e-21 -1.11177e-19)
(0.003 -5.29476e-20 2.62214e-19)
(0.003 -6.89206e-20 2.76299e-19)
(0.003 -4.08926e-20 2.23173e-19)
(0.003 -1.54405e-20 1.42947e-19)
(0.003 -2.09743e-20 1.35709e-19)
(0.003 1.25143e-20 1.68292e-19)
(0.003 2.07386e-21 1.68828e-19)
(0.003 -4.35559e-20 1.04746e-19)
(0.003 -1.1973e-20 3.82336e-20)
(0.003 4.15427e-20 8.59799e-20)
(0.003 7.27135e-21 6.94283e-20)
(0.003 -7.62206e-21 5.41337e-21)
(0.003 -3.39411e-20 1.28077e-20)
(0.003 -7.44095e-20 3.15819e-20)
(0.003 9.25371e-22 1.26704e-20)
(0.003 6.08536e-20 -8.93572e-21)
(0.003 -3.10634e-22 -2.86914e-20)
(0.003 4.81997e-20 -5.53997e-20)
(0.003 1.06313e-19 -1.69034e-20)
(0.003 5.61021e-20 3.22881e-20)
(0.003 -2.98373e-20 4.60073e-20)
(0.003 -7.16242e-20 4.2914e-20)
(0.003 2.09264e-21 -1.80884e-20)
(0.003 1.26183e-20 -3.27175e-21)
(0.003 -5.39132e-20 5.6062e-20)
(0.003 -1.60434e-20 7.82169e-20)
(0.003 1.74099e-20 -4.84816e-20)
(0.003 -3.20064e-20 -1.68422e-20)
(0.003 6.18379e-21 8.8238e-20)
(0.003 3.05825e-20 1.03977e-19)
(0.003 7.06498e-21 -2.28235e-21)
(0.003 -3.31939e-20 -9.82799e-20)
(0.003 -6.77822e-20 -5.05302e-20)
(0.003 -1.7612e-20 1.11533e-20)
(0.003 1.40813e-20 3.41699e-20)
(0.003 2.33531e-20 -4.14272e-20)
(0.003 -1.64555e-21 -5.77777e-20)
(0.003 2.23041e-20 -8.46431e-20)
(0.003 1.73088e-20 -2.27751e-19)
(0.003 -2.02988e-20 -1.42629e-19)
(0.003 -4.83117e-20 1.98762e-19)
(0.003 -8.48464e-20 2.30874e-19)
(0.003 -3.45815e-20 2.26598e-19)
(0.003 -1.81781e-20 1.82728e-19)
(0.003 -4.05154e-20 1.2207e-19)
(0.003 -8.85809e-21 1.27382e-19)
(0.003 1.09195e-20 1.42976e-19)
(0.003 -1.97244e-20 9.26554e-20)
(0.003 -4.20049e-20 1.0735e-19)
(0.003 -2.45563e-20 1.27696e-19)
(0.003 7.7802e-20 5.0206e-20)
(0.003 6.0624e-20 -2.87389e-20)
(0.003 -7.36835e-20 6.46587e-21)
(0.003 -7.79808e-21 -4.93224e-20)
(0.003 -1.64266e-20 -3.89798e-20)
(0.003 1.30451e-20 7.32403e-20)
(0.003 -1.75067e-20 2.30627e-20)
(0.003 2.9632e-20 -1.92133e-20)
(0.003 1.13656e-19 4.27963e-20)
(0.003 2.91344e-20 3.75606e-20)
(0.003 -3.32782e-20 2.39953e-21)
(0.003 -2.17107e-21 4.07813e-20)
(0.003 5.87276e-20 8.94883e-20)
(0.003 2.45836e-20 3.44127e-20)
(0.003 -4.04539e-20 2.89659e-20)
(0.003 -7.74168e-20 6.72661e-21)
(0.003 1.81193e-20 -2.29498e-20)
(0.003 -2.40356e-20 -3.8944e-20)
(0.003 -5.14085e-20 2.66447e-20)
(0.003 -2.09392e-20 6.27178e-20)
(0.003 -3.75935e-20 -4.45497e-21)
(0.003 -6.29676e-20 -8.54404e-20)
(0.003 -2.4267e-20 -6.92991e-20)
(0.003 -5.26817e-21 -1.88818e-20)
(0.003 1.75615e-20 6.89323e-20)
(0.003 -3.38546e-21 -2.00364e-20)
(0.003 3.01721e-20 -9.55314e-20)
(0.003 1.19327e-20 -6.45923e-20)
(0.003 6.24553e-21 -1.08955e-19)
(0.003 1.71872e-20 -2.22233e-20)
(0.003 -1.12921e-20 2.21151e-19)
(0.003 -3.02208e-20 2.18342e-19)
(0.003 -2.43593e-20 1.73826e-19)
(0.003 -4.78446e-20 1.40947e-19)
(0.003 -4.90569e-20 9.83988e-20)
(0.003 -3.21295e-20 1.0919e-19)
(0.003 -4.42646e-20 1.21792e-19)
(0.003 -2.51484e-20 7.14168e-20)
(0.003 -2.68731e-20 1.27358e-19)
(0.003 -1.84332e-21 1.22168e-19)
(0.003 4.75971e-20 8.40778e-20)
(0.003 8.92741e-20 2.38543e-20)
(0.003 6.03165e-20 1.90188e-20)
(0.003 7.61566e-20 4.80113e-20)
(0.003 -3.61576e-20 -1.75739e-20)
(0.003 -5.16166e-20 1.29259e-20)
(0.003 -1.71458e-20 -4.30483e-20)
(0.003 -2.92628e-20 -6.29487e-20)
(0.003 -2.92439e-20 6.36955e-20)
(0.003 -1.62042e-20 2.38177e-20)
(0.003 2.37505e-20 1.49161e-21)
(0.003 7.29503e-20 9.25414e-20)
(0.003 2.02376e-20 7.21168e-20)
(0.003 1.32752e-21 3.15909e-20)
(0.003 6.01266e-21 4.7402e-20)
(0.003 -3.19524e-20 2.99477e-20)
(0.003 7.1582e-21 1.38867e-20)
(0.003 1.3275e-20 3.43228e-20)
(0.003 1.30353e-20 -3.59871e-20)
(0.003 -2.02398e-20 -3.84226e-20)
(0.003 -7.24342e-20 2.4297e-20)
(0.003 1.68336e-21 -4.29448e-20)
(0.003 7.10108e-20 -1.07921e-19)
(0.003 8.36134e-22 -4.82702e-20)
(0.003 -4.2314e-20 4.56857e-20)
(0.003 1.50077e-20 -1.37781e-20)
(0.003 2.44069e-20 -4.45334e-20)
(0.003 -3.42205e-20 -7.82903e-20)
(0.003 4.72316e-21 -7.50845e-20)
(0.003 2.42169e-20 -1.64854e-20)
(0.003 3.6161e-20 2.16243e-19)
(0.003 3.95112e-21 2.01723e-19)
(0.003 -3.71772e-20 1.41747e-19)
(0.003 -7.75636e-20 1.16417e-19)
(0.003 -4.87008e-20 7.78395e-20)
(0.003 -3.47213e-21 8.88583e-20)
(0.003 -3.95555e-20 5.82209e-20)
(0.003 -6.06786e-20 2.42217e-20)
(0.003 -6.71371e-20 9.93939e-20)
(0.003 1.4251e-20 1.05373e-19)
(0.003 8.27682e-20 1.7596e-19)
(0.003 5.04685e-20 9.50021e-20)
(0.003 9.02758e-20 3.9666e-20)
(0.003 7.42942e-20 3.19654e-20)
(0.003 -3.60576e-20 5.65343e-20)
(0.003 -1.11818e-19 2.86869e-20)
(0.003 -3.70626e-20 -1.04057e-19)
(0.003 -2.29337e-20 -1.27018e-19)
(0.003 -9.94854e-20 -3.64957e-21)
(0.003 -3.44199e-20 3.09101e-20)
(0.003 5.44196e-20 2.9767e-20)
(0.003 1.05227e-19 6.87998e-20)
(0.003 6.20559e-21 9.99704e-20)
(0.003 -4.95137e-20 4.77849e-20)
(0.003 1.16385e-20 2.072e-20)
(0.003 3.33483e-20 4.65948e-20)
(0.003 -4.89853e-20 5.61825e-20)
(0.003 3.34027e-20 5.25836e-20)
(0.003 4.77286e-20 -3.83326e-20)
(0.003 -2.68368e-20 -5.04359e-20)
(0.003 -8.13547e-21 -4.03825e-20)
(0.003 -6.02975e-20 -8.03417e-20)
(0.003 4.80807e-20 -1.1851e-19)
(0.003 3.02659e-21 -4.46817e-20)
(0.003 -9.211e-20 -3.79414e-20)
(0.003 2.17803e-20 2.91562e-20)
(0.003 2.44737e-20 2.57671e-20)
(0.003 5.16698e-21 -8.49885e-20)
(0.003 -4.68442e-21 -7.07718e-20)
(0.003 -3.22156e-21 -2.01404e-20)
(0.003 -2.08911e-20 1.80777e-19)
(0.003 1.34021e-20 2.00292e-19)
(0.003 -2.6863e-21 1.47523e-19)
(0.003 -9.0604e-21 4.07444e-20)
(0.003 3.23429e-20 6.23877e-20)
(0.003 -1.22343e-20 6.60911e-20)
(0.003 -3.87072e-20 5.61985e-20)
(0.003 -1.18042e-20 5.15497e-20)
(0.003 1.09352e-20 5.98601e-20)
(0.003 1.38558e-20 7.18222e-20)
(0.003 1.55643e-20 9.43537e-20)
(0.003 -1.12484e-20 1.02849e-19)
(0.003 1.24071e-20 4.40494e-20)
(0.003 -4.85984e-20 1.83615e-20)
(0.003 -8.0836e-20 -1.59748e-20)
(0.003 -5.7905e-20 -7.57272e-22)
(0.003 -2.7657e-20 -1.92932e-20)
(0.003 -4.39662e-20 -1.15807e-19)
(0.003 -1.20605e-19 -1.10937e-19)
(0.003 -5.2466e-20 5.68451e-23)
(0.003 6.43742e-21 5.82564e-20)
(0.003 2.76079e-20 1.42005e-19)
(0.003 6.30046e-20 1.13843e-19)
(0.003 1.3706e-19 2.07024e-20)
(0.003 3.80162e-20 6.02155e-20)
(0.003 2.1756e-20 3.27748e-20)
(0.003 -8.23896e-20 -1.56253e-20)
(0.003 9.12643e-21 1.28465e-20)
(0.003 5.6694e-20 8.05095e-21)
(0.003 -7.35978e-21 -1.52903e-20)
(0.003 1.56894e-20 -3.91597e-20)
(0.003 4.31343e-20 -5.99694e-20)
(0.003 -5.68263e-21 -1.06204e-19)
(0.003 -3.96638e-20 -4.75798e-20)
(0.003 -6.83832e-20 -1.17642e-20)
(0.003 -1.86563e-20 -5.27337e-20)
(0.003 1.72931e-20 -3.35208e-20)
(0.003 -2.86081e-21 -5.37079e-20)
(0.003 1.99812e-21 -7.33724e-20)
(0.003 1.52768e-20 4.36254e-20)
(0.003 -4.1622e-20 1.50569e-19)
(0.003 -2.55469e-20 1.7085e-19)
(0.003 -8.90707e-22 1.1287e-19)
(0.003 1.96729e-20 1.76665e-20)
(0.003 2.40949e-20 6.04762e-20)
(0.003 1.28673e-20 1.13142e-19)
(0.003 1.86712e-20 7.00382e-20)
(0.003 1.13509e-20 2.63703e-20)
(0.003 2.75735e-20 3.91446e-20)
(0.003 -1.50475e-21 8.622e-20)
(0.003 -1.08685e-19 6.49223e-20)
(0.003 -3.45213e-20 1.01551e-19)