/*--------------------------------*- C++ -*----------------------------------*\
| =========                 |                                                 |
| \\      /  F ield         | OpenFOAM: The Open Source CFD Toolbox           |
|  \\    /   O peration     | Version:  v2012                                 |
|   \\  /    A nd           | Website:  www.openfoam.com                      |
|    \\/     M anipulation  |                                                 |
\*---------------------------------------------------------------------------*/
FoamFile
{
    version     2.0;
    format      ascii;
    class       volScalarField;
    location    "450/bottomWater";
    object      p_rgh;
}
// * * * * * * * * * * * * * * * * * * * * * * * * * * * * * * * * * * * * * //

dimensions      [1 -1 -2 0 0 0 0];


internalField   nonuniform List<scalar> 
1460
(
0.29279382
0.288431
0.29591806
0.27396843
0.29793431
0.28268088
0.31850598
0.30501623
0.29798055
0.3043406
0.30366191
0.30199848
0.29759297
0.29658361
0.29996774
0.31065564
0.31666768
0.31946994
0.31549187
0.3153274
0.33290748
0.32657557
0.34141392
0.32044424
0.32429996
0.33372737
0.31616015
0.3431528
0.33758201
0.3367083
-0.25768306
-0.25725945
-0.23816548
-0.23747015
-0.24307946
-0.24719074
-0.18836926
-0.21635946
-0.27527208
-0.27182765
-0.27378708
-0.27722888
-0.25534845
-0.24647562
-0.24405646
-0.23143299
-0.24258134
-0.27738964
-0.28163113
-0.2665352
-0.23367437
-0.20324902
-0.22424498
-0.30070048
-0.29211211
-0.29820613
-0.28354236
-0.24717518
-0.24793801
-0.29463167
0.14845245
0.11140475
0.090942196
0.1252446
0.12394754
0.08214771
0.033158015
0.043453221
0.065948583
0.10928898
0.12346408
0.099358662
0.086016595
0.09086644
0.1020319
0.10013917
0.067501681
0.11803036
0.080065904
0.10943457
0.060033399
0.049446434
0.036165211
0.047668022
0.090195884
0.085430941
0.091274897
0.061410632
0.043457682
0.090034362
-0.049957635
-0.096113803
-0.083019533
-0.067232753
-0.014436272
-0.044645871
-0.05101852
-0.05739602
-0.062453062
-0.029529615
-0.04787651
-0.078179895
-0.097335213
-0.093379489
-0.087931045
-0.063790289
-0.047081322
-0.059882994
-0.032747799
-0.058498046
-0.027599311
-0.054937584
-0.062778979
-0.059525206
-0.028039102
-0.006076445
-0.067973443
-0.052910439
-0.1030531
-0.064216963
0.040900082
0.029663539
0.016221566
-0.0008053354
0.0015060573
-0.011258247
0.00090293326
0.016484025
0.028219595
0.028398253
0.028079321
0.014420048
0.018843766
0.030763954
-0.0036477655
-0.0099796108
0.0033152993
0.0088366251
-0.0036133977
-0.0094560488
-0.0098641168
-0.0014175394
0.011537075
0.009072046
0.0097764564
0.011957047
-0.011563499
-0.012409215
0.0050636605
0.0058116046
0.29939185
0.29844022
0.30582564
0.27919426
0.29605042
0.29298378
0.31662343
0.30144208
0.30383815
0.31351817
0.30196311
0.30564046
0.31547838
0.30581562
0.30787923
0.31118492
0.31450217
0.31721007
0.31268572
0.31051819
0.32564932
0.33768742
0.33427426
0.33063805
0.33130894
0.3297743
0.31648646
0.34914498
0.33850623
0.34159609
-0.26624921
-0.25318113
-0.23157519
-0.2489738
-0.25531119
-0.2133598
-0.19769304
-0.26789574
-0.27559155
-0.2756602
-0.28346628
-0.26505936
-0.20526505
-0.23139344
-0.26202819
-0.28040373
-0.29094623
-0.29767296
-0.28184477
-0.27149327
-0.23229376
-0.22931458
-0.29887492
-0.31244776
-0.30363763
-0.29611413
-0.29032276
-0.25453247
-0.28923967
-0.30678678
0.10967762
0.086429663
0.064412525
0.10784807
0.11273564
0.038637734
0.042643059
0.059059062
0.089390068
0.12628807
0.070053684
0.059299288
0.034158159
0.04204394
0.08898022
0.090821141
0.12038535
0.12516717
0.088112332
0.073552073
0.061695806
0.028638124
0.051920933
0.0787358
0.1232274
0.064110194
0.08834856
0.051624353
0.071914331
0.10117373
-0.040757361
-0.10904548
-0.081931559
-0.069060884
-0.045300034
-0.089100539
-0.060623651
-0.094535577
-0.039196809
-0.03678524
-0.064058339
-0.095319115
-0.072346946
-0.087889435
-0.055397938
-0.048139884
-0.050804796
-0.035881514
-0.080709306
-0.090667792
-0.068804183
-0.069596758
-0.089958684
-0.036483342
-0.040089822
-0.057608601
-0.090636167
-0.08494483
-0.11911504
-0.041014313
0.037372714
0.037604435
0.016498293
-0.0026167361
-0.0077958675
-0.00070163128
0.018521706
0.025898414
0.032884062
0.041859998
0.024539526
0.015203679
0.011788612
0.001602037
-0.012357561
0.010260694
0.012579334
0.025980218
0.025137778
0.011835761
-0.014777433
0.015600877
0.021907264
0.022480466
0.02919716
0.021898882
-0.002223287
0.0059337018
0.027501682
0.03113204
0.30364619
0.30622351
0.31145685
0.29729516
0.31165945
0.30416906
0.30400545
0.30279451
0.3077546
0.30715619
0.29868291
0.30928852
0.315764
0.30162512
0.31426672
0.31019523
0.31365145
0.31913347
0.30709525
0.32449439
0.33894617
0.33828735
0.33425755
0.336364
0.32436868
0.32936391
0.32828108
0.34788262
0.33354905
0.3376363
-0.25969824
-0.21304835
-0.17170035
-0.20417687
-0.20368718
-0.21922122
-0.25133296
-0.27440347
-0.27839649
-0.28236847
-0.27081114
-0.20736702
-0.17301983
-0.22083084
-0.22124678
-0.26653519
-0.28694718
-0.28706199
-0.27325157
-0.23258405
-0.22690183
-0.28559611
-0.30984911
-0.30250425
-0.29621961
-0.27471418
-0.24092763
-0.23690279
-0.28591282
-0.30127634
0.084130121
0.046722236
0.047988083
0.064249164
0.058346148
0.049100692
0.043207486
0.075504717
0.1011653
0.067412558
0.060423501
0.038805995
0.036117978
0.073565651
0.074866162
0.051745793
0.092356453
0.097663532
0.067647139
0.034621208
0.066213875
0.062735008
0.083274564
0.1165883
0.069452925
0.043131216
0.057467195
0.062964231
0.054690977
0.097730789
-0.05473153
-0.094028339
-0.080395434
-0.059302785
-0.027440551
-0.0605849
-0.085891442
-0.047552596
-0.03521419
-0.056502478
-0.090230924
-0.080293582
-0.080514192
-0.061893034
-0.038795839
-0.093161216
-0.049047575
-0.042594723
-0.084647309
-0.082113613
-0.061722093
-0.081485306
-0.058653231
-0.030777495
-0.070713035
-0.07128137
-0.055019721
-0.038506166
-0.11528119
-0.039004825
0.0076629015
0.0068169712
0.0041320024
-0.021663145
-0.01157532
-0.013144366
0.011228355
0.013717414
0.032792528
0.0212683
0.014005285
0.0076244021
0.0025112173
-0.012087058
-0.005786695
0.0080946737
0.016053141
0.027312318
0.033116747
0.020059088
0.005946881
0.008437655
0.022392045
0.036521319
0.019361165
0.013224128
-0.00070504254
-0.0022644416
0.013792997
0.020705343
0.29165364
0.29967457
0.30890359
0.29449024
0.28800534
0.28509586
0.29286231
0.2937079
0.29141996
0.30742637
0.29694505
0.29685957
0.30212541
0.30892526
0.31418764
0.32072986
0.3120501
0.31886258
0.31943871
0.31123299
0.32579615
0.33030974
0.3339888
0.329079
0.31826619
0.33972705
0.3327505
0.34296283
0.33769746
0.3381432
-0.22615227
-0.20916972
-0.17894467
-0.21625872
-0.24410995
-0.24212897
-0.25629092
-0.26477978
-0.25512046
-0.21806766
-0.21837274
-0.22179147
-0.19295339
-0.19138549
-0.19523191
-0.22328954
-0.28492626
-0.28514097
-0.28024607
-0.27480937
-0.23039046
-0.23712167
-0.28805109
-0.28547517
-0.27848715
-0.22060465
-0.20897026
-0.22078488
-0.26085192
-0.28734984
0.071192225
0.063039251
0.04936953
0.059344112
0.099100503
0.07819116
0.087851473
0.080982347
0.065282133
0.040642425
0.082385479
0.078176597
0.073020788
0.070119299
0.077358968
0.053591346
0.080502788
0.11239801
0.095587811
0.074529072
0.058741667
0.05927033
0.11336624
0.078993241
0.061757612
0.01982011
0.07079314
0.065696327
0.046156576
0.084291327
-0.068935377
-0.059564858
-0.057513958
-0.04754237
-0.047432416
-0.067585864
-0.059556421
-0.042180172
-0.087408647
-0.069118964
-0.067463478
-0.055259045
-0.042358711
-0.029363405
-0.051378061
-0.070577284
-0.081641451
-0.045662623
-0.049121589
-0.092421555
-0.068064529
-0.058399691
-0.054618764
-0.049947061
-0.076953231
-0.062582958
-0.042077838
-0.04303781
-0.087268134
-0.067516368
0.0022331945
-0.016420779
-0.0034749824
-0.01385545
-0.018955649
-0.012848785
-0.0024581402
0.007971168
0.017763817
0.010377623
-0.0082580696
-0.019997981
-0.019019439
-0.0030944546
-0.0062446687
0.012014284
0.019434983
0.031795491
0.020288391
0.0047073123
-0.013008596
-0.020401817
-0.010463121
-0.0056340311
0.0047876166
0.00083054897
-0.011661377
-0.0099357091
-0.0084462761
-0.00066511339
0.27247838
0.26449363
0.269346
0.27892609
0.28805513
0.2900413
0.29269518
0.28859335
0.29251363
0.29678967
0.30032725
0.29056074
0.29510022
0.30744998
0.30178411
0.3249659
0.31971263
0.32701109
0.33115954
0.32957092
0.33088934
0.33330067
0.3277219
0.334238
0.32490028
0.32998274
-0.25318339
-0.24704407
-0.24824453
-0.2388521
-0.25237592
-0.24764042
-0.26221932
-0.25678068
-0.24646995
-0.19865921
-0.20898823
-0.23523602
-0.20435184
-0.27644997
-0.27354589
-0.22318984
-0.21693324
-0.25193711
-0.27378468
-0.30356026
-0.24475268
-0.22262457
-0.22165799
-0.2409582
-0.28169542
-0.29525558
0.097835759
0.087258486
0.085550616
0.091218904
0.080240796
0.072862035
0.082918077
0.075664868
0.056831653
0.053452217
0.057419899
0.076926946
0.072297875
0.095140485
0.079883219
0.063842535
0.066706833
0.041825745
0.088804865
0.064079288
0.049942339
0.062619015
0.074050128
0.06110083
0.0520064
0.090632656
-0.051582602
-0.073101461
-0.088299075
-0.091697578
-0.042639845
-0.072699547
-0.038338176
-0.04808001
-0.0510363
-0.048321108
-0.049141964
-0.052837182
-0.030325648
-0.034324437
-0.055687419
-0.047653638
-0.075914281
-0.083296237
-0.11306245
-0.041772983
-0.11901491
-0.041888153
-0.066559126
-0.072985498
-0.10928028
-0.053019964
0.0001713822
-0.0014277082
0.022743083
0.019714495
-0.0097676125
0.012544734
-0.00392746
-0.00071038561
-0.0085553045
-0.013478085
-0.011033078
-0.011542437
-0.016430917
0.012734579
0.0047533617
-0.010048236
-0.012401977
0.00049481957
0.028226893
0.02571562
0.018257313
0.0051338229
0.0012709703
-0.0018434012
0.016060678
0.017768657
0.28389142
0.28533984
0.28444606
0.28871552
0.28318224
0.30630168
0.29694316
0.29304048
0.29147382
0.29083199
0.27883425
0.28639525
0.28047369
0.29994053
0.28441783
0.3121583
0.31329608
0.31550059
0.32358835
0.32343829
0.32657483
0.331018
0.32968405
0.3205419
0.32110116
0.32633532
-0.25406292
-0.26138122
-0.26600052
-0.26291074
-0.24503286
-0.21348517
-0.24081068
-0.26863611
-0.25781321
-0.24192923
-0.2402116
-0.25566857
-0.24375767
-0.26562187
-0.2717301
-0.23555006
-0.24435223
-0.28659194
-0.29737225
-0.30356817
-0.27652155
-0.22739572
-0.22276346
-0.27472267
-0.30095011
-0.28813854
0.11902228
0.10015636
0.094908101
0.069642134
0.065043861
0.030821494
0.060980296
0.068896063
0.11084296
0.038662532
0.07281765
0.072864571
0.089575527
0.10539827
0.0817136
0.038271967
0.052104816
0.068713129
0.11280232
0.073382643
0.058125349
0.065728286
0.029694259
0.064089281
0.066499218
0.14105835
-0.04326731
-0.034667244
-0.041666049
-0.028479199
-0.061600051
-0.0559868
-0.074080616
-0.038063701
-0.051253794
-0.078810078
-0.097916264
-0.078720327
-0.079117721
-0.039556324
-0.06240753
-0.062399764
-0.071222947
-0.067155457
-0.037054426
-0.049584201
-0.073314036
-0.058847356
-0.095073379
-0.095637861
-0.064525588
-0.040765443
0.019325051
0.016723602
0.014325854
-0.0045349395
-0.0023433938
0.015174999
0.020523355
0.01039652
0.0032979678
0.0062846187
0.018653443
-0.0063128243
-0.012027056
0.0046134965
0.0062694799
0.0054208128
0.015114159
0.017242755
0.030324192
0.01414099
0.0049403306
-0.00098079723
0.012397956
0.021495635
0.020004971
0.034721164
0.28081237
0.28158468
0.28204235
0.28574379
0.29065576
0.29750666
0.29444105
0.28255942
0.29096812
0.28732861
0.29302064
0.29378708
0.29502276
0.31033162
0.27881413
0.31744961
0.28890106
0.30656155
0.2962555
0.29809313
0.30255645
0.31223977
0.31908205
0.32459835
0.32843493
0.3227997
0.31738555
0.31999711
0.32208109
0.32098068
-0.25128419
-0.25696501
-0.24061137
-0.23413418
-0.20352742
-0.16573822
-0.21834661
-0.26506202
-0.26595929
-0.27045741
-0.26820737
-0.27182694
-0.24307992
-0.21584413
-0.23487422
-0.19705196
-0.26567066
-0.27915622
-0.27684166
-0.26096921
-0.28443001
-0.29139163
-0.30014551
-0.26777677
-0.24155845
-0.24398941
-0.2632144
-0.28079227
-0.30281034
-0.29785144
0.10914802
0.098218784
0.074157276
0.079175601
0.05280914
0.040163215
0.037964529
0.055321538
0.090498179
0.092312959
0.10620764
0.096861114
0.098461838
0.068776799
0.10520229
0.036119631
0.056978221
0.085409218
0.11317723
0.092828487
0.1038918
0.10021098
0.078656402
0.054478439
0.061542694
0.059602192
0.056694294
0.091839482
0.10070845
0.1362432
-0.034686306
-0.050218497
-0.062733801
-0.04671449
-0.055773098
-0.066874143
-0.067138689
-0.06366325
-0.039122593
-0.045218377
-0.037488613
-0.039839927
-0.067868001
-0.03448629
-0.072434639
-0.072275384
-0.088283337
-0.061165903
-0.057107843
-0.093595091
-0.054878762
-0.044993094
-0.059853775
-0.089611963
-0.047875811
-0.059717875
-0.085823108
-0.077226925
-0.052764102
-0.039527867
0.006983153
0.0089425389
0.012915325
-0.013052165
-0.015509686
0.0010361052
0.012054422
0.011443767
0.012290467
0.014632669
0.018998597
0.011297586
-0.0019384326
-0.014041792
-0.020022712
0.0034512843
0.013034002
0.0081408482
0.021011013
0.031860585
0.0035959767
-0.0021709401
0.00491845
0.012476404
-0.0035082407
-0.02117253
-0.0030304758
0.016048682
0.021543139
0.02969516
0.27653889
0.28226706
0.27535196
0.29221037
0.29118757
0.29380121
0.28047263
0.28789217
0.28638336
0.28478001
0.28672467
0.28832697
0.28474444
0.28872014
0.30183973
0.31766412
0.29695671
0.30778988
0.30209488
0.3023292
0.29808439
0.30415259
0.31563567
0.32595177
0.31680359
0.32293496
0.31459774
0.3324242
0.32823257
0.31972343
-0.23577021
-0.22339355
-0.23278974
-0.20127301
-0.18852992
-0.2174611
-0.24793653
-0.25737957
-0.23507365
-0.25158473
-0.25849421
-0.26577084
-0.26683692
-0.26101544
-0.19820357
-0.20508147
-0.28129353
-0.28595661
-0.27632725
-0.27627395
-0.27480401
-0.26600423
-0.2402347
-0.2351608
-0.27597081
-0.27937524
-0.27944386
-0.23410834
-0.24590117
-0.27368305
0.073475118
0.046829491
0.071914477
0.046776471
0.061812644
0.04042046
0.05805728
0.077879413
0.10963916
0.079336266
0.10556642
0.11320504
0.074293671
0.068719208
0.037380078
0.033705829
0.056026817
0.091737475
0.11960033
0.087856419
0.082899234
0.04708801
0.060930427
0.039633217
0.0823969
0.095552907
0.079891889
0.06459883
0.076567673
0.11534064
-0.060110226
-0.064361618
-0.058680265
-0.033071308
-0.042123986
-0.060188607
-0.089607444
-0.046728125
-0.059173681
-0.057022478
-0.052952283
-0.035933826
-0.02254174
-0.06202688
-0.079834279
-0.071562166
-0.095843566
-0.043529637
-0.040345827
-0.048154369
-0.062147164
-0.075674143
-0.048474712
-0.050193143
-0.045757797
-0.026855086
-0.068704521
-0.058121115
-0.057954802
-0.04154117
-0.00057928731
0.0011344856
-0.016182589
-0.021519261
-0.013882626
-0.0074907994
0.015982666
0.016082027
0.016313119
0.019499424
0.020121109
0.0173355
-0.0023846004
-0.015643552
0.0036130269
0.019238799
0.021104076
0.026148073
0.031894578
0.019510221
0.014113514
0.011180926
-0.0079881505
0.0027599285
0.00083304611
-0.010454261
-0.016752204
-0.017580041
-0.022906842
-0.012290907
0.28262148
0.28186075
0.29554591
0.28335363
0.29107751
0.2824768
0.28833856
0.28787099
0.29186496
0.28175025
0.30185259
0.3016395
0.2905076
0.2891021
0.28529974
0.28254606
0.28804234
0.29384205
0.28966886
0.29785656
0.29095166
0.32285762
0.33192098
0.3237677
0.32574865
0.32246075
0.32172787
0.3160555
0.3274031
0.30781098
-0.24824565
-0.22874195
-0.19368455
-0.20443418
-0.23375961
-0.24611813
-0.25841157
-0.2639618
-0.25331431
-0.24557058
-0.21050197
-0.20949484
-0.25243582
-0.25295929
-0.24145463
-0.25362886
-0.27164275
-0.27497646
-0.27261923
-0.2717748
-0.27231478
-0.21606167
-0.18444125
-0.25229422
-0.28069861
-0.29337114
-0.29329712
-0.28207387
-0.24784871
-0.26378015
0.080719875
0.05021156
0.029496408
0.058343227
0.070796642
0.062337768
0.082712522
0.10277524
0.087157692
0.070358489
0.042211934
0.038685988
0.097289798
0.082180692
0.097576652
0.07823713
0.099151713
0.10496416
0.097130308
0.068572912
0.052087123
0.027147447
0.027463854
0.063748651
0.086977953
0.092318139
0.086093043
0.07313136
0.039615253
0.095662102
-0.053782359
-0.074129098
-0.068376016
-0.067815572
-0.053647982
-0.06266704
-0.055966271
-0.036863442
-0.042940217
-0.052818546
-0.054194001
-0.065243547
-0.048949378
-0.059020322
-0.093751767
-0.075283535
-0.058109057
-0.050012137
-0.054779818
-0.053821675
-0.070811251
-0.06982837
-0.067373404
-0.057297183
-0.046738303
-0.020867807
-0.038111067
-0.094100385
-0.074864471
-0.054800726
0.010784359
0.018662897
0.0060368573
-0.010230524
-0.019692058
0.0049688672
0.0053107256
0.018993209
0.011923096
0.0066568844
-0.0027351641
0.0026581605
-0.013607473
-0.013495151
0.015256901
0.009559838
-0.0012895613
0.011880448
0.011184283
0.0072763383
0.0087518373
0.0068615375
-0.0022534405
-0.027063595
-0.011086429
0.0022403003
0.0084506446
0.014870195
0.01644489
0.0036184693
0.2824509
0.28232971
0.28165918
0.29847406
0.28597203
0.28839048
0.28929249
0.28665756
0.2968936
0.27653639
0.2907937
0.28137698
0.28842788
0.29489282
0.2914708
0.29162248
0.29069421
0.28451128
0.29586318
0.30819687
0.30567661
0.30407867
0.3128078
0.32092213
0.32438507
0.31770997
0.31390848
0.31375356
0.31221993
0.31311489
-0.25056466
-0.24982151
-0.22355145
-0.19969024
-0.23221495
-0.25515458
-0.24562004
-0.21402798
-0.20287097
-0.2447356
-0.25450652
-0.23763337
-0.23412992
-0.21509476
-0.24034991
-0.26254997
-0.25633401
-0.24708007
-0.22915572
-0.20066774
-0.27583389
-0.23680295
-0.22415185
-0.20744587
-0.23010179
-0.27109072
-0.28709961
-0.28484436
-0.26178941
-0.2633171
0.11240625
0.072223151
0.06451149
0.029838496
0.062743163
0.054424726
0.11008289
0.046296891
0.059867355
0.079595776
0.095505113
0.10823541
0.06581587
0.056825127
0.079564184
0.085514166
0.10078866
0.089487863
0.064084389
0.051721473
0.078047624
0.057120785
0.051467595
0.060268796
0.067637276
0.071707501
0.10090939
0.10871881
0.09280409
0.10354693
-0.037383263
-0.055150268
-0.066292313
-0.058229199
-0.092033402
-0.02228307
-0.046519784
-0.03991417
-0.062002551
-0.054560081
-0.016969674
-0.035532446
-0.047920752
-0.07116002
-0.105877
-0.042125703
-0.046865657
-0.060886059
-0.039213814
-0.05775947
-0.024547116
-0.088278975
-0.051463469
-0.036877176
-0.045594075
-0.077415651
-0.04108694
-0.051798116
-0.099014903
-0.087005004
0.025335327
0.017940838
0.021729937
0.021302945
0.0026195616
0.020043537
-0.0010036444
0.011724935
0.022753261
0.0012297096
-0.0037018975
-0.0061172893
-0.01578595
-0.015274226
0.012889424
0.018495528
0.013460722
0.0058414969
-0.00059595139
0.0057280211
0.0021073844
0.0018831063
-0.015927402
-0.013889858
-0.0030542974
0.014602205
0.018161625
0.018546785
0.028742344
0.04535177
)
;

boundaryField
{
    minX
    {
        type            fixedFluxPressure;
        gradient        uniform 0;
        value           nonuniform List<scalar> 
50
(
0.29279382
-0.25768306
0.14845245
-0.049957635
0.040900082
0.29939185
-0.26624921
0.10967762
-0.040757361
0.037372714
0.30364619
-0.25969824
0.084130121
-0.05473153
0.0076629015
0.29165364
-0.22615227
0.071192225
-0.068935377
0.0022331945
0.27247838
-0.25318339
0.097835759
-0.051582602
0.0001713822
0.28389142
-0.25406292
0.11902228
-0.04326731
0.019325051
0.28081237
-0.25128419
0.10914802
-0.034686306
0.006983153
0.27653889
-0.23577021
0.073475118
-0.060110226
-0.00057928731
0.28262148
-0.24824565
0.080719875
-0.053782359
0.010784359
0.2824509
-0.25056466
0.11240625
-0.037383263
0.025335327
)
;
    }
    maxX
    {
        type            fixedFluxPressure;
        gradient        uniform 0;
        value           nonuniform List<scalar> 
50
(
0.3367083
-0.29463167
0.090034362
-0.064216963
0.0058116046
0.34159609
-0.30678678
0.10117373
-0.041014313
0.03113204
0.3376363
-0.30127634
0.097730789
-0.039004825
0.020705343
0.3381432
-0.28734984
0.084291327
-0.067516368
-0.00066511339
0.32998274
-0.29525558
0.090632656
-0.053019964
0.017768657
0.32633532
-0.28813854
0.14105835
-0.040765443
0.034721164
0.32098068
-0.29785144
0.1362432
-0.039527867
0.02969516
0.31972343
-0.27368305
0.11534064
-0.04154117
-0.012290907
0.30781098
-0.26378015
0.095662102
-0.054800726
0.0036184693
0.31311489
-0.2633171
0.10354693
-0.087005004
0.04535177
)
;
    }
    minY
    {
        type            fixedValue;
        value           uniform 0;
    }
    minZ
    {
        type            fixedFluxPressure;
        gradient        uniform 0;
        value           nonuniform List<scalar> 
150
(
0.29279382
-0.25768306
0.14845245
-0.049957635
0.040900082
0.288431
-0.25725945
0.11140475
-0.096113803
0.029663539
0.29591806
-0.23816548
0.090942196
-0.083019533
0.016221566
0.27396843
-0.23747015
0.1252446
-0.067232753
-0.0008053354
0.29793431
-0.24307946
0.12394754
-0.014436272
0.0015060573
0.28268088
-0.24719074
0.08214771
-0.044645871
-0.011258247
0.31850598
-0.18836926
0.033158015
-0.05101852
0.00090293326
0.30501623
-0.21635946
0.043453221
-0.05739602
0.016484025
0.29798055
-0.27527208
0.065948583
-0.062453062
0.028219595
0.3043406
-0.27182765
0.10928898
-0.029529615
0.028398253
0.30366191
-0.27378708
0.12346408
-0.04787651
0.028079321
0.30199848
-0.27722888
0.099358662
-0.078179895
0.014420048
0.29759297
-0.25534845
0.086016595
-0.097335213
0.018843766
0.29658361
-0.24647562
0.09086644
-0.093379489
0.030763954
0.29996774
-0.24405646
0.1020319
-0.087931045
-0.0036477655
0.31065564
-0.23143299
0.10013917
-0.063790289
-0.0099796108
0.31666768
-0.24258134
0.067501681
-0.047081322
0.0033152993
0.31946994
-0.27738964
0.11803036
-0.059882994
0.0088366251
0.31549187
-0.28163113
0.080065904
-0.032747799
-0.0036133977
0.3153274
-0.2665352
0.10943457
-0.058498046
-0.0094560488
0.33290748
-0.23367437
0.060033399
-0.027599311
-0.0098641168
0.32657557
-0.20324902
0.049446434
-0.054937584
-0.0014175394
0.34141392
-0.22424498
0.036165211
-0.062778979
0.011537075
0.32044424
-0.30070048
0.047668022
-0.059525206
0.009072046
0.32429996
-0.29211211
0.090195884
-0.028039102
0.0097764564
0.33372737
-0.29820613
0.085430941
-0.006076445
0.011957047
0.31616015
-0.28354236
0.091274897
-0.067973443
-0.011563499
0.3431528
-0.24717518
0.061410632
-0.052910439
-0.012409215
0.33758201
-0.24793801
0.043457682
-0.1030531
0.0050636605
0.3367083
-0.29463167
0.090034362
-0.064216963
0.0058116046
)
;
    }
    maxZ
    {
        type            fixedFluxPressure;
        gradient        uniform 0;
        value           nonuniform List<scalar> 
150
(
0.2824509
-0.25056466
0.11240625
-0.037383263
0.025335327
0.28232971
-0.24982151
0.072223151
-0.055150268
0.017940838
0.28165918
-0.22355145
0.06451149
-0.066292313
0.021729937
0.29847406
-0.19969024
0.029838496
-0.058229199
0.021302945
0.28597203
-0.23221495
0.062743163
-0.092033402
0.0026195616
0.28839048
-0.25515458
0.054424726
-0.02228307
0.020043537
0.28929249
-0.24562004
0.11008289
-0.046519784
-0.0010036444
0.28665756
-0.21402798
0.046296891
-0.03991417
0.011724935
0.2968936
-0.20287097
0.059867355
-0.062002551
0.022753261
0.27653639
-0.2447356
0.079595776
-0.054560081
0.0012297096
0.2907937
-0.25450652
0.095505113
-0.016969674
-0.0037018975
0.28137698
-0.23763337
0.10823541
-0.035532446
-0.0061172893
0.28842788
-0.23412992
0.06581587
-0.047920752
-0.01578595
0.29489282
-0.21509476
0.056825127
-0.07116002
-0.015274226
0.2914708
-0.24034991
0.079564184
-0.105877
0.012889424
0.29162248
-0.26254997
0.085514166
-0.042125703
0.018495528
0.29069421
-0.25633401
0.10078866
-0.046865657
0.013460722
0.28451128
-0.24708007
0.089487863
-0.060886059
0.0058414969
0.29586318
-0.22915572
0.064084389
-0.039213814
-0.00059595139
0.30819687
-0.20066774
0.051721473
-0.05775947
0.0057280211
0.30567661
-0.27583389
0.078047624
-0.024547116
0.0021073844
0.30407867
-0.23680295
0.057120785
-0.088278975
0.0018831063
0.3128078
-0.22415185
0.051467595
-0.051463469
-0.015927402
0.32092213
-0.20744587
0.060268796
-0.036877176
-0.013889858
0.32438507
-0.23010179
0.067637276
-0.045594075
-0.0030542974
0.31770997
-0.27109072
0.071707501
-0.077415651
0.014602205
0.31390848
-0.28709961
0.10090939
-0.04108694
0.018161625
0.31375356
-0.28484436
0.10871881
-0.051798116
0.018546785
0.31221993
-0.26178941
0.09280409
-0.099014903
0.028742344
0.31311489
-0.2633171
0.10354693
-0.087005004
0.04535177
)
;
    }
    bottomWater_to_rightSolid
    {
        type            fixedFluxPressure;
        gradient        uniform 0;
        value           nonuniform List<scalar> 
130
(
0.0088366251
-0.0036133977
-0.0094560488
-0.0098641168
-0.0014175394
0.011537075
0.009072046
0.0097764564
0.011957047
-0.011563499
-0.012409215
0.0050636605
0.0058116046
0.025980218
0.025137778
0.011835761
-0.014777433
0.015600877
0.021907264
0.022480466
0.02919716
0.021898882
-0.002223287
0.0059337018
0.027501682
0.03113204
0.027312318
0.033116747
0.020059088
0.005946881
0.008437655
0.022392045
0.036521319
0.019361165
0.013224128
-0.00070504254
-0.0022644416
0.013792997
0.020705343
0.031795491
0.020288391
0.0047073123
-0.013008596
-0.020401817
-0.010463121
-0.0056340311
0.0047876166
0.00083054897
-0.011661377
-0.0099357091
-0.0084462761
-0.00066511339
0.012734579
0.0047533617
-0.010048236
-0.012401977
0.00049481957
0.028226893
0.02571562
0.018257313
0.0051338229
0.0012709703
-0.0018434012
0.016060678
0.017768657
0.0046134965
0.0062694799
0.0054208128
0.015114159
0.017242755
0.030324192
0.01414099
0.0049403306
-0.00098079723
0.012397956
0.021495635
0.020004971
0.034721164
0.0081408482
0.021011013
0.031860585
0.0035959767
-0.0021709401
0.00491845
0.012476404
-0.0035082407
-0.02117253
-0.0030304758
0.016048682
0.021543139
0.02969516
0.026148073
0.031894578
0.019510221
0.014113514
0.011180926
-0.0079881505
0.0027599285
0.00083304611
-0.010454261
-0.016752204
-0.017580041
-0.022906842
-0.012290907
0.011880448
0.011184283
0.0072763383
0.0087518373
0.0068615375
-0.0022534405
-0.027063595
-0.011086429
0.0022403003
0.0084506446
0.014870195
0.01644489
0.0036184693
0.0058414969
-0.00059595139
0.0057280211
0.0021073844
0.0018831063
-0.015927402
-0.013889858
-0.0030542974
0.014602205
0.018161625
0.018546785
0.028742344
0.04535177
)
;
    }
    bottomWater_to_leftSolid
    {
        type            fixedFluxPressure;
        gradient        uniform 0;
        value           nonuniform List<scalar> 
130
(
0.040900082
0.029663539
0.016221566
-0.0008053354
0.0015060573
-0.011258247
0.00090293326
0.016484025
0.028219595
0.028398253
0.028079321
0.014420048
0.018843766
0.037372714
0.037604435
0.016498293
-0.0026167361
-0.0077958675
-0.00070163128
0.018521706
0.025898414
0.032884062
0.041859998
0.024539526
0.015203679
0.011788612
0.0076629015
0.0068169712
0.0041320024
-0.021663145
-0.01157532
-0.013144366
0.011228355
0.013717414
0.032792528
0.0212683
0.014005285
0.0076244021
0.0025112173
0.0022331945
-0.016420779
-0.0034749824
-0.01385545
-0.018955649
-0.012848785
-0.0024581402
0.007971168
0.017763817
0.010377623
-0.0082580696
-0.019997981
-0.019019439
0.0001713822
-0.0014277082
0.022743083
0.019714495
-0.0097676125
0.012544734
-0.00392746
-0.00071038561
-0.0085553045
-0.013478085
-0.011033078
-0.011542437
-0.016430917
0.019325051
0.016723602
0.014325854
-0.0045349395
-0.0023433938
0.015174999
0.020523355
0.01039652
0.0032979678
0.0062846187
0.018653443
-0.0063128243
-0.012027056
0.006983153
0.0089425389
0.012915325
-0.013052165
-0.015509686
0.0010361052
0.012054422
0.011443767
0.012290467
0.014632669
0.018998597
0.011297586
-0.0019384326
-0.00057928731
0.0011344856
-0.016182589
-0.021519261
-0.013882626
-0.0074907994
0.015982666
0.016082027
0.016313119
0.019499424
0.020121109
0.0173355
-0.0023846004
0.010784359
0.018662897
0.0060368573
-0.010230524
-0.019692058
0.0049688672
0.0053107256
0.018993209
0.011923096
0.0066568844
-0.0027351641
0.0026581605
-0.013607473
0.025335327
0.017940838
0.021729937
0.021302945
0.0026195616
0.020043537
-0.0010036444
0.011724935
0.022753261
0.0012297096
-0.0037018975
-0.0061172893
-0.01578595
)
;
    }
    bottomWater_to_heater
    {
        type            fixedFluxPressure;
        gradient        uniform 0;
        value           nonuniform List<scalar> 
92
(
0.030763954
-0.0036477655
-0.0099796108
0.0033152993
0.001602037
-0.012357561
0.010260694
0.012579334
-0.012087058
-0.005786695
0.0080946737
0.016053141
0.30892526
0.31418764
0.32072986
0.3120501
-0.19138549
-0.19523191
-0.22328954
-0.28492626
0.070119299
0.077358968
0.053591346
0.080502788
-0.029363405
-0.051378061
-0.070577284
-0.081641451
-0.0030944546
-0.0030944546
-0.0062446687
-0.0062446687
0.012014284
0.012014284
0.019434983
0.019434983
0.29510022
0.30744998
-0.20435184
-0.27644997
0.072297875
0.095140485
-0.030325648
-0.034324437
-0.016430917
0.012734579
0.28047369
0.31033162
0.27881413
0.31744961
0.29994053
0.28890106
-0.24375767
-0.21584413
-0.23487422
-0.19705196
-0.26562187
-0.26567066
0.089575527
0.068776799
0.10520229
0.036119631
0.10539827
0.056978221
-0.079117721
-0.03448629
-0.072434639
-0.072275384
-0.039556324
-0.088283337
-0.012027056
-0.014041792
-0.020022712
0.0034512843
0.0046134965
0.013034002
-0.014041792
-0.020022712
0.0034512843
0.013034002
-0.015643552
0.0036130269
0.019238799
0.021104076
-0.013495151
0.015256901
0.009559838
-0.0012895613
-0.015274226
0.012889424
0.018495528
0.013460722
)
;
    }
}


// ************************************************************************* //
