/*--------------------------------*- C++ -*----------------------------------*\
| =========                 |                                                 |
| \\      /  F ield         | OpenFOAM: The Open Source CFD Toolbox           |
|  \\    /   O peration     | Version:  v2012                                 |
|   \\  /    A nd           | Website:  www.openfoam.com                      |
|    \\/     M anipulation  |                                                 |
\*---------------------------------------------------------------------------*/
FoamFile
{
    version     2.0;
    format      ascii;
    class       surfaceScalarField;
    location    "450/bottomWater";
    object      phi;
}
// * * * * * * * * * * * * * * * * * * * * * * * * * * * * * * * * * * * * * //

dimensions      [1 0 -1 0 0 0 0];
oriented        oriented;


internalField   nonuniform List<scalar> 
3858
(
-8.1634791e-05
8.9739491e-05
-5.3807651e-06
-0.00012000322
7.0679222e-05
-2.8554967e-05
-4.4896017e-05
-5.2042868e-05
-2.0992038e-05
-0.00013946264
0.00011044111
-8.9610164e-06
-0.00019782251
9.7271784e-05
-3.7095533e-05
-0.00018538158
6.3319586e-05
-7.0587066e-05
0.00013757056
-0.00035389449
2.8476488e-05
0.00028437708
-0.00018335395
3.6960432e-05
0.00018370526
0.00011415661
-1.158049e-05
8.9199681e-05
0.00014515383
-5.0229114e-05
-3.1761221e-05
0.00014676786
-2.5382216e-05
-0.00012312425
0.00016621274
-7.3979457e-05
-0.00017687624
0.00014047027
-8.4783959e-05
-0.00022807984
0.00013459907
-8.116655e-05
-0.00025159191
0.00011408833
-8.903362e-05
-0.00013300124
-9.4094034e-05
-2.5423548e-05
-1.5237379e-05
-0.00015094876
3.0801449e-05
-9.049856e-05
5.119931e-05
2.0935855e-05
-0.0002648479
0.0001573147
1.5073662e-05
-0.00030857724
5.3667883e-05
-1.1769841e-05
-0.00012314902
-0.00020162545
1.0547657e-05
4.8751877e-05
-0.00020009796
2.3708554e-05
0.00026608154
-0.00028320701
5.8389864e-05
0.00019400849
7.930406e-05
-1.0251005e-05
6.9054062e-05
0.00016374555
-4.2719365e-05
-6.1925391e-05
0.00015203561
-2.7180725e-05
-0.00015344989
0.00015178241
-6.244648e-05
8.6372459e-05
-0.00023405812
-1.3783518e-05
0.00015489639
-0.00011563535
4.0224092e-05
0.00011583451
3.2301042e-05
-0.00046623253
0.00060984938
-5.387735e-05
-0.00051769234
0.00019100326
-6.8864227e-05
-0.00031253802
-0.0002653967
8.1995176e-06
-0.00020846259
4.5646465e-05
-3.9280777e-05
-0.0002742217
0.00023623092
-7.3200021e-05
-0.00019263738
5.0956002e-05
-6.9220737e-05
0.00015173598
-0.00069901398
7.4612783e-07
0.00038836389
-0.00049122342
7.1241549e-05
0.00038030797
9.4730871e-05
2.7481644e-05
4.9892021e-05
0.00053929231
-6.3722536e-05
-0.00031578387
0.00061212199
-9.9678243e-05
-0.00047896033
0.00044723446
-0.00011784526
-0.00041519143
0.00013933371
-6.2632347e-05
-0.00029748318
4.6097707e-05
-2.9206889e-05
-0.00017380445
1.217423e-05
-2.1764634e-05
9.0861674e-06
-0.00029887749
2.189284e-05
0.00024522391
-0.00044961042
6.2523912e-05
1.4686398e-05
0.00019758331
8.415351e-05
-0.00042363871
0.00059775795
-2.1181396e-06
-0.00035120256
-2.5809917e-05
7.0416429e-06
-3.2189095e-05
-0.00053418267
1.3543758e-05
0.00014442642
-0.00046791587
9.1202403e-05
0.00038426336
-0.00066457745
0.0001415335
0.00040561998
-4.169334e-05
9.9640784e-05
5.0087074e-05
0.00052213628
-2.8578203e-06
-0.00036343364
0.00067321639
-0.00010766006
-0.00013744803
8.5424931e-06
-8.2745687e-05
0.00020728187
-0.00059815019
1.9362166e-05
0.00036051256
-0.00036249175
9.3625714e-05
0.000390769
8.5578066e-05
-7.5935548e-05
0.00063439736
5.1387573e-05
-0.00017592273
0.00011260678
0.00017838367
-0.00044041405
-0.00013634047
0.0001354351
-0.00023625809
-0.00026981603
0.00011130655
0.00020786321
-0.00026901733
6.112695e-05
0.00036036713
-0.00022675376
0.00012520585
-0.00010632273
-0.00015350382
-7.8820302e-05
-0.00035420642
-9.5483023e-05
-0.00014785672
-0.0001903909
1.5987273e-05
-8.5071935e-05
-8.4489521e-05
0.00046933776
-3.5946833e-05
-0.00013920131
0.00058613117
8.0702606e-05
-0.00020226778
0.00032725479
0.00018304614
-0.00027665877
1.2974845e-07
0.00021359494
-0.00028613079
-4.9733192e-05
0.00010530292
-0.00011026891
-0.0001548733
-8.8143558e-06
-7.9288855e-05
-0.00033777042
7.912874e-06
-0.00020942659
-0.0002578233
-6.164939e-05
-0.0001517687
0.00010395676
3.5968671e-05
-4.7538442e-05
0.00044060731
5.292038e-05
0.00018764426
-0.00044039028
0.00017939766
0.00016147419
-0.00052820158
2.0188989e-05
-4.8722505e-05
-0.00022206647
-3.5652706e-05
-0.00036899594
-0.00013154398
-0.00021276003
-0.00022481273
-0.00010379029
-8.2086259e-05
-9.3532921e-05
0.00041635137
-2.54949e-05
2.1769451e-05
0.00053026298
2.7651036e-05
0.00038674329
-0.00042410646
6.767511e-05
0.00011534589
-0.00035943456
3.2681776e-05
-7.9371526e-05
-0.00011687479
-5.0899537e-05
0.0002765521
3.4845372e-05
0.00021998041
0.00037626187
3.8155103e-05
4.1008842e-05
0.00018968238
0.00010189598
-0.000273466
0.00014215274
3.5981651e-05
-0.00038187181
-0.00022813426
6.6724049e-05
-0.00019985354
-0.00045735173
6.3161453e-06
-0.00017216937
-0.00026456008
1.0122145e-05
-0.00022029824
-7.4318703e-05
-3.1056258e-05
-0.00026368125
2.0898876e-05
-7.2998896e-05
-0.00023293019
9.0371156e-05
-0.00010513495
2.2970149e-05
0.0001995654
1.3872009e-05
0.00019418339
0.0002834257
0.00013149223
0.00029727171
7.7845948e-05
0.00014632051
0.00016008696
9.0934519e-05
4.6379977e-05
-0.00014081076
0.00030006697
-4.8902456e-05
-0.00024804354
5.7588397e-05
-0.00010522893
-0.00019483933
-0.00036852014
-2.2454499e-05
-0.0002244991
-0.00023113385
2.9703264e-06
-0.00027993756
0.00012198945
3.7405761e-05
-4.1123238e-05
4.4765758e-06
0.00019731641
-9.6069941e-05
-0.0004387083
5.3264729e-05
-0.00011510808
-0.00047971182
-2.945161e-05
-0.00019432856
-0.00013288882
-9.9571636e-06
-0.00039522432
0.00011245173
-4.3099947e-05
-0.00039313169
-3.4332595e-05
-7.1550314e-05
-0.00014688131
0.00010566166
6.4439323e-05
0.00014230037
1.9221959e-05
0.00022185935
0.00014342949
-0.00046899726
4.3761677e-05
2.5211485e-05
-0.00025305778
1.1841227e-05
-0.00020709195
9.0553305e-05
2.4875335e-05
0.00010576864
-3.6308485e-05
0.00027516425
0.00010109762
0.00036538282
9.946382e-05
0.00041458668
9.2948886e-05
7.4368258e-05
0.00011208418
-0.00034143377
-4.1549707e-05
-0.00049421867
-0.00011177517
-0.00044576435
-0.00012277303
-0.00031954888
-0.00010531661
-0.00013951084
-8.9666893e-05
6.2629596e-05
-2.5750377e-06
0.00024377093
0.00010228436
0.00021553029
0.00010608658
0.00019396634
0.00011249847
0.00034333665
0.00015069666
0.00029114126
0.00010978379
1.1346308e-05
-8.8725192e-05
-0.00010493383
-0.00011485371
0.00012588528
-0.00010882967
0.00024196212
-0.00011160026
-4.504195e-05
-0.00015170423
-0.00039505956
-0.00012969421
-0.00036927445
-0.00015867392
-0.00013409958
-0.00012272314
-3.5258282e-05
-0.00013317389
0.00011675817
-4.6354796e-05
0.00015742943
-2.144929e-05
-0.0002325873
-7.8980529e-05
-0.00038810776
-9.7537321e-05
-0.00021093254
-8.6621914e-05
-0.0001051639
-0.00011184822
0.00011952321
-1.1724778e-05
-9.8912734e-05
1.3797462e-05
-5.3720802e-05
7.6783014e-05
-0.00015335608
-4.3306292e-05
-4.1205386e-05
0.00014394848
-2.9158045e-05
-9.4793713e-05
7.6609342e-05
-5.8027014e-05
5.3992154e-05
-0.00016156012
-5.4953039e-05
0.00025007522
-0.00023323511
6.3498748e-05
0.00019854241
4.4254984e-05
4.536664e-05
3.2093967e-05
0.00014100991
1.4320949e-05
-0.0001018144
0.00011986159
-3.7877032e-05
-0.00024910721
0.00015991984
-3.69962e-05
-0.000250913
-1.3381791e-05
-5.852019e-05
-2.3241495e-05
-0.00026449242
-4.9807283e-05
9.4895806e-05
-8.4469863e-05
-0.00011480154
7.0876672e-05
9.2825351e-05
-0.00015816888
1.8597311e-05
0.00014866292
-0.00012295548
-3.571336e-05
0.00014072567
-5.7572375e-05
-0.00010366491
0.00013570442
-4.9314955e-05
-0.00024167933
0.00015439756
-2.676451e-06
-0.00029246062
3.9429937e-05
-1.2557977e-06
-4.6169614e-05
-0.00021713801
-2.2732944e-05
0.00018604528
-0.00022101202
5.6625936e-06
0.0002061303
2.2511314e-05
9.694325e-06
7.6487269e-05
0.00014920957
-3.5129321e-05
-6.7088258e-05
0.00015619168
-6.0858468e-05
-0.00016561574
0.00017312269
-0.00010684413
-0.00018338749
7.064959e-05
-0.00011744946
9.9610541e-05
-0.00026909048
-3.691825e-05
0.00011877078
2.188672e-05
-8.0193564e-06
0.00014175357
1.4731562e-06
-0.0004930366
0.00065514665
-9.6464184e-05
-0.00044956902
-1.338254e-05
-8.5151795e-05
-9.0749736e-05
-0.00048867833
-1.529752e-05
-5.9840452e-05
9.8365078e-05
-2.460665e-05
-6.8104353e-05
0.00013143495
-0.00011976173
0.00019919909
-0.00045290588
-4.5178418e-05
0.00050867743
-0.00055888173
1.6914404e-05
0.00052232648
5.4705069e-05
4.7142407e-05
0.0001319476
0.0006087392
-4.9868763e-05
-0.00032086292
0.00069752212
-0.00018857256
-0.00049732087
0.0004291048
-0.00019240526
-0.00043277931
-8.8333201e-05
-0.00010743542
-7.5444229e-05
-0.00063262922
-5.1830635e-05
0.00025117911
-0.00033413701
-0.00010616307
0.00042450841
5.1907632e-05
-0.00015417622
0.00038183863
0.00032333307
-0.00011010754
7.1125366e-05
0.00052668942
-1.2726569e-05
-0.00030493565
0.00058192911
1.3989832e-05
-0.0003435063
0.00017310726
1.7742813e-05
-0.00018924271
-0.0001452015
3.7409497e-05
0.00014704094
-0.00054988095
1.0003035e-05
0.00052608579
-0.00057011114
6.1256671e-05
0.00056167354
1.5022179e-05
0.00011343489
0.00021863237
0.00058070707
1.1184455e-05
-0.0001881542
0.00067305112
-0.00011293069
-0.00029590698
0.00033507021
-0.0001618548
-8.9215714e-05
-8.5906151e-05
-0.00013288121
0.00036897996
-0.00066770676
-4.0217226e-05
0.00046862556
3.7402325e-05
-2.1535488e-05
0.00073004149
-3.4084298e-05
5.0965433e-05
0.00063045747
2.5111328e-05
1.4830538e-05
-5.4112464e-05
0.0002552485
-0.0003766733
-0.00013384227
0.00017210289
-7.2879421e-05
-0.00030468544
0.00021056319
0.00039223214
-0.00033397761
6.1427957e-05
0.0002294999
-0.0001049457
-6.002208e-05
-8.7364795e-05
-0.00012098985
-0.0001998475
-3.2610754e-05
-2.3232183e-05
-0.00012467351
1.0939251e-05
0.00055703564
-7.6918387e-05
-2.0571468e-05
0.00070285328
-9.7672754e-06
0.00010949677
0.00033387281
4.5866341e-05
7.6654207e-05
-6.4256834e-05
0.00019181234
-0.00030027959
-0.00011171305
6.9612569e-05
-0.00042312748
-0.00011646116
1.0474956e-05
-7.2470741e-05
-0.00037441211
6.6848642e-05
7.1706828e-05
-2.5788578e-05
0.00021285695
2.0437722e-05
0.00047071735
4.5591774e-05
0.00011013113
0.00045926888
6.8935498e-05
0.00019963696
4.7321074e-05
8.9200734e-05
0.00021259533
-0.00018517735
0.00020641514
0.00016161844
-0.00048864519
9.9301335e-06
-0.00011364815
-0.00016479983
-0.00016569743
-6.1034256e-05
-5.6969183e-05
-0.00019338256
4.9723103e-05
0.00046690371
-7.9040247e-05
6.5607029e-06
0.00064683201
4.3886614e-05
9.2176002e-05
0.00015190159
0.00012520435
0.00025411334
-0.00032771957
0.0001475512
-0.00015611172
-0.0002363687
1.1568778e-05
-0.00011471733
-4.6931192e-05
-7.9604174e-06
0.0006742641
-2.4094563e-05
0.00027785459
0.00032045769
7.0300311e-05
4.6345685e-05
0.00029434685
-1.5054414e-05
-0.00015277313
0.00014166673
-4.0408518e-05
-0.00015046093
-0.0003387668
9.8493229e-05
-6.3793472e-06
-0.0004568936
-1.4849445e-05
-1.7197208e-05
2.2180516e-05
-0.00010618621
-0.00021879455
0.00017041722
-0.00012086599
-0.00025071138
0.00013445885
-0.00019877311
-3.9719712e-05
0.00029281202
-5.1903013e-05
0.00020810791
0.00041264075
5.6256901e-05
0.00036554208
0.00016519785
0.00014273302
0.00028612781
8.823542e-05
7.324252e-05
0.00013140679
9.9789948e-05
-1.0402005e-05
-5.2219918e-05
6.0788972e-05
-4.2525893e-05
-0.00011801408
-0.00041272087
-1.12601e-06
-8.4780064e-05
-0.00020564416
0.00012416706
9.683395e-05
0.00023621515
5.5858513e-05
0.00026890564
0.00028342627
4.1176676e-05
9.7326521e-05
0.00033422555
8.1991054e-05
-8.0501556e-05
2.0477866e-05
2.5437594e-05
-2.4447822e-05
-0.00050127418
-7.2876358e-05
-0.00014692893
1.6006981e-05
-6.8282862e-05
-0.00028269798
0.00020618106
-0.00017048113
-3.5921904e-05
0.00023427323
-8.5695915e-05
0.00018419171
0.00038466801
0.0001064897
0.00027344803
7.1399253e-05
0.00021310538
0.00028009977
-0.00033453313
4.3923495e-05
3.3421992e-05
1.9278147e-05
2.8721539e-06
-0.00028063805
0.00036864316
-7.6638981e-05
0.0003783939
-2.107633e-05
0.00021964008
0.00020191524
0.00041229083
0.00020115993
0.00046381565
0.00018309082
4.7462574e-05
0.00018967045
-0.00044396887
-7.0118571e-06
-0.00046883655
-6.4726984e-05
-0.00034818551
-7.3006852e-05
-0.00025493833
-6.4104954e-05
-3.9580481e-05
-1.221273e-05
0.00026013055
0.00011035467
0.00035877159
0.00016884116
0.00036673646
0.00018635713
0.00039812487
0.0001809
0.00040078077
0.00020882973
1.7124715e-05
8.0718963e-05
-0.00020848053
-6.8764107e-05
-4.5533021e-05
-4.1586077e-05
0.00016233531
-3.3271734e-05
0.00038202011
2.9405026e-06
0.00030634028
-5.5546543e-05
-0.0002291735
-9.5454598e-05
-0.00034579717
-2.6043264e-05
-0.00016985729
-9.2481953e-05
-2.0590109e-05
-4.8167843e-05
0.00022586687
9.1856247e-05
0.00014399811
0.00013181872
-0.00033380008
6.4284534e-05
-0.00047246227
6.0403019e-05
-0.00024661258
5.6171554e-05
2.6617422e-05
-0.00021640276
7.4965908e-05
0.00013026435
-0.00019624023
-0.00013555716
6.1833345e-05
-1.0754792e-05
-0.00027025816
4.0403329e-05
7.4039781e-05
-0.00022943491
0.00011742228
0.00018875945
-0.00029170746
0.00011799425
0.00026683191
-0.00021810681
8.580919e-05
0.00025340247
-1.8117353e-05
9.571444e-05
0.00010558406
0.00013036679
6.3670446e-05
-5.6114422e-05
0.00013248157
4.3108632e-05
-0.00016476207
0.0001137623
-4.3237331e-05
-0.00024587443
6.1725783e-05
-1.5922104e-05
-0.0001365344
-0.0002315112
6.3203279e-05
2.1802655e-05
-0.00025325006
4.3057329e-05
8.532626e-05
-8.5898336e-05
-9.1480045e-05
0.00018955094
-0.00018538285
-7.857127e-05
0.00016887724
4.5211651e-06
-0.00010756414
5.5845216e-05
0.00013240041
-7.8537694e-05
-0.00012814268
0.00015215908
-2.0351558e-05
-0.00027402755
0.00013838414
4.6999213e-06
-7.5518093e-05
-0.00022711027
2.3479529e-05
0.00013623674
-0.00022561621
-1.599438e-05
0.00015504654
-1.6765139e-06
-1.859425e-05
8.1507553e-05
0.00010747924
-3.0429686e-05
-6.7628073e-05
0.00013716006
-2.9826069e-05
-0.00022496136
0.00016021086
-6.7591259e-05
-0.00020289125
-3.6008028e-05
-9.7772166e-05
-6.0929261e-05
-0.00021145963
-5.2603194e-05
0.00020347787
-0.00032498917
1.4746523e-05
0.00016900491
9.1360571e-06
1.1303913e-05
0.00013562476
2.7908578e-05
-0.00044661064
0.0004699674
-4.4855035e-05
-0.00030432881
-0.00033303287
-2.9957905e-05
-3.6177562e-05
-0.0005377193
-1.5987629e-05
0.00011570501
-0.00052284898
0.00011692485
0.00023489708
-0.0006342156
0.00010355434
0.00047257339
-0.00053709175
3.613022e-05
0.00055318212
-0.00012563726
4.382557e-05
0.00025598002
0.0005516136
-7.6902307e-05
-0.00016577803
0.00070083526
-0.00019646441
-0.00040953921
0.00041165413
-0.00024270321
-0.00036229712
4.5114192e-05
-0.00022303576
-0.00015513084
-0.00054654347
4.3057069e-07
8.2173624e-05
-0.00052181102
-2.0574138e-05
0.00023223546
-0.00024412199
-9.8001258e-05
0.00045413825
-0.00048784488
-7.3616981e-05
0.00053717302
-9.5500491e-05
-9.3120657e-05
0.00018991678
0.00051896015
-5.2030074e-05
-0.00030291635
0.00066693768
-7.9556478e-06
-0.00024292344
8.3418217e-05
1.2715836e-05
0.00015455665
-0.00059811435
1.0933484e-05
0.00051647428
-0.00052715416
-5.0376638e-05
0.0006287908
-3.2947945e-05
-1.9788418e-05
0.00024308639
0.0006737838
-6.7165255e-05
-0.00024958027
0.00076461127
-0.00012360009
-0.00037153515
0.00033420343
-0.00016496838
-0.00023845955
-0.00021312263
-0.00011781579
9.6877239e-06
-0.00055547118
-3.7016932e-05
0.00037862612
-0.00071013021
-2.4014588e-05
0.00048036415
-3.6247984e-05
-7.7889476e-05
0.00065375566
-7.1851054e-05
0.00011552055
0.00039044773
-1.0889542e-05
0.00010400802
-8.4899237e-05
1.8627408e-05
-0.00012093577
-0.00011396308
-2.6709529e-05
2.0159622e-05
-0.00051225438
5.8873213e-05
0.00011394128
-0.00056564312
-0.00010092617
4.9826898e-05
-0.00033668737
-0.00019631208
3.4158922e-05
-9.7319928e-05
-0.00021249685
0.00010740998
0.00045507679
-0.00010138777
7.183291e-05
0.00066600894
-6.5150096e-06
0.00015542504
0.00029853291
1.9761811e-05
0.00033773104
-7.4721274e-05
-1.6604199e-05
9.3391998e-05
-0.00010340345
-6.9886547e-06
-0.00020315964
-8.2242899e-05
-7.3403921e-05
-6.550579e-05
-0.00036931338
-1.9875069e-06
-4.8558643e-05
-0.00049210631
5.4162918e-05
1.2426755e-05
-0.00012476263
0.00018113369
0.00010398366
0.00042851347
4.4481552e-05
0.00022843458
0.00059693064
1.4491609e-05
0.00040062448
8.1636893e-06
-7.7346352e-06
0.00017958622
-0.00012124605
-4.9414907e-05
-2.2067337e-06
-0.00028231004
-5.3121032e-05
8.3272535e-05
-0.00024645895
-3.7665693e-05
0.00011260118
0.00055031449
-9.9241899e-05
0.00012410717
0.00071728824
-4.3223207e-05
0.00021435455
0.00022183963
6.6003037e-05
0.00010593335
-0.00011839969
0.00013890262
5.9691938e-06
-0.00039102533
8.3069495e-05
-0.00018510056
-0.0005156139
8.122221e-06
-9.3069693e-05
-0.00011996358
-1.6275686e-05
0.00056499604
-2.8404631e-05
0.00024771149
0.00016112031
5.1916251e-05
3.0704094e-05
0.00017017503
-5.3121269e-05
-5.7397193e-05
1.9126109e-05
-8.5396405e-05
4.4976303e-05
-0.00055177573
3.5641095e-05
5.4935771e-05
-0.0005319003
-5.8551719e-05
-2.8261231e-05
-0.00023928453
-0.00012039204
-0.00017769181
0.00016766008
-0.00023641542
1.2075649e-05
0.00020779907
-0.00014126285
0.00026570468
0.00039022573
-2.974883e-05
0.00045043686
0.00018283159
-1.2773974e-05
0.00039602641
0.0001059805
1.6441693e-05
0.00027195618
7.5318059e-05
1.8591238e-05
9.7490576e-05
0.00010966543
-2.7844739e-05
3.0562679e-05
-0.00036838502
2.3473637e-05
-3.6936579e-05
-0.00046731892
4.1585851e-05
-0.00015769298
4.6173236e-05
7.3987596e-05
2.2320008e-05
0.000222476
8.1882994e-05
0.00035551637
0.00029978961
5.1213413e-06
0.00030835776
0.0002328778
-9.5564452e-05
0.0002055012
0.00014816085
-0.00014111274
0.00010380534
-0.00020433237
-4.9158164e-05
-6.182553e-05
-0.0001383694
-1.0741529e-05
6.7117824e-06
0.0002944145
1.6881546e-05
0.00022850745
0.00039656815
1.3228512e-05
0.00025105372
0.00015586672
0.00014991634
0.00014722153
0.00010205276
9.6485129e-05
7.5873537e-05
-0.00033603549
6.0281656e-05
-2.6263845e-05
-0.00043292003
2.2315667e-05
-0.00020859912
9.3651069e-05
-0.00010791836
0.00030258702
3.2733572e-05
0.00018106079
0.00018197477
0.00035180574
0.00020059003
0.00050486968
4.9152991e-05
0.00018273765
-3.9973237e-05
-0.0002550082
-0.00010116631
-0.00043072676
-0.00012829296
-0.00027189348
-6.4180054e-05
-7.3970645e-05
-5.4228726e-05
0.0002182993
8.5743041e-05
0.00035131305
0.00016017251
0.00040561119
0.00022052351
0.00041024289
0.00025704348
0.00044836029
0.00025244802
0.00011186903
0.00017693596
-0.0002938748
1.9143868e-05
-0.00029969302
-1.6772653e-05
-0.00011831944
-4.8366026e-07
0.00015516139
-6.962953e-06
0.00037741501
1.3564684e-05
0.00043671651
3.3312808e-05
8.7842758e-05
4.9086793e-05
-0.00021051457
0.00013394466
-3.3207694e-05
2.4625682e-05
0.00023347122
8.172139e-05
0.00034834647
0.00013284773
0.0004197507
0.00016246725
1.4386167e-05
0.00013361358
-0.00039076106
3.263022e-05
-0.00028198921
4.105077e-05
4.7215238e-05
-0.00019754698
9.9020724e-05
0.00023213148
-9.5748346e-05
-0.0002384367
0.0002001581
0.00015426462
-0.00038838958
0.00017851604
0.00021891661
-0.00012829
0.00018387862
0.00014194676
4.3811332e-05
0.00015528266
3.7860288e-05
0.0001467424
4.7749955e-05
-8.3333294e-05
0.00013910595
8.0688647e-05
-0.00021330511
0.00015294925
4.3489557e-05
-0.00024068921
7.112095e-05
2.6773671e-06
-7.1506931e-05
-0.00019840055
-1.419858e-05
-7.2802299e-05
-7.4832246e-05
6.2092574e-05
-0.00012466405
-6.9477733e-05
0.00018662219
-4.9791532e-05
-0.00019210602
0.00016126682
9.611878e-05
-0.00023796419
0.00023841228
-0.00022245053
0.00033103311
-0.00020298599
0.00021416042
3.7234533e-05
1.6709403e-05
0.0001122867
6.202271e-05
-0.00015713224
0.00014586988
2.9695176e-05
-0.00018460909
0.00010637011
-5.6454874e-05
7.1908334e-06
-0.00022487506
1.2797095e-05
0.00012744234
-0.00018088324
3.6703811e-05
2.5650856e-05
1.1616869e-05
5.3499036e-05
-0.00018040046
0.00014692387
2.4268017e-05
-0.00027191732
4.5336079e-05
-2.3932204e-05
-9.1207728e-05
-0.00027803146
-7.4994418e-06
7.3904019e-05
-0.00027008855
4.6652232e-05
0.00023354829
-0.00027667958
0.00012400906
0.00021351312
-0.00011528792
0.00013998975
9.8482901e-05
0.00013601156
-0.00017451091
9.1360176e-05
0.00013731643
-4.355743e-05
-0.00053421986
0.00013487177
0.00011781911
-0.00071031607
0.00014456232
0.00026639048
-0.00035511618
0.00019517968
0.00026346777
-3.057221e-05
0.0001808606
0.00033856661
3.9662019e-05
6.8111755e-05
6.5543903e-05
0.000421291
3.4663236e-05
-0.00033093017
0.00058483741
-0.0001123164
-0.00028212344
1.2967252e-05
-0.00018711743
-6.0458306e-05
-0.00053027283
-0.00013249608
-5.4532505e-05
-0.0002303725
-7.3421312e-05
-4.8959175e-05
-0.00022943845
0.00015481796
7.2453749e-05
-0.00041174429
7.7651196e-05
0.0002420401
-0.00050555181
0.00040751915
-0.00046154656
0.00063108741
-0.00051967492
0.00049462063
0.00012167124
-2.6480765e-05
0.0006678246
-4.2392153e-05
-0.00036141116
0.00055836647
-6.4850365e-05
-0.00015479059
1.9536411e-05
-0.00010885339
0.00020278805
-0.00055184843
-8.0981916e-05
0.00045694879
-0.00046773546
1.2903063e-05
0.00014296311
0.00029262835
-3.4191048e-05
-0.00034297437
0.00052248761
-1.3226365e-05
-0.00035125464
-9.8317002e-06
-0.00010152032
-6.4559365e-05
-0.00063995691
-4.2585625e-05
0.00014579117
-0.00057373706
5.6281045e-05
0.00034583707
-0.00059630353
9.5563463e-05
0.00040366058
-0.00034783553
9.6834623e-05
0.00034591911
8.4373313e-05
0.00012647585
-2.8191892e-05
-1.7813319e-05
0.00011807938
-0.0003180565
-0.00018913947
-0.00017021584
-0.0001938951
-0.00025483527
-0.00014574214
-0.00030598852
-1.4728131e-05
9.6767678e-05
-0.00040325157
2.9243369e-05
0.00017137943
-0.00025580645
2.4544642e-05
0.00012834821
0.0002663709
-1.454555e-05
0.00019723728
0.00048089957
-6.6338999e-05
0.00032090223
-4.8992802e-05
-6.8219916e-05
3.4576394e-05
-0.00015418986
-6.9995327e-05
6.493983e-05
-0.00024754733
-2.9792812e-05
0.00019458925
-0.00033447194
-3.16046e-05
0.0001685003
-0.00040885172
-5.0207551e-05
0.00017267067
-0.00051170969
0.00011018656
-0.00034489953
-6.1195995e-05
-0.00016715868
4.9742792e-05
5.5214002e-05
6.9192627e-05
0.00066616798
-3.3016149e-06
0.00017799106
0.00045396594
-1.2132536e-05
0.00036294593
-0.00012401119
-9.0822165e-05
0.00012940664
-0.00027287621
-9.8553948e-05
6.8308157e-05
-0.00048214884
3.7846164e-05
0.00021619537
7.3946827e-05
-2.8447585e-05
0.00029658403
0.0003523802
4.6495547e-05
0.00040680608
-5.8990752e-05
4.9400396e-06
7.0625032e-05
-0.00013622434
-2.8648889e-05
4.3469598e-05
-0.00052124122
5.7729089e-05
-3.6052301e-05
-0.0005463277
3.7668283e-05
-7.9023823e-05
-0.00023294236
-8.8197334e-05
0.00021801405
2.0476606e-05
5.9198949e-05
1.080396e-05
-4.6278536e-05
7.5098335e-05
-0.00032496283
-6.2114317e-05
3.1299443e-05
-0.00013716959
-9.8323006e-05
7.687907e-05
-0.00024210857
-7.3818479e-05
6.0160263e-05
-0.00039585716
-4.9227305e-05
-6.8387975e-05
-0.00019067434
-5.6975899e-05
9.9667312e-06
4.4482931e-05
-9.2882155e-05
0.0002493656
0.0001756246
-7.5386752e-05
0.00016812438
0.00017162585
-0.00016912626
0.00014784296
3.5116101e-06
-0.00015019403
0.00021097726
-0.00020934782
-8.4892133e-05
0.00021106046
-0.00032208348
6.1195734e-06
0.00015891152
-0.00040677663
2.2229098e-05
0.00017959395
-0.00050891848
0.00012944844
-0.00025316818
-6.5376023e-05
0.00010165337
-9.8983664e-05
0.00017070463
0.00017211441
0.0004187754
-1.8584147e-05
0.00033632657
0.00023359185
-3.9402533e-05
0.00021258082
5.6588394e-05
-0.00019796658
0.00015917312
-0.0001943875
-7.4239165e-05
0.00010734858
-0.0004889896
4.7923782e-05
0.00014813237
-0.00011941383
0.00016945842
0.00033089091
9.6936882e-05
8.5913294e-05
0.00012979324
0.00010573847
0.00018628479
5.1299324e-05
1.4586649e-05
2.4168055e-05
9.1094289e-05
-0.00054339379
4.2639267e-05
-8.585675e-06
-0.00050972084
8.538878e-05
-0.00012397687
-0.00014661082
-7.8858708e-05
0.00012128898
5.4817758e-06
0.00019493677
-2.1580346e-06
0.00010337107
-3.280708e-05
0.00018229321
-0.00016693873
0.00013432342
-0.00023411199
-0.00015136578
-0.00021133427
-0.00027472325
-0.00019560983
-0.00017879744
-0.00011562293
3.491528e-05
-9.2316857e-05
0.00030136657
-9.0824073e-06
0.00046404667
1.0040019e-06
0.00049731234
-2.2089982e-05
0.00042304494
9.2273863e-06
0.0002143471
5.4369226e-05
-0.00011763543
-0.00035165974
-0.00026677902
-9.6558049e-05
0.00024162598
7.3628416e-05
0.00044531863
4.3463884e-05
0.00055639834
-2.1178502e-05
0.00043544867
-2.4351043e-05
7.6299358e-05
4.1043744e-06
-2.3336254e-05
4.8474651e-06
0.0001126604
4.2661622e-05
0.00027098141
8.0265195e-05
0.000356617
9.1418318e-05
4.5579552e-06
-5.7721174e-05
-0.00030935959
-0.00016317308
-0.00026830631
-0.00014661333
-9.9802083e-05
-9.4333897e-05
0.00015940852
0.00017456542
-0.00015304969
0.00012264787
0.00014549194
-0.00011067777
1.9797903e-05
0.00012446588
-7.4452491e-05
0.00010354953
5.0092333e-05
-7.212048e-05
0.00014447668
1.2425649e-05
-0.0001011493
0.0001602332
-7.9933616e-05
-0.00016957015
0.00017232535
-2.0208721e-05
-0.00026154041
0.00015860014
-1.9157047e-05
-0.00021536551
-5.9699851e-05
1.9260838e-05
-4.8633821e-05
-0.00025177803
7.3010262e-05
2.1516237e-05
-0.00017541622
0.00016865076
-0.00010340812
0.00010249113
0.00021259109
-0.00015799091
0.00021842739
-0.00019202668
0.00015168837
0.00010214555
-0.00027253829
3.3119922e-05
7.8164785e-05
-2.7785165e-05
-0.0003084205
3.3024908e-06
0.00010242566
-0.00021753759
9.7176619e-05
0.00012305771
-0.00013789502
0.00014950916
-1.1375254e-06
3.1678558e-05
0.00014047784
-0.00020367671
0.00012987148
9.1833115e-05
-0.00020965152
-8.087121e-05
5.7633703e-05
-3.9678584e-05
-0.00023838898
5.5090243e-05
0.00012579473
-0.0001806734
5.7152384e-05
0.00026943992
-0.00019710546
0.00017173811
0.00019396931
3.5681609e-05
0.00017600914
0.00015128052
0.00017370796
-0.00019122667
0.00029856436
0.00018938727
-0.00013423498
-6.2427619e-06
0.00020677071
-2.1970142e-05
-9.0759696e-05
0.00014285509
0.00010439985
6.7158413e-05
0.00010520081
0.00010564171
0.00033881568
-1.472025e-05
0.00015035476
0.00021209881
-2.8466909e-05
-7.9147982e-05
0.00051619756
-7.9706234e-05
-0.00026298255
0.00030189185
-7.1773536e-05
-0.00023703182
-0.00026586882
-6.8991996e-06
-4.9693453e-05
-0.00057109673
-5.1575156e-07
-2.7776277e-05
-0.00045798139
0.00018722668
-0.00013835141
7.5596358e-05
0.00029228785
-0.00041561908
0.00019692796
-0.00031889014
0.00043550985
-7.3234937e-06
-0.00022898046
-9.9023151e-05
-2.2616972e-05
8.0419236e-05
-0.00067137876
-5.5294825e-05
0.00024949882
-0.00048993463
2.2335543e-05
0.00042532926
-0.00043015228
0.00012932988
0.00021238353
0.00011376643
9.6666822e-05
-0.0004097597
0.00074030996
-1.521618e-06
-0.00033762584
-0.0002401117
-1.4413685e-05
-6.7206039e-05
-0.0005495802
-1.8142083e-06
0.00020891597
-0.00042942786
2.8913493e-05
0.00047135544
-0.00051382133
0.00014983986
0.00048478597
-5.9073758e-05
0.00017815946
0.00057173272
0.00014870708
5.2445305e-05
0.00017343459
5.4871156e-05
0.00011740849
-0.00018855384
-7.1791559e-05
-7.5415385e-06
-8.7094774e-05
-0.00013355016
8.491808e-05
-4.9855029e-05
9.8257029e-06
0.00017444659
0.00011204114
0.0001664894
0.00012421427
8.8960737e-05
0.00019791504
0.00010750977
0.0003897465
0.00012861001
0.0001738421
0.00020007421
-3.0853694e-05
0.0001565228
-0.00014453003
-0.00017223942
-6.4444004e-05
-0.00026717435
-0.00015295091
-0.00022889423
-0.0002632702
-6.0053784e-05
-7.1627236e-05
-0.00018487628
7.1601025e-05
-0.00045663604
-8.0817834e-05
0.00011013271
0.00030571427
1.6361241e-05
0.0003205465
-0.00029565534
-2.5914139e-05
0.00012723303
-0.00051202903
-5.685842e-05
-7.6070825e-06
-0.0003430547
-0.00011059376
-0.00010891804
-0.0002419594
-4.903576e-05
-6.9734932e-05
1.0379985e-05
3.5755756e-05
4.7654991e-05
0.00065850503
1.0910549e-05
1.1058835e-05
-8.9168928e-05
-0.00010940658
-9.0914242e-05
-0.00043210493
-4.415108e-05
4.2892849e-05
-0.00048112466
-2.4381198e-05
-0.00010050743
-0.00027732508
-5.5427694e-05
-8.1521968e-05
-9.8361825e-05
-6.7894727e-05
0.00048643249
2.4254871e-05
0.00022203256
-7.3288288e-05
-2.1588205e-05
0.00024336789
-0.00018013933
-9.1864152e-05
-2.8640529e-05
0.0002480473
-0.00016145664
-0.00017831357
0.00018788207
-0.00016188252
-2.6259253e-05
-7.8843894e-05
-1.0396577e-05
-0.00010952743
0.00017631645
-6.1063428e-05
2.2414401e-05
7.8254845e-05
8.6667666e-05
0.00015590442
4.0622519e-05
-4.9425088e-05
0.00016829042
-0.00015366244
-0.00017237985
0.00015083255
-0.00026073941
-0.00013917111
2.7058217e-05
-0.00016687592
-5.7512083e-05
-2.2211824e-05
-0.00012757979
-1.9068922e-06
-0.00043323659
-2.3382186e-05
0.00019777468
9.8337049e-05
-8.981608e-06
0.00016182404
-0.00026971355
-2.9393682e-05
-1.3871811e-05
-0.00052263839
-1.1661364e-05
2.8962873e-05
-0.00032797921
-0.00013214934
-2.6051504e-05
-5.5062086e-05
-8.3959154e-05
-0.00018258892
0.00032353909
1.2836734e-05
0.00014182676
0.00033026064
8.9742005e-05
5.9249395e-05
0.00019644738
-1.6754148e-05
-2.944021e-05
-0.00035957135
4.0324085e-05
6.3443767e-05
-0.00048482446
-4.6544912e-05
-5.4558619e-05
-9.5369388e-05
2.1435479e-05
-0.00027561027
0.0001849694
-0.00014113829
0.00024053396
-2.4229962e-05
2.4106295e-06
-7.7856942e-05
-8.3239503e-05
-0.00012729626
8.4852562e-05
-8.698349e-05
5.4724702e-05
-1.6102051e-05
-0.00012987809
-0.00010557537
-4.867891e-05
-0.00010049256
4.5475338e-05
-0.00013152233
0.00013287598
-0.00013909499
0.0001511313
-0.00018100018
0.00010917176
-0.00021777588
0.00014355562
-0.00022334978
0.00021226427
-0.00018706106
-0.0001666031
0.00019204808
-2.0082614e-05
7.1056921e-05
-0.00010525851
-0.00028690632
-0.00018585365
-0.00049507311
-0.00014416347
-0.00045795942
-8.8071396e-05
-0.00011958966
-9.9832025e-06
0.00018287413
7.045848e-05
0.00034932387
0.00011026283
5.1086353e-05
3.0084488e-05
-0.00034098091
-0.00015047837
-0.00041415133
-0.00018537204
-0.00024319937
-0.00013259588
-0.00010246749
-8.6978899e-05
0.00015285208
0.00011362094
-0.00012924635
0.00016719376
2.5181352e-05
-0.00015502351
0.00016366371
-8.5903801e-06
-0.00017205762
0.00015148634
-8.0436968e-05
-0.00011440982
7.1188091e-05
-0.00011138017
0.00016015113
-0.00029612833
-5.8186926e-05
0.00022707655
-3.2456448e-05
-5.2637016e-05
9.6377905e-05
0.00014992661
-3.5466025e-05
2.071507e-05
9.4759159e-05
3.1956146e-06