/*--------------------------------*- C++ -*----------------------------------*\
| =========                 |                                                 |
| \\      /  F ield         | OpenFOAM: The Open Source CFD Toolbox           |
|  \\    /   O peration     | Version:  v2012                                 |
|   \\  /    A nd           | Website:  www.openfoam.com                      |
|    \\/     M anipulation  |                                                 |
\*---------------------------------------------------------------------------*/
FoamFile
{
    version     2.0;
    format      ascii;
    class       volVectorField;
    location    "450/bottomWater";
    object      U;
}
// * * * * * * * * * * * * * * * * * * * * * * * * * * * * * * * * * * * * * //

dimensions      [0 1 -1 0 0 0 0];


internalField   nonuniform List<vector> 
1460
(
(-0.00027407111 -0.017316324 0.00099116579)
(-0.0019395908 -0.015739169 0.00079378955)
(-0.00071024803 -0.013754769 0.00082811638)
(-0.00070117689 -0.014853659 0.0016212742)
(-0.0022517109 -0.018754605 0.00066190779)
(-0.003336033 -0.01629535 -0.00069834405)
(-0.00064582334 -0.012926505 0.00016639178)
(0.0036636198 -0.011874365 0.00050096335)
(0.0033152264 -0.013406359 0.00012092313)
(0.001559361 -0.016031747 -0.00064776679)
(0.00056250189 -0.016766516 -0.00013628402)
(-0.0013220428 -0.016265347 -0.0012548125)
(-0.0018843316 -0.017572384 -0.0016535639)
(-0.002547045 -0.018218028 -0.00057682069)
(-0.0032785574 -0.016862195 0.00010311239)
(-0.0027634924 -0.012894253 0.0011748062)
(-0.00055410186 -0.01104854 0.0012926064)
(0.00020520978 -0.019248012 0.0015830158)
(-0.0026078744 -0.017354326 0.001116877)
(-0.0042925381 -0.015434079 0.00068120483)
(-0.0028948282 -0.012304887 0.00043840993)
(-0.00054293439 -0.013308617 0.00034981646)
(0.0020174331 -0.012489719 0.00080109702)
(0.0040344271 -0.013481215 0.0001747464)
(0.0010960418 -0.016053715 -0.00031003196)
(0.0008611774 -0.018352084 0.00067794093)
(-0.0027349922 -0.014104811 -0.00038323268)
(-0.00057450361 -0.011592573 0.00010241076)
(0.00245847 -0.013668158 0.001017915)
(0.0015298909 -0.016187862 0.00076383962)
(-0.0052336088 0.017870465 8.4593114e-05)
(-0.0068523918 0.015988572 1.0955752e-05)
(-0.0054421333 0.010573008 0.00090154603)
(-0.002705824 0.015891057 0.0012879856)
(-0.0025547277 0.019471702 0.00049021734)
(-0.0049094914 0.016456462 -0.0019620958)
(0.00090172319 -0.0016606784 -0.00023286742)
(0.0024600071 0.003472621 0.00011239442)
(0.0063849622 0.014427449 0.0001512859)
(0.0038454393 0.017641309 -0.00012747955)
(-0.0026548549 0.018396239 -0.0011841162)
(-0.0056271793 0.018322149 -0.0023436374)
(-0.0058074371 0.019151394 -0.0022425155)
(-0.00445638 0.019691902 0.00016194643)
(-0.0033601192 0.0179103 0.0018963615)
(-0.00061111018 0.0079077601 0.0016059739)
(0.00083490871 0.0037666082 0.00041112524)
(0.0047620403 0.01896266 0.0022533434)
(-0.004331429 0.01918782 0.0006955134)
(-0.0060873742 0.015278107 0.00044664576)
(-0.0023675237 0.0030694892 -9.8741791e-05)
(0.0017539946 0.0042189924 0.0016893058)
(0.0019531124 0.00024869999 0.00012733602)
(0.0065802061 0.013784475 0.00044705585)
(0.0044864175 0.017969311 0.00066411645)
(-0.0034332103 0.01999238 -0.00061554115)
(-0.0057501463 0.015802979 -0.00036372458)
(0.0027384671 0.0010661743 0.00059885376)
(0.0026122759 0.00774787 0.0013302261)
(0.0055559659 0.017103335 0.0017082508)
(-0.0021730825 0.0051163674 0.0013115084)
(-2.7998664e-05 -0.0076414012 0.0011339418)
(-0.004760599 -0.015596279 0.0012321237)
(-0.0053010445 -0.013256513 0.00084504768)
(-0.00070348168 -0.0095713337 0.00058040406)
(0.005532793 -0.013650356 0.0023867301)
(0.0027762675 -0.015273588 -0.00038134846)
(-0.0051006402 -0.014616454 -0.0025732888)
(-0.0039584651 -0.0098005902 -0.0020717635)
(-0.00035514033 0.0028373437 -0.00052338161)
(-0.0016420357 0.0046313769 0.0010927168)
(-0.0022139169 -0.00094727797 0.00088789125)
(-0.0029647154 -0.012785128 0.0030885694)
(-0.0038840471 -0.017100558 0.0018855138)
(-0.0028761466 -0.016382584 -0.0015710562)
(0.00030962531 -0.013740625 -0.0018361464)
(-0.0027514544 -0.013551638 -0.0026528563)
(-0.0015735592 -0.010306851 5.0594688e-05)
(-0.0029605964 0.0031963012 0.0004013204)
(0.0021782171 -0.01483228 0.0010508352)
(0.0018097245 -0.015187397 -0.00012517851)
(0.0026036738 -0.014718608 0.00042406541)
(-0.0039904139 -0.015973691 -0.0032249647)
(-0.0054389376 -0.013832176 -0.0026390406)
(0.00043877216 0.0019643971 -0.00071185272)
(-0.0031219402 0.0050017888 0.0003279395)
(0.0038201819 -0.014320043 -2.7080548e-05)
(0.0052481603 -0.014750869 0.0004010147)
(-0.0027289934 -0.015265648 -0.0011958063)
(0.0012005275 -0.0015791516 0.00074852961)
(0.00076486399 0.010339115 0.00089706264)
(0.0040180744 0.0094379969 0.0019067185)
(-0.002753238 0.0099155269 0.00082804572)
(-0.0044791718 0.002884539 0.0007034557)
(-0.0040929923 -0.00054220019 0.00028760812)
(-0.0015911866 0.0050361015 0.00088615461)
(-0.002422948 0.0094091835 -0.00018759119)
(-0.0030544696 0.010647899 -0.00020835566)
(-0.0039939557 0.00971972 -0.0018632197)
(-0.0011497143 0.0084683189 1.9079241e-05)
(0.0015774138 0.0096744296 0.0018063387)
(0.0029837664 0.0082597027 0.0020734745)
(0.0041891814 0.012118349 0.00032257706)
(6.3857969e-05 0.014596034 -0.00064033858)
(-0.0037838297 0.0099981009 -0.0035080423)
(-0.0020603128 0.0012394763 -0.0016782425)
(-0.0025140052 0.0039287527 -0.00096510789)
(-0.0036891769 0.01199747 0.00089109193)
(-0.0025470758 0.0075354981 0.0024765252)
(0.0011919026 -0.0011662564 -0.0013229983)
(-0.0030913563 -0.003041581 -0.00052193619)
(-0.00023457773 0.0064139087 -8.0645331e-05)
(-0.0044447922 0.010744426 0.00029651431)
(-0.0057930335 0.0094679891 -0.0010923044)
(-0.0034963417 0.0080286693 0.00066658794)
(0.00031741724 0.008270074 0.0027306368)
(0.0025151422 -0.0011130961 -0.00011103132)
(0.0017561008 0.0017911494 0.00045988182)
(-0.0014336837 0.010361949 0.00093738037)
(-0.0029564089 0.0076346985 -0.00084498019)
(0.0020004821 0.0027498448 0.0012149426)
(0.0046433748 -0.0023152017 0.0010812126)
(0.0046145496 -0.004530643 0.0010009865)
(0.005347065 -0.0084204588 0.0011312958)
(-0.0032521998 -0.011880988 -0.0013319975)
(-0.0057955463 -0.01190434 -0.0025397743)
(-0.0061429905 -0.011066944 -0.0025502871)
(-0.0048170595 -0.009667149 -0.0020502018)
(-0.0029660933 -0.0061921396 -0.0016924478)
(-0.0007022073 -0.0013905542 -0.0010337544)
(0.0024021584 0.00027608928 0.0014894908)
(0.003288706 -0.0051010333 0.0014569242)
(0.0023094813 -0.008435422 0.0013079142)
(0.0030183577 -0.0038570387 0.0016430595)
(0.0048329816 -0.0075632888 0.00099550202)
(0.0026072276 -0.010799361 -0.00096296435)
(-0.0022340344 -0.0097860931 -0.0029810334)
(-0.00023123628 -0.0073848033 -0.002969769)
(0.0031122184 -0.0072622279 -0.0044931109)
(0.003040042 -0.010384396 -0.0041080978)
(-0.0042283903 -0.010240787 -0.0027043691)
(-0.0054839194 -0.0095907648 -0.0029743954)
(-0.0033729724 -0.0065584027 -0.0021196779)
(-0.00021398991 -0.010053002 -0.0027159582)
(-0.00066993796 -0.0041676653 -0.0024942196)
(0.0038650421 -0.007455153 -0.0023820219)
(-0.00034412312 -0.011283972 -0.0023959075)
(-0.0053263276 -0.0083266288 -0.0024737426)
(-0.003854759 -0.0067548523 -0.0022098565)
(-0.00168462 -0.0035973767 -0.0026218119)
(-0.00079822789 -0.017141114 -0.0011625131)
(-0.0021512482 -0.017167925 -0.0017850413)
(-7.2568988e-06 -0.012072581 -0.0015362207)
(0.0015486912 -0.015109112 -0.0019839645)
(-0.0023277917 -0.016803877 -0.0021779098)
(-0.00036212728 -0.011820673 -0.0018390916)
(0.0020037358 -0.012903289 0.000969936)
(0.0036881153 -0.014351507 0.0008031642)
(0.0014779361 -0.01629215 -0.00051041798)
(-0.00052722822 -0.017904892 -0.0010683759)
(-0.0023097065 -0.014544005 -0.00084199252)
(-0.0037141181 -0.014125965 -0.0014806018)
(-0.0021906401 -0.012272124 -0.0012707755)
(0.001477658 -0.013568771 -0.0022729281)
(0.0010361417 -0.015277881 -0.0033271638)
(0.0007880589 -0.016309124 -0.0021032716)
(-0.00030517931 -0.01678707 -0.00018879732)
(-0.00051583558 -0.019077271 -0.00085242821)
(-0.0022184857 -0.016702098 -0.00055870962)
(-0.004103518 -0.013986971 -0.0012045606)
(-0.0028495285 -0.011637137 -0.00012495701)
(0.0018079296 -0.012806921 0.00064926096)
(0.0026006411 -0.015937995 0.0012556508)
(0.0024163427 -0.017124603 -0.00049995198)
(-0.00040225603 -0.017740089 -0.0011485668)
(-0.0011537565 -0.015891734 -0.00176565)
(-0.0034545218 -0.013476404 -0.0020792921)
(-0.00051498088 -0.011699384 -0.00055422987)
(0.002638835 -0.018556897 0.00056633363)
(0.00054647269 -0.018760982 0.00054863966)
(-0.0058382589 0.018254845 -0.0022650103)
(-0.0064253823 0.015920446 -0.0028013718)
(-0.0041709297 0.0047601081 -0.00068760369)
(0.0015788483 0.01679488 -0.0030032152)
(-0.0033064307 0.017134708 -0.003587406)
(0.0019475524 0.0042812081 -0.00029453458)
(0.0035303074 0.0026504305 0.00028616892)
(0.0079310885 0.013998497 0.0021698761)
(0.0058678149 0.01782551 0.00091122434)
(-0.002388231 0.018967318 -0.0023037132)
(-0.0060607056 0.016478819 -0.0028192925)
(-0.0067285882 0.012037774 -0.0023563225)
(-0.0030209763 0.00086380517 0.00019619228)
(0.0007646253 0.0090287651 -0.001162379)
(0.0051830982 0.015879609 -0.0029159478)
(0.0056585751 0.017969506 -0.0010257407)
(0.0039290633 0.018234647 0.0015530128)
(-0.0023158676 0.020403228 0.00059201128)
(-0.004895974 0.01847392 -0.00079631559)
(-0.0041843802 0.013434841 -0.00027274885)
(-2.7701152e-05 0.001838422 0.00058379687)
(0.0040348636 0.0028658919 0.0017770714)
(0.0079505043 0.01475618 0.0045348413)
(0.0066516982 0.018697582 0.0030332231)
(-0.00088183019 0.019438128 -0.00081737849)
(-0.0038350127 0.018002429 -0.0036091918)
(-0.0039949506 0.013637495 -0.003082088)
(0.0022187039 -0.00015089584 1.0598004e-05)
(0.0061878055 0.017343719 0.0017617858)
(0.0055125597 0.020148625 0.0012779656)
(-0.0039332848 0.0060876312 0.00037736736)
(0.00504238 -0.015163586 0.0054062965)
(-0.0048211518 -0.015622361 0.0035489241)
(-0.0036840855 -0.012009399 0.0034151618)
(0.0021167066 -0.011047961 0.0019104473)
(0.006535781 -0.014406054 0.001797727)
(-0.00023993936 -0.015682303 -0.0024049092)
(-0.0019627964 -0.010991417 -0.0027676697)
(0.0012220494 0.0049150737 -0.0008661735)
(-0.00078529843 0.0069283109 -0.00055084889)
(1.2081791e-05 0.00016139256 0.0015267914)
(0.003113203 -0.012979154 0.0055067497)
(-0.0014829973 -0.015869906 0.0042374168)
(-0.0062199806 -0.015960269 0.0015211461)
(-0.0034743102 -0.012957451 0.0012025519)
(0.0013013008 -0.0049131315 0.0021916325)
(0.00078761612 0.0019992314 0.0007726697)
(-0.00018984922 0.0017315578 0.0014817169)
(0.0025428953 -0.010781361 0.0017898521)
(0.0027459296 -0.015551441 0.0053451277)
(0.0028502318 -0.014311314 0.00085016228)
(0.00067088566 -0.016054834 -0.0020083563)
(-0.0031483548 -0.013109561 -0.0047781146)
(0.0014897804 0.0032551074 -0.00023205593)
(0.00012805832 0.0058070503 2.1406319e-05)
(-0.00014576951 -0.0045371895 0.00059253275)
(0.0030090667 -0.014421025 0.002754956)
(0.0025326523 -0.015343534 0.00067969895)
(-0.0060294242 -0.014968319 -0.00041611537)
(0.0034700311 0.0069145939 0.00069595857)
(0.00052924131 0.0095689794 0.00069430854)
(0.0054069537 0.012466092 0.0016050711)
(-0.0038980889 0.010126847 0.00055014026)
(-0.00019820398 0.00051500842 0.0016660572)
(-0.0030528019 -0.001342786 -0.00015643926)
(0.0027459213 0.010033882 -0.00067398444)
(-0.0029353666 0.010823493 -0.0009195452)
(-0.0034053376 0.0096563456 -0.0029800354)
(-0.0019763097 0.0088485709 -0.001775722)
(0.00084335879 0.010615846 0.00054047933)
(0.0040382833 0.0075148487 0.0030238131)
(0.0044458509 0.0099765998 0.0030266927)
(0.0034759288 0.011327108 0.0016698316)
(-0.00070897706 0.011151812 -0.001301614)
(-0.00029559625 -0.00071712608 -9.6681012e-05)
(-0.0028338262 0.0034852674 0.0010417233)
(0.00048057359 0.009145171 0.001051505)
(0.0023569936 0.0091441859 0.00072882892)
(0.0036240669 0.011238736 0.0042995177)
(-0.0010992967 0.0081424004 0.0030214947)
(-0.00059454808 -0.0029310903 -0.00082964816)
(-4.7429666e-05 0.0096594943 -0.00035800237)
(-0.0041909851 0.010387227 -0.0022044071)
(-0.001968498 0.0080654088 -0.0013424612)
(0.0008818245 0.010154596 0.0018421407)
(0.0037859481 0.0075236518 0.0049472996)
(0.0024989439 0.0020792084 0.0014705306)
(0.0051989854 0.0063236676 -0.0001916401)
(-0.0047131254 0.012550994 -0.00014758516)
(-0.0012056167 0.0099426466 -0.00032707721)
(0.0010124109 0.0015312668 0.0027883371)
(0.0047812367 -0.0018111053 0.0029609097)
(0.0051240692 -0.0048072143 0.0026301391)
(0.0061837581 -0.0091404004 0.0032455309)
(-0.0049619955 -0.010828104 -0.00033814607)
(-0.00611957 -0.0089617161 -0.0013802826)
(-0.0051671644 -0.0046952962 -0.0017320342)
(-0.0037875934 -0.0045057154 -0.0016384241)
(-0.0026075387 0.0012834854 -0.0015379981)
(0.0017770464 0.0034760902 0.00099088191)
(0.0042993659 -0.0014715009 0.0024224032)
(0.0047106725 -0.006443833 0.0026561261)
(0.0047364317 -0.0075272925 0.002871478)
(0.0051263759 -0.0086546911 0.0036529562)
(0.0043334676 -0.01021569 0.0028958181)
(-0.0037503294 -0.0085435626 -0.0020742323)
(-0.0018359026 -0.00078337958 -0.0011277418)
(0.00085961213 0.00071613531 -0.00082899674)
(0.0032485167 0.00049576319 0.00065841814)
(0.0061790344 -0.0071023733 -0.0012616421)
(0.00081177056 -0.010505641 -0.0024335234)
(-0.0059036558 -0.0088541901 -0.0026127735)
(-0.0030682431 -0.002874898 -0.002257568)
(-0.0013877283 8.0879859e-05 -0.0020928326)
(0.00097032878 0.00299193 0.00098547881)
(0.0047842733 -0.0046924359 0.001697334)
(-0.001581605 -0.01047704 -0.000400082)
(-0.0064181014 -0.0053576478 -0.00087812698)
(-0.0048753181 0.00053192172 -0.0007075868)
(-0.001546224 0.0029616149 -0.00094301286)
(-0.002272967 -0.01622519 0.000783582)
(-0.0030869931 -0.013702104 -0.00010498166)
(-0.0015206567 -0.013599671 -2.5011967e-05)
(0.0011394565 -0.011591784 0.0010382863)
(0.0010060897 -0.011901487 0.00027830635)
(0.0033751092 -0.011269677 -2.3551911e-05)
(0.0034735208 -0.014809659 0.0012949793)
(0.0026906719 -0.016354787 0.0010212384)
(0.0001122163 -0.017825192 0.0011259513)
(-0.0014765581 -0.015646855 -0.00048886661)
(-0.0029422174 -0.014999554 -0.000542853)
(-0.0028761478 -0.012579964 -0.00056689418)
(-0.00031829115 -0.01429219 -0.00065611056)
(0.0007074805 -0.013598269 -0.0022810311)
(0.0017190072 -0.012120517 -0.0024722373)
(0.0027016938 -0.015004126 -0.0026907353)
(0.0016659716 -0.016474513 -0.0019327359)
(-0.00011087357 -0.017583227 -0.00091658462)
(-0.0034653187 -0.014064821 0.0004211615)
(-0.0029460033 -0.011579909 0.0011960638)
(0.0012004825 -0.012864905 -0.00056792983)
(0.0020085051 -0.017952983 -0.00045539498)
(0.0017143601 -0.019817997 -0.00085349023)
(0.00051555693 -0.019471511 -0.00073693503)
(-0.0024298088 -0.015088679 -0.001276775)
(-0.0028536084 -0.013451723 -0.002321826)
(-0.0025659967 -0.011589702 -0.0021125039)
(0.0013220404 -0.012384338 -0.00088016297)
(0.0032712022 -0.017273413 -0.00092071328)
(0.0012481988 -0.018233039 -0.0005151399)
(-0.0064305206 0.016525896 -0.0014914912)
(-0.0040681271 0.0071353859 -2.833627e-05)
(-0.0028829665 0.0020683296 0.00032287718)
(0.001674827 0.0014938878 0.0023322166)
(0.0015657478 -0.00049872683 -0.00025631255)
(0.0043612183 0.0015604717 -0.0015466959)
(0.0069978652 0.012631496 0.00015722418)
(0.0065811277 0.017688762 -0.00023435696)
(9.7308369e-05 0.019162305 -0.0029522352)
(-0.0044795337 0.016628437 -0.0052749081)
(-0.0061490229 0.015088486 -0.0044329757)
(-0.0022083378 0.0023908702 -0.0011415079)
(-0.0012385908 0.0033675381 -0.001944469)
(0.0027975807 0.0090029817 -0.0030246089)
(0.003685203 0.003578101 -0.0023658987)
(0.0068890497 0.013440425 -0.0028297504)
(0.0067262912 0.01778643 -0.0019082509)
(-0.0018561283 0.019277873 4.8337746e-05)
(-0.0059798486 0.015548769 0.0015612319)
(0.00047500831 0.0014349794 0.0020060396)
(0.0036835565 0.0027199921 -0.0001557908)
(0.0082255763 0.016052687 8.9406981e-05)
(0.0076403461 0.020569092 -1.6981594e-05)
(-0.0011910363 0.020779955 -0.0025551212)
(-0.0053192194 0.016941681 -0.0032950739)
(-0.0037937856 0.010596346 -0.0026226515)
(-0.0017226576 0.0019810606 -0.0014405331)
(0.0020375591 -0.0014636815 -0.0013705313)
(0.0066052403 0.015717382 -0.0024641058)
(0.0057838065 0.019519773 -0.0024802828)
(-0.0028488627 0.0014850277 0.00057703897)
(0.0052910963 -0.014090164 0.0035486252)
(-0.0024647844 -0.014588226 0.0027476433)
(-0.00024797504 -0.013433431 0.0039713569)
(0.00065936856 -0.014515101 -4.2974935e-05)
(0.0020846941 -0.013885884 -0.0038409691)
(-0.0010367324 -0.0144436 -0.0055514862)
(0.0020804602 0.0030657841 -0.0017485614)
(0.00095538147 0.0067124244 -0.0017907508)
(0.00046937356 -0.00059939312 2.7277749e-05)
(0.0037261798 -0.012614391 0.00014068844)
(0.0043634052 -0.015040185 0.0012835575)
(-0.0022434817 -0.015506768 -0.0014687594)
(-0.0022546774 -0.013627054 -0.00095723189)
(0.0004896142 -0.014479549 0.0011312623)
(-0.0020240492 -0.014539002 0.0052232852)
(0.002505198 0.0020329959 0.00061903258)
(4.6908765e-05 0.0055308985 0.00076322441)
(0.0052843254 -0.01135664 0.0011585727)
(0.0039913312 -0.01531676 0.0018097859)
(0.0011243922 -0.014590098 -0.00041931105)
(-0.0012371879 -0.015853164 -0.0036326802)
(0.0034736053 0.0045312595 -0.0022204463)
(-0.00018590238 0.0074455095 -0.0023657513)
(0.0027622561 -0.003496751 0.0012549786)
(0.0023072139 -0.014361025 0.0040930739)
(0.00068070753 -0.014595821 0.0023049129)
(-0.00050708331 -0.015294796 -0.00015888344)
(-0.0046360561 -0.015609028 1.4669295e-05)
(0.0027601581 0.0049520834 -0.0016466292)
(0.0011174056 0.007738988 0.0017685682)
(0.0043573969 0.010397131 -0.0021159357)
(-0.0034054293 0.009930993 -0.0022034469)
(0.0019460148 -0.0044446991 0.0021593589)
(-0.00054096072 -0.0048101118 -0.00022286527)
(0.0016107353 0.0017498849 -0.002792038)
(-0.0025110675 0.010290959 -0.0040365849)
(-0.0013316458 0.0079816488 -0.0037463324)
(0.0016791034 0.010022488 2.8546694e-05)
(0.0046439765 0.0073954275 0.0014126395)
(0.0058907433 0.0092113149 0.0018955624)
(0.0046924569 0.010753498 -0.00010444003)
(0.0016930977 0.012021466 -0.0022002814)
(0.00091823324 0.00024702491 -0.00018680683)
(8.8822561e-05 -0.0027724568 7.4353059e-05)
(-0.0014084416 0.0093356045 0.0030006634)
(-0.0018235741 0.0081408937 0.0012583121)
(0.002449521 0.009260756 0.00064288569)
(0.005604719 0.010981675 -0.001134833)
(0.002505684 0.010367037 -0.0018809239)
(0.0031416516 0.0041021952 -0.0015883926)
(-0.00099255784 0.0063963416 -0.0024326419)
(-0.00031854199 0.0089153341 -0.0036311447)
(0.00059454878 0.010585867 -0.0017802817)
(0.0043839587 0.0081984659 0.0018386885)
(0.002246899 0.0094735316 0.0032757488)
(0.0016393164 0.00059500218 0.00045838783)
(0.0006609107 -0.0026686184 0.00038358533)
(-0.0017148027 0.010476069 -0.0028123634)
(-0.0024455145 0.0089449889 -0.00040156432)
(0.0010525511 -0.00191058 0.004325777)
(0.0035188438 -0.0041212789 0.0041610084)
(0.0056474865 -0.0089867884 0.0040057227)
(0.006217684 -0.010602958 0.0034723355)
(-0.0012244557 -0.010014237 0.00011363197)
(-0.0055912184 -0.0078749267 -0.0012686783)
(-0.0045383847 -0.0041346629 -0.0011672768)
(-0.0027265666 -0.00066396442 -0.00096475776)
(0.0011595096 0.0032182652 0.0011310015)
(0.0038972761 -0.00082962948 0.0028254253)
(0.0049634078 -0.0050905418 0.0039890698)
(0.0052015244 -0.0077703693 0.0045035401)
(0.0053178749 -0.0078757545 0.0040637497)
(0.00539734 -0.0099155376 0.0040080799)
(-0.002427064 -0.0099000535 0.00031972119)
(-0.0046534433 -0.0073271929 -0.00071295757)
(-0.0030582223 -0.00028335704 -0.00049470149)
(0.00023992372 0.0011129848 -0.00053889739)
(0.0038521454 -0.0025454044 -0.00054646619)
(0.0052275002 -0.0048671718 -0.00070689976)
(0.0053103671 -0.0091139816 -0.00077896247)
(-0.0030097172 -0.0095202869 0.0016495879)
(-0.0020487096 0.0013561141 -0.00099959964)
(0.0013699192 0.0028781591 0.00053369538)
(0.0040111507 -0.0024462583 0.0022441474)
(0.0050379251 -0.0055883074 0.0030583631)
(0.0050684132 -0.009388284 0.002860214)
(-0.0047521903 -0.0090340283 0.0029503686)
(-0.0045630484 -0.0066879599 0.002629666)
(-0.0025946952 0.0014582634 0.0018167986)
(-0.0024297197 -0.01622856 0.0039458317)
(-0.0023571508 -0.011593712 0.0025564281)
(0.0001941645 -0.013113104 0.0017017658)
(0.0033326612 -0.013384946 0.0031930442)
(0.002286429 -0.015430509 0.0037367171)
(0.0010995926 -0.014806981 0.002910583)
(-2.6232624e-05 -0.017284708 0.002143964)
(-0.0021336599 -0.016568628 0.0012247236)
(-0.0035151316 -0.014843185 0.00029548053)
(-0.0020144117 -0.011731285 -0.0010057128)
(-1.9549839e-05 -0.013870843 -9.9107533e-05)
(-0.00172063 -0.013483272 0.002760752)
(-0.0013099783 -0.012943977 0.0021308)
(0.00012005888 -0.012578293 -0.00095411927)
(0.0022375031 -0.012728142 -0.00057146415)
(0.0039978731 -0.012366094 -0.0011190044)
(0.0038252481 -0.014261017 -0.0010082951)
(0.0018452683 -0.017923061 0.00022013024)
(-0.0013979652 -0.016999322 -0.00017160723)
(-0.0028692679 -0.014339166 -0.00048920634)
(-0.0013723633 -0.011632262 -0.00014565725)
(0.0015118419 -0.012460947 -0.0003175271)
(0.0018289361 -0.019671722 -0.00024024953)
(-0.0012315664 -0.018049095 -0.00050121238)
(-0.0036703482 -0.015261364 -0.001412446)
(-0.002525139 -0.013073273 -0.0011105594)
(-6.3728428e-05 -0.01293679 0.00017068178)
(0.0021479994 -0.012980395 0.0014255083)
(0.0033666241 -0.013065449 0.0014278435)
(0.0021339152 -0.016903298 0.0016525526)
(-0.0037179261 0.017049823 0.00010921239)
(-0.00051461389 0.0011537124 -0.0010368267)
(-0.000287506 -0.0026312992 -0.00095360086)
(0.0027815428 0.0071244727 0.0017101107)
(0.0036072472 0.015131444 0.0036087878)
(0.0034779523 0.016578715 0.0027403762)
(0.004616387 0.018842758 0.0017030207)
(-0.0031115074 0.018405194 -0.0024907128)
(-0.005352999 0.015117458 -0.0040264323)
(-0.0010880524 0.0027506731 -0.0030913565)
(-0.00063926431 0.0097362005 -0.0033841899)
(-0.00093413976 0.0095831882 0.0011104382)
(-3.0736964e-05 0.0042384368 0.0010023399)
(0.001654679 0.0021567731 -0.00033599849)
(0.0046865968 0.002853389 -0.00029090551)
(0.0057142624 0.0031626595 -0.00029229215)
(0.0089918524 0.013606161 -9.4534247e-05)
(0.0041068339 0.018818841 -0.00039683155)
(-0.0047232608 0.018574573 -0.0011785058)
(-0.0048342863 0.01517327 -0.0018122879)
(0.0015224638 0.001547708 -0.0018962547)
(0.0034189348 0.0040094561 -0.0005509054)
(0.0070347511 0.018133914 -0.0022744107)
(-0.0030694001 0.0196253 -0.0017629231)
(-0.0060748401 0.014856032 -0.0029644443)
(-0.0018575298 0.001052218 -0.0013244986)
(6.2450878e-05 0.0012051877 0.00019780901)
(0.003715114 0.00095429251 0.0006051997)
(0.0044059974 0.0071408131 -0.00011922434)
(0.0054105144 0.017509838 -2.3703379e-06)
(-4.6656528e-05 -0.012634543 -0.0010686966)
(0.0031270268 -0.013371562 -0.0027074169)
(-0.00044512704 -0.014580459 -0.003847537)
(-0.0037965227 -0.014668236 -0.0017046413)
(0.00069811354 -0.014939264 -0.0031487484)
(0.0012695472 -0.014265889 -0.0030452609)
(0.0034203761 -0.0025084255 -0.0017685015)
(-0.00032107962 0.0034288681 -0.0020826511)
(0.0051997869 -0.013640386 0.0014402856)
(0.0021043537 -0.014914466 0.00067788374)
(-0.00093373564 -0.01399338 -0.00057930829)
(0.0022987428 -0.013830054 -0.0014183767)
(0.0025088191 -0.013269601 -0.00094557771)
(0.0015495683 -0.013706846 0.00084137963)
(0.0031534907 -0.013145039 0.001048477)
(-0.00085001271 -0.014948868 0.0019579904)
(-0.00042688533 -0.007846928 0.0010984653)
(0.0019218375 0.0061023515 -6.1138291e-05)
(-0.00045586669 0.0025752285 -0.0013210189)
(0.0048404357 -0.013406381 -0.0032829839)
(0.0039642552 -0.014102803 -0.0017491882)
(-0.0010438276 -0.01432011 0.0020828143)
(0.0032300254 -0.006011371 -0.0011778451)
(0.0014661866 0.0002584438 0.00043987376)
(0.0064465663 -0.014001661 0.0014940026)
(0.0027162298 -0.016222089 0.00067760077)
(-0.00045941507 -0.014413593 0.0011173408)
(0.0013450633 -0.014724592 0.00045797729)
(-0.002493604 -0.014255413 -0.00066738199)
(0.000939318 -0.0035935388 0.00044463577)
(0.00048741933 0.011120975 -1.9006351e-05)
(0.0011473403 0.0018043395 0.00040961292)
(0.00056630971 0.0072682891 -0.00061752221)
(0.00033051427 0.0035585427 -0.00060505527)
(0.0017227606 0.0003433428 -0.0022574282)
(-0.00047848293 0.0045732682 -0.0020241341)
(-0.0010688283 0.0084159119 -0.0043089189)
(0.0014473333 0.0083636133 -0.0018300609)
(0.0039467331 0.011238557 -0.0014606672)
(0.00081114081 0.0088598213 -0.0019754452)
(0.0025842318 0.00459837 -0.0011306703)
(0.0028937107 0.001633286 0.00092178952)
(0.0024112383 -0.0011845746 0.001373483)
(0.0018962331 -0.0039877255 0.0012114313)
(0.0022241801 0.00065959336 0.001290061)
(0.00084940439 0.0083786325 0.00016990117)
(-0.0027157425 0.0084514747 0.0014730988)
(0.00067325659 0.010453436 -0.00048282279)
(0.0035955719 0.0082966277 -0.0020385825)
(0.0039360438 0.0081635208 -0.0038816366)
(0.0020004569 0.0039748427 -0.00035813369)
(0.0018018619 -0.0026299884 0.0021781071)
(0.00086067744 0.007036074 0.0043820794)
(0.0031605255 0.0079983074 0.0021495933)
(0.0043986734 0.011232618 0.0042264784)
(-0.00083412924 0.010907587 0.00048811203)
(0.0022966365 -0.0037145975 0.00194001)
(0.00018441082 -0.0042224657 0.00034450692)
(-0.00054763955 0.0053655148 -0.00080735024)
(-0.0020603678 0.0081659906 0.0013929259)
(0.0024217366 -0.010524287 0.0027803587)
(0.0019826993 -0.010314926 0.0030218403)
(0.00096048878 -0.010553845 -0.0023354654)
(0.0032554362 -0.009841052 -0.0049643048)
(1.982891e-05 -0.010885752 -0.0041049258)
(-0.003682642 -0.0092246112 -0.0037169825)
(-0.0030360454 -0.0065513983 -0.0013993572)
(-0.0013895924 -0.002140085 -0.00096653962)
(0.0023785058 -0.0048760391 0.0020119249)
(0.0049754128 -0.0085357159 0.0034408521)
(0.0062467331 -0.0097460651 0.0039430734)
(0.0060434494 -0.01010261 0.0046275741)
(0.004455238 -0.0098422625 0.0050057362)
(0.0012830256 -0.010013344 0.002950573)
(-0.0045482162 -0.00713322 0.00034373632)
(-0.0037579384 -0.0044878372 0.00014556059)
(-0.0032261624 -0.00211439 0.00048264463)
(0.0010666314 0.0038181692 0.00034582272)
(0.0046506056 -6.6281472e-05 0.00097841552)
(0.00648344 -0.0057679974 0.0018221231)
(0.0071153377 -0.0087805203 0.0023640932)
(0.0035651851 -0.010623419 0.0029142057)
(-0.0014633186 -0.0097682779 0.0016738458)
(0.00080412516 -0.004385645 0.0020319929)
(0.0022414298 -0.0071935665 0.002437981)
(0.0043597337 -0.010198077 0.0027885358)
(0.0041676243 -0.011185457 0.0018422787)
(-0.004013502 -0.0096960713 -0.001825503)
(-0.0039005436 -0.0087602072 -0.0013168192)
(-0.002533301 -0.0036169745 -0.00027984156)
(-0.00082154107 -0.014145088 0.0043322271)
(-0.0017453096 -0.0132762 0.0043417199)
(-0.0019246933 -0.015231291 0.0043901505)
(-0.00072924864 -0.017538767 0.0033313163)
(-0.0010299616 -0.017815032 0.0024061283)
(-0.00088574174 -0.017293671 -0.00099049248)
(-0.0015148711 -0.016312819 0.0010061364)
(-0.0029589368 -0.013675126 0.0003415095)
(-0.0033645675 -0.011318794 -0.00015941189)
(-0.0020033319 -0.011457013 0.00040258427)
(0.00090648193 -0.011856132 0.002633751)
(-0.00048808782 -0.016105896 0.0042266098)
(-0.0018919611 -0.01217348 0.0041177882)
(-0.0011470985 -0.015690277 0.0019620088)
(-0.0040381431 -0.013915055 0.0011417338)
(-0.0021858633 -0.011782114 -0.0013631822)
(0.0013262717 -0.012025128 0.00067108566)
(0.0014249241 -0.011610841 0.0017948699)
(0.0017238724 -0.019528669 0.002252961)
(-0.0017660778 -0.01864683 0.0014996158)
(-0.0033673469 -0.016035203 0.00064933952)
(-0.0016495343 -0.012518068 0.00076880603)
(0.00051903172 -0.012977404 0.0014502105)
(0.0029054181 -0.012322779 0.003276709)
(0.0034198528 -0.014998889 0.0035515128)
(0.0017100963 -0.016545326 0.0032615502)
(-0.0025617746 0.016187597 0.0045310753)
(-0.001993059 0.014586658 0.0056634768)
(-0.0015895929 0.014269759 0.0057751749)
(0.0011745876 0.018440601 0.005594667)
(0.0011296656 0.019507101 0.0034172859)
(0.0018076312 0.019326739 -0.00035587555)
(0.0015891696 0.018565555 -0.00054763709)
(-0.0034100807 0.015662723 -0.0015342915)
(-0.003586338 0.0078230442 -0.0029049135)
(-0.0016298983 0.00057232702 -0.0016605213)
(0.00016760339 0.0037625849 0.00063490053)
(-0.0010808763 0.016978493 0.0047309101)
(-0.0018524992 0.0047662154 0.002151941)
(-0.0036422365 0.017425547 -0.0011255844)
(-0.0048765301 0.01319223 -0.0010938282)
(-0.00016936097 -0.001339507 -0.0016495033)
(0.0021235346 0.0022588989 -0.0008244989)
(0.0035857023 0.0048211527 0.00092258594)
(0.0074498264 0.018657118 0.0011494939)
(-0.0028135966 0.01985754 0.001142024)
(-0.0063817908 0.011594513 -0.00041434907)
(-0.0023876072 0.0019240213 -0.00049435307)
(0.00072768875 0.0045605304 0.0016499397)
(0.0044916808 0.0032467495 0.0027778691)
(0.0066499041 0.014288098 0.003445346)
(0.0057719513 0.018188176 0.002913359)
(-0.0015435343 -0.0040943828 0.00053734678)
(0.0027049964 -0.013682893 -0.0041217633)
(0.00028050755 -0.015258483 -0.005146087)
(-0.00040021197 -0.014927316 0.0013276622)
(0.002329147 -0.0060759097 0.0040377766)
(0.001803839 -0.010373377 0.0039266963)
(0.0016093715 0.00097437725 0.0011166621)
(0.00096825686 -0.0035106903 -0.00051109447)
(0.0030572266 -0.012980689 -0.004226803)
(0.0010168101 -0.013906933 -0.0029852526)
(-0.0027356243 -0.013992791 -0.00078750312)
(-0.0025403286 -0.01317744 7.0117495e-05)
(0.00053264544 -0.013882913 -0.0011814216)
(-0.0019592839 -0.00048536946 -0.00012971565)
(0.0045258203 -0.014318502 0.00073449412)
(0.0031746564 -0.01448777 -0.00037839336)
(0.00035803422 -0.013184956 -0.0016726583)
(-0.00068314217 -0.014118078 -0.00088724655)
(-0.0014307656 -0.01319077 -0.00015414636)
(-0.00068043365 0.0073230139 0.0012511693)
(0.0017508011 -0.016037442 -0.0013557047)
(-0.0013873085 -0.014455384 -0.001486218)
(-0.00066994424 -0.013847868 0.0012619313)
(0.0015763893 -0.014717678 0.00084536379)
(-0.0044051995 -0.014626546 -0.0025525764)
(0.0027717741 0.0034753837 0.00021755088)
(0.0019873743 0.0075809718 -0.0015054455)
(0.003198099 0.0062165022 -0.0031141427)
(0.0027565507 0.011353826 -0.0036122214)
(-0.0036370303 0.012442947 -0.0026936913)
(-8.2234571e-05 0.0081588782 0.00064590196)
(-0.00087533232 0.011824478 -0.00027902584)
(-0.0013291431 0.0083533966 0.0011586005)
(0.0017267977 0.0077827314 -0.0012080136)
(0.0021695972 0.0072611815 -0.0041967281)
(0.0022041901 0.0041598209 -0.0031342837)
(0.001542957 0.0043098617 -0.0017110802)