/*--------------------------------*- C++ -*----------------------------------*\
| =========                 |                                                 |
| \\      /  F ield         | OpenFOAM: The Open Source CFD Toolbox           |
|  \\    /   O peration     | Version:  v2012                                 |
|   \\  /    A nd           | Website:  www.openfoam.com                      |
|    \\/     M anipulation  |                                                 |
\*---------------------------------------------------------------------------*/
FoamFile
{
    version     2.0;
    format      ascii;
    class       volScalarField;
    location    "330/leftSolid";
    object      T;
}
// * * * * * * * * * * * * * * * * * * * * * * * * * * * * * * * * * * * * * //

dimensions      [0 0 0 1 0 0 0];


internalField   nonuniform List<scalar> 
130
(
855.97146
855.89121
855.77038
855.61154
855.43154
855.23537
855.03078
854.82619
854.6328
854.45628
854.31114
854.20286
854.1433
855.91015
855.84552
855.73024
855.57018
855.37057
855.14661
854.91244
854.67396
854.44403
854.23427
854.06141
853.93323
853.86091
855.77948
855.72332
855.6109
855.4424
855.21513
854.93397
854.64472
854.35245
854.05803
853.79271
853.57362
853.4124
853.31826
855.56976
855.51003
855.38866
855.20354
854.94799
854.63362
854.27479
853.90091
853.52248
853.15666
852.84555
852.62034
852.49663
855.24753
855.18447
855.05775
854.86164
854.58412
854.24329
853.85342
853.41793
852.97263
852.54717
852.20474
851.95331
851.81381
854.84039
854.77261
854.64742
854.45451
854.17989
853.85254
853.49605
853.09369
852.63438
852.15538
851.79425
851.54002
851.39697
854.3964
854.33386
854.21911
854.04888
853.81694
853.52028
853.20503
852.85828
852.47395
852.04628
851.68038
851.42497
851.29209
854.04663
853.99179
853.88655
853.73014
853.52545
853.27543
853.00376
852.71222
852.39929
852.08227
851.80656
851.59862
851.47361
853.8607
853.80572
853.69218
853.52859
853.33479
853.11545
852.88043
852.63368
852.3868
852.14954
851.9339
851.77026
851.6692
853.74824
853.69741
853.59399
853.43762
853.24259
853.03535
852.82335
852.61172
852.40247
852.1987
852.01156
851.86236
851.76296
)
;

boundaryField
{
    minX
    {
        type            zeroGradient;
    }
    minZ
    {
        type            zeroGradient;
    }
    maxZ
    {
        type            zeroGradient;
    }
    leftSolid_to_bottomWater
    {
        type            compressible::turbulentTemperatureCoupledBaffleMixed;
        refValue        nonuniform List<scalar> 
130
(
984.44739
979.22083
977.77501
975.62882
975.55777
975.30269
975.02342
974.69332
975.19579
974.48734
974.91892
974.61088
974.64094
983.16838
981.25525
980.02389
979.3329
977.74989
976.90311
976.5397
975.40597
975.16433
974.06896
974.06427
973.64433
973.11487
982.64179
982.28894
982.01058
981.91737
980.66135
974.49222
973.60086
973.71333
971.02996
970.74014
971.34649
971.73792
969.81123
984.31043
983.64104
982.85259
982.31571
980.01036
977.47128
972.59133
969.17415
965.62439
958.99189
953.00643
949.44587
946.79466
983.27775
982.52842
981.94206
981.59833
977.71051
973.55588
970.57456
962.03786
954.34063
946.45538
944.56913
941.67691
939.28486
980.9746
978.78045
978.53809
977.96054
972.27616
967.5924
968.03934
967.37358
959.23392
939.70317
939.72779
939.27276
936.49262
974.30693
972.16429
971.3617
970.9958
970.65392
964.56477
964.38956
963.76527
963.1135
948.73987
939.97885
936.99298
936.99895
969.95802
968.75329
968.31686
967.68361
966.97063
964.45417
963.36036
962.86718
960.44573
956.31212
954.05397
951.79578
946.72833
973.55792
972.44608
969.43266
965.76534
964.82569
963.70944
962.80829
961.1169
960.49396
960.25838
957.63844
957.00931
954.22508
971.39058
970.54351
969.70647
967.35809
963.58881
962.34004
961.82294
962.1307
962.34387
961.52433
959.52395
958.0517
953.1007
)
;
        refGradient     uniform 0;
        valueFraction   nonuniform List<scalar> 
130
(
0.0075140686
0.0075140686
0.0075140686
0.0075140686
0.0075140686
0.0075140686
0.0075140686
0.0075140686
0.0075140686
0.0075140686
0.0075140686
0.0075140686
0.0075140686
0.0075140686
0.0075140686
0.0075140686
0.0075140686
0.0075140686
0.0075140686
0.0075140686
0.0075140686
0.0075140686
0.0075140686
0.0075140686
0.0075140686
0.0075140686
0.0075140686
0.0075140686
0.0075140686
0.0075140686
0.0075140686
0.0075140686
0.0075140686
0.0075140686
0.0075140686
0.0075140686
0.0075140686
0.0075140686
0.0075140686
0.0075140686
0.0075140686
0.0075140686
0.0075140686
0.0075140686
0.0075140686
0.0075140686
0.0075140686
0.0075140686
0.0075140686
0.0075140686
0.0075140686
0.0075140686
0.0075140686
0.0075140686
0.0075140686
0.0075140686
0.0075140686
0.0075140686
0.0075140686
0.0075140686
0.0075140686
0.0075140686
0.0075140686
0.0075140686
0.0075140686
0.0075140686
0.0075140686
0.0075140686
0.0075140686
0.0075140686
0.0075140686
0.0075140686
0.0075140686
0.0075140686
0.0075140686
0.0075140686
0.0075140686
0.0075140686
0.0075140686
0.0075140686
0.0075140686
0.0075140686
0.0075140686
0.0075140686
0.0075140686
0.0075140686
0.0075140686
0.0075140686
0.0075140686
0.0075140686
0.0075140686
0.0075140686
0.0075140686
0.0075140686
0.0075140686
0.0075140686
0.0075140686
0.0075140686
0.0075140686
0.0075140686
0.0075140686
0.0075140686
0.0075140686
0.0075140686
0.0075140686
0.0075140686
0.0075140686
0.0075140686
0.0075140686
0.0075140686
0.0075140686
0.0075140686
0.0075140686
0.0075140686
0.0075140686
0.0075140686
0.0075140686
0.0075140686
0.0075140686
0.0075140686
0.0075140686
0.0075140686
0.0075140686
0.0075140686
0.0075140686
0.0075140686
0.0075140686
0.0075140686
0.0075140686
0.0075140686
)
;
        value           nonuniform List<scalar> 
130
(
856.9303
856.81136
856.68058
856.50678
856.32757
856.13094
855.92578
855.72024
855.53206
855.35155
855.21071
855.1009
855.04199
856.85984
856.78131
856.65764
856.49356
856.28353
856.05488
855.81975
855.57454
855.34449
855.12806
854.95644
854.82603
854.75026
856.72619
856.66781
856.55413
856.38618
856.15117
855.82575
855.53199
855.24277
854.93038
854.66487
854.45195
854.29485
854.18694
856.53058
856.46626
856.33988
856.15211
855.88116
855.55007
855.15723
854.76052
854.35828
853.94537
853.5916
853.34131
853.19861
856.203
856.13478
856.0046
855.80738
855.50274
855.13326
854.72385
854.22748
853.7278
853.24633
852.89228
852.62096
852.46451
855.78163
855.69786
855.57179
855.376
855.06075
854.70071
854.35025
853.9459
853.42886
852.80676
852.4485
852.19271
852.02982
855.29089
855.21273
855.09282
854.92115
854.68841
854.34823
854.03406
853.68524
853.29893
852.76652
852.33749
852.0615
851.92962
854.91109
854.84762
854.73991
854.57995
854.37145
854.1044
853.82659
853.53355
853.20478
852.85911
852.56853
852.3452
852.18309
854.75361
854.69072
854.55542
854.36552
854.16612
853.94005
853.70005
853.44246
853.19276
852.95553
852.72187
852.55476
852.43356
854.62571
854.56891
854.46
854.28719
854.06533
853.85027
853.63599
853.42827
853.22221
853.01385
852.81311
852.654
852.51817
)
;
        Tnbr            T;
        thicknessLayers List<scalar> 0();
        kappaLayers     List<scalar> 0();
        kappaMethod     solidThermo;
        kappa           none;
        alphaAni        none;
        alpha           none;
        field           T;
    }
    leftSolid_to_heater
    {
        type            compressible::turbulentTemperatureCoupledBaffleMixed;
        refValue        nonuniform List<scalar> 10(720.88517 711.8322 692.79362 661.7755 616.48017 616.33309 661.24618 691.93448 710.73259 719.61979);
        refGradient     uniform 0;
        valueFraction   nonuniform List<scalar> 10(2.08329e-05 2.08329e-05 2.08329e-05 2.08329e-05 2.08329e-05 2.08329e-05 2.08329e-05 2.08329e-05 2.08329e-05 2.08329e-05);
        value           nonuniform List<scalar> 10(854.13373 853.85117 853.30821 852.48603 851.80229 851.38546 851.2816 851.46397 851.65997 851.75391);
        Tnbr            T;
        thicknessLayers List<scalar> 1(0.001);
        kappaLayers     List<scalar> 1(0.0005);
        kappaMethod     solidThermo;
        kappa           none;
        alphaAni        none;
        alpha           none;
        field           T;
    }
    leftSolid_to_topAir
    {
        type            compressible::turbulentTemperatureCoupledBaffleMixed;
        refValue        nonuniform List<scalar> 
130
(
322.64052
343.60379
362.57318
380.07448
396.55153
412.27968
427.38427
441.78532
455.15286
467.46337
478.62122
488.44491
496.53898
322.63267
343.36848
361.89628
378.74357
394.3228
408.85555
422.40799
434.94126
446.29555
456.20091
464.27521
470.06613
473.01965
322.62495
343.39479
361.97356
378.88654
394.55219
409.20151
422.94412
435.81975
447.78747
458.71705
468.36708
476.34802
481.91166
322.61645
343.39232
361.99837
378.96489
394.726
409.54243
423.56795
436.89876
449.59193
461.65732
473.03069
483.49284
492.32548
322.60282
343.37081
361.97516
378.9452
394.71547
409.54851
423.59819
436.96239
449.69653
461.79961
473.17011
483.48156
491.78059
322.58635
343.33889
361.92872
378.88458
394.6403
409.45834
423.49375
436.84368
449.5632
461.65578
473.03396
483.39925
491.82551
322.569
343.30098
361.86628
378.79361
394.51566
409.29145
423.27352
436.55765
449.19629
461.19399
472.49281
482.8886
491.69465
322.55493
343.26058
361.78039
378.63729
394.24837
408.84362
422.52778
435.33908
447.2405
458.10404
467.68077
475.58634
481.09802
322.54992
343.21063
361.67022
378.45299
393.96884
408.43792
421.93483
434.41859
445.72939
455.58977
463.62049
469.37176
472.30512
322.55079
343.4331
362.3292
379.76151
396.17186
411.83673
426.88557
441.26291
454.61299
466.90938
478.05372
487.86195
495.93695
)
;
        refGradient     uniform 0;
        valueFraction   nonuniform List<scalar> 
130
(
0.00032132529
0.00032132529
0.00032132529
0.00032132529
0.00032132529
0.00032132529
0.00032132529
0.00032132529
0.00032132529
0.00032132529
0.00032132529
0.00032132529
0.00032132529
0.00032132529
0.00032132529
0.00032132529
0.00032132529
0.00032132529
0.00032132529
0.00032132529
0.00032132529
0.00032132529
0.00032132529
0.00032132529
0.00032132529
0.00032132529
0.00032132529
0.00032132529
0.00032132529
0.00032132529
0.00032132529
0.00032132529
0.00032132529
0.00032132529
0.00032132529
0.00032132529
0.00032132529
0.00032132529
0.00032132529
0.00032132529
0.00032132529
0.00032132529
0.00032132529
0.00032132529
0.00032132529
0.00032132529
0.00032132529
0.00032132529
0.00032132529
0.00032132529
0.00032132529
0.00032132529
0.00032132529
0.00032132529
0.00032132529
0.00032132529
0.00032132529
0.00032132529
0.00032132529
0.00032132529
0.00032132529
0.00032132529
0.00032132529
0.00032132529
0.00032132529
0.00032132529
0.00032132529
0.00032132529
0.00032132529
0.00032132529
0.00032132529
0.00032132529
0.00032132529
0.00032132529
0.00032132529
0.00032132529
0.00032132529
0.00032132529
0.00032132529
0.00032132529
0.00032132529
0.00032132529
0.00032132529
0.00032132529
0.00032132529
0.00032132529
0.00032132529
0.00032132529
0.00032132529
0.00032132529
0.00032132529
0.00032132529
0.00032132529
0.00032132529
0.00032132529
0.00032132529
0.00032132529
0.00032132529
0.00032132529
0.00032132529
0.00032132529
0.00032132529
0.00032132529
0.00032132529
0.00032132529
0.00032132529
0.00032132529
0.00032132529
0.00032132529
0.00032132529
0.00032132529
0.00032132529
0.00032132529
0.00032132529
0.00032132529
0.00032132529
0.00032132529
0.00032132529
0.00032132529
0.00032132529
0.00032132529
0.00032132529
0.00032132529
0.00032132529
0.00032132529
0.00032132529
0.00032132529
0.00032132529
0.00032132529
0.00032132529
)
;
        value           nonuniform List<scalar> 
130
(
855.7935
855.72
855.6053
855.45212
855.27744
855.08637
854.88669
854.68678
854.49773
854.32523
854.18369
854.07857
854.0216
855.73221
855.67426
855.56496
855.41034
855.21577
854.99654
854.76681
854.53243
854.30619
854.09967
853.92943
853.80312
853.73175
855.60158
855.55211
855.44569
855.28266
855.06049
854.78411
854.49938
854.21135
853.92086
853.65912
853.44317
853.28453
853.19222
855.39192
855.33887
855.22352
855.04391
854.79351
854.48399
854.12975
853.76031
853.3861
853.02427
852.71689
852.4951
852.37427
855.06978
855.01341
854.8927
854.7021
854.42975
854.0938
853.70849
853.27744
852.83648
852.41509
852.07641
851.82832
851.69151
854.66278
854.60168
854.48249
854.29511
854.02565
853.70322
853.35134
852.95339
852.4983
852.0234
851.66601
851.41514
851.27482
854.21893
854.16309
854.05435
853.88964
853.66286
853.37105
853.06042
852.71806
852.33795
851.91433
851.55212
851.30007
851.17002
853.8693
853.82114
853.7219
853.57099
853.37139
853.12615
852.85899
852.57167
852.26268
851.94928
851.67676
851.47145
851.34829
853.68343
853.63513
853.52759
853.36946
853.18072
852.96611
852.73552
852.49288
852.24972
852.01573
851.80277
851.64106
851.54101
853.571
853.52691
853.42963
853.27894
853.08926
852.88713
852.68004
852.47311
852.26824
852.06852
851.88505
851.73908
851.64233
)
;
        Tnbr            T;
        thicknessLayers List<scalar> 0();
        kappaLayers     List<scalar> 0();
        kappaMethod     solidThermo;
        kappa           none;
        alphaAni        none;
        alpha           none;
        field           T;
    }
}


// ************************************************************************* //
