/*--------------------------------*- C++ -*----------------------------------*\
| =========                 |                                                 |
| \\      /  F ield         | OpenFOAM: The Open Source CFD Toolbox           |
|  \\    /   O peration     | Version:  v2012                                 |
|   \\  /    A nd           | Website:  www.openfoam.com                      |
|    \\/     M anipulation  |                                                 |
\*---------------------------------------------------------------------------*/
FoamFile
{
    version     2.0;
    format      ascii;
    class       volScalarField;
    location    "3";
    object      p;
}
// * * * * * * * * * * * * * * * * * * * * * * * * * * * * * * * * * * * * * //

dimensions      [0 2 -2 0 0 0 0];


internalField   nonuniform List<scalar> 
64000
(
1.90228e-21
1.00508e-21
-2.07008e-21
-2.05916e-21
5.86569e-23
1.31226e-22
2.94705e-22
-8.42381e-22
-3.09895e-22
-1.28519e-22
-1.64084e-22
6.33564e-22
-6.67367e-22
-1.70388e-21
-8.08372e-22
3.56271e-22
-3.0545e-21
9.44425e-23
2.79765e-21
1.4929e-21
-1.33337e-21
-3.48759e-21
-2.01052e-21
-2.91004e-21
-1.17358e-21
-2.53083e-22
3.86386e-22
8.75059e-22
1.87568e-22
-2.62893e-22
-1.0092e-21
-9.87846e-23
1.98209e-22
9.20172e-23
2.1649e-22
-6.5853e-22
3.21771e-22
4.37523e-22
3.87933e-22
4.19667e-22
5.19235e-22
-1.75776e-22
2.3911e-22
-1.03431e-21
-2.71572e-21
-1.72906e-21
-4.53235e-22
-1.14012e-22
-6.19696e-22
-1.36571e-21
-1.93633e-22
-1.12828e-21
-6.93146e-22
-2.02232e-22
-1.81578e-21
-1.42316e-21
-1.71032e-21
6.51772e-22
2.30155e-21
2.3031e-21
5.49158e-22
-2.55234e-21
-3.88548e-21
-5.56389e-21
-2.63801e-21
9.87229e-22
8.16177e-22
6.93885e-22
-4.50534e-22
-5.34163e-22
1.36015e-21
7.61567e-22
3.33439e-22
3.67553e-22
-2.98629e-22
-1.76381e-21
7.6508e-22
1.57934e-23
8.99395e-22
7.20416e-22
1.23664e-21
4.55952e-22
2.06386e-22
-2.7508e-23
-3.30709e-21
-2.91141e-21
-1.41257e-21
-6.73924e-22
-9.15317e-22
-8.40319e-23
-6.03362e-22
-1.8035e-21
-3.34207e-22
-6.33555e-22
-5.88132e-22
-1.87525e-21
-2.21229e-21
-4.66575e-22
6.14808e-22
2.79482e-21
1.29941e-21
-3.20353e-21
-4.40579e-21
-4.0515e-21
-1.59848e-21
5.03202e-22
3.75866e-22
-2.065e-22
-5.92815e-22
1.0654e-21
1.88688e-21
7.29995e-22
9.02451e-22
-6.96633e-22
-4.29223e-22
8.51629e-22
-4.67895e-22
-1.00602e-21
-2.43393e-22
3.30392e-22
-1.32237e-21
-2.3218e-21
-1.6499e-21
-2.0406e-21
-1.01874e-21
-2.23943e-21
-1.59798e-21
-1.69637e-21
-1.70683e-21
8.69999e-24
4.52308e-22
-1.6345e-21
-6.94772e-22
-3.38244e-22
-1.79244e-21
-2.93054e-21
-9.60698e-22
-3.29405e-22
8.64372e-22
2.29779e-21
1.16031e-21
-1.84429e-21
-5.45073e-21
-4.07929e-21
-1.92875e-21
1.91829e-22
-5.90843e-24
4.85729e-22
4.09364e-23
3.29525e-22
4.81851e-22
4.1974e-22
2.03727e-22
7.81128e-22
1.07669e-21
2.66058e-23
-2.24971e-22
-1.04492e-21
-1.30251e-21
-7.11598e-23
-2.44396e-21
-2.10487e-21
-1.10639e-21
-1.9787e-21
-2.2045e-21
-1.77042e-21
-1.55474e-21
-8.78845e-22
-1.1291e-21
-1.46855e-21
-1.74189e-21
-1.73553e-21
3.5791e-22
8.37121e-22
-2.2634e-21
-3.87531e-21
-3.99335e-21
2.49694e-22
2.94878e-21
1.89832e-21
7.75882e-22
-2.16355e-21
-4.41001e-21
-2.85748e-21
-1.23345e-21
-5.13439e-22
-3.97335e-22
-2.16434e-21
4.18192e-22
9.88796e-22
5.63688e-22
6.64011e-22
3.72032e-22
2.76598e-22
-3.66167e-22
1.06174e-21
-5.11e-22
2.24354e-22
-1.27571e-21
4.05028e-22
-3.51338e-22
-3.82903e-22
-1.22835e-22
-6.81272e-22
-1.23641e-21
-2.29447e-21
-2.29922e-21
-1.32998e-21
-1.10637e-21
2.84614e-22
-1.19641e-21
-3.19058e-21
-3.79014e-22
1.20665e-21
-1.45561e-21
-5.11382e-21
-3.7859e-21
8.56729e-22
3.54459e-21
2.15133e-21
1.86512e-21
-2.4773e-21
-6.68482e-21
-3.60608e-21
-1.59147e-21
-8.28123e-22
-1.41736e-21
-1.39569e-21
-1.66262e-22
-2.16614e-22
1.02334e-21
1.06103e-21
9.71002e-22
4.14388e-22
-3.28111e-22
1.05139e-21
2.96901e-22
-1.63422e-21
-1.28513e-21
5.14824e-22
-1.7786e-21
-1.89611e-21
-1.29776e-22
-1.22176e-21
-2.41583e-21
-2.16883e-21
-1.62584e-21
-8.87932e-22
-1.8958e-21
-1.05738e-21
-1.2715e-21
-1.59995e-21
-9.25799e-22
-3.65108e-22
-6.74494e-22
-2.85577e-21
-1.55102e-21
1.03207e-21
3.83797e-21
1.65251e-21
1.23211e-21
-2.0982e-21
-5.86875e-21
-3.92248e-21
-1.75735e-21
-2.19243e-21
-1.48391e-21
-7.51351e-22
-2.82308e-22
-1.62768e-21
-1.89268e-21
2.61598e-21
2.6023e-21
-1.5874e-22
1.08799e-21
1.05273e-21
5.91208e-22
-2.35472e-21
-2.87549e-21
-2.09657e-22
-3.26329e-21
-3.16556e-21
-1.46899e-21
-9.10728e-22
-2.10402e-21
-5.26537e-22
-2.9505e-22
-2.8758e-21
-1.97698e-21
-1.91246e-21
-1.88025e-21
-2.09376e-21
-2.37072e-21
-1.94886e-21
-1.10195e-21
-2.03153e-21
-6.21432e-22
1.47337e-21
2.94027e-21
3.48178e-21
-6.83012e-24
-2.03864e-21
-3.57921e-21
-4.20327e-21
-3.09363e-21
-1.57957e-21
-6.62153e-22
-5.46072e-22
2.89389e-22
-1.14905e-21
-1.38156e-21
1.65713e-22
1.48525e-21
-6.33071e-22
1.0819e-21
2.45102e-21
-1.13594e-21
-1.7631e-21
-1.98771e-21
-4.39569e-22
-8.46446e-21
-5.36043e-21
-1.7069e-21
-2.00098e-21
-2.16837e-21
-5.39994e-22
-7.73906e-22
-2.12495e-21
-1.36281e-21
-3.51273e-21
-2.1833e-21
-2.64171e-21
-2.64497e-21
-7.81838e-22
-2.32573e-21
-3.45184e-21
-1.69103e-21
2.38234e-21
2.56958e-21
2.48074e-21
9.52378e-22
-3.43718e-21
-4.48427e-21
-3.99705e-21
-1.33939e-21
-1.87878e-21
1.55235e-21
1.06377e-21
-7.96395e-22
-1.80388e-21
-8.82598e-22
-1.02206e-21
-1.35169e-22
7.42179e-24
5.17291e-22
2.19491e-21
3.9603e-22
-8.17541e-22
-2.11102e-23
-1.91105e-22
-4.93664e-21
-4.95537e-21
-4.3071e-21
-2.08245e-21
-1.5569e-21
-2.13742e-21
-1.16732e-21
-2.26538e-21
-1.49493e-21
-1.2658e-21
-2.51723e-21
-3.08914e-21
-1.79757e-21
-3.87746e-22
-2.68876e-21
-3.10099e-21
-1.26674e-21
7.46805e-22
2.0823e-21
3.58265e-21
2.05097e-21
-3.07559e-21
-5.72284e-21
-3.02256e-21
-1.58751e-21
-7.96714e-22
9.1832e-22
1.64708e-21
-2.35303e-21
-2.36353e-21
-1.60911e-21
-1.34978e-21
-4.64225e-22
6.51436e-22
1.90678e-21
1.31753e-21
-1.36252e-21
2.88688e-22
1.37229e-21
2.49045e-22
-3.59127e-21
-5.32094e-21
-5.09549e-21
-4.06318e-21
-2.33814e-21
-2.91719e-21
-3.35412e-21
-1.70264e-21
-1.27798e-21
-1.67713e-21
-1.80149e-21
-1.93974e-21
-1.62632e-21
-3.76128e-22
-2.40239e-21
-3.66386e-21
6.3938e-22
2.00851e-21
3.25045e-21
2.76792e-21
-1.16861e-21
-5.32317e-21
-3.78275e-21
-2.9197e-21
-3.09991e-21
-2.02558e-21
3.77608e-22
1.95484e-21
-1.03916e-21
-2.68403e-21
-1.0446e-21
-2.18937e-21
-1.37449e-21
1.19495e-21
5.41334e-22
7.28435e-22
6.5727e-22
1.58569e-21
2.0328e-21
1.2174e-21
-3.36426e-21
-6.08337e-21
-6.01571e-21
-4.85869e-21
-1.84233e-21
-2.77637e-21
-3.52008e-21
-2.49015e-21
-3.05907e-22
-6.88611e-22
-1.42458e-21
-2.70962e-21
-2.66933e-21
-1.50713e-21
-1.74057e-21
-2.24177e-21
-1.91703e-22
1.29713e-21
2.09302e-21
3.82837e-21
-1.46562e-21
-5.27412e-21
-4.36049e-21
-4.98849e-21
-1.82595e-21
-1.15361e-21
1.65196e-23
1.41146e-21
-2.56982e-22
-2.48965e-21
-2.41553e-21
-2.33329e-21
-9.17201e-22
1.73789e-21
3.18975e-22
7.28743e-22
1.43375e-21
3.169e-21
2.15622e-21
-1.22485e-21
-7.50725e-21
-7.51074e-21
-5.87653e-21
-5.09801e-21
-3.70435e-21
-2.331e-21
-2.26659e-21
-1.73894e-21
-8.20965e-22
-1.16847e-21
-1.34441e-21
-2.42656e-21
-2.5348e-21
-1.7913e-21
-3.5254e-21
-1.81328e-21
-5.73494e-22
1.45357e-21
2.51224e-21
1.485e-21
-1.08118e-21
-3.91279e-21
-3.30848e-21
-3.15512e-21
-3.07377e-21
-1.36872e-21
-2.80656e-22
3.32449e-22
-1.65463e-22
-1.71667e-21
-2.71708e-21
-1.17207e-21
6.63683e-22
1.7138e-21
-4.36178e-22
1.05285e-21
8.81038e-22
1.21763e-21
7.60845e-22
-6.99847e-22
-6.58606e-21
-7.39122e-21
-6.66282e-21
-5.57028e-21
-4.50705e-21
-2.22148e-21
-2.47608e-21
-9.93461e-22
-1.84765e-21
-3.31283e-21
-2.47957e-21
-7.33318e-22
-8.60437e-22
-2.53868e-21
-4.19139e-21
-6.2316e-22
-8.90298e-22
1.91321e-21
3.78202e-21
3.03235e-21
-2.71949e-21
-6.17222e-21
-4.61268e-21
-4.27465e-21
-2.46283e-21
-1.37269e-21
-8.87144e-22
-6.92867e-23
-4.55836e-22
-5.84006e-22
-1.58463e-21
7.30189e-22
3.8144e-23
-3.29527e-22
-3.53167e-22
1.04313e-21
1.91092e-21
1.05419e-21
5.86506e-22
4.18031e-22
-5.10627e-21
-7.1912e-21
-7.56019e-21
-5.50138e-21
-2.23836e-21
-4.00779e-21
-3.31297e-21
-2.83109e-21
-2.16355e-21
-1.4885e-21
-1.8487e-21
-8.24958e-22
-1.40775e-22
-1.98385e-21
-3.28479e-21
-1.81372e-21
-1.05808e-21
1.01573e-21
2.70377e-21
3.58077e-21
-2.53002e-21
-6.46231e-21
-4.57144e-21
-4.0575e-21
-5.88722e-23
-2.09927e-22
-1.12521e-21
-1.30898e-21
-2.08119e-21
-1.45316e-21
-1.61195e-21
1.01968e-21
1.31686e-21
7.35706e-22
-6.25046e-22
-6.24215e-23
2.03563e-21
2.39263e-21
9.94213e-22
1.69937e-21
-6.97128e-21
-8.99464e-21
-6.23366e-21
-3.98867e-21
-3.50518e-21
-2.86777e-21
-3.11558e-21
-3.68477e-21
-2.17393e-21
1.50026e-22
-2.06377e-21
-5.9842e-22
-4.84474e-22
-1.26993e-21
-1.31995e-21
-1.0952e-21
-7.70331e-22
8.71108e-22
3.4074e-21
1.54141e-21
-4.16852e-21
-5.61705e-21
-3.99854e-21
-9.64566e-22
-1.35687e-21
-2.89422e-21
-1.79737e-21
-2.1849e-21
-6.01358e-22
1.66037e-22
-8.14098e-22
5.47869e-22
3.44536e-21
1.21747e-21
-1.94524e-21
1.20728e-21
8.06507e-22
-2.30391e-23
9.71693e-22
1.25133e-21
-6.35415e-21
-7.77599e-21
-7.09005e-21
-2.72824e-21
-1.74711e-21
-2.53543e-21
-3.44659e-21
-3.96197e-21
-3.38516e-21
-9.17573e-22
-3.34081e-22
-6.48294e-22
-1.35127e-21
-9.1737e-24
-1.22483e-21
-5.01732e-22
-3.86286e-22
6.32569e-22
2.08139e-22
-1.07916e-21
-3.97127e-21
-2.56191e-21
-3.49732e-22
-9.95622e-22
-2.24242e-21
-9.12701e-22
-1.23965e-21
-1.97854e-21
-2.47339e-22
-1.76381e-21
-1.30409e-21
7.47279e-22
2.23887e-21
1.77045e-21
-3.44228e-22
8.12638e-22
5.71998e-22
1.42002e-22
3.15116e-22
-2.56716e-22
-5.28802e-21
-7.32782e-21
-6.96206e-21
-4.33547e-21
-2.72127e-21
-1.16411e-21
-3.01431e-21
-4.98871e-21
-2.62402e-21
-1.90695e-21
-3.79104e-22
9.19894e-22
-8.26269e-22
3.15914e-22
-1.27888e-21
-7.22964e-22
-7.19203e-22
3.33031e-22
6.21391e-22
-1.73458e-21
-4.44837e-21
-4.3097e-21
8.68074e-22
1.02379e-21
-1.51512e-21
-1.90964e-21
-4.82956e-22
-1.0542e-21
-2.12955e-21
-1.72755e-21
-4.6822e-22
1.01163e-21
2.28368e-21
1.19019e-21
2.17073e-22
-1.47209e-21
6.1657e-22
2.75136e-22
6.69925e-22
2.33038e-23
-4.23284e-21
-5.35849e-21
-6.30855e-21
-4.72227e-21
-3.74762e-21
-2.57632e-21
-2.89808e-21
-2.19015e-21
-2.31123e-21
-2.32389e-21
-1.50466e-21
-4.37774e-22
1.49964e-21
2.24783e-21
-1.30043e-21
-2.70462e-21
6.0957e-22
-2.5818e-21
-3.58757e-21
-2.47028e-21
-2.24203e-21
-8.35423e-22
-9.76523e-23
4.39533e-23
2.69415e-22
-1.56345e-21
4.50458e-22
1.3076e-21
-2.9434e-22
-2.30839e-21
-1.82445e-21
1.05719e-21
2.40584e-21
4.75359e-22
-1.46782e-21
-2.90343e-23
1.28677e-21
5.2104e-22
6.15155e-22
1.12789e-22
-3.80181e-21
-5.72425e-21
-6.62599e-21
-4.214e-21
-2.64529e-21
-3.46446e-21
-3.00636e-21
-2.95425e-21
-2.40541e-21
-1.01732e-21
-1.91136e-21
6.61252e-22
2.26382e-21
4.94091e-22
-5.42957e-22
-7.58923e-22
9.52427e-23
-7.96606e-22
-4.8262e-21
-2.72724e-21
-2.37127e-21
-1.8412e-21
-6.54601e-22
-1.01642e-21
1.39921e-21
1.07484e-21
-2.28868e-21
3.06139e-22
8.82813e-22
-9.11275e-22
1.1279e-21
8.83062e-22
1.12889e-21
-9.73955e-23
-1.653e-21
5.18576e-22
2.79532e-22
1.43844e-21
7.85113e-22
-1.00298e-22
-5.53498e-21
-6.27031e-21
-5.88337e-21
-3.45095e-21
-1.61692e-21
-3.40072e-21
-2.69021e-21
-1.54544e-21
-1.50823e-21
-1.60186e-21
-3.58053e-21
-4.71284e-22
1.24136e-21
-2.45842e-22
-8.22659e-22
6.29514e-22
7.53055e-22
3.23909e-22
-4.06466e-21
-2.10012e-21
-2.87681e-21
-2.99188e-21
7.81097e-23
-7.79472e-22
-1.09941e-21
1.20034e-21
1.51945e-23
3.19932e-22
8.18297e-22
-6.38528e-22
5.21297e-23
8.56741e-22
-4.57391e-23
1.17724e-21
1.44781e-21
-1.73788e-21
-7.55266e-22
1.0457e-21
1.40667e-21
4.07337e-22
-7.68437e-21
-7.41711e-21
-5.72441e-21
-2.07939e-21
-1.18587e-21
-2.81602e-21
-2.15076e-21
-2.39515e-21
-1.75768e-21
-1.56197e-21
-2.94319e-21
-1.35792e-21
1.49063e-22
-1.83125e-21
8.9623e-22
3.17949e-21
8.22867e-22
-1.43117e-21
-9.95209e-22
-1.42106e-21
-3.83918e-21
-3.95448e-21
-5.04176e-22
2.45222e-23
-1.16333e-21
8.15617e-22
1.40045e-21
-1.1722e-21
-4.65247e-22
-6.51123e-22
2.30367e-22
2.8909e-21
7.12872e-22
-1.36096e-22
3.34509e-22
-1.69826e-21
-6.99291e-23
5.95382e-22
1.20459e-21
2.66196e-22
-6.48397e-21
-6.2115e-21
-4.81555e-21
-2.22888e-21
-9.33404e-22
-4.57588e-21
-2.29582e-21
-2.30261e-21
-3.92625e-21
-3.36105e-21
-1.67847e-21
-8.1351e-22
-5.109e-22
3.33265e-22
2.82495e-21
1.61897e-21
7.87231e-22
8.93338e-22
1.7881e-21
-6.38407e-22
-3.38893e-21
-3.41478e-21
-2.76323e-21
-4.40954e-21
-1.75206e-21
4.92732e-22
2.3505e-21
-8.05878e-22
-6.50344e-22
-2.53243e-22
-6.00013e-22
1.46992e-22
1.94144e-21
7.63931e-22
1.32974e-21
-1.04099e-21
-6.51723e-22
1.27334e-21
1.15493e-21
-6.13273e-22
-3.56019e-21
-4.34693e-21
-5.24917e-21
-3.0441e-21
-1.39902e-21
-3.71895e-21
-4.54175e-21
-4.0727e-21
-2.92095e-21
-1.90093e-21
-9.04637e-22
-5.57518e-22
9.45903e-22
1.1217e-21
1.83407e-21
1.07856e-21
4.79585e-22
3.18234e-22
1.88047e-21
5.14542e-22
-2.49907e-21
-3.28652e-21
-2.20676e-21
-2.63791e-21
-1.97345e-21
-8.46767e-22
7.7381e-22
3.87637e-22
9.93347e-22
-2.03539e-21
-1.09019e-21
1.24203e-21
5.79738e-22
-3.13247e-22
3.76392e-22
-3.22881e-22
1.64346e-22
2.18972e-21
1.33408e-21
-4.25448e-22
-1.33902e-22
-1.68286e-21
-5.59351e-21
-4.86034e-21
-2.85851e-21
-3.31321e-21
-3.73452e-21
-3.21831e-21
-1.45504e-21
-1.5717e-21
-1.93926e-21
-3.72599e-22
4.17148e-22
4.50951e-22
1.05929e-21
6.7787e-22
-1.42599e-22
3.98838e-22
2.26781e-21
2.65588e-21
-1.12137e-22
-4.0895e-21
-1.61133e-21
-4.37818e-21
-2.91701e-21
-7.52968e-22
-5.75839e-22
-4.73156e-22
-4.79457e-23
-1.04659e-22
1.13446e-21
9.61369e-22
-1.50794e-21
-4.27213e-22
-1.15636e-21
3.65202e-22
1.92627e-21
1.89309e-21
1.2349e-21
6.72225e-22
-2.02727e-21
-2.60178e-21
-3.17881e-21
-3.7395e-21
-3.56946e-21
-2.68662e-21
-3.11449e-21
-2.30877e-21
-1.12018e-21
-6.90789e-22
-7.30735e-22
-1.88646e-23
-6.2552e-22
-2.94359e-21
-7.44183e-22
9.60069e-22
1.05558e-21
3.56684e-22
2.94176e-21
3.02276e-21
-1.00152e-22
-2.14374e-21
-4.11593e-21
-4.99142e-21
-2.30355e-21
-1.62072e-21
4.99926e-22
-6.39278e-22
-7.9478e-23
-1.36528e-22
1.01101e-22
-1.97907e-22
-7.95268e-22
8.65974e-22
2.06548e-22
7.86781e-22
1.28333e-21
5.80004e-22
1.79021e-21
1.88912e-21
5.55256e-22
-2.6303e-22
-1.90804e-21
-4.97313e-21
-3.12917e-21
-3.28654e-21
-2.60611e-21
-1.62662e-21
5.07005e-22
-3.05851e-22
-1.42795e-23
-8.31173e-23
-1.95417e-21
-3.00724e-21
-3.00138e-21
-1.92032e-21
8.29685e-23
1.8642e-21
4.4981e-21
4.22596e-21
-1.09965e-21
-4.71506e-21
-3.80902e-21
-2.91456e-21
-2.51454e-21
-1.00015e-21
3.72399e-22
8.74829e-22
-1.27869e-22
-2.9253e-22
5.91066e-22
-1.76216e-22
-3.0347e-22
2.32866e-22
-5.51127e-22
8.49009e-22
6.21552e-22
-1.81599e-22
1.46911e-21
1.72489e-21
-8.49759e-22
-1.97809e-21
-2.20093e-21
-2.74286e-21
-1.94987e-21
-1.35988e-21
-2.37693e-21
-2.72071e-21
-7.34206e-22
1.9058e-22
1.04832e-21
-1.18956e-21
-1.40974e-21
-2.70132e-21
-4.00407e-21
-1.51581e-21
-1.49798e-22
1.23231e-21
3.95497e-21
3.80741e-21
-1.02262e-21
-3.47234e-21
-1.62988e-21
-4.2993e-21
-2.50149e-21
-1.86358e-22
1.27343e-21
-2.64672e-21
5.69636e-22
3.78236e-22
4.55991e-22
2.81956e-22
2.16679e-22
-2.68873e-22
-6.24026e-22
-6.50768e-22
7.47947e-22
3.28879e-22
9.96612e-22
1.01843e-21
-1.22932e-21
-2.95408e-21
-2.02891e-21
-8.31908e-22
-4.96722e-22
-2.53691e-21
-3.97216e-21
-3.60557e-21
-1.20746e-21
1.64648e-23
8.66969e-22
-1.05873e-22
-4.61554e-22
-2.84593e-21
-2.2433e-21
-2.95702e-22
1.73598e-21
1.61216e-21
1.65248e-21
2.42433e-21
-1.15939e-21
-4.55751e-21
-2.69175e-21
-2.56667e-21
-1.50785e-21
-1.27389e-21
-7.35626e-23
-2.03441e-21
1.06834e-22
9.86448e-22
1.09917e-21
1.5722e-22
8.94158e-22
-3.69364e-22
-2.0216e-21
-8.01514e-22
1.3991e-21
9.42757e-22
7.02133e-22
7.4322e-22
2.91355e-22
-1.48068e-21
-1.17692e-21
-1.12601e-21
-3.77561e-22
-1.88881e-21
-4.26291e-21
-3.7559e-21
-1.932e-21
-8.88805e-22
1.56607e-21
4.51175e-22
1.28932e-22
-1.27531e-21
-1.60442e-21
-1.05397e-21
-9.52704e-22
-3.40337e-22
2.23394e-21
3.85194e-21
-6.66161e-23
-5.21713e-21
-2.93528e-21
-2.13266e-21
-2.69668e-21
-2.18127e-21
2.31074e-24
1.92443e-21
2.68489e-22
1.81978e-21
1.18301e-22
2.23793e-22
5.13222e-22
-5.07367e-22
-2.04163e-21
-1.51542e-21
-1.21008e-23
-9.40977e-24
1.59619e-21
8.72983e-22
-1.15141e-21
-1.59998e-21
-6.65364e-22
-1.44397e-21
-8.72729e-22
-3.32879e-21
-2.42233e-21
-2.8679e-21
-1.24062e-21
3.32827e-22
1.11226e-21
1.50723e-22
9.51802e-23
2.13563e-22
-1.39766e-21
-3.1805e-21
-2.13105e-21
-2.00652e-22
2.38489e-21
2.96462e-21
8.14917e-22
-4.15625e-21
-2.99566e-21
-8.47534e-22
-1.85183e-21
-2.03728e-21
-4.81278e-22
1.027e-21
8.7279e-22
8.61649e-22
-1.28213e-22
-1.28072e-22
2.77184e-22
-4.8707e-22
-1.72431e-21
-6.69532e-22
-7.1818e-22
8.31438e-22
8.98892e-22
7.44736e-22
-3.63474e-21
-2.38087e-21
-9.01053e-22
-2.21319e-21
-2.10394e-21
-2.07648e-21
-2.24747e-21
-2.515e-21
-1.11133e-21
1.20443e-21
2.42622e-21
-2.51553e-21
9.8397e-22
1.89777e-21
-1.40624e-21
-4.53127e-21
-1.09526e-21
1.50666e-21
1.16098e-21
1.62332e-21
1.74995e-21
-1.67755e-21
-4.43959e-21
-4.38061e-21
-1.93464e-21
-4.12887e-23
4.76518e-22
1.18725e-21
1.75381e-21
1.32786e-21
-2.16221e-21
-1.47982e-21
4.06348e-22
-3.69797e-22
-1.34369e-21
-1.42415e-21
-2.29981e-21
1.01387e-21
1.48391e-21
3.83231e-22
-3.62161e-21
-1.79958e-21
-3.99607e-22
-1.19255e-21
-2.26415e-21
-6.11371e-22
-1.28924e-21
-3.44473e-21
-1.36876e-21
1.11961e-21
-1.98807e-22
6.01312e-22
5.09885e-22
1.44613e-21
-1.63976e-21
-2.08494e-21
-1.96563e-21
-1.21553e-21
2.83486e-21
2.12623e-21
9.70205e-22
-6.77304e-22
-3.2829e-21
-3.48203e-21
-5.02686e-21
-2.22875e-21
1.67904e-21
1.84966e-21
1.89706e-21
-7.8061e-22
-3.36662e-22
3.14319e-22
6.62699e-22
6.23017e-22
1.1201e-21
-7.82533e-22
-3.19107e-21
-3.57262e-21
-1.89043e-21
-2.34269e-22
-3.67032e-21
-1.92356e-21
-3.76685e-22
-2.20791e-21
-1.01658e-21
5.14596e-22
-1.35588e-21
-1.23769e-21
-2.00812e-21
-2.45882e-22
-2.49946e-22
7.80634e-22
2.3153e-21
-4.30085e-22
-2.84e-21
-2.80671e-21
-2.1121e-21
-2.21938e-21
1.04208e-21
3.06774e-21
3.23533e-21
-4.92833e-22
-3.03276e-21
-3.62035e-21
-2.93108e-21
-4.6924e-22
1.77722e-22
2.97319e-22
1.32551e-21
-8.61458e-22
5.59975e-23
1.77315e-21
9.75092e-22
1.78112e-21
8.89747e-22
-2.45981e-21
-2.95419e-21
-1.56996e-21
-7.76989e-22
-1.28308e-21
-3.08119e-21
-1.27114e-21
3.5524e-22
-7.49311e-22
2.25609e-22
-1.86305e-21
-1.77575e-21
-1.16554e-21
-2.52833e-21
-1.81678e-21
-7.22374e-22
-1.04828e-21
3.49026e-21
2.426e-21
-1.44632e-21
-4.561e-21
-5.10414e-21
-3.131e-21
3.28671e-21
2.92507e-21
2.53615e-21
-1.18572e-21
-2.87457e-21
-1.51753e-21
-1.03387e-22
1.52522e-22
-1.49269e-21
-2.7166e-21
1.03704e-21
-6.74505e-23
2.48287e-23
1.88302e-21
1.48328e-21
-1.73373e-22
-3.84341e-22
-2.48038e-21
-1.53684e-21
5.19862e-22
-1.6919e-22
-1.95429e-22
-1.46744e-21
-1.00007e-21
3.17752e-22
8.74882e-22
1.05585e-21
-1.85226e-21
-2.05078e-21
-1.40025e-21
-2.03979e-21
-2.08058e-21
-4.16421e-22
-8.43556e-22
1.10411e-21
1.91173e-21
-4.59871e-22
-3.17495e-21
-4.37108e-21
-1.07492e-21
2.11064e-21
2.95169e-21
5.82302e-22
-3.33753e-21
-2.49868e-21
-1.14671e-21
6.30283e-22
6.50784e-22
2.22248e-22
-9.84858e-22
-1.02693e-21
-3.57346e-22
-7.6874e-22
1.13178e-21
6.93557e-22
9.15344e-22
1.71338e-21
-2.27836e-21
3.45257e-23
-3.17414e-22
-1.46468e-21
-1.30951e-21
-2.09411e-21
-1.50557e-21
8.45794e-22
-8.17177e-22
-3.0786e-22
1.86512e-22
-9.48504e-22
-3.79973e-21
-2.35343e-21
-8.96526e-22
-7.72089e-22
5.12456e-22
8.32779e-22
2.1466e-22
-1.14691e-21
-2.07625e-21
-2.66329e-21
2.70187e-22
2.44825e-21
1.37187e-21
3.79679e-22
-2.59873e-21
-1.35067e-21
-1.58297e-21
-4.65075e-22
1.13152e-21
6.71548e-22
2.84187e-23
-1.52752e-22
-2.00003e-21
-2.00464e-21
1.38029e-22
1.22898e-21
1.932e-21
5.66752e-23
-1.69508e-21
-3.74225e-22
-5.91537e-23
-9.62362e-22
-8.52159e-23
-3.94861e-21
-1.55294e-21
5.67844e-23
-4.58252e-22
-1.35463e-21
-1.3976e-21
-1.51493e-21
-2.37697e-21
-1.33554e-21
-7.44156e-22
4.93177e-22
2.60411e-22
9.71171e-22
-2.6464e-22
-1.08669e-21
1.41307e-23
-1.00445e-21
-4.96641e-22
2.16086e-21
3.27946e-21
1.12961e-22
-4.02898e-21
-1.35401e-21
-1.70107e-21
3.88754e-22
3.99651e-22
-4.35376e-22
1.03456e-22
4.17092e-22
-1.51555e-21
-2.06342e-21
-6.67135e-22
2.20807e-22
7.69116e-22
8.1092e-22
7.28175e-22
-9.2943e-22
1.21824e-21
-3.06027e-22
-4.71455e-22
-2.09667e-21
1.35756e-22
-9.90525e-22
-2.1756e-21
-2.17254e-21
-1.60947e-21
-1.44028e-21
-1.85763e-21
-4.19536e-22
-4.51407e-22
4.9477e-22
2.14715e-21
1.73486e-21
-1.88534e-21
-1.8542e-21
4.67405e-22
6.81072e-23
3.48014e-22
4.62408e-22
9.40573e-22
1.76143e-21
-5.54426e-22
-1.24199e-21
-8.68623e-22
-1.99827e-21
-7.44701e-23
6.92828e-22
2.15461e-21
-1.28665e-21
-3.4621e-21
-1.97427e-21
-1.09304e-21
7.92228e-23
1.22524e-21
1.07837e-21
-5.66726e-22
-1.39825e-21
5.99996e-22
-2.07401e-22
-2.30901e-22
-4.1267e-21
-9.48467e-22
-1.01846e-21
5.85111e-24
2.61404e-22
-1.0821e-21
-2.44671e-21
-2.04809e-21
-1.0123e-22
7.52313e-22
1.30321e-21
1.27852e-21
-4.89229e-22
-1.24021e-21
-2.49912e-21
2.07055e-22
9.75924e-22
7.44507e-22
4.13111e-22
4.8184e-22
7.98079e-22
-4.87775e-22
7.72313e-22
-1.8569e-21
-1.30215e-21
-8.19677e-23
3.74839e-22
8.0164e-22
7.5691e-22
3.55919e-22
-2.59949e-21
-1.05392e-21
-3.45358e-22
7.91424e-22
1.1078e-21
-2.40339e-21
-2.04569e-21
-1.10824e-21
-4.0377e-22
3.35908e-22
1.25992e-22
-7.57121e-22
-1.69013e-21
-2.45425e-21
-2.58641e-22
-1.51789e-21
-4.8523e-23
2.65717e-22
6.67474e-23
1.30987e-21
-1.59513e-21
-1.36194e-21
-1.53689e-21
-5.95178e-22
-8.32738e-22
-2.37049e-21
-2.21885e-21
-1.54976e-22
2.89939e-21
1.66517e-21
-1.72502e-21
-2.13124e-21
-2.31302e-21
-2.7843e-21
-3.14445e-21
-7.32543e-22
4.35243e-23
4.58847e-22
1.14066e-22
-6.87864e-22
-8.97521e-23
6.0922e-22
1.25551e-22
1.78457e-21
1.09115e-21
-5.78752e-22
4.11419e-22
6.44695e-24
-7.00183e-22
4.83452e-23
-8.36771e-22
-1.90884e-21
-2.03359e-21
-4.56013e-21
3.02515e-22
-8.47176e-22
-1.09158e-21
-1.24715e-21
-1.16801e-21
-8.64344e-22
-2.48485e-21
-2.92698e-21
-1.43768e-21
-3.45899e-21
-2.30296e-21
-1.5705e-21
-1.17571e-21
-1.46381e-21
2.68035e-21
3.11385e-21
-9.30803e-22
-4.10673e-21
-4.2369e-21
-5.13248e-21
-2.58749e-21
3.9294e-22
2.4926e-21
7.68352e-22
-2.24252e-21
-1.42672e-21
1.70273e-21
2.2397e-21
-3.67259e-22
2.37276e-21
-1.99945e-22
-1.51915e-21
7.1251e-22
2.17781e-21
6.78065e-22
-3.27609e-23
-1.26099e-21
-2.24407e-21
-1.00905e-21
-1.68569e-21
-1.45293e-21
-9.91104e-22
-2.24308e-21
-4.50013e-21
-2.20017e-21
4.79642e-23
-1.39972e-21
-2.64533e-21
-1.62374e-21
-2.47842e-21
-2.83299e-21
-3.55057e-21
-2.52629e-21
-1.11883e-21
1.97318e-21
4.38241e-21
-2.13734e-21
-4.35181e-21
-4.22439e-21
-4.20786e-21
-3.01723e-21
1.63025e-21
1.92362e-21
-2.09211e-21
-1.15971e-21
-2.72128e-22
6.03362e-22
1.20185e-22
1.6999e-21
2.17195e-21
-1.84064e-21
-5.28422e-22
1.44228e-21
1.09514e-21
-4.03483e-22
-1.26801e-22
-3.87082e-21
-4.15125e-21
-1.70671e-21
-2.81966e-21
-2.35065e-21
-2.49581e-21
-2.06196e-21
-3.26916e-21
-3.90496e-21
7.38391e-22
4.18282e-23
-2.65604e-21
-1.30331e-21
-2.51962e-21
-2.77929e-21
-3.08379e-21
-1.57494e-21
-1.39418e-21
1.17465e-22
3.41576e-21
-1.73689e-21
-4.59748e-21
-5.52395e-21
-4.96163e-21
-2.7505e-21
5.41383e-22
6.37996e-22
1.52567e-21
-3.32211e-22
-7.99458e-22
-1.26388e-22
-1.5871e-22
1.24694e-21
4.41828e-22
7.51433e-22
-4.63925e-22
4.92036e-22
-1.60818e-22
-5.52732e-22
-1.88024e-22
-3.26812e-21
-4.11328e-21
-2.07284e-21
-2.82953e-21
-2.52104e-21
-3.68347e-21
-2.37865e-21
-1.69287e-21
-1.22767e-21
-1.03899e-21
-1.63035e-21
-3.68853e-21
-1.06542e-21
-1.07582e-21
-2.358e-21
-3.83447e-21
-3.10393e-21
-4.52899e-22
1.84972e-21
1.64369e-21
-1.11108e-21
-3.86814e-21
-4.84067e-21
-4.88801e-21
-2.36739e-21
-4.98819e-22
-9.15696e-22
-1.24369e-21
1.44975e-22
1.16385e-21
5.7281e-22
1.2579e-21
-5.07652e-22
-1.36326e-22
1.37138e-22
6.5949e-22
1.3372e-21
-7.69569e-23
-4.89223e-22
-7.86576e-22
-2.30143e-21
-2.35635e-21
-2.35591e-21
-2.01158e-21
-2.03391e-21
-3.44587e-21
-2.22886e-21
-2.36597e-21
-2.03405e-21
-1.94981e-21
-2.47457e-21
-4.27773e-21
-8.60201e-22
-2.72024e-22
-1.91974e-21
-3.21449e-21
-3.15077e-21
-5.15012e-22
2.44874e-21
1.6805e-21
-8.02694e-22
-4.58892e-21
-5.28906e-21
-4.51812e-21
-3.50312e-21
-1.74164e-21
6.42765e-23
-1.13779e-21
-6.74584e-22
4.13257e-22
-1.73628e-21
1.28335e-21
1.50152e-21
1.30951e-21
8.40347e-22
7.67101e-22
8.06376e-22
-1.98725e-21
-1.23056e-21
-4.86985e-23
-4.29775e-21
-4.31176e-21
-1.03289e-21
-2.61262e-21
-4.43491e-21
-1.94334e-21
-2.87248e-21
-1.05706e-21
-2.69673e-21
-4.10568e-21
-3.93522e-21
-1.84522e-21
-2.93625e-23
6.4999e-23
-2.19683e-21
-3.13583e-21
-1.7945e-21
6.89235e-22
2.10176e-21
8.85734e-22
-3.52047e-22
-3.57101e-21
-4.57251e-21
-5.20911e-21
-4.27063e-21
-2.33716e-21
-1.9055e-21
-2.02323e-21
7.47445e-22
2.15318e-22
-3.13674e-21
1.56626e-21
1.96256e-21
1.89457e-21
3.04224e-21
1.0787e-21
5.57953e-22
-1.74126e-21
-3.31478e-21
4.0057e-22
-5.30994e-21
-5.3281e-21
-3.12159e-21
-3.25208e-21
-3.42437e-21
-2.36573e-21
-2.7801e-21
-1.68244e-21
-3.66661e-21
-3.02315e-21
-3.77443e-21
-3.07307e-21
-2.34625e-21
1.07034e-23
-1.6293e-21
-2.81078e-21
-1.06501e-21
1.03752e-21
2.81376e-21
1.37058e-22
-3.57344e-22
-3.28546e-21
-4.93272e-21
-4.59068e-21
-3.62529e-21
-1.63226e-21
-5.86273e-22
-7.16989e-22
-4.73291e-22
-2.35366e-21
-4.16475e-21
4.82643e-22
1.6588e-21
8.12568e-22
2.75044e-21
1.48198e-21
1.7645e-21
6.19176e-22
-2.67076e-21
-1.22309e-21
-7.01017e-21
-7.04612e-21
-4.66804e-21
-4.25252e-21
-4.55111e-21
-3.52794e-21
-4.35111e-21
-1.81435e-21
-2.29311e-21
-3.67516e-21
-3.42434e-21
-5.89616e-21
-2.57277e-21
-1.05273e-21
-1.89012e-21
-1.34338e-21
-1.59018e-21
-7.86944e-22
7.51591e-22
-1.37643e-22
3.93079e-22
-1.97744e-21
-4.51263e-21
-6.2451e-21
-2.3296e-21
-1.84766e-23
9.8408e-22
-7.2017e-23
-3.65198e-22
-1.75986e-21
-3.54122e-21
-3.00163e-21
-8.55378e-22
1.89948e-21
4.15205e-21
3.47455e-21
1.2218e-21
6.38797e-22
-1.42439e-22
-7.33267e-22
-9.05147e-21
-7.39719e-21
-6.18291e-21
-4.73962e-21
-5.86713e-21
-4.95057e-21
-3.32907e-21
-3.49448e-21
-1.87828e-21
-2.19921e-21
-3.43976e-21
-4.76307e-21
-2.96914e-21
-6.788e-22
-3.25021e-21
-2.49568e-21
-1.64555e-21
-9.19522e-22
5.83253e-22
1.76503e-21
-6.44915e-22
-3.40211e-21
-4.52797e-21
-5.43827e-21
-1.60202e-21
6.84598e-23
3.14275e-21
-1.61823e-21
-2.36124e-21
-3.18231e-21
-3.23107e-21
-2.21016e-21
-7.74156e-22
3.28553e-21
5.09418e-21
1.01776e-21
5.32463e-22
-8.17992e-23
9.24018e-23
-7.02652e-23
-8.93209e-21
-1.09813e-20
-7.06381e-21
-6.77278e-21
-6.13327e-21
-3.36954e-21
-6.44589e-21
-4.05342e-21
-2.49743e-21
-1.95857e-21
-2.40836e-21
-2.83897e-21
-3.45978e-21
-9.52684e-22
-3.99608e-21
-3.80541e-21
-8.72624e-22
-5.93941e-22
1.076e-21
2.86169e-21
-2.9247e-21
-3.41177e-21
-4.39285e-21
-4.90685e-21
-3.51925e-21
-8.51998e-22
1.47076e-21
-3.66147e-22
-2.65706e-21
-3.70008e-21
-3.03432e-21
-1.72935e-21
-6.75376e-22
2.2033e-21
3.77088e-21
1.45907e-21
1.45679e-21
1.03404e-21
4.49664e-22
6.48031e-22
-8.42924e-21
-1.1229e-20
-8.94969e-21
-8.47328e-21
-6.0335e-21
-4.54958e-21
-5.13487e-21
-3.21178e-21
-1.96492e-21
-2.57219e-21
-1.75897e-21
-2.47465e-21
-2.98145e-21
-2.55855e-21
-5.0922e-21
-5.12262e-21
-1.74141e-21
3.35463e-22
1.69516e-21
1.76208e-21
-1.86055e-21
-3.82293e-21
-4.98028e-21
-4.29917e-21
-4.39308e-21
-1.58394e-21
1.03339e-22
4.73838e-22
-1.48661e-21
-5.14789e-21
-2.93827e-21
-2.47498e-21
-2.00694e-21
1.34247e-21
2.3092e-21
2.45244e-21
3.19874e-21
3.47569e-21
1.31562e-21
-8.25134e-22
-1.11066e-20
-1.12592e-20
-1.01633e-20
-9.14429e-21
-7.10653e-21
-6.40776e-21
-2.64291e-21
-3.24541e-21
-2.4193e-21
-7.68953e-22
-5.99073e-22
-2.94239e-21
-4.08956e-21
-4.1082e-21
-5.49508e-21
-3.85434e-21
-9.08332e-22
2.90686e-22
3.88668e-22
1.11039e-21
-1.87612e-21
-4.04421e-21
-4.47648e-21
-3.60764e-21
-4.41472e-21
-2.36476e-21
-1.30414e-21
-1.07755e-21
-2.00131e-21
-2.17891e-21
-3.0387e-21
-2.11131e-21
-2.10426e-22
9.40363e-22
4.63367e-22
2.4228e-21
2.5598e-21
1.64997e-21
1.04473e-21
6.97455e-22
-1.27765e-20
-1.35957e-20
-1.12497e-20
-8.64439e-21
-7.6898e-21
-5.59413e-21
-4.29071e-21
-1.74071e-21
-2.55618e-21
-2.73027e-21
-3.14728e-21
-2.66049e-21
-3.43777e-21
-3.85833e-21
-4.82702e-21
-3.6754e-21
-3.28023e-22
6.25919e-22
1.9498e-21
2.5961e-21
-3.93991e-21
-5.99016e-21
-4.7117e-21
-4.2466e-21
-4.37097e-21
-3.99219e-21
-2.41694e-21
-4.98321e-22
-1.10349e-21
-1.08858e-21
-7.20894e-22
-4.02155e-22
-6.76092e-22
-8.77735e-22
5.64224e-22
2.79295e-21
3.72452e-21
6.41629e-22
4.94514e-22
2.1224e-21
-1.59231e-20
-1.32032e-20
-1.01296e-20
-7.27773e-21
-6.03921e-21
-5.53801e-21
-4.70168e-21
-2.93427e-21
-3.27884e-21
-3.08062e-21
-3.32421e-21
-1.95815e-21
-2.28673e-21
-3.21576e-21
-3.70724e-21
-2.79176e-21
9.40671e-22
1.5528e-22
8.07856e-22
9.04292e-22
-3.24092e-21
-7.60821e-21
-4.94557e-21
-3.07778e-21
-1.88226e-21
-3.79561e-21
-3.54668e-21
-1.8378e-21
-1.60145e-21
-1.90582e-21
-1.45971e-21
8.27422e-22
1.99872e-21
8.61293e-22
1.30055e-23
-1.35682e-22
1.59771e-21
3.88431e-21
1.52569e-21
1.53823e-21
-1.29507e-20
-1.16197e-20
-1.01322e-20
-8.26843e-21
-6.8459e-21
-6.22598e-21
-4.96254e-21
-4.43048e-21
-3.08523e-21
-2.20217e-21
-3.63476e-21
-2.41839e-21
-2.7402e-21
-1.40128e-21
-1.21603e-21
-1.95273e-21
5.75951e-22
-3.95016e-22
1.45292e-22
5.1159e-22
-4.73882e-21
-6.6988e-21
-3.90201e-21
-2.73486e-21
-2.80642e-21
-3.83735e-21
-2.70896e-21
-1.42246e-21
-1.52811e-21
-1.09778e-21
-8.76106e-22
1.66338e-21
3.44881e-21
3.08565e-21
-1.29268e-22
-1.51427e-21
1.01406e-21
2.76164e-21
1.50089e-21
1.29863e-21
-1.14316e-20
-1.12345e-20
-8.26827e-21
-6.63411e-21
-5.62267e-21
-5.58658e-21
-5.57835e-21
-6.25992e-21
-4.3469e-21
-2.00647e-21
-3.14319e-21
-2.23305e-21
-2.75e-21
-1.81555e-21
-7.31224e-22
5.32712e-22
8.02069e-22
-1.50414e-21
-1.46701e-21
-2.21004e-21
-5.43658e-21
-1.90762e-21
-1.01698e-21
-2.39012e-21
-3.70211e-21
-3.48785e-21
-1.36087e-21
-1.17908e-21
-2.19861e-21
-2.25758e-21
-2.11264e-21
1.6466e-21
3.76969e-21
3.46665e-21
5.57219e-22
-2.26711e-24
1.24546e-21
3.44991e-21
1.43178e-21
1.41585e-21
-1.06049e-20
-1.19681e-20
-1.08938e-20
-7.91818e-21
-5.53448e-21
-6.03787e-21
-5.3725e-21
-4.27523e-21
-4.1099e-21
-4.54408e-21
-2.5633e-21
-9.03612e-22
-2.88084e-21
-1.728e-21
-1.25273e-21
-2.92025e-22
-1.5052e-21
-4.50824e-22
5.80681e-22
-2.69906e-21
-4.76651e-21
-3.21523e-21
-4.11286e-22
-1.1112e-21
-4.95498e-21
-2.83423e-21
2.89189e-22
-3.79013e-23
-3.72417e-21
-2.03794e-21
9.84807e-22
2.03939e-21
2.17337e-21
1.95703e-21
1.11547e-21
5.44516e-22
1.64006e-21
3.22826e-21