/*--------------------------------*- C++ -*----------------------------------*\
| =========                 |                                                 |
| \\      /  F ield         | OpenFOAM: The Open Source CFD Toolbox           |
|  \\    /   O peration     | Version:  v2012                                 |
|   \\  /    A nd           | Website:  www.openfoam.com                      |
|    \\/     M anipulation  |                                                 |
\*---------------------------------------------------------------------------*/
FoamFile
{
    version     2.0;
    format      ascii;
    class       surfaceScalarField;
    location    "3";
    object      phi;
}
// * * * * * * * * * * * * * * * * * * * * * * * * * * * * * * * * * * * * * //

dimensions      [0 3 -1 0 0 0 0];
oriented        oriented;


internalField   nonuniform List<scalar> 
187200
(
1.875e-06
1.04507e-22
1.43827e-22
1.875e-06
4.98066e-23
1.12159e-22
1.875e-06
-1.30255e-22
1.53345e-23
1.875e-06
-5.86999e-23
5.40893e-23
1.875e-06
1.53404e-22
8.69994e-25
1.875e-06
1.62724e-22
6.9666e-23
1.875e-06
4.1796e-23
-5.87226e-23
1.875e-06
-6.2703e-24
-6.22942e-23
1.875e-06
1.22985e-23
1.62928e-23
1.875e-06
1.13401e-22
8.51833e-25
1.875e-06
6.03059e-23
3.64444e-23
1.875e-06
1.26888e-22
2.11199e-22
1.875e-06
1.4538e-23
3.32173e-23
1.875e-06
-5.40646e-23
-7.4335e-23
1.875e-06
1.53514e-23
6.73345e-23
1.875e-06
8.81874e-23
1.48338e-22
1.875e-06
-2.63518e-23
-1.6425e-23
1.875e-06
-4.71619e-23
4.42828e-23
1.875e-06
6.04192e-23
6.72706e-24
1.875e-06
-1.29027e-22
-7.90244e-23
1.875e-06
-1.26332e-22
-6.45476e-23
1.875e-06
-2.31815e-23
-1.9193e-23
1.875e-06
1.05025e-22
2.98943e-23
1.875e-06
1.60721e-22
-1.59727e-23
1.875e-06
1.07068e-22
7.64984e-23
1.875e-06
-1.30084e-22
3.79168e-23
1.875e-06
-6.02339e-23
7.99332e-23
1.875e-06
-4.19144e-23
2.59339e-23
1.875e-06
7.88883e-23
-5.13658e-23
1.875e-06
-2.00296e-23
3.30212e-23
1.875e-06
-1.40346e-22
-2.79637e-23
1.875e-06
-8.8071e-23
-3.88607e-23
1.875e-06
-3.93253e-23
-2.23307e-23
1.875e-06
-7.82807e-23
-1.26751e-22
1.875e-06
5.77389e-24
-9.08309e-23
1.875e-06
5.17909e-23
-7.83549e-24
1.875e-06
-4.24e-23
-8.68775e-23
1.875e-06
1.19787e-23
-1.97917e-23
1.875e-06
-4.85457e-23
8.50085e-23
-3.00283e-23
6.8934e-23
1.875e-06
4.06819e-23
1.01555e-22
1.875e-06
2.88586e-23
1.31781e-22
1.875e-06
2.93717e-23
1.84772e-22
1.875e-06
-4.18886e-23
1.98097e-22
1.875e-06
-1.73499e-23
-1.12643e-22
1.875e-06
7.6734e-23
-7.38661e-23
1.875e-06
3.99275e-23
8.05102e-24
1.875e-06
2.35736e-23
4.41707e-23
1.875e-06
5.61398e-23
8.76645e-23
1.875e-06
-4.80844e-23
3.3355e-23
1.875e-06
1.96522e-23
1.31615e-22
1.875e-06
2.05637e-23
1.22263e-22
1.875e-06
-4.726e-24
1.72633e-23
1.875e-06
-9.16541e-24
1.4423e-22
1.875e-06
-4.17895e-23
1.1806e-22
1.875e-06
7.16849e-24
6.02502e-23
1.875e-06
5.37008e-23
-3.37184e-23
1.875e-06
1.02899e-22
1.75704e-22
1.875e-06
8.14128e-23
-4.0332e-23
1.875e-06
1.08977e-23
-1.22582e-22
1.875e-06
-8.68973e-23
4.21835e-23
1.875e-06
1.80978e-23
8.34784e-23
1.875e-06
4.88436e-23
2.65455e-23
1.875e-06
-1.4713e-23
3.99392e-24
1.875e-06
-8.33928e-23
-6.43183e-24
1.875e-06
3.31199e-23
7.46415e-23
1.875e-06
1.35545e-23
-1.03586e-22
1.875e-06
2.98407e-23
-5.65307e-24
1.875e-06
-3.47087e-23
1.16164e-22
1.875e-06
-7.22403e-23
4.94531e-23
1.875e-06
-5.57637e-23
-3.29271e-23
1.875e-06
-4.79337e-24
-8.86913e-23
1.875e-06
-1.47646e-23
2.77653e-24
1.875e-06
4.69178e-23
-1.38476e-22
1.875e-06
-1.06282e-23
-4.61469e-23
1.875e-06
-1.37777e-22
-3.29939e-23
1.875e-06
5.84259e-23
-7.61423e-23
1.875e-06
4.73279e-23
-1.39793e-22
1.875e-06
6.02285e-23
2.04287e-23
2.73375e-23
8.23851e-23
1.875e-06
8.98164e-23
1.33302e-22
1.875e-06
1.7881e-22
1.91731e-22
1.875e-06
1.04222e-22
1.46412e-22
1.875e-06
1.36646e-22
1.40124e-22
1.875e-06
-1.09346e-22
-4.43011e-23
1.875e-06
-2.83132e-23
-7.33057e-23
1.875e-06
2.03758e-23
4.20293e-23
1.875e-06
3.89192e-23
1.49955e-22
1.875e-06
2.7099e-23
9.12759e-23
1.875e-06
2.79834e-23
3.73908e-23
1.875e-06
-1.71365e-23
6.36413e-23
1.875e-06
-1.25376e-23
6.55734e-23
1.875e-06
5.19462e-23
9.61471e-23
1.875e-06
-3.49513e-23
1.22882e-22
1.875e-06
7.55647e-23
1.8858e-22
1.875e-06
5.31291e-23
1.28372e-22
1.875e-06
-6.78724e-23
2.99816e-23
1.875e-06
3.2086e-23
7.58021e-23
1.875e-06
5.97753e-24
-8.11791e-23
1.875e-06
-2.05315e-23
-1.56653e-22
1.875e-06
1.25585e-23
1.91081e-22
1.875e-06
-2.86751e-23
8.76813e-23
1.875e-06
7.65752e-24
-3.6989e-25
1.875e-06
-2.52759e-23
2.95745e-24
1.875e-06
4.62214e-23
9.57118e-23
1.875e-06
4.35122e-23
-9.06798e-23
1.875e-06
3.99796e-23
-6.78328e-23
1.875e-06
-4.82735e-23
7.62666e-23
1.875e-06
-1.37277e-23
5.58976e-23
1.875e-06
2.30156e-23
7.96264e-23
1.875e-06
1.05273e-22
7.96567e-23
1.875e-06
-3.55824e-23
1.0513e-23
1.875e-06
-1.32101e-24
-7.71802e-23
1.875e-06
-8.12538e-23
-1.27575e-22
1.875e-06
-3.95378e-23
1.09561e-23
1.875e-06
5.76174e-23
6.71897e-23
1.875e-06
-8.74827e-23
-1.71825e-22
1.875e-06
-2.14791e-23
-1.50991e-22
1.875e-06
6.19384e-23
-9.35353e-24
6.18428e-23
5.27411e-23
1.875e-06
7.2823e-23
1.35613e-22
1.875e-06
-1.16289e-23
1.00114e-22
1.875e-06
2.42156e-24
6.70713e-23
1.875e-06
-5.25153e-23
4.39831e-23
1.875e-06
8.55694e-23
9.04434e-23
1.875e-06
8.43752e-24
-8.02806e-24
1.875e-06
1.23116e-23
2.53819e-23
1.875e-06
-2.23271e-23
7.08703e-23
1.875e-06
-2.43732e-23
1.70032e-22
1.875e-06
5.57665e-23
-1.95465e-23
1.875e-06
5.44507e-23
6.24091e-23
1.875e-06
2.97502e-23
8.44552e-23
1.875e-06
-3.28904e-23
4.29861e-23
1.875e-06
-5.0987e-23
1.51394e-22
1.875e-06
2.67488e-23
1.30671e-22
1.875e-06
4.7016e-23
5.65426e-23
1.875e-06
1.34136e-22
4.04489e-23
1.875e-06
-8.7568e-23
9.05088e-23
1.875e-06
-1.52892e-22
7.39594e-24
1.875e-06
5.12014e-23
-1.00832e-22
1.875e-06
2.54079e-23
1.56539e-22
1.875e-06
-1.9469e-24
1.47439e-22
1.875e-06
-1.74567e-23
8.77553e-23
1.875e-06
-5.26025e-23
1.01564e-22
1.875e-06
-5.87004e-23
5.75516e-23
1.875e-06
1.79055e-23
-1.19869e-23
1.875e-06
6.55949e-23
-4.94341e-23
1.875e-06
1.55488e-22
-7.48814e-23
1.875e-06
4.62427e-23
2.05907e-23
1.875e-06
-2.42333e-23
3.4585e-23
1.875e-06
-2.95148e-23
-3.91422e-23
1.875e-06
-2.76045e-23
7.19926e-23
1.875e-06
-5.79217e-23
-3.05042e-23
1.875e-06
1.51925e-23
-5.70488e-24
1.875e-06
9.64535e-24
-6.74054e-23
1.875e-06
-7.49804e-23
3.87609e-24
1.875e-06
2.57664e-23
-6.45446e-23
1.875e-06
-1.8177e-23
-7.99641e-23
1.875e-06
6.70694e-24
-3.66292e-23
-1.105e-23
-1.08749e-23
1.875e-06
-1.62772e-22
5.17438e-23
1.875e-06
-9.20633e-23
1.18693e-22
1.875e-06
-5.65979e-23
8.63143e-23
1.875e-06
-5.35214e-23
6.33786e-23
1.875e-06
-1.6849e-23
2.38615e-23
1.875e-06
2.62792e-23
5.94981e-23
1.875e-06
1.09283e-23
6.74259e-23
1.875e-06
3.85908e-23
8.82616e-23
1.875e-06
-5.20189e-25
6.14995e-23
1.875e-06
-2.50236e-23
1.76203e-23
1.875e-06
-3.45798e-23
8.20583e-23
1.875e-06
6.63583e-23
1.04143e-22
1.875e-06
1.27357e-23
6.55106e-23
1.875e-06
-2.91738e-24
1.55166e-22
1.875e-06
-3.42135e-23
6.99894e-23
1.875e-06
3.76487e-23
1.89442e-23
1.875e-06
-3.07896e-23
-4.70261e-23
1.875e-06
-4.42105e-23
6.14673e-23
1.875e-06
-7.92267e-23
4.79806e-23
1.875e-06
-2.57151e-23
-2.25618e-23
1.875e-06
-3.79253e-23
1.26009e-22
1.875e-06
-1.64146e-23
1.27657e-22
1.875e-06
1.03628e-22
5.44934e-23
1.875e-06
4.78003e-23
1.36997e-22
1.875e-06
2.00149e-23
1.12896e-22
1.875e-06
1.37717e-23
5.75526e-23
1.875e-06
1.04805e-22
5.43204e-23
1.875e-06
4.11907e-23
-7.37815e-24
1.875e-06
1.82095e-24
-2.026e-23
1.875e-06
7.42404e-23
-7.69938e-23
1.875e-06
7.71806e-24
-2.67001e-23
1.875e-06
-3.24502e-23
-7.36872e-23
1.875e-06
-7.89902e-23
4.12048e-23
1.875e-06
-4.24426e-23
-2.41443e-23
1.875e-06
-2.51784e-23
-8.4664e-23
1.875e-06
-3.37217e-23
-3.45527e-23
1.875e-06
-4.23786e-24
-1.01012e-22
1.875e-06
9.55998e-23
-3.10391e-23
1.875e-06
1.82709e-23
-2.25763e-23
-9.78021e-24
4.09141e-23
1.875e-06
8.91919e-23
1.71416e-22
1.875e-06
8.63336e-23
1.46709e-22
1.875e-06
2.61249e-23
1.04923e-22
1.875e-06
6.00707e-23
7.93335e-23
1.875e-06
2.45536e-23
3.25981e-23
1.875e-06
-4.05588e-23
1.75612e-23
1.875e-06
-1.26568e-23
5.93534e-23
1.875e-06
-1.25122e-23
1.11027e-22
1.875e-06
5.01622e-23
9.17217e-23
1.875e-06
7.15712e-23
5.54339e-23
1.875e-06
4.84683e-23
1.57713e-22
1.875e-06
-5.84521e-23
1.05642e-22
1.875e-06
3.04732e-23
3.51267e-23
1.875e-06
9.20219e-23
1.03948e-22
1.875e-06
-2.60361e-23
7.62504e-23
1.875e-06
-9.82351e-23
-2.42512e-23
1.875e-06
-1.06896e-22
-2.76942e-23
1.875e-06
-3.41966e-23
7.82545e-23
1.875e-06
-6.52963e-23
5.72714e-23
1.875e-06
3.36738e-23
-1.00784e-23
1.875e-06
2.83728e-24
1.23648e-22
1.875e-06
-9.74692e-24
1.7191e-22
1.875e-06
-5.549e-23
7.88672e-24
1.875e-06
-1.05692e-24
4.67692e-23
1.875e-06
8.96957e-24
1.00793e-22
1.875e-06
8.06811e-23
9.1696e-23
1.875e-06
1.77789e-23
-3.07217e-23
1.875e-06
-6.16807e-23
-3.21842e-23
1.875e-06
2.33737e-23
1.08351e-23
1.875e-06
1.11658e-22
-1.71297e-23
1.875e-06
2.34916e-22
1.69504e-22
1.875e-06
-5.46971e-23
-2.20916e-23
1.875e-06
-8.02564e-23
-5.666e-23
1.875e-06
-1.43062e-23
-7.88189e-23
1.875e-06
-6.24931e-23
-1.24183e-22
1.875e-06
-3.21966e-23
-5.27072e-23
1.875e-06
-1.00321e-22
-1.06444e-22
1.875e-06
5.29109e-23
-4.81583e-23
1.875e-06
8.84915e-23
1.15599e-23
5.03821e-23
1.01932e-23
1.875e-06
7.5651e-23
1.00841e-22
1.875e-06
8.97421e-23
1.2498e-22
1.875e-06
9.54067e-23
3.99032e-23
1.875e-06
3.50246e-23
8.29553e-23
1.875e-06
3.69961e-23
1.14312e-22
1.875e-06
-7.61341e-23
-1.26033e-23
1.875e-06
-5.46702e-23
8.95845e-23
1.875e-06
8.64658e-23
1.07787e-22
1.875e-06
-3.60904e-24
6.58995e-23
1.875e-06
1.00538e-23
1.5996e-22
1.875e-06
7.34887e-23
1.62793e-22
1.875e-06
3.45112e-23
4.59764e-23
1.875e-06
8.10363e-23
-1.57448e-23
1.875e-06
8.3921e-23
3.81439e-23
1.875e-06
3.78108e-23
1.16327e-22
1.875e-06
-4.64522e-23
7.52894e-23
1.875e-06
-2.94513e-23
6.45676e-24
1.875e-06
-4.21351e-23
2.88255e-23
1.875e-06
3.91038e-23
7.53454e-23
1.875e-06
-1.49513e-22
-3.83289e-23
1.875e-06
7.13318e-23
9.69053e-23
1.875e-06
2.96993e-23
1.09336e-22
1.875e-06
-1.15674e-22
1.5777e-23
1.875e-06
-5.67949e-23
1.0046e-22
1.875e-06
8.01003e-23
1.42497e-22
1.875e-06
-1.75597e-23
4.46456e-23
1.875e-06
-7.13534e-23
3.37066e-23
1.875e-06
-2.03433e-23
6.39181e-23
1.875e-06
-3.42274e-23
-1.34106e-23
1.875e-06
-5.23074e-24
-8.19233e-23
1.875e-06
-1.81796e-23
4.48465e-23
1.875e-06
1.78377e-22
4.03263e-23
1.875e-06
9.94885e-23
1.77169e-23
1.875e-06
1.00443e-22
-1.44231e-22
1.875e-06
-5.85562e-24
-1.70938e-22
1.875e-06
-7.03141e-23
-6.41812e-23
1.875e-06
7.4943e-23
-3.35786e-23
1.875e-06
-4.93002e-23
-1.06811e-22
1.875e-06
-6.97413e-23
-1.88598e-24
-6.71958e-24
-9.46532e-23
1.875e-06
1.93655e-22
1.04756e-23
1.875e-06
1.35314e-22
9.95218e-23
1.875e-06
6.87086e-23
9.74253e-23
1.875e-06
7.60148e-23
1.37266e-22
1.875e-06
-1.11112e-25
1.05624e-22
1.875e-06
3.31888e-23
1.05944e-22
1.875e-06
4.59858e-23
1.77982e-22
1.875e-06
-4.4775e-23
6.34591e-23
1.875e-06
3.36692e-24
7.87722e-23
1.875e-06
7.22969e-23
6.79728e-23
1.875e-06
2.31593e-23
1.10669e-22
1.875e-06
2.23025e-23
1.16749e-22
1.875e-06
6.79786e-24
2.1413e-23
1.875e-06
-2.93741e-23
-3.87218e-23
1.875e-06
5.88095e-23
3.16536e-23
1.875e-06
7.51849e-23
6.41714e-23
1.875e-06
3.32843e-23
2.63849e-23
1.875e-06
-3.64352e-23
7.13937e-23
1.875e-06
2.77329e-23
4.3248e-23
1.875e-06
2.41103e-23
9.57967e-23
1.875e-06
-7.41699e-23
5.45572e-23
1.875e-06
5.39921e-23
4.09892e-23
1.875e-06
4.72071e-23
9.67107e-23
1.875e-06
5.18472e-23
1.12462e-22
1.875e-06
-1.20117e-22
6.0252e-23
1.875e-06
2.97621e-24
2.66271e-23
1.875e-06
-1.66804e-22
-2.98812e-23
1.875e-06
-1.05151e-22
1.75859e-23
1.875e-06
2.6953e-23
7.7974e-23
1.875e-06
5.20919e-23
7.43421e-23
1.875e-06
-1.48217e-23
1.41055e-22
1.875e-06
1.01547e-22
1.42807e-23
1.875e-06
1.43086e-22
9.49022e-24
1.875e-06
-5.59059e-23
-1.8828e-22
1.875e-06
6.78932e-24
-1.70051e-22
1.875e-06
6.57725e-23
-1.57638e-23
1.875e-06
-7.01856e-23
-1.40698e-22
1.875e-06
-6.17725e-23
-1.51128e-22
1.875e-06
-1.20615e-22
-1.08204e-23
-6.6692e-23
-1.19443e-23
1.875e-06
-1.39808e-22
-8.31485e-23
1.875e-06
3.77065e-23
1.19383e-22
1.875e-06
1.36604e-22
1.4834e-22
1.875e-06
4.0507e-23
1.70194e-22
1.875e-06
1.73599e-24
1.75705e-22
1.875e-06
8.68878e-23
1.52627e-22
1.875e-06
5.17114e-23
2.24304e-22
1.875e-06
5.22783e-23
1.32107e-22
1.875e-06
-1.15568e-23
6.71047e-23
1.875e-06
-1.0486e-22
4.90839e-23
1.875e-06
-2.56076e-23
1.03755e-22
1.875e-06
7.54721e-24
1.76569e-22
1.875e-06
-5.05593e-23
6.1571e-23
1.875e-06
-2.91938e-23
6.34909e-23
1.875e-06
1.79025e-23
3.94278e-24
1.875e-06
3.81053e-24
-6.99089e-23
1.875e-06
-8.98637e-24
5.22865e-24
1.875e-06
7.80093e-23
2.0295e-22
1.875e-06
1.99763e-23
1.29962e-22
1.875e-06
-5.28236e-23
1.0496e-22
1.875e-06
-7.39524e-23
6.93003e-23
1.875e-06
-2.04859e-23
-6.63696e-23
1.875e-06
5.60302e-23
3.82834e-23
1.875e-06
-4.88771e-23
1.02221e-22
1.875e-06
4.14683e-23
1.22012e-22
1.875e-06
-3.61828e-23
-1.13369e-22
1.875e-06
1.18787e-23
-2.1006e-23
1.875e-06
-6.26046e-23
4.55578e-23
1.875e-06
7.04893e-23
3.81041e-23
1.875e-06
1.2972e-23
3.42422e-23
1.875e-06
2.97757e-23
1.57108e-22
1.875e-06
3.67721e-23
1.22308e-22
1.875e-06
5.19014e-23
3.21278e-23
1.875e-06
4.13616e-23
-1.09688e-22
1.875e-06
-4.16453e-23
-2.76545e-22
1.875e-06
-4.02815e-23
-1.91637e-22
1.875e-06
1.10655e-22
-8.96027e-23
1.875e-06
-8.63225e-23
-1.12452e-22
1.875e-06
-1.39125e-22
-2.87047e-23
-9.68295e-23
9.30491e-24
1.875e-06
1.85767e-23
1.80407e-22
1.875e-06
1.52917e-23
1.3873e-22
1.875e-06
4.53761e-23
1.53511e-22
1.875e-06
1.23904e-22
2.34616e-22
1.875e-06
4.90897e-23
2.35656e-22
1.875e-06
6.88082e-23
1.96967e-22
1.875e-06
1.14175e-22
1.64381e-22
1.875e-06
1.13484e-23
1.15115e-22
1.875e-06
-7.51706e-24
9.15952e-23
1.875e-06
-1.0813e-23
8.78267e-23
1.875e-06
-1.4979e-23
9.37442e-23
1.875e-06
-4.68207e-23
1.33005e-22
1.875e-06
-3.89925e-23
1.07908e-22
1.875e-06
5.17031e-24
6.16747e-23
1.875e-06
1.177e-23
4.0742e-23
1.875e-06
3.95334e-23
8.82624e-24
1.875e-06
-1.16091e-22
1.38035e-23
1.875e-06
-9.65247e-23
9.55347e-23
1.875e-06
-4.84304e-23
1.30299e-22
1.875e-06
3.19563e-23
1.03244e-22
1.875e-06
1.56838e-22
1.39319e-22
1.875e-06
1.10372e-22
4.41085e-23
1.875e-06
-7.53471e-23
4.80994e-25
1.875e-06
-2.41797e-24
1.31536e-22
1.875e-06
6.07002e-23
3.90355e-23
1.875e-06
7.517e-23
-7.9143e-23
1.875e-06
4.02479e-23
-1.52247e-22
1.875e-06
-2.61478e-23
1.07587e-22
1.875e-06
-5.27395e-23
4.2531e-23
1.875e-06
1.66871e-23
1.07872e-22
1.875e-06
-9.79578e-24
1.26861e-22
1.875e-06
5.70196e-23
5.57264e-23
1.875e-06
3.7329e-23
4.86533e-24
1.875e-06
-3.98452e-23
-1.77501e-22
1.875e-06
1.02377e-22
-2.19384e-22
1.875e-06
7.48293e-23
-6.85713e-23
1.875e-06
-1.16986e-22
-1.86531e-22
1.875e-06
-1.30419e-22
-4.89632e-23
1.875e-06
-7.15388e-23
5.13101e-23
-8.05064e-23
-1.72618e-23
1.875e-06
1.7406e-23
2.07907e-22
1.875e-06
7.2653e-23
2.92358e-22
1.875e-06
8.7199e-23
1.67369e-22
1.875e-06
3.51664e-23
2.01255e-22
1.875e-06
3.21981e-24
3.16079e-22
1.875e-06
1.72468e-23
1.44445e-22
1.875e-06
-1.26531e-23
1.94451e-22
1.875e-06
2.12033e-23
1.18924e-22
1.875e-06
-3.68121e-23
1.07015e-22
1.875e-06
-4.86432e-23
7.13433e-23
1.875e-06
-1.84004e-23
4.55165e-23
1.875e-06
2.83158e-23
1.04209e-22
1.875e-06
7.54534e-23
1.63714e-22
1.875e-06
5.40937e-23
7.08253e-23
1.875e-06
-5.69734e-23
8.23634e-23
1.875e-06
-1.13789e-22
8.22116e-23
1.875e-06
7.22241e-23
1.28609e-22
1.875e-06
6.01689e-23
1.43308e-22
1.875e-06
5.02398e-23
1.32424e-22
1.875e-06
-5.5209e-23
-3.50964e-23
1.875e-06
5.99894e-23
7.67759e-23
1.875e-06
-1.61511e-23
-3.62392e-23
1.875e-06
-3.29849e-24
4.38336e-23
1.875e-06
5.98864e-23
1.38299e-22
1.875e-06
-8.74495e-24
4.50184e-23
1.875e-06
-1.08232e-23
-8.11599e-23
1.875e-06
5.66421e-23
-1.01939e-22
1.875e-06
5.6736e-23
1.04808e-22
1.875e-06
-5.48134e-23
1.25531e-22
1.875e-06
-2.86457e-23
1.13946e-22
1.875e-06
7.14502e-23
1.65219e-22
1.875e-06
2.2675e-23
2.98739e-23
1.875e-06
-6.84895e-24
-4.93127e-23
1.875e-06
-3.29377e-23
-1.53854e-22
1.875e-06
-1.80544e-24
-2.00531e-22
1.875e-06
2.24728e-23
-1.37154e-22
1.875e-06
-3.61484e-23
-1.25087e-22
1.875e-06
-8.54395e-23
-2.44589e-23
1.875e-06
-3.23138e-23
3.43899e-23
1.13096e-22
-1.27598e-24
1.875e-06
2.1028e-22
1.94562e-22
1.875e-06
9.61983e-23
2.64298e-22
1.875e-06
2.26836e-23
2.24243e-22
1.875e-06
4.55568e-23
2.78307e-22
1.875e-06
9.66544e-23
3.32294e-22
1.875e-06
-1.93974e-23
1.55165e-22
1.875e-06
-4.25585e-23
2.04287e-22
1.875e-06
-6.47713e-23
1.12481e-22
1.875e-06
6.4497e-24
1.39735e-22
1.875e-06
6.06369e-23
1.00947e-22
1.875e-06
6.38601e-24
4.4474e-23
1.875e-06
-2.08732e-23
4.63185e-23
1.875e-06
-1.90165e-23
9.09993e-23
1.875e-06
5.89362e-24
9.42721e-23
1.875e-06
8.58569e-23
1.75062e-22
1.875e-06
2.95193e-24
2.5048e-22
1.875e-06
-6.17483e-24
8.19074e-23
1.875e-06
-4.47471e-23
7.84184e-23
1.875e-06
-1.50519e-23
4.10376e-23
1.875e-06
1.00823e-22
1.18087e-22
1.875e-06
6.03067e-24
-7.32612e-24
1.875e-06
-4.77307e-23
-3.88656e-23
1.875e-06
4.65278e-24
4.73019e-23
1.875e-06
-4.05048e-23
6.6845e-23
1.875e-06
1.71265e-23
1.17385e-22
1.875e-06
2.83352e-24
-1.06818e-23
1.875e-06
6.13707e-23
-2.95245e-23
1.875e-06
1.10008e-22
7.40509e-23
1.875e-06
3.75644e-23
1.04258e-22
1.875e-06
-3.86288e-23
2.06203e-22
1.875e-06
-4.96014e-23
1.28972e-22
1.875e-06
-6.1491e-23
3.89738e-23
1.875e-06
-1.41064e-22
-2.1633e-23
1.875e-06
4.21599e-23
-3.1024e-23
1.875e-06
3.27768e-23
-1.12639e-22
1.875e-06
3.0788e-23
-1.68132e-22
1.875e-06
1.13781e-23
-1.87081e-22
1.875e-06
8.86823e-23
-1.04654e-22
1.875e-06
7.60493e-23
-1.84381e-23
-2.14804e-23
-6.17091e-23
1.875e-06
-3.43005e-23
1.2551e-22
1.875e-06
-6.80002e-24
2.25042e-22
1.875e-06
2.70153e-23
2.68746e-22
1.875e-06
2.67554e-23
3.13399e-22
1.875e-06
5.20232e-23
2.87266e-22
1.875e-06
1.49172e-23
3.03803e-22
1.875e-06
9.73948e-24
1.14776e-22
1.875e-06
-2.66331e-23
1.21113e-22
1.875e-06
6.20934e-23
1.26918e-22
1.875e-06
1.06904e-22
4.10158e-23
1.875e-06
7.68624e-23
4.48047e-24
1.875e-06
-1.20538e-22
6.41899e-23
1.875e-06
-1.14762e-22
1.19889e-22
1.875e-06
5.88452e-23
1.95287e-22
1.875e-06
3.26573e-23
1.82813e-22
1.875e-06
-6.46444e-23
1.48076e-22
1.875e-06
2.86518e-23
3.58133e-24
1.875e-06
-4.19348e-23
1.08759e-22
1.875e-06
-7.73235e-23
1.04643e-22
1.875e-06
-4.83829e-23
4.03031e-23
1.875e-06
8.66972e-23
3.54603e-23
1.875e-06
1.43261e-22
3.58473e-23
1.875e-06
7.86126e-23
7.6143e-23
1.875e-06
5.4313e-23
6.7317e-23
1.875e-06
-6.57331e-23
1.13421e-22
1.875e-06
-6.11389e-23
5.05455e-23
1.875e-06
4.46257e-23
3.2531e-23
1.875e-06
7.02404e-23
7.62476e-23
1.875e-06
2.61619e-23
9.75538e-23
1.875e-06
-4.99202e-23
9.42077e-23
1.875e-06
-2.5214e-23
1.31548e-22
1.875e-06
-1.19385e-22
5.78385e-23
1.875e-06
-5.70776e-24
4.69563e-23
1.875e-06
7.55083e-23
-2.40816e-23
1.875e-06
1.81089e-23
-5.11826e-23
1.875e-06
2.47767e-23
-1.30263e-22
1.875e-06
-2.68041e-23
-1.57561e-22
1.875e-06
2.21569e-23
-1.11549e-22
1.875e-06
1.30964e-23
-7.37847e-23
-5.62311e-23
-8.4351e-23
1.875e-06
-7.89357e-23
2.51791e-22
1.875e-06
8.13968e-24
3.24674e-22
1.875e-06
5.99547e-23
3.36035e-22
1.875e-06
-4.8998e-24
2.93278e-22
1.875e-06
-1.23942e-22
2.66617e-22
1.875e-06
8.71817e-23
2.6418e-22
1.875e-06
7.51403e-23
1.68946e-22
1.875e-06
9.71665e-23
8.92285e-23
1.875e-06
1.68725e-23
8.97083e-23
1.875e-06
-6.8683e-23
3.22056e-23
1.875e-06
-7.22281e-23
5.64963e-23
1.875e-06
2.2429e-23
1.43781e-22
1.875e-06
-6.38968e-23
1.75314e-22
1.875e-06
-2.15443e-23
1.00025e-22
1.875e-06
-7.17353e-23
1.1388e-22
1.875e-06
9.61419e-24
1.94161e-22
1.875e-06
3.64104e-23
-2.79141e-23
1.875e-06
7.37652e-23
1.09813e-22
1.875e-06
3.12958e-23
8.16502e-23
1.875e-06
1.69379e-23
1.7335e-23
1.875e-06
-6.89231e-24
7.6659e-23
1.875e-06
8.45701e-24
-1.78802e-23
1.875e-06
9.05237e-24
1.7399e-23
1.875e-06
-2.88342e-23
3.56732e-23
1.875e-06
-1.09158e-22
1.83137e-22
1.875e-06
-1.23228e-23
1.95406e-22
1.875e-06
6.45729e-23
5.55006e-23
1.875e-06
1.09972e-22
3.68743e-23
1.875e-06
7.26378e-23
6.64414e-23
1.875e-06
3.50605e-23
6.63927e-23
1.875e-06
1.10337e-23
-2.07989e-23
1.875e-06
-9.62417e-23
1.22647e-22
1.875e-06
-6.10381e-23
6.51448e-23
1.875e-06
-6.18529e-23
-4.49736e-23
1.875e-06
1.21566e-23
-6.27052e-23
1.875e-06
9.84775e-23
-1.5241e-22
1.875e-06
7.53406e-24
-1.85732e-22
1.875e-06
-5.74137e-23
-3.62634e-23
1.875e-06
-1.73578e-23
-6.06187e-23
-1.04829e-22
-1.82964e-22
1.875e-06
9.35689e-23
4.91842e-22
1.875e-06
5.17574e-23
3.48066e-22
1.875e-06
-7.08826e-23
2.5254e-22
1.875e-06
-9.08799e-23
2.16845e-22
1.875e-06
4.04895e-23
3.1655e-22
1.875e-06
-5.88288e-23
1.61396e-22
1.875e-06
-2.18425e-23
1.15265e-22
1.875e-06
4.52334e-23
5.27883e-23
1.875e-06
1.02983e-23
8.42492e-23
1.875e-06
-4.95349e-23
1.38802e-22
1.875e-06
-9.63465e-24
1.44393e-22
1.875e-06
-3.26424e-23
1.08737e-22
1.875e-06
4.79092e-23
1.63679e-22
1.875e-06
-4.22587e-23
7.14281e-23
1.875e-06
-9.86855e-23
8.67062e-23
1.875e-06
-6.1218e-23
8.44292e-23
1.875e-06
-8.72482e-23
-1.5703e-22
1.875e-06
3.5796e-23
6.39248e-23
1.875e-06
3.44306e-23
1.54217e-22
1.875e-06
1.71354e-22
1.18994e-22
1.875e-06
1.08984e-22
8.59794e-23
1.875e-06
-2.61928e-23
8.87564e-23
1.875e-06
-3.30986e-23
7.60769e-23
1.875e-06
-1.71367e-22
4.92385e-24
1.875e-06
4.2034e-23
1.43768e-22
1.875e-06
7.36798e-23
1.93101e-22
1.875e-06
3.23219e-23
1.38878e-22
1.875e-06
3.39136e-23
5.94062e-23
1.875e-06
-3.08583e-23
5.07911e-24
1.875e-06
-4.20914e-23
6.47167e-23
1.875e-06
-6.21873e-23
-4.32755e-23
1.875e-06
5.25419e-23
-4.19329e-25
1.875e-06
-1.2251e-22
-6.32014e-23
1.875e-06
-7.52314e-23
-3.11771e-23
1.875e-06
2.46353e-23
-7.45522e-24
1.875e-06
-8.92249e-23
-7.2874e-23
1.875e-06
1.15444e-22
-4.48851e-23
1.875e-06
2.10419e-22
-1.36845e-22
1.875e-06
5.24571e-23
-1.17559e-22
-3.65683e-24
-8.68093e-23
1.875e-06
-3.07348e-23
3.02996e-22
1.875e-06
-7.0909e-23
2.49689e-22
1.875e-06
6.2024e-23
2.67414e-22
1.875e-06
-6.60061e-23
3.48583e-22
1.875e-06
-8.64386e-23
2.7828e-22
1.875e-06
-3.94736e-23
2.27866e-22
1.875e-06
-5.63981e-24
1.56546e-22
1.875e-06
4.11614e-23
8.28361e-23
1.875e-06
5.27128e-23
8.37131e-23
1.875e-06
2.91416e-23
1.33576e-22
1.875e-06
-7.65502e-23
1.80792e-22
1.875e-06
-7.55622e-24
1.71476e-22
1.875e-06
-1.09966e-23
1.50132e-22
1.875e-06
-8.68109e-23
2.77777e-23
1.875e-06
-3.03608e-23
3.03746e-23
1.875e-06
-3.31165e-23
5.54756e-23
1.875e-06
-1.5164e-23
-2.51067e-23
1.875e-06
6.95392e-23
1.02002e-22
1.875e-06
2.24382e-22
1.97912e-22
1.875e-06
1.83372e-22
3.59633e-23
1.875e-06
1.63669e-23
7.33699e-23
1.875e-06
-1.35166e-22
7.0482e-23
1.875e-06
-2.61258e-22
3.55197e-23
1.875e-06
-7.62594e-23
1.26939e-22
1.875e-06
3.5819e-23
1.11187e-22
1.875e-06
-1.52132e-23
1.67323e-22
1.875e-06
-2.4027e-23
1.06396e-22
1.875e-06
1.55333e-23
-1.17786e-23
1.875e-06
-4.64679e-23
5.15897e-23
1.875e-06
7.7356e-23
6.75352e-23
1.875e-06
4.44765e-23
-1.27229e-23
1.875e-06
-1.01183e-23
-1.22293e-22
1.875e-06
6.29103e-23
-7.50846e-23
1.875e-06
-7.01397e-23
-1.31859e-22
1.875e-06
-8.11819e-23
-9.27272e-23
1.875e-06
3.20569e-23
1.08347e-22
1.875e-06
2.32575e-23
-3.39279e-23
1.875e-06
-4.33865e-23
-2.45411e-22
1.875e-06
3.61031e-23
-1.31326e-22
1.54079e-22
-8.21636e-23
1.875e-06
-8.7731e-23
2.72555e-22
1.875e-06
-5.45781e-23
2.98096e-22
1.875e-06
-7.92477e-25
1.45226e-22
1.875e-06
8.56241e-23
2.95544e-22
1.875e-06
5.94766e-23
2.74793e-22
1.875e-06
-5.86945e-23
2.40007e-22
1.875e-06
-8.87895e-24
1.85866e-22
1.875e-06
2.73423e-23
1.39284e-22
1.875e-06
-1.5829e-23
8.89798e-23
1.875e-06
-7.31863e-24
1.41225e-22
1.875e-06
3.83766e-24
2.16136e-22
1.875e-06
-6.69331e-23
1.51088e-22
1.875e-06
-3.19033e-23
1.50131e-22
1.875e-06
-3.84364e-23
1.46444e-22
1.875e-06
-3.99293e-23
-4.1939e-24
1.875e-06
2.93843e-23
-7.53926e-23
1.875e-06
1.63899e-23
-4.42842e-23
1.875e-06
6.29757e-23
8.96531e-23
1.875e-06
4.14154e-23
1.27727e-22
1.875e-06
7.05429e-23
7.12322e-23
1.875e-06
4.3109e-23
1.11033e-22
1.875e-06
4.74185e-23
3.10686e-23
1.875e-06
-7.86002e-23
3.97245e-23
1.875e-06
-1.39887e-22
1.18508e-22
1.875e-06
-5.99968e-23
1.18022e-22
1.875e-06
3.24976e-23
1.59282e-22
1.875e-06
-4.7362e-23
4.88271e-23
1.875e-06
-9.70783e-23
8.23197e-24
1.875e-06
1.04739e-22
1.11181e-22
1.875e-06
-9.83235e-24
5.90356e-23
1.875e-06
-4.1311e-23
5.18671e-24
1.875e-06
-1.23796e-23
-1.15043e-22
1.875e-06
1.10811e-23
-1.83893e-22
1.875e-06
3.23494e-23
-1.04634e-22
1.875e-06
-4.18198e-23
-4.62426e-23
1.875e-06
1.24996e-22
1.72062e-23
1.875e-06
2.17324e-23
-8.83628e-23
1.875e-06
-3.05674e-23
-2.48239e-22
1.875e-06
-5.58451e-24
-1.47378e-22
-9.47819e-24
-1.92503e-22
1.875e-06
-3.62309e-23
3.12576e-22
1.875e-06
-9.39009e-23
3.32832e-22
1.875e-06
-5.1163e-23
3.23413e-22
1.875e-06
1.29929e-23
2.88398e-22
1.875e-06
3.09553e-23
2.25514e-22
1.875e-06
3.52709e-23
3.17359e-22
1.875e-06
-4.40496e-24
1.85607e-22
1.875e-06
-1.05545e-22
2.0737e-23
1.875e-06
-1.65907e-23
1.27972e-22
1.875e-06
3.71764e-23
2.24937e-22
1.875e-06
3.54843e-23
1.65441e-22
1.875e-06
8.91175e-23
1.61363e-22
1.875e-06
-1.05987e-22
1.69538e-22
1.875e-06
-1.58738e-22
1.25061e-22
1.875e-06
1.27112e-23
3.8395e-23
1.875e-06
7.09294e-23
-1.15155e-23
1.875e-06
-4.48646e-23
6.34282e-23
1.875e-06
9.15546e-23
1.83442e-23
1.875e-06
2.17143e-22
2.67829e-23
1.875e-06
7.00191e-23
5.5656e-24
1.875e-06
-8.30406e-23
4.84482e-23
1.875e-06
-1.32138e-22
2.03001e-23
1.875e-06
-7.43802e-24
1.07116e-22
1.875e-06
6.34783e-23
1.81524e-22
1.875e-06
-1.01873e-22
1.81258e-22
1.875e-06
-1.07569e-23
8.00678e-23
1.875e-06
-6.18213e-23
-4.65854e-24
1.875e-06
-1.04234e-22
1.07777e-23
1.875e-06
-1.24714e-22
6.16627e-23
1.875e-06
1.20458e-23
4.08565e-23
1.875e-06
2.99548e-23
-9.40205e-23
1.875e-06
3.87717e-24
-1.36407e-22
1.875e-06
-4.61999e-23
-8.47103e-23
1.875e-06
5.7227e-23
-5.42956e-23
1.875e-06
1.23637e-22
1.7843e-25
1.875e-06
-8.27065e-23
-1.63782e-22
1.875e-06
-3.76595e-23
-1.29238e-22
1.875e-06
-8.65673e-24
-1.50505e-22
1.875e-06
-1.02336e-23
-1.99646e-22
1.93463e-23
-1.79465e-22
1.875e-06
-1.12905e-23
3.38007e-22
1.875e-06
2.15099e-23
4.41228e-22
1.875e-06
8.53326e-24
3.55786e-22
1.875e-06
-3.28247e-23
3.48713e-22
1.875e-06
-6.8227e-23
2.05736e-22
1.875e-06
-5.37434e-25
3.12052e-22
1.875e-06
-3.40151e-24
2.13297e-22
1.875e-06
8.19099e-24
1.21765e-22
1.875e-06
4.0033e-24
1.69719e-22
1.875e-06
-4.83612e-23
2.70329e-22
1.875e-06
7.39845e-24
1.64642e-22
1.875e-06
-3.47781e-23
8.86312e-23
1.875e-06
-5.36561e-24
1.68395e-22
1.875e-06
5.49202e-23
1.67533e-22
1.875e-06
-5.50391e-23
-1.26138e-23
1.875e-06
-7.9783e-23
2.52948e-23
1.875e-06
1.20762e-24
1.17264e-22
1.875e-06
-4.85679e-23
-8.65084e-23
1.875e-06
6.78539e-23
-1.49612e-22
1.875e-06
-1.08136e-23
-4.07428e-23
1.875e-06
2.4029e-23
5.99085e-23
1.875e-06
2.42039e-23
2.00507e-22
1.875e-06
3.40874e-23
1.91776e-22
1.875e-06
9.36279e-23
1.60714e-22
1.875e-06
-7.35427e-24
1.52566e-22
1.875e-06
-1.82557e-22
-4.37929e-23
1.875e-06
9.21377e-23
-1.03874e-23
1.875e-06
5.51779e-23
6.44771e-23
1.875e-06
-6.00975e-23
1.32287e-22
1.875e-06
-6.90462e-23
3.63418e-23
1.875e-06
-1.62278e-22
-9.11672e-23
1.875e-06
-6.457e-23
-1.57063e-22
1.875e-06
6.58838e-23
-1.55469e-22
1.875e-06
1.21166e-22
-6.86993e-23
1.875e-06
-2.26046e-23
1.98474e-23
1.875e-06
-3.91001e-23
-7.604e-23
1.875e-06
5.42021e-23
-9.35423e-23
1.875e-06
-9.03394e-24
-1.5161e-22
1.875e-06
-3.02533e-23
-2.41477e-22
-1.03668e-23
-1.71935e-22
1.875e-06
9.1933e-23
4.55264e-22
1.875e-06
3.92272e-23
4.23782e-22
1.875e-06
-4.53412e-23
2.87136e-22
1.875e-06
-5.97905e-23
3.20093e-22
1.875e-06
8.48269e-24
2.71317e-22
1.875e-06
-1.85362e-23
2.55333e-22
1.875e-06
-4.22299e-23
2.30089e-22
1.875e-06
-1.06624e-22
1.60478e-22
1.875e-06
-6.57896e-23
1.83274e-22
1.875e-06
7.07034e-23
3.05843e-22
1.875e-06
-3.01694e-22
1.15496e-22
1.875e-06
4.34655e-22
1.4701e-22
1.875e-06
4.47427e-23
7.20256e-23
1.875e-06
3.31496e-23
7.70722e-23
1.875e-06
6.20487e-24
1.61385e-22
1.875e-06
-8.23243e-23
9.46704e-23
1.875e-06
-9.02073e-23
3.08854e-23
1.875e-06
-7.00279e-23
-2.32041e-22
1.875e-06
-3.17759e-23
-1.26028e-22
1.875e-06
-2.49091e-23
-6.36697e-24
1.875e-06
7.42087e-24
9.33032e-24
1.875e-06
4.04123e-23
1.52225e-22
1.875e-06
-9.47248e-24
2.31902e-22
1.875e-06
1.45417e-23
5.83724e-23
1.875e-06
1.211e-22
1.19314e-22
1.875e-06
-1.96725e-23
8.95458e-23
1.875e-06
-1.14779e-22
-3.81042e-23
1.875e-06
-1.52593e-23
6.95068e-23
1.875e-06
-1.40646e-22
1.08422e-22
1.875e-06
1.30866e-22
-5.56816e-23
1.875e-06
1.00517e-22
6.79627e-24
1.875e-06
-3.40036e-23
-4.7001e-23
1.875e-06
1.19167e-22
-1.99223e-22
1.875e-06
-1.8683e-22
-1.14982e-22
1.875e-06
-1.00632e-22
4.07809e-23
1.875e-06
9.2135e-23
-5.1976e-23
1.875e-06
2.57457e-23
-1.90447e-22
1.875e-06
7.59265e-23
-1.65866e-22
1.875e-06
-3.36363e-23
-2.45132e-22
-2.47594e-23
-1.13146e-22
1.875e-06
7.87158e-23
4.72279e-22
1.875e-06
3.90247e-23
4.58621e-22
1.875e-06
-3.93456e-23
3.17659e-22
1.875e-06
-9.07121e-23
2.93227e-22
1.875e-06
-7.07535e-23
2.73268e-22
1.875e-06
2.11789e-23
1.6379e-22
1.875e-06
-4.80697e-24
1.48425e-22
1.875e-06
2.15356e-23
1.93933e-22
1.875e-06
-1.79747e-23
1.63769e-22
1.875e-06
9.27465e-24
2.53824e-22
1.875e-06
3.74298e-23
2.12417e-22
1.875e-06
1.84067e-23
1.69066e-22
1.875e-06
6.27112e-23
1.31091e-22
1.875e-06
1.26347e-22
1.38984e-22
1.875e-06
-1.19272e-22
9.60725e-23
1.875e-06
-1.71961e-22
3.18772e-23
1.875e-06
-2.60801e-23
-1.18692e-22
1.875e-06
5.98406e-24
-1.77134e-22
1.875e-06
-1.84115e-22
-5.68496e-23
1.875e-06
-7.50746e-23
2.8436e-23
1.875e-06
2.11835e-23
-1.50997e-23
1.875e-06
2.9666e-23
1.76582e-23
1.875e-06
5.72268e-23
2.07724e-22
1.875e-06
3.63719e-23
1.03516e-22
1.875e-06
2.72576e-23
4.57209e-23
1.875e-06
1.88329e-23
1.36001e-22
1.875e-06
-7.83952e-23
5.36191e-23
1.875e-06
6.50265e-23
8.84002e-24
1.875e-06
6.9212e-23
8.1219e-23
1.875e-06
5.33799e-23
-2.05871e-24
1.875e-06
-4.90056e-23
-1.28512e-22
1.875e-06
-1.0758e-22
-1.27549e-22
1.875e-06
-7.49454e-23
-2.37688e-22
1.875e-06
4.09467e-23
3.64764e-23
1.875e-06
6.01572e-23
1.02574e-22
1.875e-06
-1.33264e-23
-1.13442e-22
1.875e-06
-1.79536e-23
-8.54511e-23
1.875e-06
1.0564e-23
-1.46166e-22
1.875e-06
4.66975e-23
-2.91892e-22
3.06652e-23
-1.57139e-22
1.875e-06
-1.75294e-23
3.86061e-22
1.875e-06
-6.29218e-23
4.23682e-22
1.875e-06
-6.43177e-23
3.19153e-22
1.875e-06
2.68584e-23
2.14629e-22
1.875e-06
-6.58579e-23
2.59454e-22
1.875e-06
5.91116e-23
2.07486e-22
1.875e-06
-1.98397e-23
1.7828e-22
1.875e-06
5.51489e-23