/*--------------------------------*- C++ -*----------------------------------*\
| =========                 |                                                 |
| \\      /  F ield         | OpenFOAM: The Open Source CFD Toolbox           |
|  \\    /   O peration     | Version:  v2012                                 |
|   \\  /    A nd           | Website:  www.openfoam.com                      |
|    \\/     M anipulation  |                                                 |
\*---------------------------------------------------------------------------*/
FoamFile
{
    version     2.0;
    format      ascii;
    class       volVectorField;
    location    "3";
    object      U;
}
// * * * * * * * * * * * * * * * * * * * * * * * * * * * * * * * * * * * * * //

dimensions      [0 1 -1 0 0 0 0];


internalField   nonuniform List<vector> 
64000
(
(0.003 6.70732e-21 4.89208e-20)
(0.003 -3.06539e-20 -1.18241e-20)
(0.003 -2.15223e-20 4.2632e-20)
(0.003 -9.04536e-21 1.06663e-19)
(0.003 7.45235e-20 -6.55132e-21)
(0.003 1.21012e-19 -3.4153e-20)
(0.003 1.84651e-21 -5.845e-20)
(0.003 -2.05621e-20 3.3753e-20)
(0.003 3.69371e-20 2.92016e-21)
(0.003 1.27937e-19 -3.11954e-20)
(0.003 1.05128e-19 4.58098e-21)
(0.003 3.51599e-20 1.21525e-19)
(0.003 1.87872e-20 7.50709e-20)
(0.003 5.40203e-20 2.5272e-20)
(0.003 5.17562e-20 7.77271e-20)
(0.003 -2.4017e-20 6.81762e-20)
(0.003 1.36715e-20 6.56021e-20)
(0.003 -6.07277e-20 3.51462e-20)
(0.003 -1.20417e-19 -1.51563e-19)
(0.003 -1.97886e-19 -2.2124e-19)
(0.003 -8.50781e-20 -4.94614e-20)
(0.003 9.53069e-20 7.57277e-20)
(0.003 1.33624e-19 8.51423e-20)
(0.003 1.80214e-19 3.24747e-20)
(0.003 1.41504e-19 2.91852e-20)
(0.003 -1.46308e-19 3.35848e-20)
(0.003 -1.34274e-19 4.58911e-20)
(0.003 -1.04607e-19 -7.93045e-20)
(0.003 1.68585e-20 -1.15403e-19)
(0.003 -9.13847e-21 6.64275e-20)
(0.003 -8.22928e-20 3.28729e-20)
(0.003 -1.29488e-19 -4.84251e-20)
(0.003 -8.80979e-20 -6.47536e-20)
(0.003 -1.02335e-19 -9.65764e-20)
(0.003 5.81553e-21 -5.4931e-20)
(0.003 5.08604e-20 -2.52986e-20)
(0.003 -8.30527e-20 -1.32208e-19)
(0.003 -5.39782e-20 -1.78795e-20)
(0.003 -7.01993e-20 7.55706e-20)
(0.003 -8.21374e-20 5.27947e-20)
(0.003 -1.05569e-20 5.8e-20)
(0.003 -2.74985e-20 6.48586e-20)
(0.003 -1.10023e-19 5.43561e-20)
(0.003 -7.40412e-20 8.90926e-20)
(0.003 8.74739e-20 3.15954e-20)
(0.003 1.39628e-19 -2.65156e-20)
(0.003 6.01668e-20 1.86594e-20)
(0.003 5.60743e-20 1.08836e-19)
(0.003 7.3853e-20 9.59792e-20)
(0.003 2.6591e-20 5.06377e-20)
(0.003 3.73838e-20 5.03293e-20)
(0.003 6.92989e-20 1.31976e-19)
(0.003 2.51892e-20 8.11669e-20)
(0.003 -1.50325e-20 9.93599e-20)
(0.003 1.05436e-20 1.59521e-19)
(0.003 4.36124e-20 7.00377e-20)
(0.003 4.25864e-20 5.24383e-20)
(0.003 1.80022e-20 8.3731e-20)
(0.003 3.58364e-20 -1.81948e-19)
(0.003 -7.30407e-20 -3.11052e-19)
(0.003 -9.33687e-20 -7.27216e-20)
(0.003 2.11603e-20 1.49797e-19)
(0.003 4.69487e-20 1.49198e-19)
(0.003 2.60973e-20 1.48976e-19)
(0.003 -2.13398e-20 4.80049e-20)
(0.003 -5.06194e-20 -5.13899e-20)
(0.003 -9.1209e-20 -1.56442e-19)
(0.003 -3.76175e-20 -1.15726e-19)
(0.003 6.19605e-20 3.64081e-20)
(0.003 -3.95872e-20 2.80898e-21)
(0.003 -1.7202e-19 -5.4504e-20)
(0.003 -7.17958e-20 -9.02935e-20)
(0.003 -5.39904e-20 -1.04102e-19)
(0.003 -5.87922e-20 -1.3221e-19)
(0.003 1.66079e-21 -1.13244e-20)
(0.003 -5.29636e-20 -6.93043e-22)
(0.003 -1.47327e-20 -1.48948e-19)
(0.003 5.54886e-20 -1.11975e-19)
(0.003 3.58965e-20 -8.58756e-22)
(0.003 1.02988e-20 5.5974e-20)
(0.003 4.70668e-20 1.09282e-19)
(0.003 1.031e-19 1.43505e-19)
(0.003 7.54389e-20 4.08651e-20)
(0.003 -4.33803e-22 1.95455e-20)
(0.003 -5.95227e-20 3.24654e-20)
(0.003 2.87489e-20 5.31091e-20)
(0.003 9.28426e-20 9.87239e-20)
(0.003 1.2419e-19 1.85113e-19)
(0.003 8.78803e-20 1.55288e-19)
(0.003 -1.32009e-20 3.14353e-20)
(0.003 -1.83248e-20 4.99643e-20)
(0.003 1.57648e-20 1.15963e-19)
(0.003 9.52732e-22 7.63324e-20)
(0.003 -3.01446e-20 1.18236e-19)
(0.003 3.35868e-20 1.45879e-19)
(0.003 7.58963e-20 1.48735e-19)
(0.003 -1.59416e-20 1.1017e-19)
(0.003 5.21493e-20 3.57606e-20)
(0.003 8.06379e-20 -1.53831e-19)
(0.003 5.08665e-20 -3.10154e-19)
(0.003 7.18174e-21 2.4583e-20)
(0.003 -6.44295e-20 1.89283e-19)
(0.003 -1.10345e-20 1.3092e-19)
(0.003 -5.05811e-22 1.17426e-19)
(0.003 -1.48373e-20 6.12015e-20)
(0.003 2.29621e-20 -1.07771e-19)
(0.003 9.74194e-21 -1.6987e-19)
(0.003 6.97917e-21 -4.04402e-20)
(0.003 -3.40216e-20 1.01898e-20)
(0.003 -9.47326e-20 2.37993e-20)
(0.003 5.33469e-21 3.41185e-21)
(0.003 9.79233e-22 -8.94866e-20)
(0.003 -4.73712e-20 -1.81795e-19)
(0.003 -6.33401e-20 -1.89485e-19)
(0.003 -1.07282e-19 -6.05396e-20)
(0.003 -1.11188e-19 1.3898e-20)
(0.003 2.00245e-20 -1.4851e-19)
(0.003 9.19204e-20 -8.68116e-20)
(0.003 9.84704e-20 3.65881e-20)
(0.003 6.83444e-20 3.97777e-20)
(0.003 1.13801e-19 1.27693e-19)
(0.003 8.8685e-20 1.63992e-19)
(0.003 5.58804e-20 5.84773e-20)
(0.003 6.96121e-20 4.4997e-20)
(0.003 2.2975e-20 5.5527e-20)
(0.003 2.50919e-20 7.42547e-20)
(0.003 5.30713e-20 1.14565e-19)
(0.003 2.60031e-20 2.10489e-19)
(0.003 -4.66962e-21 2.3405e-19)
(0.003 4.04566e-20 4.53621e-20)
(0.003 8.86408e-20 3.53077e-20)
(0.003 4.92134e-20 1.07751e-19)
(0.003 -6.35487e-21 9.98964e-20)
(0.003 -3.24667e-20 1.22088e-19)
(0.003 4.26194e-20 1.79262e-19)
(0.003 6.79945e-20 1.42225e-19)
(0.003 5.47321e-20 4.57472e-20)
(0.003 -1.44765e-20 7.17104e-20)
(0.003 -5.99392e-20 -8.20349e-20)
(0.003 1.01189e-20 -1.97675e-19)
(0.003 1.77067e-21 5.90628e-20)
(0.003 -1.25737e-20 1.69019e-19)
(0.003 6.33292e-21 1.70046e-19)
(0.003 -4.05838e-20 1.52539e-19)
(0.003 -2.44438e-20 5.25023e-20)
(0.003 2.49347e-20 -5.98973e-20)
(0.003 9.2712e-20 -1.69757e-19)
(0.003 9.09406e-20 -1.84186e-19)
(0.003 2.0641e-22 8.83807e-21)
(0.003 -1.90727e-20 9.48523e-21)
(0.003 -1.57006e-20 -1.01699e-19)
(0.003 -1.22218e-19 -7.27489e-20)
(0.003 -4.17776e-20 -1.38471e-19)
(0.003 8.06711e-21 -1.52286e-19)
(0.003 -5.253e-20 -1.23162e-19)
(0.003 -5.38953e-21 -1.03776e-19)
(0.003 -2.5844e-20 -1.40851e-19)
(0.003 -3.13214e-20 -3.07986e-20)
(0.003 3.5188e-20 4.18455e-20)
(0.003 4.10498e-20 1.20679e-20)
(0.003 8.0429e-22 1.09573e-19)
(0.003 -5.69232e-20 1.43335e-19)
(0.003 -1.41162e-20 7.8367e-20)
(0.003 -2.00013e-20 9.72688e-20)
(0.003 5.18252e-20 9.82366e-20)
(0.003 9.14788e-20 9.97387e-20)
(0.003 4.97868e-20 1.48172e-19)
(0.003 1.53858e-21 1.30878e-19)
(0.003 -3.89309e-20 1.46099e-19)
(0.003 5.7596e-20 1.70425e-19)
(0.003 1.06567e-19 2.17743e-19)
(0.003 9.32949e-20 1.67298e-19)
(0.003 -4.88939e-22 6.5306e-20)
(0.003 -8.05482e-20 1.02269e-19)
(0.003 -4.22301e-20 1.6694e-19)
(0.003 5.72619e-20 1.69914e-19)
(0.003 7.83877e-20 4.56255e-20)
(0.003 -2.57761e-20 -1.85282e-20)
(0.003 -1.07785e-19 -1.17956e-19)
(0.003 -5.38084e-20 -1.10034e-19)
(0.003 -7.47464e-20 2.53839e-20)
(0.003 2.65403e-20 1.43953e-19)
(0.003 8.9753e-20 1.73587e-19)
(0.003 -3.42243e-20 1.0914e-19)
(0.003 -8.01496e-20 1.22331e-19)
(0.003 2.98493e-20 4.78232e-20)
(0.003 1.25892e-19 -6.89959e-20)
(0.003 1.06091e-19 -2.2065e-20)
(0.003 7.61259e-20 -9.09797e-20)
(0.003 1.40078e-20 -1.81634e-19)
(0.003 -3.45095e-20 -1.26484e-19)
(0.003 -3.56181e-20 -1.46409e-19)
(0.003 -1.05761e-19 -1.43467e-19)
(0.003 -6.80785e-20 -1.93009e-19)
(0.003 -1.5177e-21 -1.49386e-19)
(0.003 -4.06018e-20 -1.01714e-19)
(0.003 -3.41079e-20 -9.86604e-20)
(0.003 7.20656e-21 -2.56931e-20)
(0.003 3.28094e-21 7.91592e-20)
(0.003 -4.24073e-20 1.92966e-20)
(0.003 5.83305e-20 9.88017e-20)
(0.003 1.22636e-19 9.86857e-20)
(0.003 4.15571e-20 7.92727e-20)
(0.003 4.06905e-20 1.01679e-19)
(0.003 5.72505e-20 1.18885e-19)
(0.003 1.56177e-21 1.2372e-19)
(0.003 1.16674e-20 1.45232e-19)
(0.003 1.71697e-20 1.91973e-19)
(0.003 1.95396e-20 1.85461e-19)
(0.003 4.20845e-20 6.80901e-20)
(0.003 -1.66753e-20 1.76234e-19)
(0.003 5.45836e-21 2.79475e-19)
(0.003 7.15729e-20 1.08183e-19)
(0.003 3.54222e-20 -1.28992e-20)
(0.003 -4.27765e-20 1.03004e-19)
(0.003 -5.97428e-20 2.16522e-19)
(0.003 -3.60119e-20 9.70894e-20)
(0.003 -2.6925e-20 3.58145e-21)
(0.003 -1.02633e-19 -9.36479e-20)
(0.003 -9.01517e-20 -1.00816e-19)
(0.003 -3.58259e-20 -5.10192e-20)
(0.003 2.25361e-21 1.30216e-19)
(0.003 -3.17326e-21 2.47772e-19)
(0.003 6.9219e-20 9.77354e-20)
(0.003 6.43011e-20 1.22993e-20)
(0.003 6.101e-20 3.32699e-20)
(0.003 5.03243e-20 -1.50394e-20)
(0.003 -1.47112e-20 -6.0863e-20)
(0.003 -5.38998e-21 -1.03212e-19)
(0.003 1.29646e-19 -6.48909e-20)
(0.003 1.2374e-19 3.15514e-20)
(0.003 -1.16282e-19 -1.12782e-19)
(0.003 -1.06826e-19 -1.85227e-19)
(0.003 7.12411e-21 -1.78211e-19)
(0.003 -5.14751e-20 -2.15384e-19)
(0.003 -6.26128e-20 -1.72486e-19)
(0.003 -4.37103e-20 -1.41241e-19)
(0.003 8.18007e-20 2.44374e-20)
(0.003 8.54077e-20 7.31998e-20)
(0.003 2.58522e-20 6.66703e-21)
(0.003 1.44613e-19 1.79191e-19)
(0.003 1.53555e-19 1.90793e-19)
(0.003 9.58245e-20 8.9551e-20)
(0.003 7.05297e-20 1.38819e-19)
(0.003 3.28902e-20 1.97934e-19)
(0.003 -4.12935e-20 1.94309e-19)
(0.003 -2.76478e-20 1.76601e-19)
(0.003 -1.42604e-21 1.35966e-19)
(0.003 1.89094e-20 1.80985e-19)
(0.003 5.35587e-20 2.27993e-19)
(0.003 6.89839e-20 2.36256e-19)
(0.003 8.91278e-21 1.79123e-19)
(0.003 8.69033e-20 9.59112e-20)
(0.003 1.09356e-19 3.65622e-20)
(0.003 3.46862e-21 6.18169e-20)
(0.003 -7.71953e-20 1.48515e-19)
(0.003 -7.95393e-20 3.96111e-20)
(0.003 -7.28031e-20 1.16704e-20)
(0.003 -3.83688e-20 -6.28103e-20)
(0.003 -2.83331e-20 -1.19363e-19)
(0.003 2.22177e-20 -4.04455e-20)
(0.003 -4.41022e-21 8.3943e-20)
(0.003 -8.53506e-20 1.58924e-19)
(0.003 -9.92072e-21 1.48374e-19)
(0.003 6.12485e-20 1.19022e-19)
(0.003 2.96438e-20 5.98497e-20)
(0.003 -3.05923e-20 1.17012e-20)
(0.003 -3.66521e-20 -2.21623e-20)
(0.003 -2.52292e-20 -1.38664e-19)
(0.003 4.05849e-20 -1.13296e-19)
(0.003 1.43814e-19 -1.2797e-20)
(0.003 1.12113e-19 -1.07978e-19)
(0.003 4.23936e-20 -1.54501e-19)
(0.003 7.52361e-20 -1.86636e-19)
(0.003 -3.88596e-21 -2.23701e-19)
(0.003 -8.28193e-20 -1.9203e-19)
(0.003 -6.23202e-21 -1.58108e-19)
(0.003 2.12278e-20 1.58769e-20)
(0.003 -2.27823e-20 6.70436e-20)
(0.003 1.01907e-20 -7.00953e-20)
(0.003 2.0049e-19 2.36593e-19)
(0.003 1.89997e-19 2.71982e-19)
(0.003 9.47966e-20 1.75779e-19)
(0.003 7.85838e-20 1.55701e-19)
(0.003 2.73116e-20 2.00332e-19)
(0.003 -5.92391e-20 1.88328e-19)
(0.003 -3.12375e-20 1.51744e-19)
(0.003 2.64814e-20 1.67266e-19)
(0.003 9.52925e-21 1.99558e-19)
(0.003 3.04263e-20 2.29808e-19)
(0.003 6.70029e-20 2.46629e-19)
(0.003 5.14085e-20 2.24325e-19)
(0.003 8.5428e-20 1.88088e-19)
(0.003 1.15056e-19 9.45803e-20)
(0.003 5.32882e-20 7.80155e-20)
(0.003 -1.25264e-20 8.74263e-20)
(0.003 -3.31297e-20 -1.43835e-20)
(0.003 -3.49614e-20 -7.47244e-20)
(0.003 3.95048e-20 -1.09783e-19)
(0.003 -3.8978e-20 -5.89544e-20)
(0.003 -2.09077e-20 4.95593e-21)
(0.003 -3.45932e-21 3.50432e-20)
(0.003 -2.74241e-20 1.43677e-19)
(0.003 -2.44489e-20 1.80797e-19)
(0.003 8.74568e-21 1.18096e-19)
(0.003 1.20576e-20 2.40999e-20)
(0.003 -1.22418e-19 -5.34467e-20)
(0.003 -7.53702e-20 -7.58715e-20)
(0.003 -1.02459e-20 -5.42754e-20)
(0.003 1.42394e-20 6.97396e-20)
(0.003 3.28941e-20 8.00233e-20)
(0.003 2.23393e-19 -8.71085e-20)
(0.003 2.27413e-19 -1.64268e-19)
(0.003 9.77434e-20 -1.5907e-19)
(0.003 5.39353e-21 -1.98381e-19)
(0.003 -7.83783e-20 -1.76539e-19)
(0.003 -6.95421e-20 -1.79558e-19)
(0.003 -8.82148e-20 -7.90306e-20)
(0.003 -8.59006e-20 3.40881e-20)
(0.003 -4.00031e-20 -5.10935e-20)
(0.003 7.67694e-20 3.34942e-19)
(0.003 1.4704e-19 4.30724e-19)
(0.003 1.65968e-19 2.19196e-19)
(0.003 7.68282e-20 2.43708e-19)
(0.003 1.57355e-20 2.41697e-19)
(0.003 9.49057e-20 1.69442e-19)
(0.003 3.75344e-20 2.18426e-19)
(0.003 -5.36067e-20 1.99936e-19)
(0.003 -3.98399e-20 1.22016e-19)
(0.003 2.20068e-20 2.32402e-19)
(0.003 -9.63332e-21 2.66215e-19)
(0.003 -1.1288e-20 2.46315e-19)
(0.003 -1.93921e-20 2.11922e-19)
(0.003 -7.85834e-21 1.34526e-19)
(0.003 8.91074e-20 1.38762e-19)
(0.003 8.36524e-20 7.86868e-20)
(0.003 2.29205e-20 -5.18757e-21)
(0.003 1.29781e-20 -2.2174e-20)
(0.003 1.1831e-20 -2.25247e-21)
(0.003 -6.05e-20 -5.0923e-20)
(0.003 -1.17509e-19 -6.37716e-20)
(0.003 2.02637e-20 4.76393e-20)
(0.003 6.76803e-20 1.59744e-19)
(0.003 8.17593e-21 1.73437e-19)
(0.003 -1.65656e-20 1.04854e-19)
(0.003 -2.73006e-20 -5.94233e-20)
(0.003 -9.80418e-20 -1.68616e-19)
(0.003 -1.51934e-19 -8.46316e-20)
(0.003 4.47245e-20 -3.62542e-21)
(0.003 8.56544e-20 6.52472e-20)
(0.003 3.05111e-20 8.95871e-20)
(0.003 9.57515e-20 4.40794e-20)
(0.003 1.33981e-19 3.59873e-21)
(0.003 -9.43281e-21 -9.60268e-20)
(0.003 -3.64989e-20 -2.78979e-19)
(0.003 2.1947e-20 -3.26204e-19)
(0.003 4.98215e-20 -1.85434e-19)
(0.003 -6.63097e-20 -9.68566e-20)
(0.003 -1.73841e-19 -6.52014e-20)
(0.003 -1.31303e-19 -2.84498e-20)
(0.003 -9.00776e-20 3.28793e-19)
(0.003 3.04289e-20 4.42218e-19)
(0.003 1.6016e-19 3.55088e-19)
(0.003 1.00355e-19 2.70367e-19)
(0.003 4.82967e-20 2.87964e-19)
(0.003 8.43023e-20 2.98172e-19)
(0.003 7.29661e-20 2.08408e-19)
(0.003 4.32226e-20 1.51014e-19)
(0.003 1.38895e-20 1.22857e-19)
(0.003 -5.90261e-20 1.63723e-19)
(0.003 -3.21881e-20 2.21391e-19)
(0.003 -2.29267e-20 2.40232e-19)
(0.003 -5.59533e-20 1.84388e-19)
(0.003 -4.66116e-20 1.57429e-19)
(0.003 6.54907e-22 2.12604e-19)
(0.003 -8.2342e-21 1.25057e-19)
(0.003 -8.6612e-20 -2.51827e-21)
(0.003 -2.36925e-20 -4.01377e-20)
(0.003 1.75405e-20 -5.55704e-20)
(0.003 -3.04465e-21 -6.16044e-20)
(0.003 5.57066e-20 -6.65649e-20)
(0.003 3.32133e-20 2.69145e-20)
(0.003 -2.72137e-20 1.77011e-19)
(0.003 -2.42969e-20 1.80762e-19)
(0.003 4.43593e-20 7.09759e-20)
(0.003 7.8069e-20 -1.09647e-19)
(0.003 2.33072e-20 -2.07273e-19)
(0.003 -8.24777e-20 -8.70908e-20)
(0.003 2.43506e-20 1.01199e-19)
(0.003 4.39124e-20 1.5623e-19)
(0.003 1.27621e-20 1.07514e-19)
(0.003 6.52431e-20 6.84577e-20)
(0.003 5.33553e-20 3.47923e-22)
(0.003 -1.92108e-20 -1.19596e-19)
(0.003 6.23927e-20 -3.15258e-19)
(0.003 9.86113e-20 -3.22645e-19)
(0.003 -1.54969e-20 -2.21236e-19)
(0.003 -1.88095e-19 -1.45165e-19)
(0.003 -2.39154e-19 -6.43707e-20)
(0.003 -1.71578e-19 -7.03007e-20)
(0.003 -2.63686e-20 3.35382e-19)
(0.003 2.0618e-20 4.77545e-19)
(0.003 9.73497e-20 4.08024e-19)
(0.003 1.35774e-19 3.27317e-19)
(0.003 4.40587e-20 3.83219e-19)
(0.003 7.58769e-21 3.61098e-19)
(0.003 5.89623e-20 2.61744e-19)
(0.003 5.50991e-20 1.9589e-19)
(0.003 -2.27535e-20 1.73594e-19)
(0.003 -7.83914e-20 9.91236e-20)
(0.003 -3.85341e-20 7.63718e-20)
(0.003 -1.98893e-20 1.88967e-19)
(0.003 -1.1943e-21 1.80045e-19)
(0.003 9.30526e-21 6.73301e-20)
(0.003 -1.14532e-20 2.20853e-19)
(0.003 -2.35046e-20 2.19149e-19)
(0.003 -3.88238e-20 3.5907e-20)
(0.003 -3.41786e-20 3.71429e-20)
(0.003 -6.14507e-20 -4.7917e-20)
(0.003 -8.25149e-21 -2.10974e-19)
(0.003 1.05281e-19 -4.88515e-20)
(0.003 5.16129e-20 1.16071e-19)
(0.003 -4.5831e-21 8.59366e-20)
(0.003 3.18141e-20 1.53285e-19)
(0.003 1.56954e-20 1.25931e-19)
(0.003 3.07199e-20 -8.60989e-20)
(0.003 6.15597e-20 -1.44303e-19)
(0.003 4.69689e-21 -3.37509e-20)
(0.003 -2.89362e-20 7.94281e-20)
(0.003 -8.7955e-21 2.14193e-19)
(0.003 3.54608e-20 1.79635e-19)
(0.003 5.38557e-20 1.16564e-19)
(0.003 4.53733e-21 1.68992e-21)
(0.003 -2.00446e-20 -2.34585e-19)
(0.003 8.72562e-20 -2.7199e-19)
(0.003 6.89164e-20 -2.4441e-19)
(0.003 -9.13933e-20 -2.40552e-19)
(0.003 -1.41874e-19 -2.21273e-19)
(0.003 -2.3204e-20 -2.15827e-19)
(0.003 4.91053e-20 -1.93282e-19)
(0.003 5.98283e-20 3.22961e-19)
(0.003 4.72376e-20 4.9492e-19)
(0.003 5.28962e-20 5.08591e-19)
(0.003 7.17933e-20 3.97326e-19)
(0.003 4.77788e-20 3.46379e-19)
(0.003 4.68789e-20 3.47772e-19)
(0.003 2.99397e-20 2.60409e-19)
(0.003 -1.7147e-20 1.61045e-19)
(0.003 -1.23015e-20 1.28168e-19)
(0.003 -1.49391e-20 1.34245e-19)
(0.003 -5.49757e-20 1.14826e-19)
(0.003 -2.53392e-20 1.51356e-19)
(0.003 1.96612e-21 1.65571e-19)
(0.003 2.08878e-20 1.03859e-19)
(0.003 2.89622e-21 2.21979e-19)
(0.003 -5.00996e-20 1.70203e-19)
(0.003 -3.64969e-20 4.3118e-20)
(0.003 -1.9568e-20 4.77766e-20)
(0.003 5.56557e-20 -2.99233e-20)
(0.003 3.0546e-20 -1.12255e-19)
(0.003 2.84856e-20 -1.19207e-19)
(0.003 -1.66114e-20 4.51892e-20)
(0.003 8.72165e-21 1.24521e-19)
(0.003 4.76204e-20 1.97829e-19)
(0.003 5.19172e-21 1.67492e-19)
(0.003 -3.38661e-21 -7.0379e-20)
(0.003 4.0179e-20 -1.06393e-19)
(0.003 4.28744e-20 -3.18569e-20)
(0.003 -7.97731e-20 2.11791e-20)
(0.003 -3.33377e-20 2.05831e-19)
(0.003 4.49389e-20 1.7876e-19)
(0.003 -2.5297e-20 7.9434e-20)
(0.003 -1.14406e-19 6.49621e-20)
(0.003 1.69267e-21 -8.36801e-20)
(0.003 8.04968e-20 -1.0245e-19)
(0.003 7.39573e-20 -2.31906e-19)
(0.003 1.2148e-20 -3.90493e-19)
(0.003 5.5052e-21 -2.87639e-19)
(0.003 3.84795e-20 -2.03177e-19)
(0.003 2.26382e-20 -1.55426e-19)
(0.003 9.00332e-20 4.05048e-19)
(0.003 5.14558e-20 5.11982e-19)
(0.003 2.70381e-20 4.73031e-19)
(0.003 6.92379e-20 4.59042e-19)
(0.003 1.32617e-19 4.14085e-19)
(0.003 2.64558e-20 3.35366e-19)
(0.003 -6.02199e-20 2.23713e-19)
(0.003 -3.81243e-20 1.97582e-19)
(0.003 5.40277e-20 1.52306e-19)
(0.003 7.00263e-20 7.3331e-20)
(0.003 -8.74766e-21 5.23829e-20)
(0.003 -8.07382e-20 1.33464e-19)
(0.003 -1.08305e-19 1.80303e-19)
(0.003 2.64313e-21 2.03675e-19)
(0.003 6.84608e-20 2.5711e-19)
(0.003 -4.39172e-20 1.2029e-19)
(0.003 -7.89692e-21 -2.77145e-20)
(0.003 -6.89946e-20 1.61709e-20)
(0.003 -9.26207e-20 -6.8397e-20)
(0.003 6.42337e-20 -1.36106e-19)
(0.003 9.03863e-20 -2.73456e-20)
(0.003 3.52546e-20 9.22344e-20)
(0.003 2.47979e-20 1.15799e-19)
(0.003 5.75309e-21 1.25252e-19)
(0.003 2.46726e-20 1.76143e-19)
(0.003 3.31863e-20 5.73814e-20)
(0.003 7.23879e-20 -6.65087e-20)
(0.003 1.13213e-19 -9.05558e-21)
(0.003 -6.11859e-21 1.69121e-21)
(0.003 -6.51914e-20 8.95767e-20)
(0.003 -3.82035e-20 1.74807e-19)
(0.003 -1.03978e-19 9.02361e-20)
(0.003 -4.05293e-20 5.47812e-20)
(0.003 8.87036e-20 -8.75816e-20)
(0.003 2.929e-20 -7.63856e-20)
(0.003 2.04309e-20 -1.88429e-19)
(0.003 2.87005e-20 -2.73512e-19)
(0.003 6.9201e-20 -2.12664e-19)
(0.003 4.35725e-20 -1.40834e-19)
(0.003 -1.64674e-20 -8.26933e-20)
(0.003 -5.12976e-20 4.15707e-19)
(0.003 -1.45081e-20 5.64857e-19)
(0.003 6.644e-20 5.68105e-19)
(0.003 4.60136e-20 4.45567e-19)
(0.003 8.41517e-21 4.37581e-19)
(0.003 6.70292e-20 3.92626e-19)
(0.003 4.84719e-20 2.36086e-19)
(0.003 2.07637e-20 1.39536e-19)
(0.003 4.05268e-20 1.66377e-19)
(0.003 1.86967e-20 1.81886e-19)
(0.003 9.9627e-21 1.26389e-19)
(0.003 -7.02568e-20 8.74716e-20)
(0.003 -9.60432e-20 1.06075e-19)
(0.003 -3.93043e-21 1.35717e-19)
(0.003 -4.71274e-20 2.27389e-19)
(0.003 -4.28867e-20 7.97317e-20)
(0.003 -1.78819e-21 -8.74937e-20)
(0.003 2.23651e-20 -1.34101e-20)
(0.003 -1.94195e-20 -1.14457e-19)
(0.003 -4.18928e-20 -2.65277e-19)
(0.003 4.51743e-20 -3.76974e-21)
(0.003 1.1911e-19 2.0677e-19)
(0.003 8.75775e-20 1.87241e-19)
(0.003 -1.72374e-20 1.57206e-19)
(0.003 -1.10525e-19 2.15852e-19)
(0.003 -3.09707e-20 7.65496e-20)
(0.003 8.39933e-20 -5.72335e-20)
(0.003 1.21091e-19 1.10037e-20)
(0.003 1.16386e-19 5.17072e-21)
(0.003 1.1359e-20 8.15834e-20)
(0.003 -5.06217e-20 5.07855e-20)
(0.003 -9.70239e-20 -1.16904e-20)
(0.003 -3.145e-20 9.27907e-20)
(0.003 -2.01549e-21 2.96418e-21)
(0.003 1.38283e-20 -5.83515e-20)
(0.003 8.73786e-20 -1.64018e-19)
(0.003 9.43104e-21 -2.93815e-19)
(0.003 -3.17133e-20 -2.19579e-19)
(0.003 -3.98845e-20 -2.15648e-19)
(0.003 -1.18047e-19 -2.86646e-19)
(0.003 1.79947e-20 4.47165e-19)
(0.003 4.38709e-20 5.70502e-19)
(0.003 -3.63209e-20 5.41789e-19)
(0.003 -8.10776e-20 3.83723e-19)
(0.003 -3.52962e-20 3.6215e-19)
(0.003 1.84487e-20 4.03406e-19)
(0.003 5.95127e-20 2.94956e-19)
(0.003 7.80443e-20 2.10749e-19)
(0.003 -1.16695e-20 1.71953e-19)
(0.003 -1.0187e-19 1.85226e-19)
(0.003 -6.0558e-20 1.5464e-19)
(0.003 -1.57058e-20 6.26068e-20)
(0.003 -5.0526e-20 5.26916e-20)
(0.003 -5.76124e-20 8.28535e-20)
(0.003 -1.02004e-19 1.62293e-19)
(0.003 -4.22411e-20 8.16004e-20)
(0.003 6.15607e-20 -1.00835e-19)
(0.003 1.04516e-19 -7.94341e-20)
(0.003 8.69462e-20 -7.71445e-20)
(0.003 1.1936e-19 -2.03842e-19)
(0.003 4.51316e-20 2.97849e-20)
(0.003 -6.03175e-21 2.70881e-19)
(0.003 -5.90093e-20 2.54122e-19)
(0.003 -1.22534e-19 1.64358e-19)
(0.003 -6.41963e-20 6.85578e-20)
(0.003 3.39155e-20 6.01579e-20)
(0.003 1.43217e-19 8.85295e-20)
(0.003 1.49003e-19 7.10452e-20)
(0.003 4.49673e-20 4.96519e-20)
(0.003 -2.43169e-20 9.81375e-20)
(0.003 -2.76743e-20 2.20644e-20)
(0.003 -2.9586e-20 -8.39873e-20)
(0.003 -9.68157e-20 -8.02299e-20)
(0.003 -7.052e-20 -4.0001e-20)
(0.003 2.24489e-20 3.27215e-20)
(0.003 2.64253e-20 -3.79396e-20)
(0.003 6.90482e-20 -1.55283e-19)
(0.003 6.90388e-20 -2.79909e-19)
(0.003 1.34503e-20 -3.41621e-19)
(0.003 -1.40205e-20 -3.44841e-19)
(0.003 3.22562e-21 4.1048e-19)
(0.003 -2.41523e-20 5.79916e-19)
(0.003 -4.08136e-20 5.16051e-19)
(0.003 -8.64546e-20 3.78766e-19)
(0.003 -3.87705e-20 3.77469e-19)
(0.003 -4.10296e-20 3.82311e-19)
(0.003 2.35845e-21 3.08263e-19)
(0.003 7.77853e-20 2.71941e-19)
(0.003 2.19735e-20 1.45789e-19)
(0.003 -4.26784e-20 7.65467e-20)
(0.003 -6.41309e-20 1.74456e-19)
(0.003 -6.37028e-20 1.28666e-19)
(0.003 6.09346e-21 1.10858e-19)
(0.003 -4.09475e-20 6.20565e-20)
(0.003 -8.83522e-20 5.67772e-20)
(0.003 -6.49905e-20 5.80531e-20)
(0.003 8.7116e-21 -2.6671e-20)
(0.003 9.31015e-20 -3.68103e-20)
(0.003 1.59019e-19 -6.68975e-20)
(0.003 2.38274e-19 -1.64645e-19)
(0.003 6.92281e-20 7.54488e-20)
(0.003 -1.31148e-19 2.40563e-19)
(0.003 -1.77465e-19 1.77965e-19)
(0.003 -1.22756e-19 9.48051e-20)
(0.003 3.87957e-20 1.13287e-19)
(0.003 3.79563e-20 1.75549e-19)
(0.003 3.10171e-20 1.34093e-19)
(0.003 6.3887e-20 6.91158e-20)
(0.003 -3.25939e-20 1.67529e-20)
(0.003 -3.31129e-23 6.12436e-20)
(0.003 7.43262e-21 2.14547e-20)
(0.003 3.68536e-20 -1.30479e-19)
(0.003 -2.03821e-20 -1.74483e-19)
(0.003 -7.25612e-20 -1.37927e-19)
(0.003 -2.53234e-20 -8.64396e-21)
(0.003 -2.34181e-20 4.83578e-20)
(0.003 6.54304e-20 -7.04482e-20)
(0.003 8.83701e-20 -2.41379e-19)
(0.003 6.38147e-20 -3.41079e-19)
(0.003 9.22788e-20 -3.50555e-19)
(0.003 -6.50622e-20 3.85773e-19)
(0.003 -5.9071e-20 5.20857e-19)
(0.003 -9.39174e-21 4.66364e-19)
(0.003 -3.28053e-20 3.60618e-19)
(0.003 -5.10856e-20 3.08359e-19)
(0.003 -6.53292e-20 3.1298e-19)
(0.003 -1.25207e-20 3.19688e-19)
(0.003 1.4645e-20 2.97952e-19)
(0.003 4.55284e-20 2.52933e-19)
(0.003 7.81185e-20 1.41698e-19)
(0.003 -5.76067e-20 1.38908e-19)
(0.003 -4.82384e-20 1.0818e-19)
(0.003 -6.27608e-21 1.10243e-19)
(0.003 -6.46041e-20 8.36849e-20)
(0.003 -4.2709e-20 1.09757e-20)
(0.003 2.07938e-20 7.78137e-21)
(0.003 5.52319e-21 -3.55531e-20)
(0.003 4.6008e-20 -4.12018e-20)
(0.003 1.37119e-19 4.89972e-20)
(0.003 1.41836e-19 6.73669e-20)
(0.003 6.84486e-20 1.54355e-19)
(0.003 -5.28252e-20 6.15665e-20)
(0.003 -2.30037e-19 -8.91549e-21)
(0.003 -1.29325e-19 5.35451e-20)
(0.003 1.11634e-20 1.28234e-19)
(0.003 -2.17944e-20 1.52486e-19)
(0.003 -5.81818e-20 7.18921e-20)
(0.003 -3.89305e-20 8.47167e-20)
(0.003 3.91117e-20 5.60896e-20)
(0.003 6.82291e-20 7.79766e-20)
(0.003 2.9118e-20 6.46359e-20)
(0.003 -2.19058e-20 -1.04071e-19)
(0.003 -5.50183e-21 -1.72272e-19)
(0.003 -3.30916e-20 -9.51096e-20)
(0.003 -5.28149e-20 -4.82011e-20)
(0.003 8.13184e-20 -9.02945e-20)
(0.003 2.95992e-20 -1.06242e-19)
(0.003 9.85614e-21 -2.23997e-19)
(0.003 6.26232e-20 -2.98999e-19)
(0.003 4.43831e-20 -2.56127e-19)
(0.003 -6.85294e-20 3.86519e-19)
(0.003 -9.30745e-20 5.51934e-19)
(0.003 -4.58141e-20 5.2472e-19)
(0.003 7.37254e-21 3.50416e-19)
(0.003 -1.60308e-20 2.97737e-19)
(0.003 -1.03406e-20 3.03826e-19)
(0.003 -3.14134e-20 3.09512e-19)
(0.003 -7.36633e-20 2.65846e-19)
(0.003 -2.85422e-20 2.24802e-19)
(0.003 3.5018e-20 2.24247e-19)
(0.003 2.33534e-20 1.36524e-19)
(0.003 -8.8624e-21 5.74283e-20)
(0.003 -5.8053e-20 8.82767e-20)
(0.003 -1.10168e-19 4.78504e-20)
(0.003 -1.07469e-20 2.2225e-20)
(0.003 5.77699e-20 2.81024e-20)
(0.003 -1.26759e-20 4.17935e-20)
(0.003 1.00434e-19 -3.8243e-20)
(0.003 2.35938e-19 -6.82359e-21)
(0.003 1.04629e-19 2.62461e-20)
(0.003 -2.81375e-20 1.55047e-19)
(0.003 -8.28817e-20 1.2906e-19)
(0.003 -3.52026e-20 1.98226e-20)
(0.003 -7.87564e-21 3.98378e-20)
(0.003 -8.19749e-20 1.15747e-19)
(0.003 -3.22177e-20 1.45898e-19)
(0.003 -3.35012e-20 5.95657e-20)
(0.003 -6.82052e-20 5.38678e-20)
(0.003 2.81052e-21 8.66844e-20)
(0.003 2.82276e-20 9.79972e-20)
(0.003 7.82086e-21 -2.39299e-20)
(0.003 -3.42112e-20 -1.71609e-19)
(0.003 -7.42575e-20 -1.37933e-19)
(0.003 -1.54311e-20 -3.41786e-20)
(0.003 3.36142e-20 1.68197e-21)
(0.003 2.6813e-20 -8.54465e-20)
(0.003 1.73605e-20 -1.6835e-19)
(0.003 1.76818e-20 -2.09408e-19)
(0.003 -1.15092e-20 -3.65466e-19)
(0.003 -9.56698e-21 -2.76035e-19)
(0.003 -7.35571e-20 3.56817e-19)
(0.003 -9.3614e-20 4.90633e-19)
(0.003 -5.18488e-20 4.91629e-19)
(0.003 -4.14451e-20 4.09087e-19)
(0.003 -5.04105e-20 3.2383e-19)
(0.003 -1.27127e-20 2.71369e-19)
(0.003 -2.26114e-20 2.61991e-19)
(0.003 -4.7212e-20 2.21268e-19)
(0.003 -3.74548e-20 2.39265e-19)
(0.003 -4.92853e-20 2.50984e-19)
(0.003 5.33719e-20 1.44492e-19)
(0.003 5.43852e-20 6.58228e-20)
(0.003 -9.27871e-20 7.41351e-20)
(0.003 -7.29829e-20 -1.71135e-20)
(0.003 5.60875e-21 -7.85196e-21)
(0.003 -2.57648e-21 1.12613e-19)
(0.003 -1.87252e-20 5.77086e-20)
(0.003 4.21906e-20 2.80433e-20)
(0.003 1.5444e-19 4.2191e-20)
(0.003 4.97058e-20 5.46907e-20)
(0.003 -3.43581e-20 8.48147e-20)
(0.003 -3.91053e-20 1.02159e-19)
(0.003 5.48602e-20 1.22975e-19)
(0.003 8.79081e-20 1.11145e-19)
(0.003 -6.10627e-20 7.00181e-20)
(0.003 -8.48138e-20 6.17612e-20)
(0.003 -1.28836e-20 3.74722e-20)
(0.003 -2.93517e-20 -2.39656e-20)
(0.003 -8.34112e-20 2.41351e-20)
(0.003 -2.79796e-20 9.85084e-20)
(0.003 -9.43983e-20 1.95021e-20)
(0.003 -8.40656e-20 -1.44093e-19)
(0.003 -3.40636e-20 -1.85679e-19)
(0.003 2.96473e-20 -8.40359e-20)
(0.003 5.70624e-20 3.29471e-20)
(0.003 -2.35831e-20 -4.51989e-20)
(0.003 2.56347e-20 -1.51018e-19)
(0.003 7.62999e-22 -1.90534e-19)
(0.003 -5.22634e-20 -2.53408e-19)
(0.003 1.12892e-20 -1.67844e-19)
(0.003 7.44101e-21 3.79547e-19)
(0.003 3.36951e-22 4.90514e-19)
(0.003 -2.84539e-20 4.49424e-19)
(0.003 -8.17766e-20 3.55613e-19)
(0.003 -9.79687e-20 2.65295e-19)
(0.003 -7.0302e-20 2.75623e-19)
(0.003 -4.62055e-20 2.4683e-19)
(0.003 -6.72212e-20 2.17577e-19)
(0.003 -5.79812e-20 2.83045e-19)
(0.003 -5.71602e-21 1.82118e-19)
(0.003 5.38227e-20 1.37713e-19)
(0.003 6.36643e-20 9.85777e-20)
(0.003 9.91911e-20 -5.55713e-20)
(0.003 9.40316e-20 4.96179e-20)
(0.003 -3.23301e-20 8.36162e-20)
(0.003 -6.65545e-20 8.528e-20)
(0.003 -9.22669e-20 -8.64376e-21)
(0.003 -9.37321e-20 -1.07128e-19)
(0.003 -2.28175e-20 6.48978e-20)
(0.003 -2.46683e-21 6.26836e-20)
(0.003 4.34418e-20 7.60006e-20)
(0.003 6.26331e-20 1.61423e-19)
(0.003 2.8639e-20 1.57278e-19)
(0.003 5.77319e-20 9.91402e-20)
(0.003 6.44395e-20 6.88669e-20)
(0.003 -9.50462e-20 2.76001e-20)
(0.003 -2.88299e-20 6.34736e-20)
(0.003 8.7753e-21 1.3255e-19)
(0.003 -1.47069e-20 3.28175e-21)
(0.003 -5.14093e-20 -2.59282e-20)
(0.003 -7.92956e-20 2.04058e-20)
(0.003 -5.82329e-20 -1.19179e-19)
(0.003 5.34737e-20 -2.13936e-19)
(0.003 8.59589e-21 -1.1041e-19)
(0.003 -8.15548e-20 2.40723e-20)
(0.003 1.17337e-20 -4.06935e-20)
(0.003 9.13143e-20 -1.39516e-19)
(0.003 5.36392e-20 -1.88257e-19)
(0.003 -7.79591e-21 -2.11805e-19)
(0.003 -3.44806e-20 -1.56376e-19)
(0.003 7.40747e-20 3.87077e-19)
(0.003 4.1256e-20 4.95277e-19)
(0.003 -6.66766e-20 4.19249e-19)
(0.003 -1.50754e-19 3.03186e-19)
(0.003 -5.48117e-20 2.14573e-19)
(0.003 -4.07874e-21 2.16663e-19)
(0.003 -5.59829e-20 1.6496e-19)
(0.003 -1.01669e-19 1.3573e-19)
(0.003 -9.66674e-20 1.79908e-19)
(0.003 3.62937e-20 2.20463e-19)
(0.003 7.8718e-20 2.53257e-19)
(0.003 8.35345e-20 1.36073e-19)
(0.003 1.00401e-19 7.50632e-20)
(0.003 8.66405e-20 1.1361e-19)
(0.003 -8.06005e-20 8.73679e-20)
(0.003 -1.41942e-19 4.05476e-20)
(0.003 -7.4662e-20 -5.73223e-20)
(0.003 -6.46552e-20 -1.65317e-19)
(0.003 -1.28687e-19 -2.13886e-20)
(0.003 -7.51386e-20 6.25079e-20)
(0.003 3.56835e-20 9.37462e-20)
(0.003 1.13736e-19 1.37492e-19)
(0.003 4.31849e-20 1.26829e-19)
(0.003 -2.12296e-20 1.04205e-19)
(0.003 6.38444e-20 8.48406e-20)
(0.003 4.57574e-20 6.46975e-20)
(0.003 -7.00836e-20 1.04628e-19)
(0.003 1.40927e-20 1.04984e-19)
(0.003 5.8535e-20 -8.67262e-21)
(0.003 -9.72032e-23 -5.44245e-20)
(0.003 3.00012e-20 -4.96915e-20)
(0.003 -8.83973e-20 -1.71856e-19)
(0.003 -3.82127e-20 -2.49094e-19)
(0.003 -1.55698e-20 -9.52875e-20)
(0.003 -6.49679e-20 -8.67358e-20)
(0.003 3.97964e-20 -3.03658e-20)
(0.003 3.77496e-20 2.33268e-21)
(0.003 -6.35978e-21 -1.37577e-19)
(0.003 4.80203e-20 -2.45661e-19)
(0.003 6.51923e-20 -2.27421e-19)
(0.003 9.14627e-21 3.73422e-19)
(0.003 -4.54468e-20 4.97584e-19)
(0.003 -6.51645e-20 3.94668e-19)
(0.003 -3.43607e-20 1.95539e-19)
(0.003 -3.84798e-20 1.77722e-19)
(0.003 1.04932e-20 1.84757e-19)
(0.003 -3.88327e-20 1.65799e-19)
(0.003 4.69306e-20 1.658e-19)
(0.003 5.55839e-20 1.97121e-19)
(0.003 1.30499e-20 2.1663e-19)
(0.003 1.32809e-20 1.98386e-19)
(0.003 -8.08097e-21 1.73297e-19)
(0.003 2.46298e-20 1.06705e-19)
(0.003 -3.09749e-20 8.38812e-20)
(0.003 -1.66395e-19 3.20847e-20)
(0.003 -1.62694e-19 -1.0428e-20)
(0.003 -6.48809e-20 -9.61164e-20)
(0.003 -8.44156e-20 -1.56076e-19)
(0.003 -2.57707e-19 -1.14206e-19)
(0.003 -1.29745e-19 1.60496e-20)
(0.003 -7.88891e-21 1.20175e-19)
(0.003 5.09942e-20 2.40935e-19)
(0.003 1.22574e-19 1.76441e-19)
(0.003 2.2508e-19 1.44428e-19)
(0.003 1.16041e-19 1.05639e-19)
(0.003 3.98937e-20 8.26354e-20)
(0.003 -8.21348e-20 8.3177e-20)
(0.003 -2.3754e-20 7.13069e-20)
(0.003 4.59459e-20 -1.49977e-20)
(0.003 6.89449e-22 -1.37355e-20)
(0.003 1.94161e-20 -5.7903e-20)
(0.003 7.84717e-20 -1.51962e-19)
(0.003 4.2736e-20 -1.96206e-19)
(0.003 -5.7053e-20 -1.32275e-19)
(0.003 -7.72329e-20 -6.56681e-20)
(0.003 -3.08085e-20 -6.89639e-20)
(0.003 -1.35081e-20 -8.24521e-20)
(0.003 -2.42401e-20 -2.01656e-19)
(0.003 5.74765e-20 -1.5015e-19)
(0.003 6.04233e-20 3.19888e-21)
(0.003 -1.0211e-19 3.27026e-19)
(0.003 -1.0483e-19 4.23804e-19)
(0.003 -5.26954e-20 3.3807e-19)
(0.003 3.18751e-20 1.50542e-19)
(0.003 1.8302e-20 1.60418e-19)
(0.003 3.10157e-20 2.7391e-19)
(0.003 5.02224e-20 1.99249e-19)
(0.003 4.54282e-20 1.14268e-19)
(0.003 2.68934e-20 1.69608e-19)
(0.003 -1.01487e-20 2.21264e-19)
(0.003 -8.02673e-20 1.47162e-19)
(0.003 -8.86398e-20 1.61496e-19)
(0.003 -3.73757e-20 1.17844e-19)