/*--------------------------------*- C++ -*----------------------------------*\
| =========                 |                                                 |
| \\      /  F ield         | OpenFOAM: The Open Source CFD Toolbox           |
|  \\    /   O peration     | Version:  v2012                                 |
|   \\  /    A nd           | Website:  www.openfoam.com                      |
|    \\/     M anipulation  |                                                 |
\*---------------------------------------------------------------------------*/
FoamFile
{
    version     2.0;
    format      ascii;
    class       volScalarField;
    location    "460/rightSolid";
    object      T;
}
// * * * * * * * * * * * * * * * * * * * * * * * * * * * * * * * * * * * * * //

dimensions      [0 0 0 1 0 0 0];


internalField   nonuniform List<scalar> 
130
(
753.33011
761.30919
769.65058
777.93058
785.83366
793.14378
799.70404
805.41365
810.21473
814.07204
816.97739
818.91806
819.88974
747.49393
756.80607
766.31965
775.54304
784.15415
791.97539
798.89885
804.86189
809.83643
813.81231
816.79617
818.78211
819.77313
735.69211
748.08137
760.11974
771.24907
781.23208
790.00239
797.57653
803.98073
809.24728
813.41673
816.52853
818.59019
819.61686
717.99008
736.22757
752.35542
766.20149
777.96186
787.89283
796.21682
803.1014
808.68083
813.0546
816.29437
818.4317
819.49404
697.12215
724.99516
745.99642
762.44816
775.67803
786.47295
795.32675
802.53858
808.33101
812.84683
816.16013
818.33747
819.41773
697.06978
724.95312
745.95052
762.40458
775.63835
786.4403
795.28862
802.50221
808.30423
812.81634
816.12697
818.30242
819.3823
717.6628
735.97722
752.16561
766.04466
777.81913
787.75594
796.0833
802.9754
808.57231
812.95485
816.18872
818.32322
819.38667
735.12996
747.63108
759.74616
770.93279
780.95419
789.74819
797.33143
803.74278
809.02719
813.22199
816.339
818.40778
819.44375
746.79778
756.21926
765.81033
775.09435
783.75993
791.61426
798.55656
804.53975
809.54628
813.55891
816.56465
818.56797
819.57265
752.63352
760.68927
769.09189
777.426
785.37552
792.71575
799.29937
805.03921
809.88
813.78393
816.72778
818.69588
819.68183
)
;

boundaryField
{
    maxX
    {
        type            zeroGradient;
    }
    minZ
    {
        type            zeroGradient;
    }
    maxZ
    {
        type            zeroGradient;
    }
    rightSolid_to_bottomWater
    {
        type            compressible::turbulentTemperatureCoupledBaffleMixed;
        refValue        nonuniform List<scalar> 
130
(
936.49002
935.45044
934.89667
933.58357
931.94329
932.3329
932.92777
933.27403
934.08957
933.65934
934.31244
934.67432
934.86089
937.51935
936.08641
935.40938
934.82844
932.40993
931.61661
932.10118
932.55415
933.45716
933.47099
934.84072
935.07857
934.65923
938.1975
933.42211
932.76371
932.60196
932.15582
930.44275
931.28712
932.79664
933.17825
932.97706
935.21015
935.66256
935.4618
927.64649
928.69255
928.18657
928.05621
928.52925
929.78208
931.52667
932.01589
932.31705
932.45768
934.86422
935.63551
935.83746
916.11331
924.71756
929.9715
929.62215
929.65485
929.43384
932.1368
931.81519
932.61949
936.20567
936.30496
936.37751
936.29539
926.08474
930.48713
931.84267
931.24437
931.17789
933.26042
933.08719
932.36571
935.48374
936.89495
936.93795
936.79347
936.69081
931.29653
931.83786
934.36196
933.87793
932.72045
932.42379
933.27508
933.28846
935.76587
936.40895
936.41652
936.56738
936.91622
939.27016
938.50863
936.93159
937.37437
936.3882
934.69155
933.73789
933.15218
933.12583
935.93663
935.67932
935.83507
936.77931
938.45758
940.33048
939.04176
937.49212
936.93621
935.77708
934.60241
933.78689
935.28378
937.08608
937.20321
937.153
937.7048
944.68468
941.41606
939.50447
937.852
936.49893
935.37227
934.24994
934.21863
935.27356
936.45552
937.80118
938.48069
938.5997
)
;
        refGradient     uniform 0;
        valueFraction   nonuniform List<scalar> 
130
(
0.0075140686
0.0075140686
0.0075140686
0.0075140686
0.0075140686
0.0075140686
0.0075140686
0.0075140686
0.0075140686
0.0075140686
0.0075140686
0.0075140686
0.0075140686
0.0075140686
0.0075140686
0.0075140686
0.0075140686
0.0075140686
0.0075140686
0.0075140686
0.0075140686
0.0075140686
0.0075140686
0.0075140686
0.0075140686
0.0075140686
0.0075140686
0.0075140686
0.0075140686
0.0075140686
0.0075140686
0.0075140686
0.0075140686
0.0075140686
0.0075140686
0.0075140686
0.0075140686
0.0075140686
0.0075140686
0.0075140686
0.0075140686
0.0075140686
0.0075140686
0.0075140686
0.0075140686
0.0075140686
0.0075140686
0.0075140686
0.0075140686
0.0075140686
0.0075140686
0.0075140686
0.0075140686
0.0075140686
0.0075140686
0.0075140686
0.0075140686
0.0075140686
0.0075140686
0.0075140686
0.0075140686
0.0075140686
0.0075140686
0.0075140686
0.0075140686
0.0075140686
0.0075140686
0.0075140686
0.0075140686
0.0075140686
0.0075140686
0.0075140686
0.0075140686
0.0075140686
0.0075140686
0.0075140686
0.0075140686
0.0075140686
0.0075140686
0.0075140686
0.0075140686
0.0075140686
0.0075140686
0.0075140686
0.0075140686
0.0075140686
0.0075140686
0.0075140686
0.0075140686
0.0075140686
0.0075140686
0.0075140686
0.0075140686
0.0075140686
0.0075140686
0.0075140686
0.0075140686
0.0075140686
0.0075140686
0.0075140686
0.0075140686
0.0075140686
0.0075140686
0.0075140686
0.0075140686
0.0075140686
0.0075140686
0.0075140686
0.0075140686
0.0075140686
0.0075140686
0.0075140686
0.0075140686
0.0075140686
0.0075140686
0.0075140686
0.0075140686
0.0075140686
0.0075140686
0.0075140686
0.0075140686
0.0075140686
0.0075140686
0.0075140686
0.0075140686
0.0075140686
0.0075140686
0.0075140686
0.0075140686
0.0075140686
)
;
        value           nonuniform List<scalar> 
130
(
754.70601
762.61734
770.8919
779.09983
786.93124
794.1894
800.70487
806.37421
811.14535
814.97046
817.85889
819.78769
820.75348
748.92144
758.15286
767.58989
776.73962
785.26786
793.02441
799.89952
805.82119
810.76515
814.71127
817.683
819.65581
820.63623
737.21336
749.47368
761.41668
772.46118
782.36584
791.0574
798.58099
804.94845
810.17831
814.31493
817.42014
819.46971
820.48716
719.56503
737.67332
753.67622
767.4173
779.0929
788.9587
797.23328
804.06984
809.60964
813.95162
817.18514
819.3122
820.36808
698.76712
726.49531
747.37836
763.70393
776.83467
787.54686
796.35447
803.50972
809.26468
813.77352
817.06269
819.22422
820.29575
698.79007
726.49699
747.34684
763.6728
776.80666
787.54312
796.32369
803.4777
809.25958
813.74839
817.03448
819.19251
820.2635
719.2674
737.44832
753.53407
767.30522
778.98255
788.84252
797.11376
803.95422
809.52771
813.88216
817.0918
819.21141
820.26949
736.66316
749.06465
761.07689
772.18282
782.12156
790.83678
798.35593
804.71476
809.95929
814.1437
817.23538
819.2898
820.32508
748.23717
757.60193
767.11126
776.31391
784.91026
792.69692
799.57829
805.51046
810.49065
814.4867
817.47075
819.45866
820.45995
754.0758
762.04646
770.37158
778.63068
786.51035
793.78704
800.31283
806.00938
810.82175
814.70526
817.63713
819.59556
820.57501
)
;
        Tnbr            T;
        thicknessLayers List<scalar> 0();
        kappaLayers     List<scalar> 0();
        kappaMethod     solidThermo;
        kappa           none;
        alphaAni        none;
        alpha           none;
        field           T;
    }
    rightSolid_to_topAir
    {
        type            compressible::turbulentTemperatureCoupledBaffleMixed;
        refValue        nonuniform List<scalar> 
130
(
492.20581
485.46591
479.52815
474.69156
471.02849
468.49521
467.01287
466.51243
466.96445
468.42138
471.10656
475.56796
482.53876
438.04045
432.39719
428.86108
426.78333
425.68205
425.29602
425.54376
426.43678
428.0385
430.50707
434.28738
440.43645
449.77341
445.1296
435.9745
428.38537
422.30398
417.66042
414.44742
412.69258
412.37798
413.39342
415.57708
418.94395
424.3395
435.36777
495.58232
495.65782
494.74892
492.55213
489.21363
485.13932
480.82007
476.66589
473.17506
471.43062
473.79926
483.28446
493.64749
500.05113
504.35794
508.78439
512.99539
516.70156
519.68433
521.82327
523.11539
523.7374
524.21157
525.56386
529.26164
536.78557
504.22358
508.34791
512.74587
517.09152
521.0816
524.46158
527.06341
528.85177
530.01382
531.10693
533.13205
537.52139
546.1344
500.84369
502.48451
503.12557
502.38822
500.28906
497.13705
493.35188
489.41582
486.15611
485.19073
488.34143
494.46694
504.84721
446.71756
438.52886
431.37507
425.25084
420.24893
416.5806
414.45709
413.95762
414.98101
417.35034
421.05162
427.22941
438.17896
436.31451
431.20361
428.1276
426.38114
425.47835
425.18959
425.47041
426.36907
427.99442
430.5116
434.2792
440.35338
450.70311
491.49923
484.91268
479.17776
474.55621
471.09772
468.75141
467.44305
467.11489
467.75401
469.42337
472.33441
477.04015
484.45161
)
;
        refGradient     uniform 0;
        valueFraction   nonuniform List<scalar> 
130
(
0.00032132529
0.00032132529
0.00032132529
0.00032132529
0.00032132529
0.00032132529
0.00032132529
0.00032132529
0.00032132529
0.00032132529
0.00032132529
0.00032132529
0.00032132529
0.00032132529
0.00032132529
0.00032132529
0.00032132529
0.00032132529
0.00032132529
0.00032132529
0.00032132529
0.00032132529
0.00032132529
0.00032132529
0.00032132529
0.00032132529
0.00032132529
0.00032132529
0.00032132529
0.00032132529
0.00032132529
0.00032132529
0.00032132529
0.00032132529
0.00032132529
0.00032132529
0.00032132529
0.00032132529
0.00032132529
0.00032132529
0.00032132529
0.00032132529
0.00032132529
0.00032132529
0.00032132529
0.00032132529
0.00032132529
0.00032132529
0.00032132529
0.00032132529
0.00032132529
0.00032132529
0.00032132529
0.00032132529
0.00032132529
0.00032132529
0.00032132529
0.00032132529
0.00032132529
0.00032132529
0.00032132529
0.00032132529
0.00032132529
0.00032132529
0.00032132529
0.00032132529
0.00032132529
0.00032132529
0.00032132529
0.00032132529
0.00032132529
0.00032132529
0.00032132529
0.00032132529
0.00032132529
0.00032132529
0.00032132529
0.00032132529
0.00032132529
0.00032132529
0.00032132529
0.00032132529
0.00032132529
0.00032132529
0.00032132529
0.00032132529
0.00032132529
0.00032132529
0.00032132529
0.00032132529
0.00032132529
0.00032132529
0.00032132529
0.00032132529
0.00032132529
0.00032132529
0.00032132529
0.00032132529
0.00032132529
0.00032132529
0.00032132529
0.00032132529
0.00032132529
0.00032132529
0.00032132529
0.00032132529
0.00032132529
0.00032132529
0.00032132529
0.00032132529
0.00032132529
0.00032132529
0.00032132529
0.00032132529
0.00032132529
0.00032132529
0.00032132529
0.00032132529
0.00032132529
0.00032132529
0.00032132529
0.00032132529
0.00032132529
0.00032132529
0.00032132529
0.00032132529
0.00032132529
0.00032132529
0.00032132529
0.00032132529
)
;
        value           nonuniform List<scalar> 
130
(
753.24583
761.2202
769.55701
777.83281
785.73221
793.03921
799.59691
805.30456
810.10425
813.9608
816.86609
818.80756
819.78117
747.39413
756.70149
766.2109
775.43067
784.03867
791.85731
798.77866
804.7401
809.71357
813.68898
816.6731
818.66037
819.65408
735.59835
747.98073
760.01282
771.13663
781.11496
789.88145
797.45261
803.85469
809.11989
813.28871
816.4006
818.46334
819.49322
717.91819
736.14982
752.27223
766.11318
777.86874
787.79525
796.1152
802.99627
808.57282
812.94464
816.18414
818.32383
819.38916
697.05828
724.92369
745.91973
762.36761
775.59446
786.38691
795.23858
802.44854
808.23932
812.75385
816.06653
818.24437
819.32671
697.00726
724.88299
745.87509
762.3253
775.55613
786.35572
795.20207
802.41396
808.21452
812.72553
816.03576
818.21194
819.29423
717.59247
735.90157
752.08501
765.95939
777.72943
787.66209
795.98561
802.87428
808.46837
812.8492
816.08305
818.21885
819.28529
735.03656
747.53106
759.63999
770.82109
780.83771
789.62776
797.20793
803.61712
808.90019
813.09441
816.21163
818.28175
819.3209
746.69726
756.11406
765.70107
774.98159
783.64415
791.49593
798.43615
804.41776
809.42325
813.43543
816.44142
818.44607
819.45376
752.5488
760.59984
768.99793
777.3279
785.27381
792.61101
799.19217
804.93013
809.7696
813.67284
816.61671
818.58571
819.57374
)
;
        Tnbr            T;
        thicknessLayers List<scalar> 0();
        kappaLayers     List<scalar> 0();
        kappaMethod     solidThermo;
        kappa           none;
        alphaAni        none;
        alpha           none;
        field           T;
    }
    rightSolid_to_heater
    {
        type            compressible::turbulentTemperatureCoupledBaffleMixed;
        refValue        nonuniform List<scalar> 10(746.20655 739.0428 724.00192 699.13573 657.88348 657.79039 698.70578 723.31522 738.22048 745.40656);
        refGradient     uniform 0;
        valueFraction   nonuniform List<scalar> 10(0.50000003 0.50000003 0.50000003 0.50000003 0.50000003 0.50000003 0.50000003 0.50000003 0.50000003 0.50000003);
        value           nonuniform List<scalar> 10(749.76814 743.26818 729.84682 708.56269 677.50254 677.42981 708.18396 729.22222 742.50875 749.01964);
        Tnbr            T;
        thicknessLayers List<scalar> 0();
        kappaLayers     List<scalar> 0();
        kappaMethod     solidThermo;
        kappa           none;
        alphaAni        none;
        alpha           none;
        field           T;
    }
}


// ************************************************************************* //
