/*--------------------------------*- C++ -*----------------------------------*\
| =========                 |                                                 |
| \\      /  F ield         | OpenFOAM: The Open Source CFD Toolbox           |
|  \\    /   O peration     | Version:  v2012                                 |
|   \\  /    A nd           | Website:  www.openfoam.com                      |
|    \\/     M anipulation  |                                                 |
\*---------------------------------------------------------------------------*/
FoamFile
{
    version     2.0;
    format      ascii;
    class       volScalarField;
    location    "470/heater";
    object      T;
}
// * * * * * * * * * * * * * * * * * * * * * * * * * * * * * * * * * * * * * //

dimensions      [0 0 0 1 0 0 0];


internalField   nonuniform List<scalar> 
80
(
734.29857
736.42229
740.54264
746.36635
724.96453
727.43209
732.27321
739.18983
705.23171
708.3782
714.75238
724.15475
672.99662
676.95762
685.5245
699.3651
345.64017
342.93155
342.98221
345.70777
422.46891
419.21744
419.48447
423.06561
488.28838
485.55541
486.31425
490.05896
544.29542
542.63111
544.58964
549.11997
590.58919
590.82767
595.49668
603.13419
625.83323
629.47897
639.00322
658.19951
345.58312
342.9182
342.986
345.71805
422.3982
419.19586
419.49018
423.08823
488.22474
485.53614
486.32386
490.09533
544.23665
542.60795
544.59824
549.16717
590.5187
590.78801
595.48795
603.1582
625.71094
629.37818
638.9299
658.15173
672.5571
676.59367
685.24874
699.16599
704.61329
707.8463
714.31558
723.81121
724.29866
726.83501
731.75177
738.7552
733.675
735.82319
740.00384
745.90872
)
;

boundaryField
{
    minY
    {
        type            fixedValue;
        value           uniform 300;
    }
    minZ
    {
        type            zeroGradient;
    }
    maxZ
    {
        type            zeroGradient;
    }
    heater_to_topAir
    {
        type            compressible::turbulentTemperatureCoupledBaffleMixed;
        refValue        nonuniform List<scalar> 
40
(
512.06498
510.10034
505.73781
499.6044
478.09339
467.92799
456.55012
446.0578
488.97025
479.64248
468.755
457.91248
503.26449
500.05194
498.68273
499.2698
499.88891
496.88816
497.14017
499.83703
499.19282
496.8035
497.50439
499.79297
501.16871
497.1981
495.27375
495.27442
487.19685
476.71802
465.04499
454.05204
477.21894
466.5386
454.88521
444.4533
512.07198
509.80115
505.10445
498.70417
)
;
        refGradient     uniform 0;
        valueFraction   nonuniform List<scalar> 
40
(
0.00032132529
0.00032132529
0.00032132529
0.00032132529
0.00032132529
0.00032132529
0.00032132529
0.00032132529
0.00032132529
0.00032132529
0.00032132529
0.00032132529
0.00032132529
0.00032132529
0.00032132529
0.00032132529
0.00032132529
0.00032132529
0.00032132529
0.00032132529
0.00032132529
0.00032132529
0.00032132529
0.00032132529
0.00032132529
0.00032132529
0.00032132529
0.00032132529
0.00032132529
0.00032132529
0.00032132529
0.00032132529
0.00032132529
0.00032132529
0.00032132529
0.00032132529
0.00032132529
0.00032132529
0.00032132529
0.00032132529
)
;
        value           nonuniform List<scalar> 
40
(
734.2272
736.34949
740.46705
746.28693
724.88531
727.34873
732.18457
739.09556
705.16241
708.30477
714.67332
724.06913
672.94215
676.90075
685.46436
699.30064
625.79254
629.43614
638.95738
658.14834
625.66991
629.33522
638.88409
658.10047
672.50148
676.53552
685.18719
699.09998
704.54274
707.77138
714.23487
723.72395
724.21858
726.75073
731.66215
738.66
733.60302
735.7499
739.9277
745.82866
)
;
        Tnbr            T;
        thicknessLayers List<scalar> 0();
        kappaLayers     List<scalar> 0();
        kappaMethod     solidThermo;
        kappa           none;
        alphaAni        none;
        alpha           none;
        field           T;
    }
    heater_to_rightSolid
    {
        type            compressible::turbulentTemperatureCoupledBaffleMixed;
        refValue        nonuniform List<scalar> 10(753.51593 747.66216 735.86059 718.24275 697.47613 697.44318 718.10915 735.60602 747.32448 753.1532);
        refGradient     uniform 0;
        valueFraction   nonuniform List<scalar> 10(0.49999997 0.49999997 0.49999997 0.49999997 0.49999997 0.49999997 0.49999997 0.49999997 0.49999997 0.49999997);
        value           nonuniform List<scalar> 10(749.94107 743.42596 730.00763 708.80384 677.83767 677.79727 708.63732 729.70832 743.03953 749.53065);
        Tnbr            T;
        thicknessLayers List<scalar> 0();
        kappaLayers     List<scalar> 0();
        kappaMethod     solidThermo;
        kappa           none;
        alphaAni        none;
        alpha           none;
        field           T;
    }
    heater_to_leftSolid
    {
        type            compressible::turbulentTemperatureCoupledBaffleMixed;
        refValue        nonuniform List<scalar> 10(899.01949 898.96987 898.81088 898.52341 898.13892 897.92111 897.85818 898.02187 898.24589 898.44);
        refGradient     uniform 0;
        valueFraction   nonuniform List<scalar> 10(2.0832898e-05 2.0832898e-05 2.0832898e-05 2.0832898e-05 2.0832898e-05 2.0832898e-05 2.0832898e-05 2.0832898e-05 2.0832898e-05 2.0832898e-05);
        value           nonuniform List<scalar> 10(734.30204 724.96826 705.23593 673.00139 625.83868 625.71624 672.56125 704.61663 724.3016 733.67766);
        Tnbr            T;
        thicknessLayers List<scalar> 1(0.001);
        kappaLayers     List<scalar> 1(0.0005);
        kappaMethod     solidThermo;
        kappa           none;
        alphaAni        none;
        alpha           none;
        field           T;
    }
    heater_to_bottomWater
    {
        type            compressible::turbulentTemperatureCoupledBaffleMixed;
        refValue        nonuniform List<scalar> 
92
(
936.54104
938.8081
941.53215
937.28927
939.60132
939.27255
939.70636
938.37811
941.76283
934.49998
933.81143
931.30221
933.89286
926.89359
925.39388
922.93205
934.37768
928.82753
928.3512
923.48272
934.14458
928.30873
929.18139
921.29303
934.47863
927.97029
927.81409
922.76438
934.58046
934.58046
927.39826
927.39826
926.10794
926.10794
925.14674
925.14674
935.20374
919.09473
923.81906
916.88856
928.16496
913.72525
933.92578
917.79891
937.10076
921.35511
927.18276
927.09746
927.84113
929.2301
918.56408
929.14788
917.59623
929.30449
929.46337
932.09972
915.74276
933.47058
923.6951
932.04843
930.86208
933.20815
912.11291
935.50702
932.64729
929.07943
928.95017
931.67986
919.69367
934.70425
936.13352
930.16517
928.90501
931.25105
925.13939
930.69026
930.16517
928.90501
931.25105
930.69026
940.43076
939.52932
939.40573
936.69751
940.3134
945.30331
944.32883
942.38651
947.3301
943.21189
945.91349
942.08178
)
;
        refGradient     uniform 0;
        valueFraction   nonuniform List<scalar> 
92
(
0.0075140686
0.0075140686
0.0075140686
0.0075140686
0.0075140686
0.0075140686
0.0075140686
0.0075140686
0.0075140686
0.0075140686
0.0075140686
0.0075140686
0.0075140686
0.0075140686
0.0075140686
0.0075140686
0.0075140686
0.0075140686
0.0075140686
0.0075140686
0.0075140686
0.0075140686
0.0075140686
0.0075140686
0.0075140686
0.0075140686
0.0075140686
0.0075140686
0.0075140686
0.0075140686
0.0075140686
0.0075140686
0.0075140686
0.0075140686
0.0075140686
0.0075140686
0.0075140679
0.0075140679
0.0075140679
0.0075140679
0.0075140679
0.0075140679
0.0075140679
0.0075140679
0.0075140679
0.0075140679
0.0075140679
0.0075140686
0.0075140686
0.0075140686
0.0075140679
0.0075140686
0.0075140679
0.0075140686
0.0075140686
0.0075140686
0.0075140679
0.0075140686
0.0075140679
0.0075140686
0.0075140686
0.0075140686
0.0075140679
0.0075140686
0.0075140679
0.0075140686
0.0075140686
0.0075140686
0.0075140679
0.0075140686
0.0075140679
0.0075140686
0.0075140686
0.0075140686
0.0075140679
0.0075140686
0.0075140686
0.0075140686
0.0075140686
0.0075140686
0.0075140686
0.0075140686
0.0075140686
0.0075140686
0.0075140686
0.0075140686
0.0075140686
0.0075140686
0.0075140686
0.0075140686
0.0075140686
0.0075140686
)
;
        value           nonuniform List<scalar> 
92
(
735.81828
737.94295
742.05275
747.80083
726.57743
729.0239
733.83184
740.68647
707.00921
710.07736
716.39839
725.7112
350.06022
347.31947
347.35852
350.04514
426.31526
423.04665
423.30814
426.82581
491.63849
488.88223
489.64194
493.29922
547.22712
545.52644
547.4691
551.92742
674.96225
593.17371
678.83943
593.35648
687.33216
597.9807
701.06147
605.55358
350.07007
350.01631
426.23592
426.77627
491.59356
493.24235
547.22297
551.89011
593.19265
605.52509
349.95318
349.95254
347.31331
347.39106
350.02244
350.10197
426.11898
426.20696
423.02996
423.3419
426.79001
426.92322
491.49669
491.55945
488.8822
489.68165
493.26628
493.44206
547.15488
547.12808
545.51072
547.50659
551.95117
552.06396
593.11528
593.07043
593.32834
598.01061
605.57732
605.61903
674.49224
678.48906
687.09672
700.90519
706.38455
709.58654
716.00631
725.41028
725.92113
728.47596
733.34844
740.28467
735.27965
737.38087
741.55041
747.38215
)
;
        Tnbr            T;
        thicknessLayers List<scalar> 0();
        kappaLayers     List<scalar> 0();
        kappaMethod     solidThermo;
        kappa           none;
        alphaAni        none;
        alpha           none;
        field           T;
    }
}


// ************************************************************************* //
