/*--------------------------------*- C++ -*----------------------------------*\
| =========                 |                                                 |
| \\      /  F ield         | OpenFOAM: The Open Source CFD Toolbox           |
|  \\    /   O peration     | Version:  v2012                                 |
|   \\  /    A nd           | Website:  www.openfoam.com                      |
|    \\/     M anipulation  |                                                 |
\*---------------------------------------------------------------------------*/
FoamFile
{
    version     2.0;
    format      ascii;
    class       volScalarField;
    location    "540/rightSolid";
    object      T;
}
// * * * * * * * * * * * * * * * * * * * * * * * * * * * * * * * * * * * * * //

dimensions      [0 0 0 1 0 0 0];


internalField   nonuniform List<scalar> 
130
(
753.13229
761.07047
769.38966
777.66628
785.58456
792.91708
799.49942
805.2309
810.04942
813.92204
816.83499
818.78169
819.75868
747.2861
756.57507
766.08048
775.30679
783.94468
791.79103
798.7269
804.6927
809.66848
813.65057
816.6307
818.61714
819.61117
735.55653
747.95187
759.99783
771.12898
781.12807
789.91022
797.47571
803.85485
809.09278
813.23776
816.32668
818.38354
819.40995
718.11793
736.3482
752.46267
766.29385
778.0407
787.94704
796.22281
803.05435
808.57858
812.8973
816.08978
818.20759
819.26535
697.57515
725.39537
746.32498
762.7248
775.90821
786.64562
795.425
802.56682
808.27864
812.71278
815.96874
818.11188
819.18167
697.75816
725.57791
746.48826
762.85968
776.01034
786.72005
795.47886
802.60191
808.29993
812.72248
815.97135
818.11061
819.17618
718.68573
736.88133
752.93856
766.7
778.36424
788.18833
796.40297
803.18171
808.66145
812.94813
816.11747
818.21094
819.25439
736.37886
748.73326
760.70314
771.75349
781.64977
790.32476
797.78936
804.0815
809.24861
813.33623
816.37849
818.39627
819.403
748.20928
757.46326
766.89583
776.039
784.56582
792.29192
799.10988
804.97035
809.85506
813.75815
816.68063
818.6265
819.60006
754.05429
761.95733
770.20773
778.41118
786.23747
793.44999
799.9069
805.52398
810.24494
814.03855
816.88974
818.79361
819.74742
)
;

boundaryField
{
    maxX
    {
        type            zeroGradient;
    }
    minZ
    {
        type            zeroGradient;
    }
    maxZ
    {
        type            zeroGradient;
    }
    rightSolid_to_bottomWater
    {
        type            compressible::turbulentTemperatureCoupledBaffleMixed;
        refValue        nonuniform List<scalar> 
130
(
927.67638
926.00441
924.84383
923.57805
923.44704
925.49153
927.14424
928.9933
930.17768
930.62386
931.37078
931.73406
932.32042
925.94944
924.12621
923.83332
922.55555
923.89737
925.5871
926.78338
927.36008
928.22864
930.71232
931.15317
931.53717
931.63481
919.10268
920.52685
922.72209
921.57905
923.86032
924.97183
926.42198
926.9855
926.77914
927.1791
928.46625
930.58617
930.86441
917.42395
920.9171
922.05373
923.22867
925.58666
928.06405
927.33904
927.32145
927.78106
927.52748
927.98696
930.10841
931.18311
914.68233
920.26574
921.49462
923.34201
925.62504
926.2302
926.72007
927.73096
927.56057
928.26452
928.6078
928.39519
929.47437
915.89258
922.34752
922.53845
923.14747
923.93675
924.44332
925.54506
926.25505
926.4212
926.5322
926.84711
927.35198
928.08265
928.43992
927.53321
926.33149
925.87885
925.43541
924.96831
925.86897
925.961
925.53041
925.31331
926.37924
927.0517
927.67538
932.85147
931.27239
928.76173
928.52297
928.34718
927.76117
927.40548
926.87167
926.26745
926.22224
926.74947
927.10298
927.14032
938.55817
934.20803
930.72743
930.26225
928.06721
927.6381
927.01913
926.48741
926.62517
926.99523
927.24957
927.24548
927.36819
931.5138
928.75149
926.12501
927.08925
928.58226
927.35532
926.52095
926.9988
927.52336
927.87663
927.93607
928.07326
928.23108
)
;
        refGradient     uniform 0;
        valueFraction   nonuniform List<scalar> 
130
(
0.0075140686
0.0075140686
0.0075140686
0.0075140686
0.0075140686
0.0075140686
0.0075140686
0.0075140686
0.0075140686
0.0075140686
0.0075140686
0.0075140686
0.0075140686
0.0075140686
0.0075140686
0.0075140686
0.0075140686
0.0075140686
0.0075140686
0.0075140686
0.0075140686
0.0075140686
0.0075140686
0.0075140686
0.0075140686
0.0075140686
0.0075140686
0.0075140686
0.0075140686
0.0075140686
0.0075140686
0.0075140686
0.0075140686
0.0075140686
0.0075140686
0.0075140686
0.0075140686
0.0075140686
0.0075140686
0.0075140686
0.0075140686
0.0075140686
0.0075140686
0.0075140686
0.0075140686
0.0075140686
0.0075140686
0.0075140686
0.0075140686
0.0075140686
0.0075140686
0.0075140686
0.0075140686
0.0075140686
0.0075140686
0.0075140686
0.0075140686
0.0075140686
0.0075140686
0.0075140686
0.0075140686
0.0075140686
0.0075140686
0.0075140686
0.0075140686
0.0075140686
0.0075140686
0.0075140686
0.0075140686
0.0075140686
0.0075140686
0.0075140686
0.0075140686
0.0075140686
0.0075140686
0.0075140686
0.0075140686
0.0075140686
0.0075140686
0.0075140686
0.0075140686
0.0075140686
0.0075140686
0.0075140686
0.0075140686
0.0075140686
0.0075140686
0.0075140686
0.0075140686
0.0075140686
0.0075140686
0.0075140686
0.0075140686
0.0075140686
0.0075140686
0.0075140686
0.0075140686
0.0075140686
0.0075140686
0.0075140686
0.0075140686
0.0075140686
0.0075140686
0.0075140686
0.0075140686
0.0075140686
0.0075140686
0.0075140686
0.0075140686
0.0075140686
0.0075140686
0.0075140686
0.0075140686
0.0075140686
0.0075140686
0.0075140686
0.0075140686
0.0075140686
0.0075140686
0.0075140686
0.0075140686
0.0075140686
0.0075140686
0.0075140686
0.0075140686
0.0075140686
0.0075140686
0.0075140686
0.0075140686
0.0075140686
)
;
        value           nonuniform List<scalar> 
130
(
754.44392
762.30991
770.55788
778.76279
786.62057
793.91332
800.45862
806.16093
810.95216
814.79905
817.69572
819.63053
820.60459
748.62866
757.83416
767.26595
776.41333
784.99639
792.79647
799.6892
805.61451
810.55944
814.53027
817.49132
819.46572
820.45301
736.93576
749.24868
761.2206
772.25952
782.20063
790.92515
798.4447
804.78014
809.97717
814.09399
817.16936
819.22669
820.24748
719.61555
737.73509
753.73701
767.47308
779.14938
788.99992
797.2081
803.98819
809.47436
813.75871
816.93063
819.04846
820.10636
699.20652
726.85966
747.64124
763.93171
777.03321
787.69451
796.41161
803.50741
809.17503
813.58113
816.81519
818.94061
820.01048
699.39728
727.05652
747.81119
764.06417
777.12193
787.75498
796.45627
803.53116
809.18762
813.57778
816.8046
818.93157
819.99463
720.26187
738.31397
754.24155
767.8962
779.46946
789.21623
797.37591
804.10442
809.53976
813.79262
816.94616
819.02896
820.06925
737.85516
750.10491
761.96602
772.93156
782.75217
791.35758
798.76344
805.0043
810.12807
814.18466
817.20804
819.21332
820.21277
749.63955
758.79136
768.12694
777.19793
785.64421
793.30904
800.07114
805.8836
810.73267
814.60923
817.51168
819.44291
820.41007
755.38791
763.21085
771.37944
779.52845
787.30714
794.45627
800.85843
806.43692
811.12638
814.89415
817.72438
819.61498
820.56282
)
;
        Tnbr            T;
        thicknessLayers List<scalar> 0();
        kappaLayers     List<scalar> 0();
        kappaMethod     solidThermo;
        kappa           none;
        alphaAni        none;
        alpha           none;
        field           T;
    }
    rightSolid_to_topAir
    {
        type            compressible::turbulentTemperatureCoupledBaffleMixed;
        refValue        nonuniform List<scalar> 
130
(
493.90063
486.87117
480.75938
475.82644
472.12162
469.59528
468.17159
467.78204
468.39275
470.04007
472.90151
477.47596
484.63855
437.16626
431.85801
428.64668
426.8058
425.85219
425.57568
425.94619
426.99691
428.79456
431.45347
435.26656
441.15745
451.09479
448.63522
440.2548
432.89181
426.55437
421.36624
417.5721
415.39391
414.89191
415.9273
418.27635
421.85814
427.57895
437.21292
503.31309
504.35335
504.07635
502.08122
498.47992
493.72712
488.33715
482.86568
478.23731
476.02924
478.14142
484.17998
494.50241
507.51708
511.49157
515.67243
519.67837
523.14138
525.7497
527.30154
527.77471
527.44423
527.01562
527.65012
530.80839
538.24042
505.45609
509.45781
513.60584
517.52399
520.86376
523.33751
524.76113
525.12257
524.71149
524.25205
524.89489
528.10942
535.52262
500.16064
500.45289
499.52429
497.05152
493.2028
488.43873
483.21135
477.94643
473.44252
471.17425
473.1302
480.69034
491.25148
447.49456
438.68128
431.18359
424.95541
419.99793
416.39378
414.23443
413.53078
414.18375
416.06162
419.17082
424.30246
433.56483
438.09397
432.4388
428.96598
426.96726
425.94706
425.64899
425.98218
426.91865
428.48373
430.80506
434.25405
439.79783
449.2004
494.3186
487.16481
480.92173
475.87012
472.0666
469.45412
467.93729
467.42177
467.85093
469.25415
471.82367
476.07021
482.83393
)
;
        refGradient     uniform 0;
        valueFraction   nonuniform List<scalar> 
130
(
0.00032132529
0.00032132529
0.00032132529
0.00032132529
0.00032132529
0.00032132529
0.00032132529
0.00032132529
0.00032132529
0.00032132529
0.00032132529
0.00032132529
0.00032132529
0.00032132529
0.00032132529
0.00032132529
0.00032132529
0.00032132529
0.00032132529
0.00032132529
0.00032132529
0.00032132529
0.00032132529
0.00032132529
0.00032132529
0.00032132529
0.00032132529
0.00032132529
0.00032132529
0.00032132529
0.00032132529
0.00032132529
0.00032132529
0.00032132529
0.00032132529
0.00032132529
0.00032132529
0.00032132529
0.00032132529
0.00032132529
0.00032132529
0.00032132529
0.00032132529
0.00032132529
0.00032132529
0.00032132529
0.00032132529
0.00032132529
0.00032132529
0.00032132529
0.00032132529
0.00032132529
0.00032132529
0.00032132529
0.00032132529
0.00032132529
0.00032132529
0.00032132529
0.00032132529
0.00032132529
0.00032132529
0.00032132529
0.00032132529
0.00032132529
0.00032132529
0.00032132529
0.00032132529
0.00032132529
0.00032132529
0.00032132529
0.00032132529
0.00032132529
0.00032132529
0.00032132529
0.00032132529
0.00032132529
0.00032132529
0.00032132529
0.00032132529
0.00032132529
0.00032132529
0.00032132529
0.00032132529
0.00032132529
0.00032132529
0.00032132529
0.00032132529
0.00032132529
0.00032132529
0.00032132529
0.00032132529
0.00032132529
0.00032132529
0.00032132529
0.00032132529
0.00032132529
0.00032132529
0.00032132529
0.00032132529
0.00032132529
0.00032132529
0.00032132529
0.00032132529
0.00032132529
0.00032132529
0.00032132529
0.00032132529
0.00032132529
0.00032132529
0.00032132529
0.00032132529
0.00032132529
0.00032132529
0.00032132529
0.00032132529
0.00032132529
0.00032132529
0.00032132529
0.00032132529
0.00032132529
0.00032132529
0.00032132529
0.00032132529
0.00032132529
0.00032132529
0.00032132529
0.00032132529
0.00032132529
0.00032132529
0.00032132529
)
;
        value           nonuniform List<scalar> 
130
(
753.04908
760.98248
769.29704
777.56941
785.48394
792.81326
799.39302
805.12255
809.93973
813.81165
816.72458
818.67212
819.65112
747.18652
756.47083
765.97216
775.19491
783.82971
791.67344
798.6072
804.57141
809.54618
813.52785
816.50825
818.49594
819.49285
735.46439
747.85307
759.89277
771.01831
781.01253
789.79064
797.35302
803.72995
808.96653
813.11092
816.19998
818.25802
819.28719
718.04893
736.27368
752.38288
766.20896
777.95088
787.85253
796.12395
802.95156
808.47252
812.78913
815.98123
818.10029
819.16105
697.51409
725.32666
746.25089
762.64672
775.82701
786.56183
795.3389
802.47862
808.1885
812.62107
815.87617
818.01962
819.09146
697.69641
725.50853
746.41351
762.78092
775.92842
786.63549
795.39195
802.51286
808.20893
812.62991
815.87794
818.01754
819.08515
718.61554
736.80542
752.85723
766.61347
778.27273
788.09214
796.30246
803.07734
808.55388
812.83848
816.00744
818.10267
819.14917
736.28602
748.63367
760.59733
771.64215
781.53367
790.20472
797.66625
803.95615
809.12184
813.20877
816.25107
818.26986
819.27924
748.1096
757.35885
766.78731
775.92693
784.45069
792.17423
798.99013
804.84904
809.73271
813.63531
816.55798
818.50501
819.48128
753.97101
761.86925
770.11491
778.31406
786.1366
793.34599
799.80037
805.41551
810.13512
813.92797
816.77909
818.68373
819.63941
)
;
        Tnbr            T;
        thicknessLayers List<scalar> 0();
        kappaLayers     List<scalar> 0();
        kappaMethod     solidThermo;
        kappa           none;
        alphaAni        none;
        alpha           none;
        field           T;
    }
    rightSolid_to_heater
    {
        type            compressible::turbulentTemperatureCoupledBaffleMixed;
        refValue        nonuniform List<scalar> 10(746.07229 738.8755 723.90315 699.27967 658.36082 658.52181 699.83166 724.70995 739.77126 746.9866);
        refGradient     uniform 0;
        valueFraction   nonuniform List<scalar> 10(0.50000003 0.50000003 0.50000003 0.50000003 0.50000003 0.50000003 0.50000003 0.50000003 0.50000003 0.50000003);
        value           nonuniform List<scalar> 10(749.60234 743.08083 729.72986 708.69881 677.96799 678.14001 709.25871 730.5444 743.99025 750.52053);
        Tnbr            T;
        thicknessLayers List<scalar> 0();
        kappaLayers     List<scalar> 0();
        kappaMethod     solidThermo;
        kappa           none;
        alphaAni        none;
        alpha           none;
        field           T;
    }
}


// ************************************************************************* //
