/*--------------------------------*- C++ -*----------------------------------*\
| =========                 |                                                 |
| \\      /  F ield         | OpenFOAM: The Open Source CFD Toolbox           |
|  \\    /   O peration     | Version:  v2012                                 |
|   \\  /    A nd           | Website:  www.openfoam.com                      |
|    \\/     M anipulation  |                                                 |
\*---------------------------------------------------------------------------*/
FoamFile
{
    version     2.0;
    format      ascii;
    class       volScalarField;
    location    "260/bottomWater";
    object      p;
}
// * * * * * * * * * * * * * * * * * * * * * * * * * * * * * * * * * * * * * //

dimensions      [1 -1 -2 0 0 0 0];


internalField   nonuniform List<scalar> 
1460
(
353.49313
353.50447
353.49946
353.50453
353.49619
353.49432
353.50185
353.49421
353.50423
353.50187
353.49896
353.49558
353.49169
353.50151
353.49656
353.49259
353.50405
353.48716
353.49539
353.49183
353.50151
353.4985
353.49574
353.50373
353.49935
353.50039
353.49512
353.48811
353.4794
353.48131
274.4296
274.45692
274.46872
274.45666
274.41559
274.39295
274.39945
274.41305
274.44208
274.46289
274.45397
274.40723
274.42079
274.46133
274.46922
274.46823
274.45949
274.41538
274.40537
274.41135
274.43817
274.46093
274.41828
274.47425
274.4761
274.48057
274.479
274.46748
274.43448
274.42686
196.32408
196.28836
196.29992
196.28745
196.27623
196.30919
196.32007
196.31117
196.28972
196.29266
196.29898
196.31784
196.30546
196.27773
196.29806
196.29753
196.29234
196.30278
196.31419
196.32192
196.27772
196.29799
196.29964
196.2657
196.29617
196.28036
196.28674
196.26918
196.28765
196.30663
117.69373
117.68916
117.67742
117.68107
117.63759
117.68242
117.68508
117.66358
117.67032
117.65185
117.61934
117.66612
117.62199
117.64388
117.65756
117.67695
117.68273
117.67389
117.69084
117.65389
117.64331
117.63645
117.64464
117.64756
117.6722
117.70012
117.68891
117.66437
117.65797
117.66571
39.248179
39.236056
39.239075
39.241689
39.259645
39.265061
39.272684
39.267683
39.248353
39.251885
39.290683
39.266906
39.272312
39.252019
39.230487
39.230352
39.23288
39.228365
39.230928
39.239841
39.250709
39.267359
39.254882
39.248076
39.225212
39.244849
39.236026
39.25113
39.271312
39.263695
353.49853
353.4949
353.51167
353.5049
353.48589
353.49609
353.49655
353.49503
353.48947
353.48709
353.4864
353.48419
353.48407
353.48398
353.48411
353.48802
353.51455
353.50181
353.49233
353.49863
353.49925
353.49997
353.49978
353.50074
353.49837
353.48433
353.48099
353.47776
353.48126
353.48247
274.41081
274.40608
274.48599
274.45343
274.40262
274.40058
274.39569
274.39576
274.41124
274.41804
274.4129
274.43037
274.39398
274.41015
274.41264
274.42032
274.48004
274.43689
274.40123
274.39386
274.41062
274.38851
274.38117
274.41365
274.4353
274.41998
274.41515
274.41049
274.40187
274.41027
196.31181
196.28073
196.26668
196.27126
196.2801
196.30429
196.32311
196.31487
196.32884
196.32758
196.33154
196.34975
196.32301
196.33421
196.33472
196.28833
196.26078
196.27751
196.29892
196.31416
196.31338
196.32165
196.31181
196.28135
196.27738
196.29759
196.31504
196.30757
196.32785
196.34456
117.67627
117.6556
117.65696
117.67147
117.6495
117.67692
117.68113
117.67731
117.63998
117.62178
117.61038
117.60536
117.6549
117.64691
117.67279
117.6449
117.64775
117.64819
117.62817
117.65268
117.60654
117.66691
117.65403
117.62406
117.63592
117.63844
117.65951
117.64253
117.67009
117.67046
39.242326
39.243502
39.259758
39.248171
39.255797
39.263685
39.26998
39.267604
39.246314
39.266714
39.297443
39.274144
39.244197
39.23572
39.231843
39.245854
39.240178
39.234304
39.232031
39.24358
39.273127
39.257858
39.259738
39.261658
39.251361
39.246101
39.247028
39.258636
39.26147
39.266605
353.49781
353.48709
353.51476
353.49338
353.49861
353.49445
353.48666
353.48446
353.48763
353.49069
353.49268
353.49413
353.49482
353.48988
353.48708
353.49775
353.51455
353.49213
353.49059
353.49244
353.49894
353.49226
353.4999
353.48806
353.4916
353.48189
353.48145
353.48528
353.48861
353.48546
274.40532
274.41044
274.44835
274.41446
274.39468
274.40237
274.41137
274.41229
274.40764
274.3945
274.3927
274.39408
274.39234
274.41316
274.4172
274.4788
274.47406
274.39454
274.38959
274.38888
274.38766
274.38959
274.3823
274.37379
274.40954
274.42094
274.41242
274.40579
274.40343
274.4089
196.3219
196.29723
196.27258
196.29888
196.28959
196.31944
196.29995
196.30986
196.30232
196.31112
196.31484
196.33731
196.3195
196.29915
196.29381
196.26565
196.26197
196.27597
196.30291
196.34311
196.3375
196.34707
196.35721
196.30338
196.30786
196.31093
196.29721
196.32139
196.33336
196.34779
117.68089
117.63333
117.6619
117.64477
117.69455
117.67753
117.63589
117.65028
117.65442
117.68545
117.67838
117.68309
117.67527
117.65735
117.65253
117.64249
117.64548
117.62678
117.66203
117.67545
117.67223
117.66472
117.68064
117.67449
117.64503
117.64345
117.6518
117.6832
117.67879
117.66876
39.262179
39.268764
39.284961
39.270747
39.266087
39.256381
39.274205
39.285338
39.252348
39.255818
39.262978
39.26991
39.257751
39.257219
39.232651
39.246073
39.263112
39.258738
39.256385
39.259418
39.271965
39.280391
39.280334
39.269162
39.283774
39.281727
39.250351
39.254708
39.264628
39.274192
353.49748
353.49433
353.49522
353.49505
353.49342
353.50288
353.50748
353.51085
353.48849
353.4867
353.47968
353.48524
353.48766
353.49248
353.47309
353.50514
353.51557
353.50964
353.50526
353.50266
353.49865
353.51585
353.50242
353.50439
353.50698
353.50825
353.48581
353.47592
353.47544
353.48039
274.39703
274.38839
274.39646
274.3921
274.41885
274.43628
274.47494
274.47366
274.42282
274.42304
274.41039
274.40251
274.4027
274.40946
274.41208
274.44369
274.41896
274.37703
274.38822
274.38089
274.40271
274.40876
274.39608
274.38258
274.41846
274.47877
274.45046
274.42452
274.42709
274.42769
196.3608
196.32901
196.31953
196.29563
196.27838
196.26487
196.27809
196.26084
196.28906
196.31862
196.30688
196.32971
196.34032
196.32095
196.28544
196.26174
196.27204
196.29394
196.33333
196.31085
196.33167
196.28921
196.3332
196.2979
196.25971
196.2601
196.2539
196.33449
196.35499
196.35447
117.68521
117.6835
117.66321
117.69486
117.63193
117.66359
117.6596
117.64401
117.65288
117.66686
117.65649
117.67204
117.6949
117.67774
117.61932
117.64467
117.62944
117.67587
117.67961
117.67626
117.63317
117.6392
117.65823
117.66271
117.62243
117.64312
117.63489
117.65978
117.66277
117.64098
39.276506
39.273679
39.272123
39.259069
39.255696
39.240058
39.242824
39.25191
39.237096
39.242175
39.249818
39.241795
39.245856
39.233497
39.229974
39.256685
39.273823
39.270987
39.279607
39.271574
39.264875
39.273092
39.262279
39.265097
39.257359
39.255561
39.234228
39.228224
39.238602
39.257709
353.4953
353.48035
353.51603
353.49423
353.49652
353.51066
353.50787
353.51137
353.51202
353.50971
353.50453
353.49703
353.4998
353.49189
353.48519
353.48765
353.49897
353.49097
353.50623
353.5035
353.5095
353.52275
353.5088
353.50814
353.51379
353.49396
274.40771
274.39894
274.46829
274.39797
274.4294
274.46151
274.47799
274.4792
274.46461
274.45824
274.44083
274.40122
274.39784
274.39255
274.40522
274.40425
274.39802
274.4198
274.42727
274.38861
274.39643
274.45768
274.48155
274.45816
274.44242
274.42304
196.31446
196.29628
196.27133
196.30558
196.27027
196.28504
196.29398
196.3017
196.29517
196.28647
196.27485
196.28325
196.30774
196.33225
196.30965
196.32323
196.32628
196.3041
196.28074
196.31343
196.28125
196.26373
196.25991
196.28032
196.28263
196.33067
117.68163
117.64587
117.65053
117.68912
117.62758
117.68547
117.68626
117.67954
117.69299
117.67992
117.66163
117.64348
117.66893
117.65289
117.6044
117.63181
117.66992
117.63021
117.63868
117.67116
117.63314
117.65338
117.64905
117.67958
117.69405
117.6799
39.265094
39.271091
39.278398
39.255205
39.251725
39.23034
39.233857
39.249631
39.232477
39.231256
39.239329
39.255391
39.251742
39.254406
39.269936
39.263632
39.233637
39.277465
39.26203
39.273034
39.254144
39.254667
39.232024
39.214225
39.229375
39.238697
353.49533
353.48002
353.51717
353.50108
353.50082
353.5152
353.51576
353.51331
353.50718
353.51025
353.51278
353.5013
353.50003
353.50398
353.51645
353.49721
353.5009
353.49773
353.5286
353.51252
353.51671
353.51684
353.50855
353.49262
353.4914
353.49116
274.41144
274.39996
274.46173
274.40462
274.43174
274.46359
274.47716
274.45681
274.41666
274.46647
274.44592
274.40333
274.40103
274.43664
274.45013
274.42899
274.4108
274.42491
274.44825
274.40709
274.38113
274.4069
274.45042
274.42897
274.41128
274.40719
196.33234
196.31034
196.27433
196.32147
196.28424
196.28286
196.28799
196.29573
196.30064
196.30392
196.27344
196.29165
196.31215
196.29763
196.27637
196.28977
196.30003
196.28422
196.24626
196.31245
196.27832
196.29589
196.26262
196.28643
196.29838
196.31813
117.68717
117.65749
117.65417
117.6899
117.63285
117.69304
117.69612
117.6668
117.6422
117.63979
117.64489
117.62298
117.67591
117.63436
117.63259
117.65506
117.6756
117.62543
117.6634
117.62949
117.67809
117.61064
117.63834
117.64397
117.648
117.66938
39.255864
39.256991
39.265609
39.257392
39.252845
39.229974
39.239753
39.229298
39.24016
39.255047
39.268694
39.274088
39.266901
39.254835
39.244843
39.236337
39.227603
39.262599
39.263521
39.266326
39.28389
39.27629
39.256581
39.236797
39.239554
39.241753
353.49344
353.49083
353.49852
353.48756
353.50863
353.51067
353.51199
353.51034
353.50699
353.52003
353.50841
353.52119
353.50474
353.50901
353.50989
353.51579
353.53307
353.5291
353.53745
353.52337
353.52796
353.51416
353.52802
353.5151
353.51432
353.52423
353.51452
353.51264
353.49444
353.50314
274.39778
274.39354
274.40449
274.41029
274.44138
274.47045
274.4374
274.40979
274.38512
274.43405
274.38883
274.37626
274.39
274.38435
274.38499
274.37464
274.40111
274.41583
274.44066
274.45846
274.45173
274.44988
274.47324
274.40898
274.3911
274.37329
274.43138
274.43944
274.40368
274.40657
196.33305
196.31534
196.30021
196.2804
196.25168
196.29051
196.28264
196.29635
196.31775
196.29221
196.31034
196.3237
196.3353
196.32183
196.32877
196.31507
196.29916
196.31227
196.3014
196.30102
196.28327
196.29928
196.26618
196.27252
196.31625
196.30357
196.26515
196.27394
196.29603
196.33147
117.67214
117.68322
117.68011
117.66903
117.67061
117.68059
117.66592
117.62021
117.67082
117.63995
117.63283
117.68549
117.67324
117.66008
117.66125
117.66359
117.61621
117.66057
117.66001
117.68107
117.69095
117.66657
117.65873
117.64205
117.68002
117.68891
117.63133
117.67167
117.6534
117.68836
39.256111
39.251536
39.242388
39.250894
39.241866
39.235514
39.232268
39.245412
39.252264
39.280008
39.2887
39.282284
39.270742
39.262851
39.255395
39.247918
39.25577
39.216807
39.22589
39.233766
39.233147
39.22716
39.24866
39.260843
39.26312
39.271479
39.259121
39.254274
39.261664
39.260653
353.49174
353.49311
353.49497
353.50008
353.48705
353.50688
353.49895
353.50345
353.50647
353.50579
353.50589
353.50222
353.49669
353.5123
353.51123
353.52662
353.53453
353.53558
353.54065
353.53762
353.5277
353.52858
353.52211
353.50841
353.51344
353.52095
353.51446
353.52091
353.48331
353.49972
274.41673
274.41336
274.40573
274.40215
274.4093
274.44252
274.43241
274.39099
274.38108
274.39508
274.38496
274.38817
274.40094
274.43773
274.43051
274.41663
274.38796
274.35948
274.37491
274.41283
274.43965
274.4501
274.42956
274.39021
274.38101
274.37587
274.37997
274.43019
274.41422
274.40709
196.33652
196.31492
196.33452
196.3187
196.29276
196.28059
196.28741
196.30935
196.34454
196.33458
196.32415
196.29384
196.27854
196.26376
196.2839
196.2905
196.3006
196.3135
196.31574
196.2827
196.29572
196.28277
196.28049
196.28195
196.31418
196.32887
196.29436
196.26861
196.29832
196.31507
117.62144
117.61673
117.65705
117.67712
117.6468
117.66814
117.64237
117.65493
117.68126
117.67415
117.68238
117.66844
117.64159
117.64772
117.65935
117.67628
117.61664
117.67862
117.6275
117.64194
117.65048
117.67271
117.67715
117.62821
117.67312
117.6827
117.63057
117.67807
117.63681
117.67728
39.286938
39.251441
39.243226
39.26197
39.263215
39.246372
39.258448
39.256467
39.270627
39.262914
39.270741
39.260967
39.259658
39.2569
39.247763
39.238121
39.263079
39.275754
39.266213
39.247188
39.237559
39.241206
39.251516
39.262032
39.269193
39.285753
39.263214
39.256586
39.276371
39.257471
353.49786
353.50986
353.5052
353.50698
353.50912
353.50634
353.52062
353.49977
353.51235
353.50806
353.4984
353.51504
353.51741
353.50818
353.5186
353.52676
353.53798
353.53943
353.54528
353.54237
353.54288
353.51316
353.51134
353.5138
353.51781
353.52383
353.50886
353.52292
353.49263
353.50223
274.42595
274.44726
274.42851
274.40391
274.38837
274.43114
274.43583
274.38781
274.38328
274.39009
274.38304
274.40625
274.45641
274.45
274.45774
274.44677
274.41493
274.37122
274.35821
274.37159
274.41959
274.39502
274.38528
274.37814
274.37748
274.36852
274.37781
274.44323
274.41298
274.41053
196.32308
196.29574
196.27929
196.31016
196.28725
196.29672
196.26933
196.30328
196.33043
196.32306
196.28044
196.26064
196.25551
196.30123
196.28304
196.30567
196.26566
196.32984
196.33042
196.31693
196.27813
196.30663
196.32404
196.32093
196.35277
196.32392
196.28687
196.26287
196.29252
196.31384
117.63757
117.63621
117.66295
117.66253
117.68969
117.63141
117.66182
117.6351
117.68842
117.67428
117.65425
117.65715
117.66108
117.67482
117.68459
117.66141
117.62158
117.64654
117.66048
117.60105
117.63139
117.61231
117.65336
117.65901
117.66814
117.6842
117.62237
117.65666
117.64312
117.66966
39.284059
39.243305
39.240877
39.254804
39.253989
39.276703
39.282865
39.275711
39.280672
39.269961
39.262863
39.256417
39.251807
39.236868
39.243243
39.240207
39.258018
39.265373
39.281411
39.27228
39.262655
39.248497
39.244245
39.261223
39.270832
39.277577
39.268025
39.266482
39.255437
39.250943
353.50305
353.50744
353.50996
353.50836
353.49965
353.50087
353.4983
353.49899
353.50402
353.49844
353.48161
353.52262
353.49309
353.49642
353.50499
353.52157
353.53893
353.54048
353.54369
353.54262
353.53869
353.54468
353.50585
353.51094
353.5166
353.51711
353.51036
353.51452
353.50614
353.49649
274.42592
274.4519
274.4734
274.44812
274.41962
274.41078
274.41367
274.39027
274.38908
274.39478
274.39307
274.45764
274.43316
274.43765
274.45067
274.44294
274.40955
274.3413
274.36018
274.36402
274.38103
274.43511
274.40152
274.3837
274.38419
274.38162
274.41206
274.46699
274.45031
274.42855
196.32926
196.30319
196.29955
196.28064
196.29849
196.30265
196.31294
196.32797
196.34452
196.30561
196.28067
196.26451
196.30773
196.31869
196.30825
196.30391
196.28067
196.32397
196.3915
196.3248
196.31363
196.2733
196.30574
196.31656
196.33591
196.3044
196.27119
196.28951
196.28546
196.32641
117.6542
117.65813
117.69547
117.67797
117.64981
117.65871
117.64293
117.6723
117.68619
117.67637
117.66334
117.6747
117.67285
117.69407
117.67114
117.6509
117.62339
117.66067
117.68599
117.66329
117.62234
117.6448
117.63416
117.65523
117.69576
117.66909
117.66413
117.68101
117.6855
117.69991
39.256994
39.23626
39.242575
39.232123
39.240959
39.258074
39.269883
39.261484
39.277192
39.26385
39.262376
39.254046
39.250059
39.247691
39.25251
39.24408
39.269949
39.27885
39.314918
39.281851
39.285665
39.271939
39.25076
39.242868
39.254739
39.255976
39.244558
39.239898
39.236814
39.250122
)
;

boundaryField
{
    minX
    {
        type            calculated;
        value           nonuniform List<scalar> 
50
(
353.49313
274.4296
196.32408
117.69373
39.248179
353.49853
274.41081
196.31181
117.67627
39.242326
353.49781
274.40532
196.3219
117.68089
39.262179
353.49748
274.39703
196.3608
117.68521
39.276506
353.4953
274.40771
196.31446
117.68163
39.265094
353.49533
274.41144
196.33234
117.68717
39.255864
353.49344
274.39778
196.33305
117.67214
39.256111
353.49174
274.41673
196.33652
117.62144
39.286938
353.49786
274.42595
196.32308
117.63757
39.284059
353.50305
274.42592
196.32926
117.6542
39.256994
)
;
    }
    maxX
    {
        type            calculated;
        value           nonuniform List<scalar> 
50
(
353.48131
274.42686
196.30663
117.66571
39.263695
353.48247
274.41027
196.34456
117.67046
39.266605
353.48546
274.4089
196.34779
117.66876
39.274192
353.48039
274.42769
196.35447
117.64098
39.257709
353.49396
274.42304
196.33067
117.6799
39.238697
353.49116
274.40719
196.31813
117.66938
39.241753
353.50314
274.40657
196.33147
117.68836
39.260653
353.49972
274.40709
196.31507
117.67728
39.257471
353.50223
274.41053
196.31384
117.66966
39.250943
353.49649
274.42855
196.32641
117.69991
39.250122
)
;
    }
    minY
    {
        type            calculated;
        value           nonuniform List<scalar> 
292
(
392.4
392.4
392.4
392.4
392.4
392.4
392.4
392.4
392.4
392.4
392.4
392.4
392.4
392.4
392.4
392.4
392.4
392.4
392.4
392.4
392.4
392.4
392.4
392.4
392.4
392.4
392.4
392.4
392.4
392.4
392.4
392.4
392.4
392.4
392.4
392.4
392.4
392.4
392.4
392.4
392.4
392.4
392.4
392.4
392.4
392.4
392.4
392.4
392.4
392.4
392.4
392.4
392.4
392.4
392.4
392.4
392.4
392.4
392.4
392.4
392.4
392.4
392.4
392.4
392.4
392.4
392.4
392.4
392.4
392.4
392.4
392.4
392.4
392.4
392.4
392.4
392.4
392.4
392.4
392.4
392.4
392.4
392.4
392.4
392.4
392.4
392.4
392.4
392.4
392.4
392.4
392.4
392.4
392.4
392.4
392.4
392.4
392.4
392.4
392.4
392.4
392.4
392.4
392.4
392.4
392.4
392.4
392.4
392.4
392.4
392.4
392.4
392.4
392.4
392.4
392.4
392.4
392.4
392.4
392.4
392.4
392.4
392.4
392.4
392.4
392.4
392.4
392.4
392.4
392.4
392.4
392.4
392.4
392.4
392.4
392.4
392.4
392.4
392.4
392.4
392.4
392.4
392.4
392.4
392.4
392.4
392.4
392.4
392.4
392.4
392.4
392.4
392.4
392.4
392.4
392.4
392.4
392.4
392.4
392.4
392.4
392.4
392.4
392.4
392.4
392.4
392.4
392.4
392.4
392.4
392.4
392.4
392.4
392.4
392.4
392.4
392.4
392.4
392.4
392.4
392.4
392.4
392.4
392.4
392.4
392.4
392.4
392.4
392.4
392.4
392.4
392.4
392.4
392.4
392.4
392.4
392.4
392.4
392.4
392.4
392.4
392.4
392.4
392.4
392.4
392.4
392.4
392.4
392.4
392.4
392.4
392.4
392.4
392.4
392.4
392.4
392.4
392.4
392.4
392.4
392.4
392.4
392.4
392.4
392.4
392.4
392.4
392.4
392.4
392.4
392.4
392.4
392.4
392.4
392.4
392.4
392.4
392.4
392.4
392.4
392.4
392.4
392.4
392.4
392.4
392.4
392.4
392.4
392.4
392.4
392.4
392.4
392.4
392.4
392.4
392.4
392.4
392.4
392.4
392.4
392.4
392.4
392.4
392.4
392.4
392.4
392.4
392.4
392.4
392.4
392.4
392.4
392.4
392.4
392.4
392.4
392.4
392.4
392.4
392.4
392.4
392.4
392.4
392.4
392.4
392.4
392.4
392.4
392.4
392.4
392.4
392.4
)
;
    }
    minZ
    {
        type            calculated;
        value           nonuniform List<scalar> 
150
(
353.49313
274.4296
196.32408
117.69373
39.248179
353.50447
274.45692
196.28836
117.68916
39.236056
353.49946
274.46872
196.29992
117.67742
39.239075
353.50453
274.45666
196.28745
117.68107
39.241689
353.49619
274.41559
196.27623
117.63759
39.259645
353.49432
274.39295
196.30919
117.68242
39.265061
353.50185
274.39945
196.32007
117.68508
39.272684
353.49421
274.41305
196.31117
117.66358
39.267683
353.50423
274.44208
196.28972
117.67032
39.248353
353.50187
274.46289
196.29266
117.65185
39.251885
353.49896
274.45397
196.29898
117.61934
39.290683
353.49558
274.40723
196.31784
117.66612
39.266906
353.49169
274.42079
196.30546
117.62199
39.272312
353.50151
274.46133
196.27773
117.64388
39.252019
353.49656
274.46922
196.29806
117.65756
39.230487
353.49259
274.46823
196.29753
117.67695
39.230352
353.50405
274.45949
196.29234
117.68273
39.23288
353.48716
274.41538
196.30278
117.67389
39.228365
353.49539
274.40537
196.31419
117.69084
39.230928
353.49183
274.41135
196.32192
117.65389
39.239841
353.50151
274.43817
196.27772
117.64331
39.250709
353.4985
274.46093
196.29799
117.63645
39.267359
353.49574
274.41828
196.29964
117.64464
39.254882
353.50373
274.47425
196.2657
117.64756
39.248076
353.49935
274.4761
196.29617
117.6722
39.225212
353.50039
274.48057
196.28036
117.70012
39.244849
353.49512
274.479
196.28674
117.68891
39.236026
353.48811
274.46748
196.26918
117.66437
39.25113
353.4794
274.43448
196.28765
117.65797
39.271312
353.48131
274.42686
196.30663
117.66571
39.263695
)
;
    }
    maxZ
    {
        type            calculated;
        value           nonuniform List<scalar> 
150
(
353.50305
274.42592
196.32926
117.6542
39.256994
353.50744
274.4519
196.30319
117.65813
39.23626
353.50996
274.4734
196.29955
117.69547
39.242575
353.50836
274.44812
196.28064
117.67797
39.232123
353.49965
274.41962
196.29849
117.64981
39.240959
353.50087
274.41078
196.30265
117.65871
39.258074
353.4983
274.41367
196.31294
117.64293
39.269883
353.49899
274.39027
196.32797
117.6723
39.261484
353.50402
274.38908
196.34452
117.68619
39.277192
353.49844
274.39478
196.30561
117.67637
39.26385
353.48161
274.39307
196.28067
117.66334
39.262376
353.52262
274.45764
196.26451
117.6747
39.254046
353.49309
274.43316
196.30773
117.67285
39.250059
353.49642
274.43765
196.31869
117.69407
39.247691
353.50499
274.45067
196.30825
117.67114
39.25251
353.52157
274.44294
196.30391
117.6509
39.24408
353.53893
274.40955
196.28067
117.62339
39.269949
353.54048
274.3413
196.32397
117.66067
39.27885
353.54369
274.36018
196.3915
117.68599
39.314918
353.54262
274.36402
196.3248
117.66329
39.281851
353.53869
274.38103
196.31363
117.62234
39.285665
353.54468
274.43511
196.2733
117.6448
39.271939
353.50585
274.40152
196.30574
117.63416
39.25076
353.51094
274.3837
196.31656
117.65523
39.242868
353.5166
274.38419
196.33591
117.69576
39.254739
353.51711
274.38162
196.3044
117.66909
39.255976
353.51036
274.41206
196.27119
117.66413
39.244558
353.51452
274.46699
196.28951
117.68101
39.239898
353.50614
274.45031
196.28546
117.6855
39.236814
353.49649
274.42855
196.32641
117.69991
39.250122
)
;
    }
    bottomWater_to_rightSolid
    {
        type            calculated;
        value           nonuniform List<scalar> 
130
(
-0.011635294
-0.0090720957
-0.00015937565
0.010708506
0.027359317
0.014881503
0.0080759987
-0.014787526
0.0048494166
-0.0039738425
0.011129502
0.031311581
0.023694737
-0.0056959138
-0.0079687687
0.0035802636
0.033126757
0.017857813
0.01973832
0.021658047
0.011360686
0.0061009343
0.0070280477
0.018636097
0.021469526
0.026604654
0.01873758
0.01638534
0.01941752
0.031964541
0.04039062
0.040334346
0.029161721
0.043774083
0.041727137
0.010350679
0.014708399
0.024628379
0.034192263
0.030986739
0.039607146
0.031573966
0.024875362
0.03309194
0.022278519
0.025096799
0.017358531
0.015561126
-0.0057720089
-0.011776154
-0.0013979231
0.017708983
0.014406236
0.029936011
0.023631858
-0.0063631459
0.037464871
0.022030473
0.033033709
0.014143511
0.01466673
-0.0079759546
-0.025774895
-0.010624638
-0.0013033397
0.014835013
0.0048430098
-0.0036634976
-0.012397459
0.022598745
0.023521242
0.026326392
0.04388952
0.03628951
0.016581167
-0.0032030301
-0.00044634751
0.0017525292
-0.02319327
-0.014109601
-0.006233588
-0.006852717
-0.01283998
0.0086600188
0.020842636
0.023120238
0.031479414
0.019120837
0.014273677
0.021664312
0.020653095
0.035754217
0.026213003
0.0071882765
-0.0024411229
0.0012062073
0.011516364
0.022031514
0.029192827
0.045752589
0.023214365
0.016585738
0.036370986
0.017471212
0.025373191
0.041411207
0.032279603
0.022655486
0.0084970582
0.0042450807
0.0212227
0.030832455
0.037577349
0.028024982
0.026482208
0.015436988
0.010943149
0.038849943
0.074917535
0.041850822
0.045665056
0.031939269
0.01076028
0.0028684818
0.01473899
0.015975517
0.0045582061
-0.00010201524
-0.0031859919
0.010122283
)
;
    }
    bottomWater_to_leftSolid
    {
        type            calculated;
        value           nonuniform List<scalar> 
130
(
0.0081787528
-0.0039437146
-0.0009245813
0.0016888014
0.019645277
0.025060954
0.032684252
0.027683492
0.0083533152
0.011884985
0.050682854
0.026906423
0.032312155
0.0023256807
0.003501523
0.019758193
0.0081705583
0.015797498
0.023685484
0.02997999
0.027604473
0.00631405
0.026713661
0.057443239
0.034143529
0.004196939
0.022179344
0.028764043
0.044961188
0.030746564
0.02608713
0.016380832
0.034204512
0.045337869
0.012347838
0.015817662
0.022977928
0.029909923
0.017751198
0.036506239
0.033678568
0.032123156
0.019069051
0.015696385
5.7680946e-05
0.0028239799
0.011910495
-0.0029044546
0.0021748031
0.009818013
0.0017946883
0.0058559003
0.025093739
0.031090934
0.038397571
0.015204692
0.011724685
-0.0096596043
-0.0061425262
0.0096307502
-0.0075225921
-0.0087443229
-0.00067133035
0.015390535
0.011741584
0.015864024
0.01699105
0.02560907
0.017392199
0.012845449
-0.010026371
-0.0002472426
-0.010702158
0.00016027567
0.015046556
0.028694192
0.034088292
0.026901254
0.016110814
0.011536414
0.0023884385
0.010893683
0.0018657144
-0.0044863545
-0.0077319708
0.0054118704
0.012264477
0.04000797
0.048700043
0.042284392
0.030741964
0.046938272
0.011441122
0.0032259108
0.021970482
0.023214861
0.0063722435
0.018447985
0.016467459
0.030627107
0.02291438
0.030740896
0.020966631
0.019657528
0.044058734
0.0033045102
0.00087733266
0.014803827
0.013989313
0.036702623
0.042864515
0.035710628
0.040672082
0.029961485
0.022862885
0.016416897
0.011806852
0.016993668
-0.00374004
0.002575272
-0.0078770212
0.00095888855
0.018073643
0.029883442
0.021483666
0.03719196
0.023850115
0.022375718
0.014046163
0.010059307
)
;
    }
    bottomWater_to_heater
    {
        type            calculated;
        value           nonuniform List<scalar> 
92
(
0.012019341
-0.0095125273
-0.0096478116
-0.0071199729
-0.0042797801
-0.0081566569
0.0058541621
0.00017824509
0.017218726
-0.0073494788
0.0060727538
0.02311231
353.49248
353.47309
353.50514
353.51557
274.40946
274.41208
274.44369
274.41896
196.32095
196.28544
196.26174
196.27204
117.67774
117.61932
117.64467
117.62944
-0.0065029287
39.233497
-0.010026418
39.229974
0.016684586
39.256685
0.03382252
39.273823
353.4998
353.49189
274.39784
274.39255
196.30774
196.33225
117.66893
117.65289
39.251742
39.254406
353.50003
353.50901
353.50989
353.51579
353.50398
353.53307
274.40103
274.38435
274.38499
274.37464
274.43664
274.40111
196.31215
196.32183
196.32877
196.31507
196.29763
196.29916
117.67591
117.66008
117.66125
117.66359
117.63436
117.61621
39.266901
39.262851
39.255395
39.247918
39.254835
39.25577
0.022850858
0.015394578
0.0079178546
0.015769855
0.016899973
0.0077633916
-0.0018790731
0.023078724
-0.0031324457
0.0032428131
0.00020684112
0.01801812
0.0076907072
0.012510161
0.0040799755
0.02994866
)
;
    }
}


// ************************************************************************* //
