/*--------------------------------*- C++ -*----------------------------------*\
| =========                 |                                                 |
| \\      /  F ield         | OpenFOAM: The Open Source CFD Toolbox           |
|  \\    /   O peration     | Version:  v2012                                 |
|   \\  /    A nd           | Website:  www.openfoam.com                      |
|    \\/     M anipulation  |                                                 |
\*---------------------------------------------------------------------------*/
FoamFile
{
    version     2.0;
    format      ascii;
    class       volScalarField;
    location    "260/bottomWater";
    object      p_rgh;
}
// * * * * * * * * * * * * * * * * * * * * * * * * * * * * * * * * * * * * * //

dimensions      [1 -1 -2 0 0 0 0];


internalField   nonuniform List<scalar> 
1460
(
0.33313157
0.34446821
0.33946093
0.34452644
0.33619124
0.33432062
0.34184742
0.33421301
0.34422733
0.34187235
0.33895892
0.33557562
0.33169171
0.34150786
0.33656452
0.33258602
0.34405008
0.32716324
0.3353857
0.33183182
0.34151022
0.33849542
0.33573605
0.34372584
0.33935104
0.34039091
0.33512257
0.32810552
0.31940429
0.32131459
-0.2503965
-0.22307876
-0.21127576
-0.22333561
-0.26440683
-0.28704919
-0.28054536
-0.26694842
-0.2379238
-0.21711314
-0.22602947
-0.27277228
-0.25921159
-0.21866773
-0.21077816
-0.21176703
-0.22050524
-0.26462466
-0.27462915
-0.26864502
-0.24183169
-0.21907407
-0.26171532
-0.2057491
-0.20389519
-0.19943309
-0.2009986
-0.21251938
-0.24552324
-0.25313958
0.12407743
0.088356357
0.099917695
0.087447565
0.076230019
0.10918509
0.12007325
0.11117272
0.089722536
0.092656172
0.098977378
0.11784188
0.10545966
0.077731745
0.098061161
0.097527001
0.092338542
0.10278377
0.11418554
0.1219174
0.077723905
0.097988968
0.09964085
0.06570006
0.096165047
0.08036357
0.08674224
0.06917901
0.087645646
0.10663312
-0.02627343
-0.030843193
-0.042583244
-0.038934061
-0.082414372
-0.037584285
-0.034920391
-0.056415362
-0.049678999
-0.068148185
-0.10065853
-0.053880153
-0.098009766
-0.076118356
-0.062435324
-0.043045111
-0.037274803
-0.046112635
-0.029161822
-0.066107571
-0.076693329
-0.083548214
-0.075361747
-0.072443596
-0.04780223
-0.019877836
-0.031093189
-0.055625499
-0.062034693
-0.054289634
0.0081787528
-0.0039437146
-0.0009245813
0.0016888014
0.019645277
0.025060954
0.032684252
0.027683492
0.0083533152
0.011884985
0.050682854
0.026906423
0.032312155
0.012019341
-0.0095125273
-0.0096478116
-0.0071199729
-0.011635294
-0.0090720957
-0.00015937565
0.010708506
0.027359317
0.014881503
0.0080759987
-0.014787526
0.0048494166
-0.0039738425
0.011129502
0.031311581
0.023694737
0.33852934
0.33490139
0.35167149
0.34489778
0.32588976
0.33609357
0.33654514
0.33503132
0.32946784
0.3270857
0.32640264
0.3241908
0.32406671
0.32398071
0.32410693
0.32801667
0.35454575
0.34180732
0.33233142
0.33862895
0.33924798
0.33996587
0.33978426
0.34074254
0.33837326
0.32432832
0.32099273
0.317762
0.32126376
0.32247414
-0.269186
-0.27392409
-0.19400651
-0.22657318
-0.2773767
-0.27942449
-0.28431483
-0.28424302
-0.26875684
-0.261961
-0.26710279
-0.24962888
-0.2860247
-0.26985062
-0.26736348
-0.25967938
-0.19996292
-0.24310814
-0.27877089
-0.28613512
-0.26937752
-0.29149175
-0.29883046
-0.26635017
-0.24470259
-0.26002
-0.2648506
-0.26951306
-0.27812568
-0.26972762
0.11180924
0.080732144
0.06668201
0.071263702
0.080103138
0.10429007
0.12310917
0.11487121
0.12883578
0.12757888
0.13154315
0.14974935
0.12300522
0.13421293
0.13472165
0.088334313
0.060777362
0.077511408
0.09891938
0.1141572
0.11337739
0.12165396
0.11181046
0.081346691
0.077379137
0.097589299
0.11503751
0.10756836
0.12784598
0.14455972
-0.043729594
-0.064400969
-0.06303719
-0.048530978
-0.070501401
-0.043082063
-0.038866322
-0.042686991
-0.080023691
-0.098222805
-0.1096228
-0.11463654
-0.065100307
-0.073088093
-0.04721293
-0.075104439
-0.072250692
-0.071813106
-0.091832227
-0.067319879
-0.11345556
-0.053086023
-0.065969015
-0.095944939
-0.084077388
-0.081562504
-0.060486791
-0.077468189
-0.049905214
-0.049544617
0.0023256807
0.003501523
0.019758193
0.0081705583
0.015797498
0.023685484
0.02997999
0.027604473
0.00631405
0.026713661
0.057443239
0.034143529
0.004196939
-0.0042797801
-0.0081566569
0.0058541621
0.00017824509
-0.0056959138
-0.0079687687
0.0035802636
0.033126757
0.017857813
0.01973832
0.021658047
0.011360686
0.0061009343
0.0070280477
0.018636097
0.021469526
0.026604654
0.33781337
0.32709161
0.35476494
0.33338315
0.33861264
0.33445244
0.32665933
0.32446193
0.3276326
0.3306917
0.33268247
0.33412957
0.33481726
0.32987716
0.32707803
0.3377517
0.35455232
0.33212757
0.33058762
0.33244388
0.33894001
0.33225905
0.33989802
0.32805612
0.33160266
0.32189232
0.32145468
0.32528148
0.32860814
0.3254556
-0.27467826
-0.26955809
-0.23164592
-0.26554092
-0.28532492
-0.27762582
-0.26863038
-0.26771377
-0.27235674
-0.28550269
-0.28729706
-0.28592317
-0.28765861
-0.26684302
-0.26279687
-0.2011982
-0.20593517
-0.28546158
-0.2904123
-0.2911237
-0.29234106
-0.29041359
-0.29769631
-0.30620665
-0.27046198
-0.25905748
-0.26758434
-0.27420634
-0.27656837
-0.27110443
0.12189519
0.097233256
0.072580062
0.098878643
0.089589248
0.11943718
0.099951338
0.10985653
0.10231738
0.11111648
0.11483666
0.13731252
0.1195011
0.099146218
0.093805525
0.065649781
0.061969247
0.075971024
0.10290969
0.14311002
0.13749671
0.14706886
0.15720843
0.10337794
0.10786127
0.11092713
0.097208355
0.12139335
0.13335791
0.14779148
-0.039110712
-0.086674028
-0.058102338
-0.07523394
-0.025451102
-0.042465118
-0.084111945
-0.069723165
-0.065583588
-0.03455497
-0.041623981
-0.036907613
-0.044726823
-0.062648575
-0.067469137
-0.077511124
-0.074523116
-0.093218001
-0.057973661
-0.044547344
-0.047774382
-0.055278197
-0.039357398
-0.04551375
-0.074966098
-0.0765519
-0.068202491
-0.036798032
-0.04121323
-0.051238916
0.022179344
0.028764043
0.044961188
0.030746564
0.02608713
0.016380832
0.034204512
0.045337869
0.012347838
0.015817662
0.022977928
0.029909923
0.017751198
0.017218726
-0.0073494788
0.0060727538
0.02311231
0.01873758
0.01638534
0.01941752
0.031964541
0.04039062
0.040334346
0.029161721
0.043774083
0.041727137
0.010350679
0.014708399
0.024628379
0.034192263
0.33747998
0.33433195
0.33522404
0.33504768
0.33341973
0.34288444
0.34748039
0.35084628
0.32848857
0.32669707
0.31967868
0.3252439
0.32765864
0.33248034
0.31308502
0.34513658
0.35557255
0.34963967
0.34526448
0.34265702
0.33864977
0.35584758
0.34241629
0.34439236
0.34697649
0.34824821
0.32581418
0.31591608
0.31544221
0.32039338
-0.28297079
-0.2916059
-0.28354403
-0.28790236
-0.26114589
-0.24372102
-0.20505756
-0.20634396
-0.25717895
-0.25696091
-0.26961347
-0.2774903
-0.27729797
-0.27054293
-0.26792045
-0.23631094
-0.26103585
-0.30297489
-0.29177914
-0.29911107
-0.27729202
-0.27124165
-0.28392078
-0.29741645
-0.26153875
-0.20122897
-0.22953632
-0.25547802
-0.25291116
-0.25231439
0.16079582
0.12900652
0.11952691
0.095631664
0.078380738
0.064867816
0.078094341
0.06084035
0.08906389
0.11862382
0.10687868
0.12970553
0.1403177
0.12095342
0.085440921
0.061738727
0.07203995
0.093936313
0.13333439
0.1108465
0.1316729
0.089210122
0.13319739
0.09790496
0.05970876
0.060097578
0.05390447
0.13448547
0.15499248
0.15447259
-0.034794267
-0.036502633
-0.056793701
-0.025139626
-0.088069367
-0.056408769
-0.060397615
-0.075987672
-0.067115156
-0.053136665
-0.063513211
-0.047959255
-0.025099551
-0.042262925
-0.10067543
-0.075326823
-0.090564986
-0.044134416
-0.040392925
-0.043737364
-0.086828802
-0.080803467
-0.061774693
-0.057288381
-0.097571391
-0.076879442
-0.085112276
-0.060219319
-0.057225254
-0.079016881
0.036506239
0.033678568
0.032123156
0.019069051
0.015696385
5.7680946e-05
0.0028239799
0.011910495
-0.0029044546
0.0021748031
0.009818013
0.0017946883
0.0058559003
-0.0065029287
-0.010026418
0.016684586
0.03382252
0.030986739
0.039607146
0.031573966
0.024875362
0.03309194
0.022278519
0.025096799
0.017358531
0.015561126
-0.0057720089
-0.011776154
-0.0013979231
0.017708983
0.33530481
0.32034935
0.3560298
0.33422603
0.33651825
0.35066301
0.34787312
0.35137312
0.35202245
0.34970942
0.34452887
0.337033
0.3398005
0.33189147
0.32518725
0.32764778
0.33896628
0.3309713
0.34622689
0.34350468
0.349505
0.36275227
0.34879687
0.34814283
0.35378837
0.33395523
-0.27229401
-0.28105929
-0.21171457
-0.28202672
-0.25060496
-0.21848937
-0.20201359
-0.20079606
-0.21539199
-0.22175688
-0.23917199
-0.27877897
-0.28216182
-0.28745127
-0.27478389
-0.27574915
-0.28198099
-0.26019993
-0.25273478
-0.29139227
-0.28357226
-0.22231627
-0.1984458
-0.22183662
-0.23758297
-0.25695775
0.11445771
0.09627525
0.071328823
0.10557754
0.070270343
0.085043
0.093983484
0.10170075
0.095174263
0.086468761
0.074846298
0.083249682
0.10773781
0.13224588
0.10964754
0.12323346
0.12627585
0.10409627
0.080741088
0.11342735
0.08125433
0.063728432
0.059905894
0.080322674
0.082631575
0.13066648
-0.038371641
-0.074133019
-0.069471975
-0.03087515
-0.092424136
-0.034528293
-0.033741675
-0.040460108
-0.027010202
-0.040083172
-0.058368807
-0.076524387
-0.051065349
-0.067107525
-0.11560246
-0.088193936
-0.050084791
-0.089792914
-0.081316412
-0.048835919
-0.086858774
-0.066619486
-0.070951458
-0.040422283
-0.025948989
-0.040097005
0.025093739
0.031090934
0.038397571
0.015204692
0.011724685
-0.0096596043
-0.0061425262
0.0096307502
-0.0075225921
-0.0087443229
-0.00067133035
0.015390535
0.011741584
0.014406236
0.029936011
0.023631858
-0.0063631459
0.037464871
0.022030473
0.033033709
0.014143511
0.01466673
-0.0079759546
-0.025774895
-0.010624638
-0.0013033397
0.33533209
0.32001905
0.35717407
0.34108257
0.34081882
0.35519719
0.355762
0.35330742
0.34717636
0.35024936
0.35278173
0.34130358
0.34002562
0.34397631
0.35645237
0.33721101
0.34090192
0.33772718
0.36859572
0.35252177
0.35671081
0.3568362
0.34855498
0.33262317
0.33140353
0.3311574
-0.26856112
-0.28003765
-0.21826779
-0.27537746
-0.24826315
-0.21640652
-0.20284114
-0.22318694
-0.26333624
-0.21353417
-0.23407952
-0.27667431
-0.27897314
-0.24335777
-0.22987284
-0.2510084
-0.26920024
-0.25508659
-0.2317479
-0.27291072
-0.29887241
-0.27310085
-0.22957559
-0.25103108
-0.26872092
-0.27281197
0.13233682
0.11033592
0.074334589
0.12146721
0.084242585
0.08286278
0.087987648
0.095729907
0.10064443
0.10392437
0.073444541
0.091645863
0.1121456
0.097633119
0.07636904
0.089773561
0.10003206
0.084217412
0.046262041
0.1124493
0.078315404
0.095891352
0.06261635
0.086434844
0.098383073
0.11813216
-0.032828397
-0.062514982
-0.065831907
-0.030096212
-0.087146999
-0.02696239
-0.023875185
-0.053200811
-0.077795168
-0.080205872
-0.075110659
-0.097020672
-0.044093051
-0.085639612
-0.08740608
-0.064942178
-0.044395334
-0.094565515
-0.05660237
-0.090508814
-0.04190931
-0.10936215
-0.081655481
-0.076034708
-0.071997955
-0.05062259
0.015864024
0.01699105
0.02560907
0.017392199
0.012845449
-0.010026371
-0.0002472426
-0.010702158
0.00016027567
0.015046556
0.028694192
0.034088292
0.026901254
0.014835013
0.0048430098
-0.0036634976
-0.012397459
0.022598745
0.023521242
0.026326392
0.04388952
0.03628951
0.016581167
-0.0032030301
-0.00044634751
0.0017525292
0.33344185
0.33082719
0.33851873
0.32755628
0.34862669
0.3506672
0.35198811
0.35034243
0.34698886
0.36003246
0.34840802
0.36118867
0.34474173
0.34901033
0.34989337
0.3557944
0.37306678
0.36909597
0.37745197
0.36337436
0.36795842
0.35415853
0.36802235
0.35509979
0.35432398
0.36422778
0.3545184
0.35263937
0.33444396
0.34314281
-0.28222029
-0.28646003
-0.27550681
-0.26971261
-0.23861865
-0.2095466
-0.24260371
-0.27021304
-0.29488149
-0.24594921
-0.29117124
-0.30374317
-0.29000155
-0.29565039
-0.29500528
-0.30536133
-0.27889022
-0.26416929
-0.2393384
-0.22153773
-0.22826667
-0.23011515
-0.20676227
-0.27101745
-0.28889715
-0.30671431
-0.24861716
-0.24056203
-0.27632146
-0.27342902
0.13304566
0.11534101
0.10021214
0.080399486
0.051678163
0.090509888
0.082635299
0.096346082
0.11774968
0.092205396
0.11034031
0.12369635
0.13529537
0.12182947
0.128773
0.115071
0.099159322
0.11227026
0.10139793
0.10102202
0.0832687
0.099280541
0.066181885
0.072519632
0.11624503
0.10357386
0.065151145
0.073938078
0.09602811
0.13147129
-0.047862937
-0.036783028
-0.039890112
-0.050966719
-0.049385913
-0.039406045
-0.054075595
-0.099786958
-0.049178972
-0.080054105
-0.087168235
-0.034505537
-0.046756066
-0.059920575
-0.058745967
-0.056407619
-0.10378883
-0.059431714
-0.059986454
-0.038926129
-0.029045787
-0.053427228
-0.061272515
-0.077950081
-0.039984315
-0.031087506
-0.088672657
-0.048326663
-0.066595115
-0.031639686
0.016110814
0.011536414
0.0023884385
0.010893683
0.0018657144
-0.0044863545
-0.0077319708
0.0054118704
0.012264477
0.04000797
0.048700043
0.042284392
0.030741964
0.022850858
0.015394578
0.0079178546
0.015769855
-0.02319327
-0.014109601
-0.006233588
-0.006852717
-0.01283998
0.0086600188
0.020842636
0.023120238
0.031479414
0.019120837
0.014273677
0.021664312
0.020653095
0.33174134
0.33311301
0.33496935
0.34007606
0.3270532
0.34687874
0.33894848
0.34345345
0.34647009
0.34578986
0.345891
0.3422204
0.33668805
0.35229936
0.35122583
0.36662232
0.37452903
0.37558452
0.38064802
0.37761697
0.3677046
0.36857747
0.36211475
0.34841186
0.3534397
0.36095211
0.35446405
0.36090925
0.3233083
0.33971744
-0.26327082
-0.26663664
-0.27427122
-0.27784803
-0.27070252
-0.23748083
-0.24758506
-0.28900616
-0.29892092
-0.28492485
-0.29504056
-0.29182723
-0.2790574
-0.24227227
-0.24949136
-0.26337448
-0.29204111
-0.32051672
-0.30508727
-0.26716958
-0.24034852
-0.22989939
-0.25044001
-0.28979451
-0.29898868
-0.30413266
-0.30003392
-0.24980584
-0.26578235
-0.27291435
0.13652456
0.11492082
0.1345159
0.11869797
0.092757271
0.080592254
0.08740607
0.10935294
0.14454111
0.13457938
0.12415331
0.093840181
0.078537058
0.063762323
0.083902304
0.090500911
0.10059904
0.113498
0.11573538
0.082702867
0.095720136
0.082769645
0.080491348
0.081950662
0.11417515
0.12886928
0.094357233
0.068610619
0.098324096
0.11506739
-0.098559938
-0.10327357
-0.062952888
-0.042879761
-0.073199772
-0.051859809
-0.077629562
-0.065066566
-0.038735084
-0.045849468
-0.037619802
-0.05155905
-0.078405462
-0.072281056
-0.060646094
-0.043718655
-0.10335891
-0.04138159
-0.092500913
-0.078063424
-0.069522187
-0.047288664
-0.042852
-0.091788957
-0.046878183
-0.037303219
-0.089430615
-0.041929464
-0.083185365
-0.042719315
0.046938272
0.011441122
0.0032259108
0.021970482
0.023214861
0.0063722435
0.018447985
0.016467459
0.030627107
0.02291438
0.030740896
0.020966631
0.019657528
0.016899973
0.0077633916
-0.0018790731
0.023078724
0.035754217
0.026213003
0.0071882765
-0.0024411229
0.0012062073
0.011516364
0.022031514
0.029192827
0.045752589
0.023214365
0.016585738
0.036370986
0.017471212
0.33785646
0.3498553
0.34519716
0.34698349
0.3491199
0.34634263
0.36062335
0.33976915
0.35234659
0.34806486
0.33840209
0.35503808
0.35741263
0.34817552
0.35860489
0.36676248
0.37798277
0.37943329
0.38528316
0.38236511
0.38287693
0.35315873
0.35133996
0.35379685
0.3578111
0.36383387
0.3488611
0.36291898
0.33263465
0.34223044
-0.2540474
-0.23273573
-0.25149364
-0.27609437
-0.29162959
-0.24886411
-0.24416817
-0.29218734
-0.29671701
-0.28991271
-0.29696417
-0.27374524
-0.22358647
-0.23000014
-0.22226003
-0.23323478
-0.26507481
-0.30878207
-0.3217924
-0.30841184
-0.26041454
-0.28497593
-0.29472151
-0.30185856
-0.30252144
-0.31147638
-0.30219104
-0.23677211
-0.26701683
-0.26946571
0.12307955
0.095735357
0.079292343
0.11015631
0.087247612
0.096718141
0.06932548
0.10327657
0.13042609
0.12305651
0.08044445
0.060640156
0.055511415
0.10123448
0.083038895
0.10567167
0.065656036
0.12983608
0.13042206
0.11692748
0.078131293
0.10663057
0.12403865
0.12092934
0.15276674
0.12392316
0.086865198
0.062869393
0.092521368
0.11384041
-0.082431636
-0.083794121
-0.057052569
-0.057466035
-0.030309964
-0.088585731
-0.058178121
-0.084897309
-0.031584751
-0.045723736
-0.065747307
-0.062846434
-0.058916439
-0.045177698
-0.035411779
-0.058589272
-0.098424987
-0.073461452
-0.059518393
-0.11895202
-0.088607208
-0.107688
-0.066637576
-0.060987593
-0.051856999
-0.035797756
-0.097630001
-0.063344218
-0.076878069
-0.050335025
0.044058734
0.0033045102
0.00087733266
0.014803827
0.013989313
0.036702623
0.042864515
0.035710628
0.040672082
0.029961485
0.022862885
0.016416897
0.011806852
-0.0031324457
0.0032428131
0.00020684112
0.01801812
0.025373191
0.041411207
0.032279603
0.022655486
0.0084970582
0.0042450807
0.0212227
0.030832455
0.037577349
0.028024982
0.026482208
0.015436988
0.010943149
0.34305424
0.34743517
0.34995557
0.34835828
0.33964516
0.34087421
0.33829912
0.33899141
0.3440155
0.33843743
0.32160549
0.36262068
0.33309131
0.33642421
0.34498667
0.36156908
0.37892918
0.38048446
0.38368931
0.38262065
0.37868616
0.3846828
0.34585477
0.35094231
0.35660191
0.35710595
0.35036144
0.35451962
0.34614042
0.33649059
-0.2540769
-0.22809829
-0.20660165
-0.2318751
-0.26038225
-0.26922045
-0.26632666
-0.28973275
-0.29092202
-0.28522199
-0.28693024
-0.22236359
-0.24683519
-0.24235156
-0.22933049
-0.23705547
-0.27045407
-0.33869884
-0.31981987
-0.31597881
-0.29897485
-0.2448852
-0.27848073
-0.29629585
-0.29580675
-0.29838265
-0.26793743
-0.21301437
-0.22969382
-0.2514527
0.12926242
0.10318999
0.09954992
0.080636095
0.098494707
0.10265304
0.1129367
0.12797425
0.14452157
0.10560697
0.080669126
0.064512254
0.10773381
0.11869269
0.10824572
0.10390897
0.080668594
0.12397149
0.19150484
0.12480473
0.11362841
0.073299565
0.10573953
0.11655993
0.13590513
0.10440255
0.071190153
0.089512455
0.085456281
0.12640584
-0.065800427
-0.061871344
-0.024531205
-0.042033867
-0.070190336
-0.061287166
-0.077072201
-0.047702269
-0.033812255
-0.043630871
-0.056658056
-0.045303398
-0.047145525
-0.025933832
-0.048862433
-0.069098558
-0.09660883
-0.059330787
-0.034005132
-0.056706378
-0.097661259
-0.075195172
-0.085842595
-0.064773597
-0.024236079
-0.050907495
-0.055872195
-0.038985639
-0.034499897
-0.020086649
0.016993668
-0.00374004
0.002575272
-0.0078770212
0.00095888855
0.018073643
0.029883442
0.021483666
0.03719196
0.023850115
0.022375718
0.014046163
0.010059307
0.0076907072
0.012510161
0.0040799755
0.02994866
0.038849943
0.074917535
0.041850822
0.045665056
0.031939269
0.01076028
0.0028684818
0.01473899
0.015975517
0.0045582061
-0.00010201524
-0.0031859919
0.010122283
)
;

boundaryField
{
    minX
    {
        type            fixedFluxPressure;
        gradient        uniform 0;
        value           nonuniform List<scalar> 
50
(
0.33313157
-0.2503965
0.12407743
-0.02627343
0.0081787528
0.33852934
-0.269186
0.11180924
-0.043729594
0.0023256807
0.33781337
-0.27467826
0.12189519
-0.039110712
0.022179344
0.33747998
-0.28297079
0.16079582
-0.034794267
0.036506239
0.33530481
-0.27229401
0.11445771
-0.038371641
0.025093739
0.33533209
-0.26856112
0.13233682
-0.032828397
0.015864024
0.33344185
-0.28222029
0.13304566
-0.047862937
0.016110814
0.33174134
-0.26327082
0.13652456
-0.098559938
0.046938272
0.33785646
-0.2540474
0.12307955
-0.082431636
0.044058734
0.34305424
-0.2540769
0.12926242
-0.065800427
0.016993668
)
;
    }
    maxX
    {
        type            fixedFluxPressure;
        gradient        uniform 0;
        value           nonuniform List<scalar> 
50
(
0.32131459
-0.25313958
0.10663312
-0.054289634
0.023694737
0.32247414
-0.26972762
0.14455972
-0.049544617
0.026604654
0.3254556
-0.27110443
0.14779148
-0.051238916
0.034192263
0.32039338
-0.25231439
0.15447259
-0.079016881
0.017708983
0.33395523
-0.25695775
0.13066648
-0.040097005
-0.0013033397
0.3311574
-0.27281197
0.11813216
-0.05062259
0.0017525292
0.34314281
-0.27342902
0.13147129
-0.031639686
0.020653095
0.33971744
-0.27291435
0.11506739
-0.042719315
0.017471212
0.34223044
-0.26946571
0.11384041
-0.050335025
0.010943149
0.33649059
-0.2514527
0.12640584
-0.020086649
0.010122283
)
;
    }
    minY
    {
        type            fixedValue;
        value           uniform 0;
    }
    minZ
    {
        type            fixedFluxPressure;
        gradient        uniform 0;
        value           nonuniform List<scalar> 
150
(
0.33313157
-0.2503965
0.12407743
-0.02627343
0.0081787528
0.34446821
-0.22307876
0.088356357
-0.030843193
-0.0039437146
0.33946093
-0.21127576
0.099917695
-0.042583244
-0.0009245813
0.34452644
-0.22333561
0.087447565
-0.038934061
0.0016888014
0.33619124
-0.26440683
0.076230019
-0.082414372
0.019645277
0.33432062
-0.28704919
0.10918509
-0.037584285
0.025060954
0.34184742
-0.28054536
0.12007325
-0.034920391
0.032684252
0.33421301
-0.26694842
0.11117272
-0.056415362
0.027683492
0.34422733
-0.2379238
0.089722536
-0.049678999
0.0083533152
0.34187235
-0.21711314
0.092656172
-0.068148185
0.011884985
0.33895892
-0.22602947
0.098977378
-0.10065853
0.050682854
0.33557562
-0.27277228
0.11784188
-0.053880153
0.026906423
0.33169171
-0.25921159
0.10545966
-0.098009766
0.032312155
0.34150786
-0.21866773
0.077731745
-0.076118356
0.012019341
0.33656452
-0.21077816
0.098061161
-0.062435324
-0.0095125273
0.33258602
-0.21176703
0.097527001
-0.043045111
-0.0096478116
0.34405008
-0.22050524
0.092338542
-0.037274803
-0.0071199729
0.32716324
-0.26462466
0.10278377
-0.046112635
-0.011635294
0.3353857
-0.27462915
0.11418554
-0.029161822
-0.0090720957
0.33183182
-0.26864502
0.1219174
-0.066107571
-0.00015937565
0.34151022
-0.24183169
0.077723905
-0.076693329
0.010708506
0.33849542
-0.21907407
0.097988968
-0.083548214
0.027359317
0.33573605
-0.26171532
0.09964085
-0.075361747
0.014881503
0.34372584
-0.2057491
0.06570006
-0.072443596
0.0080759987
0.33935104
-0.20389519
0.096165047
-0.04780223
-0.014787526
0.34039091
-0.19943309
0.08036357
-0.019877836
0.0048494166
0.33512257
-0.2009986
0.08674224
-0.031093189
-0.0039738425
0.32810552
-0.21251938
0.06917901
-0.055625499
0.011129502
0.31940429
-0.24552324
0.087645646
-0.062034693
0.031311581
0.32131459
-0.25313958
0.10663312
-0.054289634
0.023694737
)
;
    }
    maxZ
    {
        type            fixedFluxPressure;
        gradient        uniform 0;
        value           nonuniform List<scalar> 
150
(
0.34305424
-0.2540769
0.12926242
-0.065800427
0.016993668
0.34743517
-0.22809829
0.10318999
-0.061871344
-0.00374004
0.34995557
-0.20660165
0.09954992
-0.024531205
0.002575272
0.34835828
-0.2318751
0.080636095
-0.042033867
-0.0078770212
0.33964516
-0.26038225
0.098494707
-0.070190336
0.00095888855
0.34087421
-0.26922045
0.10265304
-0.061287166
0.018073643
0.33829912
-0.26632666
0.1129367
-0.077072201
0.029883442
0.33899141
-0.28973275
0.12797425
-0.047702269
0.021483666
0.3440155
-0.29092202
0.14452157
-0.033812255
0.03719196
0.33843743
-0.28522199
0.10560697
-0.043630871
0.023850115
0.32160549
-0.28693024
0.080669126
-0.056658056
0.022375718
0.36262068
-0.22236359
0.064512254
-0.045303398
0.014046163
0.33309131
-0.24683519
0.10773381
-0.047145525
0.010059307
0.33642421
-0.24235156
0.11869269
-0.025933832
0.0076907072
0.34498667
-0.22933049
0.10824572
-0.048862433
0.012510161
0.36156908
-0.23705547
0.10390897
-0.069098558
0.0040799755
0.37892918
-0.27045407
0.080668594
-0.09660883
0.02994866
0.38048446
-0.33869884
0.12397149
-0.059330787
0.038849943
0.38368931
-0.31981987
0.19150484
-0.034005132
0.074917535
0.38262065
-0.31597881
0.12480473
-0.056706378
0.041850822
0.37868616
-0.29897485
0.11362841
-0.097661259
0.045665056
0.3846828
-0.2448852
0.073299565
-0.075195172
0.031939269
0.34585477
-0.27848073
0.10573953
-0.085842595
0.01076028
0.35094231
-0.29629585
0.11655993
-0.064773597
0.0028684818
0.35660191
-0.29580675
0.13590513
-0.024236079
0.01473899
0.35710595
-0.29838265
0.10440255
-0.050907495
0.015975517
0.35036144
-0.26793743
0.071190153
-0.055872195
0.0045582061
0.35451962
-0.21301437
0.089512455
-0.038985639
-0.00010201524
0.34614042
-0.22969382
0.085456281
-0.034499897
-0.0031859919
0.33649059
-0.2514527
0.12640584
-0.020086649
0.010122283
)
;
    }
    bottomWater_to_rightSolid
    {
        type            fixedFluxPressure;
        gradient        uniform 0;
        value           nonuniform List<scalar> 
130
(
-0.011635294
-0.0090720957
-0.00015937565
0.010708506
0.027359317
0.014881503
0.0080759987
-0.014787526
0.0048494166
-0.0039738425
0.011129502
0.031311581
0.023694737
-0.0056959138
-0.0079687687
0.0035802636
0.033126757
0.017857813
0.01973832
0.021658047
0.011360686
0.0061009343
0.0070280477
0.018636097
0.021469526
0.026604654
0.01873758
0.01638534
0.01941752
0.031964541
0.04039062
0.040334346
0.029161721
0.043774083
0.041727137
0.010350679
0.014708399
0.024628379
0.034192263
0.030986739
0.039607146
0.031573966
0.024875362
0.03309194
0.022278519
0.025096799
0.017358531
0.015561126
-0.0057720089
-0.011776154
-0.0013979231
0.017708983
0.014406236
0.029936011
0.023631858
-0.0063631459
0.037464871
0.022030473
0.033033709
0.014143511
0.01466673
-0.0079759546
-0.025774895
-0.010624638
-0.0013033397
0.014835013
0.0048430098
-0.0036634976
-0.012397459
0.022598745
0.023521242
0.026326392
0.04388952
0.03628951
0.016581167
-0.0032030301
-0.00044634751
0.0017525292
-0.02319327
-0.014109601
-0.006233588
-0.006852717
-0.01283998
0.0086600188
0.020842636
0.023120238
0.031479414
0.019120837
0.014273677
0.021664312
0.020653095
0.035754217
0.026213003
0.0071882765
-0.0024411229
0.0012062073
0.011516364
0.022031514
0.029192827
0.045752589
0.023214365
0.016585738
0.036370986
0.017471212
0.025373191
0.041411207
0.032279603
0.022655486
0.0084970582
0.0042450807
0.0212227
0.030832455
0.037577349
0.028024982
0.026482208
0.015436988
0.010943149
0.038849943
0.074917535
0.041850822
0.045665056
0.031939269
0.01076028
0.0028684818
0.01473899
0.015975517
0.0045582061
-0.00010201524
-0.0031859919
0.010122283
)
;
    }
    bottomWater_to_leftSolid
    {
        type            fixedFluxPressure;
        gradient        uniform 0;
        value           nonuniform List<scalar> 
130
(
0.0081787528
-0.0039437146
-0.0009245813
0.0016888014
0.019645277
0.025060954
0.032684252
0.027683492
0.0083533152
0.011884985
0.050682854
0.026906423
0.032312155
0.0023256807
0.003501523
0.019758193
0.0081705583
0.015797498
0.023685484
0.02997999
0.027604473
0.00631405
0.026713661
0.057443239
0.034143529
0.004196939
0.022179344
0.028764043
0.044961188
0.030746564
0.02608713
0.016380832
0.034204512
0.045337869
0.012347838
0.015817662
0.022977928
0.029909923
0.017751198
0.036506239
0.033678568
0.032123156
0.019069051
0.015696385
5.7680946e-05
0.0028239799
0.011910495
-0.0029044546
0.0021748031
0.009818013
0.0017946883
0.0058559003
0.025093739
0.031090934
0.038397571
0.015204692
0.011724685
-0.0096596043
-0.0061425262
0.0096307502
-0.0075225921
-0.0087443229
-0.00067133035
0.015390535
0.011741584
0.015864024
0.01699105
0.02560907
0.017392199
0.012845449
-0.010026371
-0.0002472426
-0.010702158
0.00016027567
0.015046556
0.028694192
0.034088292
0.026901254
0.016110814
0.011536414
0.0023884385
0.010893683
0.0018657144
-0.0044863545
-0.0077319708
0.0054118704
0.012264477
0.04000797
0.048700043
0.042284392
0.030741964
0.046938272
0.011441122
0.0032259108
0.021970482
0.023214861
0.0063722435
0.018447985
0.016467459
0.030627107
0.02291438
0.030740896
0.020966631
0.019657528
0.044058734
0.0033045102
0.00087733266
0.014803827
0.013989313
0.036702623
0.042864515
0.035710628
0.040672082
0.029961485
0.022862885
0.016416897
0.011806852
0.016993668
-0.00374004
0.002575272
-0.0078770212
0.00095888855
0.018073643
0.029883442
0.021483666
0.03719196
0.023850115
0.022375718
0.014046163
0.010059307
)
;
    }
    bottomWater_to_heater
    {
        type            fixedFluxPressure;
        gradient        uniform 0;
        value           nonuniform List<scalar> 
92
(
0.012019341
-0.0095125273
-0.0096478116
-0.0071199729
-0.0042797801
-0.0081566569
0.0058541621
0.00017824509
0.017218726
-0.0073494788
0.0060727538
0.02311231
0.33248034
0.31308502
0.34513658
0.35557255
-0.27054293
-0.26792045
-0.23631094
-0.26103585
0.12095342
0.085440921
0.061738727
0.07203995
-0.042262925
-0.10067543
-0.075326823
-0.090564986
-0.0065029287
-0.0065029287
-0.010026418
-0.010026418
0.016684586
0.016684586
0.03382252
0.03382252
0.3398005
0.33189147
-0.28216182
-0.28745127
0.10773781
0.13224588
-0.051065349
-0.067107525
0.011741584
0.014406236
0.34002562
0.34901033
0.34989337
0.3557944
0.34397631
0.37306678
-0.27897314
-0.29565039
-0.29500528
-0.30536133
-0.24335777
-0.27889022
0.1121456
0.12182947
0.128773
0.115071
0.097633119
0.099159322
-0.044093051
-0.059920575
-0.058745967
-0.056407619
-0.085639612
-0.10378883
0.026901254
0.022850858
0.015394578
0.0079178546
0.014835013
0.015769855
0.022850858
0.015394578
0.0079178546
0.015769855
0.016899973
0.0077633916
-0.0018790731
0.023078724
-0.0031324457
0.0032428131
0.00020684112
0.01801812
0.0076907072
0.012510161
0.0040799755
0.02994866
)
;
    }
}


// ************************************************************************* //
