/*--------------------------------*- C++ -*----------------------------------*\
| =========                 |                                                 |
| \\      /  F ield         | OpenFOAM: The Open Source CFD Toolbox           |
|  \\    /   O peration     | Version:  v2012                                 |
|   \\  /    A nd           | Website:  www.openfoam.com                      |
|    \\/     M anipulation  |                                                 |
\*---------------------------------------------------------------------------*/
FoamFile
{
    version     2.0;
    format      ascii;
    class       surfaceScalarField;
    location    "260/bottomWater";
    object      phi;
}
// * * * * * * * * * * * * * * * * * * * * * * * * * * * * * * * * * * * * * //

dimensions      [1 0 -1 0 0 0 0];
oriented        oriented;


internalField   nonuniform List<scalar> 
3858
(
-0.0001409317
7.4338676e-05
6.8511693e-05
-3.2510827e-05
-0.00023779171
0.00012925515
0.00010274985
-0.0001445109
9.9256122e-06
0.00026686689
-0.00017869629
1.4468441e-05
0.00024994994
-1.2043567e-05
3.0463813e-05
0.00011333159
0.00013957431
-1.1287463e-06
-4.543695e-05
0.00013752182
2.1477926e-05
-0.0001437569
8.5157898e-05
1.4857944e-05
-1.7927152e-05
-0.00025934701
0.00013345868
0.00012487545
-0.00028904056
0.00014665355
7.3457791e-05
-0.00010221143
0.00015452055
-0.00012173487
9.7256614e-05
9.9439571e-05
-0.00023289131
4.4735331e-05
6.8733285e-05
-0.00012736194
-0.00019161768
8.6617699e-05
-9.5999431e-06
-0.00017835928
6.1898513e-05
9.8414058e-05
-0.00016655044
6.0581169e-05
0.00024825411
-0.00018352014
3.366276e-05
0.00020180355
3.740795e-05
1.2256111e-05
3.200821e-05
0.00013772347
3.3622035e-05
-0.00011040364
0.00011661191
2.7957296e-05
-2.4128733e-05
-0.00016232162
7.6383848e-05
-0.00010120962
-7.303996e-05
0.00015102702
-0.00026409522
6.3595485e-05
0.00010086092
-0.00018072022
-0.00020673003
0.00012355356
-9.3579726e-05
-0.0002048224
0.00011860021
2.3973464e-05
-0.00027902264
0.00016215783
0.00015581997
-0.00027834262
0.00014824007
0.00024690057
-0.00020098139
0.00011308158
0.00018955883
-8.8314659e-06
7.0903692e-05
0.00013578694
5.8056863e-05
-0.00017036237
5.8017333e-05
0.00018668371
-2.1741396e-05
-0.00055602168
0.000169609
0.0001246327
-0.00033918005
4.8295054e-05
0.00040166758
-0.00045865992
2.9287458e-06
0.00048278839
-0.00014543063
5.2266256e-05
0.0001631094
0.00047127288
-1.201958e-05
-0.00025069246
0.00061100633
-5.9682648e-05
-0.00022446649
1.0841166e-05
4.8090762e-05
-4.2069981e-06
-0.00062639162
0.00014678513
0.00014652632
-0.00061461929
0.00017484542
0.00014979432
-0.00027017643
0.000164697
-0.00029692874
0.00052850006
1.5479626e-05
-0.00040663708
5.7108826e-05
9.7334863e-05
-0.00019250779
-0.00048747383
8.1726873e-05
-5.8111213e-05
-0.00040858772
9.5831868e-05
9.2939683e-05
-0.00040152381
8.3922479e-05
0.00031351525
-0.00045877807
5.4682357e-05
0.00038147548
-7.7947921e-05
4.7395632e-05
4.3747309e-05
0.00041236162
6.3090021e-05
-0.0001426476
0.00018196608
0.00012104074
6.7490391e-05
-0.00048846549
0.00011600588
-6.6162738e-05
-0.00020654685
0.00026716002
-0.00035393449
0.00014415371
0.00020721352
-0.00023709079
-0.00048979768
0.00016622395
-0.00013923799
-0.00043824458
0.00013556937
-3.3861598e-05
-0.00058014515
0.00019574612
6.3703094e-05
-0.00057093053
0.00019502321
0.00021223307
-0.00050034347
0.0001508321
0.00023051025
-0.00015828955
0.0001311809
0.00023457176
0.00013172544
0.00024584289
-0.00028123906
9.3413493e-05
5.9516816e-05
-0.00041396557
4.4269963e-05
-2.0980099e-05
-0.00033147898
7.2795832e-05
-0.00012499656
-0.0003077656
-4.6877862e-05
-7.6250038e-05
-0.00013104838
-6.3128777e-05
3.7679411e-05
0.00037688528
-1.9541852e-05
0.00013458223
0.00055531365
-4.121014e-05
0.00029097724
-0.00014521634
-3.3750601e-07
0.00012779223
-0.00043888417
-2.4322437e-05
-7.3333711e-05
-0.00028666385
-0.0001268295
-0.00013561446
-4.3105868e-05
-0.00016478981
8.733782e-05
0.00043611973
-0.00013057193
0.00014973649
8.1468939e-06
-1.3436714e-05
-4.2087299e-05
-0.00010706339
-0.00018858664
-9.140382e-05
-0.00025109743
-0.00010817376
-0.0001217601
-0.00040620752
3.5039995e-05
-0.00026271023
-0.00042160212
0.00010377418
-4.9419816e-05
-0.00039361903
0.00010238068
0.00020256064
9.1345974e-05
6.9035183e-05
0.00031135053
1.0418119e-05
6.2758071e-05
0.00011927641
-0.00012925778
-0.0001671336
1.8069201e-05
-7.8327547e-05
-2.7012094e-05
6.7092617e-05
5.0050378e-05
4.5079913e-05
-0.00011406034
-0.00013186929
-0.00017677545
-0.00010519992
-0.00040039459
-4.6710405e-05
-6.1730381e-05
-0.00053680055
-8.6814153e-05
-7.747266e-05
-0.00044476591
-0.00011042235
-0.00020732579
-0.00016869049
-0.00020179986
-0.00016880176
-6.8542592e-05
-0.00012827099
0.00011466667
-4.8896668e-05
2.505013e-05
-0.00026354094
-4.2748261e-05
-5.7467323e-05
-0.00036928728
3.7839158e-05
-9.0068011e-05
-0.00029707007
-1.8082248e-06
-0.00010424797
-0.00023811195
-5.5473692e-05
-0.00022544975
8.7534251e-05
-9.7380856e-05
-6.29351e-05
0.00020323047
1.1140155e-05
0.00017241606
0.00029302784
2.6934637e-05
0.00012773583
-0.00011678733
1.6251223e-05
0.00011349078
-0.00045073299
2.6093875e-05
1.5664909e-05
-0.00017168299
-1.715497e-05
-0.00016635215
0.00026624507
-0.00012733386
6.9884378e-05
0.00021958638
-1.970315e-05
1.8504652e-05
0.00017678662
-0.00011725997
-8.8700025e-05
9.6687768e-05
-9.6546457e-05
-6.2977186e-05
-0.00020123733
-7.5582925e-05
-9.680124e-05
-0.00041096893
3.8585462e-05
-0.00017716138
-0.00039911028
5.7868293e-05
-0.00018132009
-0.00039667089
7.2105701e-06
0.00011821638
-0.00027365043
6.5459928e-05
0.00028029804
-0.0001139415
-3.772205e-05
0.00016172787
-2.3423595e-05
1.2735982e-05
-3.9721372e-05
0.00016922598
-4.610429e-05
-4.8679704e-05
7.5284839e-05
-1.6276138e-05
-6.553224e-05
-6.3442064e-05
-5.1574697e-05
-5.3412255e-05
-0.00041569825
3.1836638e-06
-5.517877e-05
-0.00051956888
-1.5465165e-05
-2.6732611e-05
-0.00042896146
-4.4250619e-05
-4.1352736e-05
-5.3800041e-05
-0.00010027033
-0.00012705903
0.00017539995
-0.00015823626
5.7020567e-05
-6.9412934e-05
-7.4331664e-05
-0.00018920928
-0.00020529522
-0.00023832374
-0.00029372037
-0.00020864492
-0.00038140964
-0.00015042269
-0.0002790349
-1.48405e-05
-0.00010515748
2.9353054e-05
0.00015683919
3.1031167e-05
6.1797644e-05
-2.1745776e-05
-0.00032559605
-6.3339296e-05
-0.00039557557
-0.00010170346
-3.3869394e-05
-9.5461084e-05
0.00020019741
-1.4480408e-05
0.00035056876
2.6415285e-05
0.00042263332
2.4623224e-05
0.00026623463
-4.4838636e-05
1.3197386e-05
-0.00015793168
-0.00016145203
-0.00022446087
-0.00030706479
-0.00025105812
-0.00039356687
-0.00018714835
-0.00035688205
-0.00015062632
-0.00023503074
-0.00014527491
1.6054811e-05
-8.1859575e-05
0.00021533462
-0.00012399498
0.00033197715
-0.0001800846
0.00016467343
-0.00024839454
-0.00012090209
-0.00023399336
-0.00040511129
-0.00014475227
-0.0003533635
-0.00010554784
-0.00011697711
-6.0986447e-05
-5.9956544e-05
-0.00014426816
0.00011995442
9.3789457e-05
-0.00015518271
3.0922888e-06
0.00013883189
8.7806567e-05
-0.00031429496
7.9789788e-05
0.00028982246
-0.00027624349
8.8647246e-05
0.00020576573
9.3566627e-05
2.4506761e-05
0.00010511422
0.000162556
-6.1534475e-05
7.0492397e-05
0.00015016122
-9.2719166e-05
4.066044e-05
0.00014266849
-9.639572e-05
2.0682422e-05
9.3569541e-05
6.2521709e-05
3.0389092e-05
3.2311303e-05
0.00010774429
2.8843719e-05
9.9971583e-05
5.9359878e-05
8.9599951e-06
8.6328107e-05
3.6612984e-05
-8.4292358e-05
0.00015912125
6.5530581e-06
-0.00016424949
0.00011765745
5.2744767e-05
-0.00022364778
9.2052325e-05
3.3094771e-05
-0.00014323117
1.990664e-05
-3.6712671e-05
0.00018405631
-0.00034541502
4.9873138e-05
0.00031307049
-0.00015787063
4.16273e-05
0.00021821312
0.00011240086
1.8419151e-05
6.826604e-05
0.00015840445
2.0475824e-05
-4.3226849e-05
0.00011726503
7.1383544e-05
-0.00011570112
0.00012592118
9.8326127e-05
-0.00017332773
0.00013632156
2.2957896e-05
-9.4972099e-05
-1.5977919e-05
6.1724279e-05
5.573547e-05
-8.8359876e-05
5.7221829e-05
0.00012416189
9.4892794e-05
2.553194e-06
0.00015952813
8.3825497e-05
3.3484776e-05
0.00013873315
0.00012740943
1.1532188e-05
8.5447497e-05
0.00015308474
-2.4562302e-05
0.00014624323
1.2506873e-06
-0.00029033181
0.00040897157
0.00018799838
-0.00022088506
-7.6043306e-05
0.00017929783
6.4101239e-05
-0.00062521956
7.4233354e-05
0.00031753197
-0.0006144041
8.7658616e-05
0.00038765215
1.8259512e-05
5.7453181e-05
0.00021145571
0.00044662394
-0.00011989109
-3.601547e-05
0.00058830916
-0.0002503594
-0.00019110743
0.00050855493
-0.00016270371
-9.9093498e-05
6.5212496e-05
8.3128239e-05
-1.6110654e-05
-6.2755242e-05
0.00018692913
8.5190422e-05
2.456633e-05
0.00013880119
6.0096113e-05
3.4716019e-05
9.2186035e-05
-0.00029048965
0.00049572331
0.00011131858
-0.00033718447
0.00010114722
0.00014493194
-0.00031576562
6.049728e-05
0.00010596806
-0.00014160784
-9.1703868e-05
2.1375205e-05
0.00019356388
-0.00069075749
6.4853107e-05
0.00034396317
-0.0004348728
0.0001739985
0.00028740888
8.8605349e-05
0.00014343983
9.524842e-05
0.0003392435
0.00013236215
0.00012242852
1.9080887e-05
0.00018700992
-0.00014409564
0.00047573681
0.00018386855
-0.00046893502
0.0005189083
0.00014946616
-0.00039570008
-0.00012836541
0.0002053765
-0.00011941239
-0.00034594231
0.00011686411
5.3177693e-05
6.0860061e-05
5.7188763e-05
0.00016949947
4.393723e-05
0.00011858969
0.00024380652
0.00010200318
0.00010193131
0.00015262378
0.00037076676
4.681618e-06
0.00041903704
1.1555393e-05
0.00025265853
0.00012689542
0.00012283111
0.00033625558
-0.00011454264
-8.2775982e-07
-4.3489103e-05
-0.00011665481
-5.6024247e-05
-0.00030691567
-0.00020781703
-0.00019003837
-0.00016593273
-0.00014608713
-3.9765075e-05
3.3343349e-08
0.00033218223
-7.1066217e-05
-7.0234162e-05
0.00054269634
7.4670186e-05
-7.4438702e-05
0.00037255847
0.00013986349
7.7260286e-05
-0.00018493246
7.4123535e-05
4.7203937e-05
-0.00012561106
-3.3917318e-05
1.0800867e-05
-6.631515e-05
-3.7505241e-05
-1.4862298e-05
-5.8581143e-05
-1.1611584e-05
-4.1067012e-05
0.00045291231
5.5579019e-05
9.5139482e-05
-0.00019347333
-3.0172578e-05
0.00038727864
-0.00036030076
2.0485127e-05
0.00038620285
-0.00014116771
8.5579631e-05
-8.1302628e-05
-0.00014617323
2.6695402e-05
-0.00025875377
-0.00018389617
2.8855194e-05
-5.5716433e-05
-9.9902575e-05
5.4505764e-05
3.179273e-05
0.00023580089
7.8691517e-05
4.2971996e-05
-6.775076e-05
-9.1481221e-05
-3.8297684e-05
0.00038384333
0.00014615107
1.5135834e-05
0.00046326668
4.7288003e-05
-0.00011651094
-0.00010547954
-6.8014559e-05
-0.00040764313
-0.00012582622
2.4305677e-05
-0.00029745535
-0.00018291718
4.6775301e-05
-0.00016452198
-0.00020982363
1.0405131e-05
-0.00011635986
1.8550642e-05
-0.00016650946
-5.2119077e-05
0.00030553058
-0.00012727559
0.00037544391
-5.7422613e-05
0.00023746906
-0.00015975613
6.434213e-06
7.2848436e-05
1.3004663e-05
7.4912474e-05
-0.00017679644
0.00013046135
7.2049163e-07
-0.00019227494
-0.00014117308
-0.00010663915
-0.000258257
-0.00012837815
-4.9107776e-05
-0.00010028809
0.00017197211
1.3381362e-05
5.7885441e-05
0.00032587703
8.5580409e-05
0.00025333198
8.9094781e-05
0.00010426838
0.0003310215
-0.00023496675
-1.5613526e-06
0.00017255922
0.00012890192
-0.00011320567
-0.00020635127
0.00037268682
-0.00018742532
-0.0003912626
0.00022947408
-0.00012284702
-3.1699188e-06
3.4017117e-05
-8.6457431e-05
0.00010390165
-0.00026707128
-0.00013002005
0.0001427747
-0.00041058693
-6.41698e-05
3.4223404e-05
1.7357743e-05
-1.1388698e-05
-0.00016859092
5.0107931e-05
6.4401452e-05
-0.0001723321
-0.00012192835
-5.1016079e-05
8.5067479e-06
-0.00016011272
-5.5168775e-05
0.00015658647
5.7181798e-05
-7.1826816e-06
-0.00014293706
0.00029649879
-5.1990036e-05
-4.5085502e-05
0.00014647995
9.3407523e-05
0.00021661627
0.00018378083
1.5079303e-06
-1.1327078e-06
0.00016180368
-0.00010110894
-0.00025670389
7.7387117e-05
5.5541499e-05
-0.00027708964
-0.00015466394
-2.3332666e-05
-0.00025316017
-0.00022864232
-4.9361405e-05
-0.00027431791
0.00011021591
-0.00017077787
-0.00011045874
0.00015074882
-0.00016731368
0.0002127887
-1.7216474e-05
-0.00013923963
-0.00020972578
-0.00014733119
-0.00021722752
-5.4029252e-05
-0.00017148552
-0.00015655208
-0.00018907295
-0.00025142504
-4.834569e-05
-0.00013953128
8.9431393e-05
0.00012143069
9.5946227e-05
0.0001389038
4.9875893e-05
-0.00018329717
2.389493e-05
-0.0002067099
5.0611195e-05
6.0702776e-05
9.8130808e-06
0.00029077469
-1.5078223e-05
0.00037666248
-2.5455369e-05
0.00015523055
-2.1016115e-05
-0.00018446247
-0.00011573255
-0.00015152982
-0.00017350659
-0.00010839028
-0.00021749248
-0.00020443124
-0.00027694551
-0.00032329083
-0.00022840148
-0.00028924389
-0.00012749146
-0.00010079107
-3.7228955e-05
-1.0135113e-05
-2.6035587e-05
0.00012016241
-7.0511672e-05
0.00021984063
-0.00011795916
0.00020527
-0.00015643681
1.1522191e-05
-0.00019490949
-0.00026684774
-9.5024658e-05
-0.00026769975
5.5200764e-06
-0.000163475
-1.4462383e-05
-1.0642844e-05
-0.00012881195
0.00014220119
8.1517528e-05
-0.00015558209
0.00010736776
6.1518408e-05
0.00013630821
-0.00023041749
1.6254486e-05
0.00017903652
3.0791481e-05
1.7092538e-05
8.693524e-05
0.00015469113
-3.7112038e-05
3.0890426e-05
0.00012841688
-0.00013215768
3.3051257e-05
6.9551416e-05
-0.00016120532
2.4330758e-05
5.5998793e-05
-0.00014004668
2.7036872e-05
0.00015069802
-8.7869739e-05
4.2962096e-05
0.00015872758
-6.4456495e-05
2.4199681e-05
0.00017166307
-9.1483762e-05
-1.9775741e-05
0.00015105639
-6.8755471e-05
-9.4771759e-05
0.00015983855
-7.6669752e-05
-0.00018937428
0.00013783224
1.2185775e-05
-0.00019291686
-3.0327456e-05
7.0199177e-05
7.9202479e-06
-0.00023222006
-4.1968161e-06
0.00029126003
-0.00028951984
5.4088127e-05
0.00032768363
2.2102056e-05
-1.4517099e-05
0.00024990245
0.00015161092
-5.2659459e-05
0.0001170437
0.00015546693
7.922155e-08
1.0272078e-05
0.00014135258
3.7634892e-05
-4.7880959e-05
0.00013548606
2.3080311e-05
-4.1644102e-05
0.00013419878
-0.0001168415
-4.8473915e-05
0.00018399962
-0.0001124484
3.1563025e-05
5.7464707e-05
-7.8094843e-05
6.2342243e-05
0.00010728694
-0.00013139598
6.0158505e-05
0.00016858674
-0.00012863567
6.2624879e-05
0.00015807286
-0.00014547816
4.915953e-05
0.00013628099
-0.0001445098
0.00012561768
-7.1827823e-05
-0.00032956079
0.00054288144
0.00011687892
-0.00018233367
6.2186756e-05
7.7251709e-05
0.00029062863
-0.00057694875
-5.2197689e-05
0.00038817158
-1.2137013e-05
3.3044157e-05
9.8553928e-05
0.00056894423
-6.7182265e-05
-9.7218432e-05
0.00036589175
-0.0001615936
-3.2742852e-05
-2.9901318e-05
-0.00021538225
7.3694689e-05
-4.2875987e-05
-0.00017026648
0.00016067393
0.00024428572
-9.7438701e-05
0.00013269452
0.00049117782
-0.00011754169
3.4766975e-05
0.00055880012
-0.00015040832
-0.00017737797
0.00052161811
-6.6230721e-05
-0.00038662904
0.00048642785
-6.0196473e-06
-0.00031125996
9.7873746e-05
0.00010952138
-0.00013409327
-0.00022331686
0.00012179078
8.0476589e-05
-0.00050619451
8.0779794e-05
0.0003683907
-0.00061186261
9.9281762e-05
0.00048005287
-3.3568164e-05
0.00011800656
0.00038399303
0.00039299481
-1.8842263e-06
0.00018863459
0.00046879145
1.439608e-05
9.8190382e-05
0.00036039483
5.8411878e-05
1.9558069e-05
0.00031994988
7.8037034e-05
-0.00023444291
0.00056005081
-2.2384895e-05
-0.000417084
0.00048789361
8.4123599e-05
-0.00022386895
-9.3187831e-05
7.4301589e-05
2.2807948e-05
-3.0873112e-05
-5.1328092e-05
0.00016455879
0.00020011351
-5.4687927e-05
0.00012583257
0.00045428836
-0.00015555798
1.1379596e-05
0.0005023502
-0.00024693462
0.00030298807
-0.00015443541
0.00014446483
0.00046117261
6.0075109e-05
0.00028442581
-6.1460222e-06
-7.2455967e-05
-7.3602109e-05
-9.1766942e-05
-0.00018317814
-3.6509446e-05
-6.6776567e-05
-0.00017249148
2.5997707e-05
0.00043642769
3.0244302e-05
4.2765311e-05
0.00024375035
3.4307568e-05
6.3666448e-06
-0.00010597893
0.00018714646
-5.3208742e-05
-8.8299862e-05
0.00024486275
4.3681847e-05
9.9212771e-05
0.0001223059
2.5584712e-05
0.00037533897
0.00010001866
-4.3572682e-05
0.00048933189
0.0001011204
-5.2230838e-05
0.00045630846
6.235624e-05
0.00010879509
0.00039709037
-1.61094e-05
0.00026882265
-0.00010611007
1.378369e-05
0.00037821523
-0.00036955401
5.7329701e-05
5.2009092e-05
-0.00015255068
5.8141935e-05
-0.00032719104
-9.2822578e-05
-0.00011314451
-0.00019343246
-5.4843964e-05
-8.362758e-05
1.1348028e-05
0.00031199517
-6.9275091e-05
7.0799911e-05
0.00043611284
5.1918244e-05
2.7137798e-05
0.00023772266
7.485306e-05
5.1583906e-05
0.00020899062
0.00023266422
3.385945e-05
0.00052927517
9.5788093e-05
-1.1267869e-06
0.00038588783
6.897745e-05
-3.5473366e-05
-0.00016708345
0.00013254787
-0.00011087209
-0.00012270422
0.00021400513
-0.00010763478
3.6603609e-05
0.00017067771
-8.9758209e-05
0.0002521534
1.7748918e-05
-0.00011126242
0.00040694108
-1.0362277e-05
0.00020073801
-6.6434969e-05
0.0003046912
0.00011641304
4.6502564e-05
0.00022995835
0.00018067176
-3.717246e-05
-8.2034431e-06
0.00019883768
-5.1722346e-05
-0.00013695176
0.00016809039
-0.00021275779
0.0001400819
-2.5709414e-06
0.00011285719
0.00034666472
-3.8784509e-05
8.9333409e-05
4.7181758e-05
0.00022284118
5.6243247e-05
-0.00026682025
0.00028670918
4.3261352e-05
-0.0002361958
5.180303e-05
1.522394e-05
-3.9444065e-05
1.636737e-06
6.3744841e-05
-1.6761806e-05
0.0002270094
5.2214927e-05
3.0837825e-05
0.00025888423
2.6977609e-05
0.00023361947
0.00017126417
-6.3412848e-05
0.00020472126
-0.00010687583
-0.00010035606
0.00015981618
-0.00038580375
-3.0149706e-06
2.2234206e-05
1.7828033e-05
-4.4185431e-05
-0.00022674372
0.00024294711
-2.2390316e-05
-0.00034385544
0.00017157702
-0.00016032534
-0.00011007742
8.8421071e-05
-6.5372694e-05
0.0001672577
9.1609564e-05
5.9985478e-05
0.00011449086
0.00019263775
4.5861712e-05
-2.5102857e-06
0.00025709678
0.0001623025
0.00010529159
0.00029050988
0.00013247133
0.0002628509
0.0001165329
1.0686673e-05
-2.2280753e-05
0.00018504647
-1.1456784e-05
-0.00039223094
0.00030827098
-8.4357682e-05
-0.00036745195
1.0150521e-05
-4.7687319e-05
-0.00012479185
-0.00015900336
-2.2812181e-06
1.0740772e-05
0.0001400104
-3.5915635e-05
0.00025270195
-5.8439644e-05
-1.4346752e-05
-7.8965994e-05
3.5018854e-05
-8.5921367e-05
0.00011240603
-5.0035022e-05
0.00015511485
-6.3691388e-05
7.9922154e-05
2.4276065e-05
-4.4644036e-05
0.00017521307
1.5487916e-05
0.00025865546
0.00016038628
0.00019168671
5.8892011e-05
0.00017719223
-0.00011529871
0.00022643867
-4.700777e-05
0.00016853156
0.0001147619
8.203636e-05
0.0002576953
2.8754133e-06
0.000113632
1.617137e-05
-0.00030296836
-8.4935944e-05
-0.00033817926
-0.00012046765
-0.00018920304
-0.0001235216
-0.00014012452
-0.00015444702
-0.00014939494
-0.00013071
-0.00014722604
-3.8050793e-05
-0.00011193242
0.00012011518
6.0316311e-06
0.00011309713
0.00011742314
0.0001086067
0.00011342308
2.5737865e-06
0.00010864707
3.3385667e-05
0.00022116141
8.4713424e-07
0.00011183779
2.4449481e-05
-0.00016722492
0.00012557942
-0.00014672913
0.00010505222
9.532997e-05
-9.3340818e-05
0.00013971053
3.6261591e-05
-0.00018933619
0.00016862051
-9.2759959e-06
-0.00021700314
0.00015079472
-0.00010510484
-0.00027948531
0.00017474738
-9.3297356e-05
-0.00031242585
0.00011243715
-0.00011436634
-0.0001850771
-0.00013744686
-0.00012162359
-1.4518143e-05
-0.00026462119
-6.7738439e-05
0.00020353457
-0.00033008304
-2.9245883e-05
0.00026697784
-4.0039802e-05
-0.0001081806
0.00027340345
8.2194401e-05
-0.00014954668
0.00019372132
0.00014165217
-0.0001485597
0.00011385863
0.00015738799
-0.00014258091
2.721795e-05
0.00014587892
-0.0001328004
-0.00010390334
0.00014533967
-0.00020732447
0.00017960686
2.0902717e-05
-0.00023272285
0.00013812749
-6.5605545e-05
0.00010625808
0.00010237532
-8.6219526e-05
2.9674983e-05
0.00013681469
-0.00011324368
-8.7113553e-05
0.00017204725
-5.5094272e-05
-0.00012668939
0.00012625109
-4.8117388e-05
-3.9366042e-05
-6.4838539e-05
-1.9514539e-06
-0.00014708175
0.00010806105
-0.00011692077
-0.00025771478
0.00010493835
-0.00010672519
-0.00018902275
-8.1118886e-05
-6.6181164e-05
3.1171701e-05
-0.00031494939
-3.7377612e-05
0.00016323526
-0.00013151217
-0.00012566352
0.00013189269
5.2228285e-05
-0.00016087162
4.2146279e-05
6.8501523e-05
-0.00011778009
6.700816e-05
-9.2307678e-05
-0.00018575185
0.00045869061
-1.6349321e-05
-0.00029184955
0.00040455422
-5.25843e-05
-0.00033401056
0.0002378507
-9.7092657e-05
-0.00048948491
0.00049956598
-0.00013630011
-0.00032758245
3.4901021e-05
-0.0001515486
-0.00012679174
-0.00040127253
-9.8558636e-05
-4.6016144e-05
-0.00055174958
-9.0294631e-06
9.8204362e-05
-0.00066580117
2.1231147e-05
0.00022617771
-0.00020497162
-6.0480229e-05
0.00030010106
4.20422e-05
-0.00015131284
0.00032972828
6.7424831e-05
-0.0001058082
0.00015020653
0.00032338396
-5.270493e-05
-0.00016126516
0.00047628695
-2.4955977e-05
-0.00032217647
0.00041577236
-8.266717e-05
6.1888341e-05
0.00036567794
-0.00060028817
0.00049679637
-9.7442218e-05
0.00022678059
0.0006065547
-0.00011615705
-9.3281521e-05
0.00066438379
-0.00020939122
-0.00030578574
0.00058846191
-0.00018951436
-0.00011869578
8.6885618e-05
-8.9312602e-05
0.00018730109
-0.0002796819
-1.3116478e-05
-0.00011489596
0.00040036548
-1.2492271e-05
-0.00050832088
0.00054121844
4.1268426e-05
-0.00040915905
-0.00024301375
0.00013703462
-0.00019377341
-0.00067732878
9.5665661e-05
1.8952239e-05
-0.00039930813
3.8237496e-07
9.9017423e-05
-7.7560533e-05
-0.00010583435
2.6942509e-05
-1.256384e-05
-9.3794346e-05
-4.3125244e-05
-1.7359497e-05
5.7599323e-05
0.00041595632
4.5210071e-05
4.2046574e-05
0.00029353388
5.411712e-05
-5.3150464e-05
0.00011277567
3.7093923e-05
7.397631e-05
0.00035983938
-0.00015989166
0.0002773261
-7.8824024e-05
-5.9380445e-05
0.00017006296
-0.00027267157
1.2969742e-05
-5.0439233e-05
-0.00021447444
7.0373506e-05
-0.00038424121
-0.00013511841
4.7981953e-05
-0.00032421574
-0.00020817505
6.5483861e-05
-9.2816473e-05
-0.00024377007
0.00015443167
-2.5452547e-05
-0.00010992561
0.00021110693
2.8195262e-05
0.00018018777
0.00015190464
9.0267642e-05
0.00036002276
3.8082425e-05
0.0003008795
0.00021894421
0.0004456921
-2.559456e-05
7.5988581e-06
-0.00010405299
-0.00013375408
-6.9233787e-05
1.7795055e-05
0.00052401575
-0.00015263776
-0.00011503425
0.00065442315
7.3514855e-05
1.0021394e-05
0.00050294687
1.2377643e-05
0.00018863117
-4.0325425e-05
2.345433e-05
9.224636e-05
-8.1881464e-05
0.00013124859
4.8620962e-05
0.00030721543
0.00023256353
0.00014590425
0.0004921262
2.0786401e-05
8.6780527e-05
-0.00010054636
4.9204197e-05
-0.00031064874
-0.00010528308
3.9388673e-05
-0.00049360486
-0.00013983808
9.4163782e-05
-0.00023642412
-0.00046877257
0.00015178021
-1.9438468e-05
-0.00040209224
0.00016218047
-0.00013886299
9.8643068e-06
0.00013205163
0.00029436999
3.603726e-05
0.00014491376
0.00019816693
4.5332354e-05
4.4959801e-05
0.00016414998
-3.1427018e-06
0.00022132171
0.00012678087
-0.0001560612
0.00019604395
6.5842318e-05
-6.5314007e-06
0.00020481051
-0.00023736116
4.5256437e-05
0.0001283882
-0.00011685471
3.5045832e-05
-0.0001281214
0.00015429313
1.0359408e-05
-0.00019276522
-0.0001574678
2.9160518e-05
-0.00014760623
-0.000318304
9.3119788e-05
-0.00022863452
-0.00010546818
0.00012878581
-0.00013892629
-9.7069996e-05
0.00021452717
0.00016368279
-8.3867894e-05
7.7868759e-05
0.00045768691
-0.00017541595
0.00042264163
6.4357539e-06
9.3515212e-05
0.000180888
-0.00022317089
0.000225062
-8.6934005e-05
0.00028499217
-5.7538646e-05
-5.5593633e-06
0.00040373455
0.00010394126
0.0002341891
0.00016975557
0.00015342831
0.00016014999
-2.3037385e-05
0.00010261278
-3.8431244e-05
0.00010026802
0.00017873425
2.69799e-05
0.00016283988
0.00021143574
0.00024555358
0.00022667143
5.7567755e-05
0.00018438192
8.5379733e-05
-0.00013621124
-1.0895911e-05
0.00013072569
-0.00012508863
1.7332901e-05
-8.6755067e-05
-0.00012899916
9.5963153e-05
-0.00052302307
-2.6660979e-05
0.00011074619
-0.00041872052
-3.4070405e-05
8.2211049e-05
-0.00016876751
0.00013191444
8.3489553e-05
0.00018628855
5.7871444e-05
0.0002663328
3.4070704e-05
0.00031863007
1.0792202e-05
0.00034300669
6.5741764e-05
0.00013307554
0.00014778305
2.4441998e-05
0.00025043428
0.00014971188
0.00022070996
7.5645862e-05
9.3790456e-05
-8.3484388e-05
6.7264932e-05
-6.2154084e-05
4.1733091e-05
-5.9932397e-05
-1.7255301e-05
-0.00010972507
-3.1199795e-05
-0.00026896964
-0.00034746983
-0.00028704948
-0.00018550909
-9.0854075e-05
3.5890144e-05
8.1242792e-05
0.00010092769
7.424658e-05
0.000138701
-8.9892265e-05
0.00026121664
-4.5927273e-05
0.00016940015
5.6603956e-05
0.00016891534
0.00022212852
6.3720643e-05
0.00032134794
1.9545968e-05
0.00048118782
-2.8267067e-05
0.00046780425
-4.8922026e-05
0.00011306639
-4.2705802e-05
-0.00016365453
-3.6947396e-05
1.3886489e-05
-0.0001156719
0.00015840343
-4.9588297e-06
-0.00023113157
0.00013832309
-2.7595537e-05
-0.00010991799
-0.00019585058
-3.2733475e-05
-0.00027227099
0.00014386414
-7.2837166e-05
-0.00033196232
3.4140144e-05
-8.7183018e-05
-0.00015874437
-0.00024022079
-5.5673969e-05
-2.7875184e-05
-0.00022481612
2.5398373e-05
6.7238665e-05
-0.00019089539
6.4953415e-05
0.00013219725
-0.00021891675
4.4211176e-05
0.00021776365
-0.00023015162
-5.9575278e-06
0.0002834013
-0.00020024659
-1.3850956e-05
0.0001997769
1.5365516e-05
-7.287935e-05
0.00015242206
-8.4625749e-05
-3.1370131e-05
0.00014186611
-0.00019444314
-7.4681279e-05
9.9804494e-05
-0.00016615718
-0.00011208145
0.00014097768
-0.00015553293
-0.0001437308
0.00014759072
-0.0001630615
-0.00016708928
0.00015809934
-0.00013414959
-0.00010595329
-0.00010106468
-7.7435639e-05
-0.00023601387
0.00010784631
-8.4374705e-05
-0.00028750014
3.3974219e-05
-4.9671747e-05
-0.000142872
-0.00019933399
1.3764511e-05
-2.7798401e-05
-0.00023006297
-1.1638913e-05
3.9886287e-05
-0.0001859786
-4.3474669e-05
0.00015538192
-0.0002892899
5.4169297e-05
0.00010538852
-4.048534e-05
-0.00031782456
0.00049956093
-3.9682261e-05
-0.0002100512
7.447948e-06
-2.9482525e-05
-2.8244761e-05
-0.00046038753
-1.4362148e-05
-0.00042690951
0.00051861748
-0.0001123887
-0.00041135928
-2.9444011e-05
-0.00010351468
-0.00015810847
-0.00052973647
-6.2293773e-05
1.1235431e-06
-0.00045087866
5.7801058e-05
9.9032874e-05
-0.00037370664
0.00010613306
0.00010883106
-0.00047923396
0.00019003879
0.00017368089
-0.00051445495
6.8140665e-05
0.00031898136
-0.00051975025
6.8395001e-05
0.00029907249
-0.00012481126
0.00010738072
0.00039023149
3.6307097e-05
-0.00019934417
0.00044427045
-0.00021921722
-0.00014456379
-4.6258871e-05
-0.00011810824
-0.00016094262
0.00010027547
-0.00013243332
-0.0003019013
0.00041795977
-0.00021872297
-3.0433713e-05
4.8485537e-05
-0.00017497026
0.00010696236
-0.00032163978
7.0686763e-05
-0.00036743391
0.00063299282
-9.4818214e-06
-0.00050066784
0.00018539759
0.00011884518
-0.00030169554
-0.00046848795
0.0001658473
-0.00010173345
-0.00049046782
6.0825128e-05
-2.4709944e-05
-0.00045664045
8.7803992e-05
9.4486017e-05
-0.0006644069
0.00016212669
5.0951296e-05
0.00013156374
0.0001752123
0.00040310465
-3.3545951e-05
0.00031778898
-6.6090551e-05
-1.4921064e-05
-2.9643922e-06
-0.00010362166
1.0814241e-06
6.4510625e-05
0.00039446305
-0.00010321224
0.00011047508
-9.7696231e-05
-3.7092681e-05
9.1736597e-06
-0.00036974693
-4.5718381e-05
4.0531522e-06
-0.00040477409
2.9389435e-05
-3.0549867e-05
-0.00027974074
-1.1380931e-05
-2.0427485e-05
-0.00043670707
1.2834599e-05
-3.0038819e-05
-0.00043132853
8.0916582e-05
-0.00016099394
-0.00026466676
8.6978574e-05
-0.00010707416
-9.9043529e-05
7.221715e-05
0.00027170816
4.9531618e-05
-4.2140233e-05
0.00037207949
-3.8306566e-05
-0.0001852404
-5.5488255e-05
0.00022584441
-0.00018185388
-3.4217598e-05
0.0001434842
0.00015505602
4.0430089e-05
6.407411e-05
0.00026877858
-3.6255834e-05
0.0001022674
1.8571149e-05
-7.7801819e-05
0.000238933
-4.4074971e-07
0.00057427715
9.851397e-05
0.00015129949
6.4879123e-05
1.7982422e-05
-4.482839e-05
-9.4891995e-05
-0.00013807941
-0.0002837116
-0.00014784107
-9.5797641e-06
-0.00020516029
-0.00043732955
5.3917982e-05
-0.00028827225
-0.00047491544
5.5800942e-05
-0.00028838507
6.0928417e-05
0.00032151479
0.00010485673
1.2770377e-05
0.00014921551
0.00015817283
-6.6317453e-06
-7.0308124e-05
0.00019184463
-7.9085371e-05
9.8693765e-05
0.00013337081
-6.3970868e-05
6.1997859e-05
6.8314453e-05
-0.00013584618
8.8943156e-05
-0.00031346784
-3.7967957e-05
8.4985648e-05
-0.00038968364
2.3912891e-05
-3.0523636e-05
-0.00020792333
5.4051279e-05
-6.8108563e-05
-0.00041542032
4.5458695e-05
-6.0109128e-05
-0.00041171605
6.5507876e-05
-0.00011799516
-0.00018911586
0.00011112096
-0.00020860857
7.6379208e-05
0.00012971787
7.2811174e-05
6.8157187e-05
0.0002208507
0.00012435898
-3.0668826e-05
-0.0001456201
0.0003612516
5.3672211e-05
-0.00026185371
6.5599676e-05
0.00016984465
3.0800274e-05
-0.00031074164
0.00016113053
-8.3586059e-05
0.00014358554
0.0001132792
-0.00018153609
0.00011660575
0.0001149782
9.3692909e-05
0.0002181065
0.00013850938
0.00016460795
1.8478917e-06
-0.00014409506
4.2608207e-05
3.0272285e-05
-0.00012825318
-2.8003072e-05
-0.00010667585
-9.9553123e-05
6.0289955e-05
-0.00044501661
-0.00010726695
5.9386597e-05
-0.00043816978
-6.9912718e-05
-0.00029418338
-0.00010358261
6.5396745e-05
0.00012294954
0.00012878051
0.0001526605
0.00026469987
8.9995976e-05
0.00037197891
3.6883971e-05
0.00047852936
2.7505765e-05
0.00028190545
3.0939114e-05
7.5086758e-05
6.7569331e-05
2.1769613e-06
8.5696428e-05
-0.00018885661
-0.00013059628
-0.00034392602
-0.00018938169
-0.00032479387
-0.00016651491
-0.00013471841
-0.00013095153
-9.3107029e-05
-1.236561e-05
0.00017261474
0.00016995986
0.00027985383
7.4662507e-05
0.00029959803
-0.00023393649
0.00025907399
-0.00013964873
0.00021869794
-1.3447612e-06
0.00014721711
0.00018759822
9.2884163e-05
0.00028983289
-8.0840826e-05
0.00045756655
-0.00016572845
0.00050240335
-0.00020043468
0.00027881218
-0.00026413126
8.702523e-05
-0.00028333025
-0.00019327167
-9.6268879e-05
0.00013872758
-4.5932618e-05
-0.00019388012
0.00013842083
-6.3798514e-05
-4.9408095e-05
-0.00024333415
6.3572207e-05
-0.00019604739
8.7042273e-05
-1.2794863e-05
-0.00027091601
1.6779877e-05
-2.8466795e-05
-6.6767888e-05
-0.00028502151
2.3115241e-05
0.00012850794
-0.00029673452
0.00012461889
0.00020191047
-0.00016383441
0.00015367559
6.8941505e-05
3.6543759e-05
0.0001399518
6.5982636e-05
-0.00010779205
0.00010340841
0.00022484299