/*--------------------------------*- C++ -*----------------------------------*\
| =========                 |                                                 |
| \\      /  F ield         | OpenFOAM: The Open Source CFD Toolbox           |
|  \\    /   O peration     | Version:  v2012                                 |
|   \\  /    A nd           | Website:  www.openfoam.com                      |
|    \\/     M anipulation  |                                                 |
\*---------------------------------------------------------------------------*/
FoamFile
{
    version     2.0;
    format      ascii;
    class       volScalarField;
    location    "70/topAir";
    object      rho;
}
// * * * * * * * * * * * * * * * * * * * * * * * * * * * * * * * * * * * * * //

dimensions      [1 -3 0 0 0 0 0];


internalField   nonuniform List<scalar> 
1200
(
1.1236425
1.0923914
1.0652307
1.0412826
1.0198188
1.0003294
0.98245155
0.96594482
0.95079134
0.93710571
0.92477815
0.91375257
0.90405948
0.89707325
0.89139972
0.88718157
0.88453669
0.88347389
0.88383065
0.88527651
0.8873988
0.88979997
0.89214955
0.89417692
0.89565408
0.89634696
0.89592363
0.89379726
0.8891605
0.88169745
1.1578366
1.1563385
1.1542638
1.1517012
1.1487212
1.1453796
1.1417219
1.1377812
1.133249
1.1274584
1.1201596
1.1106689
1.0986282
1.0840573
1.067055
1.0485369
1.0300328
1.0131148
0.99887727
0.9877724
0.97974005
0.97440443
0.97114933
0.96921739
0.96783896
0.96621761
0.9633468
0.95764017
0.94614322
0.92497657
1.1586021
1.1585522
1.1584592
1.1583138
1.1581079
1.1578346
1.1574876
1.1570614
1.1565421
1.1558993
1.1550949
1.1540487
1.1519022
1.147384
1.1389059
1.1252217
1.1064105
1.0843161
1.0616034
1.0405663
1.0225747
1.0081288
0.99709784
0.98894579
0.98294449
0.97829356
0.9740818
0.96905097
0.9609077
0.94580901
1.1586181
1.1586165
1.1586125
1.1586049
1.1585916
1.1585707
1.1585396
1.1584953
1.1584342
1.1583511
1.1582391
1.1580855
1.1578394
1.1573582
1.1559034
1.1510954
1.1393988
1.120081
1.0968476
1.073714
1.0528423
1.0350479
1.020452
1.0088044
0.99962709
0.99231825
0.98618661
0.98030862
0.9730089
0.96132268
1.1236157
1.0926847
1.0661094
1.0429606
1.0224995
1.004246
0.98787515
0.97316891
0.960007
0.94835234
0.93823721
0.92976392
0.92309562
0.92006739
0.91895633
0.91968731
0.92197732
0.9252933
0.92895416
0.9323648
0.93520649
0.93741509
0.93901615
0.9399671
0.94015384
0.93932376
0.93688648
0.93151365
0.92208257
0.91139376
1.1578368
1.1563662
1.1543688
1.1519491
1.1491912
1.1461655
1.1429338
1.1395552
1.1360861
1.132584
1.1291325
1.1258516
1.1228433
1.1202431
1.1181308
1.1165137
1.1152822
1.1141572
1.112759
1.1108421
1.1084196
1.1056622
1.1026879
1.0994715
1.0960113
1.0923111
1.0883478
1.0840596
1.075736
1.0490123
1.1586021
1.1585536
1.1584653
1.1583308
1.1581452
1.1579052
1.1576088
1.1572551
1.1568446
1.1563784
1.1558591
1.1552905
1.1546513
1.1538795
1.1528591
1.1514205
1.1492887
1.1459036
1.1405393
1.1331002
1.1243496
1.1153832
1.1063688
1.0959382
1.0839475
1.0712071
1.0576698
1.0429987
1.0270926
1.0087305
1.1586181
1.1586165
1.1586129
1.1586059
1.1585943
1.1585766
1.1585511
1.158516
1.1584694
1.1584091
1.1583325
1.1582364
1.1581123
1.1579345
1.157586
1.1565604
1.1533271
1.1451869
1.1302279
1.1098024
1.0876069
1.0667336
1.048839
1.0349309
1.0238093
1.0145486
1.0063121
0.99833998
0.98970725
0.97918242
1.1236063
1.0925962
1.0659363
1.042705
1.0221527
1.0037855
0.98726324
0.97234918
0.95888132
0.9467505
0.93590043
0.92632276
0.91808225
0.9136369
0.91068104
0.90943784
0.91018276
0.9131643
0.91843314
0.92553441
0.93341936
0.94084005
0.94688623
0.95118377
0.95368809
0.95432955
0.95264052
0.94691307
0.93302214
0.91394656
1.1578365
1.1563601
1.1543532
1.1519232
1.1491556
1.1461208
1.1428787
1.1394836
1.1359883
1.1324469
1.1289195
1.1254768
1.1222081
1.1192928
1.1168575
1.115038
1.1139512
1.11363
1.1139136
1.1143364
1.1142751
1.1133227
1.1114406
1.1087721
1.1054134
1.1012701
1.0962174
1.0899499
1.079702
1.0475813
1.1586021
1.1585533
1.1584646
1.1583295
1.1581436
1.157904
1.1576092
1.1572587
1.1568537
1.1563966
1.1558917
1.1553457
1.1547689
1.1541769
1.1535898
1.1530324
1.1525143
1.1519274
1.1508494
1.1484533
1.1440595
1.1378522
1.1306116
1.1229015
1.1146616
1.1049293
1.0933034
1.0794392
1.0630808
1.0435456
1.1586181
1.1586165
1.1586128
1.1586059
1.1585943
1.1585767
1.1585516
1.1585174
1.1584724
1.1584151
1.158344
1.1582575
1.1581541
1.1580309
1.157878
1.1576459
1.157111
1.1554883
1.1508859
1.1406852
1.1238163
1.1025355
1.0808189
1.0617189
1.0458148
1.0326303
1.0213713
1.0111777
1.0010623
0.9900238
1.1236049
1.0925732
1.0658677
1.0425679
1.0219199
1.0034149
0.98668775
0.971464
0.95752738
0.94470168
0.93283984
0.92180835
0.91156958
0.90533155
0.89947698
0.89391526
0.88861014
0.88365179
0.87945511
0.87660267
0.87563764
0.8767429
0.87956583
0.88341009
0.88717369
0.8898598
0.89013805
0.88514249
0.8749595
0.86253836
1.1578364
1.1563582
1.1543459
1.1519054
1.1491208
1.1460594
1.1427761
1.1393162
1.1357186
1.1320167
1.1282405
1.1244177
1.1205768
1.1168582
1.11331
1.1099861
1.1069666
1.1043675
1.1023412
1.1010194
1.1003531
1.099955
1.0993224
1.0980674
1.096006
1.0929893
1.0888377
1.0822457
1.0578774
0.99835499
1.1586021
1.1585532
1.1584642
1.1583284
1.1581413
1.1578995
1.1576013
1.1572455
1.1568322
1.1563617
1.1558356
1.155256
1.1546264
1.1539546
1.1532528
1.1525371
1.1518306
1.1511629
1.1505475
1.1498728
1.1486174
1.1457142
1.1402892
1.1323796
1.1223903
1.1107464
1.0980202
1.0848532
1.0710091
1.0493011
1.1586181
1.1586165
1.1586128
1.1586058
1.1585941
1.1585764
1.158551
1.1585164
1.1584708
1.1584125
1.15834
1.1582516
1.1581455
1.1580204
1.1578745
1.157705
1.1575013
1.1572129
1.1565994
1.1547413
1.149316
1.137356
1.1184064
1.0961227
1.074616
1.0558675
1.0400725
1.0265354
1.0141281
1.0017765
1.1236098
1.092575
1.0658577
1.0425401
1.0218686
1.0033322
0.98656308
0.97128179
0.95726775
0.94433712
0.9323344
0.92113637
0.91087913
0.90611581
0.90153894
0.89690846
0.89188061
0.88594137
0.87959044
0.87314949
0.8668386
0.86080412
0.8551511
0.85128172
0.84928177
0.84801277
0.84540635
0.84044406
0.83487608
0.8272685
1.1578364
1.1563577
1.1543434
1.1518988
1.1491077
1.1460367
1.1427392
1.1392587
1.135631
1.1318853
1.1280461
1.1241213
1.1196198
1.1151953
1.1108228
1.1064783
1.1021442
1.0977096
1.0931526
1.0886052
1.0845178
1.0819115
1.0824522
1.0840478
1.0852463
1.0847185
1.0816838
1.0686771
1.0247779
0.94966672
1.1586021
1.1585532
1.1584641
1.1583279
1.1581402
1.1578975
1.1575976
1.1572395
1.1568225
1.1563468
1.1558126
1.1552204
1.1545599
1.1538368
1.153057
1.1522265
1.1513535
1.150449
1.1495326
1.148641
1.1478221
1.1470009
1.1454157
1.1408674
1.131112
1.1165199
1.0994956
1.0825164
1.0650917
1.0218637
1.1586181
1.1586165
1.1586128
1.1586058
1.1585941
1.1585762
1.1585507
1.1585158
1.1584698
1.158411
1.1583375
1.1582477
1.1581392
1.15801
1.157858
1.1576806
1.1574751
1.1572368
1.1569539
1.1565838
1.1559113
1.1537936
1.1469914
1.1312395
1.1067081
1.0805554
1.0589399
1.0421917
1.0284428
1.0167094
1.1236099
1.092575
1.0658578
1.0425402
1.0218687
1.0033323
0.98656326
0.97128202
0.95726803
0.94433746
0.93233481
0.92113681
0.91087948
0.90611608
0.90153916
0.89690863
0.89188073
0.88594141
0.87959049
0.87314957
0.86683873
0.86080431
0.85515172
0.85129269
0.84930663
0.8480533
0.84546164
0.8404945
0.83492306
0.82731413
1.1578364
1.1563577
1.1543434
1.1518988
1.1491077
1.1460367
1.1427392
1.1392587
1.135631
1.1318854
1.1280462
1.1241214
1.1196202
1.115196
1.110824
1.1064802
1.1021469
1.0977136
1.0931585
1.0886138
1.0845306
1.0819318
1.0824831
1.0840775
1.0852749
1.0847455
1.0817099
1.0687527
1.0248934
0.94979865
1.1586021
1.1585532
1.1584641
1.1583279
1.1581402
1.1578975
1.1575976
1.1572395
1.1568225
1.1563468
1.1558126
1.1552204
1.1545599
1.1538368
1.153057
1.1522266
1.1513537
1.1504493
1.149533
1.1486416
1.147823
1.1470022
1.1454178
1.1408699
1.1311142
1.1165205
1.0994942
1.082514
1.0651121
1.0219875
1.1586181
1.1586165
1.1586128
1.1586058
1.1585941
1.1585762
1.1585507
1.1585158
1.1584698
1.158411
1.1583375
1.1582477
1.1581392
1.1580101
1.157858
1.1576806
1.1574751
1.1572369
1.1569539
1.1565838
1.1559115
1.1537941
1.1469931
1.1312435
1.1067145
1.0805627
1.0589473
1.0421991
1.0284493
1.0167047
1.1236049
1.0925733
1.0658677
1.042568
1.0219201
1.003415
0.98668795
0.97146423
0.95752766
0.94470202
0.93284025
0.92180884
0.91157012
0.90533207
0.89947752
0.89391587
0.88861086
0.88365266
0.87945616
0.87660396
0.87563928
0.87674529
0.87956993
0.88341716
0.88718464
0.88987543
0.89015893
0.88517002
0.87498632
0.86256718
1.1578364
1.1563582
1.1543459
1.1519054
1.1491208
1.1460595
1.1427761
1.1393162
1.1357186
1.1320167
1.1282406
1.1244178
1.1205769
1.1168584
1.1133102
1.1099864
1.106967
1.1043679
1.1023417
1.1010202
1.1003543
1.0999573
1.0993269
1.098074
1.0960147
1.0929995
1.0888489
1.0822646
1.0579271
0.99843036
1.1586021
1.1585532
1.1584642
1.1583284
1.1581413
1.1578995
1.1576013
1.1572456
1.1568322
1.1563617
1.1558356
1.1552561
1.1546264
1.1539546
1.1532528
1.1525371
1.1518307
1.151163
1.1505475
1.1498729
1.1486176
1.1457147
1.14029
1.1323805
1.1223907
1.1107455
1.0980171
1.0848473
1.0710009
1.0493221
1.1586181
1.1586165
1.1586128
1.1586058
1.1585941
1.1585764
1.158551
1.1585164
1.1584708
1.1584125
1.15834
1.1582516
1.1581455
1.1580204
1.1578745
1.157705
1.1575013
1.1572129
1.1565995
1.1547414
1.1493165
1.1373569
1.118408
1.0961246
1.0746179
1.0558689
1.040073
1.0265348
1.0141259
1.0017718
1.1236063
1.0925962
1.0659364
1.0427051
1.0221528
1.0037855
0.98726327
0.97234921
0.95888135
0.94675053
0.93590047
0.92632278
0.91808223
0.9136368
0.91068083
0.90943742
0.91018206
0.91316324
0.91843158
0.92553221
0.93341634
0.94083607
0.94688121
0.95117773
0.95368111
0.95432174
0.95263198
0.94690438
0.93301587
0.91394607
1.1578365
1.1563601
1.1543532
1.1519232
1.1491556
1.1461208
1.1428787
1.1394837
1.1359883
1.1324469
1.1289195
1.1254768
1.1222081
1.1192927
1.1168574
1.1150379
1.1139511
1.1136298
1.1139133
1.1143361
1.1142748
1.1133226
1.111441
1.1087732
1.1054152
1.1012727
1.0962205
1.0899547
1.0797142
1.0476066
1.1586021
1.1585533
1.1584646
1.1583295
1.1581436
1.157904
1.1576092
1.1572587
1.1568537
1.1563966
1.1558917
1.1553457
1.1547689
1.1541769
1.1535898
1.1530324
1.1525143
1.1519274
1.1508495
1.1484535
1.1440598
1.1378526
1.1306122
1.1229021
1.1146617
1.1049285
1.0933007
1.079434
1.0630731
1.0435351
1.1586181
1.1586165
1.1586128
1.1586059
1.1585943
1.1585767
1.1585516
1.1585174
1.1584724
1.1584151
1.158344
1.1582575
1.1581541
1.1580309
1.157878
1.1576459
1.157111
1.1554884
1.1508861
1.1406857
1.1238171
1.1025367
1.0808201
1.0617199
1.0458156
1.0326305
1.0213707
1.011176
1.001059
0.99001802
1.1236157
1.0926847
1.0661094
1.0429606
1.0224996
1.004246
0.98787515
0.97316891
0.960007
0.94835234
0.93823722
0.92976392
0.92309559
0.92006732
0.91895617
0.91968698
0.92197681
0.92529261
0.92895328
0.93236369
0.93520509
0.93741329
0.93901385
0.93996421
0.94015024
0.93931932
0.93688097
0.93150702
0.92207659
0.9113889
1.1578369
1.1563662
1.1543688
1.1519491
1.1491912
1.1461655
1.1429338
1.1395552
1.1360861
1.132584
1.1291325
1.1258516
1.1228433
1.1202431
1.1181307
1.1165136
1.1152822
1.1141571
1.1127588
1.110842
1.1084195
1.1056622
1.102688
1.0994717
1.0960118
1.0923118
1.0883488
1.0840609
1.0757354
1.0490076
1.1586021
1.1585536
1.1584653
1.1583308
1.1581452
1.1579052
1.1576088
1.1572551
1.1568446
1.1563784
1.1558591
1.1552905
1.1546513
1.1538795
1.1528591
1.1514205
1.1492887
1.1459037
1.1405395
1.1331005
1.1243501
1.1153837
1.1063695
1.0959389
1.0839481
1.0712072
1.057669
1.0429965
1.0270885
1.0087241
1.1586181
1.1586165
1.1586129
1.1586059
1.1585943
1.1585766
1.1585511
1.158516
1.1584694
1.1584091
1.1583325
1.1582364
1.1581123
1.1579345
1.157586
1.1565604
1.1533272
1.1451871
1.1302283
1.1098031
1.0876077
1.0667344
1.0488397
1.0349314
1.0238094
1.0145483
1.0063112
0.9983382
0.98970418
0.97917752
1.1236425
1.0923914
1.0652308
1.0412827
1.0198188
1.0003295
0.98245159
0.96594487
0.95079141
0.9371058
0.92477826
0.91375271
0.90405964
0.89707342
0.89139985
0.88718159
0.88453658
0.88347365
0.8838303
0.88527602
0.88739815
0.88979915
0.8921485
0.8941756
0.89565243
0.89634489
0.89592102
0.89379402
0.88915683
0.88169352
1.1578366
1.1563385
1.1542638
1.1517012
1.1487212
1.1453796
1.1417219
1.1377812
1.133249
1.1274584
1.1201596
1.1106689
1.0986283
1.0840574
1.0670552
1.0485371
1.030033
1.013115
0.99887745
0.98777254
0.97974014
0.97440449
0.97114935
0.96921736
0.96783874
0.96621696
0.96334524
0.95763685
0.94613699
0.92497021
1.1586021
1.1585522
1.1584592
1.1583138
1.1581079
1.1578346
1.1574876
1.1570614
1.1565421
1.1558993
1.1550949
1.1540487
1.1519022
1.147384
1.138906
1.1252218
1.1064107
1.0843164
1.0616037
1.0405666
1.022575
1.0081291
0.99709805
0.98894595
0.98294454
0.9782934
0.97408115
0.96904932
0.96090411
0.94580358
1.1586181
1.1586165
1.1586125
1.1586049
1.1585916
1.1585707
1.1585396
1.1584953
1.1584342
1.1583511
1.1582391
1.1580855
1.1578394
1.1573582
1.1559035
1.1510955
1.139399
1.1200813
1.096848
1.0737145
1.0528428
1.0350484
1.0204524
1.0088048
0.99962739
0.9923184
0.98618646
0.98030783
0.97300672
0.96131831
)
;

boundaryField
{
    maxY
    {
        type            calculated;
        value           nonuniform List<scalar> 
300
(
1.1586176
1.1586176
1.1586176
1.1586176
1.1586176
1.1586176
1.1586176
1.1586176
1.1586176
1.1586176
1.1586159
1.158616
1.158616
1.158616
1.158616
1.158616
1.158616
1.158616
1.158616
1.1586159
1.158612
1.1586123
1.1586123
1.1586123
1.1586123
1.1586123
1.1586123
1.1586123
1.1586123
1.158612
1.1586043
1.1586054
1.1586053
1.1586053
1.1586052
1.1586052
1.1586053
1.1586053
1.1586054
1.1586043
1.1585911
1.1585938
1.1585938
1.1585936
1.1585935
1.1585935
1.1585936
1.1585938
1.1585938
1.1585911
1.1585702
1.1585761
1.1585762
1.1585759
1.1585757
1.1585757
1.1585759
1.1585762
1.1585761
1.1585702
1.1585391
1.1585506
1.1585511
1.1585505
1.1585502
1.1585502
1.1585505
1.1585511
1.1585506
1.1585391
1.1584948
1.1585155
1.1585168
1.1585158
1.1585152
1.1585152
1.1585158
1.1585168
1.1585155
1.1584948
1.1584336
1.1584689
1.1584719
1.1584702
1.1584692
1.1584692
1.1584702
1.1584719
1.1584689
1.1584336
1.1583506
1.1584085
1.1584146
1.158412
1.1584104
1.1584104
1.158412
1.1584146
1.1584085
1.1583506
1.1582386
1.158332
1.1583435
1.1583395
1.158337
1.158337
1.1583395
1.1583435
1.158332
1.1582386
1.158085
1.1582358
1.158257
1.158251
1.1582472
1.1582472
1.158251
1.158257
1.1582358
1.158085
1.1578389
1.1581117
1.1581535
1.158145
1.1581387
1.1581387
1.158145
1.1581535
1.1581117
1.1578389
1.1573577
1.157934
1.1580304
1.1580199
1.1580095
1.1580095
1.1580199
1.1580304
1.157934
1.1573577
1.1559029
1.1575855
1.1578775
1.157874
1.1578574
1.1578574
1.157874
1.1578775
1.1575855
1.1559029
1.1510949
1.1565599
1.1576454
1.1577045
1.1576801
1.1576801
1.1577045
1.1576454
1.1565599
1.151095
1.1393983
1.1533266
1.1571105
1.1575008
1.1574746
1.1574746
1.1575008
1.1571105
1.1533267
1.1393985
1.1200805
1.1451864
1.1554878
1.1572123
1.1572363
1.1572363
1.1572124
1.1554879
1.1451866
1.1200808
1.0968471
1.1302274
1.1508854
1.1565989
1.1569534
1.1569534
1.156599
1.1508856
1.1302278
1.0968475
1.0737136
1.109802
1.1406847
1.1547407
1.1565832
1.1565833
1.1547409
1.1406852
1.1098026
1.0737141
1.0528419
1.0876065
1.1238158
1.1493155
1.1559108
1.155911
1.149316
1.1238166
1.0876072
1.0528424
1.0350475
1.0667332
1.102535
1.1373555
1.153793
1.1537936
1.1373564
1.1025362
1.066734
1.035048
1.0204516
1.0488386
1.0808184
1.1184059
1.1469908
1.1469926
1.1184075
1.0808197
1.0488392
1.020452
1.008804
1.0349305
1.0617184
1.0961222
1.131239
1.131243
1.0961242
1.0617195
1.034931
1.0088044
0.9996267
1.0238089
1.0458144
1.0746155
1.1067077
1.106714
1.0746174
1.0458151
1.023809
0.999627
0.99231786
1.0145482
1.0326299
1.0558671
1.0805549
1.0805623
1.0558685
1.0326301
1.0145479
0.99231801
0.98618623
1.0063117
1.0213709
1.040072
1.0589394
1.0589468
1.0400726
1.0213703
1.0063108
0.98618607
0.98030824
0.99833959
1.0111773
1.026535
1.0421913
1.0421987
1.0265344
1.0111756
0.99833781
0.98030745
0.97300853
0.98970687
1.0010619
1.0141277
1.0284424
1.0284489
1.0141254
1.0010586
0.9897038
0.97300635
0.96132231
0.97918204
0.99002342
1.0017761
1.016709
1.0167042
1.0017714
0.99001764
0.97917714
0.96131795
)
;
    }
    minX
    {
        type            calculated;
        value           nonuniform List<scalar> 
40
(
1.1586217
1.1586206
1.1586196
1.1586185
1.1586217
1.1586206
1.1586196
1.1586185
1.1586217
1.1586206
1.1586196
1.1586185
1.1586217
1.1586206
1.1586196
1.1586185
1.1586217
1.1586206
1.1586196
1.1586185
1.1586217
1.1586206
1.1586196
1.1586185
1.1586217
1.1586206
1.1586196
1.1586185
1.1586217
1.1586206
1.1586196
1.1586185
1.1586217
1.1586206
1.1586196
1.1586185
1.1586217
1.1586206
1.1586196
1.1586185
)
;
    }
    maxX
    {
        type            calculated;
        value           nonuniform List<scalar> 
40
(
0.88173285
0.92500694
0.94583698
0.96134907
0.91142784
1.0490322
1.0087543
0.97920753
0.91398147
1.0476027
1.0435684
0.99004872
0.86257455
0.99838026
1.049328
1.0018022
0.82730085
0.94968985
1.0218956
1.0167383
0.82734633
0.94982135
1.022019
1.0167336
0.86260329
0.99845539
1.0493489
1.0017975
0.91398098
1.0476279
1.043558
0.99004295
0.91142299
1.0490275
1.0087479
0.97920264
0.88172894
0.92500059
0.94583156
0.96134471
)
;
    }
    minZ
    {
        type            calculated;
        value           nonuniform List<scalar> 
120
(
1.1236425
1.1578366
1.1586021
1.1586181
1.0923914
1.1563385
1.1585522
1.1586165
1.0652307
1.1542638
1.1584592
1.1586125
1.0412826
1.1517012
1.1583138
1.1586049
1.0198188
1.1487212
1.1581079
1.1585916
1.0003294
1.1453796
1.1578346
1.1585707
0.98245155
1.1417219
1.1574876
1.1585396
0.96594482
1.1377812
1.1570614
1.1584953
0.95079134
1.133249
1.1565421
1.1584342
0.93710571
1.1274584
1.1558993
1.1583511
0.92477815
1.1201596
1.1550949
1.1582391
0.91375257
1.1106689
1.1540487
1.1580855
0.90405948
1.0986282
1.1519022
1.1578394
0.89707325
1.0840573
1.147384
1.1573582
0.89139972
1.067055
1.1389059
1.1559034
0.88718157
1.0485369
1.1252217
1.1510954
0.88453669
1.0300328
1.1064105
1.1393988
0.88347389
1.0131148
1.0843161
1.120081
0.88383065
0.99887727
1.0616034
1.0968476
0.88527651
0.9877724
1.0405663
1.073714
0.8873988
0.97974005
1.0225747
1.0528423
0.88979997
0.97440443
1.0081288
1.0350479
0.89214955
0.97114933
0.99709784
1.020452
0.89417692
0.96921739
0.98894579
1.0088044
0.89565408
0.96783896
0.98294449
0.99962709
0.89634696
0.96621761
0.97829356
0.99231825
0.89592363
0.9633468
0.9740818
0.98618661
0.89379726
0.95764017
0.96905097
0.98030862
0.8891605
0.94614322
0.9609077
0.9730089
0.88169745
0.92497657
0.94580901
0.96132268
)
;
    }
    maxZ
    {
        type            calculated;
        value           nonuniform List<scalar> 
120
(
1.1236425
1.1578366
1.1586021
1.1586181
1.0923914
1.1563385
1.1585522
1.1586165
1.0652308
1.1542638
1.1584592
1.1586125
1.0412827
1.1517012
1.1583138
1.1586049
1.0198188
1.1487212
1.1581079
1.1585916
1.0003295
1.1453796
1.1578346
1.1585707
0.98245159
1.1417219
1.1574876
1.1585396
0.96594487
1.1377812
1.1570614
1.1584953
0.95079141
1.133249
1.1565421
1.1584342
0.9371058
1.1274584
1.1558993
1.1583511
0.92477826
1.1201596
1.1550949
1.1582391
0.91375271
1.1106689
1.1540487
1.1580855
0.90405964
1.0986283
1.1519022
1.1578394
0.89707342
1.0840574
1.147384
1.1573582
0.89139985
1.0670552
1.138906
1.1559035
0.88718159
1.0485371
1.1252218
1.1510955
0.88453658
1.030033
1.1064107
1.139399
0.88347365
1.013115
1.0843164
1.1200813
0.8838303
0.99887745
1.0616037
1.096848
0.88527602
0.98777254
1.0405666
1.0737145
0.88739815
0.97974014
1.022575
1.0528428
0.88979915
0.97440449
1.0081291
1.0350484
0.8921485
0.97114935
0.99709805
1.0204524
0.8941756
0.96921736
0.98894595
1.0088048
0.89565243
0.96783874
0.98294454
0.99962739
0.89634489
0.96621696
0.9782934
0.9923184
0.89592102
0.96334524
0.97408115
0.98618646
0.89379402
0.95763685
0.96904932
0.98030783
0.88915683
0.94613699
0.96090411
0.97300672
0.88169352
0.92497021
0.94580358
0.96131831
)
;
    }
    topAir_to_rightSolid
    {
        type            calculated;
        value           nonuniform List<scalar> 
130
(
0.67512804
0.67290641
0.67074739
0.66877608
0.66703404
0.6655374
0.66426911
0.66327182
0.66255234
0.66205831
0.66174511
0.6615614
0.66149543
0.67769887
0.67480833
0.6720755
0.66965966
0.66760128
0.6658838
0.66445732
0.66334612
0.66254741
0.66199719
0.66162735
0.66138008
0.66124719
0.6831098
0.67863709
0.6746631
0.67134336
0.66867221
0.6665364
0.6648321
0.66354235
0.6626109
0.66197605
0.66155507
0.66130089
0.661194
0.691788
0.68417944
0.67811713
0.67347458
0.66997069
0.66730273
0.66528325
0.66379359
0.66273254
0.6620204
0.66156034
0.66129525
0.66118335
0.70269725
0.68973723
0.68112899
0.67518123
0.67095141
0.66785937
0.66560529
0.6639762
0.66283907
0.66208332
0.6616045
0.66132993
0.66121218
0.70269571
0.68973686
0.68112917
0.67518145
0.67095149
0.66785924
0.6656051
0.66397597
0.66283875
0.66208299
0.66160417
0.66132965
0.66121194
0.69178748
0.68417922
0.67811711
0.67347468
0.66997073
0.66730262
0.66528311
0.66379341
0.66273209
0.66201989
0.66155988
0.6612949
0.66118307
0.68310903
0.67863651
0.67466273
0.67134322
0.66867219
0.66653644
0.66483209
0.66354229
0.66261071
0.66197587
0.66155495
0.66130076
0.66119384
0.67769801
0.67480766
0.67207501
0.66965935
0.66760108
0.66588373
0.66445731
0.66334608
0.66254729
0.66199704
0.66162719
0.66137989
0.66124694
0.67512712
0.67290578
0.67074688
0.66877564
0.66703374
0.66553728
0.66426906
0.66327175
0.66255221
0.66205815
0.66174492
0.66156112
0.66149494
)
;
    }
    topAir_to_heater
    {
        type            calculated;
        value           nonuniform List<scalar> 
40
(
0.68078786
0.68018745
0.67897397
0.67723717
0.68514652
0.68436808
0.68277819
0.6804799
0.69482197
0.69367366
0.69123793
0.68758364
0.71197621
0.71039369
0.70659437
0.70024756
0.73980008
0.73888156
0.7339893
0.72309697
0.73979926
0.73888086
0.73398863
0.72309594
0.71197497
0.71039244
0.70659358
0.70024686
0.69482151
0.69367313
0.69123672
0.68758263
0.68514671
0.68436794
0.6827771
0.68047876
0.68078838
0.68018753
0.67897301
0.67723599
)
;
    }
    topAir_to_leftSolid
    {
        type            calculated;
        value           nonuniform List<scalar> 
130
(
0.66104057
0.66097716
0.66090687
0.66083303
0.66079056
0.66080124
0.66088998
0.66102225
0.66113417
0.661234
0.66132063
0.66140384
0.66145875
0.66076259
0.66075924
0.66073867
0.66069882
0.6606767
0.66071019
0.66082517
0.66098186
0.66111488
0.66124133
0.66136895
0.66149741
0.66158694
0.66068498
0.66064415
0.66060866
0.66058329
0.66058567
0.66065513
0.660795
0.66098787
0.66116448
0.66133436
0.66152595
0.66171694
0.66186556
0.66067952
0.66063548
0.66059031
0.66056608
0.66058206
0.66067555
0.66084168
0.66106458
0.66130493
0.66154066
0.66180607
0.66208755
0.66233482
0.66071938
0.66067663
0.66062883
0.66059879
0.66061516
0.66071196
0.66089467
0.66114228
0.66143951
0.6617404
0.66206843
0.66242438
0.66277757
0.66071959
0.66067687
0.66062909
0.66059904
0.66061541
0.6607122
0.66089492
0.66114253
0.66143978
0.66174061
0.66206857
0.66242438
0.66277691
0.66067972
0.66063574
0.66059064
0.66056644
0.66058241
0.66067577
0.66084191
0.66106484
0.66130521
0.66154093
0.6618064
0.66208777
0.66233443
0.66068504
0.66064421
0.66060873
0.66058343
0.66058584
0.66065522
0.66079507
0.66098798
0.6611647
0.66133465
0.66152637
0.66171728
0.66186567
0.66076266
0.66075927
0.66073871
0.6606989
0.66067679
0.66071022
0.6608252
0.66098197
0.66111515
0.66124166
0.66136939
0.6614978
0.66158722
0.6610408
0.66097723
0.66090689
0.66083308
0.66079062
0.66080126
0.66089
0.66102235
0.66113441
0.66123432
0.66132103
0.66140429
0.66145917
)
;
    }
}


// ************************************************************************* //
