/*--------------------------------*- C++ -*----------------------------------*\
| =========                 |                                                 |
| \\      /  F ield         | OpenFOAM: The Open Source CFD Toolbox           |
|  \\    /   O peration     | Version:  v2012                                 |
|   \\  /    A nd           | Website:  www.openfoam.com                      |
|    \\/     M anipulation  |                                                 |
\*---------------------------------------------------------------------------*/
FoamFile
{
    version     2.0;
    format      ascii;
    class       volScalarField;
    location    "760/heater";
    object      T;
}
// * * * * * * * * * * * * * * * * * * * * * * * * * * * * * * * * * * * * * //

dimensions      [0 0 0 1 0 0 0];


internalField   nonuniform List<scalar> 
80
(
729.93619
732.00406
736.04927
741.81189
720.51544
722.92253
727.70111
734.57112
700.74935
703.887
710.22779
719.57843
668.82525
672.774
681.27179
694.98184
345.32366
342.49688
342.44447
345.02471
421.45833
417.96205
418.01908
421.38983
486.50778
483.54112
484.07334
487.5953
541.79496
539.96679
541.71321
545.98832
587.52041
587.67763
592.16033
599.51511
622.42701
625.99599
635.35068
654.26105
345.29686
342.49484
342.44813
345.03217
421.44837
417.98517
418.0474
421.39671
486.52664
483.59506
484.12342
487.59431
541.86459
540.06207
541.80289
546.0433
587.62928
587.79945
592.27398
599.61683
622.57002
626.1318
635.4668
654.35233
669.32684
673.23744
681.65067
695.22681
701.19681
704.31563
710.58
719.81251
720.78802
723.19318
727.91599
734.71666
730.12854
732.1668
736.17225
741.90674
)
;

boundaryField
{
    minY
    {
        type            fixedValue;
        value           uniform 300;
    }
    minZ
    {
        type            zeroGradient;
    }
    maxZ
    {
        type            zeroGradient;
    }
    heater_to_topAir
    {
        type            compressible::turbulentTemperatureCoupledBaffleMixed;
        refValue        nonuniform List<scalar> 
40
(
520.4136
516.99154
511.13443
503.66917
483.13556
470.851
457.99574
446.8228
493.88383
482.37664
470.23683
458.89678
508.5798
504.61616
503.07384
503.336
506.12381
503.71206
504.46218
506.42334
506.03652
503.57412
504.27631
506.34232
508.45574
504.68919
503.35443
503.85436
493.52293
482.30973
470.5434
459.5528
482.82356
470.57416
457.67273
446.3602
520.03391
516.71516
510.95721
503.55807
)
;
        refGradient     uniform 0;
        valueFraction   nonuniform List<scalar> 
40
(
0.00032132529
0.00032132529
0.00032132529
0.00032132529
0.00032132529
0.00032132529
0.00032132529
0.00032132529
0.00032132529
0.00032132529
0.00032132529
0.00032132529
0.00032132529
0.00032132529
0.00032132529
0.00032132529
0.00032132529
0.00032132529
0.00032132529
0.00032132529
0.00032132529
0.00032132529
0.00032132529
0.00032132529
0.00032132529
0.00032132529
0.00032132529
0.00032132529
0.00032132529
0.00032132529
0.00032132529
0.00032132529
0.00032132529
0.00032132529
0.00032132529
0.00032132529
0.00032132529
0.00032132529
0.00032132529
0.00032132529
)
;
        value           nonuniform List<scalar> 
40
(
729.86925
731.93543
735.97751
741.73596
720.43947
722.84195
727.61492
734.47921
700.68319
703.8162
710.1511
719.49517
668.77403
672.72027
681.21488
694.9207
622.38981
625.95688
635.30886
654.21387
622.53274
626.09259
635.42484
654.30501
669.27541
673.18354
681.59363
695.16558
701.13039
704.24461
710.5032
719.72924
720.71191
723.11238
727.82952
734.62441
730.06141
732.09795
736.10025
741.83055
)
;
        Tnbr            T;
        thicknessLayers List<scalar> 0();
        kappaLayers     List<scalar> 0();
        kappaMethod     solidThermo;
        kappa           none;
        alphaAni        none;
        alpha           none;
        field           T;
    }
    heater_to_rightSolid
    {
        type            compressible::turbulentTemperatureCoupledBaffleMixed;
        refValue        nonuniform List<scalar> 10(748.87508 742.96684 731.18881 713.65983 693.06787 693.15341 713.80925 731.32508 743.06873 748.94702);
        refGradient     uniform 0;
        valueFraction   nonuniform List<scalar> 10(0.49999997 0.49999997 0.49999997 0.49999997 0.49999997 0.49999997 0.49999997 0.49999997 0.49999997 0.49999997);
        value           nonuniform List<scalar> 10(745.34378 738.76926 725.38387 704.32106 673.66462 673.75299 704.51816 725.56897 738.8929 745.42708);
        Tnbr            T;
        thicknessLayers List<scalar> 0();
        kappaLayers     List<scalar> 0();
        kappaMethod     solidThermo;
        kappa           none;
        alphaAni        none;
        alpha           none;
        field           T;
    }
    heater_to_leftSolid
    {
        type            compressible::turbulentTemperatureCoupledBaffleMixed;
        refValue        nonuniform List<scalar> 10(927.23181 927.02566 926.64431 926.20091 925.94057 925.72776 925.6639 925.60614 925.65232 925.72231);
        refGradient     uniform 0;
        valueFraction   nonuniform List<scalar> 10(2.0832898e-05 2.0832898e-05 2.0832898e-05 2.0832898e-05 2.0832898e-05 2.0832898e-05 2.0832898e-05 2.0832898e-05 2.0832898e-05 2.0832898e-05);
        value           nonuniform List<scalar> 10(729.94068 720.52005 700.75436 668.83088 622.4335 622.57651 669.33244 701.20179 720.79264 730.133);
        Tnbr            T;
        thicknessLayers List<scalar> 1(0.001);
        kappaLayers     List<scalar> 1(0.0005);
        kappaMethod     solidThermo;
        kappa           none;
        alphaAni        none;
        alpha           none;
        field           T;
    }
    heater_to_bottomWater
    {
        type            compressible::turbulentTemperatureCoupledBaffleMixed;
        refValue        nonuniform List<scalar> 
92
(
935.71733
932.01163
929.33915
927.36964
935.33902
924.34096
920.69277
923.01453
921.39174
915.51444
915.14081
916.06246
926.29092
919.13144
917.15131
915.51749
924.21912
915.31335
911.67231
909.47883
919.85373
911.69777
909.99413
908.19445
909.2151
906.07781
905.53877
905.90521
908.85304
908.85304
906.90845
906.90845
907.00011
907.00011
907.61895
907.61895
947.22547
895.43913
944.63044
898.67024
943.92869
896.57578
940.29952
893.77381
929.76185
891.39876
944.1422
919.16429
919.43029
916.88644
901.02157
907.22918
943.34144
921.65639
923.5279
920.90567
897.09067
912.59215
940.83148
925.28115
925.10212
922.94039
888.71041
912.78157
936.92715
928.45591
926.3403
924.72642
892.72021
914.81307
926.62757
930.69122
927.9098
925.78057
897.91599
913.65373
930.69122
927.9098
925.78057
913.65373
928.80339
927.51255
925.5295
919.62725
931.21243
928.41092
921.76459
921.19917
935.43371
929.61799
926.52071
927.59108
)
;
        refGradient     uniform 0;
        valueFraction   nonuniform List<scalar> 
92
(
0.0075140686
0.0075140686
0.0075140686
0.0075140686
0.0075140686
0.0075140686
0.0075140686
0.0075140686
0.0075140686
0.0075140686
0.0075140686
0.0075140686
0.0075140686
0.0075140686
0.0075140686
0.0075140686
0.0075140686
0.0075140686
0.0075140686
0.0075140686
0.0075140686
0.0075140686
0.0075140686
0.0075140686
0.0075140686
0.0075140686
0.0075140686
0.0075140686
0.0075140686
0.0075140686
0.0075140686
0.0075140686
0.0075140686
0.0075140686
0.0075140686
0.0075140686
0.0075140679
0.0075140679
0.0075140679
0.0075140679
0.0075140679
0.0075140679
0.0075140679
0.0075140679
0.0075140679
0.0075140679
0.0075140679
0.0075140686
0.0075140686
0.0075140686
0.0075140679
0.0075140686
0.0075140679
0.0075140686
0.0075140686
0.0075140686
0.0075140679
0.0075140686
0.0075140679
0.0075140686
0.0075140686
0.0075140686
0.0075140679
0.0075140686
0.0075140679
0.0075140686
0.0075140686
0.0075140686
0.0075140679
0.0075140686
0.0075140679
0.0075140686
0.0075140686
0.0075140686
0.0075140679
0.0075140686
0.0075140686
0.0075140686
0.0075140686
0.0075140686
0.0075140686
0.0075140686
0.0075140686
0.0075140686
0.0075140686
0.0075140686
0.0075140686
0.0075140686
0.0075140686
0.0075140686
0.0075140686
0.0075140686
)
;
        value           nonuniform List<scalar> 
92
(
731.48282
733.50739
737.50217
743.20677
722.12994
724.43642
729.15173
735.98764
702.40758
705.47755
711.76794
721.05532
349.68903
346.8297
346.76282
349.31142
425.23597
421.69904
421.72834
425.0573
489.76376
486.75815
487.27365
490.75566
544.55574
542.7177
544.44699
548.69276
670.62911
589.93504
674.53361
590.07642
682.96827
594.52615
696.58005
601.83035
349.84634
349.16055
425.38934
424.97608
489.94466
490.66835
544.78931
548.6016
590.09215
601.70847
349.79654
349.60885
346.82988
346.76444
349.20985
349.25649
425.36967
425.20673
421.78365
421.82578
424.97099
425.08747
489.93995
489.82311
486.91233
487.42058
490.60821
490.78908
544.83287
544.76921
542.96447
544.68013
548.64811
548.81412
590.1766
590.20713
590.35513
594.78003
601.85828
601.97653
671.29101
675.15132
683.48533
696.86835
702.90737
705.99306
712.19547
721.31429
722.36952
724.73557
729.37295
736.1183
731.6716
733.65084
737.60291
743.30238
)
;
        Tnbr            T;
        thicknessLayers List<scalar> 0();
        kappaLayers     List<scalar> 0();
        kappaMethod     solidThermo;
        kappa           none;
        alphaAni        none;
        alpha           none;
        field           T;
    }
}


// ************************************************************************* //
