/*--------------------------------*- C++ -*----------------------------------*\
| =========                 |                                                 |
| \\      /  F ield         | OpenFOAM: The Open Source CFD Toolbox           |
|  \\    /   O peration     | Version:  v2012                                 |
|   \\  /    A nd           | Website:  www.openfoam.com                      |
|    \\/     M anipulation  |                                                 |
\*---------------------------------------------------------------------------*/
FoamFile
{
    version     2.0;
    format      ascii;
    class       volScalarField;
    location    "380/rightSolid";
    object      T;
}
// * * * * * * * * * * * * * * * * * * * * * * * * * * * * * * * * * * * * * //

dimensions      [0 0 0 1 0 0 0];


internalField   nonuniform List<scalar> 
130
(
748.34501
756.25613
764.46458
772.57493
780.29403
787.40229
793.75653
799.27741
803.92623
807.68318
810.51332
812.40656
813.35508
742.5057
751.7437
761.12654
770.18363
778.6114
786.22856
792.93979
798.70548
803.51534
807.37621
810.2769
812.21356
813.18301
730.82425
743.10882
754.97803
765.90224
775.66841
784.21652
791.56236
797.7542
802.84467
806.8798
809.89603
811.90742
812.91321
713.36895
731.3744
747.23641
760.8138
772.31548
781.99434
790.07581
796.7454
802.14477
806.37944
809.52332
811.6099
812.65035
692.69232
720.1016
740.70452
756.84382
769.81599
780.37173
788.99429
796.00378
801.61874
805.9931
809.22824
811.36256
812.4251
692.26759
719.65991
740.2726
756.44539
769.4729
780.08537
788.74785
795.7885
801.41985
805.80751
809.05028
811.19007
812.2556
712.11402
730.11222
746.02659
759.70514
771.3376
781.15692
789.34233
796.08957
801.53539
805.80441
808.97127
811.06826
812.1149
728.94014
741.24998
753.2099
764.27297
774.20403
782.93083
790.41104
796.69917
801.86022
805.95286
809.00331
811.0304
812.04464
740.17633
749.4913
759.00209
768.21707
776.81559
784.60891
791.46917
797.35744
802.26899
806.19494
809.13719
811.09838
812.08073
745.76088
753.76641
762.12813
770.418
778.3133
785.59546
792.1115
797.7841
802.54731
806.37268
809.25178
811.17232
812.13362
)
;

boundaryField
{
    maxX
    {
        type            zeroGradient;
    }
    minZ
    {
        type            zeroGradient;
    }
    maxZ
    {
        type            zeroGradient;
    }
    rightSolid_to_bottomWater
    {
        type            compressible::turbulentTemperatureCoupledBaffleMixed;
        refValue        nonuniform List<scalar> 
130
(
955.96838
955.88334
953.74194
952.25845
952.6264
953.01425
952.49815
951.78084
951.81683
954.57148
955.16951
955.62722
955.65742
951.40592
951.59834
952.29812
953.12886
953.60786
953.58996
953.09757
952.67311
952.02745
954.03067
955.01565
955.46075
955.4516
947.32078
951.85882
952.52352
952.43436
953.02778
953.20348
952.89934
952.65323
952.49594
951.94825
952.71179
954.24846
954.7292
942.30542
949.98422
949.88279
949.52569
950.17324
950.9329
951.03096
951.12895
951.0477
950.86131
951.88078
953.55439
954.0027
935.82127
942.08653
942.53923
944.58926
948.02486
949.13015
949.88295
950.26241
950.24598
950.37009
953.06411
953.7316
954.15468
930.65954
936.63921
936.23312
938.28635
945.02847
949.31763
950.07238
952.18408
951.59653
952.78399
955.30741
956.20241
956.66546
932.27548
934.69427
935.40196
937.9645
942.01982
949.45238
950.36514
952.90009
951.96752
952.40948
954.28961
955.37291
956.09172
936.87965
936.73275
939.22153
941.99701
944.86161
952.21818
952.44992
951.40357
950.36603
951.94072
952.99026
953.79057
954.50796
937.55469
940.00412
942.74623
944.77886
946.19096
949.40296
949.64957
949.23867
951.28271
952.66532
953.64634
954.288
954.88747
938.5862
940.52387
942.2682
943.38657
943.82718
945.28743
945.80785
949.40817
951.47241
952.45856
954.15744
954.49995
954.55785
)
;
        refGradient     uniform 0;
        valueFraction   nonuniform List<scalar> 
130
(
0.0075140686
0.0075140686
0.0075140686
0.0075140686
0.0075140686
0.0075140686
0.0075140686
0.0075140686
0.0075140686
0.0075140686
0.0075140686
0.0075140686
0.0075140686
0.0075140686
0.0075140686
0.0075140686
0.0075140686
0.0075140686
0.0075140686
0.0075140686
0.0075140686
0.0075140686
0.0075140686
0.0075140686
0.0075140686
0.0075140686
0.0075140686
0.0075140686
0.0075140686
0.0075140686
0.0075140686
0.0075140686
0.0075140686
0.0075140686
0.0075140686
0.0075140686
0.0075140686
0.0075140686
0.0075140686
0.0075140686
0.0075140686
0.0075140686
0.0075140686
0.0075140686
0.0075140686
0.0075140686
0.0075140686
0.0075140686
0.0075140686
0.0075140686
0.0075140686
0.0075140686
0.0075140686
0.0075140686
0.0075140686
0.0075140686
0.0075140686
0.0075140686
0.0075140686
0.0075140686
0.0075140686
0.0075140686
0.0075140686
0.0075140686
0.0075140686
0.0075140686
0.0075140686
0.0075140686
0.0075140686
0.0075140686
0.0075140686
0.0075140686
0.0075140686
0.0075140686
0.0075140686
0.0075140686
0.0075140686
0.0075140686
0.0075140686
0.0075140686
0.0075140686
0.0075140686
0.0075140686
0.0075140686
0.0075140686
0.0075140686
0.0075140686
0.0075140686
0.0075140686
0.0075140686
0.0075140686
0.0075140686
0.0075140686
0.0075140686
0.0075140686
0.0075140686
0.0075140686
0.0075140686
0.0075140686
0.0075140686
0.0075140686
0.0075140686
0.0075140686
0.0075140686
0.0075140686
0.0075140686
0.0075140686
0.0075140686
0.0075140686
0.0075140686
0.0075140686
0.0075140686
0.0075140686
0.0075140686
0.0075140686
0.0075140686
0.0075140686
0.0075140686
0.0075140686
0.0075140686
0.0075140686
0.0075140686
0.0075140686
0.0075140686
0.0075140686
0.0075140686
0.0075140686
0.0075140686
0.0075140686
0.0075140686
)
;
        value           nonuniform List<scalar> 
130
(
749.90349
757.75447
765.88506
773.92318
781.58695
788.64466
794.94724
800.42124
805.03539
808.78481
811.59818
813.48065
814.42229
744.07377
753.24373
762.56121
771.5564
779.92436
787.48409
794.14116
799.86031
804.62917
808.47608
811.3624
813.28787
814.24998
732.44946
744.67574
756.46066
767.30202
776.99918
785.48429
792.7726
798.91602
803.96705
807.96775
810.96708
812.97493
813.97679
715.08775
733.01547
748.75741
762.22998
773.65001
783.26175
791.28317
797.90333
803.2615
807.46296
810.59091
812.6744
813.71042
694.51787
721.76811
742.21947
758.25276
771.15316
781.63777
790.20111
797.16072
802.73333
807.07576
810.30687
812.4302
813.48795
694.05749
721.28879
741.74341
757.80998
770.79015
781.35499
789.95796
796.96148
802.54604
806.90962
810.14701
812.27748
813.33851
713.76675
731.6478
747.44783
761.04276
772.61821
782.41949
790.55017
797.26566
802.66348
806.9037
810.06089
812.15027
813.19445
730.50092
742.71709
754.60575
765.60646
775.48434
784.2008
791.62645
797.85939
802.97381
807.04751
810.08291
812.10078
813.11278
741.65766
750.92098
760.38085
769.54179
778.08624
785.84508
792.65556
798.49644
803.38641
807.29322
810.22072
812.17198
813.15145
747.20794
755.16784
763.47979
771.71572
779.55493
786.79328
793.26421
798.9212
803.66408
807.46808
810.33828
812.24695
813.20146
)
;
        Tnbr            T;
        thicknessLayers List<scalar> 0();
        kappaLayers     List<scalar> 0();
        kappaMethod     solidThermo;
        kappa           none;
        alphaAni        none;
        alpha           none;
        field           T;
    }
    rightSolid_to_topAir
    {
        type            compressible::turbulentTemperatureCoupledBaffleMixed;
        refValue        nonuniform List<scalar> 
130
(
488.62476
482.56539
477.17744
472.7725
469.43442
467.12578
465.77097
465.30678
465.71801
467.08595
469.66474
474.04483
481.09827
437.23127
431.84186
428.45204
426.46042
425.38627
424.94695
425.03628
425.65742
426.88777
428.93374
432.26152
437.95215
447.50018
444.64555
435.66098
428.19323
422.13236
417.30088
413.64777
411.2685
410.27716
410.66758
412.38066
415.49184
420.92183
431.55482
493.79597
495.11946
495.94967
495.8148
494.44223
491.80301
488.08238
483.76208
479.83943
477.98115
480.39054
487.61663
498.06256
495.98038
500.53608
505.36724
510.18762
514.70524
518.6179
521.66221
523.71481
524.91995
525.84714
527.57192
531.57197
539.67909
497.44233
501.62931
506.05418
510.39281
514.35561
517.71274
520.31355
522.11198
523.24389
524.23946
526.13116
530.23256
538.20211
492.43556
493.64623
493.77032
492.48996
490.03721
486.96459
483.7208
480.49417
477.58545
476.45175
479.67338
487.26789
497.23846
441.99769
433.87731
426.94146
421.21536
416.80162
413.85218
412.44419
412.50084
413.8129
416.21404
419.82751
425.86162
438.0644
433.6564
428.41101
425.14612
423.23583
422.26184
422.04618
422.55893
423.80644
425.8041
428.66928
432.83567
439.45078
449.30825
486.72269
480.47399
474.9466
470.4418
467.05687
464.78699
463.58752
463.40296
464.19504
466.00065
469.03206
473.85581
481.23226
)
;
        refGradient     uniform 0;
        valueFraction   nonuniform List<scalar> 
130
(
0.00032132529
0.00032132529
0.00032132529
0.00032132529
0.00032132529
0.00032132529
0.00032132529
0.00032132529
0.00032132529
0.00032132529
0.00032132529
0.00032132529
0.00032132529
0.00032132529
0.00032132529
0.00032132529
0.00032132529
0.00032132529
0.00032132529
0.00032132529
0.00032132529
0.00032132529
0.00032132529
0.00032132529
0.00032132529
0.00032132529
0.00032132529
0.00032132529
0.00032132529
0.00032132529
0.00032132529
0.00032132529
0.00032132529
0.00032132529
0.00032132529
0.00032132529
0.00032132529
0.00032132529
0.00032132529
0.00032132529
0.00032132529
0.00032132529
0.00032132529
0.00032132529
0.00032132529
0.00032132529
0.00032132529
0.00032132529
0.00032132529
0.00032132529
0.00032132529
0.00032132529
0.00032132529
0.00032132529
0.00032132529
0.00032132529
0.00032132529
0.00032132529
0.00032132529
0.00032132529
0.00032132529
0.00032132529
0.00032132529
0.00032132529
0.00032132529
0.00032132529
0.00032132529
0.00032132529
0.00032132529
0.00032132529
0.00032132529
0.00032132529
0.00032132529
0.00032132529
0.00032132529
0.00032132529
0.00032132529
0.00032132529
0.00032132529
0.00032132529
0.00032132529
0.00032132529
0.00032132529
0.00032132529
0.00032132529
0.00032132529
0.00032132529
0.00032132529
0.00032132529
0.00032132529
0.00032132529
0.00032132529
0.00032132529
0.00032132529
0.00032132529
0.00032132529
0.00032132529
0.00032132529
0.00032132529
0.00032132529
0.00032132529
0.00032132529
0.00032132529
0.00032132529
0.00032132529
0.00032132529
0.00032132529
0.00032132529
0.00032132529
0.00032132529
0.00032132529
0.00032132529
0.00032132529
0.00032132529
0.00032132529
0.00032132529
0.00032132529
0.00032132529
0.00032132529
0.00032132529
0.00032132529
0.00032132529
0.00032132529
0.00032132529
0.00032132529
0.00032132529
0.00032132529
0.00032132529
0.00032132529
0.00032132529
)
;
        value           nonuniform List<scalar> 
130
(
748.25993
756.1665
764.37049
772.47668
780.19213
787.29731
793.64904
799.16799
803.81543
807.57162
810.40169
812.29574
813.24624
742.40598
751.63921
761.01783
770.07127
778.49591
786.11042
792.81949
798.5835
803.39221
807.25249
810.15335
812.09123
813.06345
730.73073
743.00838
754.87127
765.78993
775.55132
784.09542
791.43809
797.62758
802.71653
806.75092
809.7672
811.77973
812.78862
713.29694
731.2969
747.15395
760.72683
772.22427
781.89908
789.97668
796.6427
802.03905
806.27177
809.41545
811.5037
812.54719
692.62777
720.02954
740.62724
756.76276
769.7321
780.28559
788.90627
795.9141
801.52761
805.90087
809.13555
811.27051
812.33533
692.20359
719.58832
740.19567
756.36454
769.38903
779.99905
788.65949
795.69836
801.3282
805.71474
808.9571
811.09755
812.16532
712.04184
730.03457
745.94378
759.61743
771.24529
781.06036
789.24201
795.98595
801.42901
805.69626
808.86313
810.96189
812.01141
728.84624
741.14944
753.10319
764.16078
774.08715
782.81015
790.28742
796.57346
801.73322
805.8253
808.87592
810.90429
811.92212
740.07604
749.38627
758.89289
768.10423
776.6996
784.49029
791.34843
797.23515
802.14573
806.07131
809.01394
810.97661
811.9618
745.67579
753.6767
762.03391
770.31962
778.21122
785.49024
792.00374
797.67442
802.43631
806.26099
809.14011
811.06157
812.02493
)
;
        Tnbr            T;
        thicknessLayers List<scalar> 0();
        kappaLayers     List<scalar> 0();
        kappaMethod     solidThermo;
        kappa           none;
        alphaAni        none;
        alpha           none;
        field           T;
    }
    rightSolid_to_heater
    {
        type            compressible::turbulentTemperatureCoupledBaffleMixed;
        refValue        nonuniform List<scalar> 10(741.22194 734.06544 719.20865 694.72143 654.03397 653.67419 693.49605 717.32766 731.71962 738.6186);
        refGradient     uniform 0;
        valueFraction   nonuniform List<scalar> 10(0.50000003 0.50000003 0.50000003 0.50000003 0.50000003 0.50000003 0.50000003 0.50000003 0.50000003 0.50000003);
        value           nonuniform List<scalar> 10(744.78266 738.28475 725.01566 704.04446 673.36247 672.97019 702.80424 723.13305 735.94708 742.18881);
        Tnbr            T;
        thicknessLayers List<scalar> 0();
        kappaLayers     List<scalar> 0();
        kappaMethod     solidThermo;
        kappa           none;
        alphaAni        none;
        alpha           none;
        field           T;
    }
}


// ************************************************************************* //
