/*--------------------------------*- C++ -*----------------------------------*\
| =========                 |                                                 |
| \\      /  F ield         | OpenFOAM: The Open Source CFD Toolbox           |
|  \\    /   O peration     | Version:  v2012                                 |
|   \\  /    A nd           | Website:  www.openfoam.com                      |
|    \\/     M anipulation  |                                                 |
\*---------------------------------------------------------------------------*/
FoamFile
{
    version     2.0;
    format      ascii;
    class       volScalarField;
    location    "13";
    object      p;
}
// * * * * * * * * * * * * * * * * * * * * * * * * * * * * * * * * * * * * * //

dimensions      [0 2 -2 0 0 0 0];


internalField   nonuniform List<scalar> 
64000
(
1.05202e-21
-2.07046e-21
-1.9518e-21
-3.48375e-21
-5.53854e-21
-1.68126e-21
-1.56715e-21
-2.12889e-22
-2.44096e-21
-2.99591e-21
-2.32266e-21
-2.62674e-21
-2.14576e-21
-4.71467e-21
-2.32653e-21
-3.96189e-21
-6.42579e-22
-2.67313e-22
6.33704e-22
1.81281e-21
9.02276e-22
-3.70657e-21
-1.16205e-21
7.55968e-22
-4.73326e-21
-2.3414e-21
2.60559e-22
-1.2314e-21
-1.21571e-21
-2.71264e-21
-2.56718e-21
4.68896e-22
8.1485e-22
-2.26143e-21
-7.77495e-22
-1.62556e-21
-7.63775e-22
2.05708e-21
1.52138e-21
1.62829e-21
-3.46503e-21
-4.43282e-21
-9.09215e-21
-6.07128e-21
-6.72414e-21
-7.29298e-21
-3.31524e-21
-4.92748e-22
-2.72244e-21
-6.24798e-21
-3.52478e-21
-6.25812e-21
-2.09867e-21
-1.80467e-21
-3.37074e-21
-5.83735e-21
-3.22528e-21
1.86427e-21
8.00853e-22
-2.93172e-22
2.35192e-21
6.80225e-23
-3.06839e-21
-7.1325e-21
-6.47363e-21
-1.42569e-21
-4.06055e-23
-2.8361e-21
-1.00238e-21
1.14744e-21
2.2311e-21
-2.30686e-22
-2.81168e-21
-1.97118e-21
-1.09097e-21
-1.41475e-21
1.49055e-21
1.80706e-21
1.43987e-22
4.81973e-22
-4.93218e-21
-2.92959e-21
-1.06712e-20
-7.38556e-21
-5.51148e-21
-7.19962e-21
-3.76198e-21
-3.05562e-21
-2.16686e-21
-3.96861e-21
-5.97571e-21
-7.58447e-21
-1.39783e-21
-2.15088e-21
-1.71831e-21
-1.38809e-21
-6.18692e-21
-2.30083e-21
-1.00983e-21
-2.44926e-22
1.64367e-21
9.32892e-22
-3.56154e-21
-5.64251e-21
-1.90824e-21
-2.53485e-21
-3.0404e-21
-3.21096e-21
1.54082e-22
2.50327e-22
1.12705e-21
-2.28873e-22
-5.44542e-22
-2.9434e-22
-5.99255e-22
2.30973e-21
1.22645e-21
9.93423e-23
-7.51332e-22
-2.03469e-22
-5.97348e-21
-7.33002e-21
-7.33222e-21
-9.79452e-21
-8.38487e-21
-9.1932e-21
-4.00699e-21
-2.12295e-21
-4.68425e-21
-4.65045e-21
-4.66728e-21
-6.08835e-21
-4.00913e-21
-1.89327e-21
-2.79879e-21
-4.44495e-21
-3.94279e-21
-2.58072e-21
-8.30086e-22
1.2081e-21
2.02718e-21
4.08168e-22
-5.58824e-21
-6.4619e-21
-3.16937e-21
-3.35778e-21
-2.43189e-21
-1.29746e-22
-1.17911e-21
-1.29789e-21
2.2509e-21
7.06804e-22
-2.77414e-21
1.10872e-21
2.06599e-21
1.03558e-21
6.95059e-22
-3.21263e-22
-1.07654e-21
-4.42335e-22
-1.37911e-20
-7.88783e-21
-8.78096e-21
-7.95246e-21
-9.17401e-21
-1.03475e-20
-5.82115e-21
-1.14887e-21
-3.69644e-21
-6.2101e-21
-5.49932e-21
-5.30232e-21
-2.0288e-21
-9.50011e-22
-7.1854e-21
-8.70563e-21
-3.79477e-21
1.16892e-21
1.07051e-21
9.11531e-22
2.08884e-21
-2.63711e-21
-9.67646e-21
-7.05283e-21
-3.11974e-21
-2.53041e-21
-1.21441e-21
-1.54147e-21
-2.98175e-21
6.04473e-22
3.24693e-21
-5.02221e-22
-1.76859e-21
1.65883e-21
-1.45657e-21
7.37348e-22
1.89665e-21
9.0631e-22
-1.38903e-21
5.80151e-22
-1.0486e-20
-9.30359e-21
-8.00716e-21
-9.56778e-21
-9.07309e-21
-8.49862e-21
-5.66094e-21
-6.34732e-21
-5.51865e-21
-5.32727e-21
-5.90839e-21
-5.67163e-21
-3.47009e-21
-2.79335e-21
-4.97414e-21
-5.82565e-21
-3.44257e-21
1.86996e-21
2.03826e-21
1.48495e-21
1.27157e-21
-3.51974e-21
-8.92878e-21
-7.65734e-21
-3.68315e-21
-2.59533e-21
-3.17423e-21
-4.59822e-22
-9.69917e-22
-2.05393e-21
-1.32949e-21
-1.64278e-21
-5.47869e-22
1.6516e-21
-4.21274e-22
1.10169e-21
9.43118e-22
-1.2889e-21
-3.92165e-22
4.67467e-22
-1.11803e-20
-1.1865e-20
-7.00278e-21
-7.97963e-21
-9.57758e-21
-9.28134e-21
-5.94192e-21
-6.47199e-21
-6.2428e-21
-4.56485e-21
-7.02499e-21
-6.049e-21
-3.68733e-21
-4.45855e-21
-4.92239e-21
-4.59828e-21
-7.65728e-22
2.42701e-21
3.45121e-21
2.29348e-21
-1.42203e-21
-6.14757e-21
-1.10343e-20
-7.74035e-21
-4.81516e-21
-3.35417e-21
-3.3587e-21
1.22512e-21
7.21869e-22
-1.72856e-21
-4.18451e-21
-2.93811e-21
1.6395e-21
5.26154e-22
4.66501e-22
4.81318e-22
6.61812e-22
-1.4012e-21
-2.67653e-21
-3.02792e-22
-9.09709e-21
-1.01115e-20
-1.05725e-20
-7.357e-21
-1.03082e-20
-7.24436e-21
-5.66443e-21
-1.05012e-20
-7.07564e-21
-5.50293e-21
-7.77332e-21
-7.11585e-21
-5.90527e-21
-5.9869e-21
-4.30484e-21
-3.79403e-21
-3.02385e-22
1.20058e-21
2.03464e-21
3.69932e-21
-2.2092e-21
-7.55732e-21
-9.97023e-21
-5.87569e-21
-4.33742e-21
-4.41016e-21
-1.95688e-21
1.07454e-21
6.99392e-22
-1.84441e-21
-5.04431e-21
-2.54855e-21
9.31261e-22
7.5711e-23
1.03001e-21
4.47639e-22
4.70512e-22
-2.97888e-21
-1.85915e-21
5.28041e-22
-1.67189e-20
-1.19397e-20
-1.07536e-20
-1.0155e-20
-6.85581e-21
-8.26794e-21
-7.88165e-21
-7.3188e-21
-7.07787e-21
-8.975e-21
-7.52824e-21
-8.69645e-21
-2.63729e-21
-7.50944e-21
-5.26488e-21
-4.3643e-21
-1.46612e-21
2.69889e-21
-6.2561e-22
7.24173e-22
-1.10739e-21
-8.35802e-21
-8.71906e-21
-7.3477e-21
-2.10626e-21
-3.48839e-21
-2.64167e-21
6.42098e-23
3.39299e-22
-1.04245e-21
7.79317e-22
-1.34147e-21
-4.92854e-21
-3.01795e-22
-7.99845e-23
1.15194e-21
-5.95457e-23
-1.73586e-21
-2.48827e-22
5.06392e-22
-7.63504e-21
-9.79468e-21
-1.13104e-20
-9.13958e-21
-7.68811e-21
-8.55111e-21
-6.54296e-21
-8.53342e-21
-7.37158e-21
-6.66662e-21
-7.77455e-21
-6.05552e-21
-4.5105e-21
-5.72573e-21
-6.61293e-21
-4.93154e-21
-3.60302e-21
-5.31396e-22
-6.64479e-23
2.11018e-21
8.26271e-22
-7.80339e-21
-9.18033e-21
-6.04404e-21
-3.34853e-21
-2.53781e-21
-1.61687e-21
1.05724e-21
-2.90204e-21
-1.38557e-21
6.23497e-22
-5.67969e-22
-1.76161e-21
-8.44353e-22
-1.10107e-21
-1.47886e-21
4.95017e-22
-3.22638e-22
-5.77863e-22
-9.43697e-22
-6.06912e-21
-1.04279e-20
-1.02974e-20
-1.19157e-20
-8.06245e-21
-8.39986e-21
-9.09181e-21
-8.91111e-21
-7.7468e-21
-1.08378e-20
-7.68588e-21
-3.1191e-21
-2.85117e-21
-3.80313e-21
-5.74965e-21
-6.37001e-21
-4.0803e-21
-8.15512e-23
3.5718e-21
6.56364e-22
-4.84495e-21
-1.03361e-20
-6.11579e-21
-6.00245e-21
-5.21441e-21
-2.97754e-21
-1.29958e-22
7.12188e-22
-1.56986e-21
-2.16059e-21
-7.45236e-22
-5.63328e-22
2.4852e-21
1.67419e-21
-1.82718e-21
-5.02374e-21
4.20531e-23
1.17093e-21
-5.63137e-22
-5.09612e-22
-7.59891e-21
-1.20569e-20
-1.1446e-20
-1.04541e-20
-9.85812e-21
-1.04159e-20
-8.34551e-21
-8.49908e-21
-7.02028e-21
-1.00912e-20
-1.08441e-20
-3.81278e-21
-4.00069e-21
-5.20807e-21
-4.08755e-21
-4.76727e-21
-4.86842e-21
-2.06906e-22
1.18725e-21
2.40654e-21
-4.71221e-21
-8.3199e-21
-6.87219e-21
-7.25686e-21
-5.67878e-21
-1.07899e-21
1.78303e-21
-1.31232e-21
-1.66988e-21
-7.78459e-23
-7.69491e-22
-1.22189e-21
2.1392e-21
3.56116e-21
-3.2853e-21
-1.5022e-21
1.34544e-21
1.18255e-21
9.53682e-22
-3.80866e-22
-1.35039e-20
-1.34092e-20
-1.15053e-20
-9.87271e-21
-1.06109e-20
-1.07694e-20
-1.04548e-20
-8.54921e-21
-8.50494e-21
-9.88964e-21
-1.01714e-20
-2.97803e-21
-4.00561e-21
-6.74598e-21
-4.12065e-21
-4.3568e-21
-2.57005e-21
-5.43342e-22
-9.2711e-22
-3.71683e-22
-2.66053e-21
-4.87446e-21
-5.69603e-21
-6.76117e-21
-3.74567e-21
-3.56092e-23
1.29819e-21
-2.53564e-21
-1.20916e-21
-8.93922e-22
-3.08305e-21
9.21632e-22
2.05098e-21
1.56212e-21
-9.7538e-22
-1.82559e-23
-4.58643e-22
-1.29366e-21
-1.0862e-22
8.54257e-23
-1.58757e-20
-1.56024e-20
-1.11416e-20
-1.12362e-20
-9.75721e-21
-1.08009e-20
-9.7086e-21
-6.32044e-21
-9.72261e-21
-1.38884e-20
-8.0807e-21
-1.83863e-21
-6.03945e-21
-9.69822e-21
-4.35069e-21
-4.26128e-21
-1.19813e-21
1.82752e-21
2.98477e-22
-1.30069e-21
-4.49578e-21
-6.47203e-21
-6.56785e-21
-8.8059e-21
-1.52845e-21
7.30095e-22
1.47828e-21
-2.25875e-21
-2.56448e-21
-7.14127e-23
-8.62664e-22
7.40257e-22
-3.22631e-22
1.13227e-21
-4.83633e-22
5.68243e-22
6.4383e-22
1.13481e-21
-2.24799e-21
-3.59681e-22
-1.08987e-20
-1.77215e-20
-1.62515e-20
-7.06451e-21
-6.32958e-21
-8.92659e-21
-1.13656e-20
-1.10674e-20
-9.36216e-21
-1.15687e-20
-8.66524e-21
-6.35568e-21
-5.79988e-21
-4.33319e-21
-2.05912e-21
-3.97767e-21
-2.30161e-21
-1.60074e-21
-2.53128e-21
-8.28883e-22
-6.68734e-21
-3.38062e-21
-4.41398e-21
-7.13301e-21
1.40616e-21
-1.11378e-21
-2.79343e-21
-2.31715e-21
-1.38152e-21
-1.21194e-21
-1.35933e-21
1.47153e-21
4.96587e-22
4.04622e-22
1.28385e-21
-1.3238e-21
3.88943e-22
-5.73738e-23
-1.9169e-21
6.22601e-22
-1.18675e-20
-1.34886e-20
-1.44593e-20
-9.31736e-21
-1.01438e-20
-7.96772e-21
-9.72711e-21
-1.1409e-20
-9.05139e-21
-6.40525e-21
-9.61084e-21
-8.52055e-21
-5.31075e-21
-3.43585e-21
-3.9965e-21
-5.1607e-21
-2.00511e-21
-1.87415e-21
-9.48788e-22
-2.46349e-21
-6.68564e-21
-5.33802e-21
-3.88262e-21
-1.56841e-21
8.51532e-22
-2.98258e-21
-3.67481e-21
-1.56575e-21
2.30695e-22
-8.02971e-22
-5.1468e-21
-1.9173e-22
7.64679e-22
1.12168e-21
3.52914e-21
-2.21745e-22
-1.21536e-21
-1.01421e-21
-2.51763e-21
3.82662e-22
-1.08836e-20
-1.12794e-20
-1.37788e-20
-9.61735e-21
-7.45823e-21
-9.12966e-21
-1.06512e-20
-1.20305e-20
-7.72151e-21
-7.52628e-21
-8.78501e-21
-8.95078e-21
-1.7967e-21
-4.68721e-21
-3.44992e-21
-3.49481e-21
-3.50952e-21
-1.18837e-21
-3.08873e-21
-4.25412e-21
-6.79982e-21
-4.62425e-21
-3.63162e-21
4.89507e-23
7.22568e-23
-1.20666e-21
-2.15967e-21
9.70288e-22
5.8086e-22
-3.87739e-21
-6.2958e-21
-7.77903e-22
2.03415e-21
4.64686e-22
9.93541e-22
1.27565e-21
-6.79096e-22
-2.86097e-21
-2.28288e-21
-1.28826e-21
-8.81891e-21
-1.1585e-20
-1.66952e-20
-9.44881e-21
-6.33082e-21
-7.39935e-21
-1.13647e-20
-1.08703e-20
-8.17946e-21
-7.40796e-21
-8.96303e-21
-7.30653e-21
-2.94919e-21
-5.26474e-21
-3.33485e-21
-3.55257e-21
-3.18067e-21
-1.3175e-21
2.21523e-22
-6.35289e-21
-7.81111e-21
-7.98378e-21
-1.11175e-21
8.8283e-24
1.95006e-21
-3.14151e-21
-1.21028e-21
2.02417e-21
-1.15899e-21
-1.51051e-21
-2.32427e-21
-1.63631e-21
-2.44235e-22
1.07527e-22
-6.90176e-22
-1.43151e-21
-9.46735e-22
-2.40499e-22
4.15644e-23
-4.40251e-22
-7.35181e-21
-8.23543e-21
-1.14235e-20
-1.0506e-20
-1.00975e-20
-8.66444e-21
-8.8519e-21
-7.9607e-21
-7.97987e-21
-8.71987e-21
-8.35118e-21
-7.75194e-21
-4.08805e-21
-4.05684e-21
-4.1332e-21
-4.0101e-21
-3.98363e-21
-5.67014e-21
-6.38724e-21
-6.23766e-21
-3.70126e-21
-2.02394e-21
-1.72869e-21
-5.38895e-22
1.58237e-21
-2.10791e-22
4.48986e-22
2.70974e-21
6.33657e-22
-1.94127e-21
-6.3358e-21
-1.19033e-21
-4.51003e-22
-1.39883e-21
-1.69487e-21
2.43266e-22
8.78733e-22
-7.96661e-22
-3.43834e-21
-2.22052e-21
-5.22993e-21
-6.59746e-21
-1.3031e-20
-1.14808e-20
-9.41472e-21
-6.93662e-21
-7.96407e-21
-9.03741e-21
-8.99214e-21
-8.45309e-21
-7.49183e-21
-7.97291e-21
-4.85952e-21
-3.60257e-21
-5.39168e-21
-5.02565e-21
-2.58524e-21
-3.22057e-21
-8.46987e-21
-4.91065e-21
-3.20122e-21
-4.32454e-21
-2.68882e-21
1.02078e-21
1.81834e-21
1.52983e-21
-4.24699e-21
2.7261e-22
1.09423e-21
-2.59841e-21
-5.39264e-22
-1.07896e-21
3.57147e-22
-1.65692e-21
-2.7366e-21
-7.04227e-22
-3.61442e-22
-3.58419e-22
-1.76624e-21
-3.00653e-21
-7.19224e-21
-7.4889e-21
-1.09514e-20
-9.7526e-21
-1.05489e-20
-7.5309e-21
-7.49144e-21
-5.27127e-21
-6.98509e-21
-1.11299e-20
-1.45345e-20
-7.15127e-21
-3.79297e-21
-2.84144e-21
-5.09376e-21
-4.55805e-21
-4.04625e-21
-2.39068e-21
-6.58815e-21
-3.80552e-21
-1.53753e-21
-3.7563e-21
-1.5442e-21
-1.23771e-21
-2.33843e-21
1.12927e-21
-2.6032e-22
-6.05753e-22
4.13397e-22
-5.96646e-22
-6.22076e-22
2.22104e-22
-1.51168e-21
-7.37543e-22
-1.32747e-21
-1.75498e-21
-1.66406e-21
-1.00047e-21
-1.24889e-21
-2.85436e-21
-1.05044e-20
-1.02076e-20
-7.33087e-21
-7.75119e-21
-1.18855e-20
-7.95082e-21
-8.20092e-21
-7.29593e-21
-5.90371e-21
-1.16994e-20
-1.31836e-20
-5.82616e-21
-2.94749e-21
-9.33935e-21
-5.19535e-21
-1.86717e-21
-1.91438e-21
-2.31414e-21
-4.59615e-21
-2.25691e-21
-4.41978e-21
-2.47204e-21
-1.15812e-21
-2.06216e-21
-6.21934e-22
-1.89824e-22
-1.30008e-21
-1.96503e-21
7.94087e-22
4.67471e-22
-2.25712e-21
1.38398e-21
-4.20523e-22
-9.60039e-22
-2.52789e-21
-5.33794e-21
-3.23215e-22
-3.25577e-23
4.56018e-22
-6.4076e-23
-1.21419e-20
-1.02289e-20
-9.09718e-21
-6.22809e-21
-7.9015e-21
-1.1902e-20
-5.98752e-21
-5.69256e-21
-9.63646e-21
-1.29748e-20
-1.08241e-20
-7.2751e-21
-4.65679e-21
-4.51187e-21
-4.46353e-21
-3.80938e-21
-6.14523e-22
2.06933e-21
-6.34087e-22
-4.53119e-21
-5.14287e-21
-2.13384e-22
-4.19019e-21
-5.99134e-21
-2.49413e-21
-1.77755e-21
-1.47357e-22
-1.57972e-22
8.07404e-22
1.29995e-21
-3.47322e-21
-1.89685e-21
1.42513e-22
-2.69709e-22
-1.74227e-21
-3.03861e-21
-9.66493e-22
1.24523e-21
-7.13907e-22
-1.49973e-21
-8.32957e-21
-9.22815e-21
-1.14566e-20
-7.3944e-21
-6.35985e-21
-9.04828e-21
-8.55892e-21
-1.11937e-20
-7.48042e-21
-7.84977e-21
-8.58932e-21
-8.83649e-21
-9.73935e-22
-5.74786e-21
-7.2324e-21
-2.80647e-21
2.00351e-21
-1.04541e-22
-1.24203e-21
-1.84045e-21
-4.90355e-21
-2.23457e-21
-3.01082e-21
-4.14596e-21
-4.4085e-21
-2.0741e-21
5.15989e-22
9.94656e-22
6.99576e-22
-1.90818e-21
-3.01412e-21
-3.00295e-21
-2.92668e-22
-2.43758e-21
-2.62025e-21
-2.52395e-21
-1.08914e-22
1.04459e-21
-7.48066e-22
-2.05296e-21
-3.6802e-21
-7.77554e-21
-1.08698e-20
-1.01172e-20
-7.01794e-21
-7.49358e-21
-8.03462e-21
-9.55087e-21
-5.39475e-21
-8.43062e-21
-1.12772e-20
-8.48517e-21
-3.54764e-21
-3.21649e-21
-5.02825e-21
-2.8034e-21
1.08485e-21
-3.74638e-22
2.88909e-22
1.71913e-21
-1.83458e-21
-3.29843e-21
-1.19106e-21
-6.57344e-21
-5.75155e-21
-4.89338e-21
-9.57443e-22
1.3941e-21
-1.16901e-21
-9.76351e-23
-5.81995e-22
-2.14282e-21
-2.13231e-21
-1.33341e-21
-2.92536e-21
-2.86849e-21
-6.86863e-22
-1.26999e-21
-7.44581e-22
-2.02194e-22
-8.22494e-21
-9.44466e-21
-1.16398e-20
-8.67391e-21
-6.5524e-21
-5.97715e-21
-7.50655e-21
-9.19535e-21
-4.84598e-21
-5.4468e-21
-1.10412e-20
-8.97653e-21
-3.17351e-21
-6.27344e-21
-1.89207e-21
-5.27547e-22
-3.95513e-22
-1.03544e-21
7.10674e-22
1.35087e-21
1.46873e-21
-3.20461e-21
-5.57229e-21
-7.35041e-21
-6.33483e-21
-5.55377e-21
5.54542e-22
-1.61803e-21
-2.8108e-21
3.53575e-21
1.76627e-21
-2.79569e-21
-5.10417e-21
-1.51064e-21
1.09696e-21
-1.54729e-21
-1.70209e-21
-3.11844e-21
-1.82203e-22
5.10126e-22
-4.33169e-21
-7.04869e-21
-1.01705e-20
-1.16483e-20
-7.935e-21
-1.0182e-20
-7.79211e-21
-3.99816e-21
-4.85889e-21
-7.70194e-21
-1.05692e-20
-7.12028e-21
-2.37251e-21
-5.50228e-21
-6.74547e-21
-3.78658e-22
-1.27734e-21
-2.17392e-21
4.50626e-21
4.61685e-21
-2.25824e-21
-7.0075e-21
-4.27456e-21
-4.17072e-21
-5.25577e-21
-5.74195e-21
1.14831e-21
-9.50808e-22
-3.57277e-21
-1.21973e-22
2.72663e-21
-5.63047e-22
-1.97581e-21
-1.23842e-21
-8.75297e-22
-1.38419e-22
-2.47394e-21
-4.27227e-21
-2.45869e-21
-1.17026e-21
-5.77798e-21
-9.07982e-21
-1.00311e-20
-1.09251e-20
-6.12375e-21
-9.1666e-21
-5.88387e-21
-5.46851e-21
-5.69924e-21
-7.37275e-21
-9.14532e-21
-6.39993e-21
-3.09597e-21
-3.34063e-21
-6.11157e-21
-2.53761e-21
-6.1035e-22
-1.20235e-21
4.0845e-21
3.56675e-21
-3.32718e-21
-4.23519e-21
-3.8285e-21
-6.65033e-21
-4.06531e-21
-1.23966e-21
-8.75817e-22
-2.22112e-21
-1.46223e-21
-1.61758e-21
1.03125e-21
1.59331e-22
-1.51732e-21
-7.20305e-22
-1.42031e-21
-1.25939e-21
-3.86802e-21
-3.50581e-21
-1.12779e-21
3.58391e-22
-6.65049e-21
-1.0974e-20
-1.08331e-20
-8.31251e-21
-8.86263e-21
-9.7411e-21
-6.48209e-21
-4.12006e-21
-4.39265e-21
-7.87806e-21
-1.07417e-20
-3.70211e-21
-3.80903e-21
-4.04248e-21
-4.25836e-21
-3.59358e-21
-2.96117e-23
2.80421e-21
4.52462e-22
2.20385e-21
-4.07731e-21
-5.9475e-21
-3.60722e-21
-3.53012e-21
-2.46611e-21
-1.71353e-21
-1.6592e-21
-3.85073e-21
-8.21393e-22
-1.22323e-21
1.76069e-21
1.99744e-21
-8.00041e-22
-3.38425e-22
-1.50662e-21
-3.14924e-21
-1.21676e-21
-2.66339e-21
-1.57547e-21
-1.25964e-21
-6.55259e-21
-9.49266e-21
-9.0702e-21
-1.05785e-20
-1.1127e-20
-1.0108e-20
-4.41452e-21
-4.7164e-21
-4.96717e-21
-7.38444e-21
-1.04534e-20
-2.77597e-21
-2.6322e-21
-5.97974e-21
-4.57365e-21
-6.8872e-21
-2.44357e-21
6.62559e-22
4.69518e-21
3.74465e-21
-4.49861e-21
-4.46372e-21
-4.57895e-21
-3.81699e-21
-2.72873e-21
-2.38569e-21
-1.63685e-21
1.89659e-21
-3.38297e-22
-8.21469e-22
7.8791e-22
-2.61343e-22
1.57449e-22
-6.08105e-22
-3.00918e-21
-4.95087e-21
1.29658e-21
-2.03097e-21
-2.59931e-21
-5.80464e-22
-9.08529e-21
-9.31357e-21
-7.6777e-21
-8.95731e-21
-1.04762e-20
-9.47215e-21
-5.14425e-21
-4.45497e-21
-5.27288e-21
-6.43374e-21
-5.82356e-21
-3.8857e-21
-4.72486e-21
-3.35376e-21
-2.75173e-21
-7.14881e-21
-3.47712e-21
8.9242e-22
2.76284e-21
2.62759e-21
-7.29426e-22
-5.41169e-21
-4.38089e-21
-6.05425e-22
-2.58858e-21
-2.45227e-21
-2.95024e-21
2.85747e-22
-1.26434e-21
-5.60727e-22
-1.95131e-21
1.19097e-21
2.12893e-21
-1.2037e-22
-3.2727e-21
-5.54081e-21
-3.39096e-21
-1.01181e-21
-7.81174e-22
2.10552e-22
-1.35272e-20
-1.15174e-20
-8.04809e-21
-8.3996e-21
-7.92975e-21
-9.62809e-21
-6.83173e-21
-5.61961e-21
-5.18029e-21
-3.75177e-21
-1.86569e-21
-5.94848e-21
-5.78722e-21
-2.17901e-21
-3.2849e-21
-4.76607e-21
-1.82327e-21
2.1983e-21
1.77107e-21
6.38954e-22
1.6675e-21
-2.37931e-21
-8.75418e-21
-4.21835e-21
-1.33673e-21
-2.58513e-21
-2.17094e-21
6.77601e-22
6.71383e-22
9.21937e-22
-3.48503e-21
1.17366e-21
3.36714e-21
-1.05242e-21
-5.27524e-21
-4.7115e-21
-1.57066e-21
-5.28693e-22
1.91332e-22
9.83925e-23
-8.48507e-21
-6.94656e-21
-7.14138e-21
-8.75652e-21
-9.91877e-21
-8.94835e-21
-6.04486e-21
-7.03016e-21
-4.63588e-21
-3.17575e-21
-4.35143e-22
-1.85203e-21
-7.29412e-21
-2.64398e-21
4.71239e-22
-3.23438e-21
-1.28697e-21
-2.14399e-21
1.36565e-21
4.04953e-22
7.38395e-22
-2.73576e-21
-5.52546e-21
-1.26398e-22
-6.16653e-21
-6.17318e-21
1.40578e-21
1.01515e-21
-1.40579e-22
-3.80425e-23
-1.39835e-21
4.5394e-22
2.61587e-21
-7.46986e-22
-3.1636e-21
-1.38369e-21
-6.70877e-22
-5.73164e-21
-2.06251e-21
-2.72384e-22
-9.46878e-21
-7.93373e-21
-7.29808e-21
-1.12337e-20
-1.05779e-20
-5.54845e-21
-4.02734e-21
-3.712e-21
-4.57191e-21
-3.3348e-21
-3.23245e-22
-5.0803e-21
-8.23502e-21
-1.52236e-21
-4.23447e-22
-1.08838e-21
-2.00169e-21
-1.00837e-21
2.43977e-22
2.38877e-21
2.17959e-21
-4.53055e-21
-2.42665e-21
-2.55551e-21
-4.46482e-21
-1.65684e-21
-5.71974e-22
-1.08651e-21
-9.29549e-22
-4.80528e-23
-1.14733e-21
1.19061e-21
3.23694e-21
6.64131e-22
-1.28834e-22
-1.08899e-21
-7.93819e-22
4.43956e-22
-3.52074e-21
-3.01201e-21
-1.16308e-20
-7.28463e-21
-6.14802e-21
-7.30685e-21
-8.41335e-21
-8.33459e-21
-5.67164e-21
-4.10726e-21
-5.35038e-21
-3.4912e-21
-4.72635e-22
-4.73936e-21
-2.1872e-21
6.89324e-22
-1.00077e-21
-2.78214e-21
-5.20663e-21
2.25969e-22
2.55531e-21
2.95814e-21
1.35503e-21
-4.29712e-21
-3.50206e-21
-2.40492e-21
-2.88777e-21
-3.05224e-22
-8.55466e-22
-3.86544e-21
-4.02619e-22
-7.52104e-22
5.75745e-22
1.13209e-22
2.3766e-21
7.23951e-22
-1.99988e-21
-1.39782e-21
-4.98615e-22
1.22344e-21
-2.24734e-22
-1.10421e-21
-7.85938e-21
-6.48161e-21
-6.80236e-21
-7.312e-21
-7.77762e-21
-9.29362e-21
-3.90261e-21
-2.22853e-21
-2.86703e-21
-2.56705e-21
-3.92842e-21
-1.90004e-21
-2.11795e-21
1.40456e-22
9.32938e-23
-3.32337e-21
-4.2814e-21
8.52286e-22
3.09298e-21
5.90889e-22
8.17877e-22
-4.15228e-21
-3.27004e-21
-2.33989e-21
-2.57754e-22
1.36331e-21
8.03955e-22
-9.47169e-22
-3.1317e-21
-1.79983e-21
7.07412e-22
2.34707e-22
1.28128e-21
1.93157e-21
-1.14183e-21
-1.84654e-21
-2.59034e-22
1.6098e-21
3.98646e-23
-1.59593e-21
-6.45748e-21
-4.61191e-21
-3.61396e-21
-9.60696e-21
-6.69592e-21
-7.98766e-21
-3.28625e-21
-1.96846e-21
-1.98585e-21
-1.84652e-21
-4.25623e-21
-2.61551e-21
-9.91298e-23
7.94912e-22
-2.47834e-21
-2.36845e-21
-3.85916e-21
2.57454e-22
3.22845e-21
1.06218e-21
1.93045e-21
-4.2278e-21
-1.44296e-21
-1.35077e-21
-2.31382e-21
-1.99849e-21
-3.72175e-23
6.47113e-22
-1.80521e-22
-1.50478e-21
-1.95711e-21
-2.65053e-22
1.29244e-21
1.07703e-21
-5.30005e-22
-1.33329e-21
2.58309e-21
3.03883e-21
-3.2138e-21
-2.33105e-21
-4.47401e-21
-4.78584e-21
-7.103e-21
-6.29743e-21
-5.73784e-21
-7.37678e-21
-3.71974e-21
-2.42718e-21
-1.86715e-21
-2.05243e-21
-1.70142e-21
-2.65767e-21
5.55735e-22
-4.0902e-22
-2.51055e-21
-3.96553e-23
4.81502e-22
-4.33777e-22
2.30642e-21
4.33011e-21
8.99316e-23
-1.78154e-21
-2.56119e-21
-4.47964e-21
-1.09708e-22
6.71687e-22
-1.66593e-21
-1.24835e-24
8.32841e-22
-2.35199e-21
-4.06732e-21
-1.1101e-21
6.15902e-22
1.33376e-21
-1.01771e-21
-9.5286e-23
9.11778e-22
2.69888e-21
-3.00229e-21
-1.73255e-21
-4.1466e-21
-2.24623e-21
-4.86445e-21
-7.78463e-21
-6.96147e-21
-6.92017e-21
-4.63225e-21
-1.96054e-21
-9.55306e-23
-2.37322e-21
-3.10525e-22
7.62671e-22
1.40276e-21
-4.89833e-22
-2.69975e-21
-1.32994e-21
-1.97916e-21
-4.46038e-23
6.31683e-22
1.91681e-21
1.59855e-21
-5.00098e-22
-7.70886e-22
-3.21318e-21
-2.70104e-21
7.81416e-22
9.88253e-22
1.98551e-21
-2.8791e-21
-4.64215e-21
-1.73271e-21
-2.41477e-21
6.35737e-22
1.04214e-21
7.55937e-22
-1.81325e-21
-1.15221e-21
1.76966e-22
4.61054e-22
6.45437e-22
-6.53909e-21
-2.74224e-21
-3.64073e-21
-1.67548e-21
-5.17089e-22
-3.83875e-21
-6.88182e-21
-3.25965e-21
-5.65375e-22
-2.51045e-21
-2.97222e-21
2.5952e-21
2.13956e-21
-6.65141e-22
-1.41486e-21
-2.04829e-21
-2.31337e-21
-1.53889e-21
1.99963e-21
2.84199e-21
9.52333e-22
-2.60679e-21
-1.78447e-21
-7.50959e-22
-7.27157e-22
4.84009e-22
4.98619e-22
6.28901e-22
7.45391e-23
5.46973e-22
-2.28462e-21
-1.781e-21
-1.88093e-21
-2.56351e-21
5.05364e-22
-1.15664e-21
-3.46915e-21
-1.82695e-21
6.47687e-22
1.34459e-21
-3.48867e-21
-5.40574e-21
-1.00061e-20
-5.48513e-21
-3.00836e-21
-8.37747e-21
-3.24839e-21
9.13376e-22
-6.56781e-21
-7.03494e-21
-3.30119e-21
-4.97445e-21
-3.56221e-21
-2.48013e-21
-3.01259e-21
-4.75857e-21
-3.72001e-21
-2.31683e-21
3.32831e-21
2.24845e-21
-6.79679e-22
-2.12288e-21
-2.02224e-21
-1.74758e-21
-2.65988e-21
-1.65539e-21
-1.50499e-21
-2.82354e-21
-3.82522e-21
-3.96394e-21
-5.55651e-21
9.43491e-22
-9.71683e-22
-2.47248e-21
-1.90692e-21
-1.01741e-21
1.7899e-21
1.73556e-21
-1.43228e-22
1.21e-21
-6.9802e-21
-7.97964e-21
-1.28112e-20
-1.15956e-20
-5.81579e-21
-8.5133e-21
-7.39285e-21
-2.09741e-21
-6.24164e-21
-9.03901e-21
-6.32246e-21
-4.44443e-21
-6.07084e-21
-4.42596e-21
-5.39009e-21
-3.10581e-21
-1.45338e-22
-3.46585e-21
6.28247e-22
7.36246e-22
7.26524e-22
-1.91113e-21
-2.65242e-21
-5.69285e-21
-3.55611e-21
-2.28978e-21
1.69586e-22
-1.9767e-21
-2.96401e-21
-3.41528e-22
-1.663e-21
-1.45228e-21
-3.02961e-21
-1.10558e-21
-3.15702e-21
3.43906e-22
1.17265e-21
1.54355e-21
-7.33603e-22
7.92566e-23
-9.06201e-21
-7.75036e-21
-8.8527e-21
-9.78459e-21
-9.44015e-21
-8.0689e-21
-7.40067e-21
-7.72188e-21
-7.38314e-21
-6.70701e-21
-6.39581e-21
-6.2071e-21
-2.25726e-21
-1.82147e-21
-4.19211e-21
-5.16069e-21
-5.0447e-21
-1.97842e-21
1.85711e-21
7.91756e-22
1.97051e-22
-2.61394e-21
-2.50855e-21
-4.21098e-21
-3.43062e-21
-2.57905e-21
-1.78183e-21
-5.00859e-21
-2.20225e-21
-1.44954e-21
-2.07967e-21
-2.38563e-21
4.23076e-22
3.1426e-22
-3.65271e-21
3.27707e-21
1.43234e-21
2.04019e-21
-5.23111e-22
-2.05071e-22
-1.0101e-20
-1.17538e-20
-1.01457e-20
-1.08078e-20
-1.02904e-20
-1.07908e-20
-7.37801e-21
-6.21106e-21
-9.00547e-21
-6.04808e-21
-4.46735e-21
-7.40916e-21
-2.29659e-21
-2.81039e-21
-5.39856e-21
-4.77473e-21
-4.54822e-21
-3.02472e-21
-9.6359e-22
1.32149e-21
-9.83644e-23
-3.37909e-21
-5.70781e-21
-5.35228e-21
-3.85306e-21
-2.29157e-21
-2.35639e-21
4.53599e-23
-3.28786e-21
-4.9195e-21
-6.04471e-22
-1.57393e-21
-6.88557e-22
1.05444e-21
-3.29036e-23
1.27259e-21
2.50425e-22
-5.04186e-22
-8.73757e-22
-9.40986e-22
-1.39341e-20
-1.32248e-20
-1.19035e-20
-9.3368e-21
-1.39198e-20
-1.08985e-20
-7.36298e-21
-5.272e-21
-6.49286e-21
-8.32931e-21
-6.56051e-21
-6.4033e-21
-1.72316e-21
-3.89935e-21
-6.40881e-21
-6.07314e-21
-6.78387e-21
-2.29081e-21
-7.49764e-22
8.00537e-22
-5.11925e-22
-2.22676e-21
-6.6969e-21
-5.8222e-21
-5.61137e-21
-2.59291e-21
-2.36362e-21
-2.86461e-21
-3.60292e-21
-2.81002e-21
1.00887e-21
-3.06467e-21
2.34077e-21
1.37423e-21
-1.43099e-21
9.29771e-22
1.37473e-21
-1.07038e-21
-1.16962e-21
-1.46039e-22
-1.47971e-20
-1.49233e-20
-1.06879e-20
-1.05602e-20
-1.32054e-20
-1.15398e-20
-7.99091e-21
-8.17406e-21
-8.08337e-21
-8.21843e-21
-7.77222e-21
-8.33537e-21
-3.15978e-21
-3.11179e-21
-6.44436e-21
-5.94322e-21
-5.9689e-21
-1.4614e-21
-1.99108e-21
8.81253e-22
-1.00468e-21
-3.76414e-21
-6.39105e-21
-6.3299e-21
-4.92832e-21
-3.531e-21
-9.88074e-22
-2.6457e-21
-4.58639e-21
-3.50704e-21
-3.88562e-21
-1.05382e-21
4.65155e-21
2.35473e-21
-8.59233e-22
8.54077e-22
1.19546e-22
-4.44912e-22
1.84226e-21
1.63361e-21
-1.73703e-20
-1.73838e-20
-1.27271e-20
-1.12462e-20
-1.38071e-20
-1.01612e-20
-9.05543e-21
-6.80643e-21
-8.27003e-21
-1.04496e-20
-9.31681e-21
-7.76738e-21
-4.2315e-21
-3.65461e-21
-7.44046e-21
-6.73306e-21
-1.19371e-21
-5.13601e-22
-6.27686e-22
-9.25984e-22
-2.95077e-21
-3.2566e-21
-7.17109e-21
-9.19191e-21
-5.15758e-21
-2.79684e-21
-2.61178e-21
-2.04012e-21
-1.37755e-21
-2.93357e-21
-4.16309e-21
-1.06752e-21
1.59251e-21
6.09651e-22
-1.78016e-21
8.4461e-22
1.96552e-22
-8.82592e-22
2.37115e-23
8.9397e-22
-1.39468e-20
-1.51029e-20
-1.36343e-20
-1.3818e-20
-1.48022e-20
-9.82742e-21
-1.06946e-20
-1.05963e-20
-1.07253e-20
-7.56644e-21
-8.39582e-21
-1.13232e-20
-4.45269e-21
-4.36954e-21
-7.17934e-21
-5.47265e-21
-3.19627e-23
-3.2999e-22
-9.72473e-22
-1.11566e-21
-3.61637e-21
-7.26723e-21
-8.81018e-21
-6.17295e-21
-4.95164e-21
-1.00828e-21
-1.58041e-21
-1.98925e-21
-3.09342e-21
-3.79689e-21
-6.06484e-21
-1.41918e-21
8.52002e-22
-8.12344e-22
3.89384e-22
9.16495e-22
2.63252e-21
3.18186e-23
-1.61871e-21
-1.47446e-21
-1.559e-20
-1.54754e-20
-1.7041e-20
-1.41692e-20
-1.29695e-20
-1.06731e-20
-1.19669e-20
-9.06105e-21
-8.83695e-21
-1.23936e-20
-8.83583e-21
-9.19805e-21
-5.73939e-21
-6.58777e-21
-7.30504e-21
-5.0905e-21
-2.23925e-21
-6.30031e-22
-3.01038e-21
-1.65196e-21
-1.86019e-21
-7.1117e-21
-8.11167e-21
-1.08227e-20
-4.88782e-21
-1.12312e-21
-1.18777e-21
-2.19113e-21
-3.78305e-22
-1.35067e-21
-4.14169e-21
-2.21565e-21
-3.81574e-21
7.81575e-22
6.95406e-22
2.62453e-21
2.70679e-21
-1.38433e-21
-1.24621e-21
-8.57634e-22
-1.6424e-20
-1.47523e-20
-1.55051e-20
-1.6833e-20
-1.34592e-20
-1.18455e-20
-1.3219e-20
-1.14189e-20
-7.46586e-21
-1.04924e-20
-9.19553e-21
-8.76153e-21
-5.79391e-21
-5.78873e-21
-8.32853e-21
-5.78656e-21
-3.03007e-21
-1.90374e-21
-1.78119e-21
3.67684e-22
-4.8491e-21
-7.56254e-21
-7.65101e-21
-1.02881e-20
-6.43572e-21
-2.72256e-21
-2.72061e-22
-1.50699e-21
-1.4549e-21
-1.58276e-21
-9.57031e-23
-1.38405e-21
-3.59143e-21
-2.40954e-22
1.09105e-21
1.8964e-21
3.73087e-21
-2.72251e-22
-2.8356e-22
-2.72746e-22
-1.57618e-20
-1.75719e-20
-1.88534e-20
-1.56648e-20
-1.35728e-20
-1.07819e-20
-1.35601e-20
-1.38553e-20
-1.00147e-20
-9.34931e-21
-9.91571e-21
-9.35645e-21
-4.28055e-21
-4.96934e-21
-8.40338e-21
-7.8468e-21
-4.04814e-21
-1.63663e-21
7.88375e-22
-1.61454e-22
-8.63078e-21
-6.93939e-21
-6.81386e-21
-1.01028e-20
-8.41661e-21
-2.58015e-21
-2.68633e-22
-1.49664e-21
1.5164e-21
-1.45125e-21
-2.22103e-21
-1.37569e-21
4.42779e-22
2.73135e-21
2.21525e-22
-1.2994e-21
1.57657e-21
1.30674e-21
-1.40004e-22
-1.48104e-21
-1.86064e-20
-1.99794e-20
-1.70026e-20
-1.58694e-20
-1.37939e-20
-1.2656e-20
-1.39708e-20
-1.13778e-20
-9.24335e-21
-1.19966e-20
-1.04752e-20
-8.18903e-21
-7.51804e-21
-5.55665e-21
-7.89797e-21
-7.39692e-21
-6.72179e-21
-3.08751e-21
1.47299e-22
-9.39331e-22
-4.92672e-21
-7.34291e-21
-7.41162e-21
-8.0793e-21
-5.75436e-21
-4.86581e-21
-2.56985e-21
-9.7476e-22
1.53468e-21
-1.51181e-21
-3.42417e-22
-6.26272e-22
2.11264e-21
2.46376e-21
-1.34456e-21
2.55325e-23
3.68287e-21
9.90597e-22
-1.29844e-21
8.91214e-22
-2.06349e-20
-1.93954e-20
-1.54519e-20
-1.61841e-20
-1.68086e-20
-1.39289e-20
-1.06374e-20
-9.81776e-21
-1.17924e-20
-1.37071e-20
-9.65342e-21
-8.5398e-21
-7.4379e-21
-4.67569e-21
-8.71728e-21
-8.12682e-21
-5.91886e-21
-3.46115e-21
-3.47486e-21
-7.62521e-22
-4.62832e-21
-3.45241e-21
-5.72731e-21
-7.16571e-21
-6.94557e-21
-3.47399e-21
-2.09052e-21
-6.59594e-22
-6.46574e-22
2.91021e-22
-1.45786e-22
2.00236e-22
1.01234e-21
-3.63889e-22
-1.88183e-21
2.19979e-21
2.3414e-21
2.14417e-22
-3.97093e-22
1.37352e-21
-2.35847e-20
-2.13995e-20
-1.65793e-20
-1.71307e-20
-1.42393e-20
-1.28363e-20
-1.23169e-20
-1.07854e-20
-1.0814e-20
-1.25487e-20
-1.10592e-20
-8.33819e-21
-1.00994e-20
-6.15816e-21
-7.54239e-21
-8.88842e-21
-6.60652e-21
-2.59492e-21
-8.45593e-22
-9.80275e-22
-4.19473e-21
-6.34491e-21
-5.25186e-21
-7.35856e-21
-7.19793e-21
-2.1785e-21
8.41102e-22
-9.16122e-22
-1.29205e-21
-1.37129e-21
-2.15333e-22
6.90286e-22
1.2612e-21
-3.51949e-22
-1.2975e-21
1.26078e-21
3.64564e-21
1.91087e-21
-1.47303e-21
8.10289e-22
-2.38112e-20
-2.1281e-20
-1.6661e-20
-1.3369e-20
-1.35502e-20
-1.14953e-20
-1.37423e-20
-1.17619e-20
-1.07208e-20
-1.32649e-20
-1.05681e-20
-8.34603e-21
-9.06753e-21
-7.24691e-21
-7.41171e-21
-7.62838e-21
-2.82195e-21
-2.40086e-21
-4.30949e-21
-3.14164e-21
-3.86018e-21
-6.64224e-21
-5.9775e-21
-5.56699e-21
-3.53766e-21
-2.68966e-21
-7.38497e-22
-9.7252e-22
-5.70989e-22
-2.40608e-21
-4.99176e-21
-3.35795e-22
2.76886e-21
1.65298e-21
-1.06404e-21
2.23915e-22
2.0464e-21
2.05258e-21
5.07985e-22
1.11992e-21
-2.05407e-20
-1.87095e-20
-2.0225e-20
-1.44904e-20
-1.32308e-20
-1.37958e-20
-1.28115e-20
-1.30241e-20
-1.1195e-20
-1.09725e-20
-1.1271e-20
-1.00527e-20
-1.232e-20
-5.85671e-21
-4.31809e-21
-6.16537e-21
-4.03815e-21
-3.75415e-21
-3.62253e-21
-3.33616e-21
-5.16258e-21
-6.48579e-21
-7.74945e-21
-3.30866e-21
2.05835e-22
-4.65249e-21
-3.04995e-21
-1.22115e-22
-1.55783e-21
-1.02761e-21
-2.7107e-21
-2.76027e-22
1.73006e-21
6.4674e-22
-2.94662e-22
-3.64561e-22
1.13183e-21
1.59024e-21
-3.2293e-22
-2.36127e-22
-1.80139e-20
-1.82169e-20
-1.77358e-20
-1.40053e-20
-1.45425e-20
-1.52381e-20
-1.34154e-20
-1.25401e-20
-1.07375e-20
-1.10101e-20
-1.05077e-20
-1.05015e-20
-1.02535e-20
-8.50731e-21
-4.45889e-21
-3.27336e-21
-4.04087e-21
-3.41148e-21
-6.99538e-21
-3.72944e-21
-6.15701e-21
-4.51471e-21
-3.81235e-21
-3.53405e-21
1.11931e-22
-3.88323e-21
-1.7246e-21
5.91063e-23
-2.73778e-21
-1.80604e-21
-2.89556e-21
-6.28234e-22
1.92617e-21
-4.05917e-22
-1.21525e-21
-1.28424e-23
2.05262e-21
2.82964e-21
9.44894e-22
2.48237e-22
-1.77427e-20
-1.73364e-20
-2.09757e-20
-1.4977e-20
-1.29667e-20
-1.46906e-20
-1.35073e-20
-1.07639e-20
-1.25387e-20
-1.51584e-20
-9.45572e-21
-9.65437e-21