/*--------------------------------*- C++ -*----------------------------------*\
| =========                 |                                                 |
| \\      /  F ield         | OpenFOAM: The Open Source CFD Toolbox           |
|  \\    /   O peration     | Version:  v2012                                 |
|   \\  /    A nd           | Website:  www.openfoam.com                      |
|    \\/     M anipulation  |                                                 |
\*---------------------------------------------------------------------------*/
FoamFile
{
    version     2.0;
    format      ascii;
    class       surfaceScalarField;
    location    "13";
    object      phi;
}
// * * * * * * * * * * * * * * * * * * * * * * * * * * * * * * * * * * * * * //

dimensions      [0 3 -1 0 0 0 0];
oriented        oriented;


internalField   nonuniform List<scalar> 
187200
(
1.875e-06
1.85078e-22
2.07449e-22
1.875e-06
2.03836e-22
2.49735e-22
1.875e-06
3.2643e-22
3.51758e-22
1.875e-06
2.37711e-22
2.2236e-22
1.875e-06
1.80429e-22
1.14074e-22
1.875e-06
3.10924e-22
2.36679e-22
1.875e-06
1.88391e-22
1.03053e-22
1.875e-06
8.68131e-23
5.18994e-23
1.875e-06
1.14702e-22
2.00828e-22
1.875e-06
1.92998e-22
1.93204e-22
1.875e-06
1.57843e-22
1.11595e-22
1.875e-06
1.62776e-22
1.36589e-22
1.875e-06
7.037e-23
1.08135e-22
1.875e-06
-7.16485e-24
4.39501e-23
1.875e-06
6.34063e-23
1.41913e-22
1.875e-06
1.01452e-22
7.93096e-23
1.875e-06
1.28914e-22
1.00386e-22
1.875e-06
4.41004e-25
8.04483e-23
1.875e-06
-4.39226e-24
-1.43348e-22
1.875e-06
1.55709e-22
-1.52068e-22
1.875e-06
-6.25301e-23
-3.75292e-23
1.875e-06
-1.07768e-22
-1.17897e-23
1.875e-06
8.20233e-23
6.40405e-23
1.875e-06
2.92163e-22
8.69076e-23
1.875e-06
1.19148e-22
-2.42904e-23
1.875e-06
2.13467e-23
1.05798e-23
1.875e-06
1.40105e-23
1.07346e-22
1.875e-06
6.51336e-23
1.0605e-22
1.875e-06
1.94871e-23
1.23727e-22
1.875e-06
-1.28245e-22
9.26139e-23
1.875e-06
-2.44783e-22
1.42132e-22
1.875e-06
1.27948e-23
8.32747e-23
1.875e-06
1.53826e-22
8.60659e-23
1.875e-06
-2.96832e-23
-1.24179e-23
1.875e-06
-6.30851e-23
4.03395e-24
1.875e-06
-9.95696e-23
-1.20784e-22
1.875e-06
-2.34847e-22
-1.52503e-22
1.875e-06
-2.84339e-23
-7.83085e-23
1.875e-06
6.0537e-23
3.85864e-23
4.88235e-23
1.24632e-23
1.875e-06
1.0027e-22
2.05333e-22
1.875e-06
8.95385e-23
3.42649e-22
1.875e-06
2.03103e-22
4.69848e-22
1.875e-06
1.97268e-22
5.16247e-22
1.875e-06
1.27369e-22
2.95864e-22
1.875e-06
1.62782e-22
3.1435e-22
1.875e-06
1.87315e-22
3.13536e-22
1.875e-06
2.12885e-22
3.0754e-22
1.875e-06
1.07824e-22
3.91441e-22
1.875e-06
4.12803e-23
3.69425e-22
1.875e-06
1.72803e-22
2.74754e-22
1.875e-06
1.54646e-22
1.4394e-22
1.875e-06
5.01547e-23
2.55995e-22
1.875e-06
5.96496e-23
2.47393e-22
1.875e-06
-2.20148e-24
2.56e-22
1.875e-06
-6.49318e-23
6.14382e-23
1.875e-06
1.18967e-22
-8.27851e-24
1.875e-06
2.33901e-22
1.80214e-22
1.875e-06
1.92341e-22
2.10109e-23
1.875e-06
2.79088e-23
-1.46285e-22
1.875e-06
2.70591e-23
-3.72381e-24
1.875e-06
-2.65992e-23
1.15321e-22
1.875e-06
1.26599e-23
3.55528e-23
1.875e-06
-7.77297e-24
1.20519e-23
1.875e-06
-7.35225e-23
-3.38452e-23
1.875e-06
7.72191e-24
5.50625e-23
1.875e-06
1.03435e-22
5.14103e-23
1.875e-06
1.23421e-23
6.67501e-23
1.875e-06
-4.38553e-23
1.78955e-22
1.875e-06
1.49632e-23
1.25686e-22
1.875e-06
-4.27096e-23
2.20564e-22
1.875e-06
-2.87195e-23
1.42907e-22
1.875e-06
-8.81837e-23
9.01111e-23
1.875e-06
-1.07389e-22
-4.55787e-24
1.875e-06
-1.23641e-22
2.94235e-23
1.875e-06
-2.48725e-22
-1.42624e-22
1.875e-06
-1.13135e-22
-1.08928e-22
1.875e-06
6.77064e-23
-4.44341e-23
1.875e-06
9.29598e-23
4.12605e-23
6.54871e-23
2.8071e-23
1.875e-06
1.29221e-22
2.55628e-22
1.875e-06
2.65108e-22
4.14786e-22
1.875e-06
7.66921e-23
3.37152e-22
1.875e-06
1.75409e-22
4.42947e-22
1.875e-06
2.27806e-22
4.87987e-22
1.875e-06
1.86246e-22
3.77245e-22
1.875e-06
1.21071e-22
4.27906e-22
1.875e-06
1.25676e-22
5.13878e-22
1.875e-06
1.80496e-22
5.14627e-22
1.875e-06
1.1267e-22
3.90775e-22
1.875e-06
5.21562e-23
2.63516e-22
1.875e-06
2.28861e-23
2.0246e-22
1.875e-06
1.11851e-22
2.38177e-22
1.875e-06
7.93205e-23
2.01579e-22
1.875e-06
9.88783e-23
2.99851e-22
1.875e-06
1.22102e-22
2.36849e-22
1.875e-06
6.18533e-24
6.66866e-23
1.875e-06
2.71103e-23
3.47743e-23
1.875e-06
1.55491e-23
-1.11792e-22
1.875e-06
-9.273e-24
-9.59739e-23
1.875e-06
-5.67138e-24
7.00137e-23
1.875e-06
5.07614e-23
1.67445e-22
1.875e-06
1.04641e-22
3.52877e-23
1.875e-06
8.56013e-23
1.27972e-23
1.875e-06
5.82655e-23
8.90301e-23
1.875e-06
1.84191e-23
9.79975e-23
1.875e-06
1.25692e-23
5.53126e-23
1.875e-06
-8.40418e-23
1.35419e-22
1.875e-06
2.24517e-23
1.76874e-22
1.875e-06
4.93946e-23
1.50036e-22
1.875e-06
-5.42565e-23
2.27783e-22
1.875e-06
-4.80373e-23
1.63967e-22
1.875e-06
2.42742e-24
3.10677e-23
1.875e-06
-1.28745e-22
-3.54179e-23
1.875e-06
-1.95072e-22
6.3718e-23
1.875e-06
-8.21279e-23
-9.93075e-23
1.875e-06
-1.05714e-24
-4.02949e-23
1.875e-06
5.89946e-23
-1.22211e-22
1.875e-06
8.10878e-23
-4.68774e-23
6.81424e-23
-3.83558e-23
1.875e-06
2.73913e-22
2.40126e-22
1.875e-06
1.63394e-22
4.8003e-22
1.875e-06
1.31223e-22
4.80715e-22
1.875e-06
5.31817e-23
4.47714e-22
1.875e-06
1.47338e-22
4.55136e-22
1.875e-06
1.51185e-22
4.24107e-22
1.875e-06
1.79842e-22
5.02047e-22
1.875e-06
8.07989e-23
5.47355e-22
1.875e-06
7.68297e-23
4.94696e-22
1.875e-06
1.90434e-22
3.91667e-22
1.875e-06
1.05843e-22
2.99605e-22
1.875e-06
4.95908e-23
3.27045e-22
1.875e-06
-3.79887e-24
2.14002e-22
1.875e-06
7.51318e-24
2.63642e-22
1.875e-06
2.10936e-22
3.31042e-22
1.875e-06
2.08611e-22
1.47968e-22
1.875e-06
4.55971e-23
8.82483e-23
1.875e-06
-1.55764e-22
1.1269e-22
1.875e-06
-9.51696e-23
1.74791e-23
1.875e-06
-5.59329e-23
-7.32878e-23
1.875e-06
2.92353e-23
7.63356e-23
1.875e-06
1.27264e-22
2.28601e-22
1.875e-06
2.22716e-22
1.07064e-22
1.875e-06
1.04051e-22
5.96548e-23
1.875e-06
4.28118e-23
1.21382e-22
1.875e-06
3.57523e-23
1.11015e-22
1.875e-06
-4.50369e-23
5.88412e-23
1.875e-06
2.66735e-23
5.48454e-23
1.875e-06
4.6295e-23
1.59651e-22
1.875e-06
-5.08579e-23
1.89725e-22
1.875e-06
-1.15407e-23
2.50237e-22
1.875e-06
4.51816e-23
1.56604e-22
1.875e-06
-3.99965e-23
-2.26727e-24
1.875e-06
-1.06752e-22
3.36315e-23
1.875e-06
6.5214e-23
7.66109e-23
1.875e-06
-2.67406e-23
-1.98741e-23
1.875e-06
-7.81376e-23
2.4107e-23
1.875e-06
-1.60276e-25
-6.15451e-24
1.875e-06
7.30343e-23
-6.22803e-23
2.61671e-23
-3.12796e-23
1.875e-06
-1.26947e-24
1.7699e-22
1.875e-06
1.2801e-22
5.34481e-22
1.875e-06
1.04065e-22
5.42179e-22
1.875e-06
1.38506e-22
4.80709e-22
1.875e-06
9.66067e-23
5.48221e-22
1.875e-06
4.25136e-23
4.11683e-22
1.875e-06
8.85334e-23
5.19541e-22
1.875e-06
2.75891e-22
5.84663e-22
1.875e-06
1.8267e-22
5.30477e-22
1.875e-06
5.6349e-23
4.48818e-22
1.875e-06
1.14887e-22
3.16418e-22
1.875e-06
9.30587e-23
3.2506e-22
1.875e-06
1.29288e-22
3.28848e-22
1.875e-06
9.43762e-23
3.4607e-22
1.875e-06
-2.37192e-23
1.87512e-22
1.875e-06
-3.38658e-23
1.0687e-22
1.875e-06
-1.38444e-23
1.80745e-22
1.875e-06
-9.64202e-23
2.24163e-22
1.875e-06
-1.28795e-22
9.18319e-23
1.875e-06
-7.62377e-23
2.47251e-23
1.875e-06
-4.66501e-23
1.19249e-22
1.875e-06
1.1428e-22
1.01553e-22
1.875e-06
8.82528e-23
-1.14991e-23
1.875e-06
1.19077e-22
5.73968e-23
1.875e-06
7.21731e-23
2.33323e-22
1.875e-06
5.86665e-23
1.78273e-22
1.875e-06
6.16164e-23
1.49024e-22
1.875e-06
-5.16117e-23
1.33566e-22
1.875e-06
-9.06974e-23
6.50017e-23
1.875e-06
5.67657e-23
1.74025e-22
1.875e-06
1.93088e-22
2.09236e-22
1.875e-06
6.88482e-23
1.75932e-22
1.875e-06
-3.26396e-23
-9.11004e-23
1.875e-06
-2.71853e-23
2.56148e-24
1.875e-06
-8.59646e-23
-2.99894e-23
1.875e-06
-1.65212e-23
-9.71038e-24
1.875e-06
4.4771e-23
5.18417e-23
1.875e-06
8.42578e-23
3.05575e-23
1.875e-06
2.12087e-23
-2.58543e-23
6.4066e-23
-2.79451e-23
1.875e-06
1.27053e-23
3.12774e-22
1.875e-06
1.12087e-22
5.9188e-22
1.875e-06
5.79993e-23
5.11355e-22
1.875e-06
4.69369e-23
4.98126e-22
1.875e-06
9.90228e-23
5.70909e-22
1.875e-06
9.93075e-23
5.2258e-22
1.875e-06
9.32337e-23
5.51929e-22
1.875e-06
1.38068e-22
5.41394e-22
1.875e-06
1.31594e-22
5.31534e-22
1.875e-06
7.16994e-23
4.47151e-22
1.875e-06
1.26354e-22
3.87197e-22
1.875e-06
9.16534e-23
4.06053e-22
1.875e-06
6.87333e-23
2.90893e-22
1.875e-06
1.213e-22
2.90028e-22
1.875e-06
4.30401e-23
3.09615e-22
1.875e-06
-3.70213e-23
2.67093e-22
1.875e-06
-1.12694e-22
2.09871e-22
1.875e-06
-5.69246e-23
2.40696e-22
1.875e-06
-1.06307e-22
2.18374e-22
1.875e-06
-1.24361e-22
6.75738e-23
1.875e-06
1.32093e-22
1.93686e-22
1.875e-06
1.49848e-22
1.13385e-22
1.875e-06
1.19722e-22
3.10683e-23
1.875e-06
5.10587e-23
5.57338e-23
1.875e-06
7.34698e-23
1.60037e-22
1.875e-06
4.66594e-23
1.65042e-22
1.875e-06
5.37574e-23
3.78991e-23
1.875e-06
-7.40025e-23
1.56263e-22
1.875e-06
-1.19522e-22
1.98404e-22
1.875e-06
-4.05969e-23
1.71166e-22
1.875e-06
1.15354e-22
1.92226e-22
1.875e-06
9.6936e-23
6.20197e-23
1.875e-06
-9.16393e-23
-2.28884e-22
1.875e-06
1.04405e-22
-1.79818e-23
1.875e-06
2.12599e-24
-9.21691e-24
1.875e-06
1.0311e-23
-3.43795e-23
1.875e-06
4.39611e-23
4.51804e-23
1.875e-06
2.06921e-23
-7.50022e-23
1.875e-06
7.33933e-23
-1.38625e-22
3.67333e-23
-1.59661e-22
1.875e-06
-8.92313e-24
3.96026e-22
1.875e-06
2.0994e-23
5.90629e-22
1.875e-06
1.86238e-22
6.62831e-22
1.875e-06
1.12386e-22
6.42189e-22
1.875e-06
1.11421e-22
6.53353e-22
1.875e-06
1.94984e-23
5.55824e-22
1.875e-06
6.10596e-23
5.83434e-22
1.875e-06
2.16948e-22
5.1705e-22
1.875e-06
1.37273e-22
4.93117e-22
1.875e-06
1.39547e-22
5.55537e-22
1.875e-06
9.01749e-23
4.14126e-22
1.875e-06
1.0067e-22
3.81168e-22
1.875e-06
1.29868e-22
3.33795e-22
1.875e-06
1.05567e-22
2.97122e-22
1.875e-06
6.07251e-24
3.60138e-22
1.875e-06
-3.24222e-23
3.04048e-22
1.875e-06
-5.88846e-23
1.35044e-22
1.875e-06
7.4168e-23
2.20762e-22
1.875e-06
6.71568e-23
2.50691e-22
1.875e-06
-5.75779e-23
2.04051e-22
1.875e-06
4.46589e-23
1.96041e-22
1.875e-06
8.72613e-23
6.20061e-23
1.875e-06
2.13631e-23
2.48293e-23
1.875e-06
-1.40912e-23
1.67223e-22
1.875e-06
1.11089e-23
1.71447e-22
1.875e-06
6.87359e-23
9.23241e-23
1.875e-06
-3.3314e-23
1.12021e-23
1.875e-06
9.22507e-25
1.66266e-22
1.875e-06
-3.36274e-23
1.92067e-22
1.875e-06
-2.182e-23
1.58351e-22
1.875e-06
1.65874e-23
1.00121e-22
1.875e-06
-8.62785e-24
-5.57927e-23
1.875e-06
1.22994e-22
-5.88417e-23
1.875e-06
1.11043e-22
3.53397e-23
1.875e-06
7.17995e-23
8.88196e-23
1.875e-06
1.95542e-23
-1.85085e-23
1.875e-06
-1.17576e-23
-5.53585e-23
1.875e-06
-9.38098e-25
-1.54759e-22
1.875e-06
2.83459e-24
-1.81326e-22
-4.08947e-23
-1.70982e-22
1.875e-06
1.62007e-22
2.85435e-22
1.875e-06
9.90963e-23
5.36673e-22
1.875e-06
1.00514e-22
6.0553e-22
1.875e-06
1.92077e-22
7.53848e-22
1.875e-06
-2.40673e-23
7.50147e-22
1.875e-06
1.2061e-22
6.71394e-22
1.875e-06
1.72344e-22
7.15216e-22
1.875e-06
2.56037e-23
5.61249e-22
1.875e-06
1.12162e-22
5.60293e-22
1.875e-06
1.64694e-22
4.98351e-22
1.875e-06
4.76612e-23
3.90493e-22
1.875e-06
6.55288e-23
4.59335e-22
1.875e-06
-3.64009e-23
2.6024e-22
1.875e-06
7.43896e-23
2.77805e-22
1.875e-06
8.32021e-23
3.5946e-22
1.875e-06
5.71962e-23
3.00285e-22
1.875e-06
5.64111e-23
2.38782e-22
1.875e-06
1.93452e-23
1.40787e-22
1.875e-06
1.21432e-22
1.47337e-22
1.875e-06
1.26232e-22
2.76641e-22
1.875e-06
8.87246e-24
2.19538e-22
1.875e-06
4.03562e-23
1.66901e-22
1.875e-06
-9.90087e-25
1.30872e-22
1.875e-06
9.14111e-23
1.73191e-22
1.875e-06
-3.3656e-23
1.98193e-22
1.875e-06
-5.56374e-23
8.19948e-24
1.875e-06
3.34971e-23
2.49848e-23
1.875e-06
3.73172e-23
1.52727e-22
1.875e-06
3.40942e-23
2.26314e-22
1.875e-06
-5.74739e-23
1.90291e-22
1.875e-06
-2.43332e-22
1.79421e-22
1.875e-06
-6.28051e-23
-2.63116e-23
1.875e-06
2.27467e-22
3.67012e-24
1.875e-06
1.70055e-22
3.41306e-23
1.875e-06
1.61967e-22
3.07142e-23
1.875e-06
3.86703e-23
-1.40056e-22
1.875e-06
-8.4697e-24
-2.80393e-22
1.875e-06
-1.09829e-22
-2.31901e-22
1.875e-06
-1.69539e-22
-1.5172e-22
-5.27381e-23
-2.50256e-23
1.875e-06
-2.242e-22
1.53898e-22
1.875e-06
-1.85802e-23
5.21344e-22
1.875e-06
1.12462e-22
6.83932e-22
1.875e-06
8.72046e-23
7.03782e-22
1.875e-06
1.21509e-22
8.26505e-22
1.875e-06
1.02732e-22
7.40532e-22
1.875e-06
1.28714e-22
7.31285e-22
1.875e-06
1.3968e-22
6.04438e-22
1.875e-06
7.28118e-23
5.31352e-22
1.875e-06
1.33606e-23
5.4807e-22
1.875e-06
5.46524e-23
4.43624e-22
1.875e-06
-5.63139e-23
3.76269e-22
1.875e-06
3.40117e-23
3.77223e-22
1.875e-06
-1.32848e-23
3.09822e-22
1.875e-06
2.52511e-23
3.75677e-22
1.875e-06
7.50448e-23
2.95438e-22
1.875e-06
1.65187e-22
2.53131e-22
1.875e-06
1.38743e-22
2.0877e-22
1.875e-06
1.62763e-23
1.99249e-22
1.875e-06
-2.21156e-23
1.9332e-22
1.875e-06
-4.52289e-24
2.32675e-22
1.875e-06
5.5338e-23
1.93312e-22
1.875e-06
5.6e-23
1.54206e-22
1.875e-06
1.01313e-23
2.4204e-22
1.875e-06
7.3753e-23
2.91109e-22
1.875e-06
6.22993e-24
7.54285e-23
1.875e-06
-7.42422e-23
-1.99575e-23
1.875e-06
-2.99292e-23
1.01213e-22
1.875e-06
5.81224e-23
1.16717e-22
1.875e-06
-1.94906e-25
8.71143e-23
1.875e-06
-3.89466e-23
2.51199e-22
1.875e-06
-7.45493e-23
8.95055e-23
1.875e-06
-1.10767e-22
-1.43811e-23
1.875e-06
-3.00329e-24
-6.06197e-23
1.875e-06
7.37577e-23
-1.3459e-22
1.875e-06
2.13754e-22
-2.73749e-22
1.875e-06
-1.0242e-23
-2.7713e-22
1.875e-06
-1.4234e-22
-1.99338e-22
1.875e-06
-9.79101e-23
-1.17196e-22
9.56406e-24
-7.97773e-23
1.875e-06
-2.89748e-23
4.36135e-22
1.875e-06
6.05345e-23
5.91734e-22
1.875e-06
9.33534e-23
7.13091e-22
1.875e-06
1.71625e-22
8.43028e-22
1.875e-06
1.40657e-22
8.44485e-22
1.875e-06
1.09006e-22
7.34356e-22
1.875e-06
1.92286e-22
7.98201e-22
1.875e-06
1.19321e-22
6.75493e-22
1.875e-06
9.34841e-23
5.33062e-22
1.875e-06
1.53502e-22
5.40501e-22
1.875e-06
4.06074e-23
4.42059e-22
1.875e-06
-5.87852e-23
4.62476e-22
1.875e-06
-4.76965e-23
3.55719e-22
1.875e-06
-5.02704e-23
3.57553e-22
1.875e-06
2.61959e-23
3.87465e-22
1.875e-06
8.27533e-23
3.1545e-22
1.875e-06
1.02632e-22
2.21297e-22
1.875e-06
7.18433e-24
2.00576e-22
1.875e-06
-9.25779e-23
2.09978e-22
1.875e-06
9.35845e-23
2.11576e-22
1.875e-06
2.01553e-22
3.57371e-22
1.875e-06
1.22512e-22
1.95767e-22
1.875e-06
-3.52565e-23
1.42083e-22
1.875e-06
-5.74187e-24
2.8569e-22
1.875e-06
5.91674e-23
3.47605e-22
1.875e-06
2.00657e-23
1.51895e-22
1.875e-06
-7.34957e-23
-8.83265e-24
1.875e-06
-1.46806e-23
1.25369e-22
1.875e-06
1.60187e-23
2.92933e-23
1.875e-06
5.29648e-23
6.53988e-23
1.875e-06
2.41453e-23
6.79019e-23
1.875e-06
-5.98699e-23
4.81779e-23
1.875e-06
-2.51539e-22
8.93439e-23
1.875e-06
-2.02204e-22
-5.27329e-23
1.875e-06
-1.17066e-23
-2.0285e-22
1.875e-06
1.684e-22
-3.84697e-22
1.875e-06
1.14178e-22
-3.32825e-22
1.875e-06
-1.12892e-22
-2.02959e-22
1.875e-06
-1.09099e-22
-1.44389e-22
-1.27003e-22
-1.73558e-22
1.875e-06
1.13215e-22
4.94901e-22
1.875e-06
1.66438e-22
7.04824e-22
1.875e-06
1.15531e-22
8.33166e-22
1.875e-06
9.45642e-23
8.07885e-22
1.875e-06
1.90012e-22
8.42299e-22
1.875e-06
2.02571e-22
7.21799e-22
1.875e-06
5.81712e-23
7.44504e-22
1.875e-06
5.84016e-23
7.11964e-22
1.875e-06
3.05e-23
5.8812e-22
1.875e-06
6.70219e-23
4.26016e-22
1.875e-06
1.47481e-22
4.77976e-22
1.875e-06
5.95468e-23
6.0021e-22
1.875e-06
3.45225e-23
3.7435e-22
1.875e-06
7.71672e-23
3.68754e-22
1.875e-06
2.17627e-24
4.34041e-22
1.875e-06
-2.85949e-23
3.90283e-22
1.875e-06
8.33734e-24
2.94103e-22
1.875e-06
2.41942e-23
2.6611e-22
1.875e-06
1.01347e-22
2.43426e-22
1.875e-06
5.42005e-23
1.99096e-22
1.875e-06
7.25184e-23
3.08244e-22
1.875e-06
9.82625e-26
8.50261e-23
1.875e-06
-2.94953e-24
1.88573e-22
1.875e-06
-2.45841e-23
3.10811e-22
1.875e-06
3.53063e-24
3.08167e-22
1.875e-06
-7.68915e-23
9.16328e-23
1.875e-06
-9.32812e-23
8.37188e-23
1.875e-06
8.58045e-23
6.30426e-23
1.875e-06
2.32409e-23
-1.15162e-22
1.875e-06
-1.01245e-22
2.15499e-23
1.875e-06
-1.83233e-23
8.15278e-23
1.875e-06
-3.56673e-23
5.37846e-23
1.875e-06
-9.22215e-23
4.52321e-23
1.875e-06
-1.71069e-22
-6.74225e-23
1.875e-06
8.50878e-24
-1.5313e-22
1.875e-06
-1.4449e-22
-3.54384e-22
1.875e-06
1.16529e-23
-3.73117e-22
1.875e-06
4.26593e-23
-1.34972e-22
1.875e-06
-6.13325e-23
-9.18476e-23
-4.6393e-23
-1.62027e-23
1.875e-06
2.80249e-22
5.4832e-22
1.875e-06
1.74854e-22
7.06301e-22
1.875e-06
1.00634e-22
8.47006e-22
1.875e-06
5.30449e-23
8.34102e-22
1.875e-06
9.70943e-23
7.95286e-22
1.875e-06
1.05305e-22
7.43647e-22
1.875e-06
1.13531e-22
8.07146e-22
1.875e-06
6.15282e-23
6.66314e-22
1.875e-06
1.04954e-22
5.54795e-22
1.875e-06
5.04002e-23
5.02993e-22
1.875e-06
1.75523e-23
3.87784e-22
1.875e-06
1.33392e-23
5.0134e-22
1.875e-06
1.00409e-22
5.16654e-22
1.875e-06
1.11387e-22
3.67104e-22
1.875e-06
3.3254e-23
4.62767e-22
1.875e-06
-2.08182e-23
4.29246e-22
1.875e-06
-7.38212e-23
3.87519e-22
1.875e-06
-1.37768e-23
3.15494e-22
1.875e-06
1.05126e-22
2.64874e-22
1.875e-06
1.6777e-22
2.93042e-22
1.875e-06
4.06898e-23
2.15729e-22
1.875e-06
-8.50719e-23
1.77536e-22
1.875e-06
-3.38753e-23
1.95962e-22
1.875e-06
-3.21082e-23
2.69671e-22
1.875e-06
-1.09737e-22
1.17578e-22
1.875e-06
-1.05458e-22
1.64141e-22
1.875e-06
-4.62427e-23
1.98599e-22
1.875e-06
6.16585e-24
1.62153e-23
1.875e-06
1.06995e-23
-1.26814e-22
1.875e-06
5.53778e-23
6.32944e-23
1.875e-06
7.08901e-23
2.69684e-23
1.875e-06
-1.54832e-22
-1.78118e-23
1.875e-06
-4.11052e-23
-8.32715e-24
1.875e-06
1.8075e-23
-1.15595e-23
1.875e-06
-8.69822e-23
-1.00814e-22
1.875e-06
-1.11018e-22
-2.87369e-22
1.875e-06
1.17108e-22
-4.22515e-22
1.875e-06
1.95252e-22
-1.58801e-22
1.875e-06
1.46301e-22
2.15862e-23
6.33408e-23
-7.6302e-23
1.875e-06
1.03446e-22
4.24234e-22
1.875e-06
1.43566e-22
6.7053e-22
1.875e-06
7.29468e-23
7.63164e-22
1.875e-06
1.32052e-22
8.70767e-22
1.875e-06
-3.60569e-24
9.07575e-22
1.875e-06
-3.11277e-23
7.72134e-22
1.875e-06
3.38292e-23
7.39406e-22
1.875e-06
2.54998e-23
6.09856e-22
1.875e-06
9.26286e-23
5.92197e-22
1.875e-06
1.44256e-22
5.28412e-22
1.875e-06
1.17317e-23
3.89515e-22
1.875e-06
4.07433e-23
5.36854e-22
1.875e-06
1.16059e-22
4.84232e-22
1.875e-06
1.0227e-22
3.27824e-22
1.875e-06
3.45263e-23
4.64082e-22
1.875e-06
-2.85734e-23
5.02834e-22
1.875e-06
-8.22732e-23
4.00862e-22
1.875e-06
-8.57997e-23
3.70458e-22
1.875e-06
-6.01797e-24
2.99415e-22
1.875e-06
1.0214e-22
2.25665e-22
1.875e-06
1.1474e-22
2.51003e-22
1.875e-06
7.56167e-23
1.76658e-22
1.875e-06
1.42653e-23
1.5755e-22
1.875e-06
1.38582e-23
2.52878e-22
1.875e-06
-8.65132e-23
2.54536e-22
1.875e-06
-1.02764e-22
1.62474e-22
1.875e-06
-4.43663e-23
1.23765e-22
1.875e-06
1.64551e-24
-6.66465e-23
1.875e-06
2.29589e-23
-4.95124e-23
1.875e-06
2.32911e-23
-4.88936e-23
1.875e-06
2.38694e-23
-5.99965e-23
1.875e-06
5.28455e-25
-1.22236e-23
1.875e-06
-1.08836e-23
-4.46263e-23
1.875e-06
-6.6569e-23
3.44568e-23
1.875e-06
-1.60555e-22
-9.02555e-23
1.875e-06
4.67326e-23
-2.0062e-22
1.875e-06
1.24881e-23
-3.12679e-22
1.875e-06
1.13871e-22
-1.50335e-22
1.875e-06
1.36875e-22
-1.95271e-23
1.09222e-22
-1.09422e-22
1.875e-06
-1.5309e-22
4.9771e-22
1.875e-06
7.65851e-23
6.83733e-22
1.875e-06
2.13935e-22
7.97119e-22
1.875e-06
-1.19944e-22
8.36694e-22
1.875e-06
-9.70889e-23
8.66658e-22
1.875e-06
-3.6596e-23
8.2674e-22
1.875e-06
7.78997e-23
7.57296e-22
1.875e-06
1.71949e-22
7.02382e-22
1.875e-06
6.76142e-23
5.46387e-22
1.875e-06
-5.7043e-24
4.46181e-22
1.875e-06
5.69303e-23
5.18374e-22
1.875e-06
1.91966e-22
5.51707e-22
1.875e-06
7.85489e-23
5.01432e-22
1.875e-06
-1.27148e-22
3.10463e-22
1.875e-06
-1.14601e-22
4.65961e-22
1.875e-06
-6.31564e-23
5.38933e-22
1.875e-06
-1.08139e-23
4.67002e-22
1.875e-06
1.24208e-22
3.93321e-22
1.875e-06
8.3154e-23
2.56428e-22
1.875e-06
2.06921e-23
1.58429e-22
1.875e-06
1.37145e-22
1.93345e-22
1.875e-06
2.82149e-24
2.0351e-22
1.875e-06
-5.00914e-23
1.60855e-22
1.875e-06
-1.10705e-22
1.56651e-22
1.875e-06
-1.75691e-22
3.30911e-22
1.875e-06
2.05211e-23
1.90526e-22
1.875e-06
1.66809e-22
3.51872e-23
1.875e-06
-4.15423e-23
-9.7454e-23
1.875e-06
-9.58191e-23
-7.25505e-23
1.875e-06
1.79287e-23
-2.38214e-23
1.875e-06
3.48049e-23
-1.93405e-23
1.875e-06
6.74177e-23
-2.24071e-23
1.875e-06
4.40095e-23
-1.08904e-22
1.875e-06
-5.01185e-24
4.4756e-23
1.875e-06
-1.17565e-22
-7.39838e-23
1.875e-06
1.0053e-23
-1.46676e-22
1.875e-06
1.49015e-22
-2.22418e-22
1.875e-06
1.85691e-22
-1.58293e-22
1.875e-06
1.55229e-22
-1.20118e-24
8.67379e-23
-2.28524e-22
1.875e-06
-5.53564e-23
6.21095e-22
1.875e-06
-1.61584e-22
6.54414e-22
1.875e-06
-8.14608e-23
6.68611e-22
1.875e-06
5.60066e-23
9.01911e-22
1.875e-06
9.44512e-23
9.1252e-22
1.875e-06
-9.11895e-24
7.92885e-22
1.875e-06
-1.05999e-23
7.49928e-22
1.875e-06
5.9189e-23
6.46496e-22
1.875e-06
3.70479e-23
5.48142e-22
1.875e-06
-1.38732e-22
5.66755e-22
1.875e-06
4.74892e-23
5.57798e-22
1.875e-06
1.03689e-22
4.96543e-22
1.875e-06
-3.19679e-24
4.83932e-22
1.875e-06
-3.43225e-23
5.27369e-22
1.875e-06
1.0854e-23
5.20523e-22
1.875e-06
-2.39371e-23
5.11489e-22
1.875e-06
-3.66888e-23
3.09367e-22
1.875e-06
2.6793e-23
2.46863e-22
1.875e-06
2.45484e-23
2.92479e-22
1.875e-06
1.27726e-22
2.44371e-22
1.875e-06
5.90429e-23
1.30116e-22
1.875e-06
6.20509e-23
2.7457e-22
1.875e-06
-4.92052e-23
2.85414e-22
1.875e-06
-2.09453e-22
1.3012e-22
1.875e-06
-9.59197e-23
3.05754e-22
1.875e-06
2.39292e-23
1.62398e-22
1.875e-06
2.64941e-23
-6.82729e-23
1.875e-06
-9.47662e-23
-7.61365e-23
1.875e-06
-9.18253e-23
-6.45927e-23
1.875e-06
-3.88388e-23
6.06374e-24
1.875e-06
1.87316e-22
6.24458e-23
1.875e-06
1.65578e-22
-2.35238e-23
1.875e-06
2.22915e-23
-2.71818e-22
1.875e-06
-4.38536e-23
-6.36643e-23
1.875e-06
-8.0889e-23
6.88137e-23
1.875e-06
-1.22182e-23
-7.36262e-23
1.875e-06
8.82775e-23
-1.60801e-22
1.875e-06
8.65853e-23
-1.97758e-22
1.875e-06
1.38756e-22
-2.2059e-22
9.66514e-23
-2.34258e-22
1.875e-06
-9.16172e-23
5.25078e-22
1.875e-06
-1.70568e-22
6.98155e-22
1.875e-06
-5.4031e-23
8.91456e-22
1.875e-06
1.55185e-23
8.91797e-22
1.875e-06
-3.50328e-23
8.27568e-22
1.875e-06
2.452e-23
8.70393e-22
1.875e-06
1.33993e-23
7.62067e-22
1.875e-06
2.82804e-23
6.63938e-22
1.875e-06
-3.6693e-23
5.85333e-22
1.875e-06
3.52613e-23
6.66549e-22
1.875e-06
-1.47071e-23
5.95319e-22
1.875e-06
3.14944e-23
5.45923e-22
1.875e-06
-9.7793e-23
6.47205e-22
1.875e-06
1.76151e-23
5.5022e-22
1.875e-06
-1.12761e-23
4.26278e-22
1.875e-06
-7.08257e-23
3.91497e-22
1.875e-06
1.07299e-23
3.20731e-22
1.875e-06
-3.79648e-23
2.79772e-22
1.875e-06
6.21432e-23
2.84191e-22
1.875e-06
1.12174e-22
1.86346e-22
1.875e-06
6.55075e-23
1.51741e-22
1.875e-06
2.58185e-23
2.83144e-22
1.875e-06
-2.13702e-23
3.15429e-22
1.875e-06
-1.22942e-22
2.20098e-22
1.875e-06
-5.148e-23
1.75241e-22
1.875e-06
-7.57723e-23
1.67391e-22
1.875e-06
-1.02214e-22
-1.60779e-23
1.875e-06
-1.53397e-22
-1.33961e-23
1.875e-06
-1.30566e-22
9.00472e-24
1.875e-06
7.68884e-23
-6.4493e-24
1.875e-06
6.74571e-23
-2.2029e-22
1.875e-06
9.29948e-23
-1.6877e-22
1.875e-06
2.41099e-23
-1.60061e-22
1.875e-06
9.79304e-23
-2.52999e-23
1.875e-06
1.9283e-22
1.17348e-22
1.875e-06
3.5518e-23
1.27307e-23
1.875e-06
3.70064e-23
-1.55391e-22
1.875e-06
1.1805e-22
-2.42517e-22
1.875e-06
-2.91838e-23
-2.39661e-22
9.09141e-23
-2.14907e-22
1.875e-06
-9.55362e-23
4.70385e-22
1.875e-06
-7.92132e-23
7.99628e-22
1.875e-06
2.16778e-23
8.74151e-22
1.875e-06
-1.14976e-23
8.85655e-22
1.875e-06
-8.62196e-24
9.3014e-22
1.875e-06
-9.45172e-23
9.14547e-22
1.875e-06
1.37335e-23
7.84391e-22
1.875e-06
-8.51649e-23
6.46295e-22
1.875e-06
-2.81344e-23
6.28229e-22
1.875e-06
7.70526e-24
6.7137e-22
1.875e-06
2.43346e-23
6.19486e-22
1.875e-06
-3.19585e-23
5.80812e-22
1.875e-06
8.85359e-23
7.04885e-22
1.875e-06
1.94947e-23
6.12104e-22
1.875e-06
-8.48484e-23
4.0806e-22
1.875e-06
-1.68612e-23
2.58706e-22
1.875e-06
1.39055e-23
2.95851e-22
1.875e-06
1.19471e-23
3.0707e-22
1.875e-06
-3.33547e-23
3.48653e-22
1.875e-06
1.2186e-22
2.13661e-22
1.875e-06
5.35626e-23
1.44208e-22
1.875e-06
5.84923e-23
1.9009e-22
1.875e-06
-7.73731e-23
1.96672e-22
1.875e-06
-3.73442e-23
2.24816e-22
1.875e-06
-1.069e-22
1.64954e-22
1.875e-06
-3.30362e-23
1.90843e-22
1.875e-06
-8.52344e-23
2.3933e-23
1.875e-06
-1.19169e-22
8.04163e-23
1.875e-06
-6.4565e-23
1.3209e-22
1.875e-06
-8.57821e-23
-3.66198e-23
1.875e-06
-9.42706e-23
-1.66961e-22
1.875e-06
1.08805e-22
-2.07815e-22
1.875e-06
1.34185e-22
-1.16655e-22
1.875e-06
1.16114e-22
-6.85158e-23
1.875e-06
1.4941e-22
3.13491e-23
1.875e-06
1.29971e-22
2.29831e-23
1.875e-06
7.19147e-25
-1.26599e-22
1.875e-06
-1.49643e-22
-3.31575e-22
1.875e-06
-1.00608e-22
-2.73965e-22
-5.39969e-23
-2.75863e-22
1.875e-06
-8.59497e-23
5.432e-22
1.875e-06
-1.84739e-22
7.99235e-22
1.875e-06
-2.42759e-22
9.00813e-22
1.875e-06
-2.84438e-23
8.89663e-22
1.875e-06
8.20485e-23
8.97184e-22
1.875e-06
6.14137e-23
9.82542e-22
1.875e-06
-1.23198e-22
7.65694e-22
1.875e-06
-1.12529e-22
6.61448e-22
1.875e-06
-3.2781e-23
7.24616e-22
1.875e-06
1.93704e-23
7.9719e-22
1.875e-06
-4.70395e-24
5.94989e-22
1.875e-06
5.06944e-23
6.06969e-22
1.875e-06
2.34843e-23
6.26371e-22
1.875e-06
3.2246e-23
6.10148e-22
1.875e-06
6.09865e-23
5.54874e-22
1.875e-06
3.8021e-23
3.40544e-22
1.875e-06
2.23935e-23
3.32996e-22
1.875e-06
1.28486e-22
2.15037e-22
1.875e-06
2.26661e-22
1.9559e-22
1.875e-06
9.11862e-24
9.64306e-23
1.875e-06
-1.26816e-22
1.20362e-22
1.875e-06
-1.75608e-22
2.20659e-22
1.875e-06
-2.42054e-23
2.8259e-22
1.875e-06
-2.76581e-23
2.26337e-22
1.875e-06
-1.9056e-23
1.96229e-22
1.875e-06
-1.30796e-22
7.36753e-23
1.875e-06
-9.63242e-23
2.79889e-23
1.875e-06
-6.58157e-23
4.93986e-23
1.875e-06
-5.36654e-23
1.29991e-22
1.875e-06
4.67797e-24
1.91597e-23
1.875e-06
7.9727e-23
-1.03311e-22
1.875e-06
-2.21833e-23
-1.6651e-22
1.875e-06
3.71163e-23
-1.48257e-22
1.875e-06
1.6526e-22
-3.96917e-23
1.875e-06
1.22983e-22
4.1356e-23
1.875e-06
-1.57299e-23
-5.90846e-23
1.875e-06
-8.4361e-23
-1.02389e-22
1.875e-06
-1.98301e-23
-2.54098e-22
1.875e-06
9.66031e-23
-2.63008e-22
1.14803e-23
-3.0571e-22
1.875e-06
-6.87342e-23
5.93413e-22
1.875e-06
-9.71059e-23
9.17119e-22
1.875e-06
-6.38694e-23
9.70118e-22
1.875e-06
-2.84941e-23
9.6248e-22
1.875e-06
-2.72398e-23
8.25177e-22
1.875e-06
-6.64159e-23
8.50961e-22
1.875e-06
-9.23332e-23
8.42086e-22
1.875e-06
-2.43347e-23
7.53266e-22
1.875e-06
-6.77865e-24
7.26111e-22
1.875e-06
-2.32864e-23
7.93375e-22
1.875e-06
2.41951e-24
6.86238e-22
1.875e-06
7.70533e-23
6.12416e-22
1.875e-06
1.604e-23
6.77133e-22
1.875e-06
3.01842e-24
6.32922e-22
1.875e-06
1.2299e-22
5.23266e-22
1.875e-06
6.64453e-23
3.39527e-22
1.875e-06
-4.42151e-23
3.59575e-22
1.875e-06
-7.7436e-23
7.10683e-23
1.875e-06
5.27611e-23
2.86265e-24
1.875e-06
-5.585e-23
9.78414e-23
1.875e-06
-5.98057e-23
1.86622e-22
1.875e-06
-1.06055e-23
3.84123e-22
1.875e-06
-2.21483e-23
3.38554e-22
1.875e-06
-5.77272e-23
2.5325e-22
1.875e-06
4.11324e-24
9.76796e-23
1.875e-06
-3.57134e-23
7.2123e-23
1.875e-06
1.12077e-22
1.34591e-22
1.875e-06
1.01101e-22
1.47776e-22
1.875e-06
-1.3343e-23
1.49184e-22
1.875e-06
-1.55406e-24
1.99058e-24
1.875e-06
-1.90479e-22
-7.42217e-23
1.875e-06
-5.13798e-23
-7.27763e-23
1.875e-06
-1.03109e-23
-1.5386e-22
1.875e-06
1.80709e-23
-6.98307e-23
1.875e-06
4.26417e-23
7.86902e-24
1.875e-06
1.06694e-22
-9.52459e-23
1.875e-06
8.80676e-23
-8.2192e-23
1.875e-06
-9.0199e-23
-2.06629e-22
1.875e-06
-1.37604e-22
-3.36812e-22
-2.74343e-23
-4.0634e-22
1.875e-06
6.60028e-23
6.73404e-22
1.875e-06
1.6799e-23
9.41532e-22
1.875e-06
-1.19323e-22
8.61273e-22
1.875e-06
-7.19085e-23
8.51623e-22
1.875e-06
-1.72385e-23
9.18168e-22
1.875e-06
-1.03494e-23
8.51465e-22
1.875e-06
-6.33894e-23
8.07367e-22
1.875e-06
-2.20551e-22
7.54124e-22
1.875e-06
-9.68159e-23
7.35105e-22
1.875e-06
1.1001e-22
9.14711e-22
1.875e-06
-7.32596e-23
6.68241e-22
1.875e-06
3.7483e-22
6.26155e-22
1.875e-06
5.33628e-23
6.51201e-22
1.875e-06
1.21104e-23
6.45382e-22
1.875e-06
1.04416e-23
5.66652e-22
1.875e-06
-4.87821e-23
3.82009e-22
1.875e-06
-9.79744e-24
2.31564e-22
1.875e-06
-6.18611e-23
6.99523e-23
1.875e-06
-1.25211e-22
3.89743e-23
1.875e-06
-8.60936e-23
1.88448e-22
1.875e-06
-1.16261e-22
1.32108e-22
1.875e-06
-8.5548e-23
3.33339e-22
1.875e-06
-6.77026e-23
4.18642e-22
1.875e-06
8.38792e-23
1.49158e-22
1.875e-06
1.87716e-22
1.439e-22
1.875e-06
7.57281e-23
1.40912e-22
1.875e-06
-8.64528e-23
2.70215e-23
1.875e-06
5.95664e-23
2.37415e-23
1.875e-06
-1.05686e-22
9.15822e-23
1.875e-06
7.4026e-23
-9.419e-23
1.875e-06
-4.27254e-23
5.67964e-23
1.875e-06
-1.32004e-22
4.76845e-24
1.875e-06
1.29893e-22
-5.33887e-23
1.875e-06
-8.45677e-23
-2.24837e-23
1.875e-06
-3.42918e-23
-3.03193e-23
1.875e-06
6.58704e-23
-3.71743e-23
1.875e-06
2.95222e-23
-1.5926e-22
1.875e-06
6.62815e-23
-2.63218e-22
1.875e-06
-9.66529e-23
-4.24472e-22
-1.3347e-22
-3.90801e-22
1.875e-06
1.06065e-22
5.91069e-22
1.875e-06
9.79754e-23
8.84326e-22
1.875e-06
-1.08608e-22
9.09343e-22
1.875e-06
-1.6058e-22
7.93047e-22
1.875e-06
-3.66442e-23
8.45122e-22
1.875e-06
-9.38485e-24
9.60383e-22
1.875e-06
2.04264e-23
8.15786e-22
1.875e-06
6.89986e-24
7.58549e-22
1.875e-06
-9.27644e-23
7.52153e-22
1.875e-06
2.42181e-23
8.47302e-22
1.875e-06
6.9132e-23
6.90673e-22
1.875e-06
-2.01228e-23
6.81203e-22
1.875e-06
-2.69224e-24
6.68578e-22
1.875e-06
1.57932e-22
5.83736e-22
1.875e-06
8.99903e-24
5.04727e-22
1.875e-06
-8.35808e-23
3.98287e-22
1.875e-06
-1.31125e-22
1.81684e-22
1.875e-06
-1.53739e-22
6.38004e-23
1.875e-06
-1.58004e-22
1.87323e-22
1.875e-06
-1.31901e-22
1.47206e-22
1.875e-06
1.41872e-23
2.41003e-22
1.875e-06
-8.24115e-23
2.38618e-22
1.875e-06
-2.24463e-23
3.49965e-22
1.875e-06
8.60866e-23
1.50944e-22
1.875e-06
4.58347e-23
9.63233e-23
1.875e-06
1.08158e-22
1.97386e-22
1.875e-06
5.9806e-23
1.12004e-22
1.875e-06
2.78836e-23
-8.96707e-23
1.875e-06
-2.52663e-23
-7.54265e-24
1.875e-06
-3.84417e-24
-9.42914e-24
1.875e-06
6.32806e-23
3.80546e-23
1.875e-06
7.59787e-23
5.48511e-23
1.875e-06
-3.03579e-23
-1.48202e-22
1.875e-06
-2.06081e-24
3.00015e-23
1.875e-06
1.10197e-23
-7.63212e-24
1.875e-06
8.13588e-23
-5.35824e-23
1.875e-06
-5.69649e-23
-8.25425e-23
1.875e-06
-9.92364e-23
-2.65425e-22
1.875e-06
-1.89105e-22
-5.2093e-22
-2.06842e-22
-4.48834e-22
1.875e-06
7.52219e-23
5.74698e-22
1.875e-06
4.06313e-24
8.46803e-22
1.875e-06
4.15459e-23
9.40297e-22
1.875e-06
-1.32813e-22
8.72016e-22
1.875e-06
-1.83881e-22
7.62633e-22
1.875e-06
5.14907e-23
8.46722e-22
1.875e-06
-1.12754e-22
7.99459e-22
1.875e-06
9.02354e-24
7.30034e-22
1.875e-06
1.01063e-22
8.78468e-22
1.875e-06
1.02312e-23
8.40154e-22
1.875e-06
-1.14452e-22
6.83181e-22
1.875e-06
8.1717e-24
5.97193e-22
1.875e-06
4.03812e-23