/*--------------------------------*- C++ -*----------------------------------*\
| =========                 |                                                 |
| \\      /  F ield         | OpenFOAM: The Open Source CFD Toolbox           |
|  \\    /   O peration     | Version:  v2012                                 |
|   \\  /    A nd           | Website:  www.openfoam.com                      |
|    \\/     M anipulation  |                                                 |
\*---------------------------------------------------------------------------*/
FoamFile
{
    version     2.0;
    format      ascii;
    class       volVectorField;
    location    "13";
    object      U;
}
// * * * * * * * * * * * * * * * * * * * * * * * * * * * * * * * * * * * * * //

dimensions      [0 1 -1 0 0 0 0];


internalField   nonuniform List<vector> 
64000
(
(0.003 1.49664e-19 1.47749e-19)
(0.003 2.27412e-19 2.24372e-19)
(0.003 3.01192e-19 3.32009e-19)
(0.003 3.18243e-19 3.46689e-19)
(0.003 3.71341e-19 3.13169e-19)
(0.003 3.35974e-19 2.65602e-19)
(0.003 2.23473e-19 2.12337e-19)
(0.003 6.19379e-20 1.49911e-19)
(0.003 1.65521e-19 2.39815e-19)
(0.003 3.03864e-19 2.08966e-19)
(0.003 2.34011e-19 1.6856e-19)
(0.003 2.16497e-19 2.50747e-19)
(0.003 1.56964e-19 1.89119e-19)
(0.003 1.5598e-19 1.71306e-19)
(0.003 1.3022e-19 2.36806e-19)
(0.003 1.89412e-19 1.92498e-19)
(0.003 1.29988e-19 1.23086e-19)
(0.003 1.36332e-20 1.1633e-19)
(0.003 4.48563e-20 -1.02038e-19)
(0.003 8.46626e-20 -2.21099e-19)
(0.003 -1.53766e-19 -1.83401e-19)
(0.003 -3.29368e-20 1.94106e-20)
(0.003 8.53544e-20 7.49819e-20)
(0.003 3.0057e-19 6.51865e-20)
(0.003 3.08794e-19 9.60299e-20)
(0.003 1.06675e-19 1.18856e-19)
(0.003 -1.87053e-20 1.30755e-19)
(0.003 9.76273e-20 1.20198e-19)
(0.003 9.76331e-20 1.3433e-19)
(0.003 -9.34419e-20 1.98089e-19)
(0.003 -2.03473e-19 2.76622e-19)
(0.003 -4.12678e-20 1.18416e-19)
(0.003 1.04492e-19 7.54373e-20)
(0.003 6.25129e-20 6.93315e-20)
(0.003 -1.84844e-20 -1.01253e-20)
(0.003 -1.24773e-19 -1.60583e-19)
(0.003 -2.18823e-19 -2.799e-19)
(0.003 -1.68181e-19 -1.66703e-19)
(0.003 -3.86576e-20 9.43575e-20)
(0.003 -3.74009e-20 5.40061e-20)
(0.003 2.06457e-19 2.58111e-19)
(0.003 2.76876e-19 5.14446e-19)
(0.003 4.87795e-19 7.47279e-19)
(0.003 3.78744e-19 7.19669e-19)
(0.003 2.5326e-19 5.53042e-19)
(0.003 3.98291e-19 5.73917e-19)
(0.003 3.27886e-19 4.59802e-19)
(0.003 2.55584e-19 3.12302e-19)
(0.003 1.56972e-19 3.98207e-19)
(0.003 1.43128e-19 4.58685e-19)
(0.003 2.65517e-19 4.31772e-19)
(0.003 2.85946e-19 4.13931e-19)
(0.003 1.04267e-19 3.41109e-19)
(0.003 -1.85501e-21 3.08782e-19)
(0.003 3.81712e-20 3.40165e-19)
(0.003 4.16253e-20 2.72618e-19)
(0.003 2.06091e-19 1.51946e-19)
(0.003 1.96382e-19 1.44067e-19)
(0.003 1.64006e-19 1.95504e-20)
(0.003 1.74013e-19 -1.37712e-19)
(0.003 7.90526e-21 -5.20379e-20)
(0.003 -1.10799e-19 9.60018e-20)
(0.003 3.40764e-20 7.31487e-20)
(0.003 1.68851e-19 1.90243e-19)
(0.003 9.69518e-21 2.21877e-19)
(0.003 4.20819e-21 1.28567e-19)
(0.003 7.98449e-20 8.26943e-20)
(0.003 6.35448e-20 1.47149e-19)
(0.003 -3.40738e-20 1.93242e-19)
(0.003 -1.22328e-19 8.89767e-20)
(0.003 -2.14247e-19 1.4509e-19)
(0.003 -3.47579e-20 1.60289e-19)
(0.003 1.13614e-20 2.06979e-19)
(0.003 -1.04376e-19 6.43814e-20)
(0.003 -1.70727e-19 -9.27316e-21)
(0.003 -3.41198e-19 -1.38391e-19)
(0.003 -2.50114e-19 -2.66326e-19)
(0.003 2.95205e-20 -1.1683e-19)
(0.003 1.0177e-19 7.87904e-20)
(0.003 8.6198e-20 1.45619e-20)
(0.003 2.25415e-19 3.4549e-19)
(0.003 3.05671e-19 5.01221e-19)
(0.003 2.50638e-19 7.36443e-19)
(0.003 3.04018e-19 7.83909e-19)
(0.003 2.96165e-19 6.81289e-19)
(0.003 2.96368e-19 6.58361e-19)
(0.003 2.69723e-19 5.9192e-19)
(0.003 2.82499e-19 5.24736e-19)
(0.003 2.32883e-19 4.99929e-19)
(0.003 1.28499e-19 4.54152e-19)
(0.003 1.12547e-19 4.60591e-19)
(0.003 1.09385e-19 4.84023e-19)
(0.003 1.69968e-19 2.95597e-19)
(0.003 1.10252e-19 2.85326e-19)
(0.003 4.02159e-20 3.25134e-19)
(0.003 -4.37086e-21 2.78995e-19)
(0.003 8.4654e-20 2.92308e-19)
(0.003 2.24268e-19 1.7634e-19)
(0.003 2.07747e-19 -5.54373e-20)
(0.003 7.36376e-20 -1.43133e-19)
(0.003 -2.89953e-20 4.88115e-20)
(0.003 -8.77968e-20 1.76318e-19)
(0.003 6.48216e-20 1.97311e-19)
(0.003 9.47279e-20 2.35007e-19)
(0.003 -4.77368e-20 1.99833e-19)
(0.003 2.41739e-20 1.35118e-19)
(0.003 6.40109e-20 1.3931e-19)
(0.003 -7.64663e-20 2.3632e-19)
(0.003 -3.34329e-20 2.02925e-19)
(0.003 4.8201e-20 1.62245e-19)
(0.003 -5.21028e-20 1.5076e-19)
(0.003 -4.29816e-20 2.14003e-19)
(0.003 -6.67312e-20 9.28129e-20)
(0.003 -2.28724e-19 -5.73456e-23)
(0.003 -2.68034e-19 9.73555e-20)
(0.003 -2.07736e-19 -9.17656e-20)
(0.003 -8.9312e-20 -1.75306e-19)
(0.003 1.02524e-19 -2.23977e-19)
(0.003 1.68657e-19 -9.03476e-20)
(0.003 1.12878e-19 -6.57037e-20)
(0.003 3.58064e-19 3.94516e-19)
(0.003 3.89758e-19 7.12065e-19)
(0.003 2.01958e-19 7.94969e-19)
(0.003 2.70281e-19 8.36546e-19)
(0.003 3.20735e-19 8.28891e-19)
(0.003 2.42875e-19 8.2394e-19)
(0.003 2.26359e-19 6.40562e-19)
(0.003 2.03878e-19 4.95042e-19)
(0.003 2.15602e-19 5.76728e-19)
(0.003 2.41133e-19 5.36583e-19)
(0.003 1.60748e-19 4.85688e-19)
(0.003 5.31137e-20 4.60407e-19)
(0.003 6.84108e-20 3.50907e-19)
(0.003 4.08665e-20 3.02527e-19)
(0.003 2.01649e-19 3.60981e-19)
(0.003 2.63694e-19 3.08474e-19)
(0.003 8.61578e-20 2.46872e-19)
(0.003 -5.07307e-20 2.43383e-19)
(0.003 -5.9214e-20 -2.40123e-20)
(0.003 -5.89501e-20 -1.06328e-19)
(0.003 -8.26713e-21 1.16459e-19)
(0.003 1.35092e-19 2.05081e-19)
(0.003 2.13704e-19 2.75342e-19)
(0.003 1.24852e-19 2.93438e-19)
(0.003 7.98313e-20 2.43555e-19)
(0.003 1.98672e-20 1.69425e-19)
(0.003 -3.93325e-20 7.42627e-20)
(0.003 -5.78753e-20 3.65313e-20)
(0.003 3.70971e-20 2.36342e-19)
(0.003 6.57088e-21 2.6148e-19)
(0.003 -7.24188e-20 1.23863e-19)
(0.003 -5.93247e-20 1.49435e-19)
(0.003 -5.94371e-20 1.48579e-19)
(0.003 -1.16998e-19 1.37586e-20)
(0.003 -7.59572e-20 -4.56256e-20)
(0.003 -3.35696e-20 -6.79414e-20)
(0.003 4.50288e-21 -1.76949e-20)
(0.003 6.39844e-20 -3.3509e-20)
(0.003 1.04893e-19 -8.98692e-20)
(0.003 7.60904e-20 -7.55931e-20)
(0.003 1.72765e-19 4.97381e-19)
(0.003 2.15675e-19 8.10839e-19)
(0.003 1.4985e-19 8.92956e-19)
(0.003 1.39449e-19 8.62119e-19)
(0.003 1.90934e-19 9.52763e-19)
(0.003 1.26574e-19 8.66369e-19)
(0.003 1.75131e-19 6.82407e-19)
(0.003 2.70875e-19 5.153e-19)
(0.003 2.39147e-19 5.26345e-19)
(0.003 2.14613e-19 6.39466e-19)
(0.003 1.90536e-19 5.97731e-19)
(0.003 9.71175e-20 4.57251e-19)
(0.003 4.89151e-20 3.30611e-19)
(0.003 7.35807e-20 3.22262e-19)
(0.003 1.30316e-19 4.05839e-19)
(0.003 1.59513e-19 4.42238e-19)
(0.003 3.76643e-20 3.00488e-19)
(0.003 -1.78799e-19 1.86863e-19)
(0.003 -1.98302e-19 4.79174e-20)
(0.003 -1.29348e-19 -1.12714e-20)
(0.003 2.56834e-20 6.44792e-20)
(0.003 2.02832e-19 1.86119e-19)
(0.003 2.62243e-19 3.61069e-19)
(0.003 1.38908e-19 3.26256e-19)
(0.003 8.95452e-20 3.04197e-19)
(0.003 3.66564e-20 1.88463e-19)
(0.003 6.47903e-21 6.04629e-20)
(0.003 1.28726e-20 1.25768e-19)
(0.003 -4.23919e-21 2.44717e-19)
(0.003 1.3029e-20 1.76283e-19)
(0.003 1.04046e-19 7.14854e-20)
(0.003 5.42026e-20 1.43646e-19)
(0.003 -9.58896e-20 1.54783e-20)
(0.003 -1.04133e-19 -1.13239e-19)
(0.003 -2.78683e-20 -8.51878e-20)
(0.003 -4.87235e-20 -5.18502e-20)
(0.003 -5.18388e-21 2.15355e-20)
(0.003 8.15128e-20 3.48557e-20)
(0.003 6.4957e-20 3.17584e-20)
(0.003 6.16427e-20 -7.60439e-20)
(0.003 -9.77535e-21 6.11103e-19)
(0.003 1.3606e-19 8.90351e-19)
(0.003 1.31e-19 8.87043e-19)
(0.003 1.01053e-19 9.50765e-19)
(0.003 1.23334e-19 9.98195e-19)
(0.003 1.22213e-19 8.39598e-19)
(0.003 1.42493e-19 6.88312e-19)
(0.003 3.38867e-19 7.1009e-19)
(0.003 3.07409e-19 6.50726e-19)
(0.003 1.57553e-19 5.71748e-19)
(0.003 1.82866e-19 6.05331e-19)
(0.003 1.18223e-19 5.83256e-19)
(0.003 1.05959e-19 3.64267e-19)
(0.003 1.75045e-19 2.9541e-19)
(0.003 6.35072e-20 4.44437e-19)
(0.003 -1.27613e-19 4.67227e-19)
(0.003 -1.73291e-19 3.06809e-19)
(0.003 -1.50758e-19 1.77638e-19)
(0.003 -1.99494e-19 1.14447e-19)
(0.003 -2.21772e-19 3.80607e-20)
(0.003 5.40411e-20 1.15137e-19)
(0.003 2.60675e-19 2.36131e-19)
(0.003 2.21924e-19 3.16283e-19)
(0.003 1.4825e-19 3.17263e-19)
(0.003 1.58205e-19 2.14367e-19)
(0.003 1.1505e-19 1.85669e-19)
(0.003 1.16528e-19 1.46565e-19)
(0.003 -5.86629e-20 1.34411e-19)
(0.003 -1.76125e-19 2.26288e-19)
(0.003 -8.52265e-21 2.94094e-19)
(0.003 2.51467e-19 2.60039e-19)
(0.003 1.40987e-19 5.31869e-20)
(0.003 -7.53768e-20 -2.46346e-19)
(0.003 -1.71373e-20 -1.9621e-19)
(0.003 -1.08413e-19 -1.06491e-19)
(0.003 -4.98793e-20 -1.03221e-19)
(0.003 -1.00168e-20 1.04745e-20)
(0.003 8.18447e-20 3.23018e-20)
(0.003 1.41489e-19 -6.11521e-20)
(0.003 1.27625e-19 -1.55908e-19)
(0.003 1.45858e-21 7.47252e-19)
(0.003 1.1143e-19 1.08527e-18)
(0.003 1.87081e-19 9.81256e-19)
(0.003 1.36443e-19 9.439e-19)
(0.003 1.57877e-19 1.00839e-18)
(0.003 9.0167e-20 9.05623e-19)
(0.003 1.68038e-19 7.3973e-19)
(0.003 3.02921e-19 6.88404e-19)
(0.003 2.44144e-19 6.89025e-19)
(0.003 1.68747e-19 7.18898e-19)
(0.003 1.74308e-19 7.24971e-19)
(0.003 1.70212e-19 5.79986e-19)
(0.003 1.43253e-19 3.75804e-19)
(0.003 1.52482e-19 3.48059e-19)
(0.003 4.71758e-20 4.59171e-19)
(0.003 -4.53675e-20 4.5485e-19)
(0.003 -1.09974e-19 2.23289e-19)
(0.003 -6.89625e-20 1.35202e-19)
(0.003 -1.39528e-19 1.44444e-19)
(0.003 -1.77025e-19 1.18558e-19)
(0.003 8.50643e-20 1.51508e-19)
(0.003 1.95488e-19 3.11357e-19)
(0.003 1.63926e-19 3.88916e-19)
(0.003 9.98917e-20 4.16888e-19)
(0.003 7.1934e-20 3.3311e-19)
(0.003 9.86611e-20 2.03354e-19)
(0.003 4.72131e-21 1.71599e-19)
(0.003 -9.45255e-20 1.02522e-19)
(0.003 -1.23139e-19 1.18195e-19)
(0.003 -3.12532e-20 1.70092e-19)
(0.003 1.47783e-19 2.21405e-19)
(0.003 1.23379e-19 8.79012e-20)
(0.003 1.36924e-19 -1.8934e-19)
(0.003 1.69401e-19 -7.31428e-20)
(0.003 2.05147e-20 -8.00197e-20)
(0.003 5.19809e-21 -1.29393e-19)
(0.003 -5.10933e-21 -9.83655e-20)
(0.003 -5.03513e-21 -6.09409e-20)
(0.003 5.89344e-20 -1.07756e-19)
(0.003 7.45085e-20 -2.52926e-19)
(0.003 1.8339e-19 6.03496e-19)
(0.003 1.57802e-19 9.48391e-19)
(0.003 2.3362e-19 1.05373e-18)
(0.003 2.35579e-19 1.09314e-18)
(0.003 1.1142e-19 1.11188e-18)
(0.003 1.20714e-19 9.26778e-19)
(0.003 2.2434e-19 8.49473e-19)
(0.003 1.93122e-19 9.04345e-19)
(0.003 1.5978e-19 8.20113e-19)
(0.003 2.34899e-19 7.01296e-19)
(0.003 1.26664e-19 7.12212e-19)
(0.003 1.18503e-19 6.41083e-19)
(0.003 8.87182e-20 4.22325e-19)
(0.003 1.13084e-19 3.90424e-19)
(0.003 8.23598e-20 4.62475e-19)
(0.003 7.37748e-20 3.9887e-19)
(0.003 6.2068e-20 2.0289e-19)
(0.003 3.5099e-20 1.00798e-19)
(0.003 7.62849e-20 1.35228e-19)
(0.003 4.545e-20 1.73041e-19)
(0.003 4.2079e-20 2.02918e-19)
(0.003 1.246e-19 3.83038e-19)
(0.003 1.72089e-20 4.47529e-19)
(0.003 -4.27248e-21 4.19663e-19)
(0.003 -2.87669e-20 3.6946e-19)
(0.003 5.99293e-20 2.05563e-19)
(0.003 3.18322e-20 1.01148e-19)
(0.003 -3.10511e-20 9.57739e-20)
(0.003 -6.82292e-20 1.52442e-19)
(0.003 -3.67896e-20 2.16965e-19)
(0.003 -1.13623e-19 3.00416e-19)
(0.003 4.47037e-21 1.36234e-19)
(0.003 3.26335e-19 -1.98159e-20)
(0.003 2.99491e-19 -1.82552e-20)
(0.003 1.76254e-19 -1.06573e-19)
(0.003 2.24344e-20 -2.87842e-19)
(0.003 -4.63538e-20 -4.06898e-19)
(0.003 -9.2655e-20 -2.34098e-19)
(0.003 -1.42689e-19 -8.46148e-20)
(0.003 -7.02811e-20 -9.94901e-20)
(0.003 8.27953e-21 6.08403e-19)
(0.003 9.94372e-20 1.08861e-18)
(0.003 1.42042e-19 1.16094e-18)
(0.003 2.07937e-19 1.18373e-18)
(0.003 1.35903e-19 1.10565e-18)
(0.003 1.91696e-19 9.91484e-19)
(0.003 1.97722e-19 9.88135e-19)
(0.003 1.03761e-19 8.76194e-19)
(0.003 9.4908e-20 8.29907e-19)
(0.003 1.09624e-19 8.55784e-19)
(0.003 5.13413e-20 7.31388e-19)
(0.003 -1.31272e-20 6.12292e-19)
(0.003 -5.76831e-21 4.41304e-19)
(0.003 5.69977e-20 4.7928e-19)
(0.003 1.01595e-19 4.75692e-19)
(0.003 1.33245e-19 4.16348e-19)
(0.003 1.71395e-19 2.76402e-19)
(0.003 1.16379e-19 1.40026e-19)
(0.003 1.23861e-19 1.82404e-19)
(0.003 7.13105e-20 1.65361e-19)
(0.003 5.04604e-21 1.98378e-19)
(0.003 6.86156e-20 4.24661e-19)
(0.003 4.43726e-20 4.86455e-19)
(0.003 9.01978e-20 5.00802e-19)
(0.003 6.39542e-20 3.91112e-19)
(0.003 -3.85289e-20 2.06899e-19)
(0.003 -7.65865e-20 1.35738e-19)
(0.003 1.44165e-20 1.24286e-19)
(0.003 1.23215e-19 9.96438e-20)
(0.003 -3.05061e-20 1.1196e-19)
(0.003 -2.20965e-19 1.23065e-19)
(0.003 -1.03325e-19 1.56338e-19)
(0.003 8.08327e-20 1.61529e-19)
(0.003 1.72523e-19 -1.78694e-20)
(0.003 1.94727e-19 -1.99475e-19)
(0.003 1.33754e-19 -4.58907e-19)
(0.003 1.0276e-20 -5.02863e-19)
(0.003 -1.8141e-19 -2.98807e-19)
(0.003 -2.77329e-19 -1.65096e-19)
(0.003 -1.75219e-19 -1.3885e-19)
(0.003 -2.47653e-19 7.17116e-19)
(0.003 -2.41225e-20 1.03224e-18)
(0.003 1.41328e-19 1.21218e-18)
(0.003 2.18793e-19 1.25377e-18)
(0.003 2.06165e-19 1.20329e-18)
(0.003 1.89241e-19 1.10868e-18)
(0.003 2.66143e-19 1.05693e-18)
(0.003 1.96413e-19 9.58093e-19)
(0.003 1.02728e-19 8.12532e-19)
(0.003 9.94263e-20 7.89333e-19)
(0.003 4.73267e-20 7.38947e-19)
(0.003 -1.04575e-19 5.85996e-19)
(0.003 -2.95848e-20 4.33939e-19)
(0.003 -4.28638e-20 5.09229e-19)
(0.003 4.21018e-20 5.73224e-19)
(0.003 1.01743e-19 4.94779e-19)
(0.003 1.53859e-19 3.63523e-19)
(0.003 1.62829e-19 1.90354e-19)
(0.003 1.10681e-20 8.66493e-20)
(0.003 8.04962e-20 7.91888e-20)
(0.003 1.43665e-19 2.86182e-19)
(0.003 1.29594e-19 4.3967e-19)
(0.003 4.04829e-20 4.8376e-19)
(0.003 1.67421e-20 5.55114e-19)
(0.003 1.11168e-19 4.71363e-19)
(0.003 2.72109e-20 2.5682e-19)
(0.003 -5.54968e-20 1.17644e-19)
(0.003 -1.21298e-20 1.0119e-19)
(0.003 6.78285e-20 9.6504e-20)
(0.003 -2.763e-21 9.24092e-20)
(0.003 -5.0315e-20 4.91148e-20)
(0.003 -8.95318e-20 1.05857e-19)
(0.003 -2.45959e-19 1.82904e-19)
(0.003 -1.63425e-19 1.41207e-20)
(0.003 1.05745e-19 -2.26783e-19)
(0.003 3.80545e-19 -4.60758e-19)
(0.003 1.17389e-19 -6.42405e-19)
(0.003 -2.71078e-19 -4.15925e-19)
(0.003 -2.38051e-19 -2.47113e-19)
(0.003 -1.62431e-19 -1.79959e-19)
(0.003 6.03262e-20 7.25078e-19)
(0.003 1.53756e-19 1.14118e-18)
(0.003 1.67084e-19 1.36222e-18)
(0.003 1.99006e-19 1.35554e-18)
(0.003 2.12992e-19 1.18058e-18)
(0.003 2.41555e-19 1.08932e-18)
(0.003 2.36317e-19 1.11229e-18)
(0.003 1.43074e-19 1.02094e-18)
(0.003 1.10635e-19 8.84891e-19)
(0.003 1.60321e-19 8.04366e-19)
(0.003 1.40125e-19 7.2886e-19)
(0.003 1.12518e-20 6.07802e-19)
(0.003 6.02737e-20 4.24176e-19)
(0.003 6.53155e-20 3.98516e-19)
(0.003 1.4486e-21 5.51301e-19)
(0.003 2.44456e-20 5.98898e-19)
(0.003 4.84539e-20 4.68769e-19)
(0.003 3.86452e-20 2.7377e-19)
(0.003 1.09791e-21 1.35176e-19)
(0.003 1.11376e-19 7.11607e-20)
(0.003 2.55736e-19 2.88253e-19)
(0.003 1.38317e-19 4.96916e-19)
(0.003 -1.21157e-20 4.54043e-19)
(0.003 1.31456e-21 5.35905e-19)
(0.003 5.7928e-20 5.07164e-19)
(0.003 -2.90827e-20 2.45383e-19)
(0.003 -1.12155e-19 1.63311e-19)
(0.003 1.97006e-20 8.15938e-20)
(0.003 4.97285e-21 -4.43608e-20)
(0.003 -7.06018e-20 8.75231e-20)
(0.003 -4.06206e-20 6.94724e-20)
(0.003 -6.34117e-20 5.51336e-20)
(0.003 -2.67881e-19 5.61524e-20)
(0.003 -3.35098e-19 -4.93329e-20)
(0.003 -3.63249e-20 -1.25586e-19)
(0.003 1.0075e-19 -2.96909e-19)
(0.003 3.4073e-20 -5.39318e-19)
(0.003 -1.3031e-19 -2.90138e-19)
(0.003 -1.35572e-19 -7.57381e-20)
(0.003 -9.60862e-20 -5.57348e-20)
(0.003 2.26823e-19 8.06626e-19)
(0.003 2.59698e-19 1.27095e-18)
(0.003 1.99152e-19 1.36514e-18)
(0.003 1.04616e-19 1.2745e-18)
(0.003 1.87628e-19 1.22715e-18)
(0.003 2.19067e-19 1.20638e-18)
(0.003 1.46493e-19 1.08973e-18)
(0.003 1.10965e-19 9.67213e-19)
(0.003 1.03488e-19 8.23964e-19)
(0.003 1.00929e-19 8.71525e-19)
(0.003 1.31429e-19 8.267e-19)
(0.003 9.44555e-20 6.13818e-19)
(0.003 1.15475e-19 5.45188e-19)
(0.003 1.54394e-19 4.50832e-19)
(0.003 4.01183e-20 4.95421e-19)
(0.003 -4.24947e-20 5.95505e-19)
(0.003 -5.34232e-20 5.28475e-19)
(0.003 2.43572e-20 3.21395e-19)
(0.003 2.0174e-19 2.10137e-19)
(0.003 2.48655e-19 1.8023e-19)
(0.003 9.94222e-20 2.42015e-19)
(0.003 -1.33422e-19 4.46054e-19)
(0.003 -1.14873e-19 4.60541e-19)
(0.003 -3.293e-20 4.91279e-19)
(0.003 -8.78692e-20 5.23195e-19)
(0.003 -1.58816e-19 2.46712e-19)
(0.003 -1.19783e-19 1.65724e-19)
(0.003 3.06089e-20 1.15127e-19)
(0.003 -4.45066e-21 -1.14623e-19)
(0.003 -4.74157e-20 2.65687e-20)
(0.003 9.65901e-21 3.92708e-20)
(0.003 -1.27774e-19 -3.20046e-20)
(0.003 -1.18229e-19 -8.35347e-21)
(0.003 -8.70926e-20 -3.51956e-21)
(0.003 -1.91096e-20 -2.43929e-21)
(0.003 -1.65181e-19 -3.48195e-19)
(0.003 1.15207e-22 -5.99888e-19)
(0.003 1.90551e-19 -4.16149e-19)
(0.003 1.16634e-19 -1.29469e-19)
(0.003 3.77293e-20 -5.42385e-20)
(0.003 2.74456e-19 8.93838e-19)
(0.003 2.5613e-19 1.26325e-18)
(0.003 1.702e-19 1.27694e-18)
(0.003 1.19142e-19 1.28729e-18)
(0.003 1.03255e-19 1.30987e-18)
(0.003 1.06476e-19 1.19543e-18)
(0.003 7.14167e-20 1.03115e-18)
(0.003 7.09526e-20 9.52085e-19)
(0.003 2.09754e-19 9.60416e-19)
(0.003 2.126e-19 9.20903e-19)
(0.003 7.4089e-20 8.07925e-19)
(0.003 4.13253e-20 6.54276e-19)
(0.003 1.26164e-19 5.62124e-19)
(0.003 1.92687e-19 5.11568e-19)
(0.003 5.97229e-20 5.56136e-19)
(0.003 -5.14292e-20 6.10164e-19)
(0.003 -1.28353e-19 4.86147e-19)
(0.003 -1.10102e-19 3.02495e-19)
(0.003 4.03177e-20 2.84648e-19)
(0.003 2.00407e-19 2.17166e-19)
(0.003 1.03095e-19 2.49826e-19)
(0.003 -2.22737e-21 3.703e-19)
(0.003 1.78266e-20 3.79814e-19)
(0.003 5.44566e-21 4.7585e-19)
(0.003 -1.6675e-19 4.76935e-19)
(0.003 -1.6898e-19 2.75998e-19)
(0.003 -9.13034e-20 1.35468e-19)
(0.003 -2.92487e-21 4.45564e-20)
(0.003 5.32876e-20 -1.41783e-19)
(0.003 8.10269e-20 -1.30404e-19)
(0.003 1.87118e-20 -1.01399e-19)
(0.003 -2.02294e-19 -7.3812e-20)
(0.003 -8.32528e-20 5.82637e-20)
(0.003 -3.07252e-21 7.95759e-20)
(0.003 -1.05922e-19 -1.04031e-21)
(0.003 -2.7844e-20 -2.92132e-19)
(0.003 1.77919e-19 -4.16399e-19)
(0.003 3.30264e-19 -2.87106e-19)
(0.003 3.11621e-19 -1.08901e-19)
(0.003 1.2434e-19 -1.34622e-19)
(0.003 3.4722e-20 9.67403e-19)
(0.003 2.08359e-19 1.37483e-18)
(0.003 2.42843e-19 1.26914e-18)
(0.003 3.59726e-20 1.27542e-18)
(0.003 -1.23023e-19 1.25924e-18)
(0.003 -8.15316e-20 1.21621e-18)
(0.003 6.7797e-20 1.09173e-18)
(0.003 1.60132e-19 9.515e-19)
(0.003 1.46873e-19 8.98924e-19)
(0.003 1.3807e-19 9.67422e-19)
(0.003 1.16862e-19 8.76149e-19)
(0.003 1.93599e-19 6.54394e-19)
(0.003 1.20113e-19 6.58501e-19)
(0.003 -2.94172e-20 6.23709e-19)
(0.003 -5.75743e-20 5.81494e-19)
(0.003 -6.52403e-20 5.69404e-19)
(0.003 -6.99579e-20 4.78947e-19)
(0.003 1.97283e-20 2.88007e-19)
(0.003 5.80374e-20 1.73657e-19)
(0.003 8.23351e-20 2.09226e-19)
(0.003 1.9052e-19 2.95718e-19)
(0.003 8.46867e-20 4.06454e-19)
(0.003 3.15053e-20 4.32267e-19)
(0.003 -4.1563e-20 5.16972e-19)
(0.003 -2.22789e-19 4.79673e-19)
(0.003 -8.99611e-20 2.33856e-19)
(0.003 5.94519e-20 -1.49564e-21)
(0.003 -8.34984e-21 -7.18316e-20)
(0.003 -5.13062e-20 -2.18193e-19)
(0.003 6.56379e-20 -1.98051e-19)
(0.003 8.74696e-20 -6.11496e-20)
(0.003 2.65141e-21 6.21699e-21)
(0.003 -5.61611e-20 7.50817e-20)
(0.003 -7.35505e-20 2.64984e-20)
(0.003 -1.4587e-19 -8.93397e-21)
(0.003 1.3496e-19 -1.46818e-19)
(0.003 2.17853e-19 -3.66386e-19)
(0.003 2.24957e-19 -2.10532e-19)
(0.003 1.99396e-19 -1.16868e-19)
(0.003 1.23946e-19 -3.80883e-19)
(0.003 -1.60518e-19 9.36877e-19)
(0.003 -9.22602e-20 1.36526e-18)
(0.003 7.95478e-20 1.39061e-18)
(0.003 1.82589e-20 1.17778e-18)
(0.003 1.01519e-20 1.15327e-18)
(0.003 -5.06429e-20 1.18101e-18)
(0.003 5.21384e-20 1.15607e-18)
(0.003 1.74785e-19 1.02543e-18)
(0.003 6.00705e-20 9.3207e-19)
(0.003 -1.20086e-19 1.00755e-18)
(0.003 6.43679e-20 9.07654e-19)
(0.003 2.40789e-19 7.33528e-19)
(0.003 6.23478e-20 7.21094e-19)
(0.003 -1.32786e-19 6.00186e-19)
(0.003 -1.11079e-19 4.91719e-19)
(0.003 -9.05026e-20 5.53989e-19)
(0.003 -1.27767e-20 4.15998e-19)
(0.003 1.4335e-19 2.90499e-19)
(0.003 8.35115e-20 2.81426e-19)
(0.003 6.94314e-20 2.23023e-19)
(0.003 1.87696e-19 3.39924e-19)
(0.003 8.60177e-20 4.01187e-19)
(0.003 -7.73644e-20 4.672e-19)
(0.003 -2.57105e-19 4.72473e-19)
(0.003 -2.12376e-19 3.2971e-19)
(0.003 4.05682e-20 2.0958e-19)
(0.003 1.63354e-19 7.4977e-20)
(0.003 -3.36567e-20 -5.76389e-20)
(0.003 -1.56033e-19 -2.38928e-19)
(0.003 -2.279e-20 -1.49798e-19)
(0.003 2.45939e-19 5.00825e-20)
(0.003 2.37237e-19 -2.13361e-20)
(0.003 8.21171e-21 -1.37895e-19)
(0.003 -1.513e-19 -2.26411e-20)
(0.003 -1.65115e-19 1.39176e-19)
(0.003 1.39924e-20 2.8689e-20)
(0.003 2.29875e-19 -2.55308e-19)
(0.003 3.00416e-19 -3.13087e-19)
(0.003 2.61244e-19 -3.35215e-19)
(0.003 1.78011e-19 -4.18201e-19)
(0.003 -1.27562e-19 8.78285e-19)
(0.003 -2.75248e-19 1.29282e-18)
(0.003 -1.09478e-19 1.44391e-18)
(0.003 2.60521e-20 1.26603e-18)
(0.003 5.38035e-20 1.20409e-18)
(0.003 2.98689e-20 1.21364e-18)
(0.003 1.08771e-20 1.14557e-18)
(0.003 7.48114e-20 1.07093e-18)
(0.003 -1.61643e-20 9.6862e-19)
(0.003 -9.95586e-20 8.96237e-19)
(0.003 2.52116e-20 9.09153e-19)
(0.003 8.36848e-20 8.94355e-19)
(0.003 -4.48964e-20 8.7424e-19)
(0.003 -3.11698e-20 6.238e-19)
(0.003 -2.51608e-21 4.78437e-19)
(0.003 -3.36528e-20 5.27062e-19)
(0.003 -1.34508e-20 3.85196e-19)
(0.003 -4.96806e-20 2.81062e-19)
(0.003 5.41545e-20 2.57121e-19)
(0.003 1.94284e-19 2.74831e-19)
(0.003 7.833e-20 3.56319e-19)
(0.003 8.1411e-20 4.54663e-19)
(0.003 -4.0856e-20 5.07127e-19)
(0.003 -2.49409e-19 4.01263e-19)
(0.003 -1.28122e-19 1.78151e-19)
(0.003 -5.96023e-20 2.37015e-19)
(0.003 -4.5866e-20 1.32084e-19)
(0.003 -1.68344e-19 -1.29916e-19)
(0.003 -1.32675e-19 -1.77856e-19)
(0.003 1.00591e-19 2.17331e-20)
(0.003 1.96642e-19 -4.39066e-21)
(0.003 2.1758e-19 -2.31166e-19)
(0.003 1.08073e-19 -2.51956e-19)
(0.003 5.66338e-20 1.1664e-20)
(0.003 -2.41074e-21 1.63052e-19)
(0.003 -6.11863e-20 1.83505e-19)
(0.003 8.58759e-20 -4.21406e-20)
(0.003 2.06597e-19 -3.55042e-19)
(0.003 1.58012e-19 -4.01546e-19)
(0.003 2.14957e-19 -4.4007e-19)
(0.003 -1.19946e-19 7.89749e-19)
(0.003 -1.60106e-19 1.21305e-18)
(0.003 -3.70177e-20 1.38076e-18)
(0.003 -5.38065e-20 1.29e-18)
(0.003 -8.87765e-20 1.23506e-18)
(0.003 -3.04928e-20 1.23199e-18)
(0.003 3.06701e-20 1.16137e-18)
(0.003 -2.16512e-20 1.08062e-18)
(0.003 -3.90862e-20 1.01347e-18)
(0.003 4.36488e-20 9.99918e-19)
(0.003 5.97995e-22 9.69125e-19)
(0.003 -4.57674e-20 9.20153e-19)
(0.003 -8.9929e-20 8.28637e-19)
(0.003 2.74478e-20 7.27654e-19)
(0.003 1.34845e-20 4.51302e-19)
(0.003 -6.24852e-20 3.98857e-19)
(0.003 3.78486e-21 3.75658e-19)
(0.003 -2.7709e-20 3.07449e-19)
(0.003 1.82567e-20 3.71727e-19)
(0.003 2.08603e-19 3.42495e-19)
(0.003 1.53917e-19 3.62153e-19)
(0.003 8.13616e-20 3.63393e-19)
(0.003 -8.94317e-20 3.84192e-19)
(0.003 -1.81861e-19 2.72283e-19)
(0.003 -1.09492e-19 1.55235e-19)
(0.003 -7.05058e-20 2.42373e-19)
(0.003 -1.68061e-19 5.51892e-20)
(0.003 -2.56979e-19 -7.51276e-20)
(0.003 -1.70863e-19 3.15951e-20)
(0.003 -6.387e-20 1.0236e-19)
(0.003 1.88064e-21 2.50694e-20)
(0.003 1.81378e-19 -2.40558e-19)
(0.003 1.90887e-19 -2.59991e-19)
(0.003 2.36128e-19 -2.39434e-20)
(0.003 3.05897e-19 1.94134e-19)
(0.003 1.16517e-19 1.75586e-19)
(0.003 8.83548e-21 -1.18298e-20)
(0.003 -6.41858e-20 -2.70462e-19)
(0.003 -1.26354e-19 -3.70471e-19)
(0.003 4.80239e-20 -3.89189e-19)
(0.003 -1.53215e-19 7.35548e-19)
(0.003 -1.93342e-19 1.27735e-18)
(0.003 -1.73641e-19 1.54546e-18)
(0.003 -3.82076e-20 1.32703e-18)
(0.003 6.91151e-20 1.18713e-18)
(0.003 -1.90099e-21 1.21208e-18)
(0.003 -8.86309e-20 1.18503e-18)
(0.003 -1.8536e-19 1.06586e-18)
(0.003 -8.26464e-20 1.03112e-18)
(0.003 4.71902e-21 1.01834e-18)
(0.003 6.09899e-21 9.86816e-19)
(0.003 5.89919e-20 9.36453e-19)
(0.003 7.29218e-20 7.9294e-19)
(0.003 2.87459e-20 7.33116e-19)
(0.003 3.92252e-20 5.51311e-19)
(0.003 2.16035e-20 4.7121e-19)
(0.003 3.5532e-20 4.13807e-19)
(0.003 1.56376e-19 2.04091e-19)
(0.003 2.09725e-19 1.472e-19)
(0.003 1.44991e-19 3.14374e-19)
(0.003 -8.43593e-20 4.37188e-19)
(0.003 -1.44697e-19 5.6981e-19)
(0.003 -8.49444e-20 4.1014e-19)
(0.003 -4.07667e-20 2.14753e-19)
(0.003 -1.35945e-19 9.33912e-20)
(0.003 -1.68355e-19 1.54007e-19)
(0.003 -1.43533e-19 9.37584e-20)
(0.003 -1.73453e-19 -3.27743e-20)
(0.003 -5.10994e-20 5.50546e-20)
(0.003 -3.55412e-20 6.41942e-20)
(0.003 -2.81025e-20 2.7053e-20)
(0.003 8.21694e-20 -8.71883e-20)
(0.003 1.78641e-19 -1.31207e-19)
(0.003 2.72913e-19 7.83545e-20)
(0.003 1.64033e-19 1.77884e-19)
(0.003 6.14259e-20 2.90562e-20)
(0.003 -7.71559e-20 -1.31446e-19)
(0.003 -1.64346e-19 -2.43126e-19)
(0.003 -8.21366e-20 -4.03337e-19)
(0.003 -7.40127e-20 -4.23777e-19)
(0.003 -1.22771e-19 7.14899e-19)
(0.003 -2.56097e-19 1.21987e-18)
(0.003 -2.69906e-19 1.42396e-18)
(0.003 -1.55764e-20 1.39379e-18)
(0.003 7.04014e-20 1.25298e-18)
(0.003 -5.97526e-20 1.16651e-18)
(0.003 -2.00565e-19 1.17264e-18)
(0.003 -1.56689e-19 1.10627e-18)
(0.003 -5.70184e-21 1.06129e-18)
(0.003 3.76572e-21 1.07264e-18)
(0.003 -1.20908e-20 9.71619e-19)
(0.003 1.30166e-19 9.07986e-19)
(0.003 1.79047e-19 8.57881e-19)
(0.003 3.93958e-20 7.40138e-19)
(0.003 9.24483e-20 5.56293e-19)
(0.003 7.73123e-20 4.79132e-19)
(0.003 -2.85813e-20 4.73858e-19)
(0.003 5.63893e-20 2.96935e-19)
(0.003 2.45157e-19 2.35012e-19)
(0.003 5.53094e-21 2.66219e-19)
(0.003 -1.66615e-19 3.38136e-19)
(0.003 -1.58347e-19 5.08655e-19)
(0.003 -6.44389e-20 5.04541e-19)
(0.003 -9.17527e-20 2.73716e-19)
(0.003 -2.7936e-20 1.22073e-20)
(0.003 -1.09261e-19 6.9583e-20)
(0.003 1.2991e-20 9.51872e-20)
(0.003 5.69044e-20 5.49081e-20)
(0.003 -5.5493e-20 3.20523e-20)
(0.003 3.3188e-20 1.80496e-20)
(0.003 -7.03474e-20 1.85717e-19)
(0.003 -7.02322e-20 6.53693e-20)
(0.003 -1.38774e-20 -8.16319e-20)
(0.003 8.00419e-20 4.79177e-20)
(0.003 1.67628e-19 1.22207e-19)
(0.003 6.64815e-20 -6.48086e-20)
(0.003 -2.0326e-20 -1.06483e-19)
(0.003 -7.64015e-20 -1.87914e-19)
(0.003 -4.30639e-20 -4.25426e-19)
(0.003 4.95376e-21 -4.98503e-19)
(0.003 2.5905e-20 7.52727e-19)
(0.003 7.49152e-21 1.20372e-18)
(0.003 -9.7857e-20 1.34679e-18)
(0.003 -1.26118e-19 1.3478e-18)
(0.003 -4.92001e-20 1.30347e-18)
(0.003 -9.30773e-20 1.19238e-18)
(0.003 -1.84868e-19 1.09411e-18)
(0.003 -2.10531e-19 1.05289e-18)
(0.003 -1.10681e-19 1.12237e-18)
(0.003 1.11061e-19 1.11705e-18)
(0.003 2.38924e-19 9.66622e-19)
(0.003 1.55935e-19 9.62977e-19)
(0.003 1.23051e-19 8.22114e-19)
(0.003 6.52161e-20 7.3754e-19)
(0.003 5.09053e-20 6.69718e-19)
(0.003 4.03155e-21 5.61758e-19)
(0.003 -8.77888e-20 3.32257e-19)
(0.003 -1.36285e-19 1.82214e-19)
(0.003 -1.56253e-20 3.09857e-19)
(0.003 -1.19573e-19 2.93162e-19)
(0.003 -1.4461e-19 3.07662e-19)
(0.003 -6.3728e-20 5.27905e-19)
(0.003 -4.61369e-20 5.53979e-19)
(0.003 1.08083e-20 1.70325e-19)
(0.003 1.46397e-19 -7.87061e-23)
(0.003 3.78436e-20 6.5987e-20)
(0.003 3.88377e-20 1.77973e-19)
(0.003 1.47818e-19 9.04107e-20)
(0.003 7.20293e-20 2.02937e-20)
(0.003 -3.3626e-20 9.45472e-21)
(0.003 -1.51019e-19 1.3142e-19)
(0.003 -1.39294e-19 1.00451e-19)
(0.003 -2.36905e-20 -3.89004e-20)
(0.003 -1.89235e-20 4.96525e-20)
(0.003 -7.64199e-21 9.65023e-20)
(0.003 1.29863e-19 3.15338e-20)
(0.003 1.43638e-19 -1.53051e-19)
(0.003 -5.45716e-20 -3.70011e-19)
(0.003 -1.97785e-19 -5.85252e-19)
(0.003 -1.679e-19 -5.74714e-19)
(0.003 1.71914e-19 7.40578e-19)
(0.003 1.34454e-19 1.16478e-18)
(0.003 -1.5637e-19 1.29464e-18)
(0.003 -2.403e-19 1.29209e-18)
(0.003 -8.96034e-20 1.287e-18)
(0.003 -2.23599e-20 1.24044e-18)
(0.003 -2.34344e-20 1.07655e-18)
(0.003 -1.24842e-19 9.28591e-19)
(0.003 -1.34788e-19 1.00469e-18)
(0.003 1.03954e-19 1.22872e-18)
(0.003 3.12935e-19 1.24526e-18)
(0.003 4.82827e-20 1.0313e-18)
(0.003 6.93585e-21 8.59164e-19)
(0.003 1.71606e-19 6.75618e-19)
(0.003 1.76651e-20 6.3594e-19)
(0.003 -1.11603e-19 5.3332e-19)
(0.003 -1.4155e-19 3.02252e-19)
(0.003 -1.58666e-19 2.12875e-19)
(0.003 -2.17572e-19 3.43798e-19)
(0.003 -1.8181e-19 3.07585e-19)
(0.003 -5.34413e-20 3.21812e-19)
(0.003 -1.03808e-19 4.07693e-19)
(0.003 -7.15991e-20 4.66528e-19)
(0.003 1.25106e-19 2.61597e-19)
(0.003 2.08387e-19 1.1028e-19)
(0.003 1.61623e-19 8.20982e-20)
(0.003 -2.3326e-20 9.41091e-20)
(0.003 8.73985e-20 3.93388e-20)
(0.003 7.35754e-20 -4.84441e-20)
(0.003 -5.6889e-20 -2.05746e-20)
(0.003 -2.36985e-20 1.20518e-19)
(0.003 -8.89035e-20 8.43524e-20)
(0.003 4.69712e-21 3.95634e-21)
(0.003 3.18487e-20 1.03094e-19)
(0.003 2.01145e-21 7.4448e-20)
(0.003 2.05058e-19 5.66134e-20)
(0.003 5.51086e-20 -5.50837e-20)
(0.003 -9.80213e-20 -3.82073e-19)
(0.003 -2.58636e-19 -7.12107e-19)
(0.003 -3.08622e-19 -6.40522e-19)
(0.003 1.73303e-19 7.86026e-19)
(0.003 6.92152e-20 1.18988e-18)
(0.003 -8.60251e-20 1.21354e-18)
(0.003 -1.66938e-19 1.19767e-18)
(0.003 -1.66408e-19 1.27196e-18)
(0.003 3.04485e-20 1.18854e-18)
(0.003 -2.93646e-20 1.08876e-18)
(0.003 -1.50278e-20 9.97389e-19)
(0.003 7.98987e-20 1.03983e-18)
(0.003 8.97481e-20 1.24446e-18)
(0.003 -2.94043e-20 1.21218e-18)
(0.003 -3.90217e-20 9.35161e-19)
(0.003 2.92568e-20 7.84032e-19)
(0.003 -1.07129e-20 7.90125e-19)
(0.003 -3.88451e-20 6.53372e-19)
(0.003 -6.49894e-20 4.16319e-19)
(0.003 -1.60665e-19 2.98633e-19)
(0.003 -2.29686e-19 2.20324e-19)
(0.003 -3.70554e-19 2.13438e-19)
(0.003 -1.64085e-19 2.36558e-19)
(0.003 -8.9825e-21 4.54076e-19)
(0.003 -1.29664e-19 4.28403e-19)
(0.003 1.8518e-20 3.61517e-19)
(0.003 2.30069e-19 2.95459e-19)
(0.003 2.0564e-19 1.37572e-19)
(0.003 1.89436e-19 8.551e-20)
(0.003 6.2068e-20 1.83908e-20)
(0.003 1.97425e-20 -5.00183e-20)
(0.003 -1.32622e-20 -1.14767e-20)
(0.003 -6.15437e-20 3.42114e-20)
(0.003 1.16012e-19 7.95773e-20)
(0.003 1.91e-19 8.01337e-20)
(0.003 4.90734e-20 4.78252e-20)
(0.003 3.96601e-20 2.49126e-20)
(0.003 2.94741e-20 6.84372e-20)
(0.003 -2.90488e-20 5.6491e-20)
(0.003 -1.3471e-19 -1.32563e-19)
(0.003 -2.42052e-19 -3.16168e-19)
(0.003 -2.12106e-19 -3.91069e-19)
(0.003 -1.70349e-19 -2.13951e-19)
(0.003 -7.99424e-20 8.0423e-19)
(0.003 -5.26517e-20 1.23496e-18)
(0.003 7.36295e-20 1.26327e-18)
(0.003 -4.49999e-20 1.12729e-18)
(0.003 -2.15995e-19 1.17583e-18)
(0.003 -4.42899e-20 1.28842e-18)
(0.003 3.39403e-20 1.11423e-18)
(0.003 1.64119e-19 9.17178e-19)
(0.003 -3.42671e-21 9.5932e-19)
(0.003 -1.82212e-19 1.1331e-18)
(0.003 -2.22948e-19 1.16534e-18)
(0.003 -4.83132e-20 1.0583e-18)
(0.003 -5.5002e-20 8.97819e-19)
(0.003 -1.03113e-19 6.79519e-19)
(0.003 -8.9844e-23 5.544e-19)
(0.003 -9.39955e-21 4.76461e-19)
(0.003 -1.00528e-19 2.5073e-19)
(0.003 -2.076e-19 1.06558e-19)
(0.003 -2.72776e-19 1.52452e-19)
(0.003 -1.94281e-19 2.74358e-19)