/*--------------------------------*- C++ -*----------------------------------*\
| =========                 |                                                 |
| \\      /  F ield         | OpenFOAM: The Open Source CFD Toolbox           |
|  \\    /   O peration     | Version:  v2012                                 |
|   \\  /    A nd           | Website:  www.openfoam.com                      |
|    \\/     M anipulation  |                                                 |
\*---------------------------------------------------------------------------*/
FoamFile
{
    version     2.0;
    format      ascii;
    class       volScalarField;
    location    "24";
    object      p;
}
// * * * * * * * * * * * * * * * * * * * * * * * * * * * * * * * * * * * * * //

dimensions      [0 2 -2 0 0 0 0];


internalField   nonuniform List<scalar> 
64000
(
9.16904e-22
-2.61628e-21
-1.95812e-21
-4.26082e-21
-7.07736e-21
-1.81742e-21
-3.22799e-21
-2.67677e-21
-4.19375e-21
-3.36395e-21
-3.57175e-21
-6.04172e-21
-3.45128e-21
-5.75296e-21
-3.51682e-21
-4.96184e-21
-1.05524e-21
-8.62622e-22
-1.03295e-21
-1.03682e-21
-1.57414e-21
-2.4345e-21
-1.57203e-21
8.63915e-22
-5.02819e-21
-1.44958e-21
-8.16445e-23
-2.52203e-21
-1.9667e-21
-1.633e-21
-1.32328e-21
-8.30109e-22
-1.34378e-21
-9.72958e-22
-9.80173e-22
-5.04557e-21
-2.54145e-21
1.08533e-22
6.24317e-22
8.13809e-22
-5.08345e-21
-8.51736e-21
-8.53337e-21
-6.38202e-21
-8.65298e-21
-1.02316e-20
-6.47609e-21
-2.14131e-21
-3.28123e-21
-8.24756e-21
-6.78311e-21
-9.0448e-21
-3.46782e-21
-4.07763e-21
-6.71286e-21
-6.63487e-21
-4.54428e-21
8.30656e-22
-2.56041e-21
-1.83596e-21
9.92436e-22
-3.26198e-21
-5.2131e-21
-6.74038e-21
-6.77064e-21
-4.54002e-22
-7.88685e-22
-3.64884e-21
-2.66747e-21
-1.54685e-21
1.7973e-21
9.71487e-23
-4.34498e-21
-2.7102e-21
-1.11438e-21
-2.18271e-21
-2.92976e-21
-3.1556e-22
6.64822e-22
1.08482e-21
-4.56028e-21
-6.9731e-21
-1.18004e-20
-9.13258e-21
-7.44086e-21
-9.96938e-21
-7.6436e-21
-6.69652e-21
-7.39313e-21
-8.25396e-21
-5.94673e-21
-7.94319e-21
-4.71849e-21
-3.94098e-21
-3.9355e-21
-1.79752e-21
-7.4681e-21
-2.83255e-21
-1.78044e-21
-6.46527e-22
-2.47885e-21
-5.74175e-21
-5.97488e-21
-4.14615e-21
-2.74024e-21
-3.15712e-21
-3.37095e-21
-3.79938e-21
-8.19384e-22
-2.31301e-21
-1.14103e-21
-1.34644e-21
-4.97738e-21
2.62865e-22
-9.39368e-22
-2.58065e-21
-4.19391e-22
5.53775e-22
1.45181e-22
9.64589e-22
-8.64478e-21
-8.23164e-21
-9.34999e-21
-1.25769e-20
-1.12202e-20
-1.1407e-20
-8.29477e-21
-5.40613e-21
-8.09397e-21
-8.70221e-21
-7.35336e-21
-8.18969e-21
-7.16217e-21
-4.15709e-21
-4.94475e-21
-3.05901e-21
-4.96653e-21
-3.33498e-21
5.13033e-22
-1.49457e-21
-3.11904e-21
-6.91235e-21
-7.12636e-21
-4.33451e-21
-3.87321e-21
-3.9633e-21
-2.5207e-21
-3.27234e-22
-1.3542e-21
-2.97496e-21
6.76766e-22
-3.07025e-21
-5.46837e-21
4.59733e-22
1.60887e-22
-9.55864e-22
-5.65027e-22
-1.82182e-21
-6.67674e-22
-4.88474e-22
-1.48303e-20
-9.19999e-21
-1.02076e-20
-9.90367e-21
-1.18781e-20
-1.2744e-20
-9.20738e-21
-3.33647e-21
-7.06604e-21
-1.0189e-20
-7.80707e-21
-7.70552e-21
-6.20474e-21
-2.03798e-21
-7.27015e-21
-1.04267e-20
-4.98051e-21
2.24643e-23
-1.65682e-21
-1.92e-21
-1.99924e-21
-6.9446e-21
-9.50433e-21
-4.28039e-21
-3.06108e-21
-2.95207e-21
-1.2732e-21
-1.73075e-21
-4.12118e-21
-1.49981e-22
1.70382e-21
-1.06392e-21
-1.5597e-21
8.57473e-22
-2.4515e-21
3.67716e-22
-8.79639e-22
-3.64642e-22
-1.38339e-21
-2.38285e-21
-1.13807e-20
-1.06247e-20
-9.98474e-21
-1.27627e-20
-1.14202e-20
-1.05273e-20
-7.53438e-21
-1.01885e-20
-9.96203e-21
-9.08542e-21
-6.52681e-21
-7.85535e-21
-7.91185e-21
-2.71695e-21
-6.25228e-21
-9.11444e-21
-4.70315e-21
-4.57871e-22
-5.3667e-22
-3.19442e-21
4.413e-22
-5.9098e-21
-1.08111e-20
-6.04968e-21
-3.78692e-21
-2.57486e-21
-3.49565e-21
-9.4719e-22
-1.51302e-21
-2.39321e-21
-2.11261e-21
-2.01146e-21
-8.37429e-22
6.02884e-22
-1.34156e-22
-9.87467e-22
-2.92215e-21
-1.62646e-21
-5.41455e-22
-4.27363e-24
-1.18346e-20
-1.19461e-20
-9.74491e-21
-1.14968e-20
-1.21922e-20
-1.19007e-20
-8.09759e-21
-9.77624e-21
-1.04757e-20
-8.46469e-21
-7.36937e-21
-8.90616e-21
-7.22249e-21
-5.85989e-21
-6.54366e-21
-7.69234e-21
-4.00623e-21
9.50032e-22
2.09515e-21
-2.20379e-21
-4.0153e-21
-7.18206e-21
-1.26176e-20
-8.69764e-21
-2.8399e-21
-3.32393e-21
-2.55825e-21
-6.47105e-22
-1.73533e-22
-5.48819e-22
-3.97855e-21
-4.1464e-21
-4.56925e-22
-4.96423e-22
-3.69724e-22
-3.02201e-21
-2.72039e-21
8.81799e-23
-3.38657e-22
-9.50786e-22
-1.31226e-20
-1.16694e-20
-1.12316e-20
-9.78307e-21
-1.36223e-20
-1.00157e-20
-7.47061e-21
-1.40352e-20
-1.14191e-20
-1.0219e-20
-8.70728e-21
-8.05577e-21
-8.1787e-21
-7.66553e-21
-5.59104e-21
-8.26751e-21
-3.37494e-21
-9.29551e-22
-9.48206e-22
-1.15869e-21
-4.32953e-21
-9.00286e-21
-8.24225e-21
-6.22767e-21
-3.18777e-21
-5.43134e-21
-2.25864e-21
2.5905e-22
-1.73108e-22
-2.3098e-21
-3.90206e-21
-3.36121e-21
-1.12002e-22
-2.03981e-21
-4.23426e-21
-5.98415e-21
-2.13263e-21
8.87391e-22
8.71924e-22
-7.65712e-22
-1.83148e-20
-1.35266e-20
-1.15434e-20
-1.02479e-20
-1.11996e-20
-1.22127e-20
-1.08315e-20
-1.06575e-20
-1.20288e-20
-1.32177e-20
-6.67922e-21
-7.97653e-21
-6.6055e-21
-9.37407e-21
-7.73263e-21
-8.06704e-21
-3.72512e-21
1.7435e-21
-5.09326e-21
-5.99091e-21
-3.33967e-21
-6.88309e-21
-7.32932e-21
-8.44002e-21
-9.43872e-22
-3.11124e-21
-5.1804e-21
-2.34028e-21
6.78241e-22
-2.43242e-21
-2.36826e-21
-1.7829e-21
-8.88467e-22
-2.23496e-21
-6.42503e-21
-3.81069e-21
-2.55935e-21
2.1293e-21
1.85331e-21
-1.01057e-21
-9.04606e-21
-1.2027e-20
-1.29923e-20
-1.03269e-20
-1.1821e-20
-1.30695e-20
-1.08172e-20
-1.04837e-20
-1.19585e-20
-1.14333e-20
-7.77774e-21
-6.8225e-21
-6.89988e-21
-1.0194e-20
-9.0757e-21
-4.76955e-21
-4.15354e-21
-2.67238e-21
-3.16814e-22
-3.94392e-21
-5.2374e-21
-5.12105e-21
-9.64808e-21
-6.53795e-21
-3.76234e-21
-4.10487e-21
-3.36445e-21
-1.85535e-21
-7.13353e-23
-1.35729e-21
-2.35535e-21
-1.13547e-21
-1.86488e-21
-2.75416e-21
-7.16184e-21
-4.23738e-21
-1.36504e-21
1.42919e-21
1.5621e-21
-4.92122e-22
-9.10036e-21
-1.31366e-20
-1.34397e-20
-1.42029e-20
-1.04255e-20
-1.24367e-20
-1.51318e-20
-8.71132e-21
-1.35937e-20
-1.33192e-20
-8.04845e-21
-4.78813e-21
-5.84603e-21
-9.12321e-21
-9.99633e-21
-9.07419e-21
-4.86554e-21
-5.98762e-22
2.25054e-21
-2.82486e-21
-6.18433e-21
-1.14095e-20
-8.894e-21
-6.61177e-21
-4.54714e-21
-2.9283e-21
-6.9799e-22
-3.11849e-22
-1.41731e-21
-2.56698e-21
-2.89376e-21
7.24141e-22
-4.20622e-21
-2.41392e-21
-3.41651e-21
-4.22719e-21
-2.38465e-21
-1.9821e-21
-6.04986e-22
-6.93098e-22
-1.14872e-20
-1.51204e-20
-1.55797e-20
-1.14668e-20
-1.15436e-20
-1.60967e-20
-1.12166e-20
-1.14083e-20
-9.53076e-21
-1.23709e-20
-1.48107e-20
-6.89812e-21
-5.77393e-21
-9.3081e-21
-1.04224e-20
-8.74693e-21
-4.63429e-21
1.39879e-21
-2.16586e-22
-1.67941e-21
-6.29561e-21
-1.03557e-20
-8.76703e-21
-7.7683e-21
-6.89671e-21
-4.68817e-22
2.30216e-23
-5.76295e-22
-2.09383e-21
-7.52269e-22
-3.37637e-22
-1.13917e-21
-1.7792e-21
-3.04934e-21
-1.91115e-21
-1.94547e-21
-1.73353e-21
-2.43001e-21
-1.02938e-21
-1.3441e-21
-1.69805e-20
-1.64053e-20
-1.57808e-20
-1.25361e-20
-1.36609e-20
-1.39736e-20
-1.35286e-20
-1.34095e-20
-1.45141e-20
-1.20993e-20
-1.06234e-20
-6.06357e-21
-8.21256e-21
-1.03344e-20
-7.60764e-21
-6.22906e-21
-4.12235e-21
-9.41957e-22
-1.3558e-21
-3.24619e-21
-5.75808e-21
-6.82111e-21
-8.08814e-21
-6.53779e-21
-3.58168e-21
-4.18303e-22
8.5052e-23
-1.25325e-21
-2.28587e-22
2.32712e-22
-4.01107e-21
-1.75541e-21
9.01711e-22
-4.26754e-21
-2.51274e-21
-1.74334e-21
-2.79481e-21
-3.80001e-21
-1.60239e-21
-1.56831e-21
-1.96963e-20
-1.88853e-20
-1.49547e-20
-1.38576e-20
-1.17153e-20
-1.2845e-20
-1.35531e-20
-1.10415e-20
-9.9758e-21
-1.39941e-20
-9.69988e-21
-6.20116e-21
-1.00287e-20
-1.43641e-20
-8.90753e-21
-6.10956e-21
-2.78772e-21
8.00606e-22
-1.90557e-21
-3.01404e-21
-6.5631e-21
-7.89651e-21
-7.47642e-21
-9.63441e-21
-2.05235e-21
-2.93504e-22
3.76527e-22
-2.20075e-22
7.78479e-22
2.73934e-21
-1.63229e-21
-3.94632e-21
-1.42239e-21
-1.66773e-21
-1.72469e-21
-3.17185e-21
-3.81415e-21
-3.55301e-21
-1.04089e-21
-2.2987e-21
-1.32291e-20
-1.98515e-20
-1.79771e-20
-1.20542e-20
-9.41117e-21
-1.24402e-20
-1.74137e-20
-1.71869e-20
-1.17426e-20
-9.18136e-21
-7.61224e-21
-9.97227e-21
-1.04117e-20
-1.29595e-20
-5.82306e-21
-6.29265e-21
-3.97792e-21
-3.95592e-21
-3.76184e-21
-2.2693e-21
-8.00414e-21
-5.10983e-21
-5.4839e-21
-9.34525e-21
-9.47092e-22
-9.82701e-22
-1.22814e-21
-5.70155e-22
1.24305e-21
1.53814e-21
3.91501e-22
-1.62203e-21
-2.171e-21
-1.04644e-21
-1.49366e-21
-3.63537e-21
-4.4499e-21
-4.47829e-21
-2.21505e-21
-1.03834e-23
-1.41503e-20
-1.41938e-20
-1.69788e-20
-1.30251e-20
-1.33495e-20
-1.159e-20
-1.5884e-20
-1.72045e-20
-1.01095e-20
-7.56173e-21
-1.24235e-20
-1.21285e-20
-9.03921e-21
-9.68536e-21
-8.99919e-21
-7.63548e-21
-4.05181e-21
-5.10921e-21
-3.2355e-21
-2.59116e-21
-8.92984e-21
-6.7838e-21
-4.22422e-21
-3.93695e-21
-7.48914e-22
-2.99344e-21
-4.43505e-21
-3.24682e-21
2.70419e-21
2.88082e-21
-7.47108e-22
-1.6141e-21
-1.18523e-21
-1.50239e-21
-1.20796e-21
-1.89355e-21
-5.11007e-21
-3.41621e-21
-7.7458e-22
-1.23016e-23
-1.45454e-20
-1.28685e-20
-1.56107e-20
-1.1008e-20
-1.07477e-20
-1.26905e-20
-1.60074e-20
-1.77078e-20
-9.39395e-21
-1.02662e-20
-1.22355e-20
-1.47068e-20
-6.07173e-21
-8.77312e-21
-7.7009e-21
-7.01769e-21
-6.43039e-21
-3.98835e-21
-4.5018e-21
-4.98923e-21
-8.01442e-21
-5.21563e-21
-3.69695e-21
-1.63526e-21
-1.30705e-21
-1.72673e-21
-2.86089e-21
-3.23637e-21
1.05975e-21
4.31388e-22
-1.57174e-21
-2.76166e-21
-6.37056e-22
-8.99704e-22
-1.05564e-21
-1.82501e-21
-3.89451e-21
-2.15226e-21
1.18529e-21
-1.75066e-21
-1.11124e-20
-1.40885e-20
-1.89829e-20
-1.12628e-20
-7.45717e-21
-1.27269e-20
-1.69017e-20
-1.60114e-20
-1.20132e-20
-9.70494e-21
-1.19496e-20
-1.31736e-20
-9.37781e-21
-8.73758e-21
-4.18542e-21
-9.77902e-21
-7.81925e-21
7.9704e-23
-2.92654e-21
-6.16846e-21
-8.75742e-21
-8.05685e-21
-6.95965e-22
-6.26035e-22
1.65801e-21
-4.12466e-21
-3.02847e-21
-1.1407e-21
-7.77957e-22
-5.0369e-22
-1.43624e-21
-8.29916e-22
-3.60428e-22
-3.90229e-22
3.11326e-23
-2.29837e-21
-2.89203e-21
-3.22286e-21
-1.53003e-22
-7.58299e-22
-9.23744e-21
-1.12188e-20
-1.40542e-20
-1.32809e-20
-1.19971e-20
-1.24785e-20
-1.38507e-20
-1.32786e-20
-1.25553e-20
-1.1838e-20
-1.20479e-20
-1.16913e-20
-8.32812e-21
-8.67805e-21
-5.02925e-21
-8.00351e-21
-8.5445e-21
-7.34044e-21
-9.85286e-21
-4.35221e-21
-5.42717e-21
-1.23286e-21
-1.31828e-21
-6.9501e-22
6.38586e-22
-1.44805e-21
-2.21521e-21
2.64148e-22
1.63434e-23
-1.30852e-21
-4.31406e-21
-1.68995e-21
7.18617e-22
-6.47012e-22
-7.84092e-22
-1.73151e-21
-2.6667e-21
-1.29945e-21
-3.33731e-21
-2.69554e-21
-7.30992e-21
-1.01872e-20
-1.64339e-20
-1.46971e-20
-1.2727e-20
-1.00513e-20
-9.82365e-21
-1.57989e-20
-1.38637e-20
-1.33952e-20
-1.04947e-20
-1.16278e-20
-6.31693e-21
-7.57572e-21
-9.28595e-21
-8.85633e-21
-5.44842e-21
-4.27189e-21
-1.00878e-20
-4.78284e-21
-5.48007e-21
-4.4094e-21
-2.51591e-21
4.47703e-22
1.45741e-21
1.20321e-21
-6.38997e-21
-2.4437e-21
-3.55523e-22
-6.51261e-22
-3.80297e-21
-6.17688e-22
-7.52583e-22
-6.44367e-22
-1.04362e-21
-2.20944e-22
-2.28206e-21
-1.3168e-21
-2.36501e-21
-2.43135e-21
-9.37173e-21
-1.13747e-20
-1.50531e-20
-1.32893e-20
-1.22939e-20
-1.04135e-20
-9.90202e-21
-1.06415e-20
-1.30147e-20
-1.42359e-20
-1.6963e-20
-1.0751e-20
-7.85786e-21
-6.65243e-21
-9.59761e-21
-6.23487e-21
-6.91063e-21
-3.15581e-21
-5.97925e-21
-5.49185e-21
-4.50173e-21
-3.61784e-21
-1.16824e-21
-2.44619e-21
-3.30115e-21
3.5262e-22
-3.15907e-21
-3.25038e-21
-1.12764e-21
6.69812e-22
-2.39564e-21
-8.10967e-22
-2.75861e-21
1.97717e-21
-9.04652e-22
-2.46316e-21
-1.36152e-21
-1.99869e-21
-9.5142e-22
-2.75647e-21
-1.39796e-20
-1.24561e-20
-1.30185e-20
-1.25597e-20
-1.19477e-20
-1.06842e-20
-1.0834e-20
-8.05981e-21
-1.09985e-20
-1.41092e-20
-1.5761e-20
-1.05863e-20
-8.4506e-21
-1.33139e-20
-9.56008e-21
-5.96127e-21
-3.25358e-21
-2.51728e-21
-6.47586e-21
-6.23334e-21
-4.56695e-21
-6.30711e-23
-2.32066e-21
-2.99969e-21
-1.39549e-21
-1.37116e-21
-4.51025e-21
-4.0241e-21
-6.14134e-22
4.5071e-22
-2.98118e-21
-2.15016e-22
-7.16747e-22
7.2316e-22
-2.50599e-21
-5.67131e-21
-9.92523e-22
-1.63959e-21
-4.42421e-22
7.07245e-22
-1.49944e-20
-1.65506e-20
-1.20563e-20
-1.1958e-20
-1.22772e-20
-1.3649e-20
-9.86338e-21
-8.34278e-21
-1.30207e-20
-1.05701e-20
-1.36428e-20
-1.22945e-20
-1.01633e-20
-8.18014e-21
-7.53799e-21
-6.39336e-21
-4.35119e-21
3.82694e-22
5.9361e-23
-4.68629e-21
-5.89979e-21
-3.05875e-21
-5.35492e-21
-5.17697e-21
-2.67676e-21
-2.75774e-21
-2.76855e-21
-2.56204e-21
-7.59819e-22
4.25891e-24
-4.33694e-21
-1.07302e-21
6.97637e-22
1.02108e-21
-3.54298e-21
-4.45708e-21
-2.93282e-21
-3.18395e-22
-1.49411e-21
-1.10213e-21
-9.87829e-21
-1.26629e-20
-1.51628e-20
-1.11271e-20
-1.19624e-20
-1.32169e-20
-1.22522e-20
-1.2303e-20
-9.15576e-21
-1.12529e-20
-1.31682e-20
-1.31237e-20
-6.07655e-21
-9.63347e-21
-1.11301e-20
-5.61314e-21
9.33586e-22
-1.70409e-21
-3.06272e-21
-3.28883e-21
-4.95605e-21
-4.67126e-21
-4.2915e-21
-4.93269e-21
-6.01947e-21
-1.94183e-21
-2.21596e-21
-4.13348e-21
1.89077e-21
-9.73233e-22
-3.69554e-21
-2.19082e-21
8.67009e-23
-3.43445e-21
-4.69452e-21
-3.71907e-21
-3.05572e-21
-8.35923e-22
-2.57769e-21
-2.35384e-21
-6.55053e-21
-1.25151e-20
-1.3418e-20
-1.28192e-20
-1.06474e-20
-1.37734e-20
-1.20222e-20
-1.08038e-20
-8.09393e-21
-1.22095e-20
-1.51891e-20
-1.16874e-20
-5.33812e-21
-6.98802e-21
-9.33232e-21
-3.01829e-21
-1.97573e-21
-5.86093e-21
-2.74032e-21
-1.0498e-21
-5.22726e-21
-4.86981e-21
-2.2369e-21
-5.56603e-21
-6.61753e-21
-4.71896e-21
-2.03973e-21
-1.03339e-21
-8.33702e-22
-2.19079e-21
-5.79328e-22
-2.87067e-21
-4.19642e-21
-8.23003e-24
-5.07892e-21
-2.39747e-21
-1.83706e-21
-1.88556e-21
-3.15481e-21
-1.71716e-21
-1.08291e-20
-1.5097e-20
-1.48598e-20
-1.07511e-20
-9.99331e-21
-1.21553e-20
-1.167e-20
-1.2202e-20
-8.50141e-21
-9.84279e-21
-1.58581e-20
-1.31779e-20
-5.86031e-21
-7.0514e-21
-2.77329e-21
-4.15413e-21
-5.21598e-21
-1.66667e-22
-4.47688e-22
-4.36317e-21
-3.65703e-21
-3.51461e-21
-9.13341e-21
-1.01962e-20
-7.18235e-21
-4.82586e-21
9.67508e-22
-3.93102e-21
-3.76643e-21
6.47313e-23
-7.73168e-22
-2.85984e-21
-2.88252e-21
-1.2299e-21
-2.0434e-21
-8.24419e-22
-3.61724e-22
-4.24618e-21
-6.87451e-22
-2.79065e-22
-6.67859e-21
-1.17977e-20
-1.38483e-20
-1.66756e-20
-1.35045e-20
-1.36481e-20
-1.08986e-20
-7.0543e-21
-8.31576e-21
-1.11217e-20
-1.4911e-20
-1.19186e-20
-6.00046e-21
-6.57343e-21
-4.05537e-21
-8.08166e-21
-5.4754e-21
-2.34522e-21
2.86632e-21
-9.56063e-22
-1.61644e-21
-6.59058e-21
-6.77903e-21
-7.88806e-21
-8.07116e-21
-4.54546e-21
7.57712e-22
2.12676e-22
-5.14118e-21
-1.11704e-21
1.58847e-21
-1.55541e-21
-2.20138e-21
-1.4183e-21
-4.96373e-21
1.14093e-22
-6.45186e-22
-6.33317e-21
-3.82863e-21
-1.52584e-21
-8.49554e-21
-1.26224e-20
-1.37843e-20
-1.50928e-20
-1.19345e-20
-1.18445e-20
-1.05548e-20
-1.03516e-20
-9.50839e-21
-1.06454e-20
-1.16454e-20
-7.81906e-21
-6.83416e-21
-5.55799e-21
-7.45951e-21
-4.90294e-21
-5.22364e-21
-1.95973e-21
6.89097e-22
1.21642e-22
-2.62957e-21
-1.31581e-21
-4.79798e-21
-8.57923e-21
-7.95796e-21
-3.36288e-21
-2.04306e-22
-1.85655e-21
-2.90754e-21
-1.58253e-21
-8.41942e-22
-1.52976e-21
-3.62282e-21
-4.88103e-21
-3.05874e-21
-8.12354e-22
-1.89129e-21
-3.33176e-21
-1.26179e-21
1.20416e-22
-1.16316e-20
-1.69351e-20
-1.47147e-20
-1.09425e-20
-1.58435e-20
-1.20661e-20
-9.64486e-21
-7.57326e-21
-7.46025e-21
-1.11809e-20
-1.38075e-20
-4.78226e-21
-6.6783e-21
-8.21933e-21
-6.12134e-21
-6.59465e-21
-6.436e-21
1.2903e-21
1.27716e-21
9.61367e-22
-4.81501e-21
-4.4556e-21
-4.07167e-21
-5.30557e-21
-5.9526e-21
-4.02718e-21
-1.49476e-21
-2.88087e-21
-9.32944e-22
-2.13692e-21
-1.01632e-21
-4.74721e-22
-2.99955e-21
-2.44218e-21
-3.1207e-21
-2.87484e-21
-2.26324e-21
-3.37445e-21
-2.28737e-22
1.48397e-21
-1.07571e-20
-1.4667e-20
-1.5863e-20
-1.26981e-20
-1.19824e-20
-1.41497e-20
-9.51732e-21
-4.84451e-21
-8.7795e-21
-1.33039e-20
-1.12177e-20
-7.86916e-21
-4.05666e-21
-9.38237e-21
-7.28389e-21
-6.56876e-21
-3.86848e-21
-2.07158e-21
1.07783e-21
4.80841e-21
-2.47719e-21
-6.43296e-21
-7.00316e-21
-5.47039e-21
-7.84625e-21
-5.16355e-21
-6.99197e-22
1.50837e-21
-9.65988e-24
-7.64979e-22
-1.93706e-21
-1.89611e-21
-4.25552e-21
-2.14525e-21
-1.95689e-21
-3.78056e-21
-2.11466e-21
5.63811e-22
1.94221e-22
1.19268e-21
-1.22967e-20
-1.25836e-20
-1.19721e-20
-1.34784e-20
-1.18359e-20
-1.20622e-20
-9.05684e-21
-9.10187e-21
-8.89742e-21
-1.03228e-20
-9.2852e-21
-6.80252e-21
-7.21846e-21
-8.41179e-21
-6.05526e-21
-7.4912e-21
-4.00738e-21
-1.87912e-21
6.34188e-22
1.33116e-21
-2.51224e-22
-7.83415e-21
-8.11751e-21
-6.27787e-21
-4.70122e-21
-3.39791e-21
-6.9804e-22
-7.19576e-22
-2.61169e-21
-1.78789e-21
-1.74972e-21
-1.41536e-21
2.47036e-22
-1.60022e-21
-2.34503e-21
-5.74133e-21
-2.06332e-21
5.18568e-22
7.89138e-23
-1.13103e-22
-1.57052e-20
-1.42861e-20
-1.12329e-20
-1.18952e-20
-1.29514e-20
-1.30378e-20
-9.69355e-21
-8.81844e-21
-9.13688e-21
-8.12146e-21
-5.44185e-21
-7.98688e-21
-1.09851e-20
-1.07712e-20
-4.55239e-21
-5.59083e-21
-2.97618e-21
-6.27151e-22
2.10411e-21
-1.42377e-21
-3.887e-22
-4.58695e-21
-1.18429e-20
-6.60443e-21
-5.65493e-21
-6.64424e-21
1.10171e-21
1.06437e-21
-1.09387e-21
-2.34971e-21
-2.56737e-21
-3.07392e-21
2.49627e-21
-9.32492e-22
-4.62809e-21
-2.51037e-21
-9.62194e-22
1.34198e-21
-1.50836e-21
-1.36357e-21
-1.03387e-20
-9.6158e-21
-1.10743e-20
-8.59346e-21
-1.61301e-20
-1.43516e-20
-1.11224e-20
-9.51426e-21
-8.46219e-21
-7.22726e-21
-7.17852e-21
-6.8797e-21
-1.0063e-20
-7.22438e-21
-3.79575e-21
-5.77814e-21
-3.10107e-21
-1.24314e-21
2.43184e-21
-7.43823e-22
-1.60527e-21
-4.53028e-21
-8.91531e-21
-5.8521e-21
-7.74039e-21
-6.28416e-21
1.79722e-21
8.85452e-22
-1.67603e-21
-2.24225e-21
-2.18519e-21
-1.3582e-21
2.06682e-21
3.19985e-22
-1.99449e-21
-2.67039e-21
-5.82514e-22
-1.8253e-21
-1.36446e-21
-5.57902e-22
-1.10016e-20
-1.00121e-20
-1.11331e-20
-1.37158e-20
-1.35464e-20
-1.09711e-20
-1.01484e-20
-7.95478e-21
-9.07481e-21
-5.91197e-21
-6.56366e-21
-1.10097e-20
-8.81191e-21
-6.43172e-21
-6.3348e-21
-4.27992e-21
-2.4756e-21
8.79675e-23
-9.16195e-24
-7.58405e-22
8.65714e-22
-7.02128e-21
-6.87097e-21
-6.5304e-21
-4.41489e-21
-3.95238e-21
-1.94081e-21
-2.4361e-21
-6.92226e-22
-1.27098e-21
-1.5509e-21
1.26649e-22
1.19624e-21
1.97455e-22
-1.232e-21
-1.64499e-21
-1.02654e-21
1.97361e-21
-1.84052e-21
-2.62881e-21
-1.18104e-20
-9.31471e-21
-9.13441e-21
-9.45025e-21
-1.27687e-20
-1.3821e-20
-1.13175e-20
-1.17127e-20
-9.79695e-21
-7.12527e-21
-3.28835e-21
-9.3109e-21
-2.34877e-21
-4.14769e-21
-6.05935e-21
-6.91975e-21
-5.04226e-21
5.16416e-22
3.00472e-21
-2.58509e-22
-9.36746e-22
-9.23511e-21
-5.20465e-21
-4.80044e-21
-3.65559e-21
-2.90227e-21
-4.18404e-21
-6.04821e-21
-9.66761e-22
-1.81061e-21
-6.38274e-22
2.13526e-22
4.47216e-22
-2.04183e-22
-1.52136e-21
-3.59181e-22
-7.66678e-22
1.93449e-21
1.19935e-21
2.94642e-22
-7.92715e-21
-9.43943e-21
-1.04392e-20
-8.71025e-21
-8.50236e-21
-1.68254e-20
-9.82957e-21
-1.03521e-20
-9.52178e-21
-8.61669e-21
-9.35901e-21
-2.869e-21
-4.30462e-21
-3.19897e-21
-4.08056e-21
-7.14357e-21
-4.9497e-21
-1.13424e-21
3.62296e-22
-1.68056e-22
-1.947e-21
-4.63286e-21
-4.63151e-21
-5.51629e-21
-4.06097e-21
-1.82596e-21
-7.88979e-22
-1.7605e-21
-3.55868e-21
-1.75271e-21
-2.48532e-21
-1.2984e-21
1.43169e-21
3.78616e-22
-1.68711e-21
-1.18177e-21
6.84659e-22
2.88805e-21
1.01883e-21
-1.61953e-21
-6.65184e-21
-8.88641e-21
-1.03201e-20
-1.01787e-20
-9.55769e-21
-1.15552e-20
-9.61476e-21
-9.83462e-21
-1.03893e-20
-8.51523e-21
-7.64629e-21
-5.1244e-21
-5.96645e-21
-3.76051e-21
-5.63594e-21
-5.84935e-21
-3.41218e-21
1.21672e-21
3.22985e-21
-2.30042e-21
-2.32288e-21
-4.27796e-21
-2.86358e-21
-5.23313e-21
-6.14774e-21
-4.03474e-21
-2.17472e-21
-4.32342e-22
-5.21196e-22
-1.79696e-21
-4.62595e-21
-1.06101e-21
-1.01762e-21
-6.21105e-22
-2.41828e-21
-4.07708e-22
2.49383e-21
1.71638e-21
-4.22325e-23
-5.88408e-22
-4.81344e-21
-8.05267e-21
-1.16031e-20
-7.13017e-21
-7.00678e-21
-1.04028e-20
-9.31265e-21
-7.55453e-21
-8.98993e-21
-8.46504e-21
-5.08871e-21
-7.82958e-21
-7.4926e-21
-5.57163e-21
-2.80053e-21
-1.58071e-21
5.91073e-22
-2.66427e-21
-1.95873e-23
-9.54563e-22
-1.6877e-21
-1.2283e-21
-3.53352e-21
-5.72428e-21
-2.23153e-21
-1.70021e-21
-3.00027e-21
-6.78374e-22
1.18145e-21
-2.57142e-21
-6.44944e-21
-4.51831e-21
-2.51613e-21
2.15244e-22
-3.57257e-21
-1.11083e-21
1.75128e-21
2.5205e-21
5.979e-22
-8.00444e-22
-5.84962e-21
-7.64186e-21
-1.0015e-20
-6.58068e-21
-7.45453e-21
-1.05138e-20
-7.11054e-21
-3.64076e-21
-8.7952e-21
-8.96984e-21
-5.71027e-21
-5.67172e-21
-5.07318e-21
-3.83075e-21
-4.08421e-21
-2.13174e-21
-1.51441e-21
1.30151e-21
-2.91394e-22
6.38737e-22
1.2968e-21
-2.75927e-21
-2.79972e-21
-5.71568e-21
-5.76234e-21
-4.87644e-22
-2.30358e-22
1.90119e-22
6.31384e-22
-4.94432e-21
-2.49891e-21
-4.35609e-21
-3.4507e-21
-1.47522e-21
-1.37428e-21
-2.09506e-21
-1.59766e-21
-4.4606e-22
1.88467e-21
6.09896e-22
-5.07622e-21
-6.91991e-21
-6.49819e-21
-2.6285e-21
-1.49272e-21
-4.79988e-21
-7.45564e-21
-4.19719e-21
-6.25483e-21
-5.9775e-21
-2.36791e-21
-2.01483e-21
-4.9534e-21
-2.80797e-21
-1.87682e-21
-1.41498e-21
8.00729e-22
5.78861e-22
1.02416e-22
2.46762e-21
4.33193e-22
-4.8362e-21
-3.05818e-21
-9.51291e-22
-1.56178e-21
-4.79217e-22
-1.54863e-21
3.2196e-22
1.89046e-21
6.6764e-22
-3.1048e-21
-1.79366e-21
-3.02072e-21
-2.93281e-21
-7.90289e-22
-4.33503e-21
-3.87683e-21
-1.25904e-21
5.00146e-22
6.31663e-22
-3.90652e-21
-7.19731e-21
-1.12036e-20
-7.52135e-21
-6.39288e-21
-8.44443e-21
-4.27336e-21
-1.36601e-21
-9.87403e-21
-7.78414e-21
-4.00438e-21
-8.64859e-21
-5.98227e-21
-2.51308e-21
-4.33999e-21
-7.34528e-21
-4.9813e-21
-1.16432e-21
-6.7261e-22
-2.13537e-21
-3.32859e-21
-3.47012e-21
-2.81683e-21
-2.35999e-21
-3.07782e-21
-2.04645e-21
-2.26298e-21
-3.38195e-21
-5.50337e-21
-4.99093e-21
-4.21033e-21
-3.26757e-22
-1.5142e-21
-1.80535e-21
-2.53962e-21
-3.76692e-21
-2.40337e-21
-1.45373e-21
-1.84624e-22
1.40708e-21
-5.68879e-21
-9.61658e-21
-1.4933e-20
-1.26079e-20
-8.53898e-21
-1.15494e-20
-9.87062e-21
-4.1345e-21
-8.23786e-21
-1.3777e-20
-1.27681e-20
-1.02507e-20
-8.92339e-21
-6.34322e-21
-6.9413e-21
-6.45744e-21
-6.64231e-21
-5.04694e-21
-4.01847e-21
-3.68873e-21
-3.60061e-21
-3.92841e-21
-3.70314e-21
-4.78336e-21
-4.16268e-21
-2.12784e-21
-7.7497e-22
-1.21523e-21
-6.82049e-21
-2.9564e-21
-9.59497e-22
-8.59959e-25
-4.07583e-21
-1.61663e-21
-4.49982e-21
-3.0366e-21
-1.60783e-21
-4.33539e-22
-6.1689e-22
5.80496e-22
-9.3368e-21
-1.03303e-20
-1.29766e-20
-1.40877e-20
-1.18858e-20
-1.06122e-20
-9.907e-21
-9.7694e-21
-1.21791e-20
-1.51284e-20
-1.07436e-20
-8.8711e-21
-4.06145e-21
-5.6926e-21
-9.5706e-21
-7.50565e-21
-8.65348e-21
-5.53892e-21
-1.7764e-21
-2.3771e-21
-5.6431e-21
-4.79587e-21
-1.21195e-21
-3.42827e-21
-5.11679e-21
-2.56123e-21
-1.44671e-21
-4.55191e-21
-3.36869e-21
-4.03547e-21
-4.78639e-21
-2.76943e-21
-1.59837e-21
-7.75592e-22
-6.0056e-21
-4.44369e-21
2.07566e-22
1.99406e-21
4.68195e-22
3.87991e-22
-1.50163e-20
-1.40128e-20
-1.32891e-20
-1.63553e-20
-1.38497e-20
-1.15786e-20
-1.19447e-20
-8.87696e-21
-1.2331e-20
-1.35551e-20
-1.21801e-20
-1.25986e-20
-8.64902e-21
-5.2641e-21
-7.45089e-21
-8.40798e-21
-6.83135e-21
-5.34726e-21
-3.81336e-21
-1.77876e-21
-5.88002e-21
-5.26445e-21
-6.00136e-21
-4.13152e-21
-3.28181e-21
-3.07396e-21
-1.85367e-21
-5.78579e-22
-2.97475e-21
-6.12441e-21
-5.35788e-21
-1.78919e-21
-3.34315e-21
-3.63428e-21
-2.34595e-21
-1.10509e-21
-2.75046e-23
1.54568e-21
-1.30679e-21
-2.05203e-21
-1.56349e-20
-1.50274e-20
-1.38819e-20
-1.35612e-20
-1.77772e-20
-1.54089e-20
-1.24876e-20
-8.13782e-21
-9.30232e-21
-1.39872e-20
-1.28425e-20
-1.29401e-20
-9.97402e-21
-8.43595e-21
-9.42847e-21
-9.77634e-21
-8.50471e-21
-4.52503e-21
-4.69818e-21
-1.72101e-21
-4.89028e-21
-5.61467e-21
-7.22455e-21
-3.41647e-21
-4.73051e-21
-2.84677e-21
-3.62373e-21
-3.14777e-21
-1.82316e-21
-1.62646e-21
-2.15805e-21
-3.2391e-21
-1.70625e-22
3.26287e-22
-2.59586e-21
-8.3611e-22
8.88042e-22
1.79192e-22
-2.98787e-21
-3.10423e-22
-1.44495e-20
-1.55687e-20
-1.44509e-20
-1.4314e-20
-1.68762e-20
-1.78482e-20
-1.17171e-20
-1.24032e-20
-1.31853e-20
-1.27791e-20
-1.2578e-20
-1.36282e-20
-1.14819e-20
-8.33426e-21
-1.23107e-20
-1.04885e-20
-7.40449e-21
-4.98818e-21
-3.76821e-21
-2.50049e-21
-4.34908e-21
-7.61323e-21
-6.97308e-21
-3.89202e-21
-4.74544e-21
-4.58757e-21
-3.36132e-21
-2.43761e-21
-3.10096e-21
-2.39421e-21
-3.67131e-21
-1.1628e-21
3.76123e-21
-1.16331e-21
-1.96912e-21
-1.58494e-21
-1.64431e-21
-2.50044e-22
4.12148e-22
-4.73059e-23
-1.70901e-20
-1.97805e-20
-1.67456e-20
-1.50143e-20
-1.60746e-20
-1.66018e-20
-1.55852e-20
-1.33084e-20
-1.4082e-20
-1.33066e-20
-1.34723e-20
-1.29104e-20
-1.28276e-20
-9.51245e-21
-1.28969e-20
-9.69616e-21
-4.75451e-21
-3.3511e-21
-1.34876e-21
-2.99564e-21
-4.7789e-21
-6.73605e-21
-6.41119e-21
-6.80332e-21
-4.25326e-21
-5.25527e-21
-4.28307e-21
-3.16474e-21
3.03733e-22
-1.85118e-21
-5.37067e-21
-1.63143e-21
-4.12084e-22
4.42477e-22
-3.62686e-21
-3.24186e-21
-8.80829e-22
1.83323e-21
-8.43383e-22
-2.92408e-21
-1.64409e-20
-1.79622e-20
-1.66986e-20
-1.6711e-20
-1.81451e-20
-1.57874e-20
-1.42721e-20
-1.62684e-20
-1.61528e-20
-1.60505e-20
-1.22647e-20
-1.36458e-20
-9.44095e-21
-7.38317e-21
-1.27651e-20
-1.0413e-20
-6.49182e-21
-3.74609e-21
-1.27564e-21
-3.87105e-21
-4.64444e-21
-9.25162e-21
-9.53596e-21
-4.61839e-21
-4.792e-21
-4.41896e-21
-2.38331e-21
-1.64958e-21
-5.41311e-22
-2.98362e-21
-7.60296e-21
-2.51122e-21
-2.08597e-21
-3.20325e-21
-3.35421e-21
-1.38417e-21
5.36976e-22
2.15838e-21
-4.78529e-22
-9.81135e-22
-1.83772e-20
-2.00521e-20
-2.04987e-20
-1.66542e-20
-1.66199e-20
-1.59746e-20
-1.70826e-20
-1.5935e-20
-1.52997e-20
-1.50614e-20
-1.33013e-20
-1.44625e-20
-9.41636e-21
-9.95258e-21
-9.58633e-21
-9.1595e-21
-9.36915e-21
-4.69944e-21
-4.00025e-21
-6.14517e-21
-2.94562e-21
-1.10144e-20
-8.98872e-21
-8.09256e-21
-2.71607e-21
-1.62968e-21
-3.41622e-21
-3.23798e-21
2.19742e-21
-1.76611e-21
-5.86775e-21
-4.66127e-21
-3.46149e-21
-1.27636e-21
-3.39499e-21
-2.84645e-22
-2.53041e-22
2.10769e-21
1.62595e-21
-2.02936e-21
-1.84424e-20
-1.78186e-20
-1.87958e-20
-1.94255e-20
-1.86984e-20
-1.73371e-20
-2.03866e-20
-1.60443e-20
-1.2441e-20
-1.37858e-20
-1.2933e-20
-1.19455e-20
-1.22955e-20
-1.3687e-20
-1.09422e-20
-6.60396e-21
-6.38028e-21
-6.12763e-21
-1.34208e-21
-2.92308e-21
-6.88079e-21
-1.20488e-20
-1.03001e-20
-8.20052e-21
-4.50698e-21
-2.78642e-21
-1.82086e-21
-2.48176e-21
-3.42898e-22
-3.05147e-21
-3.26646e-21
-3.84988e-21
-3.62961e-21
-1.97797e-21
-2.83244e-21
-8.95428e-22
6.01137e-22
1.49909e-21
3.16893e-21
-1.89756e-22
-1.87654e-20
-2.22695e-20
-2.24422e-20
-1.92937e-20
-1.81827e-20
-1.67581e-20
-1.76386e-20
-1.75016e-20
-1.51013e-20
-1.48629e-20
-1.34512e-20
-1.23809e-20
-1.16967e-20
-1.17359e-20
-1.17255e-20
-1.10842e-20
-4.00314e-21
-3.3585e-21
-6.9316e-22
-4.43844e-21
-8.36288e-21
-9.06333e-21
-1.1289e-20
-1.27968e-20
-3.29403e-21
-7.70827e-22
-2.09334e-22
-3.83189e-21
-2.56054e-22
-2.79268e-21
-4.09729e-21
-2.88235e-21
-1.88815e-21
-2.9885e-21
-3.21555e-21
2.41024e-23
-1.33487e-21
-1.27617e-21
-1.89007e-21
-2.56383e-21
-2.22298e-20
-2.42305e-20
-2.13916e-20
-1.88488e-20
-1.57229e-20
-1.84867e-20
-1.92184e-20
-1.65332e-20
-1.33905e-20
-1.63596e-20
-1.56787e-20
-1.33425e-20
-1.4397e-20
-8.95776e-21
-1.18272e-20
-1.09232e-20
-8.93112e-21
-2.49025e-21
-1.15349e-21
-5.0068e-21
-6.87037e-21
-8.95994e-21
-1.0641e-20
-1.14847e-20
-1.58337e-21
-4.03996e-21
-2.22151e-21
-1.60745e-21
1.73633e-21
-3.10944e-21
-4.13664e-21
-3.27237e-21
-2.27213e-21
-2.67464e-21
-3.19571e-21
-3.22191e-22
3.37582e-22
-1.5466e-21
-2.15669e-21
-1.44028e-21
-2.47217e-20
-2.40537e-20
-1.9898e-20
-2.03943e-20
-1.93821e-20
-1.96349e-20
-1.75996e-20
-1.66486e-20
-1.69071e-20
-1.66376e-20
-1.31692e-20
-1.25792e-20
-1.45743e-20
-1.04039e-20
-1.16632e-20
-7.94713e-21
-5.41278e-21
-3.46056e-21
-6.66496e-21
-6.10702e-21
-6.71487e-21
-6.11998e-21
-1.0164e-20
-9.19892e-21
-4.30106e-21
-9.09077e-22
-1.2376e-22
-1.85312e-22
8.42448e-23
2.34753e-23
-4.41188e-21
-3.6236e-21
-7.36836e-22
-3.2374e-21
-7.3892e-21
6.17772e-22
1.01909e-21
-2.11746e-21
-1.85765e-21
3.50242e-22
-2.74497e-20
-2.54551e-20
-2.0813e-20
-2.00743e-20
-1.73325e-20
-1.85192e-20
-1.76491e-20
-1.55149e-20
-1.68739e-20
-1.83104e-20
-1.41597e-20
-1.09661e-20
-1.49445e-20
-1.29175e-20
-1.417e-20
-8.43311e-21
-7.74598e-21
-4.5796e-21
-4.26603e-21
-2.59254e-21
-7.40094e-21
-8.16608e-21
-6.80286e-21
-9.53457e-21
-4.12099e-21
-8.54571e-22
-1.65831e-22
5.47644e-22
1.61629e-21
4.30206e-22
-4.14763e-21
-2.99436e-21
-1.74609e-21
-3.56593e-21
-4.70098e-21
-1.06372e-21
9.69703e-22
-1.88486e-21
-1.72346e-21
5.30853e-22
-2.85702e-20
-2.5117e-20
-2.10011e-20
-1.87149e-20
-1.67943e-20
-1.6178e-20
-1.94444e-20
-1.72615e-20
-1.62224e-20
-1.59325e-20
-1.4327e-20
-1.3244e-20
-1.59708e-20
-1.34586e-20
-1.17876e-20
-1.0458e-20
-2.40861e-21
-4.89001e-21
-7.10246e-21
-5.51641e-21
-7.32016e-21
-9.27419e-21
-8.97829e-21
-5.73177e-21
-1.35474e-21
-2.48686e-21
-2.54844e-22
9.62729e-22
5.493e-22
6.88523e-22
-4.817e-21
-2.43592e-21
3.04766e-23
-1.43018e-21
-4.14789e-21
-3.4165e-21
-2.33435e-21
7.55419e-22
2.65602e-23
8.30227e-22
-2.48503e-20
-2.4207e-20
-2.16989e-20
-1.92276e-20
-1.79214e-20
-1.81284e-20
-1.84552e-20
-1.80023e-20
-1.56871e-20
-1.31252e-20
-1.57521e-20
-1.74828e-20
-1.72204e-20
-1.31207e-20
-1.0636e-20
-6.10541e-21
-4.75875e-21
-6.51072e-21
-6.61556e-21
-5.89596e-21
-6.65903e-21
-9.33686e-21
-8.12487e-21
-3.74215e-21
7.1707e-22
-3.73266e-21
-1.65415e-21
-9.42997e-22
-1.18614e-21
-1.57459e-22
-1.22e-21
-2.22602e-21
1.42991e-23
-1.37738e-21
-3.78611e-21
-1.71881e-21
-1.94825e-21
-2.13484e-21
-9.11266e-23
-5.61995e-22
-2.06123e-20
-2.10902e-20
-2.1509e-20
-1.83586e-20
-2.12111e-20
-1.85151e-20
-1.96153e-20
-1.89483e-20
-1.54485e-20
-1.3151e-20
-1.57583e-20
-1.76408e-20
-1.5988e-20
-1.30999e-20
-1.03759e-20
-5.59902e-21
-3.86731e-21
-7.02823e-21
-1.04093e-20
-7.84839e-21
-8.48039e-21
-5.26327e-21
-2.67448e-21
-2.67173e-21
8.8614e-22
-3.48498e-21
-1.59621e-21
-1.66611e-21
-2.32526e-21
-8.47998e-22
-1.06059e-21
-1.88945e-21
-1.07102e-21
-3.5449e-21
-3.43184e-21
-1.37683e-21
-2.66636e-22