/*--------------------------------*- C++ -*----------------------------------*\
| =========                 |                                                 |
| \\      /  F ield         | OpenFOAM: The Open Source CFD Toolbox           |
|  \\    /   O peration     | Version:  v2012                                 |
|   \\  /    A nd           | Website:  www.openfoam.com                      |
|    \\/     M anipulation  |                                                 |
\*---------------------------------------------------------------------------*/
FoamFile
{
    version     2.0;
    format      ascii;
    class       surfaceScalarField;
    location    "24";
    object      phi;
}
// * * * * * * * * * * * * * * * * * * * * * * * * * * * * * * * * * * * * * //

dimensions      [0 3 -1 0 0 0 0];
oriented        oriented;


internalField   nonuniform List<scalar> 
187200
(
1.875e-06
1.78655e-22
1.58966e-22
1.875e-06
2.82218e-22
2.89319e-22
1.875e-06
3.30684e-22
4.35894e-22
1.875e-06
2.73069e-22
3.04225e-22
1.875e-06
2.82928e-22
1.82773e-22
1.875e-06
4.26706e-22
2.98811e-22
1.875e-06
3.08631e-22
2.0917e-22
1.875e-06
1.64301e-22
1.85387e-22
1.875e-06
1.54107e-22
3.55971e-22
1.875e-06
3.51684e-22
3.1045e-22
1.875e-06
2.88459e-22
1.91207e-22
1.875e-06
2.48027e-22
2.42621e-22
1.875e-06
1.63466e-22
2.05255e-22
1.875e-06
1.16725e-22
6.02322e-23
1.875e-06
1.75036e-22
1.58138e-22
1.875e-06
1.35679e-22
1.84947e-22
1.875e-06
1.76957e-22
1.75505e-22
1.875e-06
6.83147e-23
9.41657e-23
1.875e-06
1.03819e-22
6.40212e-23
1.875e-06
6.79296e-23
9.50469e-23
1.875e-06
9.058e-24
1.1565e-22
1.875e-06
1.22276e-22
1.00828e-22
1.875e-06
1.57689e-22
8.02838e-23
1.875e-06
2.76705e-22
9.34759e-23
1.875e-06
1.75531e-22
9.86703e-24
1.875e-06
5.11025e-23
6.95924e-23
1.875e-06
1.27377e-23
8.79896e-23
1.875e-06
7.20733e-23
1.11946e-22
1.875e-06
6.50177e-23
1.69699e-22
1.875e-06
1.70982e-23
1.74511e-22
1.875e-06
-6.19026e-23
1.68491e-22
1.875e-06
3.41766e-24
6.02956e-23
1.875e-06
1.02628e-22
5.75454e-23
1.875e-06
6.48611e-23
5.70637e-23
1.875e-06
1.78369e-23
4.0134e-23
1.875e-06
-4.10868e-23
-1.56172e-23
1.875e-06
-8.33727e-23
6.98227e-23
1.875e-06
-1.2237e-22
-1.52804e-23
1.875e-06
-8.98429e-23
7.01624e-23
-7.68453e-23
3.48217e-23
1.875e-06
1.01425e-22
2.11984e-22
1.875e-06
1.66994e-22
4.57169e-22
1.875e-06
2.92238e-22
6.72367e-22
1.875e-06
3.06597e-22
6.43693e-22
1.875e-06
2.28441e-22
4.53627e-22
1.875e-06
2.7081e-22
4.52518e-22
1.875e-06
3.04884e-22
5.06763e-22
1.875e-06
3.70737e-22
5.05883e-22
1.875e-06
3.6705e-22
6.70899e-22
1.875e-06
2.09421e-22
6.17867e-22
1.875e-06
1.83121e-22
5.95788e-22
1.875e-06
1.62795e-22
4.66087e-22
1.875e-06
1.86368e-22
4.93976e-22
1.875e-06
1.25243e-22
3.84297e-22
1.875e-06
3.44007e-23
3.15819e-22
1.875e-06
-3.96685e-23
2.77333e-22
1.875e-06
1.43567e-22
3.09377e-22
1.875e-06
1.84926e-22
3.95557e-22
1.875e-06
8.19721e-23
3.12925e-22
1.875e-06
2.79857e-23
2.03218e-22
1.875e-06
2.03024e-22
2.69114e-22
1.875e-06
1.90077e-22
1.3818e-22
1.875e-06
1.10115e-22
5.97574e-23
1.875e-06
5.10228e-23
-2.687e-24
1.875e-06
-2.46963e-23
1.20105e-23
1.875e-06
1.51958e-22
1.36502e-22
1.875e-06
1.10817e-22
5.89133e-23
1.875e-06
3.6272e-23
2.16107e-23
1.875e-06
-5.23033e-23
2.69808e-22
1.875e-06
2.29668e-23
2.31294e-22
1.875e-06
1.01365e-22
2.00512e-22
1.875e-06
8.39175e-23
1.05024e-22
1.875e-06
6.70267e-23
8.9433e-23
1.875e-06
-7.00516e-23
4.06949e-23
1.875e-06
-4.55397e-23
1.15665e-22
1.875e-06
-3.48503e-23
8.81037e-23
1.875e-06
-9.73023e-23
1.37356e-23
1.875e-06
-1.20283e-22
-4.87011e-23
1.875e-06
-3.0308e-23
3.55539e-23
3.68182e-23
3.20474e-23
1.875e-06
1.94197e-22
3.33274e-22
1.875e-06
1.79282e-22
5.23796e-22
1.875e-06
1.23082e-22
6.39958e-22
1.875e-06
2.66925e-22
7.51933e-22
1.875e-06
3.04737e-22
6.58191e-22
1.875e-06
2.69029e-22
5.32826e-22
1.875e-06
2.36997e-22
6.22563e-22
1.875e-06
2.19818e-22
6.7938e-22
1.875e-06
2.27143e-22
7.41305e-22
1.875e-06
2.15686e-22
7.76034e-22
1.875e-06
2.07104e-22
6.93163e-22
1.875e-06
2.06322e-22
5.19693e-22
1.875e-06
2.17647e-22
4.30841e-22
1.875e-06
1.33214e-22
4.40881e-22
1.875e-06
1.17099e-22
5.19611e-22
1.875e-06
1.13919e-22
4.7653e-22
1.875e-06
7.95618e-23
3.37035e-22
1.875e-06
1.09354e-22
3.83231e-22
1.875e-06
-2.12207e-23
3.2059e-22
1.875e-06
1.10005e-22
2.76409e-22
1.875e-06
6.93942e-23
2.86736e-22
1.875e-06
9.33862e-23
6.98759e-23
1.875e-06
1.58993e-22
-3.55545e-23
1.875e-06
1.08154e-22
4.36868e-23
1.875e-06
1.19503e-22
1.54819e-22
1.875e-06
5.61982e-23
8.79528e-23
1.875e-06
5.10438e-23
5.99731e-23
1.875e-06
-6.5682e-23
1.15753e-22
1.875e-06
-2.46605e-23
2.38956e-22
1.875e-06
8.49046e-24
2.63536e-22
1.875e-06
-3.70193e-23
2.84401e-22
1.875e-06
1.16427e-22
1.72862e-22
1.875e-06
3.12379e-23
3.6333e-23
1.875e-06
-6.49582e-23
8.69605e-23
1.875e-06
-8.9539e-23
1.75616e-22
1.875e-06
-8.34902e-23
9.3082e-23
1.875e-06
-4.67186e-23
-2.27633e-23
1.875e-06
1.13185e-22
-1.70967e-23
1.875e-06
7.18408e-23
-4.92535e-24
1.29723e-22
2.47148e-23
1.875e-06
2.29467e-22
3.83371e-22
1.875e-06
1.75235e-22
6.66066e-22
1.875e-06
1.3526e-22
7.43377e-22
1.875e-06
7.31816e-23
7.79111e-22
1.875e-06
1.80734e-22
6.93395e-22
1.875e-06
1.92245e-22
5.73247e-22
1.875e-06
2.15713e-22
7.01637e-22
1.875e-06
1.69225e-22
7.46169e-22
1.875e-06
1.82836e-22
7.76194e-22
1.875e-06
2.30827e-22
7.98794e-22
1.875e-06
2.16922e-22
7.98943e-22
1.875e-06
1.43909e-22
6.9999e-22
1.875e-06
1.36858e-22
5.28936e-22
1.875e-06
8.9879e-23
4.78207e-22
1.875e-06
2.21855e-22
5.14951e-22
1.875e-06
4.19837e-22
5.5489e-22
1.875e-06
9.55773e-23
3.6466e-22
1.875e-06
-6.56927e-23
3.44944e-22
1.875e-06
7.34941e-23
4.43375e-22
1.875e-06
2.20186e-23
2.34186e-22
1.875e-06
7.98449e-24
2.40215e-22
1.875e-06
4.55048e-23
8.61658e-23
1.875e-06
2.03162e-22
7.18701e-23
1.875e-06
9.21503e-23
6.88189e-23
1.875e-06
6.17495e-23
8.02372e-23
1.875e-06
5.43499e-23
1.41459e-22
1.875e-06
2.86138e-23
7.70855e-23
1.875e-06
4.90909e-23
8.62295e-23
1.875e-06
7.13898e-23
2.50287e-22
1.875e-06
-7.38248e-23
2.07319e-22
1.875e-06
-5.63059e-23
3.2971e-22
1.875e-06
-7.04858e-23
1.07433e-22
1.875e-06
-1.65303e-22
9.01224e-23
1.875e-06
-1.90118e-23
2.59834e-22
1.875e-06
6.03699e-23
1.39992e-22
1.875e-06
-9.59698e-23
2.06412e-23
1.875e-06
-1.271e-23
-5.15587e-23
1.875e-06
2.02422e-23
-1.19987e-22
1.875e-06
1.50052e-22
8.71229e-23
1.2464e-22
8.36466e-23
1.875e-06
-1.74099e-23
2.5835e-22
1.875e-06
1.25321e-22
7.02406e-22
1.875e-06
9.00735e-23
7.45356e-22
1.875e-06
1.73378e-22
7.75387e-22
1.875e-06
9.21971e-23
8.37224e-22
1.875e-06
8.09701e-23
7.5908e-22
1.875e-06
1.08144e-22
8.33777e-22
1.875e-06
3.65823e-22
8.31291e-22
1.875e-06
3.15297e-22
7.70743e-22
1.875e-06
1.6677e-22
8.31666e-22
1.875e-06
1.33798e-22
8.38983e-22
1.875e-06
1.52039e-22
7.6719e-22
1.875e-06
1.97703e-22
6.21384e-22
1.875e-06
1.67913e-22
6.46181e-22
1.875e-06
1.46335e-22
5.38508e-22
1.875e-06
1.1568e-22
4.20505e-22
1.875e-06
9.25683e-23
4.33216e-22
1.875e-06
-7.0467e-24
4.24425e-22
1.875e-06
-5.98789e-23
3.95264e-22
1.875e-06
5.44962e-23
2.53155e-22
1.875e-06
-5.61805e-23
2.46005e-22
1.875e-06
4.61547e-23
1.22123e-22
1.875e-06
1.37372e-22
7.10839e-23
1.875e-06
1.72781e-22
1.10229e-22
1.875e-06
8.37849e-23
1.90981e-22
1.875e-06
4.83396e-23
1.55881e-22
1.875e-06
8.53523e-23
1.82478e-22
1.875e-06
-1.12103e-24
1.33569e-22
1.875e-06
-7.02575e-23
7.97455e-23
1.875e-06
3.544e-23
1.62876e-22
1.875e-06
1.24932e-22
2.65703e-22
1.875e-06
3.68094e-23
2.07091e-22
1.875e-06
-5.48276e-23
1.19264e-22
1.875e-06
-6.26894e-23
1.18436e-22
1.875e-06
-7.0101e-23
4.63955e-23
1.875e-06
1.01955e-22
3.8484e-23
1.875e-06
1.06582e-22
-5.71431e-23
1.875e-06
2.42189e-23
-2.0589e-23
1.875e-06
6.51943e-24
6.35446e-23
-2.23613e-23
-1.6469e-23
1.875e-06
2.70724e-23
3.37602e-22
1.875e-06
9.95144e-23
6.87498e-22
1.875e-06
1.07147e-22
7.81278e-22
1.875e-06
4.28081e-23
7.26707e-22
1.875e-06
1.25555e-22
8.92996e-22
1.875e-06
1.36155e-22
9.32852e-22
1.875e-06
1.5704e-22
9.30456e-22
1.875e-06
2.05773e-22
9.09171e-22
1.875e-06
2.65073e-22
8.57282e-22
1.875e-06
2.04986e-22
7.95163e-22
1.875e-06
1.5806e-22
8.90201e-22
1.875e-06
1.66216e-22
8.08601e-22
1.875e-06
1.51995e-22
6.48184e-22
1.875e-06
2.47529e-22
6.95631e-22
1.875e-06
1.55932e-22
6.69828e-22
1.875e-06
6.36675e-23
4.92528e-22
1.875e-06
2.88768e-23
4.08902e-22
1.875e-06
-3.58658e-23
4.20808e-22
1.875e-06
-7.62908e-23
3.90895e-22
1.875e-06
-4.40553e-24
2.32759e-22
1.875e-06
1.55641e-22
2.96107e-22
1.875e-06
1.23843e-22
2.13698e-22
1.875e-06
1.61904e-22
5.43816e-23
1.875e-06
1.90342e-22
9.41905e-23
1.875e-06
1.39529e-23
1.73523e-22
1.875e-06
8.01272e-23
2.23257e-22
1.875e-06
1.89852e-23
1.35994e-22
1.875e-06
-1.12824e-23
8.79686e-23
1.875e-06
-8.86382e-23
1.50533e-22
1.875e-06
-9.09372e-23
1.89986e-22
1.875e-06
8.33997e-23
1.82907e-22
1.875e-06
9.35624e-23
1.15379e-22
1.875e-06
3.19343e-23
2.63844e-23
1.875e-06
7.49708e-23
1.65993e-22
1.875e-06
2.50981e-23
1.38257e-22
1.875e-06
1.02671e-22
-7.16106e-24
1.875e-06
7.20495e-23
-5.1872e-23
1.875e-06
-1.97785e-23
-7.18292e-23
1.875e-06
-1.73273e-23
-1.39557e-23
2.23229e-23
5.91594e-23
1.875e-06
8.3257e-23
3.87619e-22
1.875e-06
1.1071e-22
7.72713e-22
1.875e-06
1.3766e-22
8.4728e-22
1.875e-06
7.75862e-23
8.41482e-22
1.875e-06
1.29382e-22
8.74521e-22
1.875e-06
6.20649e-23
9.38384e-22
1.875e-06
1.48436e-22
1.03267e-21
1.875e-06
3.18216e-22
9.62329e-22
1.875e-06
2.2875e-22
9.18798e-22
1.875e-06
2.32459e-22
8.85045e-22
1.875e-06
2.23276e-22
9.00775e-22
1.875e-06
7.06274e-23
7.56393e-22
1.875e-06
1.12404e-22
7.39193e-22
1.875e-06
1.61194e-22
7.50944e-22
1.875e-06
1.22694e-22
6.78741e-22
1.875e-06
1.13599e-22
4.84143e-22
1.875e-06
4.07862e-23
3.57062e-22
1.875e-06
1.16529e-22
4.33111e-22
1.875e-06
1.82113e-22
3.47738e-22
1.875e-06
6.88053e-23
2.49094e-22
1.875e-06
4.51984e-23
2.41565e-22
1.875e-06
1.15055e-22
1.98119e-22
1.875e-06
-6.36286e-23
4.84731e-23
1.875e-06
-3.0103e-23
7.70294e-23
1.875e-06
5.45346e-23
2.56589e-22
1.875e-06
8.7344e-23
2.30406e-22
1.875e-06
1.65323e-23
1.68426e-22
1.875e-06
-3.95692e-23
1.64725e-22
1.875e-06
-3.62804e-23
5.90976e-23
1.875e-06
3.21868e-23
1.37787e-22
1.875e-06
-2.65291e-23
1.68603e-22
1.875e-06
-5.44529e-23
4.72039e-23
1.875e-06
-2.10772e-23
7.41505e-23
1.875e-06
8.76222e-23
1.06478e-22
1.875e-06
2.62355e-22
1.86774e-22
1.875e-06
1.98184e-22
-1.03231e-23
1.875e-06
7.51938e-24
-1.09172e-22
1.875e-06
-6.77908e-23
-1.15268e-22
1.875e-06
-5.89253e-23
7.5525e-23
-3.09048e-24
1.61299e-22
1.875e-06
1.40914e-22
2.98631e-22
1.875e-06
9.49531e-23
6.87068e-22
1.875e-06
9.50666e-23
8.50016e-22
1.875e-06
1.04129e-22
9.64175e-22
1.875e-06
6.17936e-23
9.65212e-22
1.875e-06
2.11367e-22
9.70135e-22
1.875e-06
2.4746e-22
1.04999e-21
1.875e-06
4.50011e-23
9.28127e-22
1.875e-06
1.28833e-22
9.70888e-22
1.875e-06
2.46315e-22
9.27095e-22
1.875e-06
1.33115e-22
8.60088e-22
1.875e-06
1.28675e-22
8.20146e-22
1.875e-06
2.21721e-23
6.5484e-22
1.875e-06
1.1432e-22
5.329e-22
1.875e-06
2.01971e-22
6.79049e-22
1.875e-06
8.52492e-23
4.93842e-22
1.875e-06
8.03365e-23
4.3927e-22
1.875e-06
2.70993e-23
3.90882e-22
1.875e-06
1.64587e-22
2.28691e-22
1.875e-06
1.97356e-22
2.63124e-22
1.875e-06
1.08346e-22
2.57846e-22
1.875e-06
9.88886e-24
2.47598e-22
1.875e-06
2.89906e-23
2.83913e-22
1.875e-06
7.46861e-23
1.80318e-22
1.875e-06
2.6738e-24
2.84589e-22
1.875e-06
-4.89558e-23
1.9452e-22
1.875e-06
6.60586e-23
6.1297e-23
1.875e-06
6.65453e-23
1.08531e-22
1.875e-06
-3.99642e-23
5.40593e-23
1.875e-06
-3.58125e-23
1.09574e-22
1.875e-06
-3.49713e-23
2.53323e-22
1.875e-06
-8.28668e-23
1.51569e-22
1.875e-06
-3.52861e-23
1.80574e-22
1.875e-06
3.81722e-23
1.29326e-22
1.875e-06
1.15118e-22
2.16929e-23
1.875e-06
-5.98287e-24
-2.23312e-22
1.875e-06
5.33358e-23
-2.56516e-22
1.875e-06
-1.51018e-23
-8.54264e-23
1.875e-06
-4.87687e-23
5.54839e-23
-1.81888e-23
2.81352e-23
1.875e-06
-2.24456e-22
2.31164e-22
1.875e-06
-2.85254e-23
7.05365e-22
1.875e-06
1.55726e-22
9.77052e-22
1.875e-06
1.35742e-22
1.00248e-21
1.875e-06
1.36538e-22
1.02896e-21
1.875e-06
1.6732e-22
9.75932e-22
1.875e-06
1.70632e-22
1.10413e-21
1.875e-06
1.46762e-22
1.05892e-21
1.875e-06
1.2182e-22
9.72861e-22
1.875e-06
5.05989e-23
8.10167e-22
1.875e-06
9.84464e-23
8.39473e-22
1.875e-06
4.29936e-23
7.94203e-22
1.875e-06
9.46483e-23
7.42947e-22
1.875e-06
1.52908e-22
6.04839e-22
1.875e-06
9.30411e-23
4.87091e-22
1.875e-06
-2.19746e-24
4.54064e-22
1.875e-06
1.0917e-22
5.3055e-22
1.875e-06
1.7493e-22
4.79924e-22
1.875e-06
-6.65147e-23
2.09539e-22
1.875e-06
-2.66402e-23
2.30457e-22
1.875e-06
1.38452e-22
2.75988e-22
1.875e-06
5.58289e-23
3.79505e-22
1.875e-06
1.28814e-22
3.18571e-22
1.875e-06
3.27631e-23
2.72314e-22
1.875e-06
1.23928e-22
2.76723e-22
1.875e-06
2.57338e-23
1.80345e-22
1.875e-06
-7.23923e-23
5.22396e-23
1.875e-06
-1.9914e-23
3.51707e-23
1.875e-06
3.77977e-23
-2.2479e-23
1.875e-06
-8.41134e-23
7.15988e-23
1.875e-06
-9.54703e-23
1.97896e-22
1.875e-06
-6.15114e-23
2.58247e-22
1.875e-06
3.6627e-23
2.77174e-22
1.875e-06
2.21654e-23
7.29538e-23
1.875e-06
2.34552e-23
-1.3128e-22
1.875e-06
-5.1251e-24
-3.1426e-22
1.875e-06
-4.62366e-24
-2.51383e-22
1.875e-06
1.09974e-22
-7.65602e-23
1.875e-06
1.12676e-22
-3.34493e-23
6.99411e-23
6.56427e-23
1.875e-06
3.25538e-23
5.2596e-22
1.875e-06
9.21223e-23
7.34846e-22
1.875e-06
9.04656e-23
9.22629e-22
1.875e-06
2.27925e-22
1.1303e-21
1.875e-06
1.10037e-22
1.16286e-21
1.875e-06
1.18227e-22
1.05759e-21
1.875e-06
2.32214e-22
1.16674e-21
1.875e-06
8.58247e-23
1.06412e-21
1.875e-06
1.5763e-22
8.50312e-22
1.875e-06
1.11023e-22
7.77502e-22
1.875e-06
1.09073e-22
8.09001e-22
1.875e-06
2.1777e-23
8.64119e-22
1.875e-06
3.98392e-23
8.03084e-22
1.875e-06
9.72153e-23
6.76157e-22
1.875e-06
1.52408e-22
5.21273e-22
1.875e-06
2.02183e-22
4.18197e-22
1.875e-06
8.28339e-23
3.91754e-22
1.875e-06
-2.49319e-24
4.55231e-22
1.875e-06
-7.72364e-23
2.80856e-22
1.875e-06
-4.67429e-24
2.90979e-22
1.875e-06
6.30736e-23
3.42375e-22
1.875e-06
2.33599e-22
4.32259e-22
1.875e-06
7.55822e-23
2.90768e-22
1.875e-06
6.22984e-23
3.34622e-22
1.875e-06
7.17087e-23
2.89626e-22
1.875e-06
-4.29008e-23
1.38821e-22
1.875e-06
-1.13786e-22
4.07385e-23
1.875e-06
-8.50897e-23
-7.25933e-24
1.875e-06
-9.60255e-24
5.08822e-24
1.875e-06
1.18361e-23
1.73725e-22
1.875e-06
9.96033e-24
1.95827e-22
1.875e-06
-8.23681e-23
2.43526e-22
1.875e-06
2.91576e-23
1.95112e-22
1.875e-06
-2.50471e-23
8.07961e-23
1.875e-06
-1.44388e-22
-1.48405e-22
1.875e-06
-4.21363e-23
-2.6652e-22
1.875e-06
4.09968e-23
-3.33536e-22
1.875e-06
2.34891e-22
-1.59993e-22
1.875e-06
2.15386e-22
-1.37446e-22
1.22814e-22
-7.16464e-23
1.875e-06
1.39958e-22
5.848e-22
1.875e-06
1.67426e-22
9.03357e-22
1.875e-06
1.50206e-22
1.05515e-21
1.875e-06
7.35665e-23
1.06903e-21
1.875e-06
1.33775e-22
1.16409e-21
1.875e-06
1.99522e-22
1.05159e-21
1.875e-06
2.82861e-23
9.8555e-22
1.875e-06
1.72533e-22
1.10755e-21
1.875e-06
-1.78529e-24
8.66483e-22
1.875e-06
1.02173e-22
8.04256e-22
1.875e-06
2.66092e-22
8.315e-22
1.875e-06
1.60882e-22
9.00375e-22
1.875e-06
9.4854e-23
8.64403e-22
1.875e-06
8.66138e-23
6.66046e-22
1.875e-06
1.05953e-22
5.29196e-22
1.875e-06
3.74587e-23
4.85647e-22
1.875e-06
4.7882e-23
3.44178e-22
1.875e-06
-1.40356e-23
3.902e-22
1.875e-06
1.14343e-22
3.58788e-22
1.875e-06
2.43433e-23
3.36584e-22
1.875e-06
9.1788e-23
3.68082e-22
1.875e-06
3.45563e-23
2.16574e-22
1.875e-06
8.49827e-24
3.29736e-22
1.875e-06
3.01398e-23
4.28526e-22
1.875e-06
3.65589e-23
1.77132e-22
1.875e-06
-6.18541e-23
8.58155e-23
1.875e-06
-6.5907e-23
8.65867e-23
1.875e-06
-4.50504e-23
9.07885e-23
1.875e-06
-1.02006e-24
2.2697e-24
1.875e-06
-5.03438e-23
1.31146e-22
1.875e-06
-1.16336e-22
1.77889e-22
1.875e-06
1.04299e-23
2.67585e-22
1.875e-06
-7.83839e-23
1.00989e-22
1.875e-06
-2.07609e-23
1.04058e-22
1.875e-06
-1.0692e-22
-1.55932e-23
1.875e-06
-8.88102e-23
-2.93317e-22
1.875e-06
-2.56504e-23
-3.08006e-22
1.875e-06
6.39654e-23
-2.13325e-22
1.875e-06
1.5476e-22
-6.6571e-23
1.42354e-22
-4.59644e-23
1.875e-06
2.62682e-22
6.23184e-22
1.875e-06
2.05915e-22
9.47799e-22
1.875e-06
1.43667e-22
1.01151e-21
1.875e-06
1.07326e-22
1.07137e-21
1.875e-06
1.0849e-22
1.09333e-21
1.875e-06
2.03122e-23
1.03828e-21
1.875e-06
1.3606e-22
1.11139e-21
1.875e-06
1.66198e-22
9.88354e-22
1.875e-06
2.24089e-22
8.68123e-22
1.875e-06
7.19429e-23
8.52238e-22
1.875e-06
-3.30963e-23
7.56351e-22
1.875e-06
8.4584e-23
8.9976e-22
1.875e-06
1.86089e-22
9.14926e-22
1.875e-06
1.32905e-22
6.0612e-22
1.875e-06
-2.37322e-23
5.24503e-22
1.875e-06
-1.67634e-23
5.75617e-22
1.875e-06
-1.02126e-23
5.28304e-22
1.875e-06
1.04315e-22
4.58436e-22
1.875e-06
1.30984e-22
3.60497e-22
1.875e-06
1.38421e-22
4.0425e-22
1.875e-06
7.12749e-23
3.17122e-22
1.875e-06
-5.3032e-23
2.48709e-22
1.875e-06
-2.27055e-23
2.95274e-22
1.875e-06
-5.62144e-23
3.36428e-22
1.875e-06
-1.07344e-22
8.30246e-23
1.875e-06
-4.99735e-23
1.65071e-22
1.875e-06
-4.36436e-23
9.14766e-23
1.875e-06
-1.21501e-23
7.71684e-23
1.875e-06
-8.77457e-23
-3.66401e-23
1.875e-06
-1.11341e-22
1.40648e-22
1.875e-06
2.30138e-23
2.67134e-22
1.875e-06
-8.51897e-24
2.39352e-22
1.875e-06
-8.90893e-23
1.58066e-22
1.875e-06
-7.90108e-24
8.32243e-23
1.875e-06
8.00531e-24
9.28333e-23
1.875e-06
-2.67075e-23
-1.40838e-22
1.875e-06
5.7873e-23
-2.79481e-22
1.875e-06
1.1845e-22
-1.82407e-22
1.875e-06
1.08057e-22
-1.33478e-22
1.07006e-22
-1.47214e-22
1.875e-06
8.33443e-23
5.11327e-22
1.875e-06
1.29142e-22
8.58941e-22
1.875e-06
7.23166e-23
9.36339e-22
1.875e-06
7.71868e-23
1.14256e-21
1.875e-06
1.97951e-23
1.09375e-21
1.875e-06
-1.13496e-23
1.10117e-21
1.875e-06
7.42608e-23
1.02605e-21
1.875e-06
5.01358e-23
9.23792e-22
1.875e-06
-4.34174e-23
8.62031e-22
1.875e-06
8.53301e-23
8.34368e-22
1.875e-06
2.05852e-23
7.73018e-22
1.875e-06
7.0715e-23
8.97543e-22
1.875e-06
1.30792e-22
8.56999e-22
1.875e-06
1.8932e-22
6.76307e-22
1.875e-06
1.01719e-22
6.23698e-22
1.875e-06
1.34277e-23
5.30071e-22
1.875e-06
-2.21907e-23
4.56432e-22
1.875e-06
2.1373e-23
4.19617e-22
1.875e-06
1.20213e-22
5.37701e-22
1.875e-06
8.94385e-23
4.09864e-22
1.875e-06
9.3664e-23
3.48878e-22
1.875e-06
7.80816e-23
2.60169e-22
1.875e-06
-3.58611e-24
3.213e-22
1.875e-06
4.67496e-23
3.25108e-22
1.875e-06
-9.70228e-23
1.41807e-22
1.875e-06
-5.14927e-23
5.60245e-23
1.875e-06
-2.90994e-23
-3.67236e-23
1.875e-06
-5.08159e-23
1.60746e-23
1.875e-06
-8.04189e-23
6.59996e-23
1.875e-06
-2.08926e-22
1.00027e-22
1.875e-06
-1.52736e-22
1.40484e-22
1.875e-06
3.81788e-23
2.11212e-22
1.875e-06
2.75711e-23
1.90606e-22
1.875e-06
-8.63696e-23
7.39703e-23
1.875e-06
-4.83716e-23
1.78194e-22
1.875e-06
-9.94634e-24
-9.92472e-23
1.875e-06
8.13245e-23
-3.34733e-22
1.875e-06
1.34656e-22
-2.01569e-22
1.875e-06
2.60121e-23
-1.56961e-22
-1.39935e-24
-3.20317e-22
1.875e-06
-1.81116e-22
6.05092e-22
1.875e-06
-6.66585e-24
8.64361e-22
1.875e-06
8.5981e-23
9.6691e-22
1.875e-06
1.58866e-23
1.10517e-21
1.875e-06
-6.27775e-23
1.09612e-21
1.875e-06
-1.27802e-23
1.08927e-21
1.875e-06
1.4603e-22
1.00424e-21
1.875e-06
2.43943e-22
9.4975e-22
1.875e-06
1.48167e-22
9.96767e-22
1.875e-06
-1.03386e-22
9.01875e-22
1.875e-06
-2.70073e-23
8.66317e-22
1.875e-06
1.72514e-22
8.33335e-22
1.875e-06
1.15164e-22
8.19362e-22
1.875e-06
4.62387e-23
6.78389e-22
1.875e-06
-3.59873e-23
7.0854e-22
1.875e-06
4.98041e-24
5.89915e-22
1.875e-06
5.16514e-23
5.08199e-22
1.875e-06
2.06297e-22
5.00287e-22
1.875e-06
1.25946e-22
4.31011e-22
1.875e-06
6.91649e-23
3.39608e-22
1.875e-06
1.27089e-22
3.04163e-22
1.875e-06
2.08153e-24
2.9737e-22
1.875e-06
-7.85162e-23
2.49428e-22
1.875e-06
-8.26138e-23
2.38311e-22
1.875e-06
-1.11291e-22
1.71203e-22
1.875e-06
-1.99419e-23
-1.40683e-23
1.875e-06
8.55595e-23
-3.26362e-23
1.875e-06
3.50229e-23
-2.83306e-23
1.875e-06
-5.28298e-23
-1.04603e-23
1.875e-06
-1.51024e-24
2.06316e-22
1.875e-06
-1.12437e-22
2.6096e-22
1.875e-06
-1.47081e-22
9.18518e-23
1.875e-06
-2.14114e-23
1.16803e-22
1.875e-06
-5.98797e-23
1.21955e-22
1.875e-06
-6.18857e-23
1.30229e-22
1.875e-06
-1.01809e-23
-1.52643e-22
1.875e-06
5.02669e-23
-3.90677e-22
1.875e-06
8.08411e-23
-2.39046e-22
1.875e-06
6.60765e-23
-1.75324e-22
-1.15648e-22
-3.54156e-22
1.875e-06
-7.03724e-23
7.52723e-22
1.875e-06
-2.1482e-22
9.09202e-22
1.875e-06
-7.06145e-23
9.70441e-22
1.875e-06
-2.08483e-23
1.08071e-21
1.875e-06
8.53694e-23
1.13808e-21
1.875e-06
3.43332e-24
1.0329e-21
1.875e-06
7.1797e-24
9.72788e-22
1.875e-06
8.44563e-23
9.01292e-22
1.875e-06
6.89596e-24
9.43047e-22
1.875e-06
-3.03044e-23
9.50512e-22
1.875e-06
1.5708e-22
9.48473e-22
1.875e-06
1.52832e-22
8.20241e-22
1.875e-06
6.99604e-23
8.36946e-22
1.875e-06
-5.36382e-23
7.07214e-22
1.875e-06
5.48066e-23
7.46951e-22
1.875e-06
3.56075e-23
5.91628e-22
1.875e-06
5.25572e-23
3.49233e-22
1.875e-06
1.27145e-22
3.80417e-22
1.875e-06
8.96347e-23
4.66686e-22
1.875e-06
6.93996e-23
3.94172e-22
1.875e-06
1.18142e-22
2.91951e-22
1.875e-06
8.03443e-23
4.09726e-22
1.875e-06
-9.80592e-23
3.92755e-22
1.875e-06
-2.47444e-22
1.79484e-22
1.875e-06
-1.34537e-22
9.18904e-23
1.875e-06
1.52164e-23
2.77313e-23
1.875e-06
1.33626e-22
-6.53867e-23
1.875e-06
1.18012e-22
-1.1054e-22
1.875e-06
-4.23787e-23
-8.19671e-25
1.875e-06
-6.48948e-23
1.30895e-22
1.875e-06
-8.09189e-24
2.65166e-22
1.875e-06
-2.94814e-23
1.54623e-22
1.875e-06
-5.09823e-23
7.10896e-23
1.875e-06
-4.34178e-23
4.86523e-23
1.875e-06
-7.05198e-23
1.12171e-22
1.875e-06
-8.7455e-23
-6.3982e-23
1.875e-06
-2.82545e-23
-2.9575e-22
1.875e-06
-6.97815e-23
-3.40942e-22
1.875e-06
-8.39698e-23
-3.21495e-22
-4.86965e-23
-3.04502e-22
1.875e-06
-7.19929e-23
6.43893e-22
1.875e-06
-1.29731e-22
9.81361e-22
1.875e-06
-9.09298e-23
1.01493e-21
1.875e-06
-1.00244e-22
1.12658e-21
1.875e-06
-7.23551e-23
1.1013e-21
1.875e-06
2.61999e-23
1.11312e-21
1.875e-06
9.98313e-25
9.89954e-22
1.875e-06
3.70997e-23
9.11512e-22
1.875e-06
1.47698e-23
9.72656e-22
1.875e-06
1.11854e-22
9.11556e-22
1.875e-06
7.0976e-23
8.78832e-22
1.875e-06
1.36284e-22
9.0365e-22
1.875e-06
-2.19064e-23
9.33106e-22
1.875e-06
-2.35192e-23
7.91361e-22
1.875e-06
-5.28046e-23
6.49389e-22
1.875e-06
1.89618e-23
4.51344e-22
1.875e-06
1.23969e-22
3.90606e-22
1.875e-06
4.70581e-24
3.69176e-22
1.875e-06
6.79931e-23
4.29604e-22
1.875e-06
1.60934e-22
4.15967e-22
1.875e-06
4.05859e-23
2.51201e-22
1.875e-06
-3.46521e-23
3.73543e-22
1.875e-06
-7.57424e-23
3.71946e-22
1.875e-06
-1.86708e-22
2.08334e-22
1.875e-06
-9.13328e-23
5.22593e-23
1.875e-06
-7.65882e-23
7.27636e-23
1.875e-06
-4.10996e-23
-1.67101e-22
1.875e-06
1.60269e-23
-2.24829e-22
1.875e-06
5.16053e-23
1.31472e-22
1.875e-06
6.1721e-23
2.20844e-22
1.875e-06
3.84991e-23
1.468e-22
1.875e-06
5.03446e-23
9.29585e-23
1.875e-06
-5.78232e-23
6.13037e-23
1.875e-06
-1.13973e-22
7.04455e-23
1.875e-06
-9.07554e-23
8.62755e-23
1.875e-06
-4.40613e-23
-5.73188e-23
1.875e-06
-6.45672e-23
-2.77042e-22
1.875e-06
-1.64819e-22
-2.34858e-22
1.875e-06
-1.49715e-22
-1.98197e-22
3.99028e-23
-1.98824e-22
1.875e-06
-1.36338e-22
4.88958e-22
1.875e-06
-6.44056e-23
9.22557e-22
1.875e-06
2.75321e-23
1.05635e-21
1.875e-06
-2.44691e-23
1.18501e-21
1.875e-06
-8.77926e-23
1.25466e-21
1.875e-06
-1.89909e-23
1.12742e-21
1.875e-06
-2.40853e-23
1.03886e-21
1.875e-06
-7.25546e-23
9.37833e-22
1.875e-06
8.77327e-23
1.01125e-21
1.875e-06
7.37767e-23
8.86456e-22
1.875e-06
5.06875e-23
8.98397e-22
1.875e-06
2.35549e-23
8.67009e-22
1.875e-06
8.76331e-23
1.00587e-21
1.875e-06
1.1182e-24
8.74263e-22
1.875e-06
-9.35822e-23
6.94537e-22
1.875e-06
8.36087e-23
4.30564e-22
1.875e-06
7.42615e-23
3.13256e-22
1.875e-06
-4.46035e-23
4.227e-22
1.875e-06
5.79435e-23
5.03132e-22
1.875e-06
9.85873e-23
4.18892e-22
1.875e-06
3.53023e-23
3.52132e-22
1.875e-06
1.43749e-23
3.2123e-22
1.875e-06
-1.25878e-22
2.18425e-22
1.875e-06
-1.09057e-22
1.75569e-22
1.875e-06
-1.47553e-22
6.66936e-23
1.875e-06
-2.55044e-23
1.28693e-22
1.875e-06
-5.84162e-23
-1.04181e-22
1.875e-06
-1.36877e-22
-1.28671e-22
1.875e-06
4.68455e-23
1.41873e-22
1.875e-06
1.20619e-22
1.80465e-22
1.875e-06
4.78506e-23
6.77033e-23
1.875e-06
-8.15067e-23
-6.80006e-24
1.875e-06
-9.95624e-23
4.60547e-23
1.875e-06
-6.60837e-23
1.29917e-22
1.875e-06
-2.53798e-23
9.20467e-23
1.875e-06
-9.13224e-23
-1.11372e-22
1.875e-06
-1.45444e-22
-3.17908e-22
1.875e-06
-6.88944e-23
-1.96512e-22
1.875e-06
1.29408e-23
-2.70011e-22
-5.05556e-24
-3.62806e-22
1.875e-06
-7.11346e-23
5.97582e-22
1.875e-06
-1.5132e-22
9.56608e-22
1.875e-06
-2.03919e-22
1.02126e-21
1.875e-06
3.46404e-23
1.2298e-21
1.875e-06
1.22756e-22
1.21231e-21
1.875e-06
-4.10263e-23
1.16658e-21
1.875e-06
-1.51327e-22
1.07337e-21
1.875e-06
-1.51001e-22
9.88079e-22
1.875e-06
2.80064e-23
1.03513e-21
1.875e-06
1.45789e-22
1.07872e-21
1.875e-06
1.68187e-23
8.88422e-22
1.875e-06
9.99678e-24
8.46672e-22
1.875e-06
-1.75256e-23
9.12775e-22
1.875e-06
-6.56816e-24
9.12688e-22
1.875e-06
7.88652e-23
7.49389e-22
1.875e-06
-1.95893e-24
4.72482e-22
1.875e-06
7.58722e-23
3.75448e-22
1.875e-06
2.14573e-22
4.87271e-22
1.875e-06
2.06204e-22
3.57877e-22
1.875e-06
4.61751e-23
2.93554e-22
1.875e-06
-9.43341e-23
3.15929e-22
1.875e-06
-2.46313e-22
3.17821e-22
1.875e-06
-3.69129e-23
2.37377e-22
1.875e-06
-3.5794e-23
2.22492e-22
1.875e-06
-5.97677e-24
2.14716e-22
1.875e-06
-1.144e-22
7.97275e-23
1.875e-06
-5.59193e-23
4.99324e-23
1.875e-06
-4.21082e-23
-5.14853e-24
1.875e-06
-7.2196e-23
4.06685e-23
1.875e-06
3.19148e-23
6.87689e-23
1.875e-06
9.1342e-23
4.71568e-23
1.875e-06
5.67149e-25
-1.44003e-23
1.875e-06
-5.5877e-23
3.89954e-23
1.875e-06
7.09426e-25
5.30999e-23
1.875e-06
-1.08071e-23
2.67657e-23
1.875e-06
-1.22376e-23
-2.33948e-23
1.875e-06
-3.96185e-23
-1.83371e-22
1.875e-06
-2.02434e-22
-2.89651e-22
1.875e-06
4.11318e-23
-3.77937e-22
1.08655e-22
-2.85254e-22
1.875e-06
-2.32805e-23
6.70229e-22
1.875e-06
-9.51781e-23
1.01191e-21
1.875e-06
-2.24128e-23
1.0856e-21
1.875e-06
1.35591e-23
1.19956e-21
1.875e-06
2.62624e-23
1.17567e-21
1.875e-06
-9.69083e-23
1.13688e-21
1.875e-06
-1.86458e-22
1.09609e-21
1.875e-06
-5.33915e-23
1.12956e-21
1.875e-06
-2.18732e-24
1.08717e-21
1.875e-06
5.76132e-23
9.5018e-22
1.875e-06
5.78226e-23
9.42859e-22
1.875e-06
5.40728e-23
9.33255e-22
1.875e-06
-1.46751e-23
9.56269e-22
1.875e-06
3.04079e-24
8.89804e-22
1.875e-06
1.45145e-22
7.72024e-22
1.875e-06
5.11483e-23
5.46665e-22
1.875e-06
-1.02175e-22
3.94537e-22
1.875e-06
-7.05691e-23
3.13323e-22
1.875e-06
4.49584e-23
2.52567e-22
1.875e-06
-5.38675e-24
2.13871e-22
1.875e-06
-7.71183e-23
2.36682e-22
1.875e-06
3.94508e-23
4.80165e-22
1.875e-06
8.1052e-24
2.712e-22
1.875e-06
-3.28819e-23
2.28649e-22
1.875e-06
-1.60281e-23
2.94384e-22
1.875e-06
-4.92384e-23
1.24728e-22
1.875e-06
9.33163e-23
1.33059e-22
1.875e-06
1.13467e-22
9.08942e-23
1.875e-06
1.03544e-23
-1.6207e-23
1.875e-06
-2.78687e-23
6.22369e-23
1.875e-06
-2.8282e-23
-6.08065e-23
1.875e-06
-3.77223e-23
-1.33422e-22
1.875e-06
3.27624e-23
4.58485e-24
1.875e-06
2.94546e-24
1.22782e-22
1.875e-06
-1.56373e-23
2.45406e-23
1.875e-06
-7.6128e-23
7.25569e-25
1.875e-06
-1.0607e-22
-1.17683e-22
1.875e-06
1.74603e-24
-9.93113e-23
1.875e-06
-4.98439e-23
-3.11334e-22
-4.04985e-23
-2.72058e-22
1.875e-06
4.29878e-23
6.93636e-22
1.875e-06
1.1428e-22
1.07274e-21
1.875e-06
-1.45846e-23
9.29792e-22
1.875e-06
-8.11112e-23
1.07784e-21
1.875e-06
-6.51632e-23
1.22191e-21
1.875e-06
6.19828e-24
1.12667e-21
1.875e-06
-7.64187e-23
1.11264e-21
1.875e-06
-2.62893e-22
1.06637e-21
1.875e-06
-1.32679e-22
1.06439e-21
1.875e-06
1.87366e-23
1.11119e-21
1.875e-06
-1.19141e-22
9.45993e-22
1.875e-06
3.76704e-22
9.42918e-22
1.875e-06
5.38269e-23
9.56601e-22
1.875e-06
4.4349e-23
9.36112e-22
1.875e-06
7.95907e-23
8.13981e-22
1.875e-06
-8.65652e-23
5.87087e-22
1.875e-06
-2.63049e-23
3.59769e-22
1.875e-06
-1.12893e-22
2.41115e-22
1.875e-06
-1.59044e-22
2.8034e-22
1.875e-06
-3.24714e-23
2.78938e-22
1.875e-06
-9.74882e-23
2.59003e-22
1.875e-06
-1.08705e-22
3.24743e-22
1.875e-06
-4.79408e-23
4.22769e-22
1.875e-06
1.08923e-22
2.16036e-22
1.875e-06
1.80005e-22
2.26304e-22
1.875e-06
7.57656e-23
1.73441e-22
1.875e-06
-5.38561e-23
5.22425e-23
1.875e-06
5.92562e-23
-5.03906e-24
1.875e-06
-1.01324e-22
8.68527e-23
1.875e-06
1.31428e-22
4.54487e-24
1.875e-06
-3.55353e-23
1.63691e-23
1.875e-06
-6.07865e-24
-6.05971e-23
1.875e-06
1.23362e-22
-5.71328e-23
1.875e-06
-1.66864e-22
-2.07387e-23
1.875e-06
-2.25077e-23
4.90219e-23
1.875e-06
9.97122e-23
4.78772e-23
1.875e-06
-2.06912e-23
-3.71371e-23
1.875e-06
1.65427e-23
-1.20444e-22
1.875e-06
-1.20814e-22
-3.76995e-22
-8.93133e-23
-2.43997e-22
1.875e-06
1.27546e-22
5.88332e-22
1.875e-06
8.41806e-23
9.14779e-22
1.875e-06
-1.37081e-23
9.96306e-22
1.875e-06
-4.7297e-23
1.11346e-21
1.875e-06
-2.24386e-23
1.21708e-21
1.875e-06
-9.11062e-24
1.12743e-21
1.875e-06
-1.39167e-23
1.03678e-21
1.875e-06
-1.39965e-22
1.10456e-21
1.875e-06
-1.60979e-22
1.06548e-21
1.875e-06
-7.7874e-23
1.1545e-21
1.875e-06
-4.42468e-23
9.88564e-22
1.875e-06
7.22022e-23
1.01897e-21
1.875e-06
2.18709e-23
9.75348e-22
1.875e-06
1.56245e-22
9.06025e-22
1.875e-06
-3.83012e-23
7.07919e-22
1.875e-06
8.91021e-24
6.41946e-22
1.875e-06
-1.45442e-22
3.33335e-22
1.875e-06
-1.03634e-22
2.76423e-22
1.875e-06
-1.08933e-22
3.1684e-22
1.875e-06
-8.01197e-23
1.89655e-22
1.875e-06
-8.24215e-23
2.79071e-22
1.875e-06
-1.33158e-22
3.23256e-22
1.875e-06
3.41229e-23
3.66003e-22
1.875e-06
6.40151e-23
3.0221e-22
1.875e-06
5.42296e-23
1.70506e-22
1.875e-06
1.19364e-22
2.06017e-22
1.875e-06
6.37246e-23
9.05721e-23
1.875e-06
3.79537e-23
3.07341e-23
1.875e-06
4.68964e-23
4.8625e-23
1.875e-06
6.06237e-23
-8.10782e-23
1.875e-06
1.02605e-23
-7.93322e-23
1.875e-06
-2.06028e-23
-2.81428e-23
1.875e-06
-1.08027e-23
-1.43077e-22
1.875e-06
2.30504e-23
5.57119e-23
1.875e-06
9.23104e-23
4.55528e-23
1.875e-06
1.21311e-22
-3.32812e-23
1.875e-06
-2.79117e-24
-7.1286e-23
1.875e-06
1.6843e-23
-1.16387e-22
1.875e-06
-4.08622e-23
-2.51178e-22
-1.5978e-22
-1.39789e-22
1.875e-06
6.55934e-23
5.04556e-22
1.875e-06
1.41001e-22
9.1421e-22
1.875e-06
-4.89896e-25
1.0572e-21
1.875e-06
-1.50027e-23
1.07869e-21
1.875e-06
-1.4608e-23
1.10562e-21
1.875e-06
7.33383e-23
1.15283e-21
1.875e-06
1.30965e-23
1.10134e-21
1.875e-06
3.44498e-25
1.07079e-21
1.875e-06
-3.61742e-23
1.07175e-21
1.875e-06
-1.70705e-22
1.21658e-21
1.875e-06
-1.29454e-22
1.05266e-21
1.875e-06
-4.87898e-23
8.71759e-22
1.875e-06
3.05278e-23
1.00512e-21
1.875e-06
-1.6543e-22
8.42883e-22
1.875e-06