/*--------------------------------*- C++ -*----------------------------------*\
| =========                 |                                                 |
| \\      /  F ield         | OpenFOAM: The Open Source CFD Toolbox           |
|  \\    /   O peration     | Version:  v2012                                 |
|   \\  /    A nd           | Website:  www.openfoam.com                      |
|    \\/     M anipulation  |                                                 |
\*---------------------------------------------------------------------------*/
FoamFile
{
    version     2.0;
    format      ascii;
    class       volVectorField;
    location    "24";
    object      U;
}
// * * * * * * * * * * * * * * * * * * * * * * * * * * * * * * * * * * * * * //

dimensions      [0 1 -1 0 0 0 0];


internalField   nonuniform List<vector> 
64000
(
(0.003 2.26324e-19 2.23043e-19)
(0.003 3.93296e-19 3.61322e-19)
(0.003 4.08859e-19 4.46551e-19)
(0.003 4.06714e-19 4.90679e-19)
(0.003 4.9882e-19 4.5327e-19)
(0.003 5.01837e-19 3.66977e-19)
(0.003 4.14203e-19 3.15237e-19)
(0.003 2.12895e-19 2.88041e-19)
(0.003 2.68166e-19 4.06237e-19)
(0.003 4.32711e-19 3.37971e-19)
(0.003 4.0831e-19 2.78319e-19)
(0.003 3.88547e-19 4.19676e-19)
(0.003 3.17077e-19 3.36842e-19)
(0.003 3.12225e-19 2.20876e-19)
(0.003 2.78066e-19 2.85142e-19)
(0.003 2.51614e-19 3.20573e-19)
(0.003 2.05288e-19 2.37799e-19)
(0.003 7.93614e-20 1.43865e-19)
(0.003 7.44844e-20 6.18846e-20)
(0.003 1.04355e-19 1.17612e-19)
(0.003 3.16783e-20 1.2272e-19)
(0.003 1.41729e-19 1.34484e-19)
(0.003 2.48948e-19 1.2614e-19)
(0.003 2.76864e-19 8.53191e-20)
(0.003 3.17889e-19 1.42485e-19)
(0.003 1.59797e-19 1.34805e-19)
(0.003 3.38406e-20 1.26569e-19)
(0.003 1.14416e-19 1.4951e-19)
(0.003 1.61726e-19 1.99454e-19)
(0.003 3.09158e-20 2.52421e-19)
(0.003 -7.89827e-20 2.47034e-19)
(0.003 4.98072e-22 9.65459e-20)
(0.003 1.45868e-19 9.282e-20)
(0.003 1.06456e-19 9.79742e-20)
(0.003 8.66325e-20 1.27527e-19)
(0.003 1.38666e-19 1.49174e-19)
(0.003 -2.6867e-20 -1.98323e-20)
(0.003 -2.84173e-19 -1.30356e-19)
(0.003 -2.61286e-19 1.108e-19)
(0.003 -1.90117e-19 1.13125e-19)
(0.003 2.64568e-19 3.37445e-19)
(0.003 3.68351e-19 7.28851e-19)
(0.003 5.54448e-19 9.24748e-19)
(0.003 5.19692e-19 9.23466e-19)
(0.003 4.41651e-19 8.40621e-19)
(0.003 6.10805e-19 8.74593e-19)
(0.003 5.47736e-19 7.86792e-19)
(0.003 4.74442e-19 5.93179e-19)
(0.003 4.58687e-19 6.96589e-19)
(0.003 4.41017e-19 9.13555e-19)
(0.003 4.03239e-19 8.45073e-19)
(0.003 3.47273e-19 7.68536e-19)
(0.003 2.56267e-19 6.37946e-19)
(0.003 1.73829e-19 5.25092e-19)
(0.003 1.44772e-19 5.02796e-19)
(0.003 1.09447e-19 4.58465e-19)
(0.003 3.13919e-19 4.84428e-19)
(0.003 2.63642e-19 4.07563e-19)
(0.003 1.64852e-19 2.59772e-19)
(0.003 5.07167e-20 2.02306e-19)
(0.003 1.54569e-19 1.94939e-19)
(0.003 2.55697e-19 2.5412e-19)
(0.003 2.50398e-19 2.24376e-19)
(0.003 2.87571e-19 2.80333e-19)
(0.003 1.0109e-19 3.10977e-19)
(0.003 1.1127e-19 1.53623e-19)
(0.003 1.43897e-19 9.23002e-20)
(0.003 8.71285e-20 1.40329e-19)
(0.003 -6.28623e-21 2.99064e-19)
(0.003 2.83152e-20 2.71113e-19)
(0.003 2.17558e-20 1.35777e-19)
(0.003 8.22145e-20 1.15311e-19)
(0.003 1.41858e-19 2.38009e-19)
(0.003 2.99858e-20 1.88718e-19)
(0.003 -1.85432e-20 2.27857e-19)
(0.003 -9.67369e-20 1.89234e-19)
(0.003 -1.75965e-19 -8.72443e-20)
(0.003 -1.92748e-19 -2.22203e-19)
(0.003 -3.47689e-20 -4.4468e-20)
(0.003 8.92403e-21 -2.31566e-20)
(0.003 1.87852e-19 4.54655e-19)
(0.003 2.13659e-19 7.96228e-19)
(0.003 3.17815e-19 1.06247e-18)
(0.003 4.47712e-19 1.12765e-18)
(0.003 4.33051e-19 1.00432e-18)
(0.003 4.36444e-19 9.62325e-19)
(0.003 4.34637e-19 9.40601e-19)
(0.003 4.63969e-19 8.75362e-19)
(0.003 4.59479e-19 9.65118e-19)
(0.003 3.96683e-19 1.05267e-18)
(0.003 3.3324e-19 9.15855e-19)
(0.003 2.71335e-19 8.33774e-19)
(0.003 3.32394e-19 6.18965e-19)
(0.003 2.08422e-19 5.62923e-19)
(0.003 1.11251e-19 5.88895e-19)
(0.003 4.31633e-20 5.10707e-19)
(0.003 1.58197e-19 6.0238e-19)
(0.003 2.36343e-19 5.34081e-19)
(0.003 1.01862e-19 2.74161e-19)
(0.003 1.3912e-19 1.86739e-19)
(0.003 2.00917e-19 3.14193e-19)
(0.003 1.7108e-19 3.1564e-19)
(0.003 2.18645e-19 2.41417e-19)
(0.003 1.42592e-19 2.73099e-19)
(0.003 6.52023e-20 2.54091e-19)
(0.003 1.53565e-19 2.02009e-19)
(0.003 1.29914e-19 1.50703e-19)
(0.003 -3.95424e-20 1.90647e-19)
(0.003 -6.64668e-20 2.40196e-19)
(0.003 4.89593e-20 3.16401e-19)
(0.003 8.4116e-20 3.01474e-19)
(0.003 1.48201e-19 2.47155e-19)
(0.003 7.02941e-20 2.33609e-19)
(0.003 -8.38023e-20 1.48077e-19)
(0.003 -1.21778e-19 2.62074e-19)
(0.003 -1.71871e-19 1.66704e-19)
(0.003 -1.87031e-19 -8.88181e-20)
(0.003 1.74635e-20 -2.19381e-19)
(0.003 1.18541e-19 -1.21517e-19)
(0.003 1.57286e-19 -1.42596e-20)
(0.003 3.59132e-19 6.13719e-19)
(0.003 3.03327e-19 1.00605e-18)
(0.003 1.9179e-19 1.13392e-18)
(0.003 2.69014e-19 1.23625e-18)
(0.003 3.90101e-19 1.17538e-18)
(0.003 3.59694e-19 1.13943e-18)
(0.003 3.45965e-19 1.08506e-18)
(0.003 2.93572e-19 9.04672e-19)
(0.003 2.66327e-19 9.65272e-19)
(0.003 3.329e-19 1.0976e-18)
(0.003 3.44446e-19 1.056e-18)
(0.003 3.02816e-19 1.00953e-18)
(0.003 2.92147e-19 8.2454e-19)
(0.003 1.79312e-19 6.14593e-19)
(0.003 2.77948e-19 6.14263e-19)
(0.003 3.90451e-19 5.42188e-19)
(0.003 1.18547e-19 5.45597e-19)
(0.003 8.10388e-21 5.31547e-19)
(0.003 7.25274e-20 3.31641e-19)
(0.003 1.25181e-19 2.45521e-19)
(0.003 5.76533e-20 3.60095e-19)
(0.003 1.61227e-19 3.98137e-19)
(0.003 2.60339e-19 3.41174e-19)
(0.003 1.62066e-19 3.11175e-19)
(0.003 1.4716e-19 2.60421e-19)
(0.003 1.04745e-19 2.11813e-19)
(0.003 3.32434e-20 1.17966e-19)
(0.003 -2.93844e-20 5.91688e-20)
(0.003 3.30653e-20 2.41361e-19)
(0.003 -3.81553e-20 3.76506e-19)
(0.003 -3.66722e-20 3.31858e-19)
(0.003 -1.50727e-20 2.74248e-19)
(0.003 -1.26955e-19 2.98542e-19)
(0.003 -1.27926e-19 2.17542e-19)
(0.003 -5.93872e-20 1.64307e-19)
(0.003 -9.88541e-20 1.2172e-19)
(0.003 -2.32077e-20 -3.88652e-20)
(0.003 1.41037e-19 -9.66406e-20)
(0.003 2.15077e-19 3.16863e-20)
(0.003 2.19089e-19 7.67961e-20)
(0.003 1.32111e-19 6.26723e-19)
(0.003 2.29611e-19 1.09834e-18)
(0.003 1.59145e-19 1.18919e-18)
(0.003 1.50975e-19 1.19538e-18)
(0.003 2.07542e-19 1.30656e-18)
(0.003 1.99155e-19 1.31187e-18)
(0.003 2.24212e-19 1.20664e-18)
(0.003 3.95055e-19 9.22299e-19)
(0.003 3.98239e-19 9.29563e-19)
(0.003 3.08034e-19 1.14974e-18)
(0.003 2.53337e-19 1.14646e-18)
(0.003 2.38064e-19 1.02983e-18)
(0.003 2.62751e-19 8.7964e-19)
(0.003 1.8245e-19 7.39805e-19)
(0.003 2.65918e-19 7.48806e-19)
(0.003 4.12503e-19 7.64083e-19)
(0.003 1.58991e-19 6.12391e-19)
(0.003 -4.23925e-20 4.2025e-19)
(0.003 -4.26695e-21 3.79494e-19)
(0.003 7.78994e-20 2.6312e-19)
(0.003 -4.42496e-20 2.97275e-19)
(0.003 7.37831e-20 4.03959e-19)
(0.003 2.92539e-19 4.75262e-19)
(0.003 2.26905e-19 3.50975e-19)
(0.003 1.34799e-19 3.26599e-19)
(0.003 9.12274e-20 2.548e-19)
(0.003 7.05961e-20 1.65459e-19)
(0.003 4.10817e-20 1.78194e-19)
(0.003 2.85476e-20 2.28005e-19)
(0.003 -2.62268e-20 1.85772e-19)
(0.003 4.21655e-20 1.75764e-19)
(0.003 -5.81064e-21 2.88339e-19)
(0.003 -1.97281e-19 1.85733e-19)
(0.003 -1.46262e-19 8.00405e-20)
(0.003 -2.60719e-20 1.21298e-19)
(0.003 9.37992e-21 7.38024e-20)
(0.003 9.14286e-20 3.54563e-20)
(0.003 1.03672e-19 -4.22453e-21)
(0.003 8.51312e-20 2.37934e-20)
(0.003 5.04533e-20 7.31223e-20)
(0.003 -1.09089e-20 6.67658e-19)
(0.003 1.34367e-19 1.09016e-18)
(0.003 1.33817e-19 1.18746e-18)
(0.003 1.49453e-19 1.25489e-18)
(0.003 1.50569e-19 1.30343e-18)
(0.003 1.75941e-19 1.29119e-18)
(0.003 2.13723e-19 1.23356e-18)
(0.003 4.88783e-19 1.24156e-18)
(0.003 4.81205e-19 1.13837e-18)
(0.003 2.57675e-19 1.05664e-18)
(0.003 2.07023e-19 1.06507e-18)
(0.003 2.5743e-19 1.10224e-18)
(0.003 2.88622e-19 9.87796e-19)
(0.003 3.29814e-19 7.7103e-19)
(0.003 2.71862e-19 8.78749e-19)
(0.003 1.81987e-19 8.65509e-19)
(0.003 4.94526e-20 6.01849e-19)
(0.003 -1.18619e-19 4.18448e-19)
(0.003 -1.38361e-19 3.85316e-19)
(0.003 -1.70748e-20 3.01475e-19)
(0.003 1.19909e-19 2.49924e-19)
(0.003 1.60712e-19 4.20776e-19)
(0.003 1.99299e-19 4.9591e-19)
(0.003 2.64341e-19 3.48111e-19)
(0.003 1.61604e-19 2.60054e-19)
(0.003 1.23434e-19 2.90899e-19)
(0.003 9.82677e-20 3.05176e-19)
(0.003 -3.26604e-20 1.72839e-19)
(0.003 -1.67709e-19 1.73173e-19)
(0.003 -8.12726e-20 2.8147e-19)
(0.003 1.36449e-19 3.02549e-19)
(0.003 1.46282e-19 2.09223e-19)
(0.003 -1.48008e-20 4.72385e-20)
(0.003 8.93324e-21 9.95876e-20)
(0.003 3.50587e-21 1.17761e-19)
(0.003 1.28028e-19 3.92685e-20)
(0.003 1.33089e-19 5.79297e-20)
(0.003 1.90389e-20 -6.34805e-20)
(0.003 4.49524e-21 -4.43596e-20)
(0.003 1.8914e-20 9.88537e-20)
(0.003 7.51834e-20 8.0503e-19)
(0.003 1.57415e-19 1.2285e-18)
(0.003 1.58223e-19 1.24921e-18)
(0.003 6.24511e-20 1.26148e-18)
(0.003 1.7704e-19 1.32041e-18)
(0.003 1.78568e-19 1.38492e-18)
(0.003 2.37894e-19 1.31875e-18)
(0.003 4.26e-19 1.26822e-18)
(0.003 4.23787e-19 1.23215e-18)
(0.003 3.44273e-19 1.17558e-18)
(0.003 2.83895e-19 1.13652e-18)
(0.003 2.37817e-19 1.08845e-18)
(0.003 2.34229e-19 1.00091e-18)
(0.003 3.53068e-19 9.05614e-19)
(0.003 2.32369e-19 9.16095e-19)
(0.003 1.48818e-19 8.2735e-19)
(0.003 7.01657e-20 5.3637e-19)
(0.003 5.26291e-20 3.5554e-19)
(0.003 -1.50588e-20 2.35931e-19)
(0.003 -3.61728e-20 2.39284e-19)
(0.003 2.12619e-19 3.32833e-19)
(0.003 2.36665e-19 4.73247e-19)
(0.003 6.96701e-20 5.1139e-19)
(0.003 7.87197e-20 4.63634e-19)
(0.003 5.37704e-20 3.48617e-19)
(0.003 8.88871e-20 3.04021e-19)
(0.003 1.84669e-20 2.6352e-19)
(0.003 -4.43586e-20 1.75716e-19)
(0.003 -1.12325e-19 1.00916e-19)
(0.003 -7.01515e-20 1.41387e-19)
(0.003 5.18676e-20 2.80058e-19)
(0.003 1.29705e-20 2.55084e-19)
(0.003 2.42746e-20 1.24599e-19)
(0.003 1.86917e-19 6.82121e-20)
(0.003 2.08573e-19 1.20082e-19)
(0.003 2.26801e-19 6.02898e-20)
(0.003 9.36102e-20 -1.1465e-19)
(0.003 -1.00749e-19 -1.70135e-19)
(0.003 -7.92845e-20 6.37459e-20)
(0.003 7.88369e-21 1.37444e-19)
(0.003 2.16686e-19 7.01696e-19)
(0.003 2.08956e-19 1.1422e-18)
(0.003 1.95741e-19 1.26815e-18)
(0.003 1.61193e-19 1.36765e-18)
(0.003 1.43962e-19 1.45994e-18)
(0.003 1.73759e-19 1.37118e-18)
(0.003 3.0743e-19 1.31375e-18)
(0.003 3.01465e-19 1.40416e-18)
(0.003 3.25168e-19 1.36327e-18)
(0.003 4.19251e-19 1.28638e-18)
(0.003 2.55735e-19 1.16356e-18)
(0.003 1.40588e-19 1.07448e-18)
(0.003 1.30428e-19 9.44003e-19)
(0.003 2.90475e-19 8.24843e-19)
(0.003 2.55863e-19 9.04714e-19)
(0.003 1.38131e-19 8.54596e-19)
(0.003 7.12833e-20 5.85106e-19)
(0.003 1.47516e-19 3.19497e-19)
(0.003 3.08722e-19 2.08005e-19)
(0.003 2.64907e-19 2.30745e-19)
(0.003 1.72602e-19 3.43727e-19)
(0.003 3.45418e-20 5.8192e-19)
(0.003 -5.83217e-20 5.59587e-19)
(0.003 -8.91582e-21 4.64246e-19)
(0.003 -2.6217e-20 3.89619e-19)
(0.003 9.49464e-21 3.30985e-19)
(0.003 7.39368e-20 1.9916e-19)
(0.003 3.72207e-20 1.10277e-19)
(0.003 -5.27833e-20 8.45594e-20)
(0.003 -1.05956e-20 1.67891e-19)
(0.003 -8.41097e-20 3.60872e-19)
(0.003 -9.90031e-20 2.93159e-19)
(0.003 1.52945e-20 1.97216e-19)
(0.003 1.04626e-19 2.10184e-19)
(0.003 3.06959e-19 1.36176e-19)
(0.003 1.39502e-19 -1.00687e-19)
(0.003 -4.45909e-20 -4.05325e-19)
(0.003 -8.00194e-20 -1.93138e-19)
(0.003 -1.10509e-19 1.17382e-19)
(0.003 -4.79106e-20 1.00798e-19)
(0.003 -8.2663e-20 7.15339e-19)
(0.003 2.50847e-20 1.33737e-18)
(0.003 1.74727e-19 1.4184e-18)
(0.003 1.74817e-19 1.40863e-18)
(0.003 1.51965e-19 1.44269e-18)
(0.003 3.18229e-19 1.46834e-18)
(0.003 3.58489e-19 1.47088e-18)
(0.003 1.52367e-19 1.40387e-18)
(0.003 1.79169e-19 1.39538e-18)
(0.003 2.6403e-19 1.35038e-18)
(0.003 2.01788e-19 1.15966e-18)
(0.003 7.29989e-20 1.06295e-18)
(0.003 9.09248e-20 9.32512e-19)
(0.003 2.45539e-19 8.63081e-19)
(0.003 2.56218e-19 8.7084e-19)
(0.003 9.11228e-20 8.07067e-19)
(0.003 1.67853e-19 6.34808e-19)
(0.003 1.84404e-19 3.63689e-19)
(0.003 1.1111e-19 3.46513e-19)
(0.003 1.6155e-19 3.7489e-19)
(0.003 1.43746e-19 3.35065e-19)
(0.003 4.98962e-20 5.57835e-19)
(0.003 9.13325e-20 6.09215e-19)
(0.003 1.15036e-19 5.65641e-19)
(0.003 5.74946e-20 3.29105e-19)
(0.003 -3.91248e-20 2.13305e-19)
(0.003 -2.36882e-20 2.22532e-19)
(0.003 4.00958e-20 1.57723e-19)
(0.003 1.88621e-20 1.61379e-20)
(0.003 -6.47523e-20 1.32548e-19)
(0.003 -1.34814e-19 2.88066e-19)
(0.003 -1.34475e-19 3.36309e-19)
(0.003 2.5554e-20 2.57202e-19)
(0.003 8.78394e-20 1.51284e-19)
(0.003 9.70221e-20 -1.46225e-20)
(0.003 6.65878e-21 -3.13263e-19)
(0.003 2.94159e-22 -2.97694e-19)
(0.003 1.55154e-21 -2.84481e-19)
(0.003 1.19064e-21 2.53382e-20)
(0.003 5.73043e-21 1.86366e-19)
(0.003 -2.26879e-19 8.1526e-19)
(0.003 -4.44382e-21 1.24662e-18)
(0.003 2.04461e-19 1.45878e-18)
(0.003 3.21056e-19 1.53326e-18)
(0.003 2.12942e-19 1.56647e-18)
(0.003 2.06296e-19 1.54501e-18)
(0.003 3.17099e-19 1.54745e-18)
(0.003 1.86612e-19 1.44496e-18)
(0.003 1.78881e-19 1.27023e-18)
(0.003 1.75521e-19 1.27315e-18)
(0.003 2.60645e-19 1.19219e-18)
(0.003 8.99929e-20 1.04419e-18)
(0.003 3.57149e-20 9.81013e-19)
(0.003 1.3377e-19 9.83505e-19)
(0.003 2.36317e-19 8.96587e-19)
(0.003 2.18455e-19 6.98714e-19)
(0.003 1.84129e-19 5.95952e-19)
(0.003 1.11697e-19 4.78124e-19)
(0.003 -1.17361e-19 2.52322e-19)
(0.003 -5.51566e-20 2.87105e-19)
(0.003 1.03811e-19 4.19595e-19)
(0.003 2.26312e-19 5.96649e-19)
(0.003 1.94175e-19 7.02851e-19)
(0.003 1.08344e-19 6.1475e-19)
(0.003 1.49496e-19 3.86604e-19)
(0.003 3.0089e-20 2.55296e-19)
(0.003 -1.36443e-19 1.73983e-19)
(0.003 -9.38764e-20 5.44973e-20)
(0.003 4.53717e-20 2.25935e-20)
(0.003 -4.31965e-23 1.93494e-19)
(0.003 -4.35368e-20 2.54338e-19)
(0.003 -1.02503e-19 3.27816e-19)
(0.003 -3.09998e-20 2.96129e-19)
(0.003 -8.61755e-21 1.90166e-19)
(0.003 -4.78699e-20 9.67661e-21)
(0.003 -3.04352e-21 -3.00709e-19)
(0.003 3.41033e-20 -3.83836e-19)
(0.003 1.97868e-19 -3.17474e-19)
(0.003 2.63745e-19 -1.92609e-19)
(0.003 1.86213e-19 -3.8494e-20)
(0.003 1.33478e-19 8.5911e-19)
(0.003 2.25092e-19 1.409e-18)
(0.003 2.57831e-19 1.62068e-18)
(0.003 2.43298e-19 1.61742e-18)
(0.003 1.96707e-19 1.54198e-18)
(0.003 2.4723e-19 1.51329e-18)
(0.003 1.80036e-19 1.53207e-18)
(0.003 1.55796e-19 1.45202e-18)
(0.003 1.13773e-19 1.36386e-18)
(0.003 1.97128e-19 1.23619e-18)
(0.003 3.43312e-19 1.15184e-18)
(0.003 2.12649e-19 1.07973e-18)
(0.003 1.48285e-19 9.56231e-19)
(0.003 9.16475e-20 9.11845e-19)
(0.003 1.2079e-19 9.50827e-19)
(0.003 1.85223e-19 8.82417e-19)
(0.003 1.31587e-19 5.72855e-19)
(0.003 -5.36994e-22 2.9932e-19)
(0.003 -1.18341e-20 2.11435e-19)
(0.003 9.27718e-21 3.4605e-19)
(0.003 1.50386e-19 4.77492e-19)
(0.003 2.57871e-19 6.47302e-19)
(0.003 1.07028e-19 7.42109e-19)
(0.003 7.15672e-20 7.20692e-19)
(0.003 1.16398e-19 3.47532e-19)
(0.003 -4.82369e-20 1.09629e-19)
(0.003 -1.61981e-19 1.36702e-19)
(0.003 -9.84165e-20 1.42512e-19)
(0.003 1.42116e-20 4.73061e-20)
(0.003 -3.4445e-20 1.93017e-19)
(0.003 -9.94201e-20 3.08867e-19)
(0.003 -6.69304e-20 2.59257e-19)
(0.003 -3.91695e-20 2.14554e-19)
(0.003 -5.81279e-20 1.85056e-19)
(0.003 -1.77371e-19 6.66866e-20)
(0.003 -1.54593e-19 -2.67272e-19)
(0.003 2.09079e-20 -3.87696e-19)
(0.003 2.89702e-19 -2.40657e-19)
(0.003 3.54073e-19 -1.79455e-19)
(0.003 2.80883e-19 -1.68143e-19)
(0.003 2.87925e-19 9.63129e-19)
(0.003 2.73137e-19 1.49404e-18)
(0.003 2.05968e-19 1.59483e-18)
(0.003 1.56789e-19 1.55324e-18)
(0.003 2.09434e-19 1.55023e-18)
(0.003 1.93766e-19 1.59639e-18)
(0.003 1.46497e-19 1.51763e-18)
(0.003 2.50125e-19 1.42316e-18)
(0.003 1.87538e-19 1.24947e-18)
(0.003 8.62968e-20 1.30877e-18)
(0.003 1.53604e-19 1.27742e-18)
(0.003 1.82156e-19 1.11904e-18)
(0.003 2.24148e-19 1.02351e-18)
(0.003 1.70127e-19 8.77434e-19)
(0.003 6.19715e-20 9.01959e-19)
(0.003 -3.38485e-20 8.80959e-19)
(0.003 -3.34687e-20 6.4137e-19)
(0.003 9.30435e-20 3.44498e-19)
(0.003 2.72455e-19 2.83095e-19)
(0.003 2.04921e-19 3.76686e-19)
(0.003 1.16318e-19 4.80985e-19)
(0.003 -5.13253e-20 6.0362e-19)
(0.003 -6.9732e-20 6.62069e-19)
(0.003 -9.99325e-22 6.79308e-19)
(0.003 -3.3254e-20 4.57018e-19)
(0.003 -1.02285e-19 2.00057e-19)
(0.003 -6.81347e-20 1.3063e-19)
(0.003 -2.52826e-20 1.26414e-19)
(0.003 -7.32331e-20 -2.61214e-20)
(0.003 -1.47918e-19 1.31604e-19)
(0.003 -3.13924e-20 3.04362e-19)
(0.003 -7.95559e-21 2.76514e-19)
(0.003 -1.21581e-19 2.13316e-19)
(0.003 -6.55304e-20 1.49714e-19)
(0.003 -1.264e-19 1.73106e-19)
(0.003 -1.18528e-19 -1.08226e-19)
(0.003 6.88112e-21 -5.04102e-19)
(0.003 2.10252e-19 -2.90134e-19)
(0.003 2.65892e-19 -2.38251e-19)
(0.003 1.80384e-19 -3.25791e-19)
(0.003 2.67178e-19 9.9461e-19)
(0.003 2.57546e-19 1.49312e-18)
(0.003 1.38998e-19 1.57359e-18)
(0.003 1.73645e-19 1.62185e-18)
(0.003 1.13771e-19 1.61683e-18)
(0.003 -3.64363e-21 1.55537e-18)
(0.003 1.50299e-19 1.52048e-18)
(0.003 1.61603e-19 1.47321e-18)
(0.003 1.6915e-19 1.39648e-18)
(0.003 1.40386e-19 1.34885e-18)
(0.003 -8.24128e-21 1.20197e-18)
(0.003 7.02179e-20 1.07557e-18)
(0.003 2.30244e-19 1.03334e-18)
(0.003 2.97321e-19 9.56961e-19)
(0.003 9.78868e-20 9.15164e-19)
(0.003 -3.9407e-20 7.89347e-19)
(0.003 -2.51174e-20 5.68216e-19)
(0.003 6.40999e-20 3.71825e-19)
(0.003 1.89429e-19 4.19243e-19)
(0.003 2.0437e-19 4.6367e-19)
(0.003 1.36137e-19 5.32989e-19)
(0.003 3.31057e-20 5.59301e-19)
(0.003 3.85096e-20 6.43464e-19)
(0.003 1.55755e-20 6.27429e-19)
(0.003 -1.52491e-19 3.90008e-19)
(0.003 -6.25704e-20 1.41936e-19)
(0.003 -7.19261e-21 5.42351e-20)
(0.003 -4.67183e-20 9.92909e-20)
(0.003 -2.00042e-19 1.62998e-20)
(0.003 -2.42719e-19 5.73822e-20)
(0.003 -6.99642e-20 2.71153e-19)
(0.003 1.24663e-20 2.80423e-19)
(0.003 -6.98609e-20 1.15897e-19)
(0.003 -5.09096e-20 1.96681e-19)
(0.003 -3.68527e-20 2.93328e-19)
(0.003 -3.77968e-20 -5.74965e-20)
(0.003 1.34763e-19 -4.4741e-19)
(0.003 2.40064e-19 -3.22331e-19)
(0.003 1.348e-19 -2.99752e-19)
(0.003 5.56591e-20 -3.99368e-19)
(0.003 -1.60918e-21 1.0831e-18)
(0.003 1.82453e-19 1.59053e-18)
(0.003 1.6707e-19 1.58184e-18)
(0.003 1.91487e-20 1.598e-18)
(0.003 -9.5496e-20 1.55886e-18)
(0.003 -5.23742e-20 1.56281e-18)
(0.003 1.74805e-19 1.4978e-18)
(0.003 2.66706e-19 1.40502e-18)
(0.003 1.45678e-19 1.35522e-18)
(0.003 1.81317e-21 1.39554e-18)
(0.003 -5.21478e-20 1.24967e-18)
(0.003 1.74472e-19 1.06938e-18)
(0.003 2.38523e-19 1.09813e-18)
(0.003 1.99536e-19 1.08194e-18)
(0.003 6.84018e-20 9.91638e-19)
(0.003 1.42379e-20 8.04603e-19)
(0.003 3.12221e-21 5.87351e-19)
(0.003 1.74516e-19 4.33134e-19)
(0.003 2.15307e-19 3.94325e-19)
(0.003 1.44791e-19 4.27899e-19)
(0.003 2.09244e-19 5.12857e-19)
(0.003 9.44961e-20 5.98553e-19)
(0.003 -4.48186e-20 6.04169e-19)
(0.003 -2.83032e-20 6.09981e-19)
(0.003 -1.14549e-19 3.86951e-19)
(0.003 -4.20619e-20 3.58662e-20)
(0.003 2.11644e-20 -3.72805e-20)
(0.003 -2.4075e-20 8.49542e-21)
(0.003 -1.30379e-19 -4.41186e-20)
(0.003 -1.59531e-19 1.13382e-19)
(0.003 -2.49812e-19 3.6397e-19)
(0.003 -1.18523e-19 2.68508e-19)
(0.003 2.5539e-21 1.47232e-19)
(0.003 -9.79607e-20 1.84855e-19)
(0.003 -8.55921e-20 2.30994e-19)
(0.003 6.95581e-20 -8.66716e-20)
(0.003 1.87193e-19 -5.4201e-19)
(0.003 1.405e-19 -3.54948e-19)
(0.003 5.61333e-20 -3.86825e-19)
(0.003 -7.44268e-20 -5.30261e-19)
(0.003 -2.16557e-19 1.0889e-18)
(0.003 -2.02221e-19 1.57705e-18)
(0.003 1.97447e-20 1.65572e-18)
(0.003 1.34256e-20 1.52476e-18)
(0.003 2.06887e-20 1.48743e-18)
(0.003 -3.7342e-21 1.53678e-18)
(0.003 1.41438e-19 1.59265e-18)
(0.003 3.19498e-19 1.50742e-18)
(0.003 8.37653e-20 1.40319e-18)
(0.003 -1.26225e-19 1.35111e-18)
(0.003 1.10466e-19 1.23844e-18)
(0.003 2.87912e-19 1.15556e-18)
(0.003 1.49088e-19 1.20192e-18)
(0.003 -3.10889e-20 1.11437e-18)
(0.003 -1.49901e-20 9.13096e-19)
(0.003 -7.46436e-22 7.92934e-19)
(0.003 8.32543e-20 5.24589e-19)
(0.003 3.04637e-19 4.73567e-19)
(0.003 2.21484e-19 5.26395e-19)
(0.003 1.47546e-19 4.30419e-19)
(0.003 2.30645e-19 5.6833e-19)
(0.003 7.12716e-20 6.37543e-19)
(0.003 -1.6217e-19 6.46061e-19)
(0.003 -2.70309e-19 5.58984e-19)
(0.003 -2.16754e-19 2.9077e-19)
(0.003 -1.29175e-20 1.04521e-19)
(0.003 1.79176e-19 -3.56167e-20)
(0.003 1.31105e-19 -8.74584e-20)
(0.003 -5.29443e-20 -4.30811e-20)
(0.003 -1.13687e-19 1.42112e-19)
(0.003 -9.84344e-20 2.84927e-19)
(0.003 -1.07795e-19 2.28679e-19)
(0.003 -9.58603e-20 1.16106e-19)
(0.003 -9.86539e-20 7.51726e-20)
(0.003 -9.32455e-20 2.04368e-19)
(0.003 -6.62032e-20 -1.01234e-20)
(0.003 5.95072e-20 -3.99535e-19)
(0.003 1.14661e-19 -3.77579e-19)
(0.003 -3.37358e-20 -4.48628e-19)
(0.003 -1.37079e-19 -5.42562e-19)
(0.003 -9.48115e-20 1.00593e-18)
(0.003 -3.0206e-19 1.54064e-18)
(0.003 -2.02185e-19 1.69231e-18)
(0.003 -1.11903e-19 1.58753e-18)
(0.003 4.00688e-20 1.56442e-18)
(0.003 6.20976e-20 1.58156e-18)
(0.003 1.91711e-20 1.58806e-18)
(0.003 8.07589e-20 1.55145e-18)
(0.003 1.71481e-20 1.39612e-18)
(0.003 2.95231e-20 1.24186e-18)
(0.003 1.81731e-19 1.30833e-18)
(0.003 2.32093e-19 1.31171e-18)
(0.003 9.35601e-21 1.24932e-18)
(0.003 -6.33471e-20 1.14172e-18)
(0.003 1.44947e-20 9.92265e-19)
(0.003 5.95615e-20 7.51776e-19)
(0.003 1.17719e-19 5.18039e-19)
(0.003 4.90089e-20 4.79726e-19)
(0.003 1.36365e-19 5.3088e-19)
(0.003 2.29008e-19 4.89305e-19)
(0.003 9.63122e-20 5.5908e-19)
(0.003 2.51621e-20 6.84153e-19)
(0.003 -1.47464e-19 6.15425e-19)
(0.003 -3.53927e-19 3.94908e-19)
(0.003 -2.1699e-19 1.31237e-19)
(0.003 -6.30527e-20 1.76978e-19)
(0.003 8.31557e-20 -3.42053e-20)
(0.003 9.1779e-20 -2.12283e-19)
(0.003 5.93695e-20 7.44668e-20)
(0.003 7.45524e-20 2.00305e-19)
(0.003 5.59662e-20 2.4137e-19)
(0.003 4.00246e-21 1.64298e-19)
(0.003 -1.25191e-19 1.0625e-19)
(0.003 -1.23223e-19 1.39782e-19)
(0.003 -9.58163e-20 1.71521e-19)
(0.003 -1.17841e-19 -2.14711e-20)
(0.003 -1.43038e-19 -3.13317e-19)
(0.003 -1.9517e-19 -3.00189e-19)
(0.003 -1.5776e-19 -3.71818e-19)
(0.003 -1.27307e-20 -4.7751e-19)
(0.003 -1.73095e-19 8.98544e-19)
(0.003 -1.47597e-19 1.44084e-18)
(0.003 -5.78172e-21 1.6392e-18)
(0.003 -1.06217e-19 1.61258e-18)
(0.003 -1.63267e-19 1.63054e-18)
(0.003 -1.95633e-20 1.61886e-18)
(0.003 -2.0591e-20 1.64682e-18)
(0.003 -2.1609e-20 1.63766e-18)
(0.003 8.78497e-20 1.43385e-18)
(0.003 1.72807e-19 1.31393e-18)
(0.003 1.19737e-19 1.34494e-18)
(0.003 1.10355e-19 1.35284e-18)
(0.003 2.55073e-20 1.2493e-18)
(0.003 -4.95169e-20 1.15956e-18)
(0.003 -1.25325e-19 9.30944e-19)
(0.003 9.77045e-20 6.661e-19)
(0.003 1.7476e-19 4.98996e-19)
(0.003 -3.54915e-20 5.40808e-19)
(0.003 4.64977e-20 6.61532e-19)
(0.003 1.7859e-19 6.04414e-19)
(0.003 9.13138e-20 6.22806e-19)
(0.003 5.77193e-21 5.31636e-19)
(0.003 -1.60474e-19 4.06482e-19)
(0.003 -2.83772e-19 2.41305e-19)
(0.003 -1.93758e-19 1.17734e-19)
(0.003 -8.07383e-20 2.26574e-19)
(0.003 -1.12343e-19 5.22513e-20)
(0.003 -1.27163e-19 3.99671e-20)
(0.003 4.86067e-20 1.34703e-19)
(0.003 1.45277e-19 1.29018e-19)
(0.003 4.99869e-20 1.35858e-19)
(0.003 -1.74423e-20 1.24544e-19)
(0.003 -9.01665e-20 1.08983e-19)
(0.003 -1.61525e-19 1.91545e-19)
(0.003 -1.11231e-19 1.24992e-19)
(0.003 -8.80002e-20 -8.73472e-20)
(0.003 -1.16161e-19 -2.88188e-19)
(0.003 -1.63818e-19 -2.48835e-19)
(0.003 -1.07612e-19 -4.89491e-19)
(0.003 2.76102e-20 -5.99182e-19)
(0.003 -2.03448e-19 8.43685e-19)
(0.003 -2.04972e-19 1.4657e-18)
(0.003 -1.48605e-19 1.76659e-18)
(0.003 8.16442e-21 1.68156e-18)
(0.003 3.91997e-20 1.54378e-18)
(0.003 -2.54185e-20 1.61262e-18)
(0.003 -1.33967e-19 1.6786e-18)
(0.003 -1.98339e-19 1.62063e-18)
(0.003 3.55331e-20 1.49448e-18)
(0.003 1.3792e-19 1.36711e-18)
(0.003 7.48726e-20 1.29109e-18)
(0.003 2.99562e-20 1.33148e-18)
(0.003 2.92394e-20 1.24945e-18)
(0.003 1.3239e-20 1.14571e-18)
(0.003 2.44611e-20 9.55145e-19)
(0.003 8.05399e-20 8.32562e-19)
(0.003 1.61789e-19 6.19526e-19)
(0.003 2.64071e-19 4.24008e-19)
(0.003 2.4981e-19 5.03228e-19)
(0.003 6.6927e-20 5.39027e-19)
(0.003 -1.2403e-19 6.3312e-19)
(0.003 -1.9364e-19 6.80215e-19)
(0.003 -1.13183e-19 3.99406e-19)
(0.003 -7.81201e-20 2.39095e-19)
(0.003 -1.32974e-19 1.25818e-19)
(0.003 -1.48881e-19 2.04644e-19)
(0.003 -1.12974e-19 2.49369e-19)
(0.003 -1.42857e-19 1.06542e-19)
(0.003 -3.83754e-20 8.01345e-20)
(0.003 4.96069e-20 1.03198e-19)
(0.003 9.05658e-20 6.17956e-20)
(0.003 -3.18578e-20 7.946e-20)
(0.003 -7.32886e-20 5.79971e-20)
(0.003 -3.72667e-20 8.46082e-20)
(0.003 -5.77824e-20 1.0224e-19)
(0.003 -1.04702e-19 1.92906e-20)
(0.003 -2.24896e-19 -1.49423e-19)
(0.003 -1.66899e-19 -2.68775e-19)
(0.003 6.43569e-20 -4.1623e-19)
(0.003 1.24099e-19 -4.4459e-19)
(0.003 -1.22476e-19 8.12596e-19)
(0.003 -2.39214e-19 1.40873e-18)
(0.003 -2.15198e-19 1.63033e-18)
(0.003 6.99119e-20 1.6932e-18)
(0.003 1.52969e-19 1.65458e-18)
(0.003 -1.13636e-19 1.59806e-18)
(0.003 -2.90463e-19 1.63742e-18)
(0.003 -1.56732e-19 1.64563e-18)
(0.003 7.24951e-20 1.56846e-18)
(0.003 1.36476e-19 1.42097e-18)
(0.003 2.37867e-20 1.33188e-18)
(0.003 2.85557e-20 1.29271e-18)
(0.003 -1.57928e-20 1.21254e-18)
(0.003 -2.33982e-20 1.16773e-18)
(0.003 1.83357e-19 9.96463e-19)
(0.003 8.20021e-20 8.75784e-19)
(0.003 1.05216e-20 7.4613e-19)
(0.003 1.51863e-19 5.93518e-19)
(0.003 2.53962e-19 5.70727e-19)
(0.003 6.45296e-21 4.0141e-19)
(0.003 -1.6477e-19 4.91928e-19)
(0.003 -1.52448e-19 5.6252e-19)
(0.003 -3.86862e-20 4.44966e-19)
(0.003 -7.49618e-20 2.89922e-19)
(0.003 -3.59762e-20 1.67599e-19)
(0.003 -1.29759e-19 1.98316e-19)
(0.003 2.46309e-21 2.1159e-19)
(0.003 2.83879e-20 1.01826e-19)
(0.003 -7.79993e-20 2.87914e-20)
(0.003 2.17638e-20 6.66593e-20)
(0.003 1.1431e-19 1.25703e-19)
(0.003 -1.34122e-21 -2.30321e-20)
(0.003 7.77432e-21 -2.88522e-20)
(0.003 3.12799e-20 1.70486e-19)
(0.003 -9.82368e-22 1.13912e-19)
(0.003 -1.13504e-19 4.45492e-20)
(0.003 -1.67096e-19 7.11122e-21)
(0.003 -1.87378e-19 -5.5696e-20)
(0.003 -3.29532e-20 -2.21543e-19)
(0.003 8.412e-20 -2.8401e-19)
(0.003 3.51723e-20 8.26121e-19)
(0.003 3.57451e-20 1.42485e-18)
(0.003 4.81969e-21 1.58711e-18)
(0.003 -3.17897e-20 1.6597e-18)
(0.003 3.47227e-21 1.6998e-18)
(0.003 -1.14746e-19 1.55381e-18)
(0.003 -2.65574e-19 1.50698e-18)
(0.003 -2.69147e-19 1.63288e-18)
(0.003 -1.1279e-19 1.64828e-18)
(0.003 1.35201e-19 1.5139e-18)
(0.003 2.0723e-19 1.31272e-18)
(0.003 7.87543e-20 1.32826e-18)
(0.003 3.77644e-20 1.13299e-18)
(0.003 3.69556e-20 1.15431e-18)
(0.003 1.35439e-19 1.1233e-18)
(0.003 1.07222e-20 9.37038e-19)
(0.003 -8.89925e-20 6.5843e-19)
(0.003 -2.13585e-19 4.52682e-19)
(0.003 -1.60901e-19 5.86464e-19)
(0.003 -3.6289e-20 4.75796e-19)
(0.003 -4.43726e-20 4.52148e-19)
(0.003 -2.26449e-20 5.53197e-19)
(0.003 -2.17366e-20 5.80047e-19)
(0.003 4.79012e-20 2.73136e-19)
(0.003 1.26022e-19 9.54627e-20)
(0.003 2.11251e-20 1.50126e-19)
(0.003 5.71382e-20 2.71688e-19)
(0.003 1.45702e-19 1.34277e-19)
(0.003 9.34019e-20 5.19968e-20)
(0.003 -5.34247e-20 2.21236e-20)
(0.003 -9.01265e-20 1.56993e-19)
(0.003 -4.40793e-20 4.66387e-20)
(0.003 5.13933e-20 -8.03241e-21)
(0.003 -1.67379e-20 7.27386e-20)
(0.003 6.25772e-21 1.28042e-19)
(0.003 3.59619e-20 7.85063e-20)
(0.003 -3.14395e-20 4.32796e-20)
(0.003 -9.39379e-20 -1.33221e-19)
(0.003 -1.59414e-19 -3.66084e-19)
(0.003 -1.13647e-19 -3.27625e-19)
(0.003 2.17432e-19 7.94091e-19)
(0.003 2.07284e-19 1.34272e-18)
(0.003 -2.21315e-20 1.58968e-18)
(0.003 -1.23355e-19 1.64999e-18)
(0.003 -8.59836e-20 1.67071e-18)
(0.003 1.1963e-20 1.53862e-18)
(0.003 -5.38687e-20 1.44907e-18)
(0.003 -2.8453e-19 1.49599e-18)
(0.003 -2.75861e-19 1.54816e-18)
(0.003 -3.52341e-20 1.6263e-18)
(0.003 1.9817e-19 1.58678e-18)
(0.003 2.23077e-20 1.38537e-18)
(0.003 8.34652e-20 1.23364e-18)
(0.003 2.21206e-19 1.12926e-18)
(0.003 5.28568e-20 1.08997e-18)
(0.003 -4.74699e-20 8.994e-19)
(0.003 -1.1989e-19 6.26205e-19)
(0.003 -1.95467e-19 4.67918e-19)
(0.003 -2.73075e-19 5.32835e-19)
(0.003 -1.47651e-19 4.64675e-19)
(0.003 -1.02992e-19 4.64311e-19)
(0.003 -1.78001e-19 4.79187e-19)
(0.003 -5.12059e-20 5.04911e-19)
(0.003 1.32487e-19 3.88084e-19)
(0.003 2.16754e-19 2.56372e-19)
(0.003 1.77035e-19 1.58623e-19)
(0.003 7.39529e-21 1.79614e-19)
(0.003 1.11848e-19 1.65663e-19)
(0.003 1.08084e-19 9.4114e-20)
(0.003 -5.46859e-20 -1.26555e-19)
(0.003 -4.47292e-20 4.48544e-21)
(0.003 -4.22333e-20 7.48072e-21)
(0.003 -4.95413e-21 -3.54834e-20)
(0.003 -4.40001e-20 7.21658e-20)
(0.003 5.27624e-20 1.22339e-19)
(0.003 1.98842e-19 1.27592e-19)
(0.003 5.48643e-20 3.44067e-20)
(0.003 -1.29371e-20 -1.17098e-19)
(0.003 -1.4101e-19 -2.49075e-19)
(0.003 -2.46119e-19 -1.11332e-19)
(0.003 2.43553e-19 8.1909e-19)
(0.003 2.69709e-19 1.37914e-18)
(0.003 1.9912e-20 1.57557e-18)
(0.003 -4.57011e-20 1.58553e-18)
(0.003 -6.09793e-20 1.57038e-18)
(0.003 5.67304e-20 1.52105e-18)
(0.003 3.85204e-20 1.50398e-18)
(0.003 -1.0962e-19 1.42939e-18)
(0.003 -1.7389e-19 1.4578e-18)
(0.003 -1.70893e-19 1.65176e-18)
(0.003 -1.04986e-19 1.6044e-18)
(0.003 -8.24982e-21 1.35531e-18)
(0.003 2.69935e-20 1.28081e-18)
(0.003 -6.36493e-20 1.26993e-18)
(0.003 -1.1377e-19 1.06587e-18)
(0.003 -6.85813e-20 8.79641e-19)
(0.003 -1.58337e-19 6.72269e-19)
(0.003 -2.22428e-19 4.58752e-19)
(0.003 -3.06134e-19 4.57598e-19)
(0.003 -1.98813e-19 4.67859e-19)
(0.003 -1.30415e-19 4.52667e-19)
(0.003 -8.43966e-20 4.4152e-19)
(0.003 1.24839e-19 5.04666e-19)
(0.003 1.6542e-19 3.65213e-19)
(0.003 1.30216e-19 2.31373e-19)
(0.003 1.79416e-19 2.07193e-19)
(0.003 6.07883e-20 2.04698e-19)
(0.003 3.11435e-20 1.52225e-19)
(0.003 8.83803e-20 7.45551e-20)
(0.003 1.0893e-19 -1.77775e-19)
(0.003 1.06935e-19 -1.41619e-19)
(0.003 7.53513e-20 -4.5802e-20)
(0.003 -1.38938e-20 -2.7641e-20)
(0.003 1.96693e-22 5.13831e-20)
(0.003 1.00987e-19 1.94535e-19)
(0.003 1.40599e-19 1.48434e-19)
(0.003 1.16964e-19 -1.10923e-19)
(0.003 -1.67667e-20 -2.08459e-19)
(0.003 -3.16011e-20 -1.36781e-19)
(0.003 -5.52653e-20 3.08154e-20)
(0.003 -9.21454e-20 8.41343e-19)
(0.003 -3.23392e-20 1.42889e-18)
(0.003 4.77983e-20 1.52034e-18)
(0.003 -1.45382e-20 1.50735e-18)
(0.003 -2.41727e-20 1.52039e-18)
(0.003 7.87066e-20 1.59897e-18)
(0.003 8.77397e-20 1.53414e-18)
(0.003 1.11663e-19 1.39041e-18)
(0.003 -6.58356e-20 1.3866e-18)
(0.003 -2.22325e-19 1.50047e-18)
(0.003 -2.27601e-19 1.5652e-18)
(0.003 -1.06708e-19 1.47426e-18)
(0.003 -1.82306e-19 1.35829e-18)
(0.003 -2.13284e-19 1.0976e-18)
(0.003 -1.19416e-19 9.11802e-19)
(0.003 -2.03355e-19 8.82688e-19)
(0.003 -2.07539e-19 7.4031e-19)
(0.003 -1.19307e-19 4.92674e-19)
(0.003 -1.81379e-19 3.96174e-19)
(0.003 -1.89086e-19 4.5439e-19)
(0.003 -1.28862e-19 4.37501e-19)
(0.003 -6.42794e-21 4.78784e-19)
(0.003 2.90057e-20 5.34893e-19)