/*--------------------------------*- C++ -*----------------------------------*\
| =========                 |                                                 |
| \\      /  F ield         | OpenFOAM: The Open Source CFD Toolbox           |
|  \\    /   O peration     | Version:  v2012                                 |
|   \\  /    A nd           | Website:  www.openfoam.com                      |
|    \\/     M anipulation  |                                                 |
\*---------------------------------------------------------------------------*/
FoamFile
{
    version     2.0;
    format      ascii;
    class       volScalarField;
    location    "20/topAir";
    object      rho;
}
// * * * * * * * * * * * * * * * * * * * * * * * * * * * * * * * * * * * * * //

dimensions      [1 -3 0 0 0 0 0];


internalField   nonuniform List<scalar> 
1200
(
1.1467027
1.1353347
1.1248412
1.1151495
1.1061678
1.0978225
1.0900919
1.0829257
1.0762685
1.0700759
1.0643169
1.0589783
1.0540553
1.0497647
1.0458336
1.0422651
1.0390735
1.0362712
1.0338978
1.0320035
1.0306278
1.0297879
1.0294652
1.0295913
1.0300465
1.030637
1.0310629
1.0308607
1.0293
1.0259516
1.1583418
1.1578202
1.1570987
1.156193
1.1551259
1.1539147
1.1525033
1.150884
1.1490445
1.1469653
1.1446116
1.1419239
1.1388884
1.1354854
1.1316445
1.1272851
1.1223256
1.116832
1.1108795
1.1046364
1.0983485
1.0922932
1.0867071
1.0817075
1.0772301
1.0730002
1.0684583
1.0626827
1.0548594
1.0455854
1.158613
1.1585956
1.1585633
1.1585128
1.1584415
1.1583468
1.1582249
1.1580718
1.1578835
1.1576551
1.157381
1.1570517
1.1565892
1.1559277
1.1549816
1.1536519
1.1517853
1.1491958
1.1456911
1.1411227
1.1354554
1.1288207
1.1215089
1.1138857
1.1062629
1.0987734
1.0912538
1.083107
1.0733155
1.0612701
1.1586181
1.1586175
1.1586161
1.1586135
1.158609
1.158602
1.1585917
1.158577
1.1585568
1.1585298
1.1584943
1.1584482
1.1583868
1.1583029
1.1581843
1.1579845
1.1576307
1.1570036
1.1559117
1.1540807
1.1511895
1.1469739
1.141358
1.1345099
1.126752
1.1183716
1.1094087
1.0994429
1.08751
1.0733506
1.1467035
1.1354672
1.1252144
1.1158513
1.1072706
1.0993921
1.0921567
1.0855104
1.0794033
1.073803
1.0686921
1.0640623
1.0599285
1.0566043
1.0537712
1.0514564
1.0496997
1.0485035
1.0478822
1.0478339
1.0483241
1.049284
1.0506053
1.0521384
1.0536903
1.0549756
1.0555297
1.0545859
1.0508912
1.0468521
1.1583399
1.1578239
1.1571304
1.1562754
1.1552856
1.1541837
1.1529881
1.1517149
1.1503782
1.1489915
1.1475679
1.1461214
1.1446696
1.1432416
1.1418644
1.1405732
1.1394046
1.1383409
1.1373953
1.1365716
1.1358595
1.1352299
1.1346295
1.133978
1.1331684
1.1320736
1.1305683
1.1285768
1.1251133
1.1101871
1.158613
1.1585959
1.1585651
1.1585184
1.1584538
1.1583701
1.1582664
1.1581418
1.1579959
1.1578283
1.1576388
1.157427
1.157191
1.1569274
1.1566302
1.1562898
1.1558909
1.1554087
1.1548082
1.1540424
1.1530484
1.1517377
1.149977
1.1475696
1.1442525
1.1397159
1.1336475
1.1258435
1.1153316
1.1022222
1.1586181
1.1586175
1.1586162
1.1586138
1.1586099
1.1586039
1.1585954
1.1585838
1.1585684
1.1585486
1.1585237
1.158493
1.1584552
1.158409
1.158352
1.1582788
1.1581781
1.1580265
1.1577745
1.1573233
1.1564911
1.1549868
1.152426
1.1484171
1.1426834
1.1351249
1.1257478
1.1145093
1.1018958
1.0887249
1.1466906
1.1354195
1.1251364
1.115756
1.1071674
1.0992804
1.0920316
1.0853557
1.0791993
1.0735298
1.0683288
1.0635841
1.0592903
1.0559423
1.0530146
1.0505109
1.0484496
1.046859
1.0457989
1.045342
1.0455638
1.0465297
1.0482742
1.0507742
1.0538895
1.0572775
1.0603144
1.0618078
1.0595576
1.053354
1.1583398
1.1578211
1.1571242
1.1562663
1.155275
1.1541743
1.1529844
1.1517233
1.1504066
1.1490491
1.1476654
1.14627
1.1448789
1.1435205
1.1422135
1.1409783
1.1398378
1.138816
1.1379375
1.1372292
1.1367175
1.1364236
1.1363552
1.1364918
1.1367575
1.1369881
1.1369082
1.1361516
1.1340154
1.1260749
1.158613
1.1585958
1.1585648
1.1585179
1.1584532
1.1583698
1.158267
1.1581444
1.1580021
1.1578402
1.1576594
1.1574604
1.1572444
1.1570131
1.1567683
1.1565123
1.1562475
1.1559763
1.155701
1.1554228
1.1551403
1.154844
1.1545017
1.1540295
1.1532393
1.1517797
1.1491264
1.1447227
1.1380481
1.1289524
1.1586181
1.1586175
1.1586162
1.1586138
1.1586099
1.158604
1.1585956
1.1585842
1.1585694
1.1585506
1.1585274
1.1584992
1.1584656
1.1584262
1.1583803
1.1583274
1.1582662
1.158194
1.1581046
1.1579829
1.1577922
1.1574485
1.1567754
1.1554428
1.1529171
1.1484781
1.1413672
1.1310746
1.1179562
1.1036026
1.1466787
1.1353918
1.1250868
1.1156819
1.1070627
1.0991391
1.0918392
1.0850961
1.0788552
1.0730745
1.067715
1.0627407
1.0581394
1.0546615
1.0514039
1.0483087
1.0453412
1.0424796
1.0397713
1.0372772
1.0350603
1.0331901
1.0317307
1.0307184
1.0301288
1.0297724
1.0289996
1.0267042
1.0243437
1.0215136
1.1583392
1.157818
1.1571189
1.1562575
1.1552612
1.1541534
1.1529543
1.1516801
1.1503344
1.1489229
1.1474614
1.1459581
1.1444127
1.1428999
1.1414399
1.1400433
1.1386778
1.1373515
1.1360774
1.134871
1.1337515
1.1327422
1.1318693
1.1311562
1.1306054
1.1301549
1.1295664
1.1280653
1.119545
1.100153
1.158613
1.1585957
1.1585646
1.1585174
1.1584523
1.1583683
1.1582646
1.1581408
1.1579967
1.1578319
1.1576465
1.1574408
1.1572151
1.1569711
1.156711
1.1564373
1.1561519
1.1558567
1.1555547
1.1552492
1.1549449
1.1546471
1.1543615
1.1540894
1.1538155
1.1534677
1.1528416
1.1515115
1.1486231
1.1406506
1.1586181
1.1586175
1.1586162
1.1586138
1.1586098
1.1586039
1.1585954
1.1585839
1.158569
1.15855
1.1585265
1.1584979
1.1584639
1.1584239
1.1583776
1.1583247
1.1582649
1.1581978
1.1581231
1.1580395
1.1579442
1.1578281
1.1576652
1.1573825
1.1567926
1.1554627
1.1525557
1.1468463
1.1373357
1.1246264
1.1466734
1.1353794
1.1250641
1.1156446
1.1070099
1.0990724
1.091758
1.0850076
1.0787684
1.0729879
1.0676242
1.0626458
1.0580551
1.0550662
1.0523358
1.0496726
1.0468652
1.0438372
1.0407515
1.0377052
1.0347587
1.0319465
1.0292888
1.0267971
1.0244812
1.0223386
1.0203148
1.0182444
1.0158548
1.0127217
1.1583391
1.1578173
1.1571171
1.1562537
1.1552546
1.1541433
1.1529389
1.1516429
1.1502533
1.1487831
1.1472381
1.1456144
1.143896
1.1421933
1.1405233
1.1388966
1.137305
1.1357232
1.1341299
1.132501
1.1308118
1.1290271
1.1270907
1.1248984
1.1222366
1.118836
1.1140658
1.1066268
1.0941915
1.0739028
1.158613
1.1585956
1.1585645
1.1585171
1.1584518
1.1583675
1.1582632
1.1581384
1.1579922
1.1578241
1.1576338
1.1574205
1.1571837
1.1569249
1.1566458
1.1563484
1.1560343
1.1557047
1.1553603
1.1550016
1.1546288
1.154242
1.1538412
1.1534253
1.152984
1.152274
1.1507737
1.1472836
1.1395802
1.1244067
1.158618
1.1586175
1.1586162
1.1586138
1.1586098
1.1586038
1.1585953
1.1585837
1.1585686
1.1585494
1.1585255
1.1584964
1.1584615
1.1584203
1.1583723
1.1583172
1.1582546
1.1581841
1.1581056
1.1580188
1.1579234
1.1578189
1.1577038
1.1575729
1.1574064
1.1571293
1.1565088
1.1549358
1.1508861
1.1429117
1.1466734
1.1353794
1.1250641
1.1156446
1.1070099
1.0990724
1.091758
1.0850076
1.0787684
1.0729879
1.0676242
1.0626458
1.0580551
1.0550662
1.0523358
1.0496726
1.0468652
1.0438372
1.0407515
1.0377052
1.0347586
1.0319464
1.0292888
1.0267971
1.0244812
1.0223386
1.0203148
1.0182443
1.0158547
1.0127217
1.1583391
1.1578173
1.1571171
1.1562537
1.1552546
1.1541433
1.1529389
1.1516429
1.1502533
1.1487831
1.1472381
1.1456144
1.143896
1.1421933
1.1405233
1.1388966
1.137305
1.1357232
1.1341298
1.1325009
1.1308117
1.129027
1.1270906
1.1248983
1.1222364
1.1188358
1.1140655
1.1066265
1.0941912
1.0739025
1.158613
1.1585956
1.1585645
1.1585171
1.1584518
1.1583675
1.1582632
1.1581384
1.1579922
1.1578241
1.1576338
1.1574205
1.1571837
1.1569249
1.1566458
1.1563484
1.1560343
1.1557047
1.1553603
1.1550016
1.1546288
1.154242
1.1538412
1.1534253
1.1529839
1.1522739
1.1507737
1.1472835
1.1395799
1.1244064
1.158618
1.1586175
1.1586162
1.1586138
1.1586098
1.1586038
1.1585953
1.1585837
1.1585686
1.1585494
1.1585255
1.1584964
1.1584615
1.1584203
1.1583723
1.1583172
1.1582546
1.1581841
1.1581056
1.1580188
1.1579234
1.1578189
1.1577038
1.1575729
1.1574064
1.1571293
1.1565088
1.1549358
1.1508861
1.1429116
1.1466787
1.1353918
1.1250868
1.1156819
1.1070627
1.0991391
1.0918392
1.0850961
1.0788552
1.0730745
1.067715
1.0627407
1.0581394
1.0546615
1.0514039
1.0483087
1.0453412
1.0424795
1.0397713
1.0372771
1.0350602
1.03319
1.0317306
1.0307183
1.0301287
1.0297723
1.0289995
1.0267041
1.0243436
1.0215136
1.1583392
1.157818
1.1571189
1.1562575
1.1552612
1.1541534
1.1529543
1.1516801
1.1503344
1.1489229
1.1474614
1.1459581
1.1444127
1.1428999
1.1414399
1.1400433
1.1386778
1.1373515
1.1360774
1.134871
1.1337515
1.1327422
1.1318693
1.1311561
1.1306054
1.1301549
1.1295664
1.1280653
1.119545
1.100153
1.158613
1.1585957
1.1585646
1.1585174
1.1584523
1.1583683
1.1582646
1.1581408
1.1579967
1.1578319
1.1576465
1.1574408
1.1572151
1.1569711
1.156711
1.1564373
1.1561519
1.1558567
1.1555547
1.1552492
1.1549449
1.1546471
1.1543615
1.1540894
1.1538155
1.1534677
1.1528416
1.1515115
1.1486232
1.1406506
1.1586181
1.1586175
1.1586162
1.1586138
1.1586098
1.1586039
1.1585954
1.1585839
1.158569
1.15855
1.1585265
1.1584979
1.1584639
1.1584239
1.1583776
1.1583247
1.1582649
1.1581978
1.1581231
1.1580395
1.1579442
1.1578281
1.1576652
1.1573825
1.1567926
1.1554627
1.1525558
1.1468463
1.1373357
1.1246263
1.1466906
1.1354195
1.1251364
1.115756
1.1071674
1.0992804
1.0920316
1.0853557
1.0791993
1.0735298
1.0683288
1.063584
1.0592903
1.0559423
1.0530146
1.0505109
1.0484495
1.0468589
1.0457988
1.0453419
1.0455637
1.0465297
1.0482742
1.0507741
1.0538895
1.0572775
1.0603145
1.0618079
1.0595577
1.0533541
1.1583398
1.1578211
1.1571242
1.1562663
1.155275
1.1541743
1.1529844
1.1517233
1.1504066
1.1490491
1.1476654
1.14627
1.1448789
1.1435205
1.1422135
1.1409783
1.1398378
1.138816
1.1379375
1.1372292
1.1367175
1.1364236
1.1363552
1.1364918
1.1367575
1.1369881
1.1369082
1.1361516
1.1340154
1.126075
1.158613
1.1585958
1.1585648
1.1585179
1.1584532
1.1583698
1.158267
1.1581444
1.1580021
1.1578402
1.1576594
1.1574604
1.1572444
1.1570131
1.1567683
1.1565123
1.1562475
1.1559763
1.155701
1.1554228
1.1551403
1.154844
1.1545017
1.1540295
1.1532393
1.1517797
1.1491264
1.1447227
1.1380481
1.1289524
1.1586181
1.1586175
1.1586162
1.1586138
1.1586099
1.158604
1.1585956
1.1585842
1.1585694
1.1585506
1.1585274
1.1584992
1.1584656
1.1584262
1.1583803
1.1583274
1.1582662
1.158194
1.1581046
1.1579829
1.1577922
1.1574485
1.1567754
1.1554428
1.1529171
1.1484781
1.1413673
1.1310747
1.1179561
1.1036025
1.1467035
1.1354672
1.1252144
1.1158513
1.1072706
1.0993921
1.0921567
1.0855104
1.0794033
1.073803
1.0686921
1.0640623
1.0599285
1.0566043
1.0537712
1.0514564
1.0496997
1.0485034
1.0478822
1.0478339
1.0483241
1.0492839
1.0506052
1.0521384
1.0536903
1.0549756
1.0555298
1.0545859
1.0508913
1.0468522
1.1583399
1.1578239
1.1571304
1.1562754
1.1552856
1.1541837
1.1529881
1.1517149
1.1503782
1.1489915
1.1475679
1.1461214
1.1446696
1.1432416
1.1418644
1.1405732
1.1394046
1.1383409
1.1373953
1.1365716
1.1358595
1.1352299
1.1346295
1.133978
1.1331684
1.1320736
1.1305684
1.1285768
1.1251133
1.1101871
1.158613
1.1585959
1.1585651
1.1585184
1.1584538
1.1583701
1.1582664
1.1581418
1.1579959
1.1578283
1.1576388
1.157427
1.157191
1.1569274
1.1566302
1.1562898
1.1558909
1.1554087
1.1548082
1.1540424
1.1530484
1.1517377
1.149977
1.1475696
1.1442526
1.1397159
1.1336476
1.1258434
1.1153315
1.1022221
1.1586181
1.1586175
1.1586162
1.1586138
1.1586099
1.1586039
1.1585954
1.1585838
1.1585684
1.1585486
1.1585237
1.158493
1.1584552
1.158409
1.158352
1.1582788
1.1581781
1.1580265
1.1577745
1.1573233
1.1564911
1.1549868
1.152426
1.1484172
1.1426835
1.135125
1.1257479
1.1145093
1.1018957
1.0887248
1.1467027
1.1353347
1.1248412
1.1151495
1.1061678
1.0978225
1.0900919
1.0829257
1.0762685
1.0700759
1.0643169
1.0589783
1.0540553
1.0497647
1.0458337
1.0422652
1.0390735
1.0362712
1.0338978
1.0320035
1.0306278
1.0297879
1.0294652
1.0295913
1.0300464
1.030637
1.0310628
1.0308606
1.0293
1.0259516
1.1583418
1.1578202
1.1570987
1.156193
1.1551259
1.1539147
1.1525033
1.150884
1.1490445
1.1469653
1.1446116
1.1419239
1.1388884
1.1354855
1.1316446
1.1272851
1.1223256
1.1168321
1.1108796
1.1046365
1.0983486
1.0922933
1.0867072
1.0817076
1.0772301
1.0730002
1.0684583
1.0626826
1.0548594
1.0455854
1.158613
1.1585956
1.1585633
1.1585128
1.1584415
1.1583468
1.1582249
1.1580718
1.1578835
1.1576551
1.157381
1.1570517
1.1565892
1.1559277
1.1549816
1.1536519
1.1517853
1.1491959
1.1456912
1.1411228
1.1354556
1.1288209
1.121509
1.1138858
1.106263
1.0987735
1.0912538
1.0831071
1.0733155
1.0612701
1.1586181
1.1586175
1.1586161
1.1586135
1.158609
1.158602
1.1585917
1.158577
1.1585568
1.1585298
1.1584943
1.1584482
1.1583868
1.1583029
1.1581843
1.1579845
1.1576307
1.1570036
1.1559117
1.1540808
1.1511896
1.146974
1.1413581
1.13451
1.1267522
1.1183717
1.1094088
1.0994429
1.08751
1.0733506
)
;

boundaryField
{
    maxY
    {
        type            calculated;
        value           nonuniform List<scalar> 
300
(
1.1586175
1.1586175
1.1586175
1.1586175
1.1586175
1.1586175
1.1586175
1.1586175
1.1586175
1.1586175
1.1586169
1.158617
1.158617
1.158617
1.158617
1.158617
1.158617
1.158617
1.158617
1.1586169
1.1586156
1.1586157
1.1586157
1.1586157
1.1586157
1.1586157
1.1586157
1.1586157
1.1586157
1.1586156
1.158613
1.1586133
1.1586133
1.1586132
1.1586132
1.1586132
1.1586132
1.1586133
1.1586133
1.158613
1.1586085
1.1586094
1.1586094
1.1586093
1.1586093
1.1586093
1.1586093
1.1586094
1.1586094
1.1586085
1.1586015
1.1586034
1.1586034
1.1586033
1.1586033
1.1586033
1.1586033
1.1586034
1.1586034
1.1586015
1.1585912
1.1585949
1.1585951
1.1585949
1.1585947
1.1585947
1.1585949
1.1585951
1.1585949
1.1585912
1.1585765
1.1585833
1.1585837
1.1585834
1.1585832
1.1585832
1.1585834
1.1585837
1.1585833
1.1585765
1.1585563
1.1585679
1.1585689
1.1585684
1.1585681
1.1585681
1.1585684
1.1585689
1.1585679
1.1585563
1.1585293
1.1585481
1.1585501
1.1585494
1.1585489
1.1585489
1.1585494
1.1585501
1.1585481
1.1585293
1.1584937
1.1585232
1.1585268
1.1585259
1.158525
1.158525
1.1585259
1.1585268
1.1585232
1.1584937
1.1584477
1.1584924
1.1584987
1.1584974
1.1584959
1.1584959
1.1584974
1.1584987
1.1584924
1.1584477
1.1583863
1.1584547
1.1584651
1.1584634
1.158461
1.158461
1.1584634
1.1584651
1.1584547
1.1583863
1.1583023
1.1584085
1.1584256
1.1584234
1.1584198
1.1584198
1.1584234
1.1584256
1.1584085
1.1583023
1.1581837
1.1583515
1.1583798
1.1583771
1.1583718
1.1583718
1.1583771
1.1583798
1.1583515
1.1581837
1.157984
1.1582782
1.1583269
1.1583242
1.1583167
1.1583167
1.1583242
1.1583269
1.1582782
1.157984
1.1576301
1.1581776
1.1582657
1.1582643
1.1582541
1.1582541
1.1582643
1.1582657
1.1581776
1.1576301
1.1570031
1.1580259
1.1581935
1.1581973
1.1581836
1.1581836
1.1581973
1.1581935
1.1580259
1.1570031
1.1559112
1.1577739
1.1581041
1.1581225
1.1581051
1.1581051
1.1581225
1.1581041
1.1577739
1.1559112
1.1540802
1.1573227
1.1579824
1.158039
1.1580183
1.1580183
1.158039
1.1579824
1.1573227
1.1540802
1.151189
1.1564906
1.1577916
1.1579437
1.1579229
1.1579229
1.1579437
1.1577916
1.1564906
1.1511891
1.1469734
1.1549863
1.1574479
1.1578276
1.1578183
1.1578183
1.1578276
1.1574479
1.1549863
1.1469735
1.1413575
1.1524255
1.1567748
1.1576646
1.1577033
1.1577033
1.1576646
1.1567748
1.1524255
1.1413576
1.1345094
1.1484166
1.1554423
1.157382
1.1575724
1.1575724
1.157382
1.1554423
1.1484167
1.1345095
1.1267515
1.1426829
1.1529165
1.156792
1.1574059
1.1574059
1.156792
1.1529166
1.142683
1.1267517
1.1183711
1.1351244
1.1484776
1.1554621
1.1571287
1.1571287
1.1554622
1.1484776
1.1351245
1.1183712
1.1094082
1.1257473
1.1413667
1.1525552
1.1565083
1.1565083
1.1525552
1.1413667
1.1257474
1.1094083
1.0994424
1.1145088
1.1310741
1.1468457
1.1549353
1.1549353
1.1468458
1.1310742
1.1145088
1.0994425
1.0875096
1.1018953
1.1179557
1.1373352
1.1508856
1.1508856
1.1373351
1.1179557
1.1018952
1.0875096
1.0733502
1.0887245
1.1036021
1.1246259
1.1429112
1.142911
1.1246258
1.103602
1.0887243
1.0733501
)
;
    }
    minX
    {
        type            calculated;
        value           nonuniform List<scalar> 
40
(
1.1586214
1.1586203
1.1586193
1.1586182
1.1586214
1.1586203
1.1586193
1.1586182
1.1586214
1.1586203
1.1586193
1.1586182
1.1586214
1.1586203
1.1586193
1.1586182
1.1586214
1.1586203
1.1586193
1.1586182
1.1586214
1.1586203
1.1586193
1.1586182
1.1586214
1.1586203
1.1586193
1.1586182
1.1586214
1.1586203
1.1586193
1.1586182
1.1586214
1.1586203
1.1586193
1.1586182
1.1586214
1.1586203
1.1586193
1.1586182
)
;
    }
    maxX
    {
        type            calculated;
        value           nonuniform List<scalar> 
40
(
1.0260345
1.0456608
1.0613458
1.0734248
1.0469226
1.1102132
1.1022829
1.0888047
1.0534133
1.1260941
1.129006
1.103692
1.0216069
1.1001811
1.1406707
1.1247103
1.0128405
1.073989
1.1244439
1.1429518
1.0128405
1.0739887
1.1244437
1.1429516
1.0216068
1.1001811
1.1406708
1.1247102
1.0534134
1.1260942
1.129006
1.1036919
1.0469227
1.1102132
1.1022829
1.0888046
1.0260345
1.0456608
1.0613458
1.0734248
)
;
    }
    minZ
    {
        type            calculated;
        value           nonuniform List<scalar> 
120
(
1.1467027
1.1583418
1.158613
1.1586181
1.1353347
1.1578202
1.1585956
1.1586175
1.1248412
1.1570987
1.1585633
1.1586161
1.1151495
1.156193
1.1585128
1.1586135
1.1061678
1.1551259
1.1584415
1.158609
1.0978225
1.1539147
1.1583468
1.158602
1.0900919
1.1525033
1.1582249
1.1585917
1.0829257
1.150884
1.1580718
1.158577
1.0762685
1.1490445
1.1578835
1.1585568
1.0700759
1.1469653
1.1576551
1.1585298
1.0643169
1.1446116
1.157381
1.1584943
1.0589783
1.1419239
1.1570517
1.1584482
1.0540553
1.1388884
1.1565892
1.1583868
1.0497647
1.1354854
1.1559277
1.1583029
1.0458336
1.1316445
1.1549816
1.1581843
1.0422651
1.1272851
1.1536519
1.1579845
1.0390735
1.1223256
1.1517853
1.1576307
1.0362712
1.116832
1.1491958
1.1570036
1.0338978
1.1108795
1.1456911
1.1559117
1.0320035
1.1046364
1.1411227
1.1540807
1.0306278
1.0983485
1.1354554
1.1511895
1.0297879
1.0922932
1.1288207
1.1469739
1.0294652
1.0867071
1.1215089
1.141358
1.0295913
1.0817075
1.1138857
1.1345099
1.0300465
1.0772301
1.1062629
1.126752
1.030637
1.0730002
1.0987734
1.1183716
1.0310629
1.0684583
1.0912538
1.1094087
1.0308607
1.0626827
1.083107
1.0994429
1.0293
1.0548594
1.0733155
1.08751
1.0259516
1.0455854
1.0612701
1.0733506
)
;
    }
    maxZ
    {
        type            calculated;
        value           nonuniform List<scalar> 
120
(
1.1467027
1.1583418
1.158613
1.1586181
1.1353347
1.1578202
1.1585956
1.1586175
1.1248412
1.1570987
1.1585633
1.1586161
1.1151495
1.156193
1.1585128
1.1586135
1.1061678
1.1551259
1.1584415
1.158609
1.0978225
1.1539147
1.1583468
1.158602
1.0900919
1.1525033
1.1582249
1.1585917
1.0829257
1.150884
1.1580718
1.158577
1.0762685
1.1490445
1.1578835
1.1585568
1.0700759
1.1469653
1.1576551
1.1585298
1.0643169
1.1446116
1.157381
1.1584943
1.0589783
1.1419239
1.1570517
1.1584482
1.0540553
1.1388884
1.1565892
1.1583868
1.0497647
1.1354855
1.1559277
1.1583029
1.0458337
1.1316446
1.1549816
1.1581843
1.0422652
1.1272851
1.1536519
1.1579845
1.0390735
1.1223256
1.1517853
1.1576307
1.0362712
1.1168321
1.1491959
1.1570036
1.0338978
1.1108796
1.1456912
1.1559117
1.0320035
1.1046365
1.1411228
1.1540808
1.0306278
1.0983486
1.1354556
1.1511896
1.0297879
1.0922933
1.1288209
1.146974
1.0294652
1.0867072
1.121509
1.1413581
1.0295913
1.0817076
1.1138858
1.13451
1.0300464
1.0772301
1.106263
1.1267522
1.030637
1.0730002
1.0987735
1.1183717
1.0310628
1.0684583
1.0912538
1.1094088
1.0308606
1.0626826
1.0831071
1.0994429
1.0293
1.0548594
1.0733155
1.08751
1.0259516
1.0455854
1.0612701
1.0733506
)
;
    }
    topAir_to_rightSolid
    {
        type            calculated;
        value           nonuniform List<scalar> 
130
(
0.93018483
0.92951629
0.92903418
0.92870021
0.92846114
0.92824572
0.92795085
0.92768065
0.92747711
0.92735708
0.9273918
0.92755874
0.9277089
0.93084292
0.92993289
0.92923918
0.92873695
0.92840393
0.92813578
0.92779129
0.92747674
0.9272905
0.92721456
0.92731031
0.92750525
0.9276766
0.93282212
0.93130684
0.93006813
0.92917913
0.92860736
0.92823352
0.92786675
0.92749929
0.92734852
0.92721514
0.92723697
0.92735943
0.92748883
0.93619664
0.9334793
0.93144086
0.93002452
0.92912575
0.92853769
0.92805739
0.92764928
0.9273983
0.92721372
0.92714121
0.92719136
0.92728904
0.94035632
0.93557437
0.93256714
0.93072242
0.92956908
0.92880205
0.92819178
0.92771303
0.92736775
0.92714554
0.9270888
0.92712282
0.92720055
0.94035622
0.93557432
0.93256712
0.93072241
0.92956907
0.92880205
0.92819178
0.92771303
0.92736775
0.92714553
0.9270888
0.92712281
0.92720055
0.93619655
0.93347923
0.93144082
0.93002449
0.92912573
0.92853768
0.92805738
0.92764928
0.9273983
0.92721372
0.92714121
0.92719136
0.92728904
0.93282202
0.93130676
0.93006807
0.92917909
0.92860733
0.9282335
0.92786673
0.92749928
0.92734852
0.92721514
0.92723698
0.92735944
0.92748884
0.93084276
0.92993277
0.92923909
0.92873688
0.92840389
0.92813576
0.92779128
0.92747673
0.9272905
0.92721457
0.92731032
0.92750526
0.92767661
0.93018452
0.92951609
0.92903405
0.92870013
0.92846109
0.9282457
0.92795084
0.92768065
0.92747711
0.92735708
0.9273918
0.92755874
0.9277089
)
;
    }
    topAir_to_heater
    {
        type            calculated;
        value           nonuniform List<scalar> 
40
(
0.93172875
0.93154116
0.93124701
0.93086554
0.93313296
0.93285215
0.93240491
0.93181195
0.93677644
0.93649098
0.93571751
0.93445786
0.9434141
0.94324537
0.94197983
0.93943941
0.95359923
0.95539965
0.95380121
0.94800973
0.95359904
0.95539942
0.95380095
0.94800948
0.94341394
0.94324523
0.9419797
0.9394393
0.93677644
0.93649096
0.93571744
0.93445777
0.93313321
0.93285228
0.93240488
0.9318118
0.93172959
0.93154149
0.93124693
0.93086504
)
;
    }
    topAir_to_leftSolid
    {
        type            calculated;
        value           nonuniform List<scalar> 
130
(
0.92789681
0.92773098
0.92753855
0.92746682
0.92753287
0.92765634
0.92780763
0.9279288
0.92789813
0.92780195
0.9276997
0.92764302
0.92768414
0.9278489
0.92766053
0.92743673
0.92729858
0.92731118
0.92740096
0.92756861
0.92769338
0.92764297
0.92753152
0.92744116
0.92738617
0.9274094
0.9276551
0.92750615
0.92735083
0.92727844
0.92733256
0.92735769
0.92752732
0.9275892
0.92750697
0.92741966
0.92739409
0.92742621
0.92745711
0.92747242
0.92735426
0.9272661
0.92727644
0.92736127
0.92745118
0.92760088
0.92767391
0.92763463
0.92759038
0.92762545
0.92770331
0.92776799
0.92739098
0.92729131
0.9272159
0.92720371
0.92731297
0.92747345
0.92765205
0.92778145
0.92779008
0.92776187
0.92777395
0.92791675
0.92811606
0.92739098
0.92729131
0.9272159
0.92720371
0.92731297
0.92747345
0.92765205
0.92778145
0.92779008
0.92776187
0.92777395
0.92791676
0.92811606
0.92747242
0.92735426
0.9272661
0.92727644
0.92736126
0.92745117
0.92760088
0.92767391
0.92763463
0.92759038
0.92762546
0.92770331
0.92776799
0.9276551
0.92750615
0.92735083
0.92727844
0.92733256
0.92735769
0.92752732
0.9275892
0.92750697
0.92741966
0.92739409
0.92742621
0.92745711
0.92784891
0.92766053
0.92743673
0.92729858
0.92731117
0.92740096
0.92756861
0.92769338
0.92764297
0.92753152
0.92744115
0.92738616
0.9274094
0.92789681
0.92773098
0.92753855
0.92746681
0.92753286
0.92765633
0.92780763
0.9279288
0.92789812
0.92780195
0.92769969
0.92764302
0.92768414
)
;
    }
}


// ************************************************************************* //
