/*--------------------------------*- C++ -*----------------------------------*\
| =========                 |                                                 |
| \\      /  F ield         | OpenFOAM: The Open Source CFD Toolbox           |
|  \\    /   O peration     | Version:  v2012                                 |
|   \\  /    A nd           | Website:  www.openfoam.com                      |
|    \\/     M anipulation  |                                                 |
\*---------------------------------------------------------------------------*/
FoamFile
{
    version     2.0;
    format      ascii;
    class       volScalarField;
    location    "20/topAir";
    object      T;
}
// * * * * * * * * * * * * * * * * * * * * * * * * * * * * * * * * * * * * * //

dimensions      [0 0 0 1 0 0 0];


internalField   nonuniform List<scalar> 
1200
(
303.11817
306.15326
309.00931
311.69488
314.22575
316.61438
318.85972
320.96976
322.95509
324.82405
326.58168
328.22806
329.76105
331.10885
332.35343
333.49132
334.51569
335.42026
336.19025
336.80735
337.25692
337.53198
337.63779
337.59644
337.44727
337.2539
337.11462
337.18074
337.692
338.79413
300.07214
300.20732
300.39451
300.62981
300.90753
301.22338
301.59226
302.01663
302.50011
303.04848
303.67165
304.38639
305.19767
306.11232
307.1513
308.33911
309.70165
311.22504
312.89268
314.66109
316.46246
318.21682
319.85257
321.33092
322.66651
323.9385
325.31552
327.0836
329.50938
332.43203
300.00161
300.00614
300.0145
300.02755
300.04603
300.07057
300.10215
300.14181
300.19063
300.24985
300.32096
300.40643
300.52655
300.69855
300.94484
301.29173
301.78
302.45999
303.38523
304.59982
306.12013
307.91936
309.92689
312.04797
314.19815
316.33981
318.51965
320.91544
323.84305
327.51866
300.00004
300.00019
300.00054
300.00122
300.00237
300.00418
300.00686
300.01066
300.01588
300.02289
300.03209
300.04402
300.05992
300.08166
300.1124
300.16416
300.25591
300.41865
300.70242
301.1795
301.9359
303.04565
304.53675
306.37499
308.48443
310.79604
313.30695
316.14691
319.61588
323.83219
303.11794
306.11752
308.90683
311.49886
313.91279
316.16234
318.2569
320.20549
322.01717
323.6966
325.24465
326.6598
327.93381
328.96551
329.84995
330.57613
331.12934
331.50713
331.70366
331.71895
331.56384
331.26053
330.84392
330.36182
329.87527
329.47337
329.3004
329.59513
330.75388
332.03006
300.07264
300.20637
300.38628
300.60838
300.86595
301.15318
301.46546
301.79873
302.1494
302.51407
302.88934
303.27161
303.65625
304.03555
304.40224
304.74684
305.05939
305.34445
305.59831
305.81978
306.0115
306.18122
306.34322
306.51925
306.73823
307.03486
307.44365
307.98618
308.93428
313.08781
300.00162
300.00605
300.01401
300.02612
300.04285
300.06452
300.0914
300.12367
300.16149
300.20493
300.25409
300.30902
300.37026
300.43871
300.51591
300.60436
300.70812
300.83362
300.99004
301.18978
301.44942
301.79247
302.25454
302.88861
303.76665
304.97579
306.60831
308.73364
311.64342
315.34998
300.00004
300.00018
300.00051
300.00113
300.00215
300.00369
300.00589
300.00891
300.01289
300.01801
300.02446
300.03243
300.0422
300.05416
300.06894
300.08791
300.11399
300.15329
300.21862
300.33566
300.55177
300.94322
301.61195
302.6648
304.1835
306.20899
308.7596
311.87309
315.44313
319.2592
303.12136
306.13038
308.92823
311.52545
313.94205
316.19448
318.29336
320.25113
322.07803
323.77899
325.35525
326.80669
328.13136
329.17177
330.08695
330.87364
331.52417
332.02789
332.36446
332.50973
332.43918
332.13235
331.57962
330.79074
329.81291
328.75605
327.81442
327.35337
328.04859
329.98059
300.07265
300.20707
300.38789
300.61077
300.86869
301.15564
301.46642
301.79652
302.14193
302.49889
302.86362
303.23228
303.60074
303.96139
304.30921
304.63864
304.94346
305.21707
305.45271
305.64294
305.78052
305.85961
305.87801
305.84126
305.76977
305.70775
305.72924
305.93283
306.50913
308.67046
300.00162
300.00608
300.01409
300.02625
300.04299
300.06459
300.09123
300.123
300.15989
300.20185
300.24874
300.30035
300.3564
300.41646
300.48002
300.54653
300.61536
300.68588
300.75753
300.82994
300.9035
300.98072
301.06994
301.19314
301.3995
301.78147
302.47826
303.64188
305.42272
307.88343
300.00004
300.00018
300.00052
300.00114
300.00215
300.00368
300.00585
300.00879
300.01263
300.0175
300.02352
300.03081
300.03951
300.04972
300.06159
300.0753
300.09117
300.10987
300.13303
300.16457
300.21403
300.30318
300.47791
300.82445
301.48348
302.64874
304.53428
307.30549
310.91151
314.95525
303.12449
306.13784
308.94185
311.54614
313.97174
316.23513
318.34943
320.32776
322.18077
323.91635
325.54231
327.06603
328.48828
329.57152
330.59262
331.56872
332.50997
333.42273
334.29117
335.09498
335.81268
336.42055
336.8964
337.2273
337.42031
337.53709
337.79059
338.54578
339.32592
340.266
300.0728
300.20789
300.38925
300.61305
300.87231
301.16107
301.4743
301.80785
302.16092
302.53213
302.91745
303.31484
303.72443
304.12644
304.51545
304.88849
305.25412
305.61008
305.95282
306.27806
306.58047
306.85364
307.09029
307.2839
307.43358
307.55613
307.71636
308.12585
310.47082
315.94337
300.00162
300.00611
300.01415
300.02639
300.04323
300.065
300.09186
300.12392
300.16128
300.20401
300.25207
300.30543
300.36402
300.42737
300.49491
300.56602
300.64023
300.71699
300.7956
300.87513
300.95442
301.03204
301.10652
301.1775
301.249
301.33982
301.50348
301.85173
302.61078
304.72587
300.00004
300.00019
300.00052
300.00114
300.00217
300.00371
300.0059
300.00887
300.01275
300.01766
300.02375
300.03114
300.03996
300.05031
300.0623
300.07601
300.09151
300.10888
300.12825
300.1499
300.17461
300.2047
300.24696
300.32028
300.47345
300.81928
301.57799
303.07937
305.61376
309.06746
303.12591
306.14121
308.9481
311.55658
313.98672
316.25431
318.37311
320.35388
322.20669
323.94251
325.56997
327.09526
328.51445
329.44508
330.29986
331.1379
332.02592
332.98905
333.97633
334.95676
335.91057
336.82597
337.69566
338.51513
339.28037
339.99141
340.6658
341.35849
342.16147
343.22001
300.07282
300.20807
300.38972
300.61402
300.87401
301.16373
301.47831
301.81758
302.18221
302.56894
302.97642
303.40582
303.8616
304.31458
304.76019
305.19546
305.62257
306.04823
306.4782
306.919
307.37748
307.86335
308.39228
308.9933
309.7262
310.66756
311.9978
314.09512
317.66474
323.66623
300.00162
300.00611
300.01418
300.02644
300.04335
300.06521
300.09221
300.12455
300.16244
300.20601
300.25539
300.3107
300.37215
300.43936
300.51186
300.58915
300.6708
300.75655
300.8462
300.93965
301.03681
301.13768
301.24228
301.3509
301.46626
301.65201
302.04526
302.96411
305.01211
309.12814
300.00004
300.00019
300.00052
300.00115
300.00218
300.00373
300.00593
300.00892
300.01284
300.01781
300.024
300.03154
300.04057
300.05125
300.06367
300.07795
300.09417
300.11242
300.13276
300.15527
300.18001
300.20711
300.23694
300.27088
300.31408
300.38601
300.54716
300.95649
302.01548
304.12273
303.12591
306.14121
308.9481
311.55658
313.98672
316.25431
318.37311
320.35388
322.20669
323.94252
325.56997
327.09526
328.51445
329.44508
330.29987
331.13791
332.02593
332.98907
333.97634
334.95677
335.91058
336.82598
337.69567
338.51514
339.28038
339.99143
340.66582
341.35851
342.16149
343.22003
300.07282
300.20807
300.38972
300.61402
300.87401
301.16373
301.47831
301.81758
302.18221
302.56894
302.97642
303.40582
303.8616
304.31458
304.76019
305.19546
305.62257
306.04824
306.47821
306.91902
307.37749
307.86338
308.39231
308.99334
309.72626
310.66763
311.99788
314.09521
317.66483
323.66632
300.00162
300.00611
300.01418
300.02644
300.04335
300.06521
300.09221
300.12455
300.16244
300.20601
300.25539
300.3107
300.37215
300.43936
300.51186
300.58915
300.6708
300.75655
300.8462
300.93965
301.03682
301.13768
301.24228
301.3509
301.46626
301.65203
302.04529
302.96414
305.01217
309.12822
300.00004
300.00019
300.00052
300.00115
300.00218
300.00373
300.00593
300.00892
300.01284
300.01781
300.024
300.03154
300.04057
300.05125
300.06367
300.07795
300.09417
300.11242
300.13276
300.15527
300.18001
300.20711
300.23694
300.27088
300.31408
300.38601
300.54716
300.9565
302.0155
304.12276
303.12449
306.13784
308.94185
311.54614
313.97174
316.23514
318.34943
320.32776
322.18077
323.91635
325.54231
327.06603
328.48828
329.57152
330.59263
331.56873
332.50998
333.42274
334.29118
335.095
335.8127
336.42057
336.89643
337.22733
337.42034
337.53711
337.7906
338.5458
339.32593
340.26601
300.0728
300.20789
300.38925
300.61305
300.87231
301.16107
301.4743
301.80785
302.16092
302.53213
302.91745
303.31484
303.72443
304.12644
304.51545
304.88849
305.25412
305.61009
305.95283
306.27806
306.58048
306.85365
307.09029
307.2839
307.43358
307.55614
307.71636
308.12585
310.47082
315.94337
300.00162
300.00611
300.01415
300.02639
300.04323
300.065
300.09186
300.12392
300.16128
300.20401
300.25207
300.30543
300.36402
300.42737
300.49491
300.56602
300.64023
300.71699
300.7956
300.87513
300.95442
301.03204
301.10652
301.1775
301.24901
301.33982
301.50348
301.85173
302.61077
304.72586
300.00004
300.00019
300.00052
300.00114
300.00217
300.00371
300.0059
300.00887
300.01275
300.01766
300.02375
300.03114
300.03996
300.05031
300.0623
300.07601
300.09151
300.10888
300.12825
300.1499
300.17461
300.2047
300.24696
300.32028
300.47345
300.81927
301.57799
303.07936
305.61377
309.06748
303.12136
306.13038
308.92823
311.52545
313.94205
316.19449
318.29336
320.25113
322.07803
323.77899
325.35525
326.80669
328.13137
329.17177
330.08695
330.87365
331.52418
332.0279
332.36448
332.50975
332.4392
332.13236
331.57964
330.79075
329.81292
328.75606
327.81441
327.35335
328.04855
329.98055
300.07265
300.20707
300.38789
300.61077
300.86869
301.15564
301.46642
301.79652
302.14193
302.49889
302.86362
303.23228
303.60074
303.96139
304.30921
304.63864
304.94347
305.21707
305.45271
305.64294
305.78052
305.85961
305.87801
305.84126
305.76977
305.70775
305.72924
305.93282
306.50911
308.67043
300.00162
300.00608
300.01409
300.02625
300.04299
300.06459
300.09123
300.123
300.15989
300.20185
300.24874
300.30035
300.3564
300.41646
300.48002
300.54653
300.61536
300.68588
300.75753
300.82994
300.9035
300.98072
301.06994
301.19314
301.3995
301.78147
302.47826
303.64187
305.42271
307.88343
300.00004
300.00018
300.00052
300.00114
300.00215
300.00368
300.00585
300.00879
300.01263
300.0175
300.02352
300.03081
300.03951
300.04972
300.06159
300.0753
300.09117
300.10987
300.13303
300.16457
300.21403
300.30317
300.47791
300.82444
301.48347
302.64873
304.53427
307.30548
310.91152
314.9553
303.11794
306.11752
308.90683
311.49886
313.91279
316.16234
318.2569
320.20549
322.01717
323.6966
325.24466
326.65981
327.93382
328.96551
329.84996
330.57614
331.12935
331.50715
331.70367
331.71897
331.56386
331.26055
330.84393
330.36183
329.87527
329.47337
329.30039
329.59511
330.75385
332.03003
300.07263
300.20637
300.38628
300.60838
300.86595
301.15318
301.46546
301.79873
302.1494
302.51407
302.88935
303.27161
303.65625
304.03555
304.40224
304.74684
305.05939
305.34445
305.59831
305.81979
306.0115
306.18123
306.34323
306.51925
306.73823
307.03485
307.44365
307.98618
308.93428
313.08782
300.00162
300.00605
300.01401
300.02612
300.04285
300.06452
300.0914
300.12367
300.16149
300.20493
300.25409
300.30902
300.37026
300.43871
300.51591
300.60436
300.70812
300.83362
300.99004
301.18978
301.44941
301.79247
302.25454
302.88861
303.76664
304.97579
306.6083
308.73365
311.64343
315.35
300.00004
300.00018
300.00051
300.00113
300.00215
300.00369
300.00589
300.00891
300.01289
300.01801
300.02446
300.03243
300.0422
300.05416
300.06894
300.08791
300.11399
300.15329
300.21862
300.33566
300.55177
300.94322
301.61194
302.66479
304.18348
306.20897
308.75958
311.87309
315.44315
319.25924
303.11817
306.15326
309.0093
311.69488
314.22574
316.61438
318.85971
320.96976
322.95509
324.82405
326.58168
328.22806
329.76105
331.10883
332.3534
333.4913
334.51567
335.42026
336.19025
336.80735
337.25693
337.53199
337.6378
337.59645
337.44727
337.25391
337.11462
337.18074
337.692
338.79413
300.07214
300.20732
300.39451
300.62981
300.90753
301.22338
301.59226
302.01662
302.50011
303.04847
303.67165
304.38638
305.19767
306.11231
307.15128
308.3391
309.70163
311.22501
312.89265
314.66106
316.46243
318.2168
319.85254
321.33091
322.6665
323.93849
325.31552
327.0836
329.50938
332.43204
300.00161
300.00614
300.0145
300.02755
300.04603
300.07057
300.10215
300.14181
300.19063
300.24985
300.32096
300.40643
300.52655
300.69855
300.94484
301.29172
301.77999
302.45998
303.38521
304.5998
306.1201
307.91933
309.92685
312.04793
314.19812
316.33978
318.51963
320.91543
323.84304
327.51866
300.00004
300.00019
300.00054
300.00122
300.00237
300.00418
300.00686
300.01066
300.01588
300.02289
300.03209
300.04402
300.05992
300.08166
300.1124
300.16416
300.25591
300.41864
300.70242
301.17949
301.93588
303.04563
304.53672
306.37495
308.48439
310.79601
313.30692
316.14689
319.61587
323.8322
)
;

boundaryField
{
    maxY
    {
        type            zeroGradient;
    }
    minX
    {
        type            fixedValue;
        value           uniform 300;
    }
    maxX
    {
        type            inletOutlet;
        inletValue      uniform 300;
        value           nonuniform List<scalar> 
40
(
338.76675
332.40805
327.49531
323.8098
332.00771
313.08045
315.3326
319.23581
329.96201
308.66517
307.86878
314.92973
340.23496
315.93529
304.72046
309.04439
343.17977
323.64025
309.11787
304.11204
343.17979
323.64034
309.11795
304.11207
340.23497
315.93529
304.72045
309.04441
329.96197
308.66514
307.86879
314.92977
332.00768
313.08045
315.33262
319.23585
338.76675
332.40806
327.49531
323.8098
)
;
    }
    minZ
    {
        type            zeroGradient;
    }
    maxZ
    {
        type            zeroGradient;
    }
    topAir_to_rightSolid
    {
        type            compressible::turbulentTemperatureCoupledBaffleMixed;
        refValue        nonuniform List<scalar> 
130
(
373.68698
373.95558
374.14949
374.28393
374.38024
374.46711
374.58615
374.69533
374.77765
374.82622
374.81216
374.74452
374.68349
373.42398
373.78944
374.06857
374.27096
374.40534
374.51367
374.65292
374.78018
374.8556
374.88636
374.84755
374.76837
374.69871
372.63128
373.23763
373.73482
374.09251
374.32302
374.47399
374.62231
374.77108
374.83237
374.88661
374.87792
374.82818
374.77525
371.2873
372.36814
373.18303
373.75129
374.11273
374.34958
374.54327
374.70802
374.80942
374.88397
374.91306
374.89252
374.85272
369.64456
371.53414
372.73224
373.47092
373.93413
374.24274
374.48861
374.68167
374.82098
374.91063
374.93336
374.91934
374.88756
369.6446
371.53416
372.73225
373.47092
373.93413
374.24274
374.48861
374.68167
374.82099
374.91063
374.93336
374.91934
374.88756
371.28733
372.36816
373.18305
373.7513
374.11274
374.34958
374.54327
374.70803
374.80942
374.88397
374.91306
374.89252
374.85272
372.63132
373.23766
373.73484
374.09253
374.32303
374.474
374.62232
374.77109
374.83237
374.88661
374.87792
374.82818
374.77525
373.42404
373.7895
374.0686
374.27098
374.40536
374.51368
374.65293
374.78018
374.8556
374.88636
374.84754
374.76836
374.69871
373.68711
373.95566
374.14955
374.28396
374.38026
374.46713
374.58616
374.69534
374.77765
374.82621
374.81216
374.74452
374.68349
)
;
        refGradient     uniform 0;
        valueFraction   uniform 0.99967867;
        value           nonuniform List<scalar> 
130
(
373.67467
373.94343
374.13748
374.27202
374.36839
374.45527
374.57426
374.68336
374.76558
374.81409
374.80006
374.7326
374.67195
373.4105
373.77591
374.05495
374.25723
374.39147
374.49963
374.63869
374.76574
374.84101
374.87171
374.833
374.75422
374.685
372.61822
373.22449
373.72156
374.07912
374.30945
374.4602
374.60822
374.75663
374.81756
374.87148
374.86265
374.81315
374.76085
371.27512
372.35589
373.17078
373.73909
374.10061
374.33753
374.53127
374.69603
374.79744
374.87205
374.90136
374.88108
374.8416
369.63278
371.52206
372.7201
373.45884
373.92219
374.23099
374.47704
374.67028
374.80978
374.89961
374.92255
374.9088
374.87737
369.63282
371.52208
372.7201
373.45884
373.9222
374.23099
374.47704
374.67028
374.80978
374.89961
374.92256
374.9088
374.87737
371.27516
372.35592
373.1708
373.7391
374.10062
374.33754
374.53127
374.69604
374.79744
374.87205
374.90136
374.88108
374.84159
372.61826
373.22452
373.72159
374.07914
374.30947
374.46021
374.60823
374.75664
374.81756
374.87148
374.86265
374.81314
374.76085
373.41056
373.77596
374.05499
374.25725
374.39149
374.49964
374.63869
374.76574
374.84101
374.87171
374.833
374.75421
374.68499
373.6748
373.94351
374.13754
374.27206
374.36841
374.45528
374.57426
374.68336
374.76558
374.81409
374.80006
374.7326
374.67195
)
;
        Tnbr            T;
        thicknessLayers List<scalar> 0();
        kappaLayers     List<scalar> 0();
        kappaMethod     fluidThermo;
        kappa           none;
        alphaAni        none;
        alpha           none;
        field           T;
    }
    topAir_to_heater
    {
        type            compressible::turbulentTemperatureCoupledBaffleMixed;
        refValue        nonuniform List<scalar> 
40
(
373.06898
373.14373
373.26126
373.41393
372.5081
372.61998
372.79853
373.03565
371.0588
371.17164
371.47829
371.97897
368.44724
368.51284
369.00776
370.00561
364.51086
363.82348
364.4331
366.65982
364.51094
363.82357
364.4332
366.65992
368.4473
368.51289
369.00781
370.00565
371.0588
371.17165
371.47832
371.97901
372.508
372.61993
372.79854
373.03571
373.06865
373.1436
373.26129
373.41413
)
;
        refGradient     uniform 0;
        valueFraction   uniform 0.99967867;
        value           nonuniform List<scalar> 
40
(
373.05549
373.13061
373.24847
373.40142
372.4941
372.60623
372.78495
373.02217
371.04533
371.15843
371.46523
371.96597
368.43474
368.50064
368.99572
369.99355
364.49959
363.8127
364.4224
366.64868
364.49966
363.81279
364.42249
366.64878
368.4348
368.5007
368.99577
369.99359
371.04533
371.15844
371.46526
371.966
372.494
372.60618
372.78497
373.02223
373.05515
373.13048
373.2485
373.40162
)
;
        Tnbr            T;
        thicknessLayers List<scalar> 0();
        kappaLayers     List<scalar> 0();
        kappaMethod     fluidThermo;
        kappa           none;
        alphaAni        none;
        alpha           none;
        field           T;
    }
    topAir_to_leftSolid
    {
        type            compressible::turbulentTemperatureCoupledBaffleMixed;
        refValue        nonuniform List<scalar> 
130
(
374.61912
374.68512
374.76195
374.79008
374.76256
374.7119
374.65005
374.60044
374.61218
374.65042
374.69117
374.71353
374.69642
374.63846
374.71359
374.80314
374.85816
374.85228
374.81526
374.74682
374.69577
374.71556
374.76005
374.79608
374.81785
374.80804
374.71675
374.77597
374.83786
374.86629
374.84363
374.83274
374.76349
374.73785
374.7705
374.80524
374.81507
374.80161
374.7887
374.79058
374.83737
374.87211
374.86709
374.83201
374.79493
374.73375
374.7036
374.71888
374.73619
374.7215
374.68955
374.66296
374.82349
374.86282
374.89241
374.8965
374.85153
374.78592
374.71306
374.66015
374.65606
374.6669
374.6615
374.60333
374.5224
374.82349
374.86282
374.89241
374.8965
374.85153
374.78592
374.71306
374.66015
374.65606
374.6669
374.6615
374.60332
374.5224
374.79057
374.83737
374.87211
374.86709
374.83201
374.79493
374.73375
374.7036
374.71887
374.73619
374.7215
374.68955
374.66296
374.71675
374.77597
374.83786
374.86629
374.84363
374.83274
374.76349
374.73785
374.7705
374.80524
374.81507
374.80161
374.78869
374.63846
374.71359
374.80314
374.85816
374.85228
374.81526
374.74682
374.69578
374.71556
374.76005
374.79608
374.81785
374.80804
374.61912
374.68512
374.76195
374.79008
374.76257
374.7119
374.65006
374.60044
374.61219
374.65043
374.69117
374.71353
374.69642
)
;
        refGradient     uniform 0;
        valueFraction   uniform 0.99967867;
        value           nonuniform List<scalar> 
130
(
374.59614
374.66309
374.74082
374.7698
374.74311
374.69323
374.63212
374.5832
374.59558
374.63441
374.6757
374.69859
374.68198
374.61548
374.69155
374.78196
374.83779
374.8327
374.79641
374.72866
374.67826
374.69862
374.74364
374.78015
374.80237
374.79297
374.69375
374.75391
374.81668
374.84593
374.82405
374.81389
374.74534
374.72034
374.75356
374.78884
374.79917
374.78618
374.77369
374.76755
374.81529
374.85093
374.84674
374.81245
374.77611
374.71562
374.68612
374.70199
374.71986
374.70569
374.67424
374.64812
374.80046
374.84074
374.87122
374.87615
374.83197
374.76711
374.69496
374.64269
374.6392
374.6506
374.64571
374.58805
374.50761
374.80046
374.84074
374.87122
374.87615
374.83197
374.76711
374.69496
374.64269
374.6392
374.65059
374.64571
374.58805
374.50761
374.76755
374.81529
374.85093
374.84674
374.81245
374.77611
374.71562
374.68612
374.70199
374.71986
374.70569
374.67424
374.64811
374.69374
374.75391
374.81668
374.84593
374.82406
374.81389
374.74534
374.72034
374.75356
374.78884
374.79917
374.78618
374.77369
374.61548
374.69155
374.78196
374.83779
374.8327
374.79641
374.72866
374.67826
374.69862
374.74364
374.78015
374.80237
374.79297
374.59614
374.66309
374.74082
374.7698
374.74311
374.69323
374.63212
374.5832
374.59558
374.63441
374.6757
374.69859
374.68198
)
;
        Tnbr            T;
        thicknessLayers List<scalar> 0();
        kappaLayers     List<scalar> 0();
        kappaMethod     fluidThermo;
        kappa           none;
        alphaAni        none;
        alpha           none;
        field           T;
    }
}


// ************************************************************************* //
