/*--------------------------------*- C++ -*----------------------------------*\
| =========                 |                                                 |
| \\      /  F ield         | OpenFOAM: The Open Source CFD Toolbox           |
|  \\    /   O peration     | Version:  v2012                                 |
|   \\  /    A nd           | Website:  www.openfoam.com                      |
|    \\/     M anipulation  |                                                 |
\*---------------------------------------------------------------------------*/
FoamFile
{
    version     2.0;
    format      ascii;
    class       volScalarField;
    location    "710/rightSolid";
    object      T;
}
// * * * * * * * * * * * * * * * * * * * * * * * * * * * * * * * * * * * * * //

dimensions      [0 0 0 1 0 0 0];


internalField   nonuniform List<scalar> 
130
(
750.2512
758.23338
766.61396
774.95016
782.90349
790.24357
796.81633
802.53487
807.3341
811.2022
814.12445
816.07309
817.04846
744.48033
753.80972
763.36305
772.63585
781.29852
789.15365
796.08656
802.04731
807.01706
811.00411
813.99803
815.98701
816.97834
732.88497
745.29011
757.35002
768.50512
778.51278
787.2933
794.85901
801.24839
806.51397
810.702
813.81422
815.86932
816.8879
715.5529
733.74455
749.83478
763.65581
775.40091
785.3007
793.58799
800.4487
806.02856
810.42033
813.65699
815.78527
816.84681
695.04381
722.76117
743.63443
760.00764
773.18077
783.92304
792.72529
799.91309
805.70665
810.237
813.56121
815.74561
816.83328
695.06588
722.75972
743.6161
759.97592
773.13332
783.86481
792.66379
799.85639
805.66724
810.21191
813.54864
815.74208
816.83329
715.6794
733.81166
749.85299
763.63965
775.33348
785.2004
793.47354
800.33828
805.94043
810.35804
813.62368
815.7784
816.85253
733.19631
745.51463
757.48616
768.55769
778.48942
787.21613
794.75112
801.13373
806.4147
810.6265
813.77013
815.8608
816.90537
744.93159
754.15417
763.59993
772.76067
781.32429
789.10285
795.99442
801.94603
806.93922
810.95684
813.97917
815.99876
817.00992
750.79353
758.64
766.89257
775.10667
782.95417
790.21435
796.74125
802.44484
807.27627
811.18271
814.13039
816.10502
817.09471
)
;

boundaryField
{
    maxX
    {
        type            zeroGradient;
    }
    minZ
    {
        type            zeroGradient;
    }
    maxZ
    {
        type            zeroGradient;
    }
    rightSolid_to_bottomWater
    {
        type            compressible::turbulentTemperatureCoupledBaffleMixed;
        refValue        nonuniform List<scalar> 
130
(
915.36368
915.93076
916.66594
917.40355
917.15129
917.63954
917.83716
920.30666
919.72859
920.09528
922.43131
922.44239
922.64001
914.5054
915.96727
917.03687
917.53982
918.02293
919.58628
920.18116
920.57837
919.81024
921.43255
923.41923
923.38252
922.78215
913.7768
915.21821
916.33822
917.74654
919.10753
918.8388
919.42104
919.42392
919.77762
923.73552
924.64717
924.29783
922.8059
913.05692
914.81865
915.66613
916.50948
919.87815
919.98798
919.88858
919.39034
920.55881
924.69862
925.03785
924.02803
925.16232
908.33398
913.15877
914.80011
916.54474
917.97829
918.48705
918.51152
918.46961
919.88826
924.40991
924.65373
924.76751
925.77215
905.37877
908.72208
910.93148
913.38153
914.43188
914.74013
914.90737
914.93046
919.25777
924.21667
924.89843
925.13004
925.74976
907.55127
908.58391
909.90613
915.77857
915.68248
915.68609
915.89452
915.91206
919.20764
923.82735
925.20738
925.23485
925.74039
915.33544
915.3808
915.86039
916.85958
917.15017
917.08946
917.37118
917.15845
918.19092
921.67637
923.17687
924.61401
925.22492
917.91965
917.64384
919.58169
918.13511
917.44144
917.06986
917.51715
917.82352
919.3497
921.65675
923.32719
924.54682
924.9214
925.42133
916.88731
917.542
917.39815
916.39132
916.00334
916.0546
916.31107
919.6665
921.95932
923.06641
924.18663
924.4818
)
;
        refGradient     uniform 0;
        valueFraction   nonuniform List<scalar> 
130
(
0.0075140686
0.0075140686
0.0075140686
0.0075140686
0.0075140686
0.0075140686
0.0075140686
0.0075140686
0.0075140686
0.0075140686
0.0075140686
0.0075140686
0.0075140686
0.0075140686
0.0075140686
0.0075140686
0.0075140686
0.0075140686
0.0075140686
0.0075140686
0.0075140686
0.0075140686
0.0075140686
0.0075140686
0.0075140686
0.0075140686
0.0075140686
0.0075140686
0.0075140686
0.0075140686
0.0075140686
0.0075140686
0.0075140686
0.0075140686
0.0075140686
0.0075140686
0.0075140686
0.0075140686
0.0075140686
0.0075140686
0.0075140686
0.0075140686
0.0075140686
0.0075140686
0.0075140686
0.0075140686
0.0075140686
0.0075140686
0.0075140686
0.0075140686
0.0075140686
0.0075140686
0.0075140686
0.0075140686
0.0075140686
0.0075140686
0.0075140686
0.0075140686
0.0075140686
0.0075140686
0.0075140686
0.0075140686
0.0075140686
0.0075140686
0.0075140686
0.0075140686
0.0075140686
0.0075140686
0.0075140686
0.0075140686
0.0075140686
0.0075140686
0.0075140686
0.0075140686
0.0075140686
0.0075140686
0.0075140686
0.0075140686
0.0075140686
0.0075140686
0.0075140686
0.0075140686
0.0075140686
0.0075140686
0.0075140686
0.0075140686
0.0075140686
0.0075140686
0.0075140686
0.0075140686
0.0075140686
0.0075140686
0.0075140686
0.0075140686
0.0075140686
0.0075140686
0.0075140686
0.0075140686
0.0075140686
0.0075140686
0.0075140686
0.0075140686
0.0075140686
0.0075140686
0.0075140686
0.0075140686
0.0075140686
0.0075140686
0.0075140686
0.0075140686
0.0075140686
0.0075140686
0.0075140686
0.0075140686
0.0075140686
0.0075140686
0.0075140686
0.0075140686
0.0075140686
0.0075140686
0.0075140686
0.0075140686
0.0075140686
0.0075140686
0.0075140686
0.0075140686
0.0075140686
0.0075140686
0.0075140686
0.0075140686
)
;
        value           nonuniform List<scalar> 
130
(
751.49209
759.41862
767.74179
776.02095
783.91267
791.20126
797.7261
803.4202
808.17898
812.02077
814.93862
816.87271
817.84223
745.7582
755.0285
764.51813
773.72507
782.32631
790.13417
797.01944
802.93836
807.86498
811.83425
814.82061
816.79438
817.77375
734.24456
746.56732
758.54505
769.62694
779.56965
788.28218
795.79541
802.13679
807.36546
811.55176
814.64745
816.68448
817.68418
717.03741
735.10558
751.08127
764.80479
776.48695
786.31318
794.53745
801.34287
806.88959
811.27948
814.49437
816.59905
817.66112
696.64697
724.1923
744.92103
761.18431
774.26923
784.93459
793.67088
800.80437
806.56508
811.09537
814.39644
816.56528
817.65232
696.64673
724.15758
744.87381
761.12907
774.19547
784.84863
793.58275
800.72149
806.52121
811.06901
814.3858
816.5645
817.65217
717.12171
735.12545
751.05614
764.78327
776.38849
786.18129
794.39383
801.20711
806.79193
811.21108
814.46257
816.60131
817.67117
734.56541
746.7915
758.67665
769.67246
779.53173
788.1924
795.67288
802.00592
807.25497
811.46132
814.59262
816.67838
817.7197
746.2318
755.38304
764.77239
773.85342
782.34748
790.0648
796.90794
802.81712
807.78424
811.78902
814.8012
816.81478
817.82116
752.10607
759.82946
768.02494
776.17624
783.95721
791.15992
797.63816
803.30081
808.12114
812.01547
814.94932
816.91753
817.902
)
;
        Tnbr            T;
        thicknessLayers List<scalar> 0();
        kappaLayers     List<scalar> 0();
        kappaMethod     solidThermo;
        kappa           none;
        alphaAni        none;
        alpha           none;
        field           T;
    }
    rightSolid_to_topAir
    {
        type            compressible::turbulentTemperatureCoupledBaffleMixed;
        refValue        nonuniform List<scalar> 
130
(
495.58784
488.20442
481.81227
476.65826
472.78304
470.13391
468.63242
468.20468
468.8129
470.49474
473.43456
478.13772
485.41006
438.38169
432.9556
429.61247
427.63395
426.5597
426.20298
426.54043
427.59482
429.4336
432.19555
436.22867
442.51131
452.48465
449.71007
440.98254
433.36521
426.85725
421.58581
417.79217
415.67484
415.2653
416.41429
418.91817
422.74349
428.86108
439.17812
505.88643
506.55086
505.82314
503.32644
499.27441
494.22585
488.71476
483.27903
478.83814
476.85256
479.10311
485.66425
495.8342
509.88119
513.66455
517.655
521.45884
524.70242
527.08062
528.41055
528.69776
528.24832
527.76908
528.38983
531.53181
538.92731
508.21133
512.02923
516.01241
519.78185
522.98653
525.34161
526.6752
526.99551
526.59819
526.19805
526.95211
530.31585
537.92282
503.11874
503.33056
502.2559
499.59945
495.58136
490.70908
485.45244
480.23821
475.85373
473.74889
475.96917
483.58339
494.13346
448.74103
439.85719
432.24551
425.86867
420.7579
417.03346
414.81068
414.11109
414.8475
416.90712
420.33129
425.99818
436.17908
438.40348
432.70146
429.19104
427.14876
426.08477
425.75821
426.08926
427.05656
428.69703
431.15738
434.84264
440.77852
450.46797
495.60903
488.11909
481.62277
476.38423
472.44817
469.75112
468.19364
467.67843
468.14879
469.63612
472.33805
476.77698
483.76256
)
;
        refGradient     uniform 0;
        valueFraction   nonuniform List<scalar> 
130
(
0.00032132529
0.00032132529
0.00032132529
0.00032132529
0.00032132529
0.00032132529
0.00032132529
0.00032132529
0.00032132529
0.00032132529
0.00032132529
0.00032132529
0.00032132529
0.00032132529
0.00032132529
0.00032132529
0.00032132529
0.00032132529
0.00032132529
0.00032132529
0.00032132529
0.00032132529
0.00032132529
0.00032132529
0.00032132529
0.00032132529
0.00032132529
0.00032132529
0.00032132529
0.00032132529
0.00032132529
0.00032132529
0.00032132529
0.00032132529
0.00032132529
0.00032132529
0.00032132529
0.00032132529
0.00032132529
0.00032132529
0.00032132529
0.00032132529
0.00032132529
0.00032132529
0.00032132529
0.00032132529
0.00032132529
0.00032132529
0.00032132529
0.00032132529
0.00032132529
0.00032132529
0.00032132529
0.00032132529
0.00032132529
0.00032132529
0.00032132529
0.00032132529
0.00032132529
0.00032132529
0.00032132529
0.00032132529
0.00032132529
0.00032132529
0.00032132529
0.00032132529
0.00032132529
0.00032132529
0.00032132529
0.00032132529
0.00032132529
0.00032132529
0.00032132529
0.00032132529
0.00032132529
0.00032132529
0.00032132529
0.00032132529
0.00032132529
0.00032132529
0.00032132529
0.00032132529
0.00032132529
0.00032132529
0.00032132529
0.00032132529
0.00032132529
0.00032132529
0.00032132529
0.00032132529
0.00032132529
0.00032132529
0.00032132529
0.00032132529
0.00032132529
0.00032132529
0.00032132529
0.00032132529
0.00032132529
0.00032132529
0.00032132529
0.00032132529
0.00032132529
0.00032132529
0.00032132529
0.00032132529
0.00032132529
0.00032132529
0.00032132529
0.00032132529
0.00032132529
0.00032132529
0.00032132529
0.00032132529
0.00032132529
0.00032132529
0.00032132529
0.00032132529
0.00032132529
0.00032132529
0.00032132529
0.00032132529
0.00032132529
0.00032132529
0.00032132529
0.00032132529
0.00032132529
0.00032132529
0.00032132529
0.00032132529
)
;
        value           nonuniform List<scalar> 
130
(
750.16959
758.1469
766.52278
774.8547
782.80427
790.14115
796.71129
802.42782
807.22566
811.09306
814.01533
815.96486
816.94225
744.38227
753.70694
763.25617
772.5254
781.18497
789.03747
795.96824
801.92739
806.89612
810.88277
813.87703
815.8674
816.86162
732.79433
745.19269
757.2463
768.39576
778.39853
787.17501
794.73761
801.12479
806.38904
810.57653
813.68899
815.74539
816.76694
715.48599
733.67197
749.75679
763.57259
775.31262
785.2076
793.49045
800.34722
805.92387
810.3136
813.54995
815.67963
816.74408
694.9848
722.69446
743.56227
759.93143
773.10137
783.84094
792.64078
799.82638
805.61796
810.14671
813.47005
815.65476
816.74445
695.00639
722.69254
743.54345
759.89919
773.05337
783.78216
792.57874
799.76914
805.57802
810.12112
813.45702
815.65084
816.74415
715.61167
733.73815
749.77393
763.55525
775.24401
785.10619
793.37498
800.23582
805.83477
810.25031
813.51563
815.6721
816.74928
733.1054
745.4169
757.38211
768.448
778.37488
787.09758
794.62942
801.00975
806.28925
810.50038
813.64411
815.73593
816.78344
744.83346
754.05128
763.49288
772.65002
781.21054
788.98649
795.87595
801.82595
806.81804
810.83518
813.85772
815.87858
816.89253
750.71191
758.55346
766.80129
775.01107
782.85478
790.11176
796.63607
802.33764
807.16766
811.07334
814.02094
815.99636
816.98798
)
;
        Tnbr            T;
        thicknessLayers List<scalar> 0();
        kappaLayers     List<scalar> 0();
        kappaMethod     solidThermo;
        kappa           none;
        alphaAni        none;
        alpha           none;
        field           T;
    }
    rightSolid_to_heater
    {
        type            compressible::turbulentTemperatureCoupledBaffleMixed;
        refValue        nonuniform List<scalar> 10(743.1914 736.05831 721.21561 696.73844 655.98641 656.02721 696.93065 721.60044 736.59646 743.78729);
        refGradient     uniform 0;
        valueFraction   nonuniform List<scalar> 10(0.50000003 0.50000003 0.50000003 0.50000003 0.50000003 0.50000003 0.50000003 0.50000003 0.50000003 0.50000003);
        value           nonuniform List<scalar> 10(746.72141 740.26947 727.05047 706.1459 675.51535 675.54682 706.30531 727.39862 740.76421 747.2906);
        Tnbr            T;
        thicknessLayers List<scalar> 0();
        kappaLayers     List<scalar> 0();
        kappaMethod     solidThermo;
        kappa           none;
        alphaAni        none;
        alpha           none;
        field           T;
    }
}


// ************************************************************************* //
