/*--------------------------------*- C++ -*----------------------------------*\
| =========                 |                                                 |
| \\      /  F ield         | OpenFOAM: The Open Source CFD Toolbox           |
|  \\    /   O peration     | Version:  v2012                                 |
|   \\  /    A nd           | Website:  www.openfoam.com                      |
|    \\/     M anipulation  |                                                 |
\*---------------------------------------------------------------------------*/
FoamFile
{
    version     2.0;
    format      ascii;
    class       volVectorField;
    location    "190/bottomWater";
    object      U;
}
// * * * * * * * * * * * * * * * * * * * * * * * * * * * * * * * * * * * * * //

dimensions      [0 1 -1 0 0 0 0];


internalField   nonuniform List<vector> 
1460
(
(-0.0020302666 -0.016270101 0.0024783799)
(-0.0023205734 -0.011213632 0.0028817667)
(-0.0013718332 -0.012078776 0.0015893416)
(0.00015904953 -0.011511333 0.0017653574)
(0.00062530208 -0.011266539 0.0014795661)
(0.0021832931 -0.011078132 0.0010894922)
(0.0026101023 -0.014644164 -6.041323e-05)
(0.001284333 -0.015418614 0.00038168372)
(-0.0017652425 -0.016300074 0.00044238474)
(0.00015433309 -0.009688359 0.00095082535)
(-0.00010185767 -0.015346235 6.9186762e-06)
(-0.0031681166 -0.01506399 -0.00033511265)
(-0.0043701439 -0.013909732 -0.0007679822)
(-0.0044203008 -0.011899963 0.00025481351)
(-0.0022659684 -0.012038504 0.0013882253)
(0.0006772989 -0.012201071 0.0018527522)
(0.0010311174 -0.012396077 0.0018020747)
(0.0020811151 -0.012072363 0.0017405407)
(0.0029520569 -0.014506274 0.0018878464)
(-0.0010255839 -0.015497289 0.0017436896)
(-0.003559268 -0.013667363 0.0011593739)
(-0.0044449339 -0.01245598 0.0014757231)
(-0.0040080883 -0.011298835 0.0016186373)
(-0.0034088498 -0.011669827 0.0019931821)
(-0.0027442456 -0.011913422 0.0023926631)
(-0.0012871269 -0.012370052 0.0022678192)
(-9.5206669e-06 -0.012817361 0.0010273754)
(0.0025676413 -0.012394868 0.0015768355)
(0.0032144256 -0.012395792 0.0023631672)
(0.0022243291 -0.015488403 0.0025401941)
(-0.0030730809 0.016339433 0.004556587)
(-0.0017950593 0.0026073208 0.0026680429)
(-0.0013913393 0.0039471654 0.0025269749)
(0.00075275565 0.002449705 0.00097421441)
(0.00094019526 0.0031041288 0.0011732157)
(0.0022167533 0.0040986243 -8.2230429e-05)
(0.0058010724 0.014781226 -0.00034372428)
(0.0047525139 0.017391958 -0.00014821043)
(-0.0040189766 0.016454345 0.0021399327)
(-8.353329e-05 0.0036702049 0.00034653162)
(0.00037181615 0.016847212 0.00052429546)
(-0.0058516901 0.016769711 -0.0016635823)
(-0.0063883212 0.014261202 -0.0021342379)
(-0.0039111342 0.0056543063 -0.00069988278)
(-0.0011979774 -8.452626e-05 -3.2430725e-05)
(0.00055245618 0.0010772889 0.00026113145)
(0.0026795646 0.0048666112 0.0013280877)
(0.0026481486 0.001376351 0.00070558609)
(0.0073289592 0.013865039 0.0013732603)
(0.0024201868 0.017391713 0.001848075)
(-0.0058231562 0.01509814 0.0013240146)
(-0.0042147139 0.0097107907 0.00089699961)
(-0.0039020971 0.004103885 0.00082793456)
(-0.0022808724 0.0042165159 0.00090355056)
(-0.0021999669 0.0011248133 0.0014521643)
(-0.0012579655 0.0013152098 0.0015079879)
(-0.00018145488 0.0029548383 0.00059434792)
(0.0038630528 0.0023363876 0.0012329496)
(0.0046203748 0.0065197043 0.0020724854)
(0.0056336981 0.015680845 0.0025788843)
(0.00041509217 -0.01572656 0.00019659537)
(0.00070340229 -0.013041065 -2.8228664e-05)
(-0.00050777021 -0.012385059 0.00095496606)
(-2.3668709e-05 -0.012556796 -0.0015729638)
(-0.00085415635 -0.012626014 -0.0021447392)
(-0.0010240094 -0.01323803 -0.0015818843)
(-0.0021800584 -0.014595957 0.001625757)
(0.00076163069 0.0041071614 -0.00042183495)
(0.0013829196 -0.009178932 0.0018864736)
(-0.00062146104 -0.012684263 -0.0018438785)
(-0.0030946752 -0.0028117148 0.0020848529)
(-0.0017285178 0.00038649149 0.00034457603)
(0.00036524179 -0.01176128 0.001391103)
(0.00086029746 -0.013155654 0.00021324157)
(0.00080318053 -0.013303572 -0.0024540295)
(-4.0204934e-05 -0.013258952 -0.0021488627)
(0.0023861481 -0.01217506 9.8438363e-05)
(-0.0015362592 -0.015030115 -0.001030823)
(-0.0053076208 -0.013283284 2.2568671e-05)
(-7.3062398e-05 0.0028093935 0.00057701749)
(-0.0023222609 -0.0021382011 -0.0010932798)
(0.0020709927 -0.014283231 -0.00346077)
(-0.0026561466 -0.013315838 -0.0012352077)
(-0.00065628717 -0.013114114 -0.0015543071)
(-0.001069305 -0.013378511 -0.001089207)
(-0.00070925245 -0.01319348 -0.0011023079)
(-0.0008621446 -0.013061789 -0.0011170204)
(0.001670501 -0.013211872 -0.00010754898)
(-0.001171706 -0.013563997 0.000149751)
(0.00082856284 -0.0025125945 0.0018927798)
(-0.0021856771 0.010045621 -0.0020313755)
(-0.00055372319 -0.00062092024 -0.00072898825)
(-0.0014423144 -0.00028209246 -0.0016190799)
(-0.0011625192 0.00040663041 -0.00093468125)
(-0.0019767921 -0.0016491015 -0.0029257607)
(-0.0010710282 0.0014004969 -0.00064438816)
(-0.0037845433 0.0096774003 -0.00039369551)
(-0.0010034364 0.0074822713 0.0015192255)
(0.0024588475 0.010646763 -0.00065883306)
(-0.0019372446 0.009257139 -0.00028665241)
(-0.0024661516 0.0082458957 0.0014906999)
(-2.3762078e-05 0.0075080193 0.0020671085)
(0.0017918467 0.0085299841 -0.00019726854)
(1.2042504e-05 -3.6471823e-05 -0.00058210872)
(0.0010273177 -0.0038148385 -0.00085472609)
(0.00024480894 -0.0038668146 -0.0007712716)
(-0.00015058265 0.00059222726 -0.00023270803)
(0.00052478174 0.010745378 0.0023649297)
(-0.004310779 0.010476804 0.0022599268)
(-0.0016578252 0.0069874868 0.00054715896)
(0.0019231677 0.0069825943 -0.0011282887)
(0.0020122508 0.0088267573 -0.0014063396)
(-0.0017021586 0.0031519651 0.0005555129)
(-0.0004761962 -0.00088540511 -0.001000722)
(-0.00031759072 -0.0025371368 -0.00060116632)
(-0.00062024499 -0.0016777691 -0.0013810651)
(-0.00056108211 -0.002063909 -0.0021892207)
(-3.0541879e-05 -0.0015157006 -0.0014321125)
(0.00035237551 0.0052336991 0.0016349106)
(-0.0017169841 0.0072298019 0.0013990959)
(0.0020568729 -0.0073087643 -0.00062383778)
(0.0015525412 -0.0093506504 -0.0027182154)
(-0.0018885508 -0.0084504108 -0.0044301534)
(-0.0012550578 -0.0078602233 -0.0046912735)
(-0.0035602172 -0.0085811442 -0.0042289193)
(-0.0052798013 -0.0091772514 -0.0038313527)
(-0.005124664 -0.0097706545 -0.0016809492)
(-0.0036433722 -0.0042430139 -0.00039074835)
(-0.00092094324 -0.0034488532 -0.00016412921)
(0.001519231 -0.0037708377 0.00054573327)
(0.0030059273 -0.0044536411 0.0006370556)
(0.0046954682 -0.0064167854 -0.00037665221)
(0.0059160142 -0.0091115027 -0.0015204642)
(0.0052422266 -0.0092670408 -0.0028490398)
(0.0027988448 -0.0092940437 -0.0027999585)
(-0.0027721387 -0.008542678 -0.0030332654)
(-0.005272098 -0.0088522686 -0.0035755825)
(-0.0051619654 -0.0095050057 -0.0026492907)
(-0.0028578979 -0.0091457709 -0.002264248)
(-0.0015949763 -0.0039232239 -0.0018152087)
(0.00081104627 -0.0035142258 -0.0023580665)
(0.0030279532 -0.0063360708 -0.0018520192)
(0.0040199699 -0.0076616943 -0.0032843354)
(0.0031699226 -0.0088994991 -0.0046755045)
(0.0013041365 -0.0089796734 -0.004642816)
(-0.0012568359 -0.0083628592 -0.0059812865)
(-0.00031169064 -0.0090063158 -0.0062747388)
(-0.0030969033 -0.0094328996 -0.0045589112)
(-0.0033946614 -0.0082385687 -0.003274571)
(-0.0018055758 -0.0031116583 -0.0016275731)
(-0.00076586967 -0.014998438 0.0023416979)
(-0.0029131597 -0.012139809 0.0026712689)
(-0.00069562524 -0.010730506 0.0016874839)
(0.0016818432 -0.01591715 0.0027122159)
(0.00012667686 -0.015953839 0.0024022247)
(-0.001346029 -0.018108651 0.00092000661)
(0.00069623151 -0.011198061 -0.00015403759)
(0.00172831 -0.013377404 5.4856502e-05)
(-0.00039651798 -0.01613562 -0.00080454791)
(-0.00027819869 -0.014574819 0.00087847389)
(-0.0019879984 -0.014649414 0.00019284295)
(-0.0037666046 -0.013189326 0.00072781305)
(-0.0029814472 -0.011521288 0.00079531926)
(-0.00078639879 -0.012930456 0.0017067143)
(5.4429384e-05 -0.016001299 0.00088779416)
(-0.00051480841 -0.015064545 0.0022147127)
(0.00021481854 -0.012928278 0.002866804)
(0.0020845196 -0.011947681 0.0031823538)
(0.0023990198 -0.014391906 0.002611224)
(-0.00028577214 -0.015818913 0.0011894796)
(-0.0016557605 -0.016095771 5.5310018e-06)
(-0.0025905487 -0.015394094 0.00041372862)
(-0.0031294107 -0.017452629 0.0022040652)
(-0.0028231594 -0.01696485 0.0024331428)
(-0.0027985459 -0.01577997 0.0029489775)
(-0.0026176283 -0.014970291 0.0027640053)
(-0.0013613728 -0.011360177 0.0016886267)
(0.0020588341 -0.010995327 0.0016435667)
(0.0025193783 -0.013320219 0.0024486626)
(0.0010767845 -0.015596816 0.0026816894)
(-0.0023868412 0.016706519 0.0051899096)
(-0.0036265099 0.012431976 0.0045955711)
(0.00072447575 -0.00086195891 0.00084473405)
(0.0041427713 0.014147963 0.0047441475)
(0.00070663269 0.017099936 0.0052750382)
(-0.0031445878 0.018571533 0.0024196415)
(0.00098018386 0.0059070514 -0.00051496456)
(0.0044928423 0.014919693 0.00032603317)
(0.00086354279 0.017630135 0.0016070452)
(-0.0023693165 0.016164268 0.0027634497)
(-0.0045585919 0.016704765 0.00044278933)
(-0.0057406386 0.012754523 0.00060702494)
(-0.0023589831 0.0017399499 0.00042153979)
(-0.0023068546 0.0055751464 0.0020825894)
(0.0012799503 0.016329904 0.0027041309)
(-0.00013164952 0.014910092 0.0032872181)
(0.0031153112 0.0071579156 0.0036905444)
(0.0038056183 0.0052088259 0.0023510059)
(0.0069011765 0.014869569 0.0029320022)
(0.0044184607 0.017621353 0.002712939)
(-0.0029176342 0.01776688 0.0016795992)
(-0.0049318962 0.017685308 0.0031157303)
(-0.0048679193 0.018306898 0.0050106548)
(-0.0020061221 0.017824516 0.0063203737)
(-0.0021216153 0.016252674 0.0066881555)
(-0.00289975 0.013705922 0.005109004)
(-0.00091224435 0.0020289132 0.00047149528)
(0.0011864195 0.0023152288 0.00013416457)
(0.0052480298 0.014130658 0.0033871834)
(0.0040602029 0.017177418 0.0034193922)
(-0.00065990516 -0.0010978558 0.0021948404)
(0.0048668012 -0.012048203 -0.0016613739)
(0.0021195445 -0.014559905 -0.0016521113)
(-0.0030990289 -0.01386562 -0.0026142741)
(-0.0002367181 0.0027940324 0.0028692332)
(0.00053626749 -0.015205498 -8.4305863e-05)
(-0.0021741157 -0.01403447 -0.0011673748)
(-0.0030101832 -0.0047574308 0.00016239148)
(-0.00063224946 0.0031437379 0.00084381883)
(0.00037188983 -0.00037467201 -0.0013497046)
(0.00022693183 -0.001652241 0.00054946517)
(0.004275003 -0.013835469 -0.00078853284)
(0.0015281137 -0.015069672 -0.0010683295)
(-0.0050630357 -0.015397356 3.4632523e-06)
(-0.0027228627 -0.012917023 0.0010704098)
(0.003438364 -0.01340139 2.201255e-05)
(0.0044796948 -0.01495264 -8.578841e-05)
(-0.00046002684 -0.014814198 -0.0031703268)
(-0.0036052555 -0.012436394 -0.0023824344)
(0.00075982432 0.0047216034 0.0010556305)
(-0.0018283098 0.0054410956 0.00086742592)
(-0.0015077695 -0.0010343402 0.0010076451)
(-0.00074156149 -0.014322428 -0.0010545192)
(0.00092308403 -0.01444447 -0.0003527779)
(0.0015700927 -0.011491531 -0.0023020803)
(0.0029730309 -0.014683905 -0.0031933777)
(0.00045621597 -0.014053588 -0.0037510426)
(-0.0028777319 -0.013516246 -0.0030776191)
(-0.003704796 -0.010237012 -0.002885321)
(0.0010731075 0.0036739543 0.00094471101)
(0.0021698119 0.005519762 -0.00094585088)
(0.0025309916 0.0051407708 -0.0017610338)
(0.0041465535 0.0084114424 0.0016777575)
(-0.0037680324 0.011381832 1.220893e-05)
(-0.00043816435 0.0065726938 0.0020351907)
(0.0010280813 0.013552607 0.00076987725)
(-0.00569948 0.0095614222 -0.00089451486)
(-0.0041116899 0.0077287276 0.00091289424)
(-0.0019816132 0.0083870297 -0.00052592098)
(0.00064623691 0.0077737307 -0.0015245338)
(0.0022739078 0.0068303389 0.0025952122)
(0.0033091723 0.0093962671 0.0017367319)
(0.0015206007 0.01092263 6.4611211e-05)
(-0.00080012512 0.011733264 0.00017939269)
(0.0012395992 -0.0001506406 -0.00084885244)
(0.00049280221 0.0012974376 0.00012094354)
(0.00022245891 0.010774587 -0.00028814609)
(-0.002162845 0.010246926 -0.0019729181)
(-0.0044239991 0.010444649 -0.00083083158)
(-0.0021653685 0.0083312532 0.00085526779)
(0.00022686549 0.009642618 0.00057362837)
(0.002941043 0.0070926981 0.00015056804)
(0.0035275679 0.011406182 -0.00069473139)
(6.5888752e-05 0.012841985 -0.0021419796)
(0.00090239784 0.0082498964 -0.0017190406)
(-0.00096004421 0.01071157 -0.00012957284)
(-0.002693968 0.0077668075 0.00022843158)
(-0.0031405333 0.0045266571 -0.0013043349)
(-0.0045824561 0.0094148129 -0.0017403905)
(-0.0020504543 0.0080332809 0.00014322117)
(0.00063557213 -0.0073904282 -0.0031631927)
(-0.0014842471 -0.0095035847 -0.004918409)
(-0.0026445464 -0.0065232992 -0.0042463974)
(-0.0016575339 -0.0047013614 -0.0033366967)
(-0.0027449165 -0.0055890993 -0.0041135322)
(-0.0022208806 -0.004952223 -0.0032004179)
(-0.0022702334 -0.0072675731 -0.0027637894)
(-0.0030543662 -0.0044960497 -0.0012858843)
(-0.0016059979 0.0003565409 -0.0011842085)
(0.002180826 -0.0014588955 -0.00095161215)
(0.0030742423 -0.005020259 -0.0019685143)
(0.0034913407 -0.0079037099 -0.0021513765)
(0.0036962724 -0.0072351982 -0.0019410725)
(0.0044765783 -0.010385751 -0.0032203493)
(0.0025190151 -0.011127065 -0.0038303094)
(-0.0042673581 -0.0085349926 -0.0026082932)
(-0.0044704379 -0.005181731 -0.0018459874)
(-0.0036982769 -0.0033811802 -0.0013399986)
(-0.0030027493 -0.004285138 -0.0010375021)
(-0.0020357095 0.00096388904 -0.00065519381)
(0.0013408163 0.0022563252 -0.00047511648)
(0.0024185722 -0.0038754945 -0.0017897997)
(0.0018986439 -0.0050367795 -0.002720726)
(0.0020670939 -0.0080099543 -0.0040911025)
(0.0013222628 -0.0093564136 -0.0050527938)
(-0.0010902701 -0.0070159674 -0.0051007573)
(0.001420206 -0.0079057306 -0.0072177007)
(-0.0021854387 -0.010116432 -0.0056070003)
(-0.0033873883 -0.005641299 -0.0034930921)
(-0.0016752108 2.6698115e-05 -0.0020703341)
(-0.00012202472 -0.01471676 0.0020050578)
(-0.0017538274 -0.014763511 0.0021242329)
(-0.0012113408 -0.015858664 0.0031703656)
(-0.00014448634 -0.016593417 0.0017571214)
(-0.00055205003 -0.015601778 0.0012863817)
(-0.00034211291 -0.014248649 -0.0024089048)
(0.0014952106 -0.014946309 -0.0017311547)
(0.001448458 -0.013333651 -0.00257715)
(0.00046273184 -0.015574645 -0.002294999)
(-0.00061911063 -0.016727789 -0.0016943212)
(-0.00079584459 -0.017048218 -0.0017004688)
(-0.0018561543 -0.015574182 0.0013014316)
(-0.0025133168 -0.014760709 0.0018850699)
(-0.0033318617 -0.01377309 0.0011874195)
(-0.0014116516 -0.011598624 -0.0010508033)
(0.0020371942 -0.011805148 0.00096850845)
(0.0022074353 -0.013845644 0.00254595)
(0.0018800793 -0.01353034 0.0032644556)
(0.00066679654 -0.014769016 0.0029299683)
(0.00012596191 -0.01696426 0.0020665438)
(-0.0012020819 -0.01387787 -0.001306978)
(-0.00092078294 -0.012287512 -0.0021654912)
(0.0010028688 -0.016267816 -0.0023349034)
(-0.00017151242 -0.015484097 -0.0024510126)
(-0.00025338161 -0.016709316 -0.00044429246)
(-0.00043133616 -0.016206479 0.00033062377)
(-0.00035218797 -0.016080424 0.00088028853)
(0.00078060055 -0.016567708 0.0023672515)
(0.00058778494 -0.014945737 0.00098446041)
(-0.0002134522 -0.015739341 0.0021549269)
(-0.001774085 0.016252559 0.0040668106)
(-0.0030996842 0.016177572 0.0041129413)
(-2.0413742e-05 0.015862524 0.0036808675)
(0.002195904 0.017622156 0.0020164828)
(-0.0026316636 0.017049021 -0.0011213748)
(-0.00062029719 0.013848039 -0.00072160751)
(0.0033643852 0.012839775 -0.0024379093)
(0.0046206871 0.01526644 -0.003134528)
(0.0035938232 0.016826058 -0.0027033265)
(-0.0034361054 0.018095025 -0.0014846911)
(-0.0034087867 0.017545449 -0.0025542996)
(-0.0030498228 0.017022801 0.0014264504)
(-0.0041244908 0.01587291 0.0037300182)
(-0.0048820789 0.013926678 0.0032889982)
(0.00027466252 -0.0012110928 -0.0015605671)
(0.0012924942 0.0032438778 -0.00015085602)
(0.0057709888 0.013937857 0.0038947314)
(0.0050779247 0.015284205 0.0046465299)
(0.0044380816 0.016759699 0.0036637733)
(0.00023217416 0.018324479 0.00011105216)
(-0.0039139359 0.015183489 -0.0033501591)
(-0.0013193097 0.008535434 -0.0029819675)
(0.0034649966 0.016993957 -0.0035232622)
(0.0032152274 0.017523754 -0.0017357272)
(0.00050099371 0.018120561 0.0028268231)
(-0.0024123324 0.017576584 0.00498732)
(-0.002809778 0.016637238 0.0054629468)
(0.0019028883 0.017256616 0.0025148634)
(0.0029974134 0.017112843 0.00094665209)
(0.001234157 0.017066665 0.00069889337)
(-0.00046405684 0.0015586156 0.0018481421)
(0.001359573 -0.0055719958 0.00099741252)
(6.7830476e-06 -0.016073164 -0.0029544601)
(0.0012680558 0.0021813821 0.0018450377)
(-1.6472196e-05 0.0035018927 -0.00033782413)
(0.0032905208 -0.014803723 0.003725149)
(-0.0013392224 -0.016262485 -0.0012066736)
(-0.0011557718 -0.0031325943 0.00014984824)
(0.00012619215 0.0041754363 -0.0006181608)
(-0.0017507753 0.003331465 -0.0010727912)
(0.00053526429 -0.01350913 0.0030350346)
(0.00049486859 -0.0052687271 -0.00037576201)
(0.0018324384 -0.005322707 -0.0022763842)
(0.0049112638 -0.013232467 -0.0039716833)
(0.0024110688 -0.014624667 -0.0022409216)
(-0.0032316072 -0.013912217 -0.0015854205)
(-0.0019799315 -0.01338763 -0.0034162146)
(0.00034224326 -0.0041841736 -0.0014265741)
(0.0013009865 0.0016131613 0.001255627)
(0.00065851305 0.0057020833 0.00085982822)
(0.0012063595 -0.0016443074 0.00091442298)
(0.00041463485 -0.014250384 0.0014561688)
(-0.0028744345 -0.013571817 -0.00043923142)
(0.0010966116 0.0039586297 -0.0011141945)
(-0.0010059074 0.0054060371 0.0019599623)
(-0.0011892889 0.0024633957 0.0014426564)
(0.00062422638 -0.01285894 -0.0041602286)
(-0.00086902972 -0.017112014 -0.0035643127)
(-0.00082343122 0.00092030082 -0.00051317007)
(-0.0013834314 0.0025645517 0.00027114275)
(0.00046810924 0.0083413123 0.00095622616)
(0.0042711333 0.0088659666 -0.0010877736)
(-0.00025975911 0.011829395 -0.0011550105)
(-0.0018761413 0.0083744125 -0.00028281635)
(0.0021011067 0.0082416942 0.0014955287)
(0.0042219199 0.011012156 -0.00076465035)
(-0.0030105732 0.010759964 -0.00086874448)
(-0.0029916887 0.007042196 0.0006304111)
(-0.0011578558 0.0093721716 -0.00016903578)
(0.0020586596 0.0087837788 -0.00040943783)
(0.0019726246 0.012191394 0.0024457073)
(-0.0028399897 0.0087589522 0.00028176209)
(0.0018716349 0.0079625932 -0.0026422653)
(0.0010465629 0.010958995 -0.0037279072)
(0.00053574759 0.0091389214 0.00011401816)
(-0.0011788191 0.004916386 -0.00097113348)
(-0.0025220841 0.006162835 -0.0037992692)
(-0.0018263643 0.0066236274 -0.0041746537)
(-0.00041842933 0.0077713994 -0.001656982)
(0.0010923097 0.0092800565 0.0015336995)
(0.0035314555 0.0077793611 0.0018054503)
(0.0021617899 0.0097500006 6.2370004e-05)
(-0.0041875111 0.0096016138 -0.0025851456)
(-0.0011380347 0.0073877456 -0.0012611551)
(-0.00094288677 0.0094507216 0.0011430664)
(0.0017552648 0.0079990824 -0.0014379964)
(0.0031982806 0.011801709 -0.003322788)
(-0.0051717452 0.011028216 5.7444811e-05)
(-0.0032038051 0.0072887863 -0.0008760703)
(-0.0018352117 0.0089025173 9.7679751e-05)
(0.0010191422 -0.001289374 -0.0018875093)
(4.1823617e-05 -0.0054092116 -0.0032259895)
(-0.0011538831 -0.0019880082 -0.0013826152)
(0.00035613382 0.0018447751 0.00053538425)
(0.00047893941 0.00047097749 -3.7764489e-05)
(0.0011620834 -0.0038917501 0.0016635351)
(-0.00065413222 -0.0073132292 0.0028207757)
(-0.0026007608 -0.0042386644 0.0017339084)
(-0.0019033044 0.00072609756 0.0010083506)
(0.00075958295 5.6725236e-05 0.00035986596)
(0.0022747912 -0.0022892801 0.00095037358)
(0.0031213275 -0.0017881658 0.00030099945)
(0.0036935911 -0.0059744503 0.00024260123)
(0.0021683005 -0.010413765 -0.0011316416)
(0.0012765845 -0.010600019 -0.0041606144)
(-0.00086643298 -0.0089508928 -0.0035305402)
(-0.003234369 -0.0090777581 0.00072224756)
(-0.0037711777 -0.0043173124 0.00096551048)
(-0.0024086709 3.4483703e-05 0.0012868185)
(0.00046414844 0.0026949608 0.0020003992)
(0.0022544914 -0.00099385628 0.0025297923)
(0.0023895279 -0.0034807551 0.0017874665)
(0.0008565692 -0.010122219 0.0028381099)
(-0.002939633 -0.0025098488 -0.00064285587)
(-0.001174741 0.0027048172 -0.00057026188)
(-0.00041430855 0.00090543017 -0.0027755684)
(0.0019287546 0.00025655935 -0.0040200699)
(0.0011597837 -0.0076087343 -0.0040952418)
(-0.001448559 -0.0037463035 -0.0014899984)
(-0.0016376041 0.00186019 -0.00018849225)
(5.9859439e-05 -0.014337152 0.00016524297)
(-0.0017369035 -0.014502474 -0.00045462954)
(-0.0019529604 -0.014970313 -0.0020853519)
(-0.0016127905 -0.015486159 -0.0025841721)
(-0.0023490456 -0.014384608 -0.0025379338)
(-0.00095260017 -0.011399274 -0.0025570562)
(0.0021417331 -0.011477806 -0.0023486903)
(0.0028501393 -0.012967724 -0.002943473)
(0.0027788338 -0.014513374 -0.0024030648)
(-0.0010909511 -0.016038875 -0.0017771187)
(0.00088806532 -0.011535037 -0.00095144848)
(0.0035884062 -0.013189806 -0.0017187237)
(0.0026629256 -0.015729185 -0.0015355969)
(0.0016438995 -0.014832409 -0.00083556878)
(-0.00085249652 -0.016273386 0.0029190549)
(0.00054472202 -0.014839172 0.0028408322)
(-0.00083416542 -0.014264877 0.0011028464)
(-0.0010140976 -0.015689922 -0.000560313)
(-0.0012990555 -0.014868248 -0.00051503944)
(-0.0019704882 -0.013425647 -0.0019339481)
(-0.0020993589 -0.013130643 -0.0025320637)
(-0.0013312147 -0.010549031 -0.0016173349)
(0.00073864895 -0.010985321 -0.0020803132)
(0.0018809541 -0.012387213 -0.002348984)
(0.0018397084 -0.014765099 -0.0021336088)
(0.0007944844 -0.017670609 -0.0021039902)
(-0.000554307 -0.018069597 -0.0033303662)
(-0.00048395435 -0.016570501 -0.0029849073)
(0.00028316552 -0.015865235 -0.0028712401)
(0.0004784767 -0.015022499 -0.0017112599)
(-0.00076195543 0.016059948 -0.00039691713)
(-0.0030118919 0.016603516 -0.0023092923)
(-0.0032085822 0.016552126 -0.0043400071)
(-0.002919354 0.016607967 -0.0057699381)
(-0.0041352633 0.014913146 -0.0053082528)
(0.00066002218 0.0019255243 -0.0018817362)
(0.0035502805 0.0034210975 -0.0016663599)
(0.0057800222 0.009921446 -0.0028820755)
(0.006661679 0.015631304 -0.0036329138)
(-0.0019546406 0.016393801 -0.0021147947)
(-0.0011769853 -0.0012464084 -0.00098603486)
(0.0031676279 0.013588105 -0.0027562515)
(0.0037683265 0.01721528 -0.0024493507)
(0.00023907605 0.01704917 0.00092615604)
(-0.0020650298 0.017060703 0.0049167366)
(0.0032042305 0.015943718 0.0041279347)
(0.0038307829 0.016511403 0.0034126736)
(0.00046621791 0.017230312 0.00053055185)
(-0.0025656741 0.016849586 -0.0020864542)
(-0.0035121994 0.015234719 -0.0040836061)
(-0.0031926188 0.01212875 -0.0031377023)
(-0.00049853071 0.0019298426 -0.00060624389)
(0.0015522918 0.0026497219 -0.00085683051)
(0.0035356452 0.0078534346 -0.002387665)
(0.0059387625 0.015151974 -0.0038540902)
(0.0041614618 0.018574126 -0.0035730757)
(-0.0031686812 0.019365638 -0.0046952923)
(-0.0021834616 0.017250524 -0.0047572039)
(0.0012670126 0.01502097 -0.0048435111)
(0.0022759118 0.016885291 -0.0052352001)
(0.00076592063 0.00077301762 0.001392197)
(0.00096440095 0.00034581916 0.00021849654)
(0.0014494328 -0.0064943195 -0.00012242019)
(0.00078841843 -0.0055583917 -0.0010160052)
(0.0049056617 -0.013444368 0.0012961029)
(0.003159104 -0.014061229 0.0013321545)
(0.0012402801 -0.013123041 0.0019198854)
(-0.0010154864 -0.01392388 0.002487064)
(0.00030548527 0.0017705941 8.6078158e-05)
(-0.00024693659 0.00086472422 0.00097051572)
(0.00028455591 -0.015086595 -0.00041198857)
(-0.0064556245 -0.013675292 0.0003525467)
(0.00036628696 -0.0033266769 -0.0036273026)
(0.00047457402 0.0032537052 -0.00044139477)
(0.0011700336 -0.013337088 -0.0040807869)
(-0.0018488137 -0.015596305 -0.0022846193)
(0.00056163506 0.0027239571 0.0014624363)
(-0.00096913671 0.0016917901 -0.0013956054)
(0.0020604125 -0.0015997904 -0.00022641687)
(0.0033456064 -0.0075812314 0.0019834646)
(0.0040816303 -0.013687566 0.002770118)
(0.0020740139 -0.013500131 0.0016893383)
(0.0002224103 -0.013033629 0.0020871532)
(-0.0023519194 -0.013517684 0.0012219117)
(-0.0017189113 -0.0044946885 0.00075257743)
(0.0030484448 0.0063098601 -0.0021252466)
(-0.00064452462 0.0064884029 -0.0029929968)
(0.0026832264 -0.015928867 0.0021459224)
(-0.0021167698 -0.016291927 0.002187713)
(0.001215639 0.0017713419 -0.0028966311)
(0.001147042 0.0080426663 0.00083297657)
(0.0024947399 0.0075393801 0.00091627919)
(0.0032314649 0.0083443671 -0.00072739304)
(0.0040206619 0.0079933901 0.00051442985)
(0.0045007129 0.010211902 0.00058646156)
(0.0010785331 0.0072052133 -0.0013638814)
(0.00077868321 0.00061693638 0.0017399989)
(-0.0016356861 0.0084681274 0.0020066506)
(-0.0017826764 0.0069270196 0.0025555472)
(0.0017234503 0.0082980311 0.0012986199)
(0.0028892737 0.010043125 0.0024525749)
(-0.0043162847 0.009979156 -0.00027380416)
(-0.0021954049 0.0039953315 -0.0010427985)
(0.00093807616 0.0063221886 -0.00088466753)
(0.0049098835 0.011193016 0.00027078924)
(-0.00576757 0.010542994 0.00087509605)
(-0.0037028143 0.0074691081 -0.00060285814)
(-0.00071689267 0.0048223036 -0.0020558772)
(0.0032539154 0.0036257528 0.0013258464)
(0.0039345861 0.0075633037 0.0030086655)
(0.00326888 0.0098762337 0.0025465215)
(0.0023551659 0.0030820372 0.0017565076)
(0.0010360686 0.00041086663 0.002137136)
(-0.0017862311 0.0094531803 0.0033221779)
(-0.0039290402 0.0079434795 0.002703171)
(0.0012481264 0.0098457638 -0.0012008401)
(0.0023346354 0.0093141357 -0.0013310053)
(0.0051615605 0.011979426 -0.00018229157)
(-0.0052419173 0.010970454 0.0012943298)
(-0.001621301 0.007010939 -0.00061850112)
(0.0014773566 0.00021717151 0.0017181743)
(0.0028593818 -0.0024579494 0.0017128336)
(0.0027471805 -0.0081714992 0.0039483541)
(0.0018899994 -0.0079877645 0.0048840198)
(0.0025198101 -0.0054155806 0.0039242192)
(0.0033951658 -0.008661239 0.0048945439)
(-0.00066741016 -0.0091748672 0.0050943636)
(-0.0035453319 -0.0081024509 0.0039829741)
(-0.0020430484 -0.0024890837 0.0028959983)
(-0.00038816592 -0.0018149889 0.0025553798)
(0.0016744243 -0.0047997713 0.0026218294)
(0.0023525309 -0.0058796374 0.0031150155)
(0.0010132676 -0.0096455364 0.0021153175)
(-0.0044931576 -0.0072072684 -0.00018351052)
(-0.0008228269 -0.0018399563 -0.001491398)
(-0.0021451647 -0.0013069386 -0.0015838726)
(0.0014939599 -0.0040749059 -0.0012961453)
(8.5273844e-05 -0.0091190586 -0.00079614892)
(-0.00049059714 -0.0091622429 0.0012284271)
(-0.00092238358 -0.0080333708 0.0042032135)
(0.0024448626 -0.0079698722 0.0049323405)
(0.0032095612 -0.0091248326 0.005102376)
(-0.0026731997 -0.0087884776 0.0043775217)
(-0.0042983172 -0.0040028837 0.0039013441)
(-0.0035161697 -0.00053322413 0.002947395)
(-0.00046590373 0.0034221042 0.00025064349)
(0.0017302923 0.0020697593 0.0011282647)
(0.0038144608 -0.0015213675 0.0024881025)
(0.0020776111 -0.0077813304 0.0041021986)
(0.00060998608 -0.0066447894 0.004177679)
(-0.00026893447 -0.01399096 -0.0010891619)
(-0.0030418075 -0.012440837 -0.0011715328)
(-0.0023777161 -0.010852853 -0.0016276872)
(-0.0012184795 -0.012505006 -0.0026729943)
(-0.0015933103 -0.012170539 -0.0012555045)
(1.7771237e-05 -0.012369822 -0.0022126933)
(0.0020808244 -0.012021621 -0.0012228874)
(0.0034680138 -0.011207017 -0.0017548244)
(0.0037585181 -0.01358603 -0.0017448931)
(0.0019931548 -0.015639753 -0.0015277743)
(-0.0016913184 -0.020316176 0.00089825309)
(0.0012042334 -0.0097571113 -0.0018542039)
(0.0023876708 -0.0143875 -0.0015004645)
(-0.00075120292 -0.015463446 -0.0013024177)
(-0.0032704632 -0.013134158 -0.0015020036)
(-0.002989184 -0.011396804 -0.0018995791)
(-0.002005838 -0.012291855 -0.0020495853)
(-0.00044889217 -0.012318553 0.0008662066)
(0.0016910869 -0.012255856 -0.0001536415)
(0.0027726362 -0.011420797 -0.0010129596)
(0.003284689 -0.013036082 -0.0011428648)
(0.0018134108 -0.016500392 -0.00051342899)
(-0.0018465388 -0.01741972 -0.0024789489)
(-0.00097634949 -0.01082879 -0.0024221996)
(0.00096971873 -0.010749702 -0.0018840395)
(0.0016532456 -0.014831325 -0.0029494347)
(-0.002688541 0.015934488 -0.0011360364)
(-0.0044422941 0.013994713 -0.0010107723)
(-0.0003488826 0.0034197047 -0.00019875575)
(-0.00034717031 0.0077123408 -0.0030018869)
(-0.00087033138 0.0054730899 -0.0020162712)
(0.00070245962 0.0022027636 -0.0022814783)
(0.0031191022 0.0020471941 -0.0009754551)
(0.0046664223 0.0021375258 -0.0017538751)
(0.0066797821 0.010904561 -0.0027413183)
(0.002390156 0.017156827 -0.0018506354)
(-0.0053356781 0.017620523 0.001695803)
(-0.00084571084 -0.0012990961 -7.1143722e-05)
(0.0024130835 0.015498575 -0.001378257)
(-0.0031822009 0.0172492 0.00011226647)
(-0.0054506941 0.01426099 0.00058894621)
(-0.0021902224 0.0034439957 0.00068858893)
(-0.0021774605 0.0041140458 -0.001062803)
(2.5758985e-05 0.001674866 0.0013687029)
(0.0016163152 0.0021667279 0.0010969626)
(0.0034700108 0.0020184524 -0.0018692727)
(0.0050336438 0.0089549224 -0.002677511)
(0.0016186816 0.017228608 -0.0035772017)
(-0.0049629922 0.015352737 -0.0050774582)
(-0.0014558675 0.00055385362 -0.0012308217)
(-0.00042718883 -0.0002141357 -0.00025389722)
(0.0030406104 0.014649457 -0.0059352628)
(-0.00024813843 -0.00037429425 0.00091989878)
(0.0045414096 -0.012965546 0.0034074825)
(0.0030994034 -0.013311763 0.0033084548)
(0.0016386422 -0.012945998 0.0023222036)
(0.0019020549 -0.013095078 -0.001191444)
(0.0020639538 -0.012870346 -0.0010113221)
(0.0015663802 -0.012862264 0.00093799991)
(0.0016795282 -0.013109543 -5.6460171e-05)
(-0.0023781208 -0.012955994 0.0019304283)
(-0.0011995345 0.0038931055 -5.1534337e-06)
(0.0012184688 -0.016758872 -0.0052077355)
(-0.0020631744 -0.01336093 0.00037936181)
(-0.0039900234 -0.012247829 -0.0019463053)
(-0.00060256852 -0.00023415084 0.0023784825)
(0.0049612643 -0.012228934 0.0043221973)
(0.0032616529 -0.014197706 0.0044449536)
(-0.00013970987 -0.0131495 0.0019907264)
(0.00047489754 -0.013506427 -0.0003695064)
(0.00012313398 -0.013132976 0.0011433417)
(0.0012507141 -0.013631665 -0.0045283755)
(-8.5243516e-05 -0.013490947 -0.0030385557)
(0.00072278612 0.0011302786 -0.0010454274)
(0.0023104556 -0.013295592 0.00086823854)
(0.00041222662 -0.013426919 0.0012685923)
(-0.0025857274 -0.013358065 0.003071446)
(-0.002075604 -0.012545517 0.0032622787)
(0.0026478589 0.0071936838 0.001034312)
(0.0042653815 0.01039288 0.0023826025)
(0.0030504837 0.0056147451 0.0014777967)
(0.0027636874 0.0013611049 0.0013407154)
(0.0016662517 0.00033654964 0.00080422962)
(0.0020229929 -0.0023633165 0.00077101979)
(0.00037136053 -0.0027504416 0.0018919845)
(0.0025331618 0.0019518564 0.00096619671)
(-0.0024143593 0.010653766 0.0027727123)