/*--------------------------------*- C++ -*----------------------------------*\
| =========                 |                                                 |
| \\      /  F ield         | OpenFOAM: The Open Source CFD Toolbox           |
|  \\    /   O peration     | Version:  v2012                                 |
|   \\  /    A nd           | Website:  www.openfoam.com                      |
|    \\/     M anipulation  |                                                 |
\*---------------------------------------------------------------------------*/
FoamFile
{
    version     2.0;
    format      ascii;
    class       volScalarField;
    location    "12";
    object      p;
}
// * * * * * * * * * * * * * * * * * * * * * * * * * * * * * * * * * * * * * //

dimensions      [0 2 -2 0 0 0 0];


internalField   nonuniform List<scalar> 
64000
(
1.64971e-21
-1.16492e-21
-1.63808e-21
-3.16635e-21
-5.27524e-21
-2.11937e-21
-1.57965e-21
2.23803e-22
-2.08581e-21
-2.56028e-21
-2.13127e-21
-2.58085e-21
-2.13587e-21
-4.57511e-21
-2.14426e-21
-3.94401e-21
-8.81221e-22
-3.54601e-22
8.9266e-22
1.68467e-21
2.38602e-22
-3.76219e-21
-7.89422e-22
1.05555e-21
-4.60725e-21
-2.18224e-21
1.44701e-22
-1.16602e-21
-1.00569e-21
-2.541e-21
-2.12336e-21
4.47826e-23
3.5517e-23
-1.50367e-21
-4.42752e-22
-1.27041e-21
-2.38709e-22
1.6715e-21
1.02019e-21
1.51011e-21
-2.23338e-21
-3.03793e-21
-8.28011e-21
-5.39584e-21
-6.59813e-21
-7.089e-21
-3.16054e-21
-6.09979e-23
-1.95594e-21
-5.36188e-21
-3.04274e-21
-6.45558e-21
-2.17437e-21
-1.67071e-21
-3.1413e-21
-5.71996e-21
-3.12275e-21
1.38395e-21
-7.02351e-23
1.3375e-22
1.73382e-21
-2.02553e-22
-2.00626e-21
-6.09631e-21
-6.35369e-21
-9.83389e-22
-4.33525e-23
-2.64223e-21
-7.626e-22
1.26372e-21
2.26647e-21
-1.8934e-22
-2.27393e-21
-1.45618e-21
-8.65846e-22
-5.66567e-22
1.41913e-21
1.49681e-21
1.08669e-23
5.33112e-22
-4.10549e-21
-2.29815e-21
-1.03315e-20
-6.77135e-21
-5.5581e-21
-7.22328e-21
-3.47846e-21
-2.36765e-21
-1.25548e-21
-3.02581e-21
-4.96072e-21
-7.22872e-21
-1.74413e-21
-1.92613e-21
-1.42955e-21
-1.28721e-21
-6.13272e-21
-1.86739e-21
-8.15633e-22
-4.70865e-22
1.17598e-21
1.19336e-21
-2.54071e-21
-5.11791e-21
-1.69447e-21
-2.36262e-21
-2.57455e-21
-2.93509e-21
3.16309e-22
6.72747e-22
9.20334e-22
-2.9904e-22
-2.80511e-22
3.26513e-22
-3.21134e-22
2.92635e-21
8.09187e-22
-1.13204e-22
-7.66935e-22
-1.191e-22
-5.42568e-21
-6.80775e-21
-7.21946e-21
-9.83251e-21
-8.40723e-21
-9.1834e-21
-4.19815e-21
-1.57985e-21
-3.68821e-21
-3.98644e-21
-3.67076e-21
-5.89995e-21
-4.47126e-21
-1.04924e-21
-1.99277e-21
-4.21578e-21
-4.02972e-21
-2.69343e-21
-1.21102e-21
1.11473e-21
1.82307e-21
1.4939e-21
-4.16644e-21
-5.8769e-21
-2.77642e-21
-3.24058e-21
-1.54964e-21
1.7478e-22
-8.16403e-22
-6.83314e-22
1.99635e-21
6.52095e-22
-2.51951e-21
1.42576e-21
1.9424e-21
9.12499e-22
4.40495e-22
-4.69358e-22
-1.09756e-21
-3.32177e-22
-1.30245e-20
-7.36685e-21
-9.00282e-21
-8.62937e-21
-9.31418e-21
-9.87038e-21
-5.32795e-21
-1.26203e-21
-3.30115e-21
-4.96232e-21
-4.85443e-21
-5.01448e-21
-2.42413e-21
-2.8677e-22
-5.3429e-21
-7.87636e-21
-3.99309e-21
1.70183e-22
6.86342e-22
5.80612e-22
2.36343e-21
-1.62926e-21
-7.54599e-21
-6.01872e-21
-2.71867e-21
-1.78684e-21
-6.06872e-22
-1.18835e-21
-2.37307e-21
9.62372e-22
3.15651e-21
1.21371e-22
-1.02322e-21
1.33016e-21
-1.28449e-21
6.32673e-22
9.04086e-22
5.05786e-22
-1.19287e-21
7.3714e-22
-9.13166e-21
-8.39777e-21
-7.69667e-21
-9.71875e-21
-9.08438e-21
-8.10717e-21
-5.11879e-21
-5.99541e-21
-5.30979e-21
-4.97804e-21
-5.17762e-21
-5.00255e-21
-2.78033e-21
-2.12136e-21
-3.84269e-21
-4.91198e-21
-3.30963e-21
6.88496e-22
1.41872e-21
1.71822e-21
4.05378e-22
-2.6913e-21
-7.20821e-21
-6.10644e-21
-3.38955e-21
-1.65271e-21
-2.64381e-21
-6.34112e-22
-5.90088e-22
-1.42115e-21
-5.97039e-22
-8.41632e-22
4.51625e-22
1.54173e-21
-3.8774e-22
1.38528e-21
3.81362e-22
-1.6295e-21
-5.51545e-22
6.34494e-22
-1.02493e-20
-1.08643e-20
-6.98763e-21
-8.21775e-21
-9.41143e-21
-8.82941e-21
-5.58138e-21
-6.38091e-21
-6.70235e-21
-4.63863e-21
-6.12111e-21
-5.27722e-21
-2.83102e-21
-3.41136e-21
-3.91756e-21
-3.483e-21
-6.19586e-22
1.65089e-21
3.21172e-21
2.49186e-21
-9.5936e-22
-5.49382e-21
-9.97576e-21
-6.86052e-21
-4.7246e-21
-2.84787e-21
-2.49754e-21
8.00798e-22
7.42271e-22
-1.27998e-21
-3.66556e-21
-2.05382e-21
1.41004e-21
1.06608e-21
9.5746e-22
9.56192e-22
8.83831e-22
-1.4266e-21
-3.30924e-21
-7.06625e-22
-8.14769e-21
-9.50034e-21
-1.03387e-20
-7.40781e-21
-1.00809e-20
-7.07039e-21
-6.18133e-21
-1.03892e-20
-7.41967e-21
-5.22505e-21
-7.0123e-21
-6.15848e-21
-4.72836e-21
-4.48388e-21
-3.74363e-21
-3.38495e-21
-1.07837e-21
1.59982e-21
2.9131e-21
4.1872e-21
-1.64826e-21
-7.08812e-21
-9.28175e-21
-5.29012e-21
-4.30884e-21
-3.77236e-21
-1.5776e-21
1.33162e-21
1.08449e-21
-1.55234e-21
-4.91197e-21
-2.52194e-21
6.20888e-22
1.54368e-22
1.81828e-21
1.06809e-21
8.02546e-22
-3.02507e-21
-1.81295e-21
-1.38119e-22
-1.65796e-20
-1.17719e-20
-1.04469e-20
-9.93441e-21
-7.70461e-21
-8.0515e-21
-8.25532e-21
-7.27745e-21
-6.6643e-21
-8.47199e-21
-6.76401e-21
-7.60854e-21
-1.54128e-21
-5.94445e-21
-4.32792e-21
-4.24953e-21
-2.63594e-21
3.34896e-21
7.96965e-22
1.78855e-21
-5.47741e-22
-8.36061e-21
-8.223e-21
-6.15374e-21
-2.39141e-21
-3.86134e-21
-1.73998e-21
8.46465e-22
1.32784e-21
-1.24247e-21
-4.47096e-22
-1.80529e-21
-5.01041e-21
1.3649e-22
1.20154e-21
2.05857e-21
1.61539e-22
-1.8564e-21
-4.77116e-22
2.00284e-22
-7.85518e-21
-9.72758e-21
-1.07443e-20
-9.00722e-21
-8.75909e-21
-8.62106e-21
-6.43697e-21
-8.15516e-21
-6.76428e-21
-5.86693e-21
-6.63278e-21
-4.92917e-21
-3.4621e-21
-4.16776e-21
-6.33906e-21
-4.69158e-21
-3.8115e-21
2.25297e-22
8.64566e-22
2.75059e-21
1.29199e-21
-7.45917e-21
-8.6686e-21
-4.87316e-21
-3.5667e-21
-2.5676e-21
-1.2266e-21
1.59787e-21
-2.74312e-21
-1.46238e-21
-2.16855e-22
-1.27532e-21
-2.14976e-21
-8.07444e-22
-1.40033e-22
-4.58104e-23
1.97392e-22
-4.47439e-22
-1.15159e-22
-1.73011e-22
-6.17832e-21
-1.01599e-20
-9.39064e-21
-1.18401e-20
-8.74286e-21
-8.69234e-21
-9.06529e-21
-8.26889e-21
-6.7417e-21
-9.84389e-21
-6.512e-21
-2.15178e-21
-2.24431e-21
-2.99472e-21
-5.07815e-21
-5.70158e-21
-3.30651e-21
3.96484e-23
3.89625e-21
1.14743e-21
-4.31425e-21
-1.00511e-20
-5.68026e-21
-5.0507e-21
-5.52578e-21
-3.00273e-21
-1.48801e-22
9.55834e-22
-9.27494e-22
-1.10484e-21
-8.31058e-22
-1.46443e-21
1.22282e-21
1.28802e-21
-1.25099e-21
-4.17912e-21
4.38733e-22
1.39934e-21
-6.80732e-23
-1.44384e-22
-7.10662e-21
-1.11967e-20
-1.08663e-20
-9.83643e-21
-9.53419e-21
-9.97158e-21
-8.86256e-21
-8.13337e-21
-6.37276e-21
-8.79808e-21
-9.20326e-21
-2.87934e-21
-4.21658e-21
-4.57546e-21
-3.36043e-21
-4.09442e-21
-4.26509e-21
-3.65468e-23
1.39245e-21
2.86213e-21
-4.518e-21
-7.72858e-21
-6.3343e-21
-6.91921e-21
-5.84468e-21
-1.11764e-21
1.74516e-21
3.69139e-23
-8.9911e-22
5.09843e-22
-6.35199e-22
-2.13751e-21
7.78475e-22
2.94384e-21
-2.71068e-21
-1.52468e-21
2.27761e-21
1.87187e-21
9.67455e-22
-5.68592e-22
-1.14143e-20
-1.2162e-20
-1.11437e-20
-9.4712e-21
-1.02262e-20
-1.01115e-20
-1.06948e-20
-8.38562e-21
-7.98468e-21
-9.13583e-21
-9.18526e-21
-2.48276e-21
-3.3943e-21
-5.91885e-21
-3.51387e-21
-3.61098e-21
-1.86973e-21
-4.30923e-22
-4.7391e-22
-1.76366e-22
-2.28643e-21
-4.42488e-21
-4.80108e-21
-6.42403e-21
-4.27548e-21
-1.9527e-22
1.23911e-21
-1.30994e-21
-2.5133e-22
-1.27497e-22
-2.66707e-21
-2.10474e-22
1.28659e-21
1.106e-21
-6.3906e-22
-9.14077e-22
7.39971e-22
-9.14882e-22
-7.0987e-23
2.24625e-22
-1.40599e-20
-1.44843e-20
-1.12466e-20
-1.00007e-20
-9.4258e-21
-1.10743e-20
-9.5744e-21
-6.07939e-21
-9.71104e-21
-1.35832e-20
-7.5941e-21
-1.34395e-21
-5.12404e-21
-8.91093e-21
-3.37272e-21
-3.41504e-21
-7.29104e-22
1.72506e-21
8.24835e-22
-7.87628e-22
-4.0502e-21
-6.08974e-21
-6.23902e-21
-8.64724e-21
-1.41556e-21
3.92828e-22
1.29404e-21
-7.35245e-22
-1.74218e-21
7.46909e-22
1.92226e-22
1.93488e-22
-1.10936e-21
4.21153e-23
-1.69185e-21
3.82775e-23
6.51818e-22
1.54341e-21
-2.95461e-21
-7.75248e-23
-9.90888e-21
-1.64874e-20
-1.54676e-20
-7.22626e-21
-6.15609e-21
-8.80559e-21
-1.1051e-20
-1.0729e-20
-9.11857e-21
-1.11127e-20
-8.42079e-21
-5.61898e-21
-4.24635e-21
-3.67223e-21
-1.56906e-21
-3.23762e-21
-1.95349e-21
-1.2293e-21
-2.15058e-21
-4.63193e-22
-6.14407e-21
-2.94364e-21
-4.28689e-21
-7.33291e-21
1.19289e-21
-1.02438e-21
-1.91627e-21
-1.47235e-21
-7.92943e-22
-7.02711e-22
-1.27103e-21
1.16728e-21
1.06675e-21
2.11236e-22
-1.56641e-22
-3.04793e-21
5.30913e-22
2.56821e-22
-2.09157e-21
1.0938e-21
-1.10382e-20
-1.22716e-20
-1.42277e-20
-9.55172e-21
-9.98556e-21
-7.76898e-21
-9.37765e-21
-1.09368e-20
-8.46585e-21
-6.34285e-21
-9.21339e-21
-7.67285e-21
-4.22384e-21
-2.69238e-21
-3.31866e-21
-4.59223e-21
-1.87158e-21
-1.31596e-21
-5.79816e-23
-1.42005e-21
-6.36635e-21
-5.53779e-21
-4.13926e-21
-1.92967e-21
4.93661e-22
-2.70173e-21
-2.89118e-21
-1.44455e-21
9.76711e-22
-6.90202e-22
-4.87694e-21
-5.20531e-22
9.60369e-22
1.01887e-21
2.09367e-21
-1.61794e-21
-1.6109e-21
-1.64411e-21
-2.76699e-21
5.50875e-22
-1.02432e-20
-1.06853e-20
-1.34424e-20
-9.21929e-21
-6.90824e-21
-8.98442e-21
-1.05908e-20
-1.15508e-20
-7.21537e-21
-7.23813e-21
-8.53582e-21
-7.75509e-21
-9.74852e-22
-3.87871e-21
-2.74743e-21
-3.23444e-21
-3.4963e-21
-7.09748e-22
-2.40749e-21
-3.46301e-21
-6.53517e-21
-4.59154e-21
-3.78286e-21
-3.26159e-22
-1.48726e-22
-8.24813e-22
-1.7506e-21
1.09158e-21
8.86471e-22
-3.58872e-21
-6.18584e-21
-1.43152e-21
1.69025e-21
2.77978e-22
6.65231e-22
7.36074e-22
-6.14178e-22
-2.97514e-21
-3.24561e-21
-1.43461e-21
-8.19986e-21
-1.10407e-20
-1.59092e-20
-8.53155e-21
-5.4719e-21
-8.27469e-21
-1.10041e-20
-1.07878e-20
-7.74147e-21
-6.97877e-21
-8.47079e-21
-6.3709e-21
-7.92331e-22
-4.5375e-21
-4.56334e-21
-3.51399e-21
-2.81809e-21
-1.02668e-21
5.02689e-22
-5.60967e-21
-7.56851e-21
-7.85414e-21
-1.13153e-21
1.41128e-22
1.66338e-21
-2.86438e-21
-7.00362e-22
2.25343e-21
-1.35352e-21
-1.40977e-21
-2.49468e-21
-2.06701e-21
-9.13051e-22
-5.60476e-22
-9.34179e-22
-1.63436e-21
-8.39122e-22
-6.94747e-22
-6.00692e-22
-6.05853e-22
-6.8611e-21
-7.98277e-21
-1.1061e-20
-9.95661e-21
-9.4873e-21
-8.60265e-21
-8.61392e-21
-7.37399e-21
-7.44279e-21
-8.28591e-21
-7.85624e-21
-7.22896e-21
-3.05034e-21
-2.84324e-21
-5.02206e-21
-3.81544e-21
-3.58248e-21
-5.34751e-21
-6.00009e-21
-6.12907e-21
-3.47001e-21
-1.59391e-21
-1.60796e-21
-4.17635e-22
1.55702e-21
-1.46628e-22
6.29285e-22
2.79859e-21
5.84482e-22
-2.0101e-21
-6.2503e-21
-1.86808e-21
-1.21955e-21
-1.50936e-21
-1.54552e-21
-1.74526e-22
7.40483e-22
-8.76909e-22
-3.24345e-21
-2.36293e-21
-4.99222e-21
-6.63711e-21
-1.28016e-20
-1.09033e-20
-8.79578e-21
-6.67043e-21
-7.30555e-21
-7.62733e-21
-8.32937e-21
-8.69243e-21
-7.46346e-21
-7.77932e-21
-5.51282e-21
-3.08323e-21
-4.96654e-21
-4.24691e-21
-1.79546e-21
-3.02229e-21
-8.39369e-21
-5.04395e-21
-2.74856e-21
-3.93649e-21
-2.5876e-21
1.1423e-21
1.84076e-21
1.43378e-21
-3.80172e-21
4.62803e-22
7.50361e-22
-3.00411e-21
-1.1466e-21
-1.64417e-21
5.3331e-24
-1.74129e-21
-2.96278e-21
-7.20181e-22
-8.75523e-23
-9.46393e-22
-1.81928e-21
-2.85074e-21
-7.16474e-21
-8.14306e-21
-1.12724e-20
-8.08123e-21
-9.59152e-21
-7.02881e-21
-6.71739e-21
-4.98679e-21
-6.29309e-21
-1.10726e-20
-1.42713e-20
-7.60305e-21
-3.97632e-21
-2.72266e-21
-4.67405e-21
-4.15538e-21
-2.7371e-21
-1.6921e-21
-7.12313e-21
-3.85183e-21
-1.53704e-21
-3.7871e-21
-1.74104e-21
-8.68708e-22
-2.09808e-21
1.16433e-21
-1.32769e-22
-4.69777e-22
1.63688e-22
-2.00946e-21
-1.46068e-21
-1.38834e-21
-1.63538e-21
-6.05486e-22
-1.49347e-21
-2.08546e-21
-1.52034e-21
-8.30654e-22
-8.71624e-22
-2.68857e-21
-1.08369e-20
-1.06748e-20
-7.55257e-21
-6.65125e-21
-1.06714e-20
-7.2848e-21
-7.14413e-21
-7.03029e-21
-6.27464e-21
-1.20513e-20
-1.25101e-20
-6.37717e-21
-3.1548e-21
-9.10521e-21
-4.60213e-21
-1.28554e-21
-8.48943e-22
-2.79132e-21
-4.82584e-21
-2.31199e-21
-4.47836e-21
-2.71548e-21
-1.18464e-21
-1.69421e-21
-1.00267e-21
-2.54696e-22
-1.01261e-21
-2.32937e-21
4.38489e-23
-4.44361e-22
-2.63315e-21
1.09705e-21
-1.09333e-21
-1.40976e-21
-3.1756e-21
-6.07591e-21
-1.59135e-22
3.80816e-22
6.46255e-22
1.25968e-22
-1.19681e-20
-1.05383e-20
-8.94373e-21
-6.19412e-21
-7.11544e-21
-1.12513e-20
-6.33922e-21
-5.01213e-21
-9.64417e-21
-1.33224e-20
-1.07257e-20
-7.41733e-21
-4.76796e-21
-4.39855e-21
-3.83607e-21
-3.1612e-21
-5.15818e-22
1.45547e-21
-6.14003e-22
-4.44603e-21
-4.88327e-21
-2.8916e-22
-3.51197e-21
-6.32696e-21
-3.02699e-21
-2.23291e-21
-1.31663e-22
-2.67308e-22
-7.05916e-23
5.06152e-22
-3.52915e-21
-1.70837e-21
-8.42584e-22
-1.64457e-21
-1.08325e-21
-3.2451e-21
-1.41235e-21
1.56604e-21
-3.90123e-22
-1.25603e-21
-8.69642e-21
-9.41474e-21
-1.14864e-20
-7.43892e-21
-6.1733e-21
-8.84493e-21
-8.6649e-21
-1.14647e-20
-8.18867e-21
-8.14532e-21
-8.15672e-21
-8.62809e-21
-1.22878e-21
-5.60941e-21
-6.74343e-21
-2.53031e-21
9.26336e-22
3.99054e-24
-1.36495e-21
-1.56644e-21
-4.4847e-21
-2.13495e-21
-2.8391e-21
-4.4351e-21
-4.86342e-21
-2.82409e-21
5.08373e-22
1.50825e-21
4.85736e-22
-2.85868e-21
-2.83735e-21
-2.23003e-21
-2.37308e-21
-2.65764e-21
-3.06939e-21
-2.52648e-21
3.65986e-22
1.60467e-21
-5.11372e-22
-1.85391e-21
-4.11484e-21
-7.91788e-21
-1.03439e-20
-1.03176e-20
-7.47725e-21
-7.54568e-21
-8.05651e-21
-9.68084e-21
-5.62837e-21
-8.74915e-21
-1.14008e-20
-8.79483e-21
-4.24845e-21
-4.68626e-21
-5.28305e-21
-1.50856e-21
7.36219e-22
-7.29238e-22
2.65222e-22
2.12879e-21
-1.13779e-21
-3.2514e-21
-1.02302e-21
-6.56892e-21
-6.19414e-21
-5.58289e-21
-1.20739e-21
2.04745e-21
-1.52946e-21
-5.81599e-22
-1.0911e-21
-2.42407e-21
-3.45187e-21
-1.82594e-21
-2.73745e-21
-2.6026e-21
-3.21401e-23
-7.37117e-22
-6.30094e-22
2.75738e-23
-8.60436e-21
-9.19918e-21
-1.1267e-20
-9.86386e-21
-6.91138e-21
-5.81753e-21
-7.23364e-21
-9.13593e-21
-4.82755e-21
-5.53643e-21
-1.13374e-20
-9.55248e-21
-4.62796e-21
-6.75223e-21
-2.73922e-21
-9.80404e-24
-3.11805e-22
-1.50037e-21
9.68912e-22
2.23534e-21
2.11648e-21
-2.32422e-21
-5.0808e-21
-7.16222e-21
-6.05196e-21
-5.69246e-21
-1.63098e-22
-7.46185e-22
-3.78682e-21
2.71497e-21
1.28859e-21
-3.57572e-21
-5.89959e-21
-2.15939e-21
4.30528e-22
-7.78988e-22
-9.53317e-22
-2.62081e-21
1.9545e-22
7.69097e-22
-5.02089e-21
-7.34077e-21
-1.04394e-20
-1.22474e-20
-7.7084e-21
-9.65226e-21
-7.10967e-21
-4.0033e-21
-4.21862e-21
-7.64881e-21
-1.0366e-20
-7.28586e-21
-2.152e-21
-6.01944e-21
-7.55356e-21
-1.65311e-21
-1.73844e-21
-1.49431e-21
5.50229e-21
5.365e-21
-1.69068e-21
-6.28647e-21
-3.68755e-21
-3.84501e-21
-5.05683e-21
-5.53855e-21
7.76064e-22
-8.1417e-22
-3.52623e-21
-7.67042e-22
1.97787e-21
-1.42499e-21
-2.76831e-21
-2.49184e-21
-9.82465e-22
-1.7619e-22
-1.81446e-21
-3.47317e-21
-1.53533e-21
-1.71319e-22
-6.3498e-21
-9.6398e-21
-1.04529e-20
-1.11803e-20
-6.06562e-21
-8.64783e-21
-5.11757e-21
-5.81084e-21
-5.46741e-21
-7.1983e-21
-9.02577e-21
-6.37214e-21
-2.77893e-21
-3.54625e-21
-6.46025e-21
-2.72581e-21
-1.31595e-21
-1.04973e-21
4.59642e-21
3.9638e-21
-2.64773e-21
-3.59513e-21
-3.08792e-21
-5.9267e-21
-3.59408e-21
-1.39372e-21
-9.5975e-22
-2.24696e-21
-1.918e-21
-2.13322e-21
9.65695e-22
-6.83894e-22
-2.84368e-21
-1.38913e-21
-1.20555e-21
-1.91598e-21
-3.58972e-21
-2.24497e-21
-7.6605e-22
4.69211e-22
-6.76025e-21
-1.1443e-20
-1.11724e-20
-8.60527e-21
-8.87349e-21
-9.54181e-21
-6.53975e-21
-4.10779e-21
-4.15351e-21
-6.8048e-21
-9.7418e-21
-3.35555e-21
-3.3031e-21
-3.42019e-21
-5.21271e-21
-4.05865e-21
1.30801e-22
2.49079e-21
-2.17622e-23
2.64755e-21
-4.01887e-21
-5.19778e-21
-2.6778e-21
-2.84123e-21
-2.22996e-21
-1.64243e-21
-1.50626e-21
-3.06158e-21
-1.19721e-21
-2.21711e-21
1.47228e-21
4.08403e-22
-2.30412e-21
-6.99696e-22
-1.33257e-21
-3.98094e-21
-1.01484e-21
-1.51137e-21
-1.53003e-21
-1.33213e-21
-7.12224e-21
-9.82138e-21
-9.3113e-21
-1.06976e-20
-1.11207e-20
-9.84964e-21
-5.02946e-21
-4.56318e-21
-4.35085e-21
-6.13037e-21
-1.00369e-20
-2.05263e-21
-1.32707e-21
-4.4716e-21
-5.65499e-21
-7.36829e-21
-2.93517e-21
6.41057e-22
4.6747e-21
3.77953e-21
-3.84303e-21
-4.06721e-21
-3.80053e-21
-3.24528e-21
-2.86241e-21
-2.49373e-21
-1.60318e-21
1.86549e-21
-8.79291e-22
-8.92941e-22
6.22191e-22
-1.79913e-21
-1.80079e-21
-1.02201e-21
-2.66188e-21
-5.26792e-21
4.19943e-22
-1.72311e-21
-1.95173e-21
-3.47136e-22
-9.40094e-21
-9.4348e-21
-7.51568e-21
-9.00411e-21
-1.09016e-20
-9.57033e-21
-5.55966e-21
-4.0316e-21
-4.92054e-21
-5.48742e-21
-5.27845e-21
-2.88436e-21
-4.14254e-21
-1.7767e-21
-1.23834e-21
-8.16072e-21
-5.04866e-21
1.1821e-21
2.74514e-21
1.96849e-21
1.43756e-21
-4.80597e-21
-4.14436e-21
-2.63465e-22
-3.03618e-21
-2.2617e-21
-3.522e-21
-7.66255e-23
-1.56094e-21
-6.84421e-22
-1.35828e-21
-4.46588e-22
6.63583e-22
-9.89619e-22
-3.51748e-21
-5.75891e-21
-3.86143e-21
-1.22065e-21
-9.30146e-22
-3.56844e-22
-1.36889e-20
-1.15845e-20
-7.90555e-21
-8.25533e-21
-7.77458e-21
-8.98232e-21
-6.32413e-21
-5.51427e-21
-5.03737e-21
-2.55319e-21
-1.10761e-21
-5.42644e-21
-4.97851e-21
-1.36361e-21
-2.06833e-21
-4.59784e-21
-1.8401e-21
2.79023e-21
2.85633e-22
-5.19387e-22
2.49303e-21
-1.37704e-21
-8.11994e-21
-3.50958e-21
-1.59308e-21
-2.94879e-21
-2.58487e-21
8.87668e-23
1.02554e-21
9.55232e-22
-3.35106e-21
-2.43848e-22
2.04762e-21
-1.56402e-21
-5.4729e-21
-5.0903e-21
-2.53794e-21
-1.84977e-21
6.49273e-22
1.68334e-21
-8.99709e-21
-7.07985e-21
-6.84372e-21
-8.36734e-21
-9.46231e-21
-8.0801e-21
-5.17341e-21
-6.88637e-21
-4.4625e-21
-2.60747e-21
4.40684e-22
-1.13639e-21
-6.46289e-21
-1.99876e-21
1.19022e-21
-2.76902e-21
-1.55321e-21
-2.17563e-21
1.52192e-21
-1.08873e-22
1.25098e-21
-2.19522e-21
-5.25651e-21
-3.99308e-22
-5.965e-21
-5.97598e-21
5.09048e-22
5.40161e-22
-2.92168e-22
-5.38461e-22
-1.44852e-21
4.23037e-22
2.19732e-21
-1.06111e-21
-3.2397e-21
-1.7534e-21
-1.39571e-21
-6.09972e-21
-1.96344e-21
-3.30093e-23
-9.87381e-21
-7.86353e-21
-6.77686e-21
-1.01824e-20
-1.00652e-20
-5.35235e-21
-3.75782e-21
-3.50124e-21
-4.454e-21
-3.00837e-21
1.40587e-22
-3.8071e-21
-7.98603e-21
-7.47043e-22
6.52489e-22
-6.31057e-22
-1.87288e-21
-1.13181e-21
-3.4472e-22
1.91812e-21
3.23197e-21
-3.98739e-21
-2.39146e-21
-3.37493e-21
-4.53687e-21
-1.97166e-21
-1.19374e-21
-1.37933e-21
-7.80864e-22
-3.05636e-22
-9.23287e-22
9.00345e-22
2.82538e-21
4.95901e-22
2.52768e-22
-1.25382e-21
-1.7079e-21
-2.73839e-22
-2.68747e-21
-3.05631e-21
-1.14622e-20
-6.96347e-21
-5.5306e-21
-6.82717e-21
-7.91335e-21
-8.22668e-21
-5.75641e-21
-4.00094e-21
-5.22456e-21
-3.31274e-21
1.18984e-22
-3.64256e-21
-1.23832e-21
1.48564e-21
-3.17325e-22
-2.68378e-21
-5.05232e-21
-2.08571e-22
2.3388e-21
2.84593e-21
1.81753e-21
-3.11873e-21
-3.60614e-21
-3.16417e-21
-3.33768e-21
-7.14141e-22
-1.49448e-21
-4.25794e-21
-4.64032e-22
-1.08787e-21
-5.31206e-23
-5.50654e-23
2.48109e-21
6.10376e-22
-1.72415e-21
-1.82478e-21
-1.68547e-22
1.63288e-21
5.47689e-23
-1.53935e-21
-7.60784e-21
-5.87741e-21
-6.4063e-21
-7.19352e-21
-6.71467e-21
-8.88435e-21
-3.9835e-21
-2.27023e-21
-2.71372e-21
-2.34293e-21
-3.31633e-21
-1.09048e-21
-5.84732e-22
3.4995e-22
1.19188e-21
-3.36416e-21
-4.11883e-21
4.03456e-22
2.75168e-21
1.32739e-21
1.37477e-21
-4.67163e-21
-3.47116e-21
-2.33675e-21
1.62314e-22
9.15954e-22
-2.36498e-22
-1.54911e-21
-3.37919e-21
-1.94096e-21
1.68143e-22
-2.25348e-22
7.50345e-22
1.60534e-21
3.49542e-23
-1.21803e-21
-2.3746e-22
1.53411e-21
3.60659e-22
-1.77628e-21
-6.63908e-21
-5.1347e-21
-3.62731e-21
-8.91927e-21
-5.22538e-21
-7.18557e-21
-2.82549e-21
-2.4925e-21
-1.92194e-21
-1.74937e-21
-4.17064e-21
-1.85895e-21
6.91879e-22
1.00475e-21
-2.18344e-21
-1.75175e-21
-3.32043e-21
5.8246e-22
3.11647e-21
9.98065e-22
1.7378e-21
-4.45458e-21
-1.57497e-21
-1.28272e-21
-1.80723e-21
-2.23132e-21
-6.84053e-22
-4.76656e-23
-4.59943e-22
-1.70104e-21
-1.4782e-21
-4.4762e-22
1.05938e-21
7.39042e-22
-1.62977e-22
-7.94566e-22
3.09598e-21
3.1579e-21
-2.9805e-21
-2.34851e-21
-5.45093e-21
-5.33292e-21
-6.32719e-21
-5.85427e-21
-5.14838e-21
-6.75724e-21
-3.3052e-21
-2.39801e-21
-1.82005e-21
-2.25473e-21
-1.59903e-21
-2.2814e-21
1.24133e-21
-1.90364e-22
-2.21047e-21
1.58896e-22
1.16628e-21
-8.55202e-23
2.10679e-21
3.97285e-21
-1.77929e-22
-2.08174e-21
-2.73444e-21
-4.946e-21
3.44169e-22
1.15702e-21
-1.95316e-21
-5.83659e-22
2.84461e-22
-2.47774e-21
-3.36343e-21
-8.40123e-22
-2.11979e-22
1.30288e-21
-9.42889e-22
-2.78392e-22
1.55304e-21
3.02971e-21
-2.40913e-21
-1.63141e-21
-3.77511e-21
-2.83408e-21
-4.92847e-21
-7.23185e-21
-6.47591e-21
-6.17252e-21
-3.75006e-21
-1.76533e-21
-5.68925e-23
-2.13842e-21
-5.38486e-22
1.06311e-21
1.71529e-21
-7.71028e-22
-2.57101e-21
-1.23542e-21
-1.54942e-21
4.58393e-22
5.90311e-22
1.19491e-21
1.17134e-21
-5.04507e-22
-7.54079e-22
-4.00881e-21
-2.52291e-21
1.58029e-21
1.48838e-21
2.08989e-21
-4.1456e-21
-5.03387e-21
-2.13031e-21
-2.31386e-21
7.1508e-22
1.23575e-21
6.69589e-22
-1.49548e-21
-8.13305e-22
4.77355e-22
5.09121e-22
7.23411e-22
-6.5316e-21
-2.68704e-21
-2.93389e-21
-9.58849e-22
-1.53118e-22
-3.43636e-21
-6.16638e-21
-3.06864e-21
-5.29025e-22
-2.42223e-21
-2.9344e-21
2.55009e-21
2.13356e-21
-7.89387e-22
-1.4141e-21
-2.59727e-21
-2.22505e-21
-8.469e-22
1.73539e-21
1.91987e-21
1.22694e-21
-1.96026e-21
-1.62123e-21
-6.92054e-22
-8.33014e-22
5.36827e-22
6.89201e-22
9.25421e-22
-3.60079e-23
1.2909e-22
-3.07069e-21
-1.86685e-21
-1.59434e-21
-1.89591e-21
1.44533e-22
-1.10501e-21
-3.22653e-21
-1.63546e-21
7.58344e-22
1.45849e-21
-1.7853e-21
-3.57365e-21
-9.41693e-21
-4.88583e-21
-2.03353e-21
-8.51655e-21
-4.12141e-21
4.95528e-22
-6.22462e-21
-6.48373e-21
-3.07403e-21
-4.9197e-21
-3.59976e-21
-2.33692e-21
-2.30555e-21
-4.95611e-21
-3.98461e-21
-2.30684e-21
2.98704e-21
1.3717e-21
-9.36925e-22
-1.87977e-21
-1.41848e-21
-1.18644e-21
-2.6663e-21
-1.739e-21
-1.57893e-21
-2.71305e-21
-3.50603e-21
-3.86627e-21
-5.27792e-21
7.73355e-22
-1.51316e-21
-2.03702e-21
-1.13977e-21
-4.67735e-22
2.86823e-21
7.50123e-22
-1.05427e-21
9.93517e-22
-5.52427e-21
-7.00932e-21
-1.18571e-20
-1.03786e-20
-5.3703e-21
-7.54239e-21
-7.59384e-21
-1.43222e-21
-4.62323e-21
-7.22744e-21
-6.08347e-21
-4.98702e-21
-6.19953e-21
-4.30128e-21
-4.82792e-21
-3.11791e-21
-3.0281e-22
-3.91232e-21
-1.72663e-22
3.45002e-22
-3.33737e-22
-1.63158e-21
-1.22551e-21
-4.27076e-21
-3.68905e-21
-2.28139e-21
-5.74982e-23
-1.89892e-21
-2.30946e-21
-5.52744e-22
-1.66854e-21
-1.36985e-21
-2.34343e-21
-6.29682e-22
-2.1756e-21
1.18418e-21
1.10326e-21
8.55754e-22
-1.19065e-21
2.09891e-23
-7.94955e-21
-6.92635e-21
-9.11504e-21
-9.7788e-21
-9.05162e-21
-7.42512e-21
-6.72442e-21
-6.22255e-21
-5.42325e-21
-5.11196e-21
-5.45054e-21
-5.89666e-21
-2.29793e-21
-1.64149e-21
-3.46416e-21
-5.02214e-21
-5.13628e-21
-2.00237e-21
1.54903e-21
3.31569e-22
-6.96242e-22
-2.69627e-21
-1.38516e-21
-3.45816e-21
-3.56881e-21
-2.43714e-21
-1.25583e-21
-4.74701e-21
-2.21751e-21
-1.73074e-21
-2.0979e-21
-2.9269e-21
3.4968e-22
5.17148e-22
-3.59503e-21
3.10896e-21
1.38108e-21
1.79993e-21
-4.88671e-22
-1.32897e-22
-9.58251e-21
-1.08347e-20
-1.03009e-20
-1.11699e-20
-1.06217e-20
-1.07493e-20
-6.43042e-21
-4.08281e-21
-7.41815e-21
-4.89996e-21
-3.43078e-21
-6.37264e-21
-2.45958e-21
-1.95663e-21
-3.87863e-21
-4.85316e-21
-4.9162e-21
-2.52876e-21
-9.0213e-22
5.38963e-22
-1.59044e-21
-1.88247e-21
-3.9668e-21
-4.47915e-21
-3.43244e-21
-1.90198e-21
-1.64395e-21
4.79793e-22
-3.0499e-21
-4.88837e-21
-8.86425e-23
-2.14505e-21
-1.0421e-21
1.17409e-21
2.01901e-22
1.04001e-21
-1.52233e-24
-4.08663e-22
-6.41037e-22
-5.01125e-22
-1.29718e-20
-1.20986e-20
-1.20677e-20
-1.0355e-20
-1.44489e-20
-1.11576e-20
-5.65023e-21
-3.66425e-21
-4.3981e-21
-6.39207e-21
-6.72999e-21
-5.70553e-21
-8.30703e-22
-2.97524e-21
-4.97758e-21
-4.85934e-21
-6.43428e-21
-2.39393e-21
-1.05012e-21
1.20137e-22
-8.69331e-22
-1.00366e-21
-4.85403e-21
-4.71884e-21
-4.35225e-21
-1.04388e-21
-9.81223e-22
-1.96045e-21
-3.84469e-21
-2.8714e-21
1.02638e-21
-2.48737e-21
2.22153e-21
1.4467e-21
-9.89635e-22
9.90995e-22
6.04592e-22
-1.63767e-21
-9.23099e-22
3.13875e-22
-1.33125e-20
-1.31207e-20
-1.09454e-20
-1.16048e-20
-1.37728e-20
-1.12898e-20
-6.61427e-21
-7.05249e-21
-6.84458e-21
-7.28562e-21
-7.12756e-21
-7.27777e-21
-2.00346e-21
-1.93595e-21
-4.84869e-21
-3.88329e-21
-5.1516e-21
-1.28843e-21
-1.79865e-21
2.73313e-22
-1.53795e-21
-3.02561e-21
-4.2146e-21
-4.63765e-21
-4.04387e-21
-2.0195e-21
-4.42819e-22
-2.1985e-21
-4.06342e-21
-2.9099e-21
-3.65449e-21
-4.5191e-22
4.56077e-21
2.79723e-21
-3.74778e-22
1.29133e-21
1.19422e-22
-1.20785e-21
1.41864e-21
1.54216e-21
-1.60567e-20
-1.624e-20
-1.25137e-20
-1.16791e-20
-1.37419e-20
-9.38693e-21
-8.00457e-21
-6.11901e-21
-8.7336e-21
-1.0015e-20
-8.6491e-21
-6.44857e-21
-2.3625e-21
-1.73955e-21
-5.82128e-21
-5.37315e-21
-1.20137e-21
-1.42261e-22
-3.45277e-22
-1.10224e-21
-2.62102e-21
-2.80585e-21
-5.86048e-21
-7.62186e-21
-4.25125e-21
-2.14651e-21
-2.52785e-21
-1.90317e-21
-7.08646e-22
-2.10848e-21
-3.71894e-21
-1.67512e-21
9.86378e-22
1.71987e-21
-3.11804e-22
2.02606e-21
7.46982e-22
-1.35204e-21
-9.04064e-22
7.53052e-22
-1.34805e-20
-1.48733e-20
-1.37618e-20
-1.41799e-20
-1.4361e-20
-9e-21
-1.0181e-20
-1.0379e-20
-1.10889e-20
-6.31929e-21
-7.29161e-21
-9.53219e-21
-2.88993e-21
-1.84266e-21
-6.04717e-21
-4.3752e-21
5.7321e-22
-2.55843e-22
-1.15479e-21
-8.1434e-22
-2.87141e-21
-6.89515e-21
-7.70354e-21
-4.87534e-21
-4.08341e-21
-6.81673e-22
-1.78402e-21
-1.76919e-21
-2.28724e-21
-2.81069e-21
-5.00174e-21
-2.75408e-21
8.90176e-23
-5.83808e-22
2.42619e-21
1.97738e-21
2.85823e-21
1.97773e-22
-1.69691e-21
-1.31085e-21
-1.56405e-20
-1.55994e-20
-1.74047e-20
-1.46867e-20
-1.33196e-20
-9.59626e-21
-1.21738e-20
-9.31876e-21
-8.94371e-21
-1.12814e-20
-7.19998e-21
-7.2868e-21
-3.952e-21
-4.29155e-21
-5.36347e-21
-4.39797e-21
-2.93022e-21
-6.29437e-22
-1.87342e-21
-9.81795e-22
-1.05278e-21
-6.43816e-21
-6.99715e-21
-9.40011e-21
-4.11788e-21
-1.10077e-21
-1.55447e-21
-1.96238e-21
7.14373e-22
-1.63738e-21
-4.17018e-21
-2.86811e-21
-4.60419e-21
8.76511e-22
1.88912e-21
3.69636e-21
4.03962e-21
-1.00248e-21
-1.14288e-21
-9.45805e-22
-1.71482e-20
-1.49629e-20
-1.53617e-20
-1.71752e-20
-1.43412e-20
-1.20243e-20
-1.3205e-20
-1.10856e-20
-6.76008e-21
-9.49141e-21
-7.56809e-21
-6.36533e-21
-4.30032e-21
-3.61738e-21
-7.34813e-21
-5.2935e-21
-3.33672e-21
-1.65439e-21
-5.83937e-22
1.04e-21
-3.90965e-21
-7.26275e-21
-6.83765e-21
-8.96234e-21
-4.94414e-21
-2.6982e-21
-1.1761e-21
-6.41706e-22
-1.25265e-21
-1.5223e-21
-8.91936e-22
-2.27066e-21
-4.05424e-21
-7.91189e-22
1.75302e-21
2.74574e-21
4.85806e-21
5.13872e-22
6.50194e-22
1.7063e-22
-1.62806e-20
-1.77466e-20
-1.88037e-20
-1.56593e-20
-1.40612e-20
-1.1354e-20
-1.36097e-20
-1.31625e-20
-9.05075e-21
-8.24495e-21
-8.14826e-21
-6.46977e-21
-3.29865e-21
-3.83962e-21
-7.2536e-21
-7.01308e-21
-3.55239e-21
-1.53732e-21
1.24645e-21
6.20618e-22
-7.45572e-21
-7.15084e-21
-6.23974e-21
-8.74584e-21
-7.99068e-21
-2.95484e-21
-5.29905e-22
-1.80052e-21
1.60503e-21
-1.08312e-22
-1.86758e-21
-2.02606e-21
-1.48999e-21
1.58542e-21
1.02922e-21
-2.95642e-22
2.01735e-21
2.37234e-21
-7.68946e-25
-9.81101e-22
-1.85536e-20
-2.01379e-20
-1.61467e-20
-1.56315e-20
-1.42203e-20
-1.26599e-20
-1.35201e-20
-1.06391e-20
-8.90137e-21
-1.08239e-20
-9.32191e-21
-6.43664e-21
-6.08648e-21
-4.62137e-21
-6.68795e-21
-6.53689e-21
-5.92783e-21
-3.18902e-21
9.65815e-22
-1.56683e-23
-4.26155e-21
-6.81365e-21
-6.78298e-21
-6.26804e-21
-7.22629e-21
-5.15704e-21
-2.71637e-21
-1.94814e-22
2.04526e-21
-5.16469e-22
5.26104e-22
-1.0822e-21
8.26794e-23
7.19725e-22
-4.68811e-22
1.06045e-22
3.81379e-21
2.39305e-21
-4.97703e-22
4.85516e-22
-1.97098e-20
-1.88635e-20
-1.49466e-20
-1.59659e-20
-1.62641e-20
-1.34885e-20
-9.57983e-21
-1.00879e-20
-1.16946e-20
-1.29879e-20
-8.81574e-21
-7.37015e-21
-5.96056e-21
-3.57232e-21
-8.16835e-21
-6.70851e-21
-5.58586e-21
-2.88012e-21
-2.53979e-21
-3.14318e-22
-3.9363e-21
-2.87104e-21
-5.06666e-21
-5.60548e-21
-7.29318e-21
-4.2682e-21
-2.40399e-21
-5.32886e-23
7.52911e-22
1.72337e-21
1.61844e-21
-6.33925e-22
-1.50379e-21
-1.78442e-21
-2.42708e-21
1.75161e-21
3.09412e-21
9.22814e-22
1.27624e-22
1.35622e-21
-2.19935e-20
-2.09168e-20
-1.61688e-20
-1.62622e-20
-1.36701e-20
-1.23064e-20
-1.17158e-20
-1.06321e-20
-1.10078e-20
-1.2283e-20
-1.04294e-20
-7.61504e-21
-8.95317e-21
-5.80915e-21
-6.52201e-21
-7.33443e-21
-5.84697e-21
-2.06867e-21
4.95456e-23
-8.53626e-22
-3.46323e-21
-5.55811e-21
-4.62701e-21
-7.24242e-21
-6.87535e-21
-2.62178e-21
6.07511e-22
3.15748e-22
6.52794e-22
4.34758e-22
1.88923e-21
-1.37863e-22
-1.71044e-21
-1.49571e-21
-3.07031e-21
6.38724e-22
3.58616e-21
1.23293e-21
-7.78308e-22
7.60593e-22
-2.29851e-20
-2.07822e-20
-1.64197e-20
-1.27629e-20
-1.29956e-20
-1.11379e-20
-1.32719e-20
-1.1294e-20
-1.06363e-20
-1.27105e-20
-1.00067e-20
-7.45107e-21
-8.07549e-21
-6.06671e-21
-6.66253e-21
-5.82335e-21
-2.49066e-21
-1.85301e-21
-3.23024e-21
-2.93565e-21
-3.35697e-21
-5.98038e-21
-5.15969e-21
-6.38969e-21
-3.44316e-21
-2.88051e-21
-9.36616e-22
3.74358e-22
1.51257e-21
-5.52614e-22
-4.10099e-21
-9.43276e-22
5.32642e-22
6.54497e-22
-2.91665e-21
-1.90114e-21
1.76377e-21
1.85511e-21
6.16991e-22
1.58359e-21
-1.9901e-20
-1.79996e-20
-1.93589e-20
-1.42425e-20
-1.28362e-20
-1.34197e-20
-1.24002e-20
-1.21905e-20
-1.0804e-20
-1.05736e-20
-1.07847e-20
-9.28368e-21
-1.14528e-20
-4.44716e-21
-3.21208e-21
-5.28531e-21
-3.65602e-21
-2.91558e-21
-2.28625e-21
-2.83159e-21
-4.77058e-21
-5.591e-21
-7.96527e-21
-4.3688e-21
-1.80181e-22
-4.33432e-21
-2.6508e-21
1.73625e-21
6.17155e-23
-3.63414e-22
-3.78146e-21
-9.79547e-22
1.53382e-21
-2.66743e-22
-2.31929e-21
-2.74888e-21
-7.38089e-22
4.1899e-22
-8.52228e-23
1.54231e-22
-1.7622e-20
-1.72113e-20
-1.67006e-20
-1.33521e-20
-1.36347e-20
-1.44215e-20
-1.28027e-20
-1.17804e-20
-1.07098e-20
-1.06732e-20
-1.01174e-20
-9.49547e-21
-1.00042e-20
-7.61794e-21
-3.85959e-21
-3.52899e-21
-3.39368e-21
-2.21532e-21
-5.51844e-21
-2.4088e-21
-6.00011e-21
-4.23647e-21
-4.15628e-21
-4.52132e-21
-1.60595e-22
-3.2421e-21
-7.49155e-22
1.68701e-21
-2.01506e-21
-1.33708e-21
-2.92584e-21
-2.20887e-21
1.56967e-21
-1.51095e-21
-2.56336e-21
-1.57766e-21
1.06583e-21
1.4938e-21
7.36526e-25
9.42914e-23
-1.69853e-20
-1.66883e-20
-1.99111e-20
-1.44296e-20
-1.2054e-20
-1.38625e-20
-1.29375e-20
-1.03496e-20
-1.20131e-20
-1.45822e-20
-9.26743e-21
-9.04995e-21
-8.87603e-21
-8.34714e-21