/*--------------------------------*- C++ -*----------------------------------*\
| =========                 |                                                 |
| \\      /  F ield         | OpenFOAM: The Open Source CFD Toolbox           |
|  \\    /   O peration     | Version:  v2012                                 |
|   \\  /    A nd           | Website:  www.openfoam.com                      |
|    \\/     M anipulation  |                                                 |
\*---------------------------------------------------------------------------*/
FoamFile
{
    version     2.0;
    format      ascii;
    class       surfaceScalarField;
    location    "12";
    object      phi;
}
// * * * * * * * * * * * * * * * * * * * * * * * * * * * * * * * * * * * * * //

dimensions      [0 3 -1 0 0 0 0];
oriented        oriented;


internalField   nonuniform List<scalar> 
187200
(
1.875e-06
1.85483e-22
1.4941e-22
1.875e-06
1.87581e-22
1.9172e-22
1.875e-06
3.08965e-22
3.23428e-22
1.875e-06
2.1727e-22
1.90763e-22
1.875e-06
1.86069e-22
4.53926e-23
1.875e-06
2.91138e-22
2.86947e-22
1.875e-06
1.82594e-22
1.52773e-22
1.875e-06
5.74133e-23
8.00043e-23
1.875e-06
7.85277e-23
2.17767e-22
1.875e-06
1.55994e-22
1.79481e-22
1.875e-06
1.13837e-22
1.05652e-22
1.875e-06
1.94704e-22
1.36712e-22
1.875e-06
7.98114e-23
1.06425e-22
1.875e-06
-3.91573e-24
3.70129e-23
1.875e-06
6.98273e-23
8.52175e-23
1.875e-06
9.79996e-23
1.09427e-22
1.875e-06
1.23239e-22
1.42799e-22
1.875e-06
1.01127e-23
9.08073e-23
1.875e-06
1.00116e-22
-1.23786e-22
1.875e-06
7.93758e-23
-1.9164e-22
1.875e-06
2.76026e-23
-6.48515e-23
1.875e-06
-9.98427e-23
-2.52083e-23
1.875e-06
2.25333e-23
5.03022e-23
1.875e-06
1.97762e-22
7.23348e-23
1.875e-06
1.04682e-22
-1.60293e-23
1.875e-06
1.13292e-23
2.03083e-23
1.875e-06
5.25209e-24
1.0761e-22
1.875e-06
6.62714e-23
1.1238e-22
1.875e-06
7.86034e-24
1.08471e-22
1.875e-06
-1.15107e-22
1.09917e-22
1.875e-06
-1.81156e-22
2.18909e-22
1.875e-06
-2.96975e-23
4.90758e-23
1.875e-06
7.93959e-23
2.33088e-23
1.875e-06
-2.85832e-23
2.37154e-23
1.875e-06
-4.31192e-23
-5.97357e-23
1.875e-06
-1.02259e-22
-1.42973e-22
1.875e-06
-1.68257e-22
-2.07147e-22
1.875e-06
-6.01837e-23
-4.19826e-23
1.875e-06
3.40103e-23
7.19212e-23
4.50106e-23
2.89783e-23
1.875e-06
1.15548e-22
1.8775e-22
1.875e-06
1.23888e-22
3.53156e-22
1.875e-06
2.13254e-22
4.26586e-22
1.875e-06
1.91202e-22
4.41871e-22
1.875e-06
1.52908e-22
2.98482e-22
1.875e-06
1.50596e-22
2.65929e-22
1.875e-06
1.64565e-22
3.43411e-22
1.875e-06
1.87297e-22
2.67169e-22
1.875e-06
9.51259e-23
3.16186e-22
1.875e-06
2.54117e-23
2.84442e-22
1.875e-06
1.52161e-22
2.85004e-22
1.875e-06
1.08312e-22
1.77249e-22
1.875e-06
7.31389e-23
2.49947e-22
1.875e-06
5.36892e-23
2.47828e-22
1.875e-06
-9.28854e-24
2.45852e-22
1.875e-06
-6.49598e-23
6.82773e-23
1.875e-06
1.1325e-22
1.71163e-23
1.875e-06
1.93515e-22
1.9669e-22
1.875e-06
1.14884e-22
-6.13079e-24
1.875e-06
8.65111e-23
-9.44273e-23
1.875e-06
-4.46373e-23
4.59608e-25
1.875e-06
-8.19639e-23
8.14194e-23
1.875e-06
2.51649e-23
2.87029e-23
1.875e-06
5.91785e-23
1.78673e-23
1.875e-06
-6.68507e-23
-4.47826e-24
1.875e-06
3.08253e-24
5.92485e-23
1.875e-06
9.4791e-23
6.28237e-23
1.875e-06
-2.7997e-25
1.44739e-22
1.875e-06
-3.388e-23
7.96833e-23
1.875e-06
8.89498e-24
1.83983e-22
1.875e-06
-3.36279e-23
2.39284e-22
1.875e-06
-3.85186e-23
1.57799e-22
1.875e-06
-6.4929e-23
-1.8873e-23
1.875e-06
-1.44559e-22
-1.94508e-23
1.875e-06
-1.17949e-22
-2.61584e-23
1.875e-06
-2.46963e-22
-1.76082e-22
1.875e-06
-5.75939e-23
-9.64908e-23
1.875e-06
5.74678e-23
-1.78804e-23
1.875e-06
7.64181e-23
5.9906e-23
6.12874e-23
2.69804e-23
1.875e-06
1.34154e-22
2.29686e-22
1.875e-06
2.54885e-22
4.00479e-22
1.875e-06
1.13798e-22
3.12644e-22
1.875e-06
2.1541e-22
4.99324e-22
1.875e-06
1.92742e-22
4.65437e-22
1.875e-06
1.74849e-22
3.40769e-22
1.875e-06
1.25085e-22
4.04938e-22
1.875e-06
1.16451e-22
4.18951e-22
1.875e-06
1.39499e-22
4.41854e-22
1.875e-06
9.99263e-23
3.34641e-22
1.875e-06
7.70296e-23
2.70151e-22
1.875e-06
1.05191e-23
1.80792e-22
1.875e-06
1.03879e-22
1.81111e-22
1.875e-06
3.34972e-23
1.95809e-22
1.875e-06
6.3499e-23
2.95872e-22
1.875e-06
1.15474e-22
2.6928e-22
1.875e-06
1.89193e-23
1.07047e-22
1.875e-06
7.30172e-23
6.13051e-23
1.875e-06
7.05515e-23
-1.23148e-22
1.875e-06
-7.03944e-23
-9.19069e-23
1.875e-06
-3.60462e-23
8.65491e-23
1.875e-06
-5.29142e-25
2.1493e-22
1.875e-06
8.01502e-23
2.60025e-23
1.875e-06
6.96649e-23
1.9155e-23
1.875e-06
4.96744e-23
1.23072e-22
1.875e-06
3.2199e-23
1.19354e-22
1.875e-06
-2.65874e-23
5.12187e-23
1.875e-06
-1.04617e-22
1.4564e-22
1.875e-06
1.10409e-24
1.95303e-22
1.875e-06
6.05769e-24
1.80635e-22
1.875e-06
-2.05941e-23
2.42094e-22
1.875e-06
-6.09815e-23
1.60243e-22
1.875e-06
-2.77529e-23
-1.87001e-23
1.875e-06
-4.48386e-23
3.21848e-23
1.875e-06
-1.84727e-22
3.60972e-23
1.875e-06
4.61455e-24
-8.28184e-23
1.875e-06
-7.54646e-24
-8.51793e-23
1.875e-06
6.77013e-23
-1.51178e-22
1.875e-06
8.38956e-23
-6.26613e-23
6.94166e-23
-4.50826e-23
1.875e-06
2.52609e-22
2.23075e-22
1.875e-06
9.32141e-23
4.54747e-22
1.875e-06
1.93074e-22
4.84765e-22
1.875e-06
6.88339e-23
4.72909e-22
1.875e-06
1.35329e-22
4.73378e-22
1.875e-06
1.32354e-22
4.30669e-22
1.875e-06
1.23615e-22
4.10317e-22
1.875e-06
9.20243e-23
4.51605e-22
1.875e-06
9.42635e-23
4.45693e-22
1.875e-06
1.64074e-22
3.35569e-22
1.875e-06
1.03976e-22
2.5522e-22
1.875e-06
4.17303e-23
2.94272e-22
1.875e-06
-2.00519e-25
1.51143e-22
1.875e-06
2.14112e-23
2.88153e-22
1.875e-06
1.3575e-22
2.88101e-22
1.875e-06
1.71494e-22
1.99577e-22
1.875e-06
4.40393e-23
1.39565e-22
1.875e-06
-8.1506e-23
3.23592e-23
1.875e-06
-1.14158e-22
-4.40237e-24
1.875e-06
-5.19725e-23
-1.24156e-23
1.875e-06
-1.22201e-23
1.69773e-22
1.875e-06
9.46137e-23
1.9382e-22
1.875e-06
1.69462e-22
5.76277e-23
1.875e-06
5.02311e-23
3.92887e-23
1.875e-06
4.28556e-23
1.18404e-22
1.875e-06
-1.58892e-23
8.25939e-23
1.875e-06
-3.83596e-23
5.08746e-23
1.875e-06
2.67615e-23
4.92115e-23
1.875e-06
2.41875e-23
1.86777e-22
1.875e-06
-4.15368e-23
2.38144e-22
1.875e-06
-3.74027e-23
2.31718e-22
1.875e-06
-1.59724e-23
1.84067e-22
1.875e-06
-1.21499e-22
-8.49161e-24
1.875e-06
-3.92425e-23
3.20182e-23
1.875e-06
5.08403e-23
3.69776e-23
1.875e-06
-1.25508e-23
-6.41836e-23
1.875e-06
-3.13961e-23
-8.83411e-24
1.875e-06
5.92061e-23
-2.71379e-23
1.875e-06
8.97479e-23
-9.02797e-23
2.36524e-23
-5.88702e-23
1.875e-06
-3.98054e-23
1.65873e-22
1.875e-06
1.70051e-22
5.62804e-22
1.875e-06
3.30784e-23
4.84175e-22
1.875e-06
1.22499e-22
5.15429e-22
1.875e-06
7.90315e-23
5.86508e-22
1.875e-06
2.11093e-23
4.48983e-22
1.875e-06
6.80308e-23
4.25305e-22
1.875e-06
2.33608e-22
4.44992e-22
1.875e-06
1.86303e-22
4.19141e-22
1.875e-06
9.62076e-23
4.04067e-22
1.875e-06
1.0448e-22
3.44693e-22
1.875e-06
6.11535e-23
2.99345e-22
1.875e-06
4.67599e-24
2.03105e-22
1.875e-06
9.96867e-23
3.44066e-22
1.875e-06
1.58417e-23
2.21835e-22
1.875e-06
-7.66863e-23
5.74781e-23
1.875e-06
-2.40773e-23
1.6435e-22
1.875e-06
-1.0049e-22
8.45115e-23
1.875e-06
-1.38288e-22
1.11892e-22
1.875e-06
-1.12103e-22
7.56875e-23
1.875e-06
6.4775e-23
1.77923e-22
1.875e-06
1.17779e-22
5.76367e-23
1.875e-06
3.50825e-23
-1.35511e-23
1.875e-06
8.94876e-23
8.44922e-23
1.875e-06
5.96308e-23
1.59875e-22
1.875e-06
3.16029e-23
1.19429e-22
1.875e-06
7.40556e-23
1.10629e-22
1.875e-06
-1.21034e-23
1.05474e-22
1.875e-06
-5.7618e-23
9.78045e-23
1.875e-06
4.89957e-23
1.76065e-22
1.875e-06
1.51072e-22
1.78262e-22
1.875e-06
8.73415e-23
2.27993e-22
1.875e-06
-1.8133e-23
-3.31323e-23
1.875e-06
-6.77869e-23
-7.06159e-23
1.875e-06
-6.77961e-23
-3.06512e-23
1.875e-06
-7.0057e-23
-5.55187e-23
1.875e-06
3.01576e-23
7.17477e-24
1.875e-06
6.16355e-23
6.16054e-24
1.875e-06
3.70187e-23
-7.41177e-23
4.94077e-23
-6.65266e-23
1.875e-06
5.22387e-23
3.2309e-22
1.875e-06
1.36118e-22
5.09294e-22
1.875e-06
2.49422e-23
5.41569e-22
1.875e-06
3.12328e-23
5.40676e-22
1.875e-06
8.35097e-23
5.95532e-22
1.875e-06
8.02281e-23
5.41996e-22
1.875e-06
9.32697e-23
4.60137e-22
1.875e-06
1.31105e-22
4.60804e-22
1.875e-06
1.46936e-22
4.71991e-22
1.875e-06
1.01785e-22
4.02029e-22
1.875e-06
1.11988e-22
3.99695e-22
1.875e-06
6.93428e-23
4.07536e-22
1.875e-06
7.71979e-23
2.16504e-22
1.875e-06
7.29368e-23
2.22199e-22
1.875e-06
4.40849e-23
2.60503e-22
1.875e-06
-1.35734e-23
1.86342e-22
1.875e-06
-1.4244e-22
1.63734e-22
1.875e-06
-1.15785e-22
1.17787e-22
1.875e-06
-1.54144e-22
1.61414e-22
1.875e-06
-9.89806e-23
1.31516e-22
1.875e-06
-5.41387e-24
1.60598e-22
1.875e-06
1.83556e-22
8.83136e-23
1.875e-06
2.0632e-22
1.1938e-23
1.875e-06
9.33418e-23
5.20733e-23
1.875e-06
5.45402e-23
1.20233e-22
1.875e-06
1.25196e-22
1.3427e-22
1.875e-06
6.16747e-23
5.20963e-23
1.875e-06
-1.14775e-22
1.04669e-22
1.875e-06
-1.29325e-22
1.65098e-22
1.875e-06
-3.37392e-23
1.2918e-22
1.875e-06
1.20664e-22
1.93763e-22
1.875e-06
1.38458e-22
4.59843e-23
1.875e-06
3.85302e-24
-1.47277e-22
1.875e-06
2.7641e-23
-6.59277e-23
1.875e-06
-2.05445e-23
-2.92209e-23
1.875e-06
4.31605e-24
-9.71889e-23
1.875e-06
-1.69112e-23
-3.46916e-23
1.875e-06
-6.78193e-24
-6.15312e-23
1.875e-06
1.15698e-22
-1.38415e-22
1.14799e-22
-9.44213e-23
1.875e-06
-1.883e-23
3.91181e-22
1.875e-06
3.63763e-23
5.34655e-22
1.875e-06
1.81614e-22
6.31545e-22
1.875e-06
1.17004e-22
6.40965e-22
1.875e-06
1.34321e-22
6.424e-22
1.875e-06
2.46372e-23
5.26124e-22
1.875e-06
1.01398e-22
5.01314e-22
1.875e-06
2.57623e-22
4.22408e-22
1.875e-06
1.5064e-22
5.24821e-22
1.875e-06
8.09772e-23
4.96346e-22
1.875e-06
6.14376e-23
4.13366e-22
1.875e-06
8.45652e-23
3.56875e-22
1.875e-06
1.26346e-22
2.74175e-22
1.875e-06
5.14073e-23
2.35895e-22
1.875e-06
3.92767e-23
2.66646e-22
1.875e-06
-1.12828e-23
2.03179e-22
1.875e-06
1.86982e-23
1.4387e-22
1.875e-06
2.6794e-23
1.41568e-22
1.875e-06
-7.69078e-23
1.99267e-22
1.875e-06
-1.16086e-22
2.16769e-22
1.875e-06
3.95338e-23
1.98958e-22
1.875e-06
7.4678e-23
2.48488e-23
1.875e-06
4.18126e-23
-7.35071e-24
1.875e-06
-1.30907e-23
1.44665e-22
1.875e-06
9.76199e-24
1.43816e-22
1.875e-06
3.73555e-23
3.17994e-23
1.875e-06
-4.13428e-23
2.34531e-23
1.875e-06
-1.1308e-23
1.77704e-22
1.875e-06
-5.92925e-23
1.78366e-22
1.875e-06
-2.10243e-23
1.2439e-22
1.875e-06
3.13119e-23
9.56651e-23
1.875e-06
1.76314e-23
-3.23476e-23
1.875e-06
1.86872e-22
3.63498e-23
1.875e-06
1.50315e-22
-4.57668e-24
1.875e-06
1.70207e-23
3.48708e-23
1.875e-06
3.85165e-23
-1.69658e-22
1.875e-06
-3.85366e-23
-1.38279e-22
1.875e-06
2.65083e-23
-9.25481e-23
1.875e-06
-3.31583e-23
-1.86594e-22
-2.51466e-23
-1.76733e-22
1.875e-06
2.26032e-22
3.42483e-22
1.875e-06
1.15892e-22
5.3517e-22
1.875e-06
7.46787e-23
6.12548e-22
1.875e-06
1.70496e-22
7.80229e-22
1.875e-06
8.79491e-23
7.3285e-22
1.875e-06
1.55383e-22
5.79019e-22
1.875e-06
1.81094e-22
6.02005e-22
1.875e-06
-2.12081e-23
4.70016e-22
1.875e-06
4.54043e-23
5.5387e-22
1.875e-06
1.39553e-22
4.09756e-22
1.875e-06
3.0663e-23
3.38403e-22
1.875e-06
5.57262e-23
4.00877e-22
1.875e-06
-5.06995e-23
2.58041e-22
1.875e-06
1.00713e-22
1.92696e-22
1.875e-06
5.42541e-23
2.6985e-22
1.875e-06
5.17813e-23
2.13983e-22
1.875e-06
5.54545e-23
9.19606e-23
1.875e-06
-1.50398e-23
1.30431e-22
1.875e-06
9.79353e-23
2.37299e-22
1.875e-06
7.58144e-23
2.61893e-22
1.875e-06
-1.48598e-24
1.91212e-22
1.875e-06
6.22187e-23
1.63872e-22
1.875e-06
-4.83987e-24
1.07465e-22
1.875e-06
2.49622e-23
1.76993e-22
1.875e-06
2.22874e-23
1.23377e-22
1.875e-06
-5.45534e-23
-1.07472e-23
1.875e-06
4.01465e-23
5.21065e-23
1.875e-06
6.1598e-24
1.8193e-22
1.875e-06
-3.89869e-23
2.21883e-22
1.875e-06
-3.98913e-23
1.50055e-22
1.875e-06
-1.52085e-22
9.13971e-23
1.875e-06
-5.17768e-23
9.21836e-24
1.875e-06
2.32079e-22
-4.53574e-24
1.875e-06
1.64888e-22
8.12298e-23
1.875e-06
1.28905e-22
-1.01289e-22
1.875e-06
-2.14827e-23
-2.27435e-22
1.875e-06
7.21663e-23
-2.56117e-22
1.875e-06
-1.16546e-22
-1.70177e-22
1.875e-06
-1.19027e-22
-1.08847e-22
-8.02865e-23
-9.81833e-23
1.875e-06
-2.03283e-22
1.82993e-22
1.875e-06
-6.15082e-24
5.47432e-22
1.875e-06
1.45831e-22
7.7991e-22
1.875e-06
7.61891e-23
7.68584e-22
1.875e-06
5.95441e-23
7.20848e-22
1.875e-06
1.04609e-22
6.84531e-22
1.875e-06
8.98718e-23
6.69511e-22
1.875e-06
1.07e-22
5.69032e-22
1.875e-06
4.02073e-23
5.2226e-22
1.875e-06
-2.1653e-24
4.93319e-22
1.875e-06
3.82216e-23
3.66192e-22
1.875e-06
-6.97847e-23
2.91541e-22
1.875e-06
9.57022e-25
3.34336e-22
1.875e-06
-3.98793e-25
2.29545e-22
1.875e-06
6.69909e-23
2.98481e-22
1.875e-06
9.90978e-23
1.87066e-22
1.875e-06
7.07447e-23
1.68024e-22
1.875e-06
1.09333e-22
2.79581e-22
1.875e-06
5.00791e-23
2.34122e-22
1.875e-06
1.13711e-23
2.19318e-22
1.875e-06
-6.79469e-24
2.02523e-22
1.875e-06
2.38667e-23
1.36945e-22
1.875e-06
4.80682e-23
1.21849e-22
1.875e-06
3.1032e-23
2.78247e-22
1.875e-06
4.02953e-23
1.76679e-22
1.875e-06
5.3036e-24
7.73493e-23
1.875e-06
-6.69965e-23
2.19795e-23
1.875e-06
-4.80398e-23
1.12264e-22
1.875e-06
1.2382e-22
1.15063e-22
1.875e-06
-9.32461e-24
1.25749e-22
1.875e-06
-8.67869e-23
1.6471e-22
1.875e-06
-7.49933e-23
8.06141e-23
1.875e-06
-4.97565e-23
4.52622e-24
1.875e-06
1.75438e-23
-4.8549e-23
1.875e-06
1.23047e-22
-1.00899e-22
1.875e-06
1.8096e-22
-2.68166e-22
1.875e-06
-1.10481e-23
-3.82195e-22
1.875e-06
-8.52188e-23
-1.99299e-22
1.875e-06
-1.49295e-22
-1.24227e-22
-9.04926e-23
-1.07727e-22
1.875e-06
-3.42709e-23
4.70541e-22
1.875e-06
4.94871e-23
6.12004e-22
1.875e-06
7.01591e-23
7.45201e-22
1.875e-06
1.80565e-22
9.07905e-22
1.875e-06
8.51434e-23
8.20363e-22
1.875e-06
1.01804e-22
7.33264e-22
1.875e-06
1.78028e-22
7.73848e-22
1.875e-06
1.08861e-22
6.33706e-22
1.875e-06
7.83473e-23
4.92398e-22
1.875e-06
1.30729e-22
5.09224e-22
1.875e-06
1.23759e-23
3.78167e-22
1.875e-06
-6.98759e-23
3.60545e-22
1.875e-06
9.9997e-25
3.68921e-22
1.875e-06
-3.44472e-23
2.59415e-22
1.875e-06
-1.42247e-23
3.06558e-22
1.875e-06
3.27491e-23
2.04204e-22
1.875e-06
7.22181e-23
1.76702e-22
1.875e-06
2.17808e-23
2.41177e-22
1.875e-06
-6.78488e-23
1.60174e-22
1.875e-06
1.04826e-22
2.00114e-22
1.875e-06
2.00737e-22
3.19415e-22
1.875e-06
1.27021e-22
1.70432e-22
1.875e-06
-3.4202e-23
1.21453e-22
1.875e-06
8.27188e-24
2.82207e-22
1.875e-06
7.08243e-23
2.28509e-22
1.875e-06
2.65542e-23
1.33336e-22
1.875e-06
-8.56203e-23
7.73245e-23
1.875e-06
-2.60252e-23
5.59968e-23
1.875e-06
-1.96371e-23
4.34384e-23
1.875e-06
-4.00394e-23
8.04836e-23
1.875e-06
2.45975e-23
7.40243e-23
1.875e-06
-7.64383e-23
5.04911e-23
1.875e-06
-1.90174e-22
3.22547e-23
1.875e-06
-1.47992e-22
-6.96498e-23
1.875e-06
4.53939e-23
-1.7068e-22
1.875e-06
2.41782e-22
-3.30799e-22
1.875e-06
6.4499e-23
-4.56075e-22
1.875e-06
-1.06772e-22
-2.35689e-22
1.875e-06
-1.1116e-22
-1.3567e-22
-9.98756e-23
-1.26695e-22
1.875e-06
6.25691e-23
5.51307e-22
1.875e-06
1.15136e-22
7.15548e-22
1.875e-06
1.24629e-22
8.90941e-22
1.875e-06
5.86404e-23
8.1911e-22
1.875e-06
1.56422e-22
8.56985e-22
1.875e-06
1.87562e-22
7.29341e-22
1.875e-06
3.43685e-23
7.38227e-22
1.875e-06
4.63096e-23
7.12268e-22
1.875e-06
4.37651e-23
4.80802e-22
1.875e-06
6.18667e-23
3.82476e-22
1.875e-06
1.16972e-22
4.14465e-22
1.875e-06
4.01857e-23
4.68621e-22
1.875e-06
9.47986e-23
3.34466e-22
1.875e-06
8.05074e-23
3.31897e-22
1.875e-06
-9.06715e-24
3.73596e-22
1.875e-06
-5.58039e-23
3.24288e-22
1.875e-06
-4.27974e-24
2.37266e-22
1.875e-06
3.22991e-23
2.58307e-22
1.875e-06
1.05966e-22
2.04975e-22
1.875e-06
5.75335e-23
1.47843e-22
1.875e-06
7.37484e-23
2.42648e-22
1.875e-06
-9.18644e-24
1.15732e-22
1.875e-06
2.6604e-24
1.76717e-22
1.875e-06
1.95036e-23
2.87841e-22
1.875e-06
1.48536e-23
2.64603e-22
1.875e-06
-1.12033e-22
1.18809e-22
1.875e-06
-1.11763e-22
1.1992e-22
1.875e-06
3.22731e-23
7.23139e-23
1.875e-06
7.58185e-24
-6.05205e-23
1.875e-06
-4.77904e-23
1.48611e-23
1.875e-06
-5.03571e-23
5.91523e-23
1.875e-06
1.99081e-24
5.26623e-23
1.875e-06
-8.35715e-23
-4.03731e-23
1.875e-06
-1.69859e-22
-1.02077e-22
1.875e-06
3.09011e-23
-1.49469e-22
1.875e-06
-7.18931e-23
-3.41507e-22
1.875e-06
-2.13188e-23
-3.95294e-22
1.875e-06
-7.99143e-23
-2.53831e-22
1.875e-06
-6.35e-23
-3.89979e-23
-1.30239e-23
1.03945e-23
1.875e-06
1.46418e-22
5.88068e-22
1.875e-06
1.50298e-22
7.42973e-22
1.875e-06
1.0062e-22
8.38235e-22
1.875e-06
7.31622e-23
8.64998e-22
1.875e-06
7.72087e-23
8.13353e-22
1.875e-06
6.02355e-23
7.35075e-22
1.875e-06
9.17123e-23
7.78997e-22
1.875e-06
7.04244e-23
6.29535e-22
1.875e-06
1.54947e-22
5.03193e-22
1.875e-06
7.94679e-23
4.62335e-22
1.875e-06
6.20506e-23
4.03139e-22
1.875e-06
4.27183e-23
4.60397e-22
1.875e-06
3.46902e-23
3.90671e-22
1.875e-06
9.6955e-23
2.9516e-22
1.875e-06
4.01977e-23
4.01473e-22
1.875e-06
-2.60619e-23
3.69902e-22
1.875e-06
-7.90985e-23
3.19842e-22
1.875e-06
-3.09373e-23
3.18995e-22
1.875e-06
1.0193e-22
2.19746e-22
1.875e-06
1.60261e-22
2.23853e-22
1.875e-06
3.7876e-23
1.74682e-22
1.875e-06
-9.12697e-23
1.58043e-22
1.875e-06
-5.45345e-23
1.7207e-22
1.875e-06
4.91334e-24
1.84083e-22
1.875e-06
-1.42522e-22
1.62571e-22
1.875e-06
-7.47978e-23
2.34671e-22
1.875e-06
-2.41266e-23
2.20396e-22
1.875e-06
5.42557e-23
1.05228e-22
1.875e-06
9.62406e-25
-6.87167e-23
1.875e-06
3.32382e-23
2.1854e-23
1.875e-06
4.666e-23
-2.18237e-23
1.875e-06
-1.07583e-22
-5.44456e-23
1.875e-06
-1.73184e-22
-1.94064e-22
1.875e-06
8.71354e-24
2.62617e-23
1.875e-06
-7.24885e-23
-8.54463e-23
1.875e-06
-3.59875e-23
-2.80843e-22
1.875e-06
7.20572e-23
-3.50168e-22
1.875e-06
2.57463e-22
-2.39481e-22
1.875e-06
1.16788e-22
-2.75434e-23
-2.33383e-23
-5.45218e-23
1.875e-06
1.88113e-22
5.45937e-22
1.875e-06
1.92035e-22
7.30544e-22
1.875e-06
6.85768e-23
7.6675e-22
1.875e-06
7.34989e-23
8.92931e-22
1.875e-06
-3.59195e-24
8.90776e-22
1.875e-06
4.52048e-23
7.66873e-22
1.875e-06
6.19246e-23
6.57748e-22
1.875e-06
2.52195e-23
6.14209e-22
1.875e-06
5.25123e-23
5.44234e-22
1.875e-06
1.53157e-22
5.27737e-22
1.875e-06
3.38528e-23
3.55584e-22
1.875e-06
4.06208e-23
4.91724e-22
1.875e-06
9.98008e-23
4.24447e-22
1.875e-06
1.01846e-22
2.55327e-22
1.875e-06
2.2688e-23
4.83561e-22
1.875e-06
-2.26791e-23
4.35145e-22
1.875e-06
-8.51363e-23
3.27724e-22
1.875e-06
-9.76345e-23
3.16988e-22
1.875e-06
-1.3749e-23
2.39828e-22
1.875e-06
9.5957e-23
1.71513e-22
1.875e-06
1.10046e-22
2.12263e-22
1.875e-06
7.91361e-23
1.59192e-22
1.875e-06
5.07445e-23
1.6513e-22
1.875e-06
8.57181e-24
1.47928e-22
1.875e-06
-8.52832e-23
2.72641e-22
1.875e-06
-6.6797e-23
1.9235e-22
1.875e-06
-2.02507e-23
1.51206e-22
1.875e-06
-6.2644e-23
-4.17732e-23
1.875e-06
1.56185e-23
-5.67407e-23
1.875e-06
2.24911e-23
-5.59648e-23
1.875e-06
-2.36066e-23
-1.64897e-22
1.875e-06
-3.95223e-23
-7.65552e-23
1.875e-06
1.76675e-23
-6.42766e-24
1.875e-06
-4.48907e-23
7.25095e-23
1.875e-06
-4.90805e-23
-8.53848e-24
1.875e-06
-5.14642e-24
-2.73469e-22
1.875e-06
9.26735e-23
-2.57654e-22
1.875e-06
2.96245e-23
-2.31032e-22
1.875e-06
1.92418e-22
7.28499e-24
1.0742e-22
3.26797e-23
1.875e-06
-1.33641e-22
4.58991e-22
1.875e-06
7.6779e-23
7.1532e-22
1.875e-06
2.12681e-22
8.23471e-22
1.875e-06
-2.17267e-23
8.79523e-22
1.875e-06
-8.45937e-23
8.24584e-22
1.875e-06
-9.23572e-23
6.86905e-22
1.875e-06
7.58921e-23
7.02505e-22
1.875e-06
1.67483e-22
6.88902e-22
1.875e-06
4.39409e-23
5.25124e-22
1.875e-06
-1.24073e-24
4.51832e-22
1.875e-06
9.60395e-23
4.86777e-22
1.875e-06
1.79629e-22
5.41222e-22
1.875e-06
2.26232e-23
4.97091e-22
1.875e-06
-1.50108e-22
2.90564e-22
1.875e-06
-1.25996e-22
4.26986e-22
1.875e-06
-6.83463e-23
4.99579e-22
1.875e-06
-1.21288e-23
3.96733e-22
1.875e-06
1.26725e-22
3.18821e-22
1.875e-06
7.82695e-23
1.96646e-22
1.875e-06
1.72597e-23
1.17695e-22
1.875e-06
1.33498e-22
1.31576e-22
1.875e-06
5.01405e-24
1.77688e-22
1.875e-06
-3.61548e-23
1.45236e-22
1.875e-06
-8.33561e-23
1.46126e-22
1.875e-06
-1.70447e-22
3.29215e-22
1.875e-06
-1.94472e-23
1.46071e-22
1.875e-06
1.3388e-22
4.12168e-23
1.875e-06
3.15422e-23
-4.09598e-23
1.875e-06
-1.98018e-23
-1.18664e-22
1.875e-06
7.78321e-23
-6.20197e-23
1.875e-06
8.25596e-23
-1.60566e-22
1.875e-06
-8.03138e-25
-4.8358e-23
1.875e-06
-1.00322e-22
-2.5868e-23
1.875e-06
-8.80379e-23
2.23948e-23
1.875e-06
-7.04012e-23
2.25583e-23
1.875e-06
7.90703e-23
-1.59719e-22
1.875e-06
1.76385e-22
-1.94344e-22
1.875e-06
2.21177e-22
-1.02518e-22
1.875e-06
7.52929e-23
-1.23314e-22
8.00934e-23
-1.61736e-22
1.875e-06
-4.09079e-23
5.77448e-22
1.875e-06
-2.18727e-22
7.09094e-22
1.875e-06
-3.02533e-23
7.26503e-22
1.875e-06
7.40936e-23
8.50131e-22
1.875e-06
1.04034e-22
8.40102e-22
1.875e-06
-1.17399e-23
7.37733e-22
1.875e-06
-1.1121e-23
7.07081e-22
1.875e-06
5.59807e-23
6.0652e-22
1.875e-06
3.50743e-24
5.1386e-22
1.875e-06
-1.1889e-22
5.38481e-22
1.875e-06
2.15956e-23
4.92611e-22
1.875e-06
9.22069e-23
4.70753e-22
1.875e-06
6.22624e-24
4.7542e-22
1.875e-06
-4.25869e-23
4.99037e-22
1.875e-06
-6.46947e-25
4.85674e-22
1.875e-06
-1.86922e-23
4.49108e-22
1.875e-06
-2.76576e-23
2.36128e-22
1.875e-06
1.69601e-23
1.89986e-22
1.875e-06
1.40271e-23
2.36467e-22
1.875e-06
1.27422e-22
2.0754e-22
1.875e-06
6.60266e-23
6.32459e-23
1.875e-06
6.69506e-23
2.48693e-22
1.875e-06
-2.90295e-23
2.441e-22
1.875e-06
-2.04415e-22
2.09823e-22
1.875e-06
-8.90122e-23
3.17887e-22
1.875e-06
2.3904e-23
1.70518e-22
1.875e-06
4.79243e-24
-7.85645e-23
1.875e-06
9.22459e-24
-9.15174e-23
1.875e-06
-9.82303e-23
-1.56932e-22
1.875e-06
1.00299e-24
-1.01483e-22
1.875e-06
2.07637e-22
-1.34695e-24
1.875e-06
1.90878e-22
-1.7057e-23
1.875e-06
-2.35082e-23
-8.00243e-23
1.875e-06
-5.04257e-23
-8.95346e-24
1.875e-06
-1.09317e-22
7.61264e-23
1.875e-06
-4.34841e-23
-1.21106e-22
1.875e-06
9.15164e-23
-1.5976e-22
1.875e-06
1.25117e-22
-1.47062e-22
1.875e-06
1.63125e-22
-2.1341e-22
1.06865e-22
-2.29333e-22
1.875e-06
-7.10384e-23
5.34925e-22
1.875e-06
-1.16317e-22
7.5492e-22
1.875e-06
-8.77223e-23
8.53228e-22
1.875e-06
-2.85985e-23
8.17941e-22
1.875e-06
-4.62832e-23
7.8077e-22
1.875e-06
3.33866e-23
8.38341e-22
1.875e-06
2.42264e-23
7.25681e-22
1.875e-06
3.643e-23
6.25363e-22
1.875e-06
-3.46796e-24
5.81393e-22
1.875e-06
6.47023e-24
6.00904e-22
1.875e-06
-2.90192e-23
5.57098e-22
1.875e-06
1.43711e-23
5.07309e-22
1.875e-06
-1.1588e-22
6.21063e-22
1.875e-06
1.47636e-23
5.19901e-22
1.875e-06
-1.95305e-23
3.50575e-22
1.875e-06
-4.60061e-23
3.32136e-22
1.875e-06
5.28953e-23
2.6909e-22
1.875e-06
-3.64537e-23
1.87255e-22
1.875e-06
5.27592e-23
2.10917e-22
1.875e-06
9.95218e-23
1.29938e-22
1.875e-06
7.87361e-23
1.32386e-22
1.875e-06
4.36577e-23
2.50243e-22
1.875e-06
-1.68215e-23
3.48044e-22
1.875e-06
-1.23566e-22
2.45239e-22
1.875e-06
-5.68998e-23
1.89393e-22
1.875e-06
-6.97093e-23
1.77412e-22
1.875e-06
-7.49307e-23
1.95712e-24
1.875e-06
-2.12192e-22
-1.58372e-22
1.875e-06
-6.17641e-23
2.8337e-23
1.875e-06
8.40614e-23
-3.95245e-23
1.875e-06
7.64894e-23
-2.20571e-22
1.875e-06
1.18261e-22
-1.63447e-22
1.875e-06
1.06044e-22
-6.68642e-23
1.875e-06
6.26611e-23
-3.86957e-23
1.875e-06
3.34092e-23
1.75292e-22
1.875e-06
-4.65876e-23
-1.70437e-23
1.875e-06
-2.96447e-23
-8.46273e-23
1.875e-06
5.88808e-23
-1.40883e-22
1.875e-06
9.45312e-23
-2.77413e-22
1.12748e-22
-2.25729e-22
1.875e-06
-8.86875e-23
4.71385e-22
1.875e-06
-6.86113e-23
7.68901e-22
1.875e-06
-1.80079e-23
8.50535e-22
1.875e-06
-5.02375e-23
8.60931e-22
1.875e-06
-2.94295e-23
8.7233e-22
1.875e-06
6.13126e-24
8.63015e-22
1.875e-06
4.50916e-23
7.43901e-22
1.875e-06
-8.12422e-23
5.79766e-22
1.875e-06
-2.91563e-23
6.23778e-22
1.875e-06
3.27481e-24
6.46066e-22
1.875e-06
1.49581e-23
5.905e-22
1.875e-06
-5.35333e-23
5.27733e-22
1.875e-06
-1.34357e-23
7.09519e-22
1.875e-06
7.57522e-24
6.04152e-22
1.875e-06
4.67902e-23
3.82558e-22
1.875e-06
-5.75969e-24
3.02206e-22
1.875e-06
-1.06076e-23
2.10893e-22
1.875e-06
2.79766e-23
1.69645e-22
1.875e-06
-1.03067e-23
2.46255e-22
1.875e-06
1.4053e-22
1.04394e-22
1.875e-06
5.78088e-23
1.66565e-22
1.875e-06
5.27393e-23
2.03193e-22
1.875e-06
-8.51444e-23
2.17814e-22
1.875e-06
-4.62887e-23
2.54683e-22
1.875e-06
-1.12291e-22
1.55779e-22
1.875e-06
-2.38391e-23
1.92405e-22
1.875e-06
-7.27426e-23
2.00064e-23
1.875e-06
-1.16881e-22
3.68165e-23
1.875e-06
-4.4309e-23
7.44793e-23
1.875e-06
-7.76613e-23
-7.44276e-23
1.875e-06
-8.64636e-23
-2.10644e-22
1.875e-06
5.89867e-23
-1.53632e-22
1.875e-06
1.06419e-22
-1.51393e-22
1.875e-06
9.17839e-23
-6.52565e-23
1.875e-06
1.66514e-22
1.106e-22
1.875e-06
1.09794e-22
4.34724e-23
1.875e-06
3.21909e-23
-6.90814e-23
1.875e-06
-9.79917e-23
-1.94306e-22
1.875e-06
-2.03542e-22
-3.16334e-22
-5.29849e-23
-2.50538e-22
1.875e-06
-7.73272e-23
5.33475e-22
1.875e-06
-1.65989e-22
7.88722e-22
1.875e-06
-1.93649e-22
9.03684e-22
1.875e-06
8.31418e-24
9.39362e-22
1.875e-06
7.7632e-23
8.91055e-22
1.875e-06
-2.12324e-23
8.42104e-22
1.875e-06
-1.07782e-22
7.01442e-22
1.875e-06
-1.16396e-22
6.36324e-22
1.875e-06
-3.68978e-23
6.93754e-22
1.875e-06
1.77962e-23
7.6439e-22
1.875e-06
-4.96363e-24
5.63396e-22
1.875e-06
7.0222e-23
5.87808e-22
1.875e-06
1.28388e-22
7.04294e-22
1.875e-06
-3.50718e-23
6.04217e-22
1.875e-06
8.3042e-24
4.18153e-22
1.875e-06
2.46017e-23
3.24765e-22
1.875e-06
1.02786e-23
2.80007e-22
1.875e-06
1.39496e-22
1.54613e-22
1.875e-06
2.41674e-22
1.60176e-22
1.875e-06
2.19801e-23
5.25412e-23
1.875e-06
-1.11569e-22
9.53266e-23
1.875e-06
-1.84751e-22
1.99683e-22
1.875e-06
-3.28628e-23
2.80118e-22
1.875e-06
-3.5748e-23
2.17864e-22
1.875e-06
-1.66641e-23
2.01186e-22
1.875e-06
-1.23039e-22
7.4824e-23
1.875e-06
-7.99299e-23
3.7252e-23
1.875e-06
-6.54341e-23
1.16683e-23
1.875e-06
-3.05438e-23
7.90823e-23
1.875e-06
1.54511e-23
-2.20547e-23
1.875e-06
7.37091e-23
-5.50348e-23
1.875e-06
-2.96562e-23
-1.50824e-22
1.875e-06
4.14762e-23
-1.69495e-22
1.875e-06
1.0702e-22
-5.48203e-23
1.875e-06
8.9531e-23
4.4015e-23
1.875e-06
-5.74232e-25
-4.70989e-23
1.875e-06
-7.87259e-23
-5.46794e-23
1.875e-06
-4.63658e-23
-1.97235e-22
1.875e-06
3.49548e-23
-2.27341e-22
4.75185e-23
-2.78545e-22
1.875e-06
-5.70481e-23
5.79123e-22
1.875e-06
-7.86099e-23
9.03661e-22
1.875e-06
-3.86057e-23
9.60768e-22
1.875e-06
-2.25717e-23
9.76843e-22
1.875e-06
-8.36162e-24
8.67511e-22
1.875e-06
-6.96877e-23
7.82214e-22
1.875e-06
-1.34547e-22
7.36067e-22
1.875e-06
-1.05226e-22
7.63051e-22
1.875e-06
-1.69629e-23
7.11491e-22
1.875e-06
3.44476e-23
7.19365e-22
1.875e-06
2.03879e-23
6.51579e-22
1.875e-06
1.19985e-22
5.88427e-22
1.875e-06
1.32409e-22
6.69116e-22
1.875e-06
4.18948e-23
6.20963e-22
1.875e-06
2.51396e-23
3.91077e-22
1.875e-06
4.12946e-23
3.52031e-22
1.875e-06
-6.72016e-23
3.28143e-22
1.875e-06
-8.24041e-23
5.10187e-23
1.875e-06
5.9569e-23
-4.31932e-23
1.875e-06
-5.1886e-23
6.18553e-23
1.875e-06
-5.92479e-23
2.02697e-22
1.875e-06
4.90075e-24
2.88032e-22
1.875e-06
-1.24176e-23
3.11712e-22
1.875e-06
-5.91251e-23
2.43613e-22
1.875e-06
1.41881e-23
9.40094e-23
1.875e-06
-3.43732e-23
7.59544e-23
1.875e-06
1.24509e-22
1.44446e-22
1.875e-06
8.46159e-23
1.53387e-22
1.875e-06
2.00066e-23
1.39214e-22
1.875e-06
3.30112e-23
-2.24245e-23
1.875e-06
-1.79741e-22
-6.5946e-23
1.875e-06
-4.94974e-23
-4.69029e-23
1.875e-06
-4.58056e-23
-1.82452e-22
1.875e-06
3.2714e-23
-4.45441e-23
1.875e-06
5.35269e-23
8.31456e-24
1.875e-06
5.42805e-23
-1.45357e-22
1.875e-06
2.59753e-23
-7.61127e-23
1.875e-06
-3.87077e-24
-1.49832e-22
1.875e-06
-1.06479e-22
-2.81426e-22
-7.60764e-23
-4.25326e-22
1.875e-06
8.30236e-23
6.58425e-22
1.875e-06
4.08213e-23
9.1949e-22
1.875e-06
-6.45134e-23
8.36559e-22
1.875e-06
-1.37436e-22
9.08946e-22
1.875e-06
-5.20517e-23
8.80448e-22
1.875e-06
-1.54022e-23
8.76987e-22
1.875e-06
-6.5688e-23
7.70366e-22
1.875e-06
-1.3159e-22
7.3376e-22
1.875e-06
-7.84209e-23
6.84722e-22
1.875e-06
6.87527e-23
7.76991e-22
1.875e-06
-8.32706e-23
6.56562e-22
1.875e-06
3.89655e-22
6.10126e-22
1.875e-06
1.58187e-23
6.07071e-22
1.875e-06
6.76399e-23
6.05573e-22
1.875e-06
4.21898e-23
6.248e-22
1.875e-06
-1.10462e-23
3.70568e-22
1.875e-06
-7.49461e-23
1.95877e-22
1.875e-06
-8.5686e-23
4.43914e-23
1.875e-06
-9.01067e-23
-1.49405e-23
1.875e-06
-7.11054e-23
1.46048e-22
1.875e-06
-1.09261e-22
7.8113e-23
1.875e-06
-6.36843e-23
2.92703e-22
1.875e-06
-3.62724e-23
3.99723e-22
1.875e-06
6.31208e-23
1.4085e-22
1.875e-06
1.89387e-22
1.46473e-22
1.875e-06
9.69303e-23
1.53211e-22
1.875e-06
-8.67503e-23
6.78279e-23
1.875e-06
9.17455e-23
9.1268e-23
1.875e-06
-1.93452e-22
9.17725e-23
1.875e-06
1.35177e-22
-5.09056e-23
1.875e-06
-6.60951e-24
4.47053e-23
1.875e-06
-5.21575e-23
-1.19451e-24
1.875e-06
1.25969e-22
-8.16314e-23
1.875e-06
-8.61925e-23
-5.47628e-23
1.875e-06
-4.18892e-23
-4.89059e-23
1.875e-06
7.03809e-23
-9.94936e-23
1.875e-06
7.2198e-23
-1.33144e-22
1.875e-06
-2.75991e-24
-2.72463e-22
1.875e-06
-1.25736e-22
-3.67114e-22
-1.04577e-22
-3.81517e-22
1.875e-06
9.35217e-23
5.9693e-22
1.875e-06
1.32562e-22
8.44463e-22
1.875e-06
-1.4465e-22
7.99542e-22
1.875e-06
-1.07201e-22
8.39553e-22
1.875e-06
-2.38277e-23
9.27451e-22
1.875e-06
-4.03717e-23
7.95754e-22
1.875e-06
-4.66034e-23
7.76537e-22
1.875e-06
2.91681e-23
7.98247e-22
1.875e-06
-3.99679e-23
7.15218e-22
1.875e-06
1.00944e-22
7.97929e-22
1.875e-06
3.31688e-23
6.80435e-22
1.875e-06
-2.0798e-23
7.14356e-22
1.875e-06
-8.23203e-24
6.68996e-22
1.875e-06
1.73207e-22
5.59918e-22
1.875e-06
-2.27907e-24
4.85825e-22
1.875e-06
-1.36025e-22
2.95633e-22
1.875e-06
-6.66467e-23
2.08015e-22
1.875e-06
-1.20607e-22
7.76442e-23
1.875e-06
-1.68506e-22
1.32503e-22
1.875e-06
-1.25617e-22
1.01523e-22
1.875e-06
1.83033e-23
2.07986e-22
1.875e-06
-8.06391e-23
2.16071e-22
1.875e-06
-6.23263e-23
3.10267e-22
1.875e-06
1.2234e-22
1.92369e-22
1.875e-06
9.07565e-23
5.66061e-23
1.875e-06
1.35602e-22
2.45812e-22
1.875e-06
6.54764e-23
1.52792e-22
1.875e-06
3.43398e-23
-4.68926e-23
1.875e-06
4.55514e-23
7.7597e-23
1.875e-06
-4.66044e-23
-5.34153e-23
1.875e-06
4.59118e-23
3.40768e-23
1.875e-06
3.72159e-23
1.16597e-23
1.875e-06
1.22728e-23
-9.19998e-23
1.875e-06
-2.62613e-23
5.4452e-23
1.875e-06
6.11048e-23
-8.66847e-23
1.875e-06
1.15004e-22
-1.07057e-22
1.875e-06
-7.11706e-23
-1.05938e-22
1.875e-06
-8.89266e-23
-2.7587e-22
1.875e-06
-1.91322e-22
-5.58331e-22
-2.20742e-22
-3.9849e-22
1.875e-06
7.75394e-24
5.67745e-22
1.875e-06
2.18852e-23
7.60006e-22
1.875e-06
1.47599e-23
7.82432e-22
1.875e-06
-1.16411e-22
8.13645e-22
1.875e-06
-1.35298e-22
8.39998e-22
1.875e-06
4.51667e-23
8.11165e-22
1.875e-06
-1.27527e-23
8.48925e-22
1.875e-06
2.62339e-23
7.58417e-22
1.875e-06
1.0773e-22
7.803e-22
1.875e-06
-3.31269e-23
7.84665e-22
1.875e-06
-7.61886e-23
7.67452e-22
1.875e-06