/*--------------------------------*- C++ -*----------------------------------*\
| =========                 |                                                 |
| \\      /  F ield         | OpenFOAM: The Open Source CFD Toolbox           |
|  \\    /   O peration     | Version:  v2012                                 |
|   \\  /    A nd           | Website:  www.openfoam.com                      |
|    \\/     M anipulation  |                                                 |
\*---------------------------------------------------------------------------*/
FoamFile
{
    version     2.0;
    format      ascii;
    class       volVectorField;
    location    "12";
    object      U;
}
// * * * * * * * * * * * * * * * * * * * * * * * * * * * * * * * * * * * * * //

dimensions      [0 1 -1 0 0 0 0];


internalField   nonuniform List<vector> 
64000
(
(0.003 1.31304e-19 1.27755e-19)
(0.003 2.15044e-19 2.14097e-19)
(0.003 2.76315e-19 3.31825e-19)
(0.003 2.80556e-19 3.30309e-19)
(0.003 3.51948e-19 2.82701e-19)
(0.003 3.32572e-19 2.60666e-19)
(0.003 2.38505e-19 2.1364e-19)
(0.003 4.6011e-20 1.46704e-19)
(0.003 1.30376e-19 2.15204e-19)
(0.003 2.80785e-19 1.87116e-19)
(0.003 2.1963e-19 1.53878e-19)
(0.003 2.14747e-19 2.40654e-19)
(0.003 1.52103e-19 1.84419e-19)
(0.003 1.49537e-19 1.67124e-19)
(0.003 1.23635e-19 2.18782e-19)
(0.003 1.79935e-19 1.90796e-19)
(0.003 1.24019e-19 1.18571e-19)
(0.003 1.38554e-20 9.25245e-20)
(0.003 7.99084e-20 -1.24362e-19)
(0.003 3.20667e-20 -3.08136e-19)
(0.003 -1.21327e-19 -2.24788e-19)
(0.003 -4.39827e-20 1.08443e-20)
(0.003 5.96792e-20 5.85699e-20)
(0.003 2.57067e-19 4.80882e-20)
(0.003 2.97571e-19 8.5998e-20)
(0.003 9.55563e-20 1.06189e-19)
(0.003 -4.59699e-20 1.17267e-19)
(0.003 8.02995e-20 1.11094e-19)
(0.003 8.72471e-20 1.24277e-19)
(0.003 -9.65458e-20 1.97213e-19)
(0.003 -2.05518e-19 3.02199e-19)
(0.003 -5.33711e-20 1.37582e-19)
(0.003 1.21626e-19 9.385e-20)
(0.003 6.07008e-20 6.3178e-20)
(0.003 3.22864e-20 -4.30065e-20)
(0.003 -7.00033e-20 -1.51476e-19)
(0.003 -2.59539e-19 -3.25099e-19)
(0.003 -1.70204e-19 -1.71453e-19)
(0.003 -9.56713e-21 1.23496e-19)
(0.003 -3.69224e-20 6.75415e-20)
(0.003 1.96041e-19 2.2846e-19)
(0.003 2.86492e-19 4.55725e-19)
(0.003 4.62547e-19 7.0842e-19)
(0.003 3.51433e-19 6.49763e-19)
(0.003 2.3442e-19 4.94843e-19)
(0.003 3.58035e-19 4.99115e-19)
(0.003 3.02055e-19 4.12051e-19)
(0.003 2.32675e-19 2.6487e-19)
(0.003 1.57627e-19 3.49504e-19)
(0.003 1.2896e-19 4.03295e-19)
(0.003 2.46837e-19 3.96661e-19)
(0.003 2.77298e-19 4.08233e-19)
(0.003 1.04254e-19 3.32291e-19)
(0.003 -4.47843e-21 3.0127e-19)
(0.003 2.98466e-20 3.15868e-19)
(0.003 2.98696e-20 2.49209e-19)
(0.003 1.74731e-19 1.28122e-19)
(0.003 1.98689e-19 1.47618e-19)
(0.003 2.10091e-19 4.50744e-20)
(0.003 1.66556e-19 -1.61678e-19)
(0.003 7.83161e-21 -4.35539e-20)
(0.003 -1.85491e-19 7.62585e-20)
(0.003 -1.63058e-20 8.65114e-21)
(0.003 1.74989e-19 1.57659e-19)
(0.003 -1.00691e-20 1.77495e-19)
(0.003 -3.52916e-20 8.83469e-20)
(0.003 4.91611e-20 5.94764e-20)
(0.003 4.81537e-20 1.5681e-19)
(0.003 -4.04624e-20 1.51102e-19)
(0.003 -1.27383e-19 9.84879e-20)
(0.003 -2.15607e-19 1.22223e-19)
(0.003 -5.79548e-20 1.80403e-19)
(0.003 -3.7378e-21 2.13805e-19)
(0.003 -9.88509e-20 7.48334e-20)
(0.003 -1.08438e-19 -2.45021e-20)
(0.003 -2.81913e-19 -1.59835e-19)
(0.003 -1.78785e-19 -2.72099e-19)
(0.003 2.53444e-20 -1.23203e-19)
(0.003 8.86556e-20 7.4718e-20)
(0.003 8.07293e-20 1.10195e-20)
(0.003 2.52855e-19 3.12476e-19)
(0.003 3.1027e-19 4.61591e-19)
(0.003 2.54011e-19 7.1578e-19)
(0.003 3.04174e-19 7.45932e-19)
(0.003 2.61205e-19 5.96166e-19)
(0.003 2.53594e-19 5.76042e-19)
(0.003 2.43379e-19 5.10326e-19)
(0.003 2.7476e-19 4.45533e-19)
(0.003 2.34175e-19 4.26016e-19)
(0.003 1.07727e-19 3.85297e-19)
(0.003 1.01467e-19 4.44583e-19)
(0.003 1.17085e-19 4.71709e-19)
(0.003 1.83489e-19 2.77703e-19)
(0.003 1.00797e-19 2.8159e-19)
(0.003 2.95644e-20 3.02579e-19)
(0.003 -4.60774e-21 2.57196e-19)
(0.003 1.05305e-19 2.71935e-19)
(0.003 2.33306e-19 1.48373e-19)
(0.003 2.16601e-19 -6.0819e-20)
(0.003 1.19601e-19 -1.20281e-19)
(0.003 -4.89014e-20 6.70038e-20)
(0.003 -1.57414e-19 1.76316e-19)
(0.003 7.33771e-21 1.54565e-19)
(0.003 4.6351e-20 1.91786e-19)
(0.003 -7.74949e-20 1.55504e-19)
(0.003 4.15937e-21 8.43907e-20)
(0.003 4.6736e-20 6.23936e-20)
(0.003 -8.17637e-20 2.12558e-19)
(0.003 -5.26398e-20 1.76781e-19)
(0.003 1.45703e-20 1.28672e-19)
(0.003 -4.52622e-20 1.76861e-19)
(0.003 -3.34066e-20 2.42101e-19)
(0.003 -3.23099e-20 1.449e-19)
(0.003 -1.67077e-19 5.03044e-20)
(0.003 -2.51437e-19 7.93121e-20)
(0.003 -1.5895e-19 -9.68985e-20)
(0.003 -5.257e-20 -1.86478e-19)
(0.003 1.09051e-19 -2.40249e-19)
(0.003 1.71334e-19 -1.11737e-19)
(0.003 1.17403e-19 -8.18432e-20)
(0.003 3.6481e-19 3.75177e-19)
(0.003 3.69875e-19 6.6876e-19)
(0.003 2.27644e-19 7.46871e-19)
(0.003 2.73668e-19 7.82211e-19)
(0.003 2.82014e-19 7.64057e-19)
(0.003 1.9517e-19 7.5246e-19)
(0.003 1.92858e-19 5.45861e-19)
(0.003 2.04119e-19 3.9935e-19)
(0.003 2.19139e-19 5.15669e-19)
(0.003 2.50028e-19 4.87371e-19)
(0.003 1.51352e-19 4.2339e-19)
(0.003 3.80106e-20 4.5331e-19)
(0.003 6.88525e-20 3.52884e-19)
(0.003 2.92641e-20 3.0095e-19)
(0.003 1.73923e-19 3.24864e-19)
(0.003 2.62645e-19 2.96142e-19)
(0.003 1.012e-19 2.38681e-19)
(0.003 -1.49044e-20 1.87481e-19)
(0.003 -7.17182e-20 -2.39241e-20)
(0.003 -1.10414e-19 -6.34196e-20)
(0.003 -4.61633e-20 1.34267e-19)
(0.003 8.08851e-20 1.51428e-19)
(0.003 1.87033e-19 2.00842e-19)
(0.003 1.01044e-19 2.37942e-19)
(0.003 4.74058e-20 1.72513e-19)
(0.003 6.20812e-22 9.1411e-20)
(0.003 -4.95868e-20 -3.6788e-20)
(0.003 -6.66115e-20 5.56951e-21)
(0.003 1.88405e-20 2.58705e-19)
(0.003 -2.08899e-21 2.17156e-19)
(0.003 -7.45608e-20 1.28832e-19)
(0.003 -8.89335e-20 1.9626e-19)
(0.003 -8.34219e-20 1.74239e-19)
(0.003 -7.78882e-20 6.8513e-20)
(0.003 -8.47376e-20 -7.72417e-21)
(0.003 2.23544e-20 -7.77025e-20)
(0.003 6.78203e-21 -1.70178e-20)
(0.003 7.91363e-20 -2.89248e-20)
(0.003 1.21713e-19 -1.10462e-19)
(0.003 9.54649e-20 -1.2536e-19)
(0.003 1.56096e-19 4.81404e-19)
(0.003 1.97873e-19 7.99562e-19)
(0.003 1.26344e-19 8.1041e-19)
(0.003 1.23456e-19 8.04888e-19)
(0.003 1.62889e-19 8.86359e-19)
(0.003 8.90542e-20 8.00934e-19)
(0.003 1.40999e-19 6.23393e-19)
(0.003 2.54251e-19 4.45452e-19)
(0.003 2.29114e-19 4.28116e-19)
(0.003 2.10145e-19 5.86577e-19)
(0.003 1.64425e-19 5.86528e-19)
(0.003 7.12179e-20 4.30007e-19)
(0.003 6.82222e-21 2.97408e-19)
(0.003 6.55335e-20 3.06143e-19)
(0.003 1.26976e-19 3.75138e-19)
(0.003 1.8521e-19 4.113e-19)
(0.003 6.43326e-20 2.91884e-19)
(0.003 -1.72947e-19 1.7346e-19)
(0.003 -2.39075e-19 4.27346e-20)
(0.003 -1.63551e-19 -2.3741e-20)
(0.003 6.70909e-21 3.0099e-20)
(0.003 2.035e-19 1.38075e-19)
(0.003 2.81733e-19 2.8927e-19)
(0.003 1.01776e-19 2.68627e-19)
(0.003 4.92663e-20 1.72297e-19)
(0.003 -2.51033e-20 6.18797e-20)
(0.003 -1.31743e-20 1.79704e-20)
(0.003 2.74836e-20 1.00166e-19)
(0.003 1.36124e-20 1.8666e-19)
(0.003 -4.46243e-21 1.43693e-19)
(0.003 4.79262e-20 1.14717e-19)
(0.003 2.86972e-20 1.83036e-19)
(0.003 -1.2021e-19 5.57389e-20)
(0.003 -8.63463e-20 -1.01043e-19)
(0.003 -2.03724e-20 -6.25989e-20)
(0.003 -4.48003e-20 -2.83499e-20)
(0.003 3.89839e-20 5.75089e-20)
(0.003 1.22969e-19 4.60896e-20)
(0.003 1.1037e-19 1.86002e-20)
(0.003 9.80029e-20 -5.7993e-20)
(0.003 -3.41173e-20 5.80252e-19)
(0.003 1.31029e-19 8.1941e-19)
(0.003 9.8703e-20 8.46758e-19)
(0.003 8.72663e-20 9.13505e-19)
(0.003 9.37233e-20 9.12934e-19)
(0.003 1.05995e-19 7.65845e-19)
(0.003 1.38862e-19 6.3437e-19)
(0.003 2.98812e-19 6.71749e-19)
(0.003 2.82827e-19 6.07876e-19)
(0.003 1.46843e-19 5.31198e-19)
(0.003 1.32224e-19 5.46988e-19)
(0.003 6.52645e-20 5.36076e-19)
(0.003 6.47472e-20 3.33323e-19)
(0.003 1.6399e-19 2.79586e-19)
(0.003 6.01028e-20 4.1488e-19)
(0.003 -1.295e-19 4.37866e-19)
(0.003 -1.56035e-19 2.77907e-19)
(0.003 -1.66069e-19 1.72492e-19)
(0.003 -2.27376e-19 1.19909e-19)
(0.003 -1.93017e-19 -3.07597e-21)
(0.003 3.08262e-20 7.25864e-20)
(0.003 2.19069e-19 1.98952e-19)
(0.003 1.73881e-19 2.75063e-19)
(0.003 1.05828e-19 2.4067e-19)
(0.003 1.66643e-19 1.14249e-19)
(0.003 1.62733e-19 8.53901e-20)
(0.003 9.82404e-20 9.26623e-20)
(0.003 -6.456e-20 8.39462e-20)
(0.003 -1.55077e-19 1.95234e-19)
(0.003 -1.28624e-20 2.65231e-19)
(0.003 2.06191e-19 2.2454e-19)
(0.003 1.14982e-19 5.23043e-20)
(0.003 -4.49034e-20 -1.73553e-19)
(0.003 -4.23334e-20 -1.81087e-19)
(0.003 -9.40211e-20 -6.98616e-20)
(0.003 -7.24282e-20 -7.3586e-20)
(0.003 -7.01865e-21 3.36668e-20)
(0.003 1.13123e-19 6.78379e-20)
(0.003 1.75895e-19 -8.06648e-21)
(0.003 1.17187e-19 -5.83373e-20)
(0.003 6.35348e-21 7.10416e-19)
(0.003 1.15651e-19 1.01967e-18)
(0.003 1.7624e-19 9.30844e-19)
(0.003 1.45901e-19 9.06029e-19)
(0.003 1.61788e-19 9.44935e-19)
(0.003 6.72981e-20 8.15647e-19)
(0.003 1.43431e-19 6.72797e-19)
(0.003 2.65426e-19 6.57512e-19)
(0.003 1.97063e-19 6.80543e-19)
(0.003 1.25862e-19 6.84446e-19)
(0.003 1.47517e-19 6.79175e-19)
(0.003 1.36241e-19 5.17272e-19)
(0.003 1.18471e-19 3.12223e-19)
(0.003 1.08021e-19 2.82734e-19)
(0.003 5.39572e-20 4.16976e-19)
(0.003 -5.63704e-20 4.35529e-19)
(0.003 -1.22524e-19 2.26255e-19)
(0.003 -1.0151e-19 1.36555e-19)
(0.003 -2.06973e-19 1.2518e-19)
(0.003 -2.09016e-19 6.02379e-20)
(0.003 3.57811e-20 1.2392e-19)
(0.003 2.0545e-19 2.61166e-19)
(0.003 1.6557e-19 3.04956e-19)
(0.003 9.71363e-20 3.18116e-19)
(0.003 7.71211e-20 2.68788e-19)
(0.003 1.12696e-19 1.23121e-19)
(0.003 1.46892e-21 1.05882e-19)
(0.003 -1.32494e-19 1.15414e-19)
(0.003 -1.5852e-19 1.08347e-19)
(0.003 -1.2958e-20 1.30003e-19)
(0.003 1.74036e-19 1.67763e-19)
(0.003 1.52859e-19 7.13306e-20)
(0.003 1.26703e-19 -1.17686e-19)
(0.003 1.46463e-19 -5.96466e-20)
(0.003 1.64293e-20 -5.55347e-20)
(0.003 -1.15958e-20 -1.2767e-19)
(0.003 -3.40022e-20 -8.89614e-20)
(0.003 2.15615e-20 2.04508e-20)
(0.003 5.84755e-20 -5.75144e-20)
(0.003 8.50919e-20 -2.42999e-19)
(0.003 2.00031e-19 5.9532e-19)
(0.003 1.65394e-19 9.00813e-19)
(0.003 2.14139e-19 1.01302e-18)
(0.003 2.22904e-19 1.05581e-18)
(0.003 1.18873e-19 1.03425e-18)
(0.003 1.2061e-19 8.18783e-19)
(0.003 2.06166e-19 7.85542e-19)
(0.003 1.39089e-19 8.36296e-19)
(0.003 9.53955e-20 7.94023e-19)
(0.003 1.89923e-19 6.67729e-19)
(0.003 1.25062e-19 6.62289e-19)
(0.003 1.20975e-19 5.60345e-19)
(0.003 8.26395e-20 3.84492e-19)
(0.003 7.36734e-20 3.11488e-19)
(0.003 4.06134e-20 3.90415e-19)
(0.003 4.87295e-20 3.7718e-19)
(0.003 6.13147e-20 1.84877e-19)
(0.003 4.8463e-21 8.50773e-20)
(0.003 2.01928e-20 1.12255e-19)
(0.003 -1.52435e-20 1.28935e-19)
(0.003 3.43774e-20 1.50565e-19)
(0.003 1.47407e-19 3.30295e-19)
(0.003 4.51936e-20 3.77843e-19)
(0.003 -7.87405e-21 3.37673e-19)
(0.003 -2.45584e-21 3.05091e-19)
(0.003 5.501e-20 1.74095e-19)
(0.003 1.40218e-20 4.24821e-20)
(0.003 -6.98114e-20 8.61944e-20)
(0.003 -9.57632e-20 1.51755e-19)
(0.003 -4.26028e-20 1.73483e-19)
(0.003 -7.09903e-20 2.45394e-19)
(0.003 2.12107e-20 1.45885e-19)
(0.003 3.49574e-19 3.95591e-21)
(0.003 2.85285e-19 1.93435e-20)
(0.003 1.286e-19 -1.37339e-19)
(0.003 -7.17221e-22 -2.50493e-19)
(0.003 -5.30755e-20 -3.25147e-19)
(0.003 -3.83161e-20 -7.41691e-20)
(0.003 -8.77949e-20 -1.82099e-20)
(0.003 -1.14559e-19 -1.60065e-19)
(0.003 4.04262e-20 5.81388e-19)
(0.003 1.08895e-19 1.05133e-18)
(0.003 1.39268e-19 1.17918e-18)
(0.003 1.8513e-19 1.13429e-18)
(0.003 1.52267e-19 9.60493e-19)
(0.003 1.97588e-19 9.03502e-19)
(0.003 1.75006e-19 9.24875e-19)
(0.003 7.41516e-20 8.17687e-19)
(0.003 3.47952e-20 7.79259e-19)
(0.003 8.11168e-20 8.0099e-19)
(0.003 5.58525e-20 6.79699e-19)
(0.003 8.32723e-21 5.5106e-19)
(0.003 -2.34028e-20 3.8564e-19)
(0.003 4.70241e-20 4.00836e-19)
(0.003 8.27946e-20 4.07863e-19)
(0.003 9.22592e-20 3.51136e-19)
(0.003 1.3423e-19 2.40249e-19)
(0.003 1.45758e-19 1.74445e-19)
(0.003 1.17466e-19 1.75175e-19)
(0.003 5.53753e-20 1.63479e-19)
(0.003 -1.95209e-21 1.58274e-19)
(0.003 7.60401e-20 3.72887e-19)
(0.003 5.34748e-20 4.20293e-19)
(0.003 7.93282e-20 4.44053e-19)
(0.003 4.08283e-20 3.27928e-19)
(0.003 -4.50893e-20 1.78857e-19)
(0.003 -4.43708e-20 6.87926e-20)
(0.003 -2.26826e-20 1.12107e-19)
(0.003 1.50302e-19 9.74271e-20)
(0.003 1.74808e-20 1.15472e-19)
(0.003 -1.69131e-19 9.74181e-20)
(0.003 -8.35139e-20 1.4992e-19)
(0.003 7.80077e-20 1.62094e-19)
(0.003 1.49553e-19 -1.44448e-20)
(0.003 1.84318e-19 -1.74708e-19)
(0.003 1.24216e-19 -3.96957e-19)
(0.003 3.74748e-20 -4.19647e-19)
(0.003 -1.98152e-19 -1.77368e-19)
(0.003 -3.07153e-19 -7.6242e-20)
(0.003 -2.20565e-19 -1.08982e-19)
(0.003 -2.31082e-19 7.09986e-19)
(0.003 -9.53199e-21 9.99446e-19)
(0.003 1.44694e-19 1.15434e-18)
(0.003 2.24917e-19 1.18852e-18)
(0.003 2.22775e-19 1.12446e-18)
(0.003 2.16432e-19 1.0382e-18)
(0.003 2.60238e-19 9.80447e-19)
(0.003 1.56936e-19 8.92043e-19)
(0.003 9.5599e-20 7.58926e-19)
(0.003 7.75924e-20 7.36394e-19)
(0.003 6.29692e-21 6.79255e-19)
(0.003 -1.06995e-19 5.25091e-19)
(0.003 -1.39175e-20 4.30218e-19)
(0.003 -2.44033e-20 4.13915e-19)
(0.003 4.47909e-20 4.74769e-19)
(0.003 9.23525e-20 4.03261e-19)
(0.003 8.20984e-20 3.4764e-19)
(0.003 1.21575e-19 2.09837e-19)
(0.003 3.43167e-20 5.99575e-20)
(0.003 8.57376e-20 3.85206e-20)
(0.003 1.40547e-19 2.36811e-19)
(0.003 1.23675e-19 3.97565e-19)
(0.003 1.9307e-20 4.32638e-19)
(0.003 3.04424e-20 4.95447e-19)
(0.003 1.14496e-19 4.0659e-19)
(0.003 4.10146e-20 2.02971e-19)
(0.003 -6.11373e-20 8.03369e-20)
(0.003 -2.94902e-22 6.84574e-20)
(0.003 1.11233e-19 1.23674e-19)
(0.003 1.28016e-21 1.08522e-19)
(0.003 -5.36562e-20 6.656e-20)
(0.003 -8.69295e-20 1.00724e-19)
(0.003 -1.92004e-19 9.18784e-20)
(0.003 -1.68222e-19 1.53386e-20)
(0.003 1.50232e-19 -1.31216e-19)
(0.003 3.1478e-19 -3.84752e-19)
(0.003 3.23464e-20 -5.63226e-19)
(0.003 -3.32338e-19 -3.11159e-19)
(0.003 -3.07103e-19 -1.78883e-19)
(0.003 -1.71325e-19 -1.39108e-19)
(0.003 5.80048e-20 7.23671e-19)
(0.003 1.60851e-19 1.10727e-18)
(0.003 1.94644e-19 1.30333e-18)
(0.003 2.09342e-19 1.28692e-18)
(0.003 1.88208e-19 1.11409e-18)
(0.003 2.51521e-19 1.02304e-18)
(0.003 2.38792e-19 1.04226e-18)
(0.003 1.34578e-19 9.43569e-19)
(0.003 9.2075e-20 7.91179e-19)
(0.003 1.1587e-19 7.69219e-19)
(0.003 9.73998e-20 6.73e-19)
(0.003 1.09993e-21 5.38176e-19)
(0.003 9.44159e-20 3.91882e-19)
(0.003 8.93245e-20 3.47998e-19)
(0.003 4.75206e-22 4.85367e-19)
(0.003 1.21986e-21 5.29117e-19)
(0.003 2.41839e-20 4.19322e-19)
(0.003 1.91919e-20 2.69803e-19)
(0.003 7.89444e-21 9.18866e-20)
(0.003 1.31317e-19 3.13889e-21)
(0.003 2.69675e-19 2.30321e-19)
(0.003 1.40092e-19 4.65261e-19)
(0.003 -4.55885e-21 4.12491e-19)
(0.003 1.27108e-20 4.7924e-19)
(0.003 3.97098e-20 4.59036e-19)
(0.003 -3.44079e-20 1.90437e-19)
(0.003 -7.03606e-20 1.25264e-19)
(0.003 5.68161e-20 1.02871e-19)
(0.003 6.52072e-21 1.81703e-20)
(0.003 -1.0371e-19 7.20463e-20)
(0.003 -4.01046e-20 8.5831e-20)
(0.003 -2.41726e-20 2.48401e-20)
(0.003 -2.18895e-19 -3.49368e-20)
(0.003 -3.22565e-19 -2.84799e-20)
(0.003 -1.19137e-20 -5.16249e-20)
(0.003 1.0398e-19 -2.26792e-19)
(0.003 -1.41259e-20 -5.61463e-19)
(0.003 -1.85684e-19 -2.72082e-19)
(0.003 -1.50892e-19 -2.15693e-20)
(0.003 -7.1656e-20 -8.90953e-21)
(0.003 1.98672e-19 7.9978e-19)
(0.003 2.56666e-19 1.24366e-18)
(0.003 2.27286e-19 1.31429e-18)
(0.003 1.09994e-19 1.21854e-18)
(0.003 1.61311e-19 1.16998e-18)
(0.003 2.25367e-19 1.12579e-18)
(0.003 1.44365e-19 1.032e-18)
(0.003 9.90732e-20 8.87539e-19)
(0.003 1.05634e-19 7.58749e-19)
(0.003 7.5073e-20 7.97913e-19)
(0.003 1.09483e-19 7.69291e-19)
(0.003 7.43559e-20 5.61053e-19)
(0.003 9.49857e-20 5.01621e-19)
(0.003 1.51859e-19 4.09488e-19)
(0.003 3.62156e-20 4.50325e-19)
(0.003 -8.12326e-20 5.38382e-19)
(0.003 -6.35478e-20 4.7922e-19)
(0.003 5.0275e-20 2.9363e-19)
(0.003 2.20809e-19 1.69046e-19)
(0.003 2.66818e-19 1.07414e-19)
(0.003 1.02931e-19 2.07257e-19)
(0.003 -1.32255e-19 4.06029e-19)
(0.003 -1.10505e-19 4.18401e-19)
(0.003 -1.32465e-20 4.3427e-19)
(0.003 -9.65558e-20 4.91116e-19)
(0.003 -1.63707e-19 2.10135e-19)
(0.003 -1.01599e-19 1.43051e-19)
(0.003 5.02834e-20 1.69923e-19)
(0.003 2.07857e-20 -2.34967e-20)
(0.003 -1.74515e-21 -1.5248e-20)
(0.003 -1.56038e-21 4.2617e-21)
(0.003 -1.16302e-19 -4.45692e-20)
(0.003 -1.39045e-19 -6.32229e-20)
(0.003 -3.81464e-20 4.75871e-20)
(0.003 -5.29022e-20 -4.87606e-21)
(0.003 -1.11508e-19 -3.26553e-19)
(0.003 6.12817e-20 -5.72429e-19)
(0.003 2.0079e-19 -3.64172e-19)
(0.003 1.49643e-19 -5.13008e-20)
(0.003 5.81929e-20 -1.34527e-20)
(0.003 2.40941e-19 8.61589e-19)
(0.003 2.58654e-19 1.25276e-18)
(0.003 1.83184e-19 1.2427e-18)
(0.003 1.27554e-19 1.24745e-18)
(0.003 1.12691e-19 1.23129e-18)
(0.003 1.09453e-19 1.16756e-18)
(0.003 7.21486e-20 1.02388e-18)
(0.003 7.02825e-20 8.85846e-19)
(0.003 2.06768e-19 8.57974e-19)
(0.003 2.33225e-19 8.48315e-19)
(0.003 9.00898e-20 7.55637e-19)
(0.003 1.43851e-20 5.79027e-19)
(0.003 7.55638e-20 5.10193e-19)
(0.003 1.70821e-19 4.85578e-19)
(0.003 3.43074e-20 4.98042e-19)
(0.003 -4.20903e-20 5.31834e-19)
(0.003 -1.18237e-19 4.31788e-19)
(0.003 -1.27134e-19 2.85655e-19)
(0.003 4.4266e-20 2.51361e-19)
(0.003 1.97244e-19 1.8985e-19)
(0.003 1.09963e-19 2.25864e-19)
(0.003 8.37458e-21 3.3971e-19)
(0.003 2.25856e-20 3.43436e-19)
(0.003 -3.48779e-21 4.01621e-19)
(0.003 -1.71149e-19 4.28835e-19)
(0.003 -1.61293e-19 2.37627e-19)
(0.003 -9.13064e-20 1.65504e-19)
(0.003 2.33313e-21 8.66225e-20)
(0.003 4.36016e-20 -9.88038e-20)
(0.003 1.12348e-19 -9.67503e-20)
(0.003 1.52203e-20 -1.15994e-19)
(0.003 -2.17927e-19 -1.08971e-19)
(0.003 -1.28869e-19 7.81995e-20)
(0.003 6.23594e-21 1.27863e-19)
(0.003 -2.81666e-20 2.40134e-20)
(0.003 -5.85728e-22 -3.03283e-19)
(0.003 1.64206e-19 -3.95933e-19)
(0.003 2.98426e-19 -2.00751e-19)
(0.003 2.86101e-19 2.69346e-21)
(0.003 9.84075e-20 -4.68357e-20)
(0.003 1.60061e-20 9.39357e-19)
(0.003 1.69688e-19 1.31634e-18)
(0.003 2.24604e-19 1.2683e-18)
(0.003 4.22875e-20 1.23795e-18)
(0.003 -1.01805e-19 1.21363e-18)
(0.003 -8.6581e-20 1.17399e-18)
(0.003 8.31118e-20 1.0626e-18)
(0.003 1.9053e-19 9.03664e-19)
(0.003 1.45723e-19 8.32722e-19)
(0.003 1.48601e-19 9.12907e-19)
(0.003 1.22776e-19 8.25322e-19)
(0.003 1.53324e-19 6.03579e-19)
(0.003 7.89546e-20 6.02967e-19)
(0.003 -4.17743e-20 5.78258e-19)
(0.003 -6.43348e-20 4.84644e-19)
(0.003 -6.96238e-20 4.91395e-19)
(0.003 -7.45541e-20 4.26421e-19)
(0.003 1.71761e-20 2.50627e-19)
(0.003 5.39303e-20 1.66046e-19)
(0.003 7.69479e-20 1.94297e-19)
(0.003 1.9828e-19 2.88363e-19)
(0.003 9.64335e-20 3.87766e-19)
(0.003 5.94289e-20 4.06124e-19)
(0.003 -1.62467e-20 4.84131e-19)
(0.003 -2.22246e-19 4.06264e-19)
(0.003 -1.08022e-19 1.28756e-19)
(0.003 4.06501e-20 1.99446e-20)
(0.003 -3.37532e-20 2.34789e-20)
(0.003 -1.02365e-20 -1.73462e-19)
(0.003 6.74984e-20 -2.26358e-19)
(0.003 1.06013e-19 -1.24244e-19)
(0.003 -1.84086e-20 -3.56213e-20)
(0.003 -1.24465e-19 6.98459e-20)
(0.003 -1.25241e-19 7.35487e-20)
(0.003 -9.29909e-20 5.27893e-20)
(0.003 1.30876e-19 -1.68702e-19)
(0.003 2.44294e-19 -3.24944e-19)
(0.003 2.62673e-19 -1.26321e-19)
(0.003 1.55505e-19 -7.40279e-20)
(0.003 -4.16858e-21 -3.38467e-19)
(0.003 -1.29467e-19 9.26926e-19)
(0.003 -8.19747e-20 1.3335e-18)
(0.003 8.03454e-20 1.35618e-18)
(0.003 4.88669e-20 1.15258e-18)
(0.003 3.89821e-20 1.11518e-18)
(0.003 -4.44666e-20 1.15701e-18)
(0.003 5.0807e-20 1.12533e-18)
(0.003 1.83816e-19 9.84172e-19)
(0.003 5.31611e-20 8.85033e-19)
(0.003 -1.05452e-19 9.52606e-19)
(0.003 8.22512e-20 8.51725e-19)
(0.003 2.23051e-19 6.78625e-19)
(0.003 1.48571e-20 6.38157e-19)
(0.003 -1.60824e-19 5.57551e-19)
(0.003 -1.07296e-19 4.32942e-19)
(0.003 -8.40362e-20 4.79392e-19)
(0.003 -1.64293e-20 3.50344e-19)
(0.003 1.1861e-19 2.22657e-19)
(0.003 6.5265e-20 2.4794e-19)
(0.003 7.47346e-20 2.49514e-19)
(0.003 1.83858e-19 3.44399e-19)
(0.003 9.87531e-20 3.99095e-19)
(0.003 -5.2351e-20 4.46027e-19)
(0.003 -2.22787e-19 4.58163e-19)
(0.003 -1.71036e-19 2.86655e-19)
(0.003 4.58067e-20 1.91323e-19)
(0.003 8.96628e-20 2.32504e-20)
(0.003 -5.53874e-20 -4.92836e-20)
(0.003 -1.46145e-19 -2.2331e-19)
(0.003 3.69297e-20 -1.25634e-19)
(0.003 2.08449e-19 -4.1135e-21)
(0.003 1.5375e-19 -1.08994e-19)
(0.003 -6.86295e-20 -1.8883e-19)
(0.003 -1.83116e-19 -3.93384e-20)
(0.003 -1.8007e-19 1.76368e-19)
(0.003 2.88473e-20 9.88956e-20)
(0.003 2.27565e-19 -1.8078e-19)
(0.003 3.0806e-19 -2.7152e-19)
(0.003 2.66354e-19 -2.9326e-19)
(0.003 2.13011e-19 -3.85661e-19)
(0.003 -8.6496e-20 8.73732e-19)
(0.003 -2.39377e-19 1.28244e-18)
(0.003 -8.52513e-20 1.41826e-18)
(0.003 2.33084e-20 1.24633e-18)
(0.003 5.38741e-20 1.1878e-18)
(0.003 3.35785e-20 1.19998e-18)
(0.003 2.84449e-20 1.12411e-18)
(0.003 9.73235e-20 1.04665e-18)
(0.003 -2.15844e-20 9.18653e-19)
(0.003 -9.79694e-20 8.29592e-19)
(0.003 2.85716e-20 8.59989e-19)
(0.003 6.63308e-20 8.46107e-19)
(0.003 -5.62026e-20 8.10047e-19)
(0.003 -5.19411e-20 5.67669e-19)
(0.003 -2.41711e-20 3.99294e-19)
(0.003 -3.81676e-20 4.55221e-19)
(0.003 -1.31881e-20 3.33001e-19)
(0.003 -5.51627e-20 2.24811e-19)
(0.003 3.80166e-20 2.10361e-19)
(0.003 1.68267e-19 2.38575e-19)
(0.003 7.82331e-20 3.74208e-19)
(0.003 1.04203e-19 4.95312e-19)
(0.003 -2.43574e-20 5.10602e-19)
(0.003 -2.21629e-19 3.84856e-19)
(0.003 -9.94071e-20 1.613e-19)
(0.003 -4.70358e-20 1.96227e-19)
(0.003 -3.20234e-20 2.27049e-20)
(0.003 -1.4962e-19 -2.26024e-19)
(0.003 -1.80145e-19 -1.6605e-19)
(0.003 3.26929e-20 1.76342e-21)
(0.003 1.95216e-19 1.43664e-21)
(0.003 2.14977e-19 -2.88536e-19)
(0.003 6.2677e-20 -3.30207e-19)
(0.003 8.5317e-21 -4.32954e-20)
(0.003 -3.67035e-20 2.29963e-19)
(0.003 -6.18458e-20 2.40093e-19)
(0.003 7.73955e-20 3.72975e-20)
(0.003 2.04259e-19 -2.57973e-19)
(0.003 2.15294e-19 -3.54993e-19)
(0.003 2.23989e-19 -4.11743e-19)
(0.003 -1.14431e-19 7.99403e-19)
(0.003 -1.44076e-19 1.21086e-18)
(0.003 -3.03241e-20 1.36683e-18)
(0.003 -5.39438e-20 1.27597e-18)
(0.003 -9.39562e-20 1.21222e-18)
(0.003 -2.90036e-20 1.20885e-18)
(0.003 4.37582e-20 1.15878e-18)
(0.003 -1.42548e-20 1.03511e-18)
(0.003 -2.96526e-20 9.51079e-19)
(0.003 4.0632e-20 9.41441e-19)
(0.003 -3.51426e-21 9.22157e-19)
(0.003 -5.77973e-20 8.66779e-19)
(0.003 -1.23452e-19 7.74078e-19)
(0.003 9.09717e-21 6.53336e-19)
(0.003 2.6592e-20 3.80146e-19)
(0.003 -6.50328e-20 3.61837e-19)
(0.003 1.90217e-20 3.32525e-19)
(0.003 -2.1135e-20 2.37874e-19)
(0.003 7.3778e-21 3.15956e-19)
(0.003 2.01531e-19 3.03077e-19)
(0.003 1.55415e-19 3.78478e-19)
(0.003 6.82757e-20 3.75896e-19)
(0.003 -9.10835e-20 3.72506e-19)
(0.003 -1.73319e-19 2.96371e-19)
(0.003 -1.09206e-19 1.45159e-19)
(0.003 -5.45011e-20 2.07108e-19)
(0.003 -1.44988e-19 -1.98465e-21)
(0.003 -2.34509e-19 -1.59945e-19)
(0.003 -1.40658e-19 -2.52382e-20)
(0.003 -6.93857e-20 7.95705e-20)
(0.003 1.44168e-21 5.06599e-21)
(0.003 1.83866e-19 -2.35542e-19)
(0.003 2.31388e-19 -2.93355e-19)
(0.003 2.07404e-19 -2.448e-20)
(0.003 1.95656e-19 1.7768e-19)
(0.003 3.81101e-20 1.27317e-19)
(0.003 -3.35172e-20 3.75404e-20)
(0.003 -5.05577e-20 -1.28425e-19)
(0.003 -7.39794e-20 -3.19407e-19)
(0.003 6.91808e-20 -3.22494e-19)
(0.003 -1.51473e-19 7.29598e-19)
(0.003 -1.86213e-19 1.27763e-18)
(0.003 -1.67656e-19 1.54375e-18)
(0.003 -3.15407e-20 1.32393e-18)
(0.003 7.36037e-20 1.14553e-18)
(0.003 3.0351e-20 1.17302e-18)
(0.003 -8.32729e-20 1.13897e-18)
(0.003 -2.11475e-19 1.04397e-18)
(0.003 -8.60961e-20 9.76845e-19)
(0.003 2.17211e-20 9.61881e-19)
(0.003 -5.40148e-21 9.42491e-19)
(0.003 3.26129e-20 8.75351e-19)
(0.003 5.34904e-20 7.34089e-19)
(0.003 7.50592e-21 6.85548e-19)
(0.003 5.1561e-20 4.88373e-19)
(0.003 4.91836e-21 4.13798e-19)
(0.003 -2.54852e-22 3.65902e-19)
(0.003 1.49353e-19 1.55201e-19)
(0.003 2.24781e-19 1.01201e-19)
(0.003 1.56542e-19 2.83739e-19)
(0.003 -8.49544e-20 4.17025e-19)
(0.003 -1.53913e-19 5.538e-19)
(0.003 -8.45032e-20 3.99401e-19)
(0.003 -6.35478e-20 1.75372e-19)
(0.003 -1.40457e-19 1.01976e-19)
(0.003 -1.29717e-19 1.50755e-19)
(0.003 -1.28936e-19 6.00305e-20)
(0.003 -1.67056e-19 -1.19197e-19)
(0.003 -3.84917e-20 3.57197e-20)
(0.003 -4.02696e-20 5.26157e-20)
(0.003 -3.90001e-20 3.13032e-20)
(0.003 8.01178e-20 -9.27472e-20)
(0.003 1.73887e-19 -1.5351e-19)
(0.003 2.44927e-19 3.1607e-20)
(0.003 1.55633e-19 1.48878e-19)
(0.003 6.73614e-20 5.40293e-20)
(0.003 -4.86937e-20 -2.56676e-20)
(0.003 -1.75892e-19 -1.61956e-19)
(0.003 -1.59959e-19 -3.32283e-19)
(0.003 -4.77179e-20 -3.52745e-19)
(0.003 -1.1293e-19 7.03021e-19)
(0.003 -2.3926e-19 1.21342e-18)
(0.003 -2.5982e-19 1.41695e-18)
(0.003 -1.37126e-20 1.38213e-18)
(0.003 8.2545e-20 1.24792e-18)
(0.003 -5.94488e-20 1.14438e-18)
(0.003 -2.00582e-19 1.10999e-18)
(0.003 -1.72323e-19 1.04611e-18)
(0.003 -2.89409e-20 1.0118e-18)
(0.003 -1.54501e-20 1.03068e-18)
(0.003 -2.34473e-20 9.37111e-19)
(0.003 1.41877e-19 8.59373e-19)
(0.003 2.21153e-19 7.90988e-19)
(0.003 3.3565e-20 6.6239e-19)
(0.003 4.03176e-20 4.82238e-19)
(0.003 3.67608e-20 4.25623e-19)
(0.003 -6.12285e-20 4.02279e-19)
(0.003 5.31181e-20 2.43123e-19)
(0.003 2.59859e-19 1.87255e-19)
(0.003 2.69852e-20 2.2743e-19)
(0.003 -1.5419e-19 3.07314e-19)
(0.003 -1.67127e-19 4.53766e-19)
(0.003 -7.23035e-20 4.93187e-19)
(0.003 -8.11081e-20 2.51032e-19)
(0.003 -2.3227e-20 -1.01547e-21)
(0.003 -1.13536e-19 4.8173e-20)
(0.003 4.79276e-20 6.04935e-20)
(0.003 2.7868e-20 8.4447e-21)
(0.003 -7.28444e-20 9.15836e-21)
(0.003 2.56913e-20 1.34412e-20)
(0.003 -7.21776e-20 1.81422e-19)
(0.003 -7.64943e-20 7.2614e-20)
(0.003 -3.88592e-20 -4.67614e-20)
(0.003 4.7815e-20 5.4289e-20)
(0.003 1.23231e-19 1.64372e-20)
(0.003 3.83195e-20 -1.16405e-19)
(0.003 -9.41083e-21 -6.77126e-20)
(0.003 -7.65264e-20 -1.46281e-19)
(0.003 -5.70287e-20 -4.15045e-19)
(0.003 3.744e-20 -4.79898e-19)
(0.003 3.8526e-20 7.4252e-19)
(0.003 3.68799e-20 1.19158e-18)
(0.003 -7.59193e-20 1.33843e-18)
(0.003 -1.63271e-19 1.34645e-18)
(0.003 -6.81099e-20 1.27656e-18)
(0.003 -1.08153e-19 1.17994e-18)
(0.003 -1.79114e-19 1.05053e-18)
(0.003 -1.98865e-19 9.80971e-19)
(0.003 -1.21906e-19 1.05612e-18)
(0.003 8.10595e-20 1.04233e-18)
(0.003 2.10716e-19 9.20147e-19)
(0.003 1.84081e-19 9.18498e-19)
(0.003 1.71385e-19 7.51587e-19)
(0.003 8.70387e-20 6.60933e-19)
(0.003 1.44299e-20 6.35189e-19)
(0.003 -2.44232e-20 4.68613e-19)
(0.003 -1.31869e-19 2.12629e-19)
(0.003 -1.38768e-19 1.34193e-19)
(0.003 -9.60492e-21 2.7287e-19)
(0.003 -1.17942e-19 2.61515e-19)
(0.003 -1.35701e-19 2.55156e-19)
(0.003 -4.20494e-20 4.85904e-19)
(0.003 -3.65542e-20 5.20989e-19)
(0.003 4.86834e-21 1.60537e-19)
(0.003 1.54442e-19 -1.99757e-20)
(0.003 1.57767e-20 2.99845e-20)
(0.003 1.24282e-20 1.23923e-19)
(0.003 1.6093e-19 5.75237e-20)
(0.003 6.85568e-20 1.12538e-20)
(0.003 1.88563e-21 4.15607e-20)
(0.003 -1.22755e-19 1.42763e-19)
(0.003 -1.33974e-19 1.00463e-19)
(0.003 -6.02086e-20 -4.43317e-20)
(0.003 -8.4362e-20 -1.03455e-20)
(0.003 -5.41039e-20 -4.80163e-20)
(0.003 1.14414e-19 -3.81174e-20)
(0.003 1.17602e-19 -1.40721e-19)
(0.003 -7.06163e-20 -3.2794e-19)
(0.003 -1.98995e-19 -5.27486e-19)
(0.003 -1.72866e-19 -5.10521e-19)
(0.003 1.88356e-19 7.30409e-19)
(0.003 1.31927e-19 1.13151e-18)
(0.003 -1.68935e-19 1.27674e-18)
(0.003 -2.32223e-19 1.26614e-18)
(0.003 -1.09513e-19 1.29946e-18)
(0.003 -1.91396e-20 1.16514e-18)
(0.003 -4.24304e-20 9.95364e-19)
(0.003 -1.05431e-19 8.85445e-19)
(0.003 -1.35759e-19 9.35704e-19)
(0.003 9.89606e-20 1.15999e-18)
(0.003 3.12268e-19 1.20096e-18)
(0.003 8.20881e-20 1.00814e-18)
(0.003 3.53687e-21 8.09996e-19)
(0.003 1.67603e-19 5.99785e-19)
(0.003 7.65864e-21 5.4645e-19)
(0.003 -1.43314e-19 4.16652e-19)
(0.003 -1.5063e-19 1.91539e-19)
(0.003 -1.3595e-19 1.31108e-19)
(0.003 -1.96526e-19 3.32797e-19)
(0.003 -1.6543e-19 2.76918e-19)
(0.003 -4.55595e-20 2.85714e-19)
(0.003 -7.2228e-20 3.78054e-19)
(0.003 -7.34523e-20 4.40523e-19)
(0.003 1.04442e-19 2.41485e-19)
(0.003 1.84088e-19 4.55927e-20)
(0.003 1.71119e-19 3.43737e-20)
(0.003 -2.12355e-20 7.86429e-20)
(0.003 1.04574e-19 -8.8644e-21)
(0.003 7.00346e-20 -1.46816e-20)
(0.003 -2.8233e-20 3.32155e-20)
(0.003 -4.8757e-21 1.32973e-19)
(0.003 -8.14383e-20 8.21165e-20)
(0.003 -3.59871e-21 -3.13443e-20)
(0.003 -2.00892e-20 5.30081e-21)
(0.003 -4.14094e-20 -8.31156e-20)
(0.003 1.75696e-19 -2.10742e-20)
(0.003 1.70885e-20 -8.07139e-20)
(0.003 -1.73645e-19 -3.77624e-19)
(0.003 -3.15776e-19 -6.69407e-19)
(0.003 -3.27886e-19 -5.79115e-19)
(0.003 1.54407e-19 7.80122e-19)
(0.003 7.84352e-20 1.16759e-18)
(0.003 -1.16535e-19 1.15956e-18)
(0.003 -1.51671e-19 1.15015e-18)
(0.003 -1.51317e-19 1.25447e-18)
(0.003 4.64886e-21 1.13978e-18)
(0.003 -4.02172e-20 1.07105e-18)
(0.003 -1.17791e-20 9.67106e-19)
(0.003 8.53426e-20 9.42826e-19)
(0.003 1.08309e-19 1.15175e-18)
(0.003 4.79786e-21 1.17397e-18)
(0.003 -2.34645e-20 9.10863e-19)
(0.003 3.35705e-20 7.42948e-19)
(0.003 -2.37289e-20 7.11281e-19)
(0.003 -6.47745e-20 5.42009e-19)
(0.003 -7.26761e-20 3.37991e-19)
(0.003 -1.49635e-19 1.62709e-19)
(0.003 -2.16982e-19 1.73402e-19)
(0.003 -3.38046e-19 1.99508e-19)
(0.003 -1.52845e-19 2.13706e-19)
(0.003 -1.18762e-20 4.24636e-19)
(0.003 -1.17588e-19 4.10961e-19)
(0.003 -1.37721e-20 3.42039e-19)
(0.003 2.35789e-19 2.39126e-19)
(0.003 2.05288e-19 8.07741e-20)
(0.003 1.92555e-19 5.00139e-20)
(0.003 5.75461e-20 2.40075e-21)
(0.003 2.26375e-20 -4.84259e-20)
(0.003 1.8153e-20 -6.88897e-21)
(0.003 -4.09981e-20 3.94181e-20)
(0.003 1.14781e-19 8.60632e-20)
(0.003 2.10037e-19 8.38818e-20)
(0.003 8.64032e-20 2.14363e-20)
(0.003 6.29705e-20 -1.65048e-20)
(0.003 -3.22172e-20 -3.53282e-20)
(0.003 -7.94274e-20 2.27302e-21)
(0.003 -1.81413e-19 -1.67867e-19)
(0.003 -2.73162e-19 -3.55838e-19)
(0.003 -2.36132e-19 -3.51196e-19)
(0.003 -2.08029e-19 -1.79709e-19)
(0.003 -7.9946e-20 7.90438e-19)
(0.003 -8.96217e-20 1.20801e-18)
(0.003 3.68324e-20 1.22883e-18)
(0.003 -4.60083e-20 1.13279e-18)
(0.003 -2.03589e-19 1.14262e-18)
(0.003 -7.17599e-20 1.23057e-18)
(0.003 4.56473e-20 1.06308e-18)
(0.003 1.68894e-19 8.15694e-19)
(0.003 6.28739e-20 8.71703e-19)
(0.003 -1.54023e-19 1.08055e-18)
(0.003 -2.22973e-19 1.10421e-18)
(0.003 -4.94344e-20 1.01115e-18)
(0.003 -5.19472e-20 8.48273e-19)
(0.003 -1.12633e-19 6.02213e-19)
(0.003 -7.16061e-21 4.39944e-19)
(0.003 3.7851e-20 3.6693e-19)
(0.003 -4.33362e-20 1.83846e-19)
(0.003 -1.87795e-19 7.04181e-20)
(0.003 -2.78059e-19 1.15666e-19)
(0.003 -2.07953e-19 2.51607e-19)