/*--------------------------------*- C++ -*----------------------------------*\
| =========                 |                                                 |
| \\      /  F ield         | OpenFOAM: The Open Source CFD Toolbox           |
|  \\    /   O peration     | Version:  v2012                                 |
|   \\  /    A nd           | Website:  www.openfoam.com                      |
|    \\/     M anipulation  |                                                 |
\*---------------------------------------------------------------------------*/
FoamFile
{
    version     2.0;
    format      ascii;
    class       volScalarField;
    location    "360/heater";
    object      T;
}
// * * * * * * * * * * * * * * * * * * * * * * * * * * * * * * * * * * * * * //

dimensions      [0 0 0 1 0 0 0];


internalField   nonuniform List<scalar> 
80
(
726.7692
728.80605
732.76547
738.38683
717.50074
719.90662
724.60922
731.32699
698.06434
701.17882
707.41229
716.59387
666.35703
670.28506
678.70475
692.27556
345.43558
342.63336
342.67408
345.45951
421.58425
418.14815
418.39631
422.12421
486.36179
483.48138
484.24207
488.20021
541.12652
539.36688
541.32781
546.06003
586.11679
586.27814
590.90279
598.62205
620.19656
623.75057
633.07501
651.86728
345.37611
342.60403
342.6247
345.37343
421.49006
418.06381
418.28707
421.95242
486.25128
483.36342
484.09757
487.97632
541.00045
539.22438
541.15747
545.80663
585.95021
586.09309
590.67947
598.31848
619.88396
623.42406
632.72471
651.4781
665.18821
669.07109
677.44919
690.99492
696.13496
699.23495
705.47361
714.70765
715.14618
717.55226
722.28018
729.07546
724.18123
726.24598
730.26336
735.97977
)
;

boundaryField
{
    minY
    {
        type            fixedValue;
        value           uniform 300;
    }
    minZ
    {
        type            zeroGradient;
    }
    maxZ
    {
        type            zeroGradient;
    }
    heater_to_topAir
    {
        type            compressible::turbulentTemperatureCoupledBaffleMixed;
        refValue        nonuniform List<scalar> 
40
(
502.14931
500.99089
497.54672
492.36258
470.47406
461.74884
451.70717
442.28513
480.80721
472.71376
462.66317
452.38744
494.22032
491.61266
490.52786
491.40599
491.24226
488.75486
489.33131
492.05208
492.07086
488.43738
487.50721
489.50311
494.55916
491.2895
488.65082
487.8119
480.6742
472.56162
461.87023
450.6326
470.0418
461.56112
451.63233
442.03365
501.45478
500.3554
496.95579
491.73621
)
;
        refGradient     uniform 0;
        valueFraction   nonuniform List<scalar> 
40
(
0.00032132529
0.00032132529
0.00032132529
0.00032132529
0.00032132529
0.00032132529
0.00032132529
0.00032132529
0.00032132529
0.00032132529
0.00032132529
0.00032132529
0.00032132529
0.00032132529
0.00032132529
0.00032132529
0.00032132529
0.00032132529
0.00032132529
0.00032132529
0.00032132529
0.00032132529
0.00032132529
0.00032132529
0.00032132529
0.00032132529
0.00032132529
0.00032132529
0.00032132529
0.00032132529
0.00032132529
0.00032132529
0.00032132529
0.00032132529
0.00032132529
0.00032132529
0.00032132529
0.00032132529
0.00032132529
0.00032132529
)
;
        value           nonuniform List<scalar> 
40
(
726.69492
728.73066
732.6876
738.30541
717.41939
719.82163
724.51938
731.23181
697.99268
701.10348
707.33155
716.50668
666.29992
670.22579
678.64227
692.20884
620.15363
623.70565
633.02716
651.81409
619.8415
623.37925
632.67652
651.42433
665.13189
669.01243
677.38693
690.92783
696.06413
699.16049
705.39363
714.62092
715.06579
717.46832
722.19144
728.98133
724.10804
726.17174
730.18666
735.89946
)
;
        Tnbr            T;
        thicknessLayers List<scalar> 0();
        kappaLayers     List<scalar> 0();
        kappaMethod     solidThermo;
        kappa           none;
        alphaAni        none;
        alpha           none;
        field           T;
    }
    heater_to_rightSolid
    {
        type            compressible::turbulentTemperatureCoupledBaffleMixed;
        refValue        nonuniform List<scalar> 10(745.31729 739.57625 728.01201 710.70527 690.18843 689.73479 709.44849 726.21343 737.44013 743.03612);
        refGradient     uniform 0;
        valueFraction   nonuniform List<scalar> 10(0.49999997 0.49999997 0.49999997 0.49999997 0.49999997 0.49999997 0.49999997 0.49999997 0.49999997 0.49999997);
        value           nonuniform List<scalar> 10(741.85087 735.45047 722.30179 701.48932 671.02694 670.60558 700.2208 720.4596 733.25685 739.50703);
        Tnbr            T;
        thicknessLayers List<scalar> 0();
        kappaLayers     List<scalar> 0();
        kappaMethod     solidThermo;
        kappa           none;
        alphaAni        none;
        alpha           none;
        field           T;
    }
    heater_to_leftSolid
    {
        type            compressible::turbulentTemperatureCoupledBaffleMixed;
        refValue        nonuniform List<scalar> 10(867.79009 867.44737 866.87573 866.0796 865.45471 864.99733 864.75737 864.64019 864.65019 864.70939);
        refGradient     uniform 0;
        valueFraction   nonuniform List<scalar> 10(2.0832898e-05 2.0832898e-05 2.0832898e-05 2.0832898e-05 2.0832898e-05 2.0832898e-05 2.0832898e-05 2.0832898e-05 2.0832898e-05 2.0832898e-05);
        value           nonuniform List<scalar> 10(726.77003 717.50188 698.066 666.3594 620.20017 619.88767 665.19087 696.13687 715.14766 724.18253);
        Tnbr            T;
        thicknessLayers List<scalar> 1(0.001);
        kappaLayers     List<scalar> 1(0.0005);
        kappaMethod     solidThermo;
        kappa           none;
        alphaAni        none;
        alpha           none;
        field           T;
    }
    heater_to_bottomWater
    {
        type            compressible::turbulentTemperatureCoupledBaffleMixed;
        refValue        nonuniform List<scalar> 
92
(
964.73129
963.75376
962.72771
957.16958
957.52082
957.88547
958.21695
955.92265
956.68032
957.18425
954.85766
953.70936
949.22539
935.68987
938.91492
940.48358
943.6851
939.85901
941.2691
944.18248
942.34181
943.95279
942.6084
948.25749
940.6627
946.80363
941.97092
950.20976
937.06711
937.06711
939.42023
939.42023
942.00532
942.00532
950.86409
950.86409
946.63496
929.18476
950.1286
937.2964
947.88759
941.5353
945.44009
944.83435
940.48326
947.33091
940.06807
941.90538
937.47381
929.38776
919.79652
933.47558
946.41605
934.4477
930.22633
928.46277
926.40142
930.94108
944.45733
934.57772
928.89244
928.87356
929.63089
929.07237
942.36967
933.94634
929.84963
928.56674
932.82265
930.88285
938.33361
931.92182
926.73544
923.86351
934.75292
927.46592
931.92182
926.73544
923.86351
927.46592
938.23597
935.25369
930.45683
932.54612
942.1225
939.30465
936.27908
935.28795
942.66955
942.09731
941.53327
937.62937
)
;
        refGradient     uniform 0;
        valueFraction   nonuniform List<scalar> 
92
(
0.0075140686
0.0075140686
0.0075140686
0.0075140686
0.0075140686
0.0075140686
0.0075140686
0.0075140686
0.0075140686
0.0075140686
0.0075140686
0.0075140686
0.0075140686
0.0075140686
0.0075140686
0.0075140686
0.0075140686
0.0075140686
0.0075140686
0.0075140686
0.0075140686
0.0075140686
0.0075140686
0.0075140686
0.0075140686
0.0075140686
0.0075140686
0.0075140686
0.0075140686
0.0075140686
0.0075140686
0.0075140686
0.0075140686
0.0075140686
0.0075140686
0.0075140686
0.0075140679
0.0075140679
0.0075140679
0.0075140679
0.0075140679
0.0075140679
0.0075140679
0.0075140679
0.0075140679
0.0075140679
0.0075140679
0.0075140686
0.0075140686
0.0075140686
0.0075140679
0.0075140686
0.0075140679
0.0075140686
0.0075140686
0.0075140686
0.0075140679
0.0075140686
0.0075140679
0.0075140686
0.0075140686
0.0075140686
0.0075140679
0.0075140686
0.0075140679
0.0075140686
0.0075140686
0.0075140686
0.0075140679
0.0075140686
0.0075140679
0.0075140686
0.0075140686
0.0075140686
0.0075140679
0.0075140686
0.0075140686
0.0075140686
0.0075140686
0.0075140686
0.0075140686
0.0075140686
0.0075140686
0.0075140686
0.0075140686
0.0075140686
0.0075140686
0.0075140686
0.0075140686
0.0075140686
0.0075140686
0.0075140686
)
;
        value           nonuniform List<scalar> 
92
(
728.55517
730.56929
734.49115
740.02843
719.3023
721.69279
726.36243
733.01233
700.00576
703.10055
709.26953
718.3733
349.97239
347.0895
347.15413
349.9304
425.50697
422.06791
422.32477
426.0465
489.78739
486.94069
487.68551
491.65627
544.1277
542.42739
544.3372
549.09569
668.38938
588.75263
672.30552
588.93042
680.6812
593.53964
694.21645
601.26737
349.95293
349.8455
425.55538
425.99476
489.82906
491.60576
544.1636
549.0553
588.7783
601.24082
349.84459
349.8584
347.07385
347.0336
349.6896
349.79239
425.43408
425.34414
421.91188
422.12017
425.74246
425.77658
489.69367
489.61943
486.7105
487.43895
491.29416
491.28996
544.01547
543.95217
542.15863
544.0675
548.71362
548.69904
588.59686
588.54868
588.65149
593.18177
600.8451
600.79035
667.19098
671.00568
679.29918
692.76999
697.95254
701.0068
707.16245
716.34264
716.85007
719.21685
723.88642
730.62307
725.82135
727.86626
731.84913
737.49316
)
;
        Tnbr            T;
        thicknessLayers List<scalar> 0();
        kappaLayers     List<scalar> 0();
        kappaMethod     solidThermo;
        kappa           none;
        alphaAni        none;
        alpha           none;
        field           T;
    }
}


// ************************************************************************* //
