/*--------------------------------*- C++ -*----------------------------------*\
| =========                 |                                                 |
| \\      /  F ield         | OpenFOAM: The Open Source CFD Toolbox           |
|  \\    /   O peration     | Version:  v2012                                 |
|   \\  /    A nd           | Website:  www.openfoam.com                      |
|    \\/     M anipulation  |                                                 |
\*---------------------------------------------------------------------------*/
FoamFile
{
    version     2.0;
    format      ascii;
    class       volScalarField;
    location    "140/heater";
    object      T;
}
// * * * * * * * * * * * * * * * * * * * * * * * * * * * * * * * * * * * * * //

dimensions      [0 0 0 1 0 0 0];


internalField   nonuniform List<scalar> 
80
(
619.31356
620.50808
622.84157
626.17727
613.24037
614.67267
617.48798
621.52665
600.25515
602.16143
606.01906
611.70868
578.71459
581.14589
586.47772
595.19218
339.15874
336.22875
336.27481
339.24947
402.22085
398.44362
398.64288
402.70501
453.38184
449.93234
450.46025
454.67834
494.27445
491.62048
492.91095
497.51839
525.56482
524.39316
527.39104
533.67177
546.69372
548.70679
554.79377
567.50317
339.15992
336.22653
336.26995
339.22612
402.22215
398.43912
398.64437
402.71668
453.3568
449.92027
450.46127
454.68492
494.22589
491.60032
492.90814
497.51394
525.52041
524.37088
527.38657
533.66268
546.66642
548.68851
554.78734
567.50431
578.63208
581.08596
586.45624
595.19791
600.18382
602.10677
605.9713
611.67112
613.14307
614.5948
617.41478
621.44035
619.20207
620.40327
622.73176
626.03937
)
;

boundaryField
{
    minY
    {
        type            fixedValue;
        value           uniform 300;
    }
    minZ
    {
        type            zeroGradient;
    }
    maxZ
    {
        type            zeroGradient;
    }
    heater_to_topAir
    {
        type            compressible::turbulentTemperatureCoupledBaffleMixed;
        refValue        nonuniform List<scalar> 
40
(
437.26026
439.28463
440.07468
439.65896
419.21957
417.39581
414.54047
411.21296
425.77384
425.39363
423.40359
419.70719
434.10005
437.07679
439.71397
441.71152
433.5462
435.7404
438.07861
440.60412
433.56293
435.75762
438.09418
440.50837
434.11558
437.07991
439.68661
441.6107
425.73405
425.31425
423.2536
419.45357
419.17608
417.33087
414.46262
411.13807
437.25581
439.26715
440.039
439.60284
)
;
        refGradient     uniform 0;
        valueFraction   nonuniform List<scalar> 
40
(
0.00032132529
0.00032132529
0.00032132529
0.00032132529
0.00032132529
0.00032132529
0.00032132529
0.00032132529
0.00032132529
0.00032132529
0.00032132529
0.00032132529
0.00032132529
0.00032132529
0.00032132529
0.00032132529
0.00032132529
0.00032132529
0.00032132529
0.00032132529
0.00032132529
0.00032132529
0.00032132529
0.00032132529
0.00032132529
0.00032132529
0.00032132529
0.00032132529
0.00032132529
0.00032132529
0.00032132529
0.00032132529
0.00032132529
0.00032132529
0.00032132529
0.00032132529
0.00032132529
0.00032132529
0.00032132529
0.00032132529
)
;
        value           nonuniform List<scalar> 
40
(
619.23757
620.43219
622.76489
626.09899
613.16105
614.59211
617.40526
621.44109
600.18318
602.08849
605.94381
611.62979
578.6538
581.08504
586.41547
595.12692
546.64533
548.65819
554.7434
567.44847
546.61808
548.63994
554.73701
567.44965
578.57134
581.02511
586.39397
595.13261
600.11177
602.03375
605.89594
611.59211
613.06364
614.51419
617.332
621.35478
619.12597
620.32734
622.65508
625.96112
)
;
        Tnbr            T;
        thicknessLayers List<scalar> 0();
        kappaLayers     List<scalar> 0();
        kappaMethod     solidThermo;
        kappa           none;
        alphaAni        none;
        alpha           none;
        field           T;
    }
    heater_to_rightSolid
    {
        type            compressible::turbulentTemperatureCoupledBaffleMixed;
        refValue        nonuniform List<scalar> 10(630.25229 626.47284 618.76424 607.07755 593.20895 593.21493 607.09909 618.74733 626.37729 630.10468);
        refGradient     uniform 0;
        valueFraction   nonuniform List<scalar> 10(0.49999997 0.49999997 0.49999997 0.49999997 0.49999997 0.49999997 0.49999997 0.49999997 0.49999997 0.49999997);
        value           nonuniform List<scalar> 10(628.20561 623.99075 615.22786 601.12689 580.3491 580.35269 601.14052 615.2006 623.89982 628.06285);
        Tnbr            T;
        thicknessLayers List<scalar> 0();
        kappaLayers     List<scalar> 0();
        kappaMethod     solidThermo;
        kappa           none;
        alphaAni        none;
        alpha           none;
        field           T;
    }
    heater_to_leftSolid
    {
        type            compressible::turbulentTemperatureCoupledBaffleMixed;
        refValue        nonuniform List<scalar> 10(669.38046 669.30917 669.13373 668.84174 668.58254 668.55276 668.77731 669.05469 669.21968 669.27034);
        refGradient     uniform 0;
        valueFraction   nonuniform List<scalar> 10(2.0832898e-05 2.0832898e-05 2.0832898e-05 2.0832898e-05 2.0832898e-05 2.0832898e-05 2.0832898e-05 2.0832898e-05 2.0832898e-05 2.0832898e-05);
        value           nonuniform List<scalar> 10(619.2971 613.22456 600.24068 578.70214 546.68423 546.65696 578.61965 600.16926 613.12713 619.18547);
        Tnbr            T;
        thicknessLayers List<scalar> 1(0.001);
        kappaLayers     List<scalar> 1(0.0005);
        kappaMethod     solidThermo;
        kappa           none;
        alphaAni        none;
        alpha           none;
        field           T;
    }
    heater_to_bottomWater
    {
        type            compressible::turbulentTemperatureCoupledBaffleMixed;
        refValue        nonuniform List<scalar> 
92
(
982.14317
980.64649
979.06684
982.60589
983.23253
981.98602
980.53293
980.59641
981.01597
979.61518
981.94829
981.71905
975.77483
973.81475
974.91847
975.72222
978.46936
977.77617
976.66377
976.0186
977.75624
976.66839
975.00221
975.05885
976.92859
975.89382
973.83889
972.92996
970.66683
970.66683
971.48912
971.48912
967.79272
967.79272
966.0947
966.0947
963.2641
957.2938
972.52555
974.11869
969.45761
971.25948
965.30058
967.9778
959.19861
956.1008
962.18443
980.50581
974.27877
975.37121
948.84103
979.25722
974.65381
980.05707
977.40036
977.25052
975.56149
979.35809
968.25789
977.01673
976.28871
976.82029
970.54378
978.33362
959.92218
975.24667
974.54799
975.70551
965.02496
976.47747
956.24508
965.38343
968.12781
969.5441
951.48531
969.2285
965.38343
968.12781
969.5441
969.2285
981.98213
982.51864
982.45869
981.44477
982.33869
984.16691
983.29624
980.42311
982.44419
981.30458
980.03894
978.56549
)
;
        refGradient     uniform 0;
        valueFraction   nonuniform List<scalar> 
92
(
0.0075140686
0.0075140686
0.0075140686
0.0075140686
0.0075140686
0.0075140686
0.0075140686
0.0075140686
0.0075140686
0.0075140686
0.0075140686
0.0075140686
0.0075140686
0.0075140686
0.0075140686
0.0075140686
0.0075140686
0.0075140686
0.0075140686
0.0075140686
0.0075140686
0.0075140686
0.0075140686
0.0075140686
0.0075140686
0.0075140686
0.0075140686
0.0075140686
0.0075140686
0.0075140686
0.0075140686
0.0075140686
0.0075140686
0.0075140686
0.0075140686
0.0075140686
0.0075140679
0.0075140679
0.0075140679
0.0075140679
0.0075140679
0.0075140679
0.0075140679
0.0075140679
0.0075140679
0.0075140679
0.0075140679
0.0075140686
0.0075140686
0.0075140686
0.0075140679
0.0075140686
0.0075140679
0.0075140686
0.0075140686
0.0075140686
0.0075140679
0.0075140686
0.0075140679
0.0075140686
0.0075140686
0.0075140686
0.0075140679
0.0075140686
0.0075140679
0.0075140686
0.0075140686
0.0075140686
0.0075140679
0.0075140686
0.0075140679
0.0075140686
0.0075140686
0.0075140686
0.0075140679
0.0075140686
0.0075140686
0.0075140686
0.0075140686
0.0075140686
0.0075140686
0.0075140686
0.0075140686
0.0075140686
0.0075140686
0.0075140686
0.0075140686
0.0075140686
0.0075140686
0.0075140686
0.0075140686
0.0075140686
)
;
        value           nonuniform List<scalar> 
92
(
622.02252
623.19665
625.50045
628.83729
616.00366
617.41564
620.19855
624.20687
603.10042
604.98162
608.82737
614.47189
343.94147
341.01867
341.07267
344.03113
406.54783
402.79365
402.98304
407.00989
457.31677
453.88488
454.39626
458.58314
497.89359
495.25162
496.51685
501.08284
581.64553
528.89955
584.0645
527.74264
589.32797
530.68994
597.96333
536.91046
343.84746
343.89266
406.50317
406.99561
457.25441
458.55459
497.80622
501.04563
528.81338
536.83537
343.84044
343.97811
341.01989
341.07122
343.80602
344.03457
406.52032
406.56093
402.78628
402.98891
407.01807
407.0466
457.22043
457.28624
453.86998
454.41092
458.55578
458.61432
497.71761
497.83276
495.22149
496.5281
501.01911
501.10517
528.74718
528.81585
527.6953
530.69872
536.79186
536.92519
581.52396
583.97975
589.31979
597.99257
603.0368
604.94912
608.78372
614.43251
615.90025
617.35469
620.1466
624.1199
621.91399
623.09751
625.39874
628.67007
)
;
        Tnbr            T;
        thicknessLayers List<scalar> 0();
        kappaLayers     List<scalar> 0();
        kappaMethod     solidThermo;
        kappa           none;
        alphaAni        none;
        alpha           none;
        field           T;
    }
}


// ************************************************************************* //
