/*--------------------------------*- C++ -*----------------------------------*\
| =========                 |                                                 |
| \\      /  F ield         | OpenFOAM: The Open Source CFD Toolbox           |
|  \\    /   O peration     | Version:  v2012                                 |
|   \\  /    A nd           | Website:  www.openfoam.com                      |
|    \\/     M anipulation  |                                                 |
\*---------------------------------------------------------------------------*/
FoamFile
{
    version     2.0;
    format      ascii;
    class       volScalarField;
    location    "10/heater";
    object      T;
}
// * * * * * * * * * * * * * * * * * * * * * * * * * * * * * * * * * * * * * //

dimensions      [0 0 0 1 0 0 0];


internalField   nonuniform List<scalar> 
80
(
338.0537
338.06162
338.07707
338.09812
337.67382
337.70355
337.76585
337.8586
336.54745
336.57933
336.75654
337.09203
334.36416
334.33273
334.68685
335.49427
316.84822
313.37581
313.37862
316.85492
334.81969
329.92811
329.9401
334.84855
343.00506
337.88164
337.91646
343.09013
344.47405
339.51418
339.6066
344.70685
340.79941
336.56734
336.79298
341.41619
331.35568
330.55871
331.02266
332.97993
316.8481
313.37572
313.37856
316.85488
334.81945
329.92796
329.94001
334.84855
343.00479
337.8815
337.91642
343.09021
344.47381
339.51409
339.60661
344.70701
340.79925
336.56733
336.79305
341.41639
331.35578
330.55884
331.02282
332.98009
334.36421
334.33279
334.68692
335.49433
336.54745
336.57934
336.75656
337.09205
337.67375
337.70352
337.76586
337.85864
338.05336
338.06151
338.07711
338.09834
)
;

boundaryField
{
    minY
    {
        type            fixedValue;
        value           uniform 300;
    }
    minZ
    {
        type            zeroGradient;
    }
    maxZ
    {
        type            zeroGradient;
    }
    heater_to_topAir
    {
        type            compressible::turbulentTemperatureCoupledBaffleMixed;
        refValue        nonuniform List<scalar> 
40
(
316.1293
316.81095
317.44606
318.03621
315.33828
315.91653
316.43948
316.90787
315.25838
315.80475
316.30608
316.76838
315.17632
315.64711
316.1041
316.5679
315.04425
315.36426
315.68929
316.08255
315.04425
315.36427
315.6893
316.08257
315.17633
315.64712
316.10411
316.56791
315.25838
315.80475
316.30608
316.76838
315.33828
315.91653
316.43948
316.90787
316.12928
316.81093
317.44604
318.03621
)
;
        refGradient     uniform 0;
        valueFraction   nonuniform List<scalar> 
40
(
0.00032132529
0.00032132529
0.00032132529
0.00032132529
0.00032132529
0.00032132529
0.00032132529
0.00032132529
0.00032132529
0.00032132529
0.00032132529
0.00032132529
0.00032132529
0.00032132529
0.00032132529
0.00032132529
0.00032132529
0.00032132529
0.00032132529
0.00032132529
0.00032132529
0.00032132529
0.00032132529
0.00032132529
0.00032132529
0.00032132529
0.00032132529
0.00032132529
0.00032132529
0.00032132529
0.00032132529
0.00032132529
0.00032132529
0.00032132529
0.00032132529
0.00032132529
0.00032132529
0.00032132529
0.00032132529
0.00032132529
)
;
        value           nonuniform List<scalar> 
40
(
337.96754
337.97557
337.991
338.01195
337.5879
337.61763
337.67976
337.77222
336.4629
336.49495
336.67185
337.00655
334.28076
334.24936
334.60314
335.40989
331.27237
330.47562
330.93933
332.8959
331.27247
330.47575
330.93948
332.89606
334.28081
334.24941
334.6032
335.40995
336.46291
336.49496
336.67186
337.00657
337.58783
337.6176
337.67978
337.77227
337.96721
337.97545
337.99105
338.01217
)
;
        Tnbr            T;
        thicknessLayers List<scalar> 0();
        kappaLayers     List<scalar> 0();
        kappaMethod     solidThermo;
        kappa           none;
        alphaAni        none;
        alpha           none;
        field           T;
    }
    heater_to_rightSolid
    {
        type            compressible::turbulentTemperatureCoupledBaffleMixed;
        refValue        nonuniform List<scalar> 10(338.12057 337.96624 337.47794 336.41925 335.10728 335.10734 336.41928 337.47796 337.96628 338.12068);
        refGradient     uniform 0;
        valueFraction   nonuniform List<scalar> 10(0.49999997 0.49999997 0.49999997 0.49999997 0.49999997 0.49999997 0.49999997 0.49999997 0.49999997 0.49999997);
        value           nonuniform List<scalar> 10(338.06947 337.87259 337.2455 335.9176 334.00429 334.0044 335.91764 337.24552 337.87263 338.06964);
        Tnbr            T;
        thicknessLayers List<scalar> 0();
        kappaLayers     List<scalar> 0();
        kappaMethod     solidThermo;
        kappa           none;
        alphaAni        none;
        alpha           none;
        field           T;
    }
    heater_to_leftSolid
    {
        type            compressible::turbulentTemperatureCoupledBaffleMixed;
        refValue        nonuniform List<scalar> 10(338.29199 338.3546 338.41711 338.31195 338.164 338.16399 338.31194 338.41711 338.3546 338.29199);
        refGradient     uniform 0;
        valueFraction   nonuniform List<scalar> 10(2.0832898e-05 2.0832898e-05 2.0832898e-05 2.0832898e-05 2.0832898e-05 2.0832898e-05 2.0832898e-05 2.0832898e-05 2.0832898e-05 2.0832898e-05);
        value           nonuniform List<scalar> 10(337.97457 337.59507 336.46976 334.28698 331.27773 331.27783 334.28703 336.46977 337.59499 337.97423);
        Tnbr            T;
        thicknessLayers List<scalar> 1(0.001);
        kappaLayers     List<scalar> 1(0.0005);
        kappaMethod     solidThermo;
        kappa           none;
        alphaAni        none;
        alpha           none;
        field           T;
    }
    heater_to_bottomWater
    {
        type            compressible::turbulentTemperatureCoupledBaffleMixed;
        refValue        nonuniform List<scalar> 
92
(
1042.8128
1042.9734
1042.9731
1042.8121
1052.8437
1055.0197
1055.0195
1052.845
1055.6138
1047.5402
1047.5413
1055.613
1052.6879
1051.9862
1051.9866
1052.6886
1054.0538
1051.1524
1051.1539
1054.0559
1055.1486
1048.7478
1048.7505
1055.1511
1045.785
1039.8257
1039.8305
1045.7877
1045.4982
1045.4982
1036.5768
1036.5768
1036.5811
1036.5811
1045.4961
1045.4961
1033.771
1033.7677
1039.1582
1039.1493
1041.4714
1041.4588
1034.9251
1034.9026
1040.2544
1040.227
1033.7711
1052.6879
1051.9862
1051.9866
1033.7677
1052.6886
1039.1581
1054.0538
1051.1523
1051.1539
1039.1493
1054.056
1041.4712
1055.1485
1048.7477
1048.7506
1041.4588
1055.1512
1034.9248
1045.7846
1039.8256
1039.8306
1034.9026
1045.7879
1040.2539
1045.4976
1036.5763
1036.5812
1040.227
1045.4961
1045.4976
1036.5763
1036.5812
1045.4961
1055.6136
1047.5401
1047.5412
1055.6129
1052.844
1055.0196
1055.0195
1052.8449
1042.8129
1042.9735
1042.9731
1042.8121
)
;
        refGradient     uniform 0;
        valueFraction   nonuniform List<scalar> 
92
(
0.0075140686
0.0075140686
0.0075140686
0.0075140686
0.0075140686
0.0075140686
0.0075140686
0.0075140686
0.0075140686
0.0075140686
0.0075140686
0.0075140686
0.0075140686
0.0075140686
0.0075140686
0.0075140686
0.0075140686
0.0075140686
0.0075140686
0.0075140686
0.0075140686
0.0075140686
0.0075140686
0.0075140686
0.0075140686
0.0075140686
0.0075140686
0.0075140686
0.0075140686
0.0075140686
0.0075140686
0.0075140686
0.0075140686
0.0075140686
0.0075140686
0.0075140686
0.0075140679
0.0075140679
0.0075140679
0.0075140679
0.0075140679
0.0075140679
0.0075140679
0.0075140679
0.0075140679
0.0075140679
0.0075140679
0.0075140686
0.0075140686
0.0075140686
0.0075140679
0.0075140686
0.0075140679
0.0075140686
0.0075140686
0.0075140686
0.0075140679
0.0075140686
0.0075140679
0.0075140686
0.0075140686
0.0075140686
0.0075140679
0.0075140686
0.0075140679
0.0075140686
0.0075140686
0.0075140686
0.0075140679
0.0075140686
0.0075140679
0.0075140686
0.0075140686
0.0075140686
0.0075140679
0.0075140686
0.0075140686
0.0075140686
0.0075140686
0.0075140686
0.0075140686
0.0075140686
0.0075140686
0.0075140686
0.0075140686
0.0075140686
0.0075140686
0.0075140686
0.0075140686
0.0075140686
0.0075140686
0.0075140686
)
;
        value           nonuniform List<scalar> 
92
(
343.27077
343.27972
343.29484
343.31424
342.96948
343.01516
343.07668
343.15198
341.87342
341.8444
342.01987
342.41267
322.3632
318.91129
318.91408
322.36983
340.18361
335.30646
335.31835
340.21221
348.29641
343.16284
343.19738
348.38074
349.67238
344.70478
344.79647
349.90326
339.63099
346.01827
339.53263
341.75068
339.88375
341.97453
340.75154
346.6301
322.22106
322.22766
340.07168
340.1002
348.19364
348.27786
349.59078
349.82147
345.97886
346.5905
322.22094
322.36308
318.9112
318.91401
322.22763
322.3698
340.07144
340.18337
335.30631
335.31826
340.1002
340.21221
348.19337
348.29615
343.16271
343.19733
348.27794
348.38083
349.59054
349.67215
344.7047
344.79648
349.82163
349.90342
345.97871
346.01811
341.75066
341.9746
346.5907
346.63029
339.63103
339.53268
339.88381
340.75159
341.87342
341.84441
342.01988
342.41268
342.96941
343.01513
343.07669
343.15203
343.27043
343.27961
343.29489
343.31446
)
;
        Tnbr            T;
        thicknessLayers List<scalar> 0();
        kappaLayers     List<scalar> 0();
        kappaMethod     solidThermo;
        kappa           none;
        alphaAni        none;
        alpha           none;
        field           T;
    }
}


// ************************************************************************* //
