/*--------------------------------*- C++ -*----------------------------------*\
| =========                 |                                                 |
| \\      /  F ield         | OpenFOAM: The Open Source CFD Toolbox           |
|  \\    /   O peration     | Version:  v2012                                 |
|   \\  /    A nd           | Website:  www.openfoam.com                      |
|    \\/     M anipulation  |                                                 |
\*---------------------------------------------------------------------------*/
FoamFile
{
    version     2.0;
    format      ascii;
    class       volScalarField;
    location    "8";
    object      p;
}
// * * * * * * * * * * * * * * * * * * * * * * * * * * * * * * * * * * * * * //

dimensions      [0 2 -2 0 0 0 0];


internalField   nonuniform List<scalar> 
64000
(
3.24756e-21
1.86e-21
-1.7155e-21
-2.67937e-21
-4.89255e-21
-1.92469e-21
1.84994e-23
-1.52938e-21
-1.20851e-21
-7.58627e-22
-1.83159e-21
-1.62936e-21
-1.60895e-21
-3.55383e-21
-1.7889e-21
-2.87369e-21
-1.44134e-21
1.93327e-22
1.90127e-21
2.47967e-21
-6.5435e-22
-4.50954e-21
-1.0553e-21
5.85293e-22
-4.23954e-21
-2.17142e-21
-6.07828e-22
-6.8847e-22
1.50698e-22
-2.18704e-21
-2.45166e-21
-3.81011e-22
-2.79485e-22
-4.97471e-22
1.77831e-22
-7.9476e-22
-1.42502e-22
1.51027e-21
1.27595e-21
1.35126e-21
2.05566e-22
-1.116e-21
-4.26488e-21
-3.49583e-21
-8.01803e-21
-6.29262e-21
-2.74425e-21
-1.87101e-21
-1.94904e-21
-4.06509e-21
-2.77931e-21
-4.61652e-21
-1.44641e-21
-8.72763e-22
-2.57577e-21
-4.20126e-21
-2.07488e-21
1.42417e-21
9.53906e-22
6.75323e-22
1.68504e-21
-2.82231e-22
-2.78614e-21
-7.08751e-21
-5.7644e-21
-2.49684e-22
1.34015e-22
-1.77739e-21
-6.505e-22
1.02207e-21
1.99229e-21
2.59988e-22
-1.41537e-22
6.64645e-23
-1.56775e-21
-6.88901e-22
5.15825e-22
1.01809e-21
1.45963e-21
1.52583e-21
-8.24541e-22
-8.54843e-22
-6.88284e-21
-5.07432e-21
-4.74396e-21
-6.61426e-21
-3.94835e-21
-4.46553e-21
-2.55121e-21
-2.01739e-21
-3.56118e-21
-4.61631e-21
-1.86533e-21
-1.73831e-21
-1.79868e-21
-5.06111e-22
-4.67972e-21
-1.64564e-21
-1.46011e-21
1.56549e-22
7.82483e-22
1.32382e-21
-1.90813e-21
-6.5416e-21
-1.35462e-21
-1.04884e-21
-1.27613e-21
-2.17483e-21
2.74989e-22
1.6477e-21
1.25236e-21
-5.52967e-23
1.09546e-21
4.3796e-22
5.60062e-22
1.38779e-21
-6.53646e-22
-7.33192e-22
-1.43865e-22
6.98947e-22
-4.1707e-21
-5.89129e-21
-4.99259e-21
-7.21405e-21
-4.50102e-21
-5.73323e-21
-4.56938e-21
-4.76008e-21
-5.14098e-21
-3.47809e-21
-1.86295e-21
-4.83997e-21
-5.18326e-21
-1.524e-21
-2.01664e-21
-3.7062e-21
-3.29061e-21
-2.66961e-21
-1.11367e-21
1.17102e-21
1.41367e-21
2.48502e-21
-1.98076e-21
-7.39878e-21
-2.10576e-21
-1.09403e-21
-6.6954e-22
8.43716e-23
2.57351e-22
7.47567e-22
1.41059e-21
7.43484e-23
-1.12801e-21
1.80617e-21
2.99054e-21
4.52632e-22
-1.02761e-21
-8.76501e-22
-1.42103e-21
4.70167e-23
-1.02085e-20
-7.58036e-21
-6.00984e-21
-4.77666e-21
-4.55831e-21
-4.4526e-21
-4.26123e-21
-5.04424e-21
-5.89589e-21
-4.45705e-21
-3.79209e-21
-4.34393e-21
-2.64957e-21
-6.95144e-22
-5.15127e-21
-8.3521e-21
-4.9657e-21
-4.31758e-22
1.08855e-21
1.05651e-21
2.77017e-21
-4.88611e-22
-5.55788e-21
-5.10802e-21
-1.663e-21
-4.54516e-22
1.48687e-22
-1.70743e-21
-6.30265e-22
1.81751e-21
2.50364e-21
6.67195e-22
1.62502e-22
9.25062e-22
-2.14843e-22
-1.51594e-22
-8.07942e-22
8.31237e-22
-9.52518e-22
8.14829e-22
-4.66904e-21
-5.58668e-21
-4.93819e-21
-5.23164e-21
-4.86788e-21
-4.62498e-21
-4.37511e-21
-5.20177e-21
-5.3433e-21
-4.12721e-21
-2.6883e-21
-4.40593e-21
-4.07165e-21
-1.72635e-21
-3.90544e-21
-8.15782e-21
-4.85505e-21
1.42088e-22
1.70976e-21
2.63395e-21
2.5194e-21
2.48153e-22
-8.54989e-21
-5.14203e-21
-2.13133e-21
1.2993e-22
-1.60298e-21
-1.53226e-21
6.85875e-22
1.36004e-21
1.53707e-21
5.43409e-24
9.79269e-22
9.32458e-22
-8.38262e-22
6.54306e-23
-2.75729e-22
-1.96884e-21
-7.57703e-22
8.81509e-22
-6.63426e-21
-7.23286e-21
-5.42204e-21
-6.7448e-21
-5.49984e-21
-4.7784e-21
-3.9811e-21
-4.98681e-21
-6.39026e-21
-3.70239e-21
-2.82147e-21
-4.01667e-21
-3.67018e-21
-3.82349e-21
-4.30765e-21
-4.23923e-21
-2.15073e-21
6.54611e-22
3.57406e-21
1.79401e-21
1.23139e-21
-4.80095e-22
-7.27753e-21
-5.82653e-21
-4.07838e-21
-1.91645e-21
-6.76075e-22
4.16507e-22
1.0801e-21
1.2815e-21
-1.12515e-21
-2.81888e-22
1.25014e-21
9.32079e-22
4.06544e-22
3.19737e-22
1.78173e-22
-2.68355e-21
-3.2215e-21
-2.70394e-22
-6.11377e-21
-7.57407e-21
-8.157e-21
-6.67512e-21
-5.79795e-21
-3.61731e-21
-3.62088e-21
-7.52436e-21
-4.79408e-21
-3.28211e-21
-4.9595e-21
-4.90655e-21
-4.5337e-21
-4.56725e-21
-3.83301e-21
-3.98916e-21
-1.57633e-21
1.81197e-21
2.83462e-21
3.90024e-21
1.49941e-22
-3.44506e-21
-6.25988e-21
-4.58548e-21
-3.08548e-21
-1.17049e-21
2.1897e-22
5.15661e-22
1.8307e-21
-1.26462e-22
-3.21011e-21
-1.11067e-21
4.89594e-22
-7.97434e-22
6.98691e-22
7.11192e-22
-8.49472e-22
-3.86975e-21
-1.93897e-21
1.64188e-22
-1.47633e-20
-1.05457e-20
-7.38021e-21
-8.51444e-21
-5.1474e-21
-3.12109e-21
-4.19926e-21
-5.09605e-21
-3.86319e-21
-6.76395e-21
-5.90684e-21
-6.986e-21
-1.49207e-21
-2.37995e-21
-3.54136e-21
-5.90288e-21
-3.29274e-21
3.39361e-21
1.97048e-21
2.40802e-21
8.30772e-22
-5.77963e-21
-5.61674e-21
-4.65103e-21
-6.51188e-22
-1.61124e-21
1.47478e-21
8.16873e-22
1.00943e-21
-6.09354e-22
1.9968e-22
-1.23557e-21
-2.71524e-21
-2.62311e-22
-4.42416e-23
7.95645e-22
5.49521e-22
-3.80233e-21
7.05886e-23
1.32105e-21
-7.43321e-21
-8.62394e-21
-8.90676e-21
-8.25805e-21
-7.26222e-21
-5.14109e-21
-3.66585e-21
-5.54397e-21
-3.95031e-21
-2.80591e-21
-4.2479e-21
-5.77006e-21
-3.34793e-21
-2.10281e-21
-5.03641e-21
-4.52836e-21
-3.2412e-21
1.00812e-22
2.68052e-21
4.0478e-21
2.59848e-21
-4.85443e-21
-6.90017e-21
-2.28947e-21
-2.19558e-21
-9.10435e-22
4.83653e-22
2.5468e-21
-2.0107e-21
-1.62461e-22
1.17118e-22
-6.63687e-22
-1.10173e-21
-2.13938e-21
-5.73574e-22
1.84384e-22
-1.49914e-21
-1.37488e-21
6.30943e-22
1.12591e-21
-6.88402e-21
-9.62379e-21
-9.14075e-21
-9.91143e-21
-6.73836e-21
-6.05855e-21
-6.90547e-21
-4.18859e-21
-3.78477e-21
-5.06774e-21
-4.37219e-21
-3.76124e-21
-3.70694e-21
-2.31427e-21
-4.08801e-21
-4.26513e-21
-1.10011e-21
6.46909e-22
4.45508e-21
2.78102e-21
-2.01813e-21
-7.69252e-21
-4.0423e-21
-3.16934e-21
-3.26742e-21
-2.02671e-21
1.59003e-22
1.99049e-21
-1.1702e-22
2.58673e-22
8.0973e-22
-2.00416e-21
7.73561e-23
2.64618e-22
-1.51731e-21
-1.76653e-21
-7.6335e-22
1.69328e-21
1.59811e-21
1.73009e-21
-8.01472e-21
-1.17554e-20
-1.06748e-20
-8.79297e-21
-5.36842e-21
-7.00954e-21
-8.33275e-21
-5.60263e-21
-3.42914e-21
-4.07796e-21
-5.16713e-21
-4.03141e-21
-5.61251e-21
-4.01818e-21
-2.6816e-21
-2.49218e-21
-2.19977e-21
2.88158e-22
1.64877e-21
4.68576e-21
-2.44864e-21
-5.51808e-21
-4.78563e-21
-5.77414e-21
-1.81716e-21
-1.14723e-21
2.77825e-22
3.11505e-22
3.99511e-22
1.8864e-21
1.28283e-21
-1.31955e-21
-9.89715e-22
1.23383e-21
-2.30976e-21
-1.39961e-21
1.9385e-21
2.0861e-21
1.04096e-21
-1.76892e-21
-1.12913e-20
-1.23657e-20
-1.13682e-20
-7.84569e-21
-7.34435e-21
-7.14668e-21
-7.36883e-21
-5.14958e-21
-4.56744e-21
-4.4471e-21
-5.03258e-21
-3.30699e-21
-4.54766e-21
-5.04037e-21
-3.35908e-21
-1.77021e-21
-1.67413e-22
-9.93703e-23
2.32718e-22
9.24636e-22
-6.12928e-22
-2.64238e-21
-2.54354e-21
-3.80229e-21
-2.70819e-21
8.80753e-22
2.77074e-22
-6.24345e-22
-5.15702e-22
1.3653e-22
-1.43759e-22
2.94849e-22
1.0841e-21
6.57474e-22
-9.00642e-22
-5.68765e-22
-6.98105e-24
-1.30588e-21
-1.21206e-21
-1.10878e-21
-1.14732e-20
-1.31558e-20
-1.21876e-20
-8.82181e-21
-7.19506e-21
-6.24482e-21
-6.30143e-21
-3.43967e-21
-7.09997e-21
-9.18645e-21
-4.73191e-21
-1.51917e-21
-4.59387e-21
-7.93957e-21
-2.27967e-21
-1.44414e-21
6.25203e-22
6.69672e-22
1.569e-21
2.67853e-21
-2.34967e-21
-4.79672e-21
-4.50548e-21
-5.9839e-21
4.65031e-23
1.42913e-21
6.27347e-23
-1.36905e-21
-1.96542e-21
-4.62987e-22
1.54123e-21
2.47951e-21
1.04337e-21
1.20691e-23
-2.97757e-21
3.04595e-22
-1.94441e-22
-8.29908e-22
-1.56399e-21
-1.76806e-22
-8.29369e-21
-1.50057e-20
-1.38046e-20
-7.48725e-21
-4.65684e-21
-6.44861e-21
-7.54575e-21
-7.15632e-21
-5.96796e-21
-5.45095e-21
-4.75245e-21
-3.64679e-21
-3.72962e-21
-3.59296e-21
-2.10586e-21
-1.96487e-21
-2.26083e-22
-3.41713e-22
-2.15769e-21
2.36521e-21
-3.27166e-21
-2.96725e-21
-3.46047e-21
-5.29335e-21
8.73211e-22
1.13781e-22
-7.73699e-22
-1.20236e-21
-2.87406e-21
-1.0479e-21
-1.20795e-22
2.39593e-21
1.59769e-21
6.59772e-22
-5.19678e-22
-3.06837e-21
4.26552e-22
-3.7943e-22
-1.79243e-21
1.61291e-21
-9.80098e-21
-1.33491e-20
-1.15895e-20
-7.99089e-21
-8.20171e-21
-5.6466e-21
-6.62701e-21
-7.7156e-21
-5.08549e-21
-3.35131e-21
-6.26566e-21
-4.47365e-21
-3.47544e-21
-1.37508e-21
-1.45932e-21
-2.41933e-21
-8.85025e-22
1.77255e-22
2.07813e-21
8.98745e-22
-3.53553e-21
-6.21249e-21
-4.31219e-21
-6.73591e-22
-8.8102e-22
-1.17012e-21
-1.33972e-21
-1.14314e-21
-1.32492e-21
-9.48433e-22
-2.0823e-21
1.79907e-21
1.92962e-21
7.97698e-22
7.44061e-22
-1.05004e-21
-1.39584e-21
-3.59878e-21
-2.77429e-21
5.55467e-22
-8.80586e-21
-1.06548e-20
-1.32268e-20
-7.69389e-21
-4.79659e-21
-6.37001e-21
-9.38581e-21
-9.01167e-21
-3.21557e-21
-3.92836e-21
-6.62826e-21
-2.0756e-21
-5.2656e-22
-1.68315e-21
-9.5805e-22
-7.42188e-22
-1.50294e-21
2.80688e-22
-9.73543e-22
-1.11993e-21
-5.13876e-21
-3.99144e-21
-2.74122e-21
-6.44656e-22
-9.07988e-22
4.6596e-22
-1.03842e-21
-7.89573e-23
2.05042e-22
-3.36329e-21
-3.77025e-21
9.19929e-22
3.3798e-21
1.72264e-21
-2.54248e-22
-2.71495e-22
-2.05962e-21
-2.99065e-21
-1.3249e-21
-1.49853e-21
-6.26142e-21
-9.70434e-21
-1.54132e-20
-8.72031e-21
-5.98849e-21
-4.34257e-21
-8.96141e-21
-7.84499e-21
-4.07965e-21
-3.43277e-21
-5.32577e-21
-2.69208e-21
1.01301e-21
-1.81582e-21
-2.55212e-21
-7.33655e-22
-7.75719e-22
-2.75727e-22
1.4442e-21
-1.31801e-21
-6.52186e-21
-7.73559e-21
-1.24436e-21
-2.93155e-22
1.21723e-21
-1.33407e-21
-1.25059e-22
-1.35815e-22
-1.98185e-21
-1.10054e-21
-6.20801e-22
1.15014e-22
1.04595e-21
3.39491e-22
-1.22967e-21
-1.37414e-21
-7.47906e-22
-1.04375e-21
-7.80805e-22
-8.26341e-22
-4.78852e-21
-7.74685e-21
-1.04573e-20
-8.83186e-21
-9.26543e-21
-7.36034e-21
-6.3121e-21
-4.45115e-21
-3.37711e-21
-4.34529e-21
-4.43131e-21
-3.55795e-21
8.93957e-22
-6.74874e-22
-2.82584e-21
-8.56017e-22
-1.65377e-21
-3.7056e-21
-3.23082e-21
-3.4737e-21
-3.01313e-21
-2.64278e-21
-2.1179e-21
-8.48504e-22
9.13856e-22
-4.5073e-22
2.9519e-22
1.89687e-21
3.27371e-22
-1.80903e-21
-3.14914e-21
-7.10311e-22
1.02738e-21
5.26018e-22
-2.11342e-21
-5.40311e-22
1.95468e-22
-7.99968e-22
-1.49403e-21
-1.47431e-21
-3.62071e-21
-7.31879e-21
-1.16665e-20
-8.69217e-21
-7.97909e-21
-5.96742e-21
-5.82325e-21
-6.51905e-21
-3.25924e-21
-2.93107e-21
-3.9059e-21
-2.6478e-21
-3.19311e-21
-2.90278e-21
-1.03503e-21
-4.63342e-22
-3.31781e-22
-1.64128e-21
-6.00691e-21
-3.30693e-21
-2.63203e-21
-3.88973e-21
-2.633e-21
-1.62959e-22
1.6281e-21
1.38633e-21
-4.02606e-21
2.18999e-22
1.35167e-21
-4.40873e-22
-1.81821e-21
4.22891e-22
1.84439e-21
-5.64132e-22
-4.73285e-21
-4.42857e-22
-1.78007e-21
-3.91601e-22
-8.09331e-22
-1.88582e-21
-5.32887e-21
-7.65218e-21
-1.10429e-20
-7.65033e-21
-8.35713e-21
-6.60629e-21
-5.26977e-21
-2.47768e-21
-1.06058e-21
-5.80284e-21
-7.85141e-21
-5.30305e-21
-1.81694e-21
-3.26412e-21
-1.77467e-21
-1.84767e-22
-1.12348e-21
3.13216e-22
-4.16763e-21
-1.80986e-21
-1.59368e-21
-3.75146e-21
-1.70286e-21
-2.07582e-21
-2.28763e-21
1.44009e-21
-4.15293e-22
-2.4407e-22
-5.31378e-22
-1.88806e-21
-8.16326e-22
7.71573e-22
3.90469e-22
1.50983e-21
-1.51615e-21
-4.0006e-21
-2.70914e-21
-8.98508e-22
-7.43502e-22
-2.17404e-21
-9.61571e-21
-1.01273e-20
-8.85727e-21
-6.9336e-21
-8.2952e-21
-5.60887e-21
-5.01438e-21
-3.92274e-21
-2.03781e-21
-5.99771e-21
-8.00164e-21
-6.55066e-21
-1.48623e-21
-6.22694e-21
-1.17788e-21
1.99871e-21
8.77343e-22
-1.1129e-21
-1.18193e-21
-8.29205e-22
-4.15612e-21
-3.3932e-21
-1.0947e-21
-2.42857e-21
-1.04425e-21
8.58876e-22
1.19993e-21
-3.38724e-21
-1.84233e-21
-1.67769e-21
-1.98073e-21
2.891e-21
3.74579e-22
-6.56473e-22
-1.66387e-21
-5.74573e-21
-1.11394e-21
1.00272e-21
1.25761e-21
-2.99678e-22
-1.14036e-20
-8.7394e-21
-8.42655e-21
-6.33785e-21
-5.21165e-21
-8.93222e-21
-4.77628e-21
-2.8444e-21
-6.25847e-21
-9.47244e-21
-7.84639e-21
-5.0051e-21
-2.22547e-21
-1.27321e-21
1.12512e-21
5.77525e-22
1.2739e-21
1.40106e-21
1.53091e-21
-2.43488e-21
-2.46661e-21
-3.26663e-21
-4.34581e-21
-6.55116e-21
-3.11776e-21
-3.67257e-22
4.75953e-22
-7.72454e-22
-1.53426e-21
-1.52615e-21
-2.56845e-21
-3.3855e-22
6.34257e-22
-2.83393e-22
1.36716e-21
-3.19471e-21
-4.34141e-22
3.60048e-21
-7.92343e-22
-1.69332e-21
-7.17273e-21
-7.92043e-21
-9.46333e-21
-6.01039e-21
-4.01494e-21
-6.95352e-21
-7.23436e-21
-9.66474e-21
-4.62599e-21
-5.69758e-21
-7.13405e-21
-5.07219e-21
4.74132e-22
-2.09908e-21
-1.61277e-21
7.16695e-22
6.98147e-22
2.83756e-22
5.42178e-22
5.39448e-23
-2.6154e-21
-2.26157e-21
-2.56749e-21
-4.0842e-21
-4.44193e-21
-2.54233e-21
8.22806e-23
9.42372e-22
1.14751e-21
-4.32409e-21
-2.02788e-21
-5.52211e-23
-1.90545e-21
-1.51949e-21
-8.04714e-22
-7.18107e-22
1.31987e-21
2.37634e-21
-1.09494e-23
-1.48466e-21
-1.01782e-21
-5.77323e-21
-7.88451e-21
-7.851e-21
-5.7935e-21
-5.56928e-21
-6.16004e-21
-7.72833e-21
-3.65763e-21
-5.65343e-21
-9.43794e-21
-6.33727e-21
-2.43595e-21
-2.71821e-21
-2.10205e-21
8.17292e-22
1.01676e-21
4.63388e-22
2.01053e-21
2.45558e-21
-1.03033e-21
-2.75107e-21
-6.72639e-22
-6.32383e-21
-5.01439e-21
-2.84951e-21
-2.16588e-21
3.03615e-22
-1.99206e-21
-1.89137e-21
-5.35434e-22
1.99143e-22
-2.65042e-21
-1.40119e-21
-2.38071e-21
-7.94027e-22
2.43428e-21
9.19578e-22
-9.1802e-23
6.77989e-22
-3.97642e-21
-5.61262e-21
-6.67218e-21
-6.52353e-21
-6.66466e-21
-3.76289e-21
-5.0091e-21
-7.57681e-21
-3.35381e-21
-1.88191e-21
-1.0053e-20
-8.00164e-21
-3.9686e-21
-4.19926e-21
6.93875e-22
8.42798e-22
7.29444e-22
2.85128e-22
2.64729e-21
2.44132e-21
7.67479e-22
-1.63799e-21
-4.42109e-21
-6.45459e-21
-3.95934e-21
-3.93163e-21
-4.3593e-22
-1.14005e-21
-4.78003e-21
-6.9066e-24
5.83843e-22
-1.68187e-21
-3.47982e-21
-6.16728e-22
1.171e-21
-6.25843e-22
7.59647e-22
-1.64443e-21
7.50502e-22
1.90809e-21
-5.92274e-23
-3.07e-21
-6.87393e-21
-8.90676e-21
-4.64443e-21
-5.94037e-21
-4.34752e-21
-6.18785e-21
-3.50052e-21
-4.41249e-21
-4.35011e-21
-4.7413e-21
-4.05554e-21
-4.04102e-21
-5.08765e-21
-3.01551e-22
-7.64739e-23
7.77689e-22
6.07112e-21
5.86587e-21
-1.74378e-21
-5.97516e-21
-3.51626e-21
-3.07467e-21
-3.71426e-21
-3.81945e-21
1.62487e-21
-1.2576e-22
-5.15159e-21
-2.31584e-21
3.1085e-22
-6.85625e-22
-5.51892e-22
-1.3261e-21
2.98616e-23
-4.72755e-22
-1.12676e-21
-2.2041e-21
-2.82165e-22
1.7045e-21
-1.96621e-21
-6.15655e-21
-6.92057e-21
-7.66803e-21
-3.08036e-21
-4.39808e-21
-3.79806e-21
-6.75115e-21
-4.73251e-21
-4.38572e-21
-3.85834e-21
-3.33529e-21
-1.06325e-21
-3.15585e-21
-5.00051e-21
-1.54993e-21
-8.04856e-22
1.26116e-21
4.99913e-21
4.93662e-21
-2.87872e-21
-4.28141e-21
-2.94025e-21
-4.92304e-21
-2.20398e-21
6.17066e-24
4.79316e-22
-2.11061e-21
-4.56726e-21
-3.02048e-21
1.07588e-22
-3.47772e-22
-7.15426e-22
-4.06373e-22
-6.16027e-22
-2.28852e-21
-2.04716e-21
-1.35514e-21
-6.03049e-22
6.20959e-22
-3.13506e-21
-7.79334e-21
-7.6131e-21
-5.65715e-21
-5.30135e-21
-5.64604e-21
-5.63308e-21
-3.7548e-21
-3.56727e-21
-4.1659e-21
-3.94591e-21
-2.02454e-21
-1.77096e-21
-2.17487e-21
-3.62724e-21
-1.9003e-21
1.27015e-21
3.3215e-21
2.36136e-21
2.03464e-21
-3.12053e-21
-6.53356e-21
-3.41109e-21
-2.20474e-21
-1.35383e-21
-9.30529e-22
-1.25409e-21
-3.86734e-21
-2.96111e-21
-1.51818e-21
2.79548e-21
5.93748e-24
4.19888e-22
-9.87302e-23
-1.82641e-21
-3.99667e-21
-1.81701e-21
-1.18031e-21
-5.50903e-22
4.77986e-22
-4.47238e-21
-6.62579e-21
-6.23636e-21
-7.37393e-21
-7.26765e-21
-4.63893e-21
-4.2519e-21
-3.01564e-21
-2.24925e-21
-3.53995e-21
-6.43324e-21
-2.17321e-21
4.2766e-22
-2.64302e-22
-3.47053e-21
-5.46091e-21
-2.13738e-21
1.46863e-21
5.88892e-21
4.4642e-21
-2.52576e-21
-5.62074e-21
-3.3073e-21
-2.33733e-21
-3.2708e-21
-2.84268e-21
-1.17035e-21
1.79242e-21
-1.70659e-21
5.84524e-22
9.92477e-22
-1.34923e-21
-6.16541e-22
-2.98439e-22
-1.59196e-21
-3.89333e-21
-1.4986e-21
-3.6369e-21
1.00722e-21
7.98278e-22
-7.46849e-21
-6.61163e-21
-4.56933e-21
-6.35357e-21
-7.29775e-21
-5.45547e-21
-2.13509e-21
-3.56117e-21
-2.97414e-21
-2.47019e-22
-2.13251e-21
-1.48958e-21
-2.90729e-21
1.86199e-22
2.41103e-22
-7.07186e-21
-4.45648e-21
1.37392e-21
3.76926e-21
2.69193e-21
1.51375e-21
-2.92025e-21
-4.80485e-21
-2.23589e-21
-2.60999e-21
-1.82987e-21
-2.28598e-21
4.55956e-23
-6.82773e-22
-8.88746e-23
-1.42956e-21
-3.45734e-22
9.06269e-22
-3.19117e-23
-1.98141e-21
-3.17242e-21
-3.06625e-21
-3.59288e-21
-4.79496e-22
3.25343e-22
-1.16863e-20
-9.31389e-21
-5.33902e-21
-5.35452e-21
-4.58811e-21
-3.37854e-21
-3.13208e-21
-5.15812e-21
-4.14946e-21
1.85273e-21
1.92702e-21
-5.03219e-21
-2.04164e-21
3.5244e-22
-1.60226e-21
-4.75262e-21
-1.75001e-21
1.73711e-21
2.21181e-21
2.96788e-22
1.75013e-21
-9.87415e-22
-5.81637e-21
-4.48561e-21
-2.26837e-21
-5.24637e-23
-7.79971e-22
-6.62534e-22
1.18445e-21
1.61058e-21
-4.1875e-21
-1.23779e-21
2.03491e-21
-4.07792e-22
-3.38838e-21
-4.01705e-21
-3.31246e-21
-1.47389e-21
2.16894e-21
1.18569e-21
-9.13185e-21
-6.11391e-21
-4.12527e-21
-3.97953e-21
-6.48689e-21
-2.97494e-21
-1.37817e-21
-5.62687e-21
-3.28938e-21
-6.88154e-22
-9.30653e-22
-1.14504e-21
-3.01898e-21
-2.87464e-22
7.72884e-22
-3.39112e-21
-1.28837e-21
-1.17273e-21
2.8921e-21
1.86575e-22
1.77525e-21
-3.93175e-22
-4.04652e-21
-3.49381e-21
-6.27956e-21
-3.74841e-21
1.12331e-21
3.44363e-22
8.86794e-22
-1.21911e-21
-9.38468e-22
2.06929e-24
2.13637e-21
-3.27397e-22
-9.99509e-22
-1.76074e-21
-2.58667e-21
-4.57154e-21
-1.49442e-21
-1.07311e-21
-8.43014e-21
-5.22668e-21
-3.75417e-21
-5.34205e-21
-4.55764e-21
-2.10834e-21
-1.04778e-21
-1.58635e-21
-3.47144e-21
-2.30775e-21
-2.52936e-21
-2.55681e-21
-3.97361e-21
-1.82689e-22
1.52539e-22
-1.09722e-21
-1.57078e-21
-5.25715e-22
5.22019e-22
2.40748e-21
3.52464e-21
-2.36341e-21
-2.19069e-21
-5.59356e-21
-4.65022e-21
-1.77914e-21
-1.10466e-21
-1.0105e-21
1.50803e-22
-6.56476e-22
-7.84998e-22
1.73334e-21
3.10186e-21
7.26247e-22
2.30335e-22
-4.00054e-21
-2.67257e-21
4.99936e-22
-1.5805e-21
-3.01266e-21
-8.87882e-21
-4.71706e-21
-2.2933e-21
-3.32019e-21
-2.59821e-21
-4.71558e-21
-3.26091e-21
-2.26232e-21
-4.34005e-21
-2.45736e-21
-1.50058e-21
-3.19573e-21
1.72392e-23
3.50013e-21
-5.30804e-22
-4.69387e-21
-4.6599e-21
-2.15528e-22
2.94795e-21
2.87675e-21
2.65937e-21
-2.79276e-21
-3.69694e-21
-3.56344e-21
-3.0786e-21
-1.27182e-21
-2.04967e-21
-4.16287e-21
-6.37304e-22
-6.47166e-22
8.32655e-22
1.45251e-21
1.58209e-21
-1.70677e-22
-1.17643e-21
-3.69175e-21
2.96037e-22
2.42601e-21
-3.25915e-23
-1.40199e-21
-4.50314e-21
-3.79071e-21
-2.99278e-21
-2.64193e-21
-2.36958e-21
-5.5964e-21
-3.63422e-21
-1.39642e-21
-2.39052e-21
-2.38889e-21
-3.34244e-21
-1.059e-21
-7.352e-22
3.8463e-22
9.06025e-22
-3.41014e-21
-3.14089e-21
1.13641e-21
3.44131e-21
2.15093e-21
1.94052e-21
-5.50007e-21
-3.81445e-21
-1.60289e-21
-2.52718e-22
-7.04771e-22
-8.48012e-22
-1.3774e-21
-1.78381e-21
-1.3734e-21
5.74204e-22
1.0819e-21
-4.90688e-22
2.90613e-22
1.65603e-21
-1.33429e-21
1.36182e-21
2.12054e-21
-1.1938e-21
-3.11688e-21
-3.5881e-21
-3.30501e-21
-5.01115e-22
-4.98941e-21
-1.60821e-21
-6.1742e-21
-3.3646e-21
-2.74075e-21
-1.88135e-21
-1.8804e-21
-3.42065e-21
-2.1081e-21
-1.18515e-22
6.39845e-22
-2.25485e-21
-1.0187e-21
-1.59003e-21
2.06167e-21
3.87253e-21
1.64189e-21
1.83503e-21
-4.48245e-21
-2.13324e-21
-1.73588e-21
-2.49304e-21
-1.76794e-21
-1.41425e-21
1.24419e-22
1.00446e-21
-1.71862e-21
-5.85978e-22
-2.03872e-23
1.27738e-21
5.86811e-22
-4.89722e-23
-4.06775e-22
2.74152e-21
2.71609e-21
-2.71335e-21
-2.44967e-21
-3.19521e-21
-3.07723e-21
-3.15737e-21
-2.29952e-21
-3.40619e-21
-5.98906e-21
-3.01899e-21
-2.18808e-21
-1.65851e-21
-2.69256e-21
-1.34284e-21
-1.92408e-21
8.42424e-22
2.13031e-22
-1.44779e-21
5.78778e-22
6.6854e-22
5.58359e-22
3.14286e-21
4.39262e-21
3.61295e-22
-2.43444e-21
-3.42488e-21
-4.14392e-21
-9.06899e-22
1.09053e-21
-2.90627e-21
-1.28191e-21
5.58553e-22
-1.59496e-21
-1.73561e-21
-4.42626e-22
2.22615e-22
1.1224e-21
2.09352e-22
3.95088e-22
5.35203e-22
2.9827e-21
-1.37431e-21
-2.42464e-21
-1.72252e-21
-7.58066e-22
-2.40002e-21
-4.34189e-21
-3.76066e-21
-4.29356e-21
-2.31413e-21
-1.25983e-21
-1.29351e-22
-2.72718e-21
-9.00404e-22
1.47978e-21
1.44834e-21
-1.09866e-22
-2.13206e-21
-6.6248e-22
-9.85416e-22
1.15482e-21
1.15876e-21
9.35525e-22
1.92253e-21
9.66533e-23
-3.72142e-21
-3.7796e-21
-3.43651e-21
8.01683e-22
1.174e-21
1.62914e-21
-3.61823e-21
-4.12074e-21
6.37271e-23
-9.46801e-22
-4.39582e-22
7.50717e-22
6.87678e-22
-5.95414e-22
-1.13537e-21
8.79787e-22
-3.16621e-22
-1.95188e-22
-5.25614e-21
-1.37864e-21
-1.47018e-21
1.08725e-21
1.31942e-21
-1.4618e-21
-4.38501e-21
-2.55e-21
-5.49711e-22
-2.1943e-21
-2.25025e-21
1.95277e-21
1.2375e-21
-6.50127e-22
-1.13654e-21
-1.56371e-21
-1.64493e-21
-1.00613e-21
1.61767e-21
1.11691e-21
6.14667e-22
-8.72009e-22
-1.79288e-21
-1.2243e-21
-1.36191e-21
9.98099e-23
3.76799e-22
7.53071e-22
-1.84127e-21
-8.10047e-22
-8.4752e-22
3.44027e-22
-8.38581e-22
-1.3274e-21
5.43457e-23
-1.42981e-21
-2.9762e-21
-1.17808e-21
5.56609e-22
1.03445e-21
2.0482e-21
6.55072e-22
-7.79505e-21
-4.88942e-21
-2.21554e-21
-4.03447e-21
-1.97074e-21
-2.93204e-22
-2.81736e-21
-3.81131e-21
-3.24164e-21
-4.04248e-21
-2.89298e-21
-1.6781e-21
-2.54817e-21
-3.17717e-21
-1.35746e-21
-5.00959e-22
1.86123e-21
1.24906e-21
-1.09682e-21
-2.12681e-21
-1.65942e-21
-9.01135e-22
-2.21999e-21
-1.35515e-21
-1.23981e-21
-2.09338e-21
-2.92976e-21
-3.52615e-21
-4.20099e-21
3.08773e-22
-3.242e-21
1.50853e-21
4.08275e-22
-9.45557e-24
2.31712e-21
5.63414e-22
-5.63565e-22
7.26015e-22
-1.85462e-21
-4.01706e-21
-8.81567e-21
-7.72537e-21
-2.68358e-21
-3.47681e-21
-3.06752e-21
-4.06543e-21
-5.12853e-21
-5.29308e-21
-5.43323e-21
-4.25881e-21
-5.50044e-21
-3.74388e-21
-3.85886e-21
-1.20042e-21
4.51048e-22
-2.36685e-21
-2.05439e-22
7.07596e-22
-2.274e-22
-1.51291e-21
-1.89093e-21
-2.37355e-21
-1.62732e-21
-1.00419e-21
1.04371e-21
-8.2188e-22
-3.63942e-21
-1.50114e-21
-7.34301e-22
-2.17122e-22
-3.47826e-21
1.28476e-22
-6.07718e-23
-3.78062e-22
9.4366e-22
1.68114e-21
1.66061e-22
-7.36693e-23
-5.08175e-21
-4.96109e-21
-7.15288e-21
-6.13999e-21
-4.57532e-21
-3.2037e-21
-4.38725e-21
-9.68814e-21
-5.65744e-21
-2.58862e-21
-4.75284e-21
-5.87277e-21
-3.95985e-21
-2.88536e-21
-3.08026e-21
-2.97686e-21
-2.21913e-21
-1.91085e-21
-4.05997e-22
3.38216e-22
-1.83319e-21
-1.88058e-21
-8.85045e-22
-1.60753e-21
-1.60699e-21
3.70409e-22
1.47546e-21
-4.34927e-21
-2.11665e-21
-1.15069e-21
-5.41477e-22
-1.68713e-21
-5.12931e-22
1.53256e-21
-1.75729e-21
-5.75349e-23
1.09734e-21
2.06539e-21
1.06648e-22
7.34855e-23
-9.17246e-21
-8.89175e-21
-6.60075e-21
-6.20498e-21
-5.37083e-21
-5.73189e-21
-6.78589e-21
-5.85073e-21
-8.05013e-21
-3.67156e-21
-3.47096e-21
-7.07269e-21
-5.41228e-21
-2.17845e-21
-3.90753e-21
-4.31982e-21
-3.20909e-21
-3.4536e-21
-6.11067e-22
4.23533e-22
-1.65813e-21
-2.19358e-21
-3.28984e-21
-4.17181e-21
-1.71919e-21
5.72227e-22
6.19153e-23
7.77419e-22
-2.10445e-21
-3.05814e-21
4.10386e-22
-7.02105e-22
-1.71609e-21
1.41118e-21
1.45609e-21
2.46943e-22
-5.80272e-22
1.75632e-22
-5.61633e-22
1.03771e-22
-9.95515e-21
-9.60466e-21
-7.20092e-21
-5.89429e-21
-8.03171e-21
-5.80191e-21
-4.8939e-21
-5.8033e-21
-5.90128e-21
-6.50191e-21
-6.61946e-21
-6.7963e-21
-3.24039e-21
-3.90986e-21
-6.18448e-21
-7.10462e-21
-5.59677e-21
-3.41375e-21
9.52819e-22
6.95932e-22
2.03483e-22
-1.8233e-21
-3.13463e-21
-3.42125e-21
-7.91349e-22
7.54036e-22
-1.16217e-21
-1.91906e-21
-1.48866e-21
-2.13792e-22
1.92e-22
-6.52609e-22
-8.79902e-23
1.43667e-21
1.13844e-21
8.0902e-23
-1.39116e-23
-9.78828e-22
-1.00118e-21
-4.09827e-22
-9.33483e-21
-9.85018e-21
-6.52723e-21
-5.76575e-21
-8.7894e-21
-6.34457e-21
-4.23865e-21
-7.007e-21
-6.90021e-21
-7.5378e-21
-6.19486e-21
-7.36882e-21
-4.01216e-21
-4.29049e-21
-7.06747e-21
-6.5753e-21
-4.97001e-21
-2.65616e-21
-2.26797e-23
1.80805e-21
-5.33891e-22
-2.7081e-21
-4.01946e-21
-2.89031e-21
-9.08201e-22
4.90837e-22
1.02412e-21
-1.23253e-21
-2.4478e-21
-1.41577e-22
-1.40555e-21
-6.82126e-22
1.54358e-21
3.21521e-21
5.60402e-22
-4.41303e-22
-5.84314e-22
-1.83496e-21
-7.49802e-22
3.20102e-22
-1.14389e-20
-1.27245e-20
-8.64976e-21
-8.66304e-21
-8.15151e-21
-3.77018e-21
-5.45686e-21
-6.6113e-21
-7.90236e-21
-9.45314e-21
-7.75744e-21
-5.37332e-21
-1.98569e-21
-4.00136e-21
-8.18477e-21
-7.25211e-21
-2.62865e-21
-7.67332e-22
9.35688e-22
3.41122e-22
-1.21294e-21
-1.02418e-21
-3.86344e-21
-4.79968e-21
-2.22164e-21
-4.01225e-22
-2.58812e-22
-1.35412e-21
9.39575e-22
1.35647e-21
7.45147e-22
-1.12676e-21
7.89104e-22
1.97653e-21
6.31818e-22
4.47844e-22
4.95209e-22
-2.66241e-21
-2.6656e-21
1.16709e-21
-9.81471e-21
-1.25821e-20
-1.11819e-20
-1.11384e-20
-8.24794e-21
-4.76084e-21
-6.93002e-21
-7.69552e-21
-6.68449e-21
-5.07784e-21
-8.53948e-21
-7.79728e-21
-4.73256e-21
-2.75873e-21
-5.85072e-21
-5.61436e-21
-1.393e-21
-4.92562e-22
9.23747e-22
3.7692e-22
-1.56793e-21
-3.88784e-21
-4.75928e-21
-1.75577e-21
-2.3172e-21
5.51507e-22
6.36928e-22
-5.65885e-22
3.56479e-22
7.39021e-23
-2.37112e-21
-9.96622e-22
-3.54024e-22
8.18391e-22
-2.44193e-22
5.27908e-22
1.10378e-21
-9.48239e-22
-2.14414e-21
-3.68624e-23
-1.22169e-20
-1.45744e-20
-1.35828e-20
-1.19502e-20
-9.89628e-21
-4.37134e-21
-8.27263e-21
-6.47459e-21
-6.11943e-21
-6.81846e-21
-6.97769e-21
-9.58412e-21
-4.91083e-21
-3.49539e-21
-3.32616e-21
-4.596e-21
-3.23701e-21
-5.82313e-22
1.21293e-21
-8.01229e-22
2.77409e-22
-3.16204e-21
-3.08584e-21
-4.04339e-21
-1.00583e-21
1.11124e-21
-1.88731e-21
-1.88092e-21
4.32106e-21
1.01946e-21
-2.0014e-21
-2.24449e-21
-2.3755e-21
1.09679e-21
-4.6474e-22
6.43246e-22
1.48518e-21
-2.04065e-21
-1.43147e-21
-1.54711e-21
-1.57077e-20
-1.3135e-20
-1.26533e-20
-1.39636e-20
-1.05346e-20
-6.51412e-21
-8.67476e-21
-8.66417e-21
-4.65157e-21
-5.35254e-21
-6.87734e-21
-7.92151e-21
-4.80289e-21
-2.23823e-21
-6.22218e-21
-4.1445e-21
-2.86533e-21
-8.301e-22
1.35833e-21
2.34436e-21
-7.31422e-22
-4.3002e-21
-3.92199e-21
-4.80525e-21
-8.33504e-22
4.14113e-23
2.42215e-22
-6.08173e-22
1.21169e-21
6.22002e-22
-9.98439e-23
1.19723e-22
-1.81891e-21
-1.77891e-21
6.31948e-23
-8.84331e-22
1.63385e-22
-1.14335e-21
4.5593e-22
-4.41091e-22
-1.60755e-20
-1.7218e-20
-1.55135e-20
-1.31473e-20
-1.00133e-20
-5.73222e-21
-1.03291e-20
-8.8523e-21
-7.56355e-21
-5.72866e-21
-6.89367e-21
-6.12734e-21
-5.82888e-21
-2.6054e-21
-7.28808e-21
-5.08931e-21
-3.17518e-22
-4.80064e-22
1.06215e-21
2.74572e-21
-3.85274e-21
-3.49576e-21
-3.79565e-21
-5.41409e-21
-3.17663e-21
7.38323e-23
4.2298e-22
-1.6045e-21
8.71535e-22
1.08609e-21
4.38604e-22
-8.87031e-23
4.04999e-22
-9.00713e-22
2.59107e-22
-4.60598e-22
-8.03037e-22
-6.74017e-22
-1.20121e-21
-9.07658e-22
-1.8566e-20
-2.06981e-20
-1.39549e-20
-1.34349e-20
-1.0316e-20
-7.8989e-21
-1.07509e-20
-7.58149e-21
-7.00608e-21
-7.0489e-21
-7.44878e-21
-6.83906e-21
-6.61502e-21
-5.03951e-21
-6.26267e-21
-4.14833e-21
-2.22952e-21
-1.50191e-21
4.98001e-22
2.04132e-21
-8.42371e-22
-3.44816e-21
-4.64737e-21
-2.52507e-21
-3.87035e-21
-1.79833e-21
-1.89245e-21
2.8406e-22
2.32572e-21
3.37237e-22
3.23864e-21
-2.33008e-22
-2.29409e-21
-1.07851e-21
-1.43277e-21
-6.57597e-22
2.17875e-21
4.65869e-22
-2.05825e-21
-1.52069e-21
-1.88755e-20
-1.81836e-20
-1.43195e-20
-1.39162e-20
-1.26347e-20
-1.08398e-20
-6.22876e-21
-6.01602e-21
-7.41184e-21
-7.37076e-21
-7.08033e-21
-6.84562e-21
-6.56199e-21
-5.37957e-21
-5.89645e-21
-2.79546e-21
-1.53595e-21
-2.90482e-21
-3.25212e-21
8.74839e-22
-1.29086e-21
-2.2257e-22
-2.9492e-21
-2.85324e-21
-2.39569e-21
-9.9695e-22
-3.24474e-21
-6.93256e-22
7.59953e-22
2.02779e-21
1.24945e-21
1.02545e-21
-1.01005e-21
-2.02869e-21
-3.19652e-21
-1.28381e-21
1.77478e-21
-9.86733e-22
-3.66527e-21
1.29067e-21
-2.09532e-20
-2.01984e-20
-1.62287e-20
-1.37129e-20
-1.18897e-20
-9.73336e-21
-7.88709e-21
-4.86391e-21
-8.12594e-21
-8.44696e-21
-8.13841e-21
-5.28043e-21
-7.76066e-21
-7.49034e-21
-4.56822e-21
-3.78794e-21
2.97454e-24
-1.35546e-21
-6.00421e-22
1.22903e-21
-3.11637e-21
-2.49869e-21
-2.58783e-21
-5.92466e-21
-3.6613e-21
-1.47225e-21
-9.70449e-22
-3.82266e-22
-8.53474e-22
8.36821e-22
1.76887e-21
2.79271e-21
-4.26326e-22
-1.08941e-21
-2.58396e-21
-7.66798e-22
1.36369e-21
-1.86189e-21
-3.25696e-21
1.19728e-21
-2.19901e-20
-1.92772e-20
-1.5964e-20
-1.15012e-20
-1.10153e-20
-9.22814e-21
-9.42815e-21
-6.84277e-21
-7.83158e-21
-7.20134e-21
-7.18044e-21
-5.99454e-21
-7.83879e-21
-5.86238e-21
-5.02723e-21
-1.6941e-21
6.98265e-22
3.28517e-23
-2.12246e-21
-1.70718e-21
-3.97759e-21
-3.93001e-21
-4.32812e-21
-3.94607e-21
-2.10612e-21
-1.90087e-21
-1.03998e-21
6.35946e-23
-1.2576e-21
-1.14812e-21
-1.34067e-21
2.09873e-21
2.44435e-21
3.26599e-22
-3.23075e-21
-5.65756e-21
-5.28986e-22
1.3941e-21
-8.37427e-22
4.16855e-22
-1.89726e-20
-1.71905e-20
-1.55456e-20
-1.45386e-20
-1.2185e-20
-1.11039e-20
-1.00214e-20
-8.10489e-21
-6.27767e-21
-6.8584e-21
-7.88051e-21
-8.021e-21
-9.43241e-21
-2.53395e-21
-1.05792e-21
-1.35777e-21
-4.02984e-23
-8.82895e-22
-4.23928e-22
-1.75651e-21
-4.74953e-21
-5.40103e-21
-5.46149e-21
-3.38684e-21
-1.62733e-21
-2.17379e-21
-4.08833e-22
1.33894e-21
-1.80339e-21
-1.08006e-21
-1.7127e-21
2.28378e-21
3.27784e-21
1.49177e-22
-1.84345e-21
-5.29039e-21
-1.88196e-21
-6.40299e-22
-1.56156e-21
-1.62627e-22
-1.72823e-20
-1.65431e-20
-1.40947e-20
-1.21286e-20
-1.28456e-20
-1.05396e-20
-1.05289e-20
-9.33522e-21
-6.4504e-21
-5.82719e-21
-7.28483e-21
-6.42088e-21
-7.74219e-21
-4.78413e-21
-1.30537e-21
1.41346e-21
-1.05371e-21
-7.98458e-22
-3.60709e-21
-3.25807e-21
-5.09342e-21
-2.77894e-21
-2.70257e-21
-4.70149e-21
-1.20579e-21
-2.25748e-21
1.72075e-22
1.74177e-21
-2.3482e-21
-1.30735e-21
-2.01274e-21
5.52485e-22
3.5976e-21
1.06397e-21
-1.25766e-21
-4.27235e-21
-9.42387e-22
-1.2653e-21
-1.82597e-22
7.57181e-22
-1.50702e-20
-1.63108e-20
-1.8354e-20
-1.40392e-20
-1.12692e-20
-1.13176e-20
-1.04418e-20
-6.68726e-21
-6.56647e-21
-8.55585e-21
-7.48839e-21
-4.73129e-21
-6.26983e-21
-4.52593e-21
-1.73468e-21
-1.0317e-21
-2.07088e-21
-2.32733e-22
6.50069e-22
-2.87281e-21
-5.94905e-21
-7.42464e-21
-3.87794e-21