/*--------------------------------*- C++ -*----------------------------------*\
| =========                 |                                                 |
| \\      /  F ield         | OpenFOAM: The Open Source CFD Toolbox           |
|  \\    /   O peration     | Version:  v2012                                 |
|   \\  /    A nd           | Website:  www.openfoam.com                      |
|    \\/     M anipulation  |                                                 |
\*---------------------------------------------------------------------------*/
FoamFile
{
    version     2.0;
    format      ascii;
    class       surfaceScalarField;
    location    "8";
    object      phi;
}
// * * * * * * * * * * * * * * * * * * * * * * * * * * * * * * * * * * * * * //

dimensions      [0 3 -1 0 0 0 0];
oriented        oriented;


internalField   nonuniform List<scalar> 
187200
(
1.875e-06
1.37146e-22
6.37578e-23
1.875e-06
2.18843e-22
1.1404e-22
1.875e-06
2.16568e-22
2.91922e-22
1.875e-06
1.11699e-22
1.36137e-22
1.875e-06
1.69006e-22
1.7424e-23
1.875e-06
1.98565e-22
3.48601e-23
1.875e-06
1.94111e-22
1.00728e-22
1.875e-06
1.19443e-22
4.98531e-23
1.875e-06
1.01837e-22
1.3652e-22
1.875e-06
1.42416e-22
1.70466e-22
1.875e-06
1.21402e-22
7.49156e-23
1.875e-06
1.15111e-22
1.09555e-22
1.875e-06
4.11656e-23
8.46017e-23
1.875e-06
-2.77805e-23
-1.22118e-23
1.875e-06
3.30335e-23
9.28587e-23
1.875e-06
6.1696e-23
5.25147e-23
1.875e-06
3.39405e-23
2.18651e-23
1.875e-06
9.18699e-24
2.31232e-23
1.875e-06
9.56607e-23
-1.28058e-22
1.875e-06
9.73756e-24
-1.78418e-22
1.875e-06
-1.89593e-22
-1.72609e-22
1.875e-06
-2.051e-22
-7.519e-23
1.875e-06
2.18273e-23
2.17673e-23
1.875e-06
2.47645e-22
3.51417e-23
1.875e-06
1.04032e-22
-2.46951e-23
1.875e-06
-2.32004e-23
5.22509e-24
1.875e-06
-1.48952e-23
9.57843e-23
1.875e-06
5.16156e-23
1.03185e-22
1.875e-06
4.15896e-23
1.37494e-22
1.875e-06
-1.30286e-22
8.76847e-23
1.875e-06
-2.55484e-22
1.24909e-22
1.875e-06
-7.87221e-23
6.98842e-24
1.875e-06
-3.97873e-23
1.02721e-22
1.875e-06
-6.87446e-23
-3.52999e-23
1.875e-06
6.11479e-23
-8.89754e-23
1.875e-06
-6.40454e-23
-1.62677e-22
1.875e-06
-1.00137e-22
-2.02625e-22
1.875e-06
-3.035e-23
-2.13887e-23
1.875e-06
5.84878e-24
8.32363e-23
6.92547e-24
6.6211e-23
1.875e-06
1.41566e-22
1.61678e-22
1.875e-06
8.99961e-23
2.14435e-22
1.875e-06
1.86323e-22
3.46599e-22
1.875e-06
1.14975e-22
2.77627e-22
1.875e-06
-6.67622e-23
6.00054e-23
1.875e-06
4.36581e-23
-3.36659e-23
1.875e-06
1.36939e-22
4.8235e-23
1.875e-06
1.86204e-22
2.05752e-22
1.875e-06
1.1449e-22
2.50941e-22
1.875e-06
3.99339e-24
2.18325e-22
1.875e-06
6.36213e-23
1.67484e-22
1.875e-06
7.80981e-23
1.40338e-22
1.875e-06
5.37512e-23
2.10582e-22
1.875e-06
6.3979e-23
1.51306e-22
1.875e-06
5.31052e-24
1.4274e-22
1.875e-06
-7.33743e-23
-9.78463e-24
1.875e-06
1.112e-22
-1.05418e-23
1.875e-06
1.4573e-22
1.4028e-22
1.875e-06
1.26357e-22
-9.74208e-23
1.875e-06
8.70071e-24
-1.3199e-22
1.875e-06
-2.35897e-23
-4.63714e-23
1.875e-06
-8.64568e-23
3.09221e-24
1.875e-06
-8.58817e-23
-3.88473e-23
1.875e-06
4.44319e-24
-1.20892e-22
1.875e-06
-6.72469e-23
-8.23709e-23
1.875e-06
2.54891e-23
2.38949e-23
1.875e-06
-7.50351e-24
8.52892e-23
1.875e-06
-1.37601e-24
7.37612e-23
1.875e-06
-4.67611e-23
1.75359e-22
1.875e-06
-3.20868e-23
9.7161e-23
1.875e-06
-2.35392e-23
1.73302e-22
1.875e-06
-2.42705e-23
1.17071e-22
1.875e-06
-8.02375e-23
1.40739e-22
1.875e-06
-1.19511e-22
-2.2481e-23
1.875e-06
-1.75562e-22
-1.05646e-22
1.875e-06
-1.4287e-22
-2.07611e-22
1.875e-06
-3.31629e-23
-1.39544e-22
1.875e-06
5.24862e-23
-1.29903e-23
1.875e-06
1.22786e-22
7.62207e-23
1.42468e-22
1.24099e-22
1.875e-06
1.5979e-22
2.4178e-22
1.875e-06
2.33405e-22
3.1297e-22
1.875e-06
4.07168e-23
2.51066e-22
1.875e-06
1.26324e-22
2.48018e-22
1.875e-06
5.15806e-23
1.88734e-22
1.875e-06
-1.84807e-25
-2.05171e-24
1.875e-06
6.80622e-23
1.64515e-22
1.875e-06
9.82529e-23
3.35723e-22
1.875e-06
1.64642e-22
2.86687e-22
1.875e-06
9.94821e-23
1.88196e-22
1.875e-06
-4.19593e-23
1.44695e-22
1.875e-06
5.01366e-23
1.92563e-22
1.875e-06
1.86178e-22
2.21351e-22
1.875e-06
2.18706e-23
1.27604e-22
1.875e-06
3.86752e-23
1.66042e-22
1.875e-06
1.29536e-22
1.50154e-22
1.875e-06
2.52764e-23
3.97602e-24
1.875e-06
6.89373e-23
1.42402e-23
1.875e-06
9.83539e-24
-1.30727e-22
1.875e-06
-3.01764e-24
-9.79588e-23
1.875e-06
-1.24483e-22
-1.25335e-24
1.875e-06
-1.35479e-22
9.90746e-23
1.875e-06
-1.60973e-23
1.07091e-24
1.875e-06
2.83372e-23
-7.75283e-23
1.875e-06
1.56351e-23
1.62707e-23
1.875e-06
-1.94452e-23
-2.27838e-23
1.875e-06
-2.985e-24
3.5219e-24
1.875e-06
-7.07596e-23
1.12129e-22
1.875e-06
1.04381e-23
1.57074e-22
1.875e-06
7.40146e-24
1.54762e-22
1.875e-06
-8.7436e-23
1.2585e-22
1.875e-06
4.13327e-24
1.15544e-22
1.875e-06
6.771e-23
1.0422e-22
1.875e-06
-9.63463e-23
-7.08993e-24
1.875e-06
-2.03112e-22
-9.69872e-24
1.875e-06
-8.85792e-23
-1.07083e-22
1.875e-06
5.85997e-23
-1.52093e-22
1.875e-06
3.73436e-23
-1.39473e-22
1.875e-06
5.62242e-23
8.63919e-24
9.37449e-23
1.07405e-23
1.875e-06
2.47926e-22
2.96288e-22
1.875e-06
1.49896e-22
3.3481e-22
1.875e-06
9.41321e-23
2.98208e-22
1.875e-06
-2.7856e-23
1.86319e-22
1.875e-06
4.22617e-23
1.92194e-22
1.875e-06
-4.59592e-24
1.46722e-22
1.875e-06
1.73277e-23
2.31414e-22
1.875e-06
7.46511e-23
2.81966e-22
1.875e-06
8.53488e-23
2.68577e-22
1.875e-06
4.39583e-23
2.17541e-22
1.875e-06
1.15665e-22
2.23917e-22
1.875e-06
4.92873e-24
1.83311e-22
1.875e-06
-3.85367e-23
2.00411e-22
1.875e-06
5.632e-24
1.96122e-22
1.875e-06
1.51694e-22
2.1427e-22
1.875e-06
2.13425e-22
1.04192e-22
1.875e-06
7.94158e-23
2.76015e-23
1.875e-06
-5.69341e-23
-1.2932e-23
1.875e-06
-1.15632e-22
-9.70304e-23
1.875e-06
-9.85278e-23
-6.19491e-23
1.875e-06
-1.45628e-22
4.64677e-23
1.875e-06
5.02877e-23
1.7151e-22
1.875e-06
1.92784e-22
8.42119e-23
1.875e-06
1.51209e-23
1.00773e-23
1.875e-06
-2.32465e-23
6.62563e-23
1.875e-06
-4.37795e-23
-9.20567e-24
1.875e-06
-1.68058e-23
2.35366e-23
1.875e-06
4.37201e-23
4.56455e-23
1.875e-06
1.07775e-23
1.05489e-22
1.875e-06
-5.49947e-23
1.93334e-22
1.875e-06
-2.13479e-23
1.51707e-22
1.875e-06
-2.40533e-23
1.0516e-22
1.875e-06
-8.97769e-23
6.70044e-23
1.875e-06
-2.98203e-24
1.96132e-23
1.875e-06
9.09791e-23
-2.95895e-23
1.875e-06
-4.03262e-24
-1.50492e-22
1.875e-06
-3.77736e-24
-1.47065e-22
1.875e-06
-2.47489e-23
-3.63669e-23
1.875e-06
2.26263e-23
-3.86074e-23
1.09383e-23
-3.97645e-23
1.875e-06
-1.40018e-22
1.01267e-22
1.875e-06
-2.79431e-23
3.09543e-22
1.875e-06
-3.58104e-23
2.84168e-22
1.875e-06
9.94497e-23
2.99312e-22
1.875e-06
4.77451e-23
2.9206e-22
1.875e-06
3.5457e-23
2.47163e-22
1.875e-06
1.23482e-23
2.51779e-22
1.875e-06
6.91705e-24
2.684e-22
1.875e-06
-7.94084e-24
2.10313e-22
1.875e-06
1.14972e-22
3.21239e-22
1.875e-06
3.16498e-23
3.02335e-22
1.875e-06
3.79632e-23
2.3167e-22
1.875e-06
6.64181e-23
1.79886e-22
1.875e-06
7.81765e-23
2.9209e-22
1.875e-06
2.19486e-23
2.11459e-22
1.875e-06
-3.99405e-24
5.05213e-23
1.875e-06
2.12043e-24
9.16193e-23
1.875e-06
-1.17922e-22
3.24052e-23
1.875e-06
-1.4222e-22
-7.28923e-23
1.875e-06
-1.36329e-22
-7.41683e-23
1.875e-06
2.11932e-23
9.5077e-23
1.875e-06
-3.19291e-23
4.53049e-23
1.875e-06
6.57899e-23
-9.83916e-23
1.875e-06
3.01894e-23
6.29464e-24
1.875e-06
3.3691e-23
4.68313e-23
1.875e-06
1.87811e-24
1.66923e-23
1.875e-06
5.99967e-23
7.311e-23
1.875e-06
1.31926e-23
9.31715e-23
1.875e-06
-9.80032e-23
5.77218e-23
1.875e-06
4.10397e-24
1.09506e-22
1.875e-06
1.15172e-22
2.01976e-22
1.875e-06
3.08267e-23
7.14824e-23
1.875e-06
-7.68757e-23
4.2456e-23
1.875e-06
-5.19936e-23
-1.07381e-22
1.875e-06
-1.00382e-23
-2.02152e-22
1.875e-06
-1.36826e-23
-1.37258e-22
1.875e-06
-7.49863e-23
-1.21412e-22
1.875e-06
1.14796e-22
2.47415e-23
1.875e-06
5.58561e-23
-1.34138e-23
3.32931e-23
1.52172e-23
1.875e-06
7.35566e-23
2.98043e-22
1.875e-06
6.10239e-23
3.71558e-22
1.875e-06
9.19358e-23
3.5344e-22
1.875e-06
8.25866e-23
2.71302e-22
1.875e-06
1.12224e-22
3.94348e-22
1.875e-06
7.13705e-23
2.72927e-22
1.875e-06
2.81084e-24
2.95813e-22
1.875e-06
3.92304e-23
3.68468e-22
1.875e-06
5.28922e-23
3.24708e-22
1.875e-06
1.69494e-23
2.96469e-22
1.875e-06
4.77279e-23
3.00637e-22
1.875e-06
3.83057e-23
2.99834e-22
1.875e-06
2.81949e-23
2.03926e-22
1.875e-06
1.00994e-22
2.41742e-22
1.875e-06
8.056e-24
2.57494e-22
1.875e-06
-1.18709e-22
1.44e-22
1.875e-06
-1.10454e-22
9.7671e-23
1.875e-06
-7.13061e-23
5.88675e-23
1.875e-06
-1.50313e-22
5.94359e-24
1.875e-06
-6.09115e-23
-7.09542e-23
1.875e-06
3.98953e-23
4.766e-23
1.875e-06
6.88108e-23
1.06965e-22
1.875e-06
-1.06868e-23
-9.53542e-23
1.875e-06
6.18405e-23
-8.40139e-24
1.875e-06
1.00866e-22
6.27632e-23
1.875e-06
8.88639e-23
2.98748e-23
1.875e-06
-3.86471e-23
-4.077e-23
1.875e-06
-1.05959e-22
-1.40249e-23
1.875e-06
-8.84521e-23
1.27975e-22
1.875e-06
-5.66699e-23
1.2715e-22
1.875e-06
1.35292e-22
1.73799e-22
1.875e-06
7.42661e-23
9.56027e-23
1.875e-06
3.31444e-23
-1.74778e-23
1.875e-06
-1.17928e-23
-1.56626e-22
1.875e-06
-2.75119e-23
-1.9613e-22
1.875e-06
-3.32382e-23
-1.20326e-22
1.875e-06
-4.80676e-23
-1.22519e-22
1.875e-06
2.8935e-23
-6.36894e-23
1.875e-06
8.28271e-23
-6.63983e-23
7.29206e-23
-5.15654e-23
1.875e-06
1.88535e-23
3.15475e-22
1.875e-06
1.12929e-22
4.25155e-22
1.875e-06
1.68645e-22
4.47935e-22
1.875e-06
1.04905e-22
3.89372e-22
1.875e-06
9.993e-23
3.62486e-22
1.875e-06
2.87574e-23
2.21326e-22
1.875e-06
5.33809e-23
3.6908e-22
1.875e-06
6.20114e-23
3.61269e-22
1.875e-06
-3.90795e-23
3.42945e-22
1.875e-06
7.66722e-24
4.1785e-22
1.875e-06
1.27218e-22
3.64386e-22
1.875e-06
7.97431e-23
2.69834e-22
1.875e-06
5.33945e-23
1.45788e-22
1.875e-06
5.72915e-23
2.11964e-22
1.875e-06
-4.04545e-24
2.90749e-22
1.875e-06
-2.27242e-23
2.24917e-22
1.875e-06
-3.08143e-23
7.55607e-23
1.875e-06
-7.30258e-23
4.25816e-23
1.875e-06
-8.32839e-23
1.74898e-23
1.875e-06
-7.78476e-23
2.73142e-23
1.875e-06
5.64034e-23
7.8824e-23
1.875e-06
2.02216e-22
7.27614e-23
1.875e-06
3.93598e-23
9.68468e-25
1.875e-06
-3.02757e-23
4.86274e-23
1.875e-06
-5.47307e-23
2.40716e-23
1.875e-06
-4.27576e-23
2.91795e-23
1.875e-06
-7.38812e-23
-1.40202e-23
1.875e-06
-9.82748e-23
1.66844e-23
1.875e-06
-8.58103e-23
3.20072e-23
1.875e-06
7.65878e-23
9.1004e-23
1.875e-06
1.04901e-22
-2.78873e-23
1.875e-06
5.91498e-23
6.96303e-23
1.875e-06
1.42889e-22
-9.50354e-23
1.875e-06
1.52349e-22
-1.05778e-22
1.875e-06
3.59012e-23
-1.4165e-22
1.875e-06
-2.73021e-23
-1.83782e-22
1.875e-06
-2.17648e-23
-2.0057e-22
1.875e-06
1.60988e-23
-9.454e-23
1.875e-06
-3.36173e-23
-6.38437e-23
-4.93267e-23
-1.76997e-22
1.875e-06
2.43239e-22
2.48547e-22
1.875e-06
1.33204e-22
4.07312e-22
1.875e-06
1.82021e-22
4.59905e-22
1.875e-06
1.47482e-22
5.26575e-22
1.875e-06
4.9269e-23
4.55882e-22
1.875e-06
4.16264e-23
3.5061e-22
1.875e-06
7.85336e-23
4.45545e-22
1.875e-06
-1.36961e-23
3.61384e-22
1.875e-06
-4.76163e-23
3.34998e-22
1.875e-06
1.10191e-22
2.83112e-22
1.875e-06
5.59547e-23
2.96862e-22
1.875e-06
9.14784e-23
3.05914e-22
1.875e-06
-6.33286e-23
2.4546e-22
1.875e-06
-5.01909e-23
1.53107e-22
1.875e-06
-2.44557e-23
2.2634e-22
1.875e-06
6.27595e-23
1.68855e-22
1.875e-06
9.06037e-23
2.88275e-23
1.875e-06
-3.99619e-23
8.686e-23
1.875e-06
4.51838e-23
9.98715e-23
1.875e-06
4.33875e-23
1.32119e-22
1.875e-06
3.66261e-23
1.13863e-22
1.875e-06
1.38722e-22
4.82653e-23
1.875e-06
3.31896e-23
5.07929e-23
1.875e-06
-2.59344e-23
-4.07457e-23
1.875e-06
-1.20869e-22
7.29731e-23
1.875e-06
2.13089e-23
3.41753e-23
1.875e-06
-1.11492e-22
2.27048e-23
1.875e-06
-1.02865e-22
1.19292e-23
1.875e-06
-3.64849e-23
6.02131e-23
1.875e-06
8.09366e-25
1.14574e-23
1.875e-06
-9.48322e-23
-1.0797e-23
1.875e-06
2.0945e-23
3.1869e-23
1.875e-06
2.31377e-22
-3.35686e-23
1.875e-06
1.22122e-22
-1.1527e-22
1.875e-06
1.03765e-22
-1.4501e-22
1.875e-06
-2.92468e-23
-2.1795e-22
1.875e-06
-4.51062e-23
-2.30511e-22
1.875e-06
-2.38504e-23
-1.67243e-22
1.875e-06
-1.21808e-22
-7.17322e-23
-1.10451e-22
-1.47178e-22
1.875e-06
-1.47426e-22
8.11923e-23
1.875e-06
4.28129e-23
4.26386e-22
1.875e-06
7.38347e-23
5.1687e-22
1.875e-06
1.13729e-22
5.47325e-22
1.875e-06
1.84753e-22
5.26278e-22
1.875e-06
1.23304e-22
3.86452e-22
1.875e-06
3.93913e-23
4.6538e-22
1.875e-06
3.91823e-23
4.09525e-22
1.875e-06
4.7398e-23
4.09944e-22
1.875e-06
-7.52602e-23
2.57728e-22
1.875e-06
-5.06284e-23
2.27782e-22
1.875e-06
-4.40639e-23
2.94328e-22
1.875e-06
3.0677e-23
3.25035e-22
1.875e-06
1.01539e-23
2.31061e-22
1.875e-06
9.25598e-23
1.72359e-22
1.875e-06
-2.68476e-24
1.07031e-22
1.875e-06
-1.4662e-23
2.22721e-23
1.875e-06
1.02997e-22
1.37129e-22
1.875e-06
1.63763e-23
7.84561e-23
1.875e-06
-2.85737e-23
1.85977e-22
1.875e-06
-5.18339e-24
8.45304e-23
1.875e-06
4.02956e-23
-1.74287e-23
1.875e-06
5.44398e-23
-2.07413e-23
1.875e-06
-3.9261e-23
3.27561e-24
1.875e-06
4.91624e-23
1.44881e-22
1.875e-06
-5.57298e-23
1.33875e-23
1.875e-06
-2.43455e-23
1.24046e-22
1.875e-06
-1.40224e-22
5.82643e-23
1.875e-06
4.10787e-23
-1.22036e-22
1.875e-06
-1.05775e-23
-4.66021e-23
1.875e-06
-2.66305e-23
5.439e-23
1.875e-06
-3.19771e-23
4.19972e-23
1.875e-06
-6.5888e-23
-7.56112e-23
1.875e-06
1.44815e-22
-1.18449e-22
1.875e-06
9.08403e-23
-1.90118e-22
1.875e-06
1.21211e-22
-1.77684e-22
1.875e-06
5.72152e-23
-2.17515e-22
1.875e-06
-1.1368e-22
-1.35472e-22
1.875e-06
-1.283e-22
-4.88725e-23
-1.15073e-22
3.07206e-23
1.875e-06
-9.06554e-24
4.27613e-22
1.875e-06
9.16945e-23
4.49037e-22
1.875e-06
1.05298e-22
5.0854e-22
1.875e-06
1.57339e-22
6.4416e-22
1.875e-06
3.42885e-23
5.41861e-22
1.875e-06
1.28332e-22
4.64111e-22
1.875e-06
1.65217e-22
5.1767e-22
1.875e-06
7.17468e-23
4.60207e-22
1.875e-06
-1.75364e-23
3.37905e-22
1.875e-06
3.90049e-23
3.01658e-22
1.875e-06
-1.25275e-23
2.61455e-22
1.875e-06
-5.15107e-23
3.00584e-22
1.875e-06
2.90664e-23
2.68003e-22
1.875e-06
1.99822e-23
2.39279e-22
1.875e-06
-1.17038e-23
2.21882e-22
1.875e-06
7.78826e-24
1.43926e-22
1.875e-06
-6.3997e-23
4.06499e-23
1.875e-06
-1.91112e-24
6.3622e-23
1.875e-06
-3.48338e-23
1.01157e-22
1.875e-06
8.77234e-23
1.60339e-22
1.875e-06
2.01982e-22
1.83909e-22
1.875e-06
1.19e-22
2.8207e-23
1.875e-06
-3.08821e-23
7.61419e-24
1.875e-06
2.36376e-25
1.42056e-22
1.875e-06
5.61306e-23
1.10761e-22
1.875e-06
-5.70499e-24
3.76058e-23
1.875e-06
-1.92384e-23
-1.05314e-23
1.875e-06
3.42852e-23
2.26992e-23
1.875e-06
-5.62427e-23
-1.11923e-22
1.875e-06
-5.82199e-23
-3.13519e-23
1.875e-06
-1.33561e-23
-2.74712e-23
1.875e-06
3.87513e-23
-7.24264e-23
1.875e-06
-1.10941e-22
-4.9667e-23
1.875e-06
-1.25528e-22
-8.44167e-23
1.875e-06
6.06528e-23
-2.50657e-22
1.875e-06
1.44554e-22
-1.73626e-22
1.875e-06
6.17492e-23
-2.20918e-22
1.875e-06
-2.28455e-22
-1.66559e-22
1.875e-06
-1.07866e-22
-3.23836e-23
-1.07177e-23
4.88385e-23
1.875e-06
7.94025e-23
4.4675e-22
1.875e-06
1.35495e-22
6.11712e-22
1.875e-06
1.33945e-22
6.76203e-22
1.875e-06
7.24362e-23
5.50751e-22
1.875e-06
6.99596e-23
5.62071e-22
1.875e-06
9.60338e-23
4.71284e-22
1.875e-06
1.0707e-22
4.27487e-22
1.875e-06
4.41867e-23
4.49691e-22
1.875e-06
6.46313e-23
4.6548e-22
1.875e-06
3.99493e-24
2.79094e-22
1.875e-06
3.92136e-23
2.87291e-22
1.875e-06
-2.93369e-23
3.12267e-22
1.875e-06
6.8314e-23
2.96347e-22
1.875e-06
9.32003e-23
2.86784e-22
1.875e-06
-2.96842e-23
2.80672e-22
1.875e-06
-6.54467e-23
2.00331e-22
1.875e-06
-6.00381e-24
9.14293e-23
1.875e-06
1.08531e-23
9.04233e-23
1.875e-06
1.11625e-22
1.47781e-22
1.875e-06
3.12666e-23
5.00317e-23
1.875e-06
1.06465e-22
9.49878e-23
1.875e-06
-5.91134e-23
-2.2219e-23
1.875e-06
6.96442e-24
5.98931e-23
1.875e-06
5.70831e-23
1.77244e-22
1.875e-06
-2.59539e-23
1.2132e-22
1.875e-06
-1.09386e-22
-6.53159e-23
1.875e-06
-4.3984e-23
-7.04632e-23
1.875e-06
1.30435e-22
3.78497e-23
1.875e-06
5.39712e-23
-4.48762e-23
1.875e-06
-1.10648e-22
-1.87878e-23
1.875e-06
-1.3469e-22
-2.64714e-23
1.875e-06
-7.0562e-23
-1.02293e-22
1.875e-06
5.89311e-23
-9.28713e-23
1.875e-06
-5.58504e-23
-1.12642e-22
1.875e-06
6.89504e-23
-2.42458e-22
1.875e-06
2.18083e-23
-2.64758e-22
1.875e-06
-1.01229e-22
-2.35805e-22
1.875e-06
-4.76092e-23
-2.4728e-23
1.875e-06
9.60758e-24
7.06407e-23
6.42532e-23
9.47719e-23
1.875e-06
1.10726e-22
5.55389e-22
1.875e-06
1.35826e-22
7.05123e-22
1.875e-06
1.39868e-22
6.10423e-22
1.875e-06
3.58087e-23
6.41283e-22
1.875e-06
7.90715e-23
6.09548e-22
1.875e-06
6.81751e-23
5.49398e-22
1.875e-06
-2.15618e-23
4.48385e-22
1.875e-06
3.746e-24
4.14378e-22
1.875e-06
1.12725e-22
4.04486e-22
1.875e-06
4.27455e-23
3.05793e-22
1.875e-06
2.56488e-23
3.13587e-22
1.875e-06
-1.66093e-23
3.65637e-22
1.875e-06
-1.47788e-23
2.80199e-22
1.875e-06
7.82266e-23
2.75878e-22
1.875e-06
1.58791e-23
3.04773e-22
1.875e-06
-5.81795e-23
2.37461e-22
1.875e-06
-1.08152e-22
1.68043e-22
1.875e-06
2.90077e-23
1.5423e-22
1.875e-06
7.24131e-23
4.54089e-23
1.875e-06
1.6767e-22
6.75799e-23
1.875e-06
-3.24009e-23
-2.20474e-23
1.875e-06
-3.89774e-23
7.98308e-23
1.875e-06
-9.16556e-23
9.92586e-23
1.875e-06
-9.06747e-23
1.94446e-23
1.875e-06
-8.41967e-23
1.48123e-22
1.875e-06
-5.43021e-23
5.90422e-23
1.875e-06
4.22039e-23
5.29735e-23
1.875e-06
2.95373e-23
-7.58823e-23
1.875e-06
3.0055e-23
-1.26912e-22
1.875e-06
1.32415e-22
7.10866e-23
1.875e-06
4.83702e-23
-1.16792e-23
1.875e-06
-1.39953e-22
-8.336e-23
1.875e-06
-1.66076e-22
-9.71165e-23
1.875e-06
2.78686e-24
-5.90977e-23
1.875e-06
-4.25089e-23
-2.00352e-22
1.875e-06
4.79195e-23
-1.70903e-22
1.875e-06
1.108e-22
-2.14314e-22
1.875e-06
1.10059e-22
-5.31163e-23
1.875e-06
6.92883e-23
5.39205e-23
-3.56291e-23
-4.41339e-23
1.875e-06
6.09765e-23
5.04654e-22
1.875e-06
1.25395e-22
6.68087e-22
1.875e-06
9.94465e-23
5.92245e-22
1.875e-06
6.05364e-23
6.97226e-22
1.875e-06
9.10692e-24
6.46099e-22
1.875e-06
-7.18071e-24
6.29667e-22
1.875e-06
1.95401e-23
4.49006e-22
1.875e-06
-9.40392e-24
3.87687e-22
1.875e-06
7.32712e-23
3.12364e-22
1.875e-06
1.59018e-22
3.0377e-22
1.875e-06
2.63561e-23
2.69779e-22
1.875e-06
-2.14102e-23
3.65503e-22
1.875e-06
-3.23961e-24
3.15865e-22
1.875e-06
6.21683e-23
2.372e-22
1.875e-06
-1.38284e-23
3.33083e-22
1.875e-06
-4.16222e-23
2.30286e-22
1.875e-06
-9.04835e-23
2.16884e-22
1.875e-06
-5.5612e-23
2.00997e-22
1.875e-06
-4.56384e-25
8.82914e-23
1.875e-06
-2.30096e-23
2.79125e-23
1.875e-06
7.37642e-23
1.09728e-22
1.875e-06
7.52236e-23
4.74006e-23
1.875e-06
8.48034e-23
1.46904e-22
1.875e-06
3.5568e-23
9.10283e-23
1.875e-06
-1.21364e-22
1.13936e-22
1.875e-06
-7.1938e-23
7.54833e-23
1.875e-06
-1.17755e-23
8.29126e-23
1.875e-06
8.477e-23
-5.8639e-23
1.875e-06
1.32034e-22
-2.42783e-23
1.875e-06
7.32878e-23
-6.85501e-23
1.875e-06
-7.91169e-23
-1.13272e-22
1.875e-06
-1.29516e-22
-8.63563e-23
1.875e-06
-1.52985e-22
-6.10047e-23
1.875e-06
-7.43051e-23
1.21818e-23
1.875e-06
6.67668e-23
-8.85951e-23
1.875e-06
-1.12974e-23
-7.22133e-23
1.875e-06
5.47682e-23
-1.61985e-22
1.875e-06
9.38636e-23
-8.95242e-23
1.875e-06
3.6068e-23
-5.38809e-23
-5.95549e-23
-1.38788e-22
1.875e-06
-3.71112e-23
5.3338e-22
1.875e-06
9.15141e-23
6.57829e-22
1.875e-06
9.51828e-23
6.38677e-22
1.875e-06
-5.22632e-23
6.96104e-22
1.875e-06
-7.04407e-23
6.70745e-22
1.875e-06
-2.41263e-23
5.90957e-22
1.875e-06
7.50774e-23
4.94117e-22
1.875e-06
1.53461e-22
4.16092e-22
1.875e-06
3.7106e-24
3.20345e-22
1.875e-06
-8.15015e-23
2.08795e-22
1.875e-06
2.08856e-23
3.18518e-22
1.875e-06
9.28097e-23
3.46225e-22
1.875e-06
-2.11529e-23
3.53251e-22
1.875e-06
-1.65332e-22
2.59204e-22
1.875e-06
-7.96704e-23
3.03551e-22
1.875e-06
-5.2435e-23
2.27597e-22
1.875e-06
5.75491e-23
1.81788e-22
1.875e-06
-1.68774e-23
1.20498e-22
1.875e-06
6.9716e-23
6.65848e-23
1.875e-06
6.57234e-23
1.19805e-22
1.875e-06
9.34024e-23
1.21024e-22
1.875e-06
1.41672e-23
3.95157e-23
1.875e-06
-1.28982e-23
9.39012e-23
1.875e-06
-6.7018e-23
1.30489e-22
1.875e-06
-9.6302e-23
2.31318e-22
1.875e-06
3.60885e-23
1.50187e-22
1.875e-06
2.62457e-23
1.54669e-24
1.875e-06
-2.24755e-23
-8.67149e-23
1.875e-06
1.10081e-22
-6.27965e-23
1.875e-06
9.10958e-23
-8.44264e-23
1.875e-06
1.14473e-22
-7.19054e-23
1.875e-06
-1.03309e-22
-1.48935e-22
1.875e-06
-1.04599e-22
-8.32685e-23
1.875e-06
-1.21976e-22
-5.24177e-23
1.875e-06
-1.22575e-22
-1.07641e-22
1.875e-06
1.46056e-22
-3.23552e-23
1.875e-06
3.69007e-23
-1.51216e-22
1.875e-06
7.12653e-23
-1.21776e-22
1.875e-06
7.26646e-23
-8.35503e-23
-1.67012e-22
-2.42948e-22
1.875e-06
-5.36403e-24
6.45123e-22
1.875e-06
-1.24319e-22
5.61708e-22
1.875e-06
-7.13598e-23
6.06977e-22
1.875e-06
4.78769e-23
7.04522e-22
1.875e-06
8.9303e-23
7.14436e-22
1.875e-06
-1.1266e-23
5.74792e-22
1.875e-06
5.38982e-24
4.95496e-22
1.875e-06
5.69994e-23
3.80739e-22
1.875e-06
-4.12668e-24
3.43389e-22
1.875e-06
-3.62153e-23
3.07494e-22
1.875e-06
3.72774e-23
3.37119e-22
1.875e-06
1.95716e-23
3.32185e-22
1.875e-06
-2.41664e-23
3.71319e-22
1.875e-06
-1.24953e-22
3.3075e-22
1.875e-06
-6.78021e-23
3.0756e-22
1.875e-06
-3.42162e-23
1.24446e-22
1.875e-06
-3.78634e-23
3.38299e-23
1.875e-06
-1.03532e-23
2.92281e-23
1.875e-06
-6.10108e-23
4.13773e-23
1.875e-06
1.50891e-22
1.80616e-22
1.875e-06
3.18654e-23
1.34886e-22
1.875e-06
1.29203e-22
1.85169e-22
1.875e-06
-8.55064e-24
2.16166e-22
1.875e-06
-1.8206e-22
1.18122e-22
1.875e-06
-9.69025e-24
2.31611e-22
1.875e-06
1.61433e-24
1.54011e-22
1.875e-06
3.3283e-23
-1.35472e-23
1.875e-06
7.5648e-24
-8.51522e-23
1.875e-06
-7.14782e-23
-1.09393e-22
1.875e-06
4.33333e-23
-8.26204e-23
1.875e-06
1.65018e-22
-8.9193e-23
1.875e-06
-7.22017e-24
-1.32781e-22
1.875e-06
-9.83413e-23
-2.55935e-22
1.875e-06
-8.10579e-23
-9.7914e-23
1.875e-06
-1.2505e-22
6.66216e-23
1.875e-06
-6.47943e-23
8.73127e-23
1.875e-06
1.30306e-22
-6.49085e-23
1.875e-06
1.64589e-22
-2.38357e-22
1.875e-06
8.3302e-23
-2.50616e-22
1.13049e-22
-1.52933e-22
1.875e-06
-9.40994e-23
5.26877e-22
1.875e-06
-1.43479e-22
6.08202e-22
1.875e-06
-4.65449e-25
7.0557e-22
1.875e-06
2.73233e-23
7.7864e-22
1.875e-06
-5.78176e-23
6.55527e-22
1.875e-06
2.35696e-23
6.52655e-22
1.875e-06
7.45064e-23
5.35133e-22
1.875e-06
4.89618e-23
3.98497e-22
1.875e-06
-5.86469e-23
3.45007e-22
1.875e-06
1.64183e-23
3.627e-22
1.875e-06
7.72661e-24
3.39141e-22
1.875e-06
-6.31167e-23
4.58663e-22
1.875e-06
-1.96511e-22
4.27124e-22
1.875e-06
-3.36006e-23
3.20898e-22
1.875e-06
-6.32455e-23
1.67059e-22
1.875e-06
-7.93093e-23
8.30336e-23
1.875e-06
2.88844e-24
-2.83496e-24
1.875e-06
-5.65247e-24
3.1847e-23
1.875e-06
1.05999e-22
1.34301e-22
1.875e-06
1.44636e-22
1.52038e-22
1.875e-06
1.82879e-22
1.79574e-22
1.875e-06
-1.03126e-23
1.697e-22
1.875e-06
-6.54933e-23
2.23388e-22
1.875e-06
-8.55343e-23
2.51304e-22
1.875e-06
-3.99565e-23
1.46628e-22
1.875e-06
-4.42429e-23
1.5035e-22
1.875e-06
-3.9517e-23
-3.32372e-23
1.875e-06
-9.54308e-23
-1.38599e-22
1.875e-06
-9.43236e-23
-2.04794e-23
1.875e-06
4.59511e-23
-7.88929e-23
1.875e-06
2.58904e-23
-1.91677e-22
1.875e-06
6.12625e-23
-2.52476e-22
1.875e-06
-7.03941e-23
-2.85204e-22
1.875e-06
-2.36675e-23
-1.11839e-22
1.875e-06
5.83969e-23
1.4463e-22
1.875e-06
-1.30811e-23
1.31736e-22
1.875e-06
3.58999e-23
-4.47654e-23
1.875e-06
4.87489e-23
-2.60762e-22
1.875e-06
-3.85565e-23
-2.51298e-22
7.05637e-23
-2.32588e-22
1.875e-06
-1.18846e-22
5.058e-22
1.875e-06
-8.95772e-23
6.66544e-22
1.875e-06
3.85214e-23
6.45449e-22
1.875e-06
3.2512e-23
7.22739e-22
1.875e-06
6.58034e-23
7.44094e-22
1.875e-06
-7.34759e-23
6.69857e-22
1.875e-06
-3.08465e-23
4.99509e-22
1.875e-06
-9.111e-23
4.23199e-22
1.875e-06
7.15531e-24
4.0507e-22
1.875e-06
-1.87047e-23
3.58826e-22
1.875e-06
-3.52904e-23
3.2293e-22
1.875e-06
-3.26783e-23
4.01379e-22
1.875e-06
-5.34056e-23
5.57459e-22
1.875e-06
-2.62429e-23
4.08503e-22
1.875e-06
1.21818e-23
2.21526e-22
1.875e-06
-1.19614e-23
3.96476e-23
1.875e-06
-2.30517e-23
9.25874e-24
1.875e-06
7.50616e-23
8.89875e-23
1.875e-06
2.34991e-23
1.76502e-22
1.875e-06
1.0633e-22
1.46943e-22
1.875e-06
1.00369e-22
8.06747e-23
1.875e-06
8.50896e-23
1.08913e-22
1.875e-06
-6.63785e-23
1.11609e-22
1.875e-06
-2.76164e-23
2.67165e-22
1.875e-06
-6.78823e-23
1.08916e-22
1.875e-06
4.81298e-23
1.87064e-22
1.875e-06
-4.67374e-23
3.9513e-25
1.875e-06
-9.00013e-23
-4.14892e-23
1.875e-06
-8.99273e-23
1.39407e-22
1.875e-06
-1.07739e-22
-9.81826e-23
1.875e-06
-1.18964e-22
-2.7229e-22
1.875e-06
4.83376e-23
-2.37794e-22
1.875e-06
7.96726e-23
-2.59316e-22
1.875e-06
2.98034e-23
-1.57278e-22
1.875e-06
1.01564e-22
-3.51921e-23
1.875e-06
5.71153e-23
1.04711e-22
1.875e-06
-6.38655e-23
-9.38259e-23
1.875e-06
-1.52976e-22
-2.15434e-22
1.875e-06
-5.60081e-23
-1.9004e-22
-5.97109e-24
-2.62738e-22
1.875e-06
-6.81222e-23
5.49976e-22
1.875e-06
-1.3166e-22
7.38217e-22
1.875e-06
-1.76155e-22
7.13015e-22
1.875e-06
-2.06369e-23
7.63647e-22
1.875e-06
6.381e-23
6.73147e-22
1.875e-06
1.21222e-22
7.49979e-22
1.875e-06
-1.03802e-22
5.46127e-22
1.875e-06
-1.4125e-22
3.85114e-22
1.875e-06
-5.23535e-23
3.66223e-22
1.875e-06
-7.84643e-24
4.6613e-22
1.875e-06
-3.97692e-23
3.78173e-22
1.875e-06
2.37358e-23
3.9256e-22
1.875e-06
2.82765e-23
5.388e-22
1.875e-06
-1.5645e-23
3.93881e-22
1.875e-06
1.60014e-23
1.93417e-22
1.875e-06
-2.31587e-23
1.41245e-22
1.875e-06
2.95092e-23
9.49675e-23
1.875e-06
9.8553e-23
6.47704e-23
1.875e-06
2.40835e-22
9.55526e-23
1.875e-06
1.42135e-22
5.59291e-23
1.875e-06
-6.62204e-23
2.4991e-23
1.875e-06
-1.40006e-22
1.61187e-22
1.875e-06
9.07956e-24
2.24607e-22
1.875e-06
1.0388e-23
1.42924e-22
1.875e-06
7.32109e-24
1.70317e-22
1.875e-06
-8.75419e-23
8.1056e-23
1.875e-06
-3.45288e-23
9.72297e-23
1.875e-06
-9.46021e-23
4.16457e-23
1.875e-06
-9.40396e-23
7.63605e-23
1.875e-06
-1.65414e-23
-1.34706e-23
1.875e-06
1.3487e-23
-1.06102e-22
1.875e-06
-9.06081e-24
-2.41053e-22
1.875e-06
8.134e-24
-2.64367e-22
1.875e-06
4.58685e-24
-1.74414e-22
1.875e-06
3.51453e-23
-1.70082e-22
1.875e-06
3.08639e-23
-6.84593e-23
1.875e-06
-1.49165e-23
-6.51349e-23
1.875e-06
-4.35487e-23
-1.46376e-22
1.875e-06
-2.72644e-24
-2.8093e-22
6.28453e-23
-1.94847e-22
1.875e-06
-1.95036e-23
5.74472e-22
1.875e-06
-6.11611e-23
7.96042e-22
1.875e-06
2.46159e-23
7.99279e-22
1.875e-06
-4.64022e-23
7.96759e-22
1.875e-06
-4.85817e-23
6.96439e-22
1.875e-06
-5.74799e-23
6.44189e-22
1.875e-06
-4.75805e-23
5.68619e-22
1.875e-06
-5.50283e-24
5.0927e-22
1.875e-06
-6.73698e-23
4.27144e-22
1.875e-06
-5.87478e-23
4.73893e-22
1.875e-06
5.12816e-24
3.71657e-22
1.875e-06
4.36762e-23
4.16127e-22
1.875e-06
1.75952e-22
5.29925e-22
1.875e-06
8.88924e-23
3.86006e-22
1.875e-06
-2.33159e-23
1.42541e-22
1.875e-06
-2.4356e-24
1.89213e-22
1.875e-06
-9.29967e-23
1.01387e-22
1.875e-06
-8.04714e-23
-1.01231e-22
1.875e-06
1.10675e-22
-1.18955e-22
1.875e-06
4.67518e-23
-4.34009e-23
1.875e-06
-3.57954e-23
7.45081e-23
1.875e-06
-1.22343e-23
3.03495e-22
1.875e-06
2.04078e-24
2.70753e-22
1.875e-06
-1.8486e-23
1.71633e-22
1.875e-06
-6.26769e-24
1.6283e-22
1.875e-06
-5.10882e-23
1.03417e-22
1.875e-06
1.33232e-22
1.40218e-22
1.875e-06
9.89331e-23
1.50986e-22
1.875e-06
-3.40452e-23
1.64266e-22
1.875e-06
-1.07151e-22
2.65477e-23
1.875e-06
-8.07835e-23
-7.86109e-23
1.875e-06
-1.28108e-22
-2.28762e-22
1.875e-06
-1.31869e-22
-3.13674e-22
1.875e-06
3.87089e-23
-1.83233e-22
1.875e-06
1.32269e-22
-1.65554e-22
1.875e-06
5.08095e-23
-1.39973e-22
1.875e-06
1.325e-22
-6.0807e-23
1.875e-06
1.50152e-23
-1.46091e-22
1.875e-06
-4.72848e-23
-3.79234e-22
1.28795e-23
-2.60688e-22
1.875e-06
3.22862e-23
5.89337e-22
1.875e-06
3.21517e-23
7.8825e-22
1.875e-06
-5.98282e-23
6.54245e-22
1.875e-06
-6.45986e-23
7.53591e-22
1.875e-06
-2.18122e-23
7.81169e-22
1.875e-06
-1.28471e-23
7.3094e-22
1.875e-06
-5.13673e-23
5.65102e-22
1.875e-06
-1.63274e-22
4.19809e-22
1.875e-06
-9.83621e-23
4.38135e-22
1.875e-06
1.00857e-22
5.69108e-22
1.875e-06
-1.76844e-22
3.95748e-22
1.875e-06
4.75282e-22
4.50787e-22
1.875e-06
4.78023e-23
4.49073e-22
1.875e-06
5.8932e-23
3.3249e-22
1.875e-06
1.50941e-23
2.97961e-22
1.875e-06
-3.43752e-23
1.75263e-22
1.875e-06
-5.24873e-23
4.89713e-23
1.875e-06
-1.26339e-22
-2.15591e-22
1.875e-06
-1.16821e-22
-1.37334e-22
1.875e-06
-1.08688e-22
-7.79273e-23
1.875e-06
-6.73178e-23
6.36996e-23
1.875e-06
-1.37433e-23
2.70341e-22
1.875e-06
-2.25378e-23
3.19896e-22
1.875e-06
1.01288e-22
1.59757e-22
1.875e-06
1.65226e-22
1.63716e-22
1.875e-06
4.08739e-23
1.3123e-22
1.875e-06
-1.11927e-22
6.06168e-23
1.875e-06
4.55961e-23
5.73191e-23
1.875e-06
-2.2384e-23
1.81326e-22
1.875e-06
2.18025e-22
5.26338e-23
1.875e-06
-1.06586e-22
-6.20784e-23
1.875e-06
-5.85744e-23
-1.81265e-22
1.875e-06
9.85565e-23
-2.20451e-22
1.875e-06
-1.27561e-22
-1.84485e-22
1.875e-06
-7.50845e-23
-2.32642e-22
1.875e-06
1.44906e-22
-1.66735e-22
1.875e-06
4.49713e-23
-1.50619e-22
1.875e-06
6.01536e-23
-2.73864e-22
1.875e-06
-6.71137e-24
-3.56953e-22
-2.37517e-23
-2.33009e-22
1.875e-06
1.50269e-22
4.73822e-22
1.875e-06
1.45888e-22
7.02688e-22
1.875e-06
-1.11728e-22
6.97965e-22
1.875e-06
-9.36702e-23
7.71959e-22
1.875e-06
-6.01181e-23
7.09544e-22
1.875e-06
-7.17722e-23
6.81214e-22
1.875e-06
-1.35953e-23
5.60513e-22
1.875e-06
3.10381e-23
4.05168e-22
1.875e-06
9.19748e-23
4.47593e-22
1.875e-06
3.18394e-23
5.81698e-22
1.875e-06
1.16163e-22
4.48283e-22
1.875e-06
2.98583e-23
4.85389e-22
1.875e-06
1.82131e-23
5.39887e-22
1.875e-06
8.87777e-23
3.23872e-22
1.875e-06
-4.3614e-23
2.46691e-22
1.875e-06
-1.02784e-22
1.66875e-22
1.875e-06
-1.73515e-22
-5.67696e-23
1.875e-06
-1.50375e-23
-1.78358e-22
1.875e-06
-2.08337e-22
-7.14147e-23
1.875e-06
-1.29523e-22
-2.27439e-23
1.875e-06
4.92712e-23
1.03927e-22
1.875e-06
-3.58203e-23
1.49505e-22
1.875e-06
7.18885e-24
3.00115e-22
1.875e-06
8.49482e-23
1.71542e-22
1.875e-06
6.12118e-23
8.20972e-23
1.875e-06
8.00873e-23
1.76002e-22
1.875e-06
-2.64786e-23
1.49823e-22
1.875e-06
8.55973e-23
-1.87075e-23
1.875e-06
4.54651e-23
2.15843e-23
1.875e-06
6.48089e-23
-5.90052e-23
1.875e-06
9.39279e-23
-3.11067e-23
1.875e-06
-2.16347e-23
-1.65611e-22
1.875e-06
5.59432e-23
-3.11338e-22
1.875e-06
6.86983e-23
-1.1091e-22
1.875e-06
-3.34284e-23
-1.30809e-22
1.875e-06
4.45331e-23
-1.98581e-22
1.875e-06
-6.35987e-23
-1.20481e-22
1.875e-06
-1.30551e-22
-2.71642e-22
1.875e-06
-1.31083e-22
-4.27934e-22
-1.15474e-22
-3.21846e-22
1.875e-06
5.88906e-23
4.54963e-22
1.875e-06
-6.75389e-23
6.63539e-22
1.875e-06
-8.06271e-23
7.0685e-22
1.875e-06
-8.21934e-23
6.8202e-22
1.875e-06
-1.74529e-22
6.35567e-22
1.875e-06
1.00463e-22
7.2727e-22
1.875e-06
4.08735e-24
5.58565e-22
1.875e-06
1.80767e-23
4.25198e-22
1.875e-06
1.26199e-22
5.01552e-22
1.875e-06
1.79684e-22