/*--------------------------------*- C++ -*----------------------------------*\
| =========                 |                                                 |
| \\      /  F ield         | OpenFOAM: The Open Source CFD Toolbox           |
|  \\    /   O peration     | Version:  v2012                                 |
|   \\  /    A nd           | Website:  www.openfoam.com                      |
|    \\/     M anipulation  |                                                 |
\*---------------------------------------------------------------------------*/
FoamFile
{
    version     2.0;
    format      ascii;
    class       volVectorField;
    location    "8";
    object      U;
}
// * * * * * * * * * * * * * * * * * * * * * * * * * * * * * * * * * * * * * //

dimensions      [0 1 -1 0 0 0 0];


internalField   nonuniform List<vector> 
64000
(
(0.003 2.0524e-20 -3.18997e-21)
(0.003 1.57258e-19 8.57765e-20)
(0.003 1.68033e-19 2.03289e-19)
(0.003 1.28565e-19 2.5588e-19)
(0.003 2.92794e-19 2.09263e-19)
(0.003 2.66872e-19 1.0708e-19)
(0.003 1.45663e-19 8.13898e-20)
(0.003 1.10755e-19 1.12561e-19)
(0.003 1.32327e-19 1.56883e-19)
(0.003 2.05623e-19 6.37457e-20)
(0.003 1.55467e-19 4.62964e-20)
(0.003 1.2005e-19 1.71721e-19)
(0.003 9.08949e-20 1.26872e-19)
(0.003 8.98563e-20 9.62284e-20)
(0.003 1.08396e-19 1.5564e-19)
(0.003 1.2549e-19 1.35174e-19)
(0.003 3.53316e-20 7.05496e-20)
(0.003 -5.65875e-20 2.84856e-20)
(0.003 -5.16373e-20 -2.96622e-19)
(0.003 -1.65877e-19 -4.33863e-19)
(0.003 -3.2955e-19 -3.04933e-19)
(0.003 -9.37064e-20 -2.26432e-20)
(0.003 1.12199e-19 5.32007e-20)
(0.003 2.90309e-19 4.87872e-20)
(0.003 2.94492e-19 1.13686e-19)
(0.003 9.68746e-20 1.19825e-19)
(0.003 -1.3198e-20 1.32092e-19)
(0.003 7.39308e-20 1.05144e-19)
(0.003 7.08869e-20 1.04794e-19)
(0.003 -7.94431e-20 1.80013e-19)
(0.003 -1.96144e-19 2.19069e-19)
(0.003 -1.06809e-19 6.02648e-20)
(0.003 -6.21577e-20 7.64633e-20)
(0.003 -1.62435e-21 -6.62427e-20)
(0.003 5.92791e-20 -1.52644e-19)
(0.003 -2.85828e-20 -1.87119e-19)
(0.003 -2.20529e-19 -3.07101e-19)
(0.003 -1.59374e-19 -9.54174e-20)
(0.003 -7.41279e-20 1.4476e-19)
(0.003 -1.16523e-19 1.2338e-19)
(0.003 2.04068e-19 1.18023e-19)
(0.003 2.65502e-19 2.52144e-19)
(0.003 2.53925e-19 4.19704e-19)
(0.003 1.68047e-19 3.94172e-19)
(0.003 1.14685e-19 2.99524e-19)
(0.003 1.97252e-19 2.4807e-19)
(0.003 2.28784e-19 1.96905e-19)
(0.003 1.99958e-19 2.06259e-19)
(0.003 1.75091e-19 2.67767e-19)
(0.003 1.26231e-19 2.75781e-19)
(0.003 1.34929e-19 2.19244e-19)
(0.003 1.45959e-19 2.63865e-19)
(0.003 6.31931e-20 2.08057e-19)
(0.003 1.07477e-20 1.81528e-19)
(0.003 -1.10827e-20 2.0322e-19)
(0.003 6.80115e-21 1.5388e-19)
(0.003 1.00823e-19 3.66018e-20)
(0.003 1.73661e-19 5.54826e-20)
(0.003 2.46146e-19 -1.51658e-19)
(0.003 6.0522e-20 -3.04774e-19)
(0.003 -1.62942e-19 -2.45437e-19)
(0.003 -3.00443e-19 2.80749e-21)
(0.003 -8.44357e-20 7.57149e-20)
(0.003 2.02325e-19 1.84449e-19)
(0.003 5.41829e-20 1.70524e-19)
(0.003 -2.99818e-20 5.35071e-20)
(0.003 -5.33915e-21 1.09675e-19)
(0.003 4.91493e-20 1.79248e-19)
(0.003 1.33098e-20 2.11393e-19)
(0.003 -1.03676e-19 1.04615e-19)
(0.003 -1.93586e-19 8.1888e-20)
(0.003 -1.05351e-19 1.12897e-19)
(0.003 -1.27944e-19 1.18988e-19)
(0.003 -1.58933e-19 -6.42932e-20)
(0.003 -1.08372e-19 -1.56561e-19)
(0.003 -1.75831e-19 -1.95323e-19)
(0.003 -6.86418e-20 -2.31843e-19)
(0.003 8.70622e-20 -2.21508e-19)
(0.003 1.36466e-19 -9.32246e-21)
(0.003 1.09629e-19 1.14714e-19)
(0.003 2.77913e-19 1.89206e-19)
(0.003 2.97086e-19 2.65432e-19)
(0.003 2.3152e-19 4.49915e-19)
(0.003 2.00348e-19 4.55044e-19)
(0.003 -5.73145e-21 3.28074e-19)
(0.003 1.40955e-20 2.82718e-19)
(0.003 1.54738e-19 2.93798e-19)
(0.003 2.3764e-19 3.84215e-19)
(0.003 1.90819e-19 3.33612e-19)
(0.003 7.34708e-20 1.95943e-19)
(0.003 9.24055e-21 2.34711e-19)
(0.003 7.44625e-20 2.97942e-19)
(0.003 2.02375e-19 1.87805e-19)
(0.003 1.25784e-19 1.82258e-19)
(0.003 3.13947e-20 2.03665e-19)
(0.003 9.99565e-21 1.7237e-19)
(0.003 9.2169e-20 1.58674e-19)
(0.003 1.79058e-19 8.80459e-20)
(0.003 1.28152e-19 -1.42879e-19)
(0.003 -8.91505e-22 -3.38681e-19)
(0.003 -1.75526e-19 -1.03965e-19)
(0.003 -2.91221e-19 6.37313e-20)
(0.003 -1.09245e-19 1.06948e-19)
(0.003 5.54929e-20 2.3137e-19)
(0.003 -2.82998e-20 1.88125e-19)
(0.003 -2.18531e-20 4.18664e-20)
(0.003 1.63626e-20 3.74881e-20)
(0.003 -4.28249e-20 2.12844e-19)
(0.003 -4.32635e-20 1.89575e-19)
(0.003 -3.35579e-20 1.11033e-19)
(0.003 -1.91801e-20 1.23628e-19)
(0.003 3.46622e-20 1.65575e-19)
(0.003 -3.79736e-20 8.02166e-20)
(0.003 -1.8074e-19 -7.02276e-20)
(0.003 -2.8774e-19 -1.11213e-19)
(0.003 -2.24083e-19 -1.53531e-19)
(0.003 -5.12683e-20 -2.50992e-19)
(0.003 4.82284e-20 -2.65736e-19)
(0.003 1.97638e-19 -7.98118e-20)
(0.003 2.22616e-19 -6.5858e-20)
(0.003 3.30586e-19 2.78172e-19)
(0.003 3.23618e-19 4.68118e-19)
(0.003 1.53826e-19 4.41281e-19)
(0.003 1.2277e-19 4.56976e-19)
(0.003 5.34792e-20 4.04886e-19)
(0.003 1.5204e-20 4.15677e-19)
(0.003 7.11321e-20 3.71047e-19)
(0.003 7.96479e-20 3.67385e-19)
(0.003 1.6067e-19 4.17602e-19)
(0.003 2.14823e-19 2.98276e-19)
(0.003 1.36588e-19 2.32876e-19)
(0.003 7.34084e-20 3.07253e-19)
(0.003 6.88257e-20 3.34946e-19)
(0.003 -8.86775e-21 2.46305e-19)
(0.003 1.45199e-19 2.3855e-19)
(0.003 2.79552e-19 2.09768e-19)
(0.003 1.43377e-19 1.6967e-19)
(0.003 6.13196e-21 1.09933e-19)
(0.003 -1.75248e-19 -2.10059e-19)
(0.003 -1.97324e-19 -4.16714e-19)
(0.003 -1.70195e-19 -9.52201e-20)
(0.003 -2.08915e-20 1.0367e-19)
(0.003 1.23658e-19 2.12029e-19)
(0.003 6.99794e-21 3.48027e-19)
(0.003 -4.9039e-20 2.42333e-19)
(0.003 -4.93302e-20 7.83919e-20)
(0.003 -1.35631e-20 5.05658e-21)
(0.003 1.04638e-20 2.2424e-20)
(0.003 -2.4745e-20 1.05789e-19)
(0.003 -6.73953e-20 1.61419e-19)
(0.003 -5.53902e-20 1.13788e-19)
(0.003 -2.40381e-20 1.32212e-19)
(0.003 -2.09581e-21 9.47569e-20)
(0.003 -5.33711e-20 -4.36818e-20)
(0.003 -7.05922e-20 -1.99337e-19)
(0.003 -6.72322e-20 -2.27311e-19)
(0.003 -3.83933e-20 -1.79905e-19)
(0.003 -1.45461e-21 -1.01177e-19)
(0.003 7.91802e-20 -3.45496e-20)
(0.003 1.16574e-19 -5.28991e-20)
(0.003 1.41117e-20 3.46596e-19)
(0.003 4.25473e-20 5.82385e-19)
(0.003 3.37319e-21 5.02533e-19)
(0.003 -1.54451e-21 4.58747e-19)
(0.003 7.6704e-20 4.59598e-19)
(0.003 2.86455e-21 4.39436e-19)
(0.003 4.20907e-21 4.26181e-19)
(0.003 6.0441e-20 4.10152e-19)
(0.003 7.81289e-20 4.03168e-19)
(0.003 1.47065e-19 4.27506e-19)
(0.003 1.23806e-19 4.06495e-19)
(0.003 5.84395e-20 3.36961e-19)
(0.003 -3.06025e-20 2.30917e-19)
(0.003 3.75626e-21 2.24201e-19)
(0.003 1.43662e-19 3.53412e-19)
(0.003 2.51028e-19 3.8665e-19)
(0.003 1.23059e-19 2.10271e-19)
(0.003 -1.39676e-19 4.41885e-20)
(0.003 -3.14554e-19 -2.39679e-19)
(0.003 -2.46634e-19 -3.71918e-19)
(0.003 -9.63249e-20 -2.01302e-19)
(0.003 1.02775e-19 1.06536e-19)
(0.003 2.36669e-19 2.69402e-19)
(0.003 -1.68595e-20 2.64186e-19)
(0.003 -4.99401e-20 2.02217e-19)
(0.003 -1.41093e-20 5.08415e-20)
(0.003 3.63522e-20 2.98893e-20)
(0.003 6.77344e-20 1.4966e-19)
(0.003 2.84095e-23 9.39424e-20)
(0.003 -3.44349e-20 -2.68025e-20)
(0.003 -3.22197e-20 1.29374e-20)
(0.003 -2.55841e-20 9.56215e-20)
(0.003 -6.58424e-20 4.46682e-20)
(0.003 -6.0517e-20 -1.76262e-19)
(0.003 3.07688e-21 -2.80478e-19)
(0.003 -1.56151e-20 -1.99899e-19)
(0.003 8.774e-22 -1.62693e-19)
(0.003 8.95879e-20 -6.31265e-20)
(0.003 3.66053e-20 2.66221e-20)
(0.003 1.02881e-21 -1.07295e-20)
(0.003 -6.71604e-20 4.31398e-19)
(0.003 -1.50938e-20 5.58588e-19)
(0.003 2.03394e-20 5.1742e-19)
(0.003 1.39082e-19 4.94077e-19)
(0.003 1.13672e-19 5.34912e-19)
(0.003 7.63752e-20 4.56527e-19)
(0.003 2.2233e-20 4.09768e-19)
(0.003 7.24029e-20 4.7839e-19)
(0.003 9.76601e-20 4.77078e-19)
(0.003 6.00103e-20 4.02565e-19)
(0.003 3.14294e-20 3.47038e-19)
(0.003 3.521e-20 4.01196e-19)
(0.003 1.09549e-19 3.06176e-19)
(0.003 1.32566e-19 2.21242e-19)
(0.003 5.30558e-21 3.66975e-19)
(0.003 -1.26561e-19 4.19032e-19)
(0.003 -1.34412e-19 2.38684e-19)
(0.003 -1.44237e-19 6.66532e-20)
(0.003 -2.23643e-19 -1.7571e-19)
(0.003 -1.35109e-19 -3.1191e-19)
(0.003 3.27135e-20 -1.82207e-19)
(0.003 1.2222e-19 9.74248e-20)
(0.003 1.38163e-19 3.06361e-19)
(0.003 3.24377e-20 2.217e-19)
(0.003 7.94849e-20 1.11481e-19)
(0.003 7.6025e-20 4.80582e-20)
(0.003 5.95573e-20 3.02088e-20)
(0.003 -8.50081e-20 2.21658e-20)
(0.003 -1.75165e-19 3.53129e-20)
(0.003 -1.56823e-20 1.29539e-19)
(0.003 1.89276e-19 2.13866e-19)
(0.003 7.55103e-20 1.07432e-19)
(0.003 -1.13043e-19 -4.18914e-20)
(0.003 -1.11673e-19 -2.26892e-19)
(0.003 -9.89327e-20 -2.96007e-19)
(0.003 -6.97928e-20 -2.59057e-19)
(0.003 -5.30477e-20 -1.75533e-19)
(0.003 1.29303e-19 2.29374e-20)
(0.003 1.59225e-19 3.36295e-20)
(0.003 1.34922e-19 -3.44693e-20)
(0.003 6.83453e-20 5.30672e-19)
(0.003 1.5152e-19 6.86302e-19)
(0.003 2.23058e-19 6.00162e-19)
(0.003 1.92029e-19 6.40802e-19)
(0.003 1.63781e-19 5.98487e-19)
(0.003 4.70117e-20 4.56649e-19)
(0.003 1.7327e-20 4.29727e-19)
(0.003 1.06567e-19 4.69902e-19)
(0.003 2.59425e-20 5.06608e-19)
(0.003 2.28089e-21 4.76887e-19)
(0.003 9.15967e-20 4.53718e-19)
(0.003 8.75286e-20 3.51608e-19)
(0.003 1.27877e-19 2.43638e-19)
(0.003 1.85961e-19 2.3192e-19)
(0.003 2.94068e-20 3.65924e-19)
(0.003 -1.40814e-19 3.91811e-19)
(0.003 -1.62738e-19 1.45097e-19)
(0.003 -1.64132e-19 7.13126e-20)
(0.003 -1.3993e-19 -6.75716e-20)
(0.003 -3.67776e-20 -1.45743e-19)
(0.003 1.52451e-19 -1.27401e-19)
(0.003 1.78502e-19 5.22169e-20)
(0.003 -2.61358e-20 2.45961e-19)
(0.003 -1.34337e-20 2.62699e-19)
(0.003 2.34375e-20 2.23455e-19)
(0.003 -3.76285e-22 1.01665e-19)
(0.003 -1.46117e-19 -5.59455e-20)
(0.003 -2.11542e-19 -2.77458e-20)
(0.003 -1.23205e-19 7.99236e-21)
(0.003 5.71719e-20 3.14702e-20)
(0.003 1.9151e-19 1.46971e-19)
(0.003 1.1028e-19 5.44959e-20)
(0.003 8.85571e-20 -1.94999e-19)
(0.003 7.82298e-20 -2.1213e-19)
(0.003 -6.65104e-22 -3.03079e-19)
(0.003 -2.46686e-20 -3.41217e-19)
(0.003 -1.92e-20 -2.18181e-19)
(0.003 5.04799e-20 4.54802e-20)
(0.003 4.73764e-20 2.38533e-20)
(0.003 5.21945e-20 -1.55927e-19)
(0.003 2.77651e-19 4.28832e-19)
(0.003 2.4545e-19 6.51956e-19)
(0.003 2.17126e-19 7.14162e-19)
(0.003 2.13116e-19 7.56459e-19)
(0.003 1.54616e-19 6.81093e-19)
(0.003 2.88566e-20 5.11575e-19)
(0.003 7.26338e-20 4.66931e-19)
(0.003 7.18675e-20 5.29322e-19)
(0.003 -4.29569e-20 5.02787e-19)
(0.003 5.07231e-20 3.58361e-19)
(0.003 1.50288e-19 4.6871e-19)
(0.003 1.63584e-19 4.49677e-19)
(0.003 5.70598e-20 3.32108e-19)
(0.003 6.80956e-21 2.49959e-19)
(0.003 1.34595e-20 3.13395e-19)
(0.003 4.81726e-20 2.97099e-19)
(0.003 2.05889e-20 8.98851e-20)
(0.003 -6.49889e-20 -1.70169e-21)
(0.003 3.07031e-20 -5.24265e-20)
(0.003 -1.1239e-20 -7.55113e-20)
(0.003 6.63304e-20 -2.07262e-20)
(0.003 1.86676e-19 1.28143e-19)
(0.003 -1.01663e-20 2.62724e-19)
(0.003 -6.51962e-20 2.37225e-19)
(0.003 -1.00498e-19 2.25261e-19)
(0.003 -5.62546e-20 3.05947e-20)
(0.003 -1.75355e-19 -9.6309e-20)
(0.003 -2.46386e-19 2.66791e-20)
(0.003 -1.33701e-19 9.07827e-21)
(0.003 6.6826e-20 5.25911e-20)
(0.003 2.85339e-20 1.36144e-19)
(0.003 6.55348e-20 4.56415e-20)
(0.003 2.74687e-19 -1.23725e-19)
(0.003 2.77147e-19 -2.38723e-19)
(0.003 1.81371e-19 -3.05118e-19)
(0.003 9.69455e-21 -2.8326e-19)
(0.003 -1.58211e-20 -3.09858e-19)
(0.003 -4.81102e-20 -4.6237e-20)
(0.003 -1.29157e-19 5.32623e-20)
(0.003 -1.16407e-19 -1.11649e-19)
(0.003 9.00196e-20 4.79125e-19)
(0.003 1.71032e-19 8.20314e-19)
(0.003 2.08374e-19 8.11599e-19)
(0.003 1.78977e-19 8.31559e-19)
(0.003 1.73971e-19 6.79616e-19)
(0.003 2.21915e-19 5.40425e-19)
(0.003 1.08047e-19 5.72585e-19)
(0.003 -4.63986e-20 5.19037e-19)
(0.003 1.0247e-21 4.32497e-19)
(0.003 7.03757e-20 4.43056e-19)
(0.003 5.38358e-20 4.87146e-19)
(0.003 1.21079e-20 4.89992e-19)
(0.003 -1.07571e-19 3.47832e-19)
(0.003 -7.66446e-20 2.88055e-19)
(0.003 7.14936e-20 2.70018e-19)
(0.003 1.05971e-19 2.68817e-19)
(0.003 8.92165e-20 1.29483e-19)
(0.003 5.00069e-20 9.87263e-21)
(0.003 8.83678e-20 -1.40112e-20)
(0.003 1.13737e-20 -4.74366e-20)
(0.003 -1.08057e-20 -2.2136e-21)
(0.003 6.79719e-20 1.73764e-19)
(0.003 4.98531e-20 2.25282e-19)
(0.003 -1.79607e-20 2.79224e-19)
(0.003 -2.50946e-20 2.18681e-19)
(0.003 -3.16415e-20 -1.57176e-20)
(0.003 -1.15002e-19 -7.25758e-20)
(0.003 -1.74444e-19 2.47036e-20)
(0.003 2.39805e-20 -9.76993e-20)
(0.003 5.53982e-21 -2.4737e-20)
(0.003 -1.02394e-19 2.40329e-20)
(0.003 -2.91703e-22 3.82232e-20)
(0.003 1.57151e-19 -7.31976e-21)
(0.003 1.71912e-19 -2.11396e-19)
(0.003 1.42877e-19 -3.14115e-19)
(0.003 1.37224e-19 -3.03104e-19)
(0.003 7.37297e-20 -2.14266e-19)
(0.003 -7.55119e-20 5.41272e-20)
(0.003 -1.89754e-19 3.51179e-20)
(0.003 -1.9658e-19 -5.5136e-20)
(0.003 -1.28658e-19 5.89553e-19)
(0.003 6.27616e-20 7.82253e-19)
(0.003 2.40316e-19 8.80763e-19)
(0.003 2.46512e-19 9.12259e-19)
(0.003 1.59084e-19 8.10832e-19)
(0.003 2.04466e-19 6.25664e-19)
(0.003 2.41823e-19 6.06548e-19)
(0.003 1.05888e-19 5.75512e-19)
(0.003 2.57719e-20 4.29829e-19)
(0.003 -6.74854e-20 3.29115e-19)
(0.003 -9.29597e-20 3.93635e-19)
(0.003 -7.50577e-20 4.83035e-19)
(0.003 -2.52283e-21 3.50866e-19)
(0.003 -1.30558e-20 2.84604e-19)
(0.003 3.14725e-20 3.70445e-19)
(0.003 -2.62114e-20 3.20039e-19)
(0.003 -5.03471e-20 1.21318e-19)
(0.003 9.12858e-20 -1.07391e-20)
(0.003 4.70366e-20 -3.92699e-20)
(0.003 6.55456e-20 -3.16316e-20)
(0.003 1.45399e-19 6.43333e-20)
(0.003 1.26802e-19 1.59638e-19)
(0.003 3.35698e-20 2.77954e-19)
(0.003 -1.14e-20 3.0519e-19)
(0.003 6.62907e-20 2.22825e-19)
(0.003 2.51739e-20 -1.15765e-20)
(0.003 -4.36794e-20 -1.40391e-19)
(0.003 -9.65499e-20 -1.03732e-19)
(0.003 -3.22059e-20 -3.76456e-20)
(0.003 -6.21579e-20 7.1912e-21)
(0.003 -5.98193e-20 1.56023e-20)
(0.003 1.34158e-20 -4.38208e-20)
(0.003 -1.64353e-20 -4.52444e-20)
(0.003 5.71627e-20 -1.81799e-19)
(0.003 1.70503e-19 -3.27077e-19)
(0.003 1.70649e-19 -2.3058e-19)
(0.003 4.16831e-20 -2.18894e-19)
(0.003 -1.7314e-19 -2.28058e-20)
(0.003 -1.82051e-19 7.97689e-20)
(0.003 -1.40639e-19 -2.16143e-20)
(0.003 1.12177e-19 6.25141e-19)
(0.003 2.16501e-19 9.35691e-19)
(0.003 2.09992e-19 1.00538e-18)
(0.003 1.82812e-19 9.68804e-19)
(0.003 9.53495e-20 7.9641e-19)
(0.003 1.44432e-19 6.57814e-19)
(0.003 2.33763e-19 6.85907e-19)
(0.003 1.30045e-19 6.04704e-19)
(0.003 1.63542e-20 4.88334e-19)
(0.003 8.1016e-21 3.93071e-19)
(0.003 1.02786e-21 3.79377e-19)
(0.003 -4.93514e-20 4.19879e-19)
(0.003 9.95319e-20 3.7054e-19)
(0.003 1.23179e-19 2.15765e-19)
(0.003 -3.38212e-20 3.7645e-19)
(0.003 -5.77699e-20 3.92736e-19)
(0.003 -5.19748e-20 1.99786e-19)
(0.003 1.93441e-20 1.17658e-19)
(0.003 1.95969e-20 -3.79802e-20)
(0.003 6.70336e-20 -1.94971e-19)
(0.003 2.2232e-19 3.60356e-20)
(0.003 1.41617e-19 2.68595e-19)
(0.003 5.77545e-21 2.74638e-19)
(0.003 2.56057e-20 3.18739e-19)
(0.003 -1.06928e-20 2.58607e-19)
(0.003 -5.77833e-20 -5.38794e-20)
(0.003 2.31522e-21 -1.42593e-19)
(0.003 3.25153e-20 -1.07078e-19)
(0.003 -9.88374e-20 -8.66997e-20)
(0.003 -1.62263e-19 -4.56006e-21)
(0.003 -1.24246e-19 1.4779e-20)
(0.003 -1.56445e-21 -5.84461e-20)
(0.003 -4.25798e-20 -1.9115e-19)
(0.003 -9.1408e-20 -3.03729e-19)
(0.003 1.21576e-19 -3.44241e-19)
(0.003 1.44215e-19 -2.42245e-19)
(0.003 -6.55932e-20 -1.99521e-19)
(0.003 -3.05475e-19 -6.74122e-20)
(0.003 -1.33605e-19 9.65748e-20)
(0.003 6.94794e-20 6.64764e-20)
(0.003 1.7652e-19 7.28039e-19)
(0.003 2.48065e-19 1.09088e-18)
(0.003 2.17795e-19 1.06156e-18)
(0.003 7.82934e-20 9.3294e-19)
(0.003 8.61119e-20 7.91428e-19)
(0.003 1.30602e-19 7.53263e-19)
(0.003 7.43345e-20 7.41302e-19)
(0.003 3.46306e-20 6.00444e-19)
(0.003 4.14078e-20 4.26322e-19)
(0.003 2.84733e-20 4.33127e-19)
(0.003 2.97706e-20 4.72604e-19)
(0.003 7.91166e-21 4.3258e-19)
(0.003 6.52223e-20 3.96754e-19)
(0.003 1.42336e-19 3.06429e-19)
(0.003 2.18726e-20 3.68983e-19)
(0.003 -1.11197e-19 3.38416e-19)
(0.003 -7.49063e-20 2.25977e-19)
(0.003 6.45239e-20 1.47729e-19)
(0.003 1.77823e-19 3.04603e-20)
(0.003 1.68279e-19 -1.36566e-19)
(0.003 6.85471e-20 3.15085e-20)
(0.003 -1.01458e-19 2.32113e-19)
(0.003 -1.21878e-19 2.68808e-19)
(0.003 -5.05974e-20 2.91331e-19)
(0.003 -1.02797e-19 3.10575e-19)
(0.003 -1.32365e-19 4.03922e-21)
(0.003 -6.34015e-20 -1.81537e-19)
(0.003 7.39308e-20 -1.74415e-19)
(0.003 4.62212e-20 -2.59802e-19)
(0.003 -3.38834e-20 -6.105e-20)
(0.003 -5.52113e-20 -4.86752e-20)
(0.003 -1.35138e-19 -9.48741e-20)
(0.003 -1.16487e-19 -8.1077e-20)
(0.003 -6.76266e-20 -2.37591e-19)
(0.003 -2.623e-20 -1.64506e-19)
(0.003 5.13747e-20 -1.45381e-19)
(0.003 2.87166e-20 -3.88304e-19)
(0.003 1.06646e-20 -1.69749e-19)
(0.003 9.2314e-20 6.02283e-20)
(0.003 3.59712e-20 2.01113e-20)
(0.003 1.75916e-19 7.57822e-19)
(0.003 2.25513e-19 1.08076e-18)
(0.003 1.52048e-19 1.0396e-18)
(0.003 7.88952e-20 9.77143e-19)
(0.003 1.18733e-19 9.10925e-19)
(0.003 8.46517e-20 8.22265e-19)
(0.003 -4.95506e-20 6.98017e-19)
(0.003 -4.16793e-20 5.69426e-19)
(0.003 1.58623e-19 4.83889e-19)
(0.003 2.1676e-19 4.44219e-19)
(0.003 7.9221e-20 4.61803e-19)
(0.003 -5.79822e-20 4.27093e-19)
(0.003 -1.35553e-20 4.03863e-19)
(0.003 1.43288e-19 3.93066e-19)
(0.003 3.74983e-20 3.66434e-19)
(0.003 -9.15556e-20 2.36948e-19)
(0.003 -1.17753e-19 1.47839e-19)
(0.003 -7.12736e-20 1.74783e-19)
(0.003 -1.53811e-21 1.17237e-19)
(0.003 9.45661e-20 6.55305e-20)
(0.003 6.32224e-20 1.02831e-19)
(0.003 -1.36774e-21 1.67986e-19)
(0.003 -1.48297e-21 2.19424e-19)
(0.003 -6.74098e-20 2.55142e-19)
(0.003 -1.39374e-19 2.23515e-19)
(0.003 -1.07966e-19 2.38374e-20)
(0.003 -5.55884e-20 -5.82192e-20)
(0.003 1.08213e-19 -8.54389e-20)
(0.003 1.67732e-19 -1.71596e-19)
(0.003 1.16149e-19 -2.09464e-19)
(0.003 1.95488e-21 -1.48644e-19)
(0.003 -2.68702e-19 -1.4049e-19)
(0.003 -2.80904e-19 -1.58166e-19)
(0.003 -6.93162e-20 -9.49885e-20)
(0.003 1.55546e-20 -2.39178e-20)
(0.003 1.86463e-22 -1.08056e-19)
(0.003 5.8925e-20 -3.2328e-19)
(0.003 1.65843e-19 -1.94221e-19)
(0.003 6.05336e-20 6.14391e-20)
(0.003 -1.48172e-19 2.54388e-20)
(0.003 4.00468e-21 8.26899e-19)
(0.003 1.08389e-19 1.17855e-18)
(0.003 1.51901e-19 1.15077e-18)
(0.003 3.60534e-20 9.69905e-19)
(0.003 -7.09666e-20 9.21142e-19)
(0.003 -5.68442e-20 8.65532e-19)
(0.003 5.67e-20 6.80397e-19)
(0.003 1.35138e-19 4.65947e-19)
(0.003 1.1397e-19 5.10846e-19)
(0.003 8.29892e-20 6.05049e-19)
(0.003 1.01505e-19 5.10581e-19)
(0.003 8.09495e-20 3.78637e-19)
(0.003 -6.65316e-21 4.65861e-19)
(0.003 -6.28717e-20 4.67528e-19)
(0.003 -7.65767e-20 3.12301e-19)
(0.003 -3.00047e-20 1.82045e-19)
(0.003 -9.22696e-20 9.29057e-20)
(0.003 -1.03219e-19 1.00945e-19)
(0.003 2.08445e-20 2.66242e-20)
(0.003 5.1036e-20 -8.45772e-21)
(0.003 1.09687e-19 1.54072e-19)
(0.003 8.11766e-20 2.36178e-19)
(0.003 5.32487e-20 2.87695e-19)
(0.003 -3.557e-20 3.28279e-19)
(0.003 -1.42728e-19 2.39876e-19)
(0.003 -5.83335e-20 6.3608e-20)
(0.003 5.93625e-20 -4.35789e-20)
(0.003 1.34503e-19 -5.07327e-20)
(0.003 2.01149e-19 -1.61257e-19)
(0.003 1.13339e-19 -1.95066e-19)
(0.003 -1.48499e-20 -2.01352e-19)
(0.003 -1.83843e-19 -2.77147e-19)
(0.003 -2.17761e-19 -1.81445e-19)
(0.003 -1.40576e-19 -1.11566e-19)
(0.003 -6.21013e-20 2.17466e-20)
(0.003 8.9801e-20 -8.34932e-20)
(0.003 7.18782e-20 -3.2696e-19)
(0.003 4.03383e-20 -2.44783e-19)
(0.003 -6.99878e-20 -9.16603e-20)
(0.003 -2.90793e-19 -2.24387e-19)
(0.003 -9.107e-20 8.11572e-19)
(0.003 -7.694e-20 1.16914e-18)
(0.003 -1.14848e-20 1.18702e-18)
(0.003 2.40396e-20 9.45959e-19)
(0.003 4.07745e-20 8.4456e-19)
(0.003 -8.10674e-21 8.49678e-19)
(0.003 3.46758e-20 7.76952e-19)
(0.003 1.43045e-19 6.01331e-19)
(0.003 3.6406e-20 5.07193e-19)
(0.003 -8.98053e-20 5.30596e-19)
(0.003 4.21074e-20 5.27886e-19)
(0.003 8.91361e-20 4.44876e-19)
(0.003 -4.92352e-20 4.71308e-19)
(0.003 -2.21336e-19 3.98204e-19)
(0.003 -1.50885e-19 2.62552e-19)
(0.003 -1.15052e-19 1.22099e-19)
(0.003 -3.81016e-20 1.82496e-20)
(0.003 -6.23887e-21 6.23967e-20)
(0.003 -1.01925e-20 7.14796e-20)
(0.003 1.82663e-19 4.20678e-20)
(0.003 1.79436e-19 2.66383e-19)
(0.003 9.85203e-20 2.90075e-19)
(0.003 -1.40397e-20 3.32551e-19)
(0.003 -1.48809e-19 3.1707e-19)
(0.003 -9.99634e-20 1.97611e-19)
(0.003 1.24763e-20 1.25384e-19)
(0.003 8.37115e-20 -3.13358e-20)
(0.003 8.09812e-20 -1.81324e-20)
(0.003 3.73129e-20 -8.33784e-20)
(0.003 6.60857e-20 -2.28332e-19)
(0.003 1.09576e-19 -2.27682e-19)
(0.003 -3.71072e-20 -3.40006e-19)
(0.003 -1.61085e-19 -3.32003e-19)
(0.003 -1.93994e-19 -1.47917e-19)
(0.003 -1.5068e-19 1.37097e-19)
(0.003 1.39373e-20 1.1648e-19)
(0.003 1.36454e-19 -2.19821e-19)
(0.003 1.53565e-19 -3.39366e-19)
(0.003 6.86739e-20 -3.014e-19)
(0.003 -1.72316e-21 -3.32254e-19)
(0.003 -8.10389e-20 7.58214e-19)
(0.003 -1.61625e-19 1.1015e-18)
(0.003 -6.92202e-20 1.16397e-18)
(0.003 -2.58819e-20 1.05995e-18)
(0.003 -3.69929e-22 9.68111e-19)
(0.003 -1.44989e-20 8.79831e-19)
(0.003 4.04964e-20 7.54079e-19)
(0.003 9.60584e-20 6.35999e-19)
(0.003 -2.71396e-20 4.92338e-19)
(0.003 -2.35524e-20 4.60366e-19)
(0.003 1.39251e-20 5.3573e-19)
(0.003 -8.21631e-20 5.56431e-19)
(0.003 -1.27761e-19 5.23657e-19)
(0.003 -1.32967e-19 3.49425e-19)
(0.003 -1.21623e-19 1.96261e-19)
(0.003 -1.0489e-19 1.15621e-19)
(0.003 -4.22009e-20 -9.50639e-20)
(0.003 -5.61221e-20 -3.90729e-20)
(0.003 3.64724e-20 1.18921e-19)
(0.003 2.67987e-19 1.19549e-19)
(0.003 1.8903e-19 2.58005e-19)
(0.003 9.35185e-20 4.14016e-19)
(0.003 -6.22767e-20 4.17084e-19)
(0.003 -1.5467e-19 2.67011e-19)
(0.003 -2.80976e-20 1.38559e-19)
(0.003 -2.37156e-20 1.56919e-19)
(0.003 -1.83459e-20 1.25105e-20)
(0.003 -6.00102e-20 -1.40561e-19)
(0.003 -7.94233e-20 -5.41044e-20)
(0.003 1.05921e-19 -1.27902e-19)
(0.003 1.50487e-19 -2.51064e-19)
(0.003 2.86904e-20 -4.13758e-19)
(0.003 -8.74727e-20 -4.08497e-19)
(0.003 -1.17132e-19 -2.91526e-19)
(0.003 -1.31358e-19 5.83771e-20)
(0.003 -8.18181e-20 1.57163e-19)
(0.003 1.17333e-19 -8.03393e-20)
(0.003 1.71422e-19 -2.67728e-19)
(0.003 9.92274e-20 -3.17603e-19)
(0.003 2.12412e-19 -4.01491e-19)
(0.003 -1.85894e-19 7.00386e-19)
(0.003 -1.39234e-19 1.06037e-18)
(0.003 6.08143e-20 1.14591e-18)
(0.003 3.24506e-21 1.04011e-18)
(0.003 -4.81812e-20 9.03385e-19)
(0.003 -5.26553e-20 8.63925e-19)
(0.003 3.38281e-20 8.29809e-19)
(0.003 1.51658e-20 6.89022e-19)
(0.003 -1.38501e-20 4.55712e-19)
(0.003 1.99146e-21 5.02242e-19)
(0.003 -7.93623e-20 6.09912e-19)
(0.003 -1.14095e-19 4.85359e-19)
(0.003 -1.91671e-19 4.78181e-19)
(0.003 -6.78578e-20 3.98337e-19)
(0.003 -2.79308e-20 1.70912e-19)
(0.003 -9.86994e-20 5.05975e-20)
(0.003 -3.89508e-20 -1.52469e-20)
(0.003 7.4402e-20 4.63217e-20)
(0.003 1.69589e-19 1.39817e-19)
(0.003 2.25377e-19 1.6714e-19)
(0.003 2.08018e-19 2.96465e-19)
(0.003 7.90761e-20 2.85223e-19)
(0.003 -1.11105e-19 2.87065e-19)
(0.003 -1.22141e-19 2.63741e-19)
(0.003 -3.2582e-20 1.58231e-19)
(0.003 -3.50033e-20 1.76776e-19)
(0.003 -9.84072e-20 1.56732e-20)
(0.003 -1.22023e-19 -8.87333e-20)
(0.003 -1.39418e-19 7.69519e-21)
(0.003 -6.74823e-20 -6.38596e-20)
(0.003 -1.76246e-20 -2.24538e-19)
(0.003 1.07099e-19 -3.67735e-19)
(0.003 1.50148e-20 -4.48536e-19)
(0.003 1.25501e-22 -3.21215e-19)
(0.003 1.26781e-19 -5.36062e-20)
(0.003 6.18142e-20 7.05955e-20)
(0.003 -5.23521e-20 -6.81162e-20)
(0.003 -8.06316e-20 -2.05545e-19)
(0.003 -4.52997e-20 -3.49354e-19)
(0.003 5.71089e-20 -4.50428e-19)
(0.003 -1.42914e-19 5.97843e-19)
(0.003 -1.80889e-19 1.12392e-18)
(0.003 -1.16507e-19 1.31408e-18)
(0.003 2.38496e-20 1.0957e-18)
(0.003 9.99429e-20 9.02673e-19)
(0.003 2.3772e-20 8.56965e-19)
(0.003 -9.42583e-20 7.98319e-19)
(0.003 -1.78286e-19 6.43199e-19)
(0.003 -8.5912e-20 5.33265e-19)
(0.003 -1.38247e-20 5.19948e-19)
(0.003 -1.398e-20 5.34285e-19)
(0.003 1.26263e-20 4.66982e-19)
(0.003 -5.84859e-20 4.02931e-19)
(0.003 -8.13054e-20 3.68701e-19)
(0.003 -2.15677e-20 2.19132e-19)
(0.003 -8.7956e-21 1.4825e-19)
(0.003 1.7965e-20 1.1091e-19)
(0.003 1.78242e-19 3.56634e-20)
(0.003 2.96367e-19 -1.63879e-20)
(0.003 2.18174e-19 6.99029e-20)
(0.003 2.69298e-21 2.99204e-19)
(0.003 -6.49346e-20 4.78771e-19)
(0.003 9.26697e-21 3.55243e-19)
(0.003 4.31319e-20 2.16956e-19)
(0.003 -7.94126e-20 1.41766e-19)
(0.003 -4.05703e-20 1.56443e-19)
(0.003 -6.15922e-20 5.3165e-20)
(0.003 -2.10202e-19 -3.63484e-20)
(0.003 -1.05261e-19 4.70133e-20)
(0.003 -5.05906e-20 2.23932e-21)
(0.003 -6.60956e-20 -1.87962e-19)
(0.003 -2.56057e-20 -3.92232e-19)
(0.003 2.56748e-20 -4.00598e-19)
(0.003 7.80161e-20 -2.62314e-19)
(0.003 1.61186e-19 -1.49247e-19)
(0.003 1.01039e-19 -8.09345e-20)
(0.003 -5.3306e-20 -9.03737e-20)
(0.003 -1.14987e-19 -2.92623e-19)
(0.003 -1.61678e-20 -4.99952e-19)
(0.003 3.98433e-20 -4.27908e-19)
(0.003 -6.97368e-20 6.22071e-19)
(0.003 -1.47863e-19 1.04936e-18)
(0.003 -1.56735e-19 1.19336e-18)
(0.003 -6.07251e-20 1.11422e-18)
(0.003 9.17579e-21 9.87792e-19)
(0.003 3.43888e-20 8.81217e-19)
(0.003 -9.32323e-20 7.85445e-19)
(0.003 -1.44623e-19 6.09326e-19)
(0.003 -1.09449e-19 5.5201e-19)
(0.003 -8.0984e-20 5.89194e-19)
(0.003 -3.63078e-20 5.34301e-19)
(0.003 5.39418e-20 4.61911e-19)
(0.003 8.98806e-20 3.78474e-19)
(0.003 5.7491e-20 3.31935e-19)
(0.003 -1.20422e-20 2.33786e-19)
(0.003 7.9333e-21 1.98281e-19)
(0.003 9.94054e-21 1.88555e-19)
(0.003 5.35835e-20 4.57542e-20)
(0.003 2.5422e-19 2.79435e-20)
(0.003 1.14656e-19 7.42232e-20)
(0.003 -6.52925e-20 1.98437e-19)
(0.003 -9.01389e-20 3.71699e-19)
(0.003 -1.41852e-21 4.43965e-19)
(0.003 -1.7167e-21 2.94057e-19)
(0.003 7.22994e-21 1.24238e-19)
(0.003 -3.62807e-20 1.23815e-19)
(0.003 1.01757e-19 8.57378e-20)
(0.003 -1.01994e-20 -5.39964e-20)
(0.003 -2.01481e-19 8.36723e-21)
(0.003 -9.51912e-20 9.16097e-20)
(0.003 -6.81659e-20 1.60983e-20)
(0.003 -1.14816e-19 -2.89755e-19)
(0.003 -9.61758e-20 -5.17328e-19)
(0.003 7.76447e-20 -3.26532e-19)
(0.003 2.09515e-19 -4.34385e-20)
(0.003 8.7664e-20 -1.04273e-19)
(0.003 9.17909e-20 -1.29767e-19)
(0.003 -3.05953e-20 -3.21233e-19)
(0.003 -2.89727e-20 -5.62281e-19)
(0.003 1.06979e-19 -4.14588e-19)
(0.003 4.45828e-20 6.38855e-19)
(0.003 4.12328e-20 1.04358e-18)
(0.003 -1.94092e-20 1.13232e-18)
(0.003 -9.88215e-20 1.06666e-18)
(0.003 -8.22866e-20 1.00577e-18)
(0.003 -4.83462e-20 8.78013e-19)
(0.003 -1.015e-19 7.38812e-19)
(0.003 -1.60331e-19 6.59692e-19)
(0.003 -1.50036e-19 5.93808e-19)
(0.003 2.76298e-20 5.76022e-19)
(0.003 1.38168e-19 5.38414e-19)
(0.003 1.8048e-19 5.01694e-19)
(0.003 2.41323e-19 4.52862e-19)
(0.003 1.60252e-19 3.77698e-19)
(0.003 1.05213e-20 2.62683e-19)
(0.003 -5.11602e-20 2.22802e-19)
(0.003 -1.3932e-19 7.25145e-20)
(0.003 -1.46091e-19 -6.92705e-20)
(0.003 9.22893e-21 5.16209e-20)
(0.003 -5.9511e-20 8.85355e-20)
(0.003 -7.6032e-20 1.71617e-19)
(0.003 -1.54229e-20 3.82555e-19)
(0.003 -4.42101e-21 4.36793e-19)
(0.003 5.03767e-20 2.46495e-19)
(0.003 1.08402e-19 1.10128e-19)
(0.003 2.91081e-20 1.21117e-19)
(0.003 6.72266e-20 2.10338e-19)
(0.003 1.36999e-19 6.9822e-20)
(0.003 7.2009e-20 6.89692e-20)
(0.003 -3.96328e-20 2.82098e-20)
(0.003 -1.66732e-19 -1.70261e-20)
(0.003 -2.35075e-19 -2.74053e-19)
(0.003 -7.75453e-20 -4.7774e-19)
(0.003 3.33305e-20 -3.29728e-19)
(0.003 1.41261e-20 -6.87398e-20)
(0.003 1.78345e-19 -9.48227e-20)
(0.003 2.61036e-19 -1.83201e-19)
(0.003 1.21667e-19 -3.86967e-19)
(0.003 -4.20464e-21 -5.33156e-19)
(0.003 -5.43502e-20 -4.35742e-19)
(0.003 1.88726e-19 6.31589e-19)
(0.003 1.46208e-19 1.0276e-18)
(0.003 -8.76714e-20 1.13219e-18)
(0.003 -1.43389e-19 1.05584e-18)
(0.003 -6.17162e-20 1.01372e-18)
(0.003 -5.11369e-20 8.80188e-19)
(0.003 -6.69821e-20 6.77224e-19)
(0.003 -1.43038e-19 4.78614e-19)
(0.003 -6.44236e-20 5.04488e-19)
(0.003 1.32969e-19 7.22758e-19)
(0.003 2.36691e-19 7.38399e-19)
(0.003 1.80876e-19 6.55358e-19)
(0.003 1.10483e-19 5.24552e-19)
(0.003 1.26844e-19 4.05668e-19)
(0.003 -9.83933e-21 2.99309e-19)
(0.003 -8.86201e-20 1.75707e-19)
(0.003 -1.09567e-19 5.85981e-20)
(0.003 -2.05654e-19 -8.38568e-20)
(0.003 -2.58722e-19 1.91483e-20)
(0.003 -1.75488e-19 7.44956e-20)
(0.003 -4.34015e-20 1.36406e-19)
(0.003 -3.50604e-20 3.00589e-19)
(0.003 -1.59647e-20 4.01761e-19)
(0.003 1.19694e-19 2.94773e-19)
(0.003 1.83356e-19 1.88127e-19)
(0.003 7.90095e-20 1.27195e-19)
(0.003 -8.28641e-20 1.3751e-19)
(0.003 1.21426e-19 5.98921e-20)
(0.003 1.7371e-19 2.15349e-20)
(0.003 7.75638e-20 -6.88103e-20)
(0.003 3.80361e-20 -1.09975e-19)
(0.003 -3.86451e-20 -3.14512e-19)
(0.003 4.43254e-20 -4.94658e-19)
(0.003 2.64806e-20 -1.9664e-19)
(0.003 -6.05517e-20 -1.32884e-19)
(0.003 1.32494e-19 -4.75492e-20)
(0.003 7.37508e-20 8.15705e-21)
(0.003 -6.43532e-20 -3.02748e-19)
(0.003 -9.55331e-20 -6.1046e-19)
(0.003 -1.13536e-19 -5.15273e-19)
(0.003 1.64766e-19 6.68661e-19)
(0.003 4.54804e-20 1.02795e-18)
(0.003 -1.06672e-19 1.05447e-18)
(0.003 -1.06847e-19 9.25461e-19)
(0.003 -1.70759e-19 9.45836e-19)
(0.003 -2.54431e-20 8.20651e-19)
(0.003 -7.62555e-21 6.86869e-19)
(0.003 7.45376e-20 5.68788e-19)
(0.003 2.02317e-19 5.3508e-19)
(0.003 1.47133e-19 7.08907e-19)
(0.003 7.61226e-20 7.43968e-19)
(0.003 2.55323e-20 6.53564e-19)
(0.003 1.40102e-20 5.12215e-19)
(0.003 -3.57813e-20 4.78259e-19)
(0.003 -1.09824e-19 3.02993e-19)
(0.003 -8.4587e-20 1.21553e-19)
(0.003 -1.1915e-19 -5.21972e-21)
(0.003 -2.03708e-19 -9.3035e-20)
(0.003 -4.2088e-19 -4.29293e-20)
(0.003 -2.53897e-19 -5.54508e-21)
(0.003 -7.85706e-20 2.01681e-19)
(0.003 -6.36724e-20 3.4448e-19)
(0.003 7.53735e-20 3.43364e-19)
(0.003 2.30516e-19 2.94496e-19)
(0.003 1.86317e-19 1.5031e-19)
(0.003 1.32389e-19 1.48072e-19)
(0.003 -1.79457e-20 8.74268e-20)
(0.003 6.15996e-20 4.07873e-20)
(0.003 1.42965e-19 6.58927e-20)
(0.003 1.00835e-19 -9.37448e-20)
(0.003 1.52006e-19 -1.716e-19)
(0.003 2.36944e-19 -2.40995e-19)
(0.003 1.71198e-19 -3.2421e-19)
(0.003 1.56388e-20 -2.36341e-19)
(0.003 -1.1913e-19 -7.49464e-20)
(0.003 -5.7838e-20 -4.29291e-20)
(0.003 -1.68764e-19 -7.27751e-20)
(0.003 -2.47871e-19 -3.08674e-19)
(0.003 -1.49814e-19 -4.00817e-19)
(0.003 -4.16427e-20 -2.1858e-19)
(0.003 -1.07693e-19 6.54892e-19)
(0.003 -1.68502e-19 1.02643e-18)
(0.003 -1.00407e-19 1.06889e-18)
(0.003 -5.19582e-20 8.79915e-19)
(0.003 -1.38001e-19 8.12028e-19)
(0.003 -2.07724e-20 8.56609e-19)
(0.003 8.8233e-20 6.78382e-19)
(0.003 2.43109e-19 4.47465e-19)
(0.003 1.21911e-19 5.35071e-19)
(0.003 1.57194e-21 7.34353e-19)
(0.003 -4.35863e-20 7.89955e-19)
(0.003 -4.43513e-20 7.4165e-19)
(0.003 -5.43708e-20 6.11952e-19)
(0.003 -1.37415e-19 3.39673e-19)
(0.003 -3.54251e-20 1.52806e-19)