/*--------------------------------*- C++ -*----------------------------------*\
| =========                 |                                                 |
| \\      /  F ield         | OpenFOAM: The Open Source CFD Toolbox           |
|  \\    /   O peration     | Version:  v2012                                 |
|   \\  /    A nd           | Website:  www.openfoam.com                      |
|    \\/     M anipulation  |                                                 |
\*---------------------------------------------------------------------------*/
FoamFile
{
    version     2.0;
    format      ascii;
    class       volScalarField;
    location    "270/rightSolid";
    object      T;
}
// * * * * * * * * * * * * * * * * * * * * * * * * * * * * * * * * * * * * * //

dimensions      [0 0 0 1 0 0 0];


internalField   nonuniform List<scalar> 
130
(
722.21423
729.51194
737.09563
744.5796
751.67126
758.15818
763.92464
768.91742
773.10804
776.46084
778.97455
780.64864
781.48234
716.92418
725.439
734.09013
742.43224
750.16856
757.11766
763.2025
768.40449
772.72411
776.16318
778.73319
780.44734
781.30981
706.2518
717.57175
728.51025
738.56535
747.53618
755.3296
761.97993
767.54649
772.08453
775.65755
778.31727
780.08166
780.96759
690.22421
706.85809
721.5044
734.00754
744.54156
753.34426
760.64126
766.61634
771.41137
775.13961
777.88569
779.69827
780.60142
671.16482
696.57403
715.63202
730.47827
742.32798
751.90209
759.66115
765.92132
770.89397
774.72991
777.5357
779.38395
780.30278
670.92913
696.3256
715.37459
730.21947
742.06585
751.63336
759.39565
765.67267
770.6599
774.50322
777.31736
779.1772
780.103
689.58534
706.15335
720.77715
733.25358
743.76447
752.56201
759.86957
765.86492
770.68672
774.42996
777.18376
779.01
779.91984
705.46388
716.63272
727.44186
737.389
746.2762
754.05519
760.71045
766.29408
770.86851
774.4528
777.10276
778.85805
779.73597
716.05494
724.38094
732.84746
741.02307
748.63036
755.51031
761.57784
766.77284
771.09087
774.51786
777.07373
778.77354
779.62531
721.31017
728.4063
735.78402
743.08159
750.01992
756.40555
762.1161
767.07275
771.23744
774.57033
777.07053
778.73989
779.57746
)
;

boundaryField
{
    maxX
    {
        type            zeroGradient;
    }
    minZ
    {
        type            zeroGradient;
    }
    maxZ
    {
        type            zeroGradient;
    }
    rightSolid_to_bottomWater
    {
        type            compressible::turbulentTemperatureCoupledBaffleMixed;
        refValue        nonuniform List<scalar> 
130
(
957.6526
959.46571
960.81661
962.3775
964.67422
965.1494
964.94292
966.36675
970.59348
971.83115
972.87018
973.40767
972.622
957.01907
959.11154
961.09835
964.33225
966.42697
967.01166
966.8934
967.97599
970.33839
972.08725
972.89842
974.30266
976.43906
955.03291
958.31705
960.25955
961.82742
968.70802
969.0385
969.08449
969.66881
968.12224
967.57521
969.89056
970.59227
972.34405
951.44668
956.59461
960.43264
965.65697
967.33516
967.38075
967.41737
967.31986
966.25718
965.20342
965.59497
966.34318
966.83687
941.83053
952.61147
960.50272
963.44983
965.45003
966.54192
965.76926
965.08216
963.84778
962.86187
962.18913
963.46508
964.04097
934.27402
951.19313
958.21425
961.89253
964.44304
963.59304
962.12362
964.09413
964.15638
962.82313
962.7239
965.36036
966.45052
933.12926
942.015
955.32975
960.42434
962.06414
962.648
963.51976
963.58368
963.81174
962.40723
961.80259
964.37958
965.10359
948.46817
948.45643
948.76189
948.88398
950.86137
957.5571
958.24069
958.21034
962.2847
961.16786
959.96324
959.39017
959.49297
952.87761
952.23643
951.74322
951.29215
950.6402
950.66525
954.27392
954.84444
957.16906
956.47274
956.01597
955.51332
955.59935
954.08034
954.35153
952.98356
952.29346
951.59267
950.69077
950.47841
950.36475
952.97554
952.71168
952.5633
952.62837
952.88007
)
;
        refGradient     uniform 0;
        valueFraction   nonuniform List<scalar> 
130
(
0.0075140686
0.0075140686
0.0075140686
0.0075140686
0.0075140686
0.0075140686
0.0075140686
0.0075140686
0.0075140686
0.0075140686
0.0075140686
0.0075140686
0.0075140686
0.0075140686
0.0075140686
0.0075140686
0.0075140686
0.0075140686
0.0075140686
0.0075140686
0.0075140686
0.0075140686
0.0075140686
0.0075140686
0.0075140686
0.0075140686
0.0075140686
0.0075140686
0.0075140686
0.0075140686
0.0075140686
0.0075140686
0.0075140686
0.0075140686
0.0075140686
0.0075140686
0.0075140686
0.0075140686
0.0075140686
0.0075140686
0.0075140686
0.0075140686
0.0075140686
0.0075140686
0.0075140686
0.0075140686
0.0075140686
0.0075140686
0.0075140686
0.0075140686
0.0075140686
0.0075140686
0.0075140686
0.0075140686
0.0075140686
0.0075140686
0.0075140686
0.0075140686
0.0075140686
0.0075140686
0.0075140686
0.0075140686
0.0075140686
0.0075140686
0.0075140686
0.0075140686
0.0075140686
0.0075140686
0.0075140686
0.0075140686
0.0075140686
0.0075140686
0.0075140686
0.0075140686
0.0075140686
0.0075140686
0.0075140686
0.0075140686
0.0075140686
0.0075140686
0.0075140686
0.0075140686
0.0075140686
0.0075140686
0.0075140686
0.0075140686
0.0075140686
0.0075140686
0.0075140686
0.0075140686
0.0075140686
0.0075140686
0.0075140686
0.0075140686
0.0075140686
0.0075140686
0.0075140686
0.0075140686
0.0075140686
0.0075140686
0.0075140686
0.0075140686
0.0075140686
0.0075140686
0.0075140686
0.0075140686
0.0075140686
0.0075140686
0.0075140686
0.0075140686
0.0075140686
0.0075140686
0.0075140686
0.0075140686
0.0075140686
0.0075140686
0.0075140686
0.0075140686
0.0075140686
0.0075140686
0.0075140686
0.0075140686
0.0075140686
0.0075140686
0.0075140686
0.0075140686
0.0075140686
0.0075140686
0.0075140686
0.0075140686
)
;
        value           nonuniform List<scalar> 
130
(
723.97782
731.23421
738.77093
746.21023
753.26572
759.70729
765.42871
770.39448
774.58522
777.92203
780.4246
782.0901
782.91159
718.72283
727.18926
735.79014
744.09368
751.78748
758.68859
764.72664
769.8975
774.20227
777.62853
780.18525
781.89702
782.76903
708.11591
719.37529
730.24599
740.23709
749.19203
756.92919
763.52973
769.0587
773.55091
777.09284
779.74987
781.50623
782.39864
692.18213
708.72939
723.29421
735.74232
746.20958
754.9463
762.18858
768.11789
772.86881
776.56103
779.28933
781.09383
781.99387
673.19394
698.49284
717.46654
732.22305
743.99854
753.50873
761.20353
767.41137
772.33729
776.13692
778.91648
780.76034
781.67654
672.90318
698.23554
717.19379
731.95452
743.73085
753.21992
760.9127
767.15725
772.10738
775.91171
778.70386
780.56946
781.49648
691.41053
707.92042
722.53402
734.95478
745.39881
754.13448
761.39354
767.34421
772.13144
775.83595
778.56445
780.3963
781.30473
707.2848
718.36937
729.09933
738.97242
747.80751
755.5782
762.18849
767.72984
772.30046
775.84937
778.47034
780.20813
781.08023
717.82923
726.08767
734.48666
742.59726
750.14233
756.97062
763.01958
768.17973
772.48272
775.87869
778.41192
780.0952
780.94124
723.05394
730.09864
737.41045
744.64783
751.52861
757.85935
763.52529
768.44375
772.59668
775.90253
778.38284
780.04017
780.87336
)
;
        Tnbr            T;
        thicknessLayers List<scalar> 0();
        kappaLayers     List<scalar> 0();
        kappaMethod     solidThermo;
        kappa           none;
        alphaAni        none;
        alpha           none;
        field           T;
    }
    rightSolid_to_topAir
    {
        type            compressible::turbulentTemperatureCoupledBaffleMixed;
        refValue        nonuniform List<scalar> 
130
(
475.86949
470.97814
466.41474
462.50191
459.36806
457.04262
455.52902
454.83843
455.00683
456.13397
458.47458
462.60039
469.23816
430.81224
425.84919
422.40815
420.08058
418.51442
417.53437
417.13394
417.38998
418.4055
420.36516
423.73737
429.60246
438.4297
435.0798
425.91556
418.28045
412.2168
407.60925
404.38387
402.54441
402.08688
402.92427
404.9576
408.29805
414.01974
426.19717
477.6919
478.27469
478.48353
477.83374
476.1891
473.73771
470.87811
467.97191
465.43856
464.58657
468.01907
475.6958
485.128
480.47909
484.93209
489.58201
494.1675
498.437
502.15988
505.15813
507.35173
508.84772
510.11974
512.15085
516.26668
524.2355
480.77932
485.26937
489.98424
494.66736
499.06209
502.91489
506.02857
508.31551
509.90001
511.29625
513.49868
517.82731
526.20407
477.9208
479.01312
479.75551
479.63678
478.4477
476.26624
473.38944
470.19489
467.42108
466.70569
470.27199
477.05201
486.67046
434.89238
426.0323
418.60997
412.64091
407.99511
404.59794
402.47379
401.66224
402.14073
403.84645
406.88487
412.2951
423.66788
429.76566
424.7341
421.33326
419.12383
417.7088
416.86238
416.53311
416.76975
417.67202
419.43202
422.50187
427.94696
436.7998
475.40827
470.42281
465.79687
461.86266
458.74444
456.45521
454.97491
454.2924
454.43112
455.48745
457.71071
461.66443
468.14066
)
;
        refGradient     uniform 0;
        valueFraction   nonuniform List<scalar> 
130
(
0.00032132529
0.00032132529
0.00032132529
0.00032132529
0.00032132529
0.00032132529
0.00032132529
0.00032132529
0.00032132529
0.00032132529
0.00032132529
0.00032132529
0.00032132529
0.00032132529
0.00032132529
0.00032132529
0.00032132529
0.00032132529
0.00032132529
0.00032132529
0.00032132529
0.00032132529
0.00032132529
0.00032132529
0.00032132529
0.00032132529
0.00032132529
0.00032132529
0.00032132529
0.00032132529
0.00032132529
0.00032132529
0.00032132529
0.00032132529
0.00032132529
0.00032132529
0.00032132529
0.00032132529
0.00032132529
0.00032132529
0.00032132529
0.00032132529
0.00032132529
0.00032132529
0.00032132529
0.00032132529
0.00032132529
0.00032132529
0.00032132529
0.00032132529
0.00032132529
0.00032132529
0.00032132529
0.00032132529
0.00032132529
0.00032132529
0.00032132529
0.00032132529
0.00032132529
0.00032132529
0.00032132529
0.00032132529
0.00032132529
0.00032132529
0.00032132529
0.00032132529
0.00032132529
0.00032132529
0.00032132529
0.00032132529
0.00032132529
0.00032132529
0.00032132529
0.00032132529
0.00032132529
0.00032132529
0.00032132529
0.00032132529
0.00032132529
0.00032132529
0.00032132529
0.00032132529
0.00032132529
0.00032132529
0.00032132529
0.00032132529
0.00032132529
0.00032132529
0.00032132529
0.00032132529
0.00032132529
0.00032132529
0.00032132529
0.00032132529
0.00032132529
0.00032132529
0.00032132529
0.00032132529
0.00032132529
0.00032132529
0.00032132529
0.00032132529
0.00032132529
0.00032132529
0.00032132529
0.00032132529
0.00032132529
0.00032132529
0.00032132529
0.00032132529
0.00032132529
0.00032132529
0.00032132529
0.00032132529
0.00032132529
0.00032132529
0.00032132529
0.00032132529
0.00032132529
0.00032132529
0.00032132529
0.00032132529
0.00032132529
0.00032132529
0.00032132529
0.00032132529
0.00032132529
0.00032132529
0.00032132529
0.00032132529
)
;
        value           nonuniform List<scalar> 
130
(
722.12952
729.42321
737.00286
744.483
751.57123
758.05514
763.8191
768.80987
772.99904
776.35103
778.86462
780.53945
781.37498
716.82676
725.33712
733.9842
742.32269
750.05589
757.00227
763.08485
768.28507
772.60348
776.04197
778.61216
780.3276
781.19259
706.15938
717.47256
728.40488
738.45458
747.42086
755.21056
761.85799
767.42246
771.9592
775.5316
778.19143
779.95705
780.84657
690.15096
706.77937
721.42076
733.91933
744.44922
753.24813
760.5417
766.51378
771.30636
775.03304
777.77925
779.59363
780.49949
671.09883
696.50091
715.55389
730.39651
742.24357
751.81562
759.573
765.83173
770.80317
774.63821
777.44365
779.29254
780.21358
670.86325
696.25259
715.29661
730.13799
741.98177
751.54728
759.30793
765.58356
770.5696
774.41204
777.22588
779.08644
780.01462
689.51247
706.07511
720.69409
733.16627
743.6732
752.46705
759.7712
765.76349
770.58279
774.32455
777.07855
778.90635
779.81897
705.37187
716.53401
727.33704
737.27884
746.1615
753.93674
760.58908
766.17056
770.74361
774.32725
776.97731
778.73377
779.61506
715.9577
724.27922
732.74173
740.91381
748.51804
755.39536
761.46073
766.65404
770.97091
774.39733
776.95335
778.65439
779.50875
721.22584
728.31793
735.6916
742.9854
749.92035
756.30305
762.01118
766.96593
771.12925
774.46139
776.96151
778.63163
779.47103
)
;
        Tnbr            T;
        thicknessLayers List<scalar> 0();
        kappaLayers     List<scalar> 0();
        kappaMethod     solidThermo;
        kappa           none;
        alphaAni        none;
        alpha           none;
        field           T;
    }
    rightSolid_to_heater
    {
        type            compressible::turbulentTemperatureCoupledBaffleMixed;
        refValue        nonuniform List<scalar> 10(715.66599 709.15939 695.54558 672.97272 635.28305 635.11507 672.45659 694.90957 708.46132 714.9433);
        refGradient     uniform 0;
        valueFraction   nonuniform List<scalar> 10(0.50000003 0.50000003 0.50000003 0.50000003 0.50000003 0.50000003 0.50000003 0.50000003 0.50000003 0.50000003);
        value           nonuniform List<scalar> 10(718.93733 713.03904 700.89605 681.59598 653.22158 653.01971 681.01854 700.18419 712.25551 718.12408);
        Tnbr            T;
        thicknessLayers List<scalar> 0();
        kappaLayers     List<scalar> 0();
        kappaMethod     solidThermo;
        kappa           none;
        alphaAni        none;
        alpha           none;
        field           T;
    }
}


// ************************************************************************* //
