/*--------------------------------*- C++ -*----------------------------------*\
| =========                 |                                                 |
| \\      /  F ield         | OpenFOAM: The Open Source CFD Toolbox           |
|  \\    /   O peration     | Version:  v2012                                 |
|   \\  /    A nd           | Website:  www.openfoam.com                      |
|    \\/     M anipulation  |                                                 |
\*---------------------------------------------------------------------------*/
FoamFile
{
    version     2.0;
    format      ascii;
    class       volScalarField;
    location    "360/rightSolid";
    object      T;
}
// * * * * * * * * * * * * * * * * * * * * * * * * * * * * * * * * * * * * * //

dimensions      [0 0 0 1 0 0 0];


internalField   nonuniform List<scalar> 
130
(
745.31979
753.08294
761.17538
769.18913
776.83174
783.88721
790.21746
795.74201
800.42183
804.21609
807.08386
809.00564
809.97104
739.5787
748.65506
757.89946
766.83112
775.17139
782.72662
789.40519
795.16737
800.00716
803.90592
806.84325
808.80704
809.79029
728.01444
740.09958
751.80333
762.59298
772.25719
780.72743
788.0301
794.20885
799.32306
803.40108
806.45579
808.49197
809.51121
710.7076
728.47264
744.13869
757.55884
768.93628
778.51939
786.53884
793.18064
798.59247
802.85909
806.03671
808.14931
809.20605
690.19058
717.31236
737.68579
753.63181
766.44325
776.88363
785.42685
792.39003
798.00087
802.39425
805.65333
807.81458
808.89341
689.73685
716.86176
737.26928
753.26297
766.12465
776.60873
785.17052
792.13743
797.73418
802.11348
805.38056
807.54108
808.61666
709.45057
727.27309
743.02007
756.53677
768.01676
777.7071
785.78196
792.44361
797.84181
802.08914
805.26338
807.37001
808.41828
726.21545
738.3979
750.21133
761.12521
770.91459
779.49691
786.8686
793.08214
798.19732
802.26257
805.29257
807.3065
808.3128
737.44212
746.63873
756.01273
765.09163
773.56268
781.21958
787.97405
793.80036
798.64783
802.51727
805.41478
807.34603
808.31199
743.03803
750.93164
759.16585
767.32764
775.10075
782.26016
788.67201
794.26744
798.95324
802.70927
805.52967
807.4133
808.35808
)
;

boundaryField
{
    maxX
    {
        type            zeroGradient;
    }
    minZ
    {
        type            zeroGradient;
    }
    maxZ
    {
        type            zeroGradient;
    }
    rightSolid_to_bottomWater
    {
        type            compressible::turbulentTemperatureCoupledBaffleMixed;
        refValue        nonuniform List<scalar> 
130
(
956.15198
957.65454
957.07145
955.04524
954.45857
953.77185
953.1255
952.21896
953.6789
956.85445
958.36788
959.12446
959.83625
955.76932
957.36392
958.39307
954.84861
956.04665
954.93056
953.95892
952.6365
954.04911
956.71217
958.5525
959.37837
959.35894
954.9396
955.69793
956.13358
955.53963
956.14976
954.28981
953.90764
952.47933
953.57905
956.25872
958.61141
960.01689
960.5791
953.17812
954.0274
953.90106
953.65029
954.1639
953.31059
952.35391
951.14473
952.628
954.89974
957.81842
960.15351
961.57142
947.33091
949.84464
949.2252
948.25036
947.86869
948.31562
948.54376
947.50801
949.26345
952.45044
955.76682
958.98292
960.64107
934.75292
938.81648
940.86221
943.0342
945.45888
949.52177
949.25047
948.49945
947.6694
947.22746
954.51977
957.35407
958.48424
934.15177
936.95744
938.76481
940.68291
943.029
951.27207
950.41275
949.75565
948.7367
948.199
953.31437
956.38169
956.90779
937.84252
939.30074
940.54845
942.30343
945.9393
948.93408
948.89108
947.88471
948.55718
952.33963
953.44942
954.47524
955.06091
938.47198
940.23514
941.16984
942.85712
946.24522
945.91825
945.05793
950.38257
951.4906
951.95951
952.44596
952.99865
953.02921
938.96987
940.30418
941.11837
942.23014
943.68221
944.14687
944.8684
951.21917
952.13555
952.50413
952.75451
953.11524
953.68285
)
;
        refGradient     uniform 0;
        valueFraction   nonuniform List<scalar> 
130
(
0.0075140686
0.0075140686
0.0075140686
0.0075140686
0.0075140686
0.0075140686
0.0075140686
0.0075140686
0.0075140686
0.0075140686
0.0075140686
0.0075140686
0.0075140686
0.0075140686
0.0075140686
0.0075140686
0.0075140686
0.0075140686
0.0075140686
0.0075140686
0.0075140686
0.0075140686
0.0075140686
0.0075140686
0.0075140686
0.0075140686
0.0075140686
0.0075140686
0.0075140686
0.0075140686
0.0075140686
0.0075140686
0.0075140686
0.0075140686
0.0075140686
0.0075140686
0.0075140686
0.0075140686
0.0075140686
0.0075140686
0.0075140686
0.0075140686
0.0075140686
0.0075140686
0.0075140686
0.0075140686
0.0075140686
0.0075140686
0.0075140686
0.0075140686
0.0075140686
0.0075140686
0.0075140686
0.0075140686
0.0075140686
0.0075140686
0.0075140686
0.0075140686
0.0075140686
0.0075140686
0.0075140686
0.0075140686
0.0075140686
0.0075140686
0.0075140686
0.0075140686
0.0075140686
0.0075140686
0.0075140686
0.0075140686
0.0075140686
0.0075140686
0.0075140686
0.0075140686
0.0075140686
0.0075140686
0.0075140686
0.0075140686
0.0075140686
0.0075140686
0.0075140686
0.0075140686
0.0075140686
0.0075140686
0.0075140686
0.0075140686
0.0075140686
0.0075140686
0.0075140686
0.0075140686
0.0075140686
0.0075140686
0.0075140686
0.0075140686
0.0075140686
0.0075140686
0.0075140686
0.0075140686
0.0075140686
0.0075140686
0.0075140686
0.0075140686
0.0075140686
0.0075140686
0.0075140686
0.0075140686
0.0075140686
0.0075140686
0.0075140686
0.0075140686
0.0075140686
0.0075140686
0.0075140686
0.0075140686
0.0075140686
0.0075140686
0.0075140686
0.0075140686
0.0075140686
0.0075140686
0.0075140686
0.0075140686
0.0075140686
0.0075140686
0.0075140686
0.0075140686
0.0075140686
0.0075140686
0.0075140686
0.0075140686
)
;
        value           nonuniform List<scalar> 
130
(
746.90152
754.61755
762.64475
770.58303
778.16377
785.16108
791.43891
796.91517
801.57082
805.36045
808.21807
810.1311
811.09461
741.20074
750.2208
759.4034
768.24129
776.52784
784.01793
790.63901
796.34798
801.16205
805.05153
807.98063
809.9359
810.91162
729.71716
741.7171
753.33611
764.04019
773.63634
782.02895
789.27388
795.39548
800.47956
804.54706
807.5965
809.62795
810.64377
712.52722
730.16502
745.71233
759.0297
770.32548
779.83015
787.78214
794.36496
799.74729
803.99888
807.17455
809.28881
810.34826
692.12062
719.05729
739.27286
755.09167
767.80393
778.16918
786.6499
793.55297
799.13485
803.51912
806.77861
808.94775
810.03091
691.57588
718.5273
738.79672
754.68649
767.46971
777.90545
786.40082
793.30971
798.85815
803.20121
806.49853
808.66407
809.74005
711.13692
728.84647
744.4886
757.91807
769.32938
779.00875
787.01642
793.62305
798.973
803.18435
806.37317
808.48698
809.53131
727.80363
739.90539
751.63933
762.4843
772.22736
780.7676
788.08351
794.24274
799.32449
803.38758
806.40312
808.4096
809.41272
738.9507
748.09137
757.40188
766.42515
774.85792
782.45473
789.15189
794.97435
799.79367
803.63752
806.51687
808.43773
809.39665
744.50837
752.35264
760.53103
768.63976
776.36527
783.47429
789.84324
795.44425
800.10165
803.83217
806.63322
808.50538
809.44731
)
;
        Tnbr            T;
        thicknessLayers List<scalar> 0();
        kappaLayers     List<scalar> 0();
        kappaMethod     solidThermo;
        kappa           none;
        alphaAni        none;
        alpha           none;
        field           T;
    }
    rightSolid_to_topAir
    {
        type            compressible::turbulentTemperatureCoupledBaffleMixed;
        refValue        nonuniform List<scalar> 
130
(
486.36386
480.44023
475.1879
470.88677
467.60551
465.31399
463.96304
463.52151
464.00011
465.48662
468.22228
472.78534
480.02766
434.87217
429.79741
426.6293
424.7259
423.61828
423.08198
423.08952
423.70678
425.0487
427.31152
430.92774
437.00431
446.9353
442.81804
434.38554
427.20427
421.20118
416.33656
412.71617
410.51401
409.83262
410.63144
412.79136
416.3541
422.41925
434.05098
493.31488
495.1294
496.08961
495.71426
493.92158
491.01608
487.42568
483.62508
480.50893
479.76127
483.32743
489.91052
500.2619
495.84324
500.24475
504.9189
509.55382
513.84571
517.52507
520.40258
522.42486
523.78161
525.04705
527.2398
531.72524
540.39026
493.307
497.61601
502.0729
506.35347
510.162
513.25917
515.4949
516.84744
517.5093
518.06083
519.60238
523.59855
531.68485
488.20688
488.62532
488.18543
486.45861
483.49779
479.71448
475.63838
471.69508
468.35267
466.83495
469.62392
478.466
488.93585
440.27322
431.34489
423.95643
418.03773
413.50161
410.33307
408.56262
408.18209
409.1015
411.19487
414.51161
419.96145
431.09072
434.24328
428.7363
425.20653
423.06824
421.86124
421.33747
421.42932
422.16302
423.61027
425.92623
429.5491
435.5467
444.80144
485.60248
479.46931
473.97685
469.44451
465.96854
463.52968
462.0733
461.552
461.95123
463.33214
465.92091
470.26767
477.11839
)
;
        refGradient     uniform 0;
        valueFraction   nonuniform List<scalar> 
130
(
0.00032132529
0.00032132529
0.00032132529
0.00032132529
0.00032132529
0.00032132529
0.00032132529
0.00032132529
0.00032132529
0.00032132529
0.00032132529
0.00032132529
0.00032132529
0.00032132529
0.00032132529
0.00032132529
0.00032132529
0.00032132529
0.00032132529
0.00032132529
0.00032132529
0.00032132529
0.00032132529
0.00032132529
0.00032132529
0.00032132529
0.00032132529
0.00032132529
0.00032132529
0.00032132529
0.00032132529
0.00032132529
0.00032132529
0.00032132529
0.00032132529
0.00032132529
0.00032132529
0.00032132529
0.00032132529
0.00032132529
0.00032132529
0.00032132529
0.00032132529
0.00032132529
0.00032132529
0.00032132529
0.00032132529
0.00032132529
0.00032132529
0.00032132529
0.00032132529
0.00032132529
0.00032132529
0.00032132529
0.00032132529
0.00032132529
0.00032132529
0.00032132529
0.00032132529
0.00032132529
0.00032132529
0.00032132529
0.00032132529
0.00032132529
0.00032132529
0.00032132529
0.00032132529
0.00032132529
0.00032132529
0.00032132529
0.00032132529
0.00032132529
0.00032132529
0.00032132529
0.00032132529
0.00032132529
0.00032132529
0.00032132529
0.00032132529
0.00032132529
0.00032132529
0.00032132529
0.00032132529
0.00032132529
0.00032132529
0.00032132529
0.00032132529
0.00032132529
0.00032132529
0.00032132529
0.00032132529
0.00032132529
0.00032132529
0.00032132529
0.00032132529
0.00032132529
0.00032132529
0.00032132529
0.00032132529
0.00032132529
0.00032132529
0.00032132529
0.00032132529
0.00032132529
0.00032132529
0.00032132529
0.00032132529
0.00032132529
0.00032132529
0.00032132529
0.00032132529
0.00032132529
0.00032132529
0.00032132529
0.00032132529
0.00032132529
0.00032132529
0.00032132529
0.00032132529
0.00032132529
0.00032132529
0.00032132529
0.00032132529
0.00032132529
0.00032132529
0.00032132529
0.00032132529
0.00032132529
0.00032132529
0.00032132529
)
;
        value           nonuniform List<scalar> 
130
(
745.23408
752.99276
761.08086
769.09062
776.72969
783.78217
790.10996
795.63262
800.31112
804.10465
806.9724
808.89504
809.86247
739.47834
748.55007
757.79041
766.71857
775.05575
782.6084
789.28482
795.04536
799.88407
803.78231
806.71987
808.68501
809.67114
727.92037
739.99882
751.69644
762.48066
772.14017
780.60652
787.90614
794.08269
799.19555
803.27294
806.32782
808.36531
809.38797
710.63541
728.39519
744.05643
757.4721
768.84527
778.42435
786.44006
793.07852
798.48763
802.7526
805.93033
808.04436
809.10408
690.12598
717.24026
737.60852
753.55084
766.3595
776.79767
785.33905
792.30063
797.91012
802.30245
805.56116
807.72313
808.80437
689.67167
716.78905
737.19132
753.18118
766.03991
776.52154
785.08124
792.04631
797.64146
802.01953
805.28604
807.44711
808.52493
709.3774
727.19418
742.93585
756.44759
767.92288
777.6088
785.6797
792.33792
797.73327
801.97873
805.15283
807.26159
808.31288
726.12155
738.29711
750.10428
761.01266
770.79734
779.3758
786.74448
792.95585
798.06963
802.13421
805.16427
807.17928
808.18882
737.3427
746.53451
755.90429
764.97949
773.44735
781.10152
787.85375
793.67834
798.52467
802.39357
805.29128
807.2238
808.19241
742.9534
750.84244
759.07217
767.2298
774.99919
782.15542
788.5646
794.15798
798.84232
802.59754
805.41782
807.30221
808.24887
)
;
        Tnbr            T;
        thicknessLayers List<scalar> 0();
        kappaLayers     List<scalar> 0();
        kappaMethod     solidThermo;
        kappa           none;
        alphaAni        none;
        alpha           none;
        field           T;
    }
    rightSolid_to_heater
    {
        type            compressible::turbulentTemperatureCoupledBaffleMixed;
        refValue        nonuniform List<scalar> 10(738.38683 731.32699 716.59387 692.27556 651.86728 651.4781 690.99492 714.70765 729.07546 735.97977);
        refGradient     uniform 0;
        valueFraction   nonuniform List<scalar> 10(0.50000003 0.50000003 0.50000003 0.50000003 0.50000003 0.50000003 0.50000003 0.50000003 0.50000003 0.50000003);
        value           nonuniform List<scalar> 10(741.85206 735.45162 722.30294 701.49041 671.02786 670.60644 700.2217 720.46054 733.2578 739.50794);
        Tnbr            T;
        thicknessLayers List<scalar> 0();
        kappaLayers     List<scalar> 0();
        kappaMethod     solidThermo;
        kappa           none;
        alphaAni        none;
        alpha           none;
        field           T;
    }
}


// ************************************************************************* //
