/*--------------------------------*- C++ -*----------------------------------*\
| =========                 |                                                 |
| \\      /  F ield         | OpenFOAM: The Open Source CFD Toolbox           |
|  \\    /   O peration     | Version:  v2012                                 |
|   \\  /    A nd           | Website:  www.openfoam.com                      |
|    \\/     M anipulation  |                                                 |
\*---------------------------------------------------------------------------*/
FoamFile
{
    version     2.0;
    format      ascii;
    class       surfaceScalarField;
    location    "530/topAir";
    object      phi;
}
// * * * * * * * * * * * * * * * * * * * * * * * * * * * * * * * * * * * * * //

dimensions      [1 0 -1 0 0 0 0];
oriented        oriented;


internalField   nonuniform List<scalar> 
3140
(
9.5017665e-06
-3.0493252e-07
7.2153681e-08
9.6871653e-06
-2.6743883e-07
8.2058752e-08
9.8640492e-06
-2.4801285e-07
7.1149116e-08
1.0006601e-05
-1.9593208e-07
5.3397167e-08
1.0108775e-05
-1.3240188e-07
3.0237544e-08
1.0180103e-05
-7.3840653e-08
2.5130041e-09
1.02547e-05
-2.6331803e-08
-4.8280278e-08
1.0355497e-05
1.5077237e-08
-1.1590915e-07
1.0490101e-05
7.9677012e-08
-2.1433566e-07
1.0682127e-05
1.6332287e-07
-3.5542102e-07
1.0928364e-05
3.0786394e-07
-5.5418275e-07
1.1202478e-05
5.4940431e-07
-8.2359342e-07
1.1452854e-05
9.1702877e-07
-1.1674465e-06
1.1687583e-05
1.3514702e-06
-1.5861853e-06
1.187233e-05
1.843385e-06
-2.0279994e-06
1.1985334e-05
2.3292404e-06
-2.441967e-06
1.2010216e-05
2.7643227e-06
-2.7887819e-06
1.1946916e-05
3.1178726e-06
-3.0540027e-06
1.1820171e-05
3.3687965e-06
-3.2413152e-06
1.1672789e-05
3.5093892e-06
-3.3610609e-06
1.1545781e-05
3.5518598e-06
-3.4236435e-06
1.146426e-05
3.5207184e-06
-3.4376905e-06
1.1435057e-05
3.4405399e-06
-3.4095237e-06
1.1449456e-05
3.3310444e-06
-3.3433181e-06
1.1484576e-05
3.207763e-06
-3.2403898e-06
1.1495036e-05
3.0883823e-06
-3.0958174e-06
1.1392288e-05
3.0017041e-06
-2.8951425e-06
1.100415e-05
3.0050614e-06
-2.6120386e-06
9.9811276e-06
3.2313766e-06
-2.2021539e-06
4.0090519e-06
-1.5992938e-06
9.1129285e-06
-2.281791e-07
7.9286524e-08
9.0840245e-06
-3.415522e-07
1.0301672e-07
9.0873154e-06
-3.6021872e-07
1.0891424e-07
9.1363816e-06
-3.5516756e-07
1.1016749e-07
9.2298087e-06
-3.3209675e-07
1.062635e-07
9.3618729e-06
-3.0099891e-07
9.5085139e-08
9.5358628e-06
-2.7475482e-07
7.4418055e-08
9.7676343e-06
-2.5814885e-07
4.1452746e-08
1.0082248e-05
-2.2819706e-07
-6.6631032e-09
1.051213e-05
-1.6900345e-07
-9.7237359e-08
1.108156e-05
-3.2268888e-08
-2.286218e-07
1.1782739e-05
2.6633951e-07
-4.1735736e-07
1.252793e-05
8.4793352e-07
-6.7549031e-07
1.3191994e-05
1.6674331e-06
-9.7969033e-07
1.3695926e-05
2.6125324e-06
-1.2729833e-06
1.3971385e-05
3.5506581e-06
-1.4969201e-06
1.4004031e-05
4.3655912e-06
-1.6339722e-06
1.3838889e-05
5.0058366e-06
-1.7227105e-06
1.3559552e-05
5.4554894e-06
-1.8068687e-06
1.3258447e-05
5.7173808e-06
-1.905857e-06
1.2997086e-05
5.8152233e-06
-2.0003238e-06
1.279918e-05
5.7861063e-06
-2.0651198e-06
1.2664346e-05
5.664408e-06
-2.0859832e-06
1.2577993e-05
5.4765618e-06
-2.0553779e-06
1.2515838e-05
5.2392318e-06
-1.9645771e-06
1.2434177e-05
4.9711496e-06
-1.7949138e-06
1.2249445e-05
4.71291e-06
-1.5180903e-06
1.1812259e-05
4.5554231e-06
-1.1017795e-06
1.0886807e-05
4.6830671e-06
-5.1171854e-07
5.3098044e-06
3.5730332e-07
9.1694049e-06
-2.0995769e-07
8.1333395e-08
9.0000101e-06
-2.793121e-07
1.0715344e-07
8.8162721e-06
-2.9265228e-07
1.1617017e-07
8.6305475e-06
-2.9209696e-07
1.2265248e-07
8.4552227e-06
-2.8444874e-07
1.2767496e-07
8.295595e-06
-2.7213595e-07
1.3076222e-07
8.1487701e-06
-2.6059213e-07
1.3265853e-07
8.0108287e-06
-2.5570524e-07
1.3549413e-07
7.8995833e-06
-2.5955541e-07
1.4260335e-07
7.8564461e-06
-2.7941302e-07
1.5355649e-07
7.9934295e-06
-3.2954767e-07
1.6032595e-07
8.4714869e-06
-3.5286235e-07
1.4142116e-07
9.361682e-06
-1.2021702e-07
7.8212289e-08
1.0559827e-05
4.7968982e-07
-1.0502441e-08
1.1656706e-05
1.5543684e-06
-3.923377e-08
1.2461642e-05
2.6859432e-06
5.8813921e-08
1.2882999e-05
3.5722653e-06
3.7084337e-07
1.2988499e-05
4.218106e-06
6.8118613e-07
1.2900606e-05
4.6515198e-06
8.9111598e-07
1.2749567e-05
4.8982639e-06
9.6987199e-07
1.2612336e-05
4.9796792e-06
9.7303349e-07
1.2505299e-05
4.9213487e-06
9.7257873e-07
1.2419912e-05
4.7608642e-06
9.9016387e-07
1.2333007e-05
4.5315716e-06
1.033481e-06
1.2223768e-05
4.2597105e-06
1.0906615e-06
1.2070961e-05
3.9681009e-06
1.1581614e-06
1.1841017e-05
3.6941247e-06
1.2516999e-06
1.1491261e-05
3.5145577e-06
1.3947218e-06
1.0924264e-05
3.6072905e-06
1.6487613e-06
4.3252406e-06
2.0156368e-06
8.9795533e-06
7.9440461e-08
8.5962059e-06
1.0403403e-07
8.1916406e-06
1.1191184e-07
7.7828409e-06
1.1670144e-07
7.3785754e-06
1.1981553e-07
6.985241e-06
1.2119707e-07
6.6026638e-06
1.2198359e-07
6.2226247e-06
1.2433193e-07
5.8312836e-06
1.3178344e-07
5.4026066e-06
1.4926062e-07
4.886232e-06
1.8682087e-07
4.2706888e-06
2.6266431e-07
3.7548122e-06
3.9553994e-07
3.650825e-06
5.8290331e-07
4.3077272e-06
8.9549585e-07
5.4529571e-06
1.5382884e-06
6.4471339e-06
2.5758166e-06
7.2254316e-06
3.4378887e-06
7.860493e-06
4.0150125e-06
8.4205704e-06
4.3373111e-06
8.9266206e-06
4.4733431e-06
9.3729209e-06
4.4752895e-06
9.7319031e-06
4.402531e-06
9.9806551e-06
4.2837452e-06
1.0110582e-05
4.130884e-06
1.0136264e-05
3.9436336e-06
1.0087815e-05
3.7439307e-06
1.006586e-05
3.538186e-06
1.0338325e-05
3.3372689e-06
2.9999372e-06
9.6138213e-06
-3.0462342e-07
3.1943599e-08
9.9148265e-06
-2.6857629e-07
4.9649902e-08
1.0195497e-05
-2.6176207e-07
5.2263144e-08
1.042909e-05
-2.2724938e-07
4.7074366e-08
1.0608964e-05
-1.8584415e-07
3.6222421e-08
1.0747494e-05
-1.5438299e-07
1.8371566e-08
1.0848388e-05
-1.4069826e-07
-8.4957754e-09
1.0920535e-05
-1.4815604e-07
-3.99338e-08
1.0973783e-05
-1.8256235e-07
-8.5065729e-08
1.1016549e-05
-2.5046018e-07
-1.4778716e-07
1.1058637e-05
-3.6285841e-07
-2.3347278e-07
1.1112584e-05
-5.31194e-07
-3.4636084e-07
1.1198593e-05
-7.6778282e-07
-4.8557862e-07
1.139824e-05
-1.1381863e-06
-6.4735476e-07
1.1705615e-05
-1.534131e-06
-8.0070882e-07
1.2069094e-05
-1.868525e-06
-9.3623301e-07
1.2393387e-05
-2.0416704e-06
-1.0706907e-06
1.2602796e-05
-2.0400788e-06
-1.2226038e-06
1.268009e-05
-1.9280029e-06
-1.3897302e-06
1.266417e-05
-1.7902039e-06
-1.5537261e-06
1.2609797e-05
-1.6741017e-06
-1.6934547e-06
1.2557932e-05
-1.5859992e-06
-1.7975349e-06
1.2528009e-05
-1.517246e-06
-1.8594924e-06
1.252429e-05
-1.4593922e-06
-1.8767644e-06
1.2547179e-05
-1.4079813e-06
-1.851028e-06
1.2590337e-05
-1.3522529e-06
-1.78094e-06
1.2629941e-05
-1.2715715e-06
-1.6548685e-06
1.2608672e-05
-1.1137571e-06
-1.4650224e-06
1.2405102e-05
-7.4473231e-07
-1.2373454e-06
2.9829687e-07
-1.0235477e-06
9.2378889e-06
-2.2972396e-07
3.5466519e-08
9.356181e-06
-3.4563792e-07
6.1785696e-08
9.500152e-06
-3.6957545e-07
7.2755999e-08
9.6831797e-06
-3.7515909e-07
7.5047773e-08
9.9013245e-06
-3.6905208e-07
7.1322507e-08
1.0142568e-05
-3.6100068e-07
6.0450442e-08
1.0398681e-05
-3.6259876e-07
4.0189838e-08
1.0667481e-05
-3.8390058e-07
8.3722136e-09
1.0955609e-05
-4.3561653e-07
-4.1768863e-08
1.1258649e-05
-5.3678469e-07
-1.1398692e-07
1.1591136e-05
-7.09305e-07
-2.1468364e-07
1.1972199e-05
-9.8185899e-07
-3.477449e-07
1.2429495e-05
-1.3934212e-06
-5.0707755e-07
1.294693e-05
-1.9709364e-06
-6.642203e-07
1.3501398e-05
-2.5731873e-06
-7.8821605e-07
1.3990244e-05
-2.9461814e-06
-9.080364e-07
1.4307557e-05
-2.909398e-06
-1.0836773e-06
1.4408707e-05
-2.5465387e-06
-1.3176578e-06
1.4322887e-05
-2.0749014e-06
-1.5744447e-06
1.4137043e-05
-1.6933694e-06
-1.8171257e-06
1.3926066e-05
-1.4448498e-06
-2.0188539e-06
1.371185e-05
-1.2764326e-06
-2.1607767e-06
1.3499775e-05
-1.1658857e-06
-2.2257595e-06
1.3295671e-05
-1.1037921e-06
-2.20763e-06
1.3128072e-05
-1.099878e-06
-2.1062544e-06
1.3044192e-05
-1.1534438e-06
-1.9117142e-06
1.3126329e-05
-1.2682253e-06
-1.606667e-06
1.3601524e-05
-1.4652817e-06
-1.2302495e-06
1.5186999e-05
-1.8112942e-06
-1.0368012e-06
-2.0277162e-06
-1.1808367e-06
9.2967834e-06
-2.1235351e-07
3.6139257e-08
9.2777141e-06
-2.8305593e-07
6.3639414e-08
9.2458414e-06
-2.9827869e-07
7.6744707e-08
9.2133008e-06
-3.0197358e-07
8.2006131e-08
9.1906797e-06
-3.011109e-07
8.2352959e-08
9.1812479e-06
-2.9803631e-07
7.7227244e-08
9.1846107e-06
-2.9864012e-07
6.5333391e-08
9.2005444e-06
-3.099503e-07
4.5604848e-08
9.229527e-06
-3.4025738e-07
1.8253979e-08
9.2772691e-06
-4.0510809e-07
-2.5871626e-08
9.3587607e-06
-5.3207896e-07
-9.840252e-08
9.4879886e-06
-7.670127e-07
-2.0265738e-07
9.6880469e-06
-1.1758935e-06
-3.3935752e-07
9.9768296e-06
-1.8021818e-06
-4.6805832e-07
1.0299543e-05
-2.4239074e-06
-5.1151981e-07
1.0568073e-05
-2.6887744e-06
-4.6776855e-07
1.0804635e-05
-2.4012996e-06
-3.7481871e-07
1.0913921e-05
-1.7124769e-06
-2.6308394e-07
1.0908799e-05
-9.4061919e-07
-2.383416e-07
1.0808791e-05
-2.7414343e-07
-3.4872492e-07
1.0709065e-05
7.607846e-08
-4.4613013e-07
1.0639384e-05
2.1453764e-07
-4.4540282e-07
1.0601034e-05
2.1110766e-07
-3.4433513e-07
1.0563767e-05
1.1966259e-07
-1.4822541e-07
1.0511247e-05
-2.5665075e-08
7.2077563e-08
1.0390811e-05
-2.2041753e-07
3.4748654e-07
1.0263589e-05
-5.2921666e-07
6.4127989e-07
1.0245691e-05
-8.4116686e-07
7.9012739e-07
1.0824553e-05
-1.1407962e-06
4.0191262e-07
-1.3705844e-06
-6.1232659e-07
9.1009284e-06
3.5109999e-08
8.8605086e-06
6.1396609e-08
8.6005691e-06
7.3571417e-08
8.3372851e-06
7.801057e-08
8.0784751e-06
7.7513361e-08
7.8300805e-06
7.1554082e-08
7.5944878e-06
5.8934665e-08
7.3702498e-06
3.8617827e-08
7.1508621e-06
1.0911372e-08
6.9335358e-06
-3.8524574e-08
6.7020133e-06
-1.1374074e-07
6.4276445e-06
-2.2998806e-07
6.0772224e-06
-4.2995235e-07
5.6220761e-06
-7.6427559e-07
5.1605599e-06
-1.0680328e-06
4.893794e-06
-8.8616127e-07
4.8661152e-06
1.995201e-07
4.8648695e-06
1.724293e-06
4.9951155e-06
2.9425149e-06
5.3925484e-06
3.6650211e-06
5.9053999e-06
4.0362446e-06
6.4163683e-06
4.1787985e-06
6.8440582e-06
4.1857341e-06
7.1559204e-06
4.0911918e-06
7.3666355e-06
3.895324e-06
7.5129895e-06
3.5781971e-06
7.5683668e-06
3.1609659e-06
7.6491874e-06
2.6183336e-06
8.3487692e-06
1.5000469e-06
-5.6644732e-08
9.5911307e-06
-3.0656667e-07
1.6366891e-08
9.8828252e-06
-2.6918807e-07
2.7161088e-08
1.0162468e-05
-2.587846e-07
3.1424334e-08
1.039816e-05
-2.1977105e-07
3.1172098e-08
1.0580173e-05
-1.7375384e-07
2.797676e-08
1.0713823e-05
-1.376783e-07
2.2409833e-08
1.0806332e-05
-1.1562376e-07
1.4635013e-08
1.0869463e-05
-1.0712515e-07
4.0781744e-09
1.0907913e-05
-1.1488952e-07
-8.6214759e-09
1.0928466e-05
-1.4489626e-07
-2.3437958e-08
1.0941709e-05
-2.0730592e-07
-3.9372904e-08
1.0966502e-05
-3.1919243e-07
-5.1842644e-08
1.103748e-05
-5.0640869e-07
-4.9847655e-08
1.1249591e-05
-8.3746172e-07
-2.1290886e-08
1.1533454e-05
-1.1551326e-06
7.1878517e-08
1.1788552e-05
-1.3861312e-06
1.9655456e-07
1.1956615e-05
-1.5470684e-06
3.1029672e-07
1.2039575e-05
-1.7010564e-06
3.9764208e-07
1.205529e-05
-1.8643345e-06
4.612721e-07
1.2025346e-05
-2.0318302e-06
5.1072218e-07
1.1979037e-05
-2.2018496e-06
5.5763008e-07
1.1932563e-05
-2.3601362e-06
6.1209893e-07
1.1880214e-05
-2.4828626e-06
6.7868237e-07
1.1807398e-05
-2.5551541e-06
7.54199e-07
1.1709232e-05
-2.5811418e-06
8.3185474e-07
1.160801e-05
-2.5834208e-06
9.0891767e-07
1.1568988e-05
-2.5806001e-06
9.7296273e-07
1.1685664e-05
-2.5197007e-06
9.5090299e-07
1.1828265e-05
-2.0106409e-06
6.5191778e-07
-7.0229053e-07
-1.6624603e-08
9.2098161e-06
-2.2959289e-07
1.7644995e-08
9.3153e-06
-3.4480105e-07
3.1914137e-08
9.4565776e-06
-3.6663429e-07
3.9327527e-08
9.639692e-06
-3.6861734e-07
4.0778564e-08
9.8573242e-06
-3.5740415e-07
3.733835e-08
1.0093978e-05
-3.4253705e-07
2.8650611e-08
1.0339272e-05
-3.3406367e-07
1.3328973e-08
1.05902e-05
-3.3941497e-07
-1.027629e-08
1.0845243e-05
-3.6763389e-07
-4.4082139e-08
1.1109833e-05
-4.3233276e-07
-9.1149162e-08
1.1398588e-05
-5.5896682e-07
-1.5176618e-07
1.174487e-05
-7.9348646e-07
-2.1967509e-07
1.220519e-05
-1.2013889e-06
-2.7225427e-07
1.2734534e-05
-1.7656348e-06
-2.6502491e-07
1.3180892e-05
-2.1715713e-06
-2.1772439e-07
1.3392121e-05
-2.2771855e-06
-2.2798015e-07
1.3358171e-05
-2.2545559e-06
-3.4227612e-07
1.3170568e-05
-2.2844105e-06
-5.4697092e-07
1.287147e-05
-2.3276774e-06
-8.1248307e-07
1.2499216e-05
-2.3831844e-06
-1.0942342e-06
1.2088144e-05
-2.4728421e-06
-1.3378678e-06
1.1645966e-05
-2.5739036e-06
-1.5064944e-06
1.1162726e-05
-2.6427206e-06
-1.5851056e-06
1.0631827e-05
-2.6626983e-06
-1.5724606e-06
1.0060638e-05
-2.6580516e-06
-1.4622158e-06
9.5122601e-06
-2.7140266e-06
-1.238026e-06
9.2324584e-06
-2.9167295e-06
-9.9853636e-07
9.6683011e-06
-3.2370842e-06
-9.60227e-07
1.1211952e-05
-3.1810548e-06
-1.4233206e-06
-1.7269799e-06
-2.3638215e-06
9.2697119e-06
-2.1204913e-07
1.7843296e-08
9.2385541e-06
-2.8242938e-07
3.2424145e-08
9.2046602e-06
-2.965841e-07
4.0587126e-08
9.1738318e-06
-2.9872468e-07
4.2940456e-08
9.1543361e-06
-2.9580475e-07
4.0247648e-08
9.1471399e-06
-2.899253e-07
3.1809695e-08
9.1490226e-06
-2.8638754e-07
1.5771831e-08
9.1570096e-06
-2.9123741e-07
-1.0563317e-08
9.1702832e-06
-3.1192852e-07
-5.0730224e-08
9.1859158e-06
-3.628087e-07
-1.1103514e-07
9.2008258e-06
-4.7507608e-07
-1.9721065e-07
9.2258866e-06
-7.1108033e-07
-3.1012847e-07
9.3132897e-06
-1.1978212e-06
-4.3031438e-07
9.4742533e-06
-1.9263806e-06
-4.682806e-07
9.373524e-06
-2.2043055e-06
-3.7892742e-07
8.9221082e-06
-1.9183319e-06
-3.7708274e-07
8.267857e-06
-1.4475381e-06
-5.2984472e-07
7.7962791e-06
-1.3454951e-06
-7.3260378e-07
7.3251164e-06
-1.0819862e-06
-1.0150544e-06
6.7784194e-06
-8.5849577e-07
-1.3292084e-06
6.1797192e-06
-7.6558576e-07
-1.5581142e-06
5.570856e-06
-7.945496e-07
-1.6209733e-06
4.9857441e-06
-8.9427074e-07
-1.5145877e-06
4.4901028e-06
-1.04192e-06
-1.2812177e-06
4.1066947e-06
-1.2666457e-06
-9.4302596e-07
3.9257098e-06
-1.6095152e-06
-5.8205721e-07
4.1830118e-06
-2.0598816e-06
-4.8001333e-07
4.9369752e-06
-2.5559764e-06
-6.5535804e-07
5.8881441e-06
-2.1527904e-06
-1.5965718e-06
-1.08044e-07
-3.1378449e-06
9.0746122e-06
1.7400046e-08
8.8221567e-06
3.1421537e-08
8.5600723e-06
3.9070405e-08
8.2984064e-06
4.0950586e-08
8.0423502e-06
3.776356e-08
7.7952755e-06
2.8702208e-08
7.5563467e-06
1.1474496e-08
7.3207333e-06
-1.7007754e-08
7.0823311e-06
-6.2616869e-08
6.8181375e-06
-1.3714229e-07
6.488179e-06
-2.5886187e-07
6.0107928e-06
-4.6368354e-07
5.2110558e-06
-8.2800916e-07
3.9287963e-06
-1.4085275e-06
2.482886e-06
-1.8303858e-06
1.3453549e-06
-1.6726218e-06
1.3215877e-06
-1.2309592e-06
1.5608566e-06
1.3628875e-07
1.8996111e-06
1.5197733e-06
2.3626384e-06
2.3429264e-06
2.8777068e-06
2.7559825e-06
3.3411072e-06
2.9217171e-06
3.6872277e-06
2.9463804e-06
3.857994e-06
2.879666e-06
3.7902351e-06
2.6981044e-06
3.6002682e-06
2.160587e-06
3.4896638e-06
1.2135703e-06
3.6724831e-06
-1.2028354e-07
5.2151716e-06
-2.2001527e-06
-4.4958819e-06
9.5855032e-06
-3.0685195e-07
6.7029441e-09
9.8696598e-06
-2.6878812e-07
1.1810045e-08
1.0143224e-05
-2.5666019e-07
1.4541038e-08
1.0373906e-05
-2.1474242e-07
1.5253693e-08
1.0551399e-05
-1.6391976e-07
1.4424148e-08
1.0681694e-05
-1.2012771e-07
1.2262972e-08
1.0773973e-05
-8.6388499e-08
8.7645008e-09
1.0835963e-05
-6.2013276e-08
4.1057107e-09
1.0875631e-05
-4.7033388e-08
-1.2271061e-09
1.0905818e-05
-4.4250075e-08
-9.3185463e-09
1.0946742e-05
-6.3204708e-08
-1.6976543e-08
1.1040207e-05
-1.2455865e-07
-2.0520795e-08
1.1251872e-05
-2.5267441e-07
-8.3898402e-09
1.1615385e-05
-4.1873194e-07
3.4813539e-08
1.1975548e-05
-3.8693741e-07
9.9849958e-08
1.2225534e-05
-2.191424e-07
1.671116e-07
1.2367787e-05
-7.347769e-08
2.4325091e-07
1.2454812e-05
-2.5917877e-08
3.3869841e-07
1.2514533e-05
-5.4345388e-08
4.5890571e-07
1.2573299e-05
-1.4639793e-07
6.0284005e-07
1.2648553e-05
-2.8230556e-07
7.7122159e-07
1.2732693e-05
-4.2885622e-07
9.6574233e-07
1.2803212e-05
-5.6409105e-07
1.1836158e-06
1.284627e-05
-6.8754684e-07
1.4126527e-06
1.2866729e-05
-7.9729112e-07
1.6260787e-06
1.2850629e-05
-8.3319192e-07
1.7806199e-06
1.2681214e-05
-6.4868105e-07
1.8197951e-06
1.2168429e-05
-1.8320744e-07
1.6772898e-06
1.0687947e-05
9.1387053e-07
1.2429165e-06
3.0652898e-06
5.5242428e-07
9.2022397e-06
-2.294367e-07
6.9584222e-09
9.2962296e-06
-3.4427091e-07
1.3406418e-08
9.4265659e-06
-3.6505808e-07
1.7388789e-08
9.5989092e-06
-3.649336e-07
1.8626069e-08
9.804934e-06
-3.4986413e-07
1.725741e-08
1.0028794e-05
-3.2844629e-07
1.3108254e-08
1.0259488e-05
-3.0951817e-07
5.7638551e-09
1.049246e-05
-2.9935249e-07
-5.9108215e-09
1.0730231e-05
-3.0522096e-07
-2.3671163e-08
1.0984402e-05
-3.4222956e-07
-4.734252e-08
1.1288015e-05
-4.4323539e-07
-7.5334219e-08
1.1713652e-05
-6.7193867e-07
-9.7875333e-08
1.2379353e-05
-1.0939058e-06
-9.6564212e-08
1.3157552e-05
-1.4081943e-06
-5.3437538e-08
1.3757962e-05
-1.1919021e-06
-1.2903785e-08
1.4142941e-05
-8.2989613e-07
-1.9919232e-09
1.4358324e-05
-5.9525363e-07
-3.5658507e-08
1.4431773e-05
-5.6091511e-07
-8.5123793e-08
1.4382903e-05
-6.6332841e-07
-1.5414803e-07
1.4241373e-05
-8.5751812e-07
-2.4084843e-07
1.4019051e-05
-1.0685979e-06
-3.2839561e-07
1.3709771e-05
-1.241913e-06
-3.8367737e-07
1.3293635e-05
-1.3549037e-06
-3.7866732e-07
1.2781949e-05
-1.439295e-06
-3.1095791e-07
1.2273963e-05
-1.5447324e-06
-2.1036064e-07
1.1963282e-05
-1.6233868e-06
-1.4310632e-07
1.1880333e-05
-1.328912e-06
-2.4521129e-07
1.1753855e-05
-4.7985281e-07
-5.5097865e-07
1.1326126e-05
1.0192932e-06
-1.0774819e-06
3.019e-06
-1.8194086e-06
9.2624693e-06
-2.1204625e-07
6.9432373e-09
9.2196823e-06
-2.8245951e-07
1.339843e-08
9.1739815e-06
-2.962836e-07
1.7512046e-08
9.1307002e-06
-2.9757593e-07
1.886269e-08
9.0968473e-06
-2.931266e-07
1.7361565e-08
9.072332e-06
-2.8469373e-07
1.2570916e-08
9.0518474e-06
-2.7719507e-07
3.9315169e-09
9.0304806e-06
-2.769652e-07
-1.1586063e-08
9.0029428e-06
-2.9226438e-07
-3.6152579e-08
8.9641199e-06
-3.4156598e-07
-7.2880982e-08
8.9178695e-06
-4.6900622e-07
-1.2519578e-07
8.9080255e-06
-7.8546063e-07
-1.867665e-07
9.124428e-06
-1.5259937e-06
-2.1460988e-07
9.5319599e-06
-2.1077906e-06
-1.7652067e-07
9.4466343e-06
-1.3634513e-06
-1.2338959e-07
9.0462757e-06
-6.5856275e-07
-1.4974443e-07
8.4833008e-06
-3.372713e-07
-2.2671425e-07
7.7907157e-06
-2.3511898e-07
-3.6778441e-07
7.0393504e-06
-3.6777704e-07
-5.6155522e-07
6.2383757e-06
-5.6732093e-07
-8.2164568e-07
5.4305273e-06
-7.7329975e-07
-1.0506505e-06
4.656166e-06
-9.7485964e-07
-1.1221804e-06
3.9206852e-06
-1.1448387e-06
-1.0020766e-06
3.2608094e-06
-1.3053435e-06
-7.7117015e-07
2.8808536e-06
-1.5820815e-06
-5.3991467e-07
3.1084357e-06
-1.9726474e-06
-4.7176369e-07
4.0312579e-06
-1.869164e-06
-8.7331308e-07
5.081559e-06
-6.4931426e-07
-1.550117e-06
5.7791802e-06
9.9208764e-07
-2.2784944e-06
3.305203e-06
-3.001531e-06
9.0675823e-06
6.7228609e-09
8.8036919e-06
1.2851174e-08
8.5298718e-06
1.6605635e-08
8.2556974e-06
1.7547859e-08
7.9847984e-06
1.5534738e-08
7.7187213e-06
1.008427e-08
7.4521416e-06
8.5783296e-10
7.1763363e-06
-1.8169079e-08
6.8701296e-06
-4.8676226e-08
6.4912729e-06
-9.9853698e-08
5.9517658e-06
-1.8836346e-07
5.0518208e-06
-3.491938e-07
3.3689566e-06
-6.7108805e-07
1.0859191e-06
-1.2342758e-06
-9.2030899e-07
-1.197471e-06
-2.3081144e-06
-9.4671869e-07
-3.2029131e-06
-6.7693542e-07
-3.1009348e-06
-2.0487221e-07
-2.399409e-06
4.4862751e-07
-1.5916465e-06
9.6751564e-07
-8.7780668e-07
1.2696544e-06
-3.5137925e-07
1.4217307e-06
-4.7147005e-08
1.4984414e-06
-1.192685e-08
1.5405101e-06
-4.2854181e-07
1.5361339e-06
-1.1882501e-06
9.4907617e-07
-1.4613536e-06
-3.8857864e-07
-3.1195313e-07
-1.9394851e-06
1.6781631e-06
-3.2116661e-06
-4.1642198e-06
9.5825562e-06
-3.0729946e-07
4.3305576e-10
9.8627888e-06
-2.6938709e-07
9.8080792e-10
1.0132866e-05
-2.5721933e-07
1.7029667e-09
1.0360634e-05
-2.1505817e-07
2.5642143e-09
1.0535319e-05
-1.6380312e-07
3.5636197e-09
1.0662386e-05
-1.1952217e-07
4.7396315e-09
1.0750449e-05
-8.544072e-08
6.1659627e-09
1.0807582e-05
-6.0946907e-08
7.9579144e-09
1.0843328e-05
-4.7000096e-08
1.0069919e-08
1.0871187e-05
-4.9399625e-08
1.2279754e-08
1.0922927e-05
-8.2714248e-08
1.4076214e-08
1.1065013e-05
-1.7512806e-07
1.262975e-08
1.1382127e-05
-3.283979e-07
2.9752964e-09
1.1817733e-05
-3.7567171e-07
-2.516519e-08
1.2189463e-05
-2.1138513e-07
-6.0721729e-08
1.2459743e-05
-1.1772011e-08
-9.1636384e-08
1.2665494e-05
1.6010498e-07
-1.2277669e-07
1.2833882e-05
3.3125949e-07
-1.6101114e-07
1.2996139e-05
5.0752887e-07
-2.1078898e-07
1.3176844e-05
6.9630726e-07
-2.7384757e-07
1.3383418e-05
9.1169439e-07
-3.4636221e-07
1.3592186e-05
1.1778637e-06
-4.1967683e-07
1.3756537e-05
1.5028937e-06
-4.81688e-07
1.3827078e-05
1.8662311e-06
-5.2121675e-07
1.3755136e-05
2.2359618e-06
-5.3378603e-07
1.3453119e-05
2.6074547e-06
-5.1908775e-07
1.2750394e-05
3.0059568e-06
-4.758948e-07
1.1380562e-05
3.4535395e-06
-3.9717911e-07
8.893986e-06
4.0185251e-06
-2.7810629e-07
5.1134513e-06
-1.5593393e-07
9.1979742e-06
-2.2955875e-07
2.118546e-10
9.2858879e-06
-3.445139e-07
6.1890741e-10
9.4099405e-06
-3.652493e-07
1.3659727e-09
9.5759366e-06
-3.6490178e-07
2.4738985e-09
9.7748407e-06
-3.4942552e-07
3.9763291e-09
9.9899667e-06
-3.2749029e-07
5.9510632e-09
1.0209955e-05
-3.0820295e-07
8.5384682e-09
1.0429686e-05
-2.9827179e-07
1.1684194e-08
1.0651082e-05
-3.0741575e-07
1.5355969e-08
1.0891856e-05
-3.5660601e-07
1.9106725e-08
1.1206071e-05
-4.9263523e-07
2.0408237e-08
1.1720922e-05
-8.0044555e-07
1.2678808e-08
1.2587277e-05
-1.2774944e-06
-1.3629661e-08
1.3339514e-05
-1.1001678e-06
-8.1173559e-08
1.3905711e-05
-6.6939555e-07
-1.2120556e-07
1.4356368e-05
-3.3359124e-07
-1.3095772e-07
1.4698727e-05
-7.6793377e-08
-1.4094884e-07
1.495559e-05
1.4690228e-07
-1.5676998e-07
1.5165197e-05
3.2330653e-07
-1.7703473e-07
1.5387946e-05
4.4329546e-07
-2.051131e-07
1.5650754e-05
5.5918565e-07
-2.2891656e-07
1.590709e-05
7.9088072e-07
-2.3838982e-07
1.6081178e-05
1.2020777e-06
-2.3308751e-07
1.6123483e-05
1.7603094e-06
-2.2538474e-07
1.600075e-05
2.3957757e-06
-2.2347152e-07
1.5596139e-05
3.1017228e-06
-2.0711494e-07
1.464757e-05
3.9055506e-06
-1.6885187e-07
1.2920051e-05
4.7345115e-06
-7.5333444e-08
1.012386e-05
5.7033382e-06
6.2368052e-08
7.0470716e-06
2.558336e-07
9.2582145e-06
-2.1207639e-07
2.0602791e-10
9.2090523e-06
-2.8256351e-07
6.0891025e-10
9.1562949e-06
-2.9635303e-07
1.3718912e-09
9.1052027e-06
-2.9750312e-07
2.5549466e-09
9.0617596e-06
-2.928785e-07
4.2563018e-09
9.024557e-06
-2.8437884e-07
6.6608015e-09
8.9873898e-06
-2.7721788e-07
1.0112197e-08
8.9407982e-06
-2.7800437e-07
1.4736567e-08
8.8742481e-06
-2.9827841e-07
2.1258619e-08
8.7781574e-06
-3.6374184e-07
3.0344581e-08
8.6602106e-06
-5.4124622e-07
4.1363077e-08
8.6437123e-06
-1.0157572e-06
4.5051996e-08
9.2831648e-06
-2.1476331e-06
1.600227e-08
9.4476766e-06
-1.3544886e-06
-8.7697192e-08
9.3269606e-06
-5.4232372e-07
-1.3037513e-07
9.1391677e-06
-2.0080562e-07
-9.4664301e-08
8.8274194e-06
6.2967722e-08
-5.4788567e-08
8.439632e-06
1.8684527e-07
-1.9913654e-08
8.056502e-06
1.3763733e-07
7.9516568e-09
7.659027e-06
-2.0209608e-08
4.0993334e-08
7.3170314e-06
-2.3186432e-07
8.4619934e-08
7.3043623e-06
-4.263189e-07
1.0652132e-07
7.8537273e-06
-4.5662133e-07
9.9624196e-08
8.8487428e-06
-1.4657729e-07
1.2867606e-07
1.0055902e-05
3.6785854e-07
2.7645312e-07
1.1011754e-05
1.2263518e-06
4.5212135e-07
1.1040912e-05
2.4667704e-06
5.4991704e-07
1.0196427e-05
3.3999992e-06
6.511797e-07
8.2804472e-06
4.5787194e-06
7.9243674e-07
6.1036028e-06
9.1359747e-07
9.0633958e-06
2.0205454e-10
8.7930889e-06
5.9331196e-10
8.5119894e-06
1.3508311e-09
8.2294781e-06
2.5547326e-09
7.9477888e-06
4.34438e-09
7.6665058e-06
6.9871772e-09
7.3790303e-06
1.1114336e-08
7.065764e-06
1.7091576e-08
6.6918604e-06
2.6947688e-08
6.1841132e-06
4.4150106e-08
5.3789596e-06
7.5542508e-08
3.8796564e-06
1.3434478e-07
8.2394012e-07
2.3655522e-07
-2.004806e-06
2.3142993e-07
-3.8530393e-06
1.0729426e-07
-5.1647872e-06
1.6464934e-07
-6.0434251e-06
2.6526709e-07
-6.4254562e-06
3.6305332e-07
-6.2510328e-06
4.090353e-07
-5.6772113e-06
3.7031429e-07
-4.9307612e-06
2.8797613e-07
-4.1811347e-06
2.4169451e-07
-3.4016415e-06
2.5711743e-07
-2.337034e-06
3.2286887e-07
-8.5518245e-07
4.1317597e-07
7.5714337e-07
5.6209623e-07
1.7782784e-06
1.060038e-06
1.8396834e-06
1.4088085e-06
1.6871823e-06
1.5441011e-06
1.459433e-06
9.5826336e-06
-3.073091e-07
-5.9047666e-09
9.8629494e-06
-2.6932188e-07
-9.9973753e-09
1.0133178e-05
-2.5709206e-07
-1.1413817e-08
1.0361235e-05
-2.148536e-07
-1.0615578e-08
1.0536445e-05
-1.6348025e-07
-8.1391237e-09
1.0664444e-05
-1.1897264e-07
-4.2541905e-09
1.07541e-05
-8.4371553e-08
9.2225161e-10
1.0813089e-05
-5.9034893e-08
8.0397438e-09
1.0850022e-05
-4.3297801e-08
1.6467254e-08
1.0877154e-05
-4.1081075e-08
2.6250254e-08
1.091868e-05
-6.3429131e-08
3.5969604e-08
1.102462e-05
-1.3439176e-07
4.1004405e-08
1.12757e-05
-2.7705147e-07
2.8791952e-08
1.1697104e-05
-4.2684565e-07
-2.0010951e-08
1.2080241e-05
-3.4111947e-07
-1.0309585e-07
1.2337259e-05
-1.4831484e-07
-2.0071069e-07
1.2496361e-05
1.2731661e-08
-2.9507985e-07
1.2596847e-05
1.3050089e-07
-3.9256899e-07
1.2679484e-05
2.065697e-07
-5.0068485e-07
1.2790866e-05
2.363919e-07
-6.2245848e-07
1.2962717e-05
2.4361439e-07
-7.6282023e-07
1.3192745e-05
2.7874989e-07
-9.2953037e-07
1.3437532e-05
4.016016e-07
-1.129009e-06
1.3626758e-05
6.4663539e-07
-1.3574465e-06
1.3694989e-05
9.8756789e-07
-1.5888427e-06
1.3547347e-05
1.4029626e-06
-1.7720474e-06
1.30234e-05
1.8875602e-06
-1.8351549e-06
1.1862038e-05
2.4813113e-06
-1.7108925e-06
9.6281082e-06
3.2968963e-06
-1.3343159e-06
4.7595713e-06
-6.4232514e-07
9.1979965e-06
-2.2955406e-07
-6.5713454e-09
9.2860448e-06
-3.4447149e-07
-1.2280478e-08
9.410378e-06
-3.6513375e-07
-1.4925427e-08
9.5769219e-06
-3.6466898e-07
-1.4253453e-08
9.7768643e-06
-3.4897633e-07
-1.0467476e-08
9.9939984e-06
-3.2658588e-07
-3.5659101e-09
1.0216596e-05
-3.062102e-07
7.7861584e-09
1.0439647e-05
-2.9416343e-07
2.3769796e-08
1.0664631e-05
-2.9842292e-07
4.5507226e-08
1.0904958e-05
-3.3577889e-07
7.3486255e-08
1.1200217e-05
-4.4370867e-07
1.0542276e-07
1.1642137e-05
-6.9556479e-07
1.3187934e-07
1.2379197e-05
-1.1547459e-06
1.2683063e-07
1.3180373e-05
-1.3589137e-06
4.9693629e-08
1.3741342e-05
-9.6290808e-07
-6.0303899e-08
1.4132128e-05
-5.6948136e-07
-1.0046311e-07
1.4405731e-05
-3.1825999e-07
-8.3307196e-08
1.4603102e-05
-1.9461167e-07
-2.8584607e-08
1.4706391e-05
-1.4536324e-07
7.2348256e-08
1.4782642e-05
-2.5271262e-07
2.0867889e-07
1.4879522e-05
-4.4266519e-07
3.6039273e-07
1.5029446e-05
-5.9021159e-07
4.7607832e-07
1.5266595e-05
-5.8367083e-07
5.0111985e-07
1.5558149e-05
-3.1274801e-07
4.160068e-07
1.5791497e-05
2.2236411e-07
2.7203115e-07
1.5686123e-05
1.1133486e-06
1.4720541e-07
1.508176e-05
2.1137002e-06
1.7057379e-07
1.373794e-05
3.2027555e-06
5.160519e-07
1.1397154e-05
4.5351938e-06
1.1484463e-06
6.2822176e-06
1.9014293e-06
9.2582519e-06
-2.1206685e-07
-6.5733891e-09
9.2092265e-06
-2.8253167e-07
-1.2306873e-08
9.1568167e-06
-2.962748e-07
-1.5078547e-08
9.1064877e-06
-2.973391e-07
-1.4447213e-08
9.0646435e-06
-2.9254474e-07
-1.0332189e-08
9.0308902e-06
-2.8366353e-07
-2.5091106e-09
8.9985866e-06
-2.754229e-07
1.1627989e-08
8.9607829e-06
-2.741863e-07
3.2563391e-08
8.9094882e-06
-2.8916019e-07
6.3291523e-08
8.83742e-06
-3.4068896e-07
1.073249e-07
8.7466311e-06
-4.7934727e-07
1.677929e-07
8.6929951e-06
-8.3901478e-07
2.4213728e-07
8.9621261e-06
-1.7113567e-06
3.0352586e-07
9.4263373e-06
-2.1573893e-06
2.4803481e-07
9.1251567e-06
-8.8222155e-07
9.1954906e-08
8.8232428e-06
-4.4560657e-07
8.5386183e-08
8.3776839e-06
-1.0497565e-07
1.7946866e-07
7.7552868e-06
3.1765295e-08
3.7827639e-07
6.9876078e-06
-2.2131401e-08
6.5431816e-07
6.015948e-06
-2.1597737e-07
9.7806384e-07
4.9090292e-06
-5.1426727e-07
1.2663758e-06
3.8914928e-06
-8.6195913e-07
1.4007764e-06
3.3028941e-06
-1.1835138e-06
1.2969785e-06
3.61883e-06
-1.4387718e-06
9.5382002e-07
5.0794053e-06
-1.4484444e-06
5.0126692e-07
7.1838582e-06
-8.5199986e-07
3.2233472e-07
8.6802227e-06
4.3291089e-07
7.3581271e-07
9.0993012e-06
1.7968059e-06
1.6367717e-06
8.4773143e-06
3.3592397e-06
2.5938102e-06
5.1601528e-06
3.4212914e-06
9.0634512e-06
-6.3645861e-09
8.7933113e-06
-1.1799691e-08
8.5126315e-06
-1.424543e-08
8.2310781e-06
-1.3232231e-08
7.9514936e-06
-8.6170647e-09
7.675199e-06
-3.8297937e-10
7.3947849e-06
1.6104468e-08
7.0972222e-06
4.0467114e-08
6.7562671e-06
7.874192e-08
6.3196392e-06
1.4008877e-07
5.673791e-06
2.4204383e-07
4.5468114e-06
4.2231438e-07
2.3023735e-06
7.6988264e-07
-9.2814668e-07
1.3130593e-06
-3.1999252e-06
1.5016391e-06
-4.7731558e-06
1.297249e-06
-5.7891847e-06
1.1816737e-06
-6.2419987e-06
8.5317508e-07
-5.9674266e-06
1.1839522e-07
-5.2178115e-06
-5.8854112e-07
-4.3564591e-06
-1.0821885e-06
-3.6060384e-06
-1.3668428e-06
-3.0261443e-06
-1.5039781e-06
-2.589796e-06
-1.550861e-06
-2.1310482e-06
-1.4927258e-06
-1.4280078e-06
-9.8924622e-07
-3.4561355e-07
4.2363759e-07
6.6692209e-07
2.1964542e-06
1.6227373e-06
3.9536199e-06
5.3407189e-06
9.585728e-06
-3.0688502e-07
-1.5761378e-08
9.8700958e-06
-2.686136e-07
-2.5736921e-08
1.0143969e-05
-2.5632203e-07
-2.894575e-08
1.0375103e-05
-2.142294e-07
-2.7497027e-08
1.0553203e-05
-1.6319778e-07
-2.3013636e-08
1.0684215e-05
-1.1914385e-07
-1.6092364e-08
1.0777014e-05
-8.5051598e-08
-6.8006532e-09
1.0839912e-05
-5.9825196e-08
5.0026188e-09
1.0880616e-05
-4.2932866e-08
1.8742563e-08
1.0908418e-05
-3.6564733e-08
3.5049841e-08
1.093935e-05
-4.736594e-08
5.2399749e-08
1.1004636e-05
-9.1374372e-08
6.6989729e-08
1.1158911e-05
-1.9552932e-07
6.9759186e-08
1.1484321e-05
-3.9510652e-07
4.9056234e-08
1.1857332e-05
-4.6670974e-07
-1.0424764e-08
1.2146204e-05
-3.5790185e-07
-1.3309499e-07
1.2313262e-05
-2.1362056e-07
-2.5031774e-07
1.2402906e-05
-1.5164245e-07
-3.3283209e-07
1.2462234e-05
-1.8774597e-07
-3.7502782e-07
1.2524654e-05
-3.0149941e-07
-3.8668177e-07
1.2608941e-05
-4.6720516e-07
-3.8357059e-07
1.2710082e-05
-6.5232389e-07
-3.8180718e-07
1.2802452e-05
-8.2845348e-07
-3.9511256e-07
1.2861597e-05
-9.8580871e-07
-4.3005758e-07
1.2887477e-05
-1.1241498e-06
-4.850615e-07
1.2882265e-05
-1.1985942e-06
-5.5603926e-07
1.277822e-05
-1.0820149e-06