/*--------------------------------*- C++ -*----------------------------------*\
| =========                 |                                                 |
| \\      /  F ield         | OpenFOAM: The Open Source CFD Toolbox           |
|  \\    /   O peration     | Version:  v2012                                 |
|   \\  /    A nd           | Website:  www.openfoam.com                      |
|    \\/     M anipulation  |                                                 |
\*---------------------------------------------------------------------------*/
FoamFile
{
    version     2.0;
    format      ascii;
    class       volScalarField;
    location    "530/topAir";
    object      rho;
}
// * * * * * * * * * * * * * * * * * * * * * * * * * * * * * * * * * * * * * //

dimensions      [1 -3 0 0 0 0 0];


internalField   nonuniform List<scalar> 
1200
(
1.0698609
0.99908631
0.94265617
0.89592013
0.85590087
0.82084949
0.78979206
0.76238646
0.73861302
0.7180319
0.70041861
0.6857516
0.67441504
0.67454227
0.67799633
0.68474121
0.69392424
0.70422395
0.71436056
0.72342068
0.73090595
0.73662764
0.74057216
0.74279963
0.74338907
0.74239061
0.73976304
0.73526144
0.72817733
0.71736545
1.156555
1.1526781
1.1474148
1.1410307
1.1337219
1.1256455
1.1169435
1.1070345
1.0936433
1.0762397
1.0526283
1.0221224
0.98547008
0.94857765
0.91482995
0.88654012
0.86430867
0.8479562
0.83704075
0.83086059
0.82825063
0.82779621
0.82817643
0.82833146
0.82745278
0.82484065
0.81972647
0.8110215
0.79674646
0.77545793
1.1585741
1.1584442
1.158203
1.1578273
1.1572971
1.1565957
1.15571
1.1546128
1.15322
1.1514393
1.1490127
1.1417326
1.1229293
1.0907653
1.050047
1.006496
0.96556904
0.93007803
0.90127198
0.87935924
0.86372108
0.85315857
0.84626106
0.84169385
0.83832913
0.83523621
0.83158835
0.82645045
0.81823522
0.80470019
1.158618
1.1586137
1.1586033
1.158583
1.1585478
1.1584917
1.1584076
1.1582867
1.1581159
1.1578758
1.1575206
1.1567731
1.1544892
1.1426854
1.110207
1.0663502
1.023133
0.98358532
0.94920595
0.9208508
0.89861393
0.88186614
0.8695562
0.8605514
0.85383613
0.84856218
0.8439972
0.83939667
0.83366793
0.82512031
1.0698758
0.99980847
0.94454095
0.89929893
0.86110263
0.82824638
0.79977503
0.77516394
0.75423502
0.7370592
0.72396204
0.71546626
0.71246764
0.72534917
0.74307553
0.76296744
0.78135695
0.79570795
0.80546102
0.81148704
0.81498923
0.81681085
0.81732286
0.8165804
0.81453177
0.81108176
0.80605231
0.7989322
0.7880887
0.77066425
1.1565577
1.1527529
1.1476875
1.1416639
1.1349144
1.1276338
1.1200157
1.1122713
1.1046483
1.0974566
1.0911141
1.0861512
1.0832041
1.0830553
1.0845631
1.0851465
1.0824349
1.0761319
1.0675275
1.0580267
1.0481897
1.0379712
1.0271295
1.0154007
1.0025921
0.98861769
0.97356512
0.95767869
0.94061404
0.91872764
1.1585743
1.1584478
1.1582191
1.1578722
1.157396
1.1567841
1.1560354
1.1551564
1.1541618
1.1530821
1.1519706
1.150834
1.1496909
1.1482739
1.143779
1.1330245
1.1140073
1.0892778
1.063702
1.0414352
1.0221337
1.0038725
0.98640918
0.96958
0.95334787
0.93687374
0.91988706
0.90283162
0.88566018
0.86777483
1.158618
1.1586138
1.1586042
1.1585858
1.1585551
1.1585079
1.1584398
1.1583461
1.1582221
1.1580626
1.15786
1.157579
1.156959
1.1536957
1.1397738
1.1125991
1.0783349
1.0369038
0.99621247
0.9611834
0.93404539
0.91406556
0.8984351
0.88564713
0.87512059
0.86695224
0.86029441
0.85444662
0.84859292
0.84094953
1.0698757
0.99968165
0.94426923
0.89887206
0.86049542
0.82741226
0.79858705
0.77335836
0.75136791
0.73252982
0.71706128
0.70558393
0.69947037
0.71041443
0.72584392
0.74284746
0.75943789
0.77510383
0.78969882
0.8030275
0.81486454
0.82477389
0.83211687
0.83635108
0.83730341
0.83522226
0.83053756
0.82337735
0.8119453
0.79291809
1.1565573
1.1527396
1.1476507
1.1415967
1.1348079
1.1274706
1.1197554
1.1118389
1.1039355
1.0963373
1.0894888
1.0840932
1.0811271
1.0812136
1.0818523
1.0807808
1.0779027
1.0737409
1.0682361
1.0612788
1.0526224
1.0417638
1.0282682
1.0121357
0.99378555
0.9737155
0.95224881
0.93009605
0.90707786
0.88144521
1.1585743
1.1584472
1.1582173
1.1578686
1.1573905
1.1567767
1.1560259
1.155143
1.1541425
1.1530563
1.1519519
1.1509531
1.1501158
1.1474502
1.1370869
1.1209974
1.1058714
1.0933451
1.0804305
1.0663544
1.0500105
1.0299842
1.0061683
0.97994698
0.95328708
0.92839231
0.90656846
0.88764868
0.86736096
0.84321453
1.158618
1.1586138
1.1586041
1.1585856
1.1585549
1.1585078
1.1584402
1.1583476
1.1582257
1.1580704
1.1578764
1.1575999
1.1565121
1.1458879
1.1066422
1.0615596
1.0361519
1.0350417
1.0103864
0.97986167
0.9532597
0.93231776
0.91551126
0.90154403
0.88973601
0.87979473
0.87130656
0.86283669
0.84446786
0.82149417
1.0698608
0.99961322
0.94410211
0.89855838
0.85995825
0.82652285
0.79714923
0.77110675
0.74791815
0.72733741
0.70944466
0.69483966
0.68485104
0.69017374
0.69430864
0.69507914
0.69337189
0.69105713
0.68951553
0.68975174
0.69226556
0.69687723
0.70299423
0.71000214
0.71726326
0.72349787
0.72611735
0.7222823
0.71360544
0.69890856
1.1565568
1.1527334
1.1476279
1.1415409
1.1346942
1.1272581
1.1193779
1.1111943
1.1028736
1.0946708
1.0870549
1.0808935
1.07727
1.0750474
1.0709689
1.0654749
1.0593544
1.0530817
1.046661
1.0397011
1.031424
1.0210441
1.0082872
0.99349362
0.97704488
0.95890515
0.93925889
0.91805519
0.87809121
0.81571459
1.1585743
1.1584469
1.158216
1.1578649
1.1573821
1.1567596
1.1559934
1.1550847
1.1540433
1.1528992
1.1517298
1.1506923
1.1494611
1.1407905
1.1233017
1.1104177
1.1018962
1.0946087
1.0851597
1.0714152
1.0522527
1.0274471
0.99849609
0.96791959
0.93732992
0.90806522
0.88321431
0.86243868
0.84161988
0.80979243
1.158618
1.1586138
1.158604
1.1585854
1.1585543
1.1585065
1.1584374
1.1583421
1.1582154
1.1580514
1.1578379
1.1574241
1.1541619
1.1164012
1.0343242
0.99670878
0.99337378
0.99346723
0.98947166
0.97269527
0.95365065
0.93606633
0.92024133
0.90578054
0.89135055
0.87419371
0.85569848
0.83611519
0.81525966
0.79352536
1.069844
0.99957118
0.9440275
0.89844619
0.85980115
0.82631167
0.79687604
0.770767
0.74752609
0.72698683
0.70940965
0.69570089
0.68696976
0.69301157
0.69509288
0.69293836
0.68983263
0.68524519
0.67990286
0.67435627
0.66909172
0.66453767
0.66102655
0.65875787
0.65774161
0.65765916
0.65767047
0.65638342
0.65207095
0.64275572
1.1565563
1.1527301
1.1476172
1.1415168
1.1346494
1.1271834
1.1192627
1.1110287
1.1026613
1.0944635
1.087041
1.0814978
1.0785382
1.074011
1.0678943
1.0608993
1.0477768
1.0296336
1.0076853
0.98281273
0.95568429
0.92659732
0.8959716
0.86487306
0.83472248
0.80647632
0.78024688
0.75524036
0.72986589
0.70086436
1.1585742
1.1584468
1.1582154
1.1578631
1.157378
1.1567517
1.1559794
1.1550618
1.1540097
1.1528596
1.1517131
1.1507357
1.1483282
1.130152
1.1168105
1.1086803
1.1034057
1.0964709
1.0869437
1.0741566
1.0545709
1.0274468
0.99510222
0.96200191
0.92868649
0.89534547
0.86189959
0.82747185
0.79075204
0.74937053
1.158618
1.1586138
1.158604
1.1585853
1.158554
1.1585058
1.1584358
1.158339
1.1582095
1.1580399
1.1578049
1.1570951
1.1482969
1.0383981
0.98198885
0.97038448
0.96424244
0.95791981
0.94986755
0.94012843
0.93009739
0.91941262
0.90918761
0.90023286
0.89321824
0.88450438
0.86667754
0.84106539
0.80696975
0.76687754
1.0698232
0.99953639
0.94398325
0.89839447
0.85974248
0.82624416
0.79679265
0.77065422
0.74734977
0.72665415
0.70869741
0.69419152
0.68456352
0.69186119
0.69644719
0.69654048
0.69312705
0.68831196
0.68282412
0.67721501
0.67196704
0.66750651
0.66417693
0.66220206
0.66161287
0.66209236
0.66277872
0.66220171
0.65846521
0.64968736
1.1565558
1.1527286
1.1476144
1.1415125
1.1346431
1.1271743
1.1192478
1.111
1.1025949
1.0942946
1.0866057
1.0804905
1.077058
1.0741987
1.0691282
1.0628466
1.0555175
1.0438676
1.0300052
1.0161039
1.0028037
0.98835475
0.96965627
0.94465131
0.91426704
0.88094148
0.84637155
0.8111482
0.77421544
0.7327274
1.1585742
1.1584467
1.1582153
1.157863
1.1573778
1.1567513
1.1559789
1.1550606
1.1540054
1.1528436
1.1516586
1.1506212
1.1491874
1.1365327
1.1189862
1.1073262
1.1009256
1.0957691
1.0892591
1.0778816
1.0589262
1.0313048
0.9983175
0.96691132
0.94202585
0.9210748
0.89803606
0.86811584
0.83037676
0.78403804
1.158618
1.1586138
1.158604
1.1585853
1.158554
1.1585058
1.1584359
1.1583394
1.1582103
1.1580425
1.1578206
1.157353
1.1531398
1.0965223
0.99231912
0.97383984
0.96631988
0.96047293
0.95442234
0.94864002
0.9389728
0.92682863
0.91452729
0.90294652
0.89257752
0.88365833
0.8778153
0.85631799
0.82730689
0.79173247
1.0698006
0.99951285
0.94397484
0.89841105
0.85979323
0.82633958
0.7969439
0.77086492
0.74760322
0.72687344
0.70865294
0.69335181
0.68222449
0.68722345
0.69290152
0.6959743
0.69622054
0.69528009
0.69483052
0.69594492
0.69912024
0.70427145
0.71089856
0.71842106
0.72626068
0.73328244
0.73722055
0.73461992
0.72337595
0.70791728
1.1565552
1.1527291
1.1476199
1.1415286
1.1346769
1.1272346
1.1193451
1.1111436
1.1027837
1.0944849
1.086636
1.0799661
1.0756021
1.0739562
1.0715251
1.0670094
1.0615079
1.0558083
1.0500696
1.044002
1.0369808
1.0281755
1.016899
1.0029859
0.9865831
0.96771915
0.94751444
0.92661912
0.8978355
0.83826159
1.1585742
1.1584468
1.1582157
1.1578644
1.1573813
1.1567586
1.155992
1.1550824
1.154038
1.1528835
1.1516814
1.1505692
1.1495647
1.1453184
1.1299215
1.1132513
1.1017857
1.0934828
1.0843168
1.0719121
1.0547083
1.0317201
1.0039851
0.97444009
0.94491366
0.91546724
0.89191421
0.87456412
0.85626951
0.82962427
1.158618
1.1586138
1.158604
1.1585854
1.1585543
1.1585065
1.1584375
1.1583425
1.1582163
1.1580536
1.1578462
1.1575245
1.1559226
1.1383765
1.0753721
1.0029287
0.99515342
0.9967465
0.99971708
0.9847691
0.96396032
0.94280018
0.92583574
0.91103913
0.89669958
0.87958914
0.86420229
0.84852272
0.8279699
0.8096744
1.0697856
0.99953095
0.94407786
0.89865117
0.86025175
0.82714786
0.79829607
0.77303448
0.75099296
0.732055
0.71637023
0.70442005
0.69739051
0.70724966
0.72259985
0.74085168
0.75938576
0.77687837
0.79271626
0.80659104
0.8183936
0.82799175
0.83509684
0.83938066
0.84069816
0.83922076
0.83527464
0.82896551
0.81898064
0.80149919
1.156555
1.1527331
1.1476387
1.1415783
1.1347826
1.1274376
1.1197127
1.1117812
1.1038502
1.0961856
1.0891823
1.0834479
1.0798829
1.0796203
1.0812349
1.0816129
1.0798157
1.0762557
1.0710655
1.0643308
1.0560826
1.0460548
1.033822
1.0191737
1.0022553
0.98329198
0.96235002
0.93989919
0.9168946
0.89166219
1.1585742
1.158447
1.1582168
1.1578678
1.1573894
1.1567752
1.1560242
1.1551408
1.1541386
1.1530467
1.1519224
1.1508725
1.1500229
1.1486588
1.1422456
1.1275583
1.1112656
1.0972882
1.0836556
1.0693972
1.0538726
1.0356782
1.0140581
0.98978244
0.96447299
0.93990209
0.91692393
0.89622503
0.87594807
0.85320792
1.158618
1.1586138
1.1586041
1.1585856
1.1585549
1.1585078
1.1584403
1.158348
1.1582267
1.1580727
1.1578818
1.157634
1.1570269
1.1523362
1.1283389
1.0809195
1.0507906
1.0417547
1.0193186
0.98907424
0.96087575
0.93824563
0.92024561
0.90554146
0.89304283
0.88226127
0.87301825
0.86468859
0.85055174
0.83031171
1.0697647
0.99962192
0.9443018
0.89901892
0.86078645
0.82789397
0.79938944
0.77474504
0.75378172
0.73657224
0.72341334
0.7147439
0.71130327
0.72336998
0.74013955
0.75942695
0.77778505
0.79254787
0.80287114
0.80937316
0.81318761
0.81518149
0.81581422
0.81523227
0.81346276
0.81046818
0.80604554
0.79956586
0.78942671
0.77316961
1.1565549
1.1527449
1.1476726
1.1416411
1.1348829
1.1275934
1.1199673
1.1122154
1.1045797
1.0973645
1.0909621
1.0858534
1.0826031
1.0820165
1.0833326
1.0842908
1.0823119
1.0767858
1.0688169
1.0598084
1.0504971
1.040921
1.0309013
1.020164
1.0084202
0.99541993
0.98106986
0.96551265
0.9485377
0.92601619
1.1585742
1.1584475
1.1582186
1.1578713
1.1573947
1.1567824
1.1560339
1.1551554
1.1541617
1.1530821
1.1519661
1.1507948
1.149596
1.1482274
1.1445458
1.1353485
1.1173925
1.0931509
1.0675274
1.0446236
1.0253885
1.0071587
0.98963634
0.97253327
0.95633636
0.94050605
0.92396669
0.90683696
0.88912887
0.87084476
1.158618
1.1586138
1.1586042
1.1585858
1.1585551
1.1585079
1.15844
1.1583467
1.1582235
1.1580652
1.1578641
1.1575818
1.1569785
1.1541405
1.1426919
1.116529
1.0804707
1.038927
0.99909968
0.96447814
0.93674482
0.91648054
0.90078334
0.88812137
0.87742311
0.86857832
0.86144587
0.85525749
0.84920371
0.84187445
1.0697387
0.99888062
0.94239187
0.89560958
0.85554832
0.82045613
0.78937015
0.76195872
0.73818002
0.71759653
0.69998065
0.68529925
0.67390677
0.67393638
0.67722562
0.68381024
0.69290923
0.70321788
0.71343188
0.72259822
0.73019426
0.73602593
0.74009334
0.742481
0.74329529
0.74260909
0.74038302
0.73634285
0.7297666
0.71955901
1.1565519
1.1526692
1.1473983
1.141005
1.1336864
1.1256003
1.1168888
1.1068744
1.0933909
1.0757486
1.0515186
1.0202551
0.98272519
0.94526796
0.91156502
0.88391327
0.86265253
0.84726566
0.83707278
0.8313248
0.82896333
0.82869276
0.82927689
0.82968983
0.82911877
0.82684578
0.82205406
0.81356911
0.79935467
0.7779563
1.1585741
1.1584439
1.1582024
1.1578262
1.1572955
1.1565937
1.155708
1.1546084
1.153211
1.1514171
1.1489279
1.1406514
1.1196527
1.0857644
1.0441267
1.0004224
0.96032899
0.92619075
0.89876584
0.87796831
0.86311426
0.85306945
0.84652241
0.84222019
0.8390875
0.83621836
0.83278181
0.82782523
0.81977286
0.80642837
1.158618
1.1586137
1.1586033
1.158583
1.1585477
1.1584917
1.1584078
1.1582872
1.1581171
1.1578776
1.1575201
1.1567249
1.1541871
1.1397108
1.1049872
1.0607835
1.0182563
0.98006752
0.94715766
0.91996084
0.89845133
0.88209398
0.86997539
0.86106409
0.85439777
0.84915477
0.84461873
0.8400539
0.83439852
0.826038
)
;

boundaryField
{
    maxY
    {
        type            calculated;
        value           nonuniform List<scalar> 
300
(
1.1586174
1.1586175
1.1586175
1.1586175
1.1586175
1.1586175
1.1586175
1.1586175
1.1586175
1.1586174
1.1586132
1.1586133
1.1586133
1.1586133
1.1586133
1.1586133
1.1586133
1.1586133
1.1586133
1.1586132
1.1586028
1.1586036
1.1586036
1.1586035
1.1586035
1.1586035
1.1586035
1.1586035
1.1586036
1.1586028
1.1585825
1.1585853
1.1585851
1.1585849
1.1585848
1.1585848
1.1585849
1.1585851
1.1585853
1.1585824
1.1585472
1.1585546
1.1585544
1.1585538
1.1585535
1.1585535
1.1585538
1.1585543
1.1585545
1.1585472
1.1584912
1.1585074
1.1585073
1.158506
1.1585052
1.1585052
1.158506
1.1585073
1.1585074
1.1584912
1.1584071
1.1584393
1.1584397
1.1584369
1.1584353
1.1584354
1.158437
1.1584398
1.1584395
1.1584073
1.1582862
1.1583456
1.1583471
1.1583416
1.1583385
1.1583388
1.1583419
1.1583475
1.1583462
1.1582867
1.1581154
1.1582216
1.1582252
1.1582148
1.158209
1.1582098
1.1582157
1.1582262
1.1582229
1.1581166
1.1578753
1.158062
1.1580699
1.1580509
1.1580394
1.1580419
1.1580531
1.1580722
1.1580647
1.1578771
1.1575201
1.1578595
1.1578758
1.1578374
1.1578044
1.1578201
1.1578456
1.1578812
1.1578635
1.1575196
1.1567726
1.1575785
1.1575994
1.1574236
1.1570945
1.1573525
1.157524
1.1576335
1.1575813
1.1567244
1.1544887
1.1569585
1.1565116
1.1541614
1.1482964
1.1531392
1.1559221
1.1570264
1.1569779
1.1541865
1.1426848
1.1536951
1.1458874
1.1164008
1.0383977
1.0965218
1.138376
1.1523356
1.15414
1.1397103
1.1102065
1.1397733
1.1066418
1.0343238
0.98198848
0.99231873
1.0753717
1.1283384
1.1426913
1.1049868
1.0663497
1.1125986
1.0615591
0.99670839
0.97038411
0.97383947
1.0029283
1.0809191
1.1165285
1.060783
1.0231326
1.0783345
1.0361515
0.99337339
0.96424208
0.96631951
0.99515303
1.0507902
1.0804703
1.0182559
0.98358494
1.0369034
1.0350413
0.99346685
0.95791945
0.96047257
0.99674611
1.0417543
1.0389266
0.98006714
0.9492056
0.99621208
1.010386
0.98947128
0.94986719
0.95442198
0.99971669
1.0193182
0.99909929
0.94715731
0.92085047
0.96118304
0.97986129
0.9726949
0.94012809
0.94863967
0.98476872
0.98907386
0.96447778
0.91996051
0.89861361
0.93404504
0.95325934
0.9536503
0.93009705
0.93897245
0.96395996
0.96087538
0.93674448
0.89845102
0.88186584
0.91406523
0.93231742
0.93606599
0.91941229
0.92682829
0.94279983
0.93824528
0.91648021
0.88209368
0.8695559
0.89843478
0.91551093
0.920241
0.90918729
0.91452697
0.92583541
0.92024528
0.90078303
0.86997509
0.8605511
0.88564682
0.90154372
0.90578022
0.90023254
0.9029462
0.9110388
0.90554113
0.88812106
0.86106379
0.85383584
0.87512029
0.8897357
0.89135024
0.89321793
0.89257721
0.89669927
0.89304251
0.87742281
0.85439748
0.8485619
0.86695195
0.87979442
0.87419341
0.88450407
0.88365802
0.87958884
0.88226097
0.86857803
0.84915448
0.84399692
0.86029412
0.87130627
0.85569819
0.86667725
0.877815
0.864202
0.87301795
0.86144558
0.84461845
0.8393964
0.85444633
0.8628364
0.83611491
0.84106511
0.8563177
0.84852243
0.8646883
0.85525721
0.84005362
0.83366766
0.84859264
0.84446758
0.8152594
0.80696949
0.82730662
0.82796963
0.85055145
0.84920343
0.83439825
0.82512004
0.84094926
0.8214939
0.79352512
0.76687731
0.79173223
0.80967414
0.83031144
0.84187417
0.82603773
)
;
    }
    minX
    {
        type            calculated;
        value           nonuniform List<scalar> 
40
(
1.1586222
1.1586212
1.1586201
1.1586191
1.1586222
1.1586212
1.1586201
1.1586191
1.1586222
1.1586212
1.1586201
1.1586191
1.1586222
1.1586212
1.1586201
1.1586191
1.1586222
1.1586212
1.1586201
1.1586191
1.1586222
1.1586212
1.1586201
1.1586191
1.1586222
1.1586212
1.1586201
1.1586191
1.1586222
1.1586212
1.1586201
1.1586191
1.1586222
1.1586212
1.1586201
1.1586191
1.1586222
1.1586212
1.1586201
1.1586191
)
;
    }
    maxX
    {
        type            calculated;
        value           nonuniform List<scalar> 
40
(
0.71754687
0.77578977
0.80489198
0.82521738
0.77099706
0.91906057
0.86786114
0.84043429
0.79394113
0.88063153
0.84218525
0.8209462
0.69932935
0.81698025
0.81002632
0.79376368
0.64308352
0.70161774
0.75032527
0.76798918
0.64985585
0.73276782
0.78440844
0.79218134
0.70814795
0.84003794
0.82958617
0.80849898
0.8024916
0.8906131
0.85077906
0.8262529
0.7735716
0.92621064
0.870618
0.84156639
0.71973344
0.77828659
0.80659875
0.82611994
)
;
    }
    minZ
    {
        type            calculated;
        value           nonuniform List<scalar> 
120
(
1.0698609
1.156555
1.1585741
1.158618
0.99908631
1.1526781
1.1584442
1.1586137
0.94265617
1.1474148
1.158203
1.1586033
0.89592013
1.1410307
1.1578273
1.158583
0.85590087
1.1337219
1.1572971
1.1585478
0.82084949
1.1256455
1.1565957
1.1584917
0.78979206
1.1169435
1.15571
1.1584076
0.76238646
1.1070345
1.1546128
1.1582867
0.73861302
1.0936433
1.15322
1.1581159
0.7180319
1.0762397
1.1514393
1.1578758
0.70041861
1.0526283
1.1490127
1.1575206
0.6857516
1.0221224
1.1417326
1.1567731
0.67441504
0.98547008
1.1229293
1.1544892
0.67454227
0.94857765
1.0907653
1.1426854
0.67799633
0.91482995
1.050047
1.110207
0.68474121
0.88654012
1.006496
1.0663502
0.69392424
0.86430867
0.96556904
1.023133
0.70422395
0.8479562
0.93007803
0.98358532
0.71436056
0.83704075
0.90127198
0.94920595
0.72342068
0.83086059
0.87935924
0.9208508
0.73090595
0.82825063
0.86372108
0.89861393
0.73662764
0.82779621
0.85315857
0.88186614
0.74057216
0.82817643
0.84626106
0.8695562
0.74279963
0.82833146
0.84169385
0.8605514
0.74338907
0.82745278
0.83832913
0.85383613
0.74239061
0.82484065
0.83523621
0.84856218
0.73976304
0.81972647
0.83158835
0.8439972
0.73526144
0.8110215
0.82645045
0.83939667
0.72817733
0.79674646
0.81823522
0.83366793
0.71736545
0.77545793
0.80470019
0.82512031
)
;
    }
    maxZ
    {
        type            calculated;
        value           nonuniform List<scalar> 
120
(
1.0697387
1.1565519
1.1585741
1.158618
0.99888062
1.1526692
1.1584439
1.1586137
0.94239187
1.1473983
1.1582024
1.1586033
0.89560958
1.141005
1.1578262
1.158583
0.85554832
1.1336864
1.1572955
1.1585477
0.82045613
1.1256003
1.1565937
1.1584917
0.78937015
1.1168888
1.155708
1.1584078
0.76195872
1.1068744
1.1546084
1.1582872
0.73818002
1.0933909
1.153211
1.1581171
0.71759653
1.0757486
1.1514171
1.1578776
0.69998065
1.0515186
1.1489279
1.1575201
0.68529925
1.0202551
1.1406514
1.1567249
0.67390677
0.98272519
1.1196527
1.1541871
0.67393638
0.94526796
1.0857644
1.1397108
0.67722562
0.91156502
1.0441267
1.1049872
0.68381024
0.88391327
1.0004224
1.0607835
0.69290923
0.86265253
0.96032899
1.0182563
0.70321788
0.84726566
0.92619075
0.98006752
0.71343188
0.83707278
0.89876584
0.94715766
0.72259822
0.8313248
0.87796831
0.91996084
0.73019426
0.82896333
0.86311426
0.89845133
0.73602593
0.82869276
0.85306945
0.88209398
0.74009334
0.82927689
0.84652241
0.86997539
0.742481
0.82968983
0.84222019
0.86106409
0.74329529
0.82911877
0.8390875
0.85439777
0.74260909
0.82684578
0.83621836
0.84915477
0.74038302
0.82205406
0.83278181
0.84461873
0.73634285
0.81356911
0.82782523
0.8400539
0.7297666
0.79935467
0.81977286
0.83439852
0.71955901
0.7779563
0.80642837
0.826038
)
;
    }
    topAir_to_rightSolid
    {
        type            calculated;
        value           nonuniform List<scalar> 
130
(
0.46152164
0.45670842
0.45177723
0.44697674
0.44247586
0.4383911
0.43478995
0.43170081
0.42913514
0.42709436
0.42557239
0.42455839
0.42404819
0.46514367
0.45943121
0.45373803
0.4483413
0.44340455
0.43901656
0.43521238
0.43199454
0.42934302
0.42724617
0.4256899
0.42465783
0.42414124
0.47255727
0.46472974
0.45737242
0.45076965
0.44500449
0.44006297
0.4358935
0.43244181
0.42964983
0.42746706
0.42585456
0.42478965
0.42425888
0.48403082
0.47205216
0.46194721
0.45361249
0.44676984
0.44115646
0.43656811
0.43285987
0.4299109
0.42763586
0.4259713
0.42487407
0.42432443
0.49829492
0.47918557
0.46574837
0.45573609
0.44799441
0.44187727
0.43699646
0.43311293
0.43005706
0.42771699
0.42601587
0.42490009
0.42434175
0.49817294
0.47906607
0.4656399
0.45564316
0.44792045
0.44182212
0.43695857
0.43308457
0.43003328
0.42769549
0.42599481
0.42487957
0.42432481
0.48367533
0.47172705
0.46165734
0.45336328
0.4465634
0.44099448
0.43644773
0.43276642
0.42983368
0.42756533
0.42590295
0.42481175
0.42426941
0.47206935
0.46428297
0.45696985
0.45041974
0.44471106
0.43982515
0.43570623
0.43229258
0.42952599
0.42735828
0.42576046
0.4247075
0.42418325
0.46460784
0.45893239
0.45328496
0.44793836
0.44306327
0.43873883
0.43499065
0.43181775
0.42920243
0.42713194
0.42559507
0.4245777
0.4240697
0.46097182
0.45617813
0.45130143
0.44655773
0.44211669
0.43809399
0.43455297
0.43151988
0.42899616
0.42698447
0.42548433
0.42448815
0.42399039
)
;
    }
    topAir_to_heater
    {
        type            calculated;
        value           nonuniform List<scalar> 
40
(
0.4734812
0.4721339
0.46953464
0.46589422
0.4796455
0.47802525
0.47488214
0.47044855
0.49307895
0.49088389
0.48650297
0.48017805
0.51657655
0.51355556
0.50713094
0.49708659
0.55521449
0.552016
0.54381793
0.52799091
0.55508842
0.55188832
0.54369025
0.52786669
0.5162157
0.51317338
0.50674346
0.49670878
0.49255352
0.49034885
0.48596677
0.47966108
0.47907044
0.47747118
0.47432623
0.46990363
0.47288774
0.47159246
0.4690165
0.46536936
)
;
    }
    topAir_to_leftSolid
    {
        type            calculated;
        value           nonuniform List<scalar> 
130
(
0.3811355
0.38114892
0.38118293
0.38123966
0.3813209
0.38142776
0.38155825
0.38169233
0.38182527
0.3819568
0.38207397
0.38216496
0.38222476
0.38111739
0.38113159
0.38116678
0.38122512
0.3813072
0.38141255
0.38153505
0.38166041
0.38179106
0.38192566
0.38204882
0.38215237
0.38222284
0.38108411
0.38109975
0.38113825
0.38120152
0.38128902
0.38139408
0.38151055
0.38163688
0.38177235
0.38190852
0.38202818
0.38212519
0.38218982
0.38103488
0.38105217
0.38109525
0.38116867
0.38126495
0.38137112
0.38148764
0.38161358
0.3817477
0.38187843
0.38199802
0.38209921
0.38216374
0.38097359
0.38099266
0.3810401
0.38111813
0.38121534
0.38132261
0.38144333
0.381575
0.38170937
0.381843
0.38197699
0.38210851
0.38219124
0.38090853
0.38092945
0.38098076
0.3810607
0.38115956
0.3812674
0.38139004
0.38152555
0.38166109
0.38179631
0.38192963
0.38204628
0.38212086
0.38084672
0.38086948
0.38092473
0.38100838
0.38111048
0.38122066
0.38134121
0.38146412
0.38159169
0.38171293
0.38182137
0.38191646
0.38198041
0.38080191
0.38082371
0.38087663
0.38095258
0.38105062
0.38115222
0.38125724
0.38135952
0.38145956
0.38155489
0.38164044
0.38171237
0.38175695
0.38076902
0.38078857
0.38083544
0.38090174
0.38098469
0.38106553
0.38114537
0.38122479
0.38129869
0.38137339
0.38144689
0.38151102
0.38155009
0.38075211
0.38077048
0.38081492
0.38087474
0.38094112
0.38100878
0.38107696
0.38114293
0.38120658
0.38126919
0.38132766
0.38137615
0.38140623
)
;
    }
}


// ************************************************************************* //
