/*--------------------------------*- C++ -*----------------------------------*\
| =========                 |                                                 |
| \\      /  F ield         | OpenFOAM: The Open Source CFD Toolbox           |
|  \\    /   O peration     | Version:  v2012                                 |
|   \\  /    A nd           | Website:  www.openfoam.com                      |
|    \\/     M anipulation  |                                                 |
\*---------------------------------------------------------------------------*/
FoamFile
{
    version     2.0;
    format      ascii;
    class       volScalarField;
    location    "530/topAir";
    object      T;
}
// * * * * * * * * * * * * * * * * * * * * * * * * * * * * * * * * * * * * * //

dimensions      [0 0 0 1 0 0 0];


internalField   nonuniform List<scalar> 
1200
(
324.88957
347.90452
368.73109
387.96609
406.10617
423.44744
440.09889
455.91917
470.59364
484.08237
496.25549
506.8695
515.38969
515.29246
512.66729
507.61737
500.89982
493.57384
486.57014
480.47633
475.55573
471.86188
469.3486
467.94113
467.57009
468.19893
469.86192
472.73863
477.33768
484.53195
300.53595
301.54676
302.92998
304.62489
306.58871
308.78846
311.19421
313.9797
317.82423
322.96369
330.20806
340.06333
352.71119
366.42896
379.94636
392.07058
402.15528
409.91066
415.2561
418.34488
419.66316
419.89353
419.70075
419.6222
420.06779
421.39807
424.02712
428.57835
436.25704
448.23354
300.01191
300.04557
300.10804
300.20543
300.34296
300.52509
300.7554
301.04122
301.40479
301.87091
302.50845
304.43734
309.53511
318.66254
331.0195
345.34268
359.98049
373.71705
385.66162
395.27192
402.42855
407.41081
410.73143
412.96015
414.61761
416.15296
417.97846
420.57696
424.79963
431.94475
300.00029
300.00139
300.00408
300.00934
300.01846
300.03299
300.05476
300.08609
300.13033
300.19258
300.28469
300.47874
301.07316
304.18323
313.08192
325.95834
339.72684
353.38648
366.18582
377.46155
386.80213
394.14801
399.72781
403.91056
407.08725
409.61736
411.83288
414.09004
416.93555
421.25468
324.88506
347.65323
367.99531
386.50844
403.65296
419.66572
434.60548
448.40399
460.84654
471.58572
480.11714
485.81827
487.86296
479.19896
467.76748
455.57194
444.84989
436.82679
431.53738
428.33282
426.49217
425.54103
425.27444
425.66111
426.73168
428.54681
431.22077
435.06381
441.04995
451.02193
300.53526
301.52721
302.85801
304.45593
306.26658
308.244
310.3406
312.50141
314.65794
316.71989
318.56093
320.01652
320.88721
320.93129
320.4851
320.31281
321.11519
322.99599
325.59937
328.52318
331.60625
334.87083
338.40548
342.3144
346.68762
351.58814
357.02414
362.94662
369.5312
378.33434
300.01187
300.04463
300.10387
300.19378
300.31729
300.47617
300.67074
300.89955
301.15886
301.44084
301.73169
302.02969
302.32997
302.70305
303.89263
306.77715
312.01413
319.09765
326.77009
333.75672
340.05923
346.24515
352.37506
358.4913
364.59513
371.00623
377.85725
384.99537
392.45978
400.54859
300.00028
300.00135
300.00386
300.00861
300.01656
300.02878
300.04642
300.07068
300.10282
300.14416
300.19667
300.26955
300.43045
301.28025
304.96026
312.40878
322.33558
335.21501
348.90722
361.62269
372.12939
380.26347
386.87909
392.46529
397.18613
400.92839
404.03119
406.79636
409.6025
413.32537
324.88508
347.69734
368.1012
386.692
403.9378
420.08879
435.252
449.45089
462.60506
474.50163
484.73763
492.62259
496.92824
489.27296
478.87233
467.91109
457.68925
448.43869
440.15077
432.84513
426.55745
421.43251
417.71359
415.59882
415.12612
416.16049
418.50786
422.14726
428.09101
438.36366
300.53535
301.53069
302.86772
304.47386
306.29531
308.28863
310.41275
312.62293
314.86109
317.04325
319.03618
320.62403
321.50366
321.47796
321.28815
321.60667
322.46537
323.71524
325.38341
327.51648
330.20986
333.65172
338.03076
343.41864
349.75983
356.96902
365.01622
373.71006
383.19339
394.33672
300.01187
300.04478
300.10435
300.19472
300.31873
300.47807
300.67322
300.90303
301.16389
301.44757
301.7366
301.99844
302.2183
302.92035
305.68115
310.06852
314.30961
317.9106
321.71066
325.95729
331.03099
337.46731
345.45514
354.69879
364.6184
374.39561
383.40845
391.58061
400.73975
412.21539
300.00028
300.00136
300.00388
300.00866
300.01662
300.02881
300.04632
300.07031
300.10189
300.14214
300.19243
300.26412
300.54655
303.33308
314.09042
327.42931
335.45827
335.81807
344.01268
354.72939
364.62859
372.81896
379.663
385.54496
390.66168
395.07599
398.92478
402.84076
411.60334
423.11415
324.88961
347.72114
368.16636
386.82698
404.19012
420.54084
436.03707
450.76328
464.73882
477.88906
489.94179
500.23998
507.53603
503.62184
500.62255
500.0676
501.29888
502.97802
504.10255
503.92991
502.09998
498.77727
494.43723
489.55699
484.60101
480.42504
478.69189
481.23356
487.08497
497.32755
300.53549
301.53229
302.87375
304.48874
306.32601
308.34672
310.51743
312.8043
315.16427
317.52592
319.75048
321.57317
322.65479
323.32186
324.55314
326.22667
328.11146
330.06585
332.0906
334.31369
336.9965
340.42239
344.72945
349.86261
355.75262
362.48243
370.06438
378.6115
395.84299
426.11257
300.01188
300.04485
300.10467
300.19567
300.32091
300.48253
300.68168
300.91822
301.18976
301.48866
301.79477
302.06689
302.39042
304.68875
309.43247
313.02277
315.44352
317.54363
320.30863
324.41767
330.32562
338.30065
348.10954
359.10629
370.82569
382.77648
393.54662
403.02693
412.99644
429.22854
300.00028
300.00136
300.0039
300.00871
300.01677
300.02915
300.04704
300.07173
300.10457
300.14705
300.2024
300.30973
301.15854
311.3448
336.05105
348.73348
349.90427
349.87135
351.28417
357.34289
364.47911
371.32598
377.71152
383.7417
389.95406
397.60727
406.20124
415.7152
426.34981
438.02737
324.89471
347.73576
368.19546
386.87529
404.26397
420.64832
436.18655
450.96197
464.98257
478.11952
489.96597
499.62072
505.97071
501.55954
500.05772
501.61252
503.87084
507.24404
511.2297
515.43456
519.49009
523.05013
525.82836
527.63923
528.45446
528.5207
528.51161
529.54793
533.05011
540.77543
300.53561
301.53315
302.87657
304.49516
306.33811
308.36715
310.5494
312.85091
315.22495
317.58605
319.75458
321.39349
322.27541
323.63386
325.48756
327.63367
331.73698
337.58253
344.93535
353.66483
363.7041
375.12119
387.94341
401.89282
416.40938
430.99376
445.48241
460.23264
476.23308
495.93946
300.01188
300.04489
300.10484
300.19613
300.32196
300.48458
300.68532
300.92419
301.19854
301.49901
301.79916
302.05549
302.68875
307.55689
311.23098
313.51329
315.01198
317.00433
319.78292
323.58971
329.59949
338.30074
349.29679
361.31531
374.27702
388.21442
403.27902
420.05783
439.56389
463.83737
300.00029
300.00136
300.00391
300.00874
300.01685
300.02934
300.04745
300.07253
300.10609
300.15003
300.21097
300.39513
302.69673
334.73264
353.96097
358.19382
360.47545
362.85473
365.93074
369.72155
373.70898
378.05197
382.30367
386.10651
389.13868
392.97236
401.05549
413.26847
430.72969
453.24818
324.90103
347.74786
368.21272
386.89756
404.29156
420.68269
436.2322
451.02797
465.09227
478.33841
490.45839
500.70704
507.74919
502.3935
499.08531
499.01845
501.47595
504.98403
509.04256
513.25875
517.26722
520.72379
523.33421
524.89493
525.36235
524.98188
524.43821
524.89518
527.87373
535.00579
300.53575
301.53355
302.87731
304.49632
306.3398
308.36965
310.55353
312.85901
315.24393
317.63508
319.88267
321.6931
322.7183
323.57732
325.1119
327.03336
329.30416
332.97931
337.46073
342.07751
346.61449
351.68171
358.4634
367.95194
380.18025
394.56227
410.6781
428.51142
448.9529
474.37325
300.01189
300.0449
300.10487
300.19618
300.32203
300.48467
300.68545
300.9245
301.19966
301.50321
301.81344
302.08555
302.46245
305.8302
310.62584
313.89669
315.72162
317.20736
319.10315
322.47143
328.24386
337.0352
348.17182
359.48076
368.97715
377.37002
387.05129
400.39129
418.58834
443.32803
300.00029
300.00136
300.00391
300.00875
300.01685
300.02934
300.04742
300.07245
300.10587
300.14938
300.20689
300.32818
301.4255
316.9892
350.27616
356.92289
359.70048
361.89019
364.18441
366.40425
370.17659
375.02699
380.0715
384.94612
389.41802
393.34861
395.96687
405.90738
420.14132
439.01929
324.90787
347.75606
368.216
386.89042
404.26769
420.63411
436.14941
450.90469
464.93459
478.1941
490.48916
501.31344
509.49003
505.78392
501.6392
499.42442
499.24777
499.92305
500.24651
499.44547
497.17704
493.54056
488.93968
483.82004
478.59744
474.01448
471.48237
473.15145
480.50599
490.99872
300.53588
301.53342
302.87585
304.49201
306.33068
308.35315
310.52654
312.81858
315.18996
317.57985
319.87376
321.8493
323.15512
323.65038
324.38467
325.75749
327.44582
329.21345
331.01263
332.93643
335.19068
338.06124
341.81004
346.55149
352.31322
359.18093
366.84006
375.11232
387.13801
414.65127
300.01189
300.04489
300.10475
300.19579
300.3211
300.48279
300.68205
300.91884
301.19115
301.49276
301.80746
302.09919
302.36317
303.4842
307.61962
312.22603
315.47514
317.87057
320.55763
324.26728
329.55652
336.89954
346.20633
356.70331
367.84949
379.68154
389.7079
397.43914
405.93062
418.96799
300.00029
300.00136
300.0039
300.00872
300.01677
300.02915
300.04702
300.07164
300.10434
300.14649
300.20026
300.28369
300.69981
305.33459
323.22367
346.57071
349.27853
348.72029
347.68409
352.96166
360.58096
368.67382
375.42918
381.52671
387.62789
395.16833
402.20419
409.6364
419.80488
429.29086
324.91244
347.74976
368.17582
386.78705
404.05221
420.22307
435.41065
449.6392
462.83603
474.8094
485.20524
493.43652
498.41025
491.46234
481.0222
469.17159
457.72067
447.41438
438.47536
430.93281
424.71806
419.79468
416.22302
414.0988
413.44984
414.17768
416.13439
419.30151
424.41355
433.67039
300.53594
301.53238
302.87089
304.47875
306.30215
308.29765
310.42459
312.63915
314.88544
317.08712
319.12595
320.81499
321.87408
321.95238
321.47161
321.35925
321.89409
322.95886
324.52386
326.57731
329.12795
332.28305
336.21481
341.04714
346.80413
353.49242
361.18486
369.81227
379.09072
389.81827
300.01189
300.04483
300.10446
300.19492
300.31902
300.47845
300.67368
300.90361
301.16489
301.45009
301.74431
302.01959
302.24271
302.60164
304.30061
308.26434
312.78391
316.76821
320.7532
325.02986
329.81787
335.61198
342.76733
351.17415
360.38957
369.81086
379.07834
387.83341
396.8112
407.38722
300.00028
300.00136
300.00388
300.00866
300.01663
300.02881
300.04629
300.0702
300.10162
300.14154
300.19103
300.25527
300.41283
301.6357
308.05082
321.56484
330.78495
333.65408
340.99813
351.42531
361.73848
370.46348
377.70976
383.843
389.2151
393.97146
398.14262
401.97799
408.65921
418.62089
324.91881
347.71811
368.0885
386.62882
403.80123
419.84436
434.81511
448.64644
461.12367
471.89749
480.48131
486.30926
488.66158
480.51009
469.62301
457.69585
446.89282
438.56852
432.92943
429.45152
427.43707
426.39158
426.06088
426.36501
427.29247
428.87125
431.22439
434.71902
440.3024
449.56044
300.53598
301.5293
302.86193
304.46202
306.27508
308.25505
310.35401
312.51711
314.67747
316.74648
318.60534
320.10428
321.06534
321.23939
320.84913
320.56558
321.1517
322.79984
325.20658
327.97087
330.87791
333.92185
337.16736
340.71605
344.68397
349.18555
354.29307
360.00175
366.44429
375.35651
300.01188
300.04469
300.104
300.19402
300.31764
300.4766
300.67116
300.89982
301.15888
301.44084
301.73287
302.03999
302.35493
302.71531
303.68904
306.14918
311.06885
317.96707
325.59911
332.73801
338.9798
345.11541
351.22597
357.40267
363.45579
369.57337
376.18888
383.29491
390.9287
399.13656
300.00028
300.00136
300.00386
300.00862
300.01657
300.02878
300.04637
300.07053
300.10247
300.14348
300.19562
300.26881
300.4254
301.16412
304.1815
311.30918
321.69841
334.56221
347.89894
360.38736
371.05701
379.26145
385.87053
391.3719
396.14384
400.1778
403.49113
406.41067
409.30789
412.87128
324.9267
347.97616
368.8345
388.10062
406.27351
423.65046
440.33412
456.17511
470.86968
484.37607
496.56598
507.20407
515.77841
515.75573
513.25073
508.30847
501.63357
494.27998
487.20351
481.02321
476.01923
472.24764
469.65225
468.14194
467.62908
468.06119
469.46847
472.04435
476.29815
483.05487
300.53675
301.54908
302.93436
304.63174
306.59833
308.80087
311.20944
314.0251
317.8976
323.11111
330.55654
340.68572
353.69637
367.71194
381.3072
393.23575
402.92734
410.24475
415.24022
418.11128
419.30235
419.43925
419.1438
418.93519
419.22373
420.37617
422.82652
427.2363
434.83358
446.79406
300.01193
300.04564
300.1082
300.20571
300.34338
300.52561
300.75594
301.04235
301.40714
301.87674
302.53076
304.7259
310.44094
320.13024
332.89639
347.43927
361.94473
375.28556
386.73701
395.89814
402.71148
407.45337
410.60463
412.70207
414.24287
415.66418
417.37945
419.8785
424.00284
431.01909
300.00029
300.0014
300.00408
300.00935
300.01847
300.03299
300.05471
300.08594
300.13004
300.19211
300.28482
300.49126
301.15198
304.97712
314.56086
327.66889
341.35388
354.65491
366.97773
377.82671
386.87213
394.04621
399.5352
403.67006
406.81965
409.33151
411.52983
413.76607
416.57049
420.78669
)
;

boundaryField
{
    maxY
    {
        type            zeroGradient;
    }
    minX
    {
        type            fixedValue;
        value           uniform 300;
    }
    maxX
    {
        type            inletOutlet;
        inletValue      uniform 300;
        value           nonuniform List<scalar> 
40
(
484.40948
448.04183
431.84183
421.20511
450.82724
378.19724
400.50874
413.57875
437.79879
394.70106
412.71916
423.39655
497.02834
425.45243
429.1046
437.89585
540.49983
495.40697
463.2472
452.59212
534.86712
474.3471
443.1187
438.77053
490.83882
413.77443
418.98722
429.91495
433.13409
390.27742
408.55023
420.67723
449.32683
375.27766
399.2405
413.02239
482.93782
446.60446
430.92805
420.74493
)
;
    }
    minZ
    {
        type            zeroGradient;
    }
    maxZ
    {
        type            zeroGradient;
    }
    topAir_to_rightSolid
    {
        type            compressible::turbulentTemperatureCoupledBaffleMixed;
        refValue        nonuniform List<scalar> 
130
(
753.21522
761.15723
769.46898
777.73625
785.65016
792.97276
799.54225
805.26476
810.07987
813.95086
816.86139
818.81124
819.79428
747.3671
756.66311
766.15995
775.38454
784.01928
791.85703
798.7797
804.73031
809.70038
813.67407
816.64803
818.63118
819.6252
735.63628
748.03182
760.06933
771.20671
781.20133
789.97623
797.53457
803.90159
809.12608
813.25763
816.33637
818.38129
819.40206
718.17765
736.40565
752.51788
766.34829
778.08908
787.99311
796.27819
803.10273
808.61403
812.91727
816.09367
818.1997
819.25642
697.61321
725.43839
746.37123
762.77093
775.95391
786.69726
795.48517
802.61918
808.32356
812.74689
815.99261
818.13476
819.20901
697.78478
725.6201
746.54584
762.92725
776.08281
786.79628
795.55504
802.67274
808.3694
812.78906
816.03444
818.17592
819.24355
718.70656
736.91449
752.99189
766.77117
778.45049
788.2843
796.49964
803.27804
808.76133
813.05368
816.22726
818.32181
819.36466
736.39707
748.75229
760.73964
771.8065
781.71738
790.40393
797.87791
804.17971
809.36006
813.46546
816.51778
818.54083
819.54967
748.22862
757.48524
766.92551
776.08184
784.62302
792.35812
799.18669
805.05965
809.96555
813.89172
816.83017
818.78598
819.76396
754.11357
762.04202
770.2802
778.46599
786.28838
793.51053
799.97828
805.60242
810.3424
814.1605
817.0307
818.94708
819.90654
)
;
        refGradient     uniform 0;
        valueFraction   uniform 0.99967867;
        value           nonuniform List<scalar> 
130
(
753.13178
761.06899
769.37612
777.63914
785.54932
792.86876
799.43569
805.15624
809.97
813.84027
816.75079
818.70148
819.68652
747.26731
756.55863
766.05139
775.27242
783.90408
791.73923
798.65979
804.60883
809.57788
813.55114
816.52536
818.50978
819.50669
735.54399
747.93288
759.96418
771.09595
781.08571
789.8566
797.41183
803.77666
808.99979
813.13075
816.20965
818.25579
819.27944
718.10849
736.33099
752.43798
766.26334
777.99928
787.89872
796.17955
803.00029
808.50845
812.80973
815.98591
818.09318
819.15288
697.55204
725.36956
746.29703
762.69275
775.87264
786.61342
795.39909
802.53106
808.23362
812.65551
815.90051
818.04308
819.11946
697.72283
725.55051
746.47088
762.84832
776.00077
786.71163
795.46807
802.58362
808.27833
812.69638
815.94085
818.08259
819.15217
718.63627
736.83845
752.91044
766.68456
778.35896
788.18812
796.39916
803.17369
808.65371
812.94382
816.11686
818.21319
819.25909
736.30422
748.6526
760.63368
771.69498
781.60109
790.28369
797.75458
804.05413
809.23304
813.33773
816.39006
818.41407
819.42551
748.12912
757.38096
766.81708
775.96981
784.50791
792.24042
799.06689
804.93825
809.84306
813.76871
816.7073
818.66425
819.64493
754.03008
761.95371
770.18726
778.36881
786.18748
793.40647
799.87165
805.49382
810.23241
814.04972
816.91982
818.83694
819.79826
)
;
        Tnbr            T;
        thicknessLayers List<scalar> 0();
        kappaLayers     List<scalar> 0();
        kappaMethod     fluidThermo;
        kappa           none;
        alphaAni        none;
        alpha           none;
        field           T;
    }
    topAir_to_heater
    {
        type            compressible::turbulentTemperatureCoupledBaffleMixed;
        refValue        nonuniform List<scalar> 
40
(
734.17897
736.27536
740.35377
746.14219
724.753
727.21372
732.03185
738.93546
705.00039
708.15694
714.53874
723.95592
672.92015
676.8805
685.45781
699.31131
626.08034
629.70938
639.20417
658.36901
626.2223
629.85542
639.35515
658.52475
673.38995
677.38439
685.98226
699.844
705.7519
708.92911
715.32689
724.73633
725.62272
728.05717
732.88927
739.79186
735.10041
737.12069
741.17162
746.98366
)
;
        refGradient     uniform 0;
        valueFraction   uniform 0.99967867;
        value           nonuniform List<scalar> 
40
(
734.10864
736.20351
740.27898
746.06339
724.67409
727.13035
731.94302
738.84096
704.93107
708.08326
714.45949
723.87036
672.86574
676.82385
685.39823
699.24768
626.04033
629.66772
639.15996
658.31936
626.18251
629.8134
639.31006
658.47428
673.3361
677.32793
685.92233
699.77955
705.68305
708.85588
715.2478
724.65054
725.54396
727.97413
732.80085
739.69775
735.02993
737.04876
741.0968
746.90483
)
;
        Tnbr            T;
        thicknessLayers List<scalar> 0();
        kappaLayers     List<scalar> 0();
        kappaMethod     fluidThermo;
        kappa           none;
        alphaAni        none;
        alpha           none;
        field           T;
    }
    topAir_to_leftSolid
    {
        type            compressible::turbulentTemperatureCoupledBaffleMixed;
        refValue        nonuniform List<scalar> 
130
(
912.16568
912.12611
912.03799
911.89604
911.69586
911.4348
911.11767
910.79245
910.47056
910.15261
909.86951
909.64939
909.50429
912.20904
912.16769
912.07687
911.9313
911.72942
911.47238
911.17487
910.87107
910.55528
910.23086
909.93463
909.68618
909.51774
912.2887
912.24388
912.14511
911.98771
911.7728
911.51639
911.23318
910.9269
910.59937
910.27078
909.9823
909.7487
909.59343
912.40657
912.35779
912.24804
912.06626
911.83031
911.57113
911.28765
910.98211
910.65749
910.34144
910.05249
909.80811
909.65211
912.55339
912.50032
912.38008
912.18721
911.94895
911.68708
911.39348
911.07417
910.74887
910.42584
910.10259
909.78617
909.58714
912.70927
912.65174
912.52219
912.3247
912.08241
911.81911
911.52082
911.19226
910.86405
910.53711
910.21531
909.93404
909.75411
912.8574
912.79546
912.65642
912.45
912.19991
911.93094
911.63759
911.33906
911.0298
910.73611
910.47342
910.24319
910.08814
912.96485
912.90518
912.77173
912.5837
912.34329
912.09484
911.83866
911.58945
911.34609
911.11449
910.90685
910.7325
910.6245
913.0437
912.98945
912.87049
912.70559
912.50127
912.30248
912.10651
911.91199
911.73119
911.54909
911.37066
911.21553
911.12144
913.08427
913.03275
912.91945
912.76982
912.60486
912.43716
912.26849
912.10545
911.94837
911.79424
911.65046
911.53107
911.4564
)
;
        refGradient     uniform 0;
        valueFraction   uniform 0.99967867;
        value           nonuniform List<scalar> 
130
(
911.97697
911.94482
911.86341
911.72769
911.5334
911.278
910.96632
910.64629
910.32921
910.0157
909.7366
909.51997
909.37765
912.02032
911.98629
911.90204
911.76247
911.56616
911.31435
911.02173
910.72247
910.41078
910.08992
909.79652
909.54998
909.38225
912.09995
912.06248
911.9703
911.81891
911.60962
911.35849
911.08023
910.77862
910.45542
910.13076
909.84566
909.61467
909.46082
912.21779
912.17636
912.07321
911.89749
911.66719
911.41335
911.13494
910.83423
910.5142
910.20248
909.91749
909.6765
909.5229
912.36456
912.31885
912.20522
912.01842
911.78582
911.5293
911.24078
910.92632
910.60563
910.28693
909.96759
909.65437
909.45745
912.52039
912.47022
912.34729
912.15587
911.91924
911.6613
911.3681
911.04439
910.72081
910.39824
910.08044
909.80254
909.62494
912.66847
912.6139
912.48148
912.28112
912.03669
911.77307
911.48481
911.19111
910.88645
910.59712
910.33847
910.11179
909.95942
912.77589
912.72358
912.59674
912.41475
912.17996
911.93678
911.68557
911.44101
911.20197
910.97429
910.77006
910.59841
910.49205
912.85472
912.80782
912.69544
912.53654
912.33781
912.14424
911.95315
911.76313
911.58639
911.40782
911.2322
911.07899
910.9857
912.89528
912.85119
912.74462
912.60123
912.44217
912.2801
912.11685
911.95895
911.80664
911.6569
911.51708
911.40115
911.32926
)
;
        Tnbr            T;
        thicknessLayers List<scalar> 0();
        kappaLayers     List<scalar> 0();
        kappaMethod     fluidThermo;
        kappa           none;
        alphaAni        none;
        alpha           none;
        field           T;
    }
}


// ************************************************************************* //
