/*--------------------------------*- C++ -*----------------------------------*\
| =========                 |                                                 |
| \\      /  F ield         | OpenFOAM: The Open Source CFD Toolbox           |
|  \\    /   O peration     | Version:  v2012                                 |
|   \\  /    A nd           | Website:  www.openfoam.com                      |
|    \\/     M anipulation  |                                                 |
\*---------------------------------------------------------------------------*/
FoamFile
{
    version     2.0;
    format      ascii;
    class       volVectorField;
    location    "530/topAir";
    object      U;
}
// * * * * * * * * * * * * * * * * * * * * * * * * * * * * * * * * * * * * * //

dimensions      [0 1 -1 0 0 0 0];


internalField   nonuniform List<vector> 
1200
(
(0.10456114 -0.0024488637 0.00087797435)
(0.11822152 -0.0025314274 0.0013180376)
(0.12995213 -0.0023159682 0.0013990118)
(0.13910155 -0.0017634778 0.0012612447)
(0.1470866 -0.00093713029 0.00091862096)
(0.15454516 -8.7089578e-06 0.00033026745)
(0.16173216 0.00092221922 -0.00053479059)
(0.16891519 0.0017857406 -0.0018241553)
(0.17628149 0.0026775807 -0.0038062556)
(0.18413318 0.0037764651 -0.0067914958)
(0.19265716 0.0053995344 -0.011178651)
(0.2015728 0.007909352 -0.017379655)
(0.20944607 0.011694772 -0.025655454)
(0.21473993 0.016206122 -0.035840738)
(0.21741676 0.021306012 -0.047126309)
(0.21793205 0.026297038 -0.058298918)
(0.21640887 0.030588723 -0.068196832)
(0.21302418 0.033862868 -0.076115009)
(0.20832305 0.035980183 -0.081864522)
(0.20318935 0.036923093 -0.085607913)
(0.19855882 0.036843343 -0.087658881)
(0.19509608 0.036018941 -0.088345119)
(0.19306105 0.034733811 -0.08794356)
(0.19237011 0.033221662 -0.086664177)
(0.19269782 0.031677116 -0.084635238)
(0.19346872 0.030336946 -0.081846458)
(0.19364052 0.029595419 -0.078071471)
(0.1912576 0.030251264 -0.072780792)
(0.18285576 0.034236217 -0.065047922)
(0.14102915 0.047569842 -0.052912097)
(0.098690101 -0.0038767116 0.00084996831)
(0.098457777 -0.0046933817 0.0012830668)
(0.098871055 -0.0047466856 0.001465632)
(0.099739504 -0.0042830217 0.0015493237)
(0.10114503 -0.0034928372 0.0015611235)
(0.10311827 -0.0026241719 0.0014861488)
(0.10563841 -0.0018392332 0.0012996749)
(0.10884545 -0.0012148956 0.00094541856)
(0.11323832 -0.00042643676 0.0003010035)
(0.11931334 0.00088326725 -0.0007989493)
(0.12799544 0.0035000766 -0.0026561869)
(0.13967127 0.0084224189 -0.0056405573)
(0.15412669 0.016484549 -0.010237284)
(0.16962504 0.02677742 -0.016562945)
(0.18404795 0.038751277 -0.024171832)
(0.19555484 0.051148191 -0.032145222)
(0.20293053 0.062846804 -0.039595621)
(0.20586178 0.072848894 -0.046026631)
(0.20504434 0.080328407 -0.051269879)
(0.20191238 0.084832783 -0.055304425)
(0.19804326 0.086563543 -0.058140351)
(0.19455135 0.086207716 -0.05978814)
(0.191937 0.084510337 -0.060317708)
(0.19028014 0.082051185 -0.059847739)
(0.1894379 0.07921232 -0.058459714)
(0.18907363 0.076388989 -0.056062386)
(0.18848444 0.074296731 -0.05228078)
(0.18635859 0.074435854 -0.046288477)
(0.18136804 0.080032177 -0.036174651)
(0.15339238 0.095896011 -0.017018119)
(0.098819764 -0.0029098226 0.00087691709)
(0.097970226 -0.0042125281 0.00133101)
(0.096331716 -0.004620373 0.0015346232)
(0.094271755 -0.0047102765 0.001658049)
(0.092255054 -0.004672295 0.0017534881)
(0.090462254 -0.0045930754 0.0018327915)
(0.088881285 -0.0045752213 0.0019131075)
(0.087442121 -0.0046762278 0.0020344016)
(0.086190824 -0.0047178083 0.0022645149)
(0.085428696 -0.0046099887 0.0026422997)
(0.085685294 -0.0041290237 0.0031131971)
(0.088914384 -0.0019317307 0.0033026295)
(0.098248243 0.0047609402 0.0025851578)
(0.11382633 0.017374756 0.00068485448)
(0.13243112 0.034255666 -0.0021283216)
(0.15051495 0.052549032 -0.0050912272)
(0.16508413 0.069458439 -0.0076677218)
(0.17487796 0.083674182 -0.0096718272)
(0.18026793 0.094515572 -0.011347243)
(0.182633 0.10170602 -0.012989955)
(0.18350765 0.10536193 -0.014701879)
(0.18383937 0.10597196 -0.016178417)
(0.18392599 0.10424903 -0.017059759)
(0.18372808 0.10087759 -0.017239015)
(0.18311086 0.09639276 -0.016764261)
(0.18194605 0.091273101 -0.015498986)
(0.18002741 0.086288217 -0.013137511)
(0.1769812 0.083055169 -0.0091707776)
(0.17316688 0.085179188 -0.0026847117)
(0.15619122 0.098701415 0.0096912689)
(0.09686182 -0.001554449 0.00084238434)
(0.094644034 -0.0022956397 0.0012581551)
(0.090924952 -0.002521437 0.001422781)
(0.086367673 -0.0025532214 0.0015050918)
(0.08178994 -0.0024928014 0.001560987)
(0.077435311 -0.0023712357 0.0016062147)
(0.073266196 -0.002228487 0.0016637637)
(0.069185849 -0.0021041384 0.0017773379)
(0.065069641 -0.0020327904 0.0020198441)
(0.060716311 -0.0021790302 0.0024987244)
(0.055735491 -0.0030279578 0.0034216512)
(0.049708721 -0.0047299739 0.0051911387)
(0.042097709 -0.0056800087 0.0084317994)
(0.036934439 -0.00031255823 0.013222039)
(0.042948695 0.01454948 0.018885092)
(0.057742404 0.032118538 0.024999707)
(0.073806738 0.047354219 0.030870675)
(0.08805623 0.059847376 0.036191378)
(0.10023018 0.069524366 0.040498982)
(0.1110086 0.0762828 0.043456405)
(0.12087162 0.080076552 0.045239659)
(0.12979679 0.081065245 0.046066311)
(0.13743634 0.079725009 0.046163836)
(0.14336779 0.076623955 0.045783678)
(0.14734118 0.0722938 0.045153556)
(0.14942738 0.067234741 0.044532788)
(0.15001228 0.062142144 0.044192143)
(0.15005314 0.058285394 0.04406109)
(0.15315909 0.058433445 0.043669505)
(0.1714324 0.068166262 0.043310163)
(0.10582342 -0.0024496283 0.0010110519)
(0.12033872 -0.0025420101 0.0014153837)
(0.13331952 -0.0024159049 0.0014206477)
(0.14380611 -0.0020486443 0.0011961376)
(0.15293551 -0.0015097558 0.00076079314)
(0.16128163 -0.00097839909 7.1922896e-05)
(0.16887283 -0.00059791867 -0.00092819215)
(0.17562656 -0.00044185566 -0.0024025358)
(0.18151261 -0.00057553187 -0.0046053168)
(0.18651509 -0.0010731303 -0.0078174259)
(0.19057536 -0.0020661167 -0.012373498)
(0.19360739 -0.0037047518 -0.018534916)
(0.19505575 -0.0061415748 -0.026267613)
(0.19468144 -0.010052509 -0.034862096)
(0.19411023 -0.014638471 -0.043100129)
(0.19456275 -0.018932223 -0.049999784)
(0.19577016 -0.021924447 -0.055351125)
(0.19672114 -0.023285928 -0.05945365)
(0.19667011 -0.023492253 -0.062561261)
(0.19558762 -0.023315622 -0.064741032)
(0.19401305 -0.023232876 -0.066031908)
(0.19259718 -0.023294981 -0.06649187)
(0.19176264 -0.023409524 -0.066171272)
(0.19165579 -0.023498905 -0.0651176)
(0.19227784 -0.023504729 -0.063354932)
(0.1935822 -0.023266478 -0.060805044)
(0.19540858 -0.022382098 -0.057160424)
(0.19741075 -0.019795403 -0.051826599)
(0.19904611 -0.012095967 -0.044061224)
(0.19050179 0.010960128 -0.034058165)
(0.099979442 -0.0038878335 0.0010640401)
(0.10068707 -0.0047399217 0.0016175325)
(0.1024822 -0.0049308106 0.0018237287)
(0.10490467 -0.0047235043 0.0018772702)
(0.10777332 -0.0043121186 0.0018197215)
(0.11102864 -0.0039458498 0.0016282751)
(0.11458044 -0.0038171591 0.001258931)
(0.11835032 -0.0040434846 0.00063608109)
(0.12233714 -0.0047486045 -0.00035920047)
(0.12650921 -0.0061092483 -0.0018749921)
(0.13088701 -0.0083846855 -0.0040664516)
(0.13557451 -0.01186558 -0.0070839315)
(0.14074126 -0.016882688 -0.010953304)
(0.14634237 -0.024070585 -0.015092129)
(0.15228733 -0.031851182 -0.018474682)
(0.15821921 -0.037927878 -0.020464617)
(0.1635213 -0.040345854 -0.021325093)
(0.16723558 -0.038934434 -0.022171857)
(0.16882464 -0.03523795 -0.023671279)
(0.16862065 -0.031239229 -0.025766226)
(0.16755732 -0.028112012 -0.027999799)
(0.16644482 -0.025888794 -0.02990351)
(0.16555437 -0.024255286 -0.031063374)
(0.16491378 -0.023074894 -0.031160617)
(0.16466668 -0.022510064 -0.029910765)
(0.16523421 -0.022653942 -0.026959486)
(0.1674936 -0.023435019 -0.021745111)
(0.17358664 -0.024306756 -0.013369589)
(0.18956527 -0.023638859 -0.0004279957)
(0.24658747 -0.01480602 0.015067792)
(0.10011964 -0.0029378614 0.0010844638)
(0.10022523 -0.0042653356 0.0016647805)
(0.10003253 -0.0047162829 0.001918221)
(0.09967584 -0.0048834196 0.0020479735)
(0.099367975 -0.0049614826 0.0021134975)
(0.099224103 -0.0050371758 0.002114687)
(0.099257972 -0.00519711 0.0020473566)
(0.099449713 -0.0055392283 0.0019188567)
(0.099791454 -0.0061978208 0.0017500871)
(0.10031356 -0.0074262553 0.0015217449)
(0.10112215 -0.0095688286 0.0010989859)
(0.10241195 -0.013124091 0.00026001477)
(0.10442918 -0.018828086 -0.000940059)
(0.10719417 -0.027276442 -0.0016829131)
(0.11057636 -0.036406468 -0.00049861334)
(0.11423524 -0.042782342 0.0042497775)
(0.11930459 -0.043158918 0.012799528)
(0.12463327 -0.038443949 0.021262159)
(0.12878472 -0.031791529 0.027467822)
(0.13123465 -0.026461162 0.030718926)
(0.13211827 -0.022910351 0.032473223)
(0.13278831 -0.020609743 0.034210052)
(0.13420724 -0.019625417 0.036048201)
(0.13631782 -0.019608299 0.038265819)
(0.13853163 -0.020438603 0.04065366)
(0.13973337 -0.021971632 0.042861424)
(0.14040145 -0.024066293 0.044952305)
(0.14164615 -0.027169402 0.047300257)
(0.14844749 -0.031432786 0.051450537)
(0.17666583 -0.036846142 0.053017511)
(0.098105499 -0.0015813741 0.0010593117)
(0.096784726 -0.0023519367 0.0016206503)
(0.094439907 -0.0026107265 0.0018596894)
(0.091506274 -0.0026882676 0.0019716889)
(0.088556518 -0.0026897309 0.0020156513)
(0.085780595 -0.0026487703 0.001994904)
(0.08317686 -0.0026080443 0.0019104213)
(0.080713385 -0.002623606 0.0017724082)
(0.078345932 -0.0027758696 0.0016058933)
(0.076027918 -0.0032121303 0.0014474708)
(0.073676248 -0.0041991581 0.0013318049)
(0.071089611 -0.0062398675 0.0013007375)
(0.067919223 -0.010118327 0.0012086402)
(0.063768501 -0.016247795 0.00085545586)
(0.058554818 -0.021531847 0.0027500578)
(0.054255119 -0.020607206 0.013941366)
(0.056132032 -0.011303688 0.039677023)
(0.058679085 0.0027056922 0.064140344)
(0.061966624 0.016560301 0.082433005)
(0.067440996 0.027347322 0.095056372)
(0.075480109 0.034115147 0.10260572)
(0.084472137 0.036595144 0.10597012)
(0.092584953 0.036073382 0.10690507)
(0.099160829 0.033569898 0.10610492)
(0.10401747 0.029733826 0.10361916)
(0.10755724 0.02448886 0.09897656)
(0.10976048 0.018540133 0.092855912)
(0.11110773 0.012164852 0.086370093)
(0.11699733 0.0061578454 0.081824638)
(0.14124647 0.0016591477 0.075188376)
(0.10569838 -0.0024702346 0.00036208723)
(0.12001504 -0.0025605144 0.0005976907)
(0.13290528 -0.0024076699 0.00069848163)
(0.14341066 -0.0019917236 0.00070626054)
(0.1526054 -0.0013927854 0.00064541912)
(0.1609802 -0.0007995419 0.00051746329)
(0.16854977 -0.00032474857 0.00029255855)
(0.17529841 1.7362231e-06 -5.1261514e-05)
(0.18124801 0.00015251213 -0.00053047653)
(0.18638285 7.7644305e-05 -0.0011686573)
(0.19065618 -0.00031045073 -0.0019709405)
(0.19400331 -0.0011659451 -0.0028811924)
(0.19586764 -0.002732338 -0.003679711)
(0.19604593 -0.0057860702 -0.0039401867)
(0.19601964 -0.0092986585 -0.0033163153)
(0.19620389 -0.012583365 -0.0022046625)
(0.19569528 -0.015677848 -0.0016172314)
(0.19389853 -0.01892863 -0.0022827469)
(0.19104605 -0.022333175 -0.0042022467)
(0.18765938 -0.025814117 -0.00692428)
(0.18424631 -0.029301479 -0.0099067563)
(0.1812517 -0.032592455 -0.012658697)
(0.17888917 -0.035392326 -0.014810178)
(0.17707881 -0.037482898 -0.016182006)
(0.17562554 -0.038822414 -0.016708595)
(0.17449561 -0.039616371 -0.016215524)
(0.1740812 -0.040142654 -0.014593916)
(0.17556184 -0.039873752 -0.012971492)
(0.18016463 -0.034777277 -0.014680784)
(0.1833796 -0.015926074 -0.021063481)
(0.099856862 -0.0039008335 0.00035600343)
(0.10033232 -0.0047403694 0.00060852481)
(0.10199978 -0.0048886476 0.0007270639)
(0.10440916 -0.0046119078 0.00074712393)
(0.1072965 -0.0041143651 0.00068144358)
(0.11054072 -0.0036502434 0.00051266562)
(0.11402115 -0.0033667224 0.00020651234)
(0.11764538 -0.0033216946 -0.00028026635)
(0.12136618 -0.0035988586 -0.00099881967)
(0.12517834 -0.0043399705 -0.0020325825)
(0.12914029 -0.0057973373 -0.003439426)
(0.13342804 -0.008411923 -0.0052033336)
(0.13839019 -0.01281353 -0.0070906981)
(0.14400938 -0.019461885 -0.0085250919)
(0.14965967 -0.025378893 -0.0094210482)
(0.15398499 -0.028873415 -0.011101558)
(0.15573674 -0.030756696 -0.014858663)
(0.15495333 -0.032629204 -0.020470611)
(0.15270554 -0.034443305 -0.026996999)
(0.14968639 -0.036157386 -0.033380182)
(0.14620169 -0.037990264 -0.038733547)
(0.14251004 -0.039890895 -0.042521639)
(0.13871465 -0.041532876 -0.044531132)
(0.13468922 -0.042691597 -0.044814373)
(0.13024672 -0.043523344 -0.043311839)
(0.12558729 -0.044835039 -0.03927029)
(0.12219985 -0.047467601 -0.032375361)
(0.12501133 -0.050508277 -0.026372639)
(0.14154117 -0.046134412 -0.033430411)
(0.18372918 -0.023036197 -0.05521369)
(0.10000152 -0.0029330769 0.0003605904)
(0.099886096 -0.0042541069 0.00061951194)
(0.09957295 -0.0046847028 0.00075287109)
(0.099213334 -0.0048194937 0.00079270124)
(0.098948942 -0.0048530132 0.00074910126)
(0.098845292 -0.004865173 0.00060334427)
(0.098888813 -0.0049266454 0.00031975734)
(0.099035311 -0.0051171233 -0.00015479025)
(0.099256094 -0.0055609996 -0.00089348677)
(0.09953857 -0.0064639535 -0.0019904053)
(0.099868158 -0.0082278107 -0.0035648753)
(0.1003219 -0.011601629 -0.0057363047)
(0.10123215 -0.017782774 -0.008389244)
(0.10248598 -0.02660614 -0.01082695)
(0.10315816 -0.032558675 -0.012538755)
(0.10184426 -0.033269191 -0.015066252)
(0.097587982 -0.030971372 -0.019521221)
(0.09219842 -0.029996494 -0.023414717)
(0.087464521 -0.03006101 -0.027958096)
(0.082891474 -0.031132911 -0.033242599)
(0.077437804 -0.033299829 -0.037495619)
(0.071358381 -0.036024644 -0.039422068)
(0.065412644 -0.038556613 -0.038831405)
(0.060026089 -0.040627123 -0.03601474)
(0.0554408 -0.042740207 -0.03021475)
(0.053560765 -0.045814386 -0.018884902)
(0.05543875 -0.05057725 -0.0047251711)
(0.0642477 -0.056270102 0.0017556624)
(0.077825158 -0.052858998 -0.022745654)
(0.094068471 -0.023016248 -0.068412654)
(0.097989917 -0.0015764734 0.00035132972)
(0.096451971 -0.0023418725 0.00059875855)
(0.093988786 -0.0025923867 0.00072206213)
(0.091051326 -0.0026595738 0.00075273725)
(0.088142423 -0.0026480336 0.0007006704)
(0.085400628 -0.0025893415 0.00054655011)
(0.082793528 -0.0025231576 0.00025170393)
(0.080258673 -0.0025008712 -0.00024758843)
(0.077732217 -0.0025954589 -0.0010430798)
(0.075082785 -0.0029380421 -0.0022722112)
(0.072018744 -0.0038329029 -0.0042070093)
(0.06798341 -0.005999231 -0.0073831066)
(0.062019585 -0.011171709 -0.012916087)
(0.051902503 -0.019750191 -0.022136821)
(0.035953991 -0.022066253 -0.032504998)
(0.020367829 -0.016115521 -0.037124369)
(0.0083300416 -0.0084900296 -0.02871303)
(0.020086018 -0.0061180962 0.011559244)
(0.022042828 0.0022718071 0.04525761)
(0.027232099 0.010659996 0.065554706)
(0.034464057 0.016327887 0.076776049)
(0.041974264 0.018709664 0.082139407)
(0.048405785 0.018458645 0.083840846)
(0.052862722 0.016082685 0.082829322)
(0.054468282 0.011480938 0.079241866)
(0.053295962 0.0041251184 0.073206642)
(0.051475399 -0.0057387592 0.064218027)
(0.053938166 -0.017492744 0.047683262)
(0.060319038 -0.014455205 -0.0066816238)
(0.13341259 0.022053115 -0.070343516)
(0.10566992 -0.0024717111 0.00019859857)
(0.11990961 -0.0025568962 0.00036054343)
(0.13271496 -0.0023893819 0.00046317699)
(0.14315497 -0.0019432535 0.00050760557)
(0.15231223 -0.0012887896 0.00049966153)
(0.1606906 -0.00060157138 0.00044010897)
(0.16834312 2.0440454e-05 0.00032809001)
(0.17527216 0.00055398168 0.0001695677)
(0.1815329 0.0010005823 -4.1441739e-05)
(0.18722796 0.0013542081 -0.00029376386)
(0.19250481 0.0015643522 -0.00053389436)
(0.19760891 0.0015113394 -0.00059022426)
(0.20240988 0.0010566291 -1.2752721e-05)
(0.20699289 0.00013262788 0.001888681)
(0.21236151 0.00050914545 0.0051386223)
(0.21784135 0.0017786568 0.0091293341)
(0.22211638 0.0029238438 0.013403648)
(0.22486809 0.0034176587 0.017932381)
(0.22650895 0.0030750435 0.022839099)
(0.22736826 0.0018984367 0.028169319)
(0.22768382 7.5395683e-05 0.033877445)
(0.2276061 -0.0021308322 0.039857578)
(0.22707307 -0.0045034168 0.045892072)
(0.22592124 -0.0069261592 0.051555916)
(0.22419925 -0.0091850746 0.056223807)
(0.22220107 -0.010541409 0.059238383)
(0.21993562 -0.0096932682 0.060002362)
(0.21611918 -0.0056542527 0.057512025)
(0.20476894 0.0042729459 0.047132023)
(0.14007532 0.033128995 0.024936187)
(0.099826651 -0.0039025267 0.00019552756)
(0.10020224 -0.0047353764 0.00036442562)
(0.10173965 -0.0048622821 0.00047046262)
(0.10402445 -0.0045413555 0.00050858556)
(0.10679217 -0.0039638995 0.00048031779)
(0.10991023 -0.0033662436 0.00037852735)
(0.11325154 -0.0028742685 0.0001869943)
(0.11671772 -0.0025333642 -0.00011718472)
(0.12027832 -0.0023881967 -0.00056749261)
(0.12398818 -0.0025552215 -0.0011906011)
(0.12804609 -0.0033242456 -0.0019669586)
(0.13292769 -0.0052595056 -0.0027223018)
(0.13942647 -0.0089399106 -0.0029040219)
(0.14775038 -0.012510961 -0.0016457481)
(0.156843 -0.011297279 0.00022191706)
(0.16418785 -0.007651668 0.0011931398)
(0.16894847 -0.0046637234 0.00073732991)
(0.17155433 -0.003645921 -0.00090413409)
(0.17259316 -0.0045858459 -0.0034430263)
(0.17243987 -0.0068061404 -0.0065735271)
(0.17147687 -0.0095907783 -0.0097633)
(0.16990111 -0.012334268 -0.012274252)
(0.16764344 -0.014683682 -0.013485017)
(0.16442484 -0.016755709 -0.013219709)
(0.16041306 -0.01885079 -0.011838864)
(0.15667554 -0.020123611 -0.0107238)
(0.15650812 -0.016939892 -0.012870671)
(0.16122315 -0.0052534009 -0.020499311)
(0.1703025 0.017897434 -0.03375456)
(0.16499204 0.057385059 -0.052181549)
(0.099972414 -0.0029305347 0.00019631674)
(0.099759775 -0.0042484778 0.00036543978)
(0.099313339 -0.0046699692 0.00047457153)
(0.098816018 -0.0047864719 0.00051562443)
(0.0984078 -0.0047885952 0.00048577222)
(0.098137536 -0.004748755 0.00037220453)
(0.097972135 -0.0047273998 0.00014979773)
(0.097845865 -0.0047970016 -0.00021841509)
(0.097700918 -0.0050721663 -0.00079041575)
(0.097493047 -0.0058018793 -0.0016528443)
(0.097258656 -0.0075423492 -0.0028943679)
(0.097389773 -0.011465251 -0.0044785398)
(0.098656994 -0.019366229 -0.0057968428)
(0.10057489 -0.026489226 -0.0051826289)
(0.10434168 -0.023761922 -0.0027727231)
(0.10523787 -0.017884639 -0.0011547224)
(0.10108555 -0.012803892 -0.002456429)
(0.094170591 -0.010230135 -0.0061995806)
(0.085797719 -0.011370877 -0.011616847)
(0.077323407 -0.014962224 -0.017486019)
(0.069087827 -0.019419693 -0.022094384)
(0.060994048 -0.023563816 -0.023731241)
(0.053465251 -0.026677423 -0.021793472)
(0.046526841 -0.028978748 -0.016993471)
(0.041125139 -0.031898788 -0.011142738)
(0.038248388 -0.035166958 -0.010628139)
(0.04531357 -0.031071662 -0.024226208)
(0.064121559 -0.014531477 -0.043399167)
(0.08621276 0.014530101 -0.06433688)
(0.081962355 0.060154824 -0.087306144)
(0.097961364 -0.0015781635 0.00019101611)
(0.09632869 -0.0023456912 0.00035275845)
(0.093734845 -0.0025959671 0.00045414688)
(0.090660099 -0.0026593257 0.00048675691)
(0.087604732 -0.0026391232 0.00044654144)
(0.084686124 -0.0025644924 0.00031818097)
(0.081836574 -0.0024727241 7.0346734e-05)
(0.078948305 -0.0024187164 -0.00034867492)
(0.075867805 -0.0024849713 -0.0010378706)
(0.072291646 -0.0028530817 -0.0021898321)
(0.067612145 -0.0039901805 -0.0041522799)
(0.060531078 -0.0072233151 -0.0076065123)
(0.049229058 -0.015927561 -0.014008451)
(0.027277882 -0.022921795 -0.024244264)
(-0.0020661781 -0.0091811647 -0.030072939)
(-0.023798041 0.0029339807 -0.02464965)
(-0.038499485 0.0044383013 -0.017247348)
(-0.042921303 0.0026490282 -0.0054232525)
(-0.033074569 0.00016300555 0.014719243)
(-0.024844778 0.00050402234 0.030003524)
(-0.01553362 0.00085007267 0.038924134)
(-0.007618424 0.00017387374 0.043345242)
(-0.0019513508 -0.0015099901 0.045067161)
(0.00054560631 -0.0045423531 0.045141759)
(-0.00067905523 -0.010927475 0.042521765)
(-0.011854914 -0.020519678 0.023859551)
(-0.023848228 -0.019730985 -0.017354255)
(-0.02269038 0.0029779414 -0.058948737)
(0.011313393 0.034240673 -0.090030784)
(0.065235151 0.074121573 -0.11716539)
(0.10565461 -0.0024756425 5.948216e-05)
(0.11985512 -0.0025632918 0.00010951784)
(0.13261235 -0.0023970262 0.00014350359)
(0.14300762 -0.0019502902 0.00016091703)
(0.15212555 -0.001292639 0.00016389046)
(0.16046419 -0.0006005577 0.00015353368)
(0.16806713 2.5674099e-05 0.00012893635)
(0.17493201 0.00056184717 8.7424683e-05)
(0.18112095 0.0010016415 2.563195e-05)
(0.18673585 0.00130957 -5.7090557e-05)
(0.1919676 0.0013969095 -0.00016320528)
(0.19727479 0.0011003672 -0.00027910636)
(0.20291561 0.00048347302 -0.00034759527)
(0.20916994 0.00032731251 -0.00027962325)
(0.21604524 0.0013249218 -5.838187e-06)
(0.22266655 0.0025955556 0.00035138008)
(0.22807379 0.004013119 0.00069359092)
(0.23282464 0.0058324092 0.0011353273)
(0.23751815 0.0081678442 0.0018113207)
(0.24252988 0.010960455 0.0028691241)
(0.24799264 0.014136495 0.0045288833)
(0.25362917 0.017706447 0.007064739)
(0.25864962 0.021617266 0.010732456)
(0.26197885 0.025642121 0.015603487)
(0.26259146 0.029538843 0.021314588)
(0.2593932 0.033467675 0.026964884)
(0.25054729 0.03809737 0.031173892)
(0.23289306 0.044342199 0.032288105)
(0.20276697 0.054215452 0.027641583)
(0.10344229 0.076400136 0.015336318)
(0.099808555 -0.0039068468 5.433599e-05)
(0.10013101 -0.0047420711 0.00010137854)
(0.10159724 -0.0048687549 0.00013094944)
(0.10380972 -0.0045441335 0.00014073764)
(0.10650415 -0.0039590268 0.00013142612)
(0.10953785 -0.0033514604 0.00010167988)
(0.11277494 -0.0028512357 4.7610777e-05)
(0.11611076 -0.0025074498 -3.7478763e-05)
(0.11950841 -0.0023878722 -0.00016365872)
(0.12304599 -0.0026761416 -0.00034435801)
(0.12704486 -0.0037880339 -0.00058911706)
(0.13234023 -0.0064582096 -0.00088563845)
(0.13999008 -0.01059894 -0.0011685445)
(0.15015896 -0.010036431 -0.0011749037)
(0.15969586 -0.005900048 -0.0010078622)
(0.1671175 -0.0017897935 -0.001178744)
(0.17387553 0.0014724539 -0.0017039517)
(0.18038199 0.0042435667 -0.0024195045)
(0.18700939 0.0070023548 -0.0031906164)
(0.19435203 0.01009544 -0.004051415)
(0.20293723 0.014188592 -0.0048475533)
(0.21281426 0.020138209 -0.0050995209)
(0.22324543 0.028377877 -0.004214989)
(0.23305653 0.038418257 -0.0019213665)
(0.24108363 0.049365059 0.0013885908)
(0.24577306 0.061201405 0.0049118534)
(0.24400876 0.074473621 0.0072604621)
(0.23136664 0.08911478 0.0071764239)
(0.20629637 0.10666185 0.0025891565)
(0.12053854 0.13353606 -0.009956651)
(0.09995414 -0.0029310849 5.376012e-05)
(0.099687794 -0.0042500576 9.9819749e-05)
(0.09916574 -0.0046710401 0.00012884606)
(0.098585036 -0.0047850326 0.00013760527)
(0.098083667 -0.004783355 0.00012533478)
(0.097696805 -0.0047400436 8.8924906e-05)
(0.097377282 -0.0047189987 2.2858838e-05)
(0.097033551 -0.0047981602 -8.295868e-05)
(0.096559574 -0.0051302159 -0.00024755278)
(0.095870406 -0.0060585954 -0.00049985728)
(0.095067008 -0.0083858989 -0.00087995217)
(0.095126084 -0.013866384 -0.0014463802)
(0.096399258 -0.024658809 -0.0023749293)
(0.10090863 -0.022710144 -0.0031882079)
(0.10571169 -0.016006488 -0.0024709021)
(0.10550456 -0.0098014195 -0.0025233494)
(0.10288942 -0.0040212127 -0.0033172185)
(0.098709276 0.0011235166 -0.0047111712)
(0.095023892 0.0043885547 -0.0069090686)
(0.092195251 0.0053392677 -0.0099732578)
(0.088471907 0.0046910057 -0.012897152)
(0.086910093 0.0044811937 -0.014499956)
(0.092331748 0.0073526413 -0.013980723)
(0.1072699 0.015103959 -0.011480781)
(0.12786778 0.02760037 -0.0071849262)
(0.1480794 0.04344607 -0.0030277484)
(0.16207172 0.060712712 -0.0016327705)
(0.16391872 0.079958518 -0.004312903)
(0.15492093 0.10410427 -0.011175181)
(0.095303638 0.13868296 -0.022942227)
(0.097943181 -0.0015781243 5.2115133e-05)
(0.096257146 -0.0023456537 9.5729517e-05)
(0.093587106 -0.002595219 0.00012196288)
(0.090425298 -0.0026571461 0.00012734786)
(0.087267879 -0.0026353357 0.00011052538)
(0.08421406 -0.0025599807 6.7464876e-05)
(0.081176086 -0.0024706026 -7.6440325e-06)
(0.077989457 -0.0024249654 -0.00012784994)
(0.074377518 -0.0025315912 -0.0003224337)
(0.06981641 -0.0030463428 -0.0006423581)
(0.06320438 -0.0046858978 -0.0011873436)
(0.052051509 -0.0097239767 -0.0022174983)
(0.034196814 -0.023481029 -0.0047699891)
(-0.014228603 -0.009576214 -0.013605325)
(-0.041071492 0.0047038242 -0.013369367)
(-0.060641926 0.0065018361 -0.0092348932)
(-0.074842624 0.0057478716 -0.0051384606)
(-0.082603868 0.0024334758 0.00021745817)
(-0.084167719 -0.0023975602 0.0062229744)
(-0.079779149 -0.0071711215 0.01204571)
(-0.07099469 -0.01130901 0.01580696)
(-0.061813834 -0.014874107 0.018424341)
(-0.052164108 -0.01718068 0.020640114)
(-0.041021475 -0.016655236 0.022508714)
(-0.024712679 -0.010544117 0.022545081)
(-0.0048163934 0.0053063413 0.016305797)
(0.024875273 0.036087354 0.0070671112)
(0.027983832 0.055726937 -0.0043029828)
(0.034295127 0.082704151 -0.022524709)
(0.030221977 0.11947627 -0.046806586)
(0.10565629 -0.0024757494 -4.4439241e-05)
(0.11986032 -0.0025628733 -7.2909864e-05)
(0.13262153 -0.0023959563 -7.6305448e-05)
(0.14302198 -0.0019483903 -5.5094577e-05)
(0.15214793 -0.0012895664 -1.1493323e-05)
(0.16050028 -0.00059543176 5.4491793e-05)
(0.16812772 3.5364956e-05 0.00014596161)
(0.17503012 0.00057847327 0.00026801422)
(0.18126622 0.0010319659 0.00042747438)
(0.18693643 0.0013761616 0.00062346309)
(0.19220042 0.0015460634 0.00083284364)
(0.19736757 0.0014005998 0.00095063693)
(0.20237489 0.00082794585 0.00066658464)
(0.20743772 -1.7194698e-05 -0.00048938398)
(0.21343267 0.00058873588 -0.0023166984)
(0.21943237 0.0018500851 -0.0042066446)
(0.22443324 0.0030314611 -0.0059604069)
(0.22820762 0.0042066435 -0.0078983335)
(0.23150239 0.0055173195 -0.010458795)
(0.23501718 0.0067223727 -0.013928687)
(0.2393361 0.0077142507 -0.018450533)
(0.2446481 0.008773593 -0.024041218)
(0.25044265 0.010358263 -0.030541605)
(0.25552518 0.012625963 -0.03756426)
(0.25847434 0.015283609 -0.044456338)
(0.25787666 0.018499931 -0.050213997)
(0.2519117 0.02282778 -0.053358091)
(0.23764829 0.029637053 -0.05192546)
(0.2114246 0.041507787 -0.043487224)
(0.11940642 0.067607492 -0.026411366)
(0.099808672 -0.0039069127 -4.7449811e-05)
(0.10013191 -0.0047413763 -8.1139815e-05)
(0.10160031 -0.004866974 -8.6348387e-05)
(0.10381725 -0.0045407606 -6.022371e-05)
(0.10652018 -0.0039530169 -2.8056265e-06)
(0.10957007 -0.003340252 8.8777395e-05)
(0.11283304 -0.0028278894 0.00022088331)
(0.1162038 -0.0024618924 0.00040220184)
(0.11964371 -0.0022933369 0.00064481478)
(0.1232111 -0.0024620472 0.00094987586)
(0.12714484 -0.0032997263 0.0012740946)
(0.1320431 -0.0054510316 0.0014456805)
(0.13891077 -0.0094621879 0.00099442472)
(0.14781662 -0.012089732 -0.00073113762)
(0.15731777 -0.0090845638 -0.0026115915)
(0.16452615 -0.0047981808 -0.003290666)
(0.1696559 -0.001683908 -0.0030417667)
(0.17408165 1.4122238e-05 -0.0025471643)
(0.17821877 0.00045638924 -0.0021665584)
(0.18172842 0.00014232868 -0.001845887)
(0.18494932 -0.00033313512 -0.0015110822)
(0.18879258 -0.00010162625 -0.0014511291)
(0.19444602 0.0020838216 -0.0023038135)
(0.20354411 0.0075962935 -0.0046531186)
(0.21496731 0.016816129 -0.008223321)
(0.22424719 0.028647299 -0.011791458)
(0.2287704 0.042774744 -0.013632268)
(0.22478965 0.059807731 -0.011207703)
(0.21040501 0.082160596 -0.0019190605)
(0.14784894 0.11642777 0.016310745)
(0.099954273 -0.0029309585 -4.7105345e-05)
(0.099688694 -0.0042495111 -8.0065307e-05)
(0.099168973 -0.0046697193 -8.463986e-05)
(0.098593789 -0.0047823139 -5.6155138e-05)
(0.098104234 -0.0047778851 8.3341164e-06)
(0.097742488 -0.004728617 0.00011589478)
(0.097466138 -0.0046924468 0.00027854224)
(0.09719224 -0.0047418675 0.00051684128)
(0.096837241 -0.0050016319 0.00086619583)
(0.096334421 -0.0057464129 0.0013718853)
(0.095720885 -0.007607258 0.0020706436)
(0.095502726 -0.011966046 0.0029013466)
(0.096731663 -0.020983135 0.0033713207)
(0.098032092 -0.026942926 0.0019701166)
(0.10334941 -0.020917537 -0.0012324862)
(0.10259957 -0.014222411 -0.0011769221)
(0.099093266 -0.0084873436 0.00094110371)
(0.093188029 -0.0039279133 0.0039510693)
(0.085723827 -0.002158674 0.0075400952)
(0.076177989 -0.0040983809 0.012089571)
(0.064730576 -0.0088030493 0.016757151)
(0.052603661 -0.013975934 0.019484648)
(0.043041526 -0.017520234 0.018904468)
(0.039910603 -0.018104507 0.01620866)
(0.052504666 -0.012625357 0.014608334)
(0.082562213 0.0014685179 0.015313573)
(0.11371717 0.020716789 0.017591501)
(0.13147716 0.044346092 0.024014055)
(0.13977883 0.074456993 0.03613981)
(0.11452821 0.11532327 0.05250231)
(0.097943376 -0.0015780454 -4.5620773e-05)
(0.09625833 -0.0023454 -7.6532344e-05)
(0.093591138 -0.0025946203 -7.8623251e-05)
(0.090436136 -0.0026559207 -4.6493597e-05)
(0.08729388 -0.0026329037 2.4407533e-05)
(0.084275151 -0.0025547873 0.00014430252)
(0.081299622 -0.0024574433 0.00033053152)
(0.078227342 -0.0023959541 0.00061724766)
(0.074854579 -0.0024599134 0.0010776437)
(0.070800624 -0.0028502754 0.0018469391)
(0.065282263 -0.0041004382 0.0031940985)
(0.056557466 -0.0077971602 0.0057054419)
(0.042528661 -0.017995079 0.01076839)
(0.011139539 -0.023394218 0.019018901)
(-0.033948858 0.00087489056 0.018508189)
(-0.053501604 0.0052786542 0.016104201)
(-0.070892752 0.0062267494 0.015644076)
(-0.080259937 0.0043198506 0.013301137)
(-0.08169303 9.0883119e-05 0.008512415)
(-0.073535421 -0.0048646688 0.00094669121)
(-0.06303448 -0.0088532406 -0.0058749161)
(-0.05295534 -0.012291254 -0.010270011)
(-0.04475489 -0.016308852 -0.012100936)
(-0.038266904 -0.021017813 -0.011780192)
(-0.033103244 -0.023963248 -0.0085185813)
(-0.030571456 -0.019554475 0.002548445)
(-0.015075634 0.0033756251 0.026385549)
(0.0032160884 0.032152764 0.047973833)
(0.021444618 0.062360064 0.07117007)
(0.037858696 0.098406978 0.10163039)
(0.10567487 -0.0024720533 -0.00018596876)
(0.11992465 -0.0025557696 -0.00032984552)
(0.1327404 -0.0023864808 -0.00040699995)
(0.14319176 -0.0019382959 -0.000419981)
(0.15236287 -0.0012814646 -0.00037568475)
(0.16075841 -0.00059158677 -0.00027591825)
(0.16842995 3.3517281e-05 -0.00012268204)
(0.17538367 0.0005741316 8.0009439e-05)
(0.18168372 0.0010372833 0.00033615177)
(0.18741882 0.0014198338 0.00063274365)
(0.1927012 0.0016909275 0.00091530858)
(0.19770009 0.0017633387 0.0010286288)