/*--------------------------------*- C++ -*----------------------------------*\
| =========                 |                                                 |
| \\      /  F ield         | OpenFOAM: The Open Source CFD Toolbox           |
|  \\    /   O peration     | Version:  v2012                                 |
|   \\  /    A nd           | Website:  www.openfoam.com                      |
|    \\/     M anipulation  |                                                 |
\*---------------------------------------------------------------------------*/
FoamFile
{
    version     2.0;
    format      ascii;
    class       volScalarField;
    location    "530/heater";
    object      T;
}
// * * * * * * * * * * * * * * * * * * * * * * * * * * * * * * * * * * * * * //

dimensions      [0 0 0 1 0 0 0];


internalField   nonuniform List<scalar> 
80
(
734.17897
736.27536
740.35377
746.14219
724.753
727.21372
732.03185
738.93546
705.00039
708.15694
714.53874
723.95592
672.92015
676.8805
685.45781
699.31131
345.62395
342.93868
342.96779
345.66138
422.63997
419.31326
419.51577
423.06189
488.5175
485.72556
486.41294
490.11931
544.56056
542.85674
544.74445
549.20925
590.84997
591.07518
595.69207
603.27045
626.08034
629.70938
639.20417
658.36901
345.64445
342.9615
343.00306
345.72013
422.66119
419.36012
419.58195
423.14435
488.56265
485.78581
486.48775
490.19845
544.62978
542.92823
544.82299
549.30294
590.92419
591.15476
595.78244
603.37162
626.2223
629.85542
639.35515
658.52475
673.38995
677.38439
685.98226
699.844
705.7519
708.92911
715.32689
724.73633
725.62272
728.05717
732.88927
739.79186
735.10041
737.12069
741.17162
746.98366
)
;

boundaryField
{
    minY
    {
        type            fixedValue;
        value           uniform 300;
    }
    minZ
    {
        type            zeroGradient;
    }
    maxZ
    {
        type            zeroGradient;
    }
    heater_to_topAir
    {
        type            compressible::turbulentTemperatureCoupledBaffleMixed;
        refValue        nonuniform List<scalar> 
40
(
515.29246
512.66729
507.61737
500.89982
479.19896
467.76748
455.57194
444.84989
489.27296
478.87233
467.91109
457.68925
503.62184
500.62255
500.0676
501.29888
501.55954
500.05772
501.61252
503.87084
502.3935
499.08531
499.01845
501.47595
505.78392
501.6392
499.42442
499.24777
491.46234
481.0222
469.17159
457.72067
480.51009
469.62301
457.69585
446.89282
515.75573
513.25073
508.30847
501.63357
)
;
        refGradient     uniform 0;
        valueFraction   nonuniform List<scalar> 
40
(
0.00032132529
0.00032132529
0.00032132529
0.00032132529
0.00032132529
0.00032132529
0.00032132529
0.00032132529
0.00032132529
0.00032132529
0.00032132529
0.00032132529
0.00032132529
0.00032132529
0.00032132529
0.00032132529
0.00032132529
0.00032132529
0.00032132529
0.00032132529
0.00032132529
0.00032132529
0.00032132529
0.00032132529
0.00032132529
0.00032132529
0.00032132529
0.00032132529
0.00032132529
0.00032132529
0.00032132529
0.00032132529
0.00032132529
0.00032132529
0.00032132529
0.00032132529
0.00032132529
0.00032132529
0.00032132529
0.00032132529
)
;
        value           nonuniform List<scalar> 
40
(
734.10864
736.20351
740.27899
746.06339
724.67409
727.13035
731.94302
738.84096
704.93107
708.08327
714.4595
723.87037
672.86575
676.82386
685.39824
699.24769
626.04033
629.66772
639.15996
658.31936
626.18251
629.8134
639.31006
658.47428
673.33609
677.32792
685.92232
699.77954
705.68305
708.85587
715.24779
724.65053
725.54396
727.97413
732.80085
739.69774
735.02993
737.04876
741.0968
746.90483
)
;
        Tnbr            T;
        thicknessLayers List<scalar> 0();
        kappaLayers     List<scalar> 0();
        kappaMethod     solidThermo;
        kappa           none;
        alphaAni        none;
        alpha           none;
        field           T;
    }
    heater_to_rightSolid
    {
        type            compressible::turbulentTemperatureCoupledBaffleMixed;
        refValue        nonuniform List<scalar> 10(753.21522 747.3671 735.63628 718.17765 697.61321 697.78478 718.70656 736.39707 748.22862 754.11357);
        refGradient     uniform 0;
        valueFraction   nonuniform List<scalar> 10(0.49999997 0.49999997 0.49999997 0.49999997 0.49999997 0.49999997 0.49999997 0.49999997 0.49999997 0.49999997);
        value           nonuniform List<scalar> 10(749.6787 743.15128 729.7961 708.74448 677.99111 678.15476 709.27528 730.5667 744.01024 750.54862);
        Tnbr            T;
        thicknessLayers List<scalar> 0();
        kappaLayers     List<scalar> 0();
        kappaMethod     solidThermo;
        kappa           none;
        alphaAni        none;
        alpha           none;
        field           T;
    }
    heater_to_leftSolid
    {
        type            compressible::turbulentTemperatureCoupledBaffleMixed;
        refValue        nonuniform List<scalar> 10(909.49837 909.51152 909.5868 909.64496 909.57933 909.74649 910.08143 910.61836 911.11573 911.45083);
        refGradient     uniform 0;
        valueFraction   nonuniform List<scalar> 10(2.0832898e-05 2.0832898e-05 2.0832898e-05 2.0832898e-05 2.0832898e-05 2.0832898e-05 2.0832898e-05 2.0832898e-05 2.0832898e-05 2.0832898e-05);
        value           nonuniform List<scalar> 10(734.18263 724.75685 705.00465 672.92508 626.08625 626.22821 673.39488 705.75617 725.62659 735.10409);
        Tnbr            T;
        thicknessLayers List<scalar> 1(0.001);
        kappaLayers     List<scalar> 1(0.0005);
        kappaMethod     solidThermo;
        kappa           none;
        alphaAni        none;
        alpha           none;
        field           T;
    }
    heater_to_bottomWater
    {
        type            compressible::turbulentTemperatureCoupledBaffleMixed;
        refValue        nonuniform List<scalar> 
92
(
937.44072
935.8248
932.63742
930.18262
934.38478
932.82868
928.11818
927.86272
939.93081
929.0816
924.94516
924.61068
924.52917
922.27961
916.8253
917.14885
928.41632
922.52548
916.5503
919.04383
930.58194
921.30651
918.51587
919.84667
936.45899
923.02455
920.49307
919.31597
939.56351
939.56351
922.51669
922.51669
920.54003
920.54003
920.60817
920.60817
926.40524
914.33133
935.1465
913.87988
931.75704
910.52448
931.12046
911.40853
926.63034
916.26347
926.50258
924.20339
923.46837
923.84003
920.03288
923.82009
928.8677
923.44344
924.92251
926.54938
916.85058
927.07056
924.73031
923.09856
926.11053
928.19331
910.85881
928.93797
928.80647
925.74747
929.86825
926.56547
914.3655
928.7674
928.55179
925.13292
923.13862
925.06202
916.96581
929.10143
925.13292
923.13862
925.06202
929.10143
944.66758
941.59086
940.37215
938.98236
949.96961
942.13011
944.72606
941.47796
960.06013
945.50204
940.30718
941.11849
)
;
        refGradient     uniform 0;
        valueFraction   nonuniform List<scalar> 
92
(
0.0075140686
0.0075140686
0.0075140686
0.0075140686
0.0075140686
0.0075140686
0.0075140686
0.0075140686
0.0075140686
0.0075140686
0.0075140686
0.0075140686
0.0075140686
0.0075140686
0.0075140686
0.0075140686
0.0075140686
0.0075140686
0.0075140686
0.0075140686
0.0075140686
0.0075140686
0.0075140686
0.0075140686
0.0075140686
0.0075140686
0.0075140686
0.0075140686
0.0075140686
0.0075140686
0.0075140686
0.0075140686
0.0075140686
0.0075140686
0.0075140686
0.0075140686
0.0075140679
0.0075140679
0.0075140679
0.0075140679
0.0075140679
0.0075140679
0.0075140679
0.0075140679
0.0075140679
0.0075140679
0.0075140679
0.0075140686
0.0075140686
0.0075140686
0.0075140679
0.0075140686
0.0075140679
0.0075140686
0.0075140686
0.0075140686
0.0075140679
0.0075140686
0.0075140679
0.0075140686
0.0075140686
0.0075140686
0.0075140679
0.0075140686
0.0075140679
0.0075140686
0.0075140686
0.0075140686
0.0075140679
0.0075140686
0.0075140679
0.0075140686
0.0075140686
0.0075140686
0.0075140679
0.0075140686
0.0075140686
0.0075140686
0.0075140686
0.0075140686
0.0075140686
0.0075140686
0.0075140686
0.0075140686
0.0075140686
0.0075140686
0.0075140686
0.0075140686
0.0075140686
0.0075140686
0.0075140686
0.0075140686
)
;
        value           nonuniform List<scalar> 
92
(
735.7063
737.77479
741.7986
747.52508
726.32818
728.75873
733.50526
740.35507
706.76567
709.81699
716.11975
725.46366
349.97388
347.29189
347.2798
349.95557
426.44041
423.09443
423.25052
426.78873
491.8392
488.99854
489.65979
493.34831
547.50531
545.71335
547.56785
551.99026
674.92373
593.47023
678.72622
593.56566
687.22423
598.133
700.97415
605.65495
349.98798
349.9344
426.49098
426.74993
491.84803
493.27826
547.46519
551.93084
593.37305
605.6223
350.00906
349.99178
347.32347
347.36751
350.03555
350.06401
426.46486
426.4241
423.15895
423.39134
426.85409
426.93088
491.84005
491.82778
489.09444
489.80675
493.35932
493.49517
547.51651
547.49352
545.83572
547.69142
552.04605
552.15426
593.46115
593.43546
593.64931
598.25667
605.72799
605.81918
675.28156
679.23101
687.77873
701.56665
707.54713
710.67734
717.0179
726.34619
727.30848
729.66573
734.48103
741.30734
736.79078
738.68648
742.66794
748.44241
)
;
        Tnbr            T;
        thicknessLayers List<scalar> 0();
        kappaLayers     List<scalar> 0();
        kappaMethod     solidThermo;
        kappa           none;
        alphaAni        none;
        alpha           none;
        field           T;
    }
}


// ************************************************************************* //
