/*--------------------------------*- C++ -*----------------------------------*\
| =========                 |                                                 |
| \\      /  F ield         | OpenFOAM: The Open Source CFD Toolbox           |
|  \\    /   O peration     | Version:  v2012                                 |
|   \\  /    A nd           | Website:  www.openfoam.com                      |
|    \\/     M anipulation  |                                                 |
\*---------------------------------------------------------------------------*/
FoamFile
{
    version     2.0;
    format      ascii;
    class       volScalarField;
    location    "40";
    object      p;
}
// * * * * * * * * * * * * * * * * * * * * * * * * * * * * * * * * * * * * * //

dimensions      [0 2 -2 0 0 0 0];


internalField   nonuniform List<scalar> 
64000
(
-4.58867e-22
-4.60761e-21
-3.34429e-21
-5.12866e-21
-9.31734e-21
-3.42652e-21
-5.28694e-21
-4.99713e-21
-5.79858e-21
-6.13545e-21
-4.22019e-21
-7.43235e-21
-5.18954e-21
-7.30545e-21
-4.70837e-21
-5.8935e-21
-1.6071e-21
-1.2207e-21
-1.77317e-21
-2.67681e-21
-1.81076e-21
-2.62728e-21
-3.04255e-21
-3.22809e-21
-2.90208e-21
-1.41574e-21
7.98426e-22
-5.69078e-21
-2.75873e-21
-1.92741e-21
-2.06567e-21
-1.21593e-21
-1.52039e-21
-1.029e-21
-1.61439e-21
-5.1552e-21
6.20251e-23
7.08286e-23
-1.25687e-21
-5.88711e-22
-6.91426e-21
-1.18541e-20
-1.16365e-20
-8.68939e-21
-1.15097e-20
-1.17322e-20
-9.73208e-21
-7.1425e-21
-4.73975e-21
-1.12241e-20
-1.19806e-20
-1.16267e-20
-6.29455e-21
-6.57433e-21
-7.58548e-21
-6.89946e-21
-4.36652e-21
1.16367e-21
-1.38835e-21
-6.3937e-21
1.58393e-22
-3.75364e-21
-6.38878e-21
-9.96895e-21
-5.11093e-21
-3.2712e-21
-3.90026e-21
-6.464e-21
-3.35104e-21
-2.69766e-21
4.4877e-22
-8.54432e-22
-5.19069e-21
-3.2164e-21
-7.02606e-22
-1.6506e-21
-5.47495e-22
7.39196e-22
-1.97369e-21
-2.31267e-21
-5.80362e-21
-9.58869e-21
-1.33184e-20
-1.12375e-20
-1.01509e-20
-1.17838e-20
-1.15118e-20
-8.67444e-21
-9.07782e-21
-1.05979e-20
-9.12753e-21
-9.7579e-21
-9.32147e-21
-6.48349e-21
-5.13385e-21
-2.64328e-21
-9.55563e-21
-4.0064e-21
-7.0541e-22
-1.902e-21
-3.65547e-21
-7.15087e-21
-7.1189e-21
-7.44261e-21
-4.25818e-21
-4.82576e-21
-4.61107e-21
-6.50034e-21
-3.78952e-21
-4.25159e-21
-2.07724e-21
-1.18622e-21
-3.44129e-21
-1.08051e-21
-1.60624e-21
-2.22712e-21
2.87256e-22
1.59094e-21
-6.068e-22
-3.38325e-23
-9.46165e-21
-1.00366e-20
-1.1394e-20
-1.49812e-20
-1.25157e-20
-1.54665e-20
-1.50068e-20
-8.22693e-21
-9.87322e-21
-1.15373e-20
-1.10635e-20
-9.87439e-21
-9.70431e-21
-6.30775e-21
-6.83024e-21
-6.10728e-21
-5.31683e-21
-4.96537e-21
5.44925e-22
-1.85559e-21
-5.4092e-21
-6.08135e-21
-1.05452e-20
-8.83716e-21
-9.12104e-21
-1.59401e-21
-4.78817e-21
-3.96223e-21
-4.52426e-21
-5.40702e-21
-1.45099e-21
-1.31165e-21
-2.28335e-21
-1.88163e-21
-2.24481e-21
-1.83841e-21
-1.24197e-21
5.11615e-22
-1.9155e-21
-1.02765e-22
-1.63601e-20
-1.14948e-20
-1.16455e-20
-1.36922e-20
-1.2761e-20
-1.59065e-20
-1.31668e-20
-8.97636e-21
-7.62675e-21
-1.33887e-20
-1.3219e-20
-7.96478e-21
-8.23328e-21
-6.27127e-21
-1.1619e-20
-1.20326e-20
-4.93559e-21
-2.31652e-21
-4.14892e-21
-1.40134e-21
-3.74726e-21
-5.93812e-21
-9.29939e-21
-9.75929e-21
-6.4395e-21
-3.27697e-21
-3.7827e-21
-4.81505e-21
-7.19917e-21
-2.70814e-21
-1.38875e-21
7.33033e-22
-7.09739e-22
-1.50337e-21
-4.55718e-21
-3.32187e-21
-1.03893e-21
-1.21144e-21
8.46399e-25
-6.15276e-22
-1.43242e-20
-1.18879e-20
-1.07047e-20
-1.4609e-20
-1.34645e-20
-1.32477e-20
-1.03451e-20
-1.35745e-20
-1.28756e-20
-1.28157e-20
-1.13808e-20
-8.6021e-21
-9.81345e-21
-6.56392e-21
-9.82613e-21
-1.11898e-20
-5.25803e-21
-3.35666e-21
-2.57277e-21
-4.56273e-21
-2.93614e-21
-4.55142e-21
-9.6799e-21
-9.99271e-21
-9.71893e-21
-2.31969e-21
-4.11077e-21
-2.67785e-21
-5.73314e-21
-4.00837e-21
-4.09031e-21
-2.94259e-21
-1.40951e-21
-1.18543e-21
-2.78646e-21
-9.96198e-22
-2.04983e-21
-7.01035e-22
-1.41912e-22
9.55135e-22
-1.53156e-20
-1.64367e-20
-1.02441e-20
-1.2165e-20
-1.40827e-20
-1.41705e-20
-1.09852e-20
-1.25973e-20
-1.39376e-20
-1.28115e-20
-1.11815e-20
-1.08785e-20
-7.66648e-21
-8.7316e-21
-9.35875e-21
-9.84354e-21
-6.60054e-21
-1.08402e-21
-2.16454e-21
-3.88509e-21
-5.20702e-21
-9.88969e-21
-1.11708e-20
-1.10093e-20
-5.49969e-21
-6.00713e-21
-5.69613e-21
-6.9299e-22
-3.76583e-21
-2.72777e-21
-6.17494e-21
-4.51227e-21
8.01815e-22
-8.28715e-22
-2.4155e-21
-3.36695e-21
-8.86425e-22
-3.67645e-22
-1.79946e-21
-6.56865e-22
-1.54803e-20
-1.56212e-20
-1.24918e-20
-1.11914e-20
-1.3224e-20
-1.33106e-20
-1.16248e-20
-1.82839e-20
-1.57779e-20
-1.32496e-20
-1.037e-20
-9.6747e-21
-8.90685e-21
-1.04673e-20
-8.38999e-21
-9.65744e-21
-5.87325e-21
-2.8243e-21
-5.179e-21
-3.50117e-21
-4.88413e-21
-9.13483e-21
-9.757e-21
-9.51306e-21
-6.45822e-21
-7.85296e-21
-4.38641e-21
-1.32027e-21
-3.9373e-21
-4.86022e-21
-5.33594e-21
-3.9653e-21
-2.4114e-22
-2.31827e-21
-5.08062e-21
-5.12106e-21
-6.64689e-22
4.39579e-23
-4.02927e-22
-1.47535e-21
-2.05567e-20
-1.75472e-20
-1.17553e-20
-1.26453e-20
-1.43433e-20
-1.61755e-20
-1.40641e-20
-1.3332e-20
-1.4292e-20
-1.6702e-20
-9.16396e-21
-9.28085e-21
-1.01839e-20
-1.06422e-20
-1.12621e-20
-9.68927e-21
-4.77634e-21
-6.8682e-22
-6.93159e-21
-8.50446e-21
-3.53713e-21
-8.30293e-21
-1.18543e-20
-7.80705e-21
-4.48533e-21
-6.26494e-21
-7.65348e-21
-5.39506e-21
-2.83381e-21
-6.14765e-21
-3.91934e-21
-2.2152e-21
2.16936e-23
-2.49895e-21
-5.87828e-21
-2.69684e-21
1.10894e-22
-7.77072e-22
-1.22585e-21
-2.26373e-21
-1.33082e-20
-1.37405e-20
-1.31467e-20
-1.21615e-20
-1.62396e-20
-1.66602e-20
-1.40538e-20
-1.36917e-20
-1.46259e-20
-1.49735e-20
-1.3076e-20
-7.27887e-21
-8.80568e-21
-1.22397e-20
-1.18025e-20
-8.54701e-21
-6.73145e-21
-4.62095e-21
-1.97966e-21
-4.67523e-21
-7.33739e-21
-6.46466e-21
-1.06857e-20
-9.26595e-21
-8.27942e-21
-5.76739e-21
-4.27956e-21
-3.56272e-21
-5.46375e-21
-5.09156e-21
-1.9003e-21
-1.65864e-21
-2.25154e-21
-2.29277e-21
-5.22969e-21
-4.98198e-21
-1.91387e-21
-3.55585e-22
-9.36006e-22
-1.55567e-22
-1.14746e-20
-1.45612e-20
-1.41744e-20
-1.67478e-20
-1.40772e-20
-1.59791e-20
-1.90052e-20
-1.2291e-20
-1.50603e-20
-1.63346e-20
-1.14715e-20
-7.10415e-21
-8.40346e-21
-1.12564e-20
-1.11911e-20
-1.19112e-20
-1.00788e-20
-1.53376e-21
8.20737e-22
-3.91682e-21
-1.01643e-20
-1.23364e-20
-9.65506e-21
-1.00159e-20
-9.82204e-21
-5.83757e-21
-8.20715e-22
-2.43086e-21
-4.98492e-21
-8.12044e-21
-2.82689e-21
4.71492e-22
-4.95246e-21
-2.42865e-21
-3.12118e-21
-5.36196e-21
-1.32519e-21
-1.24318e-21
-1.53594e-21
-8.54697e-22
-1.22841e-20
-1.57926e-20
-1.55466e-20
-1.48303e-20
-1.54441e-20
-1.95603e-20
-1.4965e-20
-1.5051e-20
-1.18739e-20
-1.45763e-20
-1.66416e-20
-8.93663e-21
-6.72971e-21
-1.13586e-20
-1.28087e-20
-1.26118e-20
-8.56547e-21
-2.09101e-21
-3.22133e-21
-3.81222e-21
-7.86081e-21
-1.21742e-20
-1.07628e-20
-1.06675e-20
-1.05635e-20
-3.27431e-21
-3.33803e-21
-4.50274e-21
-5.61393e-21
-4.07734e-21
-1.26713e-21
-2.39062e-21
-2.77955e-21
-3.19021e-21
-3.20462e-21
-3.04276e-21
-6.62788e-22
-1.39104e-21
-2.74814e-21
-3.22975e-21
-1.71907e-20
-1.56835e-20
-1.5349e-20
-1.4989e-20
-1.76645e-20
-1.73026e-20
-1.63877e-20
-1.62605e-20
-1.48537e-20
-1.34877e-20
-1.38147e-20
-8.75609e-21
-8.81867e-21
-1.17553e-20
-1.08368e-20
-1.04071e-20
-7.77043e-21
-3.02014e-21
-2.38979e-21
-7.19109e-21
-7.85641e-21
-1.08896e-20
-1.00103e-20
-1.12074e-20
-5.84726e-21
-2.77279e-21
-4.35687e-21
-7.28099e-21
-4.36851e-21
-2.2956e-21
-5.99246e-21
-3.2883e-21
6.25362e-22
-4.99977e-21
-6.3591e-21
-1.67663e-21
-4.39211e-22
-2.20217e-21
-1.36736e-21
-1.74156e-21
-1.99634e-20
-1.95889e-20
-1.55168e-20
-1.74651e-20
-1.43013e-20
-1.46738e-20
-1.64626e-20
-1.45956e-20
-1.26484e-20
-1.61094e-20
-1.23235e-20
-1.02313e-20
-1.17265e-20
-1.1761e-20
-1.11865e-20
-1.04654e-20
-7.09617e-21
-2.08833e-21
-3.0739e-21
-6.27843e-21
-9.53281e-21
-1.11596e-20
-1.21146e-20
-9.3316e-21
-5.37692e-21
4.71738e-22
-1.14882e-21
-6.98528e-21
-7.22071e-21
6.21637e-22
-3.29194e-21
-7.21365e-21
-2.43916e-21
-2.79684e-21
-5.55594e-21
-1.98008e-21
-3.03483e-21
-1.13279e-21
5.4973e-22
-1.68501e-21
-1.34087e-20
-2.02572e-20
-1.91408e-20
-1.57847e-20
-1.27504e-20
-1.6351e-20
-1.9509e-20
-2.0967e-20
-1.46934e-20
-1.11222e-20
-9.77457e-21
-1.39633e-20
-1.29112e-20
-9.73951e-21
-8.40099e-21
-9.99482e-21
-8.34438e-21
-5.60729e-21
-5.27949e-21
-6.75502e-21
-1.15458e-20
-7.13079e-21
-8.72781e-21
-9.64282e-21
-5.63862e-21
-3.28944e-21
-3.21986e-21
-5.48622e-21
-4.188e-21
-1.99719e-21
-1.33527e-21
-3.1741e-21
-3.81321e-21
-1.99342e-21
-3.99942e-21
-2.8133e-21
-5.87058e-22
-1.84342e-21
-1.70847e-21
7.20746e-22
-1.41554e-20
-1.54249e-20
-1.89547e-20
-1.56015e-20
-1.63676e-20
-1.53393e-20
-1.74499e-20
-1.92773e-20
-1.37223e-20
-1.03644e-20
-1.39654e-20
-1.22632e-20
-1.21716e-20
-1.0485e-20
-1.16314e-20
-1.16931e-20
-7.34026e-21
-6.42362e-21
-3.29881e-21
-5.4324e-21
-1.13588e-20
-1.0049e-20
-9.07651e-21
-5.6636e-21
-3.38432e-21
-5.3586e-21
-5.9106e-21
-3.59062e-21
-3.87504e-21
-1.53515e-21
-1.73422e-21
-2.66397e-21
-4.14352e-21
-3.2207e-21
-6.08956e-21
-3.89889e-21
1.16419e-21
3.17871e-23
-1.85331e-21
4.34074e-22
-1.52308e-20
-1.43776e-20
-1.74378e-20
-1.3437e-20
-1.3861e-20
-1.61605e-20
-1.81324e-20
-1.97217e-20
-1.52167e-20
-1.31611e-20
-1.09883e-20
-1.52067e-20
-7.67131e-21
-1.16065e-20
-1.26988e-20
-9.32608e-21
-8.53907e-21
-6.98525e-21
-6.96697e-21
-3.78445e-21
-1.10371e-20
-8.51911e-21
-9.98978e-21
-5.30083e-21
-4.73525e-21
-1.13868e-21
-5.19881e-21
-8.10328e-21
-3.15588e-21
-3.421e-21
8.52192e-23
-4.31032e-21
-4.64134e-21
-1.17776e-21
-1.98695e-21
-2.66965e-21
-1.57805e-21
-1.02115e-21
-6.68993e-22
-1.09626e-21
-1.14162e-20
-1.55969e-20
-1.95374e-20
-1.40371e-20
-1.21585e-20
-1.79626e-20
-1.55894e-20
-1.58789e-20
-1.6105e-20
-1.38287e-20
-1.33598e-20
-1.31386e-20
-9.22087e-21
-1.03386e-20
-1.64732e-20
-1.09357e-20
-8.36715e-21
-2.04043e-21
-5.9587e-21
-7.04907e-21
-1.46909e-20
-8.23047e-21
-5.48479e-21
-4.59463e-21
-3.42115e-21
-5.48711e-21
-6.09057e-21
-6.00228e-21
-3.91168e-21
-3.35769e-21
-2.35787e-21
-1.16631e-21
-2.16651e-21
-4.04264e-22
-8.26613e-22
-3.54601e-21
-2.00431e-21
-2.40371e-21
1.01341e-21
2.1659e-22
-9.69748e-21
-1.24103e-20
-1.61957e-20
-1.60083e-20
-1.49128e-20
-1.49052e-20
-1.54536e-20
-1.47832e-20
-1.55126e-20
-1.40644e-20
-1.38021e-20
-1.27583e-20
-1.025e-20
-7.42329e-21
-1.34921e-20
-1.33163e-20
-9.20057e-21
-7.54471e-21
-1.02598e-20
-9.88011e-21
-1.05802e-20
-1.85786e-21
-4.88296e-21
-5.29368e-21
-3.07414e-21
-4.53637e-21
-6.5661e-21
-4.05937e-21
-2.7898e-21
-3.60399e-21
-5.68552e-21
-1.04897e-21
-1.16075e-21
-1.32728e-21
2.90214e-22
-2.24608e-21
-8.4206e-22
-9.41794e-22
-2.41248e-21
-2.49978e-21
-7.61018e-21
-1.38033e-20
-1.84909e-20
-1.69688e-20
-1.45399e-20
-1.23843e-20
-1.18365e-20
-1.48049e-20
-1.87595e-20
-1.5406e-20
-1.1363e-20
-1.11e-20
-1.18398e-20
-1.07157e-20
-1.22962e-20
-1.12124e-20
-7.52026e-21
-6.73171e-21
-1.32087e-20
-8.5638e-21
-8.81255e-21
-6.65284e-21
-4.62306e-21
-5.42689e-21
-1.9349e-21
-2.0324e-21
-1.0217e-20
-8.75297e-21
-4.92717e-21
-6.00521e-22
-1.47834e-21
-1.0622e-21
-1.77355e-21
-1.07783e-21
-1.5747e-21
-2.27792e-21
-2.75815e-21
-1.59125e-21
-2.7575e-21
-1.94367e-21
-1.16929e-20
-1.51873e-20
-1.66172e-20
-1.49755e-20
-1.06273e-20
-1.36194e-20
-1.39441e-20
-1.27159e-20
-1.5526e-20
-1.53014e-20
-1.56785e-20
-1.38216e-20
-1.02406e-20
-1.38958e-20
-1.23183e-20
-6.17366e-21
-6.93186e-21
-5.28187e-21
-1.18443e-20
-9.20014e-21
-8.07619e-21
-4.91005e-21
-4.95364e-21
-7.71165e-21
-7.22204e-21
-3.60322e-21
-5.41106e-21
-5.24052e-21
-4.46394e-21
-2.3907e-21
-3.53296e-21
-7.62392e-22
-2.99613e-21
3.42458e-23
-1.63684e-21
-4.07224e-21
-2.39847e-21
-2.82655e-21
-2.23636e-21
-2.06663e-21
-1.81626e-20
-1.6317e-20
-1.47374e-20
-1.52297e-20
-1.48541e-20
-1.39351e-20
-1.37697e-20
-1.01483e-20
-1.40896e-20
-1.49565e-20
-1.51025e-20
-1.54485e-20
-1.31265e-20
-1.49081e-20
-1.10188e-20
-8.225e-21
-6.89424e-21
-5.70453e-21
-8.51489e-21
-9.20685e-21
-8.16251e-21
-2.71842e-21
-5.78078e-21
-6.91222e-21
-6.8973e-21
-5.31427e-21
-5.86422e-21
-7.63604e-21
-4.09038e-21
-9.26049e-22
-3.28814e-21
1.8776e-22
2.30484e-22
-1.92966e-21
-4.6678e-21
-6.0404e-21
-1.8074e-21
-2.81895e-21
9.02846e-22
7.94811e-22
-1.79316e-20
-1.93485e-20
-1.42106e-20
-1.47017e-20
-1.54954e-20
-1.67426e-20
-1.31782e-20
-1.05359e-20
-1.59312e-20
-1.16016e-20
-1.53018e-20
-1.57237e-20
-1.28937e-20
-9.62836e-21
-9.73936e-21
-9.1913e-21
-5.5352e-21
-3.37083e-21
-4.76161e-21
-9.31839e-21
-9.94613e-21
-5.37449e-21
-8.67952e-21
-8.0688e-21
-7.4218e-21
-8.42751e-21
-5.63833e-21
-3.91245e-21
-3.12134e-21
-1.48186e-21
-2.76259e-21
-2.04338e-21
-1.01242e-22
-9.53038e-22
-9.14179e-21
-5.50755e-21
-1.96983e-21
-3.18331e-22
-9.77527e-22
-8.6676e-22
-1.41978e-20
-1.52046e-20
-1.78105e-20
-1.38632e-20
-1.45753e-20
-1.6026e-20
-1.5127e-20
-1.50913e-20
-1.19308e-20
-1.28892e-20
-1.55568e-20
-1.55409e-20
-8.37233e-21
-1.30874e-20
-1.32242e-20
-8.08342e-21
-3.4433e-21
-3.58888e-21
-6.8621e-21
-5.31019e-21
-6.48309e-21
-8.51912e-21
-1.21061e-20
-9.15463e-21
-8.27347e-21
-3.40256e-21
-5.66256e-21
-6.95933e-21
-5.99842e-22
-1.60112e-21
-4.61952e-21
-4.21168e-21
4.40771e-22
-5.60906e-21
-8.44693e-21
-5.45112e-21
-3.46109e-21
8.28518e-22
-2.29821e-21
-2.59476e-21
-1.00646e-20
-1.32581e-20
-1.73067e-20
-1.58605e-20
-1.31322e-20
-1.62568e-20
-1.49388e-20
-1.41214e-20
-1.06407e-20
-1.43563e-20
-1.77009e-20
-1.39386e-20
-6.86521e-21
-1.02276e-20
-1.15225e-20
-6.92912e-21
-6.04843e-21
-8.8989e-21
-5.49411e-21
-5.30734e-21
-6.47751e-21
-8.45572e-21
-7.33523e-21
-8.39563e-21
-1.23817e-20
-6.33163e-21
-3.16027e-21
-3.99814e-21
-3.89578e-21
-3.52983e-21
-2.45471e-21
-3.41932e-21
-1.6874e-21
-3.83883e-21
-9.0074e-21
-5.70992e-21
-2.38145e-21
-2.98084e-22
-4.57212e-22
-1.33372e-21
-1.36013e-20
-1.61253e-20
-1.74544e-20
-1.34978e-20
-1.169e-20
-1.44324e-20
-1.50459e-20
-1.73349e-20
-9.01774e-21
-1.16794e-20
-1.87097e-20
-1.53395e-20
-9.21199e-21
-1.04402e-20
-6.56709e-21
-8.2214e-21
-8.35233e-21
-4.88965e-21
-2.76977e-21
-6.53079e-21
-5.97666e-21
-1.00228e-20
-9.95962e-21
-1.19333e-20
-9.1733e-21
-8.31027e-21
-4.73315e-21
-5.70524e-21
-4.35752e-21
-1.31066e-21
-1.93801e-21
-2.50011e-21
-9.10779e-22
-2.28171e-21
-5.79552e-21
-7.71085e-21
-3.6333e-21
-1.02374e-21
-7.97437e-23
-4.17946e-22
-1.12929e-20
-1.38347e-20
-1.55885e-20
-1.87944e-20
-1.34563e-20
-1.56073e-20
-1.4922e-20
-1.21605e-20
-9.52647e-21
-1.2994e-20
-1.77174e-20
-1.38159e-20
-7.15118e-21
-9.15048e-21
-8.47218e-21
-1.11127e-20
-7.47297e-21
-5.16486e-21
-7.83054e-22
-4.15724e-21
-3.16253e-21
-9.91654e-21
-9.38268e-21
-9.61885e-21
-1.01336e-20
-8.52902e-21
-4.07493e-21
-2.03797e-21
-5.44414e-21
-2.61504e-21
-3.77515e-22
-2.97894e-21
-3.60061e-21
-2.51843e-21
-8.17484e-21
-4.24958e-21
-3.83261e-21
-2.43418e-21
-6.56081e-22
-1.51985e-21
-9.75241e-21
-1.39886e-20
-1.48476e-20
-1.6507e-20
-1.39197e-20
-1.47756e-20
-1.35842e-20
-1.19078e-20
-1.10007e-20
-1.24572e-20
-1.74623e-20
-8.04219e-21
-8.99155e-21
-1.08337e-20
-7.55484e-21
-6.94106e-21
-7.87846e-21
-5.59905e-21
-5.01691e-21
-4.88782e-21
-5.03857e-21
-4.23106e-21
-8.77553e-21
-9.75281e-21
-7.2932e-21
-6.06372e-21
-5.29244e-21
-3.8877e-21
-4.32994e-21
-3.00041e-21
-2.78967e-21
-3.55556e-21
-5.9123e-21
-6.24416e-21
-4.69947e-21
-4.03165e-21
-2.48062e-21
-2.81774e-21
-1.72097e-21
-1.75599e-21
-1.26847e-20
-1.84396e-20
-1.50646e-20
-1.11686e-20
-1.84503e-20
-1.59057e-20
-1.32232e-20
-1.03258e-20
-1.05827e-20
-1.22683e-20
-1.37575e-20
-9.2893e-21
-9.31116e-21
-1.10462e-20
-1.03241e-20
-7.59717e-21
-5.33197e-21
-2.14989e-21
-5.14181e-21
-3.3538e-21
-6.6094e-21
-6.05957e-21
-6.55835e-21
-7.81419e-21
-8.90686e-21
-4.45167e-21
-4.7211e-21
-5.79128e-21
-3.15903e-21
-4.82651e-21
-2.12907e-21
-3.79286e-21
-6.21005e-21
-3.86201e-21
-6.34098e-21
-4.45736e-21
-2.45663e-21
-4.44931e-21
-1.21254e-21
-1.00019e-21
-1.12152e-20
-1.5486e-20
-1.7822e-20
-1.22033e-20
-1.30392e-20
-1.80233e-20
-1.42372e-20
-6.74257e-21
-9.68327e-21
-1.61923e-20
-1.16683e-20
-1.14081e-20
-1.20526e-20
-1.04948e-20
-9.31354e-21
-9.07403e-21
-6.01616e-21
-4.8766e-21
-1.79519e-21
-1.16529e-21
-3.53873e-21
-7.84955e-21
-9.37609e-21
-8.7662e-21
-1.11764e-20
-7.16201e-21
-2.25762e-21
2.52621e-22
-2.943e-21
-3.01757e-21
-3.83822e-21
-5.37871e-21
-4.14981e-21
-2.42208e-21
-5.06696e-21
-7.26859e-21
-2.93985e-21
-1.23309e-21
-8.74414e-22
-9.68603e-23
-1.28232e-20
-1.31909e-20
-1.38306e-20
-1.36952e-20
-1.4404e-20
-1.41694e-20
-1.41705e-20
-1.14993e-20
-9.21309e-21
-1.17275e-20
-1.07402e-20
-9.74696e-21
-1.10154e-20
-1.21681e-20
-9.58185e-21
-9.3593e-21
-4.86012e-21
-5.48522e-21
-1.72998e-21
-3.35518e-21
-4.39562e-21
-5.92031e-21
-9.58561e-21
-1.16088e-20
-9.27858e-21
-5.50197e-21
-2.15537e-21
-4.19073e-21
-4.43152e-21
-2.36228e-21
-3.34796e-21
-3.13139e-21
-1.85635e-21
-1.86363e-21
-3.10604e-21
-6.4338e-21
-2.70471e-21
-1.54873e-21
-2.0126e-21
-2.61674e-21
-1.65866e-20
-1.49927e-20
-1.18154e-20
-1.29569e-20
-1.67538e-20
-1.50044e-20
-1.29219e-20
-1.07762e-20
-1.13754e-20
-9.65124e-21
-7.91776e-21
-1.12923e-20
-1.46301e-20
-1.38205e-20
-7.39189e-21
-8.48824e-21
-4.89937e-21
-3.47201e-21
-1.85608e-21
-4.62862e-21
-4.40766e-21
-7.75266e-21
-1.4343e-20
-9.38619e-21
-8.35739e-21
-7.19151e-21
-1.65395e-21
-1.05987e-21
-1.88743e-21
-5.01465e-21
-4.0913e-21
-5.53648e-21
1.2307e-21
-2.1869e-21
-5.73996e-21
-2.20003e-21
-1.89366e-21
-1.54533e-22
-1.66967e-21
-3.26491e-21
-1.05094e-20
-1.16092e-20
-1.31729e-20
-1.14945e-20
-1.80829e-20
-1.47271e-20
-1.2845e-20
-1.29104e-20
-1.14187e-20
-1.03082e-20
-1.05639e-20
-8.84699e-21
-1.23023e-20
-9.88626e-21
-6.49091e-21
-9.03535e-21
-7.8065e-21
-5.30282e-21
-3.73421e-21
-6.87037e-22
-5.33635e-21
-9.5373e-21
-1.01229e-20
-9.25218e-21
-9.34986e-21
-7.48529e-21
1.13115e-21
-7.30599e-22
-4.07426e-21
-3.83868e-21
-3.7632e-21
-4.5984e-21
-3.57234e-22
-1.03425e-21
-1.13501e-21
-4.2236e-21
-1.19072e-21
-2.4328e-21
-8.78504e-22
-1.00997e-21
-1.17469e-20
-1.26716e-20
-1.30684e-20
-1.4053e-20
-1.51414e-20
-1.02726e-20
-1.24837e-20
-1.18634e-20
-1.13114e-20
-8.53694e-21
-8.79071e-21
-1.37648e-20
-1.12566e-20
-8.0985e-21
-8.01607e-21
-1.0998e-20
-9.85397e-21
-3.23743e-21
-4.24365e-21
-4.21535e-21
-3.5396e-21
-5.71315e-21
-1.08589e-20
-9.57717e-21
-7.02944e-21
-5.96531e-21
-2.99447e-21
-2.36008e-21
-1.66758e-21
-4.52511e-21
-4.48506e-21
-4.04141e-21
-9.00756e-22
7.25915e-22
2.88987e-21
-4.41405e-21
-2.2745e-21
9.80638e-22
-2.35424e-21
-3.02403e-21
-1.26439e-20
-1.05141e-20
-1.03478e-20
-1.04204e-20
-1.37317e-20
-1.4137e-20
-1.31652e-20
-1.48861e-20
-1.17207e-20
-9.48999e-21
-5.78873e-21
-1.18332e-20
-6.29047e-21
-6.22489e-21
-8.43454e-21
-1.08838e-20
-1.20082e-20
-5.88462e-21
-3.29593e-21
-3.77288e-21
-3.70832e-21
-8.24767e-21
-8.78805e-21
-7.54489e-21
-8.40343e-21
-4.57498e-21
-3.98612e-21
-7.38912e-21
-1.59309e-21
-3.475e-21
-5.54496e-21
-3.86161e-21
-2.82836e-21
-1.34235e-21
1.49703e-21
2.30525e-21
-1.71281e-21
1.27367e-21
5.51212e-22
-3.30709e-22
-8.20733e-21
-1.06237e-20
-1.24467e-20
-1.00138e-20
-1.09704e-20
-1.35968e-20
-1.0754e-20
-1.18163e-20
-1.20097e-20
-1.24996e-20
-1.17889e-20
-5.29244e-21
-8.35555e-21
-7.31895e-21
-8.44724e-21
-8.54847e-21
-7.92828e-21
-5.73703e-21
-5.80325e-21
-6.07605e-21
-4.23139e-21
-5.70704e-21
-8.54915e-21
-9.31168e-21
-7.3794e-21
-4.11972e-21
-2.05336e-21
-2.61513e-21
-3.36695e-21
-1.3271e-21
-5.57188e-21
-4.43885e-21
-1.8535e-21
-1.85152e-21
-2.47235e-21
-4.66228e-23
1.14391e-21
1.08557e-21
1.45252e-21
-5.8547e-22
-6.99607e-21
-9.56123e-21
-1.11806e-20
-1.19211e-20
-9.50769e-21
-1.18318e-20
-1.1724e-20
-9.60042e-21
-8.97687e-21
-1.05306e-20
-1.01118e-20
-8.18096e-21
-1.087e-20
-4.93179e-21
-7.65451e-21
-8.82334e-21
-6.34378e-21
-1.39013e-21
-3.20413e-21
-9.17881e-21
-3.39785e-21
-9.116e-21
-1.0319e-20
-6.96409e-21
-6.42228e-21
-5.5887e-21
-5.88194e-21
1.00805e-21
-1.3569e-21
-1.34902e-21
-4.98094e-21
-3.43654e-21
-4.10225e-21
-1.72581e-21
-1.05654e-21
-3.1005e-22
1.35683e-21
-1.73817e-21
-7.66249e-22
-1.76967e-22
-4.73676e-21
-9.19033e-21
-1.20007e-20
-7.70781e-21
-7.93777e-21
-1.14613e-20
-9.56452e-21
-9.5717e-21
-9.11184e-21
-9.49409e-21
-6.11879e-21
-9.13158e-21
-9.7746e-21
-9.47638e-21
-4.83958e-21
-3.77877e-21
-4.06759e-21
-4.86311e-21
-4.43274e-21
-8.89179e-21
-6.70619e-21
-7.62569e-21
-1.01037e-20
-1.04124e-20
-2.95437e-21
-3.19836e-21
-4.69158e-21
-3.28982e-21
8.31257e-22
-2.3498e-21
-4.33132e-21
-3.51373e-21
-6.37355e-21
-1.93405e-21
-1.67018e-21
-2.30099e-21
2.03778e-21
3.26484e-21
-7.98566e-22
-8.50481e-22
-5.99371e-21
-8.80996e-21
-9.96249e-21
-6.18655e-21
-5.54089e-21
-1.39254e-20
-1.01259e-20
-5.6026e-21
-9.34718e-21
-9.29129e-21
-6.11358e-21
-6.35046e-21
-7.03577e-21
-7.66673e-21
-7.74487e-21
-5.57809e-21
-4.18293e-21
-1.94394e-21
-5.4903e-21
-6.06506e-21
-3.32611e-21
-5.95079e-21
-7.67633e-21
-1.21806e-20
-8.40475e-21
-4.54486e-21
-4.09696e-21
-7.91717e-22
-2.10209e-21
-2.17182e-21
-1.80984e-21
-3.19664e-21
-3.92541e-21
-1.29116e-21
-8.24201e-22
-4.26186e-21
1.01163e-21
1.76814e-21
-4.46637e-23
1.91646e-22
-5.97497e-21
-5.44458e-21
-6.32031e-21
-3.2958e-21
-4.21271e-21
-2.82831e-21
-8.04884e-21
-4.46367e-21
-6.50877e-21
-6.07965e-21
-2.30593e-21
-2.40504e-21
-5.99379e-21
-5.47254e-21
-3.25604e-21
-4.76853e-21
-1.77262e-21
8.72699e-22
-5.89004e-21
-2.81338e-21
-5.29118e-21
-6.50915e-21
-5.8744e-21
-6.12747e-21
-3.23734e-21
-3.09297e-21
-2.51653e-21
-9.92479e-22
-5.08605e-22
7.2405e-22
-6.50482e-22
-1.16413e-21
-2.4023e-21
-2.08986e-21
4.58018e-22
-3.75211e-21
-1.55128e-21
-1.06638e-21
-1.92223e-21
3.74866e-22
-5.47639e-21
-9.00561e-21
-1.33008e-20
-9.89874e-21
-9.9425e-21
-1.21868e-20
-8.49702e-21
-5.20545e-21
-1.22043e-20
-1.08759e-20
-5.67712e-21
-1.07766e-20
-1.02135e-20
-5.53166e-21
-7.15152e-21
-9.45729e-21
-5.93458e-21
4.6115e-23
-2.44392e-21
-5.9533e-21
-3.40219e-21
-3.66358e-21
-5.08798e-21
-4.74068e-21
-2.34182e-21
-2.02415e-21
-2.92984e-21
-4.11106e-21
-6.09116e-21
-4.57792e-21
-5.32171e-21
-2.52185e-21
-2.54094e-21
-8.30567e-22
-3.45664e-21
-3.89985e-21
5.27716e-22
-3.91261e-21
-1.91258e-21
-3.56701e-22
-1.01536e-20
-1.35151e-20
-1.82061e-20
-1.52341e-20
-1.32648e-20
-1.63346e-20
-1.5113e-20
-1.06582e-20
-1.01988e-20
-1.78876e-20
-1.35531e-20
-1.33578e-20
-1.19064e-20
-9.08148e-21
-1.03354e-20
-9.71577e-21
-7.47228e-21
-5.44172e-21
-7.01775e-21
-6.34298e-21
-5.81891e-21
-6.07896e-21
-7.09973e-21
-1.02137e-20
-3.65429e-21
-4.3184e-21
-4.85587e-21
-4.80261e-21
-9.39366e-21
-4.31545e-21
-3.52059e-21
-2.61767e-21
-3.48221e-21
-2.17217e-21
-5.77682e-21
-3.03544e-21
1.21515e-21
1.67943e-21
7.56161e-23
4.00964e-22
-1.18627e-20
-1.4595e-20
-1.4044e-20
-1.67219e-20
-1.57626e-20
-1.83198e-20
-1.61652e-20
-1.39583e-20
-1.47805e-20
-1.46078e-20
-1.31805e-20
-1.33178e-20
-1.08226e-20
-8.42473e-21
-9.7412e-21
-1.06707e-20
-9.24427e-21
-6.78056e-21
-4.77139e-21
-6.04058e-21
-6.80074e-21
-4.98984e-21
-5.52917e-21
-8.00531e-21
-8.21045e-21
-5.51253e-21
-6.85158e-21
-6.60914e-21
-6.2071e-21
-7.57257e-21
-6.66002e-21
-2.78389e-21
-1.50642e-21
-1.91811e-21
-3.60463e-21
-1.9734e-21
8.5336e-22
-5.75871e-22
-5.36555e-22
4.14236e-22
-1.6872e-20
-1.61716e-20
-1.6704e-20
-1.88426e-20
-1.60221e-20
-1.68567e-20
-1.70001e-20
-1.50288e-20
-1.45465e-20
-1.41746e-20
-1.52759e-20
-1.64503e-20
-9.31482e-21
-9.23658e-21
-1.21908e-20
-1.07426e-20
-8.22025e-21
-7.77006e-21
-5.62827e-21
-3.95184e-21
-8.48936e-21
-8.62809e-21
-8.64365e-21
-9.30302e-21
-7.64906e-21
-6.93782e-21
-6.84688e-21
-6.17952e-21
-5.58781e-21
-8.14234e-21
-4.9718e-21
-6.40392e-22
-4.8653e-21
-2.90498e-21
-3.18717e-21
-1.08201e-21
3.80876e-22
-1.05501e-21
-1.15507e-21
-4.51048e-22
-1.8807e-20
-1.70983e-20
-1.59022e-20
-1.845e-20
-1.94959e-20
-2.00963e-20
-1.62959e-20
-1.43754e-20
-1.19933e-20
-1.55863e-20
-1.47896e-20
-1.55416e-20
-9.46187e-21
-1.13648e-20
-1.57844e-20
-1.45325e-20
-9.4004e-21
-8.1979e-21
-6.39757e-21
-4.87713e-21
-7.62867e-21
-7.92426e-21
-8.78109e-21
-1.01885e-20
-9.48028e-21
-6.33926e-21
-6.52367e-21
-6.98308e-21
-5.73251e-21
-6.01214e-21
-5.76437e-21
-3.8021e-21
-1.69435e-21
-1.35847e-21
-3.01998e-21
-1.61679e-21
3.27162e-22
-7.982e-22
-4.04684e-22
-1.38104e-21
-1.76547e-20
-1.90114e-20
-1.71047e-20
-1.74834e-20
-2.04324e-20
-2.10458e-20
-1.47679e-20
-1.71974e-20
-1.75874e-20
-1.58985e-20
-1.43204e-20
-1.50394e-20
-1.37881e-20
-1.22994e-20
-1.55445e-20
-1.21245e-20
-1.15325e-20
-7.68183e-21
-6.03547e-21
-4.6893e-21
-6.51538e-21
-9.61716e-21
-9.35344e-21
-9.25633e-21
-9.09217e-21
-6.39057e-21
-6.13597e-21
-5.6365e-21
-7.68542e-21
-7.01874e-21
-5.81327e-21
-3.72692e-21
1.4931e-22
-2.10818e-21
-3.14602e-21
-2.55735e-21
7.6217e-23
1.24833e-21
2.37622e-21
-1.88457e-21
-2.17064e-20
-2.29771e-20
-1.90428e-20
-1.86209e-20
-2.10861e-20
-1.95617e-20
-1.77411e-20
-1.684e-20
-1.81665e-20
-1.66903e-20
-1.65035e-20
-1.49623e-20
-1.2641e-20
-1.32822e-20
-1.60855e-20
-1.31617e-20
-8.40008e-21
-5.25502e-21
-7.053e-21
-5.14529e-21
-8.04606e-21
-1.12207e-20
-1.06127e-20
-1.05187e-20
-8.28081e-21
-6.65037e-21
-7.12663e-21
-4.63738e-21
-5.62429e-21
-3.46609e-21
-6.95827e-21
-5.53601e-21
1.77962e-21
6.30881e-23
-3.70162e-21
-4.61218e-21
-9.22523e-22
-3.82028e-22
4.2915e-22
-2.04584e-21
-2.01578e-20
-2.11428e-20
-1.91189e-20
-2.00586e-20
-2.23838e-20
-2.15548e-20
-1.76595e-20
-1.85377e-20
-1.93648e-20
-1.95532e-20
-1.6302e-20
-1.58426e-20
-1.29093e-20
-1.24887e-20
-1.62006e-20
-1.47389e-20
-1.02409e-20
-5.9631e-21
-3.10643e-21
-3.06333e-21
-7.06751e-21
-1.28886e-20
-1.11462e-20
-1.08871e-20
-1.03004e-20
-6.14138e-21
-6.47349e-21
-7.09279e-21
-3.98181e-21
-4.91376e-21
-8.62357e-21
-3.28212e-21
-2.6358e-21
-2.25862e-21
-3.3371e-21
-9.46284e-22
7.23213e-22
6.1791e-22
-1.02657e-21
-7.64294e-23
-2.1568e-20
-2.43777e-20
-2.12254e-20
-2.20745e-20
-2.09011e-20
-2.08443e-20
-1.92326e-20
-1.92103e-20
-1.99925e-20
-1.87723e-20
-1.59119e-20
-1.80729e-20
-1.31517e-20
-1.35521e-20
-1.48515e-20
-1.29466e-20
-1.1108e-20
-6.15486e-21
-6.98955e-21
-7.46226e-21
-5.69421e-21
-1.01546e-20
-1.1053e-20
-1.14697e-20
-9.71292e-21
-7.07702e-21
-6.41159e-21
-6.77686e-21
-2.63106e-21
-7.79341e-21
-6.55102e-21
-3.86397e-21
-1.72374e-21
-1.27195e-21
-1.67458e-21
-2.45691e-22
-9.08027e-23
-3.61392e-22
-4.32382e-22
-4.97861e-22
-1.95348e-20
-2.0688e-20
-1.90863e-20
-2.30055e-20
-2.40532e-20
-2.21449e-20
-2.31976e-20
-2.02561e-20
-1.65461e-20
-1.81845e-20
-1.7411e-20
-1.52898e-20
-1.45281e-20
-1.56983e-20
-1.61687e-20
-1.30511e-20
-1.02089e-20
-6.49183e-21
-6.06571e-21
-4.67849e-21
-8.99077e-21
-1.16819e-20
-1.18177e-20
-1.26141e-20
-9.65589e-21
-7.46365e-21
-5.9253e-21
-5.86017e-21
-5.57032e-21
-7.12974e-21
-3.2532e-21
-2.9349e-21
-3.59619e-21
-2.28846e-21
-2.61332e-21
-4.57079e-22
1.28964e-21
-8.9445e-22
-1.66743e-21
-6.32239e-22
-2.41772e-20
-2.52448e-20
-2.03585e-20
-2.17127e-20
-2.32603e-20
-2.23613e-20
-2.40522e-20
-2.47858e-20
-1.91483e-20
-1.77789e-20
-1.41936e-20
-1.21845e-20
-1.36714e-20
-1.27894e-20
-1.56865e-20
-1.53879e-20
-1.19657e-20
-6.37486e-21
-5.57625e-21
-7.72701e-21
-1.13185e-20
-1.14978e-20
-1.30846e-20
-1.45701e-20
-9.04903e-21
-6.58875e-21
-6.21203e-21
-7.19598e-21
-5.70852e-21
-5.75016e-21
-4.24501e-21
-2.65235e-21
-2.33621e-21
-2.71347e-21
-2.61104e-21
-9.59368e-22
-5.85201e-22
-1.90053e-21
-2.76536e-21
-2.94018e-21
-2.46421e-20
-2.54372e-20
-2.09325e-20
-2.12043e-20
-2.20554e-20
-2.37574e-20
-2.30398e-20
-2.30939e-20
-1.83276e-20
-1.94636e-20
-1.45614e-20
-1.31419e-20
-1.58918e-20
-1.45946e-20
-1.58715e-20
-1.76026e-20
-1.11965e-20
-5.39907e-21
-5.86851e-21
-8.7573e-21
-1.18778e-20
-1.36986e-20
-1.1647e-20
-1.18621e-20
-8.35406e-21
-9.32376e-21
-7.92443e-21
-7.1216e-21
-3.80988e-21
-6.46338e-21
-5.58803e-21
-3.50864e-21
-1.21571e-21
-1.94779e-21
-2.21029e-21
-2.38274e-21
3.3704e-22
-2.3397e-21
-3.84714e-21
-1.13294e-21
-2.6227e-20
-2.58199e-20
-2.12801e-20
-2.22999e-20
-2.27614e-20
-2.53524e-20
-2.22496e-20
-2.11595e-20
-2.01464e-20
-1.84051e-20
-1.42918e-20
-1.61857e-20
-1.60516e-20
-1.50279e-20
-1.5223e-20
-1.39744e-20
-8.86049e-21
-6.82654e-21
-9.42169e-21
-1.19559e-20
-1.02262e-20
-1.03823e-20
-1.16521e-20
-1.37385e-20
-9.07638e-21
-6.30123e-21
-7.58805e-21
-6.38062e-21
-5.39719e-21
-4.18469e-21
-6.54113e-21
-4.38333e-21
-9.95497e-22
-9.0182e-22
-7.79976e-21
-6.02125e-22
1.11761e-21
-4.05225e-21
-3.42221e-21
-1.59412e-22
-2.88526e-20
-2.79408e-20
-2.32937e-20
-2.40163e-20
-2.27973e-20
-2.18896e-20
-2.20429e-20
-2.03831e-20
-1.99099e-20
-2.05881e-20
-1.64123e-20
-1.46034e-20
-1.7685e-20
-1.31379e-20
-1.49096e-20
-1.47222e-20
-1.30566e-20
-8.84152e-21
-7.14684e-21
-8.62508e-21
-1.13488e-20
-1.20579e-20
-1.1315e-20
-1.40316e-20
-7.81266e-21
-5.00208e-21
-4.75379e-21
-6.28416e-21
-6.13216e-21
-3.39876e-21
-6.48754e-21
-4.93591e-21
-1.97572e-21
-2.95017e-21
-5.25354e-21
-1.74601e-21
-1.22602e-21
2.35873e-21
-9.10672e-22
-4.31684e-23
-3.02125e-20
-2.68777e-20
-2.27102e-20
-2.07931e-20
-2.24576e-20
-2.11033e-20
-2.26032e-20
-2.05023e-20
-2.11839e-20
-1.74177e-20
-1.61807e-20
-1.7127e-20
-1.82231e-20
-1.56898e-20
-1.38749e-20
-1.21898e-20
-1.07353e-20
-9.20053e-21
-9.96268e-21
-1.13492e-20
-8.24668e-21
-1.15304e-20
-1.26151e-20
-1.02237e-20
-7.76118e-21
-7.74356e-21
-5.66812e-21
-5.62175e-21
-5.89844e-21
-3.45357e-21
-5.68693e-21
-4.24061e-21
-3.84849e-21
-1.1181e-21
-4.00776e-21
-2.78108e-21
2.6246e-21
7.18707e-24
-1.39844e-21
-7.67208e-22
-2.48692e-20
-2.71008e-20
-2.50704e-20
-2.2791e-20
-2.19537e-20
-2.14508e-20
-2.13471e-20
-2.09698e-20
-2.00936e-20
-1.66252e-20
-1.83716e-20
-1.88647e-20
-1.90867e-20
-1.60013e-20
-1.41516e-20
-1.26499e-20
-1.00964e-20
-9.31311e-21
-8.19159e-21
-7.38673e-21
-1.06935e-20
-1.29998e-20
-1.18571e-20
-8.25215e-21
-7.84996e-21
-8.04953e-21
-6.08702e-21
-5.23936e-21
-6.94415e-21
-4.27787e-21
-3.79788e-21
-4.32842e-21
-3.79664e-21
-1.91728e-21
-3.14427e-21
-1.6611e-21
7.77294e-22
-2.04301e-21
-1.56636e-21
-6.80969e-22
-2.38349e-20
-2.38892e-20
-2.45379e-20
-2.16863e-20
-2.4961e-20
-2.26518e-20
-2.11739e-20
-2.29156e-20
-2.10429e-20
-1.64915e-20
-1.74755e-20
-1.92943e-20
-1.76717e-20
-1.71234e-20
-1.42145e-20
-1.10557e-20
-1.05846e-20
-8.32538e-21
-1.09878e-20
-9.45682e-21
-1.17507e-20
-8.9675e-21
-8.95888e-21
-7.83505e-21
-7.90701e-21
-6.87354e-21
-6.28299e-21
-7.40605e-21