/*--------------------------------*- C++ -*----------------------------------*\
| =========                 |                                                 |
| \\      /  F ield         | OpenFOAM: The Open Source CFD Toolbox           |
|  \\    /   O peration     | Version:  v2012                                 |
|   \\  /    A nd           | Website:  www.openfoam.com                      |
|    \\/     M anipulation  |                                                 |
\*---------------------------------------------------------------------------*/
FoamFile
{
    version     2.0;
    format      ascii;
    class       surfaceScalarField;
    location    "40";
    object      phi;
}
// * * * * * * * * * * * * * * * * * * * * * * * * * * * * * * * * * * * * * //

dimensions      [0 3 -1 0 0 0 0];
oriented        oriented;


internalField   nonuniform List<scalar> 
187200
(
1.875e-06
2.15946e-22
1.59843e-22
1.875e-06
3.65038e-22
2.82862e-22
1.875e-06
4.28539e-22
4.79353e-22
1.875e-06
3.38963e-22
3.71786e-22
1.875e-06
3.59419e-22
2.96934e-22
1.875e-06
4.74134e-22
4.31858e-22
1.875e-06
3.86968e-22
3.53223e-22
1.875e-06
3.23363e-22
2.94875e-22
1.875e-06
2.5536e-22
4.10867e-22
1.875e-06
4.38016e-22
3.63314e-22
1.875e-06
4.33035e-22
2.97412e-22
1.875e-06
3.2602e-22
3.43647e-22
1.875e-06
2.5726e-22
3.10689e-22
1.875e-06
2.00687e-22
1.69058e-22
1.875e-06
2.23203e-22
2.75906e-22
1.875e-06
1.69932e-22
2.89476e-22
1.875e-06
2.06069e-22
2.62272e-22
1.875e-06
1.00174e-22
1.22109e-22
1.875e-06
9.75846e-23
8.9573e-23
1.875e-06
1.63824e-22
1.70841e-22
1.875e-06
5.0376e-23
1.68002e-22
1.875e-06
1.61966e-22
1.70948e-22
1.875e-06
2.31997e-22
1.84015e-22
1.875e-06
3.23107e-22
1.54446e-22
1.875e-06
2.306e-22
9.61403e-23
1.875e-06
1.6208e-22
1.08056e-22
1.875e-06
1.98183e-22
1.59786e-22
1.875e-06
1.69379e-22
6.23947e-23
1.875e-06
6.94795e-23
1.95653e-22
1.875e-06
8.20684e-23
1.56591e-22
1.875e-06
-7.14064e-24
1.32884e-22
1.875e-06
2.14265e-23
9.724e-23
1.875e-06
1.30279e-22
1.09882e-22
1.875e-06
8.96952e-23
6.43053e-23
1.875e-06
-1.88047e-24
9.32517e-23
1.875e-06
-8.6204e-23
-1.31331e-23
1.875e-06
3.17872e-24
-1.22317e-23
1.875e-06
-1.20676e-23
1.67607e-22
1.875e-06
-6.80348e-23
1.13296e-22
-1.89286e-23
7.31843e-23
1.875e-06
7.48683e-23
2.67105e-22
1.875e-06
1.0796e-22
4.66895e-22
1.875e-06
2.74576e-22
7.41367e-22
1.875e-06
3.42677e-22
7.50833e-22
1.875e-06
2.6523e-22
6.45662e-22
1.875e-06
3.11839e-22
7.25191e-22
1.875e-06
4.07499e-22
7.92356e-22
1.875e-06
3.84027e-22
7.38409e-22
1.875e-06
3.97474e-22
7.64312e-22
1.875e-06
2.53118e-22
7.6879e-22
1.875e-06
2.34809e-22
6.92654e-22
1.875e-06
2.47068e-22
6.14017e-22
1.875e-06
2.80046e-22
6.37691e-22
1.875e-06
1.96995e-22
5.35883e-22
1.875e-06
1.17464e-22
5.84437e-22
1.875e-06
6.78647e-23
5.44529e-22
1.875e-06
2.89899e-22
5.01229e-22
1.875e-06
3.22515e-22
5.60214e-22
1.875e-06
1.33267e-22
4.96539e-22
1.875e-06
1.70778e-24
3.18271e-22
1.875e-06
2.30755e-22
4.63822e-22
1.875e-06
2.38257e-22
3.72128e-22
1.875e-06
1.79889e-22
2.79319e-22
1.875e-06
1.33602e-22
2.80897e-22
1.875e-06
1.50956e-22
2.28411e-22
1.875e-06
1.94586e-22
2.83058e-22
1.875e-06
1.50949e-22
2.92826e-22
1.875e-06
6.92655e-23
2.22674e-22
1.875e-06
1.5933e-22
4.33777e-22
1.875e-06
1.22288e-22
2.48901e-22
1.875e-06
1.08649e-22
2.56348e-22
1.875e-06
4.43398e-23
1.99763e-22
1.875e-06
-2.15985e-23
5.80138e-23
1.875e-06
-1.5301e-23
5.8001e-23
1.875e-06
2.83275e-23
1.99393e-22
1.875e-06
-1.33385e-23
9.55529e-23
1.875e-06
-1.56616e-23
1.6651e-23
1.875e-06
-4.15772e-23
4.28924e-23
1.875e-06
-7.81136e-23
5.01215e-23
-9.85243e-23
1.62992e-23
1.875e-06
1.88986e-22
3.89276e-22
1.875e-06
1.7422e-22
6.50989e-22
1.875e-06
1.36602e-22
7.06937e-22
1.875e-06
2.93124e-22
8.56945e-22
1.875e-06
3.03831e-22
8.79357e-22
1.875e-06
3.73809e-22
9.38421e-22
1.875e-06
3.96676e-22
8.77181e-22
1.875e-06
2.85334e-22
9.83425e-22
1.875e-06
2.92534e-22
9.57808e-22
1.875e-06
2.88103e-22
8.48285e-22
1.875e-06
2.67637e-22
8.30638e-22
1.875e-06
2.54222e-22
7.66398e-22
1.875e-06
1.86803e-22
6.72499e-22
1.875e-06
1.61525e-22
6.55216e-22
1.875e-06
2.53619e-22
7.51346e-22
1.875e-06
3.23724e-22
7.10271e-22
1.875e-06
9.96704e-23
5.05166e-22
1.875e-06
1.9916e-22
5.60145e-22
1.875e-06
1.02809e-22
5.61133e-22
1.875e-06
1.29708e-22
4.64661e-22
1.875e-06
1.46052e-22
4.8825e-22
1.875e-06
1.10183e-22
3.44009e-22
1.875e-06
2.34908e-22
2.58965e-22
1.875e-06
1.8748e-22
3.24306e-22
1.875e-06
2.68956e-22
4.28931e-22
1.875e-06
8.31782e-23
3.63804e-22
1.875e-06
1.07322e-22
4.0982e-22
1.875e-06
-2.14903e-24
3.08181e-22
1.875e-06
4.76476e-23
3.50548e-22
1.875e-06
7.64706e-23
3.82556e-22
1.875e-06
5.26e-23
3.23612e-22
1.875e-06
6.21691e-23
2.20144e-22
1.875e-06
-3.31447e-23
8.48324e-23
1.875e-06
-1.05682e-23
9.93301e-23
1.875e-06
2.16335e-23
1.20637e-22
1.875e-06
1.21402e-23
7.13683e-23
1.875e-06
4.49175e-23
1.47952e-23
1.875e-06
9.29478e-24
1.28773e-22
1.875e-06
1.4761e-23
7.8664e-23
-1.24907e-23
5.34936e-23
1.875e-06
2.57446e-22
4.42829e-22
1.875e-06
2.10896e-22
7.78453e-22
1.875e-06
1.10956e-22
8.96539e-22
1.875e-06
1.33903e-22
8.78572e-22
1.875e-06
2.08416e-22
9.14673e-22
1.875e-06
1.99584e-22
8.54669e-22
1.875e-06
1.29452e-22
8.68158e-22
1.875e-06
2.47725e-22
1.04264e-21
1.875e-06
2.25995e-22
1.02261e-21
1.875e-06
3.03381e-22
9.40691e-22
1.875e-06
3.2131e-22
9.42577e-22
1.875e-06
1.19025e-22
8.75771e-22
1.875e-06
1.53365e-22
6.98298e-22
1.875e-06
2.07292e-22
7.27936e-22
1.875e-06
3.76019e-22
7.87127e-22
1.875e-06
3.47294e-22
6.97667e-22
1.875e-06
2.00564e-22
5.95079e-22
1.875e-06
7.03592e-23
6.06483e-22
1.875e-06
2.84951e-22
6.5809e-22
1.875e-06
1.06359e-22
4.71171e-22
1.875e-06
4.24838e-23
5.03343e-22
1.875e-06
8.78611e-23
4.74112e-22
1.875e-06
8.32414e-23
3.13567e-22
1.875e-06
1.87643e-22
3.81735e-22
1.875e-06
9.04451e-23
3.36718e-22
1.875e-06
1.59171e-22
4.97883e-22
1.875e-06
5.83784e-23
4.21042e-22
1.875e-06
7.58974e-23
3.8326e-22
1.875e-06
8.48907e-23
3.31863e-22
1.875e-06
-4.02638e-23
3.68718e-22
1.875e-06
2.69716e-23
2.83341e-22
1.875e-06
-6.83033e-24
1.97006e-22
1.875e-06
-4.96343e-23
2.51206e-22
1.875e-06
-1.40359e-23
1.67686e-22
1.875e-06
3.85527e-23
1.09261e-22
1.875e-06
6.57617e-23
2.15452e-23
1.875e-06
9.57293e-24
3.14256e-25
1.875e-06
4.93181e-23
8.86271e-23
1.875e-06
-3.73316e-23
4.81416e-23
9.60605e-24
5.00105e-23
1.875e-06
3.81466e-23
3.38977e-22
1.875e-06
9.86431e-23
7.81484e-22
1.875e-06
8.84964e-23
9.09569e-22
1.875e-06
1.21202e-22
9.9404e-22
1.875e-06
1.65661e-22
1.03826e-21
1.875e-06
8.33935e-23
1.01058e-21
1.875e-06
6.81095e-23
1.00158e-21
1.875e-06
2.87879e-22
1.05104e-21
1.875e-06
4.05504e-22
1.04447e-21
1.875e-06
2.47009e-22
9.54998e-22
1.875e-06
1.74271e-22
9.01689e-22
1.875e-06
2.08429e-22
9.94364e-22
1.875e-06
2.11977e-22
7.87695e-22
1.875e-06
1.83842e-22
8.15107e-22
1.875e-06
1.1962e-22
7.4447e-22
1.875e-06
2.34668e-22
7.43454e-22
1.875e-06
1.82525e-22
6.94693e-22
1.875e-06
1.32939e-22
6.95921e-22
1.875e-06
5.50757e-23
5.81227e-22
1.875e-06
2.23424e-22
5.5163e-22
1.875e-06
1.25183e-22
5.61738e-22
1.875e-06
8.55619e-23
5.02245e-22
1.875e-06
1.67434e-22
3.88364e-22
1.875e-06
1.14622e-22
3.62921e-22
1.875e-06
1.87691e-22
4.67187e-22
1.875e-06
1.03077e-22
5.03213e-22
1.875e-06
1.27749e-22
4.12526e-22
1.875e-06
3.92344e-24
3.77914e-22
1.875e-06
-3.61851e-23
2.84263e-22
1.875e-06
1.14528e-23
3.54218e-22
1.875e-06
9.13149e-23
3.55729e-22
1.875e-06
1.45239e-22
3.09858e-22
1.875e-06
5.20077e-23
2.44345e-22
1.875e-06
2.68691e-26
1.35017e-22
1.875e-06
-3.17898e-23
5.74649e-23
1.875e-06
-6.76086e-23
-3.08258e-23
1.875e-06
2.49572e-23
-3.29721e-24
1.875e-06
7.62863e-24
4.09132e-23
1.875e-06
-2.5679e-24
2.06867e-23
-4.16423e-23
2.43316e-23
1.875e-06
5.95006e-23
3.70899e-22
1.875e-06
2.0748e-22
8.29758e-22
1.875e-06
1.30484e-22
1.01391e-21
1.875e-06
3.13244e-23
1.01578e-21
1.875e-06
1.13866e-22
1.11674e-21
1.875e-06
1.50105e-22
1.1565e-21
1.875e-06
1.62451e-22
1.10871e-21
1.875e-06
2.10941e-22
1.08999e-21
1.875e-06
3.01828e-22
1.06097e-21
1.875e-06
2.45284e-22
9.84088e-22
1.875e-06
1.92853e-22
9.63641e-22
1.875e-06
2.12787e-22
1.01143e-21
1.875e-06
1.17737e-22
9.02558e-22
1.875e-06
2.02481e-22
8.7535e-22
1.875e-06
1.65253e-22
8.32525e-22
1.875e-06
1.34968e-22
6.78791e-22
1.875e-06
1.59602e-22
7.63437e-22
1.875e-06
2.24539e-23
6.90413e-22
1.875e-06
8.80238e-23
6.24129e-22
1.875e-06
9.0225e-23
4.68331e-22
1.875e-06
1.75354e-22
4.99861e-22
1.875e-06
2.9414e-22
5.68623e-22
1.875e-06
1.86345e-22
3.85085e-22
1.875e-06
1.42901e-22
3.54539e-22
1.875e-06
-8.04864e-24
3.92373e-22
1.875e-06
1.70503e-22
4.59963e-22
1.875e-06
1.63899e-22
3.79583e-22
1.875e-06
-1.72514e-24
3.83479e-22
1.875e-06
-6.12283e-23
3.25572e-22
1.875e-06
-2.77724e-23
3.58131e-22
1.875e-06
1.08102e-22
2.94721e-22
1.875e-06
6.18878e-23
2.5294e-22
1.875e-06
-1.08635e-23
1.73458e-22
1.875e-06
1.27096e-23
1.56414e-22
1.875e-06
2.5161e-23
1.21715e-22
1.875e-06
1.01963e-22
6.46305e-23
1.875e-06
-2.77531e-23
-3.2632e-23
1.875e-06
-5.53861e-24
-3.36767e-23
1.875e-06
7.86477e-23
-6.07909e-23
6.27763e-23
7.12372e-23
1.875e-06
2.75203e-23
4.61618e-22
1.875e-06
8.11551e-23
8.576e-22
1.875e-06
1.48666e-22
1.07728e-21
1.875e-06
7.77263e-23
1.11618e-21
1.875e-06
1.27105e-22
1.16127e-21
1.875e-06
1.24275e-22
1.17994e-21
1.875e-06
1.90873e-22
1.21392e-21
1.875e-06
3.56489e-22
1.12878e-21
1.875e-06
2.75322e-22
1.13177e-21
1.875e-06
2.14327e-22
1.08817e-21
1.875e-06
1.42723e-22
1.04079e-21
1.875e-06
1.01011e-22
9.57673e-22
1.875e-06
1.85941e-22
9.33518e-22
1.875e-06
2.14124e-22
8.58658e-22
1.875e-06
1.363e-22
8.811e-22
1.875e-06
1.15748e-22
7.72204e-22
1.875e-06
8.08498e-23
6.59606e-22
1.875e-06
1.50758e-22
6.40181e-22
1.875e-06
1.7321e-22
6.2217e-22
1.875e-06
1.19403e-22
4.45618e-22
1.875e-06
1.06873e-22
5.06465e-22
1.875e-06
9.84628e-23
5.11709e-22
1.875e-06
8.49028e-23
3.87677e-22
1.875e-06
7.5519e-23
3.95425e-22
1.875e-06
1.56973e-22
4.84613e-22
1.875e-06
1.60856e-22
3.88386e-22
1.875e-06
-2.02879e-23
3.07207e-22
1.875e-06
4.85257e-23
3.73741e-22
1.875e-06
3.50888e-23
3.10185e-22
1.875e-06
1.03013e-22
2.74096e-22
1.875e-06
1.5647e-23
3.10409e-22
1.875e-06
2.76168e-23
2.32154e-22
1.875e-06
3.23116e-23
1.16121e-22
1.875e-06
5.02917e-23
1.0585e-22
1.875e-06
1.34048e-22
1.49644e-22
1.875e-06
6.53322e-23
3.9547e-23
1.875e-06
-1.26519e-23
-2.62503e-23
1.875e-06
-1.921e-23
-1.12733e-23
1.875e-06
-7.33233e-24
-4.73797e-23
3.2177e-23
3.44961e-23
1.875e-06
1.34672e-22
3.81692e-22
1.875e-06
1.11928e-22
7.82459e-22
1.875e-06
4.18435e-23
1.02769e-21
1.875e-06
1.30318e-22
1.21143e-21
1.875e-06
1.20536e-22
1.26251e-21
1.875e-06
2.64063e-22
1.35269e-21
1.875e-06
2.96489e-22
1.26396e-21
1.875e-06
8.26079e-23
1.10528e-21
1.875e-06
1.1907e-22
1.1533e-21
1.875e-06
2.31225e-22
1.14249e-21
1.875e-06
7.39849e-23
1.07021e-21
1.875e-06
8.46789e-23
1.00988e-21
1.875e-06
2.269e-22
8.73519e-22
1.875e-06
1.54595e-22
7.97462e-22
1.875e-06
1.84022e-22
9.40409e-22
1.875e-06
1.22015e-22
8.50123e-22
1.875e-06
8.56496e-23
7.71764e-22
1.875e-06
7.55734e-23
6.54273e-22
1.875e-06
1.53535e-22
3.84865e-22
1.875e-06
1.94356e-22
3.64038e-22
1.875e-06
5.71795e-23
4.84196e-22
1.875e-06
7.34129e-23
5.36075e-22
1.875e-06
1.30436e-22
4.79887e-22
1.875e-06
4.06178e-23
5.10588e-22
1.875e-06
4.39873e-23
5.01797e-22
1.875e-06
3.7116e-23
3.22046e-22
1.875e-06
1.58527e-22
4.05947e-22
1.875e-06
1.48169e-22
4.18521e-22
1.875e-06
4.04881e-23
2.6135e-22
1.875e-06
4.65243e-23
2.01844e-22
1.875e-06
-5.81054e-24
3.27609e-22
1.875e-06
-6.68369e-23
2.06816e-22
1.875e-06
-2.42773e-23
2.52628e-22
1.875e-06
3.84448e-23
1.29973e-22
1.875e-06
6.78376e-23
2.52311e-23
1.875e-06
-7.27487e-23
-1.82409e-22
1.875e-06
-1.88183e-23
-1.43073e-22
1.875e-06
6.52344e-23
3.74621e-24
1.875e-06
3.02035e-23
-1.16009e-24
3.65489e-23
-7.93688e-23
1.875e-06
-1.75809e-22
3.05503e-22
1.875e-06
-1.17653e-22
8.42382e-22
1.875e-06
1.16021e-22
1.12294e-21
1.875e-06
1.00142e-22
1.25642e-21
1.875e-06
1.8633e-22
1.2675e-21
1.875e-06
2.06641e-22
1.2607e-21
1.875e-06
2.18108e-22
1.2786e-21
1.875e-06
1.88449e-22
1.27457e-21
1.875e-06
1.27249e-22
1.22814e-21
1.875e-06
8.06981e-23
1.0779e-21
1.875e-06
1.91654e-22
1.12268e-21
1.875e-06
6.36144e-23
1.10618e-21
1.875e-06
-4.23797e-23
7.75078e-22
1.875e-06
1.40433e-22
8.31825e-22
1.875e-06
1.93991e-22
8.84286e-22
1.875e-06
1.36634e-22
8.18264e-22
1.875e-06
2.07164e-22
8.20694e-22
1.875e-06
2.14614e-22
7.35531e-22
1.875e-06
-5.17329e-23
4.9124e-22
1.875e-06
-6.85211e-24
4.0125e-22
1.875e-06
2.12368e-22
4.72578e-22
1.875e-06
6.76907e-23
5.0348e-22
1.875e-06
9.11296e-23
4.36634e-22
1.875e-06
1.56767e-22
5.69908e-22
1.875e-06
1.69327e-22
6.06017e-22
1.875e-06
4.1584e-23
4.00631e-22
1.875e-06
-8.36003e-23
3.0918e-22
1.875e-06
-2.93856e-23
2.90498e-22
1.875e-06
8.06734e-23
2.79078e-22
1.875e-06
-1.22025e-24
1.9997e-22
1.875e-06
-9.32836e-23
2.5805e-22
1.875e-06
-4.22832e-23
2.66187e-22
1.875e-06
7.33961e-23
2.5874e-22
1.875e-06
3.50508e-23
1.06077e-22
1.875e-06
-1.22301e-23
-1.61725e-22
1.875e-06
1.37811e-22
-2.20622e-22
1.875e-06
1.15421e-22
-1.18386e-22
1.875e-06
-4.06654e-23
-8.19127e-23
1.875e-06
-4.51402e-24
-1.19182e-22
-3.96709e-23
-1.39441e-22
1.875e-06
-3.71669e-23
4.81744e-22
1.875e-06
5.66716e-23
8.47515e-22
1.875e-06
1.3565e-22
1.03986e-21
1.875e-06
2.74788e-22
1.35053e-21
1.875e-06
1.07698e-22
1.36568e-21
1.875e-06
1.21843e-22
1.32459e-21
1.875e-06
2.65495e-22
1.39138e-21
1.875e-06
1.25031e-22
1.33142e-21
1.875e-06
1.34728e-22
1.14043e-21
1.875e-06
1.16783e-22
1.09449e-21
1.875e-06
1.01558e-22
1.00083e-21
1.875e-06
7.9175e-23
1.03931e-21
1.875e-06
8.67184e-23
9.31874e-22
1.875e-06
6.3711e-23
9.0383e-22
1.875e-06
1.17554e-22
8.89203e-22
1.875e-06
2.13782e-22
8.24825e-22
1.875e-06
2.40034e-22
7.58747e-22
1.875e-06
1.72365e-23
6.24745e-22
1.875e-06
-4.18101e-23
6.15047e-22
1.875e-06
1.20145e-23
4.43387e-22
1.875e-06
1.87989e-22
5.35005e-22
1.875e-06
3.1717e-22
6.50366e-22
1.875e-06
1.27586e-22
4.95308e-22
1.875e-06
1.30508e-22
5.81211e-22
1.875e-06
1.34687e-22
5.405e-22
1.875e-06
-6.84354e-25
4.51042e-22
1.875e-06
-1.11003e-22
3.81515e-22
1.875e-06
-5.6233e-23
3.42023e-22
1.875e-06
1.41598e-25
2.22754e-22
1.875e-06
7.48524e-23
2.5481e-22
1.875e-06
6.45212e-24
2.67891e-22
1.875e-06
-5.14074e-23
2.65963e-22
1.875e-06
6.0108e-23
2.27789e-22
1.875e-06
1.30691e-23
8.54512e-23
1.875e-06
-5.30073e-23
-1.23702e-22
1.875e-06
-1.76193e-23
-3.61114e-22
1.875e-06
1.85967e-24
-3.85159e-22
1.875e-06
8.10985e-23
-1.90974e-22
1.875e-06
9.45866e-23
-1.1961e-22
1.01541e-22
-1.28105e-22
1.875e-06
7.71949e-23
7.02451e-22
1.875e-06
1.09363e-22
1.02852e-21
1.875e-06
1.23765e-22
1.05872e-21
1.875e-06
9.54891e-23
1.24409e-21
1.875e-06
1.57055e-22
1.42513e-21
1.875e-06
1.96694e-22
1.34379e-21
1.875e-06
4.13272e-23
1.31369e-21
1.875e-06
1.76232e-22
1.46932e-21
1.875e-06
1.16812e-23
1.19134e-21
1.875e-06
4.92868e-23
1.0141e-21
1.875e-06
2.05163e-22
9.15074e-22
1.875e-06
1.47689e-22
9.76643e-22
1.875e-06
4.91782e-23
8.91884e-22
1.875e-06
1.28787e-22
8.5708e-22
1.875e-06
7.26065e-23
8.71281e-22
1.875e-06
1.97826e-22
8.60347e-22
1.875e-06
3.96866e-23
7.30811e-22
1.875e-06
9.3007e-23
6.8194e-22
1.875e-06
2.03117e-22
7.03844e-22
1.875e-06
9.8597e-23
6.69938e-22
1.875e-06
6.42793e-23
5.65991e-22
1.875e-06
1.06235e-22
5.14038e-22
1.875e-06
9.76069e-23
5.43985e-22
1.875e-06
4.87969e-23
5.27035e-22
1.875e-06
1.59266e-23
3.97104e-22
1.875e-06
-6.63425e-23
4.31888e-22
1.875e-06
3.16435e-23
4.69789e-22
1.875e-06
5.76154e-23
4.16806e-22
1.875e-06
2.55547e-23
2.67652e-22
1.875e-06
-1.19746e-22
2.06584e-22
1.875e-06
-2.7049e-23
3.14639e-22
1.875e-06
6.77818e-23
3.00877e-22
1.875e-06
-3.75562e-23
7.74406e-23
1.875e-06
1.10941e-23
7.64905e-23
1.875e-06
-1.79063e-23
-1.03928e-22
1.875e-06
-1.07003e-22
-3.70838e-22
1.875e-06
-6.86974e-23
-3.28813e-22
1.875e-06
3.83073e-23
-1.9517e-22
1.875e-06
1.24647e-22
-1.66617e-22
1.54214e-22
-1.40637e-22
1.875e-06
2.21986e-22
7.02017e-22
1.875e-06
1.36678e-22
1.00626e-21
1.875e-06
1.2252e-22
1.10238e-21
1.875e-06
1.16531e-22
1.29133e-21
1.875e-06
1.33825e-22
1.38585e-21
1.875e-06
1.44968e-23
1.31606e-21
1.875e-06
8.89936e-23
1.33247e-21
1.875e-06
1.17562e-22
1.36865e-21
1.875e-06
1.59666e-22
1.18123e-21
1.875e-06
2.66925e-23
1.07238e-21
1.875e-06
3.57148e-24
8.00663e-22
1.875e-06
1.29274e-22
9.37452e-22
1.875e-06
1.72072e-22
1.08188e-21
1.875e-06
1.31652e-22
9.06621e-22
1.875e-06
6.78354e-23
9.13436e-22
1.875e-06
-7.03413e-23
7.86299e-22
1.875e-06
3.15795e-23
6.99741e-22
1.875e-06
1.23424e-22
7.03487e-22
1.875e-06
1.13634e-22
7.01777e-22
1.875e-06
2.03025e-22
7.38715e-22
1.875e-06
8.93733e-23
6.68606e-22
1.875e-06
1.1441e-22
5.44352e-22
1.875e-06
3.29591e-23
4.69222e-22
1.875e-06
3.20789e-23
4.70374e-22
1.875e-06
-1.51934e-22
4.0576e-22
1.875e-06
-8.28639e-23
4.93019e-22
1.875e-06
-4.74386e-23
4.38697e-22
1.875e-06
9.49083e-23
3.78477e-22
1.875e-06
-2.37781e-23
2.45889e-22
1.875e-06
-1.3404e-22
3.54614e-22
1.875e-06
6.37519e-23
4.00368e-22
1.875e-06
3.47006e-23
2.91399e-22
1.875e-06
-4.82432e-23
1.2777e-22
1.875e-06
2.72077e-23
-3.06176e-23
1.875e-06
8.7046e-23
-1.34126e-22
1.875e-06
-7.732e-23
-2.78881e-22
1.875e-06
-8.82217e-23
-2.94975e-22
1.875e-06
2.41447e-24
-1.69822e-22
1.875e-06
-5.24177e-23
-1.81671e-22
-1.00983e-22
-2.84878e-22
1.875e-06
8.70452e-23
5.82055e-22
1.875e-06
1.98263e-22
1.05459e-21
1.875e-06
1.18442e-22
1.12127e-21
1.875e-06
1.34681e-22
1.28878e-21
1.875e-06
-3.39966e-23
1.34111e-21
1.875e-06
-2.53217e-23
1.38456e-21
1.875e-06
4.47032e-23
1.3181e-21
1.875e-06
-7.3859e-24
1.23875e-21
1.875e-06
8.21017e-23
1.16919e-21
1.875e-06
1.28724e-22
1.06386e-21
1.875e-06
1.65792e-23
8.82364e-22
1.875e-06
1.19352e-22
9.9619e-22
1.875e-06
1.93434e-22
1.06673e-21
1.875e-06
1.16604e-22
9.50928e-22
1.875e-06
9.8655e-23
9.30194e-22
1.875e-06
3.58576e-23
7.96282e-22
1.875e-06
5.81269e-23
6.58698e-22
1.875e-06
9.76106e-23
6.92531e-22
1.875e-06
1.36629e-22
8.20017e-22
1.875e-06
1.30155e-22
7.93625e-22
1.875e-06
1.67492e-22
6.64401e-22
1.875e-06
2.95031e-23
4.06536e-22
1.875e-06
1.04556e-22
5.00036e-22
1.875e-06
-8.35267e-23
5.38502e-22
1.875e-06
-1.16546e-22
4.92539e-22
1.875e-06
-1.30022e-22
4.20453e-22
1.875e-06
-9.47733e-23
3.84754e-22
1.875e-06
-7.0197e-23
2.64334e-22
1.875e-06
7.45067e-24
3.27442e-22
1.875e-06
-7.17764e-23
4.02935e-22
1.875e-06
-1.12877e-22
3.4365e-22
1.875e-06
6.73359e-23
2.58898e-22
1.875e-06
7.41716e-23
1.80577e-22
1.875e-06
-3.22147e-23
-9.67223e-23
1.875e-06
-3.11586e-23
-1.03908e-22
1.875e-06
-2.03517e-23
-3.33714e-22
1.875e-06
6.46017e-23
-2.56872e-22
1.875e-06
-1.10675e-22
-1.34483e-22
1.875e-06
-1.8372e-22
-1.53255e-22
-1.24727e-22
-2.31954e-22
1.875e-06
-1.77602e-22
6.57008e-22
1.875e-06
1.178e-23
1.00932e-21
1.875e-06
1.3646e-22
1.17995e-21
1.875e-06
3.12669e-24
1.30069e-21
1.875e-06
-2.73905e-23
1.38341e-21
1.875e-06
2.50128e-23
1.33302e-21
1.875e-06
1.07191e-22
1.30721e-21
1.875e-06
2.89055e-22
1.31903e-21
1.875e-06
1.06669e-22
1.19891e-21
1.875e-06
-8.68783e-23
1.0667e-21
1.875e-06
-1.17036e-23
9.75428e-22
1.875e-06
1.98321e-22
9.29775e-22
1.875e-06
1.85414e-22
1.04215e-21
1.875e-06
7.77725e-23
9.13137e-22
1.875e-06
1.24259e-23
9.03378e-22
1.875e-06
3.54896e-23
8.44246e-22
1.875e-06
1.0236e-22
8.36075e-22
1.875e-06
2.06167e-22
7.61718e-22
1.875e-06
1.71456e-22
7.19953e-22
1.875e-06
1.47696e-22
6.81097e-22
1.875e-06
1.48679e-22
5.59258e-22
1.875e-06
-3.72475e-23
5.3071e-22
1.875e-06
-9.85625e-23
4.38752e-22
1.875e-06
-4.79593e-23
5.86371e-22
1.875e-06
-3.39908e-23
4.98916e-22
1.875e-06
4.82467e-23
4.47002e-22
1.875e-06
9.11661e-24
3.32415e-22
1.875e-06
-2.83294e-25
3.68028e-22
1.875e-06
-9.59928e-23
2.90421e-22
1.875e-06
1.20377e-23
3.35314e-22
1.875e-06
-1.15966e-22
4.08028e-22
1.875e-06
-1.47997e-22
2.01817e-22
1.875e-06
2.23458e-24
1.90795e-22
1.875e-06
-2.87372e-23
3.79563e-23
1.875e-06
-8.15389e-23
-1.72295e-22
1.875e-06
-3.32366e-23
-3.18547e-22
1.875e-06
-1.06153e-22
-3.52242e-22
1.875e-06
-5.15984e-23
-3.11398e-22
1.875e-06
1.00915e-23
-1.59132e-22
-1.95647e-22
-2.57912e-22
1.875e-06
-7.09563e-23
8.0168e-22
1.875e-06
-1.97936e-22
1.01717e-21
1.875e-06
-4.9677e-23
1.13152e-21
1.875e-06
-1.9616e-23
1.27104e-21
1.875e-06
7.91393e-23
1.40498e-21
1.875e-06
-3.25224e-23
1.29124e-21
1.875e-06
3.27365e-24
1.23676e-21
1.875e-06
3.63582e-23
1.10048e-21
1.875e-06
-4.39669e-24
1.19419e-21
1.875e-06
1.4761e-24
1.11536e-21
1.875e-06
1.60565e-22
1.07925e-21
1.875e-06
6.92635e-23
9.93407e-22
1.875e-06
8.27107e-23
1.02448e-21
1.875e-06
8.79607e-23
1.00966e-21
1.875e-06
1.63352e-22
9.10086e-22
1.875e-06
1.10858e-22
7.61554e-22
1.875e-06
4.37264e-23
7.05214e-22
1.875e-06
9.80264e-23
7.0794e-22
1.875e-06
6.94598e-23
7.18863e-22
1.875e-06
6.60526e-24
6.39923e-22
1.875e-06
1.06181e-22
4.35092e-22
1.875e-06
1.41338e-22
6.17831e-22
1.875e-06
-8.75679e-24
5.92871e-22
1.875e-06
-1.47272e-22
4.75271e-22
1.875e-06
-1.12786e-22
4.39467e-22
1.875e-06
5.9665e-23
5.04606e-22
1.875e-06
1.24381e-22
3.96322e-22
1.875e-06
-1.02932e-22
2.45963e-22
1.875e-06
-3.63324e-23
3.24937e-22
1.875e-06
-4.52523e-23
3.1272e-22
1.875e-06
-2.86655e-23
3.76388e-22
1.875e-06
-5.121e-23
2.95241e-22
1.875e-06
-3.74588e-23
1.8068e-22
1.875e-06
-1.97912e-23
2.26893e-23
1.875e-06
-2.83206e-23
-1.13849e-22
1.875e-06
-8.27266e-23
-2.884e-22
1.875e-06
-8.20363e-23
-3.67103e-22
1.875e-06
-5.56508e-23
-2.50717e-22
1.875e-06
-1.1477e-22
-2.60153e-22
-9.05885e-23
-1.92138e-22
1.875e-06
-5.01253e-23
6.69567e-22
1.875e-06
-1.18768e-22
1.11864e-21
1.875e-06
-1.05955e-22
1.24737e-21
1.875e-06
-1.11003e-22
1.34587e-21
1.875e-06
-7.57945e-23
1.3573e-21
1.875e-06
1.26354e-23
1.35442e-21
1.875e-06
-3.47846e-23
1.21374e-21
1.875e-06
-4.44355e-24
1.14493e-21
1.875e-06
6.91115e-23
1.22881e-21
1.875e-06
1.46974e-22
1.14369e-21
1.875e-06
1.96151e-23
1.07601e-21
1.875e-06
1.19404e-22
1.09929e-21
1.875e-06
-4.89534e-23
1.09215e-21
1.875e-06
8.6358e-23
1.02267e-21
1.875e-06
1.26029e-22
8.57724e-22
1.875e-06
5.64397e-23
7.23775e-22
1.875e-06
9.89284e-23
6.42067e-22
1.875e-06
8.47299e-23
6.66688e-22
1.875e-06
1.45467e-22
6.81703e-22
1.875e-06
7.42278e-23
6.31474e-22
1.875e-06
5.35725e-23
4.91194e-22
1.875e-06
-9.37329e-24
6.17413e-22
1.875e-06
-1.74603e-24
5.3119e-22
1.875e-06
-7.43973e-23
5.07345e-22
1.875e-06
-1.71468e-23
5.06356e-22
1.875e-06
-1.3743e-22
4.53838e-22
1.875e-06
1.70126e-23
3.06242e-22
1.875e-06
1.44747e-22
2.65924e-22
1.875e-06
5.26669e-24
3.73826e-22
1.875e-06
2.56553e-23
3.45744e-22
1.875e-06
-6.11146e-23
2.95692e-22
1.875e-06
1.55942e-23
2.51847e-22
1.875e-06
-7.49613e-23
1.83113e-22
1.875e-06
-1.3911e-22
2.20625e-23
1.875e-06
-1.9052e-22
-1.94968e-22
1.875e-06
-1.38451e-22
-3.02592e-22
1.875e-06
-3.48003e-24
-2.64213e-22
1.875e-06
-2.86211e-23
-6.61945e-23
1.875e-06
-3.90208e-23
-1.40958e-22
2.20048e-23
-1.76572e-22
1.875e-06
-1.46812e-22
6.14447e-22
1.875e-06
-6.05194e-23
1.05687e-21
1.875e-06
-3.4718e-24
1.25529e-21
1.875e-06
-3.49905e-23
1.40662e-21
1.875e-06
-6.63373e-23
1.50166e-21
1.875e-06
8.62282e-24
1.37327e-21
1.875e-06
-1.06963e-22
1.24754e-21
1.875e-06
-1.85888e-22
1.20511e-21
1.875e-06
2.98916e-23
1.27338e-21
1.875e-06
1.29073e-22
1.11551e-21
1.875e-06
1.2156e-22
1.10799e-21
1.875e-06
4.50781e-24
1.05281e-21
1.875e-06
5.63619e-23
1.1649e-21
1.875e-06
-1.08401e-23
1.07916e-21
1.875e-06
1.61854e-22
8.43907e-22
1.875e-06
1.30367e-22
7.13279e-22
1.875e-06
6.06347e-23
6.46526e-22
1.875e-06
-3.13354e-23
6.24346e-22
1.875e-06
8.48676e-23
6.39656e-22
1.875e-06
1.92719e-22
6.61565e-22
1.875e-06
1.4568e-22
5.51749e-22
1.875e-06
-2.9504e-23
5.34585e-22
1.875e-06
-1.72821e-22
4.43013e-22
1.875e-06
-8.63335e-23
4.73807e-22
1.875e-06
-5.11573e-23
4.77208e-22
1.875e-06
6.28459e-23
5.33644e-22
1.875e-06
6.07148e-23
3.22901e-22
1.875e-06
-4.07141e-23
2.39305e-22
1.875e-06
1.3623e-23
3.99977e-22
1.875e-06
2.44874e-23
3.26118e-22
1.875e-06
6.76807e-23
2.76478e-22
1.875e-06
-1.18344e-22
1.81101e-22
1.875e-06
-1.53195e-22
1.84838e-22
1.875e-06
-1.5284e-22
1.28397e-22
1.875e-06
-1.45267e-22
-1.12428e-23
1.875e-06
-4.16081e-23
-1.71769e-22
1.875e-06
2.47266e-23
-2.57866e-22
1.875e-06
3.9814e-23
-1.05765e-22
1.875e-06
-1.14249e-22
-1.90656e-22
-6.89147e-23
-2.70157e-22
1.875e-06
-7.31004e-23
6.70866e-22
1.875e-06
-1.42067e-22
1.09757e-21
1.875e-06
-1.44888e-22
1.2318e-21
1.875e-06
3.23567e-23
1.43014e-21
1.875e-06
4.0475e-23
1.4477e-21
1.875e-06
-1.42807e-22
1.36701e-21
1.875e-06
-9.71509e-23
1.30366e-21
1.875e-06
-1.03316e-22
1.29321e-21
1.875e-06
-3.02003e-23
1.27502e-21
1.875e-06
6.49207e-23
1.22853e-21
1.875e-06
1.67916e-23
1.0635e-21
1.875e-06
5.37689e-23
1.04836e-21
1.875e-06
5.23793e-23
1.09373e-21
1.875e-06
7.24441e-24
1.12225e-21
1.875e-06
-2.39584e-23
8.01611e-22
1.875e-06
8.27986e-23
7.66852e-22
1.875e-06
6.36024e-23
7.21405e-22
1.875e-06
1.9838e-22
7.56564e-22
1.875e-06
2.11235e-22
6.03548e-22
1.875e-06
1.71148e-22
5.24623e-22
1.875e-06
-7.91122e-23
4.23842e-22
1.875e-06
-2.13276e-22
5.44021e-22
1.875e-06
-9.8764e-23
6.0019e-22
1.875e-06
-2.07083e-23
4.40215e-22
1.875e-06
-5.5954e-23
4.9961e-22
1.875e-06
-6.30037e-24
4.32096e-22
1.875e-06
4.72872e-23
2.89679e-22
1.875e-06
9.32151e-24
3.27781e-22
1.875e-06
-2.7266e-23
3.04766e-22
1.875e-06
2.51674e-23
2.66846e-22
1.875e-06
8.42582e-23
1.92238e-22
1.875e-06
-7.34504e-23
1.8528e-22
1.875e-06
-7.23389e-23
1.8387e-22
1.875e-06
8.93855e-24
1.54882e-22
1.875e-06
-5.08241e-23
3.051e-23
1.875e-06
-5.48141e-23
-1.55424e-23
1.875e-06
-1.00298e-22
-1.29157e-22
1.875e-06
-7.5181e-23
-1.77722e-22
1.875e-06
7.27898e-23
-1.72261e-22
1.49389e-22
-2.51482e-22
1.875e-06
-3.72412e-23
7.81421e-22
1.875e-06
5.18321e-23
1.14518e-21
1.875e-06
2.51116e-23
1.27623e-21
1.875e-06
-5.45029e-24
1.43732e-21
1.875e-06
-6.46626e-23
1.48486e-21
1.875e-06
-1.42829e-22
1.38898e-21
1.875e-06
-1.93861e-22
1.32941e-21
1.875e-06
-1.06502e-22
1.36874e-21
1.875e-06
3.03395e-23
1.29459e-21
1.875e-06
2.13946e-23
1.15289e-21
1.875e-06
1.88293e-23
1.15749e-21
1.875e-06
1.30458e-23
1.10554e-21
1.875e-06
1.19918e-22
1.12244e-21
1.875e-06
1.52321e-22
1.11878e-21
1.875e-06
-6.76598e-24
8.46114e-22
1.875e-06
-7.5661e-23
7.87675e-22
1.875e-06
-4.95735e-23
7.51521e-22
1.875e-06
-3.56709e-24
6.29877e-22
1.875e-06
1.27143e-22
4.78213e-22
1.875e-06
3.11739e-23
4.53632e-22
1.875e-06
-6.0872e-23
4.2632e-22
1.875e-06
3.49468e-23
6.42563e-22
1.875e-06
-3.80737e-23
6.30159e-22
1.875e-06
-1.20179e-23
5.87645e-22
1.875e-06
-1.41368e-23
5.1092e-22
1.875e-06
-3.61063e-23
4.25796e-22
1.875e-06
8.91161e-23
3.1765e-22
1.875e-06
1.30159e-22
3.53952e-22
1.875e-06
7.89485e-23
3.05634e-22
1.875e-06
-3.33586e-23
2.66437e-22
1.875e-06
-1.10534e-22
3.97372e-23
1.875e-06
-2.87504e-23
4.55329e-23
1.875e-06
-1.56247e-23
1.32037e-22
1.875e-06
-2.4085e-23
2.60229e-22
1.875e-06
3.8948e-23
1.15147e-22
1.875e-06
8.36539e-24
3.1996e-23
1.875e-06
5.05734e-23
1.39726e-23
1.875e-06
-3.89338e-24
-1.24232e-22
1.875e-06
1.0041e-23
-2.58844e-22
-2.60079e-23
-3.28411e-22
1.875e-06
1.69407e-22
8.84351e-22
1.875e-06
1.14059e-22
1.15076e-21
1.875e-06
2.10332e-24
1.07047e-21
1.875e-06
-8.91548e-23
1.28704e-21
1.875e-06
-1.52234e-22
1.47443e-21
1.875e-06
2.00462e-24
1.40351e-21
1.875e-06
8.95612e-24
1.41713e-21
1.875e-06
-1.43624e-22
1.3751e-21
1.875e-06
-1.74684e-22
1.21941e-21
1.875e-06
-2.72246e-23
1.31834e-21
1.875e-06
-1.89349e-22
1.1505e-21
1.875e-06
4.64154e-22
1.16177e-21
1.875e-06
6.71026e-23
1.06093e-21
1.875e-06
1.6528e-22
1.08086e-21
1.875e-06
-1.87661e-23
1.01595e-21
1.875e-06
-1.50334e-22
8.43144e-22
1.875e-06
-8.83652e-23
6.83375e-22
1.875e-06
-9.43128e-23
5.16631e-22
1.875e-06
-5.57435e-23
4.89272e-22
1.875e-06
-1.42818e-23
4.95266e-22
1.875e-06
-4.90197e-23
4.34586e-22
1.875e-06
-8.50703e-23
5.5977e-22
1.875e-06
9.66273e-24
7.19561e-22
1.875e-06
4.30562e-23
5.92134e-22
1.875e-06
1.66258e-22
5.11048e-22
1.875e-06
7.97063e-23
4.81835e-22
1.875e-06
-9.31406e-23
3.13878e-22
1.875e-06
-6.07759e-23
2.39684e-22
1.875e-06
-1.67339e-22
1.87194e-22
1.875e-06
2.1574e-22
2.50707e-22
1.875e-06
3.92011e-23
2.34376e-22
1.875e-06
-2.06219e-24
1.22504e-22
1.875e-06
1.06917e-22
8.8581e-23
1.875e-06
-1.21346e-22
2.0251e-22
1.875e-06
4.83979e-23
8.19361e-23
1.875e-06
1.07612e-22
6.73273e-23
1.875e-06
-5.69455e-23
-1.42087e-23
1.875e-06
5.24343e-23
-1.82924e-22
1.875e-06
2.69762e-23
-4.39673e-22
-7.1391e-23
-3.45236e-22
1.875e-06
2.12802e-22
7.68919e-22
1.875e-06
1.14194e-22
1.0513e-21
1.875e-06
-1.55625e-23
1.07262e-21
1.875e-06
-8.43538e-24
1.31618e-21
1.875e-06
1.08551e-22
1.45258e-21
1.875e-06
3.07597e-23
1.39323e-21
1.875e-06
-5.42637e-24
1.38593e-21
1.875e-06
-1.10453e-22
1.35287e-21
1.875e-06
-1.46194e-22
1.25907e-21
1.875e-06
-6.74989e-23
1.34011e-21
1.875e-06
2.98965e-24
1.21025e-21
1.875e-06
5.31942e-23
1.17431e-21
1.875e-06
8.22521e-23
1.17243e-21
1.875e-06
1.86008e-23
9.69509e-22
1.875e-06
-4.35737e-23
1.02485e-21
1.875e-06
-3.54674e-24
9.47102e-22
1.875e-06
-4.82297e-23
7.1541e-22
1.875e-06
-6.04948e-23
5.8886e-22
1.875e-06
-1.90551e-22
5.52696e-22
1.875e-06
-9.62934e-23
5.31234e-22
1.875e-06
-2.39432e-23
4.40992e-22
1.875e-06
-7.01601e-23
6.00072e-22
1.875e-06
4.87005e-24
6.49912e-22
1.875e-06
9.48231e-24
4.94757e-22
1.875e-06
4.95076e-23
4.74825e-22
1.875e-06
1.19223e-22
5.96488e-22
1.875e-06
3.58628e-23
3.19221e-22
1.875e-06
6.50601e-23
2.70464e-22
1.875e-06
1.58284e-23
2.9656e-22
1.875e-06
-5.20421e-23
2.67289e-22
1.875e-06
-1.58788e-23
1.80235e-22
1.875e-06
-1.19541e-23
3.38886e-23
1.875e-06
-7.60486e-23
9.74114e-24
1.875e-06
8.10808e-23
2.44331e-22
1.875e-06
1.6415e-22
1.54044e-22
1.875e-06
1.29287e-22
9.43943e-24
1.875e-06
8.29602e-23
-5.58397e-23
1.875e-06
-1.09021e-23
-2.26216e-22
1.875e-06
-2.20245e-22
-4.97247e-22
-1.43738e-22
-3.25119e-22
1.875e-06
4.47779e-23
6.12269e-22
1.875e-06
1.00786e-22
1.0069e-21
1.875e-06
1.54349e-24
1.10555e-21
1.875e-06
-3.33894e-25
1.29599e-21
1.875e-06
4.74556e-23
1.36041e-21
1.875e-06
1.20559e-22
1.34296e-21
1.875e-06
3.45803e-23
1.30372e-21
1.875e-06
4.51705e-24
1.32918e-21
1.875e-06
-3.00053e-23
1.30711e-21
1.875e-06
-1.59374e-22
1.46459e-21
1.875e-06
-3.76841e-24
1.29434e-21
1.875e-06
-5.77356e-23
1.10393e-21
1.875e-06
-5.59375e-23
1.07887e-21
1.875e-06
-2.43032e-22
9.84037e-22
1.875e-06
-1.08848e-22
1.02741e-21
1.875e-06
-5.63556e-23
9.30789e-22
1.875e-06
-1.21697e-22
8.3542e-22