/*--------------------------------*- C++ -*----------------------------------*\
| =========                 |                                                 |
| \\      /  F ield         | OpenFOAM: The Open Source CFD Toolbox           |
|  \\    /   O peration     | Version:  v2012                                 |
|   \\  /    A nd           | Website:  www.openfoam.com                      |
|    \\/     M anipulation  |                                                 |
\*---------------------------------------------------------------------------*/
FoamFile
{
    version     2.0;
    format      ascii;
    class       volVectorField;
    location    "40";
    object      U;
}
// * * * * * * * * * * * * * * * * * * * * * * * * * * * * * * * * * * * * * //

dimensions      [0 1 -1 0 0 0 0];


internalField   nonuniform List<vector> 
64000
(
(0.003 2.74703e-19 2.56469e-19)
(0.003 4.96331e-19 4.31684e-19)
(0.003 5.14098e-19 5.35298e-19)
(0.003 4.92485e-19 5.82413e-19)
(0.003 6.29184e-19 6.15893e-19)
(0.003 6.26033e-19 5.61455e-19)
(0.003 5.76731e-19 5.26154e-19)
(0.003 4.21653e-19 4.772e-19)
(0.003 3.92054e-19 5.53647e-19)
(0.003 5.99068e-19 4.95762e-19)
(0.003 6.12956e-19 3.81808e-19)
(0.003 5.61898e-19 5.64551e-19)
(0.003 4.91186e-19 5.30237e-19)
(0.003 4.6569e-19 4.07189e-19)
(0.003 3.85872e-19 4.57811e-19)
(0.003 3.21536e-19 4.67221e-19)
(0.003 2.58659e-19 3.39282e-19)
(0.003 1.23686e-19 1.76182e-19)
(0.003 1.30859e-19 1.64852e-19)
(0.003 2.38758e-19 2.81267e-19)
(0.003 1.32454e-19 2.3642e-19)
(0.003 2.24781e-19 2.45276e-19)
(0.003 3.59366e-19 2.84042e-19)
(0.003 4.37661e-19 2.32263e-19)
(0.003 3.41489e-19 1.44834e-19)
(0.003 2.19484e-19 1.43087e-19)
(0.003 1.68473e-19 1.88156e-19)
(0.003 2.78035e-19 2.44812e-19)
(0.003 2.67936e-19 2.62853e-19)
(0.003 1.44341e-19 2.81567e-19)
(0.003 1.52691e-20 2.48983e-19)
(0.003 4.16044e-20 1.63378e-19)
(0.003 1.7414e-19 1.35792e-19)
(0.003 1.18956e-19 9.51172e-20)
(0.003 7.00882e-20 1.26062e-19)
(0.003 6.79931e-20 1.46602e-19)
(0.003 -2.77438e-21 5.27442e-20)
(0.003 -4.99534e-20 1.67389e-19)
(0.003 -9.61022e-20 2.41914e-19)
(0.003 -6.18023e-20 1.27797e-19)
(0.003 2.5977e-19 4.52649e-19)
(0.003 4.06003e-19 8.83064e-19)
(0.003 6.27791e-19 1.11215e-18)
(0.003 6.24876e-19 1.11489e-18)
(0.003 5.39179e-19 1.11057e-18)
(0.003 6.79671e-19 1.18011e-18)
(0.003 7.05596e-19 1.17904e-18)
(0.003 6.45952e-19 9.5886e-19)
(0.003 5.95844e-19 8.7542e-19)
(0.003 5.73399e-19 1.15552e-18)
(0.003 5.69891e-19 1.12309e-18)
(0.003 4.99615e-19 1.0248e-18)
(0.003 4.28144e-19 9.28672e-19)
(0.003 3.15988e-19 8.38751e-19)
(0.003 2.48224e-19 8.41702e-19)
(0.003 2.02905e-19 8.06464e-19)
(0.003 4.30383e-19 7.20771e-19)
(0.003 3.89697e-19 5.72333e-19)
(0.003 1.96713e-19 5.02666e-19)
(0.003 1.19294e-19 5.14222e-19)
(0.003 2.53416e-19 4.51599e-19)
(0.003 3.63146e-19 5.08576e-19)
(0.003 3.31297e-19 5.47946e-19)
(0.003 3.93336e-19 6.17221e-19)
(0.003 3.06796e-19 4.83024e-19)
(0.003 2.86875e-19 3.88156e-19)
(0.003 3.27772e-19 3.59805e-19)
(0.003 2.14059e-19 3.98917e-19)
(0.003 1.56239e-19 5.08811e-19)
(0.003 1.57998e-19 4.05226e-19)
(0.003 8.84336e-20 2.56714e-19)
(0.003 8.01918e-20 2.16509e-19)
(0.003 1.48005e-19 2.70494e-19)
(0.003 8.50391e-20 2.02613e-19)
(0.003 -7.41027e-21 2.21596e-19)
(0.003 -8.53318e-20 2.00961e-19)
(0.003 -6.11827e-20 2.80905e-20)
(0.003 -7.2028e-20 4.49834e-20)
(0.003 -9.53523e-20 1.36169e-19)
(0.003 -9.9541e-20 1.04689e-19)
(0.003 1.61949e-19 5.52475e-19)
(0.003 1.95139e-19 9.75715e-19)
(0.003 3.34732e-19 1.20533e-18)
(0.003 5.22088e-19 1.32776e-18)
(0.003 4.5614e-19 1.30138e-18)
(0.003 5.52637e-19 1.333e-18)
(0.003 6.06222e-19 1.41367e-18)
(0.003 5.68537e-19 1.33198e-18)
(0.003 6.06442e-19 1.27399e-18)
(0.003 5.13033e-19 1.25452e-18)
(0.003 4.20379e-19 1.17666e-18)
(0.003 3.31478e-19 1.14487e-18)
(0.003 3.48253e-19 1.02754e-18)
(0.003 2.64703e-19 9.27208e-19)
(0.003 2.68493e-19 9.0101e-19)
(0.003 2.41803e-19 8.69132e-19)
(0.003 3.16948e-19 9.09253e-19)
(0.003 4.54921e-19 7.98674e-19)
(0.003 2.08883e-19 5.86059e-19)
(0.003 1.1496e-19 5.13183e-19)
(0.003 2.82312e-19 5.96578e-19)
(0.003 2.56767e-19 6.25105e-19)
(0.003 3.23459e-19 6.01777e-19)
(0.003 2.61551e-19 6.27558e-19)
(0.003 3.19172e-19 5.62017e-19)
(0.003 2.4751e-19 5.38947e-19)
(0.003 1.85066e-19 5.20478e-19)
(0.003 5.13694e-20 5.40455e-19)
(0.003 7.95531e-20 5.20823e-19)
(0.003 1.393e-19 4.85397e-19)
(0.003 1.54622e-19 4.03103e-19)
(0.003 9.65052e-20 3.08204e-19)
(0.003 -8.28643e-20 2.5805e-19)
(0.003 -4.10909e-20 1.85156e-19)
(0.003 6.49728e-20 1.7111e-19)
(0.003 1.05029e-20 1.23739e-19)
(0.003 -1.98781e-20 5.23903e-20)
(0.003 -2.30386e-20 7.06257e-20)
(0.003 -5.24733e-20 1.23846e-19)
(0.003 -9.60243e-20 7.25176e-20)
(0.003 3.73422e-19 6.9089e-19)
(0.003 3.08534e-19 1.12723e-18)
(0.003 2.2318e-19 1.31987e-18)
(0.003 3.62173e-19 1.49348e-18)
(0.003 4.21985e-19 1.44298e-18)
(0.003 4.55136e-19 1.50499e-18)
(0.003 4.27488e-19 1.52782e-18)
(0.003 4.10037e-19 1.36823e-18)
(0.003 3.70731e-19 1.30905e-18)
(0.003 4.61358e-19 1.35222e-18)
(0.003 4.48808e-19 1.36589e-18)
(0.003 3.06256e-19 1.28766e-18)
(0.003 2.67372e-19 1.10092e-18)
(0.003 2.94027e-19 9.83674e-19)
(0.003 5.14931e-19 1.01771e-18)
(0.003 5.92422e-19 9.51897e-19)
(0.003 2.63517e-19 8.64425e-19)
(0.003 2.05906e-19 8.526e-19)
(0.003 2.87895e-19 6.69872e-19)
(0.003 2.00016e-19 6.02538e-19)
(0.003 1.45597e-19 6.72577e-19)
(0.003 2.07069e-19 6.93759e-19)
(0.003 2.87191e-19 7.12832e-19)
(0.003 2.55761e-19 7.43931e-19)
(0.003 3.12478e-19 7.18171e-19)
(0.003 1.78745e-19 5.80594e-19)
(0.003 8.80346e-20 5.00547e-19)
(0.003 4.36411e-20 4.80086e-19)
(0.003 9.2471e-20 5.39747e-19)
(0.003 2.02055e-20 5.4556e-19)
(0.003 1.48941e-20 3.82777e-19)
(0.003 1.09508e-20 2.94354e-19)
(0.003 -5.72132e-20 3.07146e-19)
(0.003 -1.38074e-20 2.1518e-19)
(0.003 6.46141e-20 1.8006e-19)
(0.003 2.76599e-20 1.38447e-19)
(0.003 6.0459e-20 9.23747e-20)
(0.003 6.86365e-20 9.00489e-20)
(0.003 -5.30656e-21 1.17128e-19)
(0.003 1.41934e-20 8.94167e-20)
(0.003 2.09662e-19 7.44437e-19)
(0.003 2.83689e-19 1.25205e-18)
(0.003 1.74516e-19 1.41474e-18)
(0.003 1.85196e-19 1.56296e-18)
(0.003 2.58441e-19 1.59217e-18)
(0.003 1.78781e-19 1.64536e-18)
(0.003 1.16425e-19 1.56534e-18)
(0.003 3.82148e-19 1.40048e-18)
(0.003 5.03607e-19 1.29257e-18)
(0.003 4.32355e-19 1.4375e-18)
(0.003 3.62883e-19 1.45264e-18)
(0.003 2.78364e-19 1.27175e-18)
(0.003 2.76106e-19 1.06719e-18)
(0.003 2.83572e-19 1.11858e-18)
(0.003 3.97168e-19 1.27053e-18)
(0.003 5.32174e-19 1.16029e-18)
(0.003 3.24502e-19 9.12263e-19)
(0.003 1.95473e-19 7.85943e-19)
(0.003 3.03023e-19 7.65696e-19)
(0.003 3.01957e-19 6.14369e-19)
(0.003 1.73983e-19 6.06011e-19)
(0.003 1.42211e-19 7.19123e-19)
(0.003 1.57203e-19 7.73254e-19)
(0.003 1.99071e-19 7.73427e-19)
(0.003 1.81369e-19 7.58009e-19)
(0.003 1.63566e-19 6.49862e-19)
(0.003 1.22964e-19 5.08123e-19)
(0.003 6.39852e-20 5.26108e-19)
(0.003 6.78769e-20 5.44477e-19)
(0.003 -1.44237e-20 4.3243e-19)
(0.003 6.35378e-20 3.80662e-19)
(0.003 9.74217e-20 3.48367e-19)
(0.003 -2.058e-20 2.37661e-19)
(0.003 -5.51501e-21 1.98568e-19)
(0.003 2.18457e-20 2.21107e-19)
(0.003 -1.8341e-20 1.44181e-19)
(0.003 7.47021e-20 1.24989e-19)
(0.003 6.90685e-20 4.67264e-20)
(0.003 -7.85571e-20 6.09619e-20)
(0.003 -6.71907e-20 1.11846e-19)
(0.003 5.30832e-20 7.85282e-19)
(0.003 2.12229e-19 1.321e-18)
(0.003 1.4476e-19 1.44807e-18)
(0.003 8.12076e-20 1.59984e-18)
(0.003 1.55865e-19 1.67071e-18)
(0.003 1.72169e-19 1.62882e-18)
(0.003 1.80709e-19 1.56507e-18)
(0.003 3.93275e-19 1.61759e-18)
(0.003 5.44442e-19 1.51966e-18)
(0.003 3.94117e-19 1.4001e-18)
(0.003 3.16697e-19 1.36829e-18)
(0.003 3.50218e-19 1.36229e-18)
(0.003 2.63767e-19 1.2755e-18)
(0.003 3.06533e-19 1.13971e-18)
(0.003 2.75245e-19 1.26354e-18)
(0.003 2.80046e-19 1.21488e-18)
(0.003 2.51805e-19 9.91216e-19)
(0.003 6.11825e-20 8.18742e-19)
(0.003 1.19534e-19 7.08389e-19)
(0.003 2.76647e-19 6.20162e-19)
(0.003 2.71903e-19 6.23368e-19)
(0.003 3.17293e-19 7.59981e-19)
(0.003 2.92302e-19 7.83994e-19)
(0.003 2.22027e-19 7.58493e-19)
(0.003 1.55782e-19 7.36729e-19)
(0.003 2.25046e-19 6.03397e-19)
(0.003 2.04841e-19 5.52252e-19)
(0.003 -1.93608e-20 4.71222e-19)
(0.003 -1.4499e-19 4.9437e-19)
(0.003 -5.39885e-20 5.30301e-19)
(0.003 1.75524e-19 4.73996e-19)
(0.003 2.28894e-19 3.5655e-19)
(0.003 4.48925e-20 1.90231e-19)
(0.003 -2.51322e-20 2.22464e-19)
(0.003 -2.09921e-20 2.67617e-19)
(0.003 3.68536e-20 1.22301e-19)
(0.003 -2.09841e-20 8.18506e-20)
(0.003 5.27943e-21 -4.20512e-21)
(0.003 1.22248e-19 -1.98496e-20)
(0.003 7.5302e-20 9.27602e-20)
(0.003 6.40756e-20 9.70173e-19)
(0.003 2.10945e-19 1.52316e-18)
(0.003 1.77363e-19 1.50877e-18)
(0.003 5.13816e-20 1.54541e-18)
(0.003 1.56996e-19 1.69389e-18)
(0.003 1.954e-19 1.74995e-18)
(0.003 2.82194e-19 1.65612e-18)
(0.003 4.97515e-19 1.58633e-18)
(0.003 4.90734e-19 1.59103e-18)
(0.003 3.82353e-19 1.54425e-18)
(0.003 2.64986e-19 1.49661e-18)
(0.003 2.32798e-19 1.38069e-18)
(0.003 2.51394e-19 1.25539e-18)
(0.003 3.70208e-19 1.23592e-18)
(0.003 2.43092e-19 1.2757e-18)
(0.003 1.67316e-19 1.19818e-18)
(0.003 1.86227e-19 9.6965e-19)
(0.003 1.88869e-19 7.39969e-19)
(0.003 2.08377e-19 6.72255e-19)
(0.003 1.1686e-19 6.34036e-19)
(0.003 1.92045e-19 7.2816e-19)
(0.003 3.26501e-19 8.87785e-19)
(0.003 2.66565e-19 8.22391e-19)
(0.003 1.64547e-19 7.74677e-19)
(0.003 7.19917e-20 7.18273e-19)
(0.003 2.36775e-19 6.38461e-19)
(0.003 1.52754e-19 5.32943e-19)
(0.003 3.55127e-20 3.85833e-19)
(0.003 -5.57295e-21 3.95293e-19)
(0.003 4.02103e-20 3.71791e-19)
(0.003 1.23801e-19 4.71226e-19)
(0.003 7.08182e-20 4.14655e-19)
(0.003 2.30005e-20 1.44946e-19)
(0.003 9.11745e-20 1.22859e-19)
(0.003 1.12233e-19 1.87557e-19)
(0.003 1.86635e-19 1.97719e-19)
(0.003 2.36119e-20 1.3352e-19)
(0.003 -4.08157e-20 3.15382e-20)
(0.003 5.72578e-20 3.72799e-20)
(0.003 6.55721e-20 7.08375e-20)
(0.003 1.75603e-19 8.52269e-19)
(0.003 1.68249e-19 1.43124e-18)
(0.003 1.46496e-19 1.53346e-18)
(0.003 1.82866e-19 1.60977e-18)
(0.003 2.06173e-19 1.77152e-18)
(0.003 2.8936e-19 1.78089e-18)
(0.003 3.88935e-19 1.72861e-18)
(0.003 3.3731e-19 1.73614e-18)
(0.003 3.07305e-19 1.71722e-18)
(0.003 3.48461e-19 1.68112e-18)
(0.003 2.16173e-19 1.54581e-18)
(0.003 1.72783e-19 1.40194e-18)
(0.003 2.53995e-19 1.2576e-18)
(0.003 3.11357e-19 1.21462e-18)
(0.003 2.86045e-19 1.29927e-18)
(0.003 1.85717e-19 1.28543e-18)
(0.003 8.48969e-20 1.01836e-18)
(0.003 1.75891e-19 7.44341e-19)
(0.003 3.2501e-19 6.28246e-19)
(0.003 2.76227e-19 5.25351e-19)
(0.003 1.42671e-19 6.47307e-19)
(0.003 9.79097e-20 8.75239e-19)
(0.003 1.08711e-19 8.63705e-19)
(0.003 8.74391e-20 8.28432e-19)
(0.003 1.33383e-19 7.35712e-19)
(0.003 1.73955e-19 6.34732e-19)
(0.003 1.86532e-19 5.47346e-19)
(0.003 1.75475e-19 4.10294e-19)
(0.003 7.48542e-20 3.47131e-19)
(0.003 1.49115e-19 3.75515e-19)
(0.003 -3.02585e-20 4.94468e-19)
(0.003 -7.20011e-20 3.79515e-19)
(0.003 3.71169e-20 2.51555e-19)
(0.003 8.78845e-20 2.29377e-19)
(0.003 2.20321e-19 1.86643e-19)
(0.003 5.09389e-20 -2.44125e-20)
(0.003 -6.89428e-20 -2.75155e-20)
(0.003 -2.96185e-20 1.09844e-19)
(0.003 -2.36477e-20 8.30734e-20)
(0.003 2.81409e-20 4.37544e-20)
(0.003 -8.0773e-20 8.79124e-19)
(0.003 -6.06246e-20 1.5615e-18)
(0.003 1.00441e-19 1.5949e-18)
(0.003 1.44698e-19 1.70223e-18)
(0.003 2.76167e-19 1.78256e-18)
(0.003 4.40242e-19 1.86274e-18)
(0.003 4.17895e-19 1.81413e-18)
(0.003 1.6657e-19 1.72372e-18)
(0.003 1.46228e-19 1.72992e-18)
(0.003 2.5358e-19 1.73966e-18)
(0.003 2.31952e-19 1.57287e-18)
(0.003 1.05826e-19 1.43128e-18)
(0.003 1.16551e-19 1.2499e-18)
(0.003 2.54533e-19 1.23149e-18)
(0.003 3.16529e-19 1.33106e-18)
(0.003 1.9252e-19 1.24632e-18)
(0.003 2.39635e-19 1.02849e-18)
(0.003 1.94381e-19 7.31714e-19)
(0.003 2.53021e-20 7.33795e-19)
(0.003 1.05453e-19 7.03473e-19)
(0.003 2.12843e-19 6.52112e-19)
(0.003 9.80347e-20 8.16089e-19)
(0.003 1.63432e-19 8.83019e-19)
(0.003 2.11446e-19 8.57105e-19)
(0.003 2.06859e-19 7.02117e-19)
(0.003 7.25324e-20 6.04698e-19)
(0.003 1.57996e-20 5.75304e-19)
(0.003 1.1376e-19 4.63627e-19)
(0.003 1.16286e-19 3.32986e-19)
(0.003 5.87316e-20 4.24993e-19)
(0.003 -1.00931e-19 4.42472e-19)
(0.003 -1.23893e-19 3.62326e-19)
(0.003 5.45733e-20 2.64325e-19)
(0.003 8.04731e-20 1.7334e-19)
(0.003 2.67763e-20 -5.22769e-20)
(0.003 -2.04456e-20 -2.40735e-19)
(0.003 7.44236e-20 -7.43885e-21)
(0.003 3.85948e-20 9.31991e-20)
(0.003 -1.02716e-20 3.01747e-20)
(0.003 -1.52995e-20 2.44333e-20)
(0.003 -2.10463e-19 9.13306e-19)
(0.003 -7.04948e-20 1.40263e-18)
(0.003 1.43696e-19 1.54556e-18)
(0.003 3.10914e-19 1.77502e-18)
(0.003 2.41225e-19 1.93673e-18)
(0.003 2.25014e-19 1.93649e-18)
(0.003 3.71705e-19 1.90505e-18)
(0.003 2.69578e-19 1.83452e-18)
(0.003 1.83706e-19 1.67106e-18)
(0.003 1.45746e-19 1.65404e-18)
(0.003 2.09433e-19 1.56911e-18)
(0.003 7.66217e-20 1.34307e-18)
(0.003 4.79498e-20 1.25209e-18)
(0.003 1.56053e-19 1.34142e-18)
(0.003 2.18566e-19 1.36632e-18)
(0.003 2.71831e-19 1.23243e-18)
(0.003 3.17797e-19 1.03106e-18)
(0.003 1.57972e-19 7.63272e-19)
(0.003 -1.23228e-19 6.35477e-19)
(0.003 -4.04973e-20 6.04722e-19)
(0.003 2.34622e-19 7.68759e-19)
(0.003 3.08839e-19 9.17925e-19)
(0.003 2.12352e-19 9.72026e-19)
(0.003 2.32919e-19 9.26171e-19)
(0.003 2.89452e-19 8.00775e-19)
(0.003 7.4637e-20 6.37149e-19)
(0.003 -1.86797e-19 4.85062e-19)
(0.003 -1.16842e-19 4.62122e-19)
(0.003 8.13625e-20 4.64706e-19)
(0.003 7.81806e-20 4.29277e-19)
(0.003 -2.88496e-20 3.13174e-19)
(0.003 -5.75028e-20 3.62169e-19)
(0.003 5.90863e-20 3.39411e-19)
(0.003 2.309e-20 1.88735e-19)
(0.003 -4.3838e-20 -1.2691e-20)
(0.003 5.23636e-20 -3.0638e-19)
(0.003 9.17755e-20 -4.12356e-19)
(0.003 9.2569e-20 -2.33591e-19)
(0.003 1.19241e-19 -1.06109e-19)
(0.003 8.16195e-20 -1.19772e-19)
(0.003 4.57064e-20 1.03875e-18)
(0.003 1.81132e-19 1.57524e-18)
(0.003 2.59225e-19 1.66758e-18)
(0.003 2.8305e-19 1.81994e-18)
(0.003 1.99212e-19 1.90549e-18)
(0.003 2.28497e-19 1.94634e-18)
(0.003 1.93646e-19 1.99805e-18)
(0.003 1.98854e-19 1.93376e-18)
(0.003 1.28775e-19 1.80669e-18)
(0.003 1.53726e-19 1.60871e-18)
(0.003 2.22458e-19 1.37685e-18)
(0.003 1.55795e-19 1.26082e-18)
(0.003 1.25861e-19 1.19065e-18)
(0.003 1.0002e-19 1.17387e-18)
(0.003 1.32433e-19 1.3356e-18)
(0.003 2.86951e-19 1.36259e-18)
(0.003 2.29239e-19 1.11994e-18)
(0.003 1.18255e-19 7.15097e-19)
(0.003 8.94083e-20 5.9028e-19)
(0.003 1.15228e-19 6.96896e-19)
(0.003 2.27898e-19 8.66981e-19)
(0.003 3.44812e-19 1.01813e-18)
(0.003 1.98598e-19 1.03118e-18)
(0.003 1.41092e-19 9.84713e-19)
(0.003 9.3731e-20 7.90439e-19)
(0.003 -6.01391e-20 5.54323e-19)
(0.003 -4.64358e-20 4.95064e-19)
(0.003 2.19943e-20 4.86529e-19)
(0.003 3.59117e-21 4.43448e-19)
(0.003 -4.61052e-20 5.39509e-19)
(0.003 -3.71438e-20 4.88482e-19)
(0.003 1.3195e-20 3.38347e-19)
(0.003 3.82534e-20 2.75978e-19)
(0.003 7.22816e-22 1.5622e-19)
(0.003 -9.63017e-20 -4.4008e-20)
(0.003 -9.57084e-20 -3.21643e-19)
(0.003 -2.37741e-20 -4.4061e-19)
(0.003 1.22231e-19 -2.41869e-19)
(0.003 2.03664e-19 -1.47491e-19)
(0.003 2.17046e-19 -1.58576e-19)
(0.003 2.05907e-19 1.06123e-18)
(0.003 2.16542e-19 1.6382e-18)
(0.003 1.96591e-19 1.73326e-18)
(0.003 1.7496e-19 1.77458e-18)
(0.003 2.41307e-19 1.92005e-18)
(0.003 1.8658e-19 2.02093e-18)
(0.003 1.10883e-19 1.93196e-18)
(0.003 2.18772e-19 1.90575e-18)
(0.003 1.5304e-19 1.69992e-18)
(0.003 4.88335e-20 1.63926e-18)
(0.003 1.43719e-19 1.47431e-18)
(0.003 2.10742e-19 1.2912e-18)
(0.003 2.18269e-19 1.30035e-18)
(0.003 1.95752e-19 1.27083e-18)
(0.003 1.14739e-19 1.30663e-18)
(0.003 6.22849e-20 1.24797e-18)
(0.003 5.14355e-20 1.02375e-18)
(0.003 1.68684e-19 7.5027e-19)
(0.003 3.17988e-19 6.85146e-19)
(0.003 2.9902e-19 7.59518e-19)
(0.003 1.48556e-19 9.08986e-19)
(0.003 7.47248e-20 9.94134e-19)
(0.003 4.14449e-20 9.35969e-19)
(0.003 6.77339e-20 9.3651e-19)
(0.003 -9.02155e-20 8.54772e-19)
(0.003 -1.31617e-19 6.37649e-19)
(0.003 9.12773e-21 5.5684e-19)
(0.003 9.0383e-20 5.40685e-19)
(0.003 3.12517e-21 4.15744e-19)
(0.003 -1.56364e-19 4.78084e-19)
(0.003 3.10204e-20 5.03098e-19)
(0.003 8.76297e-20 3.87216e-19)
(0.003 -6.55391e-20 2.41964e-19)
(0.003 7.73304e-21 8.3253e-20)
(0.003 6.5611e-20 -5.20716e-20)
(0.003 -1.06115e-19 -2.91349e-19)
(0.003 -1.58251e-19 -4.17918e-19)
(0.003 2.44519e-20 -2.32861e-19)
(0.003 1.05881e-19 -1.94262e-19)
(0.003 9.83274e-20 -2.4797e-19)
(0.003 2.47486e-19 1.05299e-18)
(0.003 2.65246e-19 1.64912e-18)
(0.003 2.13978e-19 1.77309e-18)
(0.003 2.31718e-19 1.85766e-18)
(0.003 9.07672e-20 1.95233e-18)
(0.003 -3.08701e-20 1.98639e-18)
(0.003 1.30203e-19 1.95967e-18)
(0.003 1.5571e-19 1.90167e-18)
(0.003 1.80842e-19 1.72666e-18)
(0.003 1.11652e-19 1.58374e-18)
(0.003 6.18849e-21 1.46158e-18)
(0.003 2.06797e-19 1.38383e-18)
(0.003 3.04624e-19 1.3472e-18)
(0.003 1.92499e-19 1.32366e-18)
(0.003 1.07816e-19 1.28759e-18)
(0.003 2.21177e-20 1.20051e-18)
(0.003 7.25764e-20 9.24411e-19)
(0.003 1.43739e-19 7.46627e-19)
(0.003 1.85762e-19 7.97454e-19)
(0.003 2.22567e-19 8.99038e-19)
(0.003 1.9949e-19 8.90466e-19)
(0.003 1.05668e-19 9.20366e-19)
(0.003 1.19185e-19 9.38302e-19)
(0.003 1.39684e-21 9.67204e-19)
(0.003 -1.82945e-19 7.96413e-19)
(0.003 -2.09852e-19 5.78594e-19)
(0.003 -1.503e-19 5.7967e-19)
(0.003 4.9497e-20 5.74532e-19)
(0.003 7.37041e-22 4.58864e-19)
(0.003 -1.94852e-19 4.138e-19)
(0.003 -3.57183e-21 5.09567e-19)
(0.003 1.12043e-19 4.1895e-19)
(0.003 -9.58744e-21 1.898e-19)
(0.003 3.15059e-20 1.07596e-19)
(0.003 6.23351e-20 2.86805e-20)
(0.003 -7.48552e-20 -3.58086e-19)
(0.003 -8.26479e-21 -4.05735e-19)
(0.003 -6.54268e-20 -1.9368e-19)
(0.003 -2.43255e-19 -1.42994e-19)
(0.003 -2.29033e-19 -2.06284e-19)
(0.003 1.0029e-20 1.15581e-18)
(0.003 2.00989e-19 1.77086e-18)
(0.003 2.2611e-19 1.82179e-18)
(0.003 9.73868e-20 1.91814e-18)
(0.003 -5.5693e-20 1.94095e-18)
(0.003 -2.61881e-20 1.93523e-18)
(0.003 1.54216e-19 1.92496e-18)
(0.003 2.61987e-19 1.83091e-18)
(0.003 1.72377e-19 1.67289e-18)
(0.003 2.00631e-20 1.64123e-18)
(0.003 -2.60719e-20 1.47402e-18)
(0.003 2.5467e-19 1.37022e-18)
(0.003 3.22433e-19 1.43405e-18)
(0.003 1.61466e-19 1.31851e-18)
(0.003 7.20377e-20 1.27057e-18)
(0.003 7.86697e-20 1.1761e-18)
(0.003 1.39746e-19 1.02867e-18)
(0.003 2.32021e-19 8.44757e-19)
(0.003 2.0387e-19 7.78743e-19)
(0.003 1.6903e-19 8.33474e-19)
(0.003 2.23222e-19 8.83637e-19)
(0.003 7.50124e-20 9.65188e-19)
(0.003 4.36474e-20 9.59867e-19)
(0.003 -7.47385e-20 9.27205e-19)
(0.003 -9.96281e-20 8.39823e-19)
(0.003 1.18256e-20 5.52846e-19)
(0.003 -3.44448e-20 4.21481e-19)
(0.003 -1.12387e-19 5.98948e-19)
(0.003 -8.96598e-20 5.22124e-19)
(0.003 -8.08159e-20 3.61664e-19)
(0.003 -2.33376e-19 5.33577e-19)
(0.003 -1.15697e-19 4.75037e-19)
(0.003 7.1689e-20 2.79209e-19)
(0.003 -5.03054e-20 1.16437e-19)
(0.003 -1.12853e-19 -3.26858e-20)
(0.003 -3.04702e-20 -3.71879e-19)
(0.003 -3.48292e-20 -4.84477e-19)
(0.003 -1.27972e-19 -4.2194e-19)
(0.003 -2.34788e-19 -3.27074e-19)
(0.003 -3.42965e-19 -3.5388e-19)
(0.003 -2.23909e-19 1.17301e-18)
(0.003 -1.88031e-19 1.73569e-18)
(0.003 6.58585e-20 1.86506e-18)
(0.003 2.02588e-20 1.84195e-18)
(0.003 5.10983e-20 1.90805e-18)
(0.003 4.28192e-20 1.94594e-18)
(0.003 7.88512e-20 1.93172e-18)
(0.003 2.23499e-19 1.86383e-18)
(0.003 8.02699e-20 1.72794e-18)
(0.003 -9.30289e-20 1.58201e-18)
(0.003 1.18412e-19 1.49061e-18)
(0.003 2.60439e-19 1.48955e-18)
(0.003 2.232e-19 1.49042e-18)
(0.003 1.1701e-19 1.33833e-18)
(0.003 1.13868e-19 1.15149e-18)
(0.003 1.01733e-19 1.1437e-18)
(0.003 1.53153e-19 1.00463e-18)
(0.003 2.96396e-19 8.71728e-19)
(0.003 2.15633e-19 8.76129e-19)
(0.003 1.46032e-19 8.62965e-19)
(0.003 1.83777e-19 9.01086e-19)
(0.003 7.95393e-20 9.05175e-19)
(0.003 -8.41717e-20 9.7572e-19)
(0.003 -1.92773e-19 8.98937e-19)
(0.003 -1.27474e-19 7.81285e-19)
(0.003 1.22686e-19 6.74653e-19)
(0.003 1.58597e-19 4.76342e-19)
(0.003 -8.12616e-20 5.37772e-19)
(0.003 -1.32551e-19 5.0478e-19)
(0.003 -4.90219e-20 3.47978e-19)
(0.003 -1.09842e-19 4.13255e-19)
(0.003 -1.4903e-19 4.52652e-19)
(0.003 -3.34279e-20 3.72085e-19)
(0.003 -3.86545e-20 8.39166e-20)
(0.003 -7.37433e-20 -2.3124e-20)
(0.003 -4.88306e-20 -2.91615e-19)
(0.003 -1.46378e-19 -5.27691e-19)
(0.003 -1.29207e-19 -3.91297e-19)
(0.003 -9.51907e-20 -3.49281e-19)
(0.003 -2.03412e-19 -3.83547e-19)
(0.003 -7.6835e-20 1.07388e-18)
(0.003 -2.58106e-19 1.75049e-18)
(0.003 -1.83744e-19 1.96824e-18)
(0.003 -1.38959e-19 1.9312e-18)
(0.003 3.05712e-20 1.9663e-18)
(0.003 5.19902e-20 1.94923e-18)
(0.003 -3.03862e-20 1.87897e-18)
(0.003 -1.02073e-20 1.85037e-18)
(0.003 1.69903e-20 1.72636e-18)
(0.003 6.7555e-20 1.51116e-18)
(0.003 1.46481e-19 1.54887e-18)
(0.003 1.47901e-19 1.58339e-18)
(0.003 3.72528e-20 1.5646e-18)
(0.003 1.69107e-19 1.37295e-18)
(0.003 2.80102e-19 1.22691e-18)
(0.003 1.67282e-19 1.16214e-18)
(0.003 1.33522e-19 9.71242e-19)
(0.003 1.59523e-19 8.52749e-19)
(0.003 1.89529e-19 7.94312e-19)
(0.003 9.56534e-20 8.07566e-19)
(0.003 1.20623e-19 9.11184e-19)
(0.003 9.83931e-20 1.01211e-18)
(0.003 -5.55225e-21 9.94502e-19)
(0.003 -1.73922e-19 8.06616e-19)
(0.003 -1.555e-19 6.48585e-19)
(0.003 -8.45084e-20 6.71502e-19)
(0.003 7.01594e-20 5.3296e-19)
(0.003 7.68797e-20 4.4416e-19)
(0.003 2.95189e-21 5.20774e-19)
(0.003 2.91056e-20 3.93796e-19)
(0.003 -5.56845e-20 3.75837e-19)
(0.003 -3.58884e-20 4.32852e-19)
(0.003 -3.85816e-20 3.74842e-19)
(0.003 -9.92296e-20 1.45393e-19)
(0.003 -1.66616e-19 -3.92967e-20)
(0.003 -1.4643e-19 -3.40059e-19)
(0.003 -7.17566e-20 -4.2294e-19)
(0.003 -1.21992e-19 -1.68638e-19)
(0.003 -8.44446e-20 -1.96914e-19)
(0.003 -2.55282e-20 -3.09433e-19)
(0.003 -1.46427e-19 1.03054e-18)
(0.003 -1.21751e-19 1.66567e-18)
(0.003 -4.48958e-20 1.92199e-18)
(0.003 -1.26183e-19 1.94434e-18)
(0.003 -1.45891e-19 2.00581e-18)
(0.003 -1.10897e-20 2.03038e-18)
(0.003 -7.34659e-20 1.98282e-18)
(0.003 -1.68059e-19 1.91799e-18)
(0.003 4.60303e-20 1.80199e-18)
(0.003 2.39034e-19 1.57827e-18)
(0.003 1.29495e-19 1.52627e-18)
(0.003 5.01528e-20 1.58796e-18)
(0.003 -3.15075e-20 1.51303e-18)
(0.003 9.27764e-20 1.43769e-18)
(0.003 2.62002e-19 1.24432e-18)
(0.003 1.97318e-19 1.08347e-18)
(0.003 1.06374e-19 9.33604e-19)
(0.003 -1.9554e-20 8.79505e-19)
(0.003 1.76686e-19 9.14517e-19)
(0.003 2.29896e-19 8.55054e-19)
(0.003 2.10667e-19 9.54999e-19)
(0.003 1.27428e-20 8.83062e-19)
(0.003 -1.67602e-19 8.95867e-19)
(0.003 -1.6275e-19 7.4402e-19)
(0.003 -8.28783e-20 6.51946e-19)
(0.003 -4.04894e-20 6.1846e-19)
(0.003 5.90595e-20 5.1136e-19)
(0.003 1.24885e-19 5.89095e-19)
(0.003 4.05112e-20 5.18879e-19)
(0.003 3.55426e-20 4.15749e-19)
(0.003 2.51319e-20 3.49886e-19)
(0.003 -7.3706e-20 3.37559e-19)
(0.003 -1.67901e-19 3.41875e-19)
(0.003 -2.30834e-19 2.25707e-19)
(0.003 -3.00996e-19 1.33777e-19)
(0.003 -1.55172e-19 -1.58185e-19)
(0.003 3.90859e-20 -3.83901e-19)
(0.003 2.25999e-20 -1.65389e-19)
(0.003 -7.33101e-20 -2.8555e-19)
(0.003 -6.21069e-20 -3.72426e-19)
(0.003 -1.79185e-19 9.56869e-19)
(0.003 -1.74109e-19 1.70602e-18)
(0.003 -1.24749e-19 2.02895e-18)
(0.003 6.52213e-21 1.99019e-18)
(0.003 -5.45209e-21 1.92894e-18)
(0.003 -1.08165e-19 2.00167e-18)
(0.003 -1.74564e-19 1.96424e-18)
(0.003 -2.01116e-19 1.88878e-18)
(0.003 -1.47556e-20 1.85533e-18)
(0.003 8.26421e-20 1.67769e-18)
(0.003 1.24244e-19 1.5168e-18)
(0.003 1.07467e-19 1.53519e-18)
(0.003 8.93899e-20 1.47754e-18)
(0.003 -2.30516e-20 1.44061e-18)
(0.003 7.74577e-20 1.3553e-18)
(0.003 1.19826e-19 1.19252e-18)
(0.003 1.00147e-19 9.95333e-19)
(0.003 1.80498e-19 7.84893e-19)
(0.003 2.63954e-19 8.29997e-19)
(0.003 3.01458e-19 8.65585e-19)
(0.003 7.59564e-20 9.70553e-19)
(0.003 -2.02276e-19 9.80673e-19)
(0.003 -2.32736e-19 8.80479e-19)
(0.003 -8.56693e-20 6.77358e-19)
(0.003 -7.06605e-20 6.2801e-19)
(0.003 1.41764e-20 6.23046e-19)
(0.003 8.75679e-20 6.10252e-19)
(0.003 2.63135e-21 5.9753e-19)
(0.003 9.61958e-21 4.70396e-19)
(0.003 5.80674e-20 4.07309e-19)
(0.003 1.10085e-19 3.23574e-19)
(0.003 -1.55934e-19 2.57476e-19)
(0.003 -2.209e-19 2.61677e-19)
(0.003 -1.11356e-19 2.72957e-19)
(0.003 -1.44661e-19 1.36114e-19)
(0.003 -1.62508e-19 4.67959e-20)
(0.003 -1.09321e-19 -1.54061e-19)
(0.003 -1.31861e-20 -2.13346e-19)
(0.003 1.96066e-20 -3.27303e-19)
(0.003 7.39835e-20 -3.51473e-19)
(0.003 -6.93801e-20 1.0267e-18)
(0.003 -1.23069e-19 1.65213e-18)
(0.003 -1.36255e-19 1.86604e-18)
(0.003 4.34725e-20 2.0212e-18)
(0.003 2.43877e-21 2.04571e-18)
(0.003 -2.37039e-19 1.9767e-18)
(0.003 -2.54442e-19 1.93198e-18)
(0.003 -1.62519e-19 1.94509e-18)
(0.003 7.00566e-20 1.87988e-18)
(0.003 1.25228e-19 1.68959e-18)
(0.003 1.34258e-20 1.5659e-18)
(0.003 1.45419e-20 1.54693e-18)
(0.003 1.03694e-19 1.49119e-18)
(0.003 1.06075e-19 1.39284e-18)
(0.003 -1.84042e-20 1.32939e-18)
(0.003 -9.4036e-21 1.22955e-18)
(0.003 5.36333e-20 1.09758e-18)
(0.003 1.87476e-19 9.09047e-19)
(0.003 3.11844e-19 8.69135e-19)
(0.003 1.66337e-19 8.9266e-19)
(0.003 -1.39428e-19 8.87541e-19)
(0.003 -1.73886e-19 8.1333e-19)
(0.003 -9.0217e-20 8.70224e-19)
(0.003 -1.71017e-20 7.80464e-19)
(0.003 -5.2055e-20 6.06831e-19)
(0.003 -7.10346e-20 6.0092e-19)
(0.003 1.14812e-19 6.35013e-19)
(0.003 1.30409e-19 5.48966e-19)
(0.003 2.16719e-20 4.12863e-19)
(0.003 -1.28662e-21 4.27182e-19)
(0.003 7.25416e-21 3.5234e-19)
(0.003 -7.27382e-20 1.89425e-19)
(0.003 -8.54171e-20 2.14502e-19)
(0.003 -3.38355e-20 3.10601e-19)
(0.003 -2.26815e-20 1.46888e-19)
(0.003 -8.13752e-20 1.04631e-19)
(0.003 -3.91012e-20 1.15464e-20)
(0.003 -5.05414e-20 -1.23768e-19)
(0.003 3.78846e-20 -2.40171e-19)
(0.003 1.52948e-19 -3.00836e-19)
(0.003 1.16183e-19 1.0184e-18)
(0.003 1.77257e-19 1.72674e-18)
(0.003 8.12108e-20 1.82742e-18)
(0.003 -8.20169e-20 1.93422e-18)
(0.003 -2.09053e-19 2.02082e-18)
(0.003 -1.73278e-19 1.90779e-18)
(0.003 -1.72431e-19 1.84173e-18)
(0.003 -1.88727e-19 1.90087e-18)
(0.003 -9.91786e-20 1.96702e-18)
(0.003 6.25802e-20 1.83159e-18)
(0.003 1.28154e-19 1.56859e-18)
(0.003 1.13638e-19 1.56692e-18)
(0.003 1.80912e-19 1.44625e-18)
(0.003 2.18823e-19 1.45296e-18)
(0.003 -2.22714e-20 1.40339e-18)
(0.003 -1.59212e-19 1.25138e-18)
(0.003 -1.5291e-19 1.0142e-18)
(0.003 -1.28571e-19 8.35026e-19)
(0.003 1.92503e-21 9.47025e-19)
(0.003 1.91307e-20 8.4717e-19)
(0.003 -8.32876e-20 7.88486e-19)
(0.003 -3.22637e-20 8.71491e-19)
(0.003 -5.1406e-20 9.38722e-19)
(0.003 5.82671e-21 7.93801e-19)
(0.003 1.33335e-19 5.75616e-19)
(0.003 3.46783e-20 5.87992e-19)
(0.003 1.11033e-20 7.21593e-19)
(0.003 6.73402e-20 6.25639e-19)
(0.003 6.90411e-20 4.25325e-19)
(0.003 -1.8703e-21 3.39092e-19)
(0.003 -5.97799e-20 3.52393e-19)
(0.003 -3.64898e-20 2.10808e-19)
(0.003 -1.10472e-20 1.88362e-19)
(0.003 -2.32914e-20 2.73713e-19)
(0.003 6.96528e-20 1.91172e-19)
(0.003 1.14433e-19 1.76316e-19)
(0.003 6.59386e-20 6.52041e-20)
(0.003 4.18804e-21 -1.94323e-19)
(0.003 -4.81516e-20 -4.02774e-19)
(0.003 -8.76176e-20 -4.15324e-19)
(0.003 3.21292e-19 1.04518e-18)
(0.003 2.50534e-19 1.64026e-18)
(0.003 2.6495e-20 1.78465e-18)
(0.003 -8.97979e-20 1.91266e-18)
(0.003 -5.16108e-20 1.90283e-18)
(0.003 3.5964e-20 1.89099e-18)
(0.003 -6.69111e-21 1.86484e-18)
(0.003 -2.10388e-19 1.81517e-18)
(0.003 -2.7508e-19 1.85564e-18)
(0.003 -6.64196e-20 1.9205e-18)
(0.003 1.83739e-19 1.80171e-18)
(0.003 1.80722e-19 1.6929e-18)
(0.003 1.44845e-19 1.53512e-18)
(0.003 1.54669e-19 1.45058e-18)
(0.003 -5.37329e-20 1.39065e-18)
(0.003 -1.34455e-19 1.20206e-18)
(0.003 -1.09219e-19 9.57549e-19)
(0.003 -1.27451e-19 8.09115e-19)
(0.003 -2.16359e-19 9.77924e-19)
(0.003 -1.31426e-19 9.27292e-19)
(0.003 -8.68206e-20 8.10896e-19)
(0.003 -1.01495e-19 7.98875e-19)
(0.003 -5.59835e-20 8.55742e-19)
(0.003 -1.56998e-20 7.69656e-19)
(0.003 1.76291e-19 7.39755e-19)
(0.003 1.74755e-19 6.82713e-19)
(0.003 -5.18471e-20 5.96297e-19)
(0.003 -2.63013e-20 5.66057e-19)
(0.003 5.40664e-20 4.74822e-19)
(0.003 6.20816e-21 3.80059e-19)
(0.003 -1.07829e-20 3.49862e-19)
(0.003 -1.08557e-20 1.59389e-19)
(0.003 -6.5913e-20 1.25744e-19)
(0.003 -1.49475e-21 2.43472e-19)
(0.003 1.68387e-19 2.32785e-19)
(0.003 2.364e-19 2.05955e-19)
(0.003 5.24666e-20 4.45836e-20)
(0.003 -4.2915e-20 -2.28837e-19)
(0.003 -1.59734e-19 -4.43219e-19)
(0.003 -2.34493e-19 -3.87999e-19)
(0.003 2.39122e-19 1.04728e-18)
(0.003 1.92436e-19 1.63606e-18)
(0.003 -3.11488e-20 1.78205e-18)
(0.003 1.15371e-20 1.85587e-18)
(0.003 1.83715e-19 1.92546e-18)
(0.003 1.7649e-19 1.87744e-18)
(0.003 4.40512e-20 1.83191e-18)
(0.003 -1.14896e-19 1.72666e-18)
(0.003 -1.77434e-19 1.76637e-18)
(0.003 -2.06466e-19 1.95082e-18)
(0.003 -5.77175e-20 1.89579e-18)
(0.003 5.92683e-20 1.72404e-18)
(0.003 5.80896e-20 1.60205e-18)
(0.003 -1.76419e-19 1.50828e-18)
(0.003 -1.62733e-19 1.39687e-18)
(0.003 -7.1834e-20 1.23943e-18)
(0.003 -1.46315e-19 1.04969e-18)
(0.003 -1.76908e-19 8.42433e-19)
(0.003 -2.84992e-19 8.46835e-19)
(0.003 -1.48962e-19 8.99992e-19)
(0.003 -4.94759e-20 8.55753e-19)
(0.003 -3.81611e-20 7.91143e-19)
(0.003 7.61625e-20 8.39443e-19)
(0.003 9.74813e-20 7.53653e-19)
(0.003 8.59432e-20 6.79379e-19)
(0.003 1.76629e-19 6.96112e-19)
(0.003 4.87664e-20 6.51168e-19)
(0.003 9.30812e-21 6.19665e-19)
(0.003 5.70565e-21 5.15321e-19)
(0.003 -4.55895e-20 2.95378e-19)
(0.003 -2.21842e-21 2.62709e-19)
(0.003 5.62017e-20 1.58778e-19)
(0.003 -1.50356e-20 4.31895e-20)
(0.003 7.90978e-20 1.91792e-19)
(0.003 3.00837e-19 3.7975e-19)
(0.003 1.9606e-19 2.26449e-19)
(0.003 5.33691e-20 -2.19866e-19)
(0.003 -2.64328e-20 -4.14924e-19)
(0.003 -1.82517e-20 -4.57927e-19)
(0.003 -2.06753e-20 -2.30417e-19)
(0.003 -1.19341e-19 1.06051e-18)
(0.003 -7.30079e-20 1.69807e-18)
(0.003 5.79404e-20 1.78028e-18)
(0.003 1.24098e-20 1.78904e-18)
(0.003 2.08534e-20 1.86197e-18)
(0.003 1.1263e-19 1.9637e-18)
(0.003 1.10533e-19 1.85478e-18)
(0.003 1.39545e-19 1.65307e-18)
(0.003 -7.11264e-20 1.74012e-18)
(0.003 -1.90827e-19 1.8601e-18)
(0.003 -1.25372e-19 1.86856e-18)
(0.003 -1.34877e-19 1.78945e-18)
(0.003 -2.44368e-19 1.66677e-18)
(0.003 -2.13943e-19 1.39546e-18)
(0.003 -1.2986e-19 1.25217e-18)
(0.003 -1.65059e-19 1.1744e-18)
(0.003 -2.1031e-19 1.03275e-18)
(0.003 -1.74283e-19 9.24997e-19)
(0.003 -1.84166e-19 9.03566e-19)
(0.003 -2.52008e-19 9.01645e-19)
(0.003 -1.95036e-19 8.59056e-19)
(0.003 7.30499e-20 8.19076e-19)
(0.003 2.42413e-19 8.38266e-19)
(0.003 1.90185e-19 8.04333e-19)
(0.003 1.28819e-19 8.42547e-19)