/*--------------------------------*- C++ -*----------------------------------*\
| =========                 |                                                 |
| \\      /  F ield         | OpenFOAM: The Open Source CFD Toolbox           |
|  \\    /   O peration     | Version:  v2012                                 |
|   \\  /    A nd           | Website:  www.openfoam.com                      |
|    \\/     M anipulation  |                                                 |
\*---------------------------------------------------------------------------*/
FoamFile
{
    version     2.0;
    format      ascii;
    class       volScalarField;
    location    "490/topAir";
    object      rho;
}
// * * * * * * * * * * * * * * * * * * * * * * * * * * * * * * * * * * * * * //

dimensions      [1 -3 0 0 0 0 0];


internalField   nonuniform List<scalar> 
1200
(
1.0707761
1.000617
0.9446103
0.89818558
0.85840702
0.823541
0.79261019
0.76526197
0.74151912
0.72094853
0.70332939
0.68864029
0.67725443
0.67709209
0.68026522
0.68677989
0.69580499
0.70601773
0.71612749
0.72519338
0.73267777
0.73834265
0.74213616
0.74411166
0.74437732
0.74303037
0.74006469
0.73522212
0.72774778
0.71671421
1.1565778
1.152743
1.1475351
1.1412156
1.1339778
1.1259757
1.1173508
1.107651
1.0945319
1.0774362
1.0540902
1.0235582
0.9866175
0.9493452
0.91545579
0.88734083
0.8654751
0.8495335
0.83897217
0.83302836
0.83054132
0.83009411
0.83037735
0.83036817
0.82931284
0.82655783
0.82130951
0.81231661
0.79734175
0.77487079
1.1585746
1.1584461
1.1582075
1.1578356
1.1573105
1.1566155
1.1557375
1.154652
1.153276
1.1515162
1.1491092
1.1418487
1.1224462
1.0894929
1.0482796
1.0044462
0.96387614
0.9291314
0.90117835
0.88002649
0.86496451
0.85477227
0.84806198
0.84354663
0.84015363
0.83699487
0.83324815
0.82790763
0.81920999
0.80471571
1.158618
1.1586137
1.1586035
1.1585833
1.1585485
1.1584928
1.1584094
1.1582894
1.1581198
1.1578808
1.1575251
1.1567569
1.1542677
1.1406783
1.1060679
1.0618511
1.0194567
0.98120458
0.9481664
0.92094738
0.89954001
0.88332913
0.87132739
0.86247168
0.85580306
0.85051731
0.84590514
0.84120623
0.83523691
0.82610409
1.0707974
1.001343
0.94649167
0.90155029
0.86358253
0.8308969
0.80253972
0.77800123
0.75710386
0.73991689
0.72676171
0.71814072
0.71488588
0.72712258
0.74423931
0.76376182
0.78205697
0.7965566
0.80661088
0.81292967
0.81658516
0.81829732
0.81839466
0.81698929
0.81416381
0.80995209
0.80420921
0.79625136
0.78424186
0.76734472
1.1565806
1.1528173
1.1478053
1.1418428
1.1351586
1.1279442
1.1203888
1.1127006
1.1051241
1.0979614
1.0916166
1.0865954
1.0835034
1.0831525
1.0845918
1.0853465
1.0829108
1.0768928
1.0685121
1.0591189
1.0493453
1.0391653
1.0284202
1.0169667
1.0047143
0.99161727
0.97770733
0.96320596
0.94798563
0.92316736
1.1585748
1.1584496
1.1582234
1.15788
1.1574084
1.156802
1.1560594
1.1551864
1.1541973
1.153121
1.1520079
1.1508589
1.149705
1.1483439
1.1441924
1.1340786
1.1154069
1.090924
1.0655923
1.043167
1.0242005
1.0060918
0.98862849
0.97183367
0.95600478
0.94032628
0.92436497
0.90809331
0.89133578
0.87371547
1.158618
1.1586139
1.1586043
1.1585861
1.1585557
1.1585089
1.1584413
1.1583482
1.1582247
1.1580655
1.1578624
1.1575787
1.1569713
1.1540352
1.1410357
1.113019
1.0774808
1.0362577
0.99682523
0.96292459
0.93588881
0.9159424
0.90050065
0.88805439
0.87775645
0.86962613
0.86293377
0.8570333
0.85117893
0.84483636
1.0708048
1.001229
0.94623653
0.90114293
0.8629962
0.83008927
0.80140368
0.77627577
0.7543458
0.73551707
0.71999275
0.70833273
0.70184812
0.7124071
0.72832561
0.74656273
0.76443869
0.78103502
0.79613335
0.80950442
0.82080213
0.82955548
0.83528896
0.83778479
0.83721751
0.83409908
0.82892442
0.82162249
0.81012697
0.78860584
1.1565804
1.1528048
1.1477704
1.1417791
1.1350582
1.1277911
1.1201457
1.1122942
1.1044426
1.0968736
1.0899977
1.0844657
1.0812402
1.081384
1.082782
1.0823485
1.0795889
1.0752475
1.0694191
1.0620001
1.0527566
1.0413395
1.0275834
1.0117873
0.9945788
0.97641737
0.95723033
0.93756655
0.91758049
0.8938573
1.1585748
1.1584491
1.1582216
1.1578767
1.1574034
1.1567957
1.1560517
1.1551761
1.154182
1.1530988
1.1519876
1.1509619
1.1501474
1.148468
1.1395203
1.1224802
1.1052181
1.0914948
1.0778744
1.0628522
1.0452757
1.0243434
1.0006971
0.97641117
0.95363128
0.93346769
0.91478928
0.89779439
0.8819215
0.86420162
1.158618
1.1586139
1.1586042
1.158586
1.1585555
1.1585089
1.1584419
1.1583501
1.1582291
1.1580748
1.1578829
1.1576309
1.1569392
1.1505268
1.1158775
1.0653592
1.0339623
1.0319612
1.011155
0.98321647
0.95739397
0.93651973
0.91970977
0.90591264
0.89432501
0.88464618
0.8763374
0.86862393
0.8569409
0.84152186
1.0707977
1.0011749
0.94608984
0.90085552
0.86249108
0.8292404
0.80001229
0.77407642
0.75095043
0.73037825
0.71238489
0.69746516
0.6869696
0.69246086
0.69784933
0.70025165
0.70003082
0.69897521
0.69878348
0.70052748
0.70445156
0.70999545
0.71624425
0.72248958
0.72831826
0.73319321
0.7350844
0.73017838
0.71731429
0.70198836
1.15658
1.1527993
1.1477493
1.1417269
1.1349507
1.1275888
1.1197832
1.1116687
1.1033997
1.095209
1.087509
1.0810815
1.0770978
1.0755838
1.0723144
1.0672359
1.0613599
1.0553383
1.0493406
1.0428221
1.0348675
1.0246192
1.0116967
0.99645064
0.97948929
0.96096805
0.94137916
0.92152219
0.89000343
0.82852759
1.1585748
1.1584488
1.1582205
1.1578732
1.1573955
1.1567795
1.156021
1.1551203
1.1540856
1.1529423
1.151756
1.1506734
1.1496555
1.1438346
1.1246401
1.1088118
1.0978409
1.0891961
1.0788881
1.0638283
1.0426402
1.015844
0.98587034
0.95742048
0.93326644
0.91311114
0.89565552
0.88042136
0.8641542
0.83487148
1.158618
1.1586139
1.1586042
1.1585858
1.158555
1.1585077
1.1584393
1.158345
1.1582195
1.1580571
1.1578489
1.1575146
1.155542
1.1307068
1.0432389
0.99272991
0.98704135
0.98713359
0.98761396
0.97634378
0.9589308
0.94188531
0.92508901
0.91231046
0.90092183
0.8900034
0.87518071
0.85376464
0.83268284
0.81542466
1.0707862
1.0011425
0.94602925
0.90076057
0.86235445
0.82905232
0.79976312
0.77376561
0.75059563
0.73004828
0.7122923
0.69810247
0.68879815
0.69513845
0.69809438
0.69675017
0.69364807
0.68912292
0.68393623
0.67867711
0.67384342
0.66981525
0.6668183
0.66492015
0.66402551
0.66379866
0.66343869
0.66159085
0.65658634
0.64666934
1.1565797
1.1527966
1.14774
1.1417055
1.1349107
1.1275214
1.119678
1.1115169
1.1032035
1.0950062
1.0874573
1.081567
1.0783379
1.0744449
1.0687625
1.0621415
1.0514547
1.0365607
1.0197402
1.0030012
0.9878686
0.97298723
0.95577331
0.93506561
0.91133676
0.88511778
0.85657785
0.82482244
0.7865594
0.73902481
1.1585747
1.1584487
1.1582199
1.1578716
1.157392
1.1567725
1.1560085
1.1551
1.1540557
1.1529062
1.1517386
1.1507276
1.1489595
1.1318661
1.1167708
1.1073682
1.1018555
1.0957539
1.0883576
1.0763704
1.055661
1.0253899
0.98976319
0.95888469
0.93638728
0.91840695
0.89905729
0.87277371
0.83615598
0.78724787
1.158618
1.1586138
1.1586041
1.1585857
1.1585547
1.1585071
1.158438
1.1583424
1.1582144
1.1580474
1.1578242
1.1572976
1.1513328
1.0618098
0.9815376
0.96755538
0.96176781
0.95649944
0.94890491
0.94213237
0.93387827
0.92414348
0.91403358
0.90434606
0.89437956
0.88354597
0.87249672
0.85388945
0.82657319
0.79193158
1.0707665
1.0011109
0.94599053
0.90071826
0.86231253
0.82901251
0.79972221
0.77371195
0.75050301
0.72985812
0.71187681
0.69722249
0.68727857
0.69410188
0.69822065
0.69779927
0.69414266
0.68906222
0.68326076
0.67724947
0.67147279
0.66633736
0.66220605
0.65934903
0.65783538
0.65736054
0.65706203
0.65547357
0.65056517
0.64016347
1.1565792
1.1527953
1.1477378
1.1417028
1.134908
1.1275193
1.1196761
1.1115116
1.1031828
1.094937
1.087251
1.0810387
1.0773906
1.0746161
1.0695967
1.0632747
1.0547146
1.0402933
1.0208619
0.99727598
0.96937815
0.93748107
0.9028898
0.86771591
0.83402051
0.80303012
0.77478283
0.74827387
0.72213467
0.69224478
1.1585747
1.1584487
1.1582199
1.1578716
1.157392
1.1567729
1.1560094
1.1551016
1.1540577
1.1529056
1.1517233
1.1506725
1.1493347
1.139089
1.1223528
1.1113878
1.1052293
1.0999252
1.0929461
1.0811534
1.0620759
1.0366861
1.0079568
0.97657514
0.94109452
0.90343536
0.86479034
0.82529644
0.78391717
0.73757252
1.158618
1.1586138
1.1586041
1.1585857
1.1585547
1.1585071
1.1584382
1.1583429
1.1582156
1.15805
1.1578314
1.1573874
1.1538335
1.1114102
0.99925954
0.9815991
0.97509771
0.96988292
0.9643158
0.95568882
0.9435443
0.93085604
0.91930962
0.90984109
0.90114561
0.8886662
0.87069779
0.84107369
0.80130856
0.75561872
1.0707409
1.0010834
0.94597889
0.90073367
0.86236449
0.82911383
0.79988434
0.77394002
0.75078236
0.73011913
0.71191235
0.69654331
0.68520665
0.6894394
0.69408644
0.69611135
0.69544201
0.69356279
0.6919168
0.69139878
0.69252414
0.69550952
0.70037996
0.70694576
0.71449772
0.72138187
0.72479242
0.72160864
0.7112242
0.69577691
1.1565786
1.1527956
1.1477433
1.1417194
1.1349428
1.1275817
1.1197774
1.1116633
1.1033871
1.0951592
1.0873516
1.0806638
1.0761692
1.0742017
1.0714726
1.0669571
1.0615027
1.0557123
1.0496194
1.0428215
1.0347244
1.0248828
1.0132697
1.0000662
0.98517324
0.96829723
0.94947296
0.92843942
0.89044022
0.8227442
1.1585747
1.1584487
1.1582203
1.1578731
1.1573957
1.1567804
1.1560232
1.1551247
1.1540931
1.1529517
1.1517606
1.1506508
1.1496294
1.1456447
1.1316474
1.1168708
1.106477
1.0982649
1.089108
1.0769476
1.0605623
1.0394934
1.0145686
0.98644583
0.95511733
0.92256727
0.89369627
0.87074685
0.84587835
0.80986364
1.158618
1.1586138
1.1586042
1.1585858
1.1585551
1.1585079
1.1584398
1.1583461
1.1582218
1.1580617
1.1578572
1.1575355
1.1559805
1.1403936
1.0790479
1.0175718
1.0046479
1.0048906
1.0013945
0.98129691
0.9582697
0.93775193
0.92002179
0.90395692
0.88788463
0.87078861
0.85265192
0.8349537
0.81325846
0.78684975
1.0707197
1.0010912
0.94606949
0.90096188
0.86281421
0.82992108
0.80123538
0.77611096
0.75417774
0.73530829
0.71963726
0.70762736
0.70041764
0.7095116
0.72369252
0.74076128
0.758451
0.7755456
0.79127046
0.80519789
0.81724207
0.82731999
0.83511058
0.84011848
0.84197133
0.84060063
0.83617392
0.82878499
0.81680476
0.79719484
1.1565782
1.1527991
1.1477613
1.1417681
1.1350477
1.1277847
1.120146
1.1123019
1.1044523
1.0968543
1.0898918
1.0841543
1.0805091
1.0799933
1.081199
1.0815011
1.0800067
1.0768691
1.0719853
1.0654172
1.0572154
1.047121
1.0346867
1.0195472
1.0016691
0.98130282
0.95894445
0.93556982
0.91152498
0.8843128
1.1585747
1.1584489
1.1582214
1.1578765
1.1574037
1.1567972
1.1560555
1.1551833
1.1541935
1.1531147
1.1520021
1.1509592
1.1500996
1.1486868
1.1425073
1.129479
1.1148618
1.1015374
1.0875506
1.0729056
1.0572876
1.0392374
1.0176261
0.99218842
0.96426709
0.93637299
0.91128261
0.8900371
0.86827893
0.84304811
1.158618
1.1586139
1.1586042
1.158586
1.1585556
1.1585092
1.1584427
1.1583517
1.1582323
1.1580807
1.1578926
1.1576456
1.1570164
1.152361
1.1289531
1.0876916
1.0608919
1.0507695
1.0225663
0.98826576
0.95800782
0.93461264
0.9163969
0.90160815
0.88899873
0.87798065
0.86864362
0.86009844
0.84194554
0.81477882
1.0706874
1.0011595
0.94626027
0.90128599
0.86329196
0.8305904
0.80225493
0.777749
0.75688066
0.73971653
0.72653655
0.71776234
0.71412257
0.72554851
0.7416589
0.76036432
0.77830367
0.79276868
0.80282189
0.80903538
0.81253043
0.81422778
0.81468401
0.81412056
0.8125152
0.80967861
0.80522417
0.79846127
0.78773581
0.7703222
1.1565778
1.1528097
1.1477929
1.1418268
1.1351416
1.1279304
1.1203861
1.1127139
1.10515
1.0979909
1.0916162
1.0864972
1.0831904
1.0825008
1.0837194
1.0846698
1.0828033
1.0774061
1.0694831
1.0604243
1.050943
1.0411116
1.0307672
1.0195815
1.0071741
0.99329503
0.97797467
0.96148752
0.94351954
0.91901499
1.1585747
1.1584494
1.1582231
1.1578798
1.1574088
1.156804
1.1560649
1.1551975
1.1542164
1.1531494
1.1520443
1.1508841
1.1496826
1.1483705
1.1449049
1.1361195
1.1186868
1.0946584
1.0686113
1.0447804
1.023698
1.0032741
0.98378066
0.96569677
0.9491843
0.93351611
0.91707862
0.8999604
0.88232154
0.8641603
1.158618
1.1586139
1.1586043
1.1585862
1.1585558
1.1585094
1.1584424
1.1583506
1.1582293
1.1580736
1.1578763
1.157602
1.1570322
1.1544393
1.1437746
1.1194577
1.0841527
1.0422916
1.0012869
0.96535562
0.93691221
0.9161424
0.90011368
0.88717081
0.87618019
0.86670514
0.85916713
0.85267178
0.84626417
0.8387112
1.0706523
1.0004102
0.94434691
0.89788094
0.85807327
0.82319684
0.79230064
0.76506111
0.74142685
0.72095941
0.70342672
0.68878658
0.67737328
0.67701651
0.67985734
0.68595276
0.69456495
0.7044159
0.71420217
0.72296001
0.73015832
0.73561114
0.73934389
0.74146779
0.7420857
0.7412263
0.73877926
0.73441212
0.72733957
0.71636706
1.1565746
1.1527345
1.1475209
1.1411968
1.1339574
1.1259589
1.1173403
1.1073866
1.0940228
1.0765709
1.0527268
1.0221208
0.9853893
0.94849971
0.91499945
0.88723069
0.86564803
0.84978661
0.83897111
0.83247563
0.82927409
0.82814488
0.82794042
0.82769296
0.82657377
0.8237824
0.8184155
0.80923841
0.79417308
0.77251899
1.1585746
1.1584458
1.1582071
1.1578352
1.1573108
1.1566177
1.155743
1.1546565
1.1532762
1.1515055
1.1490587
1.1410689
1.1211066
1.0884562
1.0477819
1.0046974
0.96466381
0.93018224
0.90214316
0.88055606
0.86481333
0.85385732
0.84645022
0.84139183
0.8376144
0.83417568
0.83018237
0.8246054
0.81575256
0.80160464
1.158618
1.1586137
1.1586035
1.1585834
1.1585486
1.1584933
1.1584107
1.1582919
1.1581245
1.1578893
1.1575405
1.156784
1.1544674
1.1416357
1.109099
1.0657813
1.0231213
0.98438689
0.95073524
0.92270117
0.90033118
0.88314447
0.87026785
0.86069558
0.85347373
0.84775909
0.84279731
0.83779127
0.83155956
0.82240468
)
;

boundaryField
{
    maxY
    {
        type            calculated;
        value           nonuniform List<scalar> 
300
(
1.1586174
1.1586175
1.1586175
1.1586175
1.1586174
1.1586174
1.1586174
1.1586175
1.1586175
1.1586174
1.1586132
1.1586134
1.1586133
1.1586133
1.1586133
1.1586133
1.1586133
1.1586133
1.1586134
1.1586132
1.1586029
1.1586038
1.1586037
1.1586036
1.1586036
1.1586036
1.1586036
1.1586037
1.1586038
1.1586029
1.1585828
1.1585856
1.1585855
1.1585853
1.1585851
1.1585851
1.1585853
1.1585855
1.1585856
1.1585828
1.1585479
1.1585552
1.158555
1.1585545
1.1585542
1.1585542
1.1585545
1.1585551
1.1585553
1.1585481
1.1584923
1.1585084
1.1585084
1.1585072
1.1585065
1.1585066
1.1585074
1.1585087
1.1585088
1.1584928
1.1584089
1.1584408
1.1584414
1.1584388
1.1584375
1.1584377
1.1584393
1.1584422
1.1584419
1.1584101
1.1582889
1.1583477
1.1583496
1.1583445
1.1583418
1.1583423
1.1583456
1.1583512
1.15835
1.1582914
1.1581192
1.1582242
1.1582286
1.158219
1.1582139
1.1582151
1.1582213
1.1582318
1.1582287
1.158124
1.1578803
1.158065
1.1580743
1.1580566
1.1580469
1.1580495
1.1580612
1.1580801
1.1580731
1.1578888
1.1575245
1.1578619
1.1578824
1.1578484
1.1578237
1.1578309
1.1578566
1.1578921
1.1578758
1.1575399
1.1567564
1.1575781
1.1576304
1.1575141
1.1572971
1.1573869
1.1575349
1.157645
1.1576015
1.1567835
1.1542672
1.1569708
1.1569387
1.1555415
1.1513323
1.153833
1.15598
1.1570159
1.1570317
1.1544669
1.1406778
1.1540347
1.1505263
1.1307063
1.0618093
1.1114097
1.1403931
1.1523605
1.1544388
1.1416352
1.1060674
1.1410352
1.115877
1.0432384
0.98153723
0.99925915
1.0790474
1.1289526
1.143774
1.1090985
1.0618507
1.1130186
1.0653588
0.99272952
0.96755501
0.98159872
1.0175714
1.0876911
1.1194572
1.0657809
1.0194563
1.0774803
1.0339619
0.98704097
0.96176745
0.97509734
1.0046475
1.0608914
1.0841522
1.0231209
0.9812042
1.0362573
1.0319608
0.98713321
0.95649908
0.96988255
1.0048902
1.0507691
1.0422912
0.98438651
0.94816605
0.99682484
1.0111546
0.98761358
0.94890456
0.96431543
1.0013941
1.0225659
1.0012865
0.95073489
0.92094705
0.96292423
0.98321609
0.9763434
0.94213202
0.95568846
0.98129653
0.98826538
0.96535525
0.92270083
0.8995397
0.93588847
0.95739361
0.95893044
0.93387792
0.94354395
0.95826934
0.95800746
0.93691187
0.90033086
0.88332882
0.91594207
0.93651938
0.94188496
0.92414314
0.9308557
0.93775159
0.9346123
0.91614207
0.88314416
0.87132709
0.90050033
0.91970944
0.92508867
0.91403325
0.91930929
0.92002145
0.91639657
0.90011336
0.87026756
0.86247138
0.88805408
0.90591232
0.91231013
0.90434574
0.90984076
0.9039566
0.90160783
0.88717051
0.86069529
0.85580277
0.87775615
0.8943247
0.90092151
0.89437925
0.90114529
0.88788432
0.88899842
0.87617989
0.85347344
0.85051702
0.86962583
0.88464588
0.89000308
0.88354567
0.88866589
0.87078831
0.87798034
0.86670485
0.84775881
0.84590486
0.86293348
0.8763371
0.87518041
0.87249642
0.87069749
0.85265163
0.86864332
0.85916684
0.84279703
0.84120595
0.85703301
0.86862363
0.85376436
0.85388916
0.84107341
0.83495342
0.86009815
0.8526715
0.837791
0.83523663
0.85117865
0.85694062
0.83268257
0.82657292
0.80130831
0.8132582
0.84194527
0.84626389
0.83155929
0.82610383
0.84483608
0.84152158
0.8154244
0.79193134
0.75561849
0.78684951
0.81477856
0.83871092
0.82240441
)
;
    }
    minX
    {
        type            calculated;
        value           nonuniform List<scalar> 
40
(
1.1586222
1.1586212
1.1586201
1.1586191
1.1586222
1.1586212
1.1586201
1.1586191
1.1586222
1.1586212
1.1586201
1.1586191
1.1586222
1.1586212
1.1586201
1.1586191
1.1586222
1.1586212
1.1586201
1.1586191
1.1586222
1.1586212
1.1586201
1.1586191
1.1586222
1.1586212
1.1586201
1.1586191
1.1586222
1.1586212
1.1586201
1.1586191
1.1586222
1.1586212
1.1586201
1.1586191
1.1586222
1.1586212
1.1586201
1.1586191
)
;
    }
    maxX
    {
        type            calculated;
        value           nonuniform List<scalar> 
40
(
0.71683387
0.77503154
0.80487133
0.82620898
0.76748708
0.9232846
0.87381007
0.84490512
0.78886893
0.89391848
0.86412759
0.84156127
0.7022012
0.82855276
0.83496973
0.8162129
0.64682406
0.7394104
0.78731748
0.79256602
0.64005819
0.69182104
0.73693574
0.75597133
0.69560922
0.82225074
0.80987386
0.78805754
0.79707857
0.88419417
0.84310476
0.81563231
0.77031171
0.91880458
0.86405165
0.83877855
0.71636989
0.77252798
0.80165238
0.82243126
)
;
    }
    minZ
    {
        type            calculated;
        value           nonuniform List<scalar> 
120
(
1.0707761
1.1565778
1.1585746
1.158618
1.000617
1.152743
1.1584461
1.1586137
0.9446103
1.1475351
1.1582075
1.1586035
0.89818558
1.1412156
1.1578356
1.1585833
0.85840702
1.1339778
1.1573105
1.1585485
0.823541
1.1259757
1.1566155
1.1584928
0.79261019
1.1173508
1.1557375
1.1584094
0.76526197
1.107651
1.154652
1.1582894
0.74151912
1.0945319
1.153276
1.1581198
0.72094853
1.0774362
1.1515162
1.1578808
0.70332939
1.0540902
1.1491092
1.1575251
0.68864029
1.0235582
1.1418487
1.1567569
0.67725443
0.9866175
1.1224462
1.1542677
0.67709209
0.9493452
1.0894929
1.1406783
0.68026522
0.91545579
1.0482796
1.1060679
0.68677989
0.88734083
1.0044462
1.0618511
0.69580499
0.8654751
0.96387614
1.0194567
0.70601773
0.8495335
0.9291314
0.98120458
0.71612749
0.83897217
0.90117835
0.9481664
0.72519338
0.83302836
0.88002649
0.92094738
0.73267777
0.83054132
0.86496451
0.89954001
0.73834265
0.83009411
0.85477227
0.88332913
0.74213616
0.83037735
0.84806198
0.87132739
0.74411166
0.83036817
0.84354663
0.86247168
0.74437732
0.82931284
0.84015363
0.85580306
0.74303037
0.82655783
0.83699487
0.85051731
0.74006469
0.82130951
0.83324815
0.84590514
0.73522212
0.81231661
0.82790763
0.84120623
0.72774778
0.79734175
0.81920999
0.83523691
0.71671421
0.77487079
0.80471571
0.82610409
)
;
    }
    maxZ
    {
        type            calculated;
        value           nonuniform List<scalar> 
120
(
1.0706523
1.1565746
1.1585746
1.158618
1.0004102
1.1527345
1.1584458
1.1586137
0.94434691
1.1475209
1.1582071
1.1586035
0.89788094
1.1411968
1.1578352
1.1585834
0.85807327
1.1339574
1.1573108
1.1585486
0.82319684
1.1259589
1.1566177
1.1584933
0.79230064
1.1173403
1.155743
1.1584107
0.76506111
1.1073866
1.1546565
1.1582919
0.74142685
1.0940228
1.1532762
1.1581245
0.72095941
1.0765709
1.1515055
1.1578893
0.70342672
1.0527268
1.1490587
1.1575405
0.68878658
1.0221208
1.1410689
1.156784
0.67737328
0.9853893
1.1211066
1.1544674
0.67701651
0.94849971
1.0884562
1.1416357
0.67985734
0.91499945
1.0477819
1.109099
0.68595276
0.88723069
1.0046974
1.0657813
0.69456495
0.86564803
0.96466381
1.0231213
0.7044159
0.84978661
0.93018224
0.98438689
0.71420217
0.83897111
0.90214316
0.95073524
0.72296001
0.83247563
0.88055606
0.92270117
0.73015832
0.82927409
0.86481333
0.90033118
0.73561114
0.82814488
0.85385732
0.88314447
0.73934389
0.82794042
0.84645022
0.87026785
0.74146779
0.82769296
0.84139183
0.86069558
0.7420857
0.82657377
0.8376144
0.85347373
0.7412263
0.8237824
0.83417568
0.84775909
0.73877926
0.8184155
0.83018237
0.84279731
0.73441212
0.80923841
0.8246054
0.83779127
0.72733957
0.79417308
0.81575256
0.83155956
0.71636706
0.77251899
0.80160464
0.82240468
)
;
    }
    topAir_to_rightSolid
    {
        type            calculated;
        value           nonuniform List<scalar> 
130
(
0.46133937
0.45650859
0.45157316
0.44678454
0.44231451
0.43826762
0.43470469
0.43165537
0.42912679
0.4271151
0.42561357
0.42461457
0.42411555
0.46499736
0.45926568
0.45356392
0.4481769
0.44326212
0.43890241
0.43512591
0.43193367
0.42931093
0.42723957
0.42570395
0.42468894
0.42418101
0.47244612
0.46459131
0.45722584
0.45063478
0.44488344
0.43995988
0.43581003
0.43237243
0.42959292
0.42742279
0.42582624
0.42477627
0.42425329
0.48398087
0.47196382
0.46184753
0.45351838
0.4466823
0.44107739
0.43649985
0.43279408
0.42984614
0.42757078
0.42590881
0.42482009
0.42428048
0.49829681
0.47915862
0.46570171
0.45568147
0.44793838
0.44181906
0.43693725
0.43304785
0.42998407
0.42763598
0.42593014
0.42481729
0.42426661
0.49820871
0.47908663
0.46564397
0.45563236
0.44789513
0.44178027
0.43690027
0.43301162
0.42994782
0.4275991
0.42589215
0.42477847
0.42422661
0.48374253
0.47178042
0.46169726
0.4533885
0.44657118
0.44097914
0.43640609
0.43270147
0.42975092
0.4274713
0.42580505
0.42471307
0.42417085
0.47214442
0.46434347
0.45702023
0.45045853
0.44473108
0.43982118
0.43567656
0.43223926
0.42945525
0.42728135
0.42568239
0.42462997
0.42410453
0.46470139
0.45899505
0.45332538
0.44797294
0.44308341
0.43873532
0.43496465
0.43177063
0.42914349
0.42706969
0.42553346
0.42451787
0.42401122
0.46108464
0.4562559
0.451345
0.44657479
0.44211753
0.43808077
0.43452443
0.43147415
0.42894133
0.42692737
0.42542627
0.42443066
0.42393299
)
;
    }
    topAir_to_heater
    {
        type            calculated;
        value           nonuniform List<scalar> 
40
(
0.47339402
0.47202869
0.46940732
0.46574255
0.47955444
0.47791901
0.47475824
0.4703171
0.49302166
0.49080494
0.48641987
0.48009502
0.51656043
0.51352106
0.50709944
0.49705555
0.55520415
0.55201701
0.5438236
0.52799746
0.55513781
0.55194067
0.54373636
0.52790511
0.51631926
0.51327458
0.50683751
0.49679993
0.49271677
0.49049821
0.48610408
0.47978202
0.47923722
0.47761786
0.474475
0.47004248
0.4731033
0.47175739
0.46916803
0.46551704
)
;
    }
    topAir_to_leftSolid
    {
        type            calculated;
        value           nonuniform List<scalar> 
130
(
0.38406788
0.38409302
0.3841416
0.38421491
0.38430854
0.38440199
0.38449751
0.38459872
0.3847072
0.3848148
0.38490475
0.38497623
0.38503251
0.38407002
0.3840917
0.3841341
0.38419911
0.38428705
0.38437902
0.3844749
0.38457896
0.38469263
0.38480292
0.38489774
0.38497467
0.38503648
0.38406219
0.38408041
0.38412076
0.3841851
0.38426935
0.38435976
0.38445856
0.38456853
0.38468796
0.38479858
0.38489424
0.38497452
0.38503928
0.38403792
0.38405661
0.38409986
0.38416966
0.3842531
0.38434686
0.38445312
0.38457078
0.38468793
0.3847996
0.38489923
0.38498354
0.38505136
0.38399422
0.3840141
0.38406203
0.38413264
0.38421905
0.38431819
0.38443037
0.38455795
0.38468513
0.38480857
0.38491995
0.38501346
0.38507831
0.38393232
0.38395509
0.38400715
0.38408307
0.38418265
0.38429685
0.38441911
0.38455221
0.38469378
0.38483499
0.38495932
0.38506565
0.38513366
0.38386045
0.38388774
0.38394681
0.38403045
0.38413688
0.38426516
0.3843983
0.38453749
0.38468063
0.38481861
0.38495164
0.38507375
0.38514131
0.38379532
0.38382142
0.38387883
0.38396116
0.3840668
0.38419525
0.38432709
0.38446258
0.3845996
0.3847365
0.38487097
0.38500221
0.38506875
0.38372722
0.38375017
0.38380176
0.38387955
0.38398169
0.38410461
0.38424176
0.38438137
0.38452034
0.38465945
0.38479821
0.38490998
0.38496802
0.38368097
0.38370129
0.38374737
0.3838197
0.38391812
0.38404358
0.38419804
0.38435749
0.3845018
0.38463394
0.38475872
0.38486156
0.38491757
)
;
    }
}


// ************************************************************************* //
