/*--------------------------------*- C++ -*----------------------------------*\
| =========                 |                                                 |
| \\      /  F ield         | OpenFOAM: The Open Source CFD Toolbox           |
|  \\    /   O peration     | Version:  v2012                                 |
|   \\  /    A nd           | Website:  www.openfoam.com                      |
|    \\/     M anipulation  |                                                 |
\*---------------------------------------------------------------------------*/
FoamFile
{
    version     2.0;
    format      ascii;
    class       volScalarField;
    location    "490/topAir";
    object      T;
}
// * * * * * * * * * * * * * * * * * * * * * * * * * * * * * * * * * * * * * //

dimensions      [0 0 0 1 0 0 0];


internalField   nonuniform List<scalar> 
1200
(
324.61188
347.37231
367.96829
386.98754
404.92053
422.06352
438.53411
454.20603
468.74933
482.124
494.2017
504.74329
513.22892
513.35196
510.95739
506.11053
499.5459
492.31982
485.3696
479.30183
474.4057
470.76585
468.35947
467.11605
466.94933
467.7958
469.67041
472.76391
477.61943
484.97222
300.53003
301.52979
302.89824
304.57554
306.51954
308.69791
311.08076
313.80493
317.56621
322.60503
329.75009
339.58628
352.30099
366.1327
379.68661
391.71679
401.61328
409.14959
414.30013
417.25623
418.50569
418.73116
418.58833
418.59295
419.12562
420.52261
423.20982
427.89505
435.93133
448.57318
300.01178
300.04508
300.10689
300.20328
300.33948
300.51994
300.74826
301.03099
301.39017
301.85077
302.48303
304.40638
309.66833
319.0347
331.5776
346.04741
360.61274
374.0978
385.70169
394.97222
401.85003
406.64166
409.85922
412.05311
413.71721
415.27855
417.14586
419.83671
424.29416
431.93642
300.00029
300.00138
300.00404
300.00925
300.01829
300.03269
300.05429
300.08539
300.12934
300.19128
300.28354
300.48295
301.13093
304.71844
314.25352
327.33942
340.95196
354.24392
366.5873
377.42197
386.40391
393.49522
398.91526
403.01126
406.15162
408.67575
410.90399
413.19927
416.15235
420.75302
324.60544
347.12045
367.23687
385.54325
402.49381
418.32701
433.1083
446.76871
459.10029
469.76437
478.26761
484.00901
486.21267
478.03022
467.03602
455.09811
444.45171
436.36139
430.92221
427.5727
425.65864
424.76801
424.71748
425.44806
426.92454
429.14452
432.20904
436.52859
443.21337
452.97305
300.5293
301.51035
302.82692
304.40824
306.2007
308.15918
310.23725
312.38083
314.52244
316.57429
318.41429
319.88571
320.79857
320.90247
320.47662
320.25378
320.97407
322.76777
325.29933
328.18437
331.2411
334.48601
337.98079
341.78725
345.95531
350.52461
355.51155
360.86388
366.6577
376.51483
300.01174
300.04415
300.10275
300.19175
300.31407
300.47151
300.66451
300.89172
301.14959
301.43067
301.72192
302.02314
302.32627
302.68461
303.78286
306.492
311.62261
318.61616
326.19041
333.20263
339.37301
345.48139
351.58403
357.65996
363.58185
369.64402
376.02678
382.76462
389.96077
397.82514
300.00028
300.00134
300.00382
300.00853
300.0164
300.02852
300.04603
300.07015
300.10214
300.14339
300.19604
300.26963
300.42726
301.19161
304.62299
312.2909
322.59111
335.42402
348.69274
360.96879
371.3964
379.48428
385.99167
391.40142
395.99339
399.69563
402.79541
405.56857
408.35805
411.42378
324.6032
347.16
367.33589
385.71753
402.76727
418.73402
433.72225
447.76176
460.77886
472.57447
482.76401
490.71089
495.24472
487.90441
477.24062
465.58253
454.69514
445.03325
436.59337
429.38189
423.47178
419.00336
416.12729
414.8876
415.16871
416.72088
419.3223
423.0489
429.05186
440.76071
300.52935
301.51363
302.83614
304.42521
306.22777
308.20101
310.3046
312.49498
314.71653
316.88824
318.88721
320.51389
321.47003
321.42728
321.01229
321.14085
321.96172
323.26166
325.02347
327.29401
330.16774
333.78768
338.25604
343.53689
349.48087
355.98123
363.11663
370.73235
378.80735
388.86097
300.01174
300.04429
300.10321
300.19263
300.31536
300.47315
300.66651
300.89442
301.15357
301.43647
301.72725
301.99613
302.20999
302.6519
305.02837
309.65892
314.49541
318.44952
322.47358
327.03136
332.53046
339.32567
347.34388
355.98323
364.48679
372.35997
379.96291
387.15546
394.12351
402.20474
300.00028
300.00135
300.00384
300.00857
300.01645
300.02852
300.04587
300.06966
300.10101
300.14099
300.19073
300.25608
300.4356
302.11006
311.49094
326.26152
336.16864
336.82052
343.75118
353.51903
363.05402
371.1462
377.92982
383.68573
388.65709
392.90936
396.63464
400.15681
405.61231
413.04426
324.60534
347.17875
367.39284
385.8406
403.00315
419.16267
434.47659
449.03396
462.86224
475.89943
487.91965
498.35691
505.97082
501.95843
498.08253
496.37378
496.53035
497.28022
497.41665
496.1783
493.41438
489.56162
485.29048
481.09553
477.24535
474.07217
472.85249
476.02954
484.5665
495.14565
300.52944
301.51505
302.8417
304.43915
306.25678
308.2563
310.40503
312.67081
315.01399
317.36988
319.61697
321.51723
322.70637
323.16063
324.14591
325.68836
327.49146
329.36008
331.2426
333.31312
335.87516
339.2346
343.56766
348.82438
354.8648
361.70429
369.23088
377.18706
390.54484
419.52283
300.01175
300.04435
300.10351
300.19351
300.31741
300.47734
300.67451
300.90896
301.17873
301.4774
301.7879
302.07184
302.33928
303.87788
309.06422
313.4761
316.60871
319.1216
322.17058
326.7313
333.37102
342.16474
352.56767
363.04426
372.44027
380.66123
388.08002
394.79506
402.22683
416.33474
300.00028
300.00135
300.00386
300.00862
300.01659
300.02884
300.04654
300.07098
300.1035
300.14558
300.19954
300.28626
300.79886
307.4057
333.17942
350.13121
352.1491
352.11619
351.94493
356.00753
362.47218
369.03192
375.73223
380.99504
385.81124
390.54432
397.15886
407.12131
417.42879
426.26353
324.60884
347.18997
367.41637
385.88127
403.067
419.25776
434.61195
449.21433
463.08103
476.11453
487.98307
497.90195
504.62763
500.02495
497.90769
498.86827
501.09927
504.38976
508.21483
512.15301
515.82684
518.92894
521.26121
522.74924
523.45353
523.6324
523.91651
525.37982
529.38428
537.50267
300.52953
301.51578
302.84417
304.44484
306.26759
308.27473
310.43419
312.71351
315.07001
317.42866
319.63219
321.37292
322.33528
323.50318
325.22317
327.25046
330.57657
335.32653
340.8577
346.54626
351.85479
357.23623
363.67021
371.72394
381.40267
392.70058
405.78479
421.40738
441.90721
470.331
300.01175
300.04439
300.10366
300.19393
300.31834
300.47916
300.67774
300.91424
301.18654
301.48684
301.79247
302.05763
302.52244
307.09113
311.24202
313.88478
315.45516
317.21174
319.36747
322.92418
329.25911
338.97937
351.18099
362.4899
371.19899
378.46622
386.61164
398.25445
415.6952
441.52046
300.00028
300.00135
300.00387
300.00865
300.01666
300.02901
300.04689
300.07167
300.10481
300.14809
300.20596
300.34256
301.89857
327.35217
354.1237
359.24117
361.40295
363.39355
366.30196
368.93514
372.19599
376.11665
380.27679
384.35039
388.6334
393.39863
398.38061
407.06181
420.51425
438.90891
324.61478
347.20095
367.43141
385.89939
403.08659
419.27789
434.63418
449.24549
463.13818
476.23857
488.26788
498.53036
505.74336
500.77169
497.81765
498.11826
500.74223
504.43419
508.71725
513.23263
517.64796
521.63744
524.89176
527.16616
528.37913
528.76079
529.00101
530.28298
534.28389
542.96522
300.52965
301.51612
302.84473
304.44556
306.2683
308.2753
310.43473
312.71501
315.07592
317.44871
319.69282
321.52996
322.61868
323.45162
324.9695
326.90169
329.55484
334.12338
340.48318
348.53571
358.56625
370.76619
384.97088
400.57612
416.75986
432.84337
448.62412
464.51745
481.33166
502.11472
300.01175
300.0444
300.10368
300.19394
300.31833
300.47907
300.67751
300.91382
301.18602
301.48699
301.79647
302.07208
302.42367
305.14386
309.69406
312.74952
314.49221
316.00876
318.02668
321.49556
327.27041
335.28567
344.84217
355.92347
369.3423
384.73811
401.93097
421.16507
443.39639
471.2568
300.00028
300.00135
300.00387
300.00865
300.01666
300.02899
300.04684
300.07153
300.10451
300.14742
300.20408
300.31925
301.24426
312.74298
347.84329
354.10151
356.46245
358.37906
360.44803
363.70179
368.38306
373.40441
378.09433
382.02909
385.71543
391.13199
399.20371
413.26439
433.77277
460.00166
324.62256
347.21049
367.43593
385.89279
403.06231
419.22665
434.54609
449.1131
462.96585
476.06833
488.24351
499.01646
507.27262
504.15826
500.78282
499.32608
499.80666
501.16088
502.35308
502.72945
501.91251
499.7581
496.28278
491.67352
486.47671
481.83426
479.56695
481.68282
488.71577
499.566
300.52981
301.51603
302.84327
304.44114
306.25891
308.25824
310.40664
312.67233
315.01759
317.38431
319.66326
321.64151
322.98482
323.5764
324.40057
325.77348
327.44741
329.24339
331.1546
333.31332
335.92162
339.14734
343.03433
347.56328
352.81741
358.9665
366.08337
374.37688
390.35327
422.47183
300.01176
300.04438
300.10355
300.19354
300.31737
300.47712
300.67394
300.90779
301.17678
301.47492
301.7867
302.07777
302.34615
303.39777
307.15046
311.21416
314.13759
316.48648
319.14742
322.75109
327.73748
334.38018
342.59487
352.36199
363.9197
376.75953
388.93081
399.18147
410.91726
429.19079
300.00028
300.00135
300.00386
300.00862
300.01657
300.02879
300.04641
300.07068
300.10289
300.14439
300.19741
300.28084
300.68475
304.79451
322.12261
341.58349
345.97766
345.89409
347.10171
354.21056
362.72224
370.65852
377.80165
384.51585
391.47628
399.16206
407.65261
416.29349
427.39894
441.74357
324.629
347.20779
367.40074
385.79504
402.85222
418.81888
433.81336
447.85684
460.88154
472.70865
483.00249
491.20003
496.25617
489.89555
480.29592
469.22885
458.28479
448.18326
439.27653
431.67841
425.3165
420.13555
416.21617
413.73513
412.82465
413.4978
415.68685
419.39284
425.54415
436.01194
300.52991
301.51511
302.83852
304.42815
306.23061
308.20275
310.30451
312.49281
314.71377
316.89381
318.91821
320.60597
321.68756
321.84119
321.48229
321.39249
321.83718
322.77488
324.24538
326.2443
328.77528
331.94472
335.93384
340.92221
347.00707
354.20897
362.46757
371.52358
381.32388
393.058
300.01176
300.04433
300.10328
300.19268
300.31529
300.47275
300.66552
300.89253
301.15056
301.43232
301.72344
301.99683
302.22255
302.59426
304.2309
307.74014
311.77497
315.54626
319.60445
323.96701
328.75255
334.46257
341.56554
350.32258
360.46652
371.20465
381.42504
390.5298
400.31607
412.29676
300.00028
300.00135
300.00384
300.00856
300.01642
300.02844
300.04568
300.06924
300.10018
300.13947
300.18821
300.25228
300.41555
301.62918
307.88321
319.56276
327.63539
330.79158
339.91509
351.71281
362.82139
371.90353
379.29607
385.51754
390.98567
395.89229
400.14774
404.12326
412.83643
426.60142
324.63877
347.1841
367.32667
385.65631
402.62928
418.48138
433.26204
446.91359
459.23567
469.89161
478.41582
484.26417
486.73237
479.0673
468.66095
457.1316
446.59503
438.44637
432.95598
429.63082
427.78278
426.89102
426.65195
426.94723
427.79078
429.28947
431.66426
435.32041
441.24753
451.2222
300.53003
301.51233
302.83021
304.41251
306.20529
308.16293
310.23799
312.37709
314.51509
316.56578
318.41442
319.9146
320.89125
321.09569
320.73462
320.45357
321.00596
322.61401
325.004
327.78037
330.73753
333.86074
337.21121
340.91071
345.11041
349.93255
355.41437
361.50885
368.39325
378.21604
300.01176
300.0442
300.10284
300.19182
300.31397
300.47098
300.66309
300.88884
301.1446
301.42325
301.71238
302.01655
302.33217
302.67761
303.59378
305.94141
310.70894
317.5292
325.26885
332.68807
339.53957
346.45168
353.31655
359.93285
366.19442
372.34065
379.01439
386.22365
393.94481
402.22397
300.00028
300.00134
300.00382
300.00852
300.01637
300.02841
300.04575
300.06954
300.10097
300.14129
300.19245
300.26357
300.41144
301.08617
303.89355
310.49472
320.60587
333.48221
347.13897
360.05978
370.99072
379.40144
386.15761
391.79124
396.7058
401.0427
404.5613
407.64311
410.72964
414.42845
324.64943
347.44411
368.07092
387.11884
405.07802
422.23998
438.70545
454.32527
468.80767
482.11672
494.13332
504.63609
513.13887
513.40926
511.26394
506.7208
500.43776
493.43934
486.67804
480.78249
476.04266
472.51393
470.12832
468.78166
468.39131
468.93437
470.48761
473.28533
477.88749
485.20724
300.53085
301.532
302.90199
304.58054
306.52506
308.70252
311.0837
313.87987
317.71398
322.86433
330.17714
340.06383
352.74011
366.45907
379.87597
391.76542
401.53305
409.02773
414.30065
417.53327
419.14522
419.71674
419.82039
419.9459
420.51451
421.93941
424.70635
429.52269
437.67066
449.93879
300.0118
300.04514
300.10699
300.20337
300.3394
300.51939
300.74683
301.02982
301.39012
301.85356
302.49633
304.61442
310.03833
319.33856
331.73508
345.96089
360.31829
373.67518
385.2892
394.73468
401.92028
407.0774
410.63965
413.10838
414.9714
416.68204
418.68634
421.51801
426.09247
433.61279
300.00029
300.00138
300.00404
300.00924
300.01825
300.03256
300.05397
300.08473
300.12811
300.18908
300.27954
300.4759
301.07885
304.46289
313.39469
326.13232
339.73072
353.09872
365.5968
376.7046
386.06436
393.57749
399.40093
403.84289
407.2601
410.00539
412.41921
414.88354
417.99267
422.6457
)
;

boundaryField
{
    maxY
    {
        type            zeroGradient;
    }
    minX
    {
        type            fixedValue;
        value           uniform 300;
    }
    maxX
    {
        type            inletOutlet;
        inletValue      uniform 300;
        value           nonuniform List<scalar> 
40
(
484.89129
448.48016
431.85291
420.69959
452.88903
376.46698
397.78205
411.39029
440.61372
388.83432
402.23917
413.0249
494.9956
419.51008
416.28575
425.85188
537.37415
470.08575
441.48142
438.55756
543.05458
502.42231
471.66405
459.7871
499.68646
422.72535
429.18538
441.06656
436.07554
393.1107
412.26904
426.15501
451.22835
378.30261
402.27453
414.39515
485.20535
449.93357
433.58697
422.63202
)
;
    }
    minZ
    {
        type            zeroGradient;
    }
    maxZ
    {
        type            zeroGradient;
    }
    topAir_to_rightSolid
    {
        type            compressible::turbulentTemperatureCoupledBaffleMixed;
        refValue        nonuniform List<scalar> 
130
(
753.51327
761.49085
769.81715
778.07124
785.93714
793.19652
799.69935
805.34972
810.09575
813.91135
816.7823
818.70278
819.6639
747.60243
756.93608
766.45433
775.66926
784.27149
792.06318
798.93851
804.84364
809.76069
813.68628
816.62054
818.57045
819.54767
735.81048
748.25589
760.31416
771.43854
781.4147
790.16186
797.68757
804.03058
809.23308
813.34159
816.39035
818.40671
819.41195
718.25363
736.54568
752.68284
766.51014
778.24455
788.13731
796.40541
803.22713
808.73783
813.0428
816.21499
818.30442
819.34194
697.61148
725.48019
746.4471
762.86358
776.05234
786.80242
795.59459
802.74144
808.46238
812.90236
816.15822
818.2954
819.35513
697.73483
725.58904
746.53929
762.94519
776.12637
786.8703
795.66046
802.80698
808.52883
812.97077
816.22938
818.36855
819.43058
718.6063
736.83042
752.92568
766.72695
778.43488
788.30931
796.57305
803.396
808.91445
813.22976
816.41197
818.50921
819.55226
736.27972
748.65446
760.65551
771.73982
781.68205
790.41105
797.93235
804.27908
809.49357
813.61202
816.66741
818.68981
819.70089
748.07801
757.38181
766.85706
776.02181
784.58718
792.36426
799.23428
805.14733
810.07665
814.01017
816.94815
818.90099
819.87644
753.92928
761.91227
770.20592
778.43624
786.2868
793.53432
800.03062
805.68758
810.44571
814.26905
817.1418
819.05749
820.01685
)
;
        refGradient     uniform 0;
        valueFraction   uniform 0.99967867;
        value           nonuniform List<scalar> 
130
(
753.42934
761.40213
769.7238
777.97367
785.83587
793.09214
799.59248
805.24099
809.98576
813.80073
816.67175
818.59316
819.55633
747.50243
756.83133
766.34544
775.5568
784.15597
791.94515
798.8185
804.72221
809.63839
813.5637
816.4984
818.44982
819.42985
735.71704
748.15574
760.20781
771.32672
781.29823
790.04167
797.56456
803.90562
809.10695
813.21497
816.26394
818.28157
819.29023
718.1826
736.46881
752.60039
766.42235
778.15176
788.03997
796.30406
803.12235
808.63026
812.93345
816.10564
818.19712
819.23772
697.54938
725.41036
746.3718
762.78418
775.9697
786.71708
795.50689
802.65168
808.37083
812.80946
816.06475
818.20252
819.26452
697.67273
725.51936
746.46434
762.86638
776.04462
786.78614
795.57421
802.71883
808.43896
812.87956
816.13752
818.27729
819.34178
718.53645
736.75511
752.84533
766.6419
778.34539
788.21554
796.47515
803.29424
808.80943
813.12263
816.3045
818.40329
819.44948
736.18715
748.55506
760.54981
771.62852
781.56589
790.29083
797.80891
804.15331
809.36635
813.48417
816.53978
818.56351
819.57762
747.97851
757.27756
766.7487
775.90991
784.47224
792.24675
799.11466
805.02608
809.9543
813.88732
816.82554
818.77965
819.75798
753.84558
761.82383
770.11292
778.33908
786.18598
793.43041
799.92418
805.5792
810.33598
814.15859
817.03132
818.94787
819.90926
)
;
        Tnbr            T;
        thicknessLayers List<scalar> 0();
        kappaLayers     List<scalar> 0();
        kappaMethod     fluidThermo;
        kappa           none;
        alphaAni        none;
        alpha           none;
        field           T;
    }
    topAir_to_heater
    {
        type            compressible::turbulentTemperatureCoupledBaffleMixed;
        refValue        nonuniform List<scalar> 
40
(
734.31484
736.44006
740.5551
746.38567
724.89102
727.37563
732.22307
739.14214
705.08275
708.27139
714.66158
724.08213
672.94167
676.9268
685.50159
699.35654
626.0925
629.70892
639.19841
658.36174
626.1671
629.79606
639.3012
658.47703
673.25538
677.25108
685.85497
699.71537
705.51853
708.71343
715.12478
724.55344
725.37062
727.83384
732.65963
739.5734
734.76616
736.86356
740.9327
746.74703
)
;
        refGradient     uniform 0;
        valueFraction   uniform 0.99967867;
        value           nonuniform List<scalar> 
40
(
734.24384
736.3676
740.47977
746.30635
724.8117
727.29198
732.13403
739.04746
705.01297
708.19716
714.58154
723.99556
672.88674
676.86934
685.44081
699.29135
626.05199
629.66657
639.1533
658.3112
626.12681
629.75366
639.25585
658.42636
673.20103
677.19437
685.79504
699.65115
705.44923
708.64003
715.04576
724.46788
725.29147
727.75056
732.57108
739.47925
734.69503
736.79107
740.85744
746.66788
)
;
        Tnbr            T;
        thicknessLayers List<scalar> 0();
        kappaLayers     List<scalar> 0();
        kappaMethod     fluidThermo;
        kappa           none;
        alphaAni        none;
        alpha           none;
        field           T;
    }
    topAir_to_leftSolid
    {
        type            compressible::turbulentTemperatureCoupledBaffleMixed;
        refValue        nonuniform List<scalar> 
130
(
905.20054
905.13391
905.01278
904.83392
904.60764
904.38217
904.15213
903.9091
903.64946
903.39243
903.17736
903.00623
902.87145
905.19549
905.13711
905.03069
904.8716
904.65902
904.43743
904.20707
903.95794
903.68681
903.42431
903.19895
903.01658
902.87088
905.21395
905.16372
905.06208
904.90454
904.70062
904.48261
904.24531
903.98215
903.69725
903.4336
903.20574
903.01478
902.8614
905.27116
905.2198
905.11131
904.94088
904.73879
904.51283
904.25786
903.97644
903.69665
903.43013
903.19235
902.99114
902.82962
905.3742
905.32001
905.20047
905.02809
904.81898
904.5803
904.31134
904.00656
903.70316
903.40901
903.14372
902.92111
902.76685
905.52018
905.45916
905.32985
905.1449
904.9047
904.63053
904.33782
904.02004
903.6828
903.34692
903.05124
902.79851
902.63672
905.68973
905.61804
905.47214
905.26896
905.01255
904.70515
904.38681
904.05469
903.71376
903.38543
903.06927
902.77936
902.61832
905.84346
905.77455
905.63253
905.43237
905.17777
904.86994
904.55463
904.23127
903.90486
903.57936
903.26027
902.94966
902.79196
906.00422
905.94274
905.81443
905.62493
905.37851
905.08361
904.75573
904.42266
904.09174
903.76129
903.43256
903.16829
903.03129
906.11345
906.05807
905.94259
905.7657
905.52765
905.22626
904.85694
904.47645
904.13225
903.81729
903.52022
903.27536
903.14113
)
;
        refGradient     uniform 0;
        valueFraction   uniform 0.99967867;
        value           nonuniform List<scalar> 
130
(
905.01398
904.95469
904.84021
904.66752
904.44708
904.22719
904.00251
903.7646
903.50971
903.25706
903.04595
902.87826
902.74625
905.00893
904.9578
904.85789
904.70472
904.49766
904.28123
904.05569
903.81104
903.54396
903.28496
903.06241
902.88194
902.737
905.02739
904.98441
904.8893
904.73771
904.53933
904.32652
904.09412
903.83555
903.55493
903.29516
903.07064
902.8823
902.73042
905.08458
905.04049
904.93853
904.77408
904.57757
904.35688
904.10691
903.83026
903.555
903.29275
903.05891
902.86113
902.7021
905.18758
905.14067
905.02767
904.86127
904.65775
904.42436
904.16041
903.86042
903.56158
903.27171
903.01032
902.79097
902.63892
905.33352
905.27977
905.15701
904.97806
904.74345
904.47458
904.18689
903.87391
903.54124
903.20968
902.91796
902.6686
902.50918
905.50301
905.43861
905.29926
905.10207
904.85126
904.54915
904.23584
903.9085
903.57214
903.24812
902.93598
902.64961
902.49127
905.6567
905.59507
905.45958
905.2654
905.01636
904.71376
904.40337
904.08462
903.7625
903.44091
903.12523
902.81735
902.66132
905.81741
905.7632
905.6414
905.45786
905.21696
904.92725
904.60423
904.27565
903.94879
903.62188
903.29599
903.03368
902.89752
905.92661
905.87858
905.76975
905.59904
905.36685
905.07106
904.70715
904.3318
903.99237
903.68179
903.38867
903.14727
903.01582
)
;
        Tnbr            T;
        thicknessLayers List<scalar> 0();
        kappaLayers     List<scalar> 0();
        kappaMethod     fluidThermo;
        kappa           none;
        alphaAni        none;
        alpha           none;
        field           T;
    }
}


// ************************************************************************* //
