/*--------------------------------*- C++ -*----------------------------------*\
| =========                 |                                                 |
| \\      /  F ield         | OpenFOAM: The Open Source CFD Toolbox           |
|  \\    /   O peration     | Version:  v2012                                 |
|   \\  /    A nd           | Website:  www.openfoam.com                      |
|    \\/     M anipulation  |                                                 |
\*---------------------------------------------------------------------------*/
FoamFile
{
    version     2.0;
    format      ascii;
    class       volScalarField;
    location    "30/leftSolid";
    object      T;
}
// * * * * * * * * * * * * * * * * * * * * * * * * * * * * * * * * * * * * * //

dimensions      [0 0 0 1 0 0 0];


internalField   nonuniform List<scalar> 
130
(
409.04751
409.08917
409.13298
409.14047
409.12304
409.07459
409.0172
408.97701
408.98094
409.0024
409.02804
409.0373
409.03398
409.07342
409.11376
409.15741
409.17359
409.1526
409.1016
409.03868
409.00134
409.00482
409.01288
409.01674
409.00818
408.98912
409.09008
409.12671
409.15879
409.17528
409.14061
409.0623
408.98169
408.95576
408.95257
408.94184
408.90761
408.83868
408.80217
409.1068
409.13904
409.1599
409.16071
409.10327
409.00796
408.89752
408.82473
408.79519
408.7692
408.72694
408.65831
408.61375
409.07645
409.10933
409.14016
409.14534
409.10113
409.00145
408.86897
408.75357
408.69214
408.6594
408.61862
408.54577
408.44686
409.07645
409.10933
409.14016
409.14535
409.10113
409.00145
408.86897
408.75357
408.69214
408.6594
408.61862
408.54577
408.44686
409.1068
409.13903
409.15989
409.16071
409.10328
409.00796
408.89752
408.82472
408.79519
408.76919
408.72693
408.6583
408.61374
409.09008
409.12671
409.15879
409.17528
409.14061
409.0623
408.98169
408.95576
408.95257
408.94184
408.90761
408.83868
408.80217
409.07343
409.11377
409.15742
409.17359
409.1526
409.1016
409.03869
409.00134
409.00483
409.01288
409.01674
409.00818
408.98912
409.04751
409.08917
409.13298
409.14047
409.12304
409.07459
409.0172
408.97701
408.98094
409.0024
409.02804
409.0373
409.03398
)
;

boundaryField
{
    minX
    {
        type            zeroGradient;
    }
    minZ
    {
        type            zeroGradient;
    }
    maxZ
    {
        type            zeroGradient;
    }
    leftSolid_to_bottomWater
    {
        type            compressible::turbulentTemperatureCoupledBaffleMixed;
        refValue        nonuniform List<scalar> 
130
(
1045.7095
1048.9607
1052.0406
1050.1229
1050.6676
1048.3816
1045.7489
1042.6915
1044.941
1046.3527
1048.6471
1048.1616
1046.8737
1047.1807
1050.5213
1053.5943
1054.2015
1053.6346
1052.3771
1048.6847
1046.343
1049.7045
1050.1615
1050.8116
1051.2649
1047.7309
1045.8397
1049.5857
1050.6091
1054.8136
1054.8245
1050.0587
1043.9578
1047.6954
1050.5912
1051.2544
1050.2966
1039.9948
1038.3263
1047.5957
1051.3816
1051.2501
1054.403
1051.148
1048.1824
1041.7532
1038.5514
1041.1613
1041.9602
1041.8431
1035.8429
1034.8588
1043.6723
1047.1353
1050.1627
1053.2217
1054.8896
1052.2915
1045.3618
1037.2809
1035.7614
1037.4555
1038.4108
1036.1666
1021.0658
1043.6723
1047.1353
1050.1628
1053.222
1054.8904
1052.2918
1045.3626
1037.2813
1035.7609
1037.4549
1038.4098
1036.1679
1021.0665
1047.5956
1051.3815
1051.25
1054.403
1051.148
1048.1824
1041.7531
1038.5509
1041.1616
1041.9596
1041.8426
1035.8414
1034.8582
1045.8396
1049.5855
1050.6091
1054.8136
1054.8245
1050.0586
1043.9577
1047.6959
1050.5915
1051.2548
1050.297
1039.9938
1038.3259
1047.1809
1050.5215
1053.5944
1054.2015
1053.6346
1052.377
1048.6845
1046.343
1049.7045
1050.1615
1050.8115
1051.2647
1047.731
1045.7095
1048.9606
1052.0404
1050.1228
1050.6676
1048.3815
1045.7488
1042.6914
1044.941
1046.3527
1048.647
1048.1615
1046.8736
)
;
        refGradient     uniform 0;
        valueFraction   nonuniform List<scalar> 
130
(
0.0075140686
0.0075140686
0.0075140686
0.0075140686
0.0075140686
0.0075140686
0.0075140686
0.0075140686
0.0075140686
0.0075140686
0.0075140686
0.0075140686
0.0075140686
0.0075140686
0.0075140686
0.0075140686
0.0075140686
0.0075140686
0.0075140686
0.0075140686
0.0075140686
0.0075140686
0.0075140686
0.0075140686
0.0075140686
0.0075140686
0.0075140686
0.0075140686
0.0075140686
0.0075140686
0.0075140686
0.0075140686
0.0075140686
0.0075140686
0.0075140686
0.0075140686
0.0075140686
0.0075140686
0.0075140686
0.0075140686
0.0075140686
0.0075140686
0.0075140686
0.0075140686
0.0075140686
0.0075140686
0.0075140686
0.0075140686
0.0075140686
0.0075140686
0.0075140686
0.0075140686
0.0075140686
0.0075140686
0.0075140686
0.0075140686
0.0075140686
0.0075140686
0.0075140686
0.0075140686
0.0075140686
0.0075140686
0.0075140686
0.0075140686
0.0075140686
0.0075140686
0.0075140686
0.0075140686
0.0075140686
0.0075140686
0.0075140686
0.0075140686
0.0075140686
0.0075140686
0.0075140686
0.0075140686
0.0075140686
0.0075140686
0.0075140686
0.0075140686
0.0075140686
0.0075140686
0.0075140686
0.0075140686
0.0075140686
0.0075140686
0.0075140686
0.0075140686
0.0075140686
0.0075140686
0.0075140686
0.0075140686
0.0075140686
0.0075140686
0.0075140686
0.0075140686
0.0075140686
0.0075140686
0.0075140686
0.0075140686
0.0075140686
0.0075140686
0.0075140686
0.0075140686
0.0075140686
0.0075140686
0.0075140686
0.0075140686
0.0075140686
0.0075140686
0.0075140686
0.0075140686
0.0075140686
0.0075140686
0.0075140686
0.0075140686
0.0075140686
0.0075140686
0.0075140686
0.0075140686
0.0075140686
0.0075140686
0.0075140686
0.0075140686
0.0075140686
0.0075140686
0.0075140686
0.0075140686
0.0075140686
0.0075140686
)
;
        value           nonuniform List<scalar> 
130
(
413.76643
413.83226
413.89893
413.89198
413.87878
413.81353
413.7368
413.67396
413.69478
413.72672
413.76947
413.77509
413.76215
413.80323
413.86838
413.93482
413.95549
413.93041
413.87039
413.78024
413.72562
413.75436
413.76584
413.77464
413.76966
413.72426
413.80981
413.87432
413.91385
413.96177
413.9274
413.81388
413.68812
413.69064
413.70931
413.70371
413.6626
413.5169
413.46821
413.83967
413.90012
413.91982
413.94427
413.86276
413.74588
413.58805
413.49197
413.4824
413.46267
413.4199
413.30682
413.25529
413.78012
413.83875
413.89205
413.92011
413.88868
413.77023
413.58677
413.41177
413.33963
413.32001
413.28685
413.19781
412.98624
413.78012
413.83875
413.89205
413.92011
413.88869
413.77024
413.58678
413.41178
413.33963
413.32
413.28683
413.19782
412.98625
413.83967
413.90012
413.91982
413.94427
413.86277
413.74588
413.58805
413.49197
413.4824
413.46266
413.41989
413.3068
413.25528
413.80981
413.87432
413.91385
413.96177
413.9274
413.81388
413.68812
413.69065
413.70932
413.70371
413.6626
413.51688
413.4682
413.80323
413.86838
413.93482
413.95549
413.93041
413.87039
413.78024
413.72562
413.75436
413.76584
413.77464
413.76966
413.72426
413.76644
413.83226
413.89893
413.89198
413.87878
413.81353
413.7368
413.67396
413.69478
413.72672
413.76947
413.77509
413.76215
)
;
        Tnbr            T;
        thicknessLayers List<scalar> 0();
        kappaLayers     List<scalar> 0();
        kappaMethod     solidThermo;
        kappa           none;
        alphaAni        none;
        alpha           none;
        field           T;
    }
    leftSolid_to_heater
    {
        type            compressible::turbulentTemperatureCoupledBaffleMixed;
        refValue        nonuniform List<scalar> 10(405.97627 405.0342 402.8035 398.83387 392.41972 392.41978 398.83392 402.80349 405.0341 405.97594);
        refGradient     uniform 0;
        valueFraction   nonuniform List<scalar> 10(2.08329e-05 2.08329e-05 2.08329e-05 2.08329e-05 2.08329e-05 2.08329e-05 2.08329e-05 2.08329e-05 2.08329e-05 2.08329e-05);
        value           nonuniform List<scalar> 10(408.96883 408.92414 408.73731 408.54896 408.38217 408.38217 408.54895 408.7373 408.92414 408.96882);
        Tnbr            T;
        thicknessLayers List<scalar> 1(0.001);
        kappaLayers     List<scalar> 1(0.0005);
        kappaMethod     solidThermo;
        kappa           none;
        alphaAni        none;
        alpha           none;
        field           T;
    }
    leftSolid_to_topAir
    {
        type            compressible::turbulentTemperatureCoupledBaffleMixed;
        refValue        nonuniform List<scalar> 
130
(
304.548
308.94016
313.03394
316.86032
320.45709
323.85342
327.07228
330.1214
332.98527
335.6739
338.18951
340.53377
342.70139
304.54828
308.89013
312.88735
316.57723
319.99833
323.17698
326.13226
328.87827
331.42361
333.7706
335.91593
337.84732
339.54742
304.54916
308.90179
312.91013
316.60914
320.03789
323.22399
326.18992
328.95487
331.53086
333.92266
336.1297
338.15257
339.98237
304.55
308.90628
312.92169
316.63074
320.07287
323.27749
326.26923
329.07074
331.70121
334.17534
336.50525
338.70208
340.76769
304.54879
308.90521
312.92275
316.63535
320.08278
323.29407
326.2939
329.10517
331.74897
334.24237
336.59772
338.81609
340.88374
304.54879
308.90521
312.92275
316.63535
320.08278
323.29408
326.2939
329.10517
331.74897
334.24237
336.59772
338.81609
340.88374
304.55
308.90628
312.92169
316.63074
320.07287
323.27749
326.26923
329.07074
331.70121
334.17534
336.50525
338.70208
340.76769
304.54916
308.90179
312.91013
316.60914
320.03789
323.22399
326.18992
328.95487
331.53086
333.92266
336.1297
338.15257
339.98238
304.54828
308.89013
312.88735
316.57723
319.99833
323.17699
326.13226
328.87827
331.42361
333.7706
335.91594
337.84733
339.54743
304.548
308.94016
313.03394
316.86032
320.45709
323.85342
327.07228
330.1214
332.98526
335.6739
338.18951
340.53377
342.70138
)
;
        refGradient     uniform 0;
        valueFraction   nonuniform List<scalar> 
130
(
0.00032132529
0.00032132529
0.00032132529
0.00032132529
0.00032132529
0.00032132529
0.00032132529
0.00032132529
0.00032132529
0.00032132529
0.00032132529
0.00032132529
0.00032132529
0.00032132529
0.00032132529
0.00032132529
0.00032132529
0.00032132529
0.00032132529
0.00032132529
0.00032132529
0.00032132529
0.00032132529
0.00032132529
0.00032132529
0.00032132529
0.00032132529
0.00032132529
0.00032132529
0.00032132529
0.00032132529
0.00032132529
0.00032132529
0.00032132529
0.00032132529
0.00032132529
0.00032132529
0.00032132529
0.00032132529
0.00032132529
0.00032132529
0.00032132529
0.00032132529
0.00032132529
0.00032132529
0.00032132529
0.00032132529
0.00032132529
0.00032132529
0.00032132529
0.00032132529
0.00032132529
0.00032132529
0.00032132529
0.00032132529
0.00032132529
0.00032132529
0.00032132529
0.00032132529
0.00032132529
0.00032132529
0.00032132529
0.00032132529
0.00032132529
0.00032132529
0.00032132529
0.00032132529
0.00032132529
0.00032132529
0.00032132529
0.00032132529
0.00032132529
0.00032132529
0.00032132529
0.00032132529
0.00032132529
0.00032132529
0.00032132529
0.00032132529
0.00032132529
0.00032132529
0.00032132529
0.00032132529
0.00032132529
0.00032132529
0.00032132529
0.00032132529
0.00032132529
0.00032132529
0.00032132529
0.00032132529
0.00032132529
0.00032132529
0.00032132529
0.00032132529
0.00032132529
0.00032132529
0.00032132529
0.00032132529
0.00032132529
0.00032132529
0.00032132529
0.00032132529
0.00032132529
0.00032132529
0.00032132529
0.00032132529
0.00032132529
0.00032132529
0.00032132529
0.00032132529
0.00032132529
0.00032132529
0.00032132529
0.00032132529
0.00032132529
0.00032132529
0.00032132529
0.00032132529
0.00032132529
0.00032132529
0.00032132529
0.00032132529
0.00032132529
0.00032132529
0.00032132529
0.00032132529
0.00032132529
0.00032132529
0.00032132529
)
;
        value           nonuniform List<scalar> 
130
(
408.94846
408.99157
409.03672
409.04548
409.02921
408.98187
408.92555
408.88638
408.89124
408.9136
408.94009
408.95019
408.94759
408.97439
409.01612
409.06107
409.07849
409.05861
409.00869
408.94679
408.91038
408.9147
408.92356
408.92819
408.92037
408.90193
408.99117
409.02919
409.06255
409.08019
409.04658
408.96933
408.8898
408.86493
408.86265
408.85276
408.81931
408.75117
408.71534
409.00796
409.04159
409.06372
409.06567
409.00932
408.91506
408.80571
408.73407
408.70552
408.6804
408.63895
408.57117
408.52738
408.97767
409.01191
409.04398
409.05028
409.00711
408.9085
408.77711
408.66292
408.6026
408.57082
408.53094
408.45895
408.36081
408.97767
409.01191
409.04398
409.05028
409.00711
408.9085
408.77712
408.66292
408.6026
408.57081
408.53093
408.45895
408.36081
409.00796
409.04158
409.06372
409.06567
409.00932
408.91506
408.80571
408.73407
408.70552
408.68039
408.63894
408.57116
408.52737
408.99117
409.02919
409.06255
409.08019
409.04658
408.96933
408.8898
408.86494
408.86265
408.85276
408.81931
408.75116
408.71533
408.97439
409.01613
409.06107
409.07849
409.05861
409.00869
408.94679
408.91038
408.91471
408.92356
408.92819
408.92036
408.90193
408.94846
408.99157
409.03673
409.04548
409.02921
408.98188
408.92555
408.88638
408.89124
408.9136
408.94009
408.95018
408.94759
)
;
        Tnbr            T;
        thicknessLayers List<scalar> 0();
        kappaLayers     List<scalar> 0();
        kappaMethod     solidThermo;
        kappa           none;
        alphaAni        none;
        alpha           none;
        field           T;
    }
}


// ************************************************************************* //
