/*--------------------------------*- C++ -*----------------------------------*\
| =========                 |                                                 |
| \\      /  F ield         | OpenFOAM: The Open Source CFD Toolbox           |
|  \\    /   O peration     | Version:  v2012                                 |
|   \\  /    A nd           | Website:  www.openfoam.com                      |
|    \\/     M anipulation  |                                                 |
\*---------------------------------------------------------------------------*/
FoamFile
{
    version     2.0;
    format      ascii;
    class       surfaceScalarField;
    location    "790/topAir";
    object      phi;
}
// * * * * * * * * * * * * * * * * * * * * * * * * * * * * * * * * * * * * * //

dimensions      [1 0 -1 0 0 0 0];
oriented        oriented;


internalField   nonuniform List<scalar> 
3140
(
9.5038194e-06
-3.0607881e-07
7.1391031e-08
9.6936297e-06
-2.7136692e-07
8.1581393e-08
9.8723427e-06
-2.4914193e-07
7.0404376e-08
1.0015567e-05
-1.9556814e-07
5.2295977e-08
1.0117864e-05
-1.3132441e-07
2.8914781e-08
1.0189316e-05
-7.2409027e-08
7.8274264e-10
1.026546e-05
-2.5197803e-08
-5.1121423e-08
1.0367087e-05
1.8321095e-08
-1.2004609e-07
1.0504973e-05
8.2274559e-08
-2.2020205e-07
1.0701688e-05
1.6724573e-07
-3.6395912e-07
1.0952946e-05
3.154462e-07
-5.6664153e-07
1.1229845e-05
5.6452575e-07
-8.4125734e-07
1.1476995e-05
9.4426485e-07
-1.1910856e-06
1.1706028e-05
1.3883699e-06
-1.6168329e-06
1.1882364e-05
1.8874031e-06
-2.0628527e-06
1.1985224e-05
2.375877e-06
-2.4774914e-06
1.2000715e-05
2.8086777e-06
-2.8225969e-06
1.1932105e-05
3.1559485e-06
-3.0855374e-06
1.1807536e-05
3.3975155e-06
-3.2710199e-06
1.1671623e-05
3.527182e-06
-3.3893004e-06
1.1563417e-05
3.5601719e-06
-3.4500297e-06
1.1503801e-05
3.5226299e-06
-3.4612008e-06
1.1494359e-05
3.4396541e-06
-3.4286115e-06
1.1522487e-05
3.3301899e-06
-3.3570084e-06
1.1565112e-05
3.2077646e-06
-3.2494337e-06
1.1580351e-05
3.0882439e-06
-3.1029175e-06
1.1483885e-05
3.0004068e-06
-2.9038106e-06
1.1103873e-05
3.0044687e-06
-2.6248934e-06
1.008636e-05
3.2353909e-06
-2.2191246e-06
4.0088725e-06
-1.6352918e-06
9.1156943e-06
-2.3135961e-07
7.855715e-08
9.0864902e-06
-3.4510999e-07
1.0294051e-07
9.0925629e-06
-3.6405025e-07
1.0882643e-07
9.1457955e-06
-3.5845769e-07
1.0964598e-07
9.2440735e-06
-3.3470114e-07
1.0508396e-07
9.3819503e-06
-3.0326993e-07
9.2963974e-08
9.5633208e-06
-2.7758785e-07
7.0992408e-08
9.80472e-06
-2.6004703e-07
3.6687333e-08
1.0131524e-05
-2.2931208e-07
-1.5591401e-08
1.0575729e-05
-1.6854883e-07
-1.0869126e-07
1.1163293e-05
-2.7340621e-08
-2.4516835e-07
1.1881707e-05
2.8633661e-07
-4.4103779e-07
1.2629955e-05
9.0320884e-07
-7.0869455e-07
1.3281279e-05
1.7558283e-06
-1.0206906e-06
1.3760619e-05
2.7224611e-06
-1.3163426e-06
1.4006944e-05
3.6647213e-06
-1.5368775e-06
1.4014386e-05
4.4697779e-06
-1.6699031e-06
1.3834401e-05
5.0926975e-06
-1.7577171e-06
1.3554409e-05
5.5212567e-06
-1.8442605e-06
1.3266704e-05
5.7614065e-06
-1.9466799e-06
1.3026025e-05
5.8417364e-06
-2.0407925e-06
1.2849749e-05
5.8011761e-06
-2.1020482e-06
1.2731601e-05
5.6750585e-06
-2.117015e-06
1.2653984e-05
5.4883097e-06
-2.08032e-06
1.2594601e-05
5.2535015e-06
-1.9862978e-06
1.251339e-05
4.9890106e-06
-1.8197016e-06
1.2328995e-05
4.7365304e-06
-1.5522617e-06
1.1886766e-05
4.5909906e-06
-1.14573e-06
1.0937068e-05
4.7430319e-06
-5.6094046e-07
5.4105742e-06
2.571127e-07
9.1673177e-06
-2.1036754e-07
8.0650964e-08
8.9960468e-06
-2.8105561e-07
1.0721618e-07
8.8104841e-06
-2.9484404e-07
1.1635589e-07
8.6234606e-06
-2.9413518e-07
1.2270036e-07
8.447512e-06
-2.8630887e-07
1.2755526e-07
8.2877826e-06
-2.7400943e-07
1.3046729e-07
8.140857e-06
-2.6284638e-07
1.3218148e-07
8.0047148e-06
-2.5880715e-07
1.3489732e-07
7.8983475e-06
-2.6450401e-07
1.4155645e-07
7.8669317e-06
-2.8817689e-07
1.5104547e-07
8.0299249e-06
-3.4479141e-07
1.5444798e-07
8.5547094e-06
-3.6721293e-07
1.2824975e-07
9.495892e-06
-9.2642551e-08
5.2645612e-08
1.0711262e-05
5.7070568e-07
-3.3524997e-08
1.1780571e-05
1.7056e-06
-5.6486633e-08
1.2552729e-05
2.8354044e-06
5.270889e-08
1.2939909e-05
3.6984856e-06
3.7984727e-07
1.302309e-05
4.3191334e-06
6.867056e-07
1.2930809e-05
4.7291514e-06
8.814623e-07
1.2794347e-05
4.9550038e-06
9.4068231e-07
1.2677867e-05
5.0160908e-06
9.4057079e-07
1.2590739e-05
4.9410721e-06
9.4615268e-07
1.2516479e-05
4.76714e-06
9.8142823e-07
1.2426403e-05
4.5288828e-06
1.0489686e-06
1.2309467e-05
4.2561168e-06
1.1139117e-06
1.214887e-05
3.9693876e-06
1.1798609e-06
1.1914084e-05
3.7016412e-06
1.2692453e-06
1.1558874e-05
3.5293562e-06
1.416065e-06
1.0971558e-05
3.6343822e-06
1.6942901e-06
4.3787312e-06
2.1872565e-06
8.9797817e-06
7.8803191e-08
8.5946447e-06
1.0408119e-07
8.1876813e-06
1.1211912e-07
7.7767356e-06
1.1681019e-07
7.3706316e-06
1.1979476e-07
6.9755437e-06
1.2107802e-07
6.590874e-06
1.2182277e-07
6.2078207e-06
1.2424527e-07
5.8112858e-06
1.3202961e-07
5.3727501e-06
1.503566e-07
4.8376307e-06
1.9032151e-07
4.1988543e-06
2.7152299e-07
3.691261e-06
4.1469061e-07
3.647631e-06
6.1223728e-07
4.39745e-06
9.5139547e-07
5.5820839e-06
1.6457549e-06
6.5862826e-06
2.6895417e-06
7.3707568e-06
3.5305474e-06
8.0175075e-06
4.0790447e-06
8.5905869e-06
4.3792757e-06
9.1086458e-06
4.4959714e-06
9.5574839e-06
4.4906406e-06
9.9110481e-06
4.412348e-06
1.0150215e-05
4.2887689e-06
1.0266899e-05
4.1387172e-06
1.0276099e-05
3.9596676e-06
1.0213855e-05
3.7635278e-06
1.0179773e-05
3.5631773e-06
1.0440387e-05
3.3734332e-06
3.1759963e-06
9.6144915e-06
-3.0584725e-07
3.1877434e-08
9.9194443e-06
-2.7209514e-07
4.8820067e-08
1.0201663e-05
-2.6262503e-07
5.0888591e-08
1.0435265e-05
-2.2640484e-07
4.5190263e-08
1.0614461e-05
-1.8378838e-07
3.3617008e-08
1.0752181e-05
-1.5132712e-07
1.4550247e-08
1.0850705e-05
-1.3721239e-07
-1.2179743e-08
1.0920543e-05
-1.4450551e-07
-4.4980587e-08
1.0971327e-05
-1.7899882e-07
-9.1368422e-08
1.1012197e-05
-2.4822904e-07
-1.5571162e-07
1.1053564e-05
-3.6322404e-07
-2.4357608e-07
1.1108692e-05
-5.3540298e-07
-3.5939791e-07
1.1199277e-05
-7.774554e-07
-5.0225415e-07
1.1410202e-05
-1.1565562e-06
-6.68878e-07
1.1729358e-05
-1.5518542e-06
-8.274928e-07
1.2098814e-05
-1.8749396e-06
-9.6901906e-07
1.2419905e-05
-2.0295367e-06
-1.1109804e-06
1.2620923e-05
-2.0121993e-06
-1.2711667e-06
1.2693679e-05
-1.8937441e-06
-1.4468933e-06
1.2684853e-05
-1.7580713e-06
-1.6193449e-06
1.2647638e-05
-1.6443796e-06
-1.7655662e-06
1.2618817e-05
-1.5552596e-06
-1.8746512e-06
1.2610031e-05
-1.4796103e-06
-1.9383365e-06
1.2619412e-05
-1.4105825e-06
-1.9546416e-06
1.2648412e-05
-1.3500989e-06
-1.9279799e-06
1.2697984e-05
-1.2902852e-06
-1.8626518e-06
1.2751128e-05
-1.2063741e-06
-1.7518311e-06
1.2746307e-05
-1.0356984e-06
-1.5868217e-06
1.2550203e-05
-6.4044079e-07
-1.386867e-06
4.6015646e-07
-1.1561467e-06
9.2387374e-06
-2.3278368e-07
3.5726948e-08
9.3567679e-06
-3.4898872e-07
6.1801803e-08
9.5034436e-06
-3.7308067e-07
7.2605356e-08
9.6902149e-06
-3.781318e-07
7.4601832e-08
9.9124586e-06
-3.7134013e-07
7.0393219e-08
1.0158057e-05
-3.6277177e-07
5.8814843e-08
1.0418604e-05
-3.6433472e-07
3.7578613e-08
1.0692389e-05
-3.8617034e-07
4.5895316e-09
1.0984951e-05
-4.393962e-07
-4.7700359e-08
1.1293909e-05
-5.4347522e-07
-1.2229104e-07
1.1633594e-05
-7.2113993e-07
-2.2674095e-07
1.2024468e-05
-1.0020622e-06
-3.6495158e-07
1.2496691e-05
-1.4267213e-06
-5.3124146e-07
1.3030117e-05
-2.013319e-06
-6.9683472e-07
1.3596112e-05
-2.6038227e-06
-8.2974234e-07
1.4087096e-05
-2.9429007e-06
-9.592546e-07
1.4392948e-05
-2.8635987e-06
-1.1412646e-06
1.4477032e-05
-2.4766934e-06
-1.3772495e-06
1.4382121e-05
-2.0075988e-06
-1.635785e-06
1.4206328e-05
-1.6475951e-06
-1.8819174e-06
1.401606e-05
-1.4062887e-06
-2.0893206e-06
1.3828591e-05
-1.2354171e-06
-2.2351818e-06
1.3640625e-05
-1.1092354e-06
-2.3001028e-06
1.345141e-05
-1.0215485e-06
-2.2805628e-06
1.3297101e-05
-1.0018383e-06
-2.1801487e-06
1.3244067e-05
-1.0508289e-06
-2.0052639e-06
1.3399801e-05
-1.1622323e-06
-1.7503302e-06
1.3993403e-05
-1.3354621e-06
-1.4366939e-06
1.565057e-05
-1.6127533e-06
-1.2415124e-06
-1.6864503e-06
-1.3610168e-06
9.2930121e-06
-2.1261898e-07
3.6434922e-08
9.2722376e-06
-2.8472299e-07
6.3724745e-08
9.2391395e-06
-3.0035565e-07
7.6728644e-08
9.2057595e-06
-3.0386314e-07
8.1811432e-08
9.1829026e-06
-3.0278094e-07
8.1852318e-08
9.1739337e-06
-2.9960643e-07
7.6269919e-08
9.1784594e-06
-3.0041529e-07
6.3734758e-08
9.1963908e-06
-3.1243142e-07
4.3224536e-08
9.2279021e-06
-3.4436866e-07
1.5014304e-08
9.2811362e-06
-4.1270772e-07
-3.2959922e-08
9.3705424e-06
-5.4700488e-07
-1.0909902e-07
9.5115702e-06
-7.9467515e-07
-2.2018383e-07
9.727511e-06
-1.2238347e-06
-3.6620514e-07
1.004382e-05
-1.8610129e-06
-5.0216492e-07
1.0394097e-05
-2.4642726e-06
-5.4645925e-07
1.0684506e-05
-2.6844151e-06
-4.9682953e-07
1.0927269e-05
-2.3299617e-06
-3.9812563e-07
1.1029346e-05
-1.6076024e-06
-2.8708832e-07
1.102345e-05
-8.3438312e-07
-2.8921365e-07
1.0915444e-05
-1.7704679e-07
-4.2570026e-07
1.0839054e-05
1.2897908e-07
-5.2156288e-07
1.0814266e-05
2.3712639e-07
-5.0457783e-07
1.081657e-05
2.3481072e-07
-3.6779242e-07
1.0801139e-05
1.6055035e-07
-1.203656e-07
1.0759335e-05
2.5548561e-08
1.2595757e-07
1.0691072e-05
-1.5578168e-07
3.516385e-07
1.0665439e-05
-4.4820706e-07
5.8095368e-07
1.0798217e-05
-7.5191434e-07
7.0080712e-07
1.1451968e-05
-1.0243733e-06
4.536127e-07
-1.1671273e-06
-1.7929599e-07
9.0997316e-06
3.5404964e-08
8.8575998e-06
6.148983e-08
8.5957889e-06
7.3574084e-08
8.3308879e-06
7.7847755e-08
8.0708502e-06
7.7051231e-08
7.821681e-06
7.0640383e-08
7.5856981e-06
5.7389845e-08
7.3612261e-06
3.6285028e-08
7.1409317e-06
7.9539065e-09
6.9234828e-06
-4.4904434e-08
6.6896879e-06
-1.2289245e-07
6.4101369e-06
-2.4361041e-07
6.0526018e-06
-4.5163134e-07
5.5992011e-06
-7.9540452e-07
5.1577723e-06
-1.0719417e-06
4.9226343e-06
-8.0576942e-07
4.9482428e-06
3.3044022e-07
4.9809625e-06
1.8867364e-06
5.1631603e-06
3.0597432e-06
5.6156702e-06
3.7478067e-06
6.1503716e-06
4.0881615e-06
6.65883e-06
4.2180828e-06
7.0833357e-06
4.2221797e-06
7.4006236e-06
4.1317847e-06
7.6116929e-06
3.9535181e-06
7.7621102e-06
3.6540234e-06
7.8760553e-06
3.2020521e-06
8.0571851e-06
2.6309315e-06
8.8703079e-06
1.5369223e-06
1.1604759e-07
9.5927409e-06
-3.0789965e-07
1.6160801e-08
9.8882674e-06
-2.7296884e-07
2.6307482e-08
1.0169276e-05
-2.5996515e-07
2.9851587e-08
1.040503e-05
-2.1940156e-07
2.8839483e-08
1.0586266e-05
-1.7246408e-07
2.4819048e-08
1.0718072e-05
-1.356762e-07
1.8370597e-08
1.0809127e-05
-1.1295969e-07
9.6664881e-09
1.0870452e-05
-1.0427088e-07
-2.095998e-09
1.0906662e-05
-1.1240901e-07
-1.5224315e-08
1.0925259e-05
-1.4333021e-07
-3.1020184e-08
1.0936729e-05
-2.0763147e-07
-4.744848e-08
1.0960077e-05
-3.2306423e-07
-5.9738867e-08
1.1030273e-05
-5.1639534e-07
-5.620383e-08
1.1242947e-05
-8.5843663e-07
-2.3190735e-08
1.1524667e-05
-1.1818053e-06
7.3022627e-08
1.1772733e-05
-1.4161545e-06
2.0035653e-07
1.1933696e-05
-1.5818942e-06
3.1214214e-07
1.2011313e-05
-1.7380367e-06
3.9224388e-07
1.2025784e-05
-1.9005389e-06
4.4278896e-07
1.2003041e-05
-2.0668646e-06
4.7420641e-07
1.1975057e-05
-2.233388e-06
4.99672e-07
1.19538e-05
-2.3819024e-06
5.3185072e-07
1.1926152e-05
-2.4869856e-06
5.787431e-07
1.1873666e-05
-2.53812e-06
6.3726832e-07
1.1795861e-05
-2.5476811e-06
6.9758517e-07
1.1726808e-05
-2.5469757e-06
7.5221489e-07
1.1735522e-05
-2.5514806e-06
7.8851042e-07
1.1890719e-05
-2.4991575e-06
7.5330451e-07
1.2073218e-05
-2.0653361e-06
4.9037077e-07
-8.0900975e-07
-1.4742972e-07
9.2116468e-06
-2.3275556e-07
1.7906567e-08
9.3166024e-06
-3.48252e-07
3.2124758e-08
9.4601113e-06
-3.7027789e-07
3.9403894e-08
9.6464446e-06
-3.7174593e-07
4.0607671e-08
9.867468e-06
-3.598812e-07
3.6780742e-08
1.0107599e-05
-3.4455344e-07
2.7552788e-08
1.0356682e-05
-3.3594219e-07
1.1466766e-08
1.0611541e-05
-3.416652e-07
-1.2891965e-08
1.087044e-05
-3.7116437e-07
-4.7868974e-08
1.1139198e-05
-4.3830252e-07
-9.6111197e-08
1.1432388e-05
-5.69889e-07
-1.5772162e-07
1.1783528e-05
-8.1342925e-07
-2.2579882e-07
1.2249001e-05
-1.2369027e-06
-2.7630682e-07
1.2775349e-05
-1.8180642e-06
-2.6351418e-07
1.320428e-05
-2.2263954e-06
-2.1371074e-07
1.338965e-05
-2.3316787e-06
-2.2851993e-07
1.3332877e-05
-2.3152762e-06
-3.5052365e-07
1.3123772e-05
-2.3377629e-06
-5.6794477e-07
1.2809603e-05
-2.3715828e-06
-8.503009e-07
1.2435409e-05
-2.4224702e-06
-1.1521358e-06
1.2037087e-05
-2.5088646e-06
-1.4158652e-06
1.1616055e-05
-2.5985378e-06
-1.5980957e-06
1.1155964e-05
-2.6459703e-06
-1.6816222e-06
1.0656241e-05
-2.6443336e-06
-1.674861e-06
1.0138499e-05
-2.626289e-06
-1.5831432e-06
9.6797841e-06
-2.6924131e-06
-1.3989429e-06
9.5254808e-06
-2.9315687e-06
-1.2117848e-06
1.00802e-05
-3.2869169e-06
-1.19743e-06
1.1763682e-05
-3.3881512e-06
-1.5937822e-06
-2.7357515e-06
-2.4183575e-06
9.2668404e-06
-2.1234903e-07
1.8148745e-08
9.2337627e-06
-2.8416667e-07
3.2716826e-08
9.1981549e-06
-2.9875309e-07
4.0811176e-08
9.1659298e-06
-3.007156e-07
4.3005727e-08
9.1454722e-06
-2.9759002e-07
4.0018081e-08
9.1377137e-06
-2.9163139e-07
3.110534e-08
9.1394189e-06
-2.8823873e-07
1.4324396e-08
9.1476092e-06
-2.9365927e-07
-1.2974328e-08
9.1619549e-06
-3.1575461e-07
-5.4745828e-08
9.1778811e-06
-3.6981165e-07
-1.1738531e-07
9.1933622e-06
-4.8825759e-07
-2.0622699e-07
9.2180352e-06
-7.3640212e-07
-3.2191128e-07
9.3051086e-06
-1.246099e-06
-4.4408383e-07
9.4567007e-06
-1.9931334e-06
-4.7827588e-07
9.3224036e-06
-2.249002e-06
-3.8895646e-07
8.8350538e-06
-1.9411158e-06
-4.0012924e-07
8.1935177e-06
-1.5038924e-06
-5.6893684e-07
7.7240178e-06
-1.3542382e-06
-8.0257152e-07
7.2544548e-06
-1.0672561e-06
-1.1258295e-06
6.7164498e-06
-8.4130935e-07
-1.4712688e-06
6.1475486e-06
-7.5931456e-07
-1.7051136e-06
5.5818097e-06
-8.0349803e-07
-1.7368e-06
5.0617363e-06
-9.1966788e-07
-1.5763653e-06
4.67962e-06
-1.0805928e-06
-1.3031887e-06
4.4281643e-06
-1.2951376e-06
-9.5311126e-07
4.2924592e-06
-1.6162976e-06
-5.8565466e-07
4.6049335e-06
-2.0924212e-06
-5.6519778e-07
5.5395818e-06
-2.6771993e-06
-8.3616999e-07
7.0933295e-06
-2.8737989e-06
-1.6035337e-06
-2.1759903e-06
-3.0772656e-06
9.0743058e-06
1.7702539e-08
8.8199238e-06
3.1704876e-08
8.5554645e-06
3.9280103e-08
8.2915966e-06
4.0999752e-08
8.0335416e-06
3.7515884e-08
7.7845913e-06
2.7958974e-08
7.543862e-06
9.8799614e-09
7.3061766e-06
-1.9689451e-08
7.065716e-06
-6.7341093e-08
6.7964278e-06
-1.4542931e-07
6.4576952e-06
-2.724189e-07
5.9642073e-06
-4.8651495e-07
5.136656e-06
-8.699834e-07
3.8263982e-06
-1.4763821e-06
2.3823461e-06
-1.8747746e-06
1.3445594e-06
-1.7096252e-06
1.390216e-06
-1.2218889e-06
1.7205123e-06
2.0095676e-07
2.1262782e-06
1.5863427e-06
2.6440827e-06
2.3889775e-06
3.1936092e-06
2.7797279e-06
3.6796761e-06
2.9291769e-06
4.0534361e-06
2.9297452e-06
4.274055e-06
2.8319156e-06
4.2639789e-06
2.6701857e-06
3.9896539e-06
2.3139938e-06
3.8554039e-06
1.2459901e-06
3.9560995e-06
-1.4388586e-07
4.3413128e-06
-1.7143557e-06
-3.9342651e-06
9.5869916e-06
-3.0812073e-07
6.4155939e-09
9.874973e-06
-2.7257261e-07
1.0948038e-08
1.0149831e-05
-2.5788152e-07
1.2888348e-08
1.0380413e-05
-2.1444583e-07
1.2709548e-08
1.0556963e-05
-1.626678e-07
1.0920233e-08
1.0685613e-05
-1.180637e-07
7.7523319e-09
1.0775659e-05
-8.3725957e-08
3.3186231e-09
1.083493e-05
-5.9004035e-08
-2.3745187e-09
1.087338e-05
-4.3774012e-08
-9.9119335e-09
1.0902277e-05
-4.148415e-08
-1.8464858e-08
1.0943485e-05
-6.2035619e-08
-2.6708449e-08
1.1040577e-05
-1.2742151e-07
-2.9628487e-08
1.1261366e-05
-2.6334742e-07
-1.4043287e-08
1.1634154e-05
-4.3323574e-07
3.7359543e-08
1.199204e-05
-3.9462226e-07
1.1067209e-07
1.2232558e-05
-2.2686773e-07
1.8853234e-07
1.2363409e-05
-8.8988719e-08
2.7286665e-07
1.2439346e-05
-5.3628587e-08
3.7309628e-07
1.2497104e-05
-1.0584945e-07
4.9453791e-07
1.2567834e-05
-2.3349404e-07
6.4114944e-07
1.2666231e-05
-4.1053199e-07
8.1651067e-07
1.2773165e-05
-5.9229351e-07
1.022188e-06
1.2848554e-05
-7.4520427e-07
1.2533127e-06
1.2869238e-05
-8.736217e-07
1.4940958e-06
1.2846373e-05
-9.9184945e-07
1.7148133e-06
1.2794918e-05
-1.0648566e-06
1.8694362e-06
1.2634639e-05
-9.4726357e-07
1.8955982e-06
1.2127489e-05
-4.7308961e-07
1.7327468e-06
1.0713172e-05
5.8734469e-07
1.3178153e-06
2.737451e-06
6.1264902e-07
9.2040676e-06
-2.3257864e-07
7.2673888e-09
9.2974312e-06
-3.4770332e-07
1.388734e-08
9.4298317e-06
-3.687194e-07
1.7835896e-08
9.6051795e-06
-3.6809213e-07
1.8900916e-08
9.8143514e-06
-3.5232228e-07
1.7257812e-08
1.0041406e-05
-3.3031904e-07
1.2747377e-08
1.0275245e-05
-3.1108674e-07
4.9834429e-09
1.0511782e-05
-3.0104687e-07
-7.3942819e-09
1.0753465e-05
-3.0781825e-07
-2.5523083e-08
1.1012399e-05
-3.4727163e-07
-4.9291026e-08
1.1322816e-05
-4.5412947e-07
-7.6108765e-08
1.1760142e-05
-6.9542695e-07
-9.5236989e-08
1.2445908e-05
-1.1405602e-06
-8.5010164e-08
1.3231391e-05
-1.4570629e-06
-2.4944305e-08
1.3800816e-05
-1.2222429e-06
4.4966147e-08
1.4150376e-05
-8.5715439e-07
5.2787752e-08
1.4312597e-05
-6.310247e-07
2.9945668e-08
1.4327625e-05
-6.1492954e-07
-2.0884216e-08
1.4211843e-05
-7.4695396e-07
-9.2547033e-08
1.3999526e-05
-9.8409679e-07
-1.8833209e-07
1.3712085e-05
-1.2448762e-06
-2.9323873e-07
1.3339334e-05
-1.4453728e-06
-3.7142834e-07
1.2840448e-05
-1.5521014e-06
-3.7510134e-07
1.2217427e-05
-1.6176197e-06
-3.0734486e-07
1.1568388e-05
-1.7257674e-06
-2.0001852e-07
1.114372e-05
-1.9141822e-06
-1.2481588e-07
1.1082878e-05
-1.8848166e-06
-2.1277293e-07
1.1147208e-05
-1.172064e-06
-5.6093086e-07
1.1069524e-05
1.9439503e-07
-1.1206008e-06
2.2267016e-06
-1.8157968e-06
9.2595755e-06
-2.123367e-07
7.2919998e-09
9.2148095e-06
-2.8418449e-07
1.3963757e-08
9.167224e-06
-2.9845064e-07
1.8127541e-08
9.1222746e-06
-2.995723e-07
1.9434838e-08
9.0870607e-06
-2.9491144e-07
1.7820564e-08
9.0613949e-06
-2.8637788e-07
1.2829196e-08
9.0397801e-06
-2.7898414e-07
3.8354423e-09
9.0174304e-06
-2.7941451e-07
-1.2258851e-08
8.9887106e-06
-2.9636962e-07
-3.7478697e-08
8.9484777e-06
-3.4946633e-07
-7.4966748e-08
8.9009712e-06
-4.8529474e-07
-1.2757513e-07
8.8919732e-06
-8.2037359e-07
-1.8799894e-07
9.124554e-06
-1.6005043e-06
-2.1663659e-07
9.519212e-06
-2.1743016e-06
-1.5492064e-07
9.3548278e-06
-1.366226e-06
-8.1051834e-08
8.8661378e-06
-6.7303882e-07
-9.7172859e-08
8.2149753e-06
-3.4605865e-07
-2.05104e-07
7.4482261e-06
-2.5218655e-07
-4.0132143e-07
6.6310692e-06
-3.9270335e-07
-6.6606837e-07
5.7612419e-06
-6.0799973e-07
-9.8106513e-07
4.8821208e-06
-8.4483824e-07
-1.2297644e-06
4.0533453e-06
-1.0893745e-06
-1.267493e-06
3.303777e-06
-1.3041485e-06
-1.0777489e-06
2.6781834e-06
-1.5195201e-06
-7.7826667e-07
2.3018955e-06
-1.8011883e-06
-5.0295614e-07
2.5225881e-06
-2.2806362e-06
-4.3888213e-07
3.5111066e-06
-2.5371396e-06
-8.958037e-07
4.8620078e-06
-1.6499034e-06
-1.6970746e-06
5.9009221e-06
8.997835e-08
-2.5208554e-06
1.6460898e-06
-3.2209695e-06
9.0672548e-06
7.0634246e-09
8.8013743e-06
1.3400605e-08
8.525008e-06
1.7195572e-08
8.2483519e-06
1.808327e-08
7.9750157e-06
1.5940402e-08
7.7063533e-06
1.0243154e-08
7.4365533e-06
6.9545677e-10
7.1568808e-06
-1.9432002e-08
6.8445736e-06
-5.1404301e-08
6.4550802e-06
-1.0540327e-07
5.8968662e-06
-1.9949942e-07
4.9633805e-06
-3.7336812e-07
3.2263025e-06
-7.3287385e-07
8.9481187e-07
-1.3150397e-06
-1.1134093e-06
-1.2343288e-06
-2.4742137e-06
-1.0258745e-06
-3.2684345e-06
-7.7787281e-07
-3.0129272e-06
-3.100836e-07
-2.2037578e-06
3.8511461e-07
-1.3223493e-06
9.0137229e-07
-5.6162119e-07
1.1762905e-06
-1.0408523e-08
1.2901742e-06
3.2827427e-07
1.2893416e-06
4.252408e-07
1.2179873e-06
1.5439536e-07
1.1423809e-06
-6.6455045e-07
8.5876102e-07
-1.438389e-06
-5.0590643e-07
-1.0270516e-06
-2.1842414e-06
7.5622638e-07
-3.3904784e-06
-4.0463716e-06
9.5838947e-06
-3.0853002e-07
1.7596393e-10
9.8679534e-06
-2.7328493e-07
2.2380076e-10
1.0139315e-05
-2.5865825e-07
1.9642822e-10
1.0366956e-05
-2.1509386e-07
1.6433016e-10
1.0540686e-05
-1.6300675e-07
1.7183871e-10
1.0666181e-05
-1.1803537e-07
2.4976631e-10
1.0752489e-05
-8.3469935e-08
4.334168e-10
1.0808157e-05
-5.8838287e-08
7.5427776e-10
1.0842271e-05
-4.5301759e-08
1.2442742e-09
1.0870451e-05
-4.8571344e-08
1.8961927e-09
1.0925327e-05
-8.4076614e-08
2.4374251e-09
1.1075315e-05
-1.8151993e-07
1.7545959e-09
1.1406468e-05
-3.4312807e-07
-2.297134e-09
1.1844231e-05
-3.859318e-07
-1.4421716e-08
1.22016e-05
-2.183772e-07
-2.7796062e-08
1.2451399e-05
-2.3321727e-08
-3.7111136e-08
1.2631867e-05
1.3683157e-07
-4.3508904e-08
1.277119e-05
2.8331146e-07
-4.8507387e-08
1.2907342e-05
4.1054754e-07
-5.0994173e-08
1.3071878e-05
5.2734183e-07
-4.9366799e-08
1.327719e-05
6.5530409e-07
-4.2488264e-08
1.3497633e-05
8.3631113e-07
-3.268203e-08
1.3670045e-05
1.1076254e-06
-2.4622479e-08
1.3741951e-05
1.4455437e-06
-2.1140805e-08
1.3670168e-05
1.8083445e-06
-1.9569454e-08
1.3387261e-05
2.1731168e-06
-1.8723982e-08
1.274233e-05
2.5592945e-06
-1.6851122e-08
1.1465981e-05
3.0263073e-06
-1.5323792e-08
9.1343543e-06
3.6646421e-06
-1.3389146e-08
4.872584e-06
-9.8442091e-10
9.1997948e-06
-2.3268875e-07
6.0187641e-10
9.2870669e-06
-3.4796949e-07
1.2951341e-09
9.41314e-06
-3.6900927e-07
2.1083132e-09
9.5820662e-06
-3.6825502e-07
3.1303453e-09
9.7840702e-06
-3.5219265e-07
4.4337206e-09
1.0002486e-05
-3.2980571e-07
6.0958576e-09
1.0226114e-05
-3.1038452e-07
8.2614903e-09
1.0449974e-05
-3.0088365e-07
1.0780179e-08
1.0676846e-05
-3.1145268e-07
1.3735771e-08
1.0925881e-05
-3.640328e-07
1.7101936e-08
1.1253151e-05
-5.0741747e-07
1.9905455e-08
1.178796e-05
-8.303464e-07
1.8691089e-08
1.2681258e-05
-1.3315791e-06
1.0105723e-08
1.3412018e-05
-1.131645e-06
-9.9582687e-09
1.3953872e-05
-6.9085654e-07
-2.4406193e-08
1.4367538e-05
-3.632961e-07
-2.089609e-08
1.4690165e-05
-1.4037642e-07
-1.5137196e-08
1.4914722e-05
4.5421414e-08
-6.6004842e-09
1.5105406e-05
1.205768e-07
9.011614e-09
1.5319159e-05
1.0378217e-07
2.6303303e-08
1.5593156e-05
5.3347504e-08
4.4024661e-08
1.5909185e-05
1.1005047e-07
5.4457827e-08
1.6115334e-05
4.9959991e-07
4.9851612e-08
1.6168188e-05
1.0782041e-06
3.7061254e-08
1.6039871e-05
1.7432765e-06
2.7940022e-08
1.5652885e-05
2.4469624e-06
2.4761665e-08
1.4814012e-05
3.1983025e-06
2.2888779e-08
1.3238394e-05
4.0608523e-06
1.3029727e-08
1.0687486e-05
5.1314344e-06
-8.9098902e-09
6.5935982e-06
-3.0523177e-08
9.2552945e-06
-2.1236683e-07
6.3633233e-10
9.2042145e-06
-2.8430415e-07
1.3780794e-09
9.1496015e-06
-2.9857169e-07
2.3025859e-09
9.0968345e-06
-2.9959912e-07
3.5454792e-09
9.0520457e-06
-2.9482213e-07
5.2383729e-09
9.0138413e-06
-2.8630968e-07
7.5369841e-09
8.9759623e-06
-2.7943903e-07
1.0768091e-08
8.9290955e-06
-2.8106565e-07
1.4788299e-08
8.8634331e-06
-3.0346438e-07
2.0191814e-08
8.7705434e-06
-3.7371303e-07
2.7594532e-08
8.6602413e-06
-5.6175259e-07
3.7042377e-08
8.656383e-06
-1.0592833e-06
4.4776177e-08
9.313861e-06
-2.2374412e-06
3.1925503e-08
9.4129461e-06
-1.38347e-06
-2.5458422e-09
9.213132e-06
-5.487754e-07
-2.4548863e-08
8.9322085e-06
-1.7651606e-07
-4.6642477e-09
8.4568725e-06
9.4355543e-08
3.3534995e-08
7.8268331e-06
1.9875975e-07
7.3309493e-08
7.0665917e-06
9.6722987e-08
1.1647583e-07
6.1315961e-06
-1.1635326e-07
1.7406467e-07
5.1411366e-06
-4.0658327e-07
2.2262939e-07
4.5408028e-06
-7.8290791e-07
2.2865534e-07
4.7472914e-06
-9.6986835e-07
1.872652e-07
5.8055498e-06
-8.9090437e-07
1.3344935e-07
7.3864239e-06
-4.2838855e-07
9.2172514e-08
8.9753675e-06
3.9565658e-07
3.8989389e-08
9.7541004e-06
1.5406796e-06
7.3655997e-09
9.5409472e-06
2.6738999e-06
-6.7753518e-08
8.3916587e-06
3.9538664e-06
-1.6452429e-07
5.5404549e-06
-2.2849729e-07
9.0630236e-06
6.253533e-10
8.7907738e-06
1.346103e-09
8.5071477e-06
2.2497052e-09
8.2221404e-06
3.4911995e-09
7.9380141e-06
5.2442618e-09
7.654194e-06
7.7532856e-09
7.3640741e-06
1.1376024e-08
7.0474019e-06
1.6174236e-08
6.6689898e-06
2.3543059e-08
6.1543525e-06
3.5520779e-08
5.3371146e-06
5.5989408e-08
3.8124957e-06
9.2038083e-08
6.9243724e-07
1.5058819e-07
-2.160055e-06
1.5455508e-07
-4.0045762e-06
5.7578791e-08
-5.2872563e-06
7.661587e-08
-6.1158516e-06
1.4307345e-07
-6.4308971e-06
2.0293471e-07
-6.1665927e-06
2.1720018e-07
-5.536872e-06
1.5614293e-07
-4.7966837e-06
3.1852244e-08
-4.2173266e-06
-6.8831306e-08
-3.7292249e-06
-1.6512024e-07
-3.1602942e-06
-2.391298e-07
-2.2026905e-06
-2.4265111e-07
-8.6556534e-07
-8.3293245e-08
4.659973e-07
-2.8875641e-07
1.3285263e-06
-3.5805958e-07
2.2771959e-06
-3.6493773e-07
-3.2893517e-07
9.5838713e-06
-3.0849076e-07
-6.0805327e-09
9.8679668e-06
-2.732933e-07
-1.0531197e-08
1.013942e-05
-2.5870403e-07
-1.254577e-08
1.036724e-05
-2.1518494e-07
-1.247324e-08
1.0541303e-05
-1.6314206e-07
-1.0779486e-08
1.0667382e-05
-1.1817714e-07
-7.7006491e-09
1.0754503e-05
-8.3392252e-08
-3.3464304e-09
1.0811123e-05
-5.8329601e-08
2.4261083e-09
1.0846256e-05
-4.3820628e-08
9.9183634e-09
1.0874401e-05
-4.4746901e-08
1.8524208e-08
1.0924892e-05
-7.4811273e-08
2.6854389e-08
1.1058986e-05
-1.6205108e-07
2.9911583e-08
1.1362618e-05
-3.1996431e-07
1.4237898e-08
1.1800498e-05
-4.1599527e-07
-3.6311059e-08
1.2172768e-05
-2.8282905e-07
-1.1757568e-07
1.2429734e-05
-8.8378966e-08
-2.0639725e-07
1.2610174e-05
7.0640079e-08
-2.9550884e-07
1.2755083e-05
1.9945602e-07
-3.9394104e-07
1.2906391e-05
3.0696045e-07
-5.1045751e-07
1.3097579e-05
4.1054915e-07
-6.5246542e-07
1.3330302e-05
5.5294803e-07
-8.2979013e-07
1.3571612e-05
7.7351036e-07
-1.0495837e-06
1.3761049e-05
1.0878164e-06
-1.3046762e-06
1.3847617e-05
1.4648928e-06
-1.5764144e-06
1.3786472e-05
1.8650176e-06
-1.8285054e-06
1.3506178e-05
2.2626517e-06
-2.0075625e-06
1.2851888e-05
2.6797047e-06
-2.05033e-06
1.155492e-05
3.1616071e-06
-1.8898059e-06
9.1978606e-06
3.7842935e-06
-1.4526174e-06
4.9341654e-06
-7.1160049e-07
9.1998688e-06
-2.3265882e-07
-6.1283164e-09
9.2872377e-06
-3.4793152e-07
-1.1440243e-08
9.4134876e-06
-3.6896819e-07
-1.3883223e-08
9.5827461e-06
-3.6819842e-07
-1.3120397e-08
9.7854059e-06
-3.5208744e-07
-9.2867057e-09
1.0005283e-05
-3.2953129e-07
-2.4332522e-09
1.0230497e-05
-3.095073e-07
9.1587915e-09
1.0456645e-05
-2.9890772e-07
2.5208502e-08
1.0686491e-05
-3.0693965e-07
4.7015038e-08
1.093732e-05
-3.5341124e-07
7.4962725e-08
1.1258743e-05
-4.8258624e-07
1.0634037e-07
1.1762251e-05
-7.7782021e-07
1.3114964e-07
1.2596676e-05
-1.2681915e-06
1.241558e-07
1.3372058e-05
-1.2529771e-06
5.1629484e-08
1.3922157e-05
-8.2579517e-07
-3.17578e-08
1.4330688e-05
-4.6372447e-07
-5.4487894e-08
1.4656733e-05
-2.4040706e-07
-3.1670674e-08
1.4919192e-05
-1.0082874e-07
2.6988143e-08
1.5143961e-05
-2.2519217e-08
1.0504313e-07
1.5401102e-05
-4.5177266e-08
2.0988739e-07
1.570766e-05
-4.6172603e-08
3.144838e-07
1.6026101e-05
1.0642352e-07
3.7620806e-07
1.6237493e-05
5.3922795e-07
3.559052e-07
1.6307374e-05
1.1375026e-06
2.6066444e-07
1.6178719e-05
1.8524433e-06
1.3425836e-07
1.577326e-05
2.590812e-06
6.7468227e-08
1.4869641e-05
3.423132e-06
1.494509e-07
1.3194268e-05
4.3335591e-06
4.8401861e-07
1.0432874e-05
5.4299297e-06
1.0758085e-06
6.9536243e-06
1.8337909e-06
9.2553787e-06
-2.1235228e-07
-6.0881417e-09
9.2044686e-06
-2.842802e-07
-1.1363486e-08
9.1501591e-06
-2.985337e-07
-1.3822726e-08
9.0979583e-06
-2.9952767e-07
-1.2924895e-08
9.0542887e-06
-2.9465844e-07
-8.5214764e-09
9.0187486e-06
-2.8584449e-07
-6.1000127e-10
8.9838663e-06
-2.7839622e-07
1.4539158e-08
8.9426674e-06
-2.7901008e-07
3.6089791e-08
8.8868721e-06
-2.9859896e-07
6.7647026e-08
8.8098357e-06
-3.6149777e-07
1.1271953e-07
8.7194902e-06
-5.2931885e-07
1.7412754e-07
8.7069553e-06
-9.6750352e-07
2.4701025e-07
9.175275e-06
-2.004594e-06
2.9988794e-07
9.4560709e-06
-1.7720624e-06
2.3557597e-07
9.1981571e-06
-7.1263159e-07
1.2109786e-07
8.9138577e-06
-3.1922419e-07
1.3642108e-07
8.4811937e-06
-2.5809401e-08
2.5301451e-07
7.9022637e-06
7.9689978e-08
4.7315496e-07
7.2624053e-06
-2.4230192e-08
7.5973907e-07
6.5401842e-06
-2.1903337e-07
1.0721121e-06
5.9430127e-06
-5.2566341e-07
1.3005271e-06
5.8201281e-06
-8.454826e-07
1.3039386e-06
6.4288104e-06
-9.6073698e-07
1.0806691e-06
7.7349596e-06
-7.9555509e-07
7.6176393e-07
9.2535586e-06
-1.3643402e-07
5.5837899e-07
1.0501007e-05
7.7691326e-07
5.9288218e-07
1.0860897e-05
2.0373317e-06
1.0136812e-06
1.0268671e-05
3.1628014e-06
1.6702194e-06
8.4744898e-06
4.6107974e-06
2.4196894e-06
6.4738608e-06
3.1128849e-06
9.0631071e-06
-5.881624e-09
8.791037e-06
-1.0864183e-08
8.5077601e-06
-1.3007362e-08
8.2234665e-06
-1.1743175e-08
7.9409368e-06
-6.8846915e-09
7.6605512e-06
2.2941518e-09
7.3745437e-06
1.8987049e-08
7.0675259e-06
4.4181792e-08
6.7088343e-06
8.3635514e-08
6.2358587e-06
1.4699838e-07
5.5096749e-06
2.5285177e-07
4.1915025e-06
4.4266086e-07
1.5145795e-06
8.2230133e-07
-1.4983642e-06
1.3918889e-06
-3.5741291e-06
1.4211656e-06
-5.0059117e-06
1.1900778e-06
-5.8922323e-06
1.0043977e-06
-6.2184252e-06
6.0965608e-07
-5.8780983e-06
-1.4652845e-07
-5.1237237e-06
-8.1733996e-07
-4.326111e-06
-1.2919128e-06
-3.6689228e-06
-1.5711739e-06
-3.0839143e-06
-1.708902e-06
-2.3531735e-06
-1.7615605e-06
-1.0366072e-06
-1.6908706e-06
6.092134e-07
-9.5285566e-07
1.9287106e-06
4.2261475e-07
2.7726978e-06
1.9452446e-06
3.8815545e-06
3.108635e-06
3.7131007e-06
9.5869571e-06
-3.0797853e-07
-1.5935974e-08
9.8750756e-06
-2.7255978e-07
-2.6045981e-08
1.0150187e-05
-2.5794452e-07
-2.9710366e-08
1.0381145e-05
-2.1456511e-07
-2.8875942e-08
1.0558206e-05
-1.6281218e-07
-2.5067225e-08
1.0687515e-05
-1.1819244e-07
-1.8874367e-08
1.0778414e-05
-8.385152e-08
-1.044735e-08
1.0838668e-05
-5.9065777e-08
1.1934579e-09
1.0877948e-05
-4.3146236e-08
1.3742605e-08
1.0906562e-05
-3.9203496e-08
2.9074068e-08
1.0944337e-05
-5.6068477e-08
4.5116869e-08
1.1030754e-05
-1.1395452e-07
5.7441068e-08
1.1229316e-05
-2.3975454e-07
5.5408426e-08
1.1589812e-05
-4.2336436e-07
2.6319541e-08
1.1959821e-05
-4.2667576e-07
-6.1645512e-08
1.2223986e-05
-2.8064179e-07
-1.9116432e-07
1.2374615e-05
-1.3827516e-07
-3.0947658e-07
1.2464179e-05
-8.9215082e-08
-3.9624838e-07
1.2533204e-05
-1.3101992e-07
-4.5097535e-07
1.2608128e-05
-2.4424417e-07
-4.8649546e-07
1.2696553e-05
-4.0192711e-07
-5.2070372e-07
1.2781907e-05
-5.7264701e-07
-5.6797552e-07
1.2842953e-05
-7.3922881e-07
-6.3360364e-07
1.2876524e-05
-9.0578622e-07
-7.1281492e-07
1.2898044e-05
-1.0618024e-06
-7.9820957e-07
1.2902875e-05
-1.1390722e-06
-8.844611e-07