/*--------------------------------*- C++ -*----------------------------------*\
| =========                 |                                                 |
| \\      /  F ield         | OpenFOAM: The Open Source CFD Toolbox           |
|  \\    /   O peration     | Version:  v2012                                 |
|   \\  /    A nd           | Website:  www.openfoam.com                      |
|    \\/     M anipulation  |                                                 |
\*---------------------------------------------------------------------------*/
FoamFile
{
    version     2.0;
    format      ascii;
    class       volVectorField;
    location    "790/topAir";
    object      U;
}
// * * * * * * * * * * * * * * * * * * * * * * * * * * * * * * * * * * * * * //

dimensions      [0 1 -1 0 0 0 0];


internalField   nonuniform List<vector> 
1200
(
(0.10476667 -0.0025104544 0.0008914905)
(0.11877814 -0.0025810895 0.0013297236)
(0.13078142 -0.0023349653 0.0014041807)
(0.14016741 -0.0017464055 0.0012572328)
(0.14837355 -0.00088398773 0.00090041166)
(0.15604581 7.412463e-05 0.00029122172)
(0.16345086 0.0010220417 -0.00060248361)
(0.17084931 0.0019024155 -0.0019428485)
(0.1784417 0.0028144289 -0.0040047367)
(0.18654886 0.0039395082 -0.0071147288)
(0.19534894 0.0056075529 -0.01168815)
(0.2045165 0.0081997628 -0.018146632)
(0.21246056 0.012131837 -0.026741664)
(0.21751199 0.016774717 -0.037251817)
(0.21972924 0.021991532 -0.048782587)
(0.21972237 0.027050745 -0.060062706)
(0.2176957 0.031346434 -0.069927021)
(0.2138824 0.034561282 -0.077713489)
(0.2088875 0.036562814 -0.083287949)
(0.20364538 0.037352985 -0.086848209)
(0.19909623 0.037126671 -0.088714666)
(0.19584909 0.036192861 -0.089209611)
(0.19407628 0.03484915 -0.088602101)
(0.19360818 0.033322703 -0.087107016)
(0.19407605 0.031785764 -0.084874374)
(0.19492727 0.030455255 -0.081920151)
(0.19519385 0.029728771 -0.078027991)
(0.19299152 0.030453768 -0.072654736)
(0.18511636 0.034613883 -0.064848445)
(0.14220671 0.048135293 -0.052624911)
(0.098708904 -0.0039372143 0.00086249313)
(0.098500022 -0.0047580338 0.0012947559)
(0.098937917 -0.004791288 0.0014719712)
(0.099858911 -0.0043017231 0.0015494645)
(0.10133562 -0.0034894321 0.001553589)
(0.10339183 -0.0026089921 0.0014683049)
(0.10600985 -0.0018307549 0.0012666358)
(0.10936198 -0.0011970044 0.00088667367)
(0.1139426 -0.00038889419 0.00020256933)
(0.12026185 0.00096537102 -0.00096162409)
(0.12930131 0.0037034322 -0.0029198262)
(0.14142203 0.008877877 -0.0060576893)
(0.15632756 0.017342225 -0.010885925)
(0.17207675 0.028017485 -0.01747285)
(0.18646582 0.040307312 -0.025295534)
(0.19769476 0.052877087 -0.033379108)
(0.20465362 0.064606833 -0.040834177)
(0.20715462 0.074494345 -0.047209018)
(0.20601438 0.081722714 -0.05237577)
(0.20275417 0.085889971 -0.056319124)
(0.19895435 0.087312377 -0.059027004)
(0.1956466 0.086747275 -0.060500114)
(0.19323046 0.084967998 -0.060812565)
(0.19170561 0.082527765 -0.060104562)
(0.19090373 0.07972943 -0.058493471)
(0.19052445 0.076920594 -0.055909646)
(0.18992544 0.074823983 -0.051935779)
(0.18781445 0.075030583 -0.045600345)
(0.18295674 0.080887209 -0.034828608)
(0.15370895 0.097182 -0.015065603)
(0.09881171 -0.0029325478 0.00089022969)
(0.097941869 -0.0042512221 0.0013443359)
(0.096280387 -0.004662821 0.0015437979)
(0.094202416 -0.0047545687 0.0016641832)
(0.092176136 -0.0047218293 0.001758063)
(0.090381328 -0.0046523382 0.0018369872)
(0.088802024 -0.0046525772 0.0019188399)
(0.087373647 -0.0047579323 0.0020461674)
(0.086159122 -0.0048036758 0.0022850146)
(0.085487886 -0.0047083626 0.0026654009)
(0.085912293 -0.0042350121 0.0031197174)
(0.089536751 -0.0018701881 0.0032291328)
(0.09978486 0.0054687345 0.0023227088)
(0.11602724 0.018878437 0.00022441942)
(0.13492352 0.036384286 -0.0026955204)
(0.15297799 0.055023119 -0.0055974201)
(0.16731201 0.071951167 -0.0079969711)
(0.17679998 0.085977294 -0.0098141911)
(0.1819568 0.096489746 -0.011368634)
(0.18427466 0.10326951 -0.012947518)
(0.18527516 0.10649746 -0.014632325)
(0.18579084 0.10673746 -0.016024724)
(0.18600673 0.10473832 -0.016740993)
(0.18578531 0.10119696 -0.016733608)
(0.18500395 0.096645104 -0.016107022)
(0.1836457 0.091541517 -0.014746365)
(0.18158659 0.086630667 -0.012256466)
(0.17846936 0.083576947 -0.0079363832)
(0.17477545 0.086120012 -0.00062528995)
(0.15546697 0.10047249 0.012509094)
(0.096867615 -0.0015790477 0.0008562375)
(0.0946442 -0.0023219878 0.0012720489)
(0.09089801 -0.0025431575 0.0014330502)
(0.086312915 -0.0025700895 0.0015128258)
(0.081713122 -0.0025054369 0.0015677672)
(0.077339763 -0.0023810389 0.0016138706)
(0.073151044 -0.0022381716 0.0016753637)
(0.069044755 -0.0021160215 0.0017983917)
(0.064887219 -0.002060307 0.0020597937)
(0.060458666 -0.0022636529 0.0025727493)
(0.055334935 -0.0032707688 0.0035666448)
(0.049080464 -0.0051765599 0.0054830337)
(0.041005723 -0.0059910946 0.0090124906)
(0.036563182 0.00076602748 0.0140052)
(0.044041087 0.016987293 0.01978549)
(0.059629043 0.034823213 0.026034822)
(0.076064341 0.049874183 0.032036934)
(0.090552035 0.062060528 0.037484015)
(0.10295694 0.071386191 0.041817213)
(0.11398973 0.077775424 0.044736228)
(0.12408611 0.081170743 0.046478629)
(0.13314701 0.081778529 0.047255765)
(0.140772 0.08009293 0.047297916)
(0.14656531 0.076714948 0.046852282)
(0.15032868 0.072254512 0.046155301)
(0.15215746 0.067219263 0.045468412)
(0.15248285 0.062259408 0.045099946)
(0.15231182 0.058645971 0.04518464)
(0.15558197 0.059273625 0.045468181)
(0.1724884 0.069947742 0.045581385)
(0.10601655 -0.002511469 0.0010141112)
(0.1208734 -0.0025892249 0.0014098148)
(0.13413263 -0.0024342971 0.001403769)
(0.14485654 -0.0020349301 0.0011649345)
(0.15420066 -0.0014632004 0.00071065669)
(0.16275018 -0.00090382832 -3.627242e-06)
(0.17052265 -0.00050724027 -0.0010404441)
(0.17742922 -0.00034427264 -0.0025706048)
(0.18344117 -0.00047789131 -0.0048521506)
(0.18853874 -0.00098656336 -0.0081808865)
(0.19266263 -0.002004917 -0.012905376)
(0.19572719 -0.0036881378 -0.019292149)
(0.19711923 -0.0061917488 -0.027289726)
(0.196561 -0.01022006 -0.036116109)
(0.19580755 -0.014848941 -0.04449796)
(0.19612902 -0.019067179 -0.051448992)
(0.19718578 -0.021894764 -0.056803345)
(0.1979145 -0.023108611 -0.060885849)
(0.19762151 -0.023265054 -0.06395581)
(0.19639791 -0.023130546 -0.066088065)
(0.19486448 -0.023094856 -0.06733978)
(0.19365512 -0.023150026 -0.06776009)
(0.19311032 -0.023184612 -0.067390241)
(0.1932651 -0.02314283 -0.066288397)
(0.19405807 -0.023019364 -0.064507792)
(0.19548953 -0.022687271 -0.062017893)
(0.19753036 -0.021688668 -0.058552312)
(0.19993867 -0.018768644 -0.053560498)
(0.20203846 -0.010350529 -0.046377315)
(0.19201391 0.013423749 -0.03671365)
(0.099988491 -0.003947587 0.0010692385)
(0.10070852 -0.0048006845 0.0016213638)
(0.10252783 -0.0049730264 0.0018224315)
(0.10500153 -0.0047420281 0.001868242)
(0.10793521 -0.0043083526 0.0017997876)
(0.11126115 -0.0039264408 0.0015928986)
(0.1148876 -0.0037955332 0.0012006484)
(0.11873879 -0.0040298638 0.00054367643)
(0.12280593 -0.0047531419 -0.00050120986)
(0.12706319 -0.0061516961 -0.0020878674)
(0.1315367 -0.0084908187 -0.0043753227)
(0.13633583 -0.012067715 -0.0075278291)
(0.14163996 -0.017218651 -0.011576969)
(0.1474013 -0.024555555 -0.015881656)
(0.15350911 -0.03229159 -0.019346986)
(0.1595636 -0.038072106 -0.021311142)
(0.16489038 -0.04000258 -0.022151494)
(0.16849166 -0.038149482 -0.023033042)
(0.16992113 -0.034225123 -0.024609636)
(0.16967739 -0.030222383 -0.026785946)
(0.16877525 -0.027155118 -0.029087041)
(0.1679701 -0.024908603 -0.031030846)
(0.16742007 -0.023092957 -0.032199617)
(0.16704084 -0.021629373 -0.032315269)
(0.16694688 -0.020836792 -0.031145164)
(0.16772444 -0.020897636 -0.028429407)
(0.17052183 -0.021647989 -0.023670435)
(0.17768374 -0.022222759 -0.015934023)
(0.19483099 -0.02055458 -0.0037286554)
(0.25309788 -0.01001371 0.010869527)
(0.10010244 -0.0029588157 0.0010905779)
(0.10017848 -0.0043015249 0.0016707667)
(0.09996667 -0.0047550987 0.0019210436)
(0.099598927 -0.0049221591 0.0020470284)
(0.09928646 -0.0050021785 0.0021081884)
(0.099145372 -0.0050818275 0.0021037355)
(0.099190001 -0.0052485872 0.0020289663)
(0.099401056 -0.0056023053 0.001892203)
(0.099770271 -0.0062859452 0.001710944)
(0.10033744 -0.0075634105 0.0014558871)
(0.10122114 -0.0097954721 0.00097144406)
(0.10262794 -0.013504652 1.7570851e-05)
(0.1047948 -0.019469948 -0.0013128624)
(0.10777663 -0.028110851 -0.0021021416)
(0.11147052 -0.037188803 -0.00073044285)
(0.11550583 -0.04329185 0.0045554397)
(0.12095328 -0.043110925 0.013417877)
(0.12645239 -0.037986347 0.021869655)
(0.13056644 -0.031277591 0.027792333)
(0.13293912 -0.026264273 0.030557232)
(0.1337517 -0.022678108 0.032294459)
(0.13490972 -0.02028487 0.034171172)
(0.13705821 -0.019007421 0.036450785)
(0.13985685 -0.018430518 0.03934743)
(0.14224345 -0.018912627 0.041924858)
(0.14381466 -0.020371489 0.043983486)
(0.14543127 -0.022584239 0.045634829)
(0.14842406 -0.025666118 0.047436151)
(0.15634568 -0.029409046 0.051473261)
(0.18614875 -0.033048395 0.058210967)
(0.098102062 -0.0016050832 0.0010659447)
(0.096767008 -0.0023773991 0.0016270351)
(0.094399778 -0.002631151 0.0018634518)
(0.091445361 -0.0027037788 0.0019721555)
(0.088479758 -0.0027012734 0.002012155)
(0.085693146 -0.0026575399 0.0019865342)
(0.083083488 -0.0026161727 0.001896198)
(0.080617347 -0.0026351011 0.0017524168)
(0.078245865 -0.0027996231 0.0015823623)
(0.075923549 -0.003266223 0.0014251932)
(0.073564488 -0.0043221513 0.0013211026)
(0.07095173 -0.0065012843 0.0013221962)
(0.067698327 -0.010602899 0.0012845945)
(0.063482574 -0.016839142 0.0011048096)
(0.058341021 -0.021753562 0.0038312571)
(0.054662129 -0.019966469 0.016873668)
(0.05712906 -0.0097279178 0.043443097)
(0.060308978 0.0045546964 0.067661008)
(0.064214591 0.018194346 0.085457213)
(0.070391547 0.028575725 0.097600153)
(0.079128673 0.034765447 0.10449845)
(0.088261022 0.036877344 0.10758094)
(0.096361908 0.035865019 0.10830275)
(0.10298921 0.03284415 0.10731305)
(0.10788796 0.028895953 0.10492723)
(0.111464 0.023953713 0.10054159)
(0.11408859 0.018358454 0.094112198)
(0.11655484 0.012473036 0.086707445)
(0.12314171 0.0071163631 0.080621697)
(0.155204 0.0044310746 0.075692601)
(0.10589421 -0.0025336833 0.00035270203)
(0.12055452 -0.0026100353 0.00058107719)
(0.13372081 -0.0024286949 0.00067271463)
(0.14446098 -0.0019813043 0.00066830146)
(0.15386903 -0.0013521649 0.00059324407)
(0.16243898 -0.00073488818 0.0004490582)
(0.17019022 -0.00024155671 0.00020253912)
(0.17710832 9.5914565e-05 -0.00016539531)
(0.18320615 0.00024968895 -0.00067146282)
(0.18846347 0.00017024267 -0.0013326388)
(0.19282825 -0.00023233354 -0.0021535002)
(0.19622203 -0.0011177177 -0.0030758306)
(0.19800729 -0.0027390482 -0.0038703867)
(0.19789336 -0.0059182476 -0.004091959)
(0.19745701 -0.0095356673 -0.0034182546)
(0.19718632 -0.012911923 -0.0023350269)
(0.19620305 -0.016103833 -0.001904812)
(0.1939823 -0.019421637 -0.0028296867)
(0.19081101 -0.022865408 -0.0050651019)
(0.18725991 -0.02636427 -0.0081130857)
(0.18389492 -0.029814579 -0.011383867)
(0.1811657 -0.032965017 -0.014320694)
(0.17919771 -0.035509328 -0.016516592)
(0.17778981 -0.037278648 -0.017843864)
(0.17671983 -0.038328074 -0.018345988)
(0.17603481 -0.038943915 -0.018028206)
(0.1762714 -0.039366674 -0.016863498)
(0.17860003 -0.038896349 -0.015692255)
(0.18410471 -0.033639958 -0.017285885)
(0.18872591 -0.014420609 -0.022449)
(0.099870593 -0.0039622868 0.00035158315)
(0.10036282 -0.0048036954 0.00060497955)
(0.1020513 -0.0049337716 0.000723289)
(0.10450592 -0.0046339323 0.00073983044)
(0.10745136 -0.0041163095 0.00066740792)
(0.11075756 -0.0036391501 0.00048836442)
(0.11430414 -0.0033480316 0.00016758901)
(0.11799938 -0.0033045088 -0.00033894914)
(0.12179396 -0.0035965281 -0.0010843071)
(0.12568141 -0.0043666731 -0.002151545)
(0.12971885 -0.0058783279 -0.0036013239)
(0.13407936 -0.0085881238 -0.0054169098)
(0.13910423 -0.013147827 -0.0073559719)
(0.14472798 -0.020012 -0.0088246092)
(0.15026471 -0.026037635 -0.0097737669)
(0.15434524 -0.029602395 -0.011644816)
(0.15577394 -0.03159505 -0.015672155)
(0.15473966 -0.033461984 -0.021532749)
(0.15230578 -0.035208226 -0.028261382)
(0.14918543 -0.036861013 -0.034813908)
(0.14574809 -0.03862709 -0.040310703)
(0.14226467 -0.040373705 -0.044149983)
(0.13875958 -0.041724722 -0.046071811)
(0.13503497 -0.042509222 -0.04623135)
(0.13110682 -0.043008178 -0.044699002)
(0.12726392 -0.044231535 -0.041267445)
(0.12513378 -0.047109046 -0.035804171)
(0.1296005 -0.050441001 -0.030985688)
(0.14725999 -0.047520908 -0.036391573)
(0.2006041 -0.028595889 -0.055837546)
(0.099988774 -0.0029545297 0.00035650801)
(0.099848032 -0.0042914284 0.00061660854)
(0.099512769 -0.0047249714 0.00075040111)
(0.099136027 -0.0048598536 0.00078759298)
(0.098859971 -0.0048954462 0.00073801032)
(0.098749786 -0.0049112455 0.00058217755)
(0.098791437 -0.0049782963 0.00028249644)
(0.09894051 -0.0051796877 -0.0002171317)
(0.099170663 -0.0056462689 -0.000993106)
(0.099465428 -0.0065916606 -0.002140223)
(0.099806212 -0.0084391342 -0.0037878343)
(0.10026915 -0.011971005 -0.0060625934)
(0.10118492 -0.0184281 -0.0088521791)
(0.10238431 -0.027519455 -0.01141972)
(0.10287681 -0.03343544 -0.013268942)
(0.10127908 -0.034010885 -0.016127028)
(0.096735562 -0.031799253 -0.020838116)
(0.091533115 -0.030713052 -0.024918037)
(0.08693599 -0.030646715 -0.029929885)
(0.082373536 -0.031693341 -0.03571329)
(0.077050312 -0.0339469 -0.040165883)
(0.071360539 -0.036770487 -0.041839569)
(0.066062399 -0.039297855 -0.040596806)
(0.061628723 -0.041301108 -0.037002698)
(0.059104148 -0.043168082 -0.030356319)
(0.058525797 -0.046249259 -0.020633368)
(0.060732403 -0.05183515 -0.0095258941)
(0.071035413 -0.059067642 -0.0037274022)
(0.088121247 -0.06197277 -0.020459379)
(0.13304955 -0.05301733 -0.060147486)
(0.097990641 -0.0016005862 0.00034703097)
(0.096442616 -0.0023680806 0.00059543051)
(0.093954168 -0.0026136707 0.00071917075)
(0.090989674 -0.0026759981 0.00074726331)
(0.088057456 -0.0026605688 0.00068918596)
(0.085295047 -0.0025991691 0.00052466271)
(0.082668628 -0.0025322214 0.00021266146)
(0.080113565 -0.002512632 -0.00031469051)
(0.077565249 -0.0026173243 -0.0011529205)
(0.074881432 -0.0029854782 -0.0024429451)
(0.071750238 -0.0039390128 -0.0044755785)
(0.06759353 -0.0062393038 -0.007811809)
(0.061436062 -0.011718287 -0.013626807)
(0.050989453 -0.02060319 -0.023292703)
(0.034748073 -0.022577341 -0.033755658)
(0.019324946 -0.016257161 -0.037959066)
(0.0092920791 -0.0091517172 -0.026716312)
(0.021536627 -0.0056533076 0.01456857)
(0.024552724 0.003202987 0.047328127)
(0.030612102 0.011581249 0.066951336)
(0.038564202 0.016999399 0.077587828)
(0.0465356 0.019103112 0.082635575)
(0.053362831 0.018453297 0.084155512)
(0.058386725 0.015642449 0.083084897)
(0.060754357 0.010972141 0.079793522)
(0.059561549 0.0040829339 0.07383748)
(0.0567461 -0.0055372932 0.064416044)
(0.058909452 -0.017510175 0.049220506)
(0.057182992 -0.022849831 0.0033547587)
(0.088384639 -0.010927684 -0.066676537)
(0.10586267 -0.0025347905 0.00019448788)
(0.12044043 -0.0026063697 0.00034674298)
(0.133517 -0.002410619 0.00043412454)
(0.144187 -0.0019327831 0.00045926804)
(0.15355274 -0.0012464068 0.0004282943)
(0.16212471 -0.0005314921 0.00034211908)
(0.16995499 0.00011262078 0.0002018424)
(0.17704414 0.00066422647 1.1897154e-05)
(0.18345995 0.0011292597 -0.00023179743)
(0.18930812 0.0014960431 -0.00051552627)
(0.19473172 0.0017115734 -0.00077572677)
(0.19998348 0.0016478498 -0.00082177244)
(0.20488685 0.0011564233 -0.0001695912)
(0.20946052 0.00019344729 0.0019208632)
(0.21468579 0.00062060663 0.0054099282)
(0.21983371 0.0018891736 0.0095771115)
(0.22362921 0.0029556692 0.01392134)
(0.22582021 0.0032708216 0.018376019)
(0.22689373 0.0026784353 0.022994663)
(0.22729387 0.0011850518 0.027752962)
(0.22732996 -0.0010061446 0.032570162)
(0.22712132 -0.0035371035 0.037388904)
(0.22645865 -0.0060884288 0.042149913)
(0.22498326 -0.0085760207 0.046564428)
(0.22266092 -0.010936654 0.050101719)
(0.21995811 -0.012629705 0.052148048)
(0.21732154 -0.012146584 0.052051402)
(0.21380057 -0.0075937599 0.049119127)
(0.20424955 0.0031888587 0.040129953)
(0.14065858 0.031429529 0.019297132)
(0.099840338 -0.0039633555 0.00020034987)
(0.10023208 -0.0047984882 0.00037165643)
(0.10178894 -0.0049076108 0.00047654033)
(0.10411661 -0.0045634559 0.00051092919)
(0.10693961 -0.0039643647 0.00047697155)
(0.11011653 -0.0033502857 0.00036781195)
(0.11351899 -0.0028477204 0.00016748281)
(0.1170506 -0.0025018168 -0.00014714109)
(0.12068326 -0.002355792 -0.00060880347)
(0.12447376 -0.0025386267 -0.0012399894)
(0.12862632 -0.0033554255 -0.0020113442)
(0.1336332 -0.0054007375 -0.0027298632)
(0.14030576 -0.009284033 -0.0028144067)
(0.14879492 -0.012944334 -0.0013715039)
(0.15783772 -0.011585014 0.00063670032)
(0.16483645 -0.0079110182 0.0016628946)
(0.1690632 -0.0051031456 0.0011636229)
(0.17097583 -0.0044577287 -0.0006457847)
(0.17121079 -0.005912769 -0.003596557)
(0.17014632 -0.0087910373 -0.0074080353)
(0.16822641 -0.012342859 -0.011494992)
(0.16576264 -0.015738723 -0.014958069)
(0.16261384 -0.018369741 -0.016924507)
(0.15829367 -0.020425543 -0.017287396)
(0.1527783 -0.022602096 -0.016462365)
(0.14745391 -0.025007713 -0.015522262)
(0.14592808 -0.024442684 -0.018231871)
(0.15077227 -0.014590972 -0.026756527)
(0.16400953 0.0094655044 -0.039788916)
(0.16620772 0.049906142 -0.055824571)
(0.099959613 -0.0029517243 0.00020179224)
(0.099721276 -0.0042856758 0.00037394464)
(0.099251583 -0.0047103441 0.00048304889)
(0.098734826 -0.0048271154 0.00052208963)
(0.098311364 -0.0048313286 0.00048869519)
(0.098029365 -0.004794919 0.00036995551)
(0.097853989 -0.0047787302 0.00014038334)
(0.09771876 -0.0048586733 -0.00023770426)
(0.097565577 -0.0051567499 -0.00082271997)
(0.097349285 -0.0059379703 -0.0017010739)
(0.097109607 -0.0077914999 -0.0029526427)
(0.097258414 -0.01195159 -0.0045283518)
(0.098606412 -0.020300917 -0.0058192054)
(0.10053265 -0.027537673 -0.0051201339)
(0.10407331 -0.024460526 -0.0025418847)
(0.10406446 -0.018470895 -0.0010449003)
(0.098875392 -0.013365448 -0.002785879)
(0.090915168 -0.010917665 -0.0074443199)
(0.081736853 -0.012434614 -0.014001327)
(0.072481266 -0.016642957 -0.020776338)
(0.0632916 -0.02196028 -0.025609701)
(0.054043566 -0.026906378 -0.026516283)
(0.045738473 -0.030337721 -0.023255387)
(0.038727074 -0.032894922 -0.017337859)
(0.03322597 -0.036173267 -0.010736735)
(0.031769362 -0.041218847 -0.0074512789)
(0.038353234 -0.041891145 -0.021779418)
(0.056941904 -0.029660928 -0.045162613)
(0.083435874 -0.0060570334 -0.067134649)
(0.10093568 0.033189752 -0.090044072)
(0.09796204 -0.0016022981 0.00019637605)
(0.096318906 -0.0023719394 0.00036105378)
(0.09369865 -0.0026173261 0.00046230846)
(0.090594541 -0.0026758456 0.00049279764)
(0.087512104 -0.0026516949 0.00044890275)
(0.084566953 -0.002574164 0.00031498764)
(0.081687086 -0.0024813657 5.8622597e-05)
(0.078761422 -0.0024307237 -0.0003732555)
(0.075629519 -0.0025092472 -0.0010824341)
(0.071969247 -0.0029108392 -0.0022675464)
(0.067144127 -0.0041344174 -0.0042820829)
(0.059810346 -0.007594151 -0.0078359708)
(0.04814413 -0.016892851 -0.014535937)
(0.025381729 -0.023820772 -0.02541058)
(-0.0048175856 -0.0086736057 -0.030719084)
(-0.026150529 0.0031685371 -0.025585868)
(-0.040119929 0.0047486277 -0.018487308)
(-0.042855179 0.0028788376 -0.0062221335)
(-0.031040114 0.00049649748 0.014930283)
(-0.021926397 0.00099967487 0.030527623)
(-0.011719748 0.0012870971 0.039378575)
(-0.0032454474 0.00025670483 0.043890954)
(0.002983134 -0.002347764 0.045152873)
(0.0059522511 -0.0064685875 0.043985526)
(0.0058223912 -0.012354774 0.041786008)
(-0.00096672039 -0.022970538 0.032973611)
(-0.019009491 -0.029840799 -0.0084623695)
(-0.025126652 -0.011578294 -0.059573131)
(-0.0070108243 0.017115192 -0.090788441)
(0.037831201 0.0457364 -0.11418133)
(0.10584334 -0.0025385094 5.4292473e-05)
(0.12037463 -0.002613546 9.3713053e-05)
(0.13339687 -0.0024203319 0.00011111788)
(0.14401621 -0.0019435432 0.00010760409)
(0.15333626 -0.0012558853 8.5845397e-05)
(0.16186223 -0.0005380789 4.6862989e-05)
(0.16963971 0.0001083668 -1.0595673e-05)
(0.17666952 0.00065966742 -8.9454294e-05)
(0.18301165 0.0011084979 -0.0001903752)
(0.18877565 0.0014223729 -0.00031659744)
(0.19416825 0.0015076928 -0.00045824837)
(0.19965988 0.0011901497 -0.00056346938)
(0.20547052 0.00052878999 -0.00047840696)
(0.21176353 0.00037926894 1.344551e-05)
(0.2183807 0.0013576312 0.00082507275)
(0.22448878 0.002606911 0.0017023729)
(0.22931183 0.0039729744 0.0026152805)
(0.23339914 0.0057422105 0.0038292618)
(0.23739313 0.0078582037 0.0056493072)
(0.24177804 0.010170245 0.008355546)
(0.24680121 0.012543914 0.012196235)
(0.25222061 0.015017255 0.017285746)
(0.25709718 0.017836864 0.023535071)
(0.26017681 0.020884388 0.030600607)
(0.26045458 0.023956331 0.037832297)
(0.25710668 0.027147354 0.044148036)
(0.24873192 0.031156683 0.047984315)
(0.23241692 0.037355461 0.047437108)
(0.20518326 0.047919593 0.039946261)
(0.10835983 0.071761514 0.023969053)
(0.09982209 -0.0039672884 5.9695306e-05)
(0.10016044 -0.0048059779 0.00011030741)
(0.10164557 -0.0049164837 0.00013998545)
(0.10389987 -0.0045706134 0.00014743236)
(0.10664827 -0.003966141 0.00013387098)
(0.10974021 -0.0033445906 9.7897664e-05)
(0.11304041 -0.0028363641 3.5587885e-05)
(0.11644664 -0.0024917874 -5.9925884e-05)
(0.1199265 -0.0023835008 -0.00019757091)
(0.12356873 -0.0026998017 -0.00038401189)
(0.12771157 -0.0038757167 -0.00060516872)
(0.13321093 -0.006679167 -0.00078691587)
(0.1411064 -0.011028596 -0.00073927408)
(0.15138852 -0.010309599 -7.6491081e-05)
(0.16073397 -0.0060556244 0.00057029211)
(0.16779206 -0.0020654073 0.00065278256)
(0.17396574 0.00075658499 0.00033363803)
(0.18004162 0.0027439898 2.5784196e-05)
(0.18593941 0.0041958898 -0.00012193048)
(0.1923578 0.0054964067 -0.00012095454)
(0.1999328 0.00754668 9.8906921e-05)
(0.20903665 0.011782477 0.00075489933)
(0.21894387 0.019013976 0.0022628044)
(0.22819903 0.028610763 0.0048962108)
(0.23566399 0.039307332 0.0085717797)
(0.24015703 0.050367079 0.012426419)
(0.23939474 0.062508556 0.014692689)
(0.2293988 0.076821065 0.013133067)
(0.2088686 0.095352345 0.0053467753)
(0.1343391 0.1242824 -0.010983515)
(0.099941189 -0.0029521955 5.9735747e-05)
(0.099649331 -0.0042875756 0.00011007265)
(0.099104538 -0.0047123344 0.00014056466)
(0.098504552 -0.0048272921 0.00014914298)
(0.097987867 -0.0048285312 0.00013544743)
(0.097589874 -0.004789752 9.5847479e-05)
(0.097262991 -0.0047759183 2.4120136e-05)
(0.096916361 -0.0048686651 -9.2386411e-05)
(0.096448168 -0.0052296945 -0.00027525588)
(0.095784357 -0.0062218239 -0.00055394062)
(0.095047495 -0.0086890468 -0.0009597515)
(0.095250838 -0.014463095 -0.0015137161)
(0.096667937 -0.025810045 -0.0022916645)
(0.10102708 -0.023514686 -0.0020436242)
(0.1051681 -0.016527979 -0.00081168146)
(0.10415493 -0.010256074 -0.00098667079)
(0.10010092 -0.0046951563 -0.0022421173)
(0.093529083 -0.00037588507 -0.0041673051)
(0.086610067 0.0013597556 -0.0068035467)
(0.078091697 -0.00019339754 -0.010170984)
(0.06693651 -0.0040543067 -0.013303571)
(0.055844456 -0.0067781191 -0.014514156)
(0.05448003 -0.0050498434 -0.013301951)
(0.066139779 0.0015708873 -0.010935342)
(0.088272993 0.012706006 -0.0092278547)
(0.11576981 0.028287296 -0.0086175214)
(0.1364912 0.045112666 -0.0095836439)
(0.14650227 0.064570676 -0.014658983)
(0.14702407 0.089952655 -0.025118543)
(0.10931245 0.12597889 -0.039601623)
(0.097943625 -0.0016022858 5.7954555e-05)
(0.096247149 -0.0023720563 0.00010567216)
(0.093551078 -0.002616977 0.00013311279)
(0.090359977 -0.0026744306 0.0001379488)
(0.087175321 -0.0026491802 0.00011912767)
(0.084095005 -0.0025717054 7.1928792e-05)
(0.081029495 -0.0024829284 -1.3127053e-05)
(0.077811325 -0.0024425761 -0.00015314592)
(0.074158161 -0.0025658267 -0.00038863923)
(0.069538187 -0.0031250866 -0.00079337585)
(0.062833318 -0.0048790825 -0.0015195524)
(0.051488509 -0.010218188 -0.0029741042)
(0.033320942 -0.024743189 -0.0066404884)
(-0.01683128 -0.0095338228 -0.015950069)
(-0.043019331 0.0051980171 -0.014313991)
(-0.062691973 0.0076206755 -0.011240369)
(-0.075917685 0.0072632116 -0.0076165299)
(-0.083114799 0.0042720476 -0.0025744433)
(-0.084005352 -0.00035710507 0.0033196194)
(-0.077890622 -0.0052379645 0.0088995229)
(-0.068985586 -0.010038022 0.011650044)
(-0.061091692 -0.014959844 0.011946606)
(-0.054642974 -0.019782671 0.010402442)
(-0.047927076 -0.022695839 0.0079441472)
(-0.039387183 -0.020626531 0.0053690364)
(-0.027781185 -0.0094241475 1.5117034e-06)
(-0.0010077949 0.018092904 -0.016352983)
(0.014366959 0.043239166 -0.030643519)
(0.030870061 0.07076841 -0.046804708)
(0.059351671 0.10596612 -0.058119408)
(0.10584133 -0.0025381637 -4.7955646e-05)
(0.12036907 -0.0026135199 -8.5053145e-05)
(0.13338873 -0.0024207872 -0.00010297348)
(0.14400662 -0.001944781 -0.000100399)
(0.15332666 -0.0012582061 -7.8550237e-05)
(0.16185541 -0.00054147359 -3.7300551e-05)
(0.16964049 0.00010569592 2.6196994e-05)
(0.17668351 0.00065949706 0.00011690961)
(0.18304629 0.0011152739 0.00023717235)
(0.18883742 0.0014472687 0.00039068706)
(0.19424638 0.0015733664 0.00055861481)
(0.19967445 0.0013262407 0.00065311738)
(0.20520317 0.00066455904 0.00041716746)
(0.21099265 0.00014239378 -0.0005232491)
(0.21733952 0.00095128576 -0.0019367271)
(0.22337809 0.0022126821 -0.0033199963)
(0.22835072 0.0034886955 -0.0045627398)
(0.23253849 0.0050458684 -0.0059610898)
(0.23674186 0.0069845589 -0.0078480792)
(0.24154864 0.0091399159 -0.010473526)
(0.24715315 0.011491337 -0.014067291)
(0.25313094 0.014146333 -0.018848034)
(0.25843353 0.017253407 -0.024897894)
(0.26180023 0.020646646 -0.031930886)
(0.26223365 0.024141604 -0.039189875)
(0.25890234 0.027788422 -0.04544089)
(0.25038342 0.032252628 -0.049102988)
(0.23379059 0.038718038 -0.0483662)
(0.20640088 0.049223295 -0.040609221)
(0.10945188 0.072371325 -0.023758651)
(0.099822366 -0.0039667321 -3.9939033e-05)
(0.10016148 -0.0048056326 -6.7816502e-05)
(0.10164787 -0.0049164719 -7.0605548e-05)
(0.10390458 -0.0045710527 -4.4168197e-05)
(0.10665783 -0.0039669472 1.2379198e-05)
(0.10976034 -0.0033448246 0.00010206022)
(0.11307717 -0.0028311424 0.0002305324)
(0.11650531 -0.0024755008 0.00040502979)
(0.12001472 -0.0023415567 0.00063886849)
(0.12368763 -0.0025968875 0.00093676102)
(0.12782618 -0.0036362579 0.0012670801)
(0.13316714 -0.0061901183 0.0014965623)
(0.14072922 -0.010504501 0.0012607676)
(0.15053311 -0.01138289 -3.6397717e-05)
(0.16006902 -0.0076484309 -0.0012451174)
(0.16724589 -0.0034687271 -0.0014480379)
(0.17303493 -0.00063377604 -0.0009388172)
(0.17872361 0.00098021973 -0.00027941367)
(0.18475694 0.00184614 0.00036271593)
(0.19130479 0.0028847809 0.00096775612)
(0.19930033 0.0053659381 0.0013522413)
(0.20909447 0.010545786 0.001063936)
(0.21978297 0.018727384 -0.00051086969)
(0.2301096 0.029205725 -0.0035355685)
(0.23876985 0.040791899 -0.0075280446)
(0.24413413 0.052942411 -0.01135722)
(0.24351931 0.066385872 -0.013410828)
(0.23260573 0.081670085 -0.012083899)
(0.20992598 0.10056374 -0.0049364122)
(0.12518251 0.12944952 0.011181975)
(0.099941534 -0.0029519182 -3.8839573e-05)
(0.099650914 -0.0042871689 -6.5039741e-05)
(0.099108555 -0.0047117176 -6.5473744e-05)
(0.098512977 -0.0048261403 -3.3955737e-05)
(0.098004757 -0.0048260379 3.341609e-05)
(0.09762553 -0.004783617 0.0001436152)
(0.097328712 -0.0047609863 0.00030707324)
(0.097026881 -0.0048380238 0.00054217113)
(0.096635568 -0.0051609211 0.0008832815)
(0.096095682 -0.0060568833 0.0013742593)
(0.095504825 -0.008282609 0.0020563429)
(0.095628704 -0.013479375 0.002914744)
(0.097110132 -0.023850797 0.0037008327)
(0.099880082 -0.025232413 0.0025093836)
(0.10484281 -0.018590578 0.00023718073)
(0.1037208 -0.012035015 0.00072310953)
(0.10034878 -0.0064836373 0.0029911111)
(0.094311303 -0.0022812117 0.0062413176)
(0.08789591 -0.00079447656 0.010279174)
(0.080647656 -0.0023208719 0.015142812)
(0.072831762 -0.0051454805 0.019441439)
(0.068393128 -0.0064581211 0.0207533)
(0.073604053 -0.0041395879 0.018507546)
(0.088873124 0.0027773928 0.014853329)
(0.11440691 0.015553609 0.012476802)
(0.13775272 0.032118842 0.010697461)
(0.15508333 0.050458233 0.01054894)
(0.16125262 0.071781512 0.013466958)
(0.15699392 0.099466474 0.020853256)
(0.098098733 0.13995176 0.033381507)
(0.097943942 -0.0016021872 -3.739468e-05)
(0.096248727 -0.0023718653 -6.1628093e-05)
(0.093555376 -0.0026166507 -5.9715181e-05)
(0.09036965 -0.0026738411 -2.4730724e-05)
(0.087196471 -0.0026479435 4.861441e-05)
(0.084141265 -0.0025683363 0.00016959988)
(0.081115942 -0.0024751317 0.00035457109)
(0.077967337 -0.0024270307 0.00063396606)
(0.07445921 -0.0025284773 0.0010744311)
(0.070140861 -0.0030237188 0.0017991894)
(0.064068877 -0.0045782214 0.0030579379)
(0.054094716 -0.0092255433 0.0054370073)
(0.038254181 -0.021791544 0.01057486)
(-0.0021188891 -0.017173707 0.01976411)
(-0.038122066 0.0028287217 0.017029098)
(-0.057833539 0.0058844359 0.014446371)
(-0.073256056 0.0061063394 0.012911619)
(-0.080539157 0.0034163092 0.0095633516)
(-0.08103067 -0.0013811122 0.0038182736)
(-0.072410059 -0.0067298555 -0.0042027626)
(-0.062585988 -0.01148931 -0.011085429)
(-0.053685927 -0.015882587 -0.015976927)
(-0.045889997 -0.019487579 -0.018953138)
(-0.03778797 -0.020769392 -0.0200138)
(-0.028508685 -0.017083682 -0.018132382)
(-0.0057948849 0.0009681491 -0.0050925466)
(0.022293405 0.030025247 0.0067306913)
(0.034403195 0.052820701 0.019970276)
(0.056616759 0.084111919 0.036707183)
(0.094247002 0.12680937 0.049325599)
(0.10585694 -0.0025335506 -0.00018934017)
(0.12042454 -0.0026059287 -0.00034026941)
(0.13349373 -0.0024112709 -0.00042937318)
(0.144159 -0.0019348517 -0.00045751338)
(0.15352173 -0.0012500429 -0.00043030206)
(0.16209235 -0.00053667776 -0.00034910126)
(0.16992357 0.00010531605 -0.00021568193)
(0.17701687 0.00065379899 -3.4948626e-05)
(0.18344152 0.0011203521 0.0001977059)
(0.18929967 0.0014965081 0.00046799438)
(0.19472169 0.0017360609 0.00071432071)
(0.19992807 0.0017211714 0.00075916935)
(0.20466991 0.0012907905 0.00016295431)