/*--------------------------------*- C++ -*----------------------------------*\
| =========                 |                                                 |
| \\      /  F ield         | OpenFOAM: The Open Source CFD Toolbox           |
|  \\    /   O peration     | Version:  v2012                                 |
|   \\  /    A nd           | Website:  www.openfoam.com                      |
|    \\/     M anipulation  |                                                 |
\*---------------------------------------------------------------------------*/
FoamFile
{
    version     2.0;
    format      ascii;
    class       volScalarField;
    location    "280/bottomWater";
    object      p;
}
// * * * * * * * * * * * * * * * * * * * * * * * * * * * * * * * * * * * * * //

dimensions      [1 -1 -2 0 0 0 0];


internalField   nonuniform List<scalar> 
1460
(
353.42649
353.42421
353.42955
353.42854
353.43767
353.44361
353.44502
353.43863
353.43861
353.44763
353.45497
353.4529
353.45017
353.45872
353.45169
353.46183
353.4555
353.45723
353.4515
353.44632
353.45392
353.45378
353.45075
353.44437
353.44512
353.43939
353.44829
353.42967
353.4201
353.4272
274.45378
274.44954
274.44734
274.44654
274.46511
274.48336
274.43446
274.45387
274.45921
274.48687
274.47924
274.42363
274.44246
274.48282
274.4968
274.5071
274.5033
274.49269
274.4671
274.41938
274.4183
274.45938
274.48955
274.49046
274.49818
274.51129
274.53591
274.48245
274.45259
274.45306
196.32947
196.32574
196.32448
196.30748
196.24994
196.24571
196.28884
196.27454
196.25016
196.25763
196.26318
196.26284
196.26719
196.23887
196.27375
196.25948
196.25844
196.26378
196.22524
196.26447
196.27673
196.25329
196.24455
196.26592
196.26485
196.26334
196.2346
196.23263
196.2544
196.27715
117.63943
117.65806
117.70466
117.67877
117.66603
117.65534
117.65985
117.6551
117.63908
117.67606
117.67543
117.67033
117.64993
117.65903
117.66557
117.70855
117.69481
117.67245
117.63264
117.67129
117.67351
117.63504
117.6482
117.6761
117.70114
117.68836
117.67944
117.68151
117.67376
117.68903
39.248982
39.222346
39.239804
39.224171
39.238782
39.253398
39.248247
39.255907
39.243763
39.229687
39.228969
39.238233
39.245081
39.242634
39.218529
39.236152
39.228432
39.213347
39.238264
39.240436
39.250353
39.249175
39.234443
39.219521
39.231619
39.225869
39.237674
39.235955
39.246413
39.244516
353.42727
353.43783
353.4231
353.4436
353.43803
353.44098
353.44513
353.44345
353.43585
353.45433
353.4495
353.45512
353.44999
353.45146
353.44641
353.44345
353.42916
353.46549
353.44389
353.44337
353.44733
353.44506
353.43654
353.44188
353.4332
353.44739
353.42713
353.42091
353.42677
353.42828
274.46605
274.46862
274.45459
274.46656
274.43927
274.42059
274.41887
274.42295
274.4355
274.45794
274.43637
274.41205
274.41121
274.44113
274.47134
274.46135
274.44866
274.49168
274.44386
274.41483
274.41585
274.44135
274.44754
274.43604
274.44713
274.48271
274.45222
274.43416
274.43524
274.44079
196.31063
196.26967
196.30981
196.25874
196.27511
196.27824
196.31809
196.2786
196.25902
196.24083
196.25441
196.27197
196.26648
196.23599
196.24692
196.2792
196.303
196.22674
196.2445
196.26716
196.3012
196.27302
196.2878
196.25942
196.28454
196.22549
196.2481
196.25987
196.29088
196.31038
117.61345
117.62471
117.64953
117.65785
117.63954
117.67657
117.67351
117.6681
117.61404
117.66237
117.62496
117.67271
117.65278
117.6361
117.63559
117.66395
117.66535
117.63789
117.63274
117.66729
117.67029
117.61453
117.63716
117.65528
117.65786
117.66535
117.65507
117.66164
117.67694
117.68272
39.269369
39.229597
39.226739
39.223109
39.249485
39.249387
39.269814
39.265834
39.259961
39.250889
39.254561
39.257029
39.247861
39.249506
39.24069
39.228408
39.231
39.240667
39.249779
39.252283
39.270744
39.277191
39.266683
39.230157
39.228807
39.241406
39.24473
39.24367
39.251502
39.255252
353.44332
353.4402
353.45867
353.44408
353.44462
353.44438
353.44303
353.43772
353.44881
353.45497
353.45592
353.45526
353.4551
353.44499
353.43959
353.44192
353.44577
353.45005
353.44138
353.44006
353.43954
353.43618
353.43492
353.43409
353.43125
353.42712
353.42881
353.43032
353.43069
353.42955
274.43777
274.44683
274.48583
274.44664
274.4137
274.42054
274.42163
274.43358
274.4661
274.46537
274.41099
274.40956
274.40896
274.40268
274.42981
274.43468
274.47108
274.48071
274.43437
274.41339
274.42049
274.42032
274.4406
274.44202
274.44466
274.44099
274.43404
274.43274
274.43013
274.43057
196.30138
196.27806
196.2325
196.28383
196.26405
196.30475
196.27536
196.25503
196.24191
196.24384
196.2614
196.31519
196.32447
196.27435
196.26437
196.28769
196.26802
196.21973
196.2534
196.26831
196.31699
196.29014
196.28456
196.28892
196.28952
196.29453
196.28933
196.30572
196.30467
196.31019
117.65748
117.62469
117.65083
117.61841
117.7025
117.70317
117.67389
117.6417
117.66782
117.65438
117.65922
117.68729
117.68314
117.65818
117.62768
117.66276
117.66763
117.65389
117.6449
117.67033
117.67988
117.67155
117.64005
117.64872
117.64524
117.65853
117.66781
117.67708
117.6885
117.69072
39.233168
39.257773
39.258971
39.239237
39.239828
39.245868
39.254518
39.262162
39.252815
39.260407
39.258392
39.281928
39.278735
39.26764
39.257162
39.247829
39.234431
39.251302
39.255154
39.254458
39.271362
39.257315
39.274755
39.27169
39.244396
39.23641
39.253741
39.253581
39.263631
39.261103
353.43475
353.43353
353.43224
353.43541
353.43986
353.44103
353.43336
353.4418
353.43678
353.45321
353.44374
353.44357
353.4479
353.44701
353.44374
353.44018
353.44311
353.43869
353.44605
353.44597
353.44261
353.44078
353.45533
353.45701
353.43961
353.42995
353.4288
353.42334
353.421
353.42275
274.4308
274.41946
274.45214
274.44639
274.45195
274.45204
274.45365
274.46129
274.48225
274.4799
274.42692
274.40664
274.41613
274.41723
274.41054
274.42473
274.44431
274.4437
274.42535
274.41599
274.41318
274.4171
274.47159
274.50591
274.47227
274.44335
274.44157
274.44007
274.45339
274.45273
196.3438
196.30677
196.29909
196.29158
196.28664
196.29235
196.28189
196.26233
196.26806
196.23033
196.25178
196.26643
196.32213
196.32181
196.28004
196.29336
196.27434
196.27965
196.27546
196.30401
196.28829
196.26127
196.23362
196.22394
196.23218
196.28902
196.29887
196.29752
196.29786
196.30413
117.66651
117.65703
117.6
117.61635
117.61484
117.61206
117.61579
117.64482
117.65618
117.6404
117.62818
117.66169
117.68461
117.68176
117.67069
117.65193
117.6559
117.63243
117.64399
117.66707
117.66983
117.64383
117.65075
117.65638
117.64661
117.66972
117.66541
117.64076
117.61671
117.62539
39.262677
39.254107
39.262157
39.266291
39.274557
39.274225
39.243985
39.23089
39.232535
39.247511
39.257407
39.267635
39.274346
39.270861
39.255717
39.248249
39.236317
39.257211
39.25607
39.261675
39.260786
39.254674
39.250709
39.244891
39.227024
39.220267
39.23487
39.230156
39.266063
39.287946
353.43962
353.42839
353.45246
353.45905
353.45893
353.44811
353.44223
353.46493
353.45963
353.45697
353.46879
353.45272
353.46049
353.43912
353.43288
353.43988
353.44637
353.44855
353.45927
353.45881
353.44618
353.44989
353.43407
353.43803
353.44341
353.43759
274.4302
274.42463
274.46416
274.50129
274.47956
274.44505
274.44856
274.47915
274.49435
274.49539
274.46969
274.41671
274.41274
274.45135
274.43912
274.41834
274.41826
274.41122
274.43999
274.48847
274.496
274.48884
274.45543
274.47342
274.4814
274.46234
196.27772
196.25168
196.23321
196.24636
196.25159
196.28417
196.29299
196.25963
196.25965
196.25754
196.2312
196.25014
196.27161
196.28172
196.27566
196.28792
196.31105
196.26878
196.24157
196.23761
196.26764
196.2552
196.30283
196.27148
196.25433
196.28306
117.6772
117.65131
117.66261
117.64147
117.65646
117.65901
117.67117
117.69516
117.68771
117.652
117.65712
117.62987
117.6754
117.65277
117.63371
117.66973
117.67852
117.65901
117.64054
117.65042
117.66183
117.69548
117.69421
117.66099
117.6415
117.62833
39.243187
39.24164
39.224289
39.260178
39.245543
39.232676
39.225257
39.233106
39.22725
39.232735
39.250519
39.257637
39.258494
39.26701
39.267773
39.257637
39.267193
39.246329
39.249028
39.239087
39.219083
39.227068
39.238419
39.220997
39.241685
39.266783
353.43875
353.43842
353.43533
353.43703
353.44368
353.45304
353.45758
353.45666
353.45275
353.45268
353.44174
353.44642
353.43992
353.43061
353.45269
353.45639
353.45345
353.4551
353.4549
353.45563
353.45739
353.45229
353.44294
353.42714
353.43355
353.43138
274.42811
274.42099
274.42488
274.44062
274.47013
274.48765
274.48145
274.43809
274.48062
274.46076
274.44515
274.44142
274.43032
274.45437
274.45889
274.42907
274.40745
274.41499
274.40806
274.41997
274.46194
274.49592
274.48132
274.45675
274.44575
274.43839
196.33434
196.31704
196.28526
196.26411
196.25794
196.26613
196.26618
196.29996
196.27308
196.25606
196.26624
196.26992
196.28485
196.30326
196.23645
196.25267
196.2742
196.2953
196.26252
196.26643
196.23634
196.25037
196.25404
196.27316
196.28207
196.30811
117.68527
117.67691
117.63064
117.63105
117.6481
117.66985
117.67837
117.67851
117.67924
117.6655
117.65066
117.64776
117.66463
117.6698
117.63992
117.6363
117.66899
117.68188
117.68122
117.66518
117.66611
117.6728
117.68095
117.65615
117.65
117.67061
39.239471
39.22381
39.255135
39.255345
39.23055
39.223686
39.225796
39.223706
39.221622
39.221708
39.238087
39.25016
39.241807
39.235185
39.250212
39.25488
39.246518
39.24296
39.235235
39.230441
39.228898
39.225242
39.220163
39.237469
39.249596
39.250943
353.43927
353.44047
353.4441
353.44562
353.43738
353.4491
353.45673
353.45289
353.45127
353.45281
353.4532
353.45218
353.4695
353.44698
353.45977
353.45269
353.46839
353.46994
353.47712
353.45726
353.45353
353.45976
353.45028
353.45535
353.45157
353.45232
353.41597
353.43007
353.43252
353.43318
274.41776
274.41591
274.41738
274.42397
274.42444
274.46462
274.48235
274.4193
274.41673
274.4109
274.41016
274.43497
274.45588
274.42156
274.41409
274.41122
274.42752
274.45497
274.46433
274.4471
274.42791
274.46362
274.44449
274.42188
274.43127
274.46612
274.44196
274.44922
274.43029
274.43541
196.30263
196.29705
196.2873
196.28122
196.26708
196.24953
196.23665
196.27955
196.28422
196.30932
196.27316
196.28308
196.23092
196.28855
196.28572
196.2777
196.2607
196.25896
196.26116
196.26613
196.28203
196.26023
196.28249
196.27367
196.29661
196.23172
196.27659
196.27043
196.294
196.31931
117.68258
117.68219
117.68571
117.67934
117.66924
117.6594
117.65203
117.64852
117.67026
117.66853
117.69446
117.66411
117.6594
117.64843
117.69821
117.68884
117.64189
117.69235
117.669
117.64004
117.6666
117.65367
117.62481
117.67336
117.64555
117.65677
117.6599
117.66747
117.67734
117.68037
39.250269
39.249128
39.239031
39.23763
39.228431
39.225185
39.239947
39.246166
39.245041
39.25451
39.235435
39.241852
39.263942
39.253004
39.242794
39.244392
39.249605
39.241505
39.220961
39.244447
39.238292
39.229649
39.256215
39.255312
39.250322
39.244978
39.23747
39.249208
39.25793
39.262183
353.43463
353.44118
353.43876
353.44491
353.44946
353.43617
353.46542
353.44691
353.44939
353.45127
353.44322
353.45559
353.46405
353.43708
353.4633
353.45697
353.47038
353.46325
353.47233
353.46419
353.4704
353.46551
353.46228
353.44944
353.46198
353.46264
353.44326
353.42045
353.42401
353.42864
274.44948
274.44813
274.43033
274.42231
274.42381
274.43326
274.47475
274.4374
274.42031
274.41299
274.42156
274.48241
274.48803
274.43016
274.47875
274.45354
274.40858
274.39695
274.38396
274.41836
274.45274
274.48428
274.45307
274.45534
274.41424
274.47385
274.48355
274.44537
274.45115
274.45123
196.30314
196.27714
196.29331
196.30333
196.27439
196.25118
196.22941
196.26391
196.28774
196.28474
196.25064
196.23298
196.22584
196.29844
196.25444
196.24984
196.26147
196.31154
196.29394
196.25222
196.2466
196.26392
196.24967
196.28461
196.26817
196.24095
196.24308
196.27206
196.29423
196.30663
117.62801
117.62836
117.64566
117.69816
117.69642
117.65549
117.67458
117.65347
117.67877
117.68053
117.63558
117.659
117.64719
117.67044
117.68158
117.66395
117.65472
117.68569
117.69223
117.63293
117.6713
117.67736
117.66558
117.61626
117.67238
117.62933
117.65083
117.63676
117.66588
117.67721
39.278691
39.242773
39.228641
39.24012
39.238266
39.24237
39.256842
39.262327
39.251993
39.26542
39.255155
39.253676
39.239241
39.22677
39.231466
39.242701
39.252774
39.269716
39.255285
39.255281
39.228926
39.227274
39.2333
39.264125
39.249092
39.253345
39.245776
39.227745
39.225088
39.238374
353.44426
353.45982
353.4589
353.4512
353.45576
353.45164
353.46784
353.44242
353.44771
353.45241
353.43834
353.46697
353.45326
353.45447
353.45735
353.46612
353.47627
353.47023
353.47719
353.47053
353.4652
353.44335
353.43755
353.4464
353.4523
353.45639
353.4515
353.44723
353.42469
353.42647
274.45873
274.48429
274.467
274.43772
274.41256
274.44678
274.45701
274.42622
274.41444
274.40804
274.42233
274.46412
274.43385
274.42982
274.4483
274.46071
274.43861
274.4033
274.38771
274.45482
274.48
274.43599
274.4341
274.43156
274.41273
274.39614
274.44885
274.49625
274.45209
274.45631
196.29064
196.26169
196.25981
196.28326
196.25336
196.29117
196.2427
196.2569
196.28727
196.27782
196.2562
196.22631
196.27507
196.28078
196.26047
196.26924
196.23881
196.30854
196.2827
196.23348
196.23666
196.28189
196.3057
196.28494
196.31994
196.2681
196.24327
196.23833
196.24999
196.29758
117.63792
117.63702
117.67118
117.65824
117.69823
117.64836
117.67734
117.64417
117.68642
117.68957
117.64606
117.67208
117.64487
117.67359
117.68229
117.67353
117.63281
117.68275
117.67305
117.62557
117.64444
117.65618
117.67497
117.62241
117.67958
117.66337
117.64013
117.65085
117.64511
117.68342
39.269833
39.236082
39.232417
39.247414
39.245421
39.269427
39.235605
39.259218
39.257124
39.267137
39.263865
39.259991
39.249899
39.233268
39.231437
39.235254
39.250231
39.261107
39.25414
39.258295
39.242559
39.230892
39.249991
39.262287
39.266608
39.257
39.257224
39.251763
39.227138
39.23842
353.44798
353.44831
353.4581
353.44788
353.45753
353.45309
353.45132
353.44639
353.44705
353.45223
353.43682
353.45559
353.44996
353.44991
353.45576
353.43759
353.47482
353.46602
353.47214
353.47143
353.46569
353.43101
353.44873
353.44762
353.4518
353.45462
353.44811
353.45158
353.43435
353.42009
274.43886
274.45438
274.48802
274.47776
274.4926
274.46927
274.43277
274.41433
274.41764
274.41027
274.42585
274.44665
274.42294
274.41599
274.42732
274.42605
274.44557
274.41368
274.39701
274.47945
274.48154
274.43128
274.4431
274.41879
274.42057
274.41379
274.40743
274.46751
274.47787
274.46371
196.30631
196.28405
196.26577
196.26964
196.22358
196.24229
196.25749
196.28336
196.3159
196.29101
196.2686
196.22705
196.30157
196.30973
196.29842
196.29002
196.23699
196.33311
196.27228
196.24091
196.23117
196.27597
196.30254
196.30351
196.33735
196.3224
196.25696
196.25811
196.22998
196.29425
117.6774
117.65126
117.69169
117.67374
117.66512
117.65964
117.65572
117.66967
117.68895
117.69607
117.65899
117.67557
117.67804
117.70585
117.68648
117.65757
117.64934
117.66845
117.66515
117.64047
117.65582
117.64908
117.68599
117.66712
117.68706
117.67989
117.64953
117.63656
117.63763
117.67254
39.247668
39.234386
39.229318
39.222174
39.238711
39.248231
39.251795
39.255963
39.268358
39.26627
39.266569
39.255555
39.238394
39.243103
39.239433
39.238974
39.249605
39.26312
39.253753
39.260255
39.248022
39.230005
39.239727
39.252751
39.26571
39.270796
39.256724
39.254805
39.24198
39.236373
)
;

boundaryField
{
    minX
    {
        type            calculated;
        value           nonuniform List<scalar> 
50
(
353.42649
274.45378
196.32947
117.63943
39.248982
353.42727
274.46605
196.31063
117.61345
39.269369
353.44332
274.43777
196.30138
117.65748
39.233168
353.43475
274.4308
196.3438
117.66651
39.262677
353.43962
274.4302
196.27772
117.6772
39.243187
353.43875
274.42811
196.33434
117.68527
39.239471
353.43927
274.41776
196.30263
117.68258
39.250269
353.43463
274.44948
196.30314
117.62801
39.278691
353.44426
274.45873
196.29064
117.63792
39.269833
353.44798
274.43886
196.30631
117.6774
39.247668
)
;
    }
    maxX
    {
        type            calculated;
        value           nonuniform List<scalar> 
50
(
353.4272
274.45306
196.27715
117.68903
39.244516
353.42828
274.44079
196.31038
117.68272
39.255252
353.42955
274.43057
196.31019
117.69072
39.261103
353.42275
274.45273
196.30413
117.62539
39.287946
353.43759
274.46234
196.28306
117.62833
39.266783
353.43138
274.43839
196.30811
117.67061
39.250943
353.43318
274.43541
196.31931
117.68037
39.262183
353.42864
274.45123
196.30663
117.67721
39.238374
353.42647
274.45631
196.29758
117.68342
39.23842
353.42009
274.46371
196.29425
117.67254
39.236373
)
;
    }
    minY
    {
        type            calculated;
        value           nonuniform List<scalar> 
292
(
392.4
392.4
392.4
392.4
392.4
392.4
392.4
392.4
392.4
392.4
392.4
392.4
392.4
392.4
392.4
392.4
392.4
392.4
392.4
392.4
392.4
392.4
392.4
392.4
392.4
392.4
392.4
392.4
392.4
392.4
392.4
392.4
392.4
392.4
392.4
392.4
392.4
392.4
392.4
392.4
392.4
392.4
392.4
392.4
392.4
392.4
392.4
392.4
392.4
392.4
392.4
392.4
392.4
392.4
392.4
392.4
392.4
392.4
392.4
392.4
392.4
392.4
392.4
392.4
392.4
392.4
392.4
392.4
392.4
392.4
392.4
392.4
392.4
392.4
392.4
392.4
392.4
392.4
392.4
392.4
392.4
392.4
392.4
392.4
392.4
392.4
392.4
392.4
392.4
392.4
392.4
392.4
392.4
392.4
392.4
392.4
392.4
392.4
392.4
392.4
392.4
392.4
392.4
392.4
392.4
392.4
392.4
392.4
392.4
392.4
392.4
392.4
392.4
392.4
392.4
392.4
392.4
392.4
392.4
392.4
392.4
392.4
392.4
392.4
392.4
392.4
392.4
392.4
392.4
392.4
392.4
392.4
392.4
392.4
392.4
392.4
392.4
392.4
392.4
392.4
392.4
392.4
392.4
392.4
392.4
392.4
392.4
392.4
392.4
392.4
392.4
392.4
392.4
392.4
392.4
392.4
392.4
392.4
392.4
392.4
392.4
392.4
392.4
392.4
392.4
392.4
392.4
392.4
392.4
392.4
392.4
392.4
392.4
392.4
392.4
392.4
392.4
392.4
392.4
392.4
392.4
392.4
392.4
392.4
392.4
392.4
392.4
392.4
392.4
392.4
392.4
392.4
392.4
392.4
392.4
392.4
392.4
392.4
392.4
392.4
392.4
392.4
392.4
392.4
392.4
392.4
392.4
392.4
392.4
392.4
392.4
392.4
392.4
392.4
392.4
392.4
392.4
392.4
392.4
392.4
392.4
392.4
392.4
392.4
392.4
392.4
392.4
392.4
392.4
392.4
392.4
392.4
392.4
392.4
392.4
392.4
392.4
392.4
392.4
392.4
392.4
392.4
392.4
392.4
392.4
392.4
392.4
392.4
392.4
392.4
392.4
392.4
392.4
392.4
392.4
392.4
392.4
392.4
392.4
392.4
392.4
392.4
392.4
392.4
392.4
392.4
392.4
392.4
392.4
392.4
392.4
392.4
392.4
392.4
392.4
392.4
392.4
392.4
392.4
392.4
392.4
392.4
392.4
392.4
392.4
392.4
392.4
392.4
392.4
392.4
392.4
392.4
)
;
    }
    minZ
    {
        type            calculated;
        value           nonuniform List<scalar> 
150
(
353.42649
274.45378
196.32947
117.63943
39.248982
353.42421
274.44954
196.32574
117.65806
39.222346
353.42955
274.44734
196.32448
117.70466
39.239804
353.42854
274.44654
196.30748
117.67877
39.224171
353.43767
274.46511
196.24994
117.66603
39.238782
353.44361
274.48336
196.24571
117.65534
39.253398
353.44502
274.43446
196.28884
117.65985
39.248247
353.43863
274.45387
196.27454
117.6551
39.255907
353.43861
274.45921
196.25016
117.63908
39.243763
353.44763
274.48687
196.25763
117.67606
39.229687
353.45497
274.47924
196.26318
117.67543
39.228969
353.4529
274.42363
196.26284
117.67033
39.238233
353.45017
274.44246
196.26719
117.64993
39.245081
353.45872
274.48282
196.23887
117.65903
39.242634
353.45169
274.4968
196.27375
117.66557
39.218529
353.46183
274.5071
196.25948
117.70855
39.236152
353.4555
274.5033
196.25844
117.69481
39.228432
353.45723
274.49269
196.26378
117.67245
39.213347
353.4515
274.4671
196.22524
117.63264
39.238264
353.44632
274.41938
196.26447
117.67129
39.240436
353.45392
274.4183
196.27673
117.67351
39.250353
353.45378
274.45938
196.25329
117.63504
39.249175
353.45075
274.48955
196.24455
117.6482
39.234443
353.44437
274.49046
196.26592
117.6761
39.219521
353.44512
274.49818
196.26485
117.70114
39.231619
353.43939
274.51129
196.26334
117.68836
39.225869
353.44829
274.53591
196.2346
117.67944
39.237674
353.42967
274.48245
196.23263
117.68151
39.235955
353.4201
274.45259
196.2544
117.67376
39.246413
353.4272
274.45306
196.27715
117.68903
39.244516
)
;
    }
    maxZ
    {
        type            calculated;
        value           nonuniform List<scalar> 
150
(
353.44798
274.43886
196.30631
117.6774
39.247668
353.44831
274.45438
196.28405
117.65126
39.234386
353.4581
274.48802
196.26577
117.69169
39.229318
353.44788
274.47776
196.26964
117.67374
39.222174
353.45753
274.4926
196.22358
117.66512
39.238711
353.45309
274.46927
196.24229
117.65964
39.248231
353.45132
274.43277
196.25749
117.65572
39.251795
353.44639
274.41433
196.28336
117.66967
39.255963
353.44705
274.41764
196.3159
117.68895
39.268358
353.45223
274.41027
196.29101
117.69607
39.26627
353.43682
274.42585
196.2686
117.65899
39.266569
353.45559
274.44665
196.22705
117.67557
39.255555
353.44996
274.42294
196.30157
117.67804
39.238394
353.44991
274.41599
196.30973
117.70585
39.243103
353.45576
274.42732
196.29842
117.68648
39.239433
353.43759
274.42605
196.29002
117.65757
39.238974
353.47482
274.44557
196.23699
117.64934
39.249605
353.46602
274.41368
196.33311
117.66845
39.26312
353.47214
274.39701
196.27228
117.66515
39.253753
353.47143
274.47945
196.24091
117.64047
39.260255
353.46569
274.48154
196.23117
117.65582
39.248022
353.43101
274.43128
196.27597
117.64908
39.230005
353.44873
274.4431
196.30254
117.68599
39.239727
353.44762
274.41879
196.30351
117.66712
39.252751
353.4518
274.42057
196.33735
117.68706
39.26571
353.45462
274.41379
196.3224
117.67989
39.270796
353.44811
274.40743
196.25696
117.64953
39.256724
353.45158
274.46751
196.25811
117.63656
39.254805
353.43435
274.47787
196.22998
117.63763
39.24198
353.42009
274.46371
196.29425
117.67254
39.236373
)
;
    }
    bottomWater_to_rightSolid
    {
        type            calculated;
        value           nonuniform List<scalar> 
130
(
-0.026653272
-0.0017362686
0.00043573487
0.010353397
0.0091746993
-0.0055565851
-0.020479382
-0.0083810634
-0.014131277
-0.0023264104
-0.004044938
0.0064134058
0.0045158679
0.00066743877
0.0097788615
0.012282509
0.030744088
0.037190588
0.026683487
-0.0098430075
-0.01119329
0.0014064698
0.0047301986
0.0036704072
0.01150172
0.015252487
0.0113022
0.015154022
0.014458132
0.031361917
0.017314508
0.034755372
0.03169032
0.0043964365
-0.0035902996
0.01374083
0.013581447
0.023631344
0.021103113
0.017210826
0.016069664
0.021674961
0.020786453
0.014674064
0.010708725
0.0048907222
-0.012975553
-0.019733469
-0.0051298855
-0.0098442992
0.026062937
0.047946061
0.027010272
0.027773215
0.017636745
0.027193213
0.0063288282
0.0090281721
-0.00091318917
-0.020917289
-0.01293218
-0.0015806454
-0.019003116
0.001685024
0.026782883
-0.0048151142
0.010211841
0.014880326
0.0065182413
0.002960472
-0.0047651554
-0.0095591812
-0.011102086
-0.014757554
-0.019837219
-0.0025314284
0.0095957601
0.010942986
0.0015046772
-0.01903943
0.0044465603
-0.0017076912
-0.010350648
0.016214673
0.015312498
0.01032154
0.0049778715
-0.0025300097
0.0092083506
0.017929543
0.022182732
0.029716219
0.015284631
0.015280871
-0.011074176
-0.012726191
-0.0066996944
0.024124711
0.009092173
0.013344976
0.0057757372
-0.012254989
-0.014911551
-0.0016258737
0.021107447
0.014139855
0.018294679
0.0025591316
-0.0091077702
0.0099913348
0.022286736
0.026608407
0.016999598
0.017224404
0.011763173
-0.012861646
-0.0015802644
0.023119919
0.013752689
0.020255179
0.0080221555
-0.0099951889
-0.00027333759
0.012750989
0.02570968
0.030795831
0.016724106
0.014805082
0.00197953
-0.0036268788
)
;
    }
    bottomWater_to_leftSolid
    {
        type            calculated;
        value           nonuniform List<scalar> 
130
(
0.0089823803
-0.017653542
-0.00019648932
-0.015829101
-0.0012178452
0.013398498
0.008247012
0.015907084
0.0037627484
-0.010313402
-0.011031063
-0.0017670252
0.0050810753
0.02936883
-0.010403482
-0.01326112
-0.016890744
0.0094853654
0.0093865665
0.029813639
0.025833596
0.01996097
0.010889159
0.014560787
0.017029167
0.007860965
-0.0068319616
0.017772923
0.018970684
-0.00076285393
-0.00017192196
0.0058676353
0.014518234
0.022161522
0.01281494
0.020406513
0.018392179
0.041927579
0.038734836
0.02267715
0.014106654
0.022156997
0.026291002
0.03455726
0.034225177
0.0039853991
-0.0091096973
-0.0074654811
0.0075112646
0.017406922
0.027635323
0.034346028
0.003187369
0.0016404332
-0.015711434
0.020178142
0.005542962
-0.0073244584
-0.014743352
-0.0068935094
-0.012750151
-0.0072646347
0.010519014
0.017636777
0.018493563
-0.00052903392
-0.016189811
0.01513488
0.015345082
-0.0094495016
-0.01631393
-0.014203866
-0.016294048
-0.018377874
-0.018292027
-0.0019133388
0.010159618
0.0018072007
0.01026939
0.0091282473
-0.00096855738
-0.0023695133
-0.011569307
-0.014814572
-5.3426513e-05
0.0061658382
0.0050412811
0.014510217
-0.0045652239
0.0018524646
0.02394231
0.038691403
0.0027734255
-0.011359006
0.00011975449
-0.001733584
0.0023704488
0.016841662
0.022326826
0.011993423
0.025420283
0.015154701
0.013675977
-0.0007594319
0.0298333
-0.0039181093
-0.0075830111
0.0074143446
0.0054208435
0.029427196
-0.0043949811
0.019217992
0.017124257
0.027137456
0.023864544
0.019990767
0.0098985135
0.0076677365
-0.0056139493
-0.01068195
-0.017825667
-0.0012890523
0.0082309034
0.01179548
0.015963205
0.028357663
0.026270415
0.026569115
0.015554942
-0.001606488
)
;
    }
    bottomWater_to_heater
    {
        type            calculated;
        value           nonuniform List<scalar> 
92
(
0.0026344431
-0.021470515
-0.0038475651
-0.011567934
0.0095063362
0.00069018402
-0.011591635
-0.0089995207
0.027640404
0.017161703
0.0078291066
-0.0055685605
353.44701
353.44374
353.44018
353.44311
274.41723
274.41054
274.42473
274.44431
196.32181
196.28004
196.29336
196.27434
117.68176
117.67069
117.65193
117.6559
0.030861057
39.270861
0.01571673
39.255717
0.008249375
39.248249
-0.0036828369
39.236317
353.46049
353.43912
274.41274
274.45135
196.27161
196.28172
117.6754
117.65277
39.258494
39.26701
353.43992
353.44698
353.45977
353.45269
353.43061
353.46839
274.43032
274.42156
274.41409
274.41122
274.45437
274.42752
196.28485
196.28855
196.28572
196.2777
196.30326
196.2607
117.66463
117.64843
117.69821
117.68884
117.6698
117.64189
39.241807
39.253004
39.242794
39.244392
39.235185
39.249605
0.013003667
0.002794251
0.0043921373
0.0096054503
-0.013230238
-0.0085338211
0.0027010016
0.012774439
-0.006732096
-0.008562881
-0.0047462982
0.010231037
0.0031028977
-0.00056680093
-0.0010263897
0.0096046208
)
;
    }
}


// ************************************************************************* //
