/*--------------------------------*- C++ -*----------------------------------*\
| =========                 |                                                 |
| \\      /  F ield         | OpenFOAM: The Open Source CFD Toolbox           |
|  \\    /   O peration     | Version:  v2012                                 |
|   \\  /    A nd           | Website:  www.openfoam.com                      |
|    \\/     M anipulation  |                                                 |
\*---------------------------------------------------------------------------*/
FoamFile
{
    version     2.0;
    format      ascii;
    class       volScalarField;
    location    "280/bottomWater";
    object      p_rgh;
}
// * * * * * * * * * * * * * * * * * * * * * * * * * * * * * * * * * * * * * //

dimensions      [1 -1 -2 0 0 0 0];


internalField   nonuniform List<scalar> 
1460
(
0.26649046
0.26420566
0.26954717
0.26853658
0.27766925
0.2836056
0.28501785
0.27862759
0.27861406
0.28762535
0.29496786
0.29290012
0.2901745
0.29872131
0.2916949
0.30183081
0.29549918
0.29723477
0.29150433
0.28632111
0.29392418
0.29378353
0.29075461
0.28437108
0.2851166
0.27939219
0.28828532
0.26967473
0.26010152
0.2671991
-0.22622059
-0.23046377
-0.23266317
-0.23345811
-0.21489016
-0.19663992
-0.24554145
-0.22613077
-0.22079159
-0.19312534
-0.20076436
-0.25636647
-0.23754333
-0.19718432
-0.18319842
-0.17290105
-0.17669881
-0.18731405
-0.21289891
-0.26061733
-0.26169664
-0.2206216
-0.19044784
-0.18953767
-0.18182342
-0.16870562
-0.14408848
-0.1975544
-0.22740593
-0.22693984
0.12947238
0.12574089
0.1244754
0.1074842
0.049943255
0.045706284
0.088844497
0.074535543
0.0501563
0.057628501
0.063184546
0.062840871
0.06719256
0.038873037
0.073748289
0.059480429
0.058435686
0.063782833
0.025242606
0.064470502
0.076725598
0.053286996
0.044548219
0.065916179
0.064850986
0.063340225
0.03460267
0.0326292
0.054397993
0.077148683
-0.080574392
-0.061944299
-0.015341605
-0.041230875
-0.053965392
-0.064661001
-0.060152097
-0.064899486
-0.080920812
-0.043937044
-0.044571166
-0.049668247
-0.070068794
-0.060970937
-0.054427416
-0.011445089
-0.025185425
-0.047545447
-0.087356234
-0.048710975
-0.046488589
-0.084960798
-0.071804886
-0.043904337
-0.018855678
-0.031640026
-0.040563305
-0.038492697
-0.046243108
-0.030968184
0.0089823803
-0.017653542
-0.00019648932
-0.015829101
-0.0012178452
0.013398498
0.008247012
0.015907084
0.0037627484
-0.010313402
-0.011031063
-0.0017670252
0.0050810753
0.0026344431
-0.021470515
-0.0038475651
-0.011567934
-0.026653272
-0.0017362686
0.00043573487
0.010353397
0.0091746993
-0.0055565851
-0.020479382
-0.0083810634
-0.014131277
-0.0023264104
-0.004044938
0.0064134058
0.0045158679
0.2672691
0.27782626
0.26310259
0.28359936
0.27802517
0.28098278
0.28513351
0.28344678
0.27585444
0.29433123
0.28949594
0.29512152
0.28999305
0.29146172
0.28640805
0.28344656
0.26915833
0.30548524
0.28388784
0.28337205
0.28733463
0.28506472
0.2765394
0.28188436
0.27319965
0.28739022
0.26713326
0.26090637
0.26676618
0.26828443
-0.21394802
-0.2113787
-0.22541448
-0.21343562
-0.24072689
-0.2594126
-0.26112553
-0.25704536
-0.24449519
-0.22206093
-0.24362902
-0.26795117
-0.26878535
-0.23886795
-0.20865975
-0.21864543
-0.23133834
-0.18831872
-0.23613509
-0.26516857
-0.26414729
-0.23864613
-0.23245851
-0.24395595
-0.23286828
-0.19729368
-0.22778012
-0.24584289
-0.24476117
-0.23920617
0.11062512
0.069666063
0.10981001
0.05874257
0.075108282
0.078242804
0.11808569
0.078604632
0.059021878
0.040826055
0.054408366
0.07196975
0.066479942
0.035987458
0.046922154
0.079198878
0.10299854
0.026739553
0.044501801
0.067163018
0.10119701
0.073024607
0.087800594
0.05942012
0.084536225
0.025491906
0.048100651
0.059873123
0.090875427
0.11038445
-0.10655019
-0.095290453
-0.070472797
-0.062151428
-0.080460498
-0.043429911
-0.046485434
-0.051900149
-0.10596058
-0.057632533
-0.095036213
-0.047287812
-0.067222241
-0.083901023
-0.084412545
-0.05605214
-0.054646342
-0.082108303
-0.087258152
-0.052713702
-0.049713078
-0.10546685
-0.082841562
-0.064716786
-0.062141973
-0.054654462
-0.064931847
-0.058356139
-0.043061761
-0.037279964
0.02936883
-0.010403482
-0.01326112
-0.016890744
0.0094853654
0.0093865665
0.029813639
0.025833596
0.01996097
0.010889159
0.014560787
0.017029167
0.007860965
0.0095063362
0.00069018402
-0.011591635
-0.0089995207
0.00066743877
0.0097788615
0.012282509
0.030744088
0.037190588
0.026683487
-0.0098430075
-0.01119329
0.0014064698
0.0047301986
0.0036704072
0.01150172
0.015252487
0.28331618
0.2802008
0.29866931
0.28407688
0.28462117
0.28437934
0.28302777
0.27772416
0.28880698
0.294971
0.29592406
0.29526346
0.29509947
0.28499489
0.27958907
0.28191975
0.28576808
0.29004829
0.28137628
0.28006019
0.27953934
0.27617998
0.27492322
0.27408513
0.27125482
0.26712273
0.26880803
0.27031818
0.27068643
0.2695483
-0.24222954
-0.23317052
-0.19416786
-0.233363
-0.26630215
-0.25945764
-0.25836665
-0.24641766
-0.21389518
-0.21463207
-0.26901159
-0.27043548
-0.2710367
-0.27732198
-0.25019275
-0.24532351
-0.2089199
-0.19928908
-0.24562876
-0.26661386
-0.25950517
-0.25968009
-0.23939711
-0.23798145
-0.23533973
-0.23900928
-0.24595605
-0.24726157
-0.24987391
-0.24943104
0.10137718
0.078063108
0.03250022
0.083830608
0.064046202
0.10475287
0.075359648
0.055030484
0.041907994
0.043837477
0.061404601
0.11519452
0.12446832
0.074348082
0.064366577
0.087685702
0.068020854
0.019732947
0.05340092
0.068309524
0.11699458
0.090138205
0.084556422
0.088916878
0.089523409
0.09453235
0.089330931
0.10572079
0.10466745
0.11018686
-0.062519559
-0.095306251
-0.069166502
-0.10158653
-0.017496486
-0.016827336
-0.046110974
-0.078296576
-0.052176527
-0.065615758
-0.060775058
-0.032706699
-0.036858966
-0.061820219
-0.092315326
-0.057235008
-0.052371173
-0.066107296
-0.075099346
-0.049669331
-0.040119425
-0.048448562
-0.079948131
-0.071282982
-0.074763552
-0.061466049
-0.052194362
-0.042921952
-0.031495604
-0.029278714
-0.0068319616
0.017772923
0.018970684
-0.00076285393
-0.00017192196
0.0058676353
0.014518234
0.022161522
0.01281494
0.020406513
0.018392179
0.041927579
0.038734836
0.027640404
0.017161703
0.0078291066
-0.0055685605
0.0113022
0.015154022
0.014458132
0.031361917
0.017314508
0.034755372
0.03169032
0.0043964365
-0.0035902996
0.01374083
0.013581447
0.023631344
0.021103113
0.27475036
0.27353176
0.27223704
0.27540629
0.27986206
0.28103279
0.27335848
0.28180165
0.27678425
0.29321021
0.2837391
0.28356695
0.28790093
0.28700765
0.28374399
0.28017885
0.28310592
0.27868523
0.28604662
0.28596959
0.28261202
0.28077838
0.29533353
0.29701441
0.27960972
0.26995101
0.26880316
0.26334014
0.26100481
0.26275186
-0.24920187
-0.26053899
-0.2278617
-0.23360554
-0.22804626
-0.22796076
-0.22635079
-0.21871229
-0.19774723
-0.20010233
-0.25308407
-0.27335825
-0.26386578
-0.26277036
-0.26945964
-0.25526611
-0.23568808
-0.23630086
-0.25465292
-0.26400907
-0.26682351
-0.26290171
-0.20841169
-0.17409391
-0.20773409
-0.23665094
-0.23842844
-0.23992893
-0.22661338
-0.2272668
0.14380443
0.10677008
0.09909112
0.09158048
0.086638216
0.092345171
0.081886735
0.062334148
0.068058526
0.03032803
0.051783705
0.066430812
0.12213439
0.12180589
0.080037159
0.093360316
0.074336752
0.079652603
0.07545832
0.10400535
0.088293292
0.061268525
0.033623644
0.023937076
0.032183063
0.089021073
0.0988684
0.097517927
0.09785665
0.10413193
-0.053489717
-0.062972581
-0.11999825
-0.10365281
-0.10516437
-0.10793659
-0.10421311
-0.075176441
-0.063824703
-0.07960384
-0.091822378
-0.058308991
-0.03538985
-0.038242152
-0.049314934
-0.068072539
-0.064097003
-0.087574758
-0.076006416
-0.052934606
-0.050168884
-0.076174501
-0.069246475
-0.063617951
-0.073393527
-0.050283355
-0.054589358
-0.079243281
-0.10328883
-0.094610488
0.02267715
0.014106654
0.022156997
0.026291002
0.03455726
0.034225177
0.0039853991
-0.0091096973
-0.0074654811
0.0075112646
0.017406922
0.027635323
0.034346028
0.030861057
0.01571673
0.008249375
-0.0036828369
0.017210826
0.016069664
0.021674961
0.020786453
0.014674064
0.010708725
0.0048907222
-0.012975553
-0.019733469
-0.0051298855
-0.0098442992
0.026062937
0.047946061
0.27962155
0.26839105
0.29246256
0.29904916
0.29892888
0.28811166
0.28223473
0.30493015
0.29962708
0.29697081
0.30879378
0.29271603
0.30049186
0.27911596
0.27287889
0.27988302
0.28636974
0.28855382
0.29927219
0.29880795
0.28618286
0.2898921
0.27406588
0.27802577
0.28340668
0.2775851
-0.24979555
-0.25536692
-0.21584027
-0.17871378
-0.20043626
-0.23495128
-0.23143533
-0.20084829
-0.1856451
-0.18460822
-0.21030931
-0.26329313
-0.26725946
-0.2286546
-0.24088367
-0.26165748
-0.26173685
-0.2687807
-0.24000774
-0.19152779
-0.18399911
-0.19115768
-0.22457043
-0.20658018
-0.19859637
-0.2176559
0.077718413
0.05168259
0.03320543
0.046361561
0.051590734
0.084172986
0.092987188
0.059634015
0.059653852
0.057543053
0.031199401
0.050140837
0.071614114
0.081723494
0.075656837
0.087920506
0.11105345
0.068781213
0.041572648
0.037613555
0.067643276
0.05519848
0.10283491
0.07148413
0.054332313
0.08306371
-0.042804918
-0.068685407
-0.057388321
-0.078532551
-0.063535817
-0.060986991
-0.048829165
-0.024841564
-0.032289522
-0.06800118
-0.062878787
-0.090132027
-0.044604401
-0.067231679
-0.086290925
-0.050268881
-0.041481692
-0.060988912
-0.079463853
-0.069584093
-0.058173222
-0.02451582
-0.025788628
-0.059006443
-0.078500317
-0.091665706
0.003187369
0.0016404332
-0.015711434
0.020178142
0.005542962
-0.0073244584
-0.014743352
-0.0068935094
-0.012750151
-0.0072646347
0.010519014
0.017636777
0.018493563
0.027010272
0.027773215
0.017636745
0.027193213
0.0063288282
0.0090281721
-0.00091318917
-0.020917289
-0.01293218
-0.0015806454
-0.019003116
0.001685024
0.026782883
0.27874611
0.27841725
0.27533042
0.27703443
0.28367632
0.29303791
0.29757729
0.29665743
0.29275126
0.292678
0.28173523
0.28642452
0.27991664
0.27060911
0.29268742
0.29639249
0.29344523
0.29509526
0.29490208
0.29562961
0.29739215
0.29228952
0.28293514
0.26714068
0.2735465
0.27137506
-0.25188948
-0.25900955
-0.25511823
-0.23938271
-0.20987078
-0.1923537
-0.19854521
-0.24191343
-0.19938271
-0.21923729
-0.23485134
-0.23857864
-0.2496794
-0.22563378
-0.22110834
-0.25092639
-0.27254805
-0.26500867
-0.27194409
-0.26002515
-0.21806227
-0.18408015
-0.19867959
-0.22325289
-0.2342542
-0.24161204
0.1343383
0.11704379
0.085257231
0.064113286
0.057939494
0.066133625
0.066179755
0.09995968
0.073078236
0.056060375
0.06623674
0.069923766
0.084850879
0.10325751
0.036448499
0.052667306
0.074195674
0.095301759
0.062518061
0.06642903
0.036335053
0.050366126
0.05404393
0.073159975
0.082070028
0.10811016
-0.034727814
-0.043088294
-0.089359921
-0.088953319
-0.071898957
-0.050153771
-0.041629093
-0.041494294
-0.040758743
-0.054499084
-0.069337476
-0.072244549
-0.055366549
-0.050202957
-0.080084927
-0.083703102
-0.051006485
-0.038120038
-0.038775173
-0.054816302
-0.053888184
-0.047203794
-0.039050281
-0.063850463
-0.070002134
-0.049390589
-0.00052903392
-0.016189811
0.01513488
0.015345082
-0.0094495016
-0.01631393
-0.014203866
-0.016294048
-0.018377874
-0.018292027
-0.0019133388
0.010159618
0.0018072007
-0.0048151142
0.010211841
0.014880326
0.0065182413
0.002960472
-0.0047651554
-0.0095591812
-0.011102086
-0.014757554
-0.019837219
-0.0025314284
0.0095957601
0.010942986
0.27926618
0.28046748
0.2840982
0.28561659
0.27738315
0.28909593
0.29673359
0.29288983
0.29127034
0.29281242
0.29320434
0.29217522
0.30950402
0.28698485
0.29977132
0.29268806
0.30838992
0.30994087
0.31712281
0.29726431
0.29352898
0.29976347
0.29028051
0.29534625
0.29156652
0.29232434
0.2559662
0.27006922
0.27252034
0.27317711
-0.26223959
-0.26409433
-0.26261571
-0.2560304
-0.25555828
-0.21537639
-0.19764862
-0.26070335
-0.26327064
-0.26909986
-0.26984211
-0.24502687
-0.22412212
-0.2584394
-0.26590516
-0.26878254
-0.25248323
-0.22502943
-0.21567408
-0.2328953
-0.25209432
-0.21638321
-0.23550592
-0.25812374
-0.24872941
-0.21388407
-0.2380395
-0.23077786
-0.24971351
-0.24459341
0.10263377
0.097045195
0.087297599
0.081216944
0.06707689
0.049528832
0.036645387
0.079547392
0.084216956
0.10932353
0.073162921
0.083077273
0.030919708
0.088551813
0.08571622
0.077698089
0.060703013
0.058961721
0.061159379
0.066129659
0.082026978
0.060228192
0.082493651
0.073668099
0.096613997
0.031724408
0.076586897
0.070431405
0.093995419
0.1193071
-0.037424569
-0.037807664
-0.034289279
-0.040659157
-0.050759468
-0.06060212
-0.067971905
-0.07148289
-0.049735494
-0.051467736
-0.025535087
-0.055890128
-0.060602402
-0.071569366
-0.021792697
-0.031161444
-0.078109501
-0.027646559
-0.051004424
-0.079955561
-0.053404779
-0.06632704
-0.095187631
-0.046638666
-0.074447073
-0.06323357
-0.060100941
-0.052534979
-0.042657342
-0.03962935
0.01026939
0.0091282473
-0.00096855738
-0.0023695133
-0.011569307
-0.014814572
-5.3426513e-05
0.0061658382
0.0050412811
0.014510217
-0.0045652239
0.0018524646
0.02394231
0.013003667
0.002794251
0.0043921373
0.0096054503
0.0015046772
-0.01903943
0.0044465603
-0.0017076912
-0.010350648
0.016214673
0.015312498
0.01032154
0.0049778715
-0.0025300097
0.0092083506
0.017929543
0.022182732
0.27463287
0.28118464
0.27875507
0.28490674
0.28946266
0.27616821
0.30542263
0.28690753
0.28939258
0.29127138
0.28322102
0.29558923
0.30405219
0.27708351
0.30330364
0.29697305
0.31037653
0.30325426
0.31232605
0.30419232
0.31039977
0.30551405
0.30228454
0.28943715
0.30197796
0.30264307
0.28325894
0.26045421
0.26400662
0.26864482
-0.23051976
-0.23186539
-0.24966708
-0.25768737
-0.25619138
-0.2467402
-0.20524548
-0.24259713
-0.25968954
-0.26700598
-0.25843548
-0.19759081
-0.19196939
-0.24984438
-0.20125164
-0.22645783
-0.27141836
-0.28305175
-0.29603729
-0.26164398
-0.22725727
-0.19571949
-0.22692629
-0.2246642
-0.26576367
-0.20615297
-0.1964534
-0.23463471
-0.2288512
-0.22877421
0.10313895
0.07713698
0.093306487
0.10332904
0.074389095
0.051182098
0.02940521
0.063910341
0.087741252
0.084743358
0.050637592
0.032983511
0.025835865
0.098444484
0.054435968
0.049843342
0.061469941
0.11154014
0.093940789
0.052219895
0.046595669
0.063919673
0.049671246
0.084606474
0.068168111
0.040950508
0.043075084
0.072061606
0.09423399
0.10663135
-0.091988477
-0.091639252
-0.074338812
-0.021836699
-0.023584347
-0.064509069
-0.045415086
-0.066525597
-0.04122685
-0.039472098
-0.084418507
-0.061003997
-0.072810207
-0.049564432
-0.038421119
-0.056048851
-0.065277931
-0.034306107
-0.027766867
-0.087068947
-0.048703949
-0.042644093
-0.0544161
-0.10373505
-0.047621778
-0.0906713
-0.069167192
-0.083236238
-0.054119353
-0.042792448
0.038691403
0.0027734255
-0.011359006
0.00011975449
-0.001733584
0.0023704488
0.016841662
0.022326826
0.011993423
0.025420283
0.015154701
0.013675977
-0.0007594319
-0.013230238
-0.0085338211
0.0027010016
0.012774439
0.029716219
0.015284631
0.015280871
-0.011074176
-0.012726191
-0.0066996944
0.024124711
0.009092173
0.013344976
0.0057757372
-0.012254989
-0.014911551
-0.0016258737
0.28426034
0.29982281
0.2989019
0.2911962
0.29575512
0.29164209
0.30783982
0.28242186
0.28770818
0.29241236
0.27834175
0.30696711
0.29326033
0.29447197
0.29734947
0.30612231
0.31627362
0.31022567
0.31718892
0.31053381
0.30519776
0.28335035
0.27754508
0.28639752
0.29229814
0.29639493
0.29150471
0.2872303
0.26469472
0.26646724
-0.22127068
-0.1957053
-0.21299985
-0.24227659
-0.26744258
-0.23322167
-0.22299234
-0.2537805
-0.26555521
-0.27195756
-0.2576728
-0.21587737
-0.24614775
-0.25017787
-0.23169703
-0.2192939
-0.24138982
-0.27670141
-0.29229181
-0.22517545
-0.20000064
-0.24401355
-0.24590149
-0.24844115
-0.26726946
-0.28385609
-0.23114641
-0.18374725
-0.22790526
-0.2236895
0.090644479
0.061694691
0.059814351
0.083263401
0.053358248
0.091171608
0.042697372
0.056901519
0.087271842
0.077821234
0.056203503
0.026311943
0.075068062
0.080778433
0.060468598
0.069242938
0.038806727
0.10854436
0.082698933
0.033475832
0.03665849
0.081888223
0.10570049
0.084935663
0.11994278
0.068096197
0.04327215
0.038334413
0.049991078
0.097577885
-0.082079153
-0.082981392
-0.048824153
-0.061762162
-0.021773093
-0.071640678
-0.042664077
-0.0758314
-0.033579097
-0.030426731
-0.073935447
-0.047920762
-0.075129749
-0.046412472
-0.037713717
-0.046473468
-0.087194422
-0.037253343
-0.046945822
-0.09443194
-0.075555986
-0.063817235
-0.045028422
-0.097586001
-0.040419527
-0.056632263
-0.079871577
-0.069149533
-0.074886724
-0.036584886
0.0298333
-0.0039181093
-0.0075830111
0.0074143446
0.0054208435
0.029427196
-0.0043949811
0.019217992
0.017124257
0.027137456
0.023864544
0.019990767
0.0098985135
-0.006732096
-0.008562881
-0.0047462982
0.010231037
0.021107447
0.014139855
0.018294679
0.0025591316
-0.0091077702
0.0099913348
0.022286736
0.026608407
0.016999598
0.017224404
0.011763173
-0.012861646
-0.0015802644
0.2879787
0.2883106
0.29810326
0.28787588
0.29752512
0.29309442
0.29132295
0.28639495
0.28704557
0.29222514
0.27682116
0.29559489
0.28995853
0.28991126
0.29575943
0.2775883
0.31481821
0.3060187
0.31214299
0.31143189
0.30569036
0.27101358
0.28873363
0.28762073
0.29179975
0.29461832
0.2881142
0.29157566
0.27435307
0.26008853
-0.24113921
-0.22562334
-0.19198166
-0.20223662
-0.18740238
-0.21072548
-0.24723495
-0.26566963
-0.26235965
-0.26973432
-0.25415296
-0.23334764
-0.25706167
-0.26400771
-0.25267872
-0.25394529
-0.23443402
-0.26632401
-0.28298991
-0.20055295
-0.19845679
-0.2487176
-0.23689711
-0.26120983
-0.25943352
-0.26621182
-0.27257334
-0.21248974
-0.20212996
-0.21628659
0.10631486
0.084050632
0.065769314
0.069636569
0.023577075
0.042291631
0.057488089
0.08336044
0.11589592
0.091009582
0.068600764
0.027050539
0.10157491
0.10972971
0.098423523
0.090022929
0.036994249
0.13310984
0.072280227
0.040914473
0.031167633
0.075973774
0.1025357
0.10351042
0.13734674
0.12240135
0.056960362
0.05811306
0.029983646
0.094248727
-0.042600625
-0.068740365
-0.028311656
-0.046255582
-0.054875659
-0.060361856
-0.064281898
-0.050331096
-0.031045181
-0.023933513
-0.061006916
-0.044430093
-0.04196045
-0.014149812
-0.033520253
-0.062428589
-0.070664346
-0.051548327
-0.054846101
-0.079530685
-0.064179099
-0.070923485
-0.034012195
-0.052881485
-0.032935891
-0.040108269
-0.070469351
-0.083439497
-0.082365094
-0.047459189
0.0076677365
-0.0056139493
-0.01068195
-0.017825667
-0.0012890523
0.0082309034
0.01179548
0.015963205
0.028357663
0.026270415
0.026569115
0.015554942
-0.001606488
0.0031028977
-0.00056680093
-0.0010263897
0.0096046208
0.023119919
0.013752689
0.020255179
0.0080221555
-0.0099951889
-0.00027333759
0.012750989
0.02570968
0.030795831
0.016724106
0.014805082
0.00197953
-0.0036268788
)
;

boundaryField
{
    minX
    {
        type            fixedFluxPressure;
        gradient        uniform 0;
        value           nonuniform List<scalar> 
50
(
0.26649046
-0.22622059
0.12947238
-0.080574392
0.0089823803
0.2672691
-0.21394802
0.11062512
-0.10655019
0.02936883
0.28331618
-0.24222954
0.10137718
-0.062519559
-0.0068319616
0.27475036
-0.24920187
0.14380443
-0.053489717
0.02267715
0.27962155
-0.24979555
0.077718413
-0.042804918
0.003187369
0.27874611
-0.25188948
0.1343383
-0.034727814
-0.00052903392
0.27926618
-0.26223959
0.10263377
-0.037424569
0.01026939
0.27463287
-0.23051976
0.10313895
-0.091988477
0.038691403
0.28426034
-0.22127068
0.090644479
-0.082079153
0.0298333
0.2879787
-0.24113921
0.10631486
-0.042600625
0.0076677365
)
;
    }
    maxX
    {
        type            fixedFluxPressure;
        gradient        uniform 0;
        value           nonuniform List<scalar> 
50
(
0.2671991
-0.22693984
0.077148683
-0.030968184
0.0045158679
0.26828443
-0.23920617
0.11038445
-0.037279964
0.015252487
0.2695483
-0.24943104
0.11018686
-0.029278714
0.021103113
0.26275186
-0.2272668
0.10413193
-0.094610488
0.047946061
0.2775851
-0.2176559
0.08306371
-0.091665706
0.026782883
0.27137506
-0.24161204
0.10811016
-0.049390589
0.010942986
0.27317711
-0.24459341
0.1193071
-0.03962935
0.022182732
0.26864482
-0.22877421
0.10663135
-0.042792448
-0.0016258737
0.26646724
-0.2236895
0.097577885
-0.036584886
-0.0015802644
0.26008853
-0.21628659
0.094248727
-0.047459189
-0.0036268788
)
;
    }
    minY
    {
        type            fixedValue;
        value           uniform 0;
    }
    minZ
    {
        type            fixedFluxPressure;
        gradient        uniform 0;
        value           nonuniform List<scalar> 
150
(
0.26649046
-0.22622059
0.12947238
-0.080574392
0.0089823803
0.26420566
-0.23046377
0.12574089
-0.061944299
-0.017653542
0.26954717
-0.23266317
0.1244754
-0.015341605
-0.00019648932
0.26853658
-0.23345811
0.1074842
-0.041230875
-0.015829101
0.27766925
-0.21489016
0.049943255
-0.053965392
-0.0012178452
0.2836056
-0.19663992
0.045706284
-0.064661001
0.013398498
0.28501785
-0.24554145
0.088844497
-0.060152097
0.008247012
0.27862759
-0.22613077
0.074535543
-0.064899486
0.015907084
0.27861406
-0.22079159
0.0501563
-0.080920812
0.0037627484
0.28762535
-0.19312534
0.057628501
-0.043937044
-0.010313402
0.29496786
-0.20076436
0.063184546
-0.044571166
-0.011031063
0.29290012
-0.25636647
0.062840871
-0.049668247
-0.0017670252
0.2901745
-0.23754333
0.06719256
-0.070068794
0.0050810753
0.29872131
-0.19718432
0.038873037
-0.060970937
0.0026344431
0.2916949
-0.18319842
0.073748289
-0.054427416
-0.021470515
0.30183081
-0.17290105
0.059480429
-0.011445089
-0.0038475651
0.29549918
-0.17669881
0.058435686
-0.025185425
-0.011567934
0.29723477
-0.18731405
0.063782833
-0.047545447
-0.026653272
0.29150433
-0.21289891
0.025242606
-0.087356234
-0.0017362686
0.28632111
-0.26061733
0.064470502
-0.048710975
0.00043573487
0.29392418
-0.26169664
0.076725598
-0.046488589
0.010353397
0.29378353
-0.2206216
0.053286996
-0.084960798
0.0091746993
0.29075461
-0.19044784
0.044548219
-0.071804886
-0.0055565851
0.28437108
-0.18953767
0.065916179
-0.043904337
-0.020479382
0.2851166
-0.18182342
0.064850986
-0.018855678
-0.0083810634
0.27939219
-0.16870562
0.063340225
-0.031640026
-0.014131277
0.28828532
-0.14408848
0.03460267
-0.040563305
-0.0023264104
0.26967473
-0.1975544
0.0326292
-0.038492697
-0.004044938
0.26010152
-0.22740593
0.054397993
-0.046243108
0.0064134058
0.2671991
-0.22693984
0.077148683
-0.030968184
0.0045158679
)
;
    }
    maxZ
    {
        type            fixedFluxPressure;
        gradient        uniform 0;
        value           nonuniform List<scalar> 
150
(
0.2879787
-0.24113921
0.10631486
-0.042600625
0.0076677365
0.2883106
-0.22562334
0.084050632
-0.068740365
-0.0056139493
0.29810326
-0.19198166
0.065769314
-0.028311656
-0.01068195
0.28787588
-0.20223662
0.069636569
-0.046255582
-0.017825667
0.29752512
-0.18740238
0.023577075
-0.054875659
-0.0012890523
0.29309442
-0.21072548
0.042291631
-0.060361856
0.0082309034
0.29132295
-0.24723495
0.057488089
-0.064281898
0.01179548
0.28639495
-0.26566963
0.08336044
-0.050331096
0.015963205
0.28704557
-0.26235965
0.11589592
-0.031045181
0.028357663
0.29222514
-0.26973432
0.091009582
-0.023933513
0.026270415
0.27682116
-0.25415296
0.068600764
-0.061006916
0.026569115
0.29559489
-0.23334764
0.027050539
-0.044430093
0.015554942
0.28995853
-0.25706167
0.10157491
-0.04196045
-0.001606488
0.28991126
-0.26400771
0.10972971
-0.014149812
0.0031028977
0.29575943
-0.25267872
0.098423523
-0.033520253
-0.00056680093
0.2775883
-0.25394529
0.090022929
-0.062428589
-0.0010263897
0.31481821
-0.23443402
0.036994249
-0.070664346
0.0096046208
0.3060187
-0.26632401
0.13310984
-0.051548327
0.023119919
0.31214299
-0.28298991
0.072280227
-0.054846101
0.013752689
0.31143189
-0.20055295
0.040914473
-0.079530685
0.020255179
0.30569036
-0.19845679
0.031167633
-0.064179099
0.0080221555
0.27101358
-0.2487176
0.075973774
-0.070923485
-0.0099951889
0.28873363
-0.23689711
0.1025357
-0.034012195
-0.00027333759
0.28762073
-0.26120983
0.10351042
-0.052881485
0.012750989
0.29179975
-0.25943352
0.13734674
-0.032935891
0.02570968
0.29461832
-0.26621182
0.12240135
-0.040108269
0.030795831
0.2881142
-0.27257334
0.056960362
-0.070469351
0.016724106
0.29157566
-0.21248974
0.05811306
-0.083439497
0.014805082
0.27435307
-0.20212996
0.029983646
-0.082365094
0.00197953
0.26008853
-0.21628659
0.094248727
-0.047459189
-0.0036268788
)
;
    }
    bottomWater_to_rightSolid
    {
        type            fixedFluxPressure;
        gradient        uniform 0;
        value           nonuniform List<scalar> 
130
(
-0.026653272
-0.0017362686
0.00043573487
0.010353397
0.0091746993
-0.0055565851
-0.020479382
-0.0083810634
-0.014131277
-0.0023264104
-0.004044938
0.0064134058
0.0045158679
0.00066743877
0.0097788615
0.012282509
0.030744088
0.037190588
0.026683487
-0.0098430075
-0.01119329
0.0014064698
0.0047301986
0.0036704072
0.01150172
0.015252487
0.0113022
0.015154022
0.014458132
0.031361917
0.017314508
0.034755372
0.03169032
0.0043964365
-0.0035902996
0.01374083
0.013581447
0.023631344
0.021103113
0.017210826
0.016069664
0.021674961
0.020786453
0.014674064
0.010708725
0.0048907222
-0.012975553
-0.019733469
-0.0051298855
-0.0098442992
0.026062937
0.047946061
0.027010272
0.027773215
0.017636745
0.027193213
0.0063288282
0.0090281721
-0.00091318917
-0.020917289
-0.01293218
-0.0015806454
-0.019003116
0.001685024
0.026782883
-0.0048151142
0.010211841
0.014880326
0.0065182413
0.002960472
-0.0047651554
-0.0095591812
-0.011102086
-0.014757554
-0.019837219
-0.0025314284
0.0095957601
0.010942986
0.0015046772
-0.01903943
0.0044465603
-0.0017076912
-0.010350648
0.016214673
0.015312498
0.01032154
0.0049778715
-0.0025300097
0.0092083506
0.017929543
0.022182732
0.029716219
0.015284631
0.015280871
-0.011074176
-0.012726191
-0.0066996944
0.024124711
0.009092173
0.013344976
0.0057757372
-0.012254989
-0.014911551
-0.0016258737
0.021107447
0.014139855
0.018294679
0.0025591316
-0.0091077702
0.0099913348
0.022286736
0.026608407
0.016999598
0.017224404
0.011763173
-0.012861646
-0.0015802644
0.023119919
0.013752689
0.020255179
0.0080221555
-0.0099951889
-0.00027333759
0.012750989
0.02570968
0.030795831
0.016724106
0.014805082
0.00197953
-0.0036268788
)
;
    }
    bottomWater_to_leftSolid
    {
        type            fixedFluxPressure;
        gradient        uniform 0;
        value           nonuniform List<scalar> 
130
(
0.0089823803
-0.017653542
-0.00019648932
-0.015829101
-0.0012178452
0.013398498
0.008247012
0.015907084
0.0037627484
-0.010313402
-0.011031063
-0.0017670252
0.0050810753
0.02936883
-0.010403482
-0.01326112
-0.016890744
0.0094853654
0.0093865665
0.029813639
0.025833596
0.01996097
0.010889159
0.014560787
0.017029167
0.007860965
-0.0068319616
0.017772923
0.018970684
-0.00076285393
-0.00017192196
0.0058676353
0.014518234
0.022161522
0.01281494
0.020406513
0.018392179
0.041927579
0.038734836
0.02267715
0.014106654
0.022156997
0.026291002
0.03455726
0.034225177
0.0039853991
-0.0091096973
-0.0074654811
0.0075112646
0.017406922
0.027635323
0.034346028
0.003187369
0.0016404332
-0.015711434
0.020178142
0.005542962
-0.0073244584
-0.014743352
-0.0068935094
-0.012750151
-0.0072646347
0.010519014
0.017636777
0.018493563
-0.00052903392
-0.016189811
0.01513488
0.015345082
-0.0094495016
-0.01631393
-0.014203866
-0.016294048
-0.018377874
-0.018292027
-0.0019133388
0.010159618
0.0018072007
0.01026939
0.0091282473
-0.00096855738
-0.0023695133
-0.011569307
-0.014814572
-5.3426513e-05
0.0061658382
0.0050412811
0.014510217
-0.0045652239
0.0018524646
0.02394231
0.038691403
0.0027734255
-0.011359006
0.00011975449
-0.001733584
0.0023704488
0.016841662
0.022326826
0.011993423
0.025420283
0.015154701
0.013675977
-0.0007594319
0.0298333
-0.0039181093
-0.0075830111
0.0074143446
0.0054208435
0.029427196
-0.0043949811
0.019217992
0.017124257
0.027137456
0.023864544
0.019990767
0.0098985135
0.0076677365
-0.0056139493
-0.01068195
-0.017825667
-0.0012890523
0.0082309034
0.01179548
0.015963205
0.028357663
0.026270415
0.026569115
0.015554942
-0.001606488
)
;
    }
    bottomWater_to_heater
    {
        type            fixedFluxPressure;
        gradient        uniform 0;
        value           nonuniform List<scalar> 
92
(
0.0026344431
-0.021470515
-0.0038475651
-0.011567934
0.0095063362
0.00069018402
-0.011591635
-0.0089995207
0.027640404
0.017161703
0.0078291066
-0.0055685605
0.28700765
0.28374399
0.28017885
0.28310592
-0.26277036
-0.26945964
-0.25526611
-0.23568808
0.12180589
0.080037159
0.093360316
0.074336752
-0.038242152
-0.049314934
-0.068072539
-0.064097003
0.030861057
0.030861057
0.01571673
0.01571673
0.008249375
0.008249375
-0.0036828369
-0.0036828369
0.30049186
0.27911596
-0.26725946
-0.2286546
0.071614114
0.081723494
-0.044604401
-0.067231679
0.018493563
0.027010272
0.27991664
0.28698485
0.29977132
0.29268806
0.27060911
0.30838992
-0.2496794
-0.2584394
-0.26590516
-0.26878254
-0.22563378
-0.25248323
0.084850879
0.088551813
0.08571622
0.077698089
0.10325751
0.060703013
-0.055366549
-0.071569366
-0.021792697
-0.031161444
-0.050202957
-0.078109501
0.0018072007
0.013003667
0.002794251
0.0043921373
-0.0048151142
0.0096054503
0.013003667
0.002794251
0.0043921373
0.0096054503
-0.013230238
-0.0085338211
0.0027010016
0.012774439
-0.006732096
-0.008562881
-0.0047462982
0.010231037
0.0031028977
-0.00056680093
-0.0010263897
0.0096046208
)
;
    }
}


// ************************************************************************* //
