/*--------------------------------*- C++ -*----------------------------------*\
| =========                 |                                                 |
| \\      /  F ield         | OpenFOAM: The Open Source CFD Toolbox           |
|  \\    /   O peration     | Version:  v2012                                 |
|   \\  /    A nd           | Website:  www.openfoam.com                      |
|    \\/     M anipulation  |                                                 |
\*---------------------------------------------------------------------------*/
FoamFile
{
    version     2.0;
    format      ascii;
    class       volScalarField;
    location    "280/bottomWater";
    object      T;
}
// * * * * * * * * * * * * * * * * * * * * * * * * * * * * * * * * * * * * * //

dimensions      [0 0 0 1 0 0 0];


internalField   nonuniform List<scalar> 
1460
(
992.71244
991.43823
992.16703
991.27283
989.24018
988.82201
986.64551
981.92424
981.10048
979.64879
973.88895
966.29298
958.62099
958.04812
956.14286
954.29768
955.06484
955.83864
956.86147
958.39527
963.30285
968.56475
967.32696
968.96672
971.15636
975.24167
977.53036
979.75236
982.75384
987.71177
989.43634
986.35118
988.5233
988.89009
987.30886
987.45613
986.66164
983.14352
983.76032
981.10172
973.47901
966.58131
960.75628
959.9268
956.34865
954.41307
954.81214
956.12064
957.11949
957.51699
963.11248
965.80386
965.51086
965.38287
969.00624
972.59991
976.80279
978.55934
980.14514
983.22436
984.21966
984.1513
987.23373
987.13243
987.16807
987.40467
986.59055
985.01207
984.92094
981.75125
972.02028
966.67454
966.18915
961.72473
956.62659
954.11367
954.60233
956.43866
958.21822
957.8475
962.78108
965.63196
965.31068
963.588
967.7
971.53979
976.68298
978.76435
980.78172
982.72945
983.50009
983.24873
983.80161
984.52154
985.91586
987.15534
986.62529
986.02504
984.77105
981.79568
972.71407
968.56997
966.53414
962.0659
956.99571
954.29803
954.40511
956.38804
958.96923
958.27552
962.98189
963.51749
963.49116
962.7821
967.32865
971.97567
975.4116
975.24673
976.72528
976.95779
982.2839
982.53721
983.42381
983.99957
984.39399
985.14008
984.50675
984.3258
983.45419
981.9951
972.44774
967.71217
962.03942
958.98866
956.76174
954.14592
954.19919
956.02307
957.13957
958.26725
961.92533
962.07587
962.05501
962.09009
965.91714
969.79836
970.36955
970.99827
971.88856
972.15083
990.13308
987.94651
989.79388
988.70952
990.50578
990.60808
986.91802
982.60233
981.27002
979.16447
976.13985
967.20082
958.4712
957.12105
955.62869
955.43028
958.07645
954.90219
957.47266
959.50236
963.29568
969.6468
971.49276
972.84593
973.12158
974.1853
977.48274
980.36929
983.26803
986.53349
987.54776
985.36684
986.48958
987.0446
987.62118
988.05676
986.55256
982.27913
981.45898
979.94394
976.79859
969.50118
957.89032
956.11849
953.6434
953.64911
955.39436
954.11637
955.11072
956.72629
963.42314
968.1291
968.13184
968.6647
970.18424
972.10321
974.3713
976.88331
979.59294
982.41651
985.19906
985.04665
986.09822
986.94244
987.67701
987.60391
986.80327
983.11174
983.01023
979.86101
971.53148
968.90732
958.62363
957.46676
952.73338
951.89809
954.22148
954.23009
954.99533
957.01402
963.96118
968.60278
967.28935
967.87508
968.83702
971.74239
974.92317
976.60153
978.752
980.81449
985.34613
985.2136
985.31119
986.36827
987.63334
987.48036
986.986
984.23445
984.30718
981.89019
971.162
969.30811
959.64683
958.52793
954.45915
952.52946
953.88112
958.79475
958.17902
957.95687
964.66281
965.5185
965.65219
966.49006
968.6458
975.26549
976.33835
977.54818
978.87958
980.60032
984.3644
984.52509
984.62342
984.85211
984.86567
985.04259
986.38737
984.30509
983.68185
981.22878
971.37341
969.35249
960.67524
957.37337
954.7519
952.53592
953.30847
955.62661
957.379
959.34277
964.12036
964.53535
964.53513
964.24483
965.81325
971.05332
972.53292
973.31069
974.52463
974.97563
990.90536
989.70097
987.93796
990.14819
990.05675
988.32738
985.21905
982.96201
982.09116
978.84375
977.38009
973.47997
964.01262
958.5942
956.97348
955.80072
953.98643
948.73845
951.81313
956.45554
962.71945
969.31408
973.9665
976.71964
976.47184
977.43344
978.83794
979.26115
979.25053
980.74288
987.7994
986.62957
987.17181
986.77405
986.45166
984.32424
982.93669
983.24067
983.11262
980.53468
978.20581
975.14789
959.0358
955.25785
953.342
951.88258
950.85174
945.75622
946.98215
950.30323
957.69089
970.44544
972.23503
973.3458
972.80374
973.66862
974.6955
974.90163
973.43181
974.55898
987.07806
986.86809
986.99037
986.92692
986.68879
985.09045
983.76596
984.3053
984.24785
979.86058
977.78329
974.40797
958.84992
955.26161
951.33252
948.88026
949.58219
945.31732
948.8662
951.70837
959.16195
970.67113
970.18641
969.99374
970.5957
970.92732
972.7529
973.59587
973.31131
974.26963
987.22511
987.69804
987.42038
987.36129
986.86998
985.71315
985.11859
985.43025
984.05622
978.96998
976.36432
973.92427
958.86957
955.72255
952.46353
950.11171
950.24689
952.24276
954.68788
954.81456
960.29615
968.47743
968.58955
968.41695
968.92033
969.47144
972.78099
973.55022
973.10219
974.40522
984.8368
986.40211
986.07339
986.0342
984.88927
983.27325
984.83047
984.41928
979.73834
973.24364
973.84931
972.99201
958.17698
954.87708
952.21029
950.07819
949.71992
952.04412
954.60309
956.22925
959.77339
963.38762
965.09071
966.2397
965.25334
966.52893
970.56843
971.55295
971.16715
971.76193
993.79711
991.46019
988.67504
985.95155
983.72833
981.38995
980.56314
980.33241
977.81956
972.88551
970.83926
971.45818
967.87201
959.41794
951.58227
949.96608
942.30149
947.11738
950.94882
964.94731
970.78456
971.63864
970.62549
969.54053
970.06685
970.61841
972.40172
972.73098
973.68784
975.76631
989.47707
987.967
986.31428
983.9682
982.7023
980.60535
980.04421
982.7057
976.95372
973.46606
969.4442
968.18535
964.93074
953.17344
948.25132
945.58458
940.97818
939.42097
943.34621
954.46315
970.01399
970.78662
970.44751
969.15916
968.22245
967.53034
968.37483
968.07905
968.40698
971.0633
989.11023
988.36641
989.08505
986.86442
986.08104
986.00723
984.94469
983.31247
976.73594
973.40801
972.17591
969.19538
964.65292
951.74728
946.76444
941.97164
941.11671
936.22294
942.08834
953.79972
969.173
970.94447
970.64166
969.15509
968.12979
966.84039
967.99745
967.85458
968.46808
970.57652
989.24773
988.91117
988.9421
988.6857
986.80811
986.25269
984.6487
982.15443
973.98686
973.21146
970.6089
968.64455
964.11917
950.38079
946.11564
942.5848
942.54717
943.21996
950.94698
955.10266
968.80456
969.8405
969.8447
968.8506
968.34685
966.13997
967.4601
967.95571
969.02521
971.65789
988.24221
987.73463
987.48708
986.83634
985.97043
985.51817
984.77334
983.46424
972.92994
969.55092
968.46939
966.70651
962.62705
948.16968
944.56539
941.56093
944.75609
947.94604
953.18301
955.64603
966.64394
966.10635
965.70957
966.23797
965.63317
965.64828
967.92732
968.46552
968.76003
970.17593
992.2316
989.18287
986.73878
983.40502
981.15963
976.56404
973.80359
974.01376
967.48144
961.85763
959.30768
960.98938
947.37239
930.81451
951.65453
958.67103
964.18194
968.74045
968.84181
967.43226
967.18019
966.08881
969.73312
966.9388
967.20442
970.45747
990.28981
988.59403
987.70511
984.04743
982.1217
977.99431
975.97291
977.78249
969.00897
961.27256
958.08971
958.98481
951.7383
925.99743
943.17535
951.70789
965.82643
968.31326
967.72019
966.32378
965.0397
964.05301
965.65549
964.41271
966.15572
966.65881
990.23239
989.44558
988.33508
984.70761
982.21564
982.54877
983.66044
979.35234
969.5296
960.20426
956.63021
955.12241
949.50297
928.45272
956.62068
955.54767
965.61794
968.15572
967.61339
965.858
964.75997
963.84165
963.31043
964.37935
966.59085
968.62514
990.36764
989.77371
988.73213
988.00168
982.51974
982.75112
984.22481
978.09296
967.61466
964.154
959.47088
956.93809
948.91803
937.26818
959.53782
959.43861
965.48932
967.32437
967.18501
964.82819
964.27095
963.26565
963.80348
965.32063
966.41078
967.86603
988.57833
987.34028
986.48415
986.74983
985.49947
985.15722
984.53908
979.32466
966.2369
963.14961
960.64469
957.55777
950.42659
949.41587
957.95049
959.53012
964.37862
964.99981
965.10485
964.7911
963.97425
962.68608
964.45008
966.09244
966.7308
967.27999
991.43477
986.6818
983.42248
980.73399
978.77082
976.46806
969.71883
970.97976
965.39196
957.91573
960.33017
959.97672
946.88139
937.704
947.70234
950.31338
953.15995
963.75174
967.01749
967.31131
965.89066
964.91209
965.70256
969.50651
972.35291
977.28782
987.75542
984.73538
982.94291
981.29967
979.50035
977.12541
970.17821
973.17737
963.73367
954.88663
957.55791
957.79074
948.50882
930.34851
947.89393
952.32453
953.84622
964.30662
965.51518
965.2614
964.31454
963.43946
963.23296
965.71435
967.05898
969.38256
987.87634
985.8088
984.56792
983.56334
979.71462
976.54096
968.91013
970.14833
961.26971
954.31454
952.80443
954.03896
944.34527
940.6393
949.2133
958.96398
956.64052
964.44973
965.51017
963.84239
964.28018
963.00615
963.076
966.31462
967.64192
969.35947
987.91666
987.12569
986.27946
984.78899
978.95658
976.59686
963.79566
964.51568
957.86031
953.26463
949.77436
946.36455
941.99696
946.47482
956.76151
961.66055
960.87219
964.75694
965.60098
962.43648
963.14528
961.71557
960.98343
965.13693
967.79636
969.12636
986.15883
986.00676
985.55809
984.70341
981.73611
979.20829
964.10258
961.24513
957.20912
954.33897
951.21573
947.71375
939.16139
950.39248
957.6857
960.54777
961.8925
963.39801
962.87327
961.49746
960.50827
959.5591
960.44039
963.16957
965.06169
966.12917
988.0457
985.80693
983.51163
981.46522
978.96627
976.1792
972.1187
972.25696
967.7777
960.16921
958.01675
955.59854
950.88054
941.05804
938.01377
940.15463
939.10407
939.61543
948.99358
949.43688
951.34799
960.7139
960.25719
963.50727
966.88612
965.70995
968.85073
968.83588
969.89586
973.84934
985.89324
983.88914
982.04501
980.10796
978.22774
975.80202
971.84699
972.40222
967.81471
957.23201
954.44302
951.53637
949.90435
946.80784
941.765
938.59726
937.68296
939.81784
952.41768
951.93696
954.53003
962.38171
958.54857
960.35783
964.29165
963.88483
965.15633
965.6519
965.73214
968.09391
985.9834
983.91772
982.23254
980.98278
976.7741
975.28993
971.11262
971.16961
966.40161
958.00315
954.86318
950.29228
948.07475
945.60575
940.66299
937.59026
937.34543
939.44752
953.6169
958.45024
956.8258
962.76983
962.36689
960.24721
964.48273
963.68345
964.07956
965.61311
965.9478
967.64543
986.36621
984.3111
982.73747
982.16787
974.19601
971.73455
967.84934
964.88541
962.47227
957.00904
954.48197
947.76065
947.6027
943.36043
939.35172
936.59671
936.76861
939.22094
954.71852
962.09687
961.63336
962.1804
962.52737
960.6237
964.19823
962.82526
962.13217
964.43085
966.20523
967.44101
984.58054
983.81138
983.14776
982.97657
969.8384
966.8468
965.13762
963.14549
961.4441
959.00277
952.659
945.77037
943.48056
936.95062
928.41017
926.6184
931.75645
938.75301
956.71006
959.43022
960.63448
960.96194
960.8212
959.82811
961.22605
959.72322
958.54734
961.45872
964.20695
965.37853
986.09259
984.69548
982.4514
981.49685
979.5018
978.00813
975.21339
974.56659
972.39462
965.18213
963.1509
961.77535
960.43897
953.22698
946.30867
950.13406
950.25742
947.05464
941.85991
950.08139
951.04117
951.96969
953.87134
955.58637
959.20743
962.49596
963.13222
963.13185
964.37351
968.23691
984.75972
983.07633
982.05368
980.62824
978.07926
976.81079
975.37733
973.56818
971.49206
962.37597
961.45872
960.1411
962.16329
956.61807
946.55436
947.19399
949.07783
948.23029
951.68358
952.36083
952.7253
952.96528
954.92051
955.83927
961.84689
962.27661
961.73737
960.3194
960.34004
964.40786
985.39352
982.81208
981.8109
980.83484
979.01645
979.27525
975.50038
970.81654
970.14476
962.49002
960.97029
959.26396
962.55005
959.59429
946.10812
945.57732
949.48572
949.0127
951.39112
954.3067
952.99731
953.24637
955.11816
958.32045
962.01732
961.79173
961.58873
960.94368
960.44481
962.36807
984.46648
982.30489
980.84389
979.04136
978.15223
978.10866
973.83882
967.51989
968.50354
963.12908
961.04168
964.05185
966.29384
959.66721
944.58154
943.59353
949.69506
949.32659
950.47349
954.03391
952.12894
953.08507
955.44547
960.46608
961.58075
960.67835
959.9339
958.4619
956.92811
957.64937
983.72225
982.9074
982.61262
977.70022
971.42297
970.52298
968.43862
966.60414
966.65859
963.45902
962.97411
963.49265
963.22659
958.84395
944.07602
943.99146
947.4729
948.18542
947.77773
949.11467
950.33936
952.90098
957.52586
958.48742
957.93182
957.75808
957.34481
956.20126
955.64127
957.04352
982.86814
982.11936
979.95324
980.43622
978.70756
977.75574
974.57376
975.88257
975.20881
970.37927
970.56958
968.01549
966.37461
957.40611
955.87621
954.91823
953.07328
949.15122
939.30634
948.77289
950.80271
952.57944
954.57279
956.31867
959.06665
963.07433
963.82409
958.46633
960.26651
964.29045
982.98298
982.12958
980.28691
979.65735
978.07757
976.01521
974.00268
974.09261
973.7611
969.81009
969.79335
968.32194
967.0057
959.48991
958.27372
955.83903
955.18325
954.98365
951.53118
952.25631
951.41375
951.56909
952.86151
954.47932
958.51482
960.25905
958.97405
957.69617
956.43548
963.17472
983.40461
981.90678
979.93262
979.20479
978.29359
978.26763
973.17966
972.3525
973.03961
969.31831
969.46154
968.33933
965.04456
961.62513
958.69371
955.43884
953.40047
955.16032
951.81179
953.02141
951.30332
950.61806
952.35159
954.13238
958.08375
959.87579
959.53311
957.94015
956.80794
956.54873
979.98993
979.94924
979.37366
977.26316
978.52934
976.21735
971.53958
971.88379
972.2374
969.16724
968.39587
970.36573
968.11463
966.02345
958.08708
952.49917
953.844
955.05813
951.97979
952.63936
951.66009
949.53198
952.44489
954.53299
957.70846
959.32422
958.95804
957.58338
955.05928
953.85055
980.10766
980.2664
979.93628
974.36559
975.21817
972.81344
969.77297
969.97621
970.27612
968.03307
967.47835
967.81761
967.40455
966.30063
957.26031
950.60236
951.8175
952.84948
950.29953
950.40302
949.51067
948.87882
952.31151
953.67939
955.64323
956.72408
956.25366
955.81538
954.72677
953.70074
980.01666
978.56609
977.24819
978.61609
978.64066
979.43873
978.57035
978.42441
977.5286
974.43416
975.88517
973.2117
970.77038
964.6809
958.44317
957.85098
955.18118
946.13258
943.40027
948.75642
950.91772
953.53948
954.7894
956.44647
958.71785
961.81832
965.3392
958.72633
957.82462
963.58944
978.61549
977.76366
976.96521
977.1293
978.29934
978.70937
978.22303
977.54198
976.77224
974.81131
974.60777
973.44328
970.69369
963.40579
958.53253
958.07437
958.6682
956.36329
951.45964
951.90627
951.2143
952.05289
952.86641
954.07304
956.00793
958.43168
957.00768
954.93849
953.83774
962.77855
978.84577
977.85372
976.80948
976.97804
978.47577
978.82903
978.43005
977.33569
976.54172
975.2333
975.40261
973.40175
967.85729
963.1115
959.58292
959.29232
958.72503
955.74053
951.50642
952.10951
950.97201
950.72167
951.10886
953.98804
955.69321
957.84113
957.20502
956.59081
953.15448
952.19415
978.93641
977.09521
975.94304
975.62608
979.08003
978.48985
977.63811
977.45448
976.30452
975.68321
975.95898
973.84418
968.16651
965.60308
960.37761
958.61155
958.4299
954.37544
951.52127
951.83126
951.02488
949.67226
949.62878
952.52572
955.59157
957.27467
957.14924
956.96271
955.73125
952.03024
977.89072
977.46722
975.77659
974.33808
974.76526
974.81105
975.1534
975.57165
975.46501
973.64094
973.47854
972.74778
971.81184
969.92357
957.6182
951.20689
952.34407
951.59112
949.69817
949.65227
949.41761
948.83955
948.65421
951.13664
953.53824
955.61847
955.05096
954.67027
953.70404
952.38023
)
;

boundaryField
{
    minX
    {
        type            zeroGradient;
    }
    maxX
    {
        type            zeroGradient;
    }
    minY
    {
        type            fixedValue;
        value           uniform 1073;
    }
    minZ
    {
        type            zeroGradient;
    }
    maxZ
    {
        type            zeroGradient;
    }
    bottomWater_to_rightSolid
    {
        type            compressible::turbulentTemperatureCoupledBaffleMixed;
        refValue        nonuniform List<scalar> 
130
(
725.77555
733.15119
740.82775
748.41774
755.60168
762.18927
768.0671
773.17788
777.46234
780.88319
783.4448
785.15388
786.00897
720.42908
729.03931
737.799
746.25821
754.09437
761.14707
767.34125
772.6556
777.08156
780.59814
783.22062
784.96597
785.83868
709.62637
721.07492
732.15028
742.34682
751.43072
759.34091
766.10418
771.77379
776.42134
780.09297
782.80984
784.60447
785.50222
693.43348
710.26366
725.09096
737.77885
748.44851
757.3684
764.77302
770.84431
775.73351
779.55213
782.36277
784.21568
785.14188
674.24714
699.94996
719.21149
734.23759
746.22376
755.90998
763.7682
770.11284
775.163
779.0792
781.95622
783.84842
784.78974
674.05206
699.73896
718.98513
733.97946
745.94703
755.61853
763.46493
769.80414
774.85027
778.76083
781.64038
783.53875
784.48353
692.80852
709.64066
724.42219
737.02232
747.64085
756.52946
763.90915
769.96722
774.8316
778.62018
781.42494
783.28272
784.20879
708.75657
720.09836
731.06455
741.14928
750.15263
758.02129
764.74913
770.3847
774.98575
778.60128
781.27636
783.0476
783.93577
719.42344
727.86844
736.46377
744.7612
752.48161
759.46778
765.61047
770.86944
775.22674
778.67962
781.24733
782.94632
783.79218
724.7007
731.89478
739.39139
746.80637
753.85397
760.34217
766.14829
771.18364
775.39516
778.7503
781.25396
782.91228
783.73623
)
;
        refGradient     uniform 0;
        valueFraction   uniform 0.99248593;
        value           nonuniform List<scalar> 
130
(
727.50567
734.83428
742.46162
750.02208
757.15316
763.69109
769.52502
774.62622
778.90759
782.30701
784.85407
786.55701
787.40766
722.19641
730.75511
739.46373
747.89531
755.67569
762.67537
768.82082
774.10707
778.5391
782.04033
784.64895
786.39032
787.25987
711.44797
722.82972
733.83409
743.98065
753.02342
760.88696
767.60802
773.2276
777.84987
781.52422
784.22807
786.0063
786.90179
695.34595
712.08904
726.82345
739.49864
750.08408
758.93395
766.28689
772.30801
777.16058
780.96758
783.76114
785.60234
786.53223
676.31477
701.8886
721.01729
735.96689
747.8677
757.48193
765.27873
771.56956
776.5721
780.472
783.33979
785.22258
786.16096
676.12848
701.67718
720.80032
735.69209
747.58099
757.17589
764.95298
771.23714
776.23824
780.12595
783.00438
784.9027
785.84841
694.6565
711.49708
726.18808
738.70261
749.24381
758.06458
765.38136
771.40441
776.22096
779.97217
782.7777
784.64218
785.5701
710.55564
721.80912
732.70297
742.72113
751.67606
759.52038
766.20489
771.79393
776.35914
779.94439
782.59078
784.3445
785.23651
721.17741
729.5398
738.07134
746.29972
753.95735
760.91682
767.02362
772.25781
776.59055
780.01394
782.55905
784.23709
785.0689
726.40555
733.5314
740.97134
748.32885
755.31915
761.75717
767.53828
772.55383
776.74935
780.07502
782.557
784.19558
785.00339
)
;
        Tnbr            T;
        thicknessLayers List<scalar> 0();
        kappaLayers     List<scalar> 0();
        kappaMethod     fluidThermo;
        kappa           none;
        alphaAni        none;
        alpha           none;
        field           T;
    }
    bottomWater_to_leftSolid
    {
        type            compressible::turbulentTemperatureCoupledBaffleMixed;
        refValue        nonuniform List<scalar> 
130
(
825.84082
825.82381
825.78005
825.69658
825.56557
825.38246
825.14043
824.84756
824.51279
824.15093
823.78115
823.49593
823.32351
825.87085
825.84778
825.79111
825.69206
825.54309
825.3423
825.08914
824.77484
824.42317
824.05041
823.68441
823.40588
823.22086
825.89124
825.86265
825.78822
825.6631
825.47949
825.24058
824.95601
824.61208
824.21884
823.82696
823.49521
823.22722
823.02692
825.88919
825.8438
825.74708
825.59108
825.37259
825.09459
824.75743
824.36204
823.91703
823.51294
823.17652
822.91536
822.7511
825.81125
825.7531
825.63501
825.45217
825.19534
824.87229
824.48383
824.03992
823.56721
823.1536
822.80614
822.53518
822.36243
825.65374
825.59135
825.45778
825.24383
824.94263
824.57018
824.11824
823.6847
823.26304
822.87641
822.53899
822.27217
822.10079
825.45877
825.39109
825.24823
825.01824
824.68265
824.32987
823.96004
823.59002
823.23065
822.88862
822.57528
822.32594
822.18815
825.26304
825.19689
825.05846
824.8342
824.55247
824.2584
823.95013
823.6442
823.35183
823.07144
822.83439
822.65914
822.56091
825.07699
825.02012
824.89793
824.70719
824.49475
824.25365
823.99727
823.74878
823.50685
823.27358
823.07912
822.93899
822.86056
824.96165
824.90796
824.79711
824.64345
824.46815
824.27198
824.06379
823.85139
823.63684
823.42815
823.25456
823.12608
823.05382
)
;
        refGradient     uniform 0;
        valueFraction   uniform 0.99248593;
        value           nonuniform List<scalar> 
130
(
827.01636
827.00138
826.96462
826.8861
826.75904
826.58291
826.33793
826.0459
825.7071
825.33697
824.89815
824.57961
824.36584
827.0618
827.0401
826.98461
826.88803
826.74029
826.54234
826.30117
825.97357
825.61986
825.23143
824.79412
824.50258
824.25371
827.08561
827.06894
826.99263
826.86817
826.67734
826.42807
826.15735
825.81292
825.38743
824.94971
824.62501
824.35258
824.04244
827.10914
827.06027
826.96243
826.8027
826.57934
826.30002
825.95981
825.55753
825.03674
824.61029
824.26828
823.99583
823.80212
827.03432
826.9673
826.84368
826.66422
826.39993
826.07672
825.68652
825.20666
824.63924
824.20555
823.84189
823.54977
823.32474
826.85983
826.79676
826.66084
826.44205
826.12085
825.73217
825.16987
824.71825
824.2695
823.86421
823.50585
823.21473
822.98041
826.65444
826.58151
826.43476
826.20521
825.77336
825.40082
825.02093
824.63871
824.26925
823.91143
823.55284
823.25351
823.09954
826.45374
826.38197
826.24238
825.98287
825.65611
825.35749
825.03583
824.71846
824.42868
824.12641
823.88748
823.7174
823.61788
826.24192
826.18668
826.06292
825.83174
825.62731
825.37
825.09267
824.84758
824.60971
824.36134
824.16415
824.02763
823.94669
826.11079
826.05433
825.93159
825.7683
825.59753
825.40316
825.19911
824.99147
824.77771
824.55685
824.38334
824.25034
824.17158
)
;
        Tnbr            T;
        thicknessLayers List<scalar> 0();
        kappaLayers     List<scalar> 0();
        kappaMethod     fluidThermo;
        kappa           none;
        alphaAni        none;
        alpha           none;
        field           T;
    }
    bottomWater_to_heater
    {
        type            compressible::turbulentTemperatureCoupledBaffleMixed;
        refValue        nonuniform List<scalar> 
92
(
708.09169
710.02084
713.78496
719.16012
699.47939
701.74301
706.19225
712.58196
681.30983
684.23195
690.1161
698.80599
344.41124
341.58893
341.60413
344.37475
418.39686
414.88214
415.05198
418.70006
480.92477
477.90826
478.54629
482.39954
533.41669
531.45212
533.23436
537.83815
651.61197
576.16646
655.27191
576.04517
663.18112
580.35993
675.98701
587.81988
344.41124
344.37475
418.39686
418.70006
480.92477
482.39954
533.41669
537.83815
576.16646
587.81988
344.35437
344.35437
341.54861
341.5829
344.39189
344.39189
418.31935
418.31935
414.83166
415.02583
418.71667
418.71667
480.82637
480.82637
477.84943
478.52436
482.44499
482.44499
533.28992
533.28992
531.3722
533.1903
537.85291
537.85291
575.99287
575.99287
575.91642
580.25391
587.73414
587.73414
651.08932
654.71125
662.59384
675.37809
680.73357
683.57385
689.39581
698.02585
698.93031
701.10286
705.43956
711.71612
707.5499
709.36727
713.00393
718.24842
)
;
        refGradient     uniform 0;
        valueFraction   nonuniform List<scalar> 
92
(
0.99248593
0.99248593
0.99248593
0.99248593
0.99248593
0.99248593
0.99248593
0.99248593
0.99248593
0.99248593
0.99248593
0.99248593
0.99248593
0.99248593
0.99248593
0.99248593
0.99248593
0.99248593
0.99248593
0.99248593
0.99248593
0.99248593
0.99248593
0.99248593
0.99248593
0.99248593
0.99248593
0.99248593
0.99248593
0.99248593
0.99248593
0.99248593
0.99248593
0.99248593
0.99248593
0.99248593
0.99248593
0.99248593
0.99248593
0.99248593
0.99248593
0.99248593
0.99248593
0.99248593
0.99248593
0.99248593
0.99248593
0.99248593
0.99248593
0.99248593
0.99248593
0.99248593
0.99248593
0.99248593
0.99248593
0.99248593
0.99248593
0.99248593
0.99248593
0.99248593
0.99248593
0.99248593
0.99248593
0.99248593
0.99248593
0.99248593
0.99248593
0.99248593
0.99248593
0.99248593
0.99248593
0.99248593
0.99248593
0.99248593
0.99248593
0.99248593
0.99248593
0.99248593
0.99248593
0.99248593
0.99248593
0.99248593
0.99248593
0.99248593
0.99248593
0.99248593
0.99248593
0.99248593
0.99248593
0.99248593
0.99248593
0.99248593
)
;
        value           nonuniform List<scalar> 
92
(
709.97698
711.8749
715.59108
720.92624
701.41725
703.64419
708.04334
714.39083
683.36547
686.2456
692.06954
700.69144
349.03246
346.1724
346.17537
348.86762
422.41521
418.88991
419.03846
422.62454
484.46254
481.43126
482.02853
485.84639
536.54975
534.5679
536.31025
540.87917
653.84031
578.9617
657.44568
578.81426
665.27292
583.07405
678.00663
590.502
348.94202
348.78132
422.4045
422.512
484.44579
485.75113
536.53891
540.83917
578.9787
590.53693
348.88182
348.83815
346.03055
346.08062
348.85006
348.8606
422.30324
422.29048
418.7911
418.96001
422.56116
422.61625
484.30934
484.31873
481.32706
481.97385
485.88773
485.86324
536.36107
536.37121
534.4378
536.22155
540.92325
540.85049
578.72176
578.70514
578.56514
582.85662
590.45916
590.3192
653.23731
656.7679
664.57785
677.30459
682.82322
685.5313
691.30886
699.90022
700.93936
703.02761
707.28174
713.52026
709.52136
711.23248
714.79383
720.00745
)
;
        Tnbr            T;
        thicknessLayers List<scalar> 0();
        kappaLayers     List<scalar> 0();
        kappaMethod     fluidThermo;
        kappa           none;
        alphaAni        none;
        alpha           none;
        field           T;
    }
}


// ************************************************************************* //
