/*--------------------------------*- C++ -*----------------------------------*\
| =========                 |                                                 |
| \\      /  F ield         | OpenFOAM: The Open Source CFD Toolbox           |
|  \\    /   O peration     | Version:  v2012                                 |
|   \\  /    A nd           | Website:  www.openfoam.com                      |
|    \\/     M anipulation  |                                                 |
\*---------------------------------------------------------------------------*/
FoamFile
{
    version     2.0;
    format      ascii;
    class       volVectorField;
    location    "280/bottomWater";
    object      U;
}
// * * * * * * * * * * * * * * * * * * * * * * * * * * * * * * * * * * * * * //

dimensions      [0 1 -1 0 0 0 0];


internalField   nonuniform List<vector> 
1460
(
(9.1055894e-05 -0.017238239 -0.00073125671)
(-0.0010991194 -0.014862839 -0.0019190671)
(-0.0012101597 -0.016085885 -0.0013423055)
(-0.0014023824 -0.014228423 -0.0015088389)
(-0.00083624293 -0.010365752 0.0011417844)
(0.0015389157 -0.012029123 0.0020191928)
(0.00084369519 -0.016500491 0.0020094662)
(-0.0023359936 -0.016200969 0.0013057415)
(-0.002916752 -0.012120884 0.001240949)
(-0.001773202 -0.011275496 0.00014384183)
(0.0021743744 -0.011770429 0.002052069)
(0.000252952 -0.016236884 0.0022406133)
(-0.0032057295 -0.016167185 0.0023595559)
(-0.0027553886 -0.012151057 0.0020701461)
(-0.0023174608 -0.012766456 0.0015824981)
(-0.00043440178 -0.012882878 0.0014673746)
(0.0015860629 -0.012514111 0.0016057075)
(0.0036868041 -0.012727847 0.00021903465)
(0.0049974713 -0.014031004 0.00071911825)
(0.0042391496 -0.015180807 0.00091333418)
(0.0012293742 -0.016607817 0.0017647728)
(-0.0018147166 -0.013512623 0.0024009768)
(-0.0011468222 -0.011703062 0.0020047335)
(-0.00037727096 -0.012167734 0.0023408932)
(-0.00071303409 -0.012600793 0.0028345166)
(-0.0010312709 -0.013483695 0.0016421252)
(0.0011610593 -0.013286197 0.0015145431)
(0.0038090497 -0.01095937 0.0011524383)
(0.0035393163 -0.012503209 0.00061632253)
(0.00045188741 -0.014440112 0.00039959014)
(8.7571769e-05 0.017598003 -0.00056702311)
(0.00080420996 0.015952984 -0.0018885878)
(0.00013234245 0.017062194 -0.0025903666)
(-0.0023259845 0.015206559 -0.0030627377)
(0.0027050343 0.0044274171 0.00084593197)
(0.0039492599 0.0048356143 0.0013740745)
(0.0041949524 0.016407255 0.0024237753)
(-0.0047171976 0.017330425 0.0032423618)
(-0.0019548904 0.0092849439 0.0012694098)
(-0.00052477515 0.00055270271 0.00020576472)
(0.0034998027 0.0027068152 0.0012703395)
(0.00090306135 0.017014446 0.0027787776)
(-0.0066068121 0.014724465 0.0031242391)
(-0.0032901788 0.0023955774 0.0015939128)
(-0.0032440603 0.0040999618 0.0010251655)
(-4.1091015e-05 -0.00061062638 0.00015209555)
(0.0010370008 0.0011505296 -0.0003917316)
(0.004811331 0.0042991161 -8.1231049e-06)
(0.0061030489 0.0095562337 0.0002875679)
(0.0080025924 0.016068336 0.00051174547)
(-0.0022058242 0.017512992 0.00071670477)
(-0.0051511021 0.0095275713 0.00023944575)
(-0.0029093597 0.0012725187 0.00011722905)
(-0.0021882708 0.0044717195 0.0022274472)
(-0.0022832565 0.0044498307 0.0021823891)
(-0.0015568272 0.0061345231 0.0028930799)
(3.9968242e-05 -0.0010137608 -0.00021396337)
(0.0015565624 0.0025802971 -0.00060255594)
(0.0045164624 0.013925632 0.000936717)
(0.002237507 0.016396877 0.0014339928)
(-0.0016380603 -0.017004775 0.0033573491)
(-0.0019243825 -0.012328691 0.0030972231)
(0.0011384669 -0.0050149021 -0.00021656406)
(0.005349135 -0.0086019519 0.0012084514)
(0.0067776321 -0.01358153 -0.00056202708)
(0.0018149373 -0.014096069 -0.0024171954)
(0.00091972339 -0.0036684321 -0.00064502112)
(0.0025154556 -0.0085607147 0.00040789307)
(0.0023649877 -0.013285731 -0.00057832304)
(0.0006227593 -0.013199769 -0.0012419193)
(-0.00069778052 -0.013585519 -0.0010071668)
(0.00070872819 -0.0027510908 0.0016145768)
(0.003817516 -0.014742892 -7.0755971e-06)
(0.00065312869 -0.01480702 -0.00026554835)
(-0.0021499149 -0.012520749 -0.00045736858)
(0.00048992216 -0.013953455 -0.0019891147)
(-0.00019408783 -0.013576724 -0.0033252183)
(0.003403969 -0.012871064 0.00037995743)
(-0.0026232391 -0.015436613 -0.0016220474)
(0.0031718069 0.0006808453 6.0157607e-05)
(-0.00056776974 0.0037384067 -0.00033306368)
(0.0042894842 -0.013187462 -0.0021816223)
(-0.00080938643 -0.014174656 -0.0027216722)
(-0.0013120979 -0.013165391 -0.0012102248)
(-0.00073609483 -0.01363931 -0.0011692881)
(0.0023445505 -0.013015992 0.0017111461)
(-0.0018277069 -0.014451381 -0.0037281664)
(-0.0050108341 -0.013614803 -0.0034437642)
(-0.0052581876 -0.01312076 -0.0031835007)
(-0.00096177717 -0.0040245859 -0.0013378564)
(-0.0045007263 0.01211682 0.0016670693)
(-0.0036718776 0.0018706729 0.00026929734)
(-0.002884226 0.00049680745 0.0013630824)
(0.00108861 0.0028842298 -0.00047261074)
(0.0026474153 0.009398158 0.00064581691)
(0.00081798231 0.010556691 -0.0027738902)
(0.0015714297 0.0081582367 -0.0019388911)
(0.0038623685 0.010019526 -0.0025980944)
(-0.00069472407 0.0073371101 0.000372601)
(0.0015977231 -0.0025975611 -0.0023071775)
(-0.00026344856 -0.0040165071 -0.0018217229)
(0.0029421003 0.0043177504 -0.0011141785)
(0.0034043625 0.0098379061 -0.0011822428)
(-0.00056728311 0.0084689824 0.0012577407)
(-0.00058616017 -0.00066214247 -0.0018275303)
(0.00026317076 -0.0045074544 -0.0011909332)
(-0.00061477745 -0.0040077732 -0.0019436511)
(0.0016769995 0.0004010664 -0.0010022199)
(-0.0021696183 0.010100381 -3.6756773e-05)
(-0.0013923412 0.0070969394 0.00028652177)
(0.0021249548 0.0079833293 7.6423974e-05)
(0.005011347 0.010956289 0.0020980021)
(-0.001225396 0.0076613183 0.0014949495)
(0.00043517054 -0.0033782604 -0.0018549723)
(-0.0016632441 -0.0033131666 -0.00023834401)
(-0.0011324959 0.0032535733 0.00014062849)
(-0.002144908 0.010260904 0.00079046178)
(-0.0026730536 0.0072090711 -0.00069192644)
(-0.0031420043 0.010151392 -0.0015408794)
(-0.0022826564 0.0059617317 -0.0011533813)
(0.001750729 -0.0060774403 -0.001584384)
(0.0029008215 -0.010394239 -0.002949779)
(-0.0015126531 -0.010885883 -0.0020690181)
(-0.0037726449 -0.011020143 -0.0024469554)
(-0.0045600317 -0.0098494842 -0.0023360775)
(-0.0014965132 -0.0054082942 -0.0018171946)
(0.0001595745 -0.004481602 -0.0030741013)
(0.0030576412 -0.0032167261 -0.002743507)
(0.0053035866 -0.0077235691 -0.0031383011)
(0.0050143414 -0.0091013565 -0.0038113223)
(-0.00073351804 -0.010261191 -0.0048134513)
(-0.0020415862 -0.0060191901 -0.0041109478)
(0.0017083784 -0.005735362 -0.0024984124)
(0.0045533932 -0.0087087398 -0.0031906786)
(0.00469424 -0.0091996889 -0.0043300243)
(0.0026205218 -0.009293645 -0.0036131263)
(-0.0034288401 -0.0096910137 -0.003771684)
(-0.0054118259 -0.0089270363 -0.0038170853)
(-0.005121094 -0.0084081781 -0.0025601897)
(-0.0024838763 -0.0031444364 -0.0019741581)
(0.00035400844 -0.0020039561 -0.0023479014)
(0.0037893298 -0.0073155689 -0.0030000492)
(0.0053724817 -0.0096469945 -0.0039939503)
(0.005235733 -0.0094906563 -0.0039993241)
(-0.00082920122 -0.010030651 -0.0027323148)
(-0.0040945106 -0.010753372 -0.0028098747)
(-0.0034821594 -0.010887284 -0.002241129)
(-0.0028161393 -0.010091689 -0.0025632542)
(-0.0022874664 -0.0091659229 -0.002559024)
(0.00044012334 -0.0078934729 -0.0030506723)
(-0.0017363925 -0.017556254 -0.00072390352)
(-0.00080616048 -0.011145068 0.00032881435)
(-0.000747544 -0.012452511 -0.0031333863)
(0.00041194799 -0.010948872 -0.0021926688)
(0.0016751618 -0.015625255 -0.0012559135)
(0.00045119231 -0.014991736 0.0011199652)
(-0.00058105173 -0.01734251 0.0015210307)
(-0.0013516221 -0.015719403 0.00037112356)
(-0.0027964376 -0.013336763 -0.00028930527)
(-0.0012099607 -0.010617701 0.0012815408)
(0.0017208585 -0.016689248 0.0018055196)
(-0.00012449121 -0.017196032 0.0019506063)
(-0.0022787753 -0.015357861 0.0025317273)
(-0.0025886022 -0.013331142 0.0034147031)
(-0.002171387 -0.011842257 0.0030367916)
(0.00091433055 -0.014225994 0.0035574601)
(-0.0019667286 -0.015561778 0.002254142)
(0.001247527 -0.012583589 0.00083146738)
(0.0046583687 -0.014636327 0.0013589309)
(0.0037588177 -0.014975576 0.0015041855)
(0.0021444229 -0.016271925 0.0024410358)
(0.00088049324 -0.017621143 0.0037376403)
(-0.00030181786 -0.016904505 0.0041383981)
(9.9265167e-05 -0.016906163 0.0036760054)
(-0.00099611197 -0.015409753 0.0040396891)
(0.0013238613 -0.0115143 0.0021468296)
(0.0038043817 -0.013124214 0.0032528047)
(0.0034533139 -0.012595348 0.0024509533)
(0.0019634157 -0.01372067 0.00065142643)
(0.00029699878 -0.014537267 -0.0005171347)
(-0.0016686707 0.018000833 0.0030877696)
(-0.0004798736 0.0041873622 0.0039246657)
(0.00018995796 0.010259482 1.4413072e-05)
(0.0013414063 0.002531502 -0.0013185735)
(0.0055553987 0.015323382 0.0015950948)
(0.0050494922 0.016476252 0.0032923578)
(0.0019131412 0.018442061 0.0024859031)
(-0.0042700594 0.017640407 0.0010853777)
(-0.0037551971 0.01475882 9.9724871e-05)
(0.00080908509 0.0018640715 0.0023180871)
(0.0052284554 0.01575959 0.005419498)
(0.0025198356 0.018843606 0.0044364002)
(-0.006201428 0.016464998 0.0045170027)
(-0.0051747728 0.010002323 0.0035398347)
(-0.0041848733 0.00370895 0.0022686621)
(-0.00045642778 0.011317171 0.0036122934)
(-0.0027901891 0.015858032 0.0031972093)
(0.0022423664 -0.00060812806 0.00031358083)
(0.0065264854 0.012228172 0.00099785509)
(0.0071610128 0.016595838 0.0011803468)
(-0.00076899094 0.018230583 0.0026559734)
(-0.0047306546 0.018900521 0.0053113501)
(-0.0025121341 0.017466709 0.0057671817)
(-0.002824738 0.017590893 0.0055477679)
(-0.0044098696 0.014998623 0.0048607776)
(0.0012151133 0.00097445902 0.00055258598)
(0.0036354186 0.010753688 0.0043294422)
(0.0040605511 0.014236665 0.0049519163)
(0.0028160433 0.015844007 0.0036832603)
(0.00077496201 0.016259591 0.0021387858)
(0.0025151264 -0.016610608 0.0048360494)
(-0.0011054064 -0.013583864 0.0049803846)
(-0.00019058224 -0.012466754 0.0050704522)
(-0.00029358096 -0.014267878 -0.0011870838)
(-0.0017195937 -0.014329316 -0.0038025897)
(0.00082841522 0.001847234 -0.0007721782)
(0.0018209894 0.0065668426 0.0022929124)
(0.00017645906 0.0053362683 0.0019489087)
(0.004075656 -0.010614053 0.0020109319)
(0.0012145649 -0.014129527 0.0015870188)
(-0.0045646664 -0.014884988 0.0014080176)
(0.0014784602 0.0057631825 0.0020712609)
(-0.0024022682 0.0011378551 0.0011956899)
(0.0031039554 -0.014057574 -0.0034277716)
(-0.0039706146 -0.015215631 -0.0016866212)
(-0.0026920389 -0.013933374 -0.002906364)
(0.0030014468 -0.01440995 -0.00089248892)
(0.0024856774 -0.015268797 0.00015215322)
(-0.0057850631 -0.013970552 -0.0027951021)
(0.0022582636 0.0023594388 0.00050519675)
(-0.0011504168 0.0071331836 0.00097265187)
(0.0010349676 -0.013486051 -0.0028647951)
(-0.0014690851 -0.015273864 -0.0020926436)
(-0.0022400312 -0.0019010278 0.0027731759)
(0.0027655536 -0.013720645 -0.00071245579)
(0.001955948 -0.015147168 -0.0031306321)
(-0.0034067164 -0.013274794 -0.0049225037)
(-0.0018280276 -0.0061450659 -0.0023874126)
(-0.0014429862 -7.6009854e-05 -0.0003524535)
(-0.00072791615 0.00011660324 -0.00057334928)
(-0.0029903337 0.013474906 -0.00023462948)
(-0.0034870364 0.0065256575 0.0009937392)
(-0.0024082031 0.002144091 -6.0877159e-05)
(-0.0025853123 0.004135104 -0.00053648456)
(-0.0038449828 0.011971483 -0.0040712479)
(-0.0017711925 0.007928829 -0.0030285033)
(0.0021575212 0.010630864 0.001443128)
(0.0037066834 0.0090695883 0.0019984083)
(0.0038965731 0.010550267 -0.00040019052)
(0.0018395326 0.0053036759 0.00018346631)
(-0.0027474446 0.012326786 0.00085929848)
(-0.00052063873 0.008868544 0.00092542267)
(0.0013351753 0.0071068774 -0.0008951615)
(0.0040001471 0.0092624828 -0.0014631895)
(-0.0024221932 0.0094680679 0.0013630895)
(0.0006783856 -0.0015672668 -0.0015124588)
(-0.0016628118 0.0018760503 -0.0008629866)
(0.00063154285 0.01093769 0.0016903859)
(-0.0053413279 0.010164415 -0.00050595038)
(-0.0016330725 0.0072317895 0.00071193708)
(0.0016838884 0.010342663 0.00076103185)
(0.0054406853 0.01262537 -0.00079322476)
(-0.0033148271 0.011831514 0.0019639817)
(-0.0021872482 0.0051577133 0.002505581)
(-0.00070785195 0.0013371611 0.0011464587)
(-0.0023767119 0.010141753 0.001146198)
(-0.003501924 0.010647745 -0.00068695821)
(-0.0040175809 0.00807117 -0.001095555)
(-0.0027220682 0.0078601835 -0.0011403752)
(-0.0011654582 0.008154612 -0.00067104542)
(0.0017425672 -0.0029475278 8.0742673e-07)
(0.004285067 -0.0083868 -0.0035576133)
(0.0015227573 -0.010467773 -0.0041579724)
(-0.0034014714 -0.011366526 -0.0034144482)
(-0.0034834829 -0.0094805349 -0.0020440827)
(-0.0026399867 -0.0044629871 -0.00091618516)
(0.00057280172 0.0041226225 0.00086141182)
(0.0032071564 0.0018946272 0.0011473365)
(0.0043999501 -0.0023304756 -0.00037976234)
(0.0034477176 -0.0083398775 -0.0025201218)
(-0.0019821437 -0.010752007 -0.003607712)
(1.2518885e-05 0.0017782266 -0.0024619203)
(0.0018942887 -0.0017631488 -0.0033870005)
(0.0036415988 -0.0037906761 -0.0035650882)
(0.0047194821 -0.0069769172 -0.0043291691)
(0.0038855654 -0.0098203067 -0.004135589)
(-0.0053193814 -0.010443677 -0.0033290748)
(-0.0050278877 -0.0080383365 -0.0031966812)
(-0.0046111268 -0.0057840562 -0.0019924736)
(-0.003193837 -0.0015377152 -0.0010766622)
(-0.00053740585 0.0025644332 -0.00074215151)
(0.003846692 -0.0015905475 -0.0011412857)
(0.0036592132 -0.0018633395 -0.0014288708)
(0.0060114991 -0.0057273722 -0.0033372882)
(0.0015518356 -0.010201985 -0.0026745254)
(-0.0041478436 -0.010665669 -0.0021239139)
(-0.0029242265 -0.0062356072 -0.0020837098)
(-0.0031676182 -0.0049827881 -0.0024374704)
(-0.0025639875 -0.0021445532 -0.0023203714)
(-0.00063785937 -0.0025999156 -0.0024587507)
(-0.0010505043 -0.01762786 0.00089353717)
(-0.0030018624 -0.01648533 0.00097950821)
(-0.00012232962 -0.012475728 -0.00065640162)
(0.002443121 -0.019325891 0.00069417433)
(0.00036175608 -0.018439525 0.00019414792)
(-0.00056418168 -0.017447692 0.00037998759)
(-0.0014245938 -0.015599089 0.00011698745)
(-0.0026428738 -0.0127866 -0.0020631784)
(-0.0017551279 -0.010954999 -0.002247995)
(0.0016121314 -0.01354243 -0.00062471686)
(0.0021585293 -0.015805111 0.00034199171)
(0.0013591471 -0.017634643 0.0021139021)
(0.00071981653 -0.01763842 0.0024915831)
(-0.00027562469 -0.014175233 0.0033571791)
(-0.0015750747 -0.015151137 0.003221278)
(-0.0012482297 -0.015469798 0.0027803806)
(-0.0017020313 -0.012180694 0.00012551438)
(0.00248824 -0.011239524 1.3228497e-05)
(0.0040763563 -0.013434409 -0.00034197693)
(0.0030276095 -0.013763748 -0.00090552631)
(0.0020772738 -0.014902671 -0.00036662907)
(0.0017136259 -0.015736495 0.0011539242)
(0.00097064679 -0.017840687 0.0004420948)
(0.0010245032 -0.018299019 -0.00091300187)
(0.0011619219 -0.016841655 0.00027875877)
(0.0017021145 -0.014977326 0.001896898)
(0.0021376885 -0.014907143 0.0010420681)
(0.001986048 -0.015078715 -0.00044191036)
(0.0018411384 -0.015326711 -0.0012257878)
(0.00059143228 -0.014928945 -0.0013727644)
(-0.0031565135 0.018599936 0.0048576501)
(-0.0041803738 0.015319916 0.0050660212)
(0.00089325196 -0.00043079658 0.000389665)
(0.0054709338 0.018234404 -0.00035104153)
(0.0033456743 0.020152787 -0.0022987885)
(-0.0008901548 0.019291709 -0.0044602716)
(-0.0033906719 0.017581475 -0.0044173687)
(-0.0042530437 0.014200859 -0.0046278503)
(0.0012208884 0.0031860714 -0.0031769197)
(0.0038213183 0.0078973052 -0.0010816993)
(0.0068197407 0.016408683 0.00029412174)
(0.0047962708 0.018785533 0.0013858681)
(-0.0032102189 0.018625011 0.0038053912)
(-0.0052752841 0.016351909 0.0047956013)
(-0.0054931748 0.016058488 0.0048103333)
(-0.0040328729 0.014734023 0.0028643294)
(-0.0012783215 0.0055936861 9.8303439e-05)
(0.0023352551 -0.0010083851 -0.0027157954)
(0.0064728738 0.01228033 -0.0017722919)
(0.0058335715 0.015911514 -0.0014792665)
(0.0024495711 0.016789725 -9.2864845e-05)
(-0.0035189345 0.018202938 0.0025327739)
(-0.0030359409 0.019436811 -0.00086220783)
(-0.0012067783 0.018951168 -0.0052220884)
(-0.00052652837 0.018134786 -0.00072131418)
(0.0024608953 0.016283394 0.0023168927)
(0.0033476743 0.016606673 0.0021434154)
(0.0030366674 0.016787624 0.00028901196)
(0.0017810763 0.017039604 -0.0030294029)
(0.00069062872 0.016789673 -0.0036231569)
(-0.00012547448 -0.0016444415 0.0031300079)
(0.0060624612 -0.014454964 0.00022274582)
(0.0016491059 -0.015993933 0.0005895751)
(-0.0031839599 -0.015803674 -0.0041141021)
(0.0019502316 0.004366123 -0.0025084341)
(-0.00092798312 0.0043541164 -0.0040978633)
(0.0010256452 0.0010152975 -0.0023341859)
(0.0040178276 -0.010459816 -0.00096956799)
(0.0040795022 -0.013740096 -0.0011310224)
(-0.0014304716 -0.014409512 0.001749467)
(-0.00068627584 -0.0016238925 0.00051924531)
(0.00086619351 0.0071178362 0.0016012433)
(-0.00079815443 0.0063383173 0.0015201988)
(0.00057949926 -0.0010401331 -0.00072047014)
(-0.00015765411 -0.015369092 -0.0044652374)
(0.00081012316 -0.015046299 -0.0031101385)
(0.0034913252 -0.013788564 -0.00090662062)
(0.00058386362 -0.01542928 -0.0050101564)
(-0.0045269313 -0.012922344 -0.004310337)
(-0.00018524315 -1.9588797e-07 -0.0030767806)
(0.00051759568 0.0036037719 0.00040720489)
(-0.00086936677 0.0013163354 0.003114173)
(-0.0010098609 -0.014799926 0.0044958334)
(-0.00218334 -0.013688925 0.0036167948)
(-0.0010110898 -0.012553485 0.0035834842)
(-0.00052418741 -0.011372112 -0.0034398428)
(0.0013613821 -0.0024831289 -0.0022423727)
(0.0015726987 0.00048290229 -0.0020182326)
(0.0013726695 0.0021148268 -0.0030927036)
(0.00031615465 0.00035776716 -0.0030342606)
(0.0029045337 0.0078873719 -0.0012763408)
(0.0034345817 0.012719043 -0.0028429302)
(-0.003311444 0.011863917 0.002616872)
(-0.0064884274 0.013352399 0.00064565812)
(-0.0035575783 0.0085140415 -0.0009980354)
(0.00084090739 0.0098392087 -0.0008080808)
(0.0045147606 0.0079276902 0.00063271155)
(0.0046741855 0.0095951457 0.0017833678)
(0.0021735371 0.0061394657 -0.00088785559)
(-0.00057948798 0.008381117 0.0020999619)
(-0.0032873831 0.0069614003 0.00077391981)
(-0.00071159586 0.010450316 0.0018941391)
(0.00091212479 0.010442528 0.00035443471)
(0.0042298368 0.0073960941 -0.0023335141)
(0.0028098258 0.0099480612 -0.0038184794)
(0.00036172136 0.0039655127 -0.0022228693)
(-0.0017423186 -0.00033917384 -0.001744827)
(-0.0005312052 0.0099379772 -0.0018903989)
(-0.0048542029 0.009616447 -0.0023940272)
(-0.0030838819 0.0070806882 -0.0018472478)
(0.00047651591 0.0090646251 0.00029739921)
(0.0026728434 0.0078656112 0.00060701889)
(0.0042331749 0.012051779 -0.00018021299)
(-0.0012700214 0.013280322 0.0010108046)
(-0.002470155 0.010123429 0.0014773997)
(-0.0023454314 0.0049568424 -9.9061093e-05)
(-0.0011721918 0.0074912812 -0.0019796731)
(-0.00056814992 0.0083502734 -0.00014334695)
(0.00012898301 0.0082852807 0.00057958444)
(1.1224638e-06 0.007974191 0.001219298)
(-0.0022518179 -0.0091212386 -0.0014949364)
(0.00072233481 -0.0024794345 -0.0036623258)
(0.00069388026 -0.0043302652 -0.0027843627)
(0.00094538213 -0.009575117 -0.0037907236)
(0.0017294536 -0.0086341421 -0.00367184)
(-2.5593763e-05 -0.0084458122 -0.0034427301)
(0.00062027349 -0.0017205029 0.0028149355)
(0.0026916165 -0.0036720612 0.0039629378)
(0.00093195364 -0.0094370734 0.0038256878)
(-0.0037864103 -0.0079730065 0.001308161)
(-0.0041419429 -8.0682692e-05 0.00094593892)
(-0.0023334328 0.0045533729 0.0011641468)
(0.002129618 0.0040193053 -0.0010308595)
(0.0043077833 -0.00048234139 -0.0022662111)
(0.0049836526 -0.0038606071 -0.0028390177)
(0.0057400812 -0.0085747077 -0.0031500884)
(-0.0035501406 -0.010193596 -0.002694813)
(-0.0046741129 -0.0080857759 -0.0027811213)
(-0.0038258449 -0.0065143169 -0.0021320402)
(-0.0031450934 -0.0025196018 -0.0015245553)
(0.00023333872 0.00080484105 0.00047570147)
(0.0017892263 -0.0033005343 0.0017014888)
(0.002332409 -0.0054239931 0.0013164471)
(0.0027963475 -0.0016687779 0.00022798161)
(0.0054751899 -0.0081352889 4.4807021e-05)
(0.00038996964 -0.010408273 0.0017173947)
(-0.0031640511 -0.0032469335 0.0007215891)
(-0.0017802253 0.00086300156 0.00074746396)
(-0.00082085747 0.00097814989 -0.00065532522)
(0.00040941034 -0.0018431472 -0.0025907489)
(1.1084004e-05 -0.015564476 0.00046625514)
(-0.00183075 -0.015483042 -0.00052970476)
(-0.0022075013 -0.017755077 -0.0020840758)
(-0.0021890741 -0.019135246 -0.0029832311)
(-0.0015673058 -0.019248914 -0.0030029623)
(-0.00097875763 -0.019770873 -0.0021833982)
(-0.0026494653 -0.015121178 -0.0021802881)
(-0.0018751679 -0.010927947 -0.0031581007)
(-0.0016438601 -0.01138104 -0.001592611)
(0.0011041829 -0.011660173 -0.00071806391)
(0.0029968474 -0.013448002 -0.0018233707)
(0.0023093473 -0.013806134 -0.00069572682)
(0.0011675005 -0.016197509 -0.00029802546)
(0.00075514836 -0.015891389 0.00070621246)
(0.00014494504 -0.015053944 0.001219972)
(-0.00084891865 -0.014925641 0.0021743598)
(0.00056531408 -0.011182056 0.0013379953)
(0.001609381 -0.015208283 0.0022777164)
(0.00040130568 -0.016071271 0.00089108949)
(-0.001104149 -0.015622817 -0.0016701857)
(-0.0029246488 -0.014244773 -0.001606098)
(-0.0044784007 -0.012731288 -0.00087866868)
(-0.0036892627 -0.011877991 0.00023979495)
(-0.00055245758 -0.012757751 0.00028838575)
(0.0027152828 -0.011554217 -0.0015727774)
(0.0034428575 -0.013380123 -0.0030255164)
(0.003414963 -0.015184011 -0.0029367088)
(0.0022814456 -0.014774105 -0.0030321182)
(0.0017828701 -0.015217282 -0.0031721592)
(0.00053625647 -0.01698136 -0.0027964478)
(-0.0015843252 0.016789882 0.0021601782)
(-0.0041626542 0.01727115 0.00026059626)
(-0.0039893091 0.018193559 -0.0026917107)
(-0.0026628819 0.01904614 -0.0058232919)
(-0.0019955401 0.018586612 -0.0061565295)
(-0.00068997645 0.020776582 -0.0047439712)
(-0.0024615323 0.016457821 -0.0039739462)
(-0.00073134762 0.0049718685 -0.0025407807)
(-0.00011662299 0.0044352904 -0.0012714846)
(0.0020738941 0.0023401598 -0.00037340503)
(0.0067103384 0.012809213 -0.0035182818)
(0.0060574143 0.015992509 -0.0030668038)
(0.0031513432 0.017645932 -0.001954015)
(-0.0019131064 0.017489879 0.0016475411)
(-0.0038434115 0.017322755 0.0034399534)
(-0.0042154076 0.016115343 0.002665549)
(0.00047799655 0.0073769579 0.0016223934)
(0.0030565913 0.015433944 0.0016970516)
(0.004287428 0.017924549 0.00013927281)
(0.0019016871 0.017651774 -0.00098343698)
(-0.0049765636 0.016277072 0.0013829554)
(-0.0068837538 0.013564315 0.0027059995)
(-0.0035121776 0.0028848232 0.0032867094)
(-0.0020264019 -0.0010136481 0.0022680792)
(-0.00052226495 0.0052563827 -0.00061593287)
(0.0039516577 0.014117063 -0.0040673169)
(0.00338163 0.01662095 -0.0040730825)
(0.0014018261 0.016020332 -0.0048373614)
(0.00010992421 0.015681156 -0.0053450545)
(0.00074028829 0.018047214 -0.0043758907)
(0.00093254485 0.0024207921 0.0029773242)
(-0.00025721016 0.0019441692 0.0014465954)
(0.0030859714 -0.015274293 0.00062730643)
(0.0021119026 -0.015936727 8.0630027e-05)
(0.0025082867 -0.018895208 0.00043178516)
(0.0014358591 -0.018154207 0.0017264717)
(0.0026183344 -0.01363118 -0.00049193094)
(0.0022974727 -0.013074425 0.00045766553)
(0.0016130736 -0.012629149 0.00080866274)
(-0.0019733296 -0.014601968 0.0015319011)
(-0.004887302 -0.011982636 0.0029792551)
(-0.00028883132 0.0015040568 0.0009242142)
(-0.00055386761 0.0050522985 0.00044433243)
(0.0007241167 0.004264911 -0.00045440235)
(-0.001423647 0.0022539985 0.0021653809)
(0.002017545 -0.011412162 4.9862908e-05)
(0.0029831809 -0.013695469 -0.00039085655)
(0.0013956654 -0.016252612 -0.0049618587)
(0.00080645128 -0.0061180957 -0.0025921486)
(0.00066772924 0.004446374 -0.0017322379)
(-0.0012166661 0.0024822332 0.0013069284)
(0.0021236253 -0.0081780641 0.0036703422)
(0.0031408689 -0.014649926 0.0048437767)
(-0.0022140846 -0.015148015 0.0044465104)
(-0.0058104844 -0.013753105 0.0024028027)
(-0.0037655647 -0.011685673 0.0013295861)
(0.0006865581 -0.0033753983 -0.0035561909)
(0.0016357007 -0.0033012787 -0.0015120796)
(0.0011757253 -0.014902215 0.0047146363)
(-0.00044565701 -0.016970619 0.0051320515)
(0.001549094 0.0096794906 0.0016075566)
(0.0038999717 0.0089045329 0.00030734928)
(0.0054870346 0.013472809 0.00021892696)
(0.0042242968 0.015071226 -0.0012422298)
(0.0038517295 0.015606212 0.00047710032)
(0.00072608218 0.015826527 0.003628375)
(-0.002343689 0.0088717691 0.0020111238)
(-1.0007164e-05 -0.0003055247 0.0016409158)
(-0.0022209767 0.00039600866 0.0027573568)
(-0.0011556777 0.009843693 0.0025116159)
(-0.0052670293 0.0090986151 0.0028839724)
(-0.0038513138 0.0074796681 0.0030555009)
(-0.0017284529 0.0097702304 0.00071238534)
(0.0014153887 0.0093840513 -0.0014733639)
(0.0014853905 0.0075077954 -0.0011446649)
(0.0040754463 0.0036421717 2.6063969e-05)
(0.0018083176 0.0025922959 6.0707133e-05)
(0.00089153623 0.011455299 -0.0013216068)
(-0.0040687276 0.0086216364 -0.0011636944)
(-0.0013515667 0.0092316681 -0.0013527912)
(0.00049400942 0.0081232052 0.0010801255)
(0.0035174351 0.0085660516 0.0018555988)
(0.0024535783 0.010121571 0.00069651982)
(0.0014858275 0.011119014 -0.00038845883)
(-0.0017535128 0.0083094037 -0.00012069283)
(0.0010643559 -0.0028778598 0.0010270478)
(0.0004285508 0.0027844284 0.00084741704)
(0.0048980714 0.0077397163 0.00090634333)
(0.0045090009 0.012019165 0.0032843106)
(0.0010794424 0.013086081 0.0057177751)
(0.002140908 0.0011382023 0.00093171164)
(0.0025284706 -0.0022849604 0.0015663373)
(0.0025810023 -0.007529295 0.0025458231)
(0.0024574297 -0.010976332 -0.00058904459)
(0.0031243657 -0.0078589158 -0.00012276306)
(0.0040329267 -0.0041354327 0.0025506494)
(0.0052613145 -0.0089264051 0.0038991828)
(0.0036461117 -0.0096000727 0.0050285729)
(-0.0040741842 -0.010446589 0.0048255986)
(-0.0058083994 -0.0074294436 0.003812216)
(-0.0052266518 -0.0036317723 0.0031233504)
(-0.0036875187 -8.078407e-05 0.0031949474)
(-0.0015800989 0.0031585828 0.0017540659)
(0.0026390608 0.0019965031 -0.00092446932)
(0.0042130164 -0.0021935466 -0.00047249682)
(0.0048002823 -0.0091097572 0.00020450985)
(-0.0037882485 -0.0087625661 -0.0014943063)
(-0.0033334356 -0.0040504256 -0.002229968)
(-0.0034966377 -0.0034881002 -0.0017638999)
(-0.0019077453 0.0011498648 -0.0011047079)
(0.0012602802 0.00011606042 0.0010755709)
(0.0030716663 -0.0050667644 0.0019063164)
(0.0036482947 -0.0084263478 0.0026671226)
(0.0044872068 -0.0055257529 0.0025099704)
(0.006059711 -0.0091499487 0.0028066912)
(0.0028038916 -0.010575544 0.0029000426)
(-0.0043821557 -0.0082816791 0.0037625553)
(-0.0042484497 -0.0055542174 0.0042172988)
(-0.0028579417 -0.0029153968 0.0039074792)
(-0.0013818912 -0.0020741858 0.0039318112)
(-0.00066857376 -0.01439135 -0.00080443426)
(-0.0040929474 -0.012688802 -0.0015216652)
(-0.0030171229 -0.011572622 -0.0016391607)
(-0.0014862107 -0.013881396 -0.0015340804)
(0.00022784986 -0.013107718 -0.0019703205)
(-0.00063270175 -0.017710441 -0.0025438535)
(-0.0038089107 -0.015472627 -0.0018255591)
(-0.0022048836 -0.012018102 0.00035746551)
(-0.00073368653 -0.012408299 0.00022458028)
(0.00089510602 -0.013533654 -0.00054343761)
(0.0022655425 -0.011972391 -0.0012836383)
(0.0032309223 -0.014474873 -0.0011330501)
(0.00030165314 -0.01569843 -0.00037416676)
(3.8834112e-05 -0.016340716 -0.0014608214)
(0.00023703371 -0.014155325 -0.0028171057)
(-0.0010413962 -0.014943049 -0.0027263835)
(-0.0023814955 -0.016384224 -0.0019006588)
(-0.003603913 -0.014898911 -0.00045936874)
(-0.0038808916 -0.013422548 0.0011939249)
(-0.0017692212 -0.012284459 0.00092094213)
(0.0002878192 -0.012094874 -0.00071142273)
(0.0019574147 -0.011609377 -0.0019883135)
(0.0025133895 -0.015312868 -0.0026051015)
(-0.00094638521 -0.012193348 -0.0014767431)
(0.0014022522 -0.010753012 -0.00047667232)
(0.0015260524 -0.017271026 -0.0014630563)
(-0.0026901743 0.016588664 -0.0012662895)
(-0.0051662822 0.013781873 -0.001969177)
(-0.00080815809 -0.00035263753 -0.0011829643)
(-0.0017795215 0.0021089661 -0.001457168)
(-0.00014684649 0.0048295307 -0.0021381083)
(0.0007187412 0.018275491 -0.0034100771)
(-0.0041707863 0.015421884 -0.0019623039)
(-0.00038046276 -0.0021381951 0.0017786023)
(-0.0015772181 0.00082682926 0.001822708)
(0.0030880002 0.0056206417 -0.00054699193)
(0.0022420297 0.00055996233 -0.0021354052)
(0.0060839144 0.014807536 -0.0031752961)
(0.0037236893 0.017710238 -0.0027563131)
(3.387351e-05 0.017987484 -0.0028090767)
(0.0035876995 0.016007523 -0.0039469665)
(0.0028546029 0.016748582 -0.0035257933)
(-0.0041256946 0.017773593 0.00030490152)
(-0.006934942 0.015822867 0.0018526094)
(-0.0057086029 0.0094983846 0.0025764692)
(-0.0033205063 0.0023063234 0.00084687248)
(-0.0012637246 0.0029780975 0.00037425255)
(0.00065346256 0.00063467383 -0.00043544657)
(0.0017345498 0.014234966 -0.0025472923)
(0.00090813713 0.0069616619 -0.00065203117)
(0.0010729677 -0.00060162632 0.0011213913)
(0.0021563525 0.015652595 0.0019149892)
(-0.00033232627 0.0018568512 -0.00031552514)
(0.005346067 -0.012577473 -0.0012654559)
(0.0045141413 -0.014347437 -0.0013945187)
(-0.0005654999 -0.015782502 -0.0011662805)
(-0.0041247173 -0.014591316 -0.001244827)
(-0.0039088158 -0.011236679 -0.00050157692)
(0.0026400005 -0.014527114 0.0011285672)
(0.0024048095 -0.014659107 0.00097109279)
(-0.00058190056 -0.01352233 0.0019897296)
(0.0015250881 -0.013573555 -0.0023180883)
(-0.0029818027 -0.015842992 -0.0019399023)
(-0.0049151878 -0.01420619 -0.00060700016)
(0.0019645688 0.0039205408 -0.00078400896)
(0.00066119205 -0.012820802 -0.0032103485)
(-0.0025617396 -0.014841937 0.0031085472)
(-0.00091834566 0.0021405294 -0.00055666736)
(-0.0022186591 0.0045166685 0.0004931407)
(5.8805349e-05 -0.0016701527 -0.00022158418)
(0.0040006846 -0.013201643 -0.002670616)
(-0.00058591079 -0.013929687 -0.0038649685)
(-0.0013473005 -0.012669986 -0.00043905477)
(-0.0021438822 -0.014067542 0.0018292394)
(-0.00082590334 -0.01513843 0.0025900281)
(0.0037260337 -0.013360909 0.0012841494)
(0.00036613843 -0.014157367 0.0012169998)
(-0.0028820067 -0.016822469 0.00034544578)
(0.0020533737 0.007625455 -0.00098561396)
(0.0043555388 0.0085829255 -0.00084838467)
(0.0043964764 0.0063980107 -0.0011930449)
(0.0045449518 0.010800978 -0.002264666)
(-0.0010791365 0.0092882318 -0.0048319303)
(-0.00016737448 0.0061190363 -0.0039440012)
(0.00052736786 -1.0913097e-05 -0.00021540023)
(7.464203e-05 -0.0047477766 0.0025692537)
(-0.0014660706 -0.0028690167 0.0029787191)
(0.00055665111 0.0066380611 0.00032970096)