/*--------------------------------*- C++ -*----------------------------------*\
  =========                 |
  \\      /  F ield         | OpenFOAM: The Open Source CFD Toolbox
   \\    /   O peration     | Website:  https://openfoam.org
    \\  /    A nd           | Version:  dev
     \\/     M anipulation  |
\*---------------------------------------------------------------------------*/
FoamFile
{
    format      ascii;
    class       volScalarField;
    location    "0/air";
    object      alphat;
}
// * * * * * * * * * * * * * * * * * * * * * * * * * * * * * * * * * * * * * //

dimensions      [1 -1 -1 0 0 0 0];

internalField   uniform 0;

boundaryField
{
    inlet
    {
        type            calculated;
        value           nonuniform List<scalar> 0();
    }
    outlet
    {
        type            calculated;
        value           nonuniform List<scalar> 0();
    }
    walls
    {
        type            compressible::alphatWallFunction;
        value           uniform 0;
    }
    air_to_water
    {
        type            compressible::alphatWallFunction;
        value           uniform 0;
    }
    air_to_solid
    {
        type            compressible::alphatWallFunction;
        value           uniform 0;
    }
    procBoundary11to0
    {
        type            processor;
        value           uniform 0;
    }
    procBoundary11to1
    {
        type            processor;
        value           uniform 0;
    }
    procBoundary11to3
    {
        type            processor;
        value           uniform 0;
    }
    procBoundary11to4
    {
        type            processor;
        value           uniform 0;
    }
    procBoundary11to5
    {
        type            processor;
        value           uniform 0;
    }
    procBoundary11to7
    {
        type            processor;
        value           uniform 0;
    }
    procBoundary11to8
    {
        type            processor;
        value           uniform 0;
    }
    procBoundary11to10
    {
        type            processor;
        value           uniform 0;
    }
}


// ************************************************************************* //
