/*--------------------------------*- C++ -*----------------------------------*\
| =========                 |                                                 |
| \\      /  F ield         | OpenFOAM: The Open Source CFD Toolbox           |
|  \\    /   O peration     | Version:  v2012                                 |
|   \\  /    A nd           | Website:  www.openfoam.com                      |
|    \\/     M anipulation  |                                                 |
\*---------------------------------------------------------------------------*/
FoamFile
{
    version     2.0;
    format      ascii;
    class       volScalarField;
    location    "370/heater";
    object      T;
}
// * * * * * * * * * * * * * * * * * * * * * * * * * * * * * * * * * * * * * //

dimensions      [0 0 0 1 0 0 0];


internalField   nonuniform List<scalar> 
80
(
728.09012
730.1524
734.17172
739.91044
718.77054
721.1998
725.97583
732.80496
699.25949
702.40585
708.7362
718.02813
667.53534
671.48854
679.97897
693.64604
345.48511
342.71604
342.77103
345.58458
421.80462
418.41323
418.68901
422.44206
486.78041
483.94427
484.73584
488.71241
541.75066
540.03255
542.02356
546.76638
586.93796
587.14063
591.80486
599.54332
621.20749
624.79574
634.18544
653.07966
345.40085
342.65112
342.7004
345.47907
421.68561
418.30358
418.55943
422.25931
486.65238
483.8174
484.5842
488.50107
541.62328
539.89593
541.85516
546.53107
586.77524
586.9661
591.59274
599.25893
620.88011
624.4564
633.82043
652.67468
666.3351
670.25751
678.69588
692.32678
697.33187
700.46499
706.7613
716.05957
716.32457
718.7639
723.5536
730.4243
725.35382
727.43951
731.49064
737.28239
)
;

boundaryField
{
    minY
    {
        type            fixedValue;
        value           uniform 300;
    }
    minZ
    {
        type            zeroGradient;
    }
    maxZ
    {
        type            zeroGradient;
    }
    heater_to_topAir
    {
        type            compressible::turbulentTemperatureCoupledBaffleMixed;
        refValue        nonuniform List<scalar> 
40
(
503.44949
502.19635
498.641
493.32428
471.55017
462.79501
452.73528
443.2177
481.97831
473.4742
462.61771
451.43666
495.43146
491.84578
489.35834
488.79124
492.43311
488.81099
488.21485
490.53165
492.16248
489.2726
489.50654
492.29729
495.01824
492.38079
491.23674
492.01973
481.27699
473.20768
463.21794
452.95855
470.87546
462.04452
451.80257
442.06982
502.6393
501.47342
498.00552
492.74755
)
;
        refGradient     uniform 0;
        valueFraction   nonuniform List<scalar> 
40
(
0.00032132529
0.00032132529
0.00032132529
0.00032132529
0.00032132529
0.00032132529
0.00032132529
0.00032132529
0.00032132529
0.00032132529
0.00032132529
0.00032132529
0.00032132529
0.00032132529
0.00032132529
0.00032132529
0.00032132529
0.00032132529
0.00032132529
0.00032132529
0.00032132529
0.00032132529
0.00032132529
0.00032132529
0.00032132529
0.00032132529
0.00032132529
0.00032132529
0.00032132529
0.00032132529
0.00032132529
0.00032132529
0.00032132529
0.00032132529
0.00032132529
0.00032132529
0.00032132529
0.00032132529
0.00032132529
0.00032132529
)
;
        value           nonuniform List<scalar> 
40
(
728.01647
730.07763
734.09436
739.82931
718.68965
721.11527
725.88641
732.71012
699.18822
702.33081
708.65557
717.94081
667.47858
671.42933
679.91625
693.57868
621.16485
624.75076
634.1372
653.02601
620.83746
624.41163
633.77266
652.62167
666.27851
670.19875
678.63398
692.26073
697.26089
700.39036
706.68137
715.97329
716.24405
718.67978
723.4646
730.3299
725.28062
727.36526
731.41391
737.20208
)
;
        Tnbr            T;
        thicknessLayers List<scalar> 0();
        kappaLayers     List<scalar> 0();
        kappaMethod     solidThermo;
        kappa           none;
        alphaAni        none;
        alpha           none;
        field           T;
    }
    heater_to_rightSolid
    {
        type            compressible::turbulentTemperatureCoupledBaffleMixed;
        refValue        nonuniform List<scalar> 10(746.961 741.16457 729.55413 712.1956 691.58651 691.11226 710.8765 727.62373 738.84851 744.40553);
        refGradient     uniform 0;
        valueFraction   nonuniform List<scalar> 10(0.49999997 0.49999997 0.49999997 0.49999997 0.49999997 0.49999997 0.49999997 0.49999997 0.49999997 0.49999997);
        value           nonuniform List<scalar> 10(743.43477 736.98387 723.7903 702.92006 672.33237 671.89273 701.6008 721.84078 734.63553 740.84309);
        Tnbr            T;
        thicknessLayers List<scalar> 0();
        kappaLayers     List<scalar> 0();
        kappaMethod     solidThermo;
        kappa           none;
        alphaAni        none;
        alpha           none;
        field           T;
    }
    heater_to_leftSolid
    {
        type            compressible::turbulentTemperatureCoupledBaffleMixed;
        refValue        nonuniform List<scalar> 10(871.40539 871.09946 870.55124 869.91067 869.34948 868.92265 868.66493 868.54451 868.51476 868.52847);
        refGradient     uniform 0;
        valueFraction   nonuniform List<scalar> 10(2.0832898e-05 2.0832898e-05 2.0832898e-05 2.0832898e-05 2.0832898e-05 2.0832898e-05 2.0832898e-05 2.0832898e-05 2.0832898e-05 2.0832898e-05);
        value           nonuniform List<scalar> 10(728.09164 718.77226 699.26161 667.53809 621.2114 620.88399 666.33777 697.33388 716.32608 725.35517);
        Tnbr            T;
        thicknessLayers List<scalar> 1(0.001);
        kappaLayers     List<scalar> 1(0.0005);
        kappaMethod     solidThermo;
        kappa           none;
        alphaAni        none;
        alpha           none;
        field           T;
    }
    heater_to_bottomWater
    {
        type            compressible::turbulentTemperatureCoupledBaffleMixed;
        refValue        nonuniform List<scalar> 
92
(
957.38897
955.3277
952.54284
954.52392
950.79898
947.89611
949.35292
950.79238
947.22749
944.55805
948.16567
948.14547
947.35597
938.18365
937.23634
939.82413
944.82879
939.91668
939.93609
940.40942
944.69021
942.79621
940.729
943.06863
943.33428
945.1835
939.16612
945.8917
938.0975
938.0975
937.52761
937.52761
938.63327
938.63327
945.68996
945.68996
942.07532
934.45481
945.02171
939.98577
942.91857
942.68363
940.79523
943.01908
936.61644
943.8253
940.25608
923.34642
924.67899
924.09895
925.68115
926.63473
942.92257
930.87107
927.8964
924.85444
930.12383
925.58154
940.58382
933.68979
930.49673
926.92901
932.90293
928.5044
938.47996
937.73381
934.70793
926.97022
933.42397
930.29232
935.36073
934.79973
932.07842
928.79348
932.48461
931.7024
934.79973
932.07842
928.79348
931.7024
939.22236
937.19967
933.54765
934.09381
940.44605
937.74181
937.0716
938.65851
942.40378
941.83256
937.11976
937.06856
)
;
        refGradient     uniform 0;
        valueFraction   nonuniform List<scalar> 
92
(
0.0075140686
0.0075140686
0.0075140686
0.0075140686
0.0075140686
0.0075140686
0.0075140686
0.0075140686
0.0075140686
0.0075140686
0.0075140686
0.0075140686
0.0075140686
0.0075140686
0.0075140686
0.0075140686
0.0075140686
0.0075140686
0.0075140686
0.0075140686
0.0075140686
0.0075140686
0.0075140686
0.0075140686
0.0075140686
0.0075140686
0.0075140686
0.0075140686
0.0075140686
0.0075140686
0.0075140686
0.0075140686
0.0075140686
0.0075140686
0.0075140686
0.0075140686
0.0075140679
0.0075140679
0.0075140679
0.0075140679
0.0075140679
0.0075140679
0.0075140679
0.0075140679
0.0075140679
0.0075140679
0.0075140679
0.0075140686
0.0075140686
0.0075140686
0.0075140679
0.0075140686
0.0075140679
0.0075140686
0.0075140686
0.0075140686
0.0075140679
0.0075140686
0.0075140679
0.0075140686
0.0075140686
0.0075140686
0.0075140679
0.0075140686
0.0075140679
0.0075140686
0.0075140686
0.0075140686
0.0075140679
0.0075140686
0.0075140679
0.0075140686
0.0075140686
0.0075140686
0.0075140679
0.0075140686
0.0075140686
0.0075140686
0.0075140686
0.0075140686
0.0075140686
0.0075140686
0.0075140686
0.0075140686
0.0075140686
0.0075140686
0.0075140686
0.0075140686
0.0075140686
0.0075140686
0.0075140686
0.0075140686
)
;
        value           nonuniform List<scalar> 
92
(
729.81163
731.84288
735.81091
741.52118
720.51257
722.90173
727.65269
734.44116
701.1213
704.22393
710.53375
719.7556
350.00757
347.19034
347.23779
350.04961
425.73443
422.33156
422.60539
426.33376
490.2207
487.3916
488.16167
492.12594
544.76746
543.07609
545.00694
549.76471
669.56691
589.57561
673.4861
589.7724
681.92106
594.40991
695.5384
602.1433
349.96789
350.00927
425.73588
426.33058
490.20739
492.12304
544.74838
549.74312
589.56448
602.12929
349.87059
349.74353
347.02442
347.06895
349.8386
349.84576
425.60192
425.51137
422.13237
422.3634
426.07506
426.04093
490.06267
490.01087
487.17319
487.9074
491.83973
491.80668
544.60449
544.59888
542.86172
544.74807
549.43738
549.41385
589.39351
589.3893
589.5582
594.12536
601.76171
601.75583
668.35083
672.22326
680.57348
694.12379
699.14791
702.24224
708.46373
717.69617
718.00699
720.4077
725.15632
731.98725
726.98313
729.04884
733.03406
738.78187
)
;
        Tnbr            T;
        thicknessLayers List<scalar> 0();
        kappaLayers     List<scalar> 0();
        kappaMethod     solidThermo;
        kappa           none;
        alphaAni        none;
        alpha           none;
        field           T;
    }
}


// ************************************************************************* //
