/*--------------------------------*- C++ -*----------------------------------*\
| =========                 |                                                 |
| \\      /  F ield         | OpenFOAM: The Open Source CFD Toolbox           |
|  \\    /   O peration     | Version:  v2012                                 |
|   \\  /    A nd           | Website:  www.openfoam.com                      |
|    \\/     M anipulation  |                                                 |
\*---------------------------------------------------------------------------*/
FoamFile
{
    version     2.0;
    format      ascii;
    class       volScalarField;
    location    "210/leftSolid";
    object      T;
}
// * * * * * * * * * * * * * * * * * * * * * * * * * * * * * * * * * * * * * //

dimensions      [0 0 0 1 0 0 0];


internalField   nonuniform List<scalar> 
130
(
764.68359
764.63677
764.53412
764.37827
764.17903
763.95019
763.69895
763.41818
763.11616
762.82748
762.57592
762.38958
762.28857
764.76458
764.72302
764.62848
764.48118
764.2883
764.05916
763.8046
763.52362
763.21541
762.87125
762.57921
762.36872
762.25379
764.8654
764.8265
764.73281
764.59457
764.40893
764.17677
763.89777
763.58002
763.23689
762.88987
762.55025
762.31578
762.19125
764.94044
764.8975
764.80177
764.65755
764.4616
764.21602
763.92091
763.58128
763.2175
762.86853
762.52709
762.27565
762.10633
764.9168
764.87886
764.78801
764.64859
764.44378
764.18417
763.8733
763.51802
763.14833
762.8122
762.50472
762.24914
762.08139
764.87566
764.82886
764.72757
764.57313
764.35876
764.08409
763.74804
763.3859
763.0422
762.72889
762.4485
762.23508
762.0796
764.78775
764.74377
764.65086
764.50306
764.29395
764.02814
763.71343
763.38194
763.06469
762.78473
762.55046
762.36534
762.24609
764.65222
764.62263
764.54227
764.412
764.22674
763.9976
763.74178
763.46425
763.1808
762.92224
762.71203
762.55135
762.44128
764.53105
764.50017
764.41963
764.30264
764.15689
763.98593
763.78148
763.54903
763.29981
763.05009
762.83763
762.68663
762.58558
764.46169
764.42745
764.35369
764.25851
764.14003
763.98565
763.80857
763.60211
763.3664
763.13714
762.92976
762.7699
762.67373
)
;

boundaryField
{
    minX
    {
        type            zeroGradient;
    }
    minZ
    {
        type            zeroGradient;
    }
    maxZ
    {
        type            zeroGradient;
    }
    leftSolid_to_bottomWater
    {
        type            compressible::turbulentTemperatureCoupledBaffleMixed;
        refValue        nonuniform List<scalar> 
130
(
988.77784
988.69816
987.49418
985.69836
983.76896
982.76982
983.06346
981.57005
977.80372
977.20619
975.57372
974.10326
973.07075
990.86812
991.41819
991.16369
989.9907
988.87634
987.88057
988.48333
989.3135
990.34708
978.7425
975.26651
973.25962
971.36635
992.37583
993.45672
991.94583
992.68824
993.03136
993.19611
991.65341
988.96746
984.87289
982.29196
969.49698
967.71685
967.74378
995.68092
995.54084
994.3805
993.8686
993.17568
992.74962
991.72285
988.67023
982.59031
981.03359
970.28607
969.39448
958.91394
991.35497
992.47665
992.36562
994.51807
993.2412
992.48847
991.59191
987.42934
979.7643
978.71768
976.47069
969.46511
960.42031
993.60484
993.13556
991.71451
990.91515
989.79902
988.28507
982.22056
974.24535
971.42017
969.59847
964.95272
965.94164
955.90251
993.07431
992.32805
992.2308
991.69338
989.72808
986.91693
980.95111
974.64477
971.21671
970.75462
971.39009
970.29213
967.53506
988.31285
990.33899
990.21945
990.19909
987.97586
984.33628
982.5501
979.66196
975.81504
974.05675
975.48463
976.61416
971.97509
986.09825
987.36469
985.34671
983.60212
983.02415
984.73376
984.08281
982.55514
980.89287
976.24409
973.60818
975.88082
971.56902
985.04355
984.92679
983.323
984.058
985.77885
984.25696
985.10436
985.16413
981.27067
979.89231
977.00648
974.59931
971.40824
)
;
        refGradient     uniform 0;
        valueFraction   nonuniform List<scalar> 
130
(
0.0075140686
0.0075140686
0.0075140686
0.0075140686
0.0075140686
0.0075140686
0.0075140686
0.0075140686
0.0075140686
0.0075140686
0.0075140686
0.0075140686
0.0075140686
0.0075140686
0.0075140686
0.0075140686
0.0075140686
0.0075140686
0.0075140686
0.0075140686
0.0075140686
0.0075140686
0.0075140686
0.0075140686
0.0075140686
0.0075140686
0.0075140686
0.0075140686
0.0075140686
0.0075140686
0.0075140686
0.0075140686
0.0075140686
0.0075140686
0.0075140686
0.0075140686
0.0075140686
0.0075140686
0.0075140686
0.0075140686
0.0075140686
0.0075140686
0.0075140686
0.0075140686
0.0075140686
0.0075140686
0.0075140686
0.0075140686
0.0075140686
0.0075140686
0.0075140686
0.0075140686
0.0075140686
0.0075140686
0.0075140686
0.0075140686
0.0075140686
0.0075140686
0.0075140686
0.0075140686
0.0075140686
0.0075140686
0.0075140686
0.0075140686
0.0075140686
0.0075140686
0.0075140686
0.0075140686
0.0075140686
0.0075140686
0.0075140686
0.0075140686
0.0075140686
0.0075140686
0.0075140686
0.0075140686
0.0075140686
0.0075140686
0.0075140686
0.0075140686
0.0075140686
0.0075140686
0.0075140686
0.0075140686
0.0075140686
0.0075140686
0.0075140686
0.0075140686
0.0075140686
0.0075140686
0.0075140686
0.0075140686
0.0075140686
0.0075140686
0.0075140686
0.0075140686
0.0075140686
0.0075140686
0.0075140686
0.0075140686
0.0075140686
0.0075140686
0.0075140686
0.0075140686
0.0075140686
0.0075140686
0.0075140686
0.0075140686
0.0075140686
0.0075140686
0.0075140686
0.0075140686
0.0075140686
0.0075140686
0.0075140686
0.0075140686
0.0075140686
0.0075140686
0.0075140686
0.0075140686
0.0075140686
0.0075140686
0.0075140686
0.0075140686
0.0075140686
0.0075140686
0.0075140686
0.0075140686
0.0075140686
0.0075140686
)
;
        value           nonuniform List<scalar> 
130
(
766.35064
766.30357
766.19263
766.02443
765.81215
765.57748
765.33031
765.04042
764.71237
764.42136
764.15942
763.96343
763.85543
766.44673
766.40961
766.31385
766.15881
765.95897
765.72401
765.47586
765.20324
764.90514
764.47638
764.16044
763.93647
763.80818
766.55815
766.52766
766.42332
766.29164
766.10994
765.88072
765.59219
765.25665
764.88539
764.52164
764.08849
763.84244
763.71906
766.65748
766.61381
766.51005
766.36303
766.16332
765.91636
765.61573
765.25572
764.84906
764.49108
764.07149
763.81527
763.56849
766.60154
766.57233
766.4813
766.35906
766.14615
765.88281
765.56752
765.18364
764.7592
764.41776
764.09567
763.78944
763.55508
766.57761
766.52762
766.4164
766.25709
766.03592
765.75192
765.37282
764.95357
764.5913
764.26668
763.95347
763.74908
763.51932
766.48639
766.43712
766.34415
766.19342
765.97111
765.68618
765.32905
764.95279
764.61217
764.3308
764.10301
763.91096
763.77179
766.31615
766.30199
766.22132
766.09187
765.89128
765.63654
765.36929
765.07223
764.76202
764.49214
764.29415
764.14308
763.9989
766.17929
766.15815
766.06302
765.93381
765.78481
765.62799
765.42022
765.17808
764.91828
764.6355
764.40479
764.27193
764.13922
766.10257
766.06769
765.98239
765.89342
765.78875
765.62412
765.45475
765.25032
764.98715
764.74926
764.52176
764.34501
764.2256
)
;
        Tnbr            T;
        thicknessLayers List<scalar> 0();
        kappaLayers     List<scalar> 0();
        kappaMethod     solidThermo;
        kappa           none;
        alphaAni        none;
        alpha           none;
        field           T;
    }
    leftSolid_to_heater
    {
        type            compressible::turbulentTemperatureCoupledBaffleMixed;
        refValue        nonuniform List<scalar> 10(676.82496 669.05527 652.64131 625.8201 586.5168 586.57705 626.0875 653.03105 669.5014 677.29868);
        refGradient     uniform 0;
        valueFraction   nonuniform List<scalar> 10(2.08329e-05 2.08329e-05 2.08329e-05 2.08329e-05 2.08329e-05 2.08329e-05 2.08329e-05 2.08329e-05 2.08329e-05 2.08329e-05);
        value           nonuniform List<scalar> 10(762.26969 762.23482 762.17212 762.0867 762.06096 762.05914 762.22627 762.42204 762.56684 762.65525);
        Tnbr            T;
        thicknessLayers List<scalar> 1(0.001);
        kappaLayers     List<scalar> 1(0.0005);
        kappaMethod     solidThermo;
        kappa           none;
        alphaAni        none;
        alpha           none;
        field           T;
    }
    leftSolid_to_topAir
    {
        type            compressible::turbulentTemperatureCoupledBaffleMixed;
        refValue        nonuniform List<scalar> 
130
(
318.97686
336.61363
352.58532
367.30255
381.12108
394.27375
406.89048
418.97924
430.2491
440.65233
450.13195
458.57072
465.70984
318.97608
336.42319
352.0274
366.20066
379.27394
391.4327
402.75585
413.23553
422.77235
431.16888
438.18024
443.50188
446.78896
318.97877
336.46496
352.12059
366.35823
379.51633
391.79031
403.27882
414.02406
424.02519
433.22215
441.48537
448.62205
454.2873
318.98192
336.48246
352.1691
366.45844
379.70042
392.11253
403.82927
414.9432
425.52299
435.61706
445.2598
454.4701
463.11426
318.98055
336.48389
352.17804
366.47924
379.73786
392.17343
403.92341
415.08411
425.73033
435.92114
445.6897
455.04024
463.73429
318.97887
336.48032
352.17227
366.47063
379.72581
392.15688
403.90051
415.05319
425.69007
435.87038
445.63025
454.98754
463.6847
318.97573
336.47043
352.1516
366.43522
379.6705
392.07419
403.78026
414.88174
425.44839
435.52832
445.15462
454.33708
462.93782
318.97015
336.44869
352.09765
366.32897
379.48043
391.74718
403.22821
413.96542
423.95857
433.1475
441.40554
448.53286
454.17596
318.96666
336.40552
352.00265
366.17021
379.23943
391.39581
402.71777
413.1975
422.73512
431.13339
438.14639
443.46727
446.74854
318.96794
336.59705
352.56294
367.27719
381.09615
394.25237
406.87569
418.97405
430.2532
440.66591
450.15338
458.5962
465.73338
)
;
        refGradient     uniform 0;
        valueFraction   nonuniform List<scalar> 
130
(
0.00032132529
0.00032132529
0.00032132529
0.00032132529
0.00032132529
0.00032132529
0.00032132529
0.00032132529
0.00032132529
0.00032132529
0.00032132529
0.00032132529
0.00032132529
0.00032132529
0.00032132529
0.00032132529
0.00032132529
0.00032132529
0.00032132529
0.00032132529
0.00032132529
0.00032132529
0.00032132529
0.00032132529
0.00032132529
0.00032132529
0.00032132529
0.00032132529
0.00032132529
0.00032132529
0.00032132529
0.00032132529
0.00032132529
0.00032132529
0.00032132529
0.00032132529
0.00032132529
0.00032132529
0.00032132529
0.00032132529
0.00032132529
0.00032132529
0.00032132529
0.00032132529
0.00032132529
0.00032132529
0.00032132529
0.00032132529
0.00032132529
0.00032132529
0.00032132529
0.00032132529
0.00032132529
0.00032132529
0.00032132529
0.00032132529
0.00032132529
0.00032132529
0.00032132529
0.00032132529
0.00032132529
0.00032132529
0.00032132529
0.00032132529
0.00032132529
0.00032132529
0.00032132529
0.00032132529
0.00032132529
0.00032132529
0.00032132529
0.00032132529
0.00032132529
0.00032132529
0.00032132529
0.00032132529
0.00032132529
0.00032132529
0.00032132529
0.00032132529
0.00032132529
0.00032132529
0.00032132529
0.00032132529
0.00032132529
0.00032132529
0.00032132529
0.00032132529
0.00032132529
0.00032132529
0.00032132529
0.00032132529
0.00032132529
0.00032132529
0.00032132529
0.00032132529
0.00032132529
0.00032132529
0.00032132529
0.00032132529
0.00032132529
0.00032132529
0.00032132529
0.00032132529
0.00032132529
0.00032132529
0.00032132529
0.00032132529
0.00032132529
0.00032132529
0.00032132529
0.00032132529
0.00032132529
0.00032132529
0.00032132529
0.00032132529
0.00032132529
0.00032132529
0.00032132529
0.00032132529
0.00032132529
0.00032132529
0.00032132529
0.00032132529
0.00032132529
0.00032132529
0.00032132529
0.00032132529
0.00032132529
0.00032132529
)
;
        value           nonuniform List<scalar> 
130
(
764.52344
764.4823
764.3848
764.2337
764.03892
763.81434
763.56722
763.29041
762.99211
762.70686
762.45842
762.27485
762.17618
764.60441
764.56846
764.47895
764.33622
764.14756
763.92235
763.67147
763.39396
763.08894
762.7476
762.45794
762.24924
762.1354
764.70523
764.67195
764.58332
764.44964
764.26826
764.04007
763.76482
763.45063
763.11088
762.76699
762.43019
762.19813
762.07547
764.78027
764.74296
764.65227
764.51265
764.32099
764.07945
763.78818
763.45223
763.09204
762.7465
762.40831
762.15994
761.99347
764.75666
764.72437
764.63856
764.50374
764.30322
764.04766
763.74065
763.38907
763.02299
762.69027
762.386
762.13357
761.96876
764.71552
764.67435
764.57812
764.42829
764.21823
763.94762
763.61545
763.25711
762.91701
762.6071
762.32992
762.11957
761.96692
764.62766
764.5893
764.50144
764.35827
764.15348
763.89174
763.58093
763.25325
762.9395
762.66283
762.43166
762.24948
762.13294
764.49221
764.46824
764.39292
764.26726
764.08626
763.86116
763.60919
763.33528
763.05515
762.79957
762.592
762.43358
762.32527
764.37113
764.34585
764.27032
764.15793
764.01642
763.84943
763.64872
763.41976
763.17372
762.92677
762.71659
762.56729
762.46729
764.30184
764.27325
764.2046
764.11415
764.00013
763.85006
763.67711
763.47463
763.24265
763.01681
762.81255
762.65545
762.56162
)
;
        Tnbr            T;
        thicknessLayers List<scalar> 0();
        kappaLayers     List<scalar> 0();
        kappaMethod     solidThermo;
        kappa           none;
        alphaAni        none;
        alpha           none;
        field           T;
    }
}


// ************************************************************************* //
