/*--------------------------------*- C++ -*----------------------------------*\
| =========                 |                                                 |
| \\      /  F ield         | OpenFOAM: The Open Source CFD Toolbox           |
|  \\    /   O peration     | Version:  v2012                                 |
|   \\  /    A nd           | Website:  www.openfoam.com                      |
|    \\/     M anipulation  |                                                 |
\*---------------------------------------------------------------------------*/
FoamFile
{
    version     2.0;
    format      ascii;
    class       volScalarField;
    location    "590/bottomWater";
    object      p;
}
// * * * * * * * * * * * * * * * * * * * * * * * * * * * * * * * * * * * * * //

dimensions      [1 -1 -2 0 0 0 0];


internalField   nonuniform List<scalar> 
1460
(
353.44972
353.44911
353.44996
353.45435
353.45421
353.4532
353.45371
353.45914
353.4503
353.45486
353.46874
353.47154
353.44553
353.46617
353.46389
353.4581
353.45254
353.47118
353.4501
353.4558
353.45818
353.45095
353.45775
353.45155
353.46276
353.4551
353.45408
353.46746
353.4665
353.46524
274.41727
274.42534
274.42148
274.41136
274.41082
274.43003
274.41571
274.41712
274.41167
274.43533
274.50126
274.52351
274.463
274.50262
274.47013
274.44066
274.42347
274.48107
274.42858
274.41116
274.40448
274.43746
274.43089
274.41657
274.41003
274.41276
274.43023
274.46107
274.45505
274.43465
196.32124
196.30272
196.31181
196.32019
196.31894
196.28995
196.31003
196.31444
196.28378
196.24495
196.25237
196.25098
196.30101
196.28745
196.2696
196.29138
196.28314
196.23132
196.26133
196.28808
196.29708
196.29914
196.27712
196.31613
196.32327
196.29172
196.27252
196.2674
196.27949
196.29228
117.66108
117.62439
117.64945
117.66243
117.68717
117.61669
117.66064
117.68565
117.66355
117.65434
117.66033
117.65515
117.66691
117.69006
117.69845
117.65893
117.6963
117.66978
117.66539
117.6862
117.68805
117.6259
117.65505
117.66471
117.7002
117.66271
117.63096
117.66062
117.64945
117.63815
39.254716
39.274536
39.276733
39.272803
39.264925
39.264951
39.234303
39.237023
39.239293
39.244291
39.256877
39.251685
39.230425
39.230799
39.23367
39.232534
39.239983
39.25227
39.263829
39.258411
39.266059
39.27326
39.254025
39.239691
39.273375
39.245177
39.249323
39.23681
39.222809
39.250225
353.45271
353.44195
353.46779
353.45171
353.45255
353.46476
353.4411
353.46588
353.46032
353.45889
353.46488
353.48384
353.46556
353.47047
353.45177
353.4615
353.44275
353.46945
353.45678
353.45718
353.46605
353.45439
353.47679
353.44967
353.46433
353.45587
353.46118
353.46529
353.47109
353.46812
274.41821
274.42273
274.46331
274.43783
274.43879
274.44952
274.41878
274.41681
274.40564
274.39773
274.42472
274.48363
274.47738
274.46073
274.42728
274.42419
274.43059
274.47302
274.43005
274.4095
274.40431
274.42719
274.45605
274.425
274.40826
274.43198
274.43966
274.46884
274.44951
274.41419
196.30676
196.28103
196.2376
196.28671
196.2798
196.26271
196.27788
196.28966
196.30975
196.26532
196.25839
196.22674
196.24472
196.2668
196.2971
196.29869
196.31072
196.23163
196.2608
196.28436
196.28898
196.27764
196.2379
196.28156
196.26557
196.29408
196.26127
196.26807
196.24763
196.29184
117.66236
117.60917
117.63654
117.60782
117.61782
117.63759
117.65098
117.66316
117.68209
117.65852
117.63859
117.65076
117.66437
117.68637
117.68782
117.6903
117.665
117.6573
117.65126
117.68
117.68626
117.62347
117.65824
117.63283
117.68441
117.65113
117.66488
117.65194
117.63241
117.6548
39.233422
39.238994
39.263551
39.258464
39.240989
39.23883
39.24547
39.250837
39.260569
39.245869
39.252274
39.244772
39.219744
39.223528
39.231156
39.226091
39.228089
39.253072
39.264249
39.261439
39.277052
39.277427
39.267382
39.246311
39.24068
39.239018
39.223789
39.22681
39.233677
39.236709
353.46028
353.44614
353.47563
353.46861
353.46461
353.46563
353.45965
353.46906
353.4485
353.45804
353.45176
353.44985
353.44398
353.44815
353.45038
353.45298
353.45777
353.46346
353.46045
353.46311
353.46144
353.45985
353.47224
353.47156
353.46199
353.46269
353.46428
353.48267
353.46853
353.47072
274.42597
274.4106
274.48588
274.48953
274.4706
274.48692
274.48656
274.46478
274.42222
274.4174
274.42402
274.43886
274.42403
274.42475
274.4171
274.41156
274.44722
274.46013
274.41596
274.4057
274.40168
274.41067
274.45837
274.46
274.42584
274.43183
274.46067
274.48416
274.41394
274.40532
196.32055
196.29145
196.24995
196.27482
196.28328
196.27158
196.25238
196.2337
196.25376
196.27881
196.30223
196.28272
196.3079
196.29837
196.29442
196.28553
196.24698
196.24364
196.28122
196.30392
196.30106
196.27183
196.27889
196.24076
196.28749
196.30068
196.25694
196.24399
196.25341
196.29039
117.6933
117.6547
117.65017
117.64786
117.66596
117.67332
117.66377
117.65709
117.65239
117.67734
117.68174
117.64142
117.67392
117.65382
117.65932
117.65854
117.65993
117.66106
117.66156
117.68012
117.66741
117.6328
117.63528
117.62862
117.64161
117.66589
117.63907
117.63666
117.61557
117.66699
39.238067
39.223605
39.245431
39.237315
39.227509
39.225686
39.232244
39.248506
39.247491
39.244474
39.234475
39.255738
39.22606
39.228447
39.236427
39.240989
39.253558
39.252449
39.260425
39.263566
39.260778
39.250954
39.266779
39.242561
39.227283
39.228577
39.231774
39.253506
39.255639
39.257229
353.46271
353.45356
353.47003
353.462
353.46988
353.47049
353.46586
353.46348
353.46498
353.46835
353.46749
353.47171
353.4526
353.45332
353.45565
353.45496
353.45179
353.45615
353.45698
353.45325
353.45549
353.46424
353.45661
353.45396
353.46511
353.46801
353.47035
353.46935
353.46568
353.47124
274.41063
274.40799
274.44923
274.47542
274.48569
274.48112
274.46265
274.44197
274.4088
274.41869
274.44843
274.47822
274.42277
274.40926
274.41117
274.40823
274.42048
274.42694
274.41117
274.40795
274.42284
274.46096
274.43522
274.43607
274.4562
274.4744
274.46574
274.43007
274.3921
274.40575
196.29946
196.2701
196.25599
196.27217
196.26729
196.26183
196.25859
196.24092
196.28049
196.29141
196.25904
196.25208
196.29209
196.28889
196.33636
196.32533
196.30777
196.30712
196.31302
196.28123
196.2625
196.23172
196.28061
196.29525
196.25313
196.2614
196.24922
196.25322
196.26673
196.33028
117.67581
117.64946
117.64872
117.65566
117.6801
117.68608
117.67333
117.64158
117.67505
117.66042
117.66763
117.65967
117.6745
117.67958
117.68099
117.67309
117.64273
117.64028
117.67386
117.66147
117.64105
117.65143
117.65937
117.66694
117.68661
117.66368
117.63843
117.63722
117.65263
117.6775
39.237322
39.234394
39.225155
39.217232
39.21709
39.219602
39.219895
39.241598
39.243014
39.235886
39.228081
39.237364
39.236239
39.250558
39.265537
39.266301
39.280675
39.285778
39.260386
39.250547
39.254375
39.249483
39.241908
39.225396
39.232277
39.227308
39.230648
39.252773
39.253604
39.269725
353.47071
353.46471
353.46816
353.48105
353.47377
353.46835
353.46359
353.46193
353.46539
353.46518
353.45539
353.47386
353.45162
353.45018
353.45658
353.45764
353.46759
353.46433
353.47244
353.44598
353.4736
353.47009
353.46602
353.46303
353.46646
353.46765
274.40158
274.39291
274.41491
274.47927
274.46529
274.42158
274.41476
274.4035
274.40094
274.40677
274.4135
274.45283
274.44765
274.43611
274.41249
274.43053
274.44999
274.46907
274.46802
274.43966
274.47063
274.46068
274.41127
274.40291
274.41985
274.39638
196.32637
196.27627
196.26136
196.24133
196.26543
196.28849
196.30045
196.2846
196.31511
196.29222
196.27234
196.23752
196.28957
196.26821
196.27384
196.26096
196.2587
196.26491
196.2706
196.31291
196.27244
196.26951
196.28665
196.30359
196.31232
196.33188
117.67218
117.64803
117.62379
117.64036
117.64293
117.65908
117.67921
117.65534
117.6779
117.67674
117.64382
117.65047
117.67267
117.63551
117.6601
117.64334
117.65018
117.66029
117.65908
117.65693
117.66999
117.66242
117.63177
117.66225
117.61695
117.67406
39.259576
39.252277
39.252174
39.249134
39.230945
39.223258
39.226242
39.234594
39.250578
39.248168
39.254263
39.267086
39.259219
39.237845
39.232982
39.235083
39.217887
39.214314
39.219293
39.22331
39.219923
39.223008
39.233615
39.245201
39.282323
39.267665
353.47604
353.47143
353.47314
353.48094
353.47671
353.46115
353.45478
353.45857
353.46361
353.46665
353.46646
353.4704
353.47254
353.46434
353.46008
353.45874
353.45599
353.45991
353.45957
353.4521
353.45517
353.46899
353.46646
353.47089
353.46522
353.46777
274.40451
274.38828
274.40553
274.47361
274.47475
274.4272
274.4194
274.40179
274.39485
274.39924
274.39885
274.39805
274.43118
274.47543
274.45253
274.44836
274.42978
274.4223
274.42758
274.41006
274.42142
274.46115
274.46725
274.45241
274.41046
274.4036
196.35143
196.3034
196.26656
196.24958
196.24795
196.295
196.28871
196.29787
196.32386
196.33749
196.31698
196.29622
196.27713
196.2701
196.27474
196.25932
196.29195
196.28981
196.30518
196.28989
196.28529
196.25636
196.27996
196.2622
196.26667
196.29741
117.68799
117.6632
117.62857
117.64052
117.6404
117.65563
117.66696
117.65339
117.67544
117.68032
117.67928
117.64402
117.66312
117.67248
117.64335
117.6184
117.62626
117.62152
117.59944
117.64402
117.63572
117.63795
117.66083
117.66691
117.63221
117.67525
39.282283
39.269318
39.258488
39.259632
39.241451
39.233722
39.237519
39.246774
39.258513
39.266734
39.263062
39.278982
39.281303
39.224832
39.215551
39.250824
39.277333
39.295824
39.27078
39.242453
39.241902
39.242651
39.229394
39.238783
39.249469
39.25238
353.47243
353.46371
353.46596
353.47854
353.47322
353.47397
353.47979
353.46727
353.4662
353.4708
353.46946
353.47431
353.47084
353.46706
353.47949
353.47488
353.48475
353.46545
353.47524
353.47304
353.45361
353.46375
353.47109
353.46477
353.46252
353.47484
353.46893
353.46595
353.46437
353.46599
274.40616
274.39126
274.41896
274.47066
274.46929
274.46478
274.45965
274.40408
274.38994
274.39062
274.38791
274.39103
274.39719
274.41639
274.45421
274.47184
274.49452
274.4732
274.48608
274.4618
274.41106
274.39776
274.39892
274.40075
274.40781
274.46205
274.47705
274.4377
274.41157
274.40592
196.32501
196.26604
196.2594
196.23983
196.27532
196.25956
196.22456
196.2425
196.27399
196.2977
196.30063
196.29374
196.27162
196.25791
196.23747
196.26925
196.26149
196.28212
196.2475
196.23466
196.24816
196.27326
196.30956
196.31072
196.27103
196.25324
196.25828
196.27084
196.28931
196.31103
117.67625
117.65682
117.6315
117.63288
117.66356
117.67212
117.65551
117.65292
117.66489
117.68301
117.68976
117.68944
117.68123
117.64258
117.66308
117.6669
117.69781
117.65905
117.63897
117.63596
117.62284
117.66363
117.67923
117.66735
117.63278
117.63672
117.64311
117.66616
117.65104
117.68617
39.266942
39.256211
39.254042
39.245268
39.233001
39.235872
39.243194
39.252084
39.256048
39.264852
39.269373
39.270122
39.256984
39.260307
39.248101
39.230091
39.237411
39.223122
39.243742
39.253767
39.257659
39.263067
39.276517
39.262885
39.255611
39.251838
39.233891
39.230548
39.240276
39.249989
353.47221
353.46177
353.48039
353.47584
353.48406
353.48411
353.48095
353.47384
353.47138
353.46727
353.46774
353.46712
353.47503
353.47722
353.47568
353.47707
353.48478
353.47593
353.45777
353.4618
353.45738
353.4596
353.45968
353.4589
353.45697
353.45477
353.48049
353.47735
353.46951
353.47143
274.40464
274.40715
274.46509
274.47378
274.48078
274.46987
274.44182
274.40781
274.3988
274.41562
274.40677
274.40667
274.39089
274.39483
274.39372
274.41311
274.45485
274.45704
274.418
274.42079
274.4
274.40147
274.40039
274.40092
274.40234
274.41902
274.46242
274.41785
274.39153
274.39999
196.28371
196.2522
196.2405
196.28188
196.25333
196.26892
196.22924
196.28524
196.28797
196.29811
196.28129
196.28471
196.29886
196.30295
196.27658
196.27309
196.26259
196.2545
196.26138
196.27184
196.29243
196.31976
196.33005
196.32579
196.28802
196.26215
196.23932
196.25712
196.25908
196.31672
117.67372
117.63496
117.64425
117.66243
117.68619
117.67661
117.65472
117.65943
117.6785
117.63856
117.64263
117.63146
117.68448
117.67937
117.67299
117.66469
117.67436
117.66219
117.64702
117.64093
117.66921
117.67242
117.68282
117.6815
117.67287
117.64451
117.67801
117.65412
117.65918
117.6822
39.252912
39.252279
39.242379
39.229547
39.232146
39.233194
39.241378
39.248029
39.255659
39.278564
39.290268
39.269273
39.263427
39.260742
39.250603
39.242096
39.22814
39.22656
39.230324
39.245657
39.254406
39.263377
39.27109
39.268547
39.256167
39.244531
39.239713
39.234035
39.248396
39.262846
353.46717
353.45484
353.4738
353.48102
353.49036
353.49446
353.49163
353.49267
353.48363
353.48396
353.48255
353.48085
353.47438
353.47225
353.47574
353.47428
353.47546
353.46819
353.46909
353.46733
353.45931
353.46528
353.46702
353.46719
353.46678
353.46669
353.46612
353.47858
353.46433
353.47001
274.41183
274.41367
274.45201
274.47202
274.45205
274.41482
274.38656
274.38363
274.40482
274.43583
274.46727
274.45187
274.41526
274.40487
274.38941
274.38723
274.41036
274.40166
274.38988
274.40578
274.41461
274.42831
274.43722
274.41251
274.40457
274.41484
274.45782
274.47284
274.40604
274.40667
196.27756
196.25242
196.24761
196.25046
196.25738
196.22718
196.26874
196.2723
196.24384
196.23426
196.23697
196.23226
196.23562
196.25136
196.28215
196.28027
196.29863
196.29638
196.29759
196.28638
196.30209
196.29819
196.25676
196.31494
196.27955
196.2863
196.24409
196.23586
196.24735
196.28366
117.67518
117.65584
117.67039
117.675
117.66971
117.61753
117.68395
117.6825
117.64221
117.65834
117.65352
117.65934
117.64709
117.65273
117.68796
117.67531
117.62596
117.61776
117.67213
117.65821
117.6528
117.65723
117.63293
117.64317
117.67606
117.65232
117.65553
117.64698
117.6282
117.67684
39.238702
39.235023
39.227251
39.230953
39.231172
39.254428
39.259015
39.273294
39.256889
39.246313
39.242786
39.230697
39.241095
39.237752
39.240318
39.245286
39.265979
39.283808
39.256145
39.247345
39.235985
39.246513
39.260349
39.263319
39.247572
39.22427
39.243952
39.247489
39.252134
39.256066
353.47005
353.46568
353.45958
353.49405
353.48901
353.494
353.48528
353.48424
353.48564
353.48321
353.48729
353.48289
353.4796
353.47428
353.47087
353.46997
353.47134
353.47274
353.46801
353.47103
353.47226
353.47224
353.46175
353.46808
353.45948
353.47485
353.46462
353.47456
353.46822
353.4692
274.40656
274.39954
274.41878
274.44487
274.40667
274.38768
274.39574
274.41552
274.45128
274.47586
274.49388
274.48802
274.47106
274.44767
274.42489
274.42551
274.40008
274.39428
274.40606
274.44383
274.47615
274.4596
274.42894
274.4108
274.42445
274.45317
274.46549
274.47935
274.4438
274.41441
196.30707
196.27158
196.25359
196.22233
196.26846
196.27859
196.28475
196.25529
196.2552
196.27466
196.27333
196.27396
196.26962
196.2675
196.2863
196.28556
196.30355
196.2989
196.28393
196.24464
196.25101
196.27112
196.31036
196.28835
196.28148
196.26763
196.2698
196.24386
196.24059
196.27254
117.68263
117.68212
117.66091
117.66873
117.6407
117.68579
117.68582
117.63559
117.66516
117.67681
117.69862
117.69243
117.68945
117.65423
117.61742
117.626
117.64823
117.67203
117.65583
117.64277
117.64908
117.67473
117.66206
117.68996
117.66513
117.6959
117.68018
117.66427
117.65073
117.67585
39.251821
39.24239
39.241604
39.251853
39.2551
39.269098
39.256836
39.260461
39.238959
39.228988
39.239305
39.230726
39.231805
39.218134
39.240727
39.274815
39.266993
39.275539
39.25645
39.252212
39.237212
39.232697
39.239341
39.242056
39.246957
39.228311
39.222002
39.230439
39.241282
39.241369
)
;

boundaryField
{
    minX
    {
        type            calculated;
        value           nonuniform List<scalar> 
50
(
353.44972
274.41727
196.32124
117.66108
39.254716
353.45271
274.41821
196.30676
117.66236
39.233422
353.46028
274.42597
196.32055
117.6933
39.238067
353.46271
274.41063
196.29946
117.67581
39.237322
353.47071
274.40158
196.32637
117.67218
39.259576
353.47604
274.40451
196.35143
117.68799
39.282283
353.47243
274.40616
196.32501
117.67625
39.266942
353.47221
274.40464
196.28371
117.67372
39.252912
353.46717
274.41183
196.27756
117.67518
39.238702
353.47005
274.40656
196.30707
117.68263
39.251821
)
;
    }
    maxX
    {
        type            calculated;
        value           nonuniform List<scalar> 
50
(
353.46524
274.43465
196.29228
117.63815
39.250225
353.46812
274.41419
196.29184
117.6548
39.236709
353.47072
274.40532
196.29039
117.66699
39.257229
353.47124
274.40575
196.33028
117.6775
39.269725
353.46765
274.39638
196.33188
117.67406
39.267665
353.46777
274.4036
196.29741
117.67525
39.25238
353.46599
274.40592
196.31103
117.68617
39.249989
353.47143
274.39999
196.31672
117.6822
39.262846
353.47001
274.40667
196.28366
117.67684
39.256066
353.4692
274.41441
196.27254
117.67585
39.241369
)
;
    }
    minY
    {
        type            calculated;
        value           nonuniform List<scalar> 
292
(
392.4
392.4
392.4
392.4
392.4
392.4
392.4
392.4
392.4
392.4
392.4
392.4
392.4
392.4
392.4
392.4
392.4
392.4
392.4
392.4
392.4
392.4
392.4
392.4
392.4
392.4
392.4
392.4
392.4
392.4
392.4
392.4
392.4
392.4
392.4
392.4
392.4
392.4
392.4
392.4
392.4
392.4
392.4
392.4
392.4
392.4
392.4
392.4
392.4
392.4
392.4
392.4
392.4
392.4
392.4
392.4
392.4
392.4
392.4
392.4
392.4
392.4
392.4
392.4
392.4
392.4
392.4
392.4
392.4
392.4
392.4
392.4
392.4
392.4
392.4
392.4
392.4
392.4
392.4
392.4
392.4
392.4
392.4
392.4
392.4
392.4
392.4
392.4
392.4
392.4
392.4
392.4
392.4
392.4
392.4
392.4
392.4
392.4
392.4
392.4
392.4
392.4
392.4
392.4
392.4
392.4
392.4
392.4
392.4
392.4
392.4
392.4
392.4
392.4
392.4
392.4
392.4
392.4
392.4
392.4
392.4
392.4
392.4
392.4
392.4
392.4
392.4
392.4
392.4
392.4
392.4
392.4
392.4
392.4
392.4
392.4
392.4
392.4
392.4
392.4
392.4
392.4
392.4
392.4
392.4
392.4
392.4
392.4
392.4
392.4
392.4
392.4
392.4
392.4
392.4
392.4
392.4
392.4
392.4
392.4
392.4
392.4
392.4
392.4
392.4
392.4
392.4
392.4
392.4
392.4
392.4
392.4
392.4
392.4
392.4
392.4
392.4
392.4
392.4
392.4
392.4
392.4
392.4
392.4
392.4
392.4
392.4
392.4
392.4
392.4
392.4
392.4
392.4
392.4
392.4
392.4
392.4
392.4
392.4
392.4
392.4
392.4
392.4
392.4
392.4
392.4
392.4
392.4
392.4
392.4
392.4
392.4
392.4
392.4
392.4
392.4
392.4
392.4
392.4
392.4
392.4
392.4
392.4
392.4
392.4
392.4
392.4
392.4
392.4
392.4
392.4
392.4
392.4
392.4
392.4
392.4
392.4
392.4
392.4
392.4
392.4
392.4
392.4
392.4
392.4
392.4
392.4
392.4
392.4
392.4
392.4
392.4
392.4
392.4
392.4
392.4
392.4
392.4
392.4
392.4
392.4
392.4
392.4
392.4
392.4
392.4
392.4
392.4
392.4
392.4
392.4
392.4
392.4
392.4
392.4
392.4
392.4
392.4
392.4
392.4
392.4
392.4
392.4
392.4
392.4
392.4
392.4
392.4
392.4
392.4
392.4
392.4
)
;
    }
    minZ
    {
        type            calculated;
        value           nonuniform List<scalar> 
150
(
353.44972
274.41727
196.32124
117.66108
39.254716
353.44911
274.42534
196.30272
117.62439
39.274536
353.44996
274.42148
196.31181
117.64945
39.276733
353.45435
274.41136
196.32019
117.66243
39.272803
353.45421
274.41082
196.31894
117.68717
39.264925
353.4532
274.43003
196.28995
117.61669
39.264951
353.45371
274.41571
196.31003
117.66064
39.234303
353.45914
274.41712
196.31444
117.68565
39.237023
353.4503
274.41167
196.28378
117.66355
39.239293
353.45486
274.43533
196.24495
117.65434
39.244291
353.46874
274.50126
196.25237
117.66033
39.256877
353.47154
274.52351
196.25098
117.65515
39.251685
353.44553
274.463
196.30101
117.66691
39.230425
353.46617
274.50262
196.28745
117.69006
39.230799
353.46389
274.47013
196.2696
117.69845
39.23367
353.4581
274.44066
196.29138
117.65893
39.232534
353.45254
274.42347
196.28314
117.6963
39.239983
353.47118
274.48107
196.23132
117.66978
39.25227
353.4501
274.42858
196.26133
117.66539
39.263829
353.4558
274.41116
196.28808
117.6862
39.258411
353.45818
274.40448
196.29708
117.68805
39.266059
353.45095
274.43746
196.29914
117.6259
39.27326
353.45775
274.43089
196.27712
117.65505
39.254025
353.45155
274.41657
196.31613
117.66471
39.239691
353.46276
274.41003
196.32327
117.7002
39.273375
353.4551
274.41276
196.29172
117.66271
39.245177
353.45408
274.43023
196.27252
117.63096
39.249323
353.46746
274.46107
196.2674
117.66062
39.23681
353.4665
274.45505
196.27949
117.64945
39.222809
353.46524
274.43465
196.29228
117.63815
39.250225
)
;
    }
    maxZ
    {
        type            calculated;
        value           nonuniform List<scalar> 
150
(
353.47005
274.40656
196.30707
117.68263
39.251821
353.46568
274.39954
196.27158
117.68212
39.24239
353.45958
274.41878
196.25359
117.66091
39.241604
353.49405
274.44487
196.22233
117.66873
39.251853
353.48901
274.40667
196.26846
117.6407
39.2551
353.494
274.38768
196.27859
117.68579
39.269098
353.48528
274.39574
196.28475
117.68582
39.256836
353.48424
274.41552
196.25529
117.63559
39.260461
353.48564
274.45128
196.2552
117.66516
39.238959
353.48321
274.47586
196.27466
117.67681
39.228988
353.48729
274.49388
196.27333
117.69862
39.239305
353.48289
274.48802
196.27396
117.69243
39.230726
353.4796
274.47106
196.26962
117.68945
39.231805
353.47428
274.44767
196.2675
117.65423
39.218134
353.47087
274.42489
196.2863
117.61742
39.240727
353.46997
274.42551
196.28556
117.626
39.274815
353.47134
274.40008
196.30355
117.64823
39.266993
353.47274
274.39428
196.2989
117.67203
39.275539
353.46801
274.40606
196.28393
117.65583
39.25645
353.47103
274.44383
196.24464
117.64277
39.252212
353.47226
274.47615
196.25101
117.64908
39.237212
353.47224
274.4596
196.27112
117.67473
39.232697
353.46175
274.42894
196.31036
117.66206
39.239341
353.46808
274.4108
196.28835
117.68996
39.242056
353.45948
274.42445
196.28148
117.66513
39.246957
353.47485
274.45317
196.26763
117.6959
39.228311
353.46462
274.46549
196.2698
117.68018
39.222002
353.47456
274.47935
196.24386
117.66427
39.230439
353.46822
274.4438
196.24059
117.65073
39.241282
353.4692
274.41441
196.27254
117.67585
39.241369
)
;
    }
    bottomWater_to_rightSolid
    {
        type            calculated;
        value           nonuniform List<scalar> 
130
(
0.012269751
0.023828944
0.01841066
0.026058762
0.033260419
0.01402477
-0.00030865196
0.033374794
0.0051772199
0.0093229732
-0.0031895262
-0.017190663
0.010224901
0.013071539
0.024248642
0.021439116
0.037051542
0.037426678
0.027382269
0.0063113655
0.00068024801
-0.00098246958
-0.016210822
-0.013189684
-0.0063229236
-0.0032910436
0.012449094
0.020425482
0.023565939
0.020777532
0.010954475
0.026779474
0.0025612809
-0.012717353
-0.011422542
-0.0082259002
0.013505984
0.015639109
0.017229131
0.045778115
0.020385511
0.010546742
0.014374878
0.0094834819
0.0019078332
-0.014604183
-0.0077226511
-0.012691744
-0.0093522429
0.012773043
0.01360384
0.029725423
-0.0021553341
-0.0070180839
-0.0049169617
-0.022113085
-0.025685975
-0.020707159
-0.016690396
-0.020077138
-0.016992433
-0.0063851133
0.0052006758
0.042323226
0.027664567
-0.01516845
-0.024449344
0.01082397
0.037333122
0.055824479
0.030780081
0.0024529232
0.0019019517
0.0026507191
-0.010605922
-0.0012170205
0.0094694676
0.012380494
-0.016877581
0.0037420476
0.013766513
0.017659147
0.023067093
0.036517284
0.022885029
0.01561087
0.011838133
-0.006108693
-0.0094524732
0.0002762363
0.0099892649
-0.013439635
-0.009675668
0.0056570237
0.01440608
0.023377023
0.031090023
0.028546761
0.01616722
0.0045306922
-0.00028724059
-0.0059651273
0.0083960371
0.022845633
0.043807666
0.016145242
0.0073451403
-0.0040153418
0.0065130481
0.020349098
0.023319383
0.0075720105
-0.015730015
0.0039524879
0.0074891652
0.012133657
0.016066484
0.035538727
0.016450216
0.012211966
-0.002788
-0.0073031482
-0.0006588212
0.0020561538
0.0069566897
-0.011688811
-0.017997529
-0.0095614015
0.0012819686
0.0013694839
)
;
    }
    bottomWater_to_leftSolid
    {
        type            calculated;
        value           nonuniform List<scalar> 
130
(
0.014716109
0.034536379
0.036732551
0.032803213
0.024925201
0.024950903
-0.0056966838
-0.002976632
-0.00070686979
0.0042906234
0.016877075
0.011684867
-0.0095753268
-0.0065784691
-0.0010057687
0.023550941
0.018464055
0.00098920865
-0.0011702061
0.0054701361
0.010837099
0.020569442
0.0058688411
0.01227386
0.0047715215
-0.020256154
-0.0019328163
-0.016394867
0.005430833
-0.002684546
-0.012490841
-0.014313989
-0.0077557936
0.0085060612
0.0074911063
0.0044738107
-0.0055254676
0.015737898
-0.013940068
-0.0026784952
-0.0056064296
-0.014844869
-0.022768208
-0.022909858
-0.020397602
-0.020104708
0.0015984319
0.0030143634
-0.0041144846
-0.011919319
-0.0026357481
-0.0037605469
0.01957639
0.012277432
0.012174192
0.0091335431
-0.0090550064
-0.016741635
-0.013758367
-0.0054063382
0.010578036
0.0081676836
0.014262541
0.027085785
0.019219134
0.042283062
0.029317849
0.01848784
0.019631964
0.0014510367
-0.0062776977
-0.0024808788
0.0067738783
0.018513436
0.026734019
0.023061657
0.038982285
0.041303438
0.026942023
0.016211169
0.01404199
0.0052679846
-0.0069994431
-0.0041278209
0.0031935148
0.012083759
0.016048432
0.024851592
0.029372778
0.030121856
0.016983554
0.012911608
0.012279462
0.0023792935
-0.010452619
-0.0078539332
-0.0068061771
0.0013783969
0.0080288295
0.015658596
0.038564385
0.050267628
0.02927292
0.023426988
-0.0012975301
-0.0049766699
-0.012748515
-0.0090466056
-0.0088276446
0.014427768
0.01901469
0.033294446
0.016889053
0.0063126613
0.002785673
-0.0093027204
0.0010949134
0.011821492
0.0023903407
0.0016038589
0.011853441
0.015099556
0.029098386
0.016836374
0.020461385
-0.0010407123
-0.011011683
-0.00069540571
-0.0092739606
-0.0081952195
)
;
    }
    bottomWater_to_heater
    {
        type            calculated;
        value           nonuniform List<scalar> 
92
(
-0.009201314
-0.0063298127
-0.0074658877
-1.6891902e-05
-0.016472375
-0.0088443008
-0.013909427
-0.011910589
-0.011553126
-0.0035727322
0.00098875511
0.013558437
353.45332
353.45565
353.45496
353.45179
274.40926
274.41117
274.40823
274.42048
196.28889
196.33636
196.32533
196.30777
117.67958
117.68099
117.67309
117.64273
0.010558426
39.250558
0.025537451
39.265537
0.026300722
39.266301
0.040674542
39.280675
353.45162
353.45018
274.44765
274.43611
196.28957
196.26821
117.67267
117.63551
39.259219
39.237845
353.47254
353.46706
353.47949
353.47488
353.46434
353.48475
274.43118
274.41639
274.45421
274.47184
274.47543
274.49452
196.27713
196.25791
196.23747
196.26925
196.2701
196.26149
117.66312
117.64258
117.66308
117.6669
117.67248
117.69781
39.281303
39.260307
39.248101
39.230091
39.224832
39.237411
0.020307203
0.008101005
-0.0099086796
-0.0025885573
0.02074206
0.010602596
0.0020955094
-0.011859745
-0.0022480989
0.00031776382
0.0052855265
0.02597871
-0.02186594
0.00072677351
0.034814692
0.026993426
)
;
    }
}


// ************************************************************************* //
