/*--------------------------------*- C++ -*----------------------------------*\
| =========                 |                                                 |
| \\      /  F ield         | OpenFOAM: The Open Source CFD Toolbox           |
|  \\    /   O peration     | Version:  v2012                                 |
|   \\  /    A nd           | Website:  www.openfoam.com                      |
|    \\/     M anipulation  |                                                 |
\*---------------------------------------------------------------------------*/
FoamFile
{
    version     2.0;
    format      ascii;
    class       volScalarField;
    location    "590/bottomWater";
    object      p_rgh;
}
// * * * * * * * * * * * * * * * * * * * * * * * * * * * * * * * * * * * * * //

dimensions      [1 -1 -2 0 0 0 0];


internalField   nonuniform List<scalar> 
1460
(
0.28971924
0.28911385
0.28995993
0.29434769
0.29420524
0.29319559
0.29371138
0.29914332
0.29029987
0.29485824
0.30873742
0.31153852
0.28553131
0.30617198
0.30388599
0.29810401
0.29254025
0.31118253
0.29009983
0.29579863
0.29817928
0.29095232
0.29775183
0.29154979
0.3027557
0.29509862
0.2940794
0.30745576
0.30650369
0.30524265
-0.26272849
-0.25465803
-0.2585224
-0.26863745
-0.26918108
-0.24996603
-0.26428713
-0.26287671
-0.26833409
-0.24466669
-0.17874496
-0.15648525
-0.21700231
-0.17737955
-0.20986624
-0.23933581
-0.25652679
-0.1989259
-0.25141603
-0.26883682
-0.2755229
-0.24254465
-0.2491132
-0.26343309
-0.26996874
-0.26723719
-0.24976676
-0.21893163
-0.22495046
-0.24535008
0.12124029
0.10272029
0.11181185
0.12019293
0.11893627
0.089950722
0.11002646
0.11444353
0.083777404
0.044953576
0.052367538
0.050981767
0.10100837
0.087454497
0.069597371
0.09138208
0.083138685
0.031319838
0.061329045
0.088077179
0.097083975
0.099143501
0.07711908
0.11613084
0.1232744
0.091718068
0.072518366
0.067402701
0.079494772
0.09227687
-0.058924273
-0.09560884
-0.070546388
-0.057568285
-0.032828402
-0.1033064
-0.059359545
-0.034351776
-0.056447393
-0.06566371
-0.05967035
-0.064849818
-0.053091299
-0.029937088
-0.021549279
-0.061072598
-0.023701426
-0.050223846
-0.054605218
-0.033795875
-0.031949956
-0.094104958
-0.064949461
-0.055288588
-0.019802153
-0.057293361
-0.089035422
-0.059378226
-0.070554161
-0.08184793
0.014716109
0.034536379
0.036732551
0.032803213
0.024925201
0.024950903
-0.0056966838
-0.002976632
-0.00070686979
0.0042906234
0.016877075
0.011684867
-0.0095753268
-0.009201314
-0.0063298127
-0.0074658877
-1.6891902e-05
0.012269751
0.023828944
0.01841066
0.026058762
0.033260419
0.01402477
-0.00030865196
0.033374794
0.0051772199
0.0093229732
-0.0031895262
-0.017190663
0.010224901
0.29270555
0.28194849
0.30779001
0.29170984
0.2925477
0.30476361
0.28110458
0.30588433
0.30032399
0.29889482
0.30488146
0.3238378
0.30555681
0.31046775
0.29177029
0.30149788
0.28275255
0.30944639
0.29677959
0.29717872
0.3060504
0.29438509
0.31679239
0.28966696
0.30433199
0.29586786
0.301177
0.30528906
0.31109414
0.30811723
-0.26178907
-0.25727048
-0.21669204
-0.24217191
-0.24120571
-0.23048307
-0.26122336
-0.26318606
-0.274361
-0.28226615
-0.25527621
-0.19637032
-0.20262103
-0.21926866
-0.25272388
-0.25580925
-0.24941436
-0.20698179
-0.24995046
-0.27049883
-0.2756946
-0.25281388
-0.22395166
-0.25499762
-0.27174413
-0.24801626
-0.24033507
-0.21116454
-0.23048803
-0.26580917
0.1067609
0.081030411
0.037599348
0.086712589
0.079798408
0.062710096
0.077880596
0.0896573
0.10975441
0.065319686
0.058393938
0.026744552
0.044718604
0.066800377
0.097101241
0.098690989
0.11071569
0.031626565
0.060804462
0.084364344
0.088984317
0.077640358
0.037899098
0.08156153
0.065567255
0.094079034
0.061274781
0.068071962
0.047627256
0.091838044
-0.057644945
-0.11082782
-0.083462395
-0.11218287
-0.10218169
-0.082414345
-0.069018153
-0.056839104
-0.037912055
-0.061484865
-0.081408858
-0.06924434
-0.055629101
-0.033629802
-0.032183125
-0.029695639
-0.054996454
-0.062704234
-0.068744482
-0.039999351
-0.033743837
-0.096534377
-0.061756657
-0.087167649
-0.035594213
-0.068867567
-0.055119031
-0.068055084
-0.087592828
-0.065200523
-0.0065784691
-0.0010057687
0.023550941
0.018464055
0.00098920865
-0.0011702061
0.0054701361
0.010837099
0.020569442
0.0058688411
0.01227386
0.0047715215
-0.020256154
-0.016472375
-0.0088443008
-0.013909427
-0.011910589
0.013071539
0.024248642
0.021439116
0.037051542
0.037426678
0.027382269
0.0063113655
0.00068024801
-0.00098246958
-0.016210822
-0.013189684
-0.0063229236
-0.0032910436
0.30027683
0.28614457
0.31563019
0.3086125
0.30461312
0.30562674
0.29964685
0.30906345
0.28849521
0.29803528
0.29175753
0.28985496
0.28398323
0.28815307
0.2903775
0.29297756
0.29776535
0.30345992
0.30044736
0.30311115
0.30144397
0.29984724
0.31224015
0.31155651
0.30199317
0.30268617
0.30428019
0.32266821
0.3085278
0.31072361
-0.25403184
-0.26939502
-0.19411627
-0.19046824
-0.2093974
-0.19307836
-0.19343589
-0.21521861
-0.25778272
-0.26259603
-0.25598176
-0.24113842
-0.25596534
-0.25524579
-0.26289915
-0.268437
-0.23278057
-0.21987347
-0.26403518
-0.27429812
-0.27831651
-0.26932723
-0.22163041
-0.22000401
-0.25416387
-0.24816984
-0.21932926
-0.19583692
-0.26605584
-0.27467612
0.1205508
0.091450171
0.049949269
0.074818466
0.083278684
0.071581925
0.052377869
0.03370342
0.053757563
0.078805923
0.10223234
0.082723311
0.107902
0.098374823
0.094415487
0.085529438
0.046984731
0.043635775
0.081219259
0.10391551
0.10106014
0.071834893
0.07888725
0.040762119
0.087486315
0.10068239
0.056940038
0.043994034
0.053408466
0.090393867
-0.02669942
-0.065296011
-0.069831839
-0.072140468
-0.054044433
-0.046681882
-0.056233834
-0.062907969
-0.06760654
-0.042660616
-0.038256808
-0.07858013
-0.046080908
-0.066176099
-0.060677042
-0.061462601
-0.060065036
-0.058942986
-0.058438522
-0.03988246
-0.052585617
-0.087197186
-0.084720166
-0.091381587
-0.078391094
-0.054111815
-0.080929971
-0.083337464
-0.10442826
-0.053009996
-0.0019328163
-0.016394867
0.005430833
-0.002684546
-0.012490841
-0.014313989
-0.0077557936
0.0085060612
0.0074911063
0.0044738107
-0.0055254676
0.015737898
-0.013940068
-0.011553126
-0.0035727322
0.00098875511
0.013558437
0.012449094
0.020425482
0.023565939
0.020777532
0.010954475
0.026779474
0.0025612809
-0.012717353
-0.011422542
-0.0082259002
0.013505984
0.015639109
0.017229131
0.3027071
0.2935568
0.31002852
0.30200302
0.3098802
0.31048628
0.30586311
0.30347844
0.30498342
0.30834858
0.30749376
0.31170966
0.29259585
0.29332362
0.29564794
0.29495983
0.29178639
0.29614603
0.29698237
0.29324985
0.29548809
0.3042431
0.29661161
0.29396348
0.30511397
0.30800888
0.3103486
0.30935336
0.3056808
0.31123838
-0.26936868
-0.27201368
-0.23077124
-0.204576
-0.19431159
-0.19888001
-0.21735006
-0.2380283
-0.27119708
-0.26131004
-0.23157033
-0.20178397
-0.2572336
-0.27073967
-0.26882849
-0.2717697
-0.25952486
-0.25306293
-0.26882528
-0.2720467
-0.25715957
-0.21903694
-0.24477966
-0.24392799
-0.22380374
-0.2056045
-0.21425819
-0.24993046
-0.28789967
-0.27425174
0.099463122
0.070100089
0.055987732
0.072171971
0.067289059
0.06183189
0.058588928
0.040918309
0.080493913
0.091407144
0.059038177
0.052081197
0.092087475
0.088889321
0.13635849
0.12532925
0.10777015
0.10711626
0.11301582
0.081225585
0.06249706
0.031723198
0.080605988
0.095245555
0.053125519
0.061404505
0.049222091
0.053221013
0.066727157
0.13028069
-0.044187139
-0.070537596
-0.071283946
-0.064342627
-0.039901439
-0.033919395
-0.046670242
-0.078418945
-0.044950511
-0.059584671
-0.052371844
-0.060334395
-0.045499722
-0.040418981
-0.039013088
-0.046910686
-0.077268602
-0.079721547
-0.046140958
-0.05852876
-0.078950103
-0.068568634
-0.060629024
-0.05306192
-0.033386532
-0.056318514
-0.081565862
-0.082777699
-0.067370456
-0.042498918
-0.0026784952
-0.0056064296
-0.014844869
-0.022768208
-0.022909858
-0.020397602
-0.020104708
0.0015984319
0.0030143634
-0.0041144846
-0.011919319
-0.0026357481
-0.0037605469
0.010558426
0.025537451
0.026300722
0.040674542
0.045778115
0.020385511
0.010546742
0.014374878
0.0094834819
0.0019078332
-0.014604183
-0.0077226511
-0.012691744
-0.0093522429
0.012773043
0.01360384
0.029725423
0.31070786
0.3047135
0.30816411
0.32105065
0.31377119
0.30835244
0.30358537
0.30193355
0.30539321
0.30517781
0.29538607
0.31386009
0.29161664
0.29018405
0.29657983
0.29764141
0.30759022
0.30432564
0.3124437
0.28598168
0.31360166
0.31009114
0.30601963
0.30303438
0.30646203
0.30764594
-0.27841588
-0.28708908
-0.26509403
-0.20073458
-0.21471417
-0.25841596
-0.26523762
-0.27649667
-0.27906142
-0.27323079
-0.26649915
-0.22717383
-0.23234874
-0.24389062
-0.26750815
-0.24947446
-0.23001319
-0.21092563
-0.2119761
-0.24033614
-0.20937142
-0.2193246
-0.26872994
-0.27708958
-0.26014543
-0.28362026
0.12637449
0.076272775
0.061361273
0.041328974
0.065434777
0.088491139
0.10044795
0.084599534
0.11511337
0.092216138
0.072336224
0.037519515
0.08956616
0.06821037
0.073839533
0.060961459
0.058695389
0.064909966
0.0705992
0.11290652
0.072444404
0.069512199
0.086652654
0.10358875
0.11232022
0.13188211
-0.047822821
-0.071973383
-0.096213108
-0.079644882
-0.077066923
-0.060922184
-0.040792656
-0.064662998
-0.042103133
-0.043257309
-0.076181625
-0.069530099
-0.047332159
-0.084491875
-0.059904929
-0.076663836
-0.069817094
-0.059711817
-0.060922322
-0.063068134
-0.050006486
-0.057577167
-0.08823482
-0.057749105
-0.10304974
-0.045935932
0.01957639
0.012277432
0.012174192
0.0091335431
-0.0090550064
-0.016741635
-0.013758367
-0.0054063382
0.010578036
0.0081676836
0.014262541
0.027085785
0.019219134
-0.0021553341
-0.0070180839
-0.0049169617
-0.022113085
-0.025685975
-0.020707159
-0.016690396
-0.020077138
-0.016992433
-0.0063851133
0.0052006758
0.042323226
0.027664567
0.3160448
0.31143131
0.31313631
0.32093727
0.3167148
0.30114754
0.2947758
0.29856596
0.30360543
0.30665442
0.30645872
0.31039739
0.31254265
0.30434123
0.30007914
0.29874125
0.29599218
0.29990805
0.29957456
0.29210263
0.29516849
0.30898975
0.30645838
0.31088975
0.30521716
0.30776718
-0.27549318
-0.29171934
-0.27446867
-0.20639115
-0.20524579
-0.25280206
-0.26060164
-0.27821273
-0.28515376
-0.28075575
-0.28115049
-0.28194652
-0.24881594
-0.20456813
-0.227475
-0.2316447
-0.25022449
-0.25770252
-0.2524225
-0.26993827
-0.25858221
-0.21885279
-0.2127471
-0.22758791
-0.2695446
-0.27640495
0.15143077
0.10340186
0.066563204
0.049581615
0.047949975
0.094996173
0.08871406
0.097871984
0.12385828
0.13749179
0.11698495
0.096220701
0.077125663
0.070102144
0.074744371
0.059321468
0.091945531
0.089809028
0.10517815
0.089887578
0.085286975
0.056363944
0.07996456
0.062197412
0.066670769
0.097408296
-0.032012356
-0.056799943
-0.09143471
-0.079476565
-0.079597325
-0.064368458
-0.0530389
-0.066612641
-0.04456098
-0.03967627
-0.04072111
-0.075975111
-0.056878884
-0.047524429
-0.076648401
-0.10160017
-0.093736634
-0.098478759
-0.12056199
-0.075981684
-0.084275219
-0.082046094
-0.059168354
-0.05309197
-0.08778553
-0.044754213
0.042283062
0.029317849
0.01848784
0.019631964
0.0014510367
-0.0062776977
-0.0024808788
0.0067738783
0.018513436
0.026734019
0.023061657
0.038982285
0.041303438
-0.01516845
-0.024449344
0.01082397
0.037333122
0.055824479
0.030780081
0.0024529232
0.0019019517
0.0026507191
-0.010605922
-0.0012170205
0.0094694676
0.012380494
0.3124342
0.30371315
0.30595585
0.31854337
0.31321738
0.31397422
0.31978996
0.30726852
0.30619719
0.31080246
0.30945565
0.31431082
0.31083576
0.30705741
0.31948946
0.31488126
0.32475367
0.30544526
0.31524424
0.31304419
0.29360996
0.30374774
0.31109222
0.30477256
0.30251796
0.31484162
0.30893183
0.30594953
0.3043689
0.30598807
-0.27384458
-0.2887363
-0.26104486
-0.20934387
-0.21071398
-0.21522118
-0.22035245
-0.27592294
-0.29006345
-0.28937638
-0.29208694
-0.28896863
-0.28281238
-0.26361377
-0.22579033
-0.20815791
-0.18547543
-0.20680368
-0.19392451
-0.2182034
-0.26893679
-0.28224295
-0.28108212
-0.27925359
-0.27219193
-0.21795219
-0.20295427
-0.24230395
-0.26842596
-0.27408496
0.12500815
0.066038409
0.059395427
0.039830881
0.075321939
0.059564194
0.024556901
0.042497857
0.073992931
0.09769637
0.10063248
0.093735396
0.071623714
0.05790568
0.037472767
0.069253139
0.061489785
0.082121542
0.047497671
0.034664312
0.048158676
0.073260531
0.10956314
0.11072407
0.071027444
0.053238429
0.058283909
0.070835042
0.089308422
0.11103135
-0.04375423
-0.063183624
-0.088498352
-0.0871219
-0.056436119
-0.047882833
-0.064485016
-0.067081486
-0.055109095
-0.036987737
-0.030238964
-0.030558883
-0.038767794
-0.077418809
-0.056923401
-0.053098762
-0.022193193
-0.060946515
-0.081026373
-0.084042987
-0.097162212
-0.056367635
-0.040774091
-0.052649564
-0.087220529
-0.083277156
-0.076885789
-0.053835789
-0.068958921
-0.033834376
0.026942023
0.016211169
0.01404199
0.0052679846
-0.0069994431
-0.0041278209
0.0031935148
0.012083759
0.016048432
0.024851592
0.029372778
0.030121856
0.016983554
0.020307203
0.008101005
-0.0099086796
-0.0025885573
-0.016877581
0.0037420476
0.013766513
0.017659147
0.023067093
0.036517284
0.022885029
0.01561087
0.011838133
-0.006108693
-0.0094524732
0.0002762363
0.0099892649
0.31220817
0.30176785
0.32039085
0.31584091
0.32406306
0.32411192
0.3209455
0.31383979
0.31138215
0.3072667
0.30773917
0.30712456
0.3150283
0.31722243
0.31567628
0.31706736
0.32477692
0.3159256
0.29776753
0.30179866
0.29738346
0.29959704
0.29967645
0.29889724
0.29696722
0.29477425
0.32049012
0.31735085
0.30951371
0.31142615
-0.27536292
-0.27284835
-0.21491272
-0.20621707
-0.19921785
-0.21013409
-0.23817947
-0.27218659
-0.28119719
-0.26438398
-0.27322778
-0.2733312
-0.28911154
-0.28516643
-0.28628433
-0.26688629
-0.22514769
-0.22295642
-0.26199767
-0.25920674
-0.27999781
-0.27852912
-0.27961238
-0.27907767
-0.27765938
-0.26097582
-0.21758354
-0.26214708
-0.28847377
-0.28001208
0.083712323
0.052202066
0.040495307
0.081876359
0.053328848
0.068921094
0.029240172
0.085241256
0.087968491
0.098108351
0.081293812
0.084705615
0.098855371
0.10294987
0.076575498
0.073087358
0.062586571
0.05449885
0.061379563
0.071839122
0.09243344
0.11976169
0.1300511
0.12579069
0.088024939
0.062147759
0.039321437
0.05711531
0.059083478
0.11671611
-0.046281603
-0.085037285
-0.075746584
-0.057566607
-0.033810046
-0.043393735
-0.065283256
-0.060570662
-0.041501259
-0.081438698
-0.077370788
-0.088541728
-0.035516469
-0.04062776
-0.047006973
-0.055307337
-0.045637644
-0.057810241
-0.072982847
-0.079067889
-0.050785842
-0.047580674
-0.037175735
-0.038499151
-0.047126361
-0.075491849
-0.04198719
-0.065883613
-0.06081605
-0.037796235
0.012911608
0.012279462
0.0023792935
-0.010452619
-0.0078539332
-0.0068061771
0.0013783969
0.0080288295
0.015658596
0.038564385
0.050267628
0.02927292
0.023426988
0.02074206
0.010602596
0.0020955094
-0.011859745
-0.013439635
-0.009675668
0.0056570237
0.01440608
0.023377023
0.031090023
0.028546761
0.01616722
0.0045306922
-0.00028724059
-0.0059651273
0.0083960371
0.022845633
0.30716648
0.29484061
0.31379769
0.32102134
0.33035786
0.33445725
0.33163096
0.33267159
0.32363079
0.32396035
0.32255285
0.32085082
0.31438436
0.31224893
0.3157368
0.31427904
0.31546003
0.30818689
0.30908884
0.30732532
0.29931441
0.30527983
0.30701513
0.30719039
0.30678387
0.30668746
0.3061182
0.3185828
0.30433102
0.31000695
-0.26817228
-0.26633449
-0.22799022
-0.207984
-0.22795019
-0.26517535
-0.29344263
-0.29637376
-0.27517717
-0.24417153
-0.21273165
-0.22812916
-0.26474286
-0.2751321
-0.29058599
-0.29277245
-0.26964237
-0.27834214
-0.29011903
-0.27421621
-0.2653869
-0.25168893
-0.24277978
-0.26749433
-0.27542717
-0.26516153
-0.22217746
-0.20716344
-0.27395837
-0.27333094
0.07755776
0.052423499
0.047608025
0.050463924
0.057382103
0.027179343
0.068736074
0.072299038
0.043841977
0.034255388
0.036968667
0.032258816
0.035619279
0.051355559
0.08215417
0.080273656
0.098629537
0.096383873
0.097587772
0.086376368
0.10209062
0.098185021
0.056757862
0.11493523
0.079552013
0.086303685
0.044093524
0.03585819
0.047346615
0.083657082
-0.044815177
-0.064158004
-0.04961069
-0.045003862
-0.050294269
-0.10246944
-0.036054287
-0.037498686
-0.0777871
-0.061659783
-0.066483032
-0.060664367
-0.072913209
-0.067265965
-0.03204085
-0.04469494
-0.094040731
-0.10224176
-0.047873744
-0.061792708
-0.067203644
-0.062767577
-0.087070379
-0.076825516
-0.043937063
-0.067682283
-0.064465659
-0.073016372
-0.091796168
-0.043156198
-0.0012975301
-0.0049766699
-0.012748515
-0.0090466056
-0.0088276446
0.014427768
0.01901469
0.033294446
0.016889053
0.0063126613
0.002785673
-0.0093027204
0.0010949134
-0.0022480989
0.00031776382
0.0052855265
0.02597871
0.043807666
0.016145242
0.0073451403
-0.0040153418
0.0065130481
0.020349098
0.023319383
0.0075720105
-0.015730015
0.0039524879
0.0074891652
0.012133657
0.016066484
0.31005117
0.30567617
0.29958209
0.33405372
0.32900553
0.33400007
0.32527865
0.32423766
0.32564401
0.323209
0.3272894
0.32289082
0.31959523
0.31427521
0.31086681
0.30997295
0.31133614
0.31273816
0.30800927
0.31102899
0.31225811
0.31223941
0.30174956
0.30807609
0.29947613
0.31485111
0.30461581
0.31456017
0.30822273
0.30919919
-0.27344193
-0.28045955
-0.26122187
-0.23513467
-0.27332937
-0.29231991
-0.28426469
-0.26447751
-0.22871909
-0.20414145
-0.18612129
-0.1919823
-0.2089439
-0.23232536
-0.25510517
-0.25449229
-0.27992017
-0.28571579
-0.27394056
-0.23617056
-0.2038452
-0.22039894
-0.25105598
-0.26920207
-0.25555199
-0.22682537
-0.21450832
-0.20065288
-0.23620157
-0.2655934
0.10707429
0.071584548
0.053585649
0.022333505
0.068457632
0.078590739
0.084748041
0.055289635
0.055196998
0.074657668
0.073325608
0.073961938
0.069619447
0.067500719
0.08629591
0.08555534
0.10355034
0.098895865
0.083930672
0.044636803
0.051006464
0.071115241
0.11035635
0.088352802
0.081479939
0.067625014
0.069799654
0.043863444
0.04059407
0.072544271
-0.037373447
-0.037876319
-0.05909475
-0.051269115
-0.079303237
-0.034209814
-0.034175503
-0.084412579
-0.054836304
-0.04319055
-0.021381502
-0.027569047
-0.03054592
-0.065771409
-0.10258234
-0.09400494
-0.071766509
-0.047965696
-0.064168668
-0.077226681
-0.070915705
-0.045265417
-0.057935368
-0.030037573
-0.054866911
-0.02410298
-0.039819546
-0.055726588
-0.06926537
-0.044151265
0.011821492
0.0023903407
0.0016038589
0.011853441
0.015099556
0.029098386
0.016836374
0.020461385
-0.0010407123
-0.011011683
-0.00069540571
-0.0092739606
-0.0081952195
-0.02186594
0.00072677351
0.034814692
0.026993426
0.035538727
0.016450216
0.012211966
-0.002788
-0.0073031482
-0.0006588212
0.0020561538
0.0069566897
-0.011688811
-0.017997529
-0.0095614015
0.0012819686
0.0013694839
)
;

boundaryField
{
    minX
    {
        type            fixedFluxPressure;
        gradient        uniform 0;
        value           nonuniform List<scalar> 
50
(
0.28971924
-0.26272849
0.12124029
-0.058924273
0.014716109
0.29270555
-0.26178907
0.1067609
-0.057644945
-0.0065784691
0.30027683
-0.25403184
0.1205508
-0.02669942
-0.0019328163
0.3027071
-0.26936868
0.099463122
-0.044187139
-0.0026784952
0.31070786
-0.27841588
0.12637449
-0.047822821
0.01957639
0.3160448
-0.27549318
0.15143077
-0.032012356
0.042283062
0.3124342
-0.27384458
0.12500815
-0.04375423
0.026942023
0.31220817
-0.27536292
0.083712323
-0.046281603
0.012911608
0.30716648
-0.26817228
0.07755776
-0.044815177
-0.0012975301
0.31005117
-0.27344193
0.10707429
-0.037373447
0.011821492
)
;
    }
    maxX
    {
        type            fixedFluxPressure;
        gradient        uniform 0;
        value           nonuniform List<scalar> 
50
(
0.30524265
-0.24535008
0.09227687
-0.08184793
0.010224901
0.30811723
-0.26580917
0.091838044
-0.065200523
-0.0032910436
0.31072361
-0.27467612
0.090393867
-0.053009996
0.017229131
0.31123838
-0.27425174
0.13028069
-0.042498918
0.029725423
0.30764594
-0.28362026
0.13188211
-0.045935932
0.027664567
0.30776718
-0.27640495
0.097408296
-0.044754213
0.012380494
0.30598807
-0.27408496
0.11103135
-0.033834376
0.0099892649
0.31142615
-0.28001208
0.11671611
-0.037796235
0.022845633
0.31000695
-0.27333094
0.083657082
-0.043156198
0.016066484
0.30919919
-0.2655934
0.072544271
-0.044151265
0.0013694839
)
;
    }
    minY
    {
        type            fixedValue;
        value           uniform 0;
    }
    minZ
    {
        type            fixedFluxPressure;
        gradient        uniform 0;
        value           nonuniform List<scalar> 
150
(
0.28971924
-0.26272849
0.12124029
-0.058924273
0.014716109
0.28911385
-0.25465803
0.10272029
-0.09560884
0.034536379
0.28995993
-0.2585224
0.11181185
-0.070546388
0.036732551
0.29434769
-0.26863745
0.12019293
-0.057568285
0.032803213
0.29420524
-0.26918108
0.11893627
-0.032828402
0.024925201
0.29319559
-0.24996603
0.089950722
-0.1033064
0.024950903
0.29371138
-0.26428713
0.11002646
-0.059359545
-0.0056966838
0.29914332
-0.26287671
0.11444353
-0.034351776
-0.002976632
0.29029987
-0.26833409
0.083777404
-0.056447393
-0.00070686979
0.29485824
-0.24466669
0.044953576
-0.06566371
0.0042906234
0.30873742
-0.17874496
0.052367538
-0.05967035
0.016877075
0.31153852
-0.15648525
0.050981767
-0.064849818
0.011684867
0.28553131
-0.21700231
0.10100837
-0.053091299
-0.0095753268
0.30617198
-0.17737955
0.087454497
-0.029937088
-0.009201314
0.30388599
-0.20986624
0.069597371
-0.021549279
-0.0063298127
0.29810401
-0.23933581
0.09138208
-0.061072598
-0.0074658877
0.29254025
-0.25652679
0.083138685
-0.023701426
-1.6891902e-05
0.31118253
-0.1989259
0.031319838
-0.050223846
0.012269751
0.29009983
-0.25141603
0.061329045
-0.054605218
0.023828944
0.29579863
-0.26883682
0.088077179
-0.033795875
0.01841066
0.29817928
-0.2755229
0.097083975
-0.031949956
0.026058762
0.29095232
-0.24254465
0.099143501
-0.094104958
0.033260419
0.29775183
-0.2491132
0.07711908
-0.064949461
0.01402477
0.29154979
-0.26343309
0.11613084
-0.055288588
-0.00030865196
0.3027557
-0.26996874
0.1232744
-0.019802153
0.033374794
0.29509862
-0.26723719
0.091718068
-0.057293361
0.0051772199
0.2940794
-0.24976676
0.072518366
-0.089035422
0.0093229732
0.30745576
-0.21893163
0.067402701
-0.059378226
-0.0031895262
0.30650369
-0.22495046
0.079494772
-0.070554161
-0.017190663
0.30524265
-0.24535008
0.09227687
-0.08184793
0.010224901
)
;
    }
    maxZ
    {
        type            fixedFluxPressure;
        gradient        uniform 0;
        value           nonuniform List<scalar> 
150
(
0.31005117
-0.27344193
0.10707429
-0.037373447
0.011821492
0.30567617
-0.28045955
0.071584548
-0.037876319
0.0023903407
0.29958209
-0.26122187
0.053585649
-0.05909475
0.0016038589
0.33405372
-0.23513467
0.022333505
-0.051269115
0.011853441
0.32900553
-0.27332937
0.068457632
-0.079303237
0.015099556
0.33400007
-0.29231991
0.078590739
-0.034209814
0.029098386
0.32527865
-0.28426469
0.084748041
-0.034175503
0.016836374
0.32423766
-0.26447751
0.055289635
-0.084412579
0.020461385
0.32564401
-0.22871909
0.055196998
-0.054836304
-0.0010407123
0.323209
-0.20414145
0.074657668
-0.04319055
-0.011011683
0.3272894
-0.18612129
0.073325608
-0.021381502
-0.00069540571
0.32289082
-0.1919823
0.073961938
-0.027569047
-0.0092739606
0.31959523
-0.2089439
0.069619447
-0.03054592
-0.0081952195
0.31427521
-0.23232536
0.067500719
-0.065771409
-0.02186594
0.31086681
-0.25510517
0.08629591
-0.10258234
0.00072677351
0.30997295
-0.25449229
0.08555534
-0.09400494
0.034814692
0.31133614
-0.27992017
0.10355034
-0.071766509
0.026993426
0.31273816
-0.28571579
0.098895865
-0.047965696
0.035538727
0.30800927
-0.27394056
0.083930672
-0.064168668
0.016450216
0.31102899
-0.23617056
0.044636803
-0.077226681
0.012211966
0.31225811
-0.2038452
0.051006464
-0.070915705
-0.002788
0.31223941
-0.22039894
0.071115241
-0.045265417
-0.0073031482
0.30174956
-0.25105598
0.11035635
-0.057935368
-0.0006588212
0.30807609
-0.26920207
0.088352802
-0.030037573
0.0020561538
0.29947613
-0.25555199
0.081479939
-0.054866911
0.0069566897
0.31485111
-0.22682537
0.067625014
-0.02410298
-0.011688811
0.30461581
-0.21450832
0.069799654
-0.039819546
-0.017997529
0.31456017
-0.20065288
0.043863444
-0.055726588
-0.0095614015
0.30822273
-0.23620157
0.04059407
-0.06926537
0.0012819686
0.30919919
-0.2655934
0.072544271
-0.044151265
0.0013694839
)
;
    }
    bottomWater_to_rightSolid
    {
        type            fixedFluxPressure;
        gradient        uniform 0;
        value           nonuniform List<scalar> 
130
(
0.012269751
0.023828944
0.01841066
0.026058762
0.033260419
0.01402477
-0.00030865196
0.033374794
0.0051772199
0.0093229732
-0.0031895262
-0.017190663
0.010224901
0.013071539
0.024248642
0.021439116
0.037051542
0.037426678
0.027382269
0.0063113655
0.00068024801
-0.00098246958
-0.016210822
-0.013189684
-0.0063229236
-0.0032910436
0.012449094
0.020425482
0.023565939
0.020777532
0.010954475
0.026779474
0.0025612809
-0.012717353
-0.011422542
-0.0082259002
0.013505984
0.015639109
0.017229131
0.045778115
0.020385511
0.010546742
0.014374878
0.0094834819
0.0019078332
-0.014604183
-0.0077226511
-0.012691744
-0.0093522429
0.012773043
0.01360384
0.029725423
-0.0021553341
-0.0070180839
-0.0049169617
-0.022113085
-0.025685975
-0.020707159
-0.016690396
-0.020077138
-0.016992433
-0.0063851133
0.0052006758
0.042323226
0.027664567
-0.01516845
-0.024449344
0.01082397
0.037333122
0.055824479
0.030780081
0.0024529232
0.0019019517
0.0026507191
-0.010605922
-0.0012170205
0.0094694676
0.012380494
-0.016877581
0.0037420476
0.013766513
0.017659147
0.023067093
0.036517284
0.022885029
0.01561087
0.011838133
-0.006108693
-0.0094524732
0.0002762363
0.0099892649
-0.013439635
-0.009675668
0.0056570237
0.01440608
0.023377023
0.031090023
0.028546761
0.01616722
0.0045306922
-0.00028724059
-0.0059651273
0.0083960371
0.022845633
0.043807666
0.016145242
0.0073451403
-0.0040153418
0.0065130481
0.020349098
0.023319383
0.0075720105
-0.015730015
0.0039524879
0.0074891652
0.012133657
0.016066484
0.035538727
0.016450216
0.012211966
-0.002788
-0.0073031482
-0.0006588212
0.0020561538
0.0069566897
-0.011688811
-0.017997529
-0.0095614015
0.0012819686
0.0013694839
)
;
    }
    bottomWater_to_leftSolid
    {
        type            fixedFluxPressure;
        gradient        uniform 0;
        value           nonuniform List<scalar> 
130
(
0.014716109
0.034536379
0.036732551
0.032803213
0.024925201
0.024950903
-0.0056966838
-0.002976632
-0.00070686979
0.0042906234
0.016877075
0.011684867
-0.0095753268
-0.0065784691
-0.0010057687
0.023550941
0.018464055
0.00098920865
-0.0011702061
0.0054701361
0.010837099
0.020569442
0.0058688411
0.01227386
0.0047715215
-0.020256154
-0.0019328163
-0.016394867
0.005430833
-0.002684546
-0.012490841
-0.014313989
-0.0077557936
0.0085060612
0.0074911063
0.0044738107
-0.0055254676
0.015737898
-0.013940068
-0.0026784952
-0.0056064296
-0.014844869
-0.022768208
-0.022909858
-0.020397602
-0.020104708
0.0015984319
0.0030143634
-0.0041144846
-0.011919319
-0.0026357481
-0.0037605469
0.01957639
0.012277432
0.012174192
0.0091335431
-0.0090550064
-0.016741635
-0.013758367
-0.0054063382
0.010578036
0.0081676836
0.014262541
0.027085785
0.019219134
0.042283062
0.029317849
0.01848784
0.019631964
0.0014510367
-0.0062776977
-0.0024808788
0.0067738783
0.018513436
0.026734019
0.023061657
0.038982285
0.041303438
0.026942023
0.016211169
0.01404199
0.0052679846
-0.0069994431
-0.0041278209
0.0031935148
0.012083759
0.016048432
0.024851592
0.029372778
0.030121856
0.016983554
0.012911608
0.012279462
0.0023792935
-0.010452619
-0.0078539332
-0.0068061771
0.0013783969
0.0080288295
0.015658596
0.038564385
0.050267628
0.02927292
0.023426988
-0.0012975301
-0.0049766699
-0.012748515
-0.0090466056
-0.0088276446
0.014427768
0.01901469
0.033294446
0.016889053
0.0063126613
0.002785673
-0.0093027204
0.0010949134
0.011821492
0.0023903407
0.0016038589
0.011853441
0.015099556
0.029098386
0.016836374
0.020461385
-0.0010407123
-0.011011683
-0.00069540571
-0.0092739606
-0.0081952195
)
;
    }
    bottomWater_to_heater
    {
        type            fixedFluxPressure;
        gradient        uniform 0;
        value           nonuniform List<scalar> 
92
(
-0.009201314
-0.0063298127
-0.0074658877
-1.6891902e-05
-0.016472375
-0.0088443008
-0.013909427
-0.011910589
-0.011553126
-0.0035727322
0.00098875511
0.013558437
0.29332362
0.29564794
0.29495983
0.29178639
-0.27073967
-0.26882849
-0.2717697
-0.25952486
0.088889321
0.13635849
0.12532925
0.10777015
-0.040418981
-0.039013088
-0.046910686
-0.077268602
0.010558426
0.010558426
0.025537451
0.025537451
0.026300722
0.026300722
0.040674542
0.040674542
0.29161664
0.29018405
-0.23234874
-0.24389062
0.08956616
0.06821037
-0.047332159
-0.084491875
0.019219134
-0.0021553341
0.31254265
0.30705741
0.31948946
0.31488126
0.30434123
0.32475367
-0.24881594
-0.26361377
-0.22579033
-0.20815791
-0.20456813
-0.18547543
0.077125663
0.05790568
0.037472767
0.069253139
0.070102144
0.061489785
-0.056878884
-0.077418809
-0.056923401
-0.053098762
-0.047524429
-0.022193193
0.041303438
0.020307203
0.008101005
-0.0099086796
-0.01516845
-0.0025885573
0.020307203
0.008101005
-0.0099086796
-0.0025885573
0.02074206
0.010602596
0.0020955094
-0.011859745
-0.0022480989
0.00031776382
0.0052855265
0.02597871
-0.02186594
0.00072677351
0.034814692
0.026993426
)
;
    }
}


// ************************************************************************* //
