/*--------------------------------*- C++ -*----------------------------------*\
| =========                 |                                                 |
| \\      /  F ield         | OpenFOAM: The Open Source CFD Toolbox           |
|  \\    /   O peration     | Version:  v2012                                 |
|   \\  /    A nd           | Website:  www.openfoam.com                      |
|    \\/     M anipulation  |                                                 |
\*---------------------------------------------------------------------------*/
FoamFile
{
    version     2.0;
    format      ascii;
    class       surfaceScalarField;
    location    "590/bottomWater";
    object      phi;
}
// * * * * * * * * * * * * * * * * * * * * * * * * * * * * * * * * * * * * * //

dimensions      [1 0 -1 0 0 0 0];
oriented        oriented;


internalField   nonuniform List<scalar> 
3858
(
-8.2091415e-05
0.00015507248
-6.9554509e-05
-0.00014322585
0.00011649115
-5.1748277e-05
-0.0001134803
0.00010504153
-0.00013128623
-9.4760254e-05
0.00013597144
-0.00015214473
-9.4946179e-05
0.00014516335
-0.00014241457
-0.00011617768
0.0001382507
-0.00011424724
-0.00021000617
0.000151812
-5.5269529e-05
-0.00029096885
0.00014300579
-6.0376577e-05
-0.00042749138
0.00012579566
1.4435464e-05
-0.00042125447
-6.0435063e-05
5.7001061e-05
-0.00023476686
-0.00027182536
8.5170776e-05
-3.9133288e-05
-0.00024853529
5.17667e-05
-4.1709099e-05
-1.3401433e-05
2.0155168e-05
2.6754663e-05
-0.00020449006
0.00013592334
0.00018035568
-0.00031264421
0.00015965901
1.8767559e-05
3.2879204e-05
0.00013032989
-0.00011119905
9.0194431e-05
4.2529407e-05
0.00016888883
-0.00026608884
-1.5068566e-05
0.00018119815
2.5896698e-05
-3.4799441e-05
4.3591778e-05
0.00015412473
-1.4369774e-05
-7.2458099e-05
0.00016527102
-4.764331e-05
-0.00011116545
8.4233101e-05
-4.2383443e-05
2.8411512e-06
-5.8262055e-05
-5.4153583e-05
-3.1466998e-05
0.00013793993
-0.00010064901
-0.000110632
0.00014023794
-6.0483895e-05
-0.00018987992
0.00016451569
-8.2844229e-05
-0.00021826706
0.0001151609
-8.4081379e-05
-1.1872038e-05
-0.00017207235
-3.4682527e-05
8.378089e-05
-0.00013378744
3.7843006e-05
7.308452e-05
1.0617434e-05
-0.0001390523
0.00031935669
-2.5231903e-05
-5.7504702e-06
-4.6580099e-05
2.9769421e-05
4.4745598e-05
0.00017403312
-0.00011948765
-0.00014497095
0.00066538296
-0.00033969497
-0.00023719018
0.00049678371
-0.00025940112
-4.0337078e-05
2.7778425e-05
-8.6380827e-05
-0.00014217773
0.00036017029
-0.00010651763
-0.00043620207
0.00052678749
-8.9757366e-05
-0.00057667432
0.00022733598
3.8931909e-05
-0.00051224667
-0.00022029429
9.543157e-05
-0.00029401003
-0.00058459695
9.4534935e-05
-8.692083e-05
-0.00048647566
3.0851166e-05
-2.5509622e-05
-6.440591e-05
-1.0406735e-05
4.8154193e-05
-0.00040584432
0.00012769045
0.00027714714
-0.00068543787
0.00014380072
0.00015572397
2.933439e-06
0.00015136894
-0.00016075612
0.00045171695
-4.5042425e-05
0.0002202805
-0.00059684301
-5.0282439e-05
0.00042599378
-0.00011500018
-6.4816416e-05
0.00017961447
0.0004418236
-4.1319566e-05
-0.00022913329
0.00056651149
7.5072899e-06
-0.00019605327
-2.0387748e-05
7.1540825e-05
6.533358e-05
-0.00033453818
1.4889277e-05
6.6743281e-05
0.00029286231
-0.00015633208
-0.00026724624
0.00062891455
-0.00015468708
-0.00041314093
0.00046853532
-0.00015812492
-0.00021243611
-6.7565619e-06
-7.8787348e-05
8.5601626e-05
-0.00046759609
-2.5139936e-06
0.00021852161
-0.00038697605
0.00012026863
0.00011236841
0.00017923772
9.8919597e-05
0.00021153126
8.905831e-06
8.0236309e-06
-9.6984743e-05
0.00014130061
-0.00010298639
0.00011295599
0.00017208715
-7.7378576e-05
0.00066661602
-2.6840872e-05
-3.5221377e-05
0.00042036565
3.4260858e-05
-0.00010795418
-8.7754329e-05
0.00018826556
-0.0001536624
0.00022592671
0.00017995178
-2.7852982e-05
0.00028461879
0.00011635927
0.00018787051
5.7175675e-06
5.8949087e-06
0.00016840144
-0.00010751729
-9.3307938e-05
-0.00012640983
-9.0723428e-05
-0.00019906227
-0.00041018723
-8.4931304e-05
-0.00011776696
-0.00018138741
-0.00022014722
-7.3058524e-05
-0.00010762246
-0.00043661484
-4.2994429e-05
-0.00024916196
-0.00044439402
-9.9504352e-05
-2.2105876e-05
-0.00021198716
-1.2135484e-05
9.6092219e-05
0.00031882869
1.4690167e-05
-0.00030850695
-0.0001276313
-6.4612551e-05
-0.00018236138
-0.00011026745
-0.0001308783
-5.9168312e-06
0.00031880158
-5.3422537e-05
8.6251137e-05
0.00046796353
6.37999e-06
3.4099393e-05
-8.5553688e-05
0.00011731768
-0.00027627544
-0.00015361323
0.0001294499
-9.9840208e-05
-6.0869059e-06
0.000122514
-2.003582e-05
0.00059008335
-4.0973161e-05
0.00013480278
0.00038974747
-7.6050735e-05
0.0002605566
-0.00011290035
-1.9610016e-05
7.3133432e-05
-0.00031838947
3.8216567e-05
-3.8067575e-05
-0.00041870314
0.00014292811
-3.4272699e-05
0.00010857354
0.00019585228
-4.6023602e-05
6.1702579e-05
-0.00023304263
0.00030129008
3.0620096e-05
-0.0003199013
0.00016869141
3.112326e-05
-7.7215806e-06
0.00032373529
3.0701015e-05
-4.9272185e-06
0.0003036906
0.00011388069
-0.00044114066
0.00030788513
4.0573977e-05
-0.000345237
5.6191677e-06
0.00012440388
4.8874756e-05
-0.00025893188
0.0001494389
0.00021416447
-0.00016118275
1.6105873e-06
0.00015700649
3.6076754e-05
-8.6436085e-05
2.9304921e-05
0.00014200661
-0.00010502849
-0.00013589654
0.0001333618
-5.3091659e-05
-0.00012395428
-0.00014330572
-8.8783774e-05
-9.7394277e-05
-0.00044066501
-2.2509842e-05
-0.00012310168
-0.00038392166
-3.4764963e-05
-6.9987672e-05
-0.00012801704
-0.00013708412
0.00017743793
1.9490862e-05
5.1912217e-05
-2.8260071e-05
7.3167386e-05
4.8993164e-06
-0.0002110282
0.00011155787
-3.9057201e-05
4.6125303e-05
8.9913262e-05
-2.8265201e-05
0.00030223626
0.0001932976
1.855496e-05
-5.3826728e-05
0.00028199855
-1.1489253e-05
-0.00026669511
-2.4394842e-05
8.365e-05
-9.6424408e-05
-0.00029141539
0.0001150578
0.0001900021
0.00025411638
4.9540488e-05
0.00030758997
0.00023107494
4.1084678e-05
0.00020158012
9.4631773e-05
-0.00010152224
0.00015895268
-0.00028625056
1.0488539e-05
0.00012282268
-0.00045941435
7.6841218e-05
0.00013236068
-4.3810689e-05
-0.00028629131
0.00024026771
-0.00020151135
0.00021651011
-0.00015366214
0.0001208422
6.3297548e-05
0.00010677561
0.00014651211
0.00022047603
0.0002550045
0.00019939274
0.00018894473
7.1678927e-05
-6.5894875e-05
-4.0922867e-06
-0.00015619941
-7.0878231e-05
-2.882846e-05
-9.1294214e-05
0.00016415386
-5.0975723e-05
0.00035229248
-5.4776829e-05
0.00026934854
-6.0361793e-05
-0.00011053561
-6.0780861e-05
-0.00040223431
-9.2222952e-05
-0.0004521561
-7.8095253e-05
-0.0003939338
-3.8731445e-05
-0.00030140224
-1.936418e-05
-0.00016659206
-2.3252314e-05
-5.3415963e-05
-2.3262845e-05
0.0001431536
-3.2719609e-06
0.00040897542
1.6176727e-05
0.00039324183
-8.6612419e-06
0.00011774535
-1.5918898e-05
0.00020057628
0.00017128547
0.00031335534
0.00011829591
0.0003875521
2.0435029e-05
0.00015760821
-5.6306656e-05
-0.00018528826
-0.00011651786
-5.2927579e-05
-0.0001351127
0.00014777214
-7.9349752e-05
-0.00021440316
7.9075135e-05
-4.6268076e-05
-2.6230216e-05
-0.0002808197
-3.8871449e-05
-8.6932553e-05
7.4089468e-05
-0.00016241346
-0.00014084868
7.2535524e-05
-0.00015802089
3.1957198e-06
-0.00017807511
-7.9932516e-05
-2.7181426e-05
9.4413806e-05
-0.00011403438
-0.00013672212
0.00011148463
-6.237871e-05
-0.00027638672
0.00014977959
5.6240612e-06
-0.00037776493
0.00014460406
1.5619593e-05
-0.00035455122
6.5106347e-06
5.5999218e-05
-0.00014188051
-0.00024449556
8.0024033e-05
1.1666374e-05
-0.00024208791
0.00010881478
0.00014267235
-0.00020386878
0.00020797986
0.00011523587
-6.1828838e-06
0.00019647504
-3.6807414e-05
0.00012030285
0.00016310599
-5.5080251e-05
3.0939092e-05
3.4704376e-05
0.00022729436
-0.00030911823
1.1021547e-05
0.00023328271
-2.9045734e-05
-9.7036391e-06
8.5335345e-05
0.00014078125
-5.2959715e-06
-8.217328e-05
0.00014686327
-2.7098809e-05
-0.00012340404
4.7325027e-05
-4.6069532e-05
9.096723e-05
-0.00030180614
3.1014018e-05
1.7887487e-05
7.5188576e-05
-9.9285608e-05
-0.00012061491
0.00015719637
-7.8865992e-05
-0.00018965662
0.00010946606
-0.00012096086
-9.8316067e-05
-9.5416717e-05
-7.891521e-05
5.2078253e-05
-0.00015155952
-3.3467407e-05
0.00011651812
-9.49612e-05
6.7145271e-05
9.726939e-05
2.9221112e-05
-0.00027185243
0.00037879043
1.5602243e-05
-0.00019115973
-5.5251475e-05
8.3403325e-05
1.2306963e-05
-0.00065498899
5.1214955e-05
-0.00012835032
0.00010593578
-0.00023088399
-0.00019210704
5.7315529e-05
-0.00018042441
6.4824883e-05
-0.00049823602
-2.3151841e-05
0.00020402884
-2.9015675e-05
-0.00012229211
-1.4002486e-05
0.00034922342
-0.00010946484
-0.00044572933
0.00062168775
-1.2494232e-06
-0.0006879373
0.00046870539
1.35382e-05
-0.00058876682
2.26467e-06
-3.895837e-07
-0.0002719451
-0.00055967942
2.921329e-05
-0.00011944023
-0.00054764188
0.00014264236
0.00010416288
-0.00051602081
0.00021623937
0.00011573544
-0.00012814688
0.00025419215
-0.00010156583
0.00027935105
0.00020962201
-7.1241465e-05
-4.1853989e-05
-2.5737038e-06
0.0003363402
-0.00069754623
-6.9436094e-05
0.00044041898
-0.00015491943
-4.3021506e-05
0.00012408293
0.00047410813
-5.8310392e-05
-0.00036273079
0.00070806734
-6.688308e-05
-0.00028824778
5.8834071e-05
-1.4451232e-05
0.00016076873
-0.00073012533
-5.8080308e-06
0.00017138294
2.2823081e-05
-0.00011458079
-0.00021606214
0.00061593075
-0.00022597637
-0.00023446348
0.0001452058
-0.00017546332
1.1734663e-05
-0.0003621067
-5.8295497e-05
0.00023545814
-0.0003928797
1.5082719e-05
0.00035693686
-0.00030499641
0.00020882513
0.00043955252
0.00019389145
0.00026191601
9.7864486e-05
2.7915767e-05
0.00034032918
-7.3189883e-05
8.0825845e-05
-0.00017627151
-8.2410181e-05
0.00011610905
-0.00021168097
6.1134974e-06
0.00010839087
-0.00015104188
-0.00010188338
0.00013282068
-0.00031393774
-0.00025712301
0.00011004842
-0.0002277221
-0.00011521523
0.00017993569
-0.00014317249
0.00023456406
0.00014646901
-0.00014467337
0.00057230247
5.6781063e-05
-6.1834801e-05
0.00036174005
-6.9181179e-05
5.7726149e-06
-4.4816498e-05
-0.00021958854
-0.00026994128
-0.0001329788
-0.0002687537
-0.00035005681
-0.00025946315
-0.00028112173
-0.00033110725
-0.00041957645
-0.00015838836
-0.00013172248
-0.00041256956
-1.4466441e-05
0.0001748722
-0.00012177918
8.2400059e-05
0.00033057498
-0.00026384171
8.0975116e-05
-0.00015373973
-0.00012467639
-0.00015316769
-0.00012913873
-8.5847921e-05
-0.00022455081
1.4811618e-05
0.00036440383
-8.7668598e-05
0.00011697388
0.00065372058
-4.143552e-05
0.00019948407
-1.2713511e-05
0.00010635507
-0.00022449993
-0.00013374206
-4.2949364e-05
-0.00018667485
-2.2147685e-05
0.00012965969
-4.6115382e-05
0.00047517827
-4.0780129e-05
0.00011406543
-0.0001048003
1.377456e-05
0.00017803553
-0.00047120523
2.5518432e-05
5.6238696e-05
-0.00025414836
2.1282077e-05
-7.1767247e-05
-0.00011928159
8.5219247e-05
0.00033131037
0.00014504845
0.00034122761
-0.00027191624
9.02557e-05
0.00019373559
8.3173904e-05
2.174833e-05
-7.5483463e-05
0.00022972996
-1.1797821e-05
-0.00036177384
0.00033446489
-1.1359998e-05
-0.00045365217
3.409475e-05
6.9780886e-05
-0.00045207529
-0.00024205232
2.3926405e-05
-0.00037821952
-9.4751128e-05
3.0083993e-05
-0.00022668632
0.00012655475
0.00010591499
-2.3517604e-05
0.00034724648
2.3497844e-05
0.00011504692
0.00023185091
-9.5111493e-05
2.8804053e-05
0.00014947742
-0.00021307956
-0.00012864758
9.6582019e-05
-0.00012520086
-0.0001145973
-0.00016955203
-0.00019274519
-0.00010238684
-0.0003759182
-7.8378552e-05
-0.00013739597
-0.0003780432
-3.4282206e-05
-6.4404215e-05
-0.00029392965
-3.7925404e-05
-3.3974269e-05
-0.00028681092
4.4451472e-05
-0.00013891056
3.5298603e-05
-5.0139397e-05
-0.00023350224
0.00012707407
-0.00015738752
-1.8716676e-06
0.00014574851
-4.1240463e-05
0.00028134754
0.00034624844
4.2807885e-05
4.6724918e-05
0.00024315381
-3.2733957e-05
-0.000260491
0.00015373971
0.00010338415
-0.00030963569
5.8583331e-05
8.3471477e-05
9.8603874e-05
1.2900341e-05
0.00010357888
0.00013952089
-0.00016147878
5.684617e-05
7.9828717e-05
-0.0004855534
-2.7481878e-05
4.5040782e-05
-0.00018508904
-2.3782821e-05
-0.00012568403
6.9451455e-05
5.8832995e-05
0.00012622273
3.5592933e-05
-0.00025470731
0.00022305879
-0.00020984709
0.0002548238
-7.3687953e-05
0.00021441303
0.00010959975
0.00025795279
7.3326568e-05
0.00029084397
-0.00018004535
0.00021071233
-0.00030080089
9.768333e-05
-0.00023567199
5.7333553e-05
-2.7046075e-05
6.7742316e-05
8.7495967e-05
2.6014641e-05
0.00021076476
-2.4767109e-05
0.00036251427
-0.00010994434
0.00028405787
-0.00015145743
-7.0811275e-08
-0.00015257038
-0.00025376107
-0.00021657589
-0.0003867869
-0.00023899907
-0.00049342238
-0.00021890689
-0.0003809784
-9.6509559e-05
-0.00023060691
-4.6549737e-05
-0.00011084381
2.7225526e-06
0.00014800837
8.4124291e-05
0.000291742
0.00011559692
0.00034818618
8.8634298e-05
0.00029730098
9.3549638e-05
0.00029309653
0.00018839028
0.00013289477
0.00011701892
-0.00022453152
-0.00010769206
-0.00028017766
-0.00018574955
-0.00017170743
-0.00015553662
-9.8412272e-05
-0.00016407791
0.00011526552
-2.9360054e-05
-0.00028979871
7.5056543e-05
8.7904568e-06
-0.00010895785
-0.00029701074
7.5460419e-05
-6.3805124e-05
-0.00018296434
-2.5134676e-05
-7.8636545e-05
-0.00011458416
-2.8347719e-05
3.040257e-05
-0.00020203105
1.3063721e-05
0.00015674235
-0.00021816968
-2.0786522e-05
0.00029425737
-0.00023378645
3.3457054e-05
0.00022181158
9.5569546e-05
-1.358157e-05
0.00012589838
0.00016098185
-4.7654195e-05
5.2325892e-05
0.0001523175
-1.971268e-05
4.3389391e-05
0.0001429014
-5.0521145e-05
2.8392844e-05
0.00010058088
2.7886981e-05
5.0546336e-05
0.00010764456
8.2056051e-05
6.8258907e-06
0.00014196813
0.00010163284
-8.2822891e-05
0.00016698956
8.8612053e-05
8.7879178e-06
-0.00012098523
6.5726576e-05
0.00013301941
-0.00017504629
6.2302132e-05
5.0498419e-05
9.4354459e-05
-2.0479675e-05
-7.5466766e-05
0.00014542678
-2.4288512e-05
-0.00017928988
0.00014238901
-6.4679664e-05
-0.00023291798
8.8598682e-05
-7.9596697e-05
-0.00010424855
-7.8868323e-05
-2.0174634e-05
7.681534e-05
-0.00026868736
-1.2820655e-05
-3.5806305e-06
7.9401867e-05
-7.7146024e-05
-0.00014303995
8.9008022e-05
-6.9845369e-05
-4.0141171e-05
-0.00016160653
-1.9877231e-05
0.00019191817
-0.00033427907
6.5260803e-05
0.00017782269
-7.5362465e-06
8.8253884e-05
0.00013140728
7.4554542e-05
-0.00031451267
0.00032298376
0.00012239668
-0.00028472338
-9.4050226e-06
0.0001380756
-7.7728752e-05
-0.00061605322
0.00016326281
-0.00012861234
-0.00040602241
4.3057679e-05
-0.00016129898
-0.0002683089
5.9869648e-06
4.9619237e-06
-0.00043004893
3.8605139e-05
0.00016581923
-0.00050201286
6.9376652e-07
0.00034030205
-0.00057715921
5.9425097e-05
0.00039203134
-8.1234692e-06
5.0714298e-05
0.00011170009
0.0004519839
2.8673873e-06
-0.00012230203
0.00040318121
-1.7251187e-05
-4.0851182e-05
7.8118635e-05
1.2545204e-05
3.2047796e-05
2.8466901e-05
0.00014185735
0.00012111345
3.4906918e-05
0.00019991135
-1.8221099e-05
0.00031611302
0.00021938182
-7.201801e-05
0.00025161032
0.00017879816
0.00011649983
-0.00043093067
0.0001188539
0.0003345868
-0.00051601743
5.3448069e-05
0.00027052703
0.00018014955
-6.475683e-05
-0.00011812309
0.00060234892
-0.00012658242
-0.00041571113
0.00054056302
-0.00016746905
-0.00040518662
0.00019562625
-0.00013200332
-0.00016053464
-0.00024231603
-8.7012305e-05
8.6127094e-05
-0.00064149628
1.1566402e-05
-3.9094439e-05
0.00012305472
-0.00014440768
-0.00012007438
9.2553359e-05
-9.8028706e-05
8.1635477e-05
-0.00043537461
1.3762734e-05
0.00035500224
-0.00069320093
0.00010063783
0.00043559261
-6.2551536e-05
0.00018325006
0.00059598763
0.00016490371
0.00031474944
-8.3562742e-05
0.00011971282
0.00050905722
-0.00026545353
0.00014256658
4.5605548e-05
-0.00011523128
7.8738782e-05
-0.00020694904
-0.00014051047
9.5433521e-05
-7.4856334e-05
-0.0003758216
0.00010824067
-1.1596241e-05
-0.00040027292
1.7012312e-05
-0.00010310307
-0.00018092834
-4.9641994e-05
-0.00036878593
-9.3650025e-05
-7.1357333e-05
-0.00024351386
-6.1635343e-05
-1.4979136e-05
-0.00011023892
0.00030731282
-5.7785054e-05
-0.0001570851
0.00024251307
-1.207423e-05
-0.00021741165
-3.990676e-05
-9.0401757e-05
-4.109685e-05
-0.00028171098
-0.00014725865
0.00013684893
-0.00026613948
-3.5287739e-05
0.00023005454
0.00016283246
4.5608509e-05
0.00038869333
0.00012995651
4.5415086e-05
0.00021740229
-8.1878794e-05
-9.6785728e-05
-0.00012583149
-0.000152991
-0.00017296034
-0.00010415387
0.00010709178
-0.00017317067
-7.4508874e-05
0.00053600212
-5.0966807e-05
-8.4246958e-05
0.00045616795
5.269763e-05
8.0276174e-05
6.7926089e-05
6.9532088e-05
4.4358266e-06
-8.8524698e-05
-0.00012090035
-0.00033123142
-8.6332287e-05
-8.9837049e-05
-0.0001184189
-0.00018181525
5.127734e-05
0.00030732396
-0.00041440177
9.4986836e-05
0.00015102993
-0.00022274619
-3.081593e-05
-0.00026268977
-9.2263824e-05
-0.00016593532
-0.00014443207
-7.4069816e-05
-2.1520165e-05
0.00052464123
7.1962794e-05
0.00020809107
-0.00036694084
0.00016554273
0.00013799514
-0.00028255588
0.00010894661
-7.4798712e-05
7.0466667e-05
1.5298079e-05
-0.00020692831
4.1731862e-05
-6.1472734e-05
-0.00019313022
-0.00037008481
5.0246004e-05
-0.00015205843
-0.00042766877
1.0250467e-05
-0.00014077325
-7.6603739e-05
-8.5525807e-05
-0.00023936272
0.00014078854
-2.9934114e-05
-0.00027482777
8.9504751e-05
-9.2177216e-05
-1.1020286e-05
2.6770406e-05
-7.8376576e-05
0.00014360347
-2.5738169e-05
-9.9452098e-05
1.6758852e-05
0.00013542238
-0.0001736854
2.0811684e-05
-0.000270958
-0.00020755102
5.954097e-05
-0.00027654389
-0.00010670344
0.00017550641
2.0488345e-05
-7.9035265e-06
0.0002014331
5.227291e-05
1.3831501e-05
9.5642041e-05
9.0013932e-06
5.9362343e-05
-8.6225699e-05
-4.404655e-05
2.2783894e-05
-0.00013272645
0.00013891217
-0.00014270716
5.2495992e-05
0.00028329055
2.6248669e-05
0.0002459531
0.0002175148
8.8003907e-05
0.00024967923
9.3194661e-05
-6.1728659e-05
3.5613712e-05
0.00026482829
-3.5903316e-05
-0.00012959313
0.00015617313
6.1729168e-06
-7.3691375e-05
-0.00023252362
9.8385505e-05
6.4964921e-05
-0.00051303766
1.6825797e-05
4.4999839e-05
-0.00014458618
-8.5676778e-05
-0.00017363458
0.00021020213
-0.00010761433
-0.00027831126
0.00013664497
-4.7205086e-05
0.00024663257
3.5290347e-05
-0.00017744323
3.3561178e-05
-0.00022269615
1.7520855e-05
-2.7875311e-06
6.4971074e-05
0.00017831451
0.00011858261
-6.2934246e-05
0.00016200792
-0.00037268891
9.2798215e-05
-0.00039948071
4.7871385e-05
-0.00022761417
2.6255538e-05
-7.9315872e-05
8.9487585e-06
-4.639006e-06
-2.1891835e-05
6.4590268e-05
-0.00011973457
0.00026603482
-0.00017596652
0.00010629459
-0.00026267521
-0.00012826664
-0.00019455304
-0.00014546436
-0.00017888983
-0.00013411584
-0.00019807468
-0.00014876697
-0.00019525437
-0.00022055545
-6.8767632e-05
-0.00013056059
2.3675627e-06
6.1338894e-05
9.4113611e-05
0.00019427243
0.00016870555
0.0002083854
0.00019467861
0.00033789855
0.00022394945
0.00037697933
0.00021064201
0.00013331408
0.00019953193
-0.00026262467
-7.9979531e-08
-0.00040661382
-0.00010828907
-0.00027384306
-0.00010831817
-0.00019678238
-9.5952317e-05
-4.8562075e-05
-0.0001493488
0.00015678834
-3.6166181e-05
-0.000287238
0.00013010763
1.9360425e-05
-0.00018272605
-0.00012698482
9.7278615e-05
-0.00011906112
-0.00012997186
4.2044205e-05
3.674821e-05
-0.00025733514
7.2344717e-05
0.0002033845
-0.00026386746
0.00010942252
0.00027584476
-0.00020429007
0.0001113309
0.00024138514
-5.5666134e-05
0.00012432048
2.3570454e-05
0.00012793478
7.6507144e-05
-0.00012865676
7.8769973e-05
2.5129726e-05
-2.225657e-05
-0.00013288442
6.2904048e-06
0.00020831071
-0.00019395854
-8.8320959e-05
0.00021947894
0.00010942357
-8.9660511e-05
0.00013684394
0.00016754679
0.00010167036
0.00013905632
4.3532851e-05
0.00014907348
-1.7565836e-05
0.00012974311
-5.3205117e-05
0.00011951277
-1.960303e-05
-0.0001341297
0.00015547014
-9.3092852e-05
-0.0002224874
0.00015878244
-9.1829562e-05
-0.00020557952
2.3192124e-06
-8.1553525e-05
4.0326697e-05
-0.00026530779
-5.9688766e-05
5.1217023e-06
0.00010774694
-9.08557e-05
-0.00013808164
0.00012770067
5.1412165e-06
1.5646242e-05
-0.00024576743
1.5081217e-05
0.00014473404
-0.00023551921
3.6150606e-05
0.00024241533
-0.00017853903
6.0153977e-05
0.00026395237
-4.185213e-05
8.5009151e-05
0.00014727342
0.0001336072
7.1563032e-05
0.00013184332
8.8814829e-05
-0.00031835229
0.00043769814
0.00015983916
-0.0003300201
6.3850015e-05
0.00021600103
-0.00017780658
-0.00036934243
0.00025340691
-6.2287072e-05
-0.00032938206
0.00012694837
9.1206585e-05
-0.00053405028
0.00012920845
0.00023015278
-0.00056605978
0.00020185126
0.00035757594
-0.0004999875
0.00016896803
0.00041145788
-0.00023410594
0.00018398296
-4.5873518e-05
0.00048035145
0.00015562903
-0.00028567431
0.00022046918
0.00010096897
-0.00012212278
-0.00040944375
9.5756603e-05
0.00020499479
-0.00045787644
-5.0654466e-05
0.00037038025
0.00014455774
-5.8662286e-05
0.00025473954
0.00048309885
5.9152233e-05
0.00055402545
-0.00013435335
0.00052137724
3.5815494e-06
0.00011066211
8.0474993e-05
0.000149286
-5.3218601e-05
-0.00017799865
0.00052321001
-0.00017402307
-0.00035020275
0.00040382875
-0.00019942463
-0.00029849696
-0.00010228915
-0.00011456648
2.3152786e-05
-0.00066099787
-5.7962988e-05
-4.4480954e-05
0.00020572351
-0.00011735514
-8.0900165e-05
0.00012863114
4.7055136e-05
0.00013819241
-0.00060871972
-5.479559e-07
0.00026095566
-0.00052808989
7.1778731e-05
0.00046799428
-0.00045014183
7.8326919e-05
0.00058085254
-0.00014846425
9.439171e-05
0.00042772485
0.00042799649
4.1988464e-05
0.00062932359
9.51483e-05
0.00022936191
0.00025296023
7.5088826e-05
0.00039678616
-8.7271557e-05
0.0001262639
0.00021913887
-0.00019780817
8.4851808e-05
0.00011262218
-0.00026710785
0.000139676
5.5555537e-05
-0.00045555158
8.680861e-05
7.1483336e-05
-0.00051791257
-4.7062697e-05
6.6347617e-06
-0.00034930134
-0.00013547958
-8.7816219e-05
-7.9439783e-05
-0.00013157251
-1.5942508e-05
0.00039087658
2.6220097e-06
0.00019101884
-4.2426284e-05
-1.8509444e-06
4.1643209e-05
-0.00023567602
-3.6466343e-05
-0.00027785021
-0.00014390987
-8.4874926e-05
-7.5001271e-05
-0.00015713864
-4.8411223e-05
1.2732752e-05
0.00036007708
6.9236235e-05
0.00054313047
0.00015076039
0.00048526817
0.00012892921
3.5707559e-05
8.6938568e-05
3.7405069e-05
-1.9088774e-05
9.780277e-05
0.00043049804
-9.1322907e-05
0.0002365015
0.00027301177
-5.8848567e-05
0.00018344554
-6.5569032e-05
6.9033458e-05
-0.00026903782
-8.8697573e-05
-5.0284854e-05
-9.9410572e-05
-1.229334e-05
-7.2510755e-05
0.00027931822
-0.00020391281
-0.00013602188
0.00023702747
-0.00049064151
-2.4510114e-05
0.00019688162
-0.0004696543
7.6697106e-05
-2.3433914e-05
-0.00015766521
-0.00010297699
-8.4665867e-05
-8.0521672e-05
-0.00017264593
1.7441892e-05
0.00031657917
-1.2210576e-05
0.00063287572
8.5852577e-05
0.00033915156
-2.0052003e-05
9.9403413e-05
0.00034018656
-5.927861e-05
7.9918662e-05
0.00022692069
-0.0001674619
9.8217681e-05
8.7226123e-05
-0.00026443336
7.5547354e-05
8.5898241e-06
-0.00046302307
0.00013635379
-1.2193364e-05
-0.00049467805
7.7991281e-06
-3.8330471e-05
-0.00029031187
-0.00011837818
-0.00015279822
0.00011507255
-0.00010997872
5.8108056e-05
0.00012688693
-3.9093856e-05
0.00017510847
-0.00016473108
-7.3072221e-05
6.2842708e-05
-0.00018553984
-3.7322535e-05
-0.00011029774
-6.5680388e-05
-7.8774457e-05
-8.9654694e-05
-0.00025346146
-0.00013187126
1.0060597e-05
0.00015365835
0.00016506798
0.00038021956
0.00037997633
0.00028419132
0.00023373821
0.00024130802
-1.9568534e-06
0.00034798042
-5.2096397e-05
0.00014301454
0.00017962998
-3.6810495e-05
0.00031319769
1.6615087e-05
0.0001124622
0.0001478773
6.7936755e-05
0.00011981849
6.0299876e-06
1.715948e-06
-1.0294865e-05
5.5513937e-05
-7.5984264e-05
-2.1696349e-05
0.00016756837
-0.0002663516
-4.3442712e-05
0.00020165641
-0.00049535568
6.9011657e-05
0.00016065757
-0.00044739073
3.5561093e-05
-9.3898485e-07
3.8617551e-05
-0.00012036295
-0.00023915082
0.00021569717
-0.0001656213
-0.00018768146
0.00017068793
4.7216814e-05
0.00039851858
8.1966052e-05
0.00015670396
-0.00014319478
0.00029061003
-0.00017566382
0.00033842163
-0.00015030242
0.00031455448
-0.00012198361
9.2683541e-05
-7.914421e-05
-0.00022907611
-8.0120186e-05
-0.00036908379
-0.00010243281
-0.00016509436
-6.2661347e-05
5.6760941e-05
-8.6019626e-05
8.3261736e-05
-0.00021312372
3.5411664e-05
-0.00025742435
5.5608575e-05
-0.00026184384
-0.00014139476
-0.00031913334
-0.00018228945
1.9040283e-05
0.00010515692
0.00015121058
0.00026324297
0.00016718039
0.00027719206
0.00016804845
0.00022277055
0.0001651502
0.000263467
0.00019594585
0.00034268692
0.00011717463
0.00043400498
5.6647134e-05
0.00038218559
-3.8902008e-06
2.6110145e-05
6.0251706e-05
-0.00038522019
-3.6140352e-05
-0.00044278558
-1.2106104e-05
-0.00032940504
-6.0015163e-06
-0.00026473273
1.006333e-05
8.5223788e-05
-0.00014893702
0.00014844979
-3.6793367e-05
-0.00028847418
0.00016422183
-4.9403975e-06
-0.00024690015
2.5915116e-05
2.9473289e-05
3.2370056e-05
-0.00027636471
3.5972543e-05
0.00022515755
-0.00013027056
8.1075493e-06
0.00028026017
3.6349176e-05
1.7597612e-05
0.00027858237
9.2805502e-05
2.0960242e-05
0.0002097895
0.00014767575
4.6572021e-05
7.0860149e-05
0.00014889521
6.673383e-05
-8.4580068e-05
0.00016131125
1.9325878e-05
-9.570724e-05
4.547361e-05
-2.5933153e-05
0.000124666
-0.00031463318
4.3330119e-06
9.3999311e-05
-5.5945348e-05
-1.3497823e-06
0.00012006211
-0.00013502214
-0.00010211728
0.00014538837
-0.00013567631
-0.00019515999
0.00012300023
-0.00011985847
-0.00014616324
-9.3916989e-05
-3.6934281e-05
-3.4954646e-07
-0.00022706881
2.1896978e-05
8.2431713e-05
-0.00020044828
2.5323312e-05
-2.4850571e-05
7.4470695e-05
4.2107269e-05
9.2765945e-05
-0.00020871245
0.00010447503
0.00025098632
-0.00016776904
4.4885404e-05
0.00026957132
3.9420768e-05
2.2448973e-06
0.00020589331
0.00012725892
2.2245054e-05
0.0001218133
0.00012745812
2.8129795e-05
0.0001578293
5.2394746e-05
-0.00034925869
0.00058195617
7.5591471e-05
-0.00048820156
0.00039159634
0.0001275694
-0.00033477754
-2.6532856e-05
0.00015243086
3.8840001e-05
-0.00062186829
9.8834419e-05
0.0003087273
-0.0003269171
5.5967692e-05
0.00041553638
8.64589e-05
4.4932453e-05
0.00046908743
0.00018018662
2.8035863e-05
0.00038915233
0.00034638462
6.5209194e-05
1.5377982e-05
0.00058290883
9.5389758e-05
-0.0002142019
0.00042819257
6.3667527e-05
-0.00013717213
-6.7057606e-05
0.00013125805
0.00010289261
-0.00073250209
0.0001271497
8.9454029e-05
4.8775593e-05
0.00016328731
8.551607e-05
-0.00018195986
-0.00012901689
0.00047340077
-0.00020973128
-0.00022618362
0.00016338549
-0.00014264316
-0.00012570792
-0.00030239829
-6.5608934e-06
1.0215101e-06
-0.00053071537
0.00011895413
2.23156e-05
-0.00047602727
0.00013692975
-3.1061299e-06
-4.1391771e-06
0.00015108673
0.0001770137
-0.00049851458
0.00010913435
0.00046497588
-0.00042024694
3.6294457e-05
0.00044493625
0.00017702346
-3.9236123e-05
0.00027470926
0.0003808744
1.1003227e-05
0.00029773902
0.00014261987
3.7969705e-06
0.00052939253
2.1324098e-05
8.3982157e-05
0.00054957134
2.34915e-05
0.00026702596
0.00026385508
7.0961365e-05
0.00034504926
-8.0888092e-05
6.1183742e-05
-0.00011336688
-0.00010901354
8.5237397e-05
-0.00026938064
-0.00014716743
6.3072694e-05
2.968085e-06
-0.00025080373
1.785121e-05
0.00022809259
-0.00027354279
9.3125319e-05
0.00023331346
0.00015920529
5.0385944e-05
0.00022997735
0.00051074851
7.8118432e-05
0.00032836898
0.00032907047
-1.1204888e-06
0.000338344
-3.6999121e-05
-7.6499866e-05
-0.00018614978
-0.00010900881
-0.00018387444
-0.00011037728
-3.4729707e-05
8.3483826e-05
-3.098597e-05
1.3929437e-05
9.4445997e-05
0.00036601332
5.1023658e-06
0.00011798692
4.1226935e-05
3.9769052e-05
8.1385432e-05
-0.00023043929
3.3675943e-05
-5.8985924e-05
-0.00037810831
-6.2520563e-05
-0.00011539759
-0.00035856743
-0.00013355893
9.8892036e-05
-0.00037392977
1.9479093e-05
6.2542471e-05
-0.00050039996
1.3724842e-05
-8.9645677e-06
-0.00033907667
6.7033891e-05
8.395621e-06
4.3727034e-05
1.2959258e-05
-0.00010679776
0.00025934846
6.4073416e-05
-4.603642e-05
1.9405674e-05
5.0242321e-05
0.00046124711
0.0001079616
0.00029569984
0.00033476584
1.850908e-05
0.00043757445
0.00016971771
3.2181416e-05
0.00026710586
0.00013801121
4.9786968e-05
-2.101251e-05
0.00017122453
8.342765e-05
-0.00010853662
2.5418012e-05
5.1292461e-05
-3.6531997e-05
-0.000289125
-2.5884229e-05
1.0371452e-05
-0.00041770292
-2.1121502e-05
8.3794238e-05
-4.3039407e-05
1.8843183e-05
0.00024169703
0.00023624897
7.750288e-05
0.00045542147
6.3335125e-05
-2.1061335e-05
0.00035632804
0.0001134752
-8.8703453e-05
7.0177831e-05
0.00018731107
-8.8944156e-05
-8.4446644e-05
-8.762409e-05
-8.3708785e-05
8.6941746e-05
-8.6315336e-05
0.00018503387
4.8870158e-05
1.1590005e-05
0.00021322468
8.6831783e-06
0.00011681514
0.00015181621
-0.00024508284
0.00019587051
0.00011384398
-0.00037953351
2.9102556e-05
4.8237706e-05
-0.000318532
3.8744994e-06
-5.7674561e-06
-0.0003355726
-2.7794719e-05
-1.6776024e-05
-0.00051095517
9.057545e-05
-5.8484604e-05
-0.00033215474
7.0347764e-05
1.6253138e-05
-5.0015862e-05
-0.00010135777
-8.7264708e-06
0.00015669054
-3.7983732e-05
-0.00025847079
0.00034932374
-3.2956885e-05
0.00022189957
6.2842827e-05
0.0002560949
-6.4523839e-05
0.00031490762
-6.4758826e-05
0.00035691474
-5.4298329e-05
0.00045181552
-4.5659847e-05
0.0004643541
-6.6264783e-05
0.00018466891
-8.9559995e-05
-0.00019677859
-0.00013868823
-0.00021675671
-8.5722647e-05
-2.4653073e-05
-4.1874301e-05
1.0369903e-05
-0.00018481158
5.897444e-05
-0.0001925537
0.00017996047
-0.00019551883
-0.00022361952
9.5533305e-05
0.00015858883
0.000198604
0.0001138479
0.00033340126
3.9036111e-05
0.00027374433
1.0519933e-05
0.00016329029
-0.00015190485
0.00014363507
-0.00024222965
8.6290874e-05
-0.0002821186
-0.00014459497
-0.0002198176
-0.00036932286
-0.00014356718
-0.00039564095
-3.5803849e-05
-0.00035650082
0.00011154892
-0.00015119016
0.00015407646
0.00015593321
-0.00013647068
0.00011938219
-2.2031594e-05
-0.00027169701
0.00015891772
-2.9730664e-05
-0.00026935586
6.8001781e-05
-4.2273649e-05
-3.8921873e-05
-0.00017819998
-1.9481683e-05
0.00021591545
-0.00018011475
-6.894028e-05
0.00027856582
7.5949053e-05
-0.00011977632
0.00023742753
0.00014638991
-8.1635174e-05
0.00018118531
0.00018222101
-7.7605719e-05
0.00013284067
0.00017045332
-5.4765603e-05
8.3747172e-05
0.00015024636
-8.1994351e-05