/*--------------------------------*- C++ -*----------------------------------*\
| =========                 |                                                 |
| \\      /  F ield         | OpenFOAM: The Open Source CFD Toolbox           |
|  \\    /   O peration     | Version:  v2012                                 |
|   \\  /    A nd           | Website:  www.openfoam.com                      |
|    \\/     M anipulation  |                                                 |
\*---------------------------------------------------------------------------*/
FoamFile
{
    version     2.0;
    format      ascii;
    class       volScalarField;
    location    "590/bottomWater";
    object      T;
}
// * * * * * * * * * * * * * * * * * * * * * * * * * * * * * * * * * * * * * //

dimensions      [0 0 0 1 0 0 0];


internalField   nonuniform List<scalar> 
1460
(
972.26696
969.51971
966.73635
964.42541
962.95583
962.34594
959.88301
953.26822
947.73338
945.12912
943.39554
941.70293
942.39062
940.02761
932.0061
934.30631
938.06026
932.35246
936.64268
940.6445
941.05568
939.2493
936.02584
939.19089
938.5629
936.30749
933.9794
931.77508
931.31948
934.49097
969.8697
968.55475
965.41274
961.03885
959.98595
960.27914
958.38215
949.5807
945.2859
944.44008
943.44156
940.0851
938.8444
937.28003
929.76154
930.2984
931.64088
931.49868
931.80673
934.05362
936.07427
934.32344
933.10091
934.36352
933.62408
932.17687
931.25459
930.58523
929.79154
930.87309
969.57753
967.5005
964.01306
960.86486
959.95767
958.88582
957.58422
950.75921
946.35805
946.77227
944.81248
939.57256
938.23593
936.63051
928.77617
928.75385
931.50499
931.80218
932.41528
933.91347
935.9778
935.00805
933.12508
933.70165
933.37709
931.88394
931.50243
930.76797
929.63481
930.43764
968.585
965.28231
961.87936
960.88079
959.99762
956.8027
955.96399
954.07976
950.22483
949.34808
947.82186
944.61796
941.0681
938.72481
928.76702
928.28118
931.72195
932.44132
933.73464
934.1824
935.78304
934.84982
932.08688
931.93785
933.29229
932.26398
931.48509
930.37219
929.30019
929.8507
963.6184
963.65943
961.23639
960.68754
959.95131
958.157
958.47403
956.04725
951.28035
949.61352
946.42749
945.57127
944.93712
939.90184
928.37484
929.47868
930.992
931.86363
932.4432
932.95058
933.95467
933.59513
932.60303
931.59168
931.97582
931.42738
930.66511
929.78429
928.84749
928.81545
969.76286
967.87604
964.72793
962.50172
960.44862
959.00422
960.67309
958.12301
950.19122
943.31002
939.83819
937.06654
935.74982
937.19632
936.64914
935.5099
933.28575
927.89311
930.25711
933.10919
936.25208
935.8298
931.9747
935.06402
935.40524
933.98743
931.98664
930.98751
930.81369
932.22422
967.25415
965.95342
964.3174
959.58798
958.04504
957.68426
957.56819
957.6514
946.91493
940.0029
937.98031
936.49544
933.77563
932.66924
930.58824
930.93548
927.22675
927.05832
927.27014
928.70032
932.09302
932.33295
931.80316
931.67015
931.55223
930.55963
929.70397
929.84532
930.03072
930.58426
967.26157
967.09574
964.21105
958.94445
957.97799
957.37507
956.66543
955.02644
948.8233
942.28662
943.05926
937.52455
934.24308
931.51195
926.75978
927.56767
926.75675
927.03569
927.84631
928.68061
931.75064
932.57949
931.94038
931.96137
931.33121
930.50316
929.67167
929.82499
930.19524
930.54736
965.26525
965.54829
962.97375
957.84214
957.13647
956.09246
955.00621
954.12764
951.00228
944.7788
945.40864
941.59123
936.99713
934.451
925.59644
923.99311
925.70495
926.07206
927.83511
928.65908
931.67448
931.35758
931.67344
931.54912
931.4456
930.63751
929.34695
929.60987
930.40057
930.61513
963.39976
963.20458
961.69379
958.61487
959.26481
957.05317
954.33848
953.01841
951.81137
946.5174
945.24487
943.92795
942.47879
937.88378
924.19184
922.70748
923.80327
925.28543
926.74118
927.975
930.43238
930.21303
930.02821
929.64024
930.05664
929.86427
928.90375
929.1097
929.40169
929.57003
967.51763
965.68695
963.19494
960.27516
958.61518
956.71786
957.35313
956.60119
958.58955
957.83489
954.19884
945.84336
943.35441
942.34562
940.70577
936.84293
933.0251
930.0679
932.57685
934.79815
934.14065
932.9893
932.17704
930.70142
933.19601
932.26958
930.65768
929.0669
930.29522
931.49982
965.60252
964.80148
964.01368
959.08496
956.97627
955.39141
955.81895
955.2861
955.91021
956.09899
949.78274
941.87146
937.8613
936.6681
934.83816
932.82316
930.91917
928.03254
928.49526
929.55184
929.56816
929.42412
929.40984
929.99987
929.84043
929.65487
929.03702
929.64438
929.84512
930.32296
965.3273
964.89224
964.48585
959.41068
957.44847
955.17425
955.85324
954.8719
953.64812
953.76991
946.2912
938.24584
936.27977
934.25093
934.83495
932.9391
931.07672
927.68733
927.52517
929.16171
929.58172
930.06795
928.90198
929.9572
929.6163
929.09541
928.96708
929.70375
930.35807
930.38066
963.75539
963.48877
962.45867
959.66739
957.3896
954.33882
954.45251
954.0598
953.42682
953.18935
947.5989
944.08677
938.16371
932.66119
932.15934
931.29228
928.86588
925.19878
926.96549
928.93306
929.56472
929.12216
929.51933
930.41088
929.5593
928.85177
928.65228
929.96963
930.41927
930.44248
963.06697
962.64672
961.92257
959.03071
958.64504
954.0964
952.48436
952.26717
951.49827
950.50864
948.78294
946.07503
941.36299
930.27521
924.73249
923.54724
922.33278
922.60352
925.18179
927.15068
928.21066
928.08587
928.49339
928.73047
928.75846
928.56053
928.73763
929.24829
929.43505
929.71681
970.58942
968.52572
966.31766
966.41897
964.60577
961.68392
961.25775
961.27516
961.5708
949.11501
948.29496
939.08779
939.31159
940.34599
940.01323
937.795
933.42664
933.96529
932.44536
931.41588
929.84374
928.05154
932.42858
933.34401
929.01746
929.01687
928.98393
929.56854
930.72821
931.9108
967.19211
965.93148
965.10695
964.29476
963.25565
960.57097
959.50694
958.74475
957.76855
948.19992
948.41754
938.7939
937.50941
937.09156
935.89859
932.22842
929.04786
929.01632
926.45963
926.53365
926.12837
926.95404
929.32912
930.05486
927.46981
927.74923
927.98855
928.46653
929.10168
929.92584
966.84304
966.04916
965.77896
964.67215
962.90193
960.17002
959.00062
958.71507
956.92803
950.00424
951.71761
938.88367
934.15576
936.06394
934.93893
931.69398
928.45964
926.74829
925.56981
925.96043
926.83918
927.26264
927.97757
927.41491
927.41921
927.76028
927.96484
929.00516
929.14346
929.98247
965.63581
965.26014
965.35051
965.04444
963.20555
959.24017
957.69479
957.73909
956.56643
955.05697
953.63368
944.18677
934.13432
933.27783
933.97273
931.57291
929.86732
924.04139
925.23056
926.01244
926.75821
926.34843
926.16317
926.59375
927.18442
927.5639
927.83961
929.21862
929.52185
930.05525
965.57066
965.68755
965.33825
964.31001
963.06605
958.94523
956.4676
955.88961
955.61378
955.07395
952.88887
948.71743
935.57762
924.27976
930.02353
927.69274
925.73925
922.7739
921.95858
921.51259
923.71872
924.79662
925.7212
926.32206
926.78393
927.58529
928.31513
928.82178
929.13706
929.56765
969.05707
968.28862
966.96558
965.81421
965.70774
965.26344
964.94654
964.59996
963.23052
953.95029
950.54623
941.21771
928.24507
906.30834
924.39716
926.4613
926.00079
925.63068
927.209
928.66496
927.26219
927.8168
928.72135
930.04306
931.36296
933.05944
967.24924
966.36484
965.72639
965.75368
964.65991
963.55668
962.90737
962.29166
960.84108
951.93885
951.27543
943.50911
928.20585
903.33416
917.80809
923.27435
923.19577
923.9076
926.8739
927.03922
926.56498
927.22205
927.46543
928.19064
929.58761
930.86052
967.24145
966.51842
966.48101
965.89645
964.53056
964.60943
961.98979
962.24018
960.75258
955.32442
955.43069
944.76169
922.99623
900.04418
916.33128
921.58393
922.52223
923.50255
926.61353
926.75502
926.5261
927.30496
927.57848
928.71691
930.08256
930.84294
967.01346
966.63295
966.48759
966.20441
964.47103
964.84945
961.06838
961.09777
960.13947
957.59223
957.31854
955.2378
932.04252
902.14802
917.49034
920.80506
921.19446
922.1498
925.08393
926.59955
926.49572
927.05924
927.54421
928.64676
930.14787
930.81121
966.68888
966.44438
966.29048
966.14644
965.89764
965.67454
961.14936
957.91877
958.23531
956.621
952.829
950.44336
937.25063
907.30007
915.27033
916.97039
918.80266
921.99961
925.13385
926.37688
926.40588
926.69422
927.43111
928.39941
929.28411
929.75216
968.08256
967.29008
966.34619
965.48169
964.61535
965.16852
966.19849
966.78822
966.07186
963.62891
956.88116
952.18383
926.50166
907.0659
916.02847
921.30929
926.44542
932.78731
935.0741
932.29667
930.22651
928.90415
928.57906
929.02499
930.56967
932.84948
966.75721
966.18268
965.78518
965.66447
964.46468
963.61701
964.14804
964.63786
964.34737
961.90078
952.25642
938.15341
921.01139
907.38754
917.70399
920.59857
922.64166
925.60564
928.95593
928.77959
927.89673
927.83373
927.41559
928.70797
929.0274
930.26877
966.80815
966.28719
966.09527
965.93976
964.38171
963.87939
962.16741
963.89348
963.65016
962.06069
955.60479
946.0825
928.02002
909.85095
921.82649
923.26302
924.00675
926.95731
929.13148
928.65558
927.78636
928.22251
927.49818
928.96436
930.25888
930.46756
966.84543
966.49416
966.46129
966.44545
965.0604
963.9723
961.4243
963.33266
962.63799
961.85642
957.33219
951.82023
932.66579
912.46437
922.54755
923.88565
922.41217
927.34491
928.51469
928.34121
927.58849
928.06563
927.29932
928.32847
930.0218
930.61431
966.61699
966.39311
966.2557
966.19507
965.85584
965.35209
960.64942
960.14016
960.34389
958.16588
950.08356
947.79031
932.63838
914.29196
921.46556
922.80507
923.45812
926.78266
927.80044
927.82073
927.64315
927.50171
927.09638
927.75061
928.65162
929.2581
967.92607
966.9797
965.68441
964.58514
963.43278
961.51552
961.74579
962.5762
962.1759
959.02667
942.58323
928.53696
918.28364
914.14818
915.17804
915.49751
916.47559
922.65072
925.04008
926.22125
927.65342
929.23715
933.15143
932.38164
930.88647
929.47017
929.04122
929.89784
931.51236
934.27038
966.38845
965.79355
965.42444
965.34165
964.01152
960.7655
961.7571
962.08525
962.04618
957.4017
941.59784
929.04592
919.90954
917.2176
919.12134
918.40289
919.96003
926.18695
927.61768
927.46477
926.81491
927.14231
929.44317
929.68828
929.19449
929.22533
928.24673
928.44475
929.18491
930.67635
966.41792
965.8727
966.11569
965.91899
964.29892
960.28009
961.92844
962.44794
962.399
957.33851
941.24369
928.33717
921.41863
919.90934
920.84938
919.33741
921.2323
927.63205
928.57296
927.63771
927.30277
927.5065
929.55828
929.52747
928.94487
929.90365
928.23546
928.52556
929.29253
930.65508
966.45833
966.18917
966.20251
966.00188
964.52465
959.20454
960.6621
960.89236
960.43952
956.05219
941.19584
928.56778
923.01855
921.61032
922.54929
918.46938
921.60218
927.13678
929.78747
929.93809
928.95751
928.47182
929.66557
929.53311
929.99298
930.10194
928.22133
927.96943
928.7344
930.59409
966.2473
966.07599
965.99916
965.90352
965.69374
958.57035
958.15533
957.55323
955.60788
951.91366
941.44247
929.7588
926.56853
921.59932
919.3585
917.99834
922.60138
926.78348
927.28225
927.65249
927.67043
928.1086
929.07852
929.01829
929.07192
928.97288
928.29023
927.6504
927.26764
928.2639
967.51013
966.7666
965.41465
964.78336
960.5211
959.58533
960.29866
960.04003
956.75561
953.0083
942.52305
936.96245
931.42027
924.85584
921.19435
922.08663
924.64101
929.20021
930.91827
932.44216
935.06553
938.28747
941.35271
937.20668
935.01265
932.90978
930.40339
931.9819
933.59905
936.20013
966.27658
965.79018
965.67231
965.06475
961.24916
959.10626
960.18151
960.52425
957.69704
950.76351
939.73344
935.61336
932.88323
924.15947
922.85969
924.52099
927.43072
930.54381
929.62533
929.43646
930.51063
932.65947
935.43031
933.44538
931.92885
930.86817
930.52129
930.61296
931.20673
932.60785
966.27932
966.03147
965.87299
965.37027
961.64865
958.2449
960.36599
960.28885
957.93074
954.76376
938.91779
932.70187
932.49986
924.54538
925.53255
927.64355
928.20615
930.68747
930.7372
930.35066
930.66626
933.10958
934.88327
933.56825
932.09465
931.07894
930.72736
930.74117
931.2311
932.7212
966.25363
966.05464
965.68903
965.31745
962.00274
956.98151
959.58062
958.49472
957.99928
956.9419
937.03931
930.78935
931.09738
924.84605
927.48036
926.40082
927.58411
929.68402
930.84705
931.80507
931.76633
933.75976
934.46723
933.60969
932.17801
931.08829
930.86397
930.90179
931.92697
932.86392
965.92447
965.81012
965.6938
965.60754
962.42633
956.26534
955.26259
954.55238
954.50108
952.22875
936.73395
930.32036
929.50145
924.09085
922.95192
923.68568
927.42092
928.77183
928.61856
929.27687
930.27319
931.78131
932.66643
932.69105
931.5613
930.08665
928.5527
929.01809
930.35629
931.9325
967.69789
966.39568
964.57024
963.13698
961.02194
960.47078
960.48228
954.04988
947.53957
946.79611
940.1557
935.65369
935.79362
935.85783
936.20777
935.58451
929.22615
931.16096
934.10225
935.71193
935.31157
934.2448
934.72385
937.05679
935.2755
932.37127
931.04271
930.80843
932.46937
934.11715
966.19768
965.37463
965.03779
963.37042
961.52514
960.72193
960.70663
952.87038
950.23829
950.65401
941.1749
933.20813
932.04703
932.04969
932.43272
931.31523
928.88155
930.71711
931.79588
932.73323
932.06939
931.28361
932.58568
933.6805
931.76726
929.88552
929.32627
930.8198
930.82671
931.57527
966.06607
965.54662
965.19119
963.27565
960.83326
959.57147
960.81523
953.49501
953.50721
953.69119
941.81373
932.18178
931.07059
931.53961
932.56846
931.5895
931.49825
932.48832
931.92358
932.4033
930.69758
931.13698
932.77721
932.81089
931.87851
929.46824
929.51324
930.97619
931.43097
931.55973
965.83866
965.43543
965.0693
962.69437
960.24274
959.90784
960.32148
953.36704
954.25865
953.54969
943.087
932.40633
929.31867
928.67678
931.72385
931.75812
931.11857
932.13086
932.05613
932.49371
930.09395
930.73725
932.51682
932.04285
931.58781
928.94822
930.2978
931.6876
931.8479
931.68283
965.18033
965.13942
964.92383
962.11243
959.46029
959.23261
959.18059
952.75121
952.78264
951.74844
939.01517
930.13345
928.52695
924.6198
927.96862
929.62268
930.38092
931.24557
930.73463
929.90899
929.28627
930.27517
930.9632
930.96264
929.84715
929.06713
929.32854
930.36684
930.54011
930.95828
968.19195
966.2951
964.37651
962.1159
960.50122
952.7748
949.97628
948.71991
948.23262
945.98446
940.37637
935.49833
933.59517
933.03529
934.78636
934.5891
934.68387
935.8251
934.34381
932.85237
931.93692
931.9238
935.31689
937.55873
934.88538
930.68285
931.12836
930.26451
931.32229
933.22223
966.43904
964.99574
964.04646
963.10644
962.27381
958.77791
952.34421
951.54388
951.14572
948.99642
941.16729
933.07436
930.58071
929.26151
930.13772
931.1252
931.57516
932.64607
932.44987
931.92017
930.95513
930.53206
931.51005
933.25023
931.23087
929.35018
928.72601
929.36803
929.93661
930.75596
966.42943
965.26874
965.07252
963.22135
961.69526
958.09499
952.43807
953.08451
952.7038
951.96343
941.63461
931.63254
929.26071
928.16401
929.93352
931.46556
932.0857
932.69995
932.58561
932.79858
930.8617
930.4027
930.30624
933.24726
932.5216
929.44358
928.79924
929.58725
930.90221
930.75683
966.26469
965.28216
965.1564
961.96028
959.45318
958.0749
952.96158
953.19657
952.90576
952.03357
942.38143
930.92431
928.65444
928.09612
929.95275
931.38548
932.39651
932.81804
932.78319
932.89209
930.93831
930.07538
929.97423
933.13912
931.07631
928.03389
928.65999
929.84964
930.84993
930.73536
965.24025
964.29238
963.9912
961.92219
959.34895
958.11814
953.60778
953.25506
953.00266
952.15593
942.72744
930.32082
928.16983
927.77698
929.76364
930.59537
931.31586
931.99425
931.52637
931.33186
930.57988
929.85237
929.24718
928.79217
927.82469
927.72145
928.57432
928.92401
929.14286
929.29677
)
;

boundaryField
{
    minX
    {
        type            zeroGradient;
    }
    maxX
    {
        type            zeroGradient;
    }
    minY
    {
        type            fixedValue;
        value           uniform 1073;
    }
    minZ
    {
        type            zeroGradient;
    }
    maxZ
    {
        type            zeroGradient;
    }
    bottomWater_to_rightSolid
    {
        type            compressible::turbulentTemperatureCoupledBaffleMixed;
        refValue        nonuniform List<scalar> 
130
(
753.11044
761.18809
769.60793
777.93604
785.83844
793.09182
799.55699
805.15476
809.83321
813.57607
816.38196
818.25281
819.19073
747.16937
756.59146
766.19458
775.47842
784.10419
791.88634
798.7261
804.58252
809.43981
813.30503
816.19629
818.12118
819.08405
735.36561
747.86352
759.98649
771.16577
781.15575
789.89184
797.38517
803.68152
808.8362
812.90338
815.92465
817.92648
818.92572
717.82571
736.10913
752.27727
766.15145
777.90346
787.78276
796.01661
802.79362
808.26293
812.53407
815.68369
817.76192
818.79717
697.11044
725.00212
745.99873
762.45053
775.6648
786.40799
795.16224
802.25658
807.92246
812.31702
815.54416
817.66838
818.72486
697.2572
725.15481
746.14067
762.57227
775.76775
786.48817
795.22316
802.30282
807.95429
812.33311
815.5487
817.66624
818.7201
718.15225
736.44169
752.58401
766.41113
778.12081
787.96367
796.16204
802.90558
808.34164
812.58053
815.7042
817.76564
818.796
735.80238
748.26844
760.33864
771.46362
781.41131
790.10864
797.56281
803.81824
808.93598
812.97376
815.97822
817.97503
818.97664
747.62088
756.99917
766.53546
775.74755
784.32203
792.06367
798.86734
804.6885
809.5244
813.38521
816.27794
818.20442
819.16989
753.50082
761.53782
769.897
778.15827
786.00523
793.2159
799.64701
805.21659
809.88746
813.6407
816.46177
818.34561
819.28955
)
;
        refGradient     uniform 0;
        valueFraction   uniform 0.99248593;
        value           nonuniform List<scalar> 
130
(
754.45367
762.47498
770.83537
779.10839
786.94868
794.1401
800.5491
806.1077
810.74687
814.45588
817.23406
819.08383
820.01447
748.50777
757.86998
767.41021
776.64274
785.20206
792.92435
799.70981
805.52535
810.3447
814.17367
817.04476
818.95738
819.91427
736.7725
749.19588
761.24255
772.34581
782.25979
790.9333
798.37211
804.62137
809.73582
813.77378
816.7762
818.76439
819.75823
719.36563
737.50555
753.54885
767.33541
779.00722
788.81925
796.99574
803.72531
809.15954
813.40407
816.53383
818.59881
819.62952
698.6897
726.4318
747.28341
763.62538
776.7644
787.45041
796.14821
803.18944
808.8149
813.18197
816.39215
818.50705
819.55914
698.88797
726.6299
747.46815
763.78118
776.90251
787.55001
796.21952
803.24463
808.85258
813.19544
816.39177
818.50018
819.55069
719.71992
737.87568
753.8995
767.62285
779.24783
789.02403
797.16033
803.8536
809.24806
813.44998
816.54538
818.58842
819.61851
737.25237
749.6236
761.60805
772.65692
782.54121
791.17984
798.57819
804.77811
809.84628
813.84223
816.82757
818.81942
819.82539
749.00066
758.30464
767.76307
776.90126
785.41871
793.10734
799.85989
805.62893
810.42264
814.25642
817.13521
819.04852
820.00988
754.84205
762.81514
771.11004
779.30359
787.08612
794.23805
800.61737
806.13785
810.77287
814.50432
817.30682
819.17815
820.11615
)
;
        Tnbr            T;
        thicknessLayers List<scalar> 0();
        kappaLayers     List<scalar> 0();
        kappaMethod     fluidThermo;
        kappa           none;
        alphaAni        none;
        alpha           none;
        field           T;
    }
    bottomWater_to_leftSolid
    {
        type            compressible::turbulentTemperatureCoupledBaffleMixed;
        refValue        nonuniform List<scalar> 
130
(
919.57021
919.52646
919.42808
919.29092
919.11643
918.90427
918.66602
918.39659
918.11257
917.84537
917.60736
917.43586
917.34094
919.58144
919.53612
919.43571
919.28435
919.10021
918.87013
918.60987
918.33638
918.05619
917.77332
917.52694
917.3402
917.23204
919.61411
919.56878
919.46962
919.31168
919.10892
918.85147
918.57352
918.28931
918.00205
917.72022
917.45978
917.24789
917.11394
919.6826
919.64138
919.54814
919.39657
919.1866
918.91649
918.61517
918.30526
917.99445
917.6877
917.39437
917.13696
916.95007
919.73205
919.69157
919.6025
919.45805
919.25401
918.98949
918.66646
918.32251
917.97848
917.62934
917.28908
916.99647
916.78122
919.74547
919.705
919.61576
919.47
919.26126
918.98812
918.65597
918.30237
917.92906
917.53302
917.13206
916.79914
916.56156
919.72881
919.68736
919.59486
919.44127
919.2173
918.91491
918.58386
918.21817
917.81391
917.37488
916.92186
916.54581
916.33678
919.69457
919.65164
919.55457
919.39136
919.14977
918.84155
918.50302
918.12757
917.71805
917.26871
916.79195
916.42818
916.2374
919.65463
919.61056
919.51027
919.33939
919.1048
918.81989
918.48335
918.08678
917.67294
917.22877
916.75915
916.38955
916.19769
919.6308
919.58387
919.48413
919.31693
919.08518
918.79774
918.45167
918.07647
917.67308
917.23906
916.78201
916.40083
916.20405
)
;
        refGradient     uniform 0;
        valueFraction   uniform 0.99248593;
        value           nonuniform List<scalar> 
130
(
919.90121
919.8581
919.74225
919.60198
919.42327
919.19926
918.96518
918.6795
918.36185
918.08416
917.8239
917.6473
917.5483
919.91072
919.86427
919.75326
919.57991
919.40202
919.15708
918.87837
918.59703
918.30993
917.98939
917.73518
917.53994
917.42169
919.94063
919.89249
919.78864
919.61017
919.40602
919.11631
918.82833
918.54462
918.25373
917.9666
917.69507
917.46444
917.29621
920.02741
919.98738
919.89223
919.73408
919.51635
919.2173
918.8996
918.58765
918.27709
917.96857
917.66106
917.37416
917.0901
920.08489
920.04288
919.95333
919.80888
919.6045
919.3403
918.98568
918.62001
918.2809
917.92228
917.55614
917.24772
916.93501
920.09767
920.05583
919.96622
919.8211
919.61139
919.33651
918.97151
918.61672
918.24772
917.83828
917.37967
917.03194
916.68228
920.07835
920.03593
919.94355
919.79039
919.56653
919.21291
918.88126
918.51379
918.09794
917.63445
917.10613
916.64512
916.41368
920.04194
919.99848
919.90126
919.73864
919.47492
919.12275
918.77923
918.40127
917.99443
917.53138
916.94172
916.53257
916.33708
919.99671
919.95266
919.85151
919.66082
919.40807
919.12359
918.78922
918.34723
917.93674
917.48811
916.92627
916.49278
916.29036
919.9735
919.9198
919.81857
919.63713
919.38778
919.09321
918.71585
918.34081
917.93855
917.50141
916.97686
916.50535
916.29397
)
;
        Tnbr            T;
        thicknessLayers List<scalar> 0();
        kappaLayers     List<scalar> 0();
        kappaMethod     fluidThermo;
        kappa           none;
        alphaAni        none;
        alpha           none;
        field           T;
    }
    bottomWater_to_heater
    {
        type            compressible::turbulentTemperatureCoupledBaffleMixed;
        refValue        nonuniform List<scalar> 
92
(
733.89042
735.93038
740.01786
745.88537
724.44419
726.84074
731.65162
738.60802
704.63341
707.77615
714.151
723.59073
345.59297
342.90162
342.92682
345.58334
422.36591
419.08402
419.29114
422.77335
488.03601
485.31493
486.02228
489.67164
543.97713
542.3312
544.24141
548.65959
672.46646
590.26151
676.48561
590.51661
685.07402
595.1456
698.92866
602.67939
345.59297
345.58334
422.36591
422.77335
488.03601
489.67164
543.97713
548.65959
590.26151
602.67939
345.51227
345.51227
342.82608
342.85949
345.52947
345.52947
422.22781
422.22781
418.98275
419.21424
422.73055
422.73055
487.94134
487.94134
485.22964
485.96337
489.67094
489.67094
543.90579
543.90579
542.27256
544.20782
548.69376
548.69376
590.22758
590.22758
590.49618
595.15094
602.74345
602.74345
672.60295
676.62652
685.2665
699.19878
704.77104
708.00257
714.4823
724.00609
724.55909
727.09848
732.03562
739.05744
733.99305
736.16577
740.35749
746.27702
)
;
        refGradient     uniform 0;
        valueFraction   nonuniform List<scalar> 
92
(
0.99248593
0.99248593
0.99248593
0.99248593
0.99248593
0.99248593
0.99248593
0.99248593
0.99248593
0.99248593
0.99248593
0.99248593
0.99248593
0.99248593
0.99248593
0.99248593
0.99248593
0.99248593
0.99248593
0.99248593
0.99248593
0.99248593
0.99248593
0.99248593
0.99248593
0.99248593
0.99248593
0.99248593
0.99248593
0.99248593
0.99248593
0.99248593
0.99248593
0.99248593
0.99248593
0.99248593
0.99248593
0.99248593
0.99248593
0.99248593
0.99248593
0.99248593
0.99248593
0.99248593
0.99248593
0.99248593
0.99248593
0.99248593
0.99248593
0.99248593
0.99248593
0.99248593
0.99248593
0.99248593
0.99248593
0.99248593
0.99248593
0.99248593
0.99248593
0.99248593
0.99248593
0.99248593
0.99248593
0.99248593
0.99248593
0.99248593
0.99248593
0.99248593
0.99248593
0.99248593
0.99248593
0.99248593
0.99248593
0.99248593
0.99248593
0.99248593
0.99248593
0.99248593
0.99248593
0.99248593
0.99248593
0.99248593
0.99248593
0.99248593
0.99248593
0.99248593
0.99248593
0.99248593
0.99248593
0.99248593
0.99248593
0.99248593
)
;
        value           nonuniform List<scalar> 
92
(
735.4385
737.37649
741.44153
747.27634
726.04806
728.32378
733.08719
739.9996
706.32912
709.4063
715.72431
725.08403
350.06203
347.38839
347.39672
350.00043
426.23363
422.96743
423.14539
426.57753
491.40256
488.69346
489.37111
492.96874
546.90229
545.27404
547.15188
551.52402
674.35835
592.77109
678.39064
593.06762
686.89706
597.64437
700.6329
605.10685
349.97099
349.79682
426.16685
426.38442
491.30429
492.75539
546.89293
551.31554
592.86879
604.96822
349.87832
349.78507
347.12678
347.16234
349.74893
349.8196
425.97553
425.9472
422.74084
422.96519
426.37226
426.46677
491.24758
491.18718
488.50293
489.21979
492.82813
492.91372
546.82663
546.74389
545.13
547.02006
551.42707
551.49581
592.8004
592.71753
592.96729
597.57685
605.0844
605.14688
674.47393
678.45044
687.01527
700.87743
706.41904
709.61773
716.05427
725.53456
726.06234
728.60783
733.52031
740.49508
735.44916
737.6205
741.78696
747.66744
)
;
        Tnbr            T;
        thicknessLayers List<scalar> 0();
        kappaLayers     List<scalar> 0();
        kappaMethod     fluidThermo;
        kappa           none;
        alphaAni        none;
        alpha           none;
        field           T;
    }
}


// ************************************************************************* //
