/*--------------------------------*- C++ -*----------------------------------*\
| =========                 |                                                 |
| \\      /  F ield         | OpenFOAM: The Open Source CFD Toolbox           |
|  \\    /   O peration     | Version:  v2012                                 |
|   \\  /    A nd           | Website:  www.openfoam.com                      |
|    \\/     M anipulation  |                                                 |
\*---------------------------------------------------------------------------*/
FoamFile
{
    version     2.0;
    format      ascii;
    class       volScalarField;
    location    "80/heater";
    object      T;
}
// * * * * * * * * * * * * * * * * * * * * * * * * * * * * * * * * * * * * * //

dimensions      [0 0 0 1 0 0 0];


internalField   nonuniform List<scalar> 
80
(
530.86854
531.43443
532.57017
534.19682
527.09088
527.80394
529.25523
531.35753
518.92282
519.92835
522.05382
525.254
505.13408
506.442
509.55379
514.79348
333.84924
330.67404
330.70355
333.92101
385.4351
381.26386
381.38009
385.71643
424.81469
420.80693
421.11502
425.56716
453.88818
450.44826
451.21021
455.80288
473.82336
471.52355
473.31982
478.6983
484.32949
485.15706
488.82218
496.97185
333.8498
330.67415
330.70342
333.92008
385.43603
381.26417
381.37989
385.71522
424.81621
420.80759
421.11474
425.56554
453.88901
450.44861
451.21048
455.80142
473.82309
471.52364
473.32034
478.69892
484.32971
485.15732
488.8226
496.97234
505.13582
506.44289
509.55484
514.79329
518.92366
519.92945
522.05485
525.25493
527.09105
527.80465
529.25671
531.35933
530.86801
531.43471
532.57192
534.19919
)
;

boundaryField
{
    minY
    {
        type            fixedValue;
        value           uniform 300;
    }
    minZ
    {
        type            zeroGradient;
    }
    maxZ
    {
        type            zeroGradient;
    }
    heater_to_topAir
    {
        type            compressible::turbulentTemperatureCoupledBaffleMixed;
        refValue        nonuniform List<scalar> 
40
(
396.21085
398.69749
400.4665
401.44953
385.15079
385.31037
384.63121
383.29562
388.38346
389.45798
389.67848
388.90431
392.59719
395.23562
397.76542
400.1822
392.22528
394.25648
396.34996
398.67312
392.22505
394.25627
396.34978
398.67296
392.59684
395.23525
397.76501
400.18169
388.38341
389.45803
389.67866
388.90466
385.15072
385.31037
384.63134
383.29587
396.21062
398.69731
400.46643
401.4496
)
;
        refGradient     uniform 0;
        valueFraction   nonuniform List<scalar> 
40
(
0.00032132529
0.00032132529
0.00032132529
0.00032132529
0.00032132529
0.00032132529
0.00032132529
0.00032132529
0.00032132529
0.00032132529
0.00032132529
0.00032132529
0.00032132529
0.00032132529
0.00032132529
0.00032132529
0.00032132529
0.00032132529
0.00032132529
0.00032132529
0.00032132529
0.00032132529
0.00032132529
0.00032132529
0.00032132529
0.00032132529
0.00032132529
0.00032132529
0.00032132529
0.00032132529
0.00032132529
0.00032132529
0.00032132529
0.00032132529
0.00032132529
0.00032132529
0.00032132529
0.00032132529
0.00032132529
0.00032132529
)
;
        value           nonuniform List<scalar> 
40
(
530.79333
531.35963
532.4952
534.12114
527.01413
527.72676
529.17692
531.27751
518.85144
519.85668
521.98094
525.17902
505.07129
506.37925
509.49006
514.7276
484.27714
485.10469
488.76845
496.91464
484.27735
485.10494
488.76886
496.91513
505.07301
506.38013
509.49111
514.72742
518.85228
519.85778
521.98198
525.17995
527.01429
527.72747
529.1784
531.27931
530.7928
531.35991
532.49695
534.12351
)
;
        Tnbr            T;
        thicknessLayers List<scalar> 0();
        kappaLayers     List<scalar> 0();
        kappaMethod     solidThermo;
        kappa           none;
        alphaAni        none;
        alpha           none;
        field           T;
    }
    heater_to_rightSolid
    {
        type            compressible::turbulentTemperatureCoupledBaffleMixed;
        refValue        nonuniform List<scalar> 10(536.14297 533.8796 529.17816 521.88093 513.01937 513.0204 521.88101 529.17916 533.88136 536.14515);
        refGradient     uniform 0;
        valueFraction   nonuniform List<scalar> 10(0.49999997 0.49999997 0.49999997 0.49999997 0.49999997 0.49999997 0.49999997 0.49999997 0.49999997 0.49999997);
        value           nonuniform List<scalar> 10(535.15338 532.60234 527.20049 518.32267 504.98279 504.98355 518.32262 527.20146 532.60412 535.15565);
        Tnbr            T;
        thicknessLayers List<scalar> 0();
        kappaLayers     List<scalar> 0();
        kappaMethod     solidThermo;
        kappa           none;
        alphaAni        none;
        alpha           none;
        field           T;
    }
    heater_to_leftSolid
    {
        type            compressible::turbulentTemperatureCoupledBaffleMixed;
        refValue        nonuniform List<scalar> 10(550.2232 550.15239 549.97615 549.69162 549.41807 549.4168 549.69113 549.97501 550.15072 550.2212);
        refGradient     uniform 0;
        valueFraction   nonuniform List<scalar> 10(2.0832898e-05 2.0832898e-05 2.0832898e-05 2.0832898e-05 2.0832898e-05 2.0832898e-05 2.0832898e-05 2.0832898e-05 2.0832898e-05 2.0832898e-05);
        value           nonuniform List<scalar> 10(530.83699 527.06021 518.89403 505.10837 484.30809 484.3083 505.1101 518.89487 527.06037 530.83646);
        Tnbr            T;
        thicknessLayers List<scalar> 1(0.001);
        kappaLayers     List<scalar> 1(0.0005);
        kappaMethod     solidThermo;
        kappa           none;
        alphaAni        none;
        alpha           none;
        field           T;
    }
    heater_to_bottomWater
    {
        type            compressible::turbulentTemperatureCoupledBaffleMixed;
        refValue        nonuniform List<scalar> 
92
(
1011.7056
1007.9964
1007.4831
1011.0962
1011.0784
1006.1363
1005.8886
1010.7429
1006.8636
1000.3215
1000.4431
1006.8348
1010.4007
1008.6433
1008.485
1010.9061
1005.557
1007.0858
1006.947
1005.9964
1000.6271
1003.4134
1003.6914
1002.0368
991.53785
988.7185
988.11698
993.59745
990.41964
990.41964
982.13021
982.13021
981.77902
981.77902
991.31303
991.31303
1005.7613
1005.6473
1003.173
1002.9712
998.41422
998.19974
986.11349
985.51868
985.42708
983.98835
1005.8181
1010.5503
1008.6398
1008.5214
1005.5408
1010.6801
1003.2231
1005.6938
1007.1116
1006.9878
1002.8988
1005.8037
998.4468
1001.1031
1003.6084
1003.6511
998.15598
1001.5743
986.07955
991.87509
988.75184
988.42959
985.6058
992.56138
985.18422
990.76692
982.11117
981.9219
984.24242
990.99801
990.76692
982.11117
981.9219
990.99801
1006.9059
1000.4242
1000.3833
1006.7659
1011.042
1006.1346
1005.9321
1010.784
1011.6097
1007.9247
1007.5886
1011.2001
)
;
        refGradient     uniform 0;
        valueFraction   nonuniform List<scalar> 
92
(
0.0075140686
0.0075140686
0.0075140686
0.0075140686
0.0075140686
0.0075140686
0.0075140686
0.0075140686
0.0075140686
0.0075140686
0.0075140686
0.0075140686
0.0075140686
0.0075140686
0.0075140686
0.0075140686
0.0075140686
0.0075140686
0.0075140686
0.0075140686
0.0075140686
0.0075140686
0.0075140686
0.0075140686
0.0075140686
0.0075140686
0.0075140686
0.0075140686
0.0075140686
0.0075140686
0.0075140686
0.0075140686
0.0075140686
0.0075140686
0.0075140686
0.0075140686
0.0075140679
0.0075140679
0.0075140679
0.0075140679
0.0075140679
0.0075140679
0.0075140679
0.0075140679
0.0075140679
0.0075140679
0.0075140679
0.0075140686
0.0075140686
0.0075140686
0.0075140679
0.0075140686
0.0075140679
0.0075140686
0.0075140686
0.0075140686
0.0075140679
0.0075140686
0.0075140679
0.0075140686
0.0075140686
0.0075140686
0.0075140679
0.0075140686
0.0075140679
0.0075140686
0.0075140686
0.0075140686
0.0075140679
0.0075140686
0.0075140679
0.0075140686
0.0075140686
0.0075140686
0.0075140679
0.0075140686
0.0075140686
0.0075140686
0.0075140686
0.0075140686
0.0075140686
0.0075140686
0.0075140686
0.0075140686
0.0075140686
0.0075140686
0.0075140686
0.0075140686
0.0075140686
0.0075140686
0.0075140686
0.0075140686
)
;
        value           nonuniform List<scalar> 
92
(
534.44987
534.98343
536.10641
537.74749
530.69667
531.36699
532.80508
534.92745
522.56002
523.50853
525.61835
528.84169
338.93082
335.76619
335.79428
339.00582
390.08833
385.95976
386.07404
390.37076
429.13065
425.1737
425.48148
429.88786
457.91324
454.47762
455.22913
459.82855
508.75411
477.68621
509.98954
475.341
513.07452
477.12071
518.34524
482.53009
338.89595
338.9663
390.07041
390.34803
429.11402
429.85903
457.87248
459.76785
477.64869
482.47505
338.89694
338.9325
335.76627
335.79442
338.96458
339.0032
390.07171
390.09027
385.96027
386.07415
390.34629
390.36812
429.11577
429.13573
425.17582
425.48091
429.85709
429.88278
457.87305
457.91659
454.47822
455.23175
459.76707
459.81933
477.64659
477.68854
475.34094
477.1223
482.47758
482.52834
508.75843
509.99026
513.07663
518.34269
522.56117
523.51038
525.61892
528.84209
530.69657
531.36768
532.80688
534.92955
534.44862
534.98317
536.10894
537.75062
)
;
        Tnbr            T;
        thicknessLayers List<scalar> 0();
        kappaLayers     List<scalar> 0();
        kappaMethod     solidThermo;
        kappa           none;
        alphaAni        none;
        alpha           none;
        field           T;
    }
}


// ************************************************************************* //
