/*--------------------------------*- C++ -*----------------------------------*\
| =========                 |                                                 |
| \\      /  F ield         | OpenFOAM: The Open Source CFD Toolbox           |
|  \\    /   O peration     | Version:  v2012                                 |
|   \\  /    A nd           | Website:  www.openfoam.com                      |
|    \\/     M anipulation  |                                                 |
\*---------------------------------------------------------------------------*/
FoamFile
{
    version     2.0;
    format      ascii;
    class       volScalarField;
    location    "490/bottomWater";
    object      p;
}
// * * * * * * * * * * * * * * * * * * * * * * * * * * * * * * * * * * * * * //

dimensions      [1 -1 -2 0 0 0 0];


internalField   nonuniform List<scalar> 
1460
(
353.47321
353.47294
353.47457
353.47606
353.47735
353.46786
353.48955
353.46882
353.47545
353.47068
353.48059
353.4686
353.46957
353.46466
353.46766
353.46385
353.45349
353.45314
353.4751
353.47148
353.4751
353.47681
353.47367
353.46873
353.46419
353.46008
353.44365
353.45167
353.45623
353.45572
274.40052
274.39211
274.43276
274.45409
274.46259
274.46448
274.48201
274.41733
274.40191
274.41663
274.46078
274.46109
274.43768
274.42998
274.40421
274.40826
274.41045
274.43339
274.49659
274.49822
274.49196
274.4869
274.48586
274.47275
274.4679
274.45628
274.42683
274.41516
274.41709
274.43027
196.34333
196.29807
196.28857
196.2852
196.26715
196.27231
196.23992
196.29197
196.27707
196.30596
196.23361
196.28028
196.30458
196.30397
196.30317
196.29752
196.27046
196.2517
196.2425
196.2699
196.2753
196.27361
196.27729
196.27109
196.27435
196.25548
196.27683
196.28627
196.32297
196.33466
117.67893
117.67566
117.62215
117.6726
117.67404
117.64124
117.63967
117.6304
117.66649
117.63911
117.63308
117.66348
117.6752
117.61406
117.6893
117.67362
117.65122
117.66805
117.66641
117.67265
117.70253
117.70132
117.68065
117.67113
117.66784
117.65248
117.64688
117.66058
117.65653
117.61417
39.262777
39.255089
39.248988
39.226791
39.225655
39.223717
39.263788
39.274269
39.259171
39.250326
39.241105
39.23059
39.242154
39.270008
39.26319
39.261654
39.252175
39.241852
39.246052
39.227401
39.226391
39.231463
39.221857
39.226022
39.218492
39.230404
39.233903
39.241333
39.252163
39.29318
353.46839
353.4671
353.47022
353.4679
353.47087
353.45688
353.48388
353.46997
353.47301
353.47179
353.4619
353.46519
353.46459
353.45948
353.45942
353.4571
353.45763
353.45511
353.46076
353.47596
353.47339
353.4649
353.47119
353.46708
353.45987
353.4564
353.45365
353.45341
353.45598
353.4572
274.39389
274.40475
274.41531
274.40306
274.41159
274.41181
274.43215
274.41216
274.39066
274.40036
274.41276
274.41354
274.40202
274.39741
274.41587
274.42161
274.40801
274.40299
274.40977
274.46567
274.45057
274.41861
274.44506
274.42971
274.40544
274.42328
274.43395
274.41675
274.40651
274.41389
196.32496
196.30176
196.31482
196.31173
196.31453
196.29016
196.2425
196.29286
196.28859
196.31618
196.28029
196.303
196.32023
196.30782
196.30768
196.31093
196.31333
196.27651
196.25032
196.23665
196.26093
196.28392
196.26825
196.27484
196.28831
196.30237
196.3017
196.29259
196.31502
196.32702
117.64747
117.62659
117.61672
117.66644
117.66921
117.62507
117.63769
117.61678
117.6691
117.65567
117.61881
117.65818
117.6715
117.66075
117.60822
117.62686
117.65655
117.66079
117.6451
117.64585
117.66188
117.6323
117.6133
117.60719
117.62581
117.62042
117.61139
117.61832
117.66851
117.66314
39.276195
39.285703
39.246995
39.232379
39.228062
39.227701
39.258344
39.280527
39.26734
39.258337
39.259707
39.240571
39.241257
39.255363
39.279544
39.268386
39.238271
39.246119
39.24745
39.237166
39.222268
39.225138
39.232658
39.257604
39.243826
39.269242
39.285485
39.25222
39.239139
39.243676
353.47538
353.48615
353.47512
353.46347
353.46505
353.46555
353.46895
353.4705
353.46816
353.4713
353.48454
353.45992
353.47383
353.46661
353.49144
353.48025
353.47144
353.47702
353.46951
353.47106
353.46938
353.47093
353.47679
353.47816
353.47889
353.47114
353.48341
353.47361
353.44581
353.45669
274.43315
274.46491
274.44897
274.41747
274.41213
274.40114
274.41249
274.39469
274.38752
274.41094
274.45208
274.42006
274.41924
274.42728
274.4643
274.44206
274.40687
274.38699
274.39063
274.40477
274.40122
274.39334
274.39148
274.38466
274.393
274.40286
274.46718
274.46737
274.41057
274.42563
196.29124
196.25798
196.27713
196.31217
196.30673
196.32192
196.31018
196.32794
196.28324
196.26589
196.22035
196.27342
196.2897
196.27901
196.25698
196.26414
196.28704
196.30258
196.30501
196.27986
196.29813
196.29548
196.29855
196.30021
196.30782
196.28637
196.25038
196.24345
196.26655
196.30084
117.61731
117.61926
117.63473
117.67208
117.6629
117.67155
117.6412
117.67648
117.66561
117.63445
117.64678
117.64912
117.6694
117.63291
117.65134
117.65006
117.62445
117.67413
117.66511
117.62972
117.64986
117.65645
117.66104
117.67824
117.68816
117.64699
117.64287
117.64208
117.64131
117.66828
39.277692
39.248696
39.220888
39.235495
39.240158
39.243881
39.270468
39.266991
39.258302
39.258855
39.250746
39.23626
39.225242
39.244081
39.258473
39.241583
39.267722
39.273267
39.26023
39.276
39.263052
39.256136
39.259325
39.265153
39.273173
39.261426
39.267884
39.255392
39.23086
39.230076
353.4766
353.48004
353.48456
353.47947
353.47757
353.47015
353.47459
353.4773
353.46451
353.47911
353.48413
353.47842
353.48657
353.48302
353.46907
353.46946
353.46677
353.47106
353.46639
353.4634
353.46895
353.46844
353.46179
353.45864
353.4547
353.45852
353.46726
353.47556
353.46593
353.45538
274.41738
274.4581
274.48413
274.46442
274.45324
274.42967
274.4044
274.3974
274.4029
274.46388
274.51146
274.47008
274.48492
274.47164
274.43742
274.42718
274.40058
274.39133
274.39687
274.39633
274.38759
274.39696
274.41327
274.4213
274.43337
274.40494
274.42491
274.46593
274.45164
274.43218
196.31161
196.26158
196.28804
196.26546
196.2468
196.23753
196.27517
196.27793
196.23799
196.23232
196.22395
196.25643
196.25649
196.27092
196.29245
196.29443
196.30287
196.32933
196.3394
196.30201
196.31883
196.34187
196.31789
196.32399
196.3325
196.31254
196.29899
196.28194
196.27484
196.3159
117.66205
117.64517
117.6821
117.6723
117.65506
117.63965
117.66592
117.67178
117.62107
117.6554
117.63527
117.66973
117.70522
117.66906
117.63274
117.61871
117.62074
117.66727
117.67893
117.64559
117.67783
117.66505
117.62222
117.61732
117.60863
117.66701
117.61163
117.64129
117.65579
117.68047
39.243816
39.240008
39.234543
39.228498
39.235121
39.251127
39.249989
39.268792
39.253088
39.248078
39.233403
39.204488
39.231506
39.220571
39.236552
39.275766
39.281122
39.267813
39.272902
39.266137
39.260433
39.237297
39.254224
39.298112
39.286685
39.246158
39.246551
39.219966
39.209072
39.226613
353.46535
353.46839
353.47364
353.46484
353.46267
353.47045
353.47009
353.47494
353.46765
353.46998
353.47475
353.48114
353.48514
353.46595
353.46115
353.48156
353.47596
353.47391
353.48335
353.4968
353.48898
353.49012
353.47496
353.47502
353.4797
353.45848
274.42183
274.45072
274.47235
274.439
274.41853
274.406
274.39856
274.39486
274.39678
274.43223
274.45026
274.46872
274.49319
274.40427
274.41339
274.4352
274.41497
274.40642
274.42153
274.45123
274.45521
274.45489
274.42328
274.3983
274.45437
274.43253
196.31108
196.27179
196.26179
196.26747
196.27719
196.3004
196.32236
196.30345
196.2609
196.2523
196.24068
196.26088
196.26023
196.2833
196.28265
196.24405
196.28614
196.29177
196.27382
196.25362
196.27199
196.27372
196.30318
196.29055
196.26456
196.2959
117.66658
117.65876
117.65777
117.65353
117.63201
117.6577
117.67822
117.68755
117.66365
117.64247
117.65522
117.68541
117.7098
117.651
117.61764
117.65102
117.62414
117.67288
117.65157
117.65028
117.65797
117.68198
117.65524
117.6814
117.64985
117.64851
39.236132
39.234595
39.238335
39.232528
39.261463
39.255433
39.265566
39.270596
39.257036
39.248232
39.230699
39.210507
39.235271
39.234994
39.252911
39.241135
39.249186
39.220051
39.218557
39.233786
39.225126
39.224241
39.222672
39.230765
39.232494
39.247631
353.45506
353.45535
353.45647
353.45699
353.46401
353.46629
353.46208
353.46438
353.46666
353.46823
353.46474
353.46786
353.47191
353.46385
353.4686
353.47578
353.48685
353.48533
353.48711
353.49057
353.47946
353.48328
353.47437
353.46161
353.46629
353.46565
274.40768
274.41942
274.42233
274.4001
274.39922
274.40038
274.39639
274.4073
274.4216
274.42484
274.40754
274.41702
274.44093
274.42317
274.41116
274.4533
274.46141
274.41512
274.38161
274.40905
274.40952
274.45084
274.44911
274.42881
274.41102
274.40555
196.31945
196.28811
196.30182
196.2858
196.30866
196.29574
196.29631
196.27342
196.28887
196.27987
196.27232
196.26874
196.26476
196.32078
196.31096
196.26191
196.24716
196.2767
196.28607
196.31001
196.27669
196.27885
196.26148
196.28481
196.29015
196.32327
117.65617
117.62783
117.62915
117.65923
117.68239
117.66914
117.65926
117.62252
117.61612
117.61725
117.63284
117.61488
117.65077
117.67179
117.66177
117.64807
117.64608
117.63446
117.65785
117.60208
117.63501
117.65079
117.64301
117.61622
117.64024
117.66149
39.244383
39.267909
39.272666
39.238489
39.239814
39.237711
39.2438
39.264559
39.291689
39.269518
39.235217
39.214648
39.197547
39.22663
39.217814
39.236584
39.264186
39.239271
39.253063
39.272034
39.252664
39.236952
39.237458
39.261589
39.250321
39.255703
353.45877
353.45772
353.46056
353.45976
353.45576
353.47386
353.46434
353.49237
353.49319
353.47109
353.47765
353.47238
353.47853
353.47216
353.4726
353.47693
353.48373
353.48462
353.47801
353.46087
353.50138
353.48912
353.48573
353.49264
353.48616
353.4846
353.48612
353.45786
353.46359
353.46609
274.40573
274.40294
274.40336
274.41068
274.42533
274.44413
274.42659
274.49455
274.4804
274.41347
274.39758
274.39049
274.4093
274.4056
274.38981
274.42906
274.46428
274.46159
274.42699
274.43795
274.46
274.41366
274.37064
274.37599
274.37772
274.40973
274.44339
274.41032
274.39721
274.40243
196.33096
196.31378
196.30828
196.30217
196.31313
196.28179
196.27538
196.23038
196.23814
196.26652
196.29588
196.30501
196.29176
196.31801
196.2861
196.27054
196.26678
196.27024
196.31132
196.27956
196.25005
196.25099
196.2822
196.30924
196.27884
196.26784
196.25919
196.27071
196.29143
196.32871
117.67003
117.66619
117.67375
117.66345
117.65477
117.66671
117.64985
117.65317
117.65783
117.64021
117.67349
117.66116
117.61739
117.64267
117.66069
117.62776
117.66192
117.68262
117.65388
117.61815
117.63136
117.60324
117.66619
117.67892
117.65867
117.65194
117.66493
117.63839
117.65765
117.67193
39.257487
39.257714
39.254396
39.24304
39.235937
39.223815
39.224202
39.245608
39.244269
39.253651
39.253929
39.245453
39.269942
39.285301
39.245751
39.254171
39.227832
39.233062
39.217908
39.251787
39.271466
39.263644
39.267211
39.281475
39.254325
39.258068
39.240818
39.260923
39.25448
39.264673
353.45909
353.4526
353.46678
353.4575
353.46106
353.47927
353.46185
353.4806
353.47602
353.46766
353.47331
353.47755
353.47722
353.47162
353.48163
353.47963
353.4847
353.48835
353.48915
353.48947
353.4895
353.4874
353.48683
353.48632
353.48492
353.48862
353.4873
353.47042
353.45443
353.46335
274.41516
274.41397
274.4472
274.41619
274.43145
274.46759
274.46266
274.50237
274.45817
274.40209
274.3928
274.39115
274.38672
274.40402
274.4278
274.44933
274.46591
274.4865
274.46805
274.44449
274.41535
274.3856
274.37485
274.38124
274.38281
274.37656
274.45513
274.43263
274.41015
274.40787
196.30239
196.29459
196.2486
196.28837
196.31505
196.26528
196.26822
196.23263
196.25192
196.26956
196.30705
196.32034
196.28884
196.27996
196.23988
196.26476
196.25901
196.26788
196.2735
196.23232
196.26446
196.27979
196.32201
196.33158
196.32697
196.30969
196.24651
196.26669
196.28834
196.30787
117.67986
117.65484
117.66531
117.66225
117.66954
117.68722
117.65216
117.63249
117.6408
117.62638
117.67386
117.68137
117.6684
117.62756
117.64628
117.64739
117.67626
117.69299
117.6654
117.63351
117.62661
117.65649
117.68304
117.66762
117.68411
117.66984
117.62942
117.66671
117.6596
117.67411
39.244984
39.23881
39.247739
39.240286
39.23043
39.221151
39.204236
39.243434
39.260791
39.262618
39.271008
39.275773
39.265698
39.270734
39.24197
39.228409
39.222389
39.225929
39.214341
39.233139
39.250297
39.245308
39.266936
39.271888
39.268609
39.257474
39.259221
39.240805
39.252635
39.254906
353.46283
353.45422
353.475
353.45603
353.45498
353.45466
353.45227
353.45494
353.45427
353.45906
353.4693
353.4568
353.47603
353.46904
353.48137
353.47197
353.4714
353.48681
353.49029
353.49081
353.48981
353.489
353.47681
353.49609
353.47653
353.48296
353.4878
353.48417
353.45092
353.46766
274.41008
274.41427
274.46957
274.43688
274.42176
274.42217
274.42689
274.4314
274.41627
274.40074
274.39949
274.4101
274.42573
274.39932
274.3902
274.39649
274.40299
274.44746
274.43853
274.37137
274.38736
274.39739
274.4031
274.42986
274.41173
274.4036
274.40911
274.42348
274.40924
274.41799
196.29402
196.26842
196.25439
196.26527
196.29575
196.32215
196.29129
196.27339
196.28274
196.30464
196.31417
196.30768
196.27019
196.31325
196.31477
196.2806
196.25603
196.2589
196.23396
196.28199
196.29124
196.28046
196.2809
196.241
196.26776
196.28047
196.30519
196.25196
196.31177
196.30368
117.67598
117.64177
117.67095
117.65585
117.68062
117.68019
117.65179
117.62704
117.61617
117.65744
117.68552
117.63956
117.646
117.66059
117.67588
117.64887
117.63356
117.66991
117.6241
117.66464
117.68404
117.64774
117.62496
117.65024
117.6267
117.65955
117.63183
117.65036
117.66319
117.66136
39.250183
39.24837
39.229445
39.225349
39.216045
39.22182
39.222915
39.242537
39.257931
39.260316
39.266322
39.275506
39.272735
39.249836
39.248056
39.252582
39.256346
39.218316
39.255314
39.247244
39.246762
39.232664
39.256635
39.251061
39.252343
39.241884
39.247833
39.224688
39.227822
39.241129
353.46913
353.46452
353.47833
353.47811
353.46293
353.45582
353.457
353.46083
353.46351
353.46476
353.45814
353.47688
353.48455
353.48451
353.48384
353.48422
353.47699
353.47559
353.47728
353.47851
353.48021
353.49175
353.48781
353.49559
353.49151
353.48445
353.48766
353.4661
353.46184
353.47311
274.41504
274.41597
274.47763
274.51012
274.46395
274.43915
274.43536
274.41584
274.41082
274.41352
274.42086
274.44834
274.46904
274.43326
274.38442
274.3922
274.38152
274.41276
274.42157
274.39159
274.41605
274.44855
274.455
274.48214
274.47245
274.46303
274.48201
274.42046
274.39718
274.40448
196.30944
196.27071
196.25353
196.24187
196.25513
196.30362
196.29069
196.30241
196.30658
196.30099
196.27954
196.26464
196.27587
196.25333
196.29926
196.32643
196.29325
196.27896
196.28629
196.2789
196.26187
196.25301
196.27567
196.27947
196.26946
196.28131
196.24177
196.25652
196.27897
196.31604
117.68003
117.63068
117.64996
117.64549
117.65644
117.66517
117.66882
117.65932
117.67403
117.69414
117.66267
117.68823
117.67537
117.64403
117.6739
117.67688
117.66555
117.63726
117.62839
117.67256
117.62591
117.66123
117.66313
117.68727
117.68272
117.65633
117.63901
117.64067
117.65893
117.67951
39.267215
39.260051
39.255413
39.248436
39.225412
39.22535
39.235919
39.230281
39.238647
39.245663
39.26314
39.249963
39.246206
39.268948
39.266328
39.272981
39.263709
39.242202
39.284439
39.244
39.259441
39.229783
39.229971
39.234493
39.225715
39.218679
39.247448
39.250025
39.248122
39.256326
)
;

boundaryField
{
    minX
    {
        type            calculated;
        value           nonuniform List<scalar> 
50
(
353.47321
274.40052
196.34333
117.67893
39.262777
353.46839
274.39389
196.32496
117.64747
39.276195
353.47538
274.43315
196.29124
117.61731
39.277692
353.4766
274.41738
196.31161
117.66205
39.243816
353.46535
274.42183
196.31108
117.66658
39.236132
353.45506
274.40768
196.31945
117.65617
39.244383
353.45877
274.40573
196.33096
117.67003
39.257487
353.45909
274.41516
196.30239
117.67986
39.244984
353.46283
274.41008
196.29402
117.67598
39.250183
353.46913
274.41504
196.30944
117.68003
39.267215
)
;
    }
    maxX
    {
        type            calculated;
        value           nonuniform List<scalar> 
50
(
353.45572
274.43027
196.33466
117.61417
39.29318
353.4572
274.41389
196.32702
117.66314
39.243676
353.45669
274.42563
196.30084
117.66828
39.230076
353.45538
274.43218
196.3159
117.68047
39.226613
353.45848
274.43253
196.2959
117.64851
39.247631
353.46565
274.40555
196.32327
117.66149
39.255703
353.46609
274.40243
196.32871
117.67193
39.264673
353.46335
274.40787
196.30787
117.67411
39.254906
353.46766
274.41799
196.30368
117.66136
39.241129
353.47311
274.40448
196.31604
117.67951
39.256326
)
;
    }
    minY
    {
        type            calculated;
        value           nonuniform List<scalar> 
292
(
392.4
392.4
392.4
392.4
392.4
392.4
392.4
392.4
392.4
392.4
392.4
392.4
392.4
392.4
392.4
392.4
392.4
392.4
392.4
392.4
392.4
392.4
392.4
392.4
392.4
392.4
392.4
392.4
392.4
392.4
392.4
392.4
392.4
392.4
392.4
392.4
392.4
392.4
392.4
392.4
392.4
392.4
392.4
392.4
392.4
392.4
392.4
392.4
392.4
392.4
392.4
392.4
392.4
392.4
392.4
392.4
392.4
392.4
392.4
392.4
392.4
392.4
392.4
392.4
392.4
392.4
392.4
392.4
392.4
392.4
392.4
392.4
392.4
392.4
392.4
392.4
392.4
392.4
392.4
392.4
392.4
392.4
392.4
392.4
392.4
392.4
392.4
392.4
392.4
392.4
392.4
392.4
392.4
392.4
392.4
392.4
392.4
392.4
392.4
392.4
392.4
392.4
392.4
392.4
392.4
392.4
392.4
392.4
392.4
392.4
392.4
392.4
392.4
392.4
392.4
392.4
392.4
392.4
392.4
392.4
392.4
392.4
392.4
392.4
392.4
392.4
392.4
392.4
392.4
392.4
392.4
392.4
392.4
392.4
392.4
392.4
392.4
392.4
392.4
392.4
392.4
392.4
392.4
392.4
392.4
392.4
392.4
392.4
392.4
392.4
392.4
392.4
392.4
392.4
392.4
392.4
392.4
392.4
392.4
392.4
392.4
392.4
392.4
392.4
392.4
392.4
392.4
392.4
392.4
392.4
392.4
392.4
392.4
392.4
392.4
392.4
392.4
392.4
392.4
392.4
392.4
392.4
392.4
392.4
392.4
392.4
392.4
392.4
392.4
392.4
392.4
392.4
392.4
392.4
392.4
392.4
392.4
392.4
392.4
392.4
392.4
392.4
392.4
392.4
392.4
392.4
392.4
392.4
392.4
392.4
392.4
392.4
392.4
392.4
392.4
392.4
392.4
392.4
392.4
392.4
392.4
392.4
392.4
392.4
392.4
392.4
392.4
392.4
392.4
392.4
392.4
392.4
392.4
392.4
392.4
392.4
392.4
392.4
392.4
392.4
392.4
392.4
392.4
392.4
392.4
392.4
392.4
392.4
392.4
392.4
392.4
392.4
392.4
392.4
392.4
392.4
392.4
392.4
392.4
392.4
392.4
392.4
392.4
392.4
392.4
392.4
392.4
392.4
392.4
392.4
392.4
392.4
392.4
392.4
392.4
392.4
392.4
392.4
392.4
392.4
392.4
392.4
392.4
392.4
392.4
392.4
392.4
392.4
392.4
392.4
392.4
392.4
)
;
    }
    minZ
    {
        type            calculated;
        value           nonuniform List<scalar> 
150
(
353.47321
274.40052
196.34333
117.67893
39.262777
353.47294
274.39211
196.29807
117.67566
39.255089
353.47457
274.43276
196.28857
117.62215
39.248988
353.47606
274.45409
196.2852
117.6726
39.226791
353.47735
274.46259
196.26715
117.67404
39.225655
353.46786
274.46448
196.27231
117.64124
39.223717
353.48955
274.48201
196.23992
117.63967
39.263788
353.46882
274.41733
196.29197
117.6304
39.274269
353.47545
274.40191
196.27707
117.66649
39.259171
353.47068
274.41663
196.30596
117.63911
39.250326
353.48059
274.46078
196.23361
117.63308
39.241105
353.4686
274.46109
196.28028
117.66348
39.23059
353.46957
274.43768
196.30458
117.6752
39.242154
353.46466
274.42998
196.30397
117.61406
39.270008
353.46766
274.40421
196.30317
117.6893
39.26319
353.46385
274.40826
196.29752
117.67362
39.261654
353.45349
274.41045
196.27046
117.65122
39.252175
353.45314
274.43339
196.2517
117.66805
39.241852
353.4751
274.49659
196.2425
117.66641
39.246052
353.47148
274.49822
196.2699
117.67265
39.227401
353.4751
274.49196
196.2753
117.70253
39.226391
353.47681
274.4869
196.27361
117.70132
39.231463
353.47367
274.48586
196.27729
117.68065
39.221857
353.46873
274.47275
196.27109
117.67113
39.226022
353.46419
274.4679
196.27435
117.66784
39.218492
353.46008
274.45628
196.25548
117.65248
39.230404
353.44365
274.42683
196.27683
117.64688
39.233903
353.45167
274.41516
196.28627
117.66058
39.241333
353.45623
274.41709
196.32297
117.65653
39.252163
353.45572
274.43027
196.33466
117.61417
39.29318
)
;
    }
    maxZ
    {
        type            calculated;
        value           nonuniform List<scalar> 
150
(
353.46913
274.41504
196.30944
117.68003
39.267215
353.46452
274.41597
196.27071
117.63068
39.260051
353.47833
274.47763
196.25353
117.64996
39.255413
353.47811
274.51012
196.24187
117.64549
39.248436
353.46293
274.46395
196.25513
117.65644
39.225412
353.45582
274.43915
196.30362
117.66517
39.22535
353.457
274.43536
196.29069
117.66882
39.235919
353.46083
274.41584
196.30241
117.65932
39.230281
353.46351
274.41082
196.30658
117.67403
39.238647
353.46476
274.41352
196.30099
117.69414
39.245663
353.45814
274.42086
196.27954
117.66267
39.26314
353.47688
274.44834
196.26464
117.68823
39.249963
353.48455
274.46904
196.27587
117.67537
39.246206
353.48451
274.43326
196.25333
117.64403
39.268948
353.48384
274.38442
196.29926
117.6739
39.266328
353.48422
274.3922
196.32643
117.67688
39.272981
353.47699
274.38152
196.29325
117.66555
39.263709
353.47559
274.41276
196.27896
117.63726
39.242202
353.47728
274.42157
196.28629
117.62839
39.284439
353.47851
274.39159
196.2789
117.67256
39.244
353.48021
274.41605
196.26187
117.62591
39.259441
353.49175
274.44855
196.25301
117.66123
39.229783
353.48781
274.455
196.27567
117.66313
39.229971
353.49559
274.48214
196.27947
117.68727
39.234493
353.49151
274.47245
196.26946
117.68272
39.225715
353.48445
274.46303
196.28131
117.65633
39.218679
353.48766
274.48201
196.24177
117.63901
39.247448
353.4661
274.42046
196.25652
117.64067
39.250025
353.46184
274.39718
196.27897
117.65893
39.248122
353.47311
274.40448
196.31604
117.67951
39.256326
)
;
    }
    bottomWater_to_rightSolid
    {
        type            calculated;
        value           nonuniform List<scalar> 
130
(
0.0018516907
0.0060516921
-0.012599237
-0.013609065
-0.0085366288
-0.018142742
-0.013977776
-0.021507674
-0.0095958777
-0.0060966406
0.0013329189
0.012163097
0.05317953
0.0061185203
0.0074495007
-0.0028337625
-0.017731971
-0.014862167
-0.0073420887
0.01760413
0.0038259053
0.02924178
0.045485454
0.012219522
-0.00086082046
0.0036764171
0.033267214
0.020230128
0.035999587
0.023051808
0.016135669
0.0193251
0.025153176
0.033172797
0.021425837
0.027883943
0.015391745
-0.009139938
-0.0099238258
0.0278133
0.03290153
0.026136693
0.020432924
-0.0027029666
0.014223848
0.058111607
0.046684714
0.0061577321
0.006551118
-0.02003448
-0.030927701
-0.013387271
-0.0050061559
0.012911386
0.0011348151
0.0091864228
-0.019949026
-0.021442617
-0.0062140736
-0.014873885
-0.015759327
-0.017328427
-0.0092347864
-0.007506038
0.0076311251
-0.013370208
-0.022185922
-0.0034158267
0.024186433
-0.0007287419
0.013063455
0.032033834
0.012664126
-0.0030483329
-0.0025422592
0.021589296
0.010320576
0.015702926
-0.0069377358
-0.022092132
0.011787307
0.03146581
0.023643921
0.027210719
0.041474526
0.014324612
0.018068355
0.0008182618
0.020922958
0.014480168
0.024673083
-0.014071266
-0.025658826
-0.0068614756
0.010297448
0.0053081944
0.026935833
0.031888043
0.028608904
0.017474326
0.019221177
0.0008052819
0.012635122
0.014905833
-0.021683855
0.015314031
0.0072440674
0.0067616669
-0.0073363884
0.016634972
0.011061151
0.012343227
0.0018840827
0.0078334947
-0.01531201
-0.012178218
0.0011289761
0.00220209
0.044438705
0.0040003135
0.019440747
-0.010216718
-0.010029011
-0.0055074913
-0.014284579
-0.021321489
0.0074482296
0.010025121
0.0081221848
0.016326397
)
;
    }
    bottomWater_to_leftSolid
    {
        type            calculated;
        value           nonuniform List<scalar> 
130
(
0.022777081
0.015089062
0.0089876923
-0.013208959
-0.014345207
-0.01628288
0.023787547
0.034268682
0.019171415
0.010326152
0.0011046666
-0.0094099901
0.0021537789
0.036194983
0.045702925
0.0069946789
-0.0076211003
-0.01193752
-0.012298547
0.018344046
0.040527466
0.027339627
0.018336651
0.019706659
0.00057062872
0.001256917
0.03769173
0.0086960431
-0.019111753
-0.0045047267
0.00015830065
0.0038806095
0.030467608
0.026990584
0.018302346
0.018855289
0.01074594
-0.0037397711
-0.014757619
0.0038158158
7.6756699e-06
-0.0054567296
-0.011501506
-0.0048789889
0.011127359
0.0099886075
0.028791679
0.013087655
0.0080782246
-0.0065971308
-0.035511941
-0.0084938904
-0.0038684806
-0.0054051167
-0.0016649132
-0.0074722096
0.02146265
0.015433091
0.025566236
0.030596105
0.017036091
0.0082317295
-0.0093013263
-0.029493454
-0.0047288882
0.0043832568
0.027909035
0.03266631
-0.0015111153
-0.0001862214
-0.0022893206
0.0038001851
0.024558795
0.0516891
0.029518056
-0.0047826316
-0.025352172
-0.042452575
0.017487168
0.017713516
0.014396148
0.003040352
-0.0040627451
-0.01618535
-0.015798234
0.0056082986
0.004269317
0.013650877
0.013928899
0.0054528321
0.029941652
0.00498363
-0.0011896436
0.0077389399
0.00028635682
-0.0095698289
-0.018849427
-0.035764323
0.0034338577
0.020790639
0.022617911
0.031007929
0.035772831
0.025697888
0.010182739
0.0083695026
-0.010554709
-0.014650838
-0.023954917
-0.018179633
-0.017084743
0.0025368234
0.017930741
0.02031649
0.026321712
0.035505728
0.0327354
0.027215202
0.020050787
0.015412884
0.0084356307
-0.014587848
-0.014649936
-0.004081292
-0.0097186585
-0.0013526101
0.0056625217
0.02313983
0.0099632379
0.0062057237
)
;
    }
    bottomWater_to_heater
    {
        type            calculated;
        value           nonuniform List<scalar> 
92
(
0.030007935
0.023189868
0.021654437
0.012175106
0.015362537
0.039543627
0.028385725
-0.0017289044
0.0040809193
0.018473426
0.0015825015
0.027722224
353.48302
353.46907
353.46946
353.46677
274.47164
274.43742
274.42718
274.40058
196.27092
196.29245
196.29443
196.30287
117.66906
117.63274
117.61871
117.62074
-0.019429334
39.220571
-0.0034482278
39.236552
0.035766103
39.275766
0.041122445
39.281122
353.48514
353.46595
274.49319
274.40427
196.26023
196.2833
117.7098
117.651
39.235271
39.234994
353.47191
353.47216
353.4726
353.47693
353.46385
353.48373
274.44093
274.4056
274.38981
274.42906
274.42317
274.46428
196.26476
196.31801
196.2861
196.27054
196.32078
196.26678
117.65077
117.64267
117.66069
117.62776
117.67179
117.66192
39.197547
39.285301
39.245751
39.254171
39.22663
39.227832
0.045301467
0.0057513234
0.014171271
-0.012168212
0.03073402
0.0019699794
-0.01159124
-0.017610951
0.0098356508
0.0080558497
0.012581853
0.016346405
0.0289477
0.026328464
0.032981368
0.023709056
)
;
    }
}


// ************************************************************************* //
