/*--------------------------------*- C++ -*----------------------------------*\
| =========                 |                                                 |
| \\      /  F ield         | OpenFOAM: The Open Source CFD Toolbox           |
|  \\    /   O peration     | Version:  v2012                                 |
|   \\  /    A nd           | Website:  www.openfoam.com                      |
|    \\/     M anipulation  |                                                 |
\*---------------------------------------------------------------------------*/
FoamFile
{
    version     2.0;
    format      ascii;
    class       surfaceScalarField;
    location    "490/bottomWater";
    object      phi;
}
// * * * * * * * * * * * * * * * * * * * * * * * * * * * * * * * * * * * * * //

dimensions      [1 0 -1 0 0 0 0];
oriented        oriented;


internalField   nonuniform List<scalar> 
3858
(
-0.0001195427
0.00013909383
-2.0062618e-05
-0.00022270879
0.00014464974
-4.1754205e-05
-0.00023180521
1.8586197e-05
-1.01462e-05
-0.00014135954
-0.00018920001
9.7922498e-05
-7.3002033e-05
-0.00018717094
0.00011759206
-3.9535893e-05
-0.00016120552
0.00012845475
0.00017268037
-0.00026781861
5.177785e-05
8.3784406e-05
3.6204458e-05
5.3157147e-05
-0.000142028
0.00013361979
9.1320575e-05
-0.00023998508
3.0504849e-05
6.762648e-05
-0.00013825809
-0.00015512518
5.1536868e-05
-2.2218731e-06
-0.00019267053
5.7183655e-05
0.00012122845
-7.7610441e-05
-4.5615067e-05
6.6214376e-05
9.8071094e-05
-4.1714573e-05
-2.9980413e-05
0.00014854695
-5.1676881e-05
-0.00018596296
0.00016919134
-1.1637747e-05
-0.00036933747
0.00016346501
2.3964085e-05
-0.00037101628
-5.8580494e-05
6.4479767e-05
-0.00018666142
-0.00029129152
0.00010654751
-6.7659577e-05
-0.00019387973
7.4915778e-05
4.670373e-05
-0.00021337269
9.8192917e-05
0.00015218967
-0.00027343575
0.00016693959
0.00023052052
-0.00022470527
0.00014612787
0.00026845699
-0.00016013669
0.00012303184
0.00031602843
-0.00015107203
0.00010534645
0.00039581736
-0.00014784076
7.084317e-05
0.0002922146
0.00013470486
-2.4871639e-05
0.00018397972
0.00018005756
-6.7393447e-05
6.8472518e-05
0.00015145579
-3.2713455e-05
9.0493339e-05
-1.8856152e-05
-0.00030652964
0.0005681818
-0.00012255833
-0.00049003449
0.00048488809
-0.0001567335
-0.00030328243
-0.00010610288
-6.206298e-05
-0.00013222562
-0.00049190074
0.00013164393
-2.3895282e-05
-0.00045521173
0.00015971045
3.156428e-05
-0.00041249697
0.00019583188
0.00036426404
-0.00057632306
-2.4195314e-05
0.00029782045
8.6356109e-05
1.6291934e-05
-0.0003162417
0.00069519475
5.2487188e-05
-0.00053823131
0.00022104938
3.1445072e-05
-0.00029372463
-0.00043186651
3.223464e-05
-6.7918517e-05
-0.00049810559
7.9628928e-05
0.00021867154
-0.00028806193
-7.6138574e-05
0.00032568488
5.4498751e-05
-6.3440999e-05
-1.8816836e-05
0.00065205454
-0.00015900587
-0.00035466071
0.0005937947
-8.8759491e-05
-0.00043487325
0.00018524895
5.8428611e-05
-0.000347831
-0.00025453955
0.00010891681
-0.00016478909
-0.00061435782
0.00014002439
-4.7516421e-05
-0.00039001767
7.8865267e-05
9.3391433e-05
-0.00044423607
8.9955524e-05
0.0001380087
-0.00056182221
0.00024376918
0.00018824946
-0.00046718486
0.00019223884
0.00018678083
-0.00038975528
0.00023108722
0.00016570444
-0.00038899863
0.000259003
0.00029567491
-0.00044005345
0.00016224223
0.00039976295
8.879545e-05
-5.8178629e-05
0.00025918243
0.00044817727
-0.00012753918
-6.4337317e-05
0.00054011599
-6.5140441e-05
-2.1795407e-05
4.795143e-05
-2.0101056e-05
0.00054601736
4.2265493e-05
-1.4024404e-05
0.00038014451
9.8666927e-05
3.9502561e-05
-0.00014076876
-1.8861089e-05
-1.3550066e-05
-0.00042165556
-1.7192555e-05
7.1357416e-05
-0.00046589953
-7.4219686e-05
-1.1835998e-05
-0.00022114331
-0.00010816024
-0.00035040905
-8.1906171e-05
-0.00015584385
-0.00017898583
3.8699467e-05
-0.00012376658
-0.00011831672
0.00061706338
1.7462245e-05
-7.4712439e-05
0.0001623288
1.5116296e-05
-0.00028099916
-0.00014655344
-7.9026363e-05
-0.00030451081
-0.00041058707
-6.4006876e-05
-0.00013761666
-0.00032101904
-0.00013393705
5.3009193e-05
-3.0055786e-06
-0.00013312152
9.5053549e-05
0.00056795275
4.2057434e-05
7.6256868e-05
0.00055881402
5.3777372e-05
0.00024665133
9.0411296e-05
-7.555681e-05
0.00027998777
-0.00015951554
-0.00012836044
-2.0231109e-05
-0.0001112547
-0.00020288424
-0.00010069003
-0.00023740661
-7.2152155e-05
4.8048389e-05
-0.00048079123
-0.00011218326
8.2741652e-05
-0.00050211086
-9.4404611e-05
5.8065155e-05
-0.0003926817
-4.9826659e-05
4.5048288e-05
-0.00030986255
-6.6875863e-05
-4.9031856e-05
-0.00031353484
1.8616362e-05
-0.00026917852
-0.00016111163
-5.879515e-05
-0.00011260371
-0.00012957862
6.1799269e-05
-4.8218927e-05
0.00031333483
7.0457654e-05
-6.0700439e-05
0.00052260143
2.9996079e-05
-0.00010400304
2.1507198e-05
0.00012897835
0.00020435297
0.00021268605
0.00012525234
0.00017328136
0.00021058916
-0.00016413905
9.7689366e-05
5.0933263e-05
-0.00019693491
-0.00040361279
1.4753082e-05
-8.9427466e-05
-0.00048827125
-8.5135722e-05
-3.2743306e-05
-0.00017891673
-9.8910745e-05
-0.00018979209
0.00015562466
-8.0482058e-05
-0.00027540494
0.00021427958
-8.9967272e-05
8.3847813e-05
0.0002409909
1.681972e-05
0.00011320134
0.00011156153
2.1413725e-05
-5.6588945e-05
-8.4884655e-06
3.1725299e-05
-5.6718834e-05
-0.00044183586
3.1378669e-05
-6.4193327e-05
-0.00031339784
-1.4671809e-07
-0.00016139661
0.00023844645
-0.00014424875
3.831134e-05
0.0002117905
0.0001564543
0.00020272976
0.00025733666
0.00013705894
0.00015978714
8.4517047e-05
4.8836866e-05
0.00017500368
-0.00010546514
-6.9266926e-05
9.4381243e-05
1.4040537e-05
-4.4672808e-05
4.406461e-05
-0.00023119799
4.4108014e-05
0.00010579635
-0.00047294661
-6.9576363e-05
8.8216691e-05
-0.00045938155
-2.5149656e-05
6.6522185e-06
-0.00034424196
3.3124724e-05
-5.2334375e-05
-0.00024759549
-3.2804538e-06
-3.0590877e-05
-0.00031811949
-1.7158849e-05
-0.00011121731
-0.00013670372
5.6218532e-05
-0.00017255363
-0.00017123268
0.0001029904
2.6113499e-05
-1.5342789e-05
0.0001300105
0.00028743084
0.00024277117
1.8512915e-05
0.00035054825
-0.00016712045
0.00016446261
3.9890362e-05
0.00027576132
6.1982653e-05
0.00028349525
8.995543e-05
-0.00015475588
3.4638346e-05
-0.00052614347
-0.00011688367
-0.00058706306
-0.00011799714
-0.00035491404
-7.6524362e-05
-5.1941753e-05
-8.8692715e-05
0.00019492523
-5.8760911e-06
0.00031853603
-1.2049274e-05
0.00034892982
-3.888227e-05
-6.2044797e-05
-3.086125e-05
-0.00037431778
-1.1248578e-06
-0.00012999361
-5.8777316e-06
6.1987692e-05
1.9809201e-05
0.00022687474
9.2449607e-05
0.00025534339
5.6048407e-05
0.00023479475
-8.4916509e-05
0.00037275793
-0.00012392265
0.00034506809
-0.00020350815
0.00010737354
-0.00023525207
-0.00013451022
-0.00021749779
-0.00023886706
-0.00023988512
-0.00022672939
-0.00025973316
-0.00028556093
-0.00025928793
-0.00025687207
-0.00016539257
-0.00030644952
-0.00012165522
-0.00030432848
-1.7463828e-05
-0.00016458346
0.00010302615
0.0001859648
-3.6842268e-05
0.00012671124
-0.00010940671
-5.24572e-05
6.9941691e-05
-9.5293133e-05
-5.7072941e-05
0.00010325286
-0.00010863733
-7.3422176e-05
0.00012716154
-1.2217487e-05
-9.376748e-05
0.00010549904
3.2517517e-05
-9.1684694e-05
0.00013772413
-8.244937e-06
0.00016610027
-0.00026654384
5.8003987e-05
0.0001671176
3.1576658e-05
2.0848451e-05
7.3278438e-05
0.00015034506
3.4511445e-05
3.1149825e-05
0.0001440353
-3.4456161e-05
-1.446073e-05
0.00017331232
-7.4223376e-05
-3.6160155e-05
0.00013694176
-5.6857373e-05
-3.5279363e-05
0.0001386355
-0.00018369393
-7.8029896e-05
0.00015345229
-0.00014986912
-0.00011649963
9.5711143e-05
-0.00010636526
-0.00020451801
0.00014027389
-6.0776947e-05
-0.00030925921
0.00017460382
-4.2727064e-05
-0.00037501633
0.00016471541
-3.0624924e-05
-0.00032391001
-4.0259836e-06
6.206026e-05
-5.9186112e-05
-0.00027635285
8.5856614e-05
0.00010489037
-0.00016652392
0.00010026432
0.00010815153
3.0823023e-05
0.00013430972
0.00021286808
-9.057074e-05
0.00013220564
0.000305271
-1.15296e-05
4.3265208e-05
0.00032911301
9.2694359e-05
-8.4310509e-06
0.00030999493
0.00010878207
-1.5325607e-05
0.00024008207
0.00011717789
-6.8111257e-05
0.00017646278
0.00012117466
-0.00012089798
7.9581341e-05
0.00015965989
-9.2130961e-05
0.00014868061
-8.4998783e-05
-0.00017583574
0.00030722156
-0.00012723291
-8.2006064e-05
-6.378949e-05
-0.00011683199
-1.351318e-05
0.00010543575
-0.00013273876
-0.00014039237
0.00040679683
-2.1112179e-05
-0.00018458314
0.00026212268
4.7277585e-05
-1.4846644e-05
7.1357212e-05
9.2462307e-05
0.00035584275
-0.00067602136
1.459281e-05
0.00039527779
-2.0596835e-06
1.0493238e-05
-4.8346965e-05
0.00067550908
-2.9052087e-05
-0.00030342709
0.0004681329
-3.7572401e-05
-0.00012008375
3.1965666e-06
1.9007048e-05
5.7767685e-05
0.00012270607
-8.3986829e-05
-3.1326209e-05
0.00041655197
-0.00026496115
-0.00022243605
0.00052596306
-0.00024484192
-0.0001473117
4.5608513e-06
-0.00014297993
-0.00013788024
8.824753e-05
-4.6164582e-05
-0.00032359675
0.00036644725
5.2301698e-05
-0.00039924593
0.00022496279
0.00012431861
-0.00033402755
-0.00012218762
0.00019296764
-3.0080721e-05
-0.00065658449
0.00015515007
0.00013635138
-0.00045315176
0.00021015126
0.0001300749
-2.2199893e-05
0.00030306858
0.00024659424
-0.00030376199
0.00028891075
0.00033470041
-0.00013199739
0.00026344884
0.00019029898
0.00031651984
0.00017957895
0.00010894273
0.00012163694
0.00023074361
0.00022246204
-1.586555e-05
-3.865449e-05
0.00026664384
7.2723495e-05
-0.00012326982
0.00010895094
0.00041150946
-0.0001592971
0.00042212052
-0.00011653753
5.0856454e-05
0.00017994729
0.00011868331
-8.2433307e-05
-8.349869e-05
0.00025166589
-7.3797228e-05
-1.8087761e-05
9.6026343e-05
2.1630045e-05
0.00015458067
0.00013959634
0.00029133742
-0.00014752094
6.571655e-05
0.00038880546
-0.00010917301
-2.5098064e-05
-0.00013492233
-0.00011817492
-0.0001899625
-0.00014630381
-1.551882e-05
-9.8925977e-05
-9.588459e-05
0.00061682811
2.5723995e-05
-0.00015869366
0.0003307282
0.00021533006
-0.00027317834
-0.00010545233
0.0001441072
-0.00017911028
-0.00011348423
7.8115361e-05
-1.5059221e-05
0.00015261257
-3.4048725e-05
-4.0512616e-05
0.00043512424
-1.6829307e-05
-5.4949124e-05
-8.7263631e-05
0.00014831843
-2.7130601e-05
-4.2490532e-05
0.00015669691
0.00015595254
7.5530416e-05
3.2276887e-05
0.0002688242
5.8271072e-05
-7.454039e-05
0.00018857595
-6.5861983e-05
-0.00017896163
-8.9054858e-05
-0.00017757366
-0.00027353218
-6.2781057e-05
-0.00035472615
-0.00023688268
0.00017990909
-0.00026953539
-8.9759273e-05
-3.4170838e-06
-0.0001301409
-4.0121571e-05
-0.00010214632
-6.60705e-05
-3.4073515e-05
-3.2216187e-05
0.00022703631
3.8169771e-05
-7.945241e-05
3.3463295e-05
7.661473e-05
-8.2153286e-05
-9.5080725e-05
0.00014371533
-9.2034739e-05
-1.8685381e-05
0.00017174799
-7.2814504e-05
0.00034346921
7.8816102e-05
0.00037070352
1.0969956e-07
3.9503956e-05
0.00021124472
0.00014188467
-0.00022780904
0.00033941168
5.4991795e-05
-0.00035391679
0.00017376826
-1.4815016e-05
-4.3195149e-05
-0.00021259472
7.120683e-05
0.00016979063
-0.00043538203
-1.0260407e-05
0.00020798152
-0.00014462082
-0.00010165383
1.5974974e-05
0.00011970013
-0.00012635057
-0.00020771717
0.00030446448
-0.00018625844
6.872262e-05
0.000296362
6.0846025e-05
0.00016658675
0.0001429231
0.00011135467
-0.00012339173
0.00022247617
-6.2247312e-06
-0.0001877288
-0.00011199413
9.4225621e-05
7.1413515e-05
-0.00016642054
5.9744075e-05
0.00024444511
0.00020109633
-8.3252446e-05
-0.00013260051
0.00039572014
5.0516156e-05
-0.00024607911
0.00010031526
0.00010773175
3.4573568e-05
-0.00030032335
0.00014403795
0.00023263289
-0.00010377989
-0.00010527529
0.00017427029
9.7823981e-05
-0.00014999617
9.5314988e-05
-3.5151888e-05
-1.9358461e-05
0.00018930001
-0.00038105068
-0.00013723686
0.00027028253
-0.00025980898
-0.00011585858
9.1801496e-05
6.1327982e-05
2.0136877e-05
-0.00021193038
0.00023681963
-2.438699e-06
1.2555158e-05
7.855198e-06
-2.2463274e-05
-2.1715947e-05
0.0001503386
-2.6385659e-05
-0.00038052666
0.00038265616
-1.5935756e-05
-0.00043248501
0.00014740738
1.5876092e-05
-0.0001411462
-4.0064023e-05
0.00011070733
4.8846456e-05
1.3590419e-05
0.00011963473
0.00013150035
0.00031254277
0.00020848629
0.00037707552
0.00019919094
8.7797692e-05
0.00011132145
-0.00035001393
-0.00011445408
-0.00047091075
-0.00014172115
-0.00032917047
-9.8564514e-05
-3.9645827e-05
-7.3752882e-05
0.00019373747
5.7102594e-05
0.00026064179
6.3969497e-05
0.00038365429
6.0581385e-05
0.00015375978
8.7039123e-05
-0.00015414949
0.00014036386
-9.3656885e-05
0.00013472599
0.00015775545
0.00016411701
0.00029147592
5.90444e-05
0.00012038628
-7.3185301e-05
9.4894878e-05
-0.00016320499
0.00027063155
-0.00020183534
0.00028587009
-0.00025389857
-2.8466723e-05
-0.00030196594
-0.00029071559
-0.0002150579
-0.00030620105
-0.00016307167
-0.00018729033
-0.00014182424
-0.00024387424
-0.00019484882
-0.00021013145
-4.8796757e-05
3.1932634e-05
1.8936856e-05
0.00012550335
3.6372844e-05
3.6646358e-05
0.00015181912
0.00027145761
-0.00013977535
3.607668e-05
-6.6843447e-06
3.8859847e-05
-0.00030865954
3.1695164e-05
0.00021347718
-0.00020041272
-8.3493417e-05
0.0002036935
6.6060935e-05
-6.6719724e-05
0.00016986308
0.00011016556
-4.23848e-05
8.6535704e-05
0.00013727917
-6.0945558e-05
-3.5934349e-05
0.00014805334
3.2863705e-05
-0.00015209328
0.00014345737
-6.3426733e-06
-0.00025736858
0.00014380879
-3.2296308e-06
-0.00022852086
-1.7010971e-05
-4.6177984e-05
-6.1115286e-06
-0.00025872935
-4.0599349e-05
-4.6896021e-05
0.00012804149
-0.00014172253
-0.00014882456
6.1640363e-05
-0.00014383139
-0.00020494181
4.0829931e-05
-0.00013338823
-3.6606626e-05
-0.00026478656
-1.4071793e-05
0.0001396507
-0.00025392581
1.502981e-05
2.3806583e-05
9.39585e-05
-2.0967144e-05
-0.00011129342
0.00014020378
-3.7034362e-05
-0.00016181095
0.0001426974
-2.9680148e-05
-0.0001039177
5.7463366e-05
-2.944809e-05
-7.1586902e-05
0.00010746875
-3.9136614e-05
-7.0881109e-05
0.00014766519
-1.3983322e-05
-4.5856245e-05
0.00011769989
-1.174626e-05
-5.8029615e-05
0.00013869154
-8.4779568e-05
-0.00010555053
0.00013195109
-9.4520257e-05
-0.00013396234
7.8385265e-05
-6.5296654e-05
6.7674471e-05
-0.00030337661
3.1170823e-05
0.00026068128
-0.00030655846
-7.5792931e-06
0.0001510711
0.00014420766
-0.00012102222
0.00015840874
-8.9152815e-05
-0.00024861363
0.00010979822
4.765918e-05
-6.5648934e-05
-0.00067469597
6.6239739e-05
0.00016751435
-0.00049559918
-7.0715586e-05
0.00032837441
-5.5323167e-06
-0.00011037899
0.00026675385
0.00031777453
-9.8710828e-05
0.00013005514
0.00041735937
-5.0919172e-05
4.762292e-05
0.00016371303
8.1365342e-05
-0.00027062011
0.00048799903
-1.5805394e-05
-0.0005316061
0.00044505205
-6.9309364e-05
-0.00043865622
-9.8352821e-05
-4.9180428e-05
-1.1541861e-05
-0.0006569511
-9.8855717e-06
9.3435825e-05
0.00010438537
-0.0001653084
-0.0001597112
0.00027105971
-0.00022123348
-0.00021481056
1.0801887e-05
-0.00015971452
-3.4830452e-05
-0.00062411735
3.6370748e-05
0.00022966127
-0.00062181618
5.7234066e-05
0.00028256973
8.6703289e-05
6.6484489e-06
-0.00012519398
0.00071184863
-3.9562518e-05
-0.00029289873
0.00050293921
4.3058786e-07
-5.9414335e-05
-7.2074358e-05
5.1203397e-05
9.8736141e-05
7.6822356e-05
8.2647172e-05
0.00013604385
0.00035048562
6.2940438e-05
0.00016678835
0.00035235054
2.3515615e-05
8.0805019e-06
0.00061824268
-5.739445e-05
-0.00023612916
0.00069886704
-0.00014312733
-0.00025265371
0.00025786671
6.7786716e-05
-7.175224e-05
-0.00065727512
0.00013434255
0.00014833387
-0.00068453909
3.4624705e-05
0.00020056535
1.9042549e-05
-8.6363466e-05
0.00034043536
-9.7998812e-05
0.0001469292
3.0515585e-06
7.8500777e-05
-0.00021429806
-0.00014510868
8.3305862e-05
-0.00032879066
-0.00032845814
4.3377899e-05
-2.3707508e-05
-0.00034778218
0.00017676304
0.00014781579
0.0001309948
8.0972992e-05
0.00011472382
0.00033921855
8.6134722e-05
7.0870929e-05
6.083678e-05
-4.3233367e-05
4.6860535e-05
0.00039397296
1.911048e-05
0.00014264178
0.00035182205
2.3172753e-05
8.2824195e-05
-4.5043908e-05
0.00022183871
-0.00039545064
-0.00012488908
9.0319994e-05
-0.00023997547
-0.00010413482
0.00013116037
0.00012257537
-0.00020535535
7.9815475e-05
0.00015569219
-9.6831313e-05
5.7687075e-05
-0.00014603662
-0.00015867631
-1.5393801e-05
-0.00029100143
-0.0002727443
-4.7410157e-05
-0.00011854688
-2.5865547e-06
-5.0887811e-05
-6.5581538e-05
0.00068569835
-0.00010135545
-4.278459e-05
0.00041104805
-0.00010986741
-0.00011121558
-0.00010619765
-0.0001709779
-0.00011370146
3.3909012e-05
-0.00019148345
3.9871784e-05
0.00020248793
-9.5334831e-05
0.00010019395
0.00021673316
3.5173646e-05
1.7973005e-05
0.00052729834
0.00013909177
6.5567732e-05
0.00065409149
3.5350602e-05
0.00024118816
0.00014722292
1.1638101e-05
-4.6450627e-05
-9.571186e-05
-0.00013020914
-0.00044012954
-8.9022473e-05
-3.0089711e-05
-0.00035572305
-8.8319987e-05
0.00010177215
-5.242872e-05
3.7250736e-05
-9.8265179e-05
0.00034125142
-9.8050012e-05
-0.00014434846
0.00011001564
-0.00015404924
-0.00013443746
-0.00028361776
-6.9566393e-05
-5.9814031e-05
-0.00040578966
5.4590886e-05
0.00011526138
-0.00014093177
8.6590758e-05
0.00022910933
0.00011098415
1.2732619e-05
3.7408308e-05
0.000255014
-0.00012882677
9.89149e-05
0.00021327887
-6.707095e-05
0.00031640463
0.00011084129
8.4337031e-05
0.0002027587
0.00014425653
3.570016e-05
-2.7168619e-05
0.00016692404
-6.811055e-05
-4.4960646e-05
-6.0690767e-05
6.8573573e-05
0.00019440591
-0.00043193537
4.6957523e-05
8.1149597e-08
8.9903203e-06
5.2506814e-06
-0.00022852328
6.1673991e-05
5.8770281e-05
-0.00021201728
-0.00029471614
0.0001131976
-0.0002569778
0.00010914197
7.7269944e-05
1.4537164e-05
0.00037844632
-6.9538228e-05
0.00016455025
0.00019270018
-8.1661389e-05
-9.9566802e-05
0.00023928368
-0.00010072274
-0.00018448766
9.9918547e-05
-0.00011832554
-0.00014324289
8.4247559e-05
-3.8862988e-05
-0.00014837181
0.00022691188
1.5087081e-05
-3.7621244e-06
0.00031206866
6.8181303e-05
0.00022407255
0.00041296274
-9.1691981e-06
0.00028600507
0.00018282184
-0.00012391709
0.0001344512
0.0001961047
-0.00015619844
-0.00011573814
0.00020450774
-2.7464787e-05
-0.00015979195
-7.205328e-05
0.00013849445
-0.00035649267
0.00015786242
0.00030893795
0.00016381382
0.00044293109
0.0001845088
0.00025544164
0.00010306263
-9.0828239e-05
5.1801676e-05
-0.0002762215
-6.9992584e-05
-0.00023586224
-7.1096263e-05
-3.9596624e-05
-3.9816138e-05
0.00013286732
-3.2937963e-05
0.00024130059
5.9510598e-05
0.00034806698
0.00010145963
0.0004479784
0.00012759399
0.0002837089
0.00019061785
-0.00017328333
0.0001654207
-0.00024209273
0.00021252571
-0.00015783412
0.00014153239
-0.00034049263
-5.3013229e-05
-0.00022203996
-8.2495993e-05
2.147121e-05
-2.8269842e-05
9.7233357e-05
-8.4897316e-05
0.00013615401
-5.3535542e-05
7.1189123e-06
-7.3012301e-05
-0.0001846278
6.0936364e-05
-0.00020362843
8.2840843e-05
-5.5301505e-05
2.1917496e-05
0.00015261203
1.0200389e-05
0.00021700671
6.9630406e-05
0.00030716371
0.00012488457
0.00039069794
0.00015734637
0.00028492556
0.00018553822
0.00019989051
-0.00018830273
3.9418124e-05
0.000141031
-0.0001067164
-0.000160768
0.0001091333
0.00010343368
-0.00032845448
3.2148884e-05
0.00023816118
-0.00029729575
9.4393806e-05
0.00030995133
-0.00022124216
0.00010611383
0.00023112558
-6.3426261e-05
8.1799123e-05
2.8925134e-05
0.00014063345
9.3796793e-05
-0.00020329476
0.00016103321
6.3577293e-05
-0.0003564631
9.8827235e-05
5.2783453e-05
-0.00026959756
-0.00022880758
9.4544329e-05
-0.00013694784
-0.0002839308
0.00010826589
-0.00011249714
-0.00020769469
4.016054e-05
2.4025178e-05
-0.00032802471
4.4577761e-05
0.00023174859
-0.00034337178
0.00024719977
-2.8970871e-05
0.00019762472
6.507599e-05
4.1368758e-05
0.00013623443
-9.6478676e-05
0.00016079342
-5.9964445e-05
-0.0001493564
0.00014650694
-0.00012217414
-0.00016294282
0.00014341019
-0.00015741865
-0.00015702178
0.00014042813
-0.00018478605
-0.00015170073
0.00013168214
-0.00015024164
-0.00014074297
0.00011909702
-0.00013966696
-0.00011779511
3.6028214e-05
-0.00014098031
-0.00016355768
7.7463677e-05
-0.00012255869
-0.0002120068
0.00011749958
-0.00013141527
-0.00014067734
-4.0639677e-07
-3.8898468e-05
4.4727051e-05
-0.00020661236
1.2693754e-05
0.00017420352
-0.00024183493
-7.3948762e-06
0.00011447001
-2.6015559e-05
-0.00039243871
0.00039521611
8.429991e-05
-0.00014706546
-0.0003624934
2.2591877e-05
9.7994248e-05
-0.00062120938
-2.3020389e-05
0.00024853367
-0.00063719283
7.897868e-05
0.00033633827
-0.00054853696
0.00014077937
0.00036784443
-0.00028256557
0.00013671397
-8.436277e-07
0.00049778536
9.2901492e-05
-0.00047552645
0.00070968187
-8.9771234e-05
-0.00047114159
5.0271275e-05
-2.5138272e-05
-0.00026047791
-0.00056007313
7.1421433e-05
-0.00010079699
-0.00056661095
0.00011311365
-7.4009831e-05
-0.00046193261
6.2142357e-05
-3.327471e-05
-0.00063504752
4.5054203e-05
0.00015410603
-0.00069046703
0.00031148747
-0.00014998156
0.00045364455
-1.984703e-05
0.00036855677
0.00022797067
1.0939398e-05
0.00068553194
-0.00020668366
-0.00012232014
0.00048891272
-0.00020871565
-2.4384058e-05
0.00020751276
-0.00011083525
-0.00020546737
0.00062460339
-0.00022044478
-0.00036455387
0.00048948483
-0.00013577575
-0.00027467847
0.00011862847
-6.5891249e-05
-0.00012162146
-6.6037479e-05
-0.00010838576
-0.00010586711
2.9241258e-05
-0.00011065925
-0.00037989261
0.00052686055
-6.7548754e-05
-0.00029253047
2.1700853e-05
2.4873173e-05
-7.2160049e-05
-0.00046210731
6.9749238e-05
9.7653484e-05
-0.0005875423
8.953038e-05
4.8988833e-05
6.5135845e-05
0.00011897027
0.00030091632
5.3830292e-05
8.7060141e-05
-0.00017573635
-7.1541054e-05
4.7630962e-05
-0.00048097916
-5.7423143e-05
0.00013269779
-0.00051625351
-2.9243103e-05
6.5634989e-07
-0.00021266275
-0.00012285978
-9.8806408e-05
-0.0001027093
5.7412166e-06
-6.6346139e-05
0.00040425438
1.7837338e-05
5.2909319e-05
0.00067508588
-6.5548995e-05
0.00027338008
-3.4330667e-05
-0.00011269608
9.2100229e-05
-0.00010715358
-4.9800995e-05
-0.00020576375
-7.950725e-05
-9.8919741e-05
-0.00011407801
-0.00046931238
4.6854377e-05
-0.00014471587
-0.00060264707
7.8052875e-05
-0.00022920706
-0.00054828877
-0.00015785925
-0.00023672317
-0.00011825775
-0.00010685868
-3.0173094e-05
8.8998208e-05
1.9644065e-05
0.00067065592
-0.00013629659
3.6427802e-05
0.00043045801
-6.819644e-05
-0.00010738552
0.00011782436
6.2523816e-05
-0.00029903366
0.00054467047
8.0097609e-05
-0.00010757613
0.00017335392
2.9338554e-05
2.9951152e-05
-2.8645068e-05
4.49199e-05
-4.1991212e-05
-4.5440037e-05
0.0001904367
-6.1234832e-05
-3.5265099e-05
0.00011910058
5.3973412e-05
0.00042439482
-1.1044107e-06
0.00015481803
-7.1112211e-05
-0.00013824068
-7.8436693e-05
-0.00020191325
-5.7029055e-05
-0.00031386537
-0.00035829777
0.0001079563
-0.00036710473
0.00013947893
0.00011907163
0.00014667333
-6.2878643e-05
5.8272109e-05
-0.00013543613
-0.00013354994
1.2985814e-05
-0.00051102416
5.7649095e-06
5.2252787e-05
-0.00049673005
-4.1995401e-06
1.1157041e-05
-5.1551438e-05
-3.3424808e-05
-0.00019204739
0.00017816817
-6.4940423e-05
-7.0763671e-05
0.00018540216
-3.1258277e-05
0.00019862814
0.00034798597
-9.3628587e-06
0.00020503632
6.3456307e-05
-1.9858137e-05
7.6397086e-05
3.1652516e-05
2.5533271e-05
-1.6130968e-06
-4.4105515e-06
-6.5197089e-05
6.152063e-05
-0.00050229185
3.8419295e-05
2.1463321e-05
-0.00058276669
6.7134436e-05
3.2042714e-05
-0.00055361748
-8.2460357e-07
-0.00014508557
-0.00025498761
0.00026050193
-0.00034078782
0.00025206837
-3.4822389e-05
0.00036364647
-6.8494202e-05
-2.5272411e-05
0.00030773735
3.15093e-05
-0.0002768804
0.00028025458
-1.1544964e-05
-6.2849517e-05
0.0001124854
9.9828638e-05
0.00031895041
-0.00031559098
6.8281975e-05
0.00037574417
2.0404184e-05
-9.0755929e-05
1.1137411e-05
0.00036220084
2.5147192e-05
-0.00026237468
0.00030909054
-8.0012744e-05
4.8065625e-05
8.9513906e-05
-9.9476474e-05
-2.0952781e-06
4.8845048e-05
-0.00022599479
-5.6578954e-05
-0.00019522233
2.0327983e-05
-2.0291505e-05
-0.00039220539
0.00013611463
-0.00043070247
0.00020116865
0.0002323057
7.8181447e-05
0.00030599205
-2.4613679e-05
4.40661e-06
-0.0001063761
-0.00037010404
-7.041772e-05
-0.00040185983
-8.9788233e-05
-0.00027798129
-1.6806633e-05
-0.00014608064
1.3685363e-05
0.00017044046
-1.4730946e-06
0.00033557539
-4.2168041e-05
0.00048984934
-2.116182e-05
0.00060935353
3.6792339e-06
0.00028827703
9.4024823e-06
-0.0001825111
5.3442138e-05
-0.00052360288
-0.00052715605
-0.00031966735
-0.00015009497
1.4004189e-06
0.00018388124
6.4306831e-05
0.00015993362
0.00013418137
0.00015684449
8.7831033e-05
8.5823444e-05
-0.00029232852
0.00012550494
-0.00027121489
8.21314e-05
5.3040256e-05
5.986319e-05
0.00024116618
0.00013116501
0.00033976366
6.0546835e-05
0.00047652825
3.6965035e-05
0.00046187615
-2.3223868e-05
0.00026891991
-1.3710912e-05
3.8107951e-05
-0.00013543884
7.6155887e-05
0.00020169795
-4.6863304e-05
-0.00016218982
0.00018352849
0.00016384953
-0.000328902
0.00015006425
0.00023324697
-0.00010847573
0.00013508786
0.00013842237
7.7146033e-05
0.00012583122
2.411258e-05
0.00012951558
6.6775734e-05
-0.00011430034
0.00014609827
8.6391535e-05
-0.00018128599
0.00016154625
-3.1671417e-05
-0.00027141166
0.0001717599
-2.7857937e-05
-0.00029156651
-3.8420885e-05
0.00015373037
-0.00027488323
-0.00010176893
0.00019304015
-0.0001962653
-0.00022839335
0.00018823061
-0.00033623234
0.0001818658
-6.6140353e-05
0.000166691
-0.00015934068
-0.00017052985
0.00016108981
-0.00017649971
-2.5690761e-05
-0.00022708184
-7.719426e-05
-0.00010461333
1.2295789e-05
-0.0001191507
-0.00028387767
0.00014797991
-0.00011921945
-0.0002676945
-0.00010232567
-5.5765687e-05
-0.00011058869
-0.00029188647
-1.1332545e-05
2.569961e-05
-0.00024472517
-1.7841079e-05
0.00022074048
-0.00026419326
-6.6069345e-05
0.00021223042
4.0746179e-05
-7.1800542e-05
0.00011131253
9.4529219e-05
1.8294108e-05
0.00019863995
-0.00021759324
0.00012124835
0.00012769167
4.7667362e-05
-0.00022232969
0.0002327025
0.00015008298
-3.4031833e-05
-0.00041805213
9.0156336e-05
0.00011691877
-0.00067509272
0.00017221972
0.00028357715
-0.00036032238
0.00016416696
0.00036618926
-2.9003637e-05
0.00016431694
0.00029807793
0.00032997343
4.3674494e-06
-5.9856429e-06
0.0006152931
-7.2229753e-05
-0.00031768951
0.00064883716
-0.00026535828
-0.00040328128
0.00038628744
-0.00015407405
-0.00031061508
-0.00021750372
0.00015783806
-0.00026926814
-0.0003107763
0.00028077408
-0.00017358773
-0.00051368236
0.00025175096
-0.00064977835
0.00018501247
-0.00017188835
0.00042950481
-0.00029760913
-9.344402e-05
7.8742674e-05
-0.00020481284
0.00026774787
-0.00061734778
-8.1761204e-05
0.00011259521
7.5349808e-05
-0.00012834615
-0.00017892833
0.00032056774
-1.6840042e-05
-0.00021195008
-0.00030655051
0.00017135534
-0.00014528222
-0.00066383748
0.00019689739
-5.4476922e-05
-0.00056091039
0.00011472068
0.00026703364
-0.0005928684
-6.0384167e-05
0.00028315721
0.0001122104
-6.2714621e-05
-8.3661952e-05
0.0004998132
3.128442e-05
7.5687006e-05
-0.00048561333
0.00019820152
5.2582289e-05
0.00021593224
0.00023363996
-1.2752371e-05
6.5645205e-05
0.00014160585
-0.0002615771
-0.00013598198
-0.00013212808
-0.0002669075
-0.00019187443
-0.00019552274
-0.00025634095
-6.9829875e-05
-0.00013672013
-4.6467069e-05
-0.00016419896
6.4656674e-05
0.00021803539
-8.3697542e-05
0.00013535423
0.00057247602
-1.0043147e-05
7.0936904e-05
0.00058710349
6.0601991e-05
0.000122701
0.00022342916
-1.601904e-06
8.7755727e-05
-0.00013409522
-9.8264232e-05
-6.5181147e-05
-0.0001973015
-5.9457678e-05
-1.6607462e-07
-0.00047816021
-5.3682872e-05
-0.00057509102
3.1994554e-06
0.00016406799
0.00023111942
-0.00010197918
0.0002897909
-1.13893e-05
-0.00010378737
-9.6122858e-05
-0.00016075281
-8.1573983e-06
-0.0001557197
-3.6625455e-06
0.0002187068
0.00010886799
-0.00011838024
0.00020369885
0.00011583123
-0.00034330975
7.4715885e-05
-9.7093217e-05
-0.00019724706
-6.3229271e-05
-0.00013016953
-0.00033460908
-7.4124411e-05
-0.00014149296
-0.00049389249
-8.8756893e-05
7.1182697e-05
-0.00027117271
3.2466781e-05
0.000117427
0.00028873209
0.00010780776
-0.00019272216
-0.00013863221
7.1124341e-05
-0.00011241859
0.00011175765
0.00013260282
-0.00020241983
-5.813998e-06
4.9295705e-05
-0.00025807164
-5.3748283e-05
-1.8219315e-05
-0.00018683272
-6.7948478e-06
-5.040631e-05
-0.00018406581
-4.4287687e-05
-0.000191291
0.00020708665
-0.00014609383
-0.00011942075
0.00019441721
-0.0001131925
6.7085464e-05
0.00031415573
4.0555794e-05
0.00027070715
0.00031873666
5.5382272e-05
0.00039641652
0.00010052222
-2.2660577e-05
0.00019733111
7.0409155e-05
2.011428e-05
4.9790751e-05
-0.00010379774
-1.116051e-05
6.7065494e-05
-0.00045563545
-1.3802359e-06
-0.00051916032
7.8269214e-05
0.00025585667
-5.1612111e-05
-4.1619342e-05
0.0001311008
0.00015923858
-1.4362706e-05
-6.1006702e-05
-5.3415379e-05
7.3225103e-05
-0.00014911388
6.9100373e-05
0.0001151729
3.5587433e-05
-0.00044561962
0.00021082004
-1.833631e-06
-0.00034953557
-4.710904e-05
-8.2240439e-05
-4.293787e-05
-4.875519e-05
-6.5697774e-05
-0.00027773052
-0.00015343396
-6.3810278e-05
-0.00048763908
-0.00010761737
-3.373437e-05
-0.00038321442
-0.00014402899
0.00023355326
-7.4624404e-05
0.00011639685
0.00017602277
-3.6558744e-05
9.1571653e-05
0.00014372959
0.00012104324
-2.7397072e-05
-9.6841313e-05
-0.00010315364
-0.00020692875
-0.00019092053
-0.00020544193
-0.00033202109
-0.00011338296
-0.0002401612
2.5438528e-05
-0.00018281648
0.00012026586
6.8830518e-06
0.00013814156
0.00025754834
6.6598272e-05
0.00037793339
-6.2030884e-05
0.00052551557
-9.833486e-05
0.00056554897
-0.00014015191
0.00032401161
-0.00020469563
-0.00014170659
-7.6123052e-05
0.00020839218
2.6693117e-05
0.00021635603
3.4231623e-05
9.5890603e-05
0.00019490905
-5.7536097e-06
2.2420561e-05
-0.00014762619
-7.5743914e-05
-0.0001692397
0.00011991683
-0.00017873543
0.00010038945
-0.00012703812
-0.0001518505
-0.00017485229
-0.00035764584
-0.00014045404
-0.0003007546
-0.00015473951
-0.00021564114
-0.00013538311
-3.3803603e-05
-8.0257395e-05
0.00013640359
0.00014914781
-2.1107581e-05
-5.262893e-06
0.00013304776
3.9024749e-05
4.3019446e-05
4.9986077e-05
-1.0518063e-05
0.00016863545
1.9009689e-05
-4.5724885e-05
0.00015853234
3.9939114e-06
-3.8014265e-05
0.00013896428
-7.8881764e-05
-5.4802383e-05
0.00014722019
-4.2119191e-05
-2.7770778e-05
8.9529964e-05
-0.00014682029
-7.7587411e-05
9.4376475e-05
-7.1533701e-05