/*--------------------------------*- C++ -*----------------------------------*\
| =========                 |                                                 |
| \\      /  F ield         | OpenFOAM: The Open Source CFD Toolbox           |
|  \\    /   O peration     | Version:  v2012                                 |
|   \\  /    A nd           | Website:  www.openfoam.com                      |
|    \\/     M anipulation  |                                                 |
\*---------------------------------------------------------------------------*/
FoamFile
{
    version     2.0;
    format      ascii;
    class       volScalarField;
    location    "490/bottomWater";
    object      T;
}
// * * * * * * * * * * * * * * * * * * * * * * * * * * * * * * * * * * * * * //

dimensions      [0 0 0 1 0 0 0];


internalField   nonuniform List<scalar> 
1460
(
977.01806
971.21972
968.28361
966.50078
964.62332
964.89574
962.47148
964.47755
957.66211
950.1509
948.07065
948.07706
947.38265
948.51471
948.33183
941.50803
939.38929
936.62885
934.362
933.10582
931.29003
929.29187
929.02499
929.53536
930.07242
930.98436
933.66998
935.62621
937.08539
937.83152
974.32784
970.43217
968.29371
966.93611
963.88179
963.69327
962.92275
963.09208
956.10008
947.36912
947.05826
945.96217
943.53477
944.0706
943.06047
937.67448
936.23419
934.77509
933.85847
931.45657
928.94775
927.61143
926.95464
926.98233
927.1391
928.09816
929.85114
931.33579
932.62166
932.53856
975.49524
970.76218
968.69905
967.58754
963.74298
963.92774
962.56
960.23463
955.32532
947.75082
947.76332
946.30412
942.48793
940.03247
943.28475
938.67503
936.81297
935.70307
934.28313
931.21157
928.35525
927.06096
926.45942
926.72014
926.92741
928.37172
928.97505
930.99223
931.92149
929.76108
976.98465
972.43227
968.59108
967.01911
963.15764
963.11218
962.07647
958.97184
955.96184
949.7363
949.52212
949.0968
941.79176
941.13543
943.50755
939.14756
938.41473
935.59621
935.06231
932.16338
928.10834
926.5236
925.95198
926.2185
926.36266
926.93777
927.42346
929.32178
931.34137
930.87889
976.78801
973.89147
972.00101
968.71821
962.47962
961.68602
961.09094
959.98931
956.9805
952.90533
951.61044
950.5799
940.41606
939.21758
940.07128
938.12159
936.88824
933.12672
930.85193
929.01301
927.29651
925.74725
925.56034
925.88648
925.96055
926.19361
926.96425
927.89016
929.41321
929.58124
978.83515
976.63155
973.64291
970.39725
967.65017
968.26981
966.91924
967.87354
965.08837
956.4788
953.91771
952.49728
945.63538
937.1347
938.33205
938.10193
937.69032
935.89975
933.57032
930.88703
930.10828
931.21962
930.20418
930.86054
931.78442
932.87286
933.76611
934.30001
935.39716
936.60179
976.8185
975.04453
972.70124
968.41851
965.56137
965.59315
967.51305
967.55124
963.7346
951.56956
950.62767
949.555
944.48462
933.20834
934.3205
934.98249
934.80316
932.84631
930.91271
929.36402
927.50316
927.87353
927.53789
927.59994
928.03824
929.05112
930.58198
931.02408
931.74742
932.81158
977.98979
973.20939
972.27969
969.20356
966.42164
966.92573
967.32172
963.55456
961.54993
950.62215
948.99387
947.47344
944.54192
934.82774
936.96374
936.71615
934.87011
932.63504
931.42829
929.1448
927.13508
927.47336
927.47035
928.16024
928.13791
928.88943
929.20522
930.51284
931.46889
932.08772
976.82394
971.64978
970.77391
970.68925
966.6688
967.0575
967.81501
964.3887
961.12601
952.46064
952.1827
949.28609
943.92281
936.84266
938.77096
935.97244
934.21
929.34046
929.79712
929.89352
926.30743
926.59787
926.7563
927.98787
928.30037
928.49253
929.22219
930.20841
930.92243
931.43557
975.17883
972.48465
971.85551
971.51629
966.4845
965.50428
965.49109
964.53939
960.68059
956.78065
954.70066
954.37004
944.10118
936.35588
937.77142
936.19433
932.97908
926.28001
926.5858
925.82492
924.83841
925.90279
926.38079
926.93181
926.9393
927.38924
928.2063
928.14672
927.24213
927.90712
975.29604
973.5993
972.15407
973.21888
973.66593
974.6595
972.28527
963.38754
956.35944
952.90591
950.69936
951.51103
938.15567
927.68969
929.78724
929.94962
930.04076
931.95011
933.72183
932.29112
931.84345
931.24386
929.71596
929.85305
930.19297
930.45282
929.08841
930.24621
932.58643
934.24889
974.04595
973.38189
971.30895
970.93369
970.59768
970.53647
971.08842
960.51836
952.74921
951.15794
950.16263
950.76771
940.2762
926.24385
931.11736
929.3365
928.74164
929.30931
931.0143
929.65594
929.00704
928.94193
928.34569
928.35056
928.94726
929.19362
929.13968
929.65928
930.26607
931.17528
976.83931
973.3892
971.19314
970.22728
969.77123
970.27385
969.93178
963.46792
954.38781
952.80057
950.02254
947.41788
943.28001
933.07281
931.48928
928.90271
926.84331
927.68403
930.13591
927.57139
928.2591
929.02347
928.37301
928.28638
928.81942
928.99822
929.08751
929.71663
929.88395
930.24399
973.98208
972.38778
971.66461
970.45702
968.9595
969.96094
969.08504
965.08157
957.5497
956.40451
956.96782
951.71429
944.97131
938.66092
930.60164
928.25659
928.97104
926.39076
929.37956
928.25794
927.45423
928.19689
928.15639
928.20721
928.7518
928.82634
928.93101
928.44303
927.99385
926.86121
973.57178
972.65445
972.17561
970.56418
966.50909
966.86033
967.09133
965.40206
960.14062
957.77951
956.89805
956.14162
945.56677
931.84559
930.45291
923.88947
922.26838
924.19088
926.38395
926.10545
924.64666
926.50259
927.01111
927.27671
927.96995
927.65282
927.72077
927.56679
926.99541
926.84441
973.26114
972.75831
971.67628
970.47429
970.29046
970.785
971.56012
958.40962
954.56725
953.38323
951.63685
947.46058
940.51445
918.79123
918.69674
918.10396
916.2209
926.40813
930.39221
928.50224
930.1024
930.86381
931.46187
931.30604
931.27173
930.45662
929.50908
928.71997
929.20345
931.83579
973.45285
973.30218
971.90175
969.48068
969.26926
969.09547
969.91663
957.45059
955.25615
955.22225
953.86471
950.46019
940.50718
918.60055
916.03484
915.6518
914.23073
918.8378
928.11551
926.23236
927.00072
929.2193
929.38885
928.94251
929.07282
928.96988
928.60716
928.24884
927.6599
929.31802
974.11197
973.74584
971.95849
968.88883
969.1707
968.83347
968.4209
958.70654
957.48978
956.05839
954.55826
952.36237
941.57079
919.48359
915.03614
913.73797
912.96729
918.35795
926.85557
926.80691
927.7624
929.25501
929.0456
928.46271
929.04998
928.96766
929.06888
928.15882
927.53648
927.24819
973.95772
973.27775
971.73377
967.69262
967.80991
967.86145
967.06198
959.47612
959.34541
958.80046
959.10376
956.79693
946.47451
921.09116
917.95755
919.41933
918.57303
917.96783
926.77959
926.84395
927.61467
926.26495
926.69348
927.39262
928.5614
928.79715
928.90309
927.22675
926.9909
926.41667
972.93214
972.3
971.5676
966.75114
965.56268
965.31826
963.88369
960.24691
960.06688
959.12525
958.35112
957.58461
944.78098
920.40501
916.9694
915.02255
915.48933
916.53215
925.12156
925.03901
923.75538
924.73414
926.2856
926.99283
927.68298
927.35739
927.18717
926.97051
926.65052
926.199
974.77179
974.0042
972.62159
973.14296
973.93392
973.6157
966.63255
959.18433
956.11513
951.95318
948.37779
944.4413
936.39897
919.62891
929.40964
922.67851
926.71298
927.45009
928.04651
927.61297
928.10352
928.42905
929.69295
930.53539
929.41069
931.58621
973.89872
973.84819
972.33376
971.18639
971.35402
971.43864
969.47767
961.65888
958.1251
955.96708
954.35139
951.8178
941.79134
921.85693
928.78325
920.68042
922.03462
926.90433
928.04255
928.39818
928.50623
928.70315
929.21187
929.3954
928.61234
929.68056
973.8862
973.99408
972.38566
971.08149
971.80094
971.0969
969.58866
963.18201
959.45654
958.41556
957.89238
955.57368
944.51293
917.12998
920.19976
920.48329
924.99501
927.17262
927.22727
928.30901
928.51196
928.46933
928.96926
929.49224
928.5879
928.28126
973.10778
973.33349
971.33902
969.63816
970.24163
970.03156
969.61277
963.94328
962.19841
962.06862
960.76229
956.56532
947.37583
911.54003
913.67748
918.37963
926.18274
924.64668
926.21749
927.84665
927.98316
927.92786
928.56889
929.09152
928.27403
927.4914
972.84746
972.89205
970.60467
968.80528
968.54789
968.68175
968.6678
963.65975
962.68105
960.90904
959.0474
955.98642
948.61451
911.53007
919.19882
922.38513
923.44646
923.84653
925.60873
927.0129
926.9681
927.40489
927.7866
927.79498
927.49004
927.17338
977.44817
976.75606
976.61924
977.92836
976.36792
973.38455
970.88026
969.40712
968.44964
955.89219
948.02204
939.95863
930.39126
927.35143
933.73322
926.50379
923.43518
922.50779
927.26203
929.52943
930.50158
930.53684
930.98639
932.47757
932.14324
932.62309
975.36916
974.84033
973.83166
974.62624
973.25279
968.79709
967.88177
966.66645
964.01471
957.09338
949.45299
943.01651
934.66576
924.97518
933.30599
924.69165
924.56469
924.70279
926.71941
929.49394
929.99036
930.47103
930.21569
930.61101
930.23997
930.40432
975.22856
975.2765
973.69526
974.45393
973.104
969.26352
968.29135
967.12124
963.02303
952.96645
948.69612
942.94404
935.93931
911.9683
922.86099
923.72486
924.76447
927.23624
927.20214
930.01568
930.26243
930.37323
930.04158
929.95336
929.93496
929.9673
975.17874
975.32239
973.13814
973.23338
971.57102
969.35729
968.72619
967.83722
962.5571
951.66792
948.88663
946.48331
939.5379
913.7669
923.31358
924.37809
926.28656
926.36275
927.62591
929.07395
930.04604
929.60451
929.87378
929.76281
929.48429
929.49246
974.50252
974.33634
972.5634
971.82888
968.41012
966.37383
966.46763
965.23881
961.41187
955.09573
953.61111
948.04448
941.23356
914.57736
921.97371
924.08154
925.31579
925.98299
927.18782
928.70755
928.57276
928.68953
928.91477
929.06208
928.68842
928.76443
981.01779
979.1694
977.34755
975.02896
971.82541
968.9312
969.89933
966.42741
962.33342
963.20785
961.54287
950.91013
932.1393
927.56858
929.28479
927.52856
928.53166
934.15169
937.32489
935.00511
929.68052
928.2828
926.77417
927.71805
929.06944
930.11525
930.97379
933.75284
934.46036
934.22012
978.07117
976.19525
973.88724
971.3787
968.12077
965.04674
966.69179
966.46702
961.24324
961.0948
957.87244
942.32362
932.44352
928.37302
932.60321
932.7307
932.04372
931.43683
934.32613
933.72993
931.2916
929.37717
928.46214
929.71731
930.92502
931.55694
931.26928
931.8969
932.23121
932.05523
977.82202
975.64607
973.04589
970.9528
966.95527
964.18892
964.49991
965.96504
960.62
957.06091
955.4501
942.54335
937.14982
928.86756
932.20801
935.78663
933.59116
930.02186
929.37018
932.07062
931.33452
927.78714
928.32136
929.91073
931.11767
931.85244
931.17985
931.29707
931.77906
931.57488
978.03674
976.68985
972.40565
969.93373
966.72106
963.30046
964.29791
967.03325
962.04177
958.07666
955.09313
943.19522
942.67287
935.24154
933.10423
941.46078
933.61647
930.83351
928.6621
934.74607
931.2961
928.30247
928.61985
929.99464
931.26657
931.39455
930.83506
931.67047
931.55293
931.31197
977.45729
976.16877
972.69333
970.41107
968.62501
963.01912
961.58777
959.62328
956.59728
956.29062
952.99604
941.37196
938.62909
933.74173
930.34584
932.33935
931.87457
928.94077
927.55451
928.34682
928.18711
927.59414
928.10919
929.43494
929.7352
929.54782
929.88909
930.29049
930.45565
930.52503
982.77045
979.4024
976.41367
978.61328
973.54561
968.32102
972.12451
972.45238
970.91573
971.09859
970.72901
954.93847
946.31836
950.83391
946.01302
946.26626
944.66145
941.44372
939.65775
939.25616
936.8914
933.10092
929.81484
929.94592
929.15903
928.06123
930.97561
932.81419
935.57217
936.24267
978.54236
976.24187
974.88501
974.70161
970.60767
966.42519
968.18497
971.61552
970.94994
969.17311
967.28748
952.07906
942.61796
945.26617
943.3864
945.94449
945.62702
941.36094
937.77411
937.55347
936.47617
934.58839
932.69556
931.72863
931.19193
931.97387
932.43177
932.34576
934.20147
934.45988
978.30263
976.92751
974.85114
972.78886
968.7238
966.06671
967.54214
971.76985
971.79824
968.57658
965.92722
950.56974
940.8441
938.36133
942.22579
945.59031
945.69617
941.17955
935.55515
936.90949
935.50186
933.4673
932.45644
931.44279
931.3134
932.01251
932.35015
932.2249
933.04634
933.84821
978.21938
976.83899
975.71024
970.28767
967.52664
964.60354
966.57745
972.02859
971.09868
968.60568
965.52723
948.61424
944.24034
946.47196
947.4746
946.90182
945.13624
940.12281
933.94782
936.36866
933.76061
933.04096
931.82506
931.44411
931.47885
932.06526
932.24197
931.22179
931.76951
933.38131
976.41379
975.54142
972.51295
970.62264
969.34652
964.45806
965.41282
965.99424
966.45464
965.59001
964.42633
946.78575
945.05194
943.25159
942.52541
943.52199
943.81694
939.11586
932.05982
929.93287
929.37683
929.82815
930.08108
930.39786
930.598
931.02644
931.02028
930.45391
929.95753
930.91149
982.69657
979.86472
976.56743
979.05043
981.23198
979.94081
978.79302
977.51564
976.83646
976.32988
969.80056
960.87591
959.08646
961.82506
952.74078
947.1947
944.70516
942.37241
940.04996
936.75766
932.55059
931.50781
931.44375
930.22555
930.51732
930.20137
927.26376
929.76325
932.77154
934.20879
978.6553
976.78337
976.24776
975.58844
977.64671
976.60313
973.90133
974.1821
974.28675
974.0282
966.19708
956.09731
952.33599
955.02436
949.8167
946.47879
945.75967
943.11749
941.27345
940.0734
934.14778
932.43212
931.98087
931.69459
931.1826
931.3024
932.16879
931.92905
932.33894
933.2112
978.54572
977.72779
976.38247
974.20019
974.26668
973.10739
972.89614
974.40802
975.6111
973.98588
965.24602
953.94622
950.10728
951.54543
949.94953
948.4848
947.62752
943.47982
940.25042
939.84126
933.92998
932.83726
932.48643
931.84123
931.88209
931.63309
932.10463
931.64801
931.5458
932.50288
978.47065
977.92689
976.84653
974.70228
972.65966
971.98043
971.71032
972.16596
975.75896
973.59332
964.17892
959.73379
958.72917
952.7429
951.47415
949.96544
947.99478
941.77499
937.95681
938.35205
933.84279
931.70553
931.96306
931.613
931.96961
931.90421
932.21016
931.18874
930.61676
931.00287
978.0165
977.58655
976.10654
974.61223
972.89028
971.8868
970.41915
971.52085
972.26664
970.63264
962.29124
956.10615
955.37561
952.45207
951.28757
947.68264
945.64675
941.19527
937.29978
936.04833
930.83508
928.9486
929.90502
929.52411
930.02807
930.78233
931.14218
930.48796
929.86121
929.48013
982.7967
979.79537
977.89961
977.25295
978.59827
981.01851
983.05594
982.93167
980.73192
969.97534
965.69841
962.56792
958.68772
960.30184
957.58631
945.57354
942.52476
939.45413
936.59551
934.34082
932.82436
931.87862
930.90724
929.41375
929.85296
930.47589
931.2282
932.40272
933.80921
934.26778
979.04739
977.64331
977.32935
976.50929
976.54014
977.54366
978.71175
979.04742
978.57798
969.6542
965.1375
962.91933
958.36111
956.81771
955.96779
947.19936
941.83496
938.79059
936.12584
934.30551
933.71313
933.22156
931.68319
930.52192
930.53838
930.94228
932.34044
932.49733
932.81381
933.13205
979.24763
978.04619
977.87502
976.32249
976.27686
977.04906
976.48082
978.07917
978.33173
971.95393
969.85666
963.12729
957.93616
954.62509
955.55854
946.82508
942.30788
942.27763
940.78804
934.73286
934.69484
933.58695
931.77756
930.40017
930.34942
930.77456
932.53626
932.82619
932.77035
933.05225
979.47227
979.12446
978.6975
977.63085
976.56796
977.03457
974.39924
969.55307
977.98816
973.28416
972.62187
962.40676
957.17503
955.28296
954.62636
946.74763
943.40242
943.54941
941.9692
935.08851
934.30356
933.08621
931.13415
929.90526
929.93201
930.5867
932.33777
932.66033
932.59243
932.64737
979.42515
979.19132
978.91689
978.45998
978.19825
977.70522
969.90267
963.50209
964.31358
965.9105
962.84494
955.99428
953.1704
952.6017
952.62457
945.65158
943.78488
940.86071
940.76922
935.11544
933.47999
931.80022
930.46116
929.40596
929.73041
930.46452
930.90774
931.24166
931.05259
931.28266
)
;

boundaryField
{
    minX
    {
        type            zeroGradient;
    }
    maxX
    {
        type            zeroGradient;
    }
    minY
    {
        type            fixedValue;
        value           uniform 1073;
    }
    minZ
    {
        type            zeroGradient;
    }
    maxZ
    {
        type            zeroGradient;
    }
    bottomWater_to_rightSolid
    {
        type            compressible::turbulentTemperatureCoupledBaffleMixed;
        refValue        nonuniform List<scalar> 
130
(
753.51327
761.49085
769.81715
778.07124
785.93714
793.19652
799.69935
805.34972
810.09575
813.91135
816.7823
818.70278
819.6639
747.60243
756.93608
766.45433
775.66926
784.27149
792.06318
798.93851
804.84364
809.76069
813.68628
816.62054
818.57045
819.54767
735.81048
748.25589
760.31416
771.43854
781.4147
790.16186
797.68757
804.03058
809.23308
813.34159
816.39035
818.40671
819.41195
718.25363
736.54568
752.68284
766.51014
778.24455
788.13731
796.40541
803.22713
808.73783
813.0428
816.21499
818.30442
819.34194
697.61148
725.48019
746.4471
762.86358
776.05234
786.80242
795.59459
802.74144
808.46238
812.90236
816.15822
818.2954
819.35513
697.73483
725.58904
746.53929
762.94519
776.12637
786.8703
795.66046
802.80698
808.52883
812.97077
816.22938
818.36855
819.43058
718.6063
736.83042
752.92568
766.72695
778.43488
788.30931
796.57305
803.396
808.91445
813.22976
816.41197
818.50921
819.55226
736.27972
748.65446
760.65551
771.73982
781.68205
790.41105
797.93235
804.27908
809.49357
813.61202
816.66741
818.68981
819.70089
748.07801
757.38181
766.85706
776.02181
784.58718
792.36426
799.23428
805.14733
810.07665
814.01017
816.94815
818.90099
819.87644
753.92928
761.91227
770.20592
778.43624
786.2868
793.53432
800.03062
805.68758
810.44571
814.26905
817.1418
819.05749
820.01685
)
;
        refGradient     uniform 0;
        valueFraction   uniform 0.99248593;
        value           nonuniform List<scalar> 
130
(
754.8629
762.7635
771.01342
779.19259
786.98772
794.19111
800.64753
806.25599
810.96809
814.76081
817.61713
819.53462
820.48979
748.94502
758.21087
767.65187
776.79014
785.33573
793.07246
799.90026
805.76107
810.64454
814.54677
817.45855
819.387
820.36185
737.22595
749.59436
761.55991
772.58975
782.50492
791.19016
798.66131
804.96187
810.1229
814.20105
817.22574
819.22265
820.21919
719.7435
737.96265
753.97792
767.69164
779.34526
789.17538
797.38668
804.16231
809.62916
813.9005
817.04722
819.11854
820.14488
699.21889
726.93587
747.76912
764.07024
777.16287
787.84541
796.58208
803.67489
809.35613
813.76563
816.9971
819.11592
820.16532
699.36428
727.06473
747.87337
764.16525
777.25239
787.92468
796.6602
803.752
809.43174
813.84201
817.07723
819.19752
820.25214
720.18682
738.26352
754.24372
767.94014
779.55568
789.35978
797.5714
804.34532
809.82091
814.10636
817.26767
819.3504
820.38612
737.80382
750.03261
761.92751
772.92429
782.79523
791.46052
798.92771
805.22825
810.4068
814.49425
817.52244
819.52589
820.53651
749.52908
758.73372
768.12837
777.18506
785.67192
793.39775
800.21327
806.0857
810.98366
814.89033
817.80131
819.73478
820.70002
755.33388
763.25622
771.44502
779.60125
787.38022
794.56323
801.00277
806.61966
811.34755
815.14548
817.99917
819.89905
820.85291
)
;
        Tnbr            T;
        thicknessLayers List<scalar> 0();
        kappaLayers     List<scalar> 0();
        kappaMethod     fluidThermo;
        kappa           none;
        alphaAni        none;
        alpha           none;
        field           T;
    }
    bottomWater_to_leftSolid
    {
        type            compressible::turbulentTemperatureCoupledBaffleMixed;
        refValue        nonuniform List<scalar> 
130
(
905.20054
905.13391
905.01278
904.83392
904.60764
904.38217
904.15213
903.9091
903.64946
903.39243
903.17736
903.00623
902.87145
905.19549
905.13711
905.03069
904.8716
904.65902
904.43743
904.20707
903.95794
903.68681
903.42431
903.19895
903.01658
902.87088
905.21395
905.16372
905.06208
904.90454
904.70062
904.48261
904.24531
903.98215
903.69725
903.4336
903.20574
903.01478
902.8614
905.27116
905.2198
905.11131
904.94088
904.73879
904.51283
904.25786
903.97644
903.69665
903.43013
903.19235
902.99114
902.82962
905.3742
905.32001
905.20047
905.02809
904.81898
904.5803
904.31134
904.00656
903.70316
903.40901
903.14372
902.92111
902.76685
905.52018
905.45916
905.32985
905.1449
904.9047
904.63053
904.33782
904.02004
903.6828
903.34692
903.05124
902.79851
902.63672
905.68973
905.61804
905.47214
905.26896
905.01255
904.70515
904.38681
904.05469
903.71376
903.38543
903.06927
902.77936
902.61832
905.84346
905.77455
905.63253
905.43237
905.17777
904.86994
904.55463
904.23127
903.90486
903.57936
903.26027
902.94966
902.79196
906.00422
905.94274
905.81443
905.62493
905.37851
905.08361
904.75573
904.42266
904.09174
903.76129
903.43256
903.16829
903.03129
906.11345
906.05807
905.94259
905.7657
905.52765
905.22626
904.85694
904.47645
904.13225
903.81729
903.52022
903.27536
903.14113
)
;
        refGradient     uniform 0;
        valueFraction   uniform 0.99248593;
        value           nonuniform List<scalar> 
130
(
905.73848
905.65055
905.51613
905.31398
905.04251
904.81276
904.57998
904.33051
904.05025
903.7644
903.54122
903.36375
903.15366
905.7213
905.64317
905.53284
905.37239
905.12359
904.89628
904.66757
904.41321
904.11507
903.82523
903.58596
903.40246
903.18063
905.72757
905.67083
905.56638
905.39791
905.16507
904.95129
904.71751
904.44373
904.12131
903.84193
903.60918
903.41397
903.18223
905.77955
905.72384
905.61067
905.40537
905.19582
904.96973
904.70591
904.39933
904.12022
903.84861
903.6068
903.40135
903.14497
905.8812
905.82777
905.69194
905.50729
905.2978
905.06195
904.7949
904.4548
904.14633
903.84106
903.56377
903.31985
903.11139
906.03851
905.97671
905.83504
905.64598
905.38188
905.09445
904.80463
904.48002
904.11654
903.73573
903.43111
903.13847
902.92674
906.229
906.14817
905.97724
905.75843
905.49053
905.14329
904.81661
904.47224
904.1111
903.78293
903.44442
903.06931
902.88885
906.37372
906.29878
906.13506
905.92222
905.65998
905.31764
905.01185
904.69526
904.37477
904.04528
903.71992
903.27892
903.10949
906.54533
906.48108
906.3426
906.14329
905.8858
905.58556
905.24909
904.92681
904.60396
904.2638
903.87477
903.566
903.4246
906.66435
906.60762
906.49094
906.31195
906.07372
905.77087
905.34566
904.91991
904.58434
904.28377
903.96589
903.67147
903.51708
)
;
        Tnbr            T;
        thicknessLayers List<scalar> 0();
        kappaLayers     List<scalar> 0();
        kappaMethod     fluidThermo;
        kappa           none;
        alphaAni        none;
        alpha           none;
        field           T;
    }
    bottomWater_to_heater
    {
        type            compressible::turbulentTemperatureCoupledBaffleMixed;
        refValue        nonuniform List<scalar> 
92
(
734.31484
736.44006
740.5551
746.38567
724.89102
727.37563
732.22307
739.14214
705.08275
708.27139
714.66158
724.08213
345.68192
342.95076
342.98044
345.6978
422.6941
419.3181
419.52586
423.10969
488.59616
485.72476
486.40584
490.13934
544.64976
542.8568
544.72797
549.19242
672.94167
590.94124
676.9268
591.07874
685.50159
595.66699
699.35654
603.22172
345.68192
345.6978
422.6941
423.10969
488.59616
490.13934
544.64976
549.19242
590.94124
603.22172
345.68263
345.68263
342.98451
343.03464
345.791
345.791
422.70356
422.70356
419.39069
419.63152
423.24837
423.24837
488.61379
488.61379
485.80985
486.52586
490.27127
490.27127
544.68026
544.68026
542.94512
544.85821
549.3431
549.3431
590.97303
590.97303
591.15689
595.78109
603.3653
603.3653
673.25538
677.25108
685.85497
699.71537
705.51853
708.71343
715.12478
724.55344
725.37062
727.83384
732.65963
739.5734
734.76616
736.86356
740.9327
746.74703
)
;
        refGradient     uniform 0;
        valueFraction   nonuniform List<scalar> 
92
(
0.99248593
0.99248593
0.99248593
0.99248593
0.99248593
0.99248593
0.99248593
0.99248593
0.99248593
0.99248593
0.99248593
0.99248593
0.99248593
0.99248593
0.99248593
0.99248593
0.99248593
0.99248593
0.99248593
0.99248593
0.99248593
0.99248593
0.99248593
0.99248593
0.99248593
0.99248593
0.99248593
0.99248593
0.99248593
0.99248593
0.99248593
0.99248593
0.99248593
0.99248593
0.99248593
0.99248593
0.99248593
0.99248593
0.99248593
0.99248593
0.99248593
0.99248593
0.99248593
0.99248593
0.99248593
0.99248593
0.99248593
0.99248593
0.99248593
0.99248593
0.99248593
0.99248593
0.99248593
0.99248593
0.99248593
0.99248593
0.99248593
0.99248593
0.99248593
0.99248593
0.99248593
0.99248593
0.99248593
0.99248593
0.99248593
0.99248593
0.99248593
0.99248593
0.99248593
0.99248593
0.99248593
0.99248593
0.99248593
0.99248593
0.99248593
0.99248593
0.99248593
0.99248593
0.99248593
0.99248593
0.99248593
0.99248593
0.99248593
0.99248593
0.99248593
0.99248593
0.99248593
0.99248593
0.99248593
0.99248593
0.99248593
0.99248593
)
;
        value           nonuniform List<scalar> 
92
(
735.85448
737.97011
742.03965
747.81713
726.48003
728.95657
733.75574
740.59867
706.7867
709.94094
716.23387
725.57129
349.98837
347.27704
347.30198
349.98474
426.42039
423.05046
423.25374
426.79995
491.83387
488.95067
489.61687
493.31652
547.47842
545.67531
547.54339
551.96806
674.80121
593.41693
678.73053
593.52753
687.22618
598.0666
700.98059
605.56813
350.12062
350.01027
426.59464
426.8573
492.02198
493.34777
547.67591
551.9151
593.62886
605.53838
350.07617
350.05491
347.39004
347.4266
350.1609
350.16973
426.55047
426.50316
423.24703
423.48697
427.01852
427.07147
491.97503
491.922
489.16416
489.90155
493.44006
493.60239
547.64726
547.61519
545.87684
547.83834
552.08146
552.23055
593.60491
593.54873
593.70562
598.31005
605.70385
605.83375
675.21281
679.15289
687.7071
701.45984
707.30491
710.47039
716.84104
726.20104
727.07697
729.51291
734.27536
741.12187
736.40302
738.48485
742.47098
748.22761
)
;
        Tnbr            T;
        thicknessLayers List<scalar> 0();
        kappaLayers     List<scalar> 0();
        kappaMethod     fluidThermo;
        kappa           none;
        alphaAni        none;
        alpha           none;
        field           T;
    }
}


// ************************************************************************* //
