/*--------------------------------*- C++ -*----------------------------------*\
| =========                 |                                                 |
| \\      /  F ield         | OpenFOAM: The Open Source CFD Toolbox           |
|  \\    /   O peration     | Version:  v2012                                 |
|   \\  /    A nd           | Website:  www.openfoam.com                      |
|    \\/     M anipulation  |                                                 |
\*---------------------------------------------------------------------------*/
FoamFile
{
    version     2.0;
    format      ascii;
    class       volScalarField;
    location    "28";
    object      p;
}
// * * * * * * * * * * * * * * * * * * * * * * * * * * * * * * * * * * * * * //

dimensions      [0 2 -2 0 0 0 0];


internalField   nonuniform List<scalar> 
64000
(
6.00885e-22
-3.30633e-21
-2.40272e-21
-4.78809e-21
-7.84538e-21
-2.70127e-21
-4.18818e-21
-3.60855e-21
-5.01504e-21
-4.04245e-21
-4.53055e-21
-6.16863e-21
-3.89287e-21
-6.16545e-21
-3.66416e-21
-4.90461e-21
-8.14359e-22
-6.07525e-22
-1.36007e-21
-1.24185e-21
-1.45452e-21
-2.47669e-21
-2.10711e-21
6.39423e-22
-5.09822e-21
-1.43246e-21
1.16089e-21
-3.31401e-21
-4.53034e-21
-1.84507e-21
-8.76191e-22
-5.97008e-22
-1.36832e-21
-1.36937e-21
-1.66475e-21
-5.54958e-21
-1.60772e-21
5.479e-22
6.16455e-22
4.47645e-22
-5.73055e-21
-9.63018e-21
-9.44733e-21
-7.27987e-21
-1.00925e-20
-1.19914e-20
-8.35264e-21
-3.46498e-21
-3.71582e-21
-9.26161e-21
-8.78377e-21
-9.78345e-21
-4.34302e-21
-4.7127e-21
-6.1067e-21
-5.65889e-21
-3.51297e-21
2.17847e-21
-2.55168e-21
-2.01598e-21
1.41039e-21
-3.94623e-21
-5.61702e-21
-6.69179e-21
-5.68701e-21
-2.24769e-21
-2.42512e-21
-4.78794e-21
-4.02658e-21
-1.9595e-21
1.81582e-21
5.95488e-22
-3.92285e-21
-3.09922e-21
-2.19353e-21
-2.47442e-21
-1.90655e-21
5.02285e-22
2.49849e-21
1.67672e-21
-4.9886e-21
-7.96425e-21
-1.22156e-20
-1.00279e-20
-8.86529e-21
-1.20128e-20
-1.05739e-20
-7.71391e-21
-8.6205e-21
-9.31293e-21
-6.5875e-21
-7.68376e-21
-6.90773e-21
-4.55054e-21
-3.68836e-21
-1.81322e-21
-7.77788e-21
-2.81841e-21
-4.97298e-22
-3.03169e-22
-2.65301e-21
-4.87224e-21
-6.16655e-21
-5.36463e-21
-3.67911e-21
-3.923e-21
-5.15802e-21
-4.87937e-21
-1.48457e-21
-2.35927e-21
-1.55451e-21
-6.73038e-22
-4.38916e-21
3.13754e-22
-1.74105e-21
-4.68155e-21
1.36937e-21
1.90002e-21
1.22562e-21
1.20088e-21
-8.60029e-21
-8.78339e-21
-9.98976e-21
-1.36711e-20
-1.24952e-20
-1.31346e-20
-1.03795e-20
-7.14025e-21
-9.35313e-21
-9.48724e-21
-7.48161e-21
-8.88202e-21
-8.04642e-21
-4.2572e-21
-4.55242e-21
-3.47476e-21
-4.59614e-21
-3.9203e-21
1.39897e-21
-1.88985e-21
-4.61935e-21
-8.34278e-21
-6.56161e-21
-6.1848e-21
-5.93979e-21
-3.89464e-21
-3.85974e-21
-1.65635e-21
-2.2215e-21
-3.09296e-21
-1.83054e-22
-1.82292e-21
-2.33746e-21
-6.18415e-22
-1.84061e-21
-2.62497e-21
-1.84041e-22
-1.03496e-21
5.63769e-22
2.41961e-22
-1.47375e-20
-9.70478e-21
-1.07408e-20
-1.13249e-20
-1.25789e-20
-1.42495e-20
-1.0675e-20
-4.80595e-21
-8.3649e-21
-1.112e-20
-8.2784e-21
-8.23436e-21
-6.48037e-21
-2.38099e-21
-8.23079e-21
-1.24653e-20
-4.18286e-21
-1.5724e-21
-1.38761e-21
-2.33668e-21
-2.97835e-21
-7.3851e-21
-8.83248e-21
-5.89589e-21
-4.81087e-21
-4.00318e-21
-2.21982e-21
-2.80239e-21
-5.19763e-21
-1.08335e-21
5.95407e-22
7.79449e-22
6.86509e-22
-3.86908e-22
-3.73918e-21
-2.07621e-21
-1.29625e-21
-5.92416e-22
7.43341e-22
-1.88733e-21
-1.07384e-20
-1.06795e-20
-9.86929e-21
-1.3161e-20
-1.27955e-20
-1.15818e-20
-8.4618e-21
-1.15335e-20
-1.12872e-20
-1.00951e-20
-7.14049e-21
-8.41985e-21
-8.2274e-21
-3.02096e-21
-6.97829e-21
-1.00363e-20
-5.43221e-21
-1.52218e-21
-9.70278e-22
-4.07786e-21
-4.80595e-22
-5.81301e-21
-1.03605e-20
-6.61652e-21
-4.80269e-21
-3.79376e-21
-4.18294e-21
-1.54397e-21
-2.51277e-21
-3.39995e-21
-2.72378e-21
-1.97186e-21
-3.75429e-22
3.07913e-22
-1.63374e-21
-2.26367e-21
-1.83246e-21
-1.59908e-21
-3.83883e-22
6.10845e-22
-1.20357e-20
-1.3415e-20
-9.50193e-21
-1.16759e-20
-1.29594e-20
-1.21544e-20
-8.98877e-21
-1.09896e-20
-1.21439e-20
-9.90845e-21
-7.7159e-21
-9.63618e-21
-7.53376e-21
-6.03362e-21
-6.9006e-21
-8.0541e-21
-5.05e-21
2.64411e-24
1.14497e-21
-3.13722e-21
-4.67256e-21
-7.28728e-21
-1.20153e-20
-9.23626e-21
-2.4005e-21
-3.77688e-21
-3.06031e-21
-1.72528e-21
-1.17477e-21
-1.17087e-21
-4.58058e-21
-4.14722e-21
1.63072e-22
-3.36229e-23
-1.52591e-21
-3.93372e-21
-2.82932e-21
-6.79558e-22
-1.25858e-21
-1.04092e-21
-1.37665e-20
-1.33115e-20
-1.19174e-20
-1.10508e-20
-1.27312e-20
-1.00207e-20
-8.89258e-21
-1.64724e-20
-1.39083e-20
-1.07949e-20
-8.57441e-21
-8.01904e-21
-7.41597e-21
-7.8735e-21
-6.30848e-21
-9.11504e-21
-4.13234e-21
-1.66336e-21
-2.39861e-21
-3.56368e-21
-4.03834e-21
-6.59622e-21
-7.4236e-21
-7.32977e-21
-4.54195e-21
-5.26802e-21
-2.71121e-21
-5.48589e-22
-1.30392e-21
-3.40377e-21
-3.83242e-21
-3.42755e-21
1.98056e-22
-1.9006e-21
-4.6134e-21
-6.86343e-21
-2.23016e-21
1.07828e-22
1.93544e-22
-5.21983e-22
-1.90795e-20
-1.44628e-20
-1.23346e-20
-1.20318e-20
-1.25112e-20
-1.33606e-20
-1.19102e-20
-1.2086e-20
-1.3729e-20
-1.32681e-20
-7.03694e-21
-8.07426e-21
-6.37011e-21
-9.05318e-21
-8.9523e-21
-9.19598e-21
-4.52478e-21
1.66258e-21
-5.79325e-21
-6.61323e-21
-1.4085e-21
-5.95348e-21
-7.33989e-21
-9.20793e-21
-2.37743e-21
-3.48696e-21
-5.52336e-21
-2.94691e-21
-5.86728e-23
-3.42412e-21
-2.39048e-21
-1.51382e-21
3.94359e-22
-1.85299e-21
-5.82229e-21
-3.52406e-21
-3.67988e-21
6.95649e-22
1.35321e-21
-8.43084e-22
-1.02654e-20
-1.27544e-20
-1.36091e-20
-1.18303e-20
-1.31355e-20
-1.40884e-20
-1.15971e-20
-1.12737e-20
-1.27558e-20
-1.3009e-20
-8.81679e-21
-8.13038e-21
-7.3077e-21
-9.66014e-21
-9.03875e-21
-5.78223e-21
-5.99741e-21
-2.68906e-21
1.98532e-22
-2.7995e-21
-4.68208e-21
-4.19163e-21
-9.82614e-21
-8.55303e-21
-5.91281e-21
-2.46925e-21
-3.14891e-21
-1.25091e-21
-2.09842e-21
-1.62328e-21
-1.68365e-21
-2.55912e-22
-1.12411e-21
-1.73735e-21
-5.28374e-21
-4.66951e-21
-2.66149e-21
-6.12417e-22
4.80974e-22
-3.59507e-22
-9.90068e-21
-1.37194e-20
-1.35389e-20
-1.55979e-20
-1.19821e-20
-1.3836e-20
-1.62458e-20
-9.1846e-21
-1.37835e-20
-1.44904e-20
-8.76951e-21
-5.41144e-21
-5.92847e-21
-9.35895e-21
-8.85044e-21
-9.22421e-21
-5.75889e-21
-1.23115e-21
2.46171e-21
-1.35462e-21
-7.30027e-21
-1.02695e-20
-8.49683e-21
-7.9754e-21
-6.59194e-21
-1.35665e-21
3.05432e-22
-1.71936e-21
-2.03788e-21
-1.79054e-21
-3.35799e-21
1.7487e-21
-3.49016e-21
-1.32399e-21
-1.64428e-21
-5.28744e-21
-2.4869e-21
-2.46102e-21
-7.97354e-22
1.53703e-23
-1.13985e-20
-1.45429e-20
-1.47546e-20
-1.32629e-20
-1.37546e-20
-1.85472e-20
-1.33602e-20
-1.21145e-20
-9.51853e-21
-1.2088e-20
-1.30827e-20
-8.41699e-21
-5.0792e-21
-9.56113e-21
-9.12665e-21
-1.17408e-20
-5.88266e-21
1.06575e-21
-3.60388e-22
-1.424e-21
-6.46237e-21
-1.00642e-20
-8.40384e-21
-8.13803e-21
-7.63326e-21
-5.8171e-22
-9.67233e-22
-1.68386e-21
-2.78548e-21
-1.21123e-21
-2.36152e-23
-2.21017e-22
-9.58931e-22
-2.10305e-21
1.9121e-21
-4.64586e-21
-3.09786e-21
-2.04131e-21
-8.24922e-22
-3.84987e-22
-1.65536e-20
-1.48286e-20
-1.46517e-20
-1.43279e-20
-1.53232e-20
-1.53028e-20
-1.48158e-20
-1.43239e-20
-1.3751e-20
-1.22818e-20
-1.1363e-20
-6.39113e-21
-6.89149e-21
-1.04331e-20
-7.99429e-21
-7.55533e-21
-5.0611e-21
-1.58568e-21
-1.35059e-21
-3.55492e-21
-5.92315e-21
-6.801e-21
-7.51723e-21
-6.75124e-21
-4.33223e-21
-1.10188e-21
-9.40551e-22
-2.70487e-21
-1.81117e-21
-8.5951e-22
-4.09476e-21
-1.36651e-21
1.78413e-21
-3.7962e-21
-2.20412e-21
-2.38455e-21
-2.32278e-21
-2.96235e-21
-1.46764e-21
-1.43476e-21
-1.90532e-20
-1.78886e-20
-1.51033e-20
-1.56933e-20
-1.28201e-20
-1.33078e-20
-1.55191e-20
-1.28853e-20
-1.12638e-20
-1.43027e-20
-1.01009e-20
-6.36248e-21
-9.03073e-21
-1.42648e-20
-9.75301e-21
-7.27423e-21
-3.91783e-21
4.82908e-23
-2.11361e-21
-3.69157e-21
-7.09964e-21
-8.43766e-21
-9.51871e-21
-8.24286e-21
-2.17607e-21
-9.05463e-22
1.98896e-22
-1.45731e-21
-1.88925e-21
2.48035e-21
-1.9748e-21
-5.2866e-21
-1.28737e-21
-1.40768e-21
-1.51015e-21
-2.48876e-21
-2.55983e-21
-2.72831e-21
-9.35789e-22
-2.35116e-21
-1.24243e-20
-1.95707e-20
-1.84578e-20
-1.36892e-20
-1.09507e-20
-1.39992e-20
-1.93723e-20
-1.92806e-20
-1.28141e-20
-9.51073e-21
-7.75936e-21
-9.97074e-21
-9.66307e-21
-1.33549e-20
-6.78083e-21
-7.46776e-21
-5.30835e-21
-4.0047e-21
-5.30895e-21
-3.21873e-22
-9.06165e-21
-5.79422e-21
-6.22596e-21
-9.84946e-21
-1.7795e-21
-1.77925e-21
-2.09839e-21
-2.39338e-21
-7.58635e-22
4.73386e-22
3.06207e-23
-1.89632e-21
-2.33541e-21
-1.24424e-21
-2.58183e-21
-2.83578e-21
-1.75551e-21
-2.45218e-21
-1.80696e-21
4.0536e-22
-1.36071e-20
-1.44601e-20
-1.79706e-20
-1.43652e-20
-1.50217e-20
-1.34064e-20
-1.75891e-20
-1.7767e-20
-1.14736e-20
-8.71023e-21
-1.25844e-20
-1.06295e-20
-8.5907e-21
-9.9042e-21
-1.01951e-20
-9.38937e-21
-5.37933e-21
-5.73975e-21
-3.25719e-21
-8.49468e-22
-9.55747e-21
-7.62996e-21
-5.02705e-21
-4.91499e-21
-1.9778e-21
-4.01776e-21
-5.11019e-21
-2.40636e-21
-3.15134e-23
5.8833e-22
-5.60245e-22
-1.60597e-21
-1.75656e-21
-2.36037e-21
-4.37884e-21
-3.01245e-21
-2.10897e-21
-5.50359e-22
-2.74848e-22
-3.26172e-22
-1.46671e-20
-1.34494e-20
-1.63876e-20
-1.20584e-20
-1.24011e-20
-1.44589e-20
-1.8033e-20
-1.88973e-20
-1.05061e-20
-1.11029e-20
-1.28172e-20
-1.34706e-20
-5.50896e-21
-8.87787e-21
-9.13887e-21
-8.5767e-21
-8.05494e-21
-5.21406e-21
-4.61039e-21
-4.54639e-21
-8.90013e-21
-5.98573e-21
-4.66252e-21
-2.64042e-21
-1.82357e-21
-2.65179e-21
-3.73425e-21
-3.43382e-21
-8.41506e-22
-2.55681e-21
6.45024e-22
-3.53705e-21
-1.94475e-21
-8.32717e-22
-4.74765e-22
-2.51104e-21
-3.94729e-21
-2.74528e-21
5.64362e-22
-1.57893e-21
-1.09165e-20
-1.43419e-20
-1.91068e-20
-1.19732e-20
-9.51934e-21
-1.43728e-20
-1.82539e-20
-1.70099e-20
-1.32368e-20
-1.20293e-20
-1.24608e-20
-1.18413e-20
-7.37418e-21
-6.75285e-21
-8.52447e-21
-1.15592e-20
-8.81093e-21
-5.58642e-22
-4.29998e-21
-6.56961e-21
-1.12895e-20
-7.33817e-21
-1.82239e-21
-1.81649e-21
1.02539e-21
-4.91541e-21
-4.08646e-21
-2.09996e-21
-2.45896e-21
-1.62204e-21
-1.33632e-21
-6.34252e-22
-2.71241e-22
-2.32717e-22
2.84124e-22
-2.85299e-21
-3.66407e-21
-3.92951e-21
-9.07972e-22
-4.69584e-22
-9.13291e-21
-1.08124e-20
-1.44136e-20
-1.39608e-20
-1.29937e-20
-1.40941e-20
-1.5462e-20
-1.45119e-20
-1.38419e-20
-1.41736e-20
-1.12672e-20
-1.13601e-20
-8.55304e-21
-6.04813e-21
-9.01705e-21
-9.42707e-21
-8.86797e-21
-7.71783e-21
-9.90534e-21
-6.42586e-21
-8.02771e-21
-1.13413e-21
-2.55916e-21
-2.15656e-21
-1.86785e-22
-1.87348e-21
-3.28665e-21
-9.01269e-22
-1.1989e-21
-1.68791e-21
-4.9814e-21
-4.01495e-22
4.11754e-23
-9.21956e-22
-2.01526e-23
-1.98512e-21
-3.54694e-21
-1.59437e-21
-3.36577e-21
-2.49068e-21
-8.91324e-21
-1.03722e-20
-1.66496e-20
-1.52274e-20
-1.32514e-20
-1.167e-20
-1.22252e-20
-1.75404e-20
-1.49162e-20
-1.45097e-20
-1.05218e-20
-1.04142e-20
-9.6598e-21
-8.10369e-21
-1.0097e-20
-9.46738e-21
-6.28282e-21
-5.01986e-21
-1.08552e-20
-6.11161e-21
-7.01884e-21
-5.23625e-21
-2.97946e-21
-2.28334e-21
2.82199e-22
7.67927e-22
-7.18258e-21
-3.38795e-21
-8.83459e-22
-8.06156e-22
-3.05244e-21
7.04803e-24
-9.47041e-22
-1.60087e-21
-1.00767e-21
-4.81315e-22
-2.99331e-21
-1.675e-21
-3.1709e-21
-2.32764e-21
-1.12512e-20
-1.34099e-20
-1.52039e-20
-1.34052e-20
-1.09881e-20
-1.15215e-20
-1.32024e-20
-1.34733e-20
-1.4478e-20
-1.46674e-20
-1.59671e-20
-1.28934e-20
-9.63025e-21
-9.03565e-21
-1.0027e-20
-4.98866e-21
-7.77606e-21
-4.08128e-21
-6.96484e-21
-6.58069e-21
-5.98766e-21
-3.41675e-21
-3.29563e-21
-5.37809e-21
-4.63729e-21
-1.68609e-22
-2.95968e-21
-2.43559e-21
-2.11173e-21
-8.60046e-22
-1.86106e-21
-2.44643e-22
-3.5489e-21
-1.52943e-22
-7.38609e-22
-1.99372e-21
-2.80339e-21
-1.63657e-21
-4.34714e-22
-2.18328e-21
-1.72845e-20
-1.56331e-20
-1.3693e-20
-1.32114e-20
-1.2773e-20
-1.24206e-20
-1.28469e-20
-9.97139e-21
-1.31605e-20
-1.4669e-20
-1.5369e-20
-1.47815e-20
-1.16264e-20
-1.07788e-20
-9.08246e-21
-5.91135e-21
-4.48553e-21
-3.35004e-21
-7.09843e-21
-7.38369e-21
-5.44477e-21
-2.35331e-21
-4.83889e-21
-4.48322e-21
-1.94272e-21
-1.78194e-21
-4.57702e-21
-4.15561e-21
-2.82481e-21
-1.17876e-21
-1.48762e-21
6.49612e-22
-1.87214e-22
-4.87634e-22
-2.69264e-21
-6.24784e-21
-1.79162e-21
-2.50257e-21
1.39099e-21
7.16505e-22
-1.7558e-20
-1.89862e-20
-1.33007e-20
-1.31151e-20
-1.35446e-20
-1.51666e-20
-1.18599e-20
-9.77874e-21
-1.51404e-20
-1.31128e-20
-1.36771e-20
-1.32292e-20
-1.06568e-20
-7.48678e-21
-7.46378e-21
-6.83167e-21
-5.22942e-21
-4.64263e-22
-1.40831e-21
-6.69583e-21
-7.45252e-21
-6.05358e-21
-7.01674e-21
-4.90057e-21
-2.7757e-21
-2.76505e-21
-2.62155e-21
-3.0199e-21
-2.08174e-21
-1.44145e-21
-3.47081e-21
-8.61085e-22
1.5195e-21
4.95093e-22
-5.62378e-21
-4.8917e-21
-2.72417e-21
-7.73918e-22
-4.96532e-22
-1.28392e-22
-1.32372e-20
-1.51092e-20
-1.69569e-20
-1.24707e-20
-1.31406e-20
-1.44254e-20
-1.36442e-20
-1.38739e-20
-1.11088e-20
-1.30075e-20
-1.46594e-20
-1.40843e-20
-6.53594e-21
-1.0658e-20
-1.083e-20
-4.78546e-21
-4.36739e-22
-1.85677e-21
-4.13652e-21
-4.62453e-21
-5.6243e-21
-6.24134e-21
-7.45176e-21
-5.4259e-21
-5.44202e-21
-7.89696e-22
-1.63016e-21
-4.73515e-21
2.61174e-22
-2.3581e-21
-4.47772e-21
-3.14112e-22
4.58268e-23
-3.4182e-21
-6.36614e-21
-4.48755e-21
-3.33538e-21
-1.00723e-21
-1.91404e-21
-2.13805e-21
-1.0095e-20
-1.49901e-20
-1.50829e-20
-1.42494e-20
-1.15971e-20
-1.45583e-20
-1.34123e-20
-1.29966e-20
-1.00379e-20
-1.41764e-20
-1.67585e-20
-1.33978e-20
-6.86962e-21
-8.19562e-21
-8.79745e-21
-3.43379e-21
-2.96853e-21
-6.82575e-21
-3.42639e-21
-1.09484e-21
-4.79589e-21
-6.0994e-21
-3.89129e-21
-4.29695e-21
-6.43409e-21
-5.33629e-21
-2.27974e-21
-1.7021e-21
-2.31546e-21
-2.77493e-21
-1.79732e-21
-2.57137e-21
-4.14403e-21
-1.26055e-22
-6.43947e-21
-4.07704e-21
-2.42086e-21
-1.7206e-21
-2.08895e-21
-1.47569e-21
-1.40724e-20
-1.69518e-20
-1.57924e-20
-1.21108e-20
-1.0467e-20
-1.29821e-20
-1.30769e-20
-1.53891e-20
-9.20985e-21
-1.18764e-20
-1.80075e-20
-1.32262e-20
-7.30692e-21
-1.1415e-20
-4.1466e-21
-4.48126e-21
-5.86794e-21
-2.40686e-21
-4.53029e-22
-3.75346e-21
-3.17305e-21
-3.65e-21
-9.72492e-21
-8.90112e-21
-6.23265e-21
-6.69641e-21
4.93629e-22
-3.70656e-21
-5.32687e-21
-5.00973e-22
-2.17139e-21
-2.38185e-21
-2.29248e-21
-1.62125e-21
-3.06803e-21
-3.10273e-21
-2.73589e-21
-2.90453e-21
-7.36096e-22
2.72941e-23
-8.43713e-21
-1.37773e-20
-1.52273e-20
-1.79703e-20
-1.39961e-20
-1.43194e-20
-1.15316e-20
-8.62577e-21
-1.08648e-20
-1.27635e-20
-1.69585e-20
-1.3346e-20
-7.99605e-21
-9.15629e-21
-5.31016e-21
-9.14588e-21
-5.78689e-21
-3.23622e-21
1.45772e-21
-8.04235e-22
-1.4553e-21
-6.90588e-21
-7.08831e-21
-7.37208e-21
-8.27737e-21
-5.09972e-21
1.51979e-22
4.9535e-23
-5.09692e-21
-1.85467e-21
5.22896e-23
-2.10428e-21
-2.62378e-21
-3.02572e-21
-7.66344e-21
-1.56554e-21
-2.04476e-21
-4.39432e-21
-3.91063e-21
-2.30567e-21
-9.66919e-21
-1.41727e-20
-1.48715e-20
-1.57465e-20
-1.26455e-20
-1.27515e-20
-1.17384e-20
-1.15963e-20
-1.10095e-20
-1.20802e-20
-1.47649e-20
-8.84196e-21
-8.42046e-21
-8.35916e-21
-9.51442e-21
-5.89637e-21
-5.8075e-21
-3.36151e-21
-1.79584e-21
-1.3509e-21
-2.72275e-21
-3.46724e-22
-4.97093e-21
-8.57339e-21
-8.45667e-21
-4.02299e-21
-7.9237e-22
-2.145e-21
-3.66405e-21
-2.42519e-21
-1.68481e-21
-2.32792e-21
-4.27693e-21
-5.74954e-21
-5.21487e-21
-2.92868e-21
-2.90871e-21
-3.76694e-21
-2.83021e-21
-8.085e-22
-1.30089e-20
-1.8465e-20
-1.50426e-20
-1.08732e-20
-1.68595e-20
-1.3177e-20
-1.10777e-20
-9.11867e-21
-1.03035e-20
-1.24439e-20
-1.33382e-20
-5.73851e-21
-8.1606e-21
-1.03557e-20
-7.80685e-21
-8.08065e-21
-7.83128e-21
-2.16608e-22
-3.9299e-22
-2.79939e-22
-5.0102e-21
-4.46202e-21
-4.51492e-21
-5.40027e-21
-6.5803e-21
-3.88644e-21
-1.50847e-21
-3.50255e-21
-1.71021e-21
-3.96764e-21
-1.97951e-21
-1.7027e-21
-3.71254e-21
-2.92618e-21
-5.60425e-21
-4.65694e-21
-4.28061e-21
-4.96267e-21
-2.17686e-21
-2.82933e-22
-1.17408e-20
-1.59145e-20
-1.67654e-20
-1.25625e-20
-1.15735e-20
-1.5639e-20
-1.14818e-20
-5.83249e-21
-8.94556e-21
-1.53613e-20
-1.08978e-20
-8.8289e-21
-5.79678e-21
-1.0171e-20
-1.0529e-20
-8.99991e-21
-6.13498e-21
-3.93803e-21
-1.08637e-22
3.14222e-21
-2.30819e-21
-6.7066e-21
-7.16947e-21
-5.87787e-21
-8.46532e-21
-5.69622e-21
-2.44621e-22
2.74621e-21
-2.22771e-21
-2.85867e-21
-2.80571e-21
-2.92256e-21
-4.98655e-21
-2.05294e-21
-3.78052e-21
-6.16394e-21
-4.41109e-21
-5.24929e-23
-7.7603e-22
-5.86629e-22
-1.29383e-20
-1.32188e-20
-1.29169e-20
-1.34694e-20
-1.30416e-20
-1.36234e-20
-1.04801e-20
-1.0117e-20
-9.07257e-21
-1.1026e-20
-9.20192e-21
-7.94948e-21
-8.13011e-21
-9.96018e-21
-8.66175e-21
-9.46482e-21
-5.79226e-21
-3.49326e-21
-1.53797e-22
-5.86535e-23
-4.90137e-22
-8.37729e-21
-8.41945e-21
-7.27202e-21
-5.5959e-21
-3.81882e-21
-3.94469e-22
-1.38926e-21
-3.43366e-21
-2.93557e-21
-2.36065e-21
-2.13779e-21
-9.39236e-22
-1.1964e-21
-2.69214e-21
-7.24472e-21
-3.74411e-21
-1.5525e-21
-1.27267e-21
-7.79762e-22
-1.65633e-20
-1.50037e-20
-1.17369e-20
-1.19738e-20
-1.3868e-20
-1.39609e-20
-1.01905e-20
-9.04978e-21
-1.01027e-20
-8.55619e-21
-6.06456e-21
-9.26562e-21
-1.17495e-20
-1.18115e-20
-6.05937e-21
-7.28313e-21
-5.1962e-21
-2.13698e-21
1.37308e-21
-2.92495e-21
-5.57845e-22
-4.612e-21
-1.24511e-20
-7.68662e-21
-6.69765e-21
-6.14879e-21
6.26913e-22
1.23267e-21
-2.07185e-21
-4.01471e-21
-2.66975e-21
-3.87666e-21
2.11189e-21
-4.32162e-22
-4.59641e-21
-5.15986e-21
-2.44743e-21
2.43948e-22
-1.77956e-21
-1.62674e-21
-1.06434e-20
-1.06932e-20
-1.20885e-20
-9.06293e-21
-1.68309e-20
-1.46565e-20
-1.08631e-20
-1.01173e-20
-9.06653e-21
-7.9405e-21
-8.74601e-21
-7.39599e-21
-1.08171e-20
-8.19791e-21
-4.60688e-21
-7.11374e-21
-6.53677e-21
-2.55784e-21
1.76315e-21
-1.80099e-21
-2.43399e-21
-4.56936e-21
-9.6098e-21
-7.15514e-21
-8.23577e-21
-6.43269e-21
1.68448e-21
1.10628e-21
-2.06916e-21
-3.83675e-21
-2.48113e-21
-2.65527e-21
6.40715e-22
6.61625e-22
-3.85405e-21
-4.81851e-21
-2.94755e-21
-2.26844e-22
-7.03333e-22
-4.67474e-22
-1.13038e-20
-1.11047e-20
-1.20274e-20
-1.34178e-20
-1.41042e-20
-1.04851e-20
-1.13636e-20
-8.41298e-21
-1.03513e-20
-6.35457e-21
-6.82264e-21
-1.21074e-20
-9.39811e-21
-6.92243e-21
-6.12869e-21
-6.8398e-21
-6.32701e-21
-2.1717e-21
-1.88616e-22
-1.631e-21
-1.13561e-21
-5.58743e-21
-7.19955e-21
-6.56234e-21
-4.56537e-21
-4.51617e-21
-2.43237e-21
-2.18932e-21
-7.66828e-22
-2.85124e-21
-2.361e-21
-9.90618e-22
-1.73136e-21
-1.62723e-21
-1.66724e-21
-1.54841e-21
-1.78086e-21
1.86673e-21
-1.20716e-21
-2.10556e-21
-1.17269e-20
-9.63737e-21
-9.70774e-21
-9.63884e-21
-1.29217e-20
-1.43861e-20
-1.1964e-20
-1.24231e-20
-1.07113e-20
-7.06822e-21
-2.42601e-21
-1.01583e-20
-4.21795e-21
-4.95738e-21
-5.75611e-21
-7.17518e-21
-7.15219e-21
-1.2637e-21
2.31465e-21
-1.93527e-21
-3.84016e-21
-8.59272e-21
-5.29175e-21
-4.78224e-21
-4.71256e-21
-3.24319e-21
-5.43975e-21
-6.76147e-21
-1.15528e-21
-2.60099e-21
-2.696e-21
-3.03858e-21
-3.97347e-21
-2.87573e-21
-1.35656e-21
1.39486e-21
-1.81311e-21
1.23882e-21
1.82189e-21
-1.93799e-22
-7.82533e-21
-9.82668e-21
-1.07851e-20
-8.82756e-21
-8.32132e-21
-1.74081e-20
-1.07256e-20
-1.11821e-20
-1.07705e-20
-9.06586e-21
-8.75564e-21
-4.34114e-21
-6.27271e-21
-5.10419e-21
-5.57547e-21
-5.07059e-21
-7.14386e-21
-3.11058e-21
-1.13082e-21
-1.44326e-21
-3.30982e-21
-4.90822e-21
-5.55998e-21
-7.8073e-21
-4.14628e-21
-9.27656e-22
-1.74872e-21
-2.02019e-21
-4.31637e-21
-2.48921e-21
-4.20977e-21
-3.49598e-21
-1.0184e-21
-4.42601e-21
-4.94639e-21
1.04987e-21
7.10528e-23
1.80125e-21
1.09114e-21
-9.30679e-22
-6.61071e-21
-9.13173e-21
-1.09121e-20
-9.59974e-21
-8.69535e-21
-1.28197e-20
-1.18073e-20
-9.50113e-21
-9.32888e-21
-8.40607e-21
-8.14753e-21
-5.7369e-21
-6.92327e-21
-4.86801e-21
-6.08016e-21
-6.23854e-21
-4.50116e-21
-1.21057e-22
1.14057e-21
-3.71157e-21
-3.40011e-21
-5.77978e-21
-4.79447e-21
-6.48548e-21
-5.17992e-21
-3.73769e-21
-2.06413e-21
-1.18166e-21
-1.44339e-21
-2.28866e-21
-6.12112e-21
-2.844e-21
-4.1362e-21
-4.25119e-21
-2.74824e-21
2.64777e-23
1.36545e-21
-3.89935e-22
-3.54882e-22
3.84487e-22
-4.82178e-21
-8.05252e-21
-1.1473e-20
-6.94591e-21
-7.05444e-21
-1.06601e-20
-1.00426e-20
-7.62703e-21
-8.72227e-21
-8.7823e-21
-5.0628e-21
-8.16629e-21
-8.12067e-21
-7.1451e-21
-2.24231e-21
-2.16489e-21
-1.60287e-21
-3.711e-21
-1.72857e-21
-2.31182e-21
-2.62676e-21
-3.96252e-21
-4.48525e-21
-5.8672e-21
-2.15618e-21
-7.90773e-22
-4.06832e-21
-1.49713e-21
5.40959e-23
-3.20991e-21
-7.2589e-21
-5.37469e-21
-5.12991e-21
-2.59504e-21
-3.90465e-21
-3.46996e-21
1.64638e-21
2.03687e-21
9.33685e-23
-7.37747e-22
-5.78994e-21
-7.26625e-21
-9.63727e-21
-5.91144e-21
-8.3073e-21
-9.35795e-21
-7.81625e-21
-4.09046e-21
-9.0523e-21
-9.03855e-21
-5.61501e-21
-5.89156e-21
-6.27556e-21
-6.11524e-21
-5.61209e-21
-2.57151e-21
-3.00018e-21
-3.88968e-22
-1.40226e-21
-7.9238e-22
1.4091e-22
-3.24086e-21
-3.86323e-21
-7.81767e-21
-7.43232e-21
-1.69977e-22
-6.66407e-22
5.71441e-22
-1.59525e-21
-4.3108e-21
-2.57648e-21
-5.15076e-21
-3.38213e-21
-1.98637e-21
-1.96279e-21
-5.46506e-21
-1.49263e-21
-8.0333e-22
1.92036e-21
-1.32594e-21
-6.16339e-21
-5.95726e-21
-6.13768e-21
-2.36959e-21
-2.43412e-21
-3.84471e-21
-7.65996e-21
-4.36732e-21
-6.66464e-21
-6.13393e-21
-2.24048e-21
-2.213e-21
-5.48366e-21
-3.98717e-21
-3.26775e-21
-1.48402e-21
-8.25389e-22
3.02832e-22
7.02622e-22
1.74513e-21
-1.03834e-21
-5.69728e-21
-3.8903e-21
-3.22998e-21
-3.52563e-21
-3.84327e-22
-6.29671e-22
-3.68773e-22
-3.37692e-22
5.21813e-22
-1.30451e-21
-1.24589e-21
-2.71174e-21
-3.0487e-21
-4.83319e-22
-6.5983e-21
-4.03193e-21
-2.49315e-21
6.16487e-22
2.30656e-22
-4.08251e-21
-7.73405e-21
-1.15569e-20
-8.29919e-21
-7.88441e-21
-9.94436e-21
-5.7917e-21
-2.95952e-21
-1.15507e-20
-1.01965e-20
-5.34231e-21
-6.90441e-21
-7.39718e-21
-3.48464e-21
-5.11535e-21
-7.57701e-21
-4.26711e-21
-5.81886e-23
-1.30272e-21
-2.83154e-21
-3.57172e-21
-4.0894e-21
-4.74376e-21
-2.72465e-21
-3.6435e-21
-2.87368e-21
-2.63512e-21
-4.21915e-21
-5.83366e-21
-4.43948e-21
-3.40295e-21
-2.02368e-23
-1.95872e-21
-2.35674e-21
-3.32124e-21
-5.18043e-21
-1.48442e-21
-1.57644e-21
-6.53995e-22
8.2149e-22
-5.29129e-21
-9.91562e-21
-1.55915e-20
-1.33866e-20
-1.08291e-20
-1.40029e-20
-1.222e-20
-6.18416e-21
-9.42642e-21
-1.55007e-20
-1.27091e-20
-1.0165e-20
-9.86576e-21
-7.9869e-21
-7.99587e-21
-7.21872e-21
-6.31481e-21
-3.67391e-21
-4.6973e-21
-4.09001e-21
-2.30807e-21
-3.43193e-21
-4.26785e-21
-7.13892e-21
-5.05254e-21
-3.82585e-21
-8.68703e-22
-3.47034e-21
-8.69495e-21
-3.53345e-21
-2.63305e-22
1.38692e-21
-4.3963e-21
-2.77594e-21
-6.66143e-21
-2.63023e-21
-6.59586e-22
5.11404e-22
8.99811e-22
6.54794e-22
-9.52095e-21
-1.13751e-20
-1.34548e-20
-1.4564e-20
-1.36618e-20
-1.32989e-20
-1.35109e-20
-1.14532e-20
-1.39398e-20
-1.5416e-20
-1.05572e-20
-8.50295e-21
-7.37555e-21
-7.68642e-21
-9.44825e-21
-7.75454e-21
-9.34708e-21
-6.51379e-21
-5.80159e-22
-4.45845e-21
-5.11421e-21
-4.18205e-21
-1.22114e-21
-4.84945e-21
-6.44463e-21
-3.53899e-21
-3.55453e-21
-4.73763e-21
-3.26121e-21
-3.63505e-21
-5.59754e-21
-3.18006e-21
-1.86232e-21
-3.76104e-22
-5.59242e-21
-4.04417e-21
9.58678e-22
5.94932e-22
8.74748e-22
1.06032e-21
-1.52703e-20
-1.50976e-20
-1.41698e-20
-1.79553e-20
-1.54402e-20
-1.40385e-20
-1.45114e-20
-1.18944e-20
-1.31856e-20
-1.27644e-20
-1.11802e-20
-1.2874e-20
-1.00176e-20
-6.51681e-21
-8.88505e-21
-8.61587e-21
-7.95872e-21
-5.9365e-21
-3.55191e-21
-2.58475e-21
-5.96762e-21
-6.32363e-21
-4.86116e-21
-5.6822e-21
-5.10331e-21
-4.53618e-21
-2.82664e-21
-1.06726e-21
-3.13541e-21
-6.32894e-21
-5.16182e-21
-9.82876e-22
-2.1382e-21
-3.92702e-21
-3.18453e-21
-1.53805e-21
-7.51565e-23
5.61896e-22
-5.23394e-22
-5.60854e-22
-1.57259e-20
-1.58763e-20
-1.46479e-20
-1.53701e-20
-1.89793e-20
-1.82017e-20
-1.38343e-20
-1.0256e-20
-1.04163e-20
-1.38861e-20
-1.23154e-20
-1.31946e-20
-8.77921e-21
-8.13275e-21
-1.11594e-20
-1.26075e-20
-9.58564e-21
-5.76201e-21
-4.72793e-21
-2.14464e-21
-4.73372e-21
-5.93791e-21
-6.74968e-21
-5.36847e-21
-7.26961e-21
-4.13296e-21
-3.49136e-21
-4.19483e-21
-3.3325e-21
-3.21965e-21
-3.25396e-21
-4.24813e-21
-1.66663e-22
-8.75116e-22
-3.11588e-21
-1.39084e-21
-2.51984e-22
-9.28452e-23
-9.63542e-22
-8.24305e-22
-1.42743e-20
-1.58074e-20
-1.49152e-20
-1.53363e-20
-1.88498e-20
-1.90251e-20
-1.22263e-20
-1.42426e-20
-1.46916e-20
-1.30208e-20
-1.18229e-20
-1.33746e-20
-1.16811e-20
-8.36999e-21
-1.20078e-20
-1.13533e-20
-1.0018e-20
-6.13679e-21
-3.48961e-21
-2.38963e-21
-4.34481e-21
-7.59436e-21
-7.45403e-21
-5.58357e-21
-6.53048e-21
-5.23463e-21
-3.32427e-21
-3.0844e-21
-4.42519e-21
-4.69912e-21
-4.7724e-21
-2.50599e-21
2.12039e-21
-2.03394e-21
-2.96566e-21
-2.47839e-21
2.0201e-22
1.24186e-22
7.67333e-22
-7.74088e-22
-1.6959e-20
-1.89649e-20
-1.62796e-20
-1.76514e-20
-1.84344e-20
-1.72123e-20
-1.59677e-20
-1.52526e-20
-1.6096e-20
-1.36352e-20
-1.37528e-20
-1.39056e-20
-1.24532e-20
-7.77313e-21
-1.21231e-20
-9.78272e-21
-7.24723e-21
-5.04515e-21
-3.12294e-21
-3.00954e-21
-4.89595e-21
-8.20205e-21
-7.24691e-21
-5.78313e-21
-5.12257e-21
-4.97542e-21
-4.16137e-21
-3.91388e-21
-7.85231e-22
-2.91888e-21
-5.60227e-21
-4.36711e-21
5.64262e-22
5.69466e-22
-4.04104e-21
-3.88314e-21
-4.42791e-22
-4.00739e-22
-1.81827e-21
-2.78526e-21
-1.70042e-20
-1.86696e-20
-1.74172e-20
-1.83157e-20
-1.98273e-20
-1.60855e-20
-1.7227e-20
-1.86215e-20
-1.78423e-20
-1.53577e-20
-1.36841e-20
-1.32775e-20
-1.02251e-20
-7.34191e-21
-1.33297e-20
-1.11412e-20
-7.5738e-21
-5.32274e-21
-1.58471e-21
-5.90004e-21
-4.17451e-21
-7.58482e-21
-8.61912e-21
-3.34168e-21
-7.3924e-21
-4.36032e-21
-1.75112e-21
-2.6547e-21
-2.20571e-21
-5.02725e-21
-6.99047e-21
-3.53713e-21
-1.88174e-21
-2.80917e-21
-2.25329e-21
-1.04638e-21
-2.42124e-22
-1.92577e-22
-1.55176e-21
-3.28683e-22
-1.9626e-20
-2.08576e-20
-2.17696e-20
-1.8733e-20
-1.90613e-20
-1.69481e-20
-1.8068e-20
-1.75289e-20
-1.72391e-20
-1.5727e-20
-1.53066e-20
-1.45638e-20
-7.89196e-21
-1.10748e-20
-1.05228e-20
-1.06711e-20
-1.06277e-20
-4.56944e-21
-4.55603e-21
-5.49551e-21
-1.562e-21
-9.48929e-21
-8.25286e-21
-6.74699e-21
-5.84688e-21
-2.82533e-21
-3.20604e-21
-2.94623e-21
4.87135e-22
-3.31496e-21
-4.23517e-21
-4.92178e-21
-2.67137e-21
-8.59418e-22
-1.59296e-21
-1.08394e-22
-1.09928e-21
-4.80836e-22
5.04926e-22
-5.2979e-22
-2.05775e-20
-1.99561e-20
-1.93534e-20
-2.12406e-20
-2.06468e-20
-1.90237e-20
-2.08318e-20
-1.70566e-20
-1.36329e-20
-1.4743e-20
-1.40733e-20
-1.57151e-20
-1.19354e-20
-1.26499e-20
-1.1507e-20
-8.20903e-21
-6.2443e-21
-6.23064e-21
-2.10349e-21
-1.79653e-21
-5.35097e-21
-9.24816e-21
-9.61106e-21
-8.87226e-21
-6.24482e-21
-3.74254e-21
-2.52123e-21
-3.27866e-21
-2.47306e-21
-2.94136e-21
-1.20303e-21
-1.93786e-21
-2.66488e-21
-1.21619e-22
-2.30421e-21
-9.75133e-22
8.66393e-22
-1.12673e-21
2.54452e-22
-4.68176e-22
-1.99013e-20
-2.3689e-20
-2.2694e-20
-2.12725e-20
-2.07981e-20
-1.91589e-20
-1.87657e-20
-1.77141e-20
-1.63317e-20
-1.5881e-20
-1.38503e-20
-1.29057e-20
-1.21012e-20
-1.09721e-20
-1.17627e-20
-1.15022e-20
-6.62686e-21
-3.81136e-21
-8.72881e-22
-4.22569e-21
-8.15962e-21
-8.61497e-21
-1.0895e-20
-1.24467e-20
-3.97232e-21
-1.64237e-21
-3.02417e-21
-4.00938e-21
-2.7909e-21
-2.0073e-21
-1.9173e-21
-6.48032e-22
-6.58362e-23
-6.78084e-22
-2.07921e-21
-2.4633e-22
-1.41926e-21
-2.81914e-21
-3.19957e-21
-2.50405e-21
-2.25946e-20
-2.41828e-20
-2.11463e-20
-1.96593e-20
-1.88938e-20
-2.09068e-20
-1.9621e-20
-1.749e-20
-1.49125e-20
-1.70547e-20
-1.431e-20
-1.2776e-20
-1.3336e-20
-1.06271e-20
-1.22455e-20
-1.17951e-20
-9.71739e-21
-3.84616e-21
-3.25956e-22
-4.34746e-21
-7.01476e-21
-8.55451e-21
-9.38411e-21
-1.22519e-20
-3.25219e-21
-4.83557e-21
-4.87086e-21
-3.43271e-21
-3.57286e-22
-3.47219e-21
-2.91584e-21
7.74704e-23
9.14788e-23
-2.8348e-22
-5.17938e-22
-1.61208e-21
-6.21017e-22
-3.2842e-21
-3.61554e-21
2.34461e-22
-2.48551e-20
-2.41381e-20
-2.08333e-20
-2.18635e-20
-2.00487e-20
-2.18509e-20
-1.94626e-20
-1.84714e-20
-1.77287e-20
-1.52689e-20
-1.26968e-20
-1.34935e-20
-1.34951e-20
-1.13333e-20
-1.22364e-20
-9.30521e-21
-5.69523e-21
-4.46986e-21
-5.99165e-21
-6.26125e-21
-6.20552e-21
-6.4117e-21
-9.51935e-21
-9.71894e-21
-4.7148e-21
-2.78582e-21
-2.85804e-21
-2.802e-21
-3.13113e-21
-2.75153e-21
-3.30239e-21
-1.43431e-21
3.06293e-22
-1.34217e-21
-5.49008e-21
1.23357e-22
1.2271e-21
-4.70257e-21
-3.17824e-21
6.91883e-22
-2.71766e-20
-2.57803e-20
-2.20716e-20
-2.26793e-20
-2.07634e-20
-2.07173e-20
-2.23434e-20
-1.70555e-20
-1.72656e-20
-1.73525e-20
-1.40528e-20
-1.06348e-20
-1.28823e-20
-1.36046e-20
-1.51265e-20
-9.36628e-21
-8.39847e-21
-5.28596e-21
-5.13068e-21
-2.28936e-21
-8.30541e-21
-8.91375e-21
-8.81312e-21
-8.46633e-21
-4.28495e-21
-2.15946e-21
-2.55967e-21
-1.86652e-21
-2.13972e-21
-2.09265e-21
-3.68639e-21
-1.97478e-21
-1.79946e-21
-2.83989e-21
-4.05538e-21
1.47989e-22
2.19231e-21
-1.7176e-21
-1.58426e-21
1.55301e-22
-2.66522e-20
-2.52746e-20
-2.21782e-20
-2.08187e-20
-1.9457e-20
-1.90174e-20
-2.29145e-20
-1.96151e-20
-1.75435e-20
-1.57564e-20
-1.37058e-20
-1.28967e-20
-1.46678e-20
-1.28669e-20
-1.25909e-20
-1.06482e-20
-4.98568e-21
-5.51505e-21
-8.00078e-21
-4.56384e-21
-7.50299e-21
-1.02478e-20
-9.67996e-21
-6.93194e-21
-3.06024e-21
-3.89368e-21
-2.29829e-21
-1.02894e-21
-2.48624e-21
-1.20779e-21
-4.54841e-21
-2.91377e-21
-1.1523e-21
-1.38231e-21
-3.84391e-21
-1.97002e-21
1.82818e-21
1.15582e-22
-5.28307e-22
-2.43075e-22
-2.39258e-20
-2.51918e-20
-2.40935e-20
-2.11592e-20
-2.06312e-20
-2.15461e-20
-2.15387e-20
-1.97926e-20
-1.70914e-20
-1.31801e-20
-1.47158e-20
-1.60097e-20
-1.62025e-20
-1.2119e-20
-1.22308e-20
-9.86597e-21
-6.26655e-21
-6.79022e-21
-7.80678e-21
-4.31662e-21
-6.99662e-21
-9.9735e-21
-9.66104e-21
-5.81132e-21
-2.74867e-21
-5.4414e-21
-2.58841e-21
-2.05893e-21
-2.68794e-21
-1.34539e-21
-1.78353e-21
-2.0706e-21
1.40987e-22
-1.44214e-21
-4.20099e-21
-1.10218e-21
2.84322e-22
-9.74127e-22
4.46626e-22
-1.4674e-21
-2.2182e-20
-2.18862e-20
-2.30712e-20
-1.96534e-20
-2.36139e-20
-2.11395e-20
-2.21857e-20
-2.10294e-20
-1.91038e-20
-1.19383e-20
-1.35475e-20
-1.60078e-20
-1.54626e-20
-1.37277e-20
-1.17033e-20
-7.80825e-21
-5.2432e-21
-7.0527e-21
-1.13349e-20
-7.20936e-21
-9.42945e-21
-7.42807e-21
-4.87898e-21
-4.52302e-21
-1.10281e-21
-5.397e-21
-3.11719e-21
-3.05951e-21
-3.94092e-21
-1.54099e-21
-1.03297e-21
-1.42191e-21