/*--------------------------------*- C++ -*----------------------------------*\
| =========                 |                                                 |
| \\      /  F ield         | OpenFOAM: The Open Source CFD Toolbox           |
|  \\    /   O peration     | Version:  v2012                                 |
|   \\  /    A nd           | Website:  www.openfoam.com                      |
|    \\/     M anipulation  |                                                 |
\*---------------------------------------------------------------------------*/
FoamFile
{
    version     2.0;
    format      ascii;
    class       surfaceScalarField;
    location    "28";
    object      phi;
}
// * * * * * * * * * * * * * * * * * * * * * * * * * * * * * * * * * * * * * //

dimensions      [0 3 -1 0 0 0 0];
oriented        oriented;


internalField   nonuniform List<scalar> 
187200
(
1.875e-06
2.15065e-22
2.06776e-22
1.875e-06
3.22568e-22
2.75803e-22
1.875e-06
3.84351e-22
4.37105e-22
1.875e-06
3.01888e-22
3.32172e-22
1.875e-06
3.23788e-22
2.20348e-22
1.875e-06
4.80596e-22
3.39497e-22
1.875e-06
3.73788e-22
2.51925e-22
1.875e-06
2.26379e-22
2.37075e-22
1.875e-06
1.87646e-22
4.07373e-22
1.875e-06
3.27499e-22
4.11364e-22
1.875e-06
3.5943e-22
2.29794e-22
1.875e-06
2.92469e-22
1.57504e-22
1.875e-06
1.86929e-22
2.84041e-22
1.875e-06
1.36744e-22
1.07999e-22
1.875e-06
1.60281e-22
2.01054e-22
1.875e-06
1.20415e-22
2.1534e-22
1.875e-06
1.56256e-22
2.05186e-22
1.875e-06
4.59168e-23
9.68973e-23
1.875e-06
8.65337e-23
7.04271e-23
1.875e-06
6.84316e-23
1.15907e-22
1.875e-06
1.10318e-23
1.37784e-22
1.875e-06
1.52269e-22
1.354e-22
1.875e-06
1.87541e-22
1.47514e-22
1.875e-06
2.45609e-22
1.35275e-22
1.875e-06
1.51903e-22
5.04698e-23
1.875e-06
1.09576e-22
1.02646e-22
1.875e-06
1.50794e-22
1.79242e-22
1.875e-06
1.26812e-22
1.43161e-22
1.875e-06
4.32478e-23
9.54138e-23
1.875e-06
2.27979e-23
1.52175e-22
1.875e-06
-5.23091e-23
1.31474e-22
1.875e-06
-5.051e-24
4.38955e-23
1.875e-06
9.0497e-23
5.53736e-23
1.875e-06
6.59841e-23
6.58978e-23
1.875e-06
3.29539e-23
8.63939e-23
1.875e-06
-5.013e-23
1.208e-23
1.875e-06
-6.11452e-24
2.44214e-23
1.875e-06
-6.78446e-23
1.03419e-22
1.875e-06
-2.08492e-22
1.28951e-22
-1.415e-22
1.0104e-22
1.875e-06
1.03724e-22
2.05324e-22
1.875e-06
1.06319e-22
3.78138e-22
1.875e-06
2.59604e-22
6.46973e-22
1.875e-06
3.14993e-22
6.77507e-22
1.875e-06
2.50379e-22
5.29018e-22
1.875e-06
3.08797e-22
5.41731e-22
1.875e-06
3.75226e-22
6.13186e-22
1.875e-06
3.80756e-22
6.4264e-22
1.875e-06
4.14099e-22
7.00659e-22
1.875e-06
2.77044e-22
7.69584e-22
1.875e-06
1.40819e-22
5.29848e-22
1.875e-06
1.56644e-22
4.74074e-22
1.875e-06
2.27429e-22
5.51705e-22
1.875e-06
1.34689e-22
4.73811e-22
1.875e-06
5.66091e-23
4.41464e-22
1.875e-06
3.60134e-23
4.13056e-22
1.875e-06
2.55528e-22
4.01602e-22
1.875e-06
2.73116e-22
4.26356e-22
1.875e-06
2.42082e-23
3.20294e-22
1.875e-06
1.77602e-23
2.62713e-22
1.875e-06
1.79566e-22
2.74572e-22
1.875e-06
9.39109e-23
1.21774e-22
1.875e-06
1.46152e-22
4.20977e-23
1.875e-06
1.26782e-22
2.47694e-22
1.875e-06
6.79022e-23
1.37647e-22
1.875e-06
1.30792e-22
1.89499e-22
1.875e-06
1.46155e-22
7.53452e-23
1.875e-06
3.5467e-23
1.48068e-22
1.875e-06
-5.83957e-23
3.04496e-22
1.875e-06
7.65339e-24
2.32659e-22
1.875e-06
1.0655e-22
1.80578e-22
1.875e-06
8.45694e-23
6.22915e-23
1.875e-06
3.1986e-23
7.96943e-23
1.875e-06
-7.90057e-23
6.69164e-23
1.875e-06
-3.96065e-23
1.70638e-22
1.875e-06
-1.08151e-23
2.99023e-23
1.875e-06
-1.92778e-22
-5.15935e-23
1.875e-06
-9.34159e-23
1.70125e-23
1.875e-06
4.11351e-23
1.71979e-22
9.55336e-24
1.48737e-22
1.875e-06
1.9466e-22
3.39391e-22
1.875e-06
1.73149e-22
5.57002e-22
1.875e-06
1.27489e-22
6.33476e-22
1.875e-06
2.80689e-22
7.64312e-22
1.875e-06
3.22631e-22
7.34989e-22
1.875e-06
2.81057e-22
6.49709e-22
1.875e-06
2.27134e-22
7.28786e-22
1.875e-06
2.72271e-22
7.76064e-22
1.875e-06
2.56446e-22
8.18788e-22
1.875e-06
2.44703e-22
8.2293e-22
1.875e-06
2.13894e-22
7.10154e-22
1.875e-06
2.29234e-22
6.15929e-22
1.875e-06
1.78616e-22
5.41925e-22
1.875e-06
1.35625e-22
5.34756e-22
1.875e-06
1.70394e-22
5.99957e-22
1.875e-06
1.84828e-22
5.68416e-22
1.875e-06
6.70083e-23
4.58417e-22
1.875e-06
1.34847e-22
4.75277e-22
1.875e-06
7.12622e-23
3.25932e-22
1.875e-06
1.18588e-22
3.73881e-22
1.875e-06
1.88903e-22
3.23052e-22
1.875e-06
2.17199e-22
2.18695e-22
1.875e-06
1.11453e-22
-3.32675e-23
1.875e-06
1.47945e-22
1.44616e-22
1.875e-06
1.41483e-22
2.56855e-22
1.875e-06
7.12e-23
1.84923e-22
1.875e-06
4.78115e-23
1.22497e-22
1.875e-06
-5.63646e-23
1.64154e-22
1.875e-06
8.91969e-24
2.48064e-22
1.875e-06
-1.02219e-24
2.42874e-22
1.875e-06
-1.73653e-23
2.84701e-22
1.875e-06
5.38007e-23
2.24795e-22
1.875e-06
-8.36727e-23
2.41129e-24
1.875e-06
-2.86557e-23
7.04946e-23
1.875e-06
-5.75282e-23
9.83085e-23
1.875e-06
-1.29808e-22
-1.22539e-23
1.875e-06
6.1527e-23
3.10538e-23
1.875e-06
4.40339e-23
7.48736e-23
1.875e-06
9.31453e-23
1.16638e-22
5.8781e-23
1.00655e-22
1.875e-06
2.14605e-22
3.93996e-22
1.875e-06
1.67308e-22
7.18607e-22
1.875e-06
1.42263e-22
7.7432e-22
1.875e-06
8.60039e-23
8.03471e-22
1.875e-06
1.87344e-22
7.75046e-22
1.875e-06
1.91999e-22
6.90846e-22
1.875e-06
2.01227e-22
8.08673e-22
1.875e-06
1.7813e-22
8.47174e-22
1.875e-06
2.12137e-22
8.34137e-22
1.875e-06
2.60388e-22
8.22709e-22
1.875e-06
2.27425e-22
8.23839e-22
1.875e-06
1.45639e-22
7.77231e-22
1.875e-06
1.29896e-22
6.05596e-22
1.875e-06
1.00237e-22
5.72771e-22
1.875e-06
2.83774e-22
6.31736e-22
1.875e-06
4.46494e-22
6.0879e-22
1.875e-06
1.45642e-22
5.08564e-22
1.875e-06
6.89267e-23
4.70644e-22
1.875e-06
9.50389e-23
4.70218e-22
1.875e-06
7.37731e-23
3.23571e-22
1.875e-06
-5.35962e-25
2.66014e-22
1.875e-06
5.39905e-23
1.6791e-22
1.875e-06
1.68603e-22
8.66338e-23
1.875e-06
9.09254e-23
1.56234e-22
1.875e-06
7.34411e-23
2.07889e-22
1.875e-06
9.18465e-23
2.44829e-22
1.875e-06
-9.68541e-25
1.27933e-22
1.875e-06
5.39735e-23
1.57368e-22
1.875e-06
6.42044e-23
2.05258e-22
1.875e-06
-3.67015e-23
2.86965e-22
1.875e-06
-2.10114e-23
2.85046e-22
1.875e-06
-8.08436e-23
1.11964e-22
1.875e-06
-1.06326e-22
1.25562e-22
1.875e-06
-7.13486e-23
1.6351e-22
1.875e-06
-1.14143e-23
9.94773e-23
1.875e-06
-2.02012e-23
8.63615e-24
1.875e-06
6.54364e-23
-4.37083e-23
1.875e-06
5.50558e-23
4.75431e-23
1.875e-06
-2.0745e-24
6.41522e-23
9.66999e-23
6.90799e-23
1.875e-06
-5.89893e-23
2.79062e-22
1.875e-06
1.23123e-22
7.48821e-22
1.875e-06
8.5605e-23
8.082e-22
1.875e-06
1.4768e-22
8.83927e-22
1.875e-06
1.20906e-22
8.65994e-22
1.875e-06
7.60703e-23
8.83259e-22
1.875e-06
1.05142e-22
8.82071e-22
1.875e-06
3.65776e-22
9.21555e-22
1.875e-06
3.34072e-22
8.46548e-22
1.875e-06
1.9875e-22
8.60377e-22
1.875e-06
1.4847e-22
8.65369e-22
1.875e-06
1.64209e-22
8.29725e-22
1.875e-06
2.13324e-22
6.68129e-22
1.875e-06
1.76689e-22
7.01713e-22
1.875e-06
1.47074e-22
6.30991e-22
1.875e-06
1.20662e-22
5.62012e-22
1.875e-06
1.24638e-22
5.41391e-22
1.875e-06
-1.05907e-23
4.53738e-22
1.875e-06
5.86652e-23
4.80792e-22
1.875e-06
9.24509e-23
3.21326e-22
1.875e-06
-5.35716e-23
2.63835e-22
1.875e-06
5.27266e-23
1.83924e-22
1.875e-06
1.79057e-22
1.1422e-22
1.875e-06
1.42735e-22
2.05974e-22
1.875e-06
8.90299e-23
3.12837e-22
1.875e-06
8.2142e-23
2.46388e-22
1.875e-06
9.18606e-23
2.03082e-22
1.875e-06
-2.38935e-23
2.14282e-22
1.875e-06
-7.95981e-23
1.59913e-22
1.875e-06
4.20438e-23
1.99346e-22
1.875e-06
8.61413e-23
2.35416e-22
1.875e-06
1.00209e-22
2.84405e-22
1.875e-06
2.17292e-24
1.54266e-22
1.875e-06
-5.02841e-23
1.0647e-22
1.875e-06
-1.56342e-23
5.75516e-23
1.875e-06
4.00736e-23
-1.22846e-23
1.875e-06
-5.87671e-24
-7.35763e-23
1.875e-06
6.34751e-23
2.97225e-24
1.875e-06
6.24046e-23
8.6355e-23
-2.36197e-23
3.66159e-23
1.875e-06
8.15896e-23
3.90864e-22
1.875e-06
1.5156e-22
7.11239e-22
1.875e-06
8.09394e-23
8.48645e-22
1.875e-06
5.19276e-23
8.36407e-22
1.875e-06
1.11452e-22
9.19375e-22
1.875e-06
1.39348e-22
1.02178e-21
1.875e-06
1.68843e-22
9.82222e-22
1.875e-06
2.33673e-22
9.78626e-22
1.875e-06
2.97005e-22
9.054e-22
1.875e-06
2.19862e-22
8.33677e-22
1.875e-06
1.8804e-22
8.94821e-22
1.875e-06
1.88345e-22
8.79819e-22
1.875e-06
1.33676e-22
7.55622e-22
1.875e-06
2.26574e-22
7.4706e-22
1.875e-06
1.56402e-22
6.92827e-22
1.875e-06
8.03562e-23
5.52431e-22
1.875e-06
8.6012e-23
5.76667e-22
1.875e-06
-2.00225e-23
4.87666e-22
1.875e-06
4.81837e-24
4.07366e-22
1.875e-06
5.46112e-24
2.70196e-22
1.875e-06
1.64409e-22
3.38641e-22
1.875e-06
1.4504e-22
2.47716e-22
1.875e-06
1.46061e-22
1.33362e-22
1.875e-06
1.62446e-22
2.09322e-22
1.875e-06
1.5661e-23
3.00232e-22
1.875e-06
4.40312e-23
2.76197e-22
1.875e-06
2.201e-23
1.67423e-22
1.875e-06
2.55644e-23
1.82824e-22
1.875e-06
-7.12896e-23
1.8894e-22
1.875e-06
-8.07246e-23
2.29054e-22
1.875e-06
8.49219e-23
2.21246e-22
1.875e-06
1.18558e-22
1.49392e-22
1.875e-06
-3.34593e-23
7.94897e-23
1.875e-06
1.71893e-23
1.55567e-22
1.875e-06
6.88806e-23
1.02449e-22
1.875e-06
9.7783e-23
1.16801e-23
1.875e-06
1.12624e-22
-1.17031e-22
1.875e-06
1.70174e-23
-7.01298e-23
1.875e-06
7.05708e-23
-6.28946e-24
6.88116e-23
8.85906e-23
1.875e-06
9.49782e-23
3.92737e-22
1.875e-06
6.70777e-23
6.90082e-22
1.875e-06
1.68739e-22
8.96783e-22
1.875e-06
1.13461e-22
1.01165e-21
1.875e-06
9.10603e-23
1.01298e-21
1.875e-06
8.29147e-23
1.03185e-21
1.875e-06
1.77594e-22
1.08787e-21
1.875e-06
3.57405e-22
1.05473e-21
1.875e-06
2.78948e-22
9.96424e-22
1.875e-06
2.07817e-22
9.17093e-22
1.875e-06
1.94402e-22
9.38303e-22
1.875e-06
9.624e-23
8.91961e-22
1.875e-06
9.44235e-23
8.27551e-22
1.875e-06
1.93774e-22
6.65924e-22
1.875e-06
1.42758e-22
7.16242e-22
1.875e-06
1.26369e-22
5.61082e-22
1.875e-06
4.94512e-23
4.73433e-22
1.875e-06
1.03618e-22
4.5783e-22
1.875e-06
1.53269e-22
3.84175e-22
1.875e-06
1.21065e-22
3.12278e-22
1.875e-06
8.90158e-23
3.1047e-22
1.875e-06
1.05885e-23
2.87328e-22
1.875e-06
-3.58441e-23
1.26004e-22
1.875e-06
3.75024e-23
1.66378e-22
1.875e-06
1.20205e-22
3.17192e-22
1.875e-06
7.80609e-23
2.41153e-22
1.875e-06
3.28332e-23
2.06544e-22
1.875e-06
-2.07245e-23
2.04176e-22
1.875e-06
-1.71467e-23
1.2617e-22
1.875e-06
4.98676e-23
1.86433e-22
1.875e-06
-2.74296e-23
1.81391e-22
1.875e-06
-4.50956e-23
1.27609e-22
1.875e-06
6.27934e-23
8.42791e-23
1.875e-06
9.19581e-23
1.02682e-22
1.875e-06
1.25899e-22
9.74194e-23
1.875e-06
1.47403e-22
-7.57217e-24
1.875e-06
3.8453e-23
-1.60173e-22
1.875e-06
-1.50708e-23
-3.1815e-23
1.875e-06
-1.00845e-22
-1.33155e-23
-6.61471e-23
8.34816e-23
1.875e-06
1.61447e-22
3.22551e-22
1.875e-06
1.08021e-22
6.95696e-22
1.875e-06
1.00903e-22
9.01327e-22
1.875e-06
1.19085e-22
1.08872e-21
1.875e-06
1.34765e-22
1.16408e-21
1.875e-06
2.45644e-22
1.11425e-21
1.875e-06
2.60161e-22
1.15929e-21
1.875e-06
6.73381e-23
1.07641e-21
1.875e-06
1.51949e-22
1.03821e-21
1.875e-06
1.92248e-22
9.37864e-22
1.875e-06
1.08055e-22
9.23709e-22
1.875e-06
8.87221e-23
8.86719e-22
1.875e-06
3.33583e-23
7.83353e-22
1.875e-06
1.4404e-22
6.02527e-22
1.875e-06
2.27763e-22
7.44212e-22
1.875e-06
1.03181e-22
5.57112e-22
1.875e-06
9.06069e-23
5.0028e-22
1.875e-06
1.72041e-23
4.27162e-22
1.875e-06
1.38967e-22
2.22203e-22
1.875e-06
1.56382e-22
3.56419e-22
1.875e-06
3.54068e-23
2.92541e-22
1.875e-06
5.51956e-23
3.2363e-22
1.875e-06
5.73003e-23
2.95226e-22
1.875e-06
1.1873e-22
1.47282e-22
1.875e-06
1.31197e-23
3.16578e-22
1.875e-06
-5.60291e-24
2.11014e-22
1.875e-06
6.33618e-23
1.83437e-22
1.875e-06
6.27284e-23
1.90648e-22
1.875e-06
-3.72178e-23
1.45855e-22
1.875e-06
-3.73069e-23
2.01603e-22
1.875e-06
-4.475e-23
2.27244e-22
1.875e-06
-8.92263e-23
1.46006e-22
1.875e-06
-2.41328e-23
1.81987e-22
1.875e-06
3.9888e-23
9.52541e-23
1.875e-06
7.39985e-23
-3.01436e-23
1.875e-06
-7.40782e-23
-2.63687e-22
1.875e-06
6.14832e-23
-2.64772e-22
1.875e-06
-4.41892e-23
-5.82724e-23
1.875e-06
-3.07193e-23
6.54055e-23
2.0342e-23
3.71109e-23
1.875e-06
-1.80392e-22
2.67927e-22
1.875e-06
-1.95628e-23
7.74402e-22
1.875e-06
1.21441e-22
1.07225e-21
1.875e-06
1.28294e-22
1.12765e-21
1.875e-06
1.40016e-22
1.164e-21
1.875e-06
1.82014e-22
1.08446e-21
1.875e-06
1.65213e-22
1.16119e-21
1.875e-06
9.2939e-23
1.11699e-21
1.875e-06
4.42317e-23
1.0081e-21
1.875e-06
1.4158e-22
9.47527e-22
1.875e-06
1.45383e-22
9.61423e-22
1.875e-06
1.01462e-22
9.63437e-22
1.875e-06
1.73126e-22
8.0202e-22
1.875e-06
1.81194e-22
6.93824e-22
1.875e-06
1.06968e-22
5.8918e-22
1.875e-06
1.90473e-23
5.31211e-22
1.875e-06
1.44666e-22
5.64768e-22
1.875e-06
1.7057e-22
5.04896e-22
1.875e-06
-1.11779e-22
2.63016e-22
1.875e-06
-6.84757e-23
2.52242e-22
1.875e-06
1.20439e-22
3.09357e-22
1.875e-06
3.94049e-23
4.09295e-22
1.875e-06
1.58753e-22
3.11268e-22
1.875e-06
9.72515e-23
2.34747e-22
1.875e-06
1.55512e-22
3.63476e-22
1.875e-06
-2.72881e-23
1.98625e-22
1.875e-06
-9.75414e-23
1.09761e-22
1.875e-06
-7.44084e-23
1.10928e-22
1.875e-06
5.38823e-23
8.4017e-23
1.875e-06
-6.19488e-23
1.19739e-22
1.875e-06
-1.02038e-22
1.56002e-22
1.875e-06
-7.96448e-23
2.48644e-22
1.875e-06
3.34926e-23
2.44463e-22
1.875e-06
5.06905e-24
6.96408e-23
1.875e-06
5.75392e-24
-1.93816e-22
1.875e-06
-2.549e-23
-3.16751e-22
1.875e-06
-6.8e-23
-3.23657e-22
1.875e-06
1.29775e-22
-4.15625e-23
1.875e-06
1.05971e-22
7.38205e-23
3.1965e-23
-1.23477e-23
1.875e-06
-1.93982e-23
5.75944e-22
1.875e-06
7.86004e-23
8.35214e-22
1.875e-06
1.24543e-22
1.01887e-21
1.875e-06
2.30946e-22
1.23512e-21
1.875e-06
1.16867e-22
1.26397e-21
1.875e-06
1.25665e-22
1.18348e-21
1.875e-06
2.41121e-22
1.21708e-21
1.875e-06
6.93852e-23
1.15076e-21
1.875e-06
1.39342e-22
9.09357e-22
1.875e-06
9.51058e-23
8.44191e-22
1.875e-06
1.01989e-22
9.18903e-22
1.875e-06
4.77679e-23
9.91372e-22
1.875e-06
6.06111e-23
8.61366e-22
1.875e-06
9.78065e-23
7.40817e-22
1.875e-06
9.34854e-23
6.55249e-22
1.875e-06
2.267e-22
5.59535e-22
1.875e-06
8.99724e-23
3.47969e-22
1.875e-06
6.06665e-24
4.53275e-22
1.875e-06
-6.12325e-23
4.17227e-22
1.875e-06
-4.46262e-23
2.58772e-22
1.875e-06
1.40843e-22
3.2395e-22
1.875e-06
2.77381e-22
4.29808e-22
1.875e-06
5.62149e-23
3.23489e-22
1.875e-06
5.60517e-23
3.18078e-22
1.875e-06
6.02037e-23
3.09792e-22
1.875e-06
-6.51623e-23
2.56399e-22
1.875e-06
-1.31356e-22
1.34535e-22
1.875e-06
-4.25728e-24
1.80226e-22
1.875e-06
-1.84129e-23
1.06114e-22
1.875e-06
-2.9425e-23
1.23388e-22
1.875e-06
-5.23832e-24
1.33358e-22
1.875e-06
-9.69997e-23
1.74792e-22
1.875e-06
3.14804e-23
1.45998e-22
1.875e-06
-3.1996e-23
2.10324e-23
1.875e-06
-1.96922e-22
-1.42265e-22
1.875e-06
-1.67778e-23
-3.39871e-22
1.875e-06
4.40632e-23
-3.70019e-22
1.875e-06
1.38236e-22
-1.62943e-22
1.875e-06
1.86071e-22
2.34098e-23
1.58543e-22
1.8333e-23
1.875e-06
1.04223e-22
6.19362e-22
1.875e-06
1.41901e-22
9.71901e-22
1.875e-06
1.49441e-22
1.14789e-21
1.875e-06
8.16153e-23
1.14431e-21
1.875e-06
1.51032e-22
1.29749e-21
1.875e-06
2.26912e-22
1.18239e-21
1.875e-06
4.61936e-23
1.07301e-21
1.875e-06
1.43831e-22
1.16459e-21
1.875e-06
-1.82038e-23
9.29238e-22
1.875e-06
5.04962e-23
8.70212e-22
1.875e-06
2.14424e-22
9.25978e-22
1.875e-06
1.35682e-22
9.61023e-22
1.875e-06
8.44587e-23
9.1334e-22
1.875e-06
1.034e-22
7.08983e-22
1.875e-06
1.04168e-22
7.01675e-22
1.875e-06
1.51648e-22
6.11225e-22
1.875e-06
6.59523e-23
4.54942e-22
1.875e-06
1.03175e-23
4.06638e-22
1.875e-06
1.23924e-22
4.289e-22
1.875e-06
8.77153e-23
4.09683e-22
1.875e-06
6.62078e-23
3.25294e-22
1.875e-06
8.25941e-23
2.84449e-22
1.875e-06
3.39511e-23
3.85697e-22
1.875e-06
-1.29889e-23
3.94112e-22
1.875e-06
-7.09862e-24
1.85825e-22
1.875e-06
9.86436e-24
2.40329e-22
1.875e-06
-1.82826e-23
2.1916e-22
1.875e-06
-6.00245e-23
1.75588e-22
1.875e-06
-1.75566e-24
1.53345e-22
1.875e-06
-3.77059e-23
1.14063e-22
1.875e-06
-9.81684e-23
1.32809e-22
1.875e-06
1.13603e-23
1.85211e-22
1.875e-06
-7.72319e-23
5.61884e-25
1.875e-06
-3.1259e-23
1.31385e-23
1.875e-06
-1.78821e-22
-2.19694e-23
1.875e-06
-6.91025e-23
-3.54696e-22
1.875e-06
2.50825e-23
-3.58978e-22
1.875e-06
1.04459e-22
-1.37805e-22
1.875e-06
1.64362e-22
-2.77511e-23
1.27714e-22
-4.85754e-23
1.875e-06
2.26636e-22
6.51002e-22
1.875e-06
1.33193e-22
9.87556e-22
1.875e-06
1.24239e-22
1.09458e-21
1.875e-06
1.49106e-22
1.15803e-21
1.875e-06
1.27673e-22
1.21759e-21
1.875e-06
-2.44988e-23
1.11301e-21
1.875e-06
1.03896e-22
1.12421e-21
1.875e-06
1.62201e-22
1.09449e-21
1.875e-06
2.00364e-22
9.90113e-22
1.875e-06
7.46985e-23
9.15021e-22
1.875e-06
-6.79145e-24
8.15928e-22
1.875e-06
5.70507e-23
9.16113e-22
1.875e-06
1.48808e-22
9.47219e-22
1.875e-06
1.5149e-22
7.3588e-22
1.875e-06
7.87311e-23
7.1522e-22
1.875e-06
-7.67312e-23
5.4842e-22
1.875e-06
-3.09641e-24
5.62859e-22
1.875e-06
1.30442e-22
5.15622e-22
1.875e-06
1.41029e-22
3.72787e-22
1.875e-06
1.55471e-22
4.24958e-22
1.875e-06
6.91294e-23
3.34563e-22
1.875e-06
-3.55035e-23
2.87422e-22
1.875e-06
-3.54203e-23
3.08154e-22
1.875e-06
-4.46242e-23
3.7422e-22
1.875e-06
-1.2338e-22
1.41394e-22
1.875e-06
-4.0781e-23
2.86638e-22
1.875e-06
-3.30869e-23
2.02893e-22
1.875e-06
-1.41087e-23
1.64856e-22
1.875e-06
-6.49517e-23
9.67713e-23
1.875e-06
-8.11725e-23
2.17925e-22
1.875e-06
4.43771e-23
2.54252e-22
1.875e-06
1.59888e-23
1.28929e-22
1.875e-06
-7.83113e-23
7.38839e-23
1.875e-06
2.12611e-23
-5.05572e-23
1.875e-06
1.38774e-22
9.13383e-24
1.875e-06
-1.21336e-22
-2.18125e-22
1.875e-06
-7.79504e-23
-3.67137e-22
1.875e-06
6.20125e-23
-1.4847e-22
1.875e-06
1.35591e-22
-7.51282e-23
1.17256e-22
-2.59324e-22
1.875e-06
8.04622e-23
5.49842e-22
1.875e-06
1.68218e-22
9.69614e-22
1.875e-06
9.52917e-23
1.06943e-21
1.875e-06
9.27328e-23
1.18678e-21
1.875e-06
-4.20383e-23
1.18161e-21
1.875e-06
-2.38654e-23
1.1997e-21
1.875e-06
9.04119e-23
1.13901e-21
1.875e-06
3.8821e-23
1.0903e-21
1.875e-06
4.57101e-23
9.61891e-22
1.875e-06
1.06479e-22
8.59781e-22
1.875e-06
2.9938e-23
8.35589e-22
1.875e-06
7.8095e-23
9.58184e-22
1.875e-06
1.65078e-22
9.21025e-22
1.875e-06
2.06367e-22
7.80827e-22
1.875e-06
1.29248e-22
7.26447e-22
1.875e-06
2.14023e-23
5.82143e-22
1.875e-06
1.06944e-24
4.80154e-22
1.875e-06
3.56857e-23
5.21867e-22
1.875e-06
1.25928e-22
5.36193e-22
1.875e-06
1.21473e-22
4.33498e-22
1.875e-06
1.11311e-22
3.19448e-22
1.875e-06
9.53894e-23
3.42065e-22
1.875e-06
1.00444e-22
3.25709e-22
1.875e-06
-3.62833e-23
3.70061e-22
1.875e-06
-1.24715e-22
2.54169e-22
1.875e-06
-5.75465e-23
1.76635e-22
1.875e-06
-4.1427e-23
1.4571e-22
1.875e-06
-5.84631e-23
1.26614e-22
1.875e-06
-4.65866e-23
1.92637e-22
1.875e-06
-1.88648e-22
2.47332e-22
1.875e-06
-1.33104e-22
1.45711e-22
1.875e-06
6.65296e-23
1.36644e-22
1.875e-06
5.00474e-23
1.28431e-22
1.875e-06
-5.84487e-23
-3.67547e-23
1.875e-06
-6.96409e-23
-2.07309e-23
1.875e-06
-1.9366e-23
-2.03643e-22
1.875e-06
-1.46951e-23
-3.5153e-22
1.875e-06
3.98394e-24
-1.50448e-22
1.875e-06
3.07283e-24
-8.25349e-23
4.72986e-23
-2.59182e-22
1.875e-06
-1.84179e-22
6.12682e-22
1.875e-06
4.07067e-23
9.6529e-22
1.875e-06
1.29223e-22
1.11026e-21
1.875e-06
-3.84548e-24
1.19578e-21
1.875e-06
-4.56288e-23
1.27653e-21
1.875e-06
-7.93549e-24
1.22244e-21
1.875e-06
1.53887e-22
1.23962e-21
1.875e-06
3.25787e-22
1.14742e-21
1.875e-06
1.01701e-22
9.95037e-22
1.875e-06
-7.3781e-23
8.92094e-22
1.875e-06
-9.11647e-24
8.89381e-22
1.875e-06
1.72024e-22
8.61466e-22
1.875e-06
1.33158e-22
8.39155e-22
1.875e-06
5.3739e-23
7.57656e-22
1.875e-06
-1.64389e-23
7.85403e-22
1.875e-06
2.80914e-23
6.55901e-22
1.875e-06
9.35701e-23
5.42266e-22
1.875e-06
2.06584e-22
5.6202e-22
1.875e-06
2.10999e-22
5.21823e-22
1.875e-06
-1.14863e-23
3.47797e-22
1.875e-06
1.34545e-22
3.89604e-22
1.875e-06
-7.62685e-26
3.60357e-22
1.875e-06
-1.21282e-22
2.58191e-22
1.875e-06
-2.32238e-23
3.26773e-22
1.875e-06
-9.41973e-23
2.64635e-22
1.875e-06
-9.32068e-24
1.0685e-22
1.875e-06
8.48238e-23
9.91235e-23
1.875e-06
5.12944e-23
1.18314e-22
1.875e-06
-4.71625e-23
1.58242e-22
1.875e-06
-1.79879e-23
3.19774e-22
1.875e-06
-1.02636e-22
2.62096e-22
1.875e-06
-1.41636e-22
1.26256e-22
1.875e-06
-1.84916e-23
1.01906e-22
1.875e-06
-2.4756e-23
6.84291e-23
1.875e-06
3.20555e-24
-5.85151e-24
1.875e-06
-1.74353e-23
-2.89777e-22
1.875e-06
-7.80292e-23
-4.23741e-22
1.875e-06
-3.9387e-25
-2.44645e-22
1.875e-06
-8.56157e-23
-1.97446e-22
-1.5156e-22
-3.20697e-22
1.875e-06
-5.40774e-23
7.04382e-22
1.875e-06
-1.93331e-22
9.46713e-22
1.875e-06
-5.01377e-23
1.05898e-21
1.875e-06
-2.74491e-23
1.18945e-21
1.875e-06
8.6752e-23
1.26955e-21
1.875e-06
6.04362e-24
1.17769e-21
1.875e-06
-1.21063e-25
1.13588e-21
1.875e-06
3.94026e-23
1.0003e-21
1.875e-06
-6.28917e-24
9.97158e-22
1.875e-06
-1.18597e-23
1.02766e-21
1.875e-06
1.56592e-22
9.9141e-22
1.875e-06
1.19061e-22
8.65069e-22
1.875e-06
6.94061e-23
8.89616e-22
1.875e-06
-4.66322e-23
7.37835e-22
1.875e-06
8.96467e-23
7.83645e-22
1.875e-06
8.92499e-23
6.1871e-22
1.875e-06
7.35638e-23
4.79599e-22
1.875e-06
1.49409e-22
4.22831e-22
1.875e-06
3.18045e-23
5.00699e-22
1.875e-06
9.54687e-23
5.09485e-22
1.875e-06
8.54332e-23
3.51915e-22
1.875e-06
6.81032e-23
4.66265e-22
1.875e-06
-9.99384e-23
4.54192e-22
1.875e-06
-2.2195e-22
2.19156e-22
1.875e-06
-1.04724e-22
2.03095e-22
1.875e-06
2.42535e-23
1.58045e-22
1.875e-06
1.0799e-22
2.79509e-23
1.875e-06
1.94131e-23
8.46554e-24
1.875e-06
2.20702e-23
1.10394e-22
1.875e-06
2.50175e-23
1.8385e-22
1.875e-06
-6.94365e-24
2.81305e-22
1.875e-06
-5.33352e-23
2.18172e-22
1.875e-06
-8.31287e-23
5.02618e-23
1.875e-06
-3.23333e-23
4.71628e-23
1.875e-06
4.99407e-24
-2.68267e-23
1.875e-06
2.31077e-23
-2.58807e-22
1.875e-06
-4.20915e-23
-3.49449e-22
1.875e-06
-2.00788e-22
-3.08261e-22
1.875e-06
-9.10268e-23
-2.56412e-22
-5.17543e-23
-2.6494e-22
1.875e-06
-3.97031e-23
6.28119e-22
1.875e-06
-1.21124e-22
1.0357e-21
1.875e-06
-1.05169e-22
1.15184e-21
1.875e-06
-1.16865e-22
1.22798e-21
1.875e-06
-7.95541e-23
1.23035e-21
1.875e-06
2.49332e-23
1.2661e-21
1.875e-06
1.63633e-23
1.13693e-21
1.875e-06
-2.20726e-24
1.02232e-21
1.875e-06
2.52816e-23
1.05543e-21
1.875e-06
1.17803e-22
9.73396e-22
1.875e-06
7.80125e-23
9.02678e-22
1.875e-06
1.76295e-22
9.43776e-22
1.875e-06
-2.86889e-23
9.83187e-22
1.875e-06
-1.62926e-23
7.8215e-22
1.875e-06
-1.95012e-23
7.18376e-22
1.875e-06
2.80211e-23
6.23128e-22
1.875e-06
1.3057e-22
4.80027e-22
1.875e-06
4.5567e-23
4.42146e-22
1.875e-06
1.14116e-22
5.76356e-22
1.875e-06
1.97839e-22
4.45791e-22
1.875e-06
5.14165e-23
3.16114e-22
1.875e-06
-3.12995e-23
4.02826e-22
1.875e-06
-7.97573e-23
4.57463e-22
1.875e-06
-1.89157e-22
3.02188e-22
1.875e-06
-1.31828e-22
2.39778e-22
1.875e-06
-7.13181e-23
1.54526e-22
1.875e-06
-2.37086e-23
-5.71538e-23
1.875e-06
7.59416e-24
-1.85239e-23
1.875e-06
5.01471e-23
9.72641e-23
1.875e-06
1.29226e-22
1.47191e-22
1.875e-06
-1.67348e-23
1.61241e-22
1.875e-06
4.07597e-23
1.30063e-22
1.875e-06
-2.889e-23
8.26946e-24
1.875e-06
-1.4608e-22
5.03174e-23
1.875e-06
-2.3101e-22
-1.23451e-22
1.875e-06
-1.38023e-22
-3.19125e-22
1.875e-06
8.22483e-23
-2.48183e-22
1.875e-06
1.12822e-23
-1.45178e-22
1.875e-06
-4.6912e-23
-2.44105e-22
-5.33755e-23
-2.04066e-22
1.875e-06
-1.4333e-22
5.70446e-22
1.875e-06
-6.89716e-23
9.62654e-22
1.875e-06
9.84283e-24
1.15529e-21
1.875e-06
-5.4458e-23
1.29618e-21
1.875e-06
-9.55736e-23
1.36138e-21
1.875e-06
-3.22825e-23
1.26206e-21
1.875e-06
-6.44537e-23
1.14173e-21
1.875e-06
-5.15485e-23
1.09676e-21
1.875e-06
8.44829e-23
1.17193e-21
1.875e-06
1.02567e-22
8.9892e-22
1.875e-06
1.02041e-22
8.62084e-22
1.875e-06
3.19743e-23
8.61801e-22
1.875e-06
2.34572e-23
1.0701e-21
1.875e-06
-5.60758e-23
9.15408e-22
1.875e-06
7.14997e-24
7.55019e-22
1.875e-06
1.00308e-22
5.23613e-22
1.875e-06
7.76428e-23
3.61154e-22
1.875e-06
-5.87928e-23
4.35651e-22
1.875e-06
8.07172e-23
5.83015e-22
1.875e-06
1.58701e-22
4.5814e-22
1.875e-06
1.0807e-22
3.87601e-22
1.875e-06
-3.83717e-23
4.11341e-22
1.875e-06
-1.28024e-22
3.14937e-22
1.875e-06
-1.03745e-22
2.67586e-22
1.875e-06
-1.23688e-22
1.96183e-22
1.875e-06
-2.00524e-23
2.26449e-22
1.875e-06
-1.32088e-23
2.37472e-23
1.875e-06
1.18524e-23
5.42462e-23
1.875e-06
6.86827e-24
1.43554e-22
1.875e-06
-2.04045e-23
3.59073e-23
1.875e-06
9.01086e-23
1.01658e-22
1.875e-06
-7.30557e-23
3.97831e-24
1.875e-06
-1.13861e-22
2.36237e-23
1.875e-06
-9.60777e-23
1.18945e-22
1.875e-06
-1.03514e-22
5.902e-23
1.875e-06
-7.47295e-23
-2.17814e-22
1.875e-06
-6.38407e-23
-3.72222e-22
1.875e-06
4.64859e-23
-2.16476e-22
1.875e-06
6.2263e-24
-2.88685e-22
-6.10888e-24
-2.66303e-22
1.875e-06
-8.54863e-23
6.2911e-22
1.875e-06
-1.71992e-22
9.92152e-22
1.875e-06
-2.03252e-22
1.09585e-21
1.875e-06
2.39367e-23
1.27068e-21
1.875e-06
8.39473e-23
1.39003e-21
1.875e-06
-4.27789e-23
1.29905e-21
1.875e-06
-1.44582e-22
1.15513e-21
1.875e-06
-1.35423e-22
1.04601e-21
1.875e-06
2.69378e-23
1.10908e-21
1.875e-06
1.26853e-22
1.06817e-21
1.875e-06
2.8853e-23
9.93877e-22
1.875e-06
1.51177e-23
8.59103e-22
1.875e-06
7.61163e-23
1.00262e-21
1.875e-06
1.23514e-23
9.89776e-22
1.875e-06
5.92242e-23
7.74946e-22
1.875e-06
-1.60576e-23
5.43917e-22
1.875e-06
5.16329e-23
4.89603e-22
1.875e-06
1.60686e-22
5.33044e-22
1.875e-06
1.74982e-22
4.54977e-22
1.875e-06
8.29106e-23
3.78724e-22
1.875e-06
-1.18316e-22
2.94624e-22
1.875e-06
-2.04878e-22
4.28193e-22
1.875e-06
-3.49078e-23
4.18104e-22
1.875e-06
-1.47651e-23
2.92395e-22
1.875e-06
1.5129e-24
2.68447e-22
1.875e-06
-1.13951e-22
1.57007e-22
1.875e-06
-4.53933e-23
1.25049e-22
1.875e-06
-2.32395e-23
1.48756e-22
1.875e-06
-5.12375e-23
7.52523e-23
1.875e-06
1.48261e-23
6.77335e-23
1.875e-06
1.0102e-22
5.16239e-23
1.875e-06
-3.61016e-23
1.28352e-23
1.875e-06
-3.48101e-23
-8.88522e-24
1.875e-06
1.43889e-23
5.31412e-23
1.875e-06
-9.04675e-24
8.2159e-23
1.875e-06
-7.42766e-23
-3.51631e-23
1.875e-06
-5.65405e-23
-2.12258e-22
1.875e-06
-1.64383e-22
-3.92041e-22
1.875e-06
5.21453e-23
-2.39937e-22
1.47905e-22
-2.23722e-22
1.875e-06
9.98097e-24
6.64906e-22
1.875e-06
-1.97518e-23
1.04054e-21
1.875e-06
3.17067e-24
1.17688e-21
1.875e-06
8.66051e-24
1.26047e-21
1.875e-06
-7.67401e-24
1.25301e-21
1.875e-06
-1.03245e-22
1.31593e-21
1.875e-06
-1.75406e-22
1.23018e-21
1.875e-06
-4.49417e-23
1.20476e-21
1.875e-06
-4.39936e-24
1.15169e-21
1.875e-06
5.04068e-23
1.02179e-21
1.875e-06
4.61754e-23
1.0144e-21
1.875e-06
4.52904e-23
9.60638e-22
1.875e-06
1.25882e-22
1.00449e-21
1.875e-06
1.14666e-22
9.92678e-22
1.875e-06
2.54915e-23
7.29504e-22
1.875e-06
5.52918e-24
6.51587e-22
1.875e-06
-1.18764e-22
5.19236e-22
1.875e-06
-3.36244e-23
3.90679e-22
1.875e-06
6.70744e-23
3.53126e-22
1.875e-06
-2.35992e-23
3.03471e-22
1.875e-06
-8.04745e-23
3.39042e-22
1.875e-06
3.15547e-23
5.4602e-22
1.875e-06
-1.86757e-23
4.4392e-22
1.875e-06
8.72861e-24
3.07689e-22
1.875e-06
2.13391e-23
2.81626e-22
1.875e-06
-3.70235e-23
1.85727e-22
1.875e-06
8.53753e-23
2.08013e-22
1.875e-06
6.31679e-23
2.30745e-22
1.875e-06
-1.57144e-23
1.21341e-22
1.875e-06
-1.7008e-23
3.61587e-23
1.875e-06
-7.05379e-23
-8.72001e-23
1.875e-06
-3.17824e-23
-9.52384e-23
1.875e-06
1.01561e-23
-4.21596e-23
1.875e-06
4.99163e-23
6.88261e-23
1.875e-06
4.78515e-23
1.41303e-22
1.875e-06
-6.78289e-23
-3.0645e-23
1.875e-06
-8.17571e-23
-8.62844e-23
1.875e-06
-2.1404e-23
-4.08438e-23
1.875e-06
-4.87445e-23
-2.12651e-22
-4.77395e-24
-2.54965e-22
1.875e-06
1.09822e-22
7.63823e-22
1.875e-06
1.48e-22
1.11849e-21
1.875e-06
-8.25121e-25
9.8421e-22
1.875e-06
-9.40285e-23
1.16257e-21
1.875e-06
-1.46992e-22
1.31374e-21
1.875e-06
-4.02184e-23
1.34111e-21
1.875e-06
-2.94504e-23
1.25661e-21
1.875e-06
-1.74107e-22
1.06564e-21
1.875e-06
-1.40211e-22
1.10653e-21
1.875e-06
1.26778e-23
1.19239e-21
1.875e-06
-1.58165e-22
1.0475e-21
1.875e-06
5.34852e-22
1.0468e-21
1.875e-06
1.09798e-22
9.36826e-22
1.875e-06
5.80026e-23
9.06917e-22
1.875e-06
-2.53422e-23
8.49574e-22
1.875e-06
-1.27831e-22
6.7949e-22
1.875e-06
-3.15881e-23
4.81082e-22
1.875e-06
-9.20833e-23
3.11064e-22
1.875e-06
-1.61014e-22
3.58068e-22
1.875e-06
-5.4834e-23
3.55198e-22
1.875e-06
-7.12258e-23
3.63326e-22
1.875e-06
-9.0713e-23
4.70206e-22
1.875e-06
3.31712e-23
5.22232e-22
1.875e-06
1.0042e-22
2.16219e-22
1.875e-06
1.73697e-22
3.38537e-22
1.875e-06
6.96087e-23
2.93452e-22
1.875e-06
-8.77052e-23
1.38704e-22
1.875e-06
-5.45496e-24
4.1046e-23
1.875e-06
-9.8396e-23
1.02099e-22
1.875e-06
1.88147e-22
3.6843e-23
1.875e-06
-7.23019e-23
2.6243e-23
1.875e-06
-1.38585e-23
-7.57151e-23
1.875e-06
1.10983e-22
-1.28311e-22
1.875e-06
-9.38839e-23
5.73111e-23
1.875e-06
6.58645e-23
8.33255e-23
1.875e-06
6.21182e-23
9.38308e-23
1.875e-06
-2.62395e-23
-3.50571e-23
1.875e-06
-2.9356e-23
-8.919e-23
1.875e-06
-1.64381e-22
-2.25781e-22
-1.01569e-22
-1.49269e-22
1.875e-06
2.35672e-22
6.75202e-22
1.875e-06
1.58358e-22
9.58232e-22
1.875e-06
-8.7086e-24
9.93483e-22
1.875e-06
-2.60188e-23
1.18466e-21
1.875e-06
7.53394e-23
1.32942e-21
1.875e-06
3.29161e-23
1.29633e-21
1.875e-06
-5.8243e-23
1.23413e-21
1.875e-06
-1.94807e-22
1.16389e-21
1.875e-06
-1.16982e-22
1.16196e-21
1.875e-06
-4.27001e-23
1.22725e-21
1.875e-06
4.48316e-23
1.07738e-21
1.875e-06
7.5902e-23
1.03722e-21
1.875e-06
1.19283e-23
1.01058e-21
1.875e-06
3.6764e-23
8.99493e-22
1.875e-06
-1.39532e-24
7.81685e-22
1.875e-06
-5.91042e-24
7.14123e-22
1.875e-06
-1.65167e-22
4.81074e-22
1.875e-06
-1.23287e-22
3.75483e-22
1.875e-06
-1.37932e-22
4.57672e-22
1.875e-06
-7.29155e-23
3.25872e-22
1.875e-06
-9.82219e-23
3.84047e-22
1.875e-06
-2.9448e-23
5.08005e-22
1.875e-06
3.41366e-23
4.40878e-22
1.875e-06
2.05814e-23
2.45137e-22
1.875e-06
1.34952e-23
2.74318e-22
1.875e-06
1.00715e-22
3.55617e-22
1.875e-06
4.98386e-23
1.32263e-22
1.875e-06
7.70657e-23
4.55901e-23
1.875e-06
9.93585e-23
6.1244e-23
1.875e-06
2.1408e-23
1.44455e-23
1.875e-06
2.41054e-24
-3.1731e-23
1.875e-06
-3.60211e-24
-8.30055e-23
1.875e-06
-5.40081e-23
-2.71642e-23
1.875e-06
-2.72077e-23
8.41085e-23
1.875e-06
4.69874e-23
-7.4442e-24
1.875e-06
1.81405e-22
5.57727e-23
1.875e-06
5.04446e-23
-7.10929e-23
1.875e-06
2.17398e-23
-1.61317e-22
1.875e-06
-1.15846e-22
-2.07815e-22
-1.49118e-22
-1.26088e-22
1.875e-06
1.81898e-23
4.62536e-22
1.875e-06
9.01407e-23
8.60408e-22
1.875e-06
-3.90535e-24
1.03862e-21
1.875e-06
9.72653e-25
1.15074e-21
1.875e-06
1.90261e-23
1.2312e-21
1.875e-06
7.00709e-23
1.30825e-21
1.875e-06
8.53533e-24
1.19941e-21
1.875e-06
-1.82701e-23
1.22898e-21
1.875e-06
-2.84512e-23
1.21636e-21
1.875e-06
-1.06383e-22
1.32668e-21
1.875e-06
-9.16705e-23
1.13514e-21
1.875e-06
-1.59935e-22
9.46575e-22
1.875e-06
-8.81573e-23
9.82894e-22
1.875e-06
-1.1526e-22
9.49686e-22
1.875e-06
-1.09445e-22
7.22214e-22
1.875e-06
-5.75476e-23