/*--------------------------------*- C++ -*----------------------------------*\
| =========                 |                                                 |
| \\      /  F ield         | OpenFOAM: The Open Source CFD Toolbox           |
|  \\    /   O peration     | Version:  v2012                                 |
|   \\  /    A nd           | Website:  www.openfoam.com                      |
|    \\/     M anipulation  |                                                 |
\*---------------------------------------------------------------------------*/
FoamFile
{
    version     2.0;
    format      ascii;
    class       volVectorField;
    location    "28";
    object      U;
}
// * * * * * * * * * * * * * * * * * * * * * * * * * * * * * * * * * * * * * //

dimensions      [0 1 -1 0 0 0 0];


internalField   nonuniform List<vector> 
64000
(
(0.003 2.27837e-19 2.18268e-19)
(0.003 3.98832e-19 3.41447e-19)
(0.003 4.25421e-19 4.48839e-19)
(0.003 4.304e-19 5.14208e-19)
(0.003 5.4646e-19 5.02736e-19)
(0.003 5.59604e-19 4.20525e-19)
(0.003 4.79072e-19 3.72956e-19)
(0.003 2.75057e-19 3.50645e-19)
(0.003 3.09082e-19 4.81704e-19)
(0.003 4.92413e-19 4.38739e-19)
(0.003 5.09074e-19 3.49956e-19)
(0.003 4.44842e-19 4.43857e-19)
(0.003 3.70784e-19 4.03563e-19)
(0.003 3.55436e-19 2.76064e-19)
(0.003 2.94792e-19 3.34806e-19)
(0.003 2.49888e-19 3.55445e-19)
(0.003 1.93067e-19 2.36616e-19)
(0.003 5.89013e-20 1.17237e-19)
(0.003 8.34002e-20 8.07489e-20)
(0.003 1.17367e-19 1.518e-19)
(0.003 3.46887e-20 1.5899e-19)
(0.003 1.63026e-19 2.07372e-19)
(0.003 2.61582e-19 1.88713e-19)
(0.003 2.90499e-19 1.01551e-19)
(0.003 3.34309e-19 1.70348e-19)
(0.003 1.89312e-19 1.51557e-19)
(0.003 8.49429e-20 1.56058e-19)
(0.003 1.7505e-19 2.2205e-19)
(0.003 2.50636e-19 2.82559e-19)
(0.003 8.30265e-20 2.56679e-19)
(0.003 -5.91797e-20 1.88756e-19)
(0.003 -2.63035e-20 7.16299e-20)
(0.003 1.20304e-19 8.68408e-20)
(0.003 9.97993e-20 9.93993e-20)
(0.003 9.72305e-20 1.30958e-19)
(0.003 8.33775e-20 1.51073e-19)
(0.003 -5.98166e-21 8.08353e-20)
(0.003 -9.72908e-20 1.20582e-19)
(0.003 -2.38965e-19 1.53389e-19)
(0.003 -2.1458e-19 8.96955e-20)
(0.003 2.62914e-19 3.39109e-19)
(0.003 3.79635e-19 7.14354e-19)
(0.003 5.72311e-19 9.40665e-19)
(0.003 5.48433e-19 9.67644e-19)
(0.003 4.85726e-19 9.29769e-19)
(0.003 6.76005e-19 9.66886e-19)
(0.003 6.38183e-19 8.97113e-19)
(0.003 5.56539e-19 6.94558e-19)
(0.003 5.50465e-19 7.84681e-19)
(0.003 5.0067e-19 1.04527e-18)
(0.003 4.14925e-19 9.46171e-19)
(0.003 3.72004e-19 8.55216e-19)
(0.003 3.09104e-19 7.45845e-19)
(0.003 2.11666e-19 6.44111e-19)
(0.003 1.6998e-19 6.07514e-19)
(0.003 1.37084e-19 5.69932e-19)
(0.003 3.39818e-19 5.36392e-19)
(0.003 3.06583e-19 3.95283e-19)
(0.003 1.48505e-19 3.10689e-19)
(0.003 4.65101e-20 2.61221e-19)
(0.003 1.80856e-19 2.29111e-19)
(0.003 2.58515e-19 2.885e-19)
(0.003 2.38771e-19 2.88713e-19)
(0.003 3.04013e-19 3.82471e-19)
(0.003 1.68579e-19 3.69137e-19)
(0.003 1.84151e-19 2.69656e-19)
(0.003 2.61177e-19 1.89433e-19)
(0.003 1.25535e-19 2.64377e-19)
(0.003 -3.44961e-20 4.03285e-19)
(0.003 1.77295e-20 3.12882e-19)
(0.003 4.87901e-20 1.14874e-19)
(0.003 8.36915e-20 5.20821e-20)
(0.003 1.17707e-19 1.927e-19)
(0.003 8.60342e-21 1.85963e-19)
(0.003 -8.62796e-21 2.45692e-19)
(0.003 -7.47112e-20 1.43846e-19)
(0.003 -1.86303e-19 -3.66963e-20)
(0.003 -1.66894e-19 -1.1002e-20)
(0.003 -1.3118e-19 3.83856e-20)
(0.003 -1.02954e-19 6.80866e-20)
(0.003 1.96103e-19 4.5717e-19)
(0.003 2.24927e-19 8.14235e-19)
(0.003 3.3911e-19 1.07232e-18)
(0.003 4.88551e-19 1.16422e-18)
(0.003 4.63592e-19 1.10578e-18)
(0.003 4.84662e-19 1.10039e-18)
(0.003 5.19675e-19 1.11498e-18)
(0.003 5.52328e-19 9.8813e-19)
(0.003 5.17443e-19 1.06693e-18)
(0.003 4.13823e-19 1.16065e-18)
(0.003 3.20451e-19 1.00282e-18)
(0.003 2.83426e-19 9.05101e-19)
(0.003 3.10156e-19 7.82075e-19)
(0.003 1.82038e-19 7.24075e-19)
(0.003 1.50221e-19 6.874e-19)
(0.003 1.01274e-19 6.1815e-19)
(0.003 2.11049e-19 7.21448e-19)
(0.003 3.57904e-19 5.71101e-19)
(0.003 1.13222e-19 3.11554e-19)
(0.003 1.58495e-19 2.77861e-19)
(0.003 2.92047e-19 3.81447e-19)
(0.003 2.33694e-19 3.74235e-19)
(0.003 2.09274e-19 2.90545e-19)
(0.003 1.69782e-19 3.56316e-19)
(0.003 1.34037e-19 3.39759e-19)
(0.003 1.74686e-19 3.16235e-19)
(0.003 1.32986e-19 2.85257e-19)
(0.003 -3.28726e-20 3.05912e-19)
(0.003 -7.50033e-20 2.87241e-19)
(0.003 9.29141e-21 3.16219e-19)
(0.003 8.51644e-20 3.21726e-19)
(0.003 1.33031e-19 2.38935e-19)
(0.003 -1.6224e-22 1.60192e-19)
(0.003 -7.43814e-20 8.33711e-20)
(0.003 -1.28901e-20 2.3529e-19)
(0.003 -4.50367e-20 1.56779e-19)
(0.003 -1.91573e-19 -1.10423e-19)
(0.003 -1.12469e-19 -5.55898e-20)
(0.003 4.5343e-20 5.67421e-20)
(0.003 4.3623e-20 7.11641e-20)
(0.003 3.50102e-19 6.10247e-19)
(0.003 2.97007e-19 1.00666e-18)
(0.003 2.0557e-19 1.1584e-18)
(0.003 3.00771e-19 1.30068e-18)
(0.003 4.27138e-19 1.28517e-18)
(0.003 3.88221e-19 1.2766e-18)
(0.003 3.59044e-19 1.24166e-18)
(0.003 3.43792e-19 1.08021e-18)
(0.003 3.32222e-19 1.09254e-18)
(0.003 3.8144e-19 1.16731e-18)
(0.003 3.54342e-19 1.13897e-18)
(0.003 2.86719e-19 1.10615e-18)
(0.003 2.40542e-19 9.07643e-19)
(0.003 1.65798e-19 7.15175e-19)
(0.003 3.51366e-19 7.16539e-19)
(0.003 5.1555e-19 6.88776e-19)
(0.003 2.03397e-19 6.82935e-19)
(0.003 7.33028e-20 6.35036e-19)
(0.003 1.34916e-19 3.86034e-19)
(0.003 1.81426e-19 3.18446e-19)
(0.003 1.17935e-19 4.05207e-19)
(0.003 2.09246e-19 4.29992e-19)
(0.003 2.62965e-19 3.76763e-19)
(0.003 1.60471e-19 4.36182e-19)
(0.003 1.46364e-19 4.17785e-19)
(0.003 1.12777e-19 3.31809e-19)
(0.003 2.39282e-20 2.41249e-19)
(0.003 -1.36508e-20 2.05332e-19)
(0.003 4.92645e-20 2.89161e-19)
(0.003 -4.39278e-20 3.38623e-19)
(0.003 -6.82251e-20 2.97645e-19)
(0.003 -1.57267e-20 2.28095e-19)
(0.003 -1.40933e-19 1.99615e-19)
(0.003 -9.60948e-20 1.87519e-19)
(0.003 -8.11524e-20 2.11743e-19)
(0.003 -1.17079e-19 8.55526e-20)
(0.003 5.00615e-20 -1.03382e-19)
(0.003 9.7828e-20 3.94775e-20)
(0.003 1.3052e-19 8.54908e-20)
(0.003 1.61586e-19 7.79671e-20)
(0.003 1.20573e-19 6.31653e-19)
(0.003 2.22683e-19 1.10488e-18)
(0.003 1.62927e-19 1.22223e-18)
(0.003 1.73545e-19 1.33127e-18)
(0.003 2.34336e-19 1.42175e-18)
(0.003 1.97764e-19 1.45521e-18)
(0.003 2.1911e-19 1.34892e-18)
(0.003 4.09327e-19 1.08622e-18)
(0.003 4.40789e-19 1.07233e-18)
(0.003 3.5733e-19 1.25718e-18)
(0.003 2.69175e-19 1.23265e-18)
(0.003 2.3321e-19 1.08869e-18)
(0.003 2.61289e-19 9.15127e-19)
(0.003 2.14528e-19 7.83303e-19)
(0.003 3.27967e-19 8.66198e-19)
(0.003 4.84245e-19 9.53172e-19)
(0.003 2.5043e-19 7.19126e-19)
(0.003 5.94389e-20 5.15872e-19)
(0.003 1.03389e-19 4.41512e-19)
(0.003 1.12666e-19 3.41319e-19)
(0.003 -6.28694e-20 3.2766e-19)
(0.003 3.71509e-20 4.3356e-19)
(0.003 2.84145e-19 5.00804e-19)
(0.003 2.15892e-19 4.96295e-19)
(0.003 1.28262e-19 4.935e-19)
(0.003 1.00358e-19 3.75148e-19)
(0.003 8.74269e-20 2.34681e-19)
(0.003 5.80007e-20 2.8619e-19)
(0.003 3.95139e-20 3.3117e-19)
(0.003 1.28466e-20 2.30106e-19)
(0.003 3.89815e-20 2.09759e-19)
(0.003 -2.66874e-20 2.50329e-19)
(0.003 -1.57239e-19 1.22175e-19)
(0.003 -1.09814e-19 1.3154e-19)
(0.003 -4.65784e-20 1.99832e-19)
(0.003 -2.59053e-20 8.13033e-20)
(0.003 8.3714e-20 -2.73284e-20)
(0.003 6.93071e-20 -4.53414e-20)
(0.003 4.76436e-20 1.09932e-19)
(0.003 5.93778e-20 1.56536e-19)
(0.003 -2.93934e-21 6.88388e-19)
(0.003 1.58292e-19 1.06543e-18)
(0.003 1.29429e-19 1.19208e-18)
(0.003 1.41978e-19 1.34812e-18)
(0.003 1.81939e-19 1.50468e-18)
(0.003 1.84468e-19 1.4552e-18)
(0.003 2.0768e-19 1.3643e-18)
(0.003 4.73642e-19 1.39213e-18)
(0.003 5.25059e-19 1.28529e-18)
(0.003 3.34365e-19 1.17064e-18)
(0.003 2.42769e-19 1.14817e-18)
(0.003 2.7604e-19 1.16665e-18)
(0.003 2.95458e-19 1.0204e-18)
(0.003 3.39204e-19 8.03197e-19)
(0.003 2.47628e-19 9.19836e-19)
(0.003 1.60082e-19 9.62004e-19)
(0.003 1.28816e-19 7.73947e-19)
(0.003 -4.47996e-20 5.55005e-19)
(0.003 -3.67325e-20 4.22332e-19)
(0.003 3.28307e-20 3.30624e-19)
(0.003 1.15402e-19 3.00344e-19)
(0.003 1.76926e-19 4.58938e-19)
(0.003 2.65316e-19 5.63296e-19)
(0.003 2.71064e-19 4.91079e-19)
(0.003 1.20092e-19 4.11293e-19)
(0.003 1.1901e-19 3.9143e-19)
(0.003 1.10214e-19 3.74023e-19)
(0.003 -1.14914e-20 2.51994e-19)
(0.003 -1.68057e-19 2.4045e-19)
(0.003 -7.83071e-20 3.37836e-19)
(0.003 1.43269e-19 3.21897e-19)
(0.003 1.54866e-19 2.02488e-19)
(0.003 1.93828e-20 3.56184e-20)
(0.003 -1.86961e-20 1.40598e-19)
(0.003 -1.52856e-20 1.83702e-19)
(0.003 1.33789e-19 3.96643e-20)
(0.003 1.81476e-19 -2.1095e-20)
(0.003 5.72195e-20 -8.66478e-22)
(0.003 2.97996e-20 6.80143e-20)
(0.003 3.9363e-20 1.07694e-19)
(0.003 1.10953e-19 7.93236e-19)
(0.003 2.02588e-19 1.26214e-18)
(0.003 2.09486e-19 1.26967e-18)
(0.003 9.9436e-20 1.36161e-18)
(0.003 1.49769e-19 1.50856e-18)
(0.003 1.64138e-19 1.55722e-18)
(0.003 2.67128e-19 1.45029e-18)
(0.003 5.00296e-19 1.40393e-18)
(0.003 4.75176e-19 1.38786e-18)
(0.003 3.60613e-19 1.30673e-18)
(0.003 3.49815e-19 1.23975e-18)
(0.003 2.37561e-19 1.18462e-18)
(0.003 1.71512e-19 1.04024e-18)
(0.003 3.43431e-19 9.06242e-19)
(0.003 2.34788e-19 9.48639e-19)
(0.003 1.55009e-19 8.88315e-19)
(0.003 9.66358e-20 6.57679e-19)
(0.003 5.06438e-20 4.71797e-19)
(0.003 8.77449e-20 3.49433e-19)
(0.003 8.90223e-20 3.52395e-19)
(0.003 1.75396e-19 3.91096e-19)
(0.003 1.6317e-19 5.50491e-19)
(0.003 1.10712e-19 6.23631e-19)
(0.003 1.63043e-19 5.36928e-19)
(0.003 1.21354e-19 4.11089e-19)
(0.003 1.12045e-19 3.88307e-19)
(0.003 1.59558e-20 3.37484e-19)
(0.003 -4.26483e-20 2.34433e-19)
(0.003 -9.90423e-20 1.58362e-19)
(0.003 -5.03556e-20 1.81946e-19)
(0.003 8.0519e-20 2.95882e-19)
(0.003 7.63049e-20 2.3559e-19)
(0.003 3.27925e-20 6.06213e-20)
(0.003 9.90066e-20 5.04828e-20)
(0.003 1.64311e-19 1.36129e-19)
(0.003 2.28887e-19 7.79813e-20)
(0.003 1.52526e-19 -9.22876e-20)
(0.003 1.42918e-20 -1.61076e-20)
(0.003 -4.25377e-20 1.18032e-19)
(0.003 -8.16402e-21 1.51447e-19)
(0.003 2.30074e-19 7.21489e-19)
(0.003 2.04538e-19 1.20249e-18)
(0.003 2.03636e-19 1.3611e-18)
(0.003 1.99566e-19 1.46615e-18)
(0.003 1.84612e-19 1.575e-18)
(0.003 2.28364e-19 1.51916e-18)
(0.003 3.4087e-19 1.51321e-18)
(0.003 3.16622e-19 1.60144e-18)
(0.003 3.23565e-19 1.53807e-18)
(0.003 3.66126e-19 1.428e-18)
(0.003 2.49443e-19 1.29224e-18)
(0.003 1.73051e-19 1.12158e-18)
(0.003 1.72589e-19 9.51129e-19)
(0.003 3.12037e-19 8.86747e-19)
(0.003 2.90609e-19 9.79734e-19)
(0.003 1.80268e-19 9.33195e-19)
(0.003 9.05823e-20 6.74435e-19)
(0.003 1.31285e-19 4.29855e-19)
(0.003 2.97935e-19 3.0757e-19)
(0.003 2.33703e-19 3.72687e-19)
(0.003 1.15573e-19 4.0843e-19)
(0.003 2.00778e-20 5.57574e-19)
(0.003 -4.21949e-20 5.89392e-19)
(0.003 9.55304e-20 5.04388e-19)
(0.003 1.054e-19 5.05025e-19)
(0.003 8.45565e-20 4.32821e-19)
(0.003 9.8247e-20 2.67462e-19)
(0.003 3.37153e-20 1.72147e-19)
(0.003 -4.82421e-20 1.4526e-19)
(0.003 1.11524e-20 2.19405e-19)
(0.003 -9.30172e-20 3.45452e-19)
(0.003 -1.04905e-19 2.56409e-19)
(0.003 3.45546e-20 1.48191e-19)
(0.003 1.14033e-19 1.78554e-19)
(0.003 2.35088e-19 1.31426e-19)
(0.003 7.9059e-20 -1.30671e-19)
(0.003 3.36806e-20 -3.8722e-19)
(0.003 -1.26439e-20 -6.37585e-20)
(0.003 -8.73533e-20 2.07624e-19)
(0.003 -3.43361e-20 1.37672e-19)
(0.003 -7.5094e-20 7.42588e-19)
(0.003 3.70565e-21 1.38437e-18)
(0.003 1.46752e-19 1.49894e-18)
(0.003 1.6469e-19 1.53885e-18)
(0.003 2.0742e-19 1.61486e-18)
(0.003 3.91371e-19 1.60748e-18)
(0.003 3.70207e-19 1.61744e-18)
(0.003 1.03376e-19 1.58162e-18)
(0.003 1.08956e-19 1.52106e-18)
(0.003 2.41972e-19 1.48639e-18)
(0.003 1.83264e-19 1.33189e-18)
(0.003 1.44599e-19 1.14825e-18)
(0.003 1.94875e-19 9.57126e-19)
(0.003 2.87568e-19 9.60335e-19)
(0.003 2.76398e-19 9.69704e-19)
(0.003 1.02152e-19 9.02186e-19)
(0.003 1.97483e-19 7.18039e-19)
(0.003 1.58855e-19 4.36739e-19)
(0.003 2.23608e-20 4.26903e-19)
(0.003 6.6829e-20 4.24059e-19)
(0.003 1.42175e-19 3.40593e-19)
(0.003 1.1376e-19 5.8262e-19)
(0.003 1.67655e-19 6.3487e-19)
(0.003 1.65856e-19 5.99042e-19)
(0.003 1.12746e-19 4.76165e-19)
(0.003 -4.09079e-23 3.64868e-19)
(0.003 -1.54277e-21 2.83633e-19)
(0.003 4.81858e-20 2.05543e-19)
(0.003 2.13872e-20 8.46291e-20)
(0.003 -8.35129e-20 1.8094e-19)
(0.003 -1.54896e-19 2.45634e-19)
(0.003 -1.60554e-19 2.62551e-19)
(0.003 4.38831e-21 2.0456e-19)
(0.003 5.02373e-20 1.12173e-19)
(0.003 4.49516e-20 -9.09631e-20)
(0.003 -5.30415e-20 -3.66762e-19)
(0.003 7.82635e-21 -3.03426e-19)
(0.003 6.67008e-20 -6.24171e-20)
(0.003 6.42143e-20 1.33191e-19)
(0.003 5.23339e-20 1.16543e-19)
(0.003 -2.18248e-19 8.86932e-19)
(0.003 -3.37193e-21 1.31775e-18)
(0.003 2.0738e-19 1.52859e-18)
(0.003 3.19953e-19 1.65465e-18)
(0.003 2.03482e-19 1.74401e-18)
(0.003 2.14289e-19 1.72789e-18)
(0.003 3.18691e-19 1.69592e-18)
(0.003 1.60083e-19 1.58982e-18)
(0.003 1.31606e-19 1.38883e-18)
(0.003 1.46813e-19 1.36463e-18)
(0.003 2.12268e-19 1.3364e-18)
(0.003 9.85737e-20 1.20297e-18)
(0.003 9.60394e-20 1.05456e-18)
(0.003 2.00719e-19 1.05718e-18)
(0.003 2.20855e-19 9.93092e-19)
(0.003 1.88778e-19 8.14385e-19)
(0.003 1.83199e-19 6.45673e-19)
(0.003 1.24518e-19 5.46277e-19)
(0.003 -1.46071e-19 3.27139e-19)
(0.003 -1.05265e-19 2.99635e-19)
(0.003 1.87208e-19 4.37988e-19)
(0.003 2.92475e-19 6.2772e-19)
(0.003 2.32683e-19 7.35488e-19)
(0.003 1.49176e-19 6.67603e-19)
(0.003 2.02687e-19 5.42175e-19)
(0.003 -1.23616e-20 3.51588e-19)
(0.003 -1.91752e-19 2.49594e-19)
(0.003 -1.09156e-19 1.92905e-19)
(0.003 1.20939e-20 1.48675e-19)
(0.003 -3.87715e-20 1.63506e-19)
(0.003 -4.04533e-20 1.78114e-19)
(0.003 -1.18349e-19 2.03218e-19)
(0.003 -2.51802e-21 2.18106e-19)
(0.003 -1.16455e-20 1.40726e-19)
(0.003 -1.18225e-19 -3.47014e-20)
(0.003 -4.97511e-20 -3.29878e-19)
(0.003 2.5001e-20 -5.084e-19)
(0.003 2.03075e-19 -2.03418e-19)
(0.003 2.34128e-19 1.64752e-20)
(0.003 1.43941e-19 6.2122e-21)
(0.003 1.159e-19 8.97542e-19)
(0.003 2.06049e-19 1.48163e-18)
(0.003 2.21639e-19 1.68339e-18)
(0.003 2.38769e-19 1.73728e-18)
(0.003 2.13379e-19 1.75351e-18)
(0.003 2.6792e-19 1.72036e-18)
(0.003 2.11923e-19 1.688e-18)
(0.003 1.73273e-19 1.5615e-18)
(0.003 9.51248e-20 1.46114e-18)
(0.003 1.08118e-19 1.36663e-18)
(0.003 2.64757e-19 1.26798e-18)
(0.003 1.87767e-19 1.20855e-18)
(0.003 1.39718e-19 1.05885e-18)
(0.003 1.1081e-19 9.61593e-19)
(0.003 1.45867e-19 1.00207e-18)
(0.003 3.04912e-19 9.84786e-19)
(0.003 1.54896e-19 6.7555e-19)
(0.003 1.68331e-20 4.23965e-19)
(0.003 1.03805e-20 2.93015e-19)
(0.003 4.2963e-20 3.69235e-19)
(0.003 2.00722e-19 5.39987e-19)
(0.003 2.96058e-19 7.04521e-19)
(0.003 1.06679e-19 7.79e-19)
(0.003 3.58861e-20 7.4836e-19)
(0.003 5.02255e-20 4.81006e-19)
(0.003 -8.78625e-20 2.55454e-19)
(0.003 -1.41886e-19 2.34794e-19)
(0.003 -7.78016e-20 2.45409e-19)
(0.003 7.26616e-21 1.22604e-19)
(0.003 -2.79631e-20 2.08813e-19)
(0.003 -8.24987e-20 3.16637e-19)
(0.003 -3.70151e-20 1.95043e-19)
(0.003 2.10052e-20 1.24511e-19)
(0.003 -6.14838e-20 5.60956e-20)
(0.003 -3.03796e-19 6.59086e-20)
(0.003 -1.25198e-19 -2.19664e-19)
(0.003 4.25694e-20 -5.71262e-19)
(0.003 2.13248e-19 -2.45936e-19)
(0.003 3.22825e-19 -1.01003e-19)
(0.003 2.48774e-19 -1.16029e-19)
(0.003 2.6562e-19 9.9467e-19)
(0.003 2.60126e-19 1.54534e-18)
(0.003 2.0832e-19 1.65528e-18)
(0.003 1.51528e-19 1.65961e-18)
(0.003 2.03767e-19 1.73479e-18)
(0.003 1.69971e-19 1.78793e-18)
(0.003 1.25701e-19 1.65744e-18)
(0.003 2.74109e-19 1.56179e-18)
(0.003 1.68589e-19 1.37896e-18)
(0.003 9.50396e-20 1.37833e-18)
(0.003 1.63609e-19 1.32154e-18)
(0.003 1.74051e-19 1.21008e-18)
(0.003 2.07716e-19 1.11835e-18)
(0.003 2.01519e-19 9.83545e-19)
(0.003 1.2093e-19 9.76985e-19)
(0.003 4.02451e-20 9.81403e-19)
(0.003 1.09633e-20 7.45364e-19)
(0.003 1.10495e-19 4.59303e-19)
(0.003 2.80761e-19 3.64874e-19)
(0.003 2.42755e-19 4.24384e-19)
(0.003 1.25244e-19 5.37876e-19)
(0.003 -2.92485e-20 6.5122e-19)
(0.003 -9.2105e-20 6.77838e-19)
(0.003 -8.18046e-20 7.40016e-19)
(0.003 -1.22659e-19 5.63019e-19)
(0.003 -8.56674e-20 3.00741e-19)
(0.003 -5.69144e-20 2.47744e-19)
(0.003 -2.73587e-20 2.31902e-19)
(0.003 -3.16158e-20 1.18244e-19)
(0.003 -9.92731e-20 2.28517e-19)
(0.003 -1.12834e-20 3.02596e-19)
(0.003 2.55728e-20 2.34481e-19)
(0.003 -1.34247e-19 1.72973e-19)
(0.003 -4.91506e-20 -2.85933e-20)
(0.003 -9.63798e-20 8.36394e-21)
(0.003 -1.20499e-19 -6.51017e-20)
(0.003 -1.86618e-20 -5.33221e-19)
(0.003 1.5643e-19 -2.39459e-19)
(0.003 2.45277e-19 -1.61869e-19)
(0.003 1.98691e-19 -3.03541e-19)
(0.003 2.7202e-19 1.05424e-18)
(0.003 2.87901e-19 1.56113e-18)
(0.003 2.10001e-19 1.6495e-18)
(0.003 1.9813e-19 1.72434e-18)
(0.003 7.10115e-20 1.77153e-18)
(0.003 -7.07493e-20 1.74556e-18)
(0.003 1.26565e-19 1.67659e-18)
(0.003 1.86965e-19 1.63644e-18)
(0.003 2.21549e-19 1.46943e-18)
(0.003 1.67646e-19 1.34469e-18)
(0.003 1.61303e-20 1.2511e-18)
(0.003 8.68265e-20 1.18067e-18)
(0.003 2.3771e-19 1.14831e-18)
(0.003 3.11863e-19 1.07576e-18)
(0.003 1.48913e-19 1.00866e-18)
(0.003 -4.60877e-20 8.84289e-19)
(0.003 1.06471e-20 6.57053e-19)
(0.003 1.11729e-19 4.82406e-19)
(0.003 2.06774e-19 4.99798e-19)
(0.003 2.14581e-19 5.31957e-19)
(0.003 1.2811e-19 5.5637e-19)
(0.003 3.92261e-20 6.203e-19)
(0.003 5.22246e-20 6.27497e-19)
(0.003 -3.84738e-20 6.46522e-19)
(0.003 -2.22755e-19 4.94817e-19)
(0.003 -1.18276e-19 2.55077e-19)
(0.003 -7.16153e-20 1.90672e-19)
(0.003 -6.83221e-20 2.46399e-19)
(0.003 -1.26992e-19 1.82008e-19)
(0.003 -2.1767e-19 2.11925e-19)
(0.003 -3.20001e-20 3.14804e-19)
(0.003 8.57165e-20 2.69346e-19)
(0.003 -3.18877e-20 1.29494e-19)
(0.003 -3.80195e-21 1.36533e-19)
(0.003 3.70706e-20 7.82006e-20)
(0.003 -1.04612e-19 -2.57512e-19)
(0.003 -4.35184e-20 -5.0767e-19)
(0.003 1.02423e-19 -2.84187e-19)
(0.003 1.07213e-19 -2.01566e-19)
(0.003 1.10092e-19 -3.2968e-19)
(0.003 4.64873e-21 1.11945e-18)
(0.003 2.133e-19 1.67077e-18)
(0.003 2.23432e-19 1.69089e-18)
(0.003 5.84272e-20 1.74189e-18)
(0.003 -1.0183e-19 1.73977e-18)
(0.003 -6.06962e-20 1.73136e-18)
(0.003 1.90728e-19 1.71254e-18)
(0.003 2.66239e-19 1.62229e-18)
(0.003 1.51372e-19 1.45088e-18)
(0.003 1.64444e-20 1.40995e-18)
(0.003 -3.49682e-20 1.28043e-18)
(0.003 1.67283e-19 1.11322e-18)
(0.003 2.46098e-19 1.1719e-18)
(0.003 2.17482e-19 1.17095e-18)
(0.003 1.12451e-19 1.08704e-18)
(0.003 5.43253e-20 8.99727e-19)
(0.003 6.42169e-20 6.9111e-19)
(0.003 2.14898e-19 5.43441e-19)
(0.003 2.49201e-19 4.88975e-19)
(0.003 9.58395e-20 4.7176e-19)
(0.003 1.73135e-19 5.75365e-19)
(0.003 8.60946e-20 7.06137e-19)
(0.003 -1.42355e-20 6.43429e-19)
(0.003 -2.96285e-20 5.96016e-19)
(0.003 -1.50741e-19 4.56046e-19)
(0.003 -4.49916e-20 1.2941e-19)
(0.003 2.8626e-20 9.92214e-20)
(0.003 -2.94616e-20 2.57829e-19)
(0.003 -9.32543e-20 1.17681e-19)
(0.003 -1.59014e-19 1.44433e-19)
(0.003 -2.32373e-19 4.00619e-19)
(0.003 -1.01432e-19 3.50011e-19)
(0.003 3.8004e-20 2.19023e-19)
(0.003 -6.65948e-20 1.70288e-19)
(0.003 -4.09898e-20 4.4614e-20)
(0.003 -2.06922e-20 -3.07013e-19)
(0.003 -5.6307e-20 -5.92127e-19)
(0.003 -5.92848e-21 -3.88549e-19)
(0.003 -1.88923e-20 -3.75298e-19)
(0.003 -4.13491e-20 -4.5238e-19)
(0.003 -2.12816e-19 1.09151e-18)
(0.003 -1.72832e-19 1.65156e-18)
(0.003 5.23506e-20 1.7973e-18)
(0.003 1.89931e-20 1.67368e-18)
(0.003 3.82291e-20 1.65572e-18)
(0.003 2.10495e-20 1.72284e-18)
(0.003 1.24074e-19 1.79406e-18)
(0.003 2.4376e-19 1.68234e-18)
(0.003 5.50057e-20 1.49646e-18)
(0.003 -7.46927e-20 1.38813e-18)
(0.003 1.23668e-19 1.26833e-18)
(0.003 2.58983e-19 1.19968e-18)
(0.003 1.62738e-19 1.24172e-18)
(0.003 9.91713e-22 1.164e-18)
(0.003 3.44715e-20 9.97404e-19)
(0.003 6.23915e-20 8.87631e-19)
(0.003 1.43561e-19 6.62996e-19)
(0.003 3.60173e-19 5.79777e-19)
(0.003 2.27942e-19 6.45117e-19)
(0.003 6.79337e-20 4.54677e-19)
(0.003 1.95081e-19 5.93571e-19)
(0.003 6.73577e-20 7.00107e-19)
(0.003 -1.78613e-19 7.16351e-19)
(0.003 -2.20523e-19 5.94494e-19)
(0.003 -1.72725e-19 3.96645e-19)
(0.003 3.71661e-20 2.59604e-19)
(0.003 2.17845e-19 1.05954e-19)
(0.003 1.18145e-19 1.6418e-19)
(0.003 -3.15772e-20 1.27057e-19)
(0.003 -3.29815e-20 8.75411e-20)
(0.003 -1.15466e-19 2.66106e-19)
(0.003 -1.52558e-19 3.07252e-19)
(0.003 -8.76435e-20 2.18712e-19)
(0.003 -6.31161e-20 7.22586e-20)
(0.003 -3.17385e-20 1.97508e-20)
(0.003 -7.30585e-20 -2.18778e-19)
(0.003 -1.15116e-19 -4.71632e-19)
(0.003 -1.11465e-19 -4.46783e-19)
(0.003 -1.17627e-19 -3.98647e-19)
(0.003 -1.46738e-19 -4.39956e-19)
(0.003 -7.20396e-20 1.05445e-18)
(0.003 -2.66801e-19 1.66025e-18)
(0.003 -1.83326e-19 1.85567e-18)
(0.003 -1.17295e-19 1.73815e-18)
(0.003 4.93224e-20 1.74495e-18)
(0.003 6.77504e-20 1.78603e-18)
(0.003 1.94466e-21 1.77381e-18)
(0.003 2.04517e-20 1.66774e-18)
(0.003 1.13946e-20 1.50274e-18)
(0.003 8.83456e-20 1.29764e-18)
(0.003 2.02769e-19 1.31086e-18)
(0.003 2.19567e-19 1.31745e-18)
(0.003 2.39977e-20 1.27164e-18)
(0.003 -4.85132e-20 1.17105e-18)
(0.003 5.40599e-20 1.08584e-18)
(0.003 1.05684e-19 8.99471e-19)
(0.003 1.70083e-19 6.44287e-19)
(0.003 1.42735e-19 5.91745e-19)
(0.003 1.43293e-19 6.17415e-19)
(0.003 2.14739e-19 4.81763e-19)
(0.003 1.00288e-19 5.94614e-19)
(0.003 3.06675e-20 7.54205e-19)
(0.003 -1.34648e-19 7.07965e-19)
(0.003 -3.20169e-19 4.90621e-19)
(0.003 -1.8313e-19 2.45676e-19)
(0.003 -2.04363e-20 3.12941e-19)
(0.003 9.69039e-20 2.22658e-19)
(0.003 8.27601e-20 9.4545e-20)
(0.003 9.93365e-20 1.59506e-19)
(0.003 1.21327e-19 1.25573e-19)
(0.003 -7.31777e-22 2.15664e-19)
(0.003 -2.10652e-20 2.23534e-19)
(0.003 -8.48523e-20 1.31293e-19)
(0.003 -1.3312e-19 9.68761e-20)
(0.003 -1.40941e-19 -7.58759e-21)
(0.003 -1.21933e-19 -2.63252e-19)
(0.003 -4.98119e-20 -3.37645e-19)
(0.003 -1.59647e-19 -3.1432e-19)
(0.003 -1.83782e-19 -4.38078e-19)
(0.003 -1.28401e-19 -4.73338e-19)
(0.003 -1.52412e-19 9.82843e-19)
(0.003 -1.37395e-19 1.56259e-18)
(0.003 -4.30995e-20 1.79158e-18)
(0.003 -1.35719e-19 1.76809e-18)
(0.003 -1.49691e-19 1.8135e-18)
(0.003 -1.94986e-20 1.80298e-18)
(0.003 -3.89964e-20 1.80763e-18)
(0.003 -2.59523e-20 1.76277e-18)
(0.003 9.80994e-20 1.57492e-18)
(0.003 1.92784e-19 1.35914e-18)
(0.003 1.47666e-19 1.33686e-18)
(0.003 1.49352e-19 1.33115e-18)
(0.003 -1.5595e-20 1.27935e-18)
(0.003 -7.91749e-20 1.20909e-18)
(0.003 -4.3526e-20 1.01725e-18)
(0.003 1.17687e-19 7.82643e-19)
(0.003 1.70893e-19 6.10729e-19)
(0.003 -5.11773e-20 6.55127e-19)
(0.003 9.96603e-20 7.34683e-19)
(0.003 2.83801e-19 6.15237e-19)
(0.003 1.35504e-19 6.90207e-19)
(0.003 -4.07581e-21 6.3685e-19)
(0.003 -1.52342e-19 5.37872e-19)
(0.003 -2.60114e-19 3.61687e-19)
(0.003 -1.76354e-19 2.34971e-19)
(0.003 -5.73205e-20 3.56777e-19)
(0.003 -4.03115e-20 2.67858e-19)
(0.003 1.72401e-20 2.68987e-19)
(0.003 6.35554e-20 2.07743e-19)
(0.003 8.37236e-20 1.25034e-19)
(0.003 7.43786e-20 1.13019e-19)
(0.003 -5.75168e-21 1.447e-19)
(0.003 -1.5084e-19 1.18534e-19)
(0.003 -2.30701e-19 1.51771e-19)
(0.003 -2.41489e-19 5.62928e-20)
(0.003 -1.17812e-19 -2.33175e-19)
(0.003 4.47005e-20 -3.75406e-19)
(0.003 -3.47543e-20 -2.72874e-19)
(0.003 -1.11051e-19 -5.03447e-19)
(0.003 -8.88283e-20 -5.52559e-19)
(0.003 -1.92034e-19 9.03926e-19)
(0.003 -2.10373e-19 1.58457e-18)
(0.003 -1.61477e-19 1.88237e-18)
(0.003 -1.2065e-20 1.81043e-18)
(0.003 8.41034e-21 1.77107e-18)
(0.003 -3.98501e-20 1.80414e-18)
(0.003 -1.46165e-19 1.79484e-18)
(0.003 -1.72567e-19 1.68055e-18)
(0.003 4.52248e-20 1.60054e-18)
(0.003 1.82661e-19 1.52542e-18)
(0.003 1.15952e-19 1.3948e-18)
(0.003 3.48186e-20 1.30452e-18)
(0.003 7.93544e-20 1.22229e-18)
(0.003 -1.18056e-20 1.16562e-18)
(0.003 1.36882e-20 1.06001e-18)
(0.003 4.85241e-20 9.24447e-19)
(0.003 9.38785e-20 7.29242e-19)
(0.003 1.86874e-19 5.54869e-19)
(0.003 2.86324e-19 6.1026e-19)
(0.003 1.7452e-19 6.07131e-19)
(0.003 -3.35244e-20 7.36369e-19)
(0.003 -1.85677e-19 7.65021e-19)
(0.003 -1.25827e-19 5.50291e-19)
(0.003 -5.36871e-20 3.70969e-19)
(0.003 -1.06359e-19 2.49615e-19)
(0.003 -1.52755e-19 3.20952e-19)
(0.003 -6.62004e-20 3.90956e-19)
(0.003 -7.3444e-20 3.12662e-19)
(0.003 -3.30416e-20 2.19913e-19)
(0.003 2.76843e-20 1.30468e-19)
(0.003 1.3599e-19 1.0462e-19)
(0.003 -7.98039e-20 7.85677e-20)
(0.003 -1.39328e-19 1.51283e-20)
(0.003 -5.86837e-20 1.02179e-19)
(0.003 -1.0357e-19 8.05218e-20)
(0.003 -1.27869e-19 -3.21389e-20)
(0.003 -1.21217e-19 -2.10243e-19)
(0.003 -6.61394e-20 -3.1987e-19)
(0.003 6.42039e-20 -4.39895e-19)
(0.003 9.66487e-20 -4.94286e-19)
(0.003 -7.75869e-20 8.91628e-19)
(0.003 -1.85953e-19 1.50908e-18)
(0.003 -1.93889e-19 1.75704e-18)
(0.003 5.31747e-20 1.83097e-18)
(0.003 8.07639e-20 1.80366e-18)
(0.003 -1.36787e-19 1.7809e-18)
(0.003 -2.66881e-19 1.78421e-18)
(0.003 -1.25866e-19 1.74974e-18)
(0.003 8.1149e-20 1.65755e-18)
(0.003 9.96452e-20 1.54409e-18)
(0.003 1.76523e-20 1.39377e-18)
(0.003 3.46508e-20 1.34182e-18)
(0.003 9.81112e-20 1.28123e-18)
(0.003 1.18485e-19 1.16129e-18)
(0.003 1.54413e-19 1.05612e-18)
(0.003 2.68415e-20 9.44593e-19)
(0.003 -4.70523e-20 8.19956e-19)
(0.003 1.26862e-19 6.95531e-19)
(0.003 2.66689e-19 6.96677e-19)
(0.003 7.4245e-20 6.28316e-19)
(0.003 -1.5206e-19 6.87926e-19)
(0.003 -1.89055e-19 6.44693e-19)
(0.003 -3.67843e-20 5.99771e-19)
(0.003 -5.08566e-21 4.40403e-19)
(0.003 2.38495e-21 2.94452e-19)
(0.003 -1.27107e-19 2.79856e-19)
(0.003 -1.0211e-20 3.5779e-19)
(0.003 4.49534e-21 2.7148e-19)
(0.003 -6.94647e-20 1.41592e-19)
(0.003 8.67131e-21 8.60681e-20)
(0.003 3.62762e-20 1.08371e-19)
(0.003 -4.87792e-20 -1.02062e-20)
(0.003 2.45405e-20 1.31965e-20)
(0.003 7.57582e-20 1.29879e-19)
(0.003 5.21254e-21 7.37415e-20)
(0.003 -1.57301e-19 2.73249e-20)
(0.003 -1.48622e-19 1.09934e-22)
(0.003 -1.54484e-19 -1.42939e-19)
(0.003 3.65443e-20 -2.38622e-19)
(0.003 1.66823e-19 -2.89089e-19)
(0.003 9.49757e-20 9.94924e-19)
(0.003 1.23526e-19 1.56381e-18)
(0.003 5.46969e-20 1.67489e-18)
(0.003 -6.81934e-20 1.76367e-18)
(0.003 -9.25083e-20 1.79907e-18)
(0.003 -1.3631e-19 1.73176e-18)
(0.003 -2.45914e-19 1.67414e-18)
(0.003 -2.33782e-19 1.73323e-18)
(0.003 -9.3974e-20 1.73786e-18)
(0.003 1.05445e-19 1.61193e-18)
(0.003 1.97773e-19 1.40683e-18)
(0.003 1.54264e-19 1.38357e-18)
(0.003 1.79846e-19 1.25174e-18)
(0.003 1.3988e-19 1.22034e-18)
(0.003 6.71026e-20 1.15922e-18)
(0.003 -4.50359e-20 1.00418e-18)
(0.003 -8.56351e-20 7.72636e-19)
(0.003 -1.89375e-19 5.9757e-19)
(0.003 -1.82564e-19 7.37143e-19)
(0.003 -3.08844e-20 6.2499e-19)
(0.003 -8.78153e-20 6.1418e-19)
(0.003 -6.30527e-20 7.08967e-19)
(0.003 -9.70182e-21 6.98794e-19)
(0.003 1.09968e-19 4.29811e-19)
(0.003 1.61703e-19 2.85307e-19)
(0.003 -9.18529e-21 2.45532e-19)
(0.003 -3.03749e-21 3.31041e-19)
(0.003 5.69148e-20 2.16034e-19)
(0.003 6.09683e-20 1.20961e-19)
(0.003 -1.14411e-20 7.66854e-20)
(0.003 -8.88997e-20 1.47983e-19)
(0.003 -2.98205e-20 4.30795e-20)
(0.003 5.79426e-20 -8.94904e-21)
(0.003 9.12025e-22 1.07088e-19)
(0.003 4.30585e-20 1.15873e-19)
(0.003 2.46802e-20 5.4117e-20)
(0.003 -5.94366e-20 1.03188e-20)
(0.003 -8.89084e-20 -8.86051e-20)
(0.003 -1.27117e-19 -2.15792e-19)
(0.003 -7.62485e-20 -2.58394e-19)
(0.003 2.67746e-19 9.59336e-19)
(0.003 2.35462e-19 1.50988e-18)
(0.003 1.07999e-20 1.65936e-18)
(0.003 -1.19491e-19 1.71693e-18)
(0.003 -8.68846e-20 1.71542e-18)
(0.003 1.50947e-20 1.71688e-18)
(0.003 -5.65151e-20 1.70335e-18)
(0.003 -2.92116e-19 1.65386e-18)
(0.003 -2.52898e-19 1.67374e-18)
(0.003 -3.20532e-20 1.72975e-18)
(0.003 2.28645e-19 1.65139e-18)
(0.003 1.94716e-19 1.5332e-18)
(0.003 1.31029e-19 1.34657e-18)
(0.003 1.32409e-19 1.21893e-18)
(0.003 -5.76451e-22 1.12372e-18)
(0.003 -9.31205e-20 9.31112e-19)
(0.003 -1.12536e-19 7.64391e-19)
(0.003 -1.74281e-19 6.11087e-19)
(0.003 -2.78476e-19 7.0284e-19)
(0.003 -1.56207e-19 6.12231e-19)
(0.003 -1.52401e-19 5.92781e-19)
(0.003 -1.17158e-19 6.23238e-19)
(0.003 4.23073e-21 6.34709e-19)
(0.003 5.69869e-20 5.48194e-19)
(0.003 1.71582e-19 4.26741e-19)
(0.003 1.77124e-19 2.64537e-19)
(0.003 -3.04907e-20 2.13032e-19)
(0.003 5.71677e-20 1.79073e-19)
(0.003 1.45987e-19 1.19679e-19)
(0.003 4.64377e-20 2.6822e-20)
(0.003 -6.867e-20 2.93049e-20)
(0.003 -6.37672e-20 -3.21397e-20)
(0.003 -1.40657e-20 8.99779e-20)
(0.003 -3.54456e-20 1.42898e-19)
(0.003 8.52437e-20 1.12333e-19)
(0.003 2.13622e-19 5.9004e-20)
(0.003 5.14039e-20 -3.39656e-20)
(0.003 -9.04549e-20 -1.28258e-19)
(0.003 -2.47298e-19 -2.13726e-19)
(0.003 -2.85406e-19 -1.25505e-19)
(0.003 2.42939e-19 9.64763e-19)
(0.003 2.50197e-19 1.52e-18)
(0.003 -2.55067e-20 1.66607e-18)
(0.003 -2.1583e-20 1.67886e-18)
(0.003 4.41914e-20 1.7111e-18)
(0.003 8.16564e-20 1.69228e-18)
(0.003 3.18394e-20 1.66426e-18)
(0.003 -1.40103e-19 1.59708e-18)
(0.003 -1.72015e-19 1.62842e-18)
(0.003 -1.63e-19 1.80445e-18)
(0.003 -6.48259e-20 1.73805e-18)
(0.003 2.59173e-20 1.57863e-18)
(0.003 3.01615e-20 1.41709e-18)
(0.003 -8.65607e-20 1.26538e-18)
(0.003 -1.285e-19 1.08202e-18)
(0.003 -6.76826e-20 9.46723e-19)
(0.003 -1.79025e-19 7.90786e-19)
(0.003 -2.40208e-19 5.88567e-19)
(0.003 -3.19943e-19 6.38093e-19)
(0.003 -2.00335e-19 6.17111e-19)
(0.003 -8.76997e-20 5.50815e-19)
(0.003 3.46749e-21 6.04533e-19)
(0.003 1.1963e-19 6.99508e-19)
(0.003 8.68297e-20 5.33112e-19)
(0.003 4.4254e-20 3.17641e-19)
(0.003 1.36582e-19 2.83799e-19)
(0.003 4.44501e-20 2.33219e-19)
(0.003 6.87159e-20 2.18866e-19)
(0.003 7.80779e-20 1.52032e-19)
(0.003 2.234e-20 -4.00149e-20)
(0.003 1.05109e-19 -1.58138e-19)
(0.003 1.34285e-19 -9.9957e-20)
(0.003 -5.15825e-20 3.67315e-21)
(0.003 -1.90355e-20 9.17631e-20)
(0.003 1.70383e-19 1.94962e-19)
(0.003 1.74014e-19 1.22517e-19)
(0.003 1.10072e-19 -2.15282e-19)
(0.003 -1.47991e-20 -1.93429e-19)
(0.003 -3.2299e-20 -1.66199e-19)
(0.003 -4.57342e-20 -2.87783e-20)
(0.003 -1.05406e-19 1.02973e-18)
(0.003 -5.20908e-20 1.62227e-18)
(0.003 6.25708e-20 1.65726e-18)
(0.003 2.77598e-21 1.6448e-18)
(0.003 -7.05578e-21 1.67144e-18)
(0.003 7.15094e-20 1.75793e-18)
(0.003 7.38729e-20 1.67776e-18)
(0.003 1.02241e-19 1.51606e-18)
(0.003 -6.96711e-20 1.6108e-18)
(0.003 -1.72678e-19 1.77279e-18)
(0.003 -1.65417e-19 1.69915e-18)
(0.003 -1.46417e-19 1.60637e-18)
(0.003 -1.90305e-19 1.45525e-18)
(0.003 -1.38752e-19 1.15868e-18)
(0.003 -1.22691e-19 9.6342e-19)
(0.003 -1.87984e-19 8.86762e-19)
(0.003 -2.27659e-19 8.15522e-19)
(0.003 -1.79598e-19 6.46136e-19)
(0.003 -2.1296e-19 5.5489e-19)
(0.003 -2.22247e-19 6.24501e-19)
(0.003 -1.35426e-19 5.60756e-19)
(0.003 -6.81364e-21 6.33841e-19)
(0.003 4.74265e-20 7.25701e-19)
(0.003 8.21099e-20 5.36773e-19)