/*--------------------------------*- C++ -*----------------------------------*\
| =========                 |                                                 |
| \\      /  F ield         | OpenFOAM: The Open Source CFD Toolbox           |
|  \\    /   O peration     | Version:  v2012                                 |
|   \\  /    A nd           | Website:  www.openfoam.com                      |
|    \\/     M anipulation  |                                                 |
\*---------------------------------------------------------------------------*/
FoamFile
{
    version     2.0;
    format      ascii;
    class       volScalarField;
    location    "560/bottomWater";
    object      p;
}
// * * * * * * * * * * * * * * * * * * * * * * * * * * * * * * * * * * * * * //

dimensions      [1 -1 -2 0 0 0 0];


internalField   nonuniform List<scalar> 
1460
(
353.46339
353.45775
353.46642
353.45507
353.47361
353.45595
353.45855
353.45476
353.45461
353.46423
353.46044
353.46308
353.46478
353.46241
353.46444
353.46295
353.45731
353.45031
353.45178
353.46107
353.44807
353.45728
353.44934
353.44292
353.43537
353.44962
353.46095
353.45842
353.46148
353.46211
274.40084
274.42915
274.41588
274.40724
274.40095
274.40535
274.41652
274.42232
274.40381
274.39838
274.40114
274.41759
274.45665
274.46936
274.48173
274.47308
274.45079
274.40692
274.41598
274.41352
274.42059
274.47791
274.49458
274.46372
274.45893
274.48565
274.47767
274.43222
274.39636
274.41181
196.29302
196.26248
196.26792
196.2802
196.31593
196.29524
196.28243
196.27649
196.302
196.32276
196.29469
196.26104
196.22771
196.25568
196.25912
196.26723
196.25397
196.27667
196.30814
196.29433
196.25866
196.24215
196.26307
196.29348
196.3039
196.25767
196.24233
196.26012
196.27008
196.32664
117.68792
117.63227
117.64345
117.6646
117.71487
117.68639
117.66323
117.6579
117.68195
117.69134
117.67831
117.64384
117.65697
117.67104
117.68866
117.66917
117.63964
117.6535
117.66997
117.68719
117.64354
117.65222
117.65029
117.67371
117.67482
117.64037
117.66449
117.64104
117.68204
117.68449
39.264351
39.268868
39.259451
39.22966
39.256468
39.2319
39.253114
39.275868
39.25067
39.272602
39.25455
39.25419
39.242573
39.22077
39.228678
39.227346
39.24458
39.246923
39.261852
39.261865
39.258685
39.254221
39.243517
39.237479
39.240474
39.252643
39.263927
39.263249
39.253241
39.265785
353.46947
353.47226
353.48347
353.4467
353.47086
353.4529
353.48563
353.47975
353.45916
353.47079
353.47008
353.4769
353.45593
353.47339
353.45989
353.47888
353.46075
353.45025
353.45202
353.45978
353.44955
353.45593
353.45436
353.45361
353.45463
353.4569
353.45413
353.44787
353.45963
353.45346
274.3945
274.42079
274.45664
274.41798
274.41401
274.41741
274.47294
274.46743
274.41157
274.39781
274.41387
274.44334
274.43535
274.42054
274.45659
274.50313
274.47021
274.41375
274.41091
274.40755
274.42206
274.46563
274.49279
274.48392
274.47384
274.45987
274.40996
274.45807
274.43347
274.4227
196.26297
196.23055
196.21493
196.2692
196.27047
196.25027
196.21781
196.22881
196.25486
196.25961
196.28783
196.22257
196.28263
196.26051
196.27042
196.22346
196.23502
196.25526
196.29605
196.28945
196.25909
196.2388
196.26871
196.27306
196.27027
196.24963
196.27129
196.31586
196.27398
196.30917
117.66926
117.62765
117.64319
117.64728
117.68601
117.66117
117.66939
117.66681
117.64482
117.68697
117.63637
117.66956
117.65701
117.67641
117.66318
117.66953
117.65926
117.6438
117.67365
117.68212
117.63322
117.64692
117.66617
117.67766
117.68065
117.61624
117.67658
117.61509
117.65062
117.65613
39.24693
39.243335
39.23635
39.211038
39.226539
39.224193
39.239881
39.248241
39.258147
39.267156
39.261464
39.266911
39.255175
39.238086
39.21492
39.234875
39.236274
39.246045
39.262096
39.258555
39.256021
39.241855
39.224887
39.227253
39.223276
39.238954
39.237457
39.278372
39.253453
39.252742
353.47674
353.47007
353.48664
353.47637
353.48903
353.47537
353.48496
353.46517
353.46537
353.46589
353.46041
353.45395
353.45367
353.45938
353.46404
353.46987
353.44566
353.4561
353.45015
353.4562
353.44735
353.4483
353.45925
353.45484
353.45213
353.45356
353.46333
353.45665
353.47746
353.46689
274.40341
274.43296
274.48942
274.4745
274.48083
274.47614
274.49322
274.43968
274.40564
274.40397
274.40734
274.41555
274.40615
274.41953
274.46471
274.4825
274.43748
274.42117
274.40682
274.41062
274.4201
274.42993
274.47484
274.47195
274.42469
274.40581
274.41106
274.43343
274.44607
274.41808
196.27562
196.2369
196.23565
196.26348
196.25076
196.25975
196.23776
196.24422
196.28326
196.31412
196.29648
196.30475
196.28904
196.29647
196.25911
196.22086
196.26576
196.26763
196.29166
196.30217
196.26466
196.27129
196.25604
196.25518
196.26397
196.28706
196.29676
196.289
196.2337
196.30237
117.68466
117.64301
117.65668
117.67556
117.71414
117.68949
117.67277
117.66297
117.67709
117.67757
117.66133
117.63855
117.66888
117.6623
117.66833
117.64964
117.6487
117.65203
117.68522
117.6964
117.65613
117.67147
117.68207
117.66258
117.65976
117.67905
117.7193
117.69325
117.69332
117.68873
39.252728
39.24662
39.23342
39.215526
39.237838
39.220171
39.236381
39.252535
39.253818
39.270833
39.258164
39.272395
39.237497
39.22878
39.233243
39.24394
39.234991
39.245627
39.253088
39.242965
39.234572
39.22274
39.217687
39.226703
39.23532
39.242108
39.249617
39.23904
39.238898
39.241668
353.46869
353.45903
353.47687
353.45998
353.47619
353.47059
353.47225
353.47232
353.47385
353.47351
353.47227
353.47765
353.46608
353.47118
353.45182
353.45445
353.45129
353.45588
353.44131
353.45266
353.44348
353.44015
353.44602
353.43613
353.4408
353.44985
353.44415
353.44346
353.44752
353.45145
274.40631
274.41003
274.47062
274.47553
274.48741
274.47982
274.43884
274.41941
274.39944
274.40876
274.44166
274.46494
274.46619
274.46408
274.44325
274.41717
274.43854
274.4231
274.42236
274.41184
274.40601
274.43164
274.4438
274.44771
274.43431
274.44686
274.42122
274.43067
274.41474
274.40832
196.27105
196.23531
196.22587
196.26748
196.24899
196.25939
196.2363
196.25775
196.27552
196.26504
196.24901
196.23946
196.26002
196.26847
196.27718
196.29181
196.29408
196.31874
196.28872
196.33481
196.28722
196.28181
196.27599
196.29209
196.30943
196.32622
196.30569
196.30634
196.30812
196.33782
117.68016
117.62917
117.64586
117.65753
117.69691
117.68378
117.67465
117.66555
117.70455
117.66638
117.66049
117.66977
117.68525
117.6808
117.62605
117.67788
117.62492
117.62868
117.63217
117.68321
117.67037
117.6284
117.65105
117.62971
117.65503
117.6575
117.65125
117.6331
117.63661
117.66723
39.254165
39.247016
39.240147
39.209712
39.225718
39.223926
39.224317
39.237775
39.255912
39.235257
39.226624
39.222767
39.231256
39.222569
39.242907
39.247229
39.275651
39.288161
39.245391
39.241725
39.247165
39.246847
39.241578
39.262377
39.23834
39.229388
39.240357
39.268318
39.271125
39.271972
353.47136
353.46353
353.46681
353.4689
353.47455
353.47316
353.47339
353.47854
353.47409
353.48712
353.48055
353.45023
353.45443
353.45019
353.45704
353.45884
353.45746
353.45225
353.46748
353.47404
353.44951
353.45742
353.45498
353.46704
353.47181
353.47026
274.40186
274.39067
274.42198
274.44886
274.46933
274.45032
274.40649
274.39697
274.42357
274.48342
274.47743
274.42002
274.42923
274.44424
274.4364
274.411
274.41152
274.41557
274.46986
274.49669
274.43834
274.42989
274.44611
274.46455
274.42834
274.4062
196.31424
196.26054
196.24581
196.24547
196.25356
196.22561
196.25474
196.26482
196.27449
196.24871
196.2308
196.29062
196.31197
196.27639
196.24677
196.28857
196.28655
196.25958
196.2444
196.22433
196.26385
196.32021
196.26521
196.24425
196.2392
196.2872
117.67789
117.65112
117.63484
117.66146
117.67939
117.65442
117.6637
117.70024
117.63692
117.65327
117.64459
117.65563
117.67183
117.66435
117.65184
117.66996
117.66621
117.62764
117.64414
117.65061
117.64987
117.69125
117.65428
117.64347
117.61739
117.67626
39.265567
39.252527
39.247171
39.230848
39.229148
39.2383
39.23597
39.249107
39.236824
39.249886
39.24388
39.223327
39.231837
39.261183
39.258146
39.250352
39.256426
39.250383
39.248381
39.248614
39.221626
39.23266
39.225386
39.247189
39.262942
39.267305
353.46764
353.46507
353.46592
353.45351
353.47388
353.46227
353.46565
353.46311
353.46416
353.46666
353.44643
353.45718
353.45606
353.4531
353.47284
353.46331
353.46759
353.45955
353.4588
353.47039
353.45832
353.46253
353.46358
353.46768
353.47369
353.46917
274.401
274.38923
274.41501
274.41772
274.44413
274.42873
274.40065
274.40625
274.43463
274.45458
274.41158
274.41058
274.4104
274.44244
274.46455
274.4203
274.41055
274.41358
274.41271
274.47402
274.46928
274.46501
274.47435
274.50152
274.47742
274.42223
196.33305
196.29782
196.26461
196.2843
196.25815
196.26729
196.27098
196.28876
196.23636
196.23974
196.24623
196.26209
196.27804
196.30549
196.23894
196.27812
196.29284
196.29362
196.2697
196.24411
196.25372
196.27492
196.26106
196.25093
196.24991
196.29478
117.67878
117.66255
117.6273
117.65284
117.6569
117.61142
117.67386
117.66488
117.65489
117.6605
117.64601
117.67142
117.67541
117.67174
117.64704
117.64316
117.68502
117.65921
117.62484
117.64074
117.64287
117.66883
117.6652
117.651
117.64811
117.67285
39.267007
39.259338
39.250316
39.237683
39.24257
39.252143
39.248554
39.24993
39.26506
39.264728
39.247762
39.23299
39.240158
39.246757
39.259716
39.26585
39.263638
39.258781
39.251181
39.245029
39.227674
39.222356
39.224216
39.245147
39.261402
39.257634
353.4703
353.46535
353.47611
353.46906
353.47063
353.46225
353.46328
353.46297
353.4596
353.46283
353.46274
353.4594
353.45907
353.46264
353.45945
353.47296
353.48019
353.47335
353.47193
353.47338
353.46134
353.46898
353.46774
353.46368
353.45782
353.461
353.45596
353.46143
353.47442
353.46935
274.40323
274.40883
274.44771
274.44163
274.42356
274.38777
274.38811
274.39132
274.39949
274.39441
274.39573
274.40276
274.42018
274.43105
274.41382
274.45094
274.47464
274.47589
274.49163
274.46352
274.4098
274.40586
274.4032
274.41082
274.42452
274.4276
274.4265
274.45565
274.46271
274.42536
196.29621
196.25489
196.25722
196.26999
196.25996
196.27067
196.32356
196.32424
196.32402
196.32119
196.31389
196.31238
196.30571
196.30129
196.30338
196.273
196.27106
196.26616
196.27398
196.23781
196.26124
196.29674
196.31622
196.29104
196.30514
196.30833
196.32309
196.27885
196.23124
196.27768
117.67452
117.63189
117.66625
117.66261
117.62437
117.6655
117.67147
117.67983
117.65674
117.67282
117.67319
117.66383
117.63442
117.62726
117.63876
117.67174
117.68356
117.68204
117.66701
117.65592
117.64308
117.68498
117.65457
117.64311
117.62379
117.62858
117.65779
117.64543
117.63056
117.63883
39.256671
39.255238
39.235408
39.240239
39.248368
39.249028
39.261088
39.264267
39.285644
39.269779
39.262535
39.249659
39.275024
39.257855
39.22349
39.223766
39.224351
39.221352
39.231585
39.255261
39.265097
39.262741
39.267999
39.242264
39.278038
39.236813
39.232495
39.216662
39.249974
39.251833
353.46988
353.46659
353.47939
353.46535
353.48707
353.4602
353.46239
353.46523
353.46726
353.4629
353.45351
353.45685
353.47181
353.46983
353.4777
353.47404
353.47814
353.4806
353.47504
353.47222
353.45388
353.46586
353.461
353.45961
353.45151
353.45429
353.45331
353.45226
353.45051
353.45444
274.41098
274.43554
274.47196
274.48059
274.4683
274.41023
274.39263
274.39983
274.39942
274.40168
274.40518
274.42653
274.44319
274.4029
274.40097
274.39652
274.42406
274.46015
274.47252
274.44572
274.42054
274.40563
274.40858
274.43039
274.43308
274.42457
274.40957
274.40828
274.42016
274.40134
196.28933
196.25153
196.26062
196.2688
196.22777
196.25174
196.27599
196.32045
196.31241
196.30704
196.26847
196.27098
196.24161
196.28516
196.29501
196.26646
196.25973
196.24752
196.26088
196.25478
196.27593
196.3007
196.30836
196.29397
196.30832
196.30336
196.30047
196.29902
196.29579
196.32042
117.67216
117.63927
117.68433
117.6636
117.64024
117.63202
117.66886
117.6734
117.68752
117.67622
117.66121
117.65302
117.65973
117.65949
117.67547
117.67607
117.65183
117.671
117.66735
117.67034
117.65973
117.67728
117.64318
117.6132
117.62768
117.65069
117.66674
117.67099
117.63796
117.68214
39.247103
39.242846
39.232945
39.229128
39.247108
39.253165
39.256024
39.266014
39.271307
39.265293
39.249646
39.261899
39.273687
39.250448
39.258436
39.234115
39.253261
39.233526
39.233854
39.240828
39.254578
39.263528
39.250874
39.27005
39.251797
39.236525
39.240013
39.243847
39.273051
39.263743
353.47457
353.47698
353.47585
353.46883
353.47937
353.45954
353.46098
353.4639
353.45898
353.45895
353.45888
353.46665
353.46925
353.46969
353.46787
353.47194
353.47342
353.46926
353.46439
353.46406
353.46237
353.45772
353.4603
353.47087
353.45611
353.46364
353.4519
353.45444
353.45768
353.46138
274.40567
274.44918
274.46896
274.45941
274.42914
274.39816
274.39675
274.43969
274.40612
274.40625
274.44275
274.46729
274.48889
274.45293
274.40879
274.39784
274.39572
274.39594
274.41034
274.41846
274.40091
274.39778
274.41981
274.46361
274.44912
274.4513
274.4239
274.42011
274.39639
274.40513
196.28674
196.23876
196.27285
196.25484
196.24392
196.26795
196.30826
196.28599
196.30046
196.26409
196.24091
196.25451
196.24341
196.23411
196.25325
196.29389
196.29694
196.29233
196.28208
196.30079
196.29147
196.26671
196.24872
196.22834
196.28577
196.27389
196.27287
196.27571
196.27721
196.32684
117.66066
117.61074
117.66214
117.67164
117.64012
117.65733
117.67474
117.64136
117.66352
117.65441
117.65683
117.66772
117.65392
117.65543
117.66022
117.67702
117.68029
117.66386
117.63195
117.63035
117.67043
117.65647
117.63903
117.63993
117.65934
117.65057
117.63306
117.62714
117.6597
117.67428
39.250937
39.246105
39.230394
39.226806
39.228765
39.233178
39.246967
39.258764
39.258572
39.243469
39.241257
39.228439
39.243866
39.24985
39.243214
39.245632
39.261697
39.249365
39.267323
39.284402
39.25151
39.241043
39.239842
39.228275
39.227372
39.22585
39.242748
39.260997
39.258053
39.266402
353.46492
353.4597
353.46813
353.45101
353.4815
353.45066
353.46237
353.46338
353.4549
353.46721
353.47114
353.47578
353.47481
353.47336
353.47329
353.46514
353.47034
353.46193
353.46295
353.46675
353.45638
353.45407
353.4597
353.4665
353.44732
353.46354
353.45742
353.48111
353.4569
353.46549
274.40703
274.42947
274.44953
274.43043
274.45463
274.4151
274.40789
274.40943
274.41409
274.46184
274.49131
274.50428
274.49685
274.48075
274.4562
274.41322
274.4421
274.42784
274.39983
274.39952
274.40636
274.41893
274.46916
274.48836
274.44965
274.4866
274.49474
274.48627
274.41365
274.41549
196.31124
196.28091
196.29329
196.31677
196.26371
196.27185
196.29081
196.28972
196.25907
196.22664
196.26665
196.26396
196.26662
196.27099
196.23649
196.28205
196.30255
196.30047
196.29409
196.3029
196.27668
196.25253
196.26191
196.26692
196.31783
196.27304
196.24687
196.2408
196.24739
196.28343
117.68293
117.5982
117.63543
117.64289
117.67514
117.65619
117.68447
117.68827
117.65891
117.66642
117.68746
117.70895
117.68627
117.67475
117.65103
117.65992
117.64936
117.61392
117.6736
117.67726
117.65361
117.64616
117.66339
117.67277
117.69844
117.67633
117.64969
117.6573
117.64078
117.68055
39.27641
39.268837
39.239254
39.229477
39.229217
39.23175
39.23757
39.238475
39.25221
39.246607
39.22367
39.23697
39.229152
39.22602
39.248533
39.25089
39.237784
39.268683
39.260077
39.273815
39.256189
39.246531
39.228716
39.222176
39.241061
39.219503
39.231673
39.252553
39.255023
39.257401
)
;

boundaryField
{
    minX
    {
        type            calculated;
        value           nonuniform List<scalar> 
50
(
353.46339
274.40084
196.29302
117.68792
39.264351
353.46947
274.3945
196.26297
117.66926
39.24693
353.47674
274.40341
196.27562
117.68466
39.252728
353.46869
274.40631
196.27105
117.68016
39.254165
353.47136
274.40186
196.31424
117.67789
39.265567
353.46764
274.401
196.33305
117.67878
39.267007
353.4703
274.40323
196.29621
117.67452
39.256671
353.46988
274.41098
196.28933
117.67216
39.247103
353.47457
274.40567
196.28674
117.66066
39.250937
353.46492
274.40703
196.31124
117.68293
39.27641
)
;
    }
    maxX
    {
        type            calculated;
        value           nonuniform List<scalar> 
50
(
353.46211
274.41181
196.32664
117.68449
39.265785
353.45346
274.4227
196.30917
117.65613
39.252742
353.46689
274.41808
196.30237
117.68873
39.241668
353.45145
274.40832
196.33782
117.66723
39.271972
353.47026
274.4062
196.2872
117.67626
39.267305
353.46917
274.42223
196.29478
117.67285
39.257634
353.46935
274.42536
196.27768
117.63883
39.251833
353.45444
274.40134
196.32042
117.68214
39.263743
353.46138
274.40513
196.32684
117.67428
39.266402
353.46549
274.41549
196.28343
117.68055
39.257401
)
;
    }
    minY
    {
        type            calculated;
        value           nonuniform List<scalar> 
292
(
392.4
392.4
392.4
392.4
392.4
392.4
392.4
392.4
392.4
392.4
392.4
392.4
392.4
392.4
392.4
392.4
392.4
392.4
392.4
392.4
392.4
392.4
392.4
392.4
392.4
392.4
392.4
392.4
392.4
392.4
392.4
392.4
392.4
392.4
392.4
392.4
392.4
392.4
392.4
392.4
392.4
392.4
392.4
392.4
392.4
392.4
392.4
392.4
392.4
392.4
392.4
392.4
392.4
392.4
392.4
392.4
392.4
392.4
392.4
392.4
392.4
392.4
392.4
392.4
392.4
392.4
392.4
392.4
392.4
392.4
392.4
392.4
392.4
392.4
392.4
392.4
392.4
392.4
392.4
392.4
392.4
392.4
392.4
392.4
392.4
392.4
392.4
392.4
392.4
392.4
392.4
392.4
392.4
392.4
392.4
392.4
392.4
392.4
392.4
392.4
392.4
392.4
392.4
392.4
392.4
392.4
392.4
392.4
392.4
392.4
392.4
392.4
392.4
392.4
392.4
392.4
392.4
392.4
392.4
392.4
392.4
392.4
392.4
392.4
392.4
392.4
392.4
392.4
392.4
392.4
392.4
392.4
392.4
392.4
392.4
392.4
392.4
392.4
392.4
392.4
392.4
392.4
392.4
392.4
392.4
392.4
392.4
392.4
392.4
392.4
392.4
392.4
392.4
392.4
392.4
392.4
392.4
392.4
392.4
392.4
392.4
392.4
392.4
392.4
392.4
392.4
392.4
392.4
392.4
392.4
392.4
392.4
392.4
392.4
392.4
392.4
392.4
392.4
392.4
392.4
392.4
392.4
392.4
392.4
392.4
392.4
392.4
392.4
392.4
392.4
392.4
392.4
392.4
392.4
392.4
392.4
392.4
392.4
392.4
392.4
392.4
392.4
392.4
392.4
392.4
392.4
392.4
392.4
392.4
392.4
392.4
392.4
392.4
392.4
392.4
392.4
392.4
392.4
392.4
392.4
392.4
392.4
392.4
392.4
392.4
392.4
392.4
392.4
392.4
392.4
392.4
392.4
392.4
392.4
392.4
392.4
392.4
392.4
392.4
392.4
392.4
392.4
392.4
392.4
392.4
392.4
392.4
392.4
392.4
392.4
392.4
392.4
392.4
392.4
392.4
392.4
392.4
392.4
392.4
392.4
392.4
392.4
392.4
392.4
392.4
392.4
392.4
392.4
392.4
392.4
392.4
392.4
392.4
392.4
392.4
392.4
392.4
392.4
392.4
392.4
392.4
392.4
392.4
392.4
392.4
392.4
392.4
392.4
392.4
392.4
392.4
392.4
)
;
    }
    minZ
    {
        type            calculated;
        value           nonuniform List<scalar> 
150
(
353.46339
274.40084
196.29302
117.68792
39.264351
353.45775
274.42915
196.26248
117.63227
39.268868
353.46642
274.41588
196.26792
117.64345
39.259451
353.45507
274.40724
196.2802
117.6646
39.22966
353.47361
274.40095
196.31593
117.71487
39.256468
353.45595
274.40535
196.29524
117.68639
39.2319
353.45855
274.41652
196.28243
117.66323
39.253114
353.45476
274.42232
196.27649
117.6579
39.275868
353.45461
274.40381
196.302
117.68195
39.25067
353.46423
274.39838
196.32276
117.69134
39.272602
353.46044
274.40114
196.29469
117.67831
39.25455
353.46308
274.41759
196.26104
117.64384
39.25419
353.46478
274.45665
196.22771
117.65697
39.242573
353.46241
274.46936
196.25568
117.67104
39.22077
353.46444
274.48173
196.25912
117.68866
39.228678
353.46295
274.47308
196.26723
117.66917
39.227346
353.45731
274.45079
196.25397
117.63964
39.24458
353.45031
274.40692
196.27667
117.6535
39.246923
353.45178
274.41598
196.30814
117.66997
39.261852
353.46107
274.41352
196.29433
117.68719
39.261865
353.44807
274.42059
196.25866
117.64354
39.258685
353.45728
274.47791
196.24215
117.65222
39.254221
353.44934
274.49458
196.26307
117.65029
39.243517
353.44292
274.46372
196.29348
117.67371
39.237479
353.43537
274.45893
196.3039
117.67482
39.240474
353.44962
274.48565
196.25767
117.64037
39.252643
353.46095
274.47767
196.24233
117.66449
39.263927
353.45842
274.43222
196.26012
117.64104
39.263249
353.46148
274.39636
196.27008
117.68204
39.253241
353.46211
274.41181
196.32664
117.68449
39.265785
)
;
    }
    maxZ
    {
        type            calculated;
        value           nonuniform List<scalar> 
150
(
353.46492
274.40703
196.31124
117.68293
39.27641
353.4597
274.42947
196.28091
117.5982
39.268837
353.46813
274.44953
196.29329
117.63543
39.239254
353.45101
274.43043
196.31677
117.64289
39.229477
353.4815
274.45463
196.26371
117.67514
39.229217
353.45066
274.4151
196.27185
117.65619
39.23175
353.46237
274.40789
196.29081
117.68447
39.23757
353.46338
274.40943
196.28972
117.68827
39.238475
353.4549
274.41409
196.25907
117.65891
39.25221
353.46721
274.46184
196.22664
117.66642
39.246607
353.47114
274.49131
196.26665
117.68746
39.22367
353.47578
274.50428
196.26396
117.70895
39.23697
353.47481
274.49685
196.26662
117.68627
39.229152
353.47336
274.48075
196.27099
117.67475
39.22602
353.47329
274.4562
196.23649
117.65103
39.248533
353.46514
274.41322
196.28205
117.65992
39.25089
353.47034
274.4421
196.30255
117.64936
39.237784
353.46193
274.42784
196.30047
117.61392
39.268683
353.46295
274.39983
196.29409
117.6736
39.260077
353.46675
274.39952
196.3029
117.67726
39.273815
353.45638
274.40636
196.27668
117.65361
39.256189
353.45407
274.41893
196.25253
117.64616
39.246531
353.4597
274.46916
196.26191
117.66339
39.228716
353.4665
274.48836
196.26692
117.67277
39.222176
353.44732
274.44965
196.31783
117.69844
39.241061
353.46354
274.4866
196.27304
117.67633
39.219503
353.45742
274.49474
196.24687
117.64969
39.231673
353.48111
274.48627
196.2408
117.6573
39.252553
353.4569
274.41365
196.24739
117.64078
39.255023
353.46549
274.41549
196.28343
117.68055
39.257401
)
;
    }
    bottomWater_to_rightSolid
    {
        type            calculated;
        value           nonuniform List<scalar> 
130
(
0.0069234755
0.021852225
0.021865051
0.018685317
0.01422074
0.003517478
-0.0025206061
0.00047402921
0.012643337
0.023927325
0.023249135
0.013241447
0.025784744
0.0060453986
0.022095714
0.018555072
0.016020797
0.0018552415
-0.015112725
-0.012746501
-0.016724392
-0.0010456238
-0.0025427808
0.038372039
0.013453134
0.012742337
0.0056272298
0.013087658
0.0029652053
-0.005428208
-0.017259714
-0.022312799
-0.013297015
-0.0046796212
0.0021084727
0.0096171936
-0.00096010799
-0.0011023173
0.001668341
0.04816116
0.0053907947
0.0017254919
0.0071648637
0.0068467916
0.0015782242
0.022376515
-0.001660342
-0.010611778
0.00035724783
0.028318299
0.031125179
0.031972053
0.021183137
0.018145557
0.010352062
0.016425553
0.0103825
0.0083809517
0.008614051
-0.018373955
-0.0073403392
-0.014614403
0.0071893204
0.02294224
0.027304967
0.0067566397
0.01971571
0.025849753
0.023638174
0.018780545
0.011180824
0.005028647
-0.012325931
-0.017644275
-0.015783712
0.005147195
0.021402106
0.017633577
-0.018647983
-0.0084153535
0.015261356
0.025096592
0.022741019
0.027999146
0.0022639133
0.038038268
-0.0031866455
-0.0075047831
-0.023337567
0.0099742791
0.011833197
-0.0064736003
-0.0061457229
0.00082750235
0.014578406
0.023527649
0.010874039
0.030049722
0.011797379
-0.0034749366
1.3215702e-05
0.0038470812
0.033051211
0.02374321
0.0093648985
0.027323373
0.044402247
0.011510236
0.0010433022
-0.00015793589
-0.011725159
-0.012628165
-0.014149833
0.0027482406
0.020996937
0.018053151
0.026401616
0.028683433
0.020077077
0.033815204
0.016188857
0.0065314888
-0.011283584
-0.017824408
0.0010610199
-0.020496715
-0.0083270027
0.012553114
0.015022839
0.0174008
)
;
    }
    bottomWater_to_leftSolid
    {
        type            calculated;
        value           nonuniform List<scalar> 
130
(
0.024350679
0.028867884
0.019451492
-0.010339997
0.016468194
-0.0081001945
0.013114052
0.035867769
0.010669998
0.032602431
0.014550241
0.014189682
0.0025726946
0.0069300324
0.0033348763
-0.0036499114
-0.028962261
-0.013461124
-0.0158067
-0.00011868794
0.0082405093
0.018147003
0.027155507
0.021464208
0.026910705
0.015175296
0.012728286
0.0066197482
-0.0065804237
-0.024473611
-0.0021624162
-0.019829384
-0.0036189373
0.012534965
0.013817859
0.030832981
0.018163591
0.03239461
-0.002502587
0.014165069
0.0070160076
0.00014671199
-0.03028841
-0.014282065
-0.016074315
-0.015683468
-0.0022248282
0.015911762
-0.0047432387
-0.013375976
-0.017233396
-0.0087441583
0.025566722
0.012527172
0.0071711593
-0.0091515467
-0.01085182
-0.0017002016
-0.0040302814
0.0091070459
-0.0031760552
0.0098864468
0.003880296
-0.016672731
-0.0081626247
0.027007147
0.019337818
0.010315698
-0.0023174283
0.0025703677
0.012142703
0.0085544819
0.0099298825
0.025060178
0.024728051
0.0077617375
-0.0070097998
0.00015801499
0.016670583
0.015237759
-0.0045923364
0.00023916727
0.008367778
0.0090281402
0.021088492
0.024267172
0.045644021
0.02977943
0.022535008
0.0096586572
0.035024338
0.0071030167
0.0028457646
-0.0070546695
-0.010871806
0.0071075245
0.013165232
0.016024486
0.026013595
0.031306925
0.025293337
0.0096456345
0.021898963
0.033687029
0.010937024
0.006104748
-0.0096055987
-0.013194239
-0.011234679
-0.0068215372
0.0069668107
0.018764313
0.018571972
0.0034692564
0.0012567827
-0.011560778
0.0038661129
0.036409917
0.028836691
-0.000746161
-0.010523166
-0.010782944
-0.0082496618
-0.0024299086
-0.0015251719
0.012210235
0.0066073529
-0.016329537
-0.0030298868
-0.010848498
)
;
    }
    bottomWater_to_heater
    {
        type            calculated;
        value           nonuniform List<scalar> 
92
(
-0.019229629
-0.011322157
-0.0126536
0.0045804049
-0.0019137258
-0.025079927
-0.0051253979
-0.0037261074
-0.011219997
-0.0067567644
0.0039395996
-0.0050088505
353.47118
353.45182
353.45445
353.45129
274.46408
274.44325
274.41717
274.43854
196.26847
196.27718
196.29181
196.29408
117.6808
117.62605
117.67788
117.62492
-0.017430618
39.222569
0.0029074626
39.242907
0.0072292705
39.247229
0.035651223
39.275651
353.45443
353.45019
274.42923
274.44424
196.31197
196.27639
117.67183
117.66435
39.231837
39.261183
353.45606
353.46264
353.45945
353.47296
353.4531
353.48019
274.4104
274.43105
274.41382
274.45094
274.44244
274.47464
196.27804
196.30129
196.30338
196.273
196.30549
196.27106
117.67541
117.62726
117.63876
117.67174
117.67174
117.68356
39.240158
39.257855
39.22349
39.223766
39.246757
39.224351
0.017855432
-0.016509818
-0.016234388
-0.015649463
0.010447962
0.018435739
-0.0058846853
0.013261118
0.0098503508
0.003213977
0.0056324983
0.021696732
-0.013979638
0.0085332379
0.010889819
-0.0022156048
)
;
    }
}


// ************************************************************************* //
