/*--------------------------------*- C++ -*----------------------------------*\
| =========                 |                                                 |
| \\      /  F ield         | OpenFOAM: The Open Source CFD Toolbox           |
|  \\    /   O peration     | Version:  v2012                                 |
|   \\  /    A nd           | Website:  www.openfoam.com                      |
|    \\/     M anipulation  |                                                 |
\*---------------------------------------------------------------------------*/
FoamFile
{
    version     2.0;
    format      ascii;
    class       volScalarField;
    location    "560/bottomWater";
    object      T;
}
// * * * * * * * * * * * * * * * * * * * * * * * * * * * * * * * * * * * * * //

dimensions      [0 0 0 1 0 0 0];


internalField   nonuniform List<scalar> 
1460
(
971.76821
971.0761
968.96502
972.46645
968.18169
970.0785
969.00202
970.32248
971.29054
968.64325
963.93406
960.41944
961.54111
959.55178
956.30281
955.25028
956.14094
955.81602
953.5272
947.28887
938.16334
935.81486
933.80895
932.45732
932.3515
929.6824
928.49723
929.81257
930.65995
931.33234
970.03212
969.42664
968.87574
970.1361
966.80693
966.29466
967.57821
968.55663
969.52665
964.48969
957.38647
956.9801
959.20221
958.66241
953.26555
950.86035
950.44189
950.54655
949.82169
940.5268
935.90414
936.16572
932.44137
930.29378
928.62524
926.87964
926.78727
926.89786
927.71166
928.71246
969.94636
969.30087
968.95876
969.22194
966.94393
966.758
967.31047
967.94736
969.73873
965.08203
958.46993
958.61275
958.74791
958.9555
952.89822
948.53694
949.44923
948.81882
948.81082
942.05661
939.25675
937.03802
933.2821
930.7748
927.05965
926.4793
926.93024
927.68844
927.70819
928.61903
969.85002
969.09218
968.17818
968.1524
967.19099
966.75637
966.63385
968.05821
969.16925
965.6388
961.92642
962.96122
962.88991
960.03808
952.43154
946.54501
946.68312
948.69874
947.11693
942.66081
940.55357
937.49837
933.97551
932.29693
926.29094
926.0538
926.82003
928.05476
928.06578
928.5732
969.13364
968.76103
968.15051
967.75205
967.20854
966.17375
966.62363
967.63507
967.77534
965.53408
963.79559
962.26541
960.21285
957.89519
950.42547
942.2685
944.94715
944.9907
943.64935
940.76978
939.05042
937.33782
935.81187
933.6174
924.75243
925.38835
926.09652
926.86674
927.01645
927.70858
970.07097
969.23613
967.88218
970.27248
965.24075
965.87009
964.41605
965.74198
966.68405
963.2829
952.28369
949.6332
958.80553
955.05105
947.93939
940.33541
941.23248
941.15107
939.91267
939.17712
934.8731
931.2772
928.78265
928.55376
928.32724
928.64751
929.18659
929.74052
930.24602
930.97519
969.18966
968.81237
968.39545
968.29137
964.61414
963.16826
965.37196
965.95758
966.45941
958.94275
948.66319
949.71343
958.25891
949.16538
940.14082
937.09209
933.95583
933.93621
933.84865
933.54704
930.83064
928.87034
926.95353
926.04964
925.96172
926.03736
926.39152
927.14395
928.56043
929.25965
969.2613
969.28814
968.32178
967.26847
965.35762
965.49953
965.34112
965.66763
964.88829
957.40695
950.5974
950.74142
952.08542
949.96357
937.32442
935.52278
928.65264
928.13173
932.50262
933.23521
931.45573
929.30119
927.33824
926.03429
925.67702
925.89521
926.23067
927.35859
928.786
929.08035
969.35207
969.36782
969.2334
967.72645
965.79857
964.9899
961.73296
962.03262
961.12934
956.69563
956.08501
955.98278
947.45966
950.29745
935.21207
932.13198
932.0233
930.60121
931.84133
932.27199
930.43858
928.14759
927.47787
925.91369
925.12078
926.16642
926.14015
927.28766
928.46472
928.23876
968.77702
968.58082
968.35744
968.0547
965.70768
963.43398
962.97219
961.85694
958.63145
955.46089
955.06366
954.98402
951.49406
950.69903
935.77282
929.15414
929.68067
928.94407
930.89769
930.86451
930.07953
929.74009
928.90841
926.35859
924.50368
925.23464
925.79359
926.54749
927.01673
926.5944
969.06825
968.54887
967.70559
966.53548
962.71387
962.20102
960.51638
962.0658
962.22557
955.24223
948.05552
944.68225
942.39437
938.88886
935.78019
923.4766
926.59718
925.9806
930.96441
937.45519
934.79824
931.57514
927.91085
928.63285
929.29384
929.49774
929.11929
929.57056
926.92498
926.72705
969.22891
969.12213
968.83296
966.99553
963.52266
960.75522
959.77602
961.0958
961.81941
951.91629
943.67268
943.03733
942.76135
937.0971
931.75224
921.14252
919.13449
919.43025
923.59475
932.57019
930.17515
927.00065
925.51323
925.99336
926.28329
926.56031
927.13597
927.94405
927.91094
927.80557
969.36196
969.60794
969.1751
967.43595
963.32404
960.23424
959.24261
959.45006
959.54993
950.29853
943.62872
943.50004
942.75289
934.73043
930.62553
921.05624
916.84525
917.72245
923.76223
932.02126
929.71598
926.63137
925.15294
925.78221
926.17747
926.40531
927.00473
927.31576
927.84965
927.94629
969.52597
969.77181
969.43602
968.00894
963.02467
959.22688
957.67435
956.69297
956.74541
949.92672
946.77181
944.22712
940.6948
935.56687
924.14969
921.59642
922.00539
922.40523
923.85271
930.5639
927.49007
924.49693
923.94555
925.4619
926.30219
926.41321
926.87343
926.7698
928.2743
927.87532
969.08182
968.98609
968.74825
968.52361
963.24187
958.35181
956.63751
955.02679
952.85223
949.64967
948.36236
945.87681
945.93611
937.74847
917.2817
917.7689
915.83853
917.53244
923.60591
923.06824
922.76889
922.81874
923.35357
923.55844
923.9298
924.83133
925.19041
925.89973
926.15851
926.04767
970.42687
969.94438
969.03031
969.00173
967.27542
963.305
962.05982
962.93015
954.14872
940.75779
937.65294
937.12816
935.51748
915.14338
916.57367
916.92193
914.21062
922.31664
930.62352
933.96027
935.25961
934.56332
933.11977
932.86423
931.17815
929.00669
931.13715
931.53945
930.8845
929.39457
969.70174
969.49197
969.48637
968.78834
967.73204
962.40681
960.19909
960.84093
952.45683
941.27019
940.25164
939.17833
936.51444
914.52975
917.88526
917.10607
910.37437
915.43782
923.36726
928.5774
930.57404
928.89417
927.40801
929.01807
927.86757
925.90426
927.16025
928.13158
928.522
928.33111
969.72994
969.74815
969.78432
969.11184
967.71247
961.40388
958.45076
958.50116
952.7518
941.47847
944.5988
940.4303
937.82072
916.42196
916.05051
915.94251
911.86217
915.39852
924.60398
928.21508
930.17228
928.0517
926.86478
926.41151
925.99642
925.39792
926.82851
927.30155
927.95011
928.1678
969.76546
969.83556
969.95216
969.25491
968.03683
961.33162
957.82794
955.74652
953.62586
948.26903
947.3229
944.5883
944.12571
917.141
915.28357
915.06065
914.99954
919.05172
923.951
924.62413
929.14212
928.65781
927.42104
926.31082
925.22068
925.12874
926.53669
927.37219
928.21869
928.12528
969.35035
969.2469
969.2128
969.09771
968.19738
961.86456
959.1765
957.29863
955.17752
945.02698
943.65932
944.48878
944.42129
913.86699
909.20928
910.96625
912.64257
917.72335
917.06339
918.88017
924.98056
925.16633
924.46831
925.19027
924.42054
924.92861
926.14069
926.82005
927.25568
927.39423
970.83926
970.17293
969.21343
968.54122
966.76666
963.97381
963.61045
953.16388
946.34597
943.56466
931.3455
935.86487
929.11845
916.60667
924.04395
929.8064
930.75583
929.78779
927.94908
926.72844
927.76357
929.44234
927.6761
927.37823
926.91153
926.20024
969.82905
969.42941
969.17006
968.85456
966.40449
962.88157
962.21837
953.48318
946.9293
944.40397
931.64155
935.86618
928.93358
911.03981
920.85567
924.09567
928.86297
927.94617
927.15963
926.44743
925.86211
927.26115
926.31462
926.9177
927.20065
927.07087
969.84615
969.51042
969.86644
969.53225
966.12122
961.85351
958.96647
954.41773
954.58966
947.02184
932.07713
928.9688
923.81553
905.10269
921.54586
925.23648
928.79472
928.0121
927.43632
926.26667
925.52682
925.12722
926.11283
926.93799
927.7414
927.11505
969.86866
969.78084
969.95946
969.49734
965.54785
958.76641
957.34495
955.20742
956.06333
950.65271
941.6897
934.07322
926.74288
909.35665
925.41154
926.19567
928.62597
927.95586
927.58017
927.25356
925.38895
924.5565
926.07742
927.066
927.68696
927.16882
969.59126
969.49099
969.4938
969.27312
966.67496
963.5778
962.06428
959.57588
956.49914
940.51952
937.31677
935.71702
929.521
915.09294
923.19262
924.90093
926.74908
925.83539
925.25504
925.08711
924.55316
924.40332
926.12534
926.533
926.77303
926.53416
971.56346
971.43655
970.65423
970.22334
968.02321
967.02817
964.56337
954.41986
951.36023
937.56569
938.40717
940.76093
928.3027
917.38781
921.58127
926.52175
928.97429
929.33386
928.31399
927.05569
927.1707
926.83777
926.48718
927.58792
927.10021
926.65061
970.29859
969.99364
969.62401
969.2494
968.59006
966.5492
964.54964
952.31786
950.81285
935.73456
935.33873
937.48634
927.71918
913.18298
920.84251
922.82175
925.62095
927.31025
926.60805
926.16358
925.69125
925.50957
925.86524
927.08535
927.44728
927.37291
970.40801
970.09497
969.82595
969.37839
969.00067
967.5095
964.11656
957.22618
953.76281
935.89097
934.11249
934.9029
924.85287
912.60768
920.83198
925.60697
925.92841
927.27933
926.86033
926.21515
925.57597
925.11654
925.87075
926.97314
927.60878
927.3744
970.53831
970.32935
970.22923
969.40502
968.1865
963.85219
963.95846
959.17696
957.77496
934.69184
930.95861
930.42756
923.20397
916.78767
925.74192
926.30175
926.18721
927.2814
927.03575
926.82871
925.57166
924.88442
925.91331
927.103
927.62657
927.40967
970.36689
970.23469
970.08683
969.1444
965.83161
964.84306
964.06746
960.61851
957.54122
939.51914
935.80969
934.48449
928.35118
917.86049
923.59652
924.62129
924.83757
925.84972
925.33982
924.59727
924.56046
924.50031
925.80658
926.16828
926.44338
926.2458
968.77569
968.97896
968.45496
969.45366
969.95043
970.38988
969.49803
967.60576
950.75259
945.27188
942.20698
935.86067
928.43939
921.57684
920.31995
920.65611
921.40177
924.36875
928.14707
928.87741
930.30238
929.84967
928.27585
928.33845
928.37341
927.99239
927.73394
927.2104
926.519
926.47065
968.5377
968.66939
968.91161
968.5855
968.96109
968.94683
968.09516
965.16641
946.85966
939.05021
936.49212
931.04166
924.72378
919.76495
919.89656
922.65035
922.85365
922.75233
927.80051
928.27293
928.74414
928.57339
926.99027
926.56443
926.25504
926.08988
926.06389
926.26768
926.87136
926.82121
968.56886
969.31161
969.12811
968.81876
969.17484
969.00315
967.91726
964.60861
950.33818
939.05458
934.67788
929.99878
924.1102
920.72577
920.79375
924.54044
924.02211
921.62105
928.02624
927.93682
927.92224
928.03863
926.83159
926.32584
926.08984
925.89598
925.6734
926.10428
926.97412
927.08179
968.75135
969.30298
969.02524
968.54666
968.97147
968.78939
967.87369
964.47785
955.45799
938.48896
934.3051
930.35674
926.36276
924.91886
924.98978
925.65431
924.97519
923.95205
926.80052
927.48422
927.27256
927.70322
926.91851
926.52531
926.22001
925.54557
925.36892
926.03372
927.3469
927.60224
968.95346
969.06323
968.89841
967.92137
968.00796
967.35681
966.28915
962.51033
956.50892
942.50434
936.6748
933.22508
928.04854
925.48204
924.82822
926.44744
926.37353
923.96659
925.11604
924.48897
925.33817
925.90106
926.01116
924.45716
925.65566
924.8489
925.00488
925.78032
926.07554
926.45506
967.12166
967.2592
966.80123
967.83097
967.86057
969.3094
970.47664
971.03928
960.68563
953.2843
948.37155
943.23205
937.22756
939.0876
933.72546
928.62776
927.22714
928.07667
932.94306
932.49043
934.43488
932.94362
930.8236
930.62896
930.82197
930.38078
930.52891
930.22422
930.00756
929.4239
967.28908
967.39004
966.80039
966.6223
968.0028
968.23335
968.7118
968.72868
958.27428
948.18449
942.79975
936.57138
930.75072
935.51598
928.50181
925.6984
926.11351
927.97479
934.23241
931.97001
932.74088
931.36858
928.85976
928.4627
928.16341
927.78829
927.84564
928.12385
928.05672
927.96125
967.23137
968.27237
966.73455
966.34394
968.24102
968.40457
968.55713
967.80968
958.64806
948.34074
943.34554
935.55384
929.22946
931.04584
927.85622
925.93906
933.44627
928.75083
934.54112
931.78411
930.59567
930.54214
928.2103
927.18861
927.03519
926.7812
927.49992
927.73913
927.61229
927.82911
967.18221
967.68523
966.04159
965.68043
967.08011
966.59293
966.37993
963.48004
958.20647
948.73141
944.92452
940.51478
933.90896
929.64776
928.18059
926.71787
930.05145
929.37073
934.16069
929.76942
929.01471
930.41344
928.63752
928.31866
927.12013
926.10517
926.4391
927.17078
927.37122
927.79027
965.97628
965.85988
965.66851
965.18398
964.77407
963.3801
961.53545
959.13342
956.01537
949.06429
944.32791
936.45972
933.66343
928.83035
927.34086
932.46821
935.25897
933.44909
934.00376
928.43431
925.61421
928.15244
927.16808
927.30085
926.60257
925.81681
925.55428
926.16931
926.48054
926.67473
964.75803
965.05037
965.12734
965.93026
966.31881
967.58266
968.17636
963.04214
960.14676
954.12404
949.92643
945.41761
941.66304
940.62268
943.77746
947.04653
945.88853
938.13964
935.8038
935.90714
933.87555
932.74279
931.32556
929.85096
930.97436
928.72548
930.22897
930.47767
931.16705
931.28558
965.48521
965.59645
965.17552
965.16686
965.58073
966.14449
966.49286
963.84307
958.42889
951.4632
947.51843
941.96932
938.37288
937.29275
939.73951
941.35666
940.62935
932.55259
934.52589
934.14995
931.52682
930.30706
929.24426
928.71895
928.80253
927.16908
927.39179
928.05018
928.74155
929.19557
965.48975
965.80089
965.06393
964.96926
965.81292
966.26792
965.80543
964.93699
959.67245
953.45239
950.51513
941.44666
937.08193
935.8409
937.17305
942.27539
941.79081
934.90996
938.12579
935.67065
931.36977
930.28758
929.2481
928.44967
928.34943
926.67478
927.12554
927.59681
928.50085
928.94702
965.43154
966.38999
964.95962
964.7703
965.53353
966.04535
965.14626
963.68954
958.85899
953.90468
951.73358
942.5613
939.9256
936.39259
935.92262
940.33022
942.62355
937.77525
938.33934
933.95765
931.32202
930.37161
929.947
929.69148
927.99384
926.59126
926.87219
928.12573
928.49391
928.81295
964.81202
965.01994
964.73151
964.22388
963.75608
963.24261
962.30798
960.2556
956.33777
951.8654
947.75359
938.69682
934.39985
933.61983
935.46132
938.47783
941.54598
936.76451
937.02631
933.28313
931.72643
930.3768
928.89645
927.87574
926.94519
926.13077
926.76705
927.31593
927.42567
927.90504
966.09904
965.81823
965.06018
968.96485
965.64886
968.67945
970.08107
963.92027
959.7459
956.15085
952.84317
948.63723
944.6029
943.76501
945.5283
949.461
945.16059
944.56258
942.69244
938.17259
934.87786
933.4239
931.67204
930.84763
931.31527
928.6428
928.86464
928.03931
929.76149
930.9118
965.11074
964.92991
964.87621
965.57306
965.45827
966.50995
967.89117
961.50061
958.73733
957.64705
952.84918
946.50615
941.47576
939.44675
941.14483
943.94364
940.23215
940.05195
939.093
935.1441
932.1784
931.05437
930.59086
930.2863
929.94863
927.51718
927.72338
928.33323
928.55977
929.2261
965.05604
965.06561
964.59212
964.49155
965.29399
966.56583
967.45149
962.37907
961.13271
959.78072
953.41558
945.37525
938.95314
936.76705
941.39015
944.82183
937.05415
937.71968
938.84565
935.49841
932.32513
931.51443
930.60139
930.03871
929.3705
927.50918
927.64354
928.46554
929.08362
929.27178
965.01438
965.23095
964.61223
964.3695
964.28049
964.98469
965.23909
962.27838
961.72032
959.94177
951.82958
944.93304
937.07964
935.15169
937.25018
939.48389
935.48233
938.16641
938.60876
935.23678
933.35325
931.97484
930.52936
929.59483
928.52959
926.91724
928.22094
929.36723
929.24466
929.32408
964.68754
964.7623
964.50597
964.23019
963.48047
962.68716
961.55721
959.28523
956.24792
953.57386
950.91409
943.30673
934.58241
933.70616
934.58791
934.6379
934.22034
935.3007
936.4042
933.67449
932.2099
930.85629
929.64794
928.50039
927.42117
926.63068
927.16144
927.64488
927.57956
928.05956
)
;

boundaryField
{
    minX
    {
        type            zeroGradient;
    }
    maxX
    {
        type            zeroGradient;
    }
    minY
    {
        type            fixedValue;
        value           uniform 1073;
    }
    minZ
    {
        type            zeroGradient;
    }
    maxZ
    {
        type            zeroGradient;
    }
    bottomWater_to_rightSolid
    {
        type            compressible::turbulentTemperatureCoupledBaffleMixed;
        refValue        nonuniform List<scalar> 
130
(
753.34418
761.31244
769.61799
777.85414
785.70064
792.93148
799.39535
805.00404
809.75461
813.59196
816.48763
818.42405
819.39567
747.33124
756.66547
766.17307
775.37406
783.95402
791.72053
798.56961
804.46511
809.39556
813.34517
816.30987
818.28649
819.27297
735.47231
747.92117
759.97291
771.09424
781.05306
789.78412
797.29674
803.63556
808.85117
812.98167
816.05816
818.09834
819.11497
718.00384
736.26443
752.39993
766.24324
777.95799
787.8141
796.05131
802.84924
808.35605
812.67251
815.86107
817.96557
819.01223
697.49867
725.35609
746.30071
762.6934
775.84048
786.53375
795.27076
802.37394
808.06497
812.49489
815.74846
817.88773
818.94869
697.70522
725.54108
746.45639
762.81724
775.94515
786.61904
795.3359
802.42333
808.09782
812.51139
815.7536
817.88604
818.94404
718.62448
736.8303
752.88259
766.63185
778.2794
788.07855
796.25637
803.00735
808.46174
812.73077
815.88593
817.96922
819.00693
736.35377
748.7295
760.67994
771.69676
781.57229
790.21813
797.65092
803.90967
809.04523
813.10744
816.13227
818.13932
819.14173
748.19463
757.48622
766.91924
776.03853
784.53582
792.22232
798.99785
804.81365
809.65512
813.5273
816.42992
818.36434
819.33393
754.02671
761.9924
770.26362
778.44781
786.23583
793.40809
799.81971
805.38265
810.05038
813.80659
816.63469
818.52464
819.47357
)
;
        refGradient     uniform 0;
        valueFraction   uniform 0.99248593;
        value           nonuniform List<scalar> 
130
(
754.78424
762.68244
770.90396
779.06531
786.83998
794.00504
800.40377
805.9038
810.6235
814.43733
817.31706
819.24005
820.20954
748.69604
757.97465
767.41051
776.53647
785.0494
792.75126
799.52966
805.36708
810.26599
814.19012
817.13821
819.10353
820.0794
736.84031
749.24126
761.1983
772.23388
782.11827
790.7878
798.24549
804.53946
809.72264
813.82482
816.88355
818.91035
819.9185
719.50452
737.62294
753.65092
767.43608
779.06415
788.84095
797.02168
803.76276
809.23198
813.52514
816.69484
818.7868
819.82664
699.13375
726.84265
747.64274
763.92611
776.96756
787.57612
796.24623
803.29202
808.93914
813.34873
816.58092
818.70591
819.7571
699.3595
727.02927
747.79514
764.03468
777.07155
787.6614
796.30719
803.34109
808.97248
813.3627
816.58328
818.70176
819.75033
720.16747
738.24513
754.17204
767.82436
779.38861
789.115
797.21971
803.92895
809.3363
813.57441
816.71169
818.78154
819.81432
737.8347
750.1218
761.94055
772.85327
782.67369
791.2472
798.62512
804.8316
809.92266
813.95238
816.95909
818.9534
819.94974
749.61161
758.83537
768.16934
777.20842
785.6317
793.24932
799.96626
805.73136
810.53033
814.3782
817.26313
819.18384
820.14973
755.38874
763.30291
771.49146
779.60315
787.32247
794.43177
800.78661
806.29969
810.92639
814.65835
817.46884
819.34411
820.2895
)
;
        Tnbr            T;
        thicknessLayers List<scalar> 0();
        kappaLayers     List<scalar> 0();
        kappaMethod     fluidThermo;
        kappa           none;
        alphaAni        none;
        alpha           none;
        field           T;
    }
    bottomWater_to_leftSolid
    {
        type            compressible::turbulentTemperatureCoupledBaffleMixed;
        refValue        nonuniform List<scalar> 
130
(
916.45438
916.41863
916.34049
916.21834
916.05281
915.85264
915.63419
915.39976
915.14868
914.89336
914.6715
914.50554
914.40936
916.48223
916.44455
916.36091
916.22458
916.03082
915.79907
915.54723
915.27335
914.97951
914.69386
914.46078
914.29148
914.18969
916.53735
916.49663
916.40471
916.25108
916.02163
915.74469
915.44687
915.1285
914.79609
914.47378
914.21145
914.02302
913.92446
916.60405
916.56237
916.46894
916.31327
916.08566
915.7856
915.4526
915.09156
914.70719
914.31179
914.0077
913.80261
913.69148
916.66926
916.62792
916.53518
916.37997
916.15232
915.86138
915.5209
915.1284
914.69097
914.21858
913.85132
913.59599
913.44216
916.71618
916.6767
916.5875
916.43774
916.22207
915.95102
915.61839
915.21671
914.76143
914.25742
913.8604
913.58269
913.41606
916.71137
916.67747
916.59907
916.46808
916.28329
916.03591
915.72044
915.3319
914.88674
914.40785
914.01083
913.72372
913.55804
916.66628
916.63701
916.56942
916.45591
916.28964
916.06138
915.76924
915.41823
915.02802
914.62363
914.26502
913.97964
913.82351
916.63145
916.60744
916.54831
916.44813
916.3012
916.1015
915.84478
915.53384
915.18667
914.83558
914.51237
914.23758
914.07838
916.61507
916.59292
916.53852
916.4465
916.31102
916.12813
915.89345
915.60864
915.29278
914.97767
914.68309
914.42279
914.25261
)
;
        refGradient     uniform 0;
        valueFraction   uniform 0.99248593;
        value           nonuniform List<scalar> 
130
(
916.8502
916.81193
916.72979
916.60557
916.43721
916.23076
916.01732
915.79226
915.54415
915.27389
915.04061
914.8644
914.75352
916.87518
916.8363
916.75163
916.61405
916.40409
916.15701
915.90361
915.62345
915.30757
915.00012
914.76585
914.59724
914.47004
916.93219
916.89105
916.79804
916.64387
916.37644
916.06489
915.75642
915.42833
915.08205
914.73805
914.46802
914.26238
914.16505
917.00039
916.95825
916.86527
916.7099
916.47724
916.13187
915.78116
915.40871
915.01131
914.5425
914.23052
914.03326
913.9225
917.06692
917.02515
916.93312
916.77742
916.53197
916.21997
915.87068
915.46243
915.0051
914.41613
914.02756
913.76218
913.56301
917.11933
917.07915
916.98951
916.83376
916.59488
916.31846
915.98249
915.55788
915.08294
914.44722
914.02529
913.73975
913.52836
917.10393
917.07111
916.99205
916.85472
916.67198
916.42158
916.10045
915.68641
915.19958
914.61896
914.18111
913.87027
913.667
917.0368
917.00687
916.93834
916.82208
916.65398
916.41695
916.1131
915.74659
915.33588
914.88235
914.49084
914.14854
913.97264
916.99348
916.97122
916.91037
916.80714
916.65781
916.45575
916.1939
915.86982
915.49581
915.11377
914.76212
914.42144
914.23115
916.97629
916.95487
916.89895
916.80555
916.66547
916.47804
916.23663
915.93685
915.60046
915.26765
914.95532
914.63994
914.40543
)
;
        Tnbr            T;
        thicknessLayers List<scalar> 0();
        kappaLayers     List<scalar> 0();
        kappaMethod     fluidThermo;
        kappa           none;
        alphaAni        none;
        alpha           none;
        field           T;
    }
    bottomWater_to_heater
    {
        type            compressible::turbulentTemperatureCoupledBaffleMixed;
        refValue        nonuniform List<scalar> 
92
(
734.32006
736.35384
740.38486
746.19885
724.77568
727.15183
731.9294
738.84164
704.83385
707.93522
714.30711
723.73136
345.55341
342.86699
342.91202
345.61662
422.38886
419.11956
419.35529
422.88406
488.1561
485.44612
486.18453
489.87693
544.16706
542.55019
544.50212
548.98397
672.63241
590.51914
676.61139
590.80215
685.21047
595.47516
699.08796
603.07797
345.55341
345.61662
422.38886
422.88406
488.1561
489.87693
544.16706
548.98397
590.51914
603.07797
345.57537
345.57537
342.88752
342.9365
345.65307
345.65307
422.42741
422.42741
419.15726
419.40855
422.9679
422.9679
488.2172
488.2172
485.50898
486.26847
490.00665
490.00665
544.23903
544.23903
542.64271
544.61291
549.134
549.134
590.63636
590.63636
590.93603
595.61868
603.23581
603.23581
673.27749
677.29135
685.90458
699.76426
705.5454
708.75173
715.19601
724.64852
725.38756
727.88548
732.76782
739.72236
734.78521
736.91125
741.03328
746.87308
)
;
        refGradient     uniform 0;
        valueFraction   nonuniform List<scalar> 
92
(
0.99248593
0.99248593
0.99248593
0.99248593
0.99248593
0.99248593
0.99248593
0.99248593
0.99248593
0.99248593
0.99248593
0.99248593
0.99248593
0.99248593
0.99248593
0.99248593
0.99248593
0.99248593
0.99248593
0.99248593
0.99248593
0.99248593
0.99248593
0.99248593
0.99248593
0.99248593
0.99248593
0.99248593
0.99248593
0.99248593
0.99248593
0.99248593
0.99248593
0.99248593
0.99248593
0.99248593
0.99248593
0.99248593
0.99248593
0.99248593
0.99248593
0.99248593
0.99248593
0.99248593
0.99248593
0.99248593
0.99248593
0.99248593
0.99248593
0.99248593
0.99248593
0.99248593
0.99248593
0.99248593
0.99248593
0.99248593
0.99248593
0.99248593
0.99248593
0.99248593
0.99248593
0.99248593
0.99248593
0.99248593
0.99248593
0.99248593
0.99248593
0.99248593
0.99248593
0.99248593
0.99248593
0.99248593
0.99248593
0.99248593
0.99248593
0.99248593
0.99248593
0.99248593
0.99248593
0.99248593
0.99248593
0.99248593
0.99248593
0.99248593
0.99248593
0.99248593
0.99248593
0.99248593
0.99248593
0.99248593
0.99248593
0.99248593
)
;
        value           nonuniform List<scalar> 
92
(
736.00003
737.96226
741.90185
747.69231
726.47333
728.71939
733.41151
740.27582
706.58379
709.5084
715.83603
725.175
349.83327
347.17781
347.22514
349.88898
426.08679
422.8674
423.09544
426.54707
491.37404
488.68181
489.41381
493.04782
546.96944
545.35082
547.28655
551.73424
674.44513
592.94887
678.35912
593.19466
686.90681
597.84578
700.69261
605.40406
349.93837
349.9071
426.19506
426.55211
491.42969
492.99704
547.04179
551.69173
593.06646
605.42253
349.95411
349.90344
347.22643
347.27757
349.94912
349.97933
426.22424
426.16452
422.9198
423.18991
426.65139
426.72409
491.49814
491.46719
488.77975
489.56172
493.18211
493.2679
547.08669
547.09952
545.51576
547.47614
551.89658
551.95812
593.17405
593.15254
593.44502
598.10462
605.59994
605.66393
675.17269
679.15146
687.71211
701.46705
707.22326
710.39429
716.82861
726.23108
726.95231
729.44523
734.31354
741.23892
736.27995
738.39662
742.48811
748.28078
)
;
        Tnbr            T;
        thicknessLayers List<scalar> 0();
        kappaLayers     List<scalar> 0();
        kappaMethod     fluidThermo;
        kappa           none;
        alphaAni        none;
        alpha           none;
        field           T;
    }
}


// ************************************************************************* //
