/*--------------------------------*- C++ -*----------------------------------*\
| =========                 |                                                 |
| \\      /  F ield         | OpenFOAM: The Open Source CFD Toolbox           |
|  \\    /   O peration     | Version:  v2012                                 |
|   \\  /    A nd           | Website:  www.openfoam.com                      |
|    \\/     M anipulation  |                                                 |
\*---------------------------------------------------------------------------*/
FoamFile
{
    version     2.0;
    format      ascii;
    class       volVectorField;
    location    "560/bottomWater";
    object      U;
}
// * * * * * * * * * * * * * * * * * * * * * * * * * * * * * * * * * * * * * //

dimensions      [0 1 -1 0 0 0 0];


internalField   nonuniform List<vector> 
1460
(
(0.0001257182 -0.015932278 -0.0014991959)
(-0.0022356131 -0.016896958 -0.0020477176)
(0.00021566176 -0.013201457 -0.0027248492)
(0.0006365088 -0.014005232 -0.0018313862)
(-0.00039189511 -0.019125517 -0.0024776179)
(0.0014472822 -0.016166719 -0.0022117175)
(0.0004619706 -0.016108014 -0.0038126401)
(0.0021550848 -0.016861652 -0.0035033114)
(0.0014206285 -0.015612491 -0.0023930518)
(0.00070956047 -0.016870668 -0.0020255754)
(-0.00027651151 -0.016517184 -0.0016416762)
(-0.0011291327 -0.015617297 -0.0015515318)
(-0.00049599087 -0.011226226 0.0012762418)
(0.0001010868 -0.011923829 0.00041391923)
(0.001849328 -0.012033259 0.00090345069)
(0.0039431618 -0.012573101 -0.00031777735)
(0.0052728138 -0.014959722 -0.00032898906)
(0.0049511959 -0.014695864 -0.00028244932)
(0.0027119814 -0.015813169 -0.00014300367)
(0.0021013902 -0.016653524 0.0005185495)
(-0.0018917491 -0.013062507 0.00069156279)
(-0.0016141573 -0.011734408 0.00067288328)
(0.0012581201 -0.013862698 -0.0002247989)
(0.0020861511 -0.014684765 -2.0769277e-05)
(0.0011722406 -0.016088033 -0.00042855899)
(0.00047250566 -0.013768167 0.00081090451)
(0.0025609147 -0.012299637 0.001585789)
(0.0034141153 -0.015563504 0.0012812546)
(0.0021931029 -0.015831727 0.0004145953)
(0.00046976504 -0.016337715 0.00034043684)
(-0.0043198265 0.018164487 -0.0013362052)
(-0.004206359 0.01821674 -0.0021229617)
(-0.0024069277 0.011253758 -0.0024715734)
(0.0030541647 0.016584335 -0.0047037833)
(5.9098307e-05 0.020124699 -0.0058193362)
(-0.0020582839 0.017929252 -0.0053071214)
(-0.00023137671 0.01710054 -0.0059043223)
(0.0025922139 0.016990945 -0.0037807468)
(0.0043621945 0.017685045 -0.0029600059)
(0.00016890083 0.018602585 -0.0020730872)
(-0.0050165521 0.018269218 -0.0025415663)
(-0.0052783145 0.015882643 -0.002375634)
(-0.00090030181 0.0043502608 -0.00017167354)
(-0.00088514942 0.0049280978 0.0011930892)
(0.0017021842 0.0028608893 0.00032216398)
(0.0044508882 0.0059101303 -0.0003277718)
(0.0071674093 0.012194461 -0.00063381959)
(0.0081885659 0.016204961 -0.00080922928)
(0.005863965 0.017592757 -0.0004182465)
(-0.001732145 0.018202084 0.0006821143)
(-0.0061923376 0.014291258 0.00048939764)
(-0.00096108461 0.0028351154 0.00023105814)
(0.00025129662 0.0074169416 -0.00032989419)
(0.0036773754 0.012337456 -0.00048854087)
(0.0020528081 0.016503737 -0.00011085782)
(0.0033828095 0.0081084543 0.0015500586)
(0.0032964195 0.0025083711 0.0011650929)
(0.0071586715 0.013106423 -0.00077379676)
(0.0064004954 0.017373143 -0.0018021203)
(0.0029182162 0.017840558 -0.0016541967)
(-0.0026484196 0.0036598408 0.00017515147)
(0.0039250138 -0.015600071 0.0037197816)
(-0.0043433036 -0.01466569 0.0012015228)
(-0.0020687081 -0.0020291959 -0.0031145925)
(-0.00076614693 0.00465482 -0.0034056805)
(0.0012492632 4.8935752e-05 -0.0019315296)
(0.0039640175 -0.012617756 0.0022428182)
(-0.00011537619 -0.018299346 0.0046336903)
(-0.00056413424 -0.0043054693 0.00040684346)
(0.000866809 0.0039159309 0.00057161781)
(0.00060391979 0.0011866593 -0.0013889876)
(0.005662533 -0.011815849 0.00073845693)
(0.0035053713 -0.014941892 -0.0015926639)
(0.00094936684 -0.0134625 -0.0013538552)
(0.0015765202 -0.013838459 -0.0010150219)
(0.0023288627 -0.013455194 0.0015649963)
(-0.00066980164 -0.015963825 0.0017954319)
(0.0017450107 -0.0035553874 0.00038429317)
(0.003701257 0.0029966052 0.0001177012)
(0.0023581881 0.0033897912 0.00059108414)
(0.0055021644 -0.0090254284 0.0002471924)
(0.0045999545 -0.014072811 -0.00040120004)
(-0.0019336835 -0.014852697 -0.00072137092)
(-0.00027336588 -0.01370453 0.0008100503)
(0.0029749437 -0.013495361 0.0018461744)
(0.0057016145 -0.015254289 0.00048090584)
(-0.00083641635 -0.016110702 -0.0022492512)
(-0.0039734329 -0.015663534 -0.0025303576)
(0.0005177487 0.00015498657 -0.0014307777)
(-0.0008634222 0.003834821 -0.00067893002)
(0.0013577052 0.0080803033 0.001104343)
(0.0022048193 0.011677236 0.0013031394)
(-0.0072278463 0.010445696 0.00020810501)
(-0.0059601525 0.0082969629 -0.00059818262)
(-0.0019394168 0.0090990891 -0.00098925238)
(0.0038130953 0.0055679717 0.0011745042)
(0.0056592519 0.010530277 0.0010828961)
(-0.00065921189 0.012398709 0.0010245588)
(-0.0033490275 0.0087895766 0.0023949429)
(0.0013647985 0.0091589004 0.00084513598)
(0.0040952838 0.0081899387 0.0015453541)
(0.0059106048 0.010898768 0.00067319432)
(0.0024805182 0.010255953 0.0011803955)
(0.0030154886 0.0017359203 -0.00075790767)
(0.0025925705 -0.0034869385 -0.0004148061)
(0.002384217 -0.00040595122 -0.00045323261)
(0.0004706879 0.0095015399 -0.00090017952)
(-0.0026179022 0.0075145687 0.00068379228)
(0.0014146813 0.0088885203 5.402389e-05)
(0.0040190203 0.0081542208 0.00050619477)
(0.0066201214 0.0095229371 0.00039325126)
(0.0043685083 0.010376457 -0.00021339534)
(0.00130268 0.010335865 -0.0014186512)
(0.0024967343 3.4104278e-05 0.00012531684)
(0.00053540227 0.00087603177 4.3754768e-05)
(0.0014074462 0.010928657 -0.0011441506)
(-0.00077974005 0.010297728 -0.0023313937)
(-0.0047039899 0.010372653 0.001183497)
(-0.0036806889 0.0072349248 0.0010658393)
(-0.00094307772 0.0093578996 0.00077073293)
(0.00063039434 0.00046386908 0.00205064)
(0.0027049808 -0.0028286604 0.0027246974)
(0.0025616546 -0.004018178 0.0026084662)
(0.0020688765 -0.005003475 0.0023859523)
(0.001987037 -0.0065784001 0.003342835)
(-0.0017028708 -0.0085045601 0.0012485538)
(-0.0026043563 -0.0051408482 0.0018374334)
(-0.00059439006 -0.0041896655 0.0023213156)
(-0.00054691617 -0.0069350689 -0.00012106919)
(0.0012405352 -0.0013185326 0.00050322751)
(0.0039879415 -0.0041829903 -0.00019931699)
(0.0050896172 -0.0079707153 -0.0011987551)
(0.006671608 -0.0099694964 -0.0020631593)
(0.00700066 -0.010201232 -0.0026643331)
(0.0026579385 -0.010345743 -0.0016294083)
(-0.004657657 -0.0078003108 -0.001099456)
(-0.0034159208 -0.0046121199 3.8621322e-05)
(-0.0029922222 -0.0023325111 0.00023243084)
(0.00029139889 0.00070606333 0.00016572214)
(0.0030924621 -0.00093192226 0.00040090504)
(0.0048423713 -0.0041996907 0.00038289214)
(0.0057158945 -0.0048306432 0.00054207632)
(0.0064041934 -0.0076898097 0.00080112334)
(0.0054396705 -0.010054334 0.00093791315)
(-0.0047655336 -0.0093147844 0.00091844884)
(-0.0039448181 -0.0062219339 0.00040821523)
(-0.0025549288 -0.0037651754 0.00048418501)
(-0.0013114706 -0.0067382116 0.00021243977)
(-0.0012274088 -0.0053375516 0.00089971389)
(-0.0018966521 0.0011159645 0.0017269559)
(-0.0015035373 -0.015456516 -0.0021515865)
(-0.0034136308 -0.013676356 -0.0019218993)
(-0.00036130532 -0.012177418 -0.0018329246)
(0.0011097823 -0.013814227 -0.0042029776)
(-0.0011480904 -0.017964588 -0.004073733)
(-0.0011630416 -0.014272157 -0.0043205001)
(-0.00057020578 -0.012766275 -0.0015702229)
(0.0033020937 -0.01214473 0.00011888708)
(0.0039096092 -0.014266216 -0.0010377891)
(0.0015756667 -0.016932231 -0.0014550234)
(-0.001436956 -0.01876344 -0.0007767266)
(0.00054196946 -0.011535724 -0.00070345004)
(0.0015039321 -0.016974556 0.001914877)
(-0.0010741162 -0.019022368 0.0020093712)
(-0.001175374 -0.012663747 0.00081101696)
(0.0016857269 -0.013324572 7.3774681e-05)
(0.0049876585 -0.013092321 0.00029048108)
(0.0049041302 -0.014379369 -0.00057606491)
(0.0027256908 -0.015715048 -0.00067179339)
(0.0016205381 -0.016342385 0.00039024451)
(-0.0020845393 -0.013138694 0.0012344192)
(-0.0022451944 -0.011338453 0.0014156663)
(-0.00014614091 -0.012409832 0.00014277648)
(0.001617259 -0.01246751 0.00075998913)
(0.0026206922 -0.012399621 0.0010668744)
(0.0032023585 -0.015002088 0.0015984348)
(0.0032059498 -0.016252905 0.0013494181)
(0.0010941141 -0.018921915 0.0009495382)
(0.0013977878 -0.01475295 -0.0018443757)
(0.0013051349 -0.016249619 -0.0016899787)
(-0.0053530623 0.017016743 -0.00012841528)
(-0.0036508637 0.0099102569 0.00091414902)
(-0.0027935956 9.4329723e-05 -0.00027451109)
(0.0034997032 0.014559754 -0.0062608466)
(-0.00086639464 0.01814673 -0.0072451027)
(-0.003604992 0.014563472 -0.006338319)
(0.0019727737 -0.00032120273 0.00041403071)
(0.0012608557 -0.00084918276 0.0025915151)
(0.0072685436 0.014476887 0.0015135828)
(0.0010544398 0.019173751 -0.00095867337)
(-0.0056680267 0.018275522 -0.0025015843)
(-0.0018382362 0.0027752476 -0.0024876878)
(0.0020714222 0.018360832 0.004636711)
(-0.0033134484 0.018981146 0.0041010937)
(-0.0036521194 0.0075601078 0.0014571209)
(0.0013055877 -6.1294218e-06 0.0010400405)
(0.0037633567 0.0058807782 -0.00011237784)
(0.0072553338 0.015508411 -0.0011971738)
(0.0053685796 0.017710805 -0.0010456216)
(-0.0029905454 0.018102507 0.00069126449)
(-0.0060638318 0.014473206 0.00072268853)
(-0.0019066534 0.0039316352 0.00015363999)
(-0.00030039201 0.0034294906 0.00058553375)
(0.0027129994 0.0039228014 0.0014145559)
(0.0046106577 0.0044002627 0.0028076506)
(0.0066395092 0.0103703 0.0039552371)
(0.0053770754 0.016315729 0.0051408746)
(-0.0011133819 0.019452298 0.0012229014)
(0.0023760883 0.012124283 -0.0012981713)
(0.0029818789 0.017407034 -0.0013217488)
(-0.002846953 0.0016717097 0.00084149497)
(0.0060089805 -0.014592696 0.003740922)
(-0.0035755183 -0.015775532 0.0028850646)
(-0.0041453744 -0.013905528 0.0020392351)
(0.00045314672 -0.0079400473 0.0012845594)
(0.0053309498 -0.014239265 0.0028932573)
(0.0047324903 -0.015688133 0.0035082504)
(-0.0027568302 -0.016018411 0.0035395961)
(-0.0025808218 -0.013001181 0.0019821774)
(-0.00088449294 0.0064394052 -0.00084726688)
(0.0027654776 -0.011199276 -0.0015833473)
(-3.2253065e-05 -0.016268727 -0.0028995949)
(-0.0041288065 -0.010673203 -0.0022057698)
(-0.0009242576 -0.0047314759 0.00033334326)
(0.0024135433 -0.013411984 0.00051807343)
(0.0017078705 -0.015572995 0.0016683649)
(-0.0051397101 -0.015137872 -0.0019901992)
(-0.0015905482 -0.0082339598 -0.0021430356)
(0.0024096999 0.0048207292 -0.00051200488)
(0.00042053307 0.0038110971 0.00016587424)
(0.005203983 -0.011163968 -0.00098003346)
(0.0035612356 -0.014073741 -0.0029466752)
(0.0009616618 -0.012996675 -0.00089389441)
(0.001167002 -0.01360976 0.0019022708)
(0.0035132664 -0.014094994 0.002036066)
(0.00048653703 -0.015288259 -0.0027246743)
(0.00020850488 0.00024868672 0.0015012314)
(0.00036355174 -0.017352638 -0.0013382864)
(-0.0019846337 -0.015960241 0.0030511252)
(-0.0019075621 -0.0066775966 0.00077666576)
(0.0012925973 0.0068900115 0.0011488992)
(0.0048409039 0.0099003881 0.00063437127)
(-0.00060672662 0.010136648 0.00033310739)
(-0.00053028039 0.0011026036 0.0016480942)
(-0.0017379398 -0.0017838031 0.0022959568)
(0.0017736127 0.0056168183 0.0013785064)
(-0.0012973896 0.0098900385 -0.0013517188)
(-0.00095354784 0.0086558852 -0.00045238229)
(-0.0032321074 0.010554396 -3.4471199e-06)
(0.00016456463 0.0086356128 -0.00027454339)
(0.0040361082 0.011614856 0.00088167446)
(0.0021104496 0.010684009 0.00087127843)
(-0.0019483739 0.01148419 -0.0022392151)
(0.00041133268 0.006716939 0.00092477838)
(-0.00077222212 -0.0035543833 8.0771465e-05)
(0.00071407958 0.010612827 0.00075750015)
(-0.0023858152 0.010578333 -0.0012333373)
(-0.0032180433 0.0084918848 -0.00062878412)
(2.3693157e-05 0.0093109346 -0.00099467821)
(0.0031560891 0.0084184452 -0.0006600585)
(0.0058541715 0.010266099 -0.0020641113)
(0.0017048737 0.0082820388 -0.0027772455)
(0.0026103607 0.00073241434 -0.00096770955)
(0.0010932521 -0.0037124544 0.00093916288)
(0.0025137111 0.0012951797 8.7641944e-05)
(-0.00095788396 0.012030238 -0.0050008614)
(0.00067338952 0.0078259426 -0.0024861427)
(0.001388393 0.014688898 -0.0029571346)
(-0.0055367384 0.011709146 0.0011178396)
(-0.0015671836 0.0081305066 0.0015347321)
(0.0013134957 -0.0020095131 0.0021773916)
(0.0034652787 -0.007347332 0.0030364779)
(0.0049498883 -0.0079460821 0.0033582592)
(0.0050255023 -0.0090893251 0.003199956)
(-0.00074928515 -0.0095923756 0.0030683424)
(-0.0046453305 -0.010027233 0.0019258849)
(-0.0042686375 -0.0081847759 0.0017367921)
(-0.0035933284 -0.0098066187 0.0017415215)
(-0.0034903546 -0.00553914 -0.00015649666)
(-4.021463e-05 0.00094742805 -0.0001857732)
(0.0023422559 -0.0056515058 -2.2849998e-06)
(0.0030736301 -0.0062293713 -0.00078312356)
(0.0030914713 -0.0027029665 -0.0011464473)
(0.0065598565 -0.0064581524 -0.0011916679)
(-0.00067699152 -0.010626151 -0.00097756203)
(-0.0049709559 -0.012104006 -0.00035909492)
(-0.0032175757 -0.01122692 0.00093122982)
(-0.0032638099 -0.0083915883 0.00043996675)
(-0.00037281017 0.0020191769 0.00029387921)
(0.0030558186 0.00026278686 0.00098519157)
(0.0052387372 -0.0032345105 0.0011251248)
(0.0069223469 -0.0074832623 0.0021854384)
(0.0068863251 -0.009333311 0.002284762)
(0.0024170956 -0.010908742 0.0014171745)
(-0.0049012831 -0.010263797 0.0010007352)
(-0.0043687367 -0.0084275127 0.00083005885)
(-0.004044069 -0.004152216 0.0017155106)
(-0.0012040392 -0.0041357242 0.0010479068)
(0.00060928705 -0.01019203 0.0028180707)
(0.00020142602 -0.0099326014 0.0041904689)
(-0.0021365376 -0.016743405 3.7606853e-05)
(-0.0041571157 -0.014665373 -1.0918817e-05)
(-0.00278445 -0.013501657 -0.00073398799)
(-0.00095483878 -0.01260792 -0.0024805662)
(-0.00071299072 -0.013442956 -0.0018258127)
(0.0010794838 -0.012429181 -0.0036502653)
(0.0018756155 -0.013568469 -0.00067880423)
(0.0045024262 -0.013915178 0.00021441427)
(0.0037344709 -0.015824274 -0.00096782828)
(0.0018373895 -0.017155713 -0.0018366502)
(0.0011059771 -0.017088318 -0.0018209078)
(-0.0007451507 -0.017636578 -0.00032286561)
(-0.0025479199 -0.016089432 -0.00025874178)
(-0.002735619 -0.016142083 0.0009685368)
(-0.001791026 -0.012357341 0.0015134062)
(0.0018818318 -0.012535501 0.0010377667)
(0.0039379609 -0.015959512 0.0011100444)
(0.0021147938 -0.018203321 -0.00072399433)
(0.00055087996 -0.016094918 -0.00098344365)
(-0.00037178889 -0.016255699 0.0014009231)
(-0.0018769021 -0.013865141 0.0023084443)
(-0.0031222828 -0.013052943 0.0028658116)
(-0.0010925903 -0.011262324 0.0018118921)
(0.0021946416 -0.013704185 0.003185929)
(0.0021729861 -0.0152312 0.0035724505)
(0.00085592687 -0.016578731 0.0025703635)
(0.00025067234 -0.019404387 0.0028161508)
(-0.0022502974 -0.017372985 0.0022789918)
(-0.00050623464 -0.01164022 0.00089448068)
(0.0016783476 -0.017610262 0.00065875119)
(-0.0063664993 0.017786181 0.0001987271)
(-0.0057766914 0.011267743 0.00078775725)
(-0.0031806644 0.0014128958 -0.00055901728)
(-0.00065989057 0.0020428741 -0.0013812722)
(-0.001057372 0.0017470285 -0.0014913975)
(0.00049780868 0.0017375201 -0.0034103984)
(0.0015238897 0.0018277034 -0.0011903489)
(0.0048863499 0.010252158 0.0012032632)
(0.0062237177 0.016962007 0.00089842144)
(0.00032658853 0.018752838 -0.0021135412)
(-0.0033239062 0.018773808 -0.0027004464)
(-0.0031555905 0.018934507 -0.001368963)
(-0.0036484671 0.017996918 -0.00023069035)
(-0.0057171174 0.016614625 -5.4465466e-05)
(-7.9221583e-05 0.0047040364 0.0012793256)
(-0.00026972691 5.0473113e-05 -0.0008981602)
(0.0050695884 0.016213448 -0.00049197745)
(0.0049904734 0.019905184 -0.0025994604)
(0.003135851 0.018541805 -0.0030250343)
(-0.0034957431 0.018160552 0.0017607115)
(-0.0042223534 0.016262651 0.002617121)
(-0.0036219741 0.011515892 0.0018190343)
(0.00012170055 0.00049783874 0.00060506634)
(0.0036584994 0.0081787107 0.0017865173)
(0.0071882942 0.015343237 0.0033852308)
(0.006341505 0.017660857 0.0035085368)
(0.00072234099 0.020498261 0.0031307688)
(-0.0036289183 0.018490324 0.0034356179)
(0.0011478145 0.0019009388 -0.00053826498)
(0.0045082063 0.017370021 0.00086718132)
(-0.0032602041 0.0027062678 -2.3204677e-05)
(0.0061321896 -0.014655862 0.00066040232)
(-0.00086754876 -0.015196051 0.00012867806)
(-0.0011734329 -0.013966078 0.0014851145)
(-0.0011645489 -0.01477602 0.0019100796)
(0.00090802746 -0.014150689 -0.0008376526)
(-0.0015428993 -0.01503912 -0.0026312446)
(-0.0053563996 -0.013966215 -0.0020105574)
(-0.0011072949 -0.0016084226 -0.00042359522)
(-0.00087794979 0.0035647868 -0.0017077965)
(-0.001632669 -0.0067899963 9.3879182e-05)
(-0.00083835473 -0.015659905 -0.0011984324)
(-0.0025711888 -0.0010603458 0.00095428789)
(0.002289178 -0.010786847 0.00021126024)
(0.0060244777 -0.013948867 0.0002370661)
(-0.0015968214 -0.015213807 -0.0045781079)
(-0.0052665888 -0.016348855 -0.0051148599)
(-0.000323376 -0.0087446303 -0.0052012036)
(0.00073619993 0.0051778431 -0.0024315368)
(-0.0010630176 0.0010031151 -0.00057019125)
(0.0031390025 -0.010936403 -0.0020496328)
(0.0033027251 -0.014380133 -0.0032484593)
(0.0026058806 -0.014097229 -0.0020609654)
(-0.0012333996 -0.01432936 -0.0004098202)
(0.0010374324 -0.0073769565 -0.00077082512)
(0.0026276118 0.0024505855 2.2027723e-05)
(3.0049754e-05 0.0059734166 0.0012685754)
(0.0047327193 -0.0089137434 0.0020324901)
(-0.00039243013 -0.015760246 -0.0013904629)
(-0.0030674786 -0.0058375474 -0.0014823418)
(0.00068074412 0.0072875444 -0.00024617363)
(0.004942934 0.0098405034 -0.00020147874)
(-0.0029957728 0.0088171943 -7.160043e-05)
(0.00058899281 -0.002985707 0.0012213108)
(-0.0017715899 -0.0050281686 0.0011817416)
(-0.00086702495 -0.0016707474 -0.00045946175)
(-0.0002667264 0.0083722781 -0.0022779802)
(-0.0033382963 0.010213624 -0.0025845546)
(-0.0019701116 0.0077063422 -0.0034417025)
(0.00023191168 0.0089338917 -0.00078454745)
(0.0039324965 0.0093388765 -0.0022722069)
(3.2058102e-05 0.01264891 -0.0022809638)
(-0.0035341253 0.0068384082 -0.0023006006)
(0.0014474439 0.00026757204 0.00039462534)
(-0.00066513248 0.006067054 0.0012398438)
(-0.0019175951 0.012008696 -0.00076282165)
(-0.0050225486 0.011090315 0.0012602729)
(-0.0054806057 0.0096763619 0.00011988512)
(-0.0023566791 0.0093869465 -0.00029970975)
(0.0020260443 0.0085582886 -0.00062843662)
(0.0045749837 0.0081241065 -0.0021123162)
(0.0022339954 0.0016672601 -0.0012490602)
(0.00034034373 -0.0023891812 -0.0013068269)
(-0.0014573163 0.0052243035 0.0022520317)
(-0.0031680389 0.0084740423 0.0005035009)
(-0.0019577891 0.0089146414 -0.0014172789)
(5.7732472e-05 0.0094400485 0.0019885715)
(0.0033485873 0.0096731073 0.0009613613)
(-0.0031654962 0.01080811 -0.00055063553)
(-0.0020216606 0.0081390674 -0.0019321418)
(0.0014996975 -0.0013173585 0.00036178846)
(0.0042979309 -0.0060257522 0.00082590528)
(0.0063936146 -0.0092411724 0.0013058015)
(0.0058080464 -0.0098047729 0.0017537237)
(-0.00094456061 -0.0095921372 0.0018783942)
(-0.0052686894 -0.0098962163 0.0011380513)
(-0.0061799397 -0.0097810943 0.0012580609)
(-0.0043252907 -0.0076000997 0.00013826191)
(-0.0029787466 -0.0037935971 -0.00037167393)
(-0.00024457883 -0.0006731915 0.0018423735)
(0.0021284493 -0.0053654838 0.0020692842)
(0.0025854269 -0.0014003773 0.0012668012)
(0.0055684071 -0.0042896219 0.0019660444)
(0.0028091061 -0.0091089319 0.0018517908)
(-0.004315188 -0.010547626 -0.0017163128)
(-0.0021616622 -0.0064830209 -0.0013684994)
(-0.00088477396 -0.013031174 -0.003488926)
(-0.0015945133 -0.010033994 -0.0039092748)
(-0.00013914264 -0.0036698101 0.0020349128)
(0.0032327489 -0.0065741849 0.0018387874)
(0.0039709755 -0.01008923 0.00063751988)
(0.0037396896 -0.011090202 -0.001614052)
(-0.00070004034 -0.011109464 -0.0034017722)
(-0.0035346835 -0.0094548289 -0.0022692794)
(-0.0038563527 -0.0073209183 0.00010733454)
(-0.0025034316 -0.00365158 0.001095443)
(-0.0010680768 -0.0060894478 0.0022676396)
(-0.0014233594 -0.010960027 0.0019081393)
(-0.0017139371 -0.011701961 -1.0166407e-05)
(-0.00016109496 -0.0097900063 -0.00061912558)
(-0.0014533267 -0.016104395 0.001824442)
(-0.0039592988 -0.014385792 0.0021552923)
(-0.0030188209 -0.0125505 0.002207982)
(-0.0018133126 -0.012680636 0.0018599927)
(-0.0008045952 -0.012928048 0.0015907218)
(0.0021790316 -0.012285118 0.00085873707)
(0.0023693911 -0.01241463 0.0021078428)
(0.0024522562 -0.017075966 0.00082358629)
(-0.00013656201 -0.018752115 -0.001509382)
(-0.0017610201 -0.016581565 -0.0031082598)
(-0.0026764995 -0.013929196 -0.001902212)
(-0.0015445234 -0.012102568 0.00036022732)
(-0.00028636585 -0.011336484 -0.00045607625)
(0.0021222717 -0.011694505 -0.0020850955)
(0.003047179 -0.016495622 -0.00028153532)
(0.0024568895 -0.016786034 0.0014296086)
(0.0014345528 -0.018947354 -0.00052833792)
(-0.00019842291 -0.018434962 -0.0022066348)
(-0.00080677753 -0.0141562 -0.0035207174)
(-0.001586634 -0.016019188 -0.0023094465)
(-0.0015477306 -0.014799068 -0.00096612444)
(-0.0025384152 -0.015851638 0.00067739953)
(-0.0014883173 -0.017241296 0.00036188019)
(-0.00087939123 -0.017793334 -0.00043295663)
(-0.0019476534 -0.015843562 0.00072700994)
(-0.00036895253 -0.013910234 0.00059736628)
(0.0013710992 -0.01636155 0.00021824579)
(0.00093142307 -0.017411068 -0.0016923269)
(0.00079380584 -0.016324504 -0.0010452635)
(-0.00012449908 -0.015975312 -0.0019083481)
(-0.005953591 0.017962446 0.0020613827)
(-0.0075579166 0.014409875 0.0024937606)
(-0.0037882129 0.0023000232 0.0010480027)
(-0.0026798608 0.0051755489 0.0015714339)
(0.00063942054 0.00095243977 0.00042244661)
(0.0027561767 0.0010033377 0.00072185713)
(0.0038064726 0.006891374 0.0024922292)
(0.0061687108 0.01755538 0.0032553956)
(0.00048651182 0.020166807 -0.0014535414)
(-0.005411119 0.016637638 -0.0045135466)
(-0.004162678 0.0095199091 -0.0013347515)
(-0.0027678077 0.0023623433 0.0002963328)
(-0.0011927654 0.00151614 -0.00070440533)
(0.00089605478 0.0026429881 -0.0012077376)
(0.0051100094 0.016588761 0.0017325189)
(0.0025075648 0.017808637 0.004386284)
(-0.0016896647 0.020476445 -0.0017282041)
(0.00069410426 0.01969388 -0.004448967)
(0.0016998537 0.016368772 -0.0043532253)
(0.00041181488 0.01754838 -0.0011836425)
(-0.0044035703 0.01734645 0.0020638549)
(-0.0050070111 0.017355688 0.0024018674)
(-0.0026655032 0.014726907 0.0011745478)
(-0.0010057263 0.01920686 -0.0034037709)
(-0.0016234948 0.017293787 -0.0034764415)
(0.0015502356 0.01115851 -0.00067865979)
(0.0030288578 0.017032546 -0.0028846133)
(0.0032043254 0.018632229 -0.0031493422)
(0.0046501987 0.018187039 -0.0010555217)
(0.0035829385 0.017527143 -0.0005372402)
(-0.0033137794 0.0044796344 0.00028808547)
(0.005659583 -0.01371851 -0.0022440202)
(0.00039158008 -0.015793867 -0.0021695847)
(-0.0017761196 -0.013182504 0.00027685502)
(0.0011348098 -0.014422351 -4.5784803e-05)
(-3.3172339e-05 -0.01387736 -0.0003151924)
(-0.0018557891 -0.013793761 -0.0020820737)
(-0.0018798149 -0.0090243542 -0.00068007564)
(0.00030120791 0.0071028181 -0.0011045228)
(-0.0011836467 -0.0056198715 0.00079253367)
(0.003384665 -0.014244937 0.0044683788)
(-0.0011798702 -0.014713051 0.00089737791)
(-0.0010949225 -0.013691351 0.00021015482)
(-0.00099222079 -0.014038419 0.00096822593)
(-0.00050085651 -0.01293463 -0.0013422423)
(0.00056401893 0.0021207071 0.00074951655)
(-0.0018505538 -0.01451467 -0.003038704)
(-0.00044094266 -0.01690765 -0.0015799899)
(-0.002629884 -0.012386278 0.0027223623)
(-4.5355907e-05 0.0011445824 -0.00027766596)
(6.7429372e-05 0.0014445254 0.00092974545)
(0.00038351087 -0.016225883 0.0026133216)
(-0.0011060431 -0.018800697 0.0031221413)
(-0.003971341 -0.016285426 0.002691999)
(-0.0027932409 -0.012097589 0.0012597163)
(-0.00059108741 -0.013474908 0.00050931806)
(0.0016607444 -0.010073991 0.0034161869)
(0.0027745542 -0.015333281 0.0049317275)
(9.792074e-05 -0.010140391 0.00080407459)
(0.0010513262 0.0029198609 0.00053780243)
(0.00081662959 0.00784522 0.00058579729)
(0.0051820893 0.0095332133 -0.00071022988)
(-0.00090170368 0.010725814 0.00075590422)
(0.00023597118 0.0011223318 -0.00070752965)
(0.00091992006 -0.004518815 9.4139306e-06)
(-0.00076853782 -0.0023899262 -0.001916804)
(-0.0023531912 0.0036352765 -0.0020170727)
(-0.0040001664 0.010170567 -0.0028226655)
(6.4639133e-05 0.009710988 0.00040077164)
(0.0043364686 0.0069742269 0.0012937438)
(0.0043536529 0.0073176812 0.0016408236)
(0.0010820954 0.0052224239 0.00018306783)
(0.0021610108 -0.0020136659 0.0016812324)
(0.00064725017 -0.0030273843 -2.7846009e-05)
(0.00063772454 0.011664591 0.00267332)
(0.0014688515 0.0087986423 -0.00015118926)
(0.0052219854 0.012663487 0.0013633407)
(-0.0028673405 0.013662512 0.00012038261)
(-0.0058174778 0.0097025702 0.0021835668)
(-0.0023359404 0.0050172632 0.000375496)
(0.0039020373 0.0078598215 0.00051269322)
(0.0046593464 0.012053685 0.0023579923)
(0.0031802 0.013156191 0.0037686105)
(-0.00030216609 0.013447195 0.003326943)
(-0.0015660525 0.005822824 0.0026020384)
(-0.0009373972 -0.0012703786 0.0018730191)
(0.00047875021 0.0074888057 0.0058989325)
(0.001406718 0.013561252 0.0055241243)
(-0.0041815159 0.010946861 0.0046423915)
(-0.0012179558 0.0093667826 0.0011978068)
(0.0018367957 -0.00020707256 -0.00043810406)
(0.004200622 -0.0061120821 -0.00075756171)
(0.0061789167 -0.0078391956 -0.0010557136)
(0.0067308329 -0.0091293376 -0.0017613993)
(0.0032622841 -0.0093158276 -0.001797131)
(-0.0025120489 -0.0096259612 -0.0041327168)
(-0.0038012291 -0.0097512256 -0.0027685843)
(-0.0035983021 -0.0099666837 -0.0021046969)
(-7.4930761e-05 -0.0045525118 -0.00091499669)
(0.0025589049 -0.0089907827 -0.00072638158)
(0.0035346096 -0.010779723 0.00044156559)
(0.0032382527 -0.0095802917 0.0033079399)
(0.0040170164 -0.0094203372 0.0026982878)
(-0.0036639702 -0.0092883879 0.00080049152)
(-0.0047723433 -0.0075110151 -0.00015936306)
(-0.0033379896 -0.0026394685 -0.00083259664)
(-0.00098561225 -0.0027900201 -0.0017338444)
(-0.00052453875 0.002833608 -0.00087302124)
(0.0046272755 -0.010348505 -0.0014953738)
(0.0010864066 -0.010896752 -0.0024090745)
(0.00022161542 -0.0068461866 -0.0030705962)
(0.0022450416 -0.010405166 -0.0033302389)
(0.00062422707 -0.013241913 -0.0039701457)
(0.0013328293 -0.0039207629 -0.00018742708)
(0.0048612737 -0.0097683517 0.00055269263)
(-0.0014229625 -0.011309295 0.0019235848)
(-0.0056813056 -0.010268807 0.0023900513)
(-0.0042014613 -0.0071859207 0.0013416122)
(-0.003348573 -0.0053653829 -0.00021499964)
(-0.0014534352 -0.00067591068 -0.00095317702)
(-0.00022811623 -0.016276425 0.0019793819)
(-0.0028420502 -0.014652365 0.002231702)
(-0.0032224209 -0.014968059 0.0028715546)
(-0.0026042841 -0.011917929 0.0020557462)
(-0.00029133906 -0.012172235 0.0018658898)
(0.0017491763 -0.011862046 0.0022959646)
(0.0013443429 -0.015318284 0.0028624075)
(-0.0014630181 -0.019544245 0.0010119571)
(-0.00289459 -0.017315882 -0.00012267832)
(-0.0010932503 -0.013175309 -0.00048592301)
(0.0015024938 -0.012560634 0.0013955069)
(0.003457925 -0.013826467 0.0028193338)
(0.0001793291 -0.015452817 0.0027868141)
(-0.0021814315 -0.01573716 -0.0028147741)
(-0.00081370347 -0.011194546 -0.0036743113)
(-0.00089405535 -0.016004548 -0.0033427486)
(-0.0035501778 -0.015869077 -0.0025012722)
(-0.0053457875 -0.013938869 -0.0011702083)
(-0.0047977081 -0.012832507 0.00020013026)
(-0.0016423255 -0.013094546 0.00036352454)
(0.002187323 -0.013252356 -0.0015087071)
(-0.00062609611 -0.016882732 -0.0013144086)
(-0.0016689848 -0.011316388 -0.0016921444)
(0.0021677777 -0.011220698 -0.00075935143)
(0.0025085599 -0.015400167 -0.0027480568)
(0.0017413239 -0.017383852 -0.0030380955)
(-0.0038758975 0.018063829 0.0025342717)
(-0.0063680289 0.016870686 0.002855251)
(-0.0058611626 0.013387221 0.002302551)
(-0.0032945436 0.004920343 0.0011174728)
(0.00090629906 0.0020125503 0.0013529859)
(0.0025066508 0.004505475 0.001726116)
(0.0057223381 0.015752946 0.0037006217)
(-0.0021450837 0.020635871 0.00022363514)
(-0.0065872594 0.015007925 -0.0034472769)
(-0.00035753888 -0.00069773793 -0.00091578062)
(-0.0024369644 -0.0018280962 -0.00073451599)
(0.003538624 0.014158026 0.0044190419)
(-0.00069577181 0.016066377 0.005458364)
(-0.0018477492 0.017718637 -0.0038265569)
(0.0012597935 0.005616764 -4.3405808e-05)
(0.0026833098 0.017100905 -0.0022468585)
(-0.0050658139 0.017825435 0.0010627697)
(-0.0069578807 0.014858479 0.002688759)
(-0.003636992 0.0044117076 0.0029196188)
(-0.0020202991 -0.0019326484 0.0030177415)
(0.0014287493 0.010842049 0.00077480255)
(-0.00026784714 0.018301485 -0.00086357464)
(0.00067886785 0.0053917398 0.00033982633)
(0.0042582308 3.2239474e-05 0.0018970898)
(0.0064840812 0.012632942 -0.00070544186)
(0.0065859632 0.018241625 -0.0017467206)
(-0.00043234961 0.0049156837 -0.00011711707)
(0.00077419948 -0.0019295491 -0.0013038989)
(0.0020277543 -0.015247861 -0.0038154164)
(-3.1855232e-05 -0.014462324 -0.0027228745)
(0.0013017808 -0.014055501 -0.00076009013)
(-0.0022447093 -0.014554071 -0.00090686053)
(-0.0019164648 -0.0052093187 -0.00020480903)
(-0.0026650738 0.0064000136 -0.0010190482)
(0.0037591584 -0.014331817 0.0017367006)
(0.0032783338 -0.015220162 0.00094316752)
(-0.0059909551 -0.015586703 -0.0020282395)
(-0.0059774641 -0.014283208 -0.0032855677)
(-0.0020624801 -0.012229994 -0.0022994702)
(0.0035385333 -0.011053838 -0.00239159)
(-0.0019939453 -0.01407324 0.0032642779)
(-0.0017154245 0.00040764728 0.0010568031)
(-0.0021958266 0.0041539444 0.00096705914)
(0.00043237487 -0.0091237328 0.0011730212)
(0.0034350579 -0.015379842 0.0011602029)
(-0.0038259252 -0.015950541 0.0042973615)
(-0.0062301411 -0.014004557 0.0037233304)
(0.00028290983 -0.012563293 0.0015529699)
(0.0040626347 -0.01320631 0.0038236872)
(0.0040497558 -0.015284744 0.005451212)
(-0.0049223271 -0.014488659 0.00489563)
(0.0034373718 0.0061040738 -9.7387989e-05)
(0.0013982832 0.0094228878 4.5450259e-05)
(0.0043949057 0.0071826851 -0.0020256763)
(0.0030603557 0.010002486 -0.0010774427)
(1.8672606e-05 0.0029426651 -0.0015205595)
(-0.00012937489 -0.001411616 -9.9606108e-05)
(-0.0027824838 0.0085541405 0.0037020813)
(-0.0052691921 0.0083192965 -0.0005263105)
(-0.0008338256 0.0090131538 -0.00089219099)
(0.00411752 0.0068759009 0.00018748518)
(0.0017563869 0.010122332 0.00056049099)