/*--------------------------------*- C++ -*----------------------------------*\
| =========                 |                                                 |
| \\      /  F ield         | OpenFOAM: The Open Source CFD Toolbox           |
|  \\    /   O peration     | Version:  v2012                                 |
|   \\  /    A nd           | Website:  www.openfoam.com                      |
|    \\/     M anipulation  |                                                 |
\*---------------------------------------------------------------------------*/
FoamFile
{
    version     2.0;
    format      ascii;
    class       volScalarField;
    location    "210/rightSolid";
    object      T;
}
// * * * * * * * * * * * * * * * * * * * * * * * * * * * * * * * * * * * * * //

dimensions      [0 0 0 1 0 0 0];


internalField   nonuniform List<scalar> 
130
(
692.25589
698.66118
705.30211
711.84788
718.00567
723.6315
728.64427
732.96739
736.57149
739.44883
741.60152
743.03739
743.75576
687.47681
694.99641
702.61149
709.9327
716.67593
722.72463
728.03241
732.55676
736.29884
739.26523
741.47524
742.94746
743.6849
677.79312
687.87162
697.57488
706.4597
714.32447
721.14912
726.97977
731.85352
735.82492
738.94621
741.26215
742.79843
743.56569
663.21438
678.13685
691.20921
702.31278
711.63124
719.4016
725.83176
731.08921
735.31485
738.6043
741.02523
742.62865
743.42415
645.87884
668.81571
685.90221
699.14598
709.68176
718.17907
725.0518
730.59104
734.99893
738.40541
740.89374
742.53128
743.34525
645.90286
668.79797
685.83799
699.05004
709.57124
718.08469
725.00193
730.57579
735.01443
738.43599
740.93116
742.56652
743.37832
663.30171
678.14873
691.14386
702.18781
711.48715
719.2849
725.76254
731.07497
735.36535
738.69054
741.12533
742.72289
743.51654
678.02401
688.01479
697.62179
706.41982
714.26736
721.11253
726.96604
731.88082
735.91026
739.07095
741.40088
742.93596
743.70157
687.82496
695.25641
702.77532
710.00131
716.70988
722.77784
728.0998
732.65147
736.42921
739.43481
741.66932
743.145
743.87455
692.66331
698.98572
705.53666
711.98265
718.09945
723.74309
728.7662
733.10734
736.73733
739.63659
741.80682
743.24943
743.96638
)
;

boundaryField
{
    maxX
    {
        type            zeroGradient;
    }
    minZ
    {
        type            zeroGradient;
    }
    maxZ
    {
        type            zeroGradient;
    }
    rightSolid_to_bottomWater
    {
        type            compressible::turbulentTemperatureCoupledBaffleMixed;
        refValue        nonuniform List<scalar> 
130
(
967.62822
969.34353
970.50875
976.52336
976.15093
976.06169
980.3494
982.30956
983.34131
983.82484
983.7977
984.14999
984.08522
968.16937
970.75955
972.98013
978.5162
978.437
978.38163
982.44101
984.04692
985.89873
985.8143
985.20525
985.65365
986.14545
966.38686
970.05035
973.64018
979.71147
980.42302
979.64562
982.96751
984.74962
985.38209
985.42493
986.37949
987.3686
987.96833
962.60847
967.23057
971.34123
974.49451
976.2933
977.76201
978.84805
978.58777
979.58064
980.23097
980.5711
983.35308
983.64112
946.58957
958.37779
964.71347
968.39039
972.27421
975.53105
975.18944
975.23811
976.5209
978.38808
978.51316
979.98224
981.02615
946.50942
953.39062
954.68219
956.87128
959.3805
964.9537
971.80282
973.12051
976.79124
978.7464
979.49757
980.2381
980.89702
956.7946
958.47597
959.36298
960.31675
962.31062
968.43396
971.97926
972.6522
979.76776
981.54336
982.64117
983.10119
983.62231
965.61326
967.36465
967.83723
967.09812
972.2739
975.2238
976.11884
977.97682
983.53434
985.24103
985.55602
985.61161
986.46217
970.22584
971.47273
971.8601
971.42587
971.71641
977.37075
978.93065
980.74595
983.08455
986.46662
987.83624
987.82552
986.17265
970.73881
971.60005
972.60467
971.51904
971.07581
977.54205
979.37619
980.8965
983.07096
983.71899
984.43171
984.99216
984.51194
)
;
        refGradient     uniform 0;
        valueFraction   nonuniform List<scalar> 
130
(
0.0075140686
0.0075140686
0.0075140686
0.0075140686
0.0075140686
0.0075140686
0.0075140686
0.0075140686
0.0075140686
0.0075140686
0.0075140686
0.0075140686
0.0075140686
0.0075140686
0.0075140686
0.0075140686
0.0075140686
0.0075140686
0.0075140686
0.0075140686
0.0075140686
0.0075140686
0.0075140686
0.0075140686
0.0075140686
0.0075140686
0.0075140686
0.0075140686
0.0075140686
0.0075140686
0.0075140686
0.0075140686
0.0075140686
0.0075140686
0.0075140686
0.0075140686
0.0075140686
0.0075140686
0.0075140686
0.0075140686
0.0075140686
0.0075140686
0.0075140686
0.0075140686
0.0075140686
0.0075140686
0.0075140686
0.0075140686
0.0075140686
0.0075140686
0.0075140686
0.0075140686
0.0075140686
0.0075140686
0.0075140686
0.0075140686
0.0075140686
0.0075140686
0.0075140686
0.0075140686
0.0075140686
0.0075140686
0.0075140686
0.0075140686
0.0075140686
0.0075140686
0.0075140686
0.0075140686
0.0075140686
0.0075140686
0.0075140686
0.0075140686
0.0075140686
0.0075140686
0.0075140686
0.0075140686
0.0075140686
0.0075140686
0.0075140686
0.0075140686
0.0075140686
0.0075140686
0.0075140686
0.0075140686
0.0075140686
0.0075140686
0.0075140686
0.0075140686
0.0075140686
0.0075140686
0.0075140686
0.0075140686
0.0075140686
0.0075140686
0.0075140686
0.0075140686
0.0075140686
0.0075140686
0.0075140686
0.0075140686
0.0075140686
0.0075140686
0.0075140686
0.0075140686
0.0075140686
0.0075140686
0.0075140686
0.0075140686
0.0075140686
0.0075140686
0.0075140686
0.0075140686
0.0075140686
0.0075140686
0.0075140686
0.0075140686
0.0075140686
0.0075140686
0.0075140686
0.0075140686
0.0075140686
0.0075140686
0.0075140686
0.0075140686
0.0075140686
0.0075140686
0.0075140686
0.0075140686
0.0075140686
0.0075140686
)
;
        value           nonuniform List<scalar> 
130
(
694.31487
700.68464
707.28411
713.82556
719.93393
725.51648
730.52345
734.82855
738.41313
741.27236
743.40858
744.83627
745.54875
689.57591
697.05815
704.63234
711.9398
718.6314
724.63388
729.93194
734.43409
738.16176
741.10511
743.29385
744.75832
745.49389
679.95186
689.98174
699.63864
708.50189
716.31254
723.07976
728.89124
733.74149
737.68758
740.78561
743.09123
744.62334
745.3893
665.45473
680.29921
693.30369
704.34704
713.60862
721.3313
727.72101
732.93672
737.13786
740.40735
742.81254
744.42474
745.21637
648.12965
670.98188
687.98693
701.15829
711.6437
720.1013
726.91953
732.41725
736.80143
740.19617
742.66663
744.30282
745.11847
648.15304
670.92702
687.84807
700.97675
711.43727
719.92821
726.84466
732.3863
736.81893
740.22928
742.71119
744.33974
745.15034
665.49802
680.2456
693.14927
704.11691
713.36089
721.14563
727.60093
732.87826
737.1896
740.50294
742.92753
744.51643
745.30798
680.17554
690.10401
699.64198
708.36794
716.19498
723.01054
728.82649
733.71802
737.75867
740.90823
743.22287
744.74673
745.51293
689.9371
697.32176
704.78679
711.95488
718.61483
724.67933
729.97273
734.50358
738.27025
741.27848
743.50635
744.97078
745.68239
694.74274
701.02382
707.53282
713.92191
719.98905
725.6385
730.63737
734.95705
738.57588
741.45803
743.6172
745.05311
745.76103
)
;
        Tnbr            T;
        thicknessLayers List<scalar> 0();
        kappaLayers     List<scalar> 0();
        kappaMethod     solidThermo;
        kappa           none;
        alphaAni        none;
        alpha           none;
        field           T;
    }
    rightSolid_to_topAir
    {
        type            compressible::turbulentTemperatureCoupledBaffleMixed;
        refValue        nonuniform List<scalar> 
130
(
463.21319
459.45433
455.74579
452.42745
449.65874
447.4933
445.94512
445.03637
444.82709
445.44592
447.17185
450.58361
456.39786
424.12834
419.82388
416.61369
414.29659
412.61632
411.40662
410.61828
410.31108
410.62521
411.78571
414.29676
419.27503
427.32216
429.44798
420.66524
413.06394
406.95792
402.27701
398.83219
396.47639
395.23681
395.22611
396.38378
398.92097
404.02543
415.95483
464.76766
463.92065
463.32702
462.43288
461.06337
459.25635
457.2753
455.36781
453.69714
453.20569
456.62924
464.4794
473.31397
466.41642
470.74517
475.23811
479.66573
483.84802
487.61439
490.81562
493.3588
495.29156
496.94912
499.20134
503.34551
511.12159
465.8558
470.2469
474.79904
479.30737
483.59382
487.48317
490.81237
493.46304
495.44304
497.08812
499.28478
503.34696
511.00416
463.84189
463.3442
463.13307
462.63646
461.6357
460.11236
458.26119
456.31623
454.37646
453.58255
456.7758
464.70139
473.6018
428.77872
420.10752
412.66557
406.73965
402.23536
398.94638
396.70753
395.47265
395.39886
396.4524
398.84237
403.73874
415.44155
423.81526
419.48771
416.3007
414.04275
412.45241
411.35269
410.67636
410.45383
410.81012
411.96869
414.43703
419.32411
427.29067
463.07586
459.27508
455.54422
452.2251
449.47896
447.35744
445.86556
445.01141
444.84261
445.48073
447.20283
450.58421
456.34528
)
;
        refGradient     uniform 0;
        valueFraction   nonuniform List<scalar> 
130
(
0.00032132529
0.00032132529
0.00032132529
0.00032132529
0.00032132529
0.00032132529
0.00032132529
0.00032132529
0.00032132529
0.00032132529
0.00032132529
0.00032132529
0.00032132529
0.00032132529
0.00032132529
0.00032132529
0.00032132529
0.00032132529
0.00032132529
0.00032132529
0.00032132529
0.00032132529
0.00032132529
0.00032132529
0.00032132529
0.00032132529
0.00032132529
0.00032132529
0.00032132529
0.00032132529
0.00032132529
0.00032132529
0.00032132529
0.00032132529
0.00032132529
0.00032132529
0.00032132529
0.00032132529
0.00032132529
0.00032132529
0.00032132529
0.00032132529
0.00032132529
0.00032132529
0.00032132529
0.00032132529
0.00032132529
0.00032132529
0.00032132529
0.00032132529
0.00032132529
0.00032132529
0.00032132529
0.00032132529
0.00032132529
0.00032132529
0.00032132529
0.00032132529
0.00032132529
0.00032132529
0.00032132529
0.00032132529
0.00032132529
0.00032132529
0.00032132529
0.00032132529
0.00032132529
0.00032132529
0.00032132529
0.00032132529
0.00032132529
0.00032132529
0.00032132529
0.00032132529
0.00032132529
0.00032132529
0.00032132529
0.00032132529
0.00032132529
0.00032132529
0.00032132529
0.00032132529
0.00032132529
0.00032132529
0.00032132529
0.00032132529
0.00032132529
0.00032132529
0.00032132529
0.00032132529
0.00032132529
0.00032132529
0.00032132529
0.00032132529
0.00032132529
0.00032132529
0.00032132529
0.00032132529
0.00032132529
0.00032132529
0.00032132529
0.00032132529
0.00032132529
0.00032132529
0.00032132529
0.00032132529
0.00032132529
0.00032132529
0.00032132529
0.00032132529
0.00032132529
0.00032132529
0.00032132529
0.00032132529
0.00032132529
0.00032132529
0.00032132529
0.00032132529
0.00032132529
0.00032132529
0.00032132529
0.00032132529
0.00032132529
0.00032132529
0.00032132529
0.00032132529
0.00032132529
0.00032132529
0.00032132529
0.00032132529
)
;
        value           nonuniform List<scalar> 
130
(
692.17204
698.57378
705.21106
711.75333
717.9079
723.53088
728.54119
732.86237
736.46504
739.34154
741.494
742.93047
743.65046
687.38207
694.89755
702.50879
709.82657
716.56672
722.61273
727.91822
732.44074
736.18151
739.1472
741.35722
742.83051
743.57028
677.70348
687.7755
697.47277
706.35234
714.21271
721.03375
726.86144
731.73295
735.70286
738.82339
741.13931
742.67667
743.44748
663.14122
678.05804
691.12546
702.22469
711.53933
719.30629
725.73345
730.98832
735.21185
738.49995
740.9211
742.52645
743.32448
645.81236
668.74238
685.82415
699.06457
709.59791
718.09337
724.96463
730.50264
734.9095
738.31525
740.80339
742.44164
743.2578
645.83635
668.7247
685.76008
698.96878
709.4875
717.99904
724.91485
730.48752
734.92514
738.34593
740.84085
742.4769
743.29085
663.22853
678.07011
691.06051
702.10027
711.39582
719.19015
725.6648
730.97465
735.26276
738.58642
741.0213
742.62079
743.41699
677.93442
687.9188
697.51992
706.31281
714.15596
720.99752
726.84813
731.76066
735.7885
738.94831
741.2781
742.81417
743.58324
687.73022
695.15757
702.67274
709.89534
716.60085
722.66615
727.98589
732.53576
736.31215
739.31695
741.5514
743.02809
743.75993
692.57942
698.89828
705.44564
711.88819
718.00177
723.64254
728.66328
733.00249
736.63103
739.52937
741.69934
743.14251
743.86104
)
;
        Tnbr            T;
        thicknessLayers List<scalar> 0();
        kappaLayers     List<scalar> 0();
        kappaMethod     solidThermo;
        kappa           none;
        alphaAni        none;
        alpha           none;
        field           T;
    }
    rightSolid_to_heater
    {
        type            compressible::turbulentTemperatureCoupledBaffleMixed;
        refValue        nonuniform List<scalar> 10(686.49265 680.59737 668.22639 647.66144 613.27714 613.31846 647.81276 668.52575 681.01597 686.96339);
        refGradient     uniform 0;
        valueFraction   nonuniform List<scalar> 10(0.50000003 0.50000003 0.50000003 0.50000003 0.50000003 0.50000003 0.50000003 0.50000003 0.50000003 0.50000003);
        value           nonuniform List<scalar> 10(689.36914 684.03203 673.00483 655.43321 629.57358 629.60633 655.55269 673.27013 684.41551 689.80829);
        Tnbr            T;
        thicknessLayers List<scalar> 0();
        kappaLayers     List<scalar> 0();
        kappaMethod     solidThermo;
        kappa           none;
        alphaAni        none;
        alpha           none;
        field           T;
    }
}


// ************************************************************************* //
