/*--------------------------------*- C++ -*----------------------------------*\
| =========                 |                                                 |
| \\      /  F ield         | OpenFOAM: The Open Source CFD Toolbox           |
|  \\    /   O peration     | Version:  v2012                                 |
|   \\  /    A nd           | Website:  www.openfoam.com                      |
|    \\/     M anipulation  |                                                 |
\*---------------------------------------------------------------------------*/
FoamFile
{
    version     2.0;
    format      ascii;
    class       volScalarField;
    location    "630/heater";
    object      T;
}
// * * * * * * * * * * * * * * * * * * * * * * * * * * * * * * * * * * * * * //

dimensions      [0 0 0 1 0 0 0];


internalField   nonuniform List<scalar> 
80
(
733.05804
735.21315
739.39787
745.33339
723.76833
726.284
731.19767
738.21869
704.18032
707.40964
713.86549
723.35858
672.24929
676.28794
684.89719
698.79009
345.7456
342.94075
342.92864
345.54782
422.60819
419.18705
419.3571
422.85199
488.30904
485.45194
486.12529
489.84449
544.14245
542.42844
544.33157
548.84136
590.23946
590.52677
595.1835
602.80179
625.45327
629.11838
638.64783
657.83383
345.64257
342.85988
342.87092
345.52388
422.41986
419.0583
419.26417
422.80247
488.10339
485.32719
486.05085
489.79494
544.02626
542.35728
544.29579
548.81828
590.22881
590.51107
595.18144
602.80199
625.47639
629.13879
638.67175
657.86057
672.38802
676.39885
685.02215
698.91523
704.43129
707.63753
714.0916
723.57506
724.10101
726.60885
731.52578
738.51288
733.4346
735.5889
739.765
745.65467
)
;

boundaryField
{
    minY
    {
        type            fixedValue;
        value           uniform 300;
    }
    minZ
    {
        type            zeroGradient;
    }
    maxZ
    {
        type            zeroGradient;
    }
    heater_to_topAir
    {
        type            compressible::turbulentTemperatureCoupledBaffleMixed;
        refValue        nonuniform List<scalar> 
40
(
518.30241
515.35047
509.93091
502.79775
481.90195
470.16433
457.5459
446.28333
492.64002
481.59376
469.66265
458.46226
507.39191
503.32049
501.49894
501.63251
504.60674
501.68391
501.9852
504.23679
504.38875
502.66451
504.0148
506.14551
506.57812
503.39633
502.7094
503.75705
491.90588
481.06877
469.77309
459.26082
481.52504
469.5773
457.00539
446.05923
518.44202
515.42734
509.98831
502.91787
)
;
        refGradient     uniform 0;
        valueFraction   nonuniform List<scalar> 
40
(
0.00032132529
0.00032132529
0.00032132529
0.00032132529
0.00032132529
0.00032132529
0.00032132529
0.00032132529
0.00032132529
0.00032132529
0.00032132529
0.00032132529
0.00032132529
0.00032132529
0.00032132529
0.00032132529
0.00032132529
0.00032132529
0.00032132529
0.00032132529
0.00032132529
0.00032132529
0.00032132529
0.00032132529
0.00032132529
0.00032132529
0.00032132529
0.00032132529
0.00032132529
0.00032132529
0.00032132529
0.00032132529
0.00032132529
0.00032132529
0.00032132529
0.00032132529
0.00032132529
0.00032132529
0.00032132529
0.00032132529
)
;
        value           nonuniform List<scalar> 
40
(
732.98904
735.14251
739.32413
745.25546
723.69061
726.2017
731.10973
738.12489
704.11234
707.33708
713.78702
723.27347
672.19632
676.23236
684.83826
698.72674
625.41444
629.07743
638.60392
657.78447
625.43748
629.09815
638.62848
657.81182
672.33474
676.34326
684.96357
698.85252
704.363
707.56472
714.01309
723.49013
724.02306
726.52626
731.43757
738.4189
733.36552
735.51815
739.69116
745.57667
)
;
        Tnbr            T;
        thicknessLayers List<scalar> 0();
        kappaLayers     List<scalar> 0();
        kappaMethod     solidThermo;
        kappa           none;
        alphaAni        none;
        alpha           none;
        field           T;
    }
    heater_to_rightSolid
    {
        type            compressible::turbulentTemperatureCoupledBaffleMixed;
        refValue        nonuniform List<scalar> 10(752.59499 746.80394 735.13806 717.69104 697.06056 697.09283 717.8047 735.31635 747.02523 752.82827);
        refGradient     uniform 0;
        valueFraction   nonuniform List<scalar> 10(0.49999997 0.49999997 0.49999997 0.49999997 0.49999997 0.49999997 0.49999997 0.49999997 0.49999997 0.49999997);
        value           nonuniform List<scalar> 10(748.96419 742.51132 729.24832 708.24056 677.44719 677.4767 708.35997 729.4457 742.76905 749.24147);
        Tnbr            T;
        thicknessLayers List<scalar> 0();
        kappaLayers     List<scalar> 0();
        kappaMethod     solidThermo;
        kappa           none;
        alphaAni        none;
        alpha           none;
        field           T;
    }
    heater_to_leftSolid
    {
        type            compressible::turbulentTemperatureCoupledBaffleMixed;
        refValue        nonuniform List<scalar> 10(919.57897 919.52115 919.5549 919.59928 919.59409 919.6001 919.68933 919.84295 919.96788 920.04821);
        refGradient     uniform 0;
        valueFraction   nonuniform List<scalar> 10(2.0832898e-05 2.0832898e-05 2.0832898e-05 2.0832898e-05 2.0832898e-05 2.0832898e-05 2.0832898e-05 2.0832898e-05 2.0832898e-05 2.0832898e-05);
        value           nonuniform List<scalar> 10(733.06193 723.77241 704.1848 672.25444 625.4594 625.48251 672.39317 704.43577 724.10509 733.43849);
        Tnbr            T;
        thicknessLayers List<scalar> 1(0.001);
        kappaLayers     List<scalar> 1(0.0005);
        kappaMethod     solidThermo;
        kappa           none;
        alphaAni        none;
        alpha           none;
        field           T;
    }
    heater_to_bottomWater
    {
        type            compressible::turbulentTemperatureCoupledBaffleMixed;
        refValue        nonuniform List<scalar> 
92
(
924.2181
924.47395
925.79076
927.40328
924.1006
925.8319
926.83101
928.10072
923.4666
924.96551
924.80971
925.55162
937.48728
931.08923
929.53782
925.28512
938.428
928.49769
927.6063
926.45852
939.81841
933.89671
920.82896
925.8005
938.00476
934.38964
920.19164
923.1438
923.66504
923.66504
928.0697
928.0697
919.14316
919.14316
920.21548
920.21548
947.97878
896.22873
944.49335
904.12342
942.33137
910.43132
939.67658
913.67575
927.63326
916.68364
949.41029
918.13158
913.85314
916.33541
902.68501
918.15359
943.74321
921.42571
916.39266
914.3009
910.21044
919.6865
933.59378
922.3024
918.4073
917.16138
913.0439
921.38756
931.84657
925.80984
922.49457
920.91323
915.51769
922.39077
926.84347
925.64946
922.19076
921.62112
916.84439
922.99332
925.64946
922.19076
921.62112
922.99332
932.09563
927.15308
926.9485
927.57171
930.2656
929.58599
932.51542
930.33415
928.67383
929.30685
930.67984
929.48557
)
;
        refGradient     uniform 0;
        valueFraction   nonuniform List<scalar> 
92
(
0.0075140686
0.0075140686
0.0075140686
0.0075140686
0.0075140686
0.0075140686
0.0075140686
0.0075140686
0.0075140686
0.0075140686
0.0075140686
0.0075140686
0.0075140686
0.0075140686
0.0075140686
0.0075140686
0.0075140686
0.0075140686
0.0075140686
0.0075140686
0.0075140686
0.0075140686
0.0075140686
0.0075140686
0.0075140686
0.0075140686
0.0075140686
0.0075140686
0.0075140686
0.0075140686
0.0075140686
0.0075140686
0.0075140686
0.0075140686
0.0075140686
0.0075140686
0.0075140679
0.0075140679
0.0075140679
0.0075140679
0.0075140679
0.0075140679
0.0075140679
0.0075140679
0.0075140679
0.0075140679
0.0075140679
0.0075140686
0.0075140686
0.0075140686
0.0075140679
0.0075140686
0.0075140679
0.0075140686
0.0075140686
0.0075140686
0.0075140679
0.0075140686
0.0075140679
0.0075140686
0.0075140686
0.0075140686
0.0075140679
0.0075140686
0.0075140679
0.0075140686
0.0075140686
0.0075140686
0.0075140679
0.0075140686
0.0075140679
0.0075140686
0.0075140686
0.0075140686
0.0075140679
0.0075140686
0.0075140686
0.0075140686
0.0075140686
0.0075140686
0.0075140686
0.0075140686
0.0075140686
0.0075140686
0.0075140686
0.0075140686
0.0075140686
0.0075140686
0.0075140686
0.0075140686
0.0075140686
0.0075140686
)
;
        value           nonuniform List<scalar> 
92
(
734.49443
736.63527
740.79844
746.70148
725.27364
727.78341
732.66767
739.64548
705.82805
709.04437
715.45054
724.87788
350.19199
347.36014
347.33646
349.90401
426.4841
423.01405
423.17612
426.63612
491.70171
488.82159
489.39169
493.12029
547.10196
545.37366
547.1558
551.65389
674.13845
592.74484
678.17985
593.06309
686.65733
597.61775
700.45389
605.18686
350.27082
349.68568
426.52967
426.46829
491.72059
493.0048
547.11452
551.58275
592.77466
605.16032
350.17932
349.94429
347.15036
347.17997
349.71043
349.82666
426.33712
426.16943
422.79531
422.98391
426.46488
426.53609
491.45084
491.36599
488.58139
489.29025
492.97526
493.03796
546.94037
546.89501
545.21366
547.12572
551.57369
551.62533
592.75816
592.74918
593.00334
597.63433
605.16173
605.20793
674.29104
678.24575
686.79998
700.59897
706.14197
709.28698
715.69102
725.1079
725.65014
728.13403
733.03603
739.95424
734.90164
737.04451
741.19954
747.03598
)
;
        Tnbr            T;
        thicknessLayers List<scalar> 0();
        kappaLayers     List<scalar> 0();
        kappaMethod     solidThermo;
        kappa           none;
        alphaAni        none;
        alpha           none;
        field           T;
    }
}


// ************************************************************************* //
